FOO
141312
    1MOL0     O    1   9.118   1.721   5.423 -0.0585  0.4573  0.0091
    1MOL0     C    2   9.012   1.771   5.445  1.3003 -0.0244  0.3555
    1MOL0     O    3   8.896   1.755   5.368 -0.2745 -0.2859 -0.1252
    1MOL0     C    4   8.892   1.660   5.273  0.6717  0.4509  0.7008
    1MOL0     C    5   8.970   1.679   5.158 -0.3586  0.0258  0.7235
    1MOL0     C    6   8.968   1.580   5.057 -0.3800 -0.6687 -0.2031
    1MOL0     C    7   8.895   1.466   5.070 -0.0100  0.9727  0.0510
    1MOL0     O    8   8.905   1.366   4.971 -0.4996 -0.6529  0.5545
    1MOL0     C    9   8.870   1.231   5.004 -0.3036  0.4109  0.2315
    1MOL0     C   10   8.934   1.121   4.930  0.2018 -0.1024 -0.3294
    1MOL0     C   11   8.910   1.136   4.782 -0.2897  0.3780 -0.8144
    1MOL0     C   12   9.037   1.090   4.711 -0.7972 -0.7671  0.0507
    1MOL0     C   13   9.011   1.099   4.561 -0.9051 -0.2423  0.0644
    1MOL0     C   14   9.122   1.053   4.472  0.1688  0.6733 -0.9733
    1MOL0     C   15   9.256   1.134   4.488  0.3741  0.1568 -0.0167
    1MOL0     C   16   9.368   1.104   4.384  0.3968  0.0647  0.2817
    1MOL0     N   17   9.424   0.968   4.396  0.1332 -0.1278  0.6056
    1MOL0     C   18   9.527   0.927   4.476 -0.4718  0.6860 -0.7056
    1MOL0     C   19   9.538   0.790   4.445  0.6689 -0.5643 -0.1923
    1MOL0     C   20   9.627   0.700   4.507 -0.4257 -0.8091  0.0679
    1MOL0     C   21   9.767   0.738   4.463  0.3005 -0.0041  0.0688
    1MOL0     C   22   9.835   0.861   4.530 -0.3082  0.8937 -0.4695
    1MOL0     C   23   9.989   0.826   4.535  1.4001  0.4522 -0.1547
    1MOL0     O   24  10.027   0.808   4.402 -0.2375 -0.0565 -0.2940
    1MOL0     C   25  10.159   0.775   4.372 -0.4849 -0.5525 -0.8342
    1MOL0     C   26  10.176   0.752   4.230  0.1410 -0.4692 -0.3508
    1MOL0     C   27  10.303   0.724   4.180 -0.2827  0.2005  0.1769
    1MOL0     C   28  10.308   0.700   4.032 -0.3947 -0.1879 -0.3515
    1MOL0     C   29  10.415   0.731   4.268  0.7260  0.1447  0.4514
    1MOL0     C   30  10.561   0.703   4.215  0.9399  1.1671 -0.0403
    1MOL0     O   31  10.600   0.735   4.088 -0.3700 -0.7458  0.3821
    1MOL0     C   32  10.730   0.722   4.052  0.2938 -0.0803 -0.8552
    1MOL0     C   33  10.759   0.609   3.971 -0.1011  0.6901  0.0083
    1MOL0     C   34  10.891   0.585   3.928  0.0047  0.2930 -0.2210
    1MOL0     C   35  10.996   0.665   3.966  0.4308 -0.1290  0.2878
    1MOL0     O   36  11.122   0.645   3.913  0.1345 -0.0350  0.7657
    1MOL0     C   37  11.175   0.509   3.920  0.5236 -0.0966 -0.9767
    1MOL0     C   38  11.314   0.516   3.853 -0.7302 -0.4301  0.3772
    1MOL0     C   39  11.313   0.497   3.706  0.8621 -0.7164  0.8055
    1MOL0     C   40  11.416   0.564   3.617  0.2796  0.4347  0.6322
    1MOL0     C   41  11.385   0.541   3.470 -0.2512  0.0336  0.0059
    1MOL0     C   42  11.478   0.612   3.376 -0.2636  0.5389  0.3672
    1MOL0     C   43  11.491   0.762   3.390 -1.1821  0.1818 -0.8657
    1MOL0     C   44  11.368   0.841   3.405  1.3391  0.5887 -0.2492
    1MOL0    Cl   45  11.401   1.011   3.394  0.1714  0.2206 -0.0358
    1MOL0     C   46  10.968   0.777   4.050  0.0460 -0.5694  0.3757
    1MOL0     C   47  10.835   0.804   4.085  0.5538  0.2252 -0.4621
    1MOL0     O   48  10.640   0.648   4.295 -0.6294  0.3553  0.1057
    1MOL0     C   49  10.397   0.762   4.404  0.7609 -0.4242 -0.1056
    1MOL0     C   50  10.269   0.782   4.462 -0.4379 -1.3590  0.3946
    1MOL0     N   51   9.451   0.761   4.347  0.6579 -0.1825  0.4688
    1MOL0     N   52   9.382   0.866   4.316 -1.1649  0.2066 -0.9684
    1MOL0     C   53   8.808   1.449   5.179  0.0092 -0.3039 -0.4814
    1MOL0     C   54   8.815   1.541   5.291 -0.1442 -0.0087  0.4986
    1MOL0     C   55   9.005   1.875   5.560 -0.0437  0.2406  0.8913
    1MOL0     C   56   8.916   1.975   5.554 -0.1833 -0.8340 -0.7091
    1MOL0     C   57   8.903   2.068   5.654 -1.2844 -0.1671  0.3557
    1MOL0     C   58   8.970   2.053   5.777 -0.0407 -0.8400  0.9628
    1MOL0     O   59   8.945   2.162   5.869 -0.3115  0.1272  0.1727
    1MOL0     C   60   9.041   2.171   5.973 -0.2845  0.8726  0.3900
    1MOL0     C   61   9.006   2.302   6.042 -0.0365 -0.1618  0.1647
    1MOL0     C   62   9.064   2.421   5.958  0.8102  0.0044  0.2543
    1MOL0     C   63   9.074   2.557   6.035  0.5682 -0.8338 -0.3188
    1MOL0     C   64   8.937   2.621   6.043 -0.2955 -1.1384  0.2789
    1MOL0     C   65   8.833   2.673   6.073  0.0760  0.1810 -0.2559
    1MOL0     C   66   9.056   1.951   5.789 -0.1496 -0.0194  0.0718
    1MOL0     C   67   9.087   1.863   5.675  0.0935  0.3042 -0.9942
    1MOL0     C   68   9.200   1.766   5.690 -1.1519  0.3656 -0.0667
    1MOL0     H   69   9.023   1.772   5.142  2.1211 -1.7388 -2.5595
    1MOL0     H   70   9.029   1.589   4.967  0.0544 -2.5038 -0.1394
    1MOL0     H   71   8.764   1.227   4.977 -0.3839  2.0154  0.2063
    1MOL0     H   72   8.891   1.197   5.105  0.7461 -1.6363 -0.6220
    1MOL0     H   73   9.039   1.127   4.960  0.0957 -0.3410  0.0893
    1MOL0     H   74   8.882   1.029   4.958 -0.5303  0.5318  0.4300
    1MOL0     H   75   8.819   1.084   4.752 -0.2737  0.3465 -0.8071
    1MOL0     H   76   8.893   1.240   4.755 -0.0034  0.7493  0.3662
    1MOL0     H   77   9.128   1.147   4.727 -1.5590  1.0618 -1.7198
    1MOL0     H   78   9.053   0.985   4.736  2.4907 -0.1465  0.9662
    1MOL0     H   79   8.997   1.206   4.540 -1.8616 -0.2961  0.4158
    1MOL0     H   80   8.919   1.050   4.530 -2.1406  2.7516 -1.4268
    1MOL0     H   81   9.135   0.946   4.491 -3.3287  0.3595  0.2316
    1MOL0     H   82   9.098   1.067   4.366  1.3025 -1.0724 -1.5046
    1MOL0     H   83   9.313   1.122   4.581  0.5252 -0.9539 -0.2392
    1MOL0     H   84   9.234   1.241   4.491  1.5186  0.3948  1.8175
    1MOL0     H   85   9.331   1.116   4.282 -1.2742 -1.6358  0.6254
    1MOL0     H   86   9.440   1.186   4.396 -0.1964  0.6387 -0.0320
    1MOL0     H   87   9.581   0.988   4.547 -0.0251  1.3535 -1.5985
    1MOL0     H   88   9.607   0.602   4.463 -0.8777 -0.3729 -0.7173
    1MOL0     H   89   9.609   0.700   4.615 -1.6432  1.4700 -0.0689
    1MOL0     H   90   9.826   0.647   4.482  3.1751  1.6038 -0.4940
    1MOL0     H   91   9.762   0.744   4.354  1.5470 -0.7350 -0.0533
    1MOL0     H   92   9.811   0.949   4.469  1.7194  1.1451 -0.9693
    1MOL0     H   93   9.789   0.878   4.628 -0.1523  1.5349 -0.5028
    1MOL0     H   94  10.029   0.910   4.593 -3.6742  3.0327  0.2130
    1MOL0     H   95  10.004   0.732   4.588  1.9759 -0.2644 -1.5410
    1MOL0     H   96  10.086   0.748   4.170 -0.1299 -0.0464  0.0263
    1MOL0     H   97  10.377   0.618   4.008  0.1302  0.1466 -0.0245
    1MOL0     H   98  10.349   0.784   3.976  1.4891 -0.2004  0.9145
    1MOL0     H   99  10.209   0.683   3.989  0.0485 -1.7373 -0.8536
    1MOL0     H  100  10.684   0.538   3.939  0.6078  0.1619 -0.5167
    1MOL0     H  101  10.917   0.505   3.859  1.3580 -2.2135  2.9033
    1MOL0     H  102  11.179   0.467   4.020  2.3886  1.5938 -0.2588
    1MOL0     H  103  11.126   0.435   3.857  0.9213  0.2465 -1.7136
    1MOL0     H  104  11.363   0.614   3.865 -0.9317 -0.3996  1.0164
    1MOL0     H  105  11.379   0.437   3.893 -0.5699 -0.6819 -0.3751
    1MOL0     H  106  11.217   0.532   3.667  0.5884 -3.0755 -0.8886
    1MOL0     H  107  11.311   0.388   3.697 -0.1058 -0.6687  0.3709
    1MOL0     H  108  11.508   0.511   3.643 -1.4857 -2.9413  0.6375
    1MOL0     H  109  11.426   0.671   3.635  0.4585  0.3389  1.1298
    1MOL0     H  110  11.392   0.434   3.447 -0.9087  0.3779 -2.0433
    1MOL0     H  111  11.285   0.573   3.438  0.2187  0.6015 -0.9503
    1MOL0     H  112  11.432   0.594   3.279 -1.3972  3.1822  0.3324
    1MOL0     H  113  11.578   0.567   3.373 -0.3275 -0.2373  4.2341
    1MOL0     H  114  11.550   0.806   3.309  0.6467 -0.7753 -0.1107
    1MOL0     H  115  11.552   0.790   3.477  0.3952  3.6202 -2.8509
    1MOL0     H  116  11.310   0.828   3.497 -1.7484 -0.1334 -2.1556
    1MOL0     H  117  11.294   0.819   3.327  0.4650  1.5348  0.2820
    1MOL0     H  118  11.042   0.850   4.080  1.1538 -1.6103  0.2516
    1MOL0     H  119  10.816   0.892   4.147  0.2532  0.2721 -0.6154
    1MOL0     H  120  10.492   0.766   4.456  1.1889  2.1874 -0.9410
    1MOL0     H  121  10.266   0.804   4.568  1.7465  1.0873  0.0424
    1MOL0     H  122   8.728   1.376   5.186 -2.5974  2.4404 -0.1197
    1MOL0     H  123   8.746   1.535   5.374 -2.0356 -0.3021 -1.0178
    1MOL0     H  124   8.845   1.981   5.472 -3.0603 -0.8987  1.6581
    1MOL0     H  125   8.837   2.149   5.628 -0.2314  0.6302  0.1191
    1MOL0     H  126   9.025   2.091   6.045 -2.7629 -0.8524 -1.8809
    1MOL0     H  127   9.141   2.166   5.929 -0.5130  0.3662 -0.0907
    1MOL0     H  128   9.058   2.325   6.136  0.6223  2.1951 -0.7010
    1MOL0     H  129   8.899   2.313   6.063  0.4501  0.3629  2.8438
    1MOL0     H  130   9.162   2.393   5.919  0.5496  1.6426 -1.7381
    1MOL0     H  131   9.001   2.434   5.870  0.9031 -1.1201  0.0098
    1MOL0     H  132   9.132   2.624   5.969 -2.2465 -1.1238 -3.3371
    1MOL0     H  133   9.125   2.541   6.131 -0.0762 -1.7903 -0.1282
    1MOL0     H  134   8.736   2.713   6.096 -0.7827 -1.1496 -1.3958
    1MOL0     H  135   9.121   1.947   5.876  0.5867  2.4331 -0.2905
    1MOL0     H  136   9.267   1.789   5.607 -1.0643  3.3394  0.7211
    1MOL0     H  137   9.261   1.779   5.779  0.6473  1.8097 -1.4301
    1MOL0     H  138   9.166   1.663   5.677  1.2830 -0.1044 -4.6502
    2MOL0     O  139   4.857   8.319   1.373 -0.2620 -0.1375  0.5537
    2MOL0     C  140   4.866   8.205   1.323 -0.2715  0.5156  0.7988
    2MOL0     O  141   4.760   8.131   1.283  0.4825  0.2127  0.3696
    2MOL0     C  142   4.630   8.183   1.287  0.3864  0.4921 -0.6903
    2MOL0     C  143   4.557   8.208   1.411 -1.8034  0.7611 -0.2447
    2MOL0     C  144   4.423   8.261   1.417 -0.3470 -0.2120 -0.7667
    2MOL0     C  145   4.354   8.264   1.288  0.6905 -0.1444 -0.5973
    2MOL0     O  146   4.218   8.296   1.297  0.0529 -0.7825 -0.0627
    2MOL0     C  147   4.128   8.273   1.184 -0.2979 -0.7657 -0.5099
    2MOL0     C  148   3.987   8.286   1.230  0.3689 -0.6666  0.5588
    2MOL0     C  149   3.897   8.366   1.128  0.2023  1.1693 -0.4287
    2MOL0     C  150   3.755   8.396   1.187  0.1918  0.1442  0.1623
    2MOL0     C  151   3.671   8.490   1.108 -0.4460  0.4514 -0.1470
    2MOL0     C  152   3.539   8.526   1.171  0.0673 -0.2007 -0.2792
    2MOL0     C  153   3.456   8.623   1.088 -0.4041  0.0744 -0.1900
    2MOL0     C  154   3.313   8.652   1.144  0.0311 -0.1975 -0.2697
    2MOL0     N  155   3.253   8.747   1.049 -0.3421  0.3038 -0.7611
    2MOL0     C  156   3.282   8.880   1.059 -0.9523 -0.1903 -0.4819
    2MOL0     C  157   3.252   8.927   0.936 -0.2933 -0.4106 -0.7208
    2MOL0     C  158   3.280   9.064   0.877 -0.4955  0.6548  0.0495
    2MOL0     C  159   3.397   9.050   0.777  0.3559 -0.3322  0.0714
    2MOL0     C  160   3.407   9.178   0.684 -0.0938 -0.1969 -0.3433
    2MOL0     C  161   3.528   9.163   0.587 -0.7003 -0.4760 -0.5071
    2MOL0     O  162   3.494   9.055   0.498  0.4497 -0.0102 -0.0816
    2MOL0     C  163   3.590   8.964   0.467  0.3478  0.7851 -0.6344
    2MOL0     C  164   3.677   8.989   0.363 -0.7651  0.6690 -0.7931
    2MOL0     C  165   3.798   8.923   0.353 -0.0214 -0.2503 -0.3453
    2MOL0     C  166   3.886   8.940   0.231 -0.1874 -0.2458 -0.2745
    2MOL0     C  167   3.823   8.816   0.441  0.1592  0.3084 -0.6263
    2MOL0     C  168   3.936   8.737   0.438  1.3114  0.0036  0.6702
    2MOL0     O  169   3.937   8.629   0.356 -0.5193 -0.3481  0.2225
    2MOL0     C  170   4.056   8.553   0.337 -0.2254 -0.2151 -0.5677
    2MOL0     C  171   4.069   8.429   0.404 -0.5135  0.6061 -0.8905
    2MOL0     C  172   4.197   8.370   0.395  0.2318 -0.3230  0.3301
    2MOL0     C  173   4.300   8.422   0.317 -0.2569  0.1176  0.3009
    2MOL0     O  174   4.414   8.349   0.310  0.5599  0.2942 -0.1953
    2MOL0     C  175   4.529   8.417   0.346  0.0981 -0.3453 -0.0158
    2MOL0     C  176   4.636   8.315   0.349 -0.3997  0.7373 -0.4076
    2MOL0     C  177   4.766   8.372   0.398  0.0868 -0.0600  0.1614
    2MOL0     C  178   4.875   8.273   0.396  0.4760  0.1920  0.3626
    2MOL0     C  179   5.003   8.339   0.454  0.5264 -0.2494 -0.4915
    2MOL0     C  180   5.129   8.249   0.430  0.5361 -0.3758 -0.0122
    2MOL0     C  181   5.256   8.329   0.481  0.2295 -0.9244  0.1047
    2MOL0     C  182   5.382   8.270   0.423 -0.3442  0.1977 -0.2852
    2MOL0    Cl  183   5.369   8.097   0.422 -0.3334  0.1366  0.0303
    2MOL0     C  184   4.277   8.535   0.245 -0.1807  0.5341  0.3831
    2MOL0     C  185   4.159   8.602   0.262  0.7781 -0.4896  0.5080
    2MOL0     O  186   4.023   8.790   0.495 -0.3748  0.2017 -0.7110
    2MOL0     C  187   3.726   8.776   0.538  0.7420 -0.1016  0.2685
    2MOL0     C  188   3.613   8.856   0.549  0.2566 -0.1416 -1.0296
    2MOL0     N  189   3.213   8.817   0.866  0.1079  0.2665 -0.4773
    2MOL0     N  190   3.205   8.710   0.931 -0.1366 -0.2541 -0.7834
    2MOL0     C  191   4.420   8.232   1.172  0.0798 -0.1777  0.5723
    2MOL0     C  192   4.556   8.190   1.168  0.3446  0.2069  0.4713
    2MOL0     C  193   5.004   8.145   1.294  0.4871  0.1773  0.0444
    2MOL0     C  194   5.000   8.011   1.258  0.5608 -0.8578 -0.0031
    2MOL0     C  195   5.110   7.930   1.224 -0.2201  0.0017  0.2995
    2MOL0     C  196   5.229   7.991   1.207 -0.9419  0.6206 -1.6276
    2MOL0     O  197   5.334   7.908   1.162  0.5023 -0.8682  0.4410
    2MOL0     C  198   5.446   7.984   1.096  0.7692  0.4610 -0.4783
    2MOL0     C  199   5.549   7.904   1.021 -0.6401  0.4703  0.0673
    2MOL0     C  200   5.516   7.799   0.915  0.1459 -0.1093 -0.0606
    2MOL0     C  201   5.371   7.823   0.855 -0.7351  0.5084  0.0668
    2MOL0     C  202   5.365   7.956   0.790  0.6088  0.0461  0.3908
    2MOL0     C  203   5.362   8.068   0.746  0.0970 -0.8010 -0.3598
    2MOL0     C  204   5.238   8.130   1.230 -0.1725 -0.8040  0.0067
    2MOL0     C  205   5.131   8.209   1.278  0.0216  0.0684  0.4014
    2MOL0     C  206   5.149   8.350   1.316 -0.5430  0.0042  0.1288
    2MOL0     H  207   4.604   8.197   1.508 -2.0016  3.2602  0.2058
    2MOL0     H  208   4.374   8.298   1.506  0.3399  1.5417 -1.0835
    2MOL0     H  209   4.164   8.179   1.141 -0.6728 -0.6633 -1.0524
    2MOL0     H  210   4.138   8.354   1.111 -0.7035  0.4717  0.7657
    2MOL0     H  211   3.954   8.182   1.238 -0.6583 -0.2572  2.4694
    2MOL0     H  212   3.985   8.333   1.329  0.4223  1.9224 -0.6019
    2MOL0     H  213   3.945   8.462   1.105 -0.1069  1.4363  0.0466
    2MOL0     H  214   3.892   8.298   1.042 -1.6884  1.7541 -0.8159
    2MOL0     H  215   3.690   8.308   1.193 -3.5785  2.7351  0.6909
    2MOL0     H  216   3.766   8.428   1.291  0.3003 -0.7157  0.4242
    2MOL0     H  217   3.642   8.463   1.006 -0.6656  0.9551 -0.2229
    2MOL0     H  218   3.725   8.586   1.114  1.7267 -0.8010  3.4846
    2MOL0     H  219   3.486   8.431   1.175 -0.2328 -0.1335 -2.0119
    2MOL0     H  220   3.564   8.561   1.272  0.9185 -0.7823 -0.2773
    2MOL0     H  221   3.444   8.584   0.986  2.5912 -1.5208 -0.0562
    2MOL0     H  222   3.512   8.717   1.091 -0.1015  0.0759 -3.1217
    2MOL0     H  223   3.266   8.554   1.159 -0.5033  0.2154  0.9149
    2MOL0     H  224   3.315   8.695   1.245  0.5887  0.8324 -0.7086
    2MOL0     H  225   3.324   8.930   1.145 -0.0121  0.5019 -1.3171
    2MOL0     H  226   3.298   9.140   0.953  0.1716  0.4562  0.0936
    2MOL0     H  227   3.190   9.091   0.821 -1.0478  0.5279  0.8623
    2MOL0     H  228   3.487   9.026   0.834 -1.5861 -1.9421  2.7112
    2MOL0     H  229   3.374   8.968   0.708  1.6733 -0.1662 -0.5977
    2MOL0     H  230   3.313   9.207   0.636 -0.9939 -0.9350  0.9041
    2MOL0     H  231   3.428   9.258   0.755 -2.8597 -0.3540  0.7868
    2MOL0     H  232   3.563   9.258   0.545  4.3996 -0.2874  3.3004
    2MOL0     H  233   3.621   9.136   0.637  1.0359 -0.8481 -3.6744
    2MOL0     H  234   3.649   9.065   0.291  0.5549  0.8991 -1.1011
    2MOL0     H  235   3.897   9.043   0.197  0.5946 -0.1056  0.3716
    2MOL0     H  236   3.831   8.885   0.154 -1.4875 -1.4613  1.4404
    2MOL0     H  237   3.981   8.886   0.242  0.5106  1.1099  0.5008
    2MOL0     H  238   3.989   8.393   0.468  1.9462  2.7691  3.9455
    2MOL0     H  239   4.210   8.280   0.454 -1.5780 -3.3004 -3.3786
    2MOL0     H  240   4.557   8.488   0.268  0.5430 -3.1231 -2.5887
    2MOL0     H  241   4.523   8.461   0.446 -0.1726  0.1292 -0.2379
    2MOL0     H  242   4.616   8.236   0.422  2.6891  0.5951  0.4167
    2MOL0     H  243   4.655   8.274   0.250  0.8254  0.8167 -0.2212
    2MOL0     H  244   4.759   8.422   0.495  3.0096 -2.9290  2.0661
    2MOL0     H  245   4.800   8.452   0.331 -0.0515 -0.9522 -0.9978
    2MOL0     H  246   4.894   8.232   0.296 -0.3932  1.9256 -0.5663
    2MOL0     H  247   4.846   8.193   0.465 -1.4354  1.1007  0.6834
    2MOL0     H  248   5.016   8.442   0.421 -3.2935  0.2215 -1.0617
    2MOL0     H  249   4.975   8.353   0.559  2.0031 -1.3510  0.0761
    2MOL0     H  250   5.135   8.221   0.324  0.5802 -0.3041 -0.0287
    2MOL0     H  251   5.124   8.156   0.486  2.4305 -1.3081 -1.2902
    2MOL0     H  252   5.259   8.303   0.587  2.1936 -2.0060 -0.1707
    2MOL0     H  253   5.261   8.438   0.467  0.4592 -1.0491 -0.8485
    2MOL0     H  254   5.468   8.308   0.478  0.5878  1.1104 -2.2615
    2MOL0     H  255   5.390   8.313   0.323 -2.3206 -0.5166 -0.7966
    2MOL0     H  256   4.356   8.584   0.188  0.2265 -2.7263 -2.1403
    2MOL0     H  257   4.160   8.692   0.200  2.4234 -1.0609 -0.3459
    2MOL0     H  258   3.740   8.689   0.602 -0.4619  0.2228  1.0023
    2MOL0     H  259   3.543   8.818   0.622  0.3369 -0.9375 -1.3591
    2MOL0     H  260   4.373   8.247   1.075 -1.7151 -0.5190  1.3568
    2MOL0     H  261   4.609   8.158   1.079  1.8765  3.4761  0.0567
    2MOL0     H  262   4.910   7.951   1.264  1.1908 -1.7798  0.5228
    2MOL0     H  263   5.087   7.827   1.198  1.0823 -0.3761  0.5471
    2MOL0     H  264   5.408   8.065   1.033  1.0589  0.8604 -0.1503
    2MOL0     H  265   5.508   8.030   1.173  0.0649  0.0769  0.3313
    2MOL0     H  266   5.601   7.845   1.097  0.7915 -1.2602 -2.1198
    2MOL0     H  267   5.623   7.971   0.975  0.7575 -2.6953 -2.8142
    2MOL0     H  268   5.578   7.800   0.825  2.0807 -3.7238  1.0289
    2MOL0     H  269   5.526   7.698   0.956  1.7883  0.3194  0.6717
    2MOL0     H  270   5.296   7.797   0.931 -1.9257 -3.4148 -2.1247
    2MOL0     H  271   5.364   7.734   0.791  3.3744 -0.0177  0.0565
    2MOL0     H  272   5.380   8.169   0.715  0.1682 -0.7795 -0.2509
    2MOL0     H  273   5.330   8.186   1.232 -0.8333  0.3051  1.2921
    2MOL0     H  274   5.081   8.419   1.264 -0.2979 -0.4100 -0.7666
    2MOL0     H  275   5.135   8.371   1.422  1.2798 -0.1052  0.4229
    2MOL0     H  276   5.251   8.383   1.292 -0.6769  1.4682  1.4396
    3MOL0     O  277   2.165   4.574   4.609  0.0197  0.2366  0.2321
    3MOL0     C  278   2.265   4.518   4.561  0.6474  0.5665  0.1494
    3MOL0     O  279   2.377   4.492   4.635 -0.0867  0.2470  0.5306
    3MOL0     C  280   2.389   4.530   4.768  0.6261 -0.6218  0.7758
    3MOL0     C  281   2.489   4.454   4.822  0.7208 -0.0603 -0.0477
    3MOL0     C  282   2.517   4.477   4.955  0.7074  0.4862  0.0449
    3MOL0     C  283   2.449   4.591   5.019  0.9193  0.3758  0.6101
    3MOL0     O  284   2.485   4.621   5.146 -0.0617  0.2185  0.0529
    3MOL0     C  285   2.450   4.514   5.246  0.4523 -0.4721  0.3686
    3MOL0     C  286   2.488   4.561   5.388 -0.8269 -0.2231  0.1400
    3MOL0     C  287   2.623   4.636   5.393  0.5539  0.4946 -0.1736
    3MOL0     C  288   2.595   4.778   5.383 -0.0069 -0.1824  0.2421
    3MOL0     C  289   2.734   4.859   5.384 -0.8459 -0.3730 -0.7315
    3MOL0     C  290   2.728   5.004   5.335  0.5392 -0.5471  0.4054
    3MOL0     C  291   2.867   5.071   5.335 -0.6620 -0.1467 -0.2245
    3MOL0     C  292   2.890   5.218   5.305  0.5584 -0.7458 -0.0506
    3MOL0     N  293   3.015   5.272   5.361 -0.4362  0.2033 -0.1019
    3MOL0     C  294   3.138   5.207   5.353  0.0285  0.0242 -1.5685
    3MOL0     C  295   3.211   5.278   5.446 -0.4696 -0.2924  0.0854
    3MOL0     C  296   3.351   5.238   5.474  0.0124 -0.2313  0.3365
    3MOL0     C  297   3.443   5.339   5.396 -0.1817 -0.0175 -0.5649
    3MOL0     C  298   3.589   5.300   5.409  0.4934  0.0330 -0.5306
    3MOL0     C  299   3.681   5.418   5.363  0.3009  0.3625 -0.0937
    3MOL0     O  300   3.707   5.506   5.471  0.1546 -0.0595  0.3071
    3MOL0     C  301   3.716   5.637   5.436  0.2735 -0.3785  0.8836
    3MOL0     C  302   3.833   5.687   5.387 -0.1228 -0.0033  0.1663
    3MOL0     C  303   3.845   5.822   5.350 -0.8780  0.1886  0.8667
    3MOL0     C  304   3.977   5.863   5.293  0.3455  0.0211  0.5026
    3MOL0     C  305   3.730   5.911   5.364 -0.7133 -0.3778 -0.9248
    3MOL0     C  306   3.724   6.064   5.339  0.1703 -0.4061  0.5007
    3MOL0     O  307   3.701   6.144   5.439 -0.3805  0.4805 -0.3083
    3MOL0     C  308   3.754   6.272   5.449 -0.2771 -0.2798 -0.1362
    3MOL0     C  309   3.682   6.366   5.530 -0.8228  0.1189 -0.4848
    3MOL0     C  310   3.742   6.484   5.579 -0.4661  0.0570 -0.0909
    3MOL0     C  311   3.872   6.514   5.537  0.7489 -0.2751 -0.0422
    3MOL0     O  312   3.928   6.630   5.569 -0.1822  0.1366 -0.7670
    3MOL0     C  313   3.857   6.749   5.525 -0.3943  0.4826 -1.1801
    3MOL0     C  314   3.948   6.877   5.546  0.4319  0.4862  0.0870
    3MOL0     C  315   3.912   6.951   5.673  0.9252  0.8559  0.2984
    3MOL0     C  316   3.791   7.042   5.639  0.2608 -0.5228  0.1167
    3MOL0     C  317   3.713   7.094   5.767 -0.1328 -0.2058 -0.8426
    3MOL0     C  318   3.608   7.208   5.725  0.2554  0.1531 -0.6305
    3MOL0     C  319   3.475   7.164   5.672 -0.3578 -0.7016  0.2102
    3MOL0     C  320   3.389   7.081   5.767 -0.1838  0.1804  0.4212
    3MOL0    Cl  321   3.225   7.027   5.704 -0.1339  0.2622 -0.2811
    3MOL0     C  322   3.951   6.421   5.461  1.3761 -0.1314  0.6617
    3MOL0     C  323   3.890   6.302   5.419  0.1283 -0.1590 -0.5558
    3MOL0     O  324   3.744   6.104   5.223 -1.1399  0.5533  0.2342
    3MOL0     C  325   3.615   5.859   5.415 -0.7318  0.5199 -0.0128
    3MOL0     C  326   3.608   5.723   5.446 -0.1142  0.5507  1.3436
    3MOL0     N  327   3.136   5.367   5.514  0.0794 -0.4526 -0.2162
    3MOL0     N  328   3.019   5.366   5.464  0.6846  0.9103 -0.7332
    3MOL0     C  329   2.353   4.667   4.961  0.4241  0.4053  0.0006
    3MOL0     C  330   2.322   4.635   4.834  0.3070 -0.3452 -0.4077
    3MOL0     C  331   2.268   4.461   4.425 -0.6741  0.3264  0.2300
    3MOL0     C  332   2.364   4.364   4.391  0.1835  0.1315 -0.6062
    3MOL0     C  333   2.362   4.303   4.264 -0.2236  0.7285  0.6917
    3MOL0     C  334   2.264   4.318   4.174 -0.1281 -0.2189 -1.0548
    3MOL0     O  335   2.268   4.246   4.051 -0.3277 -0.2290 -0.6094
    3MOL0     C  336   2.167   4.265   3.960 -0.3100 -0.1656  0.1196
    3MOL0     C  337   2.203   4.162   3.853  0.3022 -0.2019 -0.0808
    3MOL0     C  338   2.203   4.014   3.908 -0.3064  0.4741 -0.4688
    3MOL0     C  339   2.274   3.910   3.812  0.0336  0.4976 -0.4803
    3MOL0     C  340   2.410   3.950   3.787 -0.5825  0.4587  0.6076
    3MOL0     C  341   2.526   3.992   3.767  0.1812 -1.0335  0.3979
    3MOL0     C  342   2.166   4.418   4.205 -0.2444 -0.6348  0.4069
    3MOL0     C  343   2.172   4.495   4.320 -0.8418  0.1195 -0.8276
    3MOL0     C  344   2.077   4.614   4.339 -0.2247  0.2301 -0.1667
    3MOL0     H  345   2.534   4.377   4.761  0.2997  0.1227 -0.5962
    3MOL0     H  346   2.592   4.412   5.000  0.6589  1.3709  1.4705
    3MOL0     H  347   2.478   4.416   5.208 -2.3861 -0.3936 -2.3439
    3MOL0     H  348   2.341   4.511   5.258  0.4357  2.4666  2.2370
    3MOL0     H  349   2.408   4.626   5.427 -2.4659 -0.8135 -2.0180
    3MOL0     H  350   2.493   4.468   5.446  0.2589 -2.1055 -2.7644
    3MOL0     H  351   2.666   4.618   5.492  0.3709 -1.3943 -0.3929
    3MOL0     H  352   2.700   4.588   5.332  1.5067  1.5969  0.1456
    3MOL0     H  353   2.541   4.787   5.289  0.6604 -0.9604 -0.2393
    3MOL0     H  354   2.534   4.815   5.466 -2.8053 -0.5222 -1.5307
    3MOL0     H  355   2.801   4.809   5.314 -0.3305  2.6095 -2.5765
    3MOL0     H  356   2.771   4.856   5.487 -2.5620 -0.2682 -0.0756
    3MOL0     H  357   2.699   5.000   5.229  3.6411  0.6523 -0.6134
    3MOL0     H  358   2.655   5.063   5.391 -2.1046  0.6042 -3.7839
    3MOL0     H  359   2.934   5.006   5.277  1.2683  0.8124  0.8330
    3MOL0     H  360   2.898   5.056   5.439  0.2609  1.7262 -0.1856
    3MOL0     H  361   2.907   5.236   5.198  1.4141 -0.3334  0.1501
    3MOL0     H  362   2.797   5.267   5.336  1.8827  0.3519  2.4876
    3MOL0     H  363   3.178   5.123   5.296  3.1452 -0.5752  1.1860
    3MOL0     H  364   3.374   5.141   5.428 -0.3902  1.2768 -3.4169
    3MOL0     H  365   3.365   5.243   5.582 -2.7550  0.3426  0.7623
    3MOL0     H  366   3.415   5.331   5.291  0.1957 -1.8520 -0.5670
    3MOL0     H  367   3.420   5.442   5.424  2.6922  0.3920  0.6278
    3MOL0     H  368   3.617   5.280   5.514  0.1287  1.2206 -0.1939
    3MOL0     H  369   3.615   5.209   5.354 -0.1900 -1.2871  1.2150
    3MOL0     H  370   3.774   5.373   5.325 -0.4376  0.5576 -2.2780
    3MOL0     H  371   3.644   5.475   5.277  0.3441  1.8042  0.8257
    3MOL0     H  372   3.926   5.631   5.389  1.9967  3.2418  3.0181
    3MOL0     H  373   3.990   5.966   5.259  2.0884 -0.2433  0.2411
    3MOL0     H  374   4.017   5.797   5.215 -0.1995  0.5995 -0.2807
    3MOL0     H  375   4.032   5.843   5.385 -0.6028 -3.7691  0.4337
    3MOL0     H  376   3.582   6.332   5.555 -0.0859 -0.5441  1.7948
    3MOL0     H  377   3.686   6.538   5.656 -1.6414 -0.5693 -0.4729
    3MOL0     H  378   3.830   6.733   5.420 -1.8279 -4.3475 -0.3313
    3MOL0     H  379   3.766   6.758   5.584 -1.3637 -1.2522 -2.3018
    3MOL0     H  380   4.053   6.847   5.556  0.2277  0.0041  0.9143
    3MOL0     H  381   3.946   6.947   5.462 -0.5759  0.2231 -0.1187
    3MOL0     H  382   3.997   7.008   5.713  1.8808 -2.0788  2.8069
    3MOL0     H  383   3.881   6.879   5.749 -0.7529  0.3716 -0.7945
    3MOL0     H  384   3.729   6.994   5.563  0.8835 -0.5392 -0.3838
    3MOL0     H  385   3.827   7.134   5.593  0.8459 -0.5993  0.4195
    3MOL0     H  386   3.663   7.005   5.804 -0.5884 -0.7355 -2.6358
    3MOL0     H  387   3.784   7.131   5.842  1.8765 -0.1352 -2.6572
    3MOL0     H  388   3.651   7.280   5.655 -1.1375  4.0241  2.1263
    3MOL0     H  389   3.594   7.270   5.814  1.5809 -0.4002 -0.0193
    3MOL0     H  390   3.489   7.109   5.578 -0.6162 -3.2285  1.5738
    3MOL0     H  391   3.402   7.242   5.647 -2.9124 -2.6651  1.0721
    3MOL0     H  392   3.387   7.115   5.871  0.9866  1.4852  0.0473
    3MOL0     H  393   3.449   6.992   5.784 -1.3663 -0.3402  2.1377
    3MOL0     H  394   4.053   6.446   5.437  0.8840  1.3660 -0.0062
    3MOL0     H  395   3.954   6.232   5.365 -1.2807  0.9538 -3.8973
    3MOL0     H  396   3.539   5.932   5.440  1.3352  2.7519  0.1131
    3MOL0     H  397   3.512   5.677   5.466  0.0493 -1.8902 -2.4394
    3MOL0     H  398   2.302   4.753   5.003 -0.8995 -0.8393  1.0437
    3MOL0     H  399   2.248   4.692   4.779  1.9049 -2.3740 -5.1526
    3MOL0     H  400   2.435   4.349   4.471  0.2596  3.1761  0.0122
    3MOL0     H  401   2.439   4.233   4.234 -1.4212 -0.6492  0.7254
    3MOL0     H  402   2.070   4.252   4.008 -0.8158 -1.9312 -1.2526
    3MOL0     H  403   2.156   4.367   3.921 -0.9425  0.2109  1.2386
    3MOL0     H  404   2.308   4.177   3.826  0.4452 -1.9990 -0.6772
    3MOL0     H  405   2.132   4.172   3.770  0.5981 -0.3070 -0.3495
    3MOL0     H  406   2.253   4.002   4.004 -0.8926  0.3135 -0.1743
    3MOL0     H  407   2.100   3.980   3.922 -0.6754  1.0945 -1.5456
    3MOL0     H  408   2.219   3.902   3.718 -1.1279 -2.3159  0.3220
    3MOL0     H  409   2.269   3.811   3.859 -0.2930  0.9455  0.4533
    3MOL0     H  410   2.631   4.002   3.746  0.6244 -3.3925  1.2022
    3MOL0     H  411   2.092   4.443   4.130  1.5099 -1.2449 -1.6231
    3MOL0     H  412   2.134   4.702   4.370  3.7842 -1.7323 -1.2963
    3MOL0     H  413   2.031   4.632   4.241  2.5335  1.4834 -1.3186
    3MOL0     H  414   2.001   4.589   4.414 -0.0726  0.0440 -0.0754
    4MOL0     O  415  10.219   7.137   0.981  0.4202  0.8849 -0.7806
    4MOL0     C  416  10.140   7.228   1.010  0.1022 -0.7385  0.1912
    4MOL0     O  417  10.170   7.341   1.081  0.2169  0.0623 -0.3606
    4MOL0     C  418  10.297   7.378   1.108  0.3939  0.4257 -0.0252
    4MOL0     C  419  10.343   7.485   1.032  0.9849 -0.6645 -0.9432
    4MOL0     C  420  10.458   7.554   1.075  0.2584  0.2891 -0.0788
    4MOL0     C  421  10.521   7.526   1.197 -0.6650 -0.1743  0.0538
    4MOL0     O  422  10.623   7.594   1.249 -0.0878 -0.7418 -0.0871
    4MOL0     C  423  10.751   7.540   1.209  0.0309  0.8508  0.3894
    4MOL0     C  424  10.813   7.428   1.291  0.5481  0.3103 -0.7903
    4MOL0     C  425  10.813   7.459   1.444  0.3800 -0.6581 -0.9364
    4MOL0     C  426  10.927   7.558   1.463  1.0253  0.1168  0.1342
    4MOL0     C  427  10.966   7.595   1.606  0.3391 -0.2399  0.3724
    4MOL0     C  428  11.090   7.676   1.604  0.0112  0.2725 -0.5033
    4MOL0     C  429  11.075   7.818   1.543  0.7358 -0.3586 -1.0382
    4MOL0     C  430  11.153   7.912   1.634  0.9047 -0.4736  0.2089
    4MOL0     N  431  11.091   7.934   1.759  0.0001 -0.1403  0.1566
    4MOL0     C  432  10.953   7.941   1.785 -0.3221 -0.9451 -0.0614
    4MOL0     C  433  10.944   7.950   1.919  0.2857  0.5753 -0.1175
    4MOL0     C  434  10.811   7.963   1.998 -0.3204 -0.1463  0.8461
    4MOL0     C  435  10.786   7.856   2.105 -0.9072  0.5944  0.1549
    4MOL0     C  436  10.771   7.711   2.052  0.2454  0.0994 -0.7023
    4MOL0     C  437  10.904   7.632   2.034 -0.1634  0.4259 -0.2986
    4MOL0     O  438  10.908   7.502   2.100  0.9164 -0.3126  0.1401
    4MOL0     C  439  11.009   7.412   2.078 -0.4723 -0.1607  0.4347
    4MOL0     C  440  10.976   7.277   2.104 -0.4717 -0.2813 -0.0286
    4MOL0     C  441  11.068   7.172   2.063 -0.5409  0.5514 -0.5523
    4MOL0     C  442  11.041   7.030   2.092  0.0591 -0.1742 -0.2051
    4MOL0     C  443  11.191   7.213   2.003  0.4933  1.0229  0.1191
    4MOL0     C  444  11.288   7.115   1.947 -0.3977 -0.1520  0.2498
    4MOL0     O  445  11.228   7.012   1.888 -1.3429  0.4212 -0.1078
    4MOL0     C  446  11.289   6.885   1.864  0.0173 -0.7355 -0.5894
    4MOL0     C  447  11.203   6.782   1.831  0.0856 -0.3218 -0.2884
    4MOL0     C  448  11.246   6.656   1.784  0.1293 -0.3425  0.1216
    4MOL0     C  449  11.387   6.633   1.769 -1.2422 -0.0529 -0.0561
    4MOL0     O  450  11.421   6.504   1.743 -0.4131 -0.6036  0.0411
    4MOL0     C  451  11.555   6.471   1.725  0.5923 -1.2013  0.1823
    4MOL0     C  452  11.562   6.317   1.707  0.2334 -0.6797 -0.2258
    4MOL0     C  453  11.658   6.269   1.596 -0.5133 -0.1786  0.0815
    4MOL0     C  454  11.797   6.317   1.618 -1.1136 -0.4385  0.3079
    4MOL0     C  455  11.894   6.244   1.518  0.7073  0.0946 -0.6114
    4MOL0     C  456  12.038   6.281   1.547 -0.4573 -0.4292 -0.0757
    4MOL0     C  457  12.151   6.194   1.476  0.5452  0.1840  0.5856
    4MOL0     C  458  12.287   6.266   1.482 -0.7141 -0.2754 -0.1913
    4MOL0    Cl  459  12.416   6.147   1.490 -0.4437  0.7218  0.1233
    4MOL0     C  460  11.478   6.738   1.792 -0.0531  0.1664  0.6337
    4MOL0     C  461  11.428   6.861   1.832  0.0147  0.1224  0.7624
    4MOL0     O  462  11.407   7.146   1.942  0.3594  0.4668  0.2944
    4MOL0     C  463  11.213   7.353   1.971  0.4968 -0.0882  0.8629
    4MOL0     C  464  11.117   7.447   2.005 -0.4660  0.4984 -0.5509
    4MOL0     N  465  11.077   7.930   1.965 -0.1469  0.9580  0.0481
    4MOL0     N  466  11.162   7.942   1.869  0.0302 -0.4593 -0.0054
    4MOL0     C  467  10.469   7.424   1.273 -0.2457  0.2657  0.6043
    4MOL0     C  468  10.366   7.345   1.227 -1.3282  0.3411  0.1691
    4MOL0     C  469   9.992   7.208   0.985 -0.4103 -0.1973  0.4167
    4MOL0     C  470   9.902   7.313   1.020 -0.0774 -0.9036 -0.0187
    4MOL0     C  471   9.756   7.295   1.001  0.0360  0.3103 -0.0501
    4MOL0     C  472   9.712   7.177   0.950  0.6807 -0.1230  0.6677
    4MOL0     O  473   9.576   7.144   0.929  0.8576 -0.0317  0.3782
    4MOL0     C  474   9.488   7.257   0.907  0.4572 -0.5752 -0.4703
    4MOL0     C  475   9.367   7.218   0.826 -0.2003  0.1785  0.9196
    4MOL0     C  476   9.286   7.106   0.893 -0.2108  0.3931 -0.7052
    4MOL0     C  477   9.154   7.087   0.813 -0.2052  0.0661  0.1285
    4MOL0     C  478   9.070   7.208   0.816  0.1035  0.0976 -0.4538
    4MOL0     C  479   9.003   7.305   0.808 -0.7639  0.2727  1.2946
    4MOL0     C  480   9.800   7.074   0.916 -0.3981 -0.9545 -0.3589
    4MOL0     C  481   9.933   7.089   0.930  0.0710  0.3053 -0.2428
    4MOL0     C  482  10.010   6.956   0.926 -0.8155  0.1848  0.3178
    4MOL0     H  483  10.286   7.499   0.941  4.9294 -0.1280 -3.5851
    4MOL0     H  484  10.485   7.634   1.007 -3.4637 -0.1389 -2.3702
    4MOL0     H  485  10.825   7.621   1.209 -1.9740  2.7855  1.6851
    4MOL0     H  486  10.735   7.501   1.108 -1.7527  2.1711  0.1057
    4MOL0     H  487  10.748   7.341   1.277  0.8157 -0.4335  2.0274
    4MOL0     H  488  10.916   7.404   1.264  1.2164  0.5198  1.4115
    4MOL0     H  489  10.720   7.505   1.479  2.4029  3.3711 -0.3149
    4MOL0     H  490  10.838   7.370   1.504  0.9887 -0.3517 -0.7297
    4MOL0     H  491  11.015   7.505   1.425 -0.0858 -1.4921 -0.2919
    4MOL0     H  492  10.906   7.655   1.417 -1.0945  0.2904  1.3613
    4MOL0     H  493  10.991   7.503   1.660  0.8723 -1.9384 -2.5693
    4MOL0     H  494  10.884   7.649   1.653  0.2957 -0.4152  0.4997
    4MOL0     H  495  11.122   7.685   1.708 -0.3334  1.3352 -0.4822
    4MOL0     H  496  11.173   7.625   1.555 -0.1756 -2.2701  1.6096
    4MOL0     H  497  10.969   7.844   1.534  0.8496 -0.1071 -1.7842
    4MOL0     H  498  11.104   7.817   1.437 -2.7637  2.2492 -2.2477
    4MOL0     H  499  11.259   7.890   1.655  0.7873 -0.5108  0.7768
    4MOL0     H  500  11.149   8.007   1.581  0.9107  0.2870  1.5096
    4MOL0     H  501  10.877   7.948   1.708  1.0539 -1.0730 -1.4923
    4MOL0     H  502  10.720   7.967   1.937  0.5232 -3.8036 -0.8822
    4MOL0     H  503  10.832   8.053   2.057  2.9232 -0.3645  0.1936
    4MOL0     H  504  10.874   7.864   2.170 -0.4372  3.6335 -0.6616
    4MOL0     H  505  10.692   7.882   2.153 -0.5985  0.0852  1.0534
    4MOL0     H  506  10.728   7.645   2.128  1.2371  0.0204 -0.1906
    4MOL0     H  507  10.711   7.709   1.960  0.7547 -0.5466 -1.0302
    4MOL0     H  508  10.920   7.605   1.929  0.9891  1.4129 -0.3965
    4MOL0     H  509  10.989   7.693   2.067  0.7056 -0.4396 -0.8951
    4MOL0     H  510  10.889   7.255   2.164  0.1116  0.8724  1.2944
    4MOL0     H  511  10.999   6.972   2.009  0.8532  0.9184 -1.3996
    4MOL0     H  512  10.960   7.034   2.166  0.8208 -2.2289  0.8221
    4MOL0     H  513  11.124   6.988   2.149  0.1242 -1.4089 -1.1480
    4MOL0     H  514  11.097   6.795   1.844  0.1259  1.5656 -1.4132
    4MOL0     H  515  11.172   6.578   1.769  1.9175 -1.8195 -1.6616
    4MOL0     H  516  11.591   6.523   1.635 -2.8444 -1.5922 -1.5819
    4MOL0     H  517  11.611   6.493   1.816 -1.2629  0.3443  1.0110
    4MOL0     H  518  11.589   6.273   1.803  0.4687 -0.2354 -0.0893
    4MOL0     H  519  11.466   6.287   1.663  0.4076  0.0418 -1.1424
    4MOL0     H  520  11.625   6.317   1.503 -0.4715  2.5452  1.3647
    4MOL0     H  521  11.645   6.163   1.574 -0.5592 -0.1468 -0.0455
    4MOL0     H  522  11.819   6.276   1.717 -2.2148 -3.7537 -0.6682
    4MOL0     H  523  11.813   6.425   1.623  3.8161 -0.8990 -0.0204
    4MOL0     H  524  11.886   6.135   1.528 -1.1262  0.2992  0.6999
    4MOL0     H  525  11.867   6.264   1.414 -0.0185 -1.7671 -0.8168
    4MOL0     H  526  12.063   6.273   1.653  1.7007  1.2646 -0.3834
    4MOL0     H  527  12.055   6.386   1.520  1.9675 -0.7956 -0.1875
    4MOL0     H  528  12.128   6.165   1.373  2.4612  0.5328  0.0215
    4MOL0     H  529  12.163   6.100   1.531 -0.5343 -0.0225  0.4745
    4MOL0     H  530  12.296   6.323   1.575  3.9021 -0.9322 -0.0110
    4MOL0     H  531  12.320   6.336   1.404  3.5838 -1.1088  0.6064
    4MOL0     H  532  11.581   6.730   1.759 -0.4623 -1.4343 -0.4113
    4MOL0     H  533  11.499   6.943   1.841 -1.4187  1.3094  1.8013
    4MOL0     H  534  11.298   7.379   1.908 -1.2076  3.0457 -0.3690
    4MOL0     H  535  11.132   7.551   1.977 -1.2203  0.7468 -0.0489
    4MOL0     H  536  10.516   7.413   1.371  1.4946 -2.4607 -0.4378
    4MOL0     H  537  10.327   7.265   1.290 -1.4065  0.2996  0.0678
    4MOL0     H  538   9.937   7.397   1.078 -3.7138  1.1849 -0.4940
    4MOL0     H  539   9.686   7.374   1.024 -3.0935 -1.9511 -1.0488
    4MOL0     H  540   9.464   7.298   1.005  2.3086 -0.3538 -0.0749
    4MOL0     H  541   9.541   7.333   0.849 -0.6907 -0.8942 -1.9872
    4MOL0     H  542   9.409   7.181   0.733  2.3758  2.8232  0.8953
    4MOL0     H  543   9.317   7.309   0.791  0.7510 -0.6202 -2.8632
    4MOL0     H  544   9.334   7.008   0.899 -1.2149 -0.1792 -1.6033
    4MOL0     H  545   9.259   7.134   0.995  0.3333 -1.3267 -0.0493
    4MOL0     H  546   9.086   7.010   0.851 -1.4444 -0.5300 -2.9900
    4MOL0     H  547   9.164   7.066   0.707  1.2148 -1.1417  0.4705
    4MOL0     H  548   8.951   7.397   0.819  1.5941  1.8072  0.3481
    4MOL0     H  549   9.756   6.984   0.876 -0.3716  0.3142 -3.5280
    4MOL0     H  550  10.087   6.951   0.848  0.0408 -1.2469  1.2120
    4MOL0     H  551  10.066   6.960   1.019 -0.3254  2.9638 -0.0089
    4MOL0     H  552   9.939   6.872   0.919 -3.4484  2.4040 -2.9833
    5MOL0     O  553   9.718   9.014  11.454  0.1128 -0.2993 -0.0271
    5MOL0     C  554   9.645   8.928  11.485  0.4979  0.7681 -0.2077
    5MOL0     O  555   9.681   8.805  11.542 -0.0813  0.4755  0.1455
    5MOL0     C  556   9.808   8.765  11.555 -0.3324  0.3360  0.7486
    5MOL0     C  557   9.832   8.643  11.504 -0.9417 -0.2182 -0.7395
    5MOL0     C  558   9.966   8.591  11.505  0.0929 -0.9678  0.2377
    5MOL0     C  559  10.075   8.664  11.570 -0.0290  0.2771  0.2297
    5MOL0     O  560  10.201   8.613  11.559  0.1466  0.1017  0.6783
    5MOL0     C  561  10.229   8.479  11.514 -0.3412 -0.0574 -0.2401
    5MOL0     C  562  10.353   8.413  11.586 -0.0552  0.4122  0.7997
    5MOL0     C  563  10.421   8.290  11.508  0.1695  0.0695  0.3768
    5MOL0     C  564  10.528   8.236  11.596  0.1875 -0.5196 -0.8209
    5MOL0     C  565  10.612   8.131  11.525 -0.4366 -0.2522 -0.3566
    5MOL0     C  566  10.747   8.100  11.601  0.5686 -0.4213 -0.4775
    5MOL0     C  567  10.792   7.953  11.564 -0.6642 -1.0152  0.2419
    5MOL0     C  568  10.823   7.955  11.417 -0.6265 -0.6755  0.1713
    5MOL0     N  569  10.859   7.822  11.378 -0.7979  0.5183  0.1047
    5MOL0     C  570  10.864   7.776  11.246  0.0595  0.1441 -0.4079
    5MOL0     C  571  10.946   7.666  11.251 -0.9932  0.6613 -0.1103
    5MOL0     C  572  10.969   7.564  11.149  0.4184  0.0161  0.0347
    5MOL0     C  573  10.860   7.447  11.164 -0.7298 -0.3784  0.2955
    5MOL0     C  574  10.869   7.374  11.287  0.3986 -0.1176 -0.5410
    5MOL0     C  575  10.799   7.236  11.283  0.0902  0.0958 -0.2091
    5MOL0     O  576  10.810   7.152  11.168  0.2416  0.2257  0.3312
    5MOL0     C  577  10.694   7.099  11.108 -0.5530 -0.2054 -1.0208
    5MOL0     C  578  10.707   6.974  11.055  0.0201  0.1322 -0.2182
    5MOL0     C  579  10.616   6.921  10.966  0.3523 -0.3110  0.4723
    5MOL0     C  580  10.640   6.776  10.911 -0.5818  0.2605 -0.4054
    5MOL0     C  581  10.497   6.996  10.936 -0.6541 -0.0396  0.2301
    5MOL0     C  582  10.395   6.960  10.845  0.6523  0.0708 -0.8822
    5MOL0     O  583  10.279   7.033  10.853 -0.6571 -0.2928 -0.3625
    5MOL0     C  584  10.178   6.991  10.775 -0.8689 -0.0087 -0.6143
    5MOL0     C  585  10.092   6.890  10.822 -0.7003 -0.7337  1.1095
    5MOL0     C  586   9.989   6.844  10.732 -0.8419  0.1413 -0.1764
    5MOL0     C  587   9.988   6.876  10.602  0.1795 -0.8019 -0.2315
    5MOL0     O  588   9.890   6.823  10.529 -0.1935  0.3844 -0.1881
    5MOL0     C  589   9.932   6.759  10.407 -0.2440 -0.6552  0.5975
    5MOL0     C  590   9.855   6.639  10.379  0.1884 -0.2030  0.3873
    5MOL0     C  591   9.897   6.568  10.247  0.4928 -0.3214 -0.0253
    5MOL0     C  592   9.833   6.426  10.229 -0.4753 -0.2750 -0.1768
    5MOL0     C  593   9.830   6.335  10.354 -0.0897 -0.5931 -0.9088
    5MOL0     C  594   9.775   6.204  10.326  0.3402  0.1435  0.4706
    5MOL0     C  595   9.760   6.130  10.458 -0.3678 -0.3791  0.6994
    5MOL0     C  596   9.683   6.007  10.436 -0.1491 -0.1646  0.3035
    5MOL0    Cl  597   9.505   6.055  10.393 -0.5394 -0.1416 -0.7781
    5MOL0     C  598  10.079   6.969  10.550 -0.0105  0.2252 -0.9426
    5MOL0     C  599  10.172   7.029  10.636  0.5096 -0.0502 -0.0097
    5MOL0     O  600  10.412   6.858  10.775 -0.1527 -0.1106 -0.5010
    5MOL0     C  601  10.491   7.131  10.986 -0.9289  0.1789 -0.5717
    5MOL0     C  602  10.585   7.184  11.074  0.2334  0.4737 -0.0545
    5MOL0     N  603  11.002   7.659  11.372  0.7029  0.1941  0.4605
    5MOL0     N  604  10.939   7.742  11.457  0.0072 -0.3853  0.2473
    5MOL0     C  605  10.047   8.786  11.628  0.7632 -0.6449 -0.1236
    5MOL0     C  606   9.919   8.836  11.612 -0.5528 -0.5402  0.2299
    5MOL0     C  607   9.504   8.960  11.447 -0.2077  0.5531 -0.2989
    5MOL0     C  608   9.468   9.094  11.423  1.2863  0.5341  0.4441
    5MOL0     C  609   9.337   9.133  11.384  1.0832 -0.4706  0.0657
    5MOL0     C  610   9.239   9.036  11.375  0.3359 -0.6919 -0.3229
    5MOL0     O  611   9.104   9.050  11.347 -0.2837  0.0615 -0.3125
    5MOL0     C  612   9.054   9.185  11.334 -0.1881 -0.2421  0.1831
    5MOL0     C  613   9.035   9.268  11.464  0.6452 -0.1313 -1.0226
    5MOL0     C  614   8.930   9.215  11.555  0.4222  0.9494 -0.9021
    5MOL0     C  615   8.788   9.217  11.486  0.6847  0.4452 -0.1552
    5MOL0     C  616   8.696   9.156  11.585  0.2801  0.1574  0.4227
    5MOL0     C  617   8.619   9.125  11.669 -0.6181 -0.2761  0.2098
    5MOL0     C  618   9.273   8.903  11.392  0.2082 -0.6571  0.2927
    5MOL0     C  619   9.400   8.863  11.431  0.6812 -0.2446 -1.0570
    5MOL0     C  620   9.418   8.707  11.433 -0.0612  0.3541 -0.1682
    5MOL0     H  621   9.746   8.594  11.460 -0.7246 -1.0902 -0.2170
    5MOL0     H  622   9.982   8.502  11.445  0.9112 -0.8523  0.2872
    5MOL0     H  623  10.257   8.473  11.409  2.1305  1.8411  0.2139
    5MOL0     H  624  10.147   8.411  11.536 -0.5423 -0.2802 -1.6057
    5MOL0     H  625  10.422   8.495  11.602 -1.7192  2.3996 -1.4134
    5MOL0     H  626  10.329   8.371  11.684 -0.7957 -1.8091 -0.2531
    5MOL0     H  627  10.344   8.212  11.505  1.4390 -1.3209  1.5493
    5MOL0     H  628  10.461   8.317  11.410 -0.0997 -0.7702  0.0252
    5MOL0     H  629  10.582   8.328  11.623 -1.0731  0.2243 -0.7201
    5MOL0     H  630  10.481   8.187  11.682 -3.3885  1.2282 -1.5984
    5MOL0     H  631  10.639   8.165  11.425  1.9714  0.1297  0.3590
    5MOL0     H  632  10.547   8.043  11.518 -1.1535  0.3634 -2.0554
    5MOL0     H  633  10.819   8.182  11.588 -1.5760  1.7510  0.5317
    5MOL0     H  634  10.730   8.098  11.709  0.2885  1.1268 -0.4668
    5MOL0     H  635  10.714   7.881  11.589  0.7912 -2.2348  1.4644
    5MOL0     H  636  10.888   7.943  11.616  0.7352 -1.2744 -2.2348
    5MOL0     H  637  10.742   7.981  11.348 -0.4551  1.7023  0.7664
    5MOL0     H  638  10.899   8.027  11.387 -2.3021  0.2048 -2.2883
    5MOL0     H  639  10.802   7.808  11.162  0.3641 -2.8649 -1.8882
    5MOL0     H  640  11.071   7.528  11.163  0.4288  0.8578  2.5679
    5MOL0     H  641  10.960   7.604  11.047 -1.9247 -1.3348 -0.3615
    5MOL0     H  642  10.758   7.485  11.155 -0.8032 -0.4886  0.6524
    5MOL0     H  643  10.877   7.385  11.076 -1.9473 -0.3259  0.0084
    5MOL0     H  644  10.972   7.340  11.303  0.8653  1.9253  1.0969
    5MOL0     H  645  10.846   7.439  11.371  5.1837 -0.7935  1.6416
    5MOL0     H  646  10.834   7.188  11.374 -2.7549  1.9252  2.0337
    5MOL0     H  647  10.692   7.245  11.304  0.1431 -1.2590  0.7188
    5MOL0     H  648  10.788   6.910  11.088 -0.9541  1.1187  5.0208
    5MOL0     H  649  10.586   6.705  10.974 -0.5881  0.8301  0.2460
    5MOL0     H  650  10.743   6.749  10.938 -1.4918 -2.1611  0.9643
    5MOL0     H  651  10.635   6.760  10.803  0.6319  2.3457 -0.8454
    5MOL0     H  652  10.099   6.850  10.922  4.3165 -1.0515  0.8963
    5MOL0     H  653   9.908   6.780  10.764 -1.1269  2.1524  3.8904
    5MOL0     H  654   9.910   6.826  10.323  0.4564 -0.0686  0.8773
    5MOL0     H  655  10.036   6.726  10.409  1.0100  2.8884  1.9604
    5MOL0     H  656   9.862   6.569  10.464  0.4701  0.7475  1.1654
    5MOL0     H  657   9.751   6.672  10.376  1.1249  3.1287  0.8565
    5MOL0     H  658  10.005   6.551  10.256  0.4340 -0.8563 -0.2545
    5MOL0     H  659   9.879   6.635  10.163  0.0054  0.5113  0.7374
    5MOL0     H  660   9.881   6.375  10.145  1.9655 -2.5935  2.4135
    5MOL0     H  661   9.731   6.443  10.194  0.2843  3.0797 -1.1887
    5MOL0     H  662   9.934   6.328  10.389  0.1795  0.3688 -1.4451
    5MOL0     H  663   9.765   6.381  10.429  1.6147  0.4555 -0.0039
    5MOL0     H  664   9.827   6.146  10.249 -0.0845  1.1395 -0.5927
    5MOL0     H  665   9.673   6.210  10.288  1.4670 -0.3787 -2.9866
    5MOL0     H  666   9.707   6.188  10.533  2.3021  1.6934  1.1141
    5MOL0     H  667   9.859   6.109  10.500  0.9830  0.4294 -1.8125
    5MOL0     H  668   9.684   5.946  10.526  0.7129 -0.5481  0.0345
    5MOL0     H  669   9.721   5.963  10.344  1.7231  3.2628 -0.7482
    5MOL0     H  670  10.074   7.005  10.447 -0.8772 -2.0354 -1.7593
    5MOL0     H  671  10.235   7.109  10.597  0.3271 -0.3489 -0.9618
    5MOL0     H  672  10.406   7.196  10.966 -0.7960  1.3215  2.1296
    5MOL0     H  673  10.603   7.290  11.086 -0.2782  0.7696 -1.6329
    5MOL0     H  674  10.121   8.840  11.686  0.2397  0.8974 -0.8369
    5MOL0     H  675   9.893   8.934  11.652 -1.5146 -1.8077  2.9608
    5MOL0     H  676   9.543   9.172  11.426  1.8009  0.1709 -1.7211
    5MOL0     H  677   9.315   9.239  11.379 -1.0897 -0.8765  0.2036
    5MOL0     H  678   9.133   9.237  11.278 -0.9329 -1.6953 -2.4136
    5MOL0     H  679   8.959   9.193  11.280  0.5363  0.3087 -1.0659
    5MOL0     H  680   9.017   9.375  11.447  0.3993  0.4736  2.3496
    5MOL0     H  681   9.128   9.277  11.520 -0.5459 -0.8770  1.2111
    5MOL0     H  682   8.955   9.112  11.584 -0.5807  0.6840 -0.9471
    5MOL0     H  683   8.926   9.264  11.652  1.4860 -0.2977 -0.1889
    5MOL0     H  684   8.777   9.154  11.397 -0.9828  4.6462 -3.2544
    5MOL0     H  685   8.766   9.319  11.454 -0.9334  0.6798  1.5066
    5MOL0     H  686   8.551   9.109  11.750 -0.4490 -0.7894  0.2545
    5MOL0     H  687   9.204   8.825  11.363  0.4198 -0.9878  0.6623
    5MOL0     H  688   9.525   8.688  11.419  0.3364 -0.3608  2.9794
    5MOL0     H  689   9.379   8.661  11.525 -2.8427  1.4738 -0.6760
    5MOL0     H  690   9.363   8.660  11.351 -2.0907  0.8650  0.8330
    6MOL0     O  691   5.712   3.573   3.055  0.4283 -0.3320 -0.6844
    6MOL0     C  692   5.799   3.485   3.077 -0.1356 -0.2678 -0.6275
    6MOL0     O  693   5.811   3.359   3.024 -0.3600 -0.1042  0.7410
    6MOL0     C  694   5.739   3.331   2.911 -0.4491 -0.7487  0.1589
    6MOL0     C  695   5.667   3.211   2.895 -0.3240 -1.0407 -0.2056
    6MOL0     C  696   5.593   3.193   2.777  0.1424 -0.2175 -1.0658
    6MOL0     C  697   5.577   3.285   2.680  0.4092 -0.8060  0.6456
    6MOL0     O  698   5.481   3.292   2.581  0.8225  0.3491 -0.2562
    6MOL0     C  699   5.416   3.163   2.565 -0.5127  0.0336  0.0174
    6MOL0     C  700   5.331   3.170   2.437 -0.2212 -0.2010 -0.2474
    6MOL0     C  701   5.245   3.051   2.396  0.5543  0.8377  0.5323
    6MOL0     C  702   5.165   3.073   2.267  0.5336 -0.5075 -0.9117
    6MOL0     C  703   5.100   2.943   2.217  0.6307 -0.5948 -0.3358
    6MOL0     C  704   5.104   2.926   2.064 -0.2356 -0.3751 -0.6258
    6MOL0     C  705   5.242   2.906   1.996 -1.3499  1.4938 -0.3848
    6MOL0     C  706   5.285   2.762   2.036  0.3314  1.4338  0.0437
    6MOL0     N  707   5.395   2.755   2.125  0.1450  0.1644 -0.2774
    6MOL0     C  708   5.400   2.673   2.238  0.2122 -0.3850  0.6612
    6MOL0     C  709   5.527   2.677   2.277  0.0614  0.2958  0.5808
    6MOL0     C  710   5.599   2.612   2.394 -0.8248 -0.6336  0.1392
    6MOL0     C  711   5.608   2.729   2.505  0.0972  0.4410 -0.1922
    6MOL0     C  712   5.477   2.744   2.583  0.3898  0.5129  0.5959
    6MOL0     C  713   5.453   2.625   2.677  0.2070  0.8293  0.0897
    6MOL0     O  714   5.570   2.572   2.738 -0.1866 -0.3731  0.6627
    6MOL0     C  715   5.558   2.460   2.816  0.6733  0.2995  0.2500
    6MOL0     C  716   5.673   2.393   2.857  1.2467  0.2479  0.4781
    6MOL0     C  717   5.666   2.285   2.946  0.9947 -0.3034  0.0041
    6MOL0     C  718   5.802   2.230   2.980  1.1509  0.2948 -0.9874
    6MOL0     C  719   5.545   2.238   2.993 -1.0244 -0.2247 -0.9553
    6MOL0     C  720   5.533   2.132   3.089 -0.2215 -0.1176 -0.4493
    6MOL0     O  721   5.414   2.064   3.075 -0.3363  0.3806  0.3093
    6MOL0     C  722   5.385   1.962   3.151  0.5185  0.5048 -0.6586
    6MOL0     C  723   5.310   1.980   3.265  0.1351  0.8448 -0.2283
    6MOL0     C  724   5.285   1.880   3.363  0.2647  0.1202 -0.4801
    6MOL0     C  725   5.310   1.748   3.329 -0.7599 -0.4928 -0.1438
    6MOL0     O  726   5.270   1.640   3.405  0.0333  0.3165  0.8193
    6MOL0     C  727   5.159   1.558   3.351  0.3108 -0.5281  0.4439
    6MOL0     C  728   5.155   1.408   3.403 -0.0668 -0.7248 -0.0589
    6MOL0     C  729   5.270   1.342   3.338 -0.1827 -0.0793  1.1681
    6MOL0     C  730   5.256   1.304   3.190  0.1315 -0.2536  0.6069
    6MOL0     C  731   5.349   1.201   3.143 -0.4649 -0.4430  0.5689
    6MOL0     C  732   5.498   1.220   3.177 -0.6077 -0.5471  0.7525
    6MOL0     C  733   5.587   1.304   3.076 -0.6659 -0.2045 -0.6358
    6MOL0     C  734   5.735   1.298   3.120  1.0475 -0.1590 -0.3714
    6MOL0    Cl  735   5.836   1.357   2.986  0.3191 -0.5134  0.4723
    6MOL0     C  736   5.380   1.722   3.209 -0.5095 -0.1103  0.4625
    6MOL0     C  737   5.423   1.825   3.129  0.2184  0.3891  0.2165
    6MOL0     O  738   5.609   2.114   3.182 -0.6028 -0.1015  0.1381
    6MOL0     C  739   5.429   2.296   2.943  0.4988 -0.8098  0.8145
    6MOL0     C  740   5.436   2.404   2.856 -0.4878 -0.0298  0.2678
    6MOL0     N  741   5.594   2.765   2.194 -0.0328  0.0687 -1.3146
    6MOL0     N  742   5.520   2.801   2.106  0.0848 -0.4790 -0.5569
    6MOL0     C  743   5.657   3.395   2.685 -0.0019  0.2858 -0.1050
    6MOL0     C  744   5.739   3.420   2.801  0.2596  0.4302 -0.2293
    6MOL0     C  745   5.903   3.493   3.187  0.3662 -0.8287  0.1153
    6MOL0     C  746   5.947   3.389   3.268  0.9572  1.1603  0.5271
    6MOL0     C  747   6.043   3.394   3.360 -0.1354 -0.9828  0.3853
    6MOL0     C  748   6.104   3.518   3.388  0.0876 -0.0184  0.0114
    6MOL0     O  749   6.211   3.534   3.471  0.5141 -0.3884 -0.0991
    6MOL0     C  750   6.229   3.445   3.583  0.6311  0.4348 -0.0478
    6MOL0     C  751   6.344   3.497   3.678 -0.3250 -0.8852 -0.0196
    6MOL0     C  752   6.457   3.560   3.592  0.0930  0.1848 -0.1879
    6MOL0     C  753   6.584   3.557   3.683 -0.1104 -0.3033  0.3307
    6MOL0     C  754   6.701   3.565   3.599  0.0159 -0.4248  0.4179
    6MOL0     C  755   6.777   3.609   3.512  0.4928  0.1212  0.5734
    6MOL0     C  756   6.079   3.630   3.305  0.1130 -0.3053  0.6850
    6MOL0     C  757   5.970   3.626   3.210 -0.8491 -0.9251  0.1212
    6MOL0     C  758   5.937   3.753   3.142 -0.5540  0.1460 -0.3508
    6MOL0     H  759   5.672   3.134   2.971  2.1186 -0.1932  0.6103
    6MOL0     H  760   5.536   3.101   2.781  2.3545 -1.6352  0.1389
    6MOL0     H  761   5.338   3.151   2.641 -2.5616 -2.8376 -2.3302
    6MOL0     H  762   5.483   3.077   2.562 -0.9765 -0.4036  1.3926
    6MOL0     H  763   5.259   3.251   2.455  0.0268 -0.2349  0.9521
    6MOL0     H  764   5.397   3.202   2.355 -1.2782  0.7583 -0.7605
    6MOL0     H  765   5.304   2.962   2.370  0.7497  1.4316 -1.1318
    6MOL0     H  766   5.183   3.012   2.477  1.6692 -2.4701 -0.0392
    6MOL0     H  767   5.089   3.147   2.293  2.0486  1.7948 -2.6799
    6MOL0     H  768   5.225   3.120   2.189  0.2923  0.3462 -0.5980
    6MOL0     H  769   4.995   2.955   2.247  1.2177 -0.3093  1.7498
    6MOL0     H  770   5.133   2.860   2.281 -1.5514 -0.8298  0.5952
    6MOL0     H  771   5.033   2.852   2.026  0.0043 -0.6707 -0.5052
    6MOL0     H  772   5.060   3.021   2.034  1.2544  0.2215 -1.0165
    6MOL0     H  773   5.322   2.970   2.036 -0.9328  0.5674  0.3281
    6MOL0     H  774   5.229   2.903   1.888  0.3165 -0.3177 -0.5990
    6MOL0     H  775   5.212   2.695   2.082  0.4468 -1.2096 -3.2448
    6MOL0     H  776   5.315   2.707   1.946  0.9049  3.2857 -0.9451
    6MOL0     H  777   5.313   2.637   2.292  0.3675 -0.0843  1.1185
    6MOL0     H  778   5.699   2.587   2.359  0.1851  1.1802  1.5780
    6MOL0     H  779   5.549   2.525   2.438 -1.8078 -0.3786 -0.4288
    6MOL0     H  780   5.683   2.700   2.580  0.3593  1.0305 -0.2171
    6MOL0     H  781   5.627   2.823   2.452 -1.6967 -0.4475 -2.5637
    6MOL0     H  782   5.479   2.835   2.644  0.6520  1.3880 -0.6776
    6MOL0     H  783   5.384   2.762   2.530 -0.3334  3.2707  2.5419
    6MOL0     H  784   5.380   2.649   2.755  1.9014 -1.4120  2.5223
    6MOL0     H  785   5.405   2.544   2.621  1.4660 -1.0378  1.5977
    6MOL0     H  786   5.768   2.432   2.823  1.0296  0.5227  0.1820
    6MOL0     H  787   5.881   2.253   2.908  1.1093  0.0540 -1.1109
    6MOL0     H  788   5.796   2.121   2.987  0.5252  0.4137  1.3731
    6MOL0     H  789   5.835   2.257   3.081  0.0264  0.8479 -0.7529
    6MOL0     H  790   5.260   2.076   3.280 -0.5153  1.1281 -3.4788
    6MOL0     H  791   5.238   1.913   3.454  0.2970  0.8974 -0.7364
    6MOL0     H  792   5.063   1.607   3.371 -0.2049 -1.2155 -0.2890
    6MOL0     H  793   5.171   1.553   3.243  0.9110 -1.4401  0.5454
    6MOL0     H  794   5.160   1.407   3.512 -1.3325  0.8972  0.0539
    6MOL0     H  795   5.063   1.358   3.372  0.3383 -0.6990 -1.4047
    6MOL0     H  796   5.299   1.251   3.392  0.1505 -1.3574 -1.0594
    6MOL0     H  797   5.354   1.412   3.344 -1.6343  1.7918  0.9014
    6MOL0     H  798   5.262   1.397   3.134 -0.4382 -0.3629  0.3563
    6MOL0     H  799   5.154   1.267   3.176 -0.1762  0.6819  0.3330
    6MOL0     H  800   5.311   1.106   3.180  1.3686 -2.5274 -2.4194
    6MOL0     H  801   5.336   1.181   3.036  3.0628  1.3724 -0.3676
    6MOL0     H  802   5.541   1.120   3.170 -1.7473 -0.9712 -0.6318
    6MOL0     H  803   5.501   1.259   3.280 -0.2778  0.0917  0.5062
    6MOL0     H  804   5.568   1.410   3.060  3.7867  0.6146 -1.9159
    6MOL0     H  805   5.571   1.266   2.975  0.4561  3.4039 -2.3557
    6MOL0     H  806   5.760   1.192   3.135  0.9302 -0.6882 -3.3058
    6MOL0     H  807   5.754   1.344   3.217  0.8505 -3.0546  1.1572
    6MOL0     H  808   5.414   1.621   3.186 -0.0633  0.5058 -1.8358
    6MOL0     H  809   5.481   1.798   3.041  0.5318 -1.6188  0.9905
    6MOL0     H  810   5.335   2.255   2.978 -0.2355 -1.2948 -1.5257
    6MOL0     H  811   5.347   2.451   2.817  0.2543  0.2830 -1.1021
    6MOL0     H  812   5.667   3.470   2.607 -1.1984 -0.7432 -1.2789
    6MOL0     H  813   5.787   3.517   2.809 -2.6890  1.9637  0.1507
    6MOL0     H  814   5.901   3.293   3.248 -1.0360  2.0290  0.7130
    6MOL0     H  815   6.061   3.296   3.401  0.7776 -1.2287 -0.5372
    6MOL0     H  816   6.137   3.435   3.641  0.4320  1.4814 -0.1721
    6MOL0     H  817   6.236   3.344   3.541 -1.9052  0.7843 -1.5880
    6MOL0     H  818   6.389   3.423   3.745  1.8582  0.6546  0.3220
    6MOL0     H  819   6.301   3.572   3.746  1.3527 -0.5800  0.7443
    6MOL0     H  820   6.479   3.507   3.500  1.5139 -4.0082  2.2952
    6MOL0     H  821   6.422   3.661   3.569  0.3178  0.1717 -0.5872
    6MOL0     H  822   6.590   3.472   3.751  0.0276 -0.5255  0.0433
    6MOL0     H  823   6.585   3.648   3.744  3.1209  2.2701 -3.0677
    6MOL0     H  824   6.834   3.658   3.436 -2.0405  1.2919 -0.6657
    6MOL0     H  825   6.127   3.725   3.326 -1.6491  1.1272 -1.3387
    6MOL0     H  826   5.938   3.739   3.033 -0.5458 -2.4656 -0.0745
    6MOL0     H  827   5.841   3.794   3.174 -1.1248 -2.4008  1.5273
    6MOL0     H  828   6.011   3.831   3.162 -0.3753 -0.4675  1.6000
    7MOL0     O  829   8.253   8.891   9.225 -0.4493  0.7629 -0.0066
    7MOL0     C  830   8.298   8.893   9.338 -0.0922 -0.0358  0.1611
    7MOL0     O  831   8.304   8.999   9.424  0.5279  1.2282  0.2092
    7MOL0     C  832   8.274   9.124   9.380  0.2458 -0.0156 -0.0209
    7MOL0     C  833   8.364   9.228   9.413 -0.6403 -0.3960 -0.8243
    7MOL0     C  834   8.342   9.363   9.372 -0.4641 -0.3446 -0.2750
    7MOL0     C  835   8.219   9.398   9.316  0.1293  0.2947 -0.0715
    7MOL0     O  836   8.185   9.529   9.305 -0.2367  0.0271  0.5676
    7MOL0     C  837   8.086   9.562   9.206 -0.1307  0.0394 -0.5729
    7MOL0     C  838   8.148   9.669   9.121  1.0333 -0.2441 -0.9234
    7MOL0     C  839   8.043   9.746   9.038 -1.2759 -0.4044 -0.4079
    7MOL0     C  840   8.096   9.886   8.990 -0.7033 -0.5850  0.7775
    7MOL0     C  841   8.231   9.889   8.910 -0.0322  0.5006  0.1261
    7MOL0     C  842   8.214   9.839   8.760 -0.7606 -0.1838  0.4753
    7MOL0     C  843   8.229   9.955   8.660  0.3674 -0.5982  0.1859
    7MOL0     C  844   8.101  10.042   8.647  0.9887  0.5577 -0.4293
    7MOL0     N  845   7.988   9.959   8.599 -0.2452 -0.6575 -0.2839
    7MOL0     C  846   7.885   9.903   8.670  0.1727 -0.1612 -0.8675
    7MOL0     C  847   7.800   9.856   8.583  0.0428  0.7148  0.7110
    7MOL0     C  848   7.665   9.789   8.623 -0.2474  0.2186  0.0411
    7MOL0     C  849   7.556   9.892   8.603 -0.0373  0.6490 -0.5713
    7MOL0     C  850   7.429   9.851   8.676 -0.8471  0.2289 -1.2868
    7MOL0     C  851   7.319   9.950   8.646 -0.3808 -0.9229 -0.6289
    7MOL0     O  852   7.342  10.060   8.730 -0.5213 -0.9056 -0.2072
    7MOL0     C  853   7.258  10.162   8.696 -0.3401 -0.5166 -0.5877
    7MOL0     C  854   7.156  10.167   8.605  0.4326  0.5273 -0.0516
    7MOL0     C  855   7.074  10.286   8.590  0.4935 -0.6382  1.2360
    7MOL0     C  856   6.963  10.290   8.480  0.2438  0.2773 -0.1796
    7MOL0     C  857   7.100  10.393   8.677  0.0167 -0.8803 -0.7851
    7MOL0     C  858   7.034  10.524   8.668  0.9901 -0.6587  0.4836
    7MOL0     O  859   7.112  10.630   8.691 -0.3646  0.4738 -0.3583
    7MOL0     C  860   7.049  10.752   8.714 -0.1162  0.3583  1.2326
    7MOL0     C  861   7.104  10.864   8.646  0.5367  0.2622 -0.6145
    7MOL0     C  862   7.045  10.988   8.650  0.3217  0.2024  0.5226
    7MOL0     C  863   6.924  11.005   8.714 -0.3737 -0.0591  0.4361
    7MOL0     O  864   6.860  11.126   8.713 -0.5448 -0.4442  0.2595
    7MOL0     C  865   6.854  11.206   8.587  0.8823  0.9728  0.2370
    7MOL0     C  866   6.712  11.264   8.587  0.1464  0.1123 -0.0872
    7MOL0     C  867   6.680  11.351   8.469 -0.0129 -0.2727  0.2843
    7MOL0     C  868   6.536  11.408   8.494 -0.2043  0.2550  0.1682
    7MOL0     C  869   6.482  11.480   8.365 -0.8947  1.0596 -0.1699
    7MOL0     C  870   6.357  11.568   8.394  0.3814  0.1848  0.0260
    7MOL0     C  871   6.333  11.659   8.264 -0.3664  0.7227  0.1002
    7MOL0     C  872   6.231  11.769   8.303 -0.1248  0.1690  0.9124
    7MOL0    Cl  873   6.308  11.892   8.404 -0.3041 -0.0226  0.8151
    7MOL0     C  874   6.876  10.905   8.792  0.1900  0.1104  0.9216
    7MOL0     C  875   6.932  10.775   8.787  0.1092 -0.2099 -0.2844
    7MOL0     O  876   6.918  10.534   8.614 -0.3716  0.0046 -0.5308
    7MOL0     C  877   7.199  10.373   8.775 -0.0457  0.4194 -0.3181
    7MOL0     C  878   7.275  10.263   8.783 -0.4499  0.0720 -0.0341
    7MOL0     N  879   7.844   9.884   8.460 -0.4324 -0.2089  1.4195
    7MOL0     N  880   7.951   9.954   8.468  0.3263  0.2256  0.0584
    7MOL0     C  881   8.126   9.293   9.280 -0.5914  0.2278 -1.1022
    7MOL0     C  882   8.164   9.162   9.304  0.7009  0.4263  0.2158
    7MOL0     C  883   8.388   8.776   9.373  0.4426 -0.0719 -1.0698
    7MOL0     C  884   8.503   8.792   9.459  0.3937 -0.5215 -0.5780
    7MOL0     C  885   8.594   8.685   9.478  0.6598 -0.1690  0.0132
    7MOL0     C  886   8.571   8.558   9.425  0.5256  0.4547 -0.2904
    7MOL0     O  887   8.656   8.457   9.468 -0.8281 -0.4404  0.0479
    7MOL0     C  888   8.641   8.317   9.427 -0.5795 -0.2483 -0.4588
    7MOL0     C  889   8.780   8.249   9.417  0.0852 -0.3856  0.2083
    7MOL0     C  890   8.855   8.257   9.550  0.2969  0.6058 -0.9473
    7MOL0     C  891   9.002   8.219   9.527 -0.9215 -0.6986  0.4633
    7MOL0     C  892   9.079   8.208   9.655  0.0930  0.2383  0.3656
    7MOL0     C  893   9.130   8.207   9.763 -0.5986 -0.8067  0.4518
    7MOL0     C  894   8.461   8.540   9.345 -0.2839  0.6105 -0.0687
    7MOL0     C  895   8.373   8.645   9.320 -0.3469  0.9367  0.3618
    7MOL0     C  896   8.270   8.609   9.207  0.7634 -0.0655 -0.2826
    7MOL0     H  897   8.447   9.201   9.477 -1.5582  1.9932  1.5612
    7MOL0     H  898   8.404   9.446   9.404 -2.5120  1.5220 -0.8743
    7MOL0     H  899   8.000   9.600   9.261  1.0055  1.4205  0.3474
    7MOL0     H  900   8.050   9.488   9.134 -1.3852  0.8727 -0.8404
    7MOL0     H  901   8.194   9.730   9.200 -2.4759  0.4448  0.7814
    7MOL0     H  902   8.221   9.624   9.054  1.1705 -0.4982 -0.6061
    7MOL0     H  903   8.034   9.678   8.953  1.8455  1.3055 -2.2865
    7MOL0     H  904   7.951   9.747   9.098  0.3690 -1.9978  2.3089
    7MOL0     H  905   8.025   9.929   8.919  0.8018  0.2520 -0.2959
    7MOL0     H  906   8.094   9.952   9.077 -2.0320  0.0134  0.3129
    7MOL0     H  907   8.304   9.827   8.964 -1.2382  0.2357  1.5137
    7MOL0     H  908   8.259   9.994   8.902 -0.3366  0.5084 -1.1553
    7MOL0     H  909   8.295   9.767   8.742 -3.2059 -3.5280  1.8377
    7MOL0     H  910   8.126   9.776   8.742 -0.5017  0.0642 -2.0066
    7MOL0     H  911   8.248   9.908   8.563 -1.9389  0.7645 -1.0157
    7MOL0     H  912   8.312  10.022   8.685  0.2330 -0.3260 -0.0912
    7MOL0     H  913   8.092  10.091   8.744  3.6172  1.1678 -0.4352
    7MOL0     H  914   8.128  10.123   8.578 -0.7392  0.9106 -0.7391
    7MOL0     H  915   7.871   9.893   8.777  0.8055 -1.0932 -0.8598
    7MOL0     H  916   7.678   9.753   8.725  0.4923  0.2787 -0.0269
    7MOL0     H  917   7.652   9.701   8.558 -0.7635 -0.6012  1.2259
    7MOL0     H  918   7.589   9.981   8.657  1.5758  0.1681 -0.7134
    7MOL0     H  919   7.528   9.924   8.502  0.6893  1.5458 -0.4960
    7MOL0     H  920   7.404   9.748   8.648  0.1548  0.3029 -2.4974
    7MOL0     H  921   7.452   9.846   8.783  1.7821  0.8248 -1.7523
    7MOL0     H  922   7.310   9.964   8.538  0.3030 -1.6026 -0.7920
    7MOL0     H  923   7.232   9.902   8.691 -4.0441  1.4875 -4.4439
    7MOL0     H  924   7.138  10.077   8.547 -2.0858 -0.6476  2.3763
    7MOL0     H  925   6.964  10.192   8.432 -2.5272 -0.5731  1.2587
    7MOL0     H  926   6.976  10.373   8.410 -1.2346  0.5347 -0.1895
    7MOL0     H  927   6.861  10.303   8.517 -0.2006  2.2679 -1.8830
    7MOL0     H  928   7.204  10.853   8.606  1.7918 -1.9445  2.6963
    7MOL0     H  929   7.095  11.074   8.609  3.0627 -2.4106 -2.1604
    7MOL0     H  930   6.938  11.274   8.572  1.8657 -0.3131 -0.3194
    7MOL0     H  931   6.853  11.149   8.494  1.6875  0.2108  0.6756
    7MOL0     H  932   6.638  11.185   8.602  1.3433 -0.5070  3.4599
    7MOL0     H  933   6.718  11.335   8.670  0.4530  0.0068 -0.0194
    7MOL0     H  934   6.684  11.299   8.372  0.1732 -2.0115  1.1976
    7MOL0     H  935   6.744  11.440   8.464 -1.8154  1.2463  2.4354
    7MOL0     H  936   6.534  11.476   8.579  2.5393  0.2862  0.3028
    7MOL0     H  937   6.464  11.325   8.498 -0.9941  0.7086 -2.4478
    7MOL0     H  938   6.562  11.548   8.334  1.9281 -2.0996 -0.4170
    7MOL0     H  939   6.467  11.404   8.287 -0.6206 -0.2246  0.9762
    7MOL0     H  940   6.382  11.630   8.481  0.3816 -0.1847  0.2917
    7MOL0     H  941   6.274  11.499   8.412  1.9893 -1.4693  1.4493
    7MOL0     H  942   6.295  11.596   8.183  3.1574  2.0043 -2.7977
    7MOL0     H  943   6.422  11.708   8.225  0.3887 -1.8627 -1.6229
    7MOL0     H  944   6.149  11.732   8.365  1.9588 -0.4350  3.5172
    7MOL0     H  945   6.192  11.813   8.211  0.5182 -3.5502 -1.3731
    7MOL0     H  946   6.779  10.921   8.838 -0.7545  2.6030 -1.6580
    7MOL0     H  947   6.882  10.694   8.839  1.7637 -3.5501 -3.4297
    7MOL0     H  948   7.224  10.445   8.853 -0.5612 -1.6494  1.8682
    7MOL0     H  949   7.358  10.265   8.853 -1.1607  0.6782  0.8283
    7MOL0     H  950   8.026   9.315   9.242 -0.2452 -1.3315 -3.0338
    7MOL0     H  951   8.095   9.085   9.273 -1.1059  2.8911 -2.5103
    7MOL0     H  952   8.516   8.893   9.498  0.4422 -0.7081 -0.1014
    7MOL0     H  953   8.685   8.714   9.531 -1.3406  0.3631  3.4513
    7MOL0     H  954   8.583   8.269   9.506  1.7745 -1.1293  0.8605
    7MOL0     H  955   8.586   8.297   9.335 -1.6619 -1.3948  0.4145
    7MOL0     H  956   8.838   8.296   9.337  1.7020 -1.4607  0.7063
    7MOL0     H  957   8.742   8.148   9.398 -1.5700 -0.1953  2.1379
    7MOL0     H  958   8.852   8.359   9.589 -0.8806  0.1224  0.3218
    7MOL0     H  959   8.801   8.184   9.611  1.9785 -0.3681 -0.5424
    7MOL0     H  960   9.043   8.296   9.461 -0.9201  0.9897  2.3416
    7MOL0     H  961   9.012   8.128   9.467  1.6393 -0.3862  0.2852
    7MOL0     H  962   9.180   8.221   9.857  1.4472 -0.4925 -0.6184
    7MOL0     H  963   8.434   8.442   9.306  0.1185  0.7457 -0.7055
    7MOL0     H  964   8.259   8.680   9.125  1.5524  0.8975  0.4176
    7MOL0     H  965   8.296   8.513   9.161 -0.6429 -0.2651 -0.7028
    7MOL0     H  966   8.172   8.609   9.256  1.3300  2.1724  0.9986
    8MOL0     O  967  10.007   9.205   4.847 -0.6569  0.0036 -0.6022
    8MOL0     C  968   9.995   9.298   4.925  0.3228  0.0099 -0.1049
    8MOL0     O  969  10.103   9.365   4.989 -0.4307  0.4649 -0.1625
    8MOL0     C  970  10.234   9.329   4.952  0.7863 -1.1241 -0.9104
    8MOL0     C  971  10.322   9.409   4.877  0.3117 -0.6223  0.4953
    8MOL0     C  972  10.442   9.354   4.840 -0.1043  0.4117  0.8069
    8MOL0     C  973  10.498   9.237   4.885  0.4698 -0.4510 -0.1928
    8MOL0     O  974  10.622   9.200   4.830  0.1828  0.3157 -1.2251
    8MOL0     C  975  10.668   9.068   4.859 -0.3685 -0.4518  0.6276
    8MOL0     C  976  10.796   9.045   4.783  0.4534  0.7593 -0.5957
    8MOL0     C  977  10.893   9.163   4.803  0.2322  0.7522 -0.6043
    8MOL0     C  978  11.013   9.155   4.723 -0.0390 -0.6629 -0.0838
    8MOL0     C  979  11.131   9.245   4.771  0.6189  0.4187  0.2448
    8MOL0     C  980  11.268   9.219   4.705  0.0872 -0.1989 -0.5683
    8MOL0     C  981  11.285   9.248   4.556 -0.7460 -0.1043 -0.5514
    8MOL0     C  982  11.216   9.140   4.473  0.3140 -0.8959  0.3397
    8MOL0     N  983  11.281   9.133   4.342  0.1329  0.3236 -0.2384
    8MOL0     C  984  11.323   9.237   4.266  0.1055  0.1507  0.1715
    8MOL0     C  985  11.391   9.188   4.162  0.8780 -0.0386 -0.1466
    8MOL0     C  986  11.460   9.255   4.058  0.1605  0.0794 -0.1046
    8MOL0     C  987  11.559   9.362   4.113 -0.3398 -0.5300  0.2672
    8MOL0     C  988  11.676   9.298   4.191  0.1429 -0.3323  0.0142
    8MOL0     C  989  11.755   9.404   4.256  0.3965 -0.4186 -2.0081
    8MOL0     O  990  11.772   9.524   4.179 -0.2574  0.0933 -0.5441
    8MOL0     C  991  11.899   9.555   4.151 -0.1621  0.0236  0.1448
    8MOL0     C  992  11.982   9.481   4.066  0.2950 -0.4944  0.5977
    8MOL0     C  993  12.108   9.523   4.036  0.2888  0.0172  0.7500
    8MOL0     C  994  12.181   9.436   3.932  0.1644  0.3448  0.9904
    8MOL0     C  995  12.167   9.639   4.090 -0.3872  0.1328 -0.3549
    8MOL0     C  996  12.286   9.707   4.039  0.3592 -0.6395  0.2987
    8MOL0     O  997  12.291   9.723   3.900 -0.5579  0.9529  0.5154
    8MOL0     C  998  12.417   9.756   3.844 -0.1889  0.3020 -0.7887
    8MOL0     C  999  12.413   9.840   3.734  0.9582  0.3605 -0.7909
    8MOL0     C 1000  12.528   9.899   3.679  0.0896 -0.6964 -0.3485
    8MOL0     C 1001  12.649   9.863   3.726  0.5409 -0.2884  0.0413
    8MOL0     O 1002  12.766   9.914   3.673 -0.0459  0.3245 -0.0991
    8MOL0     C 1003  12.770  10.016   3.575  0.3621  0.0555  0.7439
    8MOL0     C 1004  12.909  10.079   3.562 -0.4106  0.3161  0.0143
    8MOL0     C 1005  12.908  10.215   3.499 -0.1019 -0.5159  0.7282
    8MOL0     C 1006  13.039  10.283   3.485 -0.6359  0.3570 -0.0316
    8MOL0     C 1007  13.025  10.414   3.403 -0.4517  0.2380 -1.0585
    8MOL0     C 1008  13.062  10.383   3.256 -0.1995  0.2938  0.2460
    8MOL0     C 1009  13.060  10.514   3.179 -0.3536  0.1549  0.0867
    8MOL0     C 1010  13.102  10.514   3.029  0.5652  0.4348  0.4150
    8MOL0    Cl 1011  13.260  10.442   2.993 -0.5254  0.3605 -0.2865
    8MOL0     C 1012  12.670   9.767   3.826  0.2730  0.2018  0.0712
    8MOL0     C 1013  12.549   9.717   3.885  0.0407 -0.4124  0.9587
    8MOL0     O 1014  12.357   9.771   4.120  0.3725  0.0799  0.6785
    8MOL0     C 1015  12.086   9.707   4.182 -0.2202  0.4778  0.0431
    8MOL0     C 1016  11.952   9.673   4.199 -0.0619  0.3357  0.0820
    8MOL0     N 1017  11.372   9.056   4.166 -0.1717 -0.8121 -0.3803
    8MOL0     N 1018  11.313   9.024   4.282  0.3798  0.8548  0.2321
    8MOL0     C 1019  10.416   9.164   4.976  0.3461  0.4165  0.1244
    8MOL0     C 1020  10.281   9.210   5.005 -0.4004 -0.0411 -1.0173
    8MOL0     C 1021   9.860   9.335   4.972 -0.0755  0.0183  0.0806
    8MOL0     C 1022   9.852   9.408   5.097 -0.5344 -0.8382 -0.3456
    8MOL0     C 1023   9.728   9.460   5.131 -0.1764  0.3759 -0.0162
    8MOL0     C 1024   9.614   9.423   5.064  0.4948 -0.7356  0.6083
    8MOL0     O 1025   9.502   9.482   5.111 -0.7107  0.8883  0.3149
    8MOL0     C 1026   9.377   9.463   5.036 -0.4019 -0.2744  0.0131
    8MOL0     C 1027   9.268   9.559   5.077  0.5894 -0.3856 -0.4731
    8MOL0     C 1028   9.237   9.560   5.224  0.5702  0.3817  0.7673
    8MOL0     C 1029   9.159   9.426   5.256  0.2779 -0.3146  0.1400
    8MOL0     C 1030   9.111   9.437   5.398  0.9858 -1.0345  0.0224
    8MOL0     C 1031   9.068   9.460   5.513  0.5393  0.4604 -0.4631
    8MOL0     C 1032   9.620   9.354   4.951 -0.1927  0.7135 -0.4270
    8MOL0     C 1033   9.744   9.309   4.897  0.4213 -0.4376  0.2787
    8MOL0     C 1034   9.734   9.228   4.769  0.2591  0.6546 -0.0066
    8MOL0     H 1035  10.277   9.493   4.826  1.2397 -0.9277 -0.8750
    8MOL0     H 1036  10.512   9.405   4.775  0.6347  0.9718  2.0051
    8MOL0     H 1037  10.602   8.986   4.830  1.3118 -1.1953 -1.3062
    8MOL0     H 1038  10.685   9.049   4.965  0.8166 -2.2516  0.1463
    8MOL0     H 1039  10.838   8.954   4.827 -2.9792 -0.1259  1.2448
    8MOL0     H 1040  10.770   9.035   4.677 -1.3145 -1.8721 -0.0254
    8MOL0     H 1041  10.850   9.257   4.768  0.2650  0.3026 -1.9162
    8MOL0     H 1042  10.919   9.170   4.909  0.8424  1.9966 -0.8241
    8MOL0     H 1043  11.040   9.049   4.717 -4.1666 -1.9419  0.8412
    8MOL0     H 1044  10.983   9.202   4.629 -3.6409  2.3144  2.2473
    8MOL0     H 1045  11.143   9.216   4.876 -1.3251  1.3354  0.7764
    8MOL0     H 1046  11.102   9.349   4.752 -0.7691  0.1279  0.7032
    8MOL0     H 1047  11.340   9.282   4.759 -1.2773  3.5493 -2.7420
    8MOL0     H 1048  11.293   9.114   4.723  2.0556 -0.0732 -2.1766
    8MOL0     H 1049  11.391   9.256   4.532 -0.0600 -1.1965  1.7823
    8MOL0     H 1050  11.242   9.347   4.536 -1.4621  0.2552  2.2487
    8MOL0     H 1051  11.212   9.038   4.514 -0.9545 -1.7966 -1.8589
    8MOL0     H 1052  11.111   9.161   4.454  0.2931 -1.5955 -0.3784
    8MOL0     H 1053  11.324   9.342   4.294 -1.1360  0.0839  0.5105
    8MOL0     H 1054  11.397   9.294   3.978  0.3555 -1.2230 -0.9242
    8MOL0     H 1055  11.509   9.177   3.999  3.4335  1.3444  0.7177
    8MOL0     H 1056  11.606   9.416   4.030 -0.7536  1.4932  1.2796
    8MOL0     H 1057  11.502   9.433   4.175  0.3681 -1.3044  1.8663
    8MOL0     H 1058  11.638   9.222   4.261 -1.1110  1.8995  1.8828
    8MOL0     H 1059  11.742   9.255   4.114 -0.4616 -0.8439 -0.2254
    8MOL0     H 1060  11.701   9.435   4.346  2.0970 -1.5641 -0.5237
    8MOL0     H 1061  11.847   9.361   4.296  0.9296 -0.6767 -3.4610
    8MOL0     H 1062  11.936   9.404   4.005 -1.5415  1.7918 -1.1533
    8MOL0     H 1063  12.160   9.478   3.833  2.5537  2.5682  1.3046
    8MOL0     H 1064  12.161   9.328   3.940  2.7391 -0.4929 -1.8545
    8MOL0     H 1065  12.288   9.449   3.950 -0.0513  3.0742  0.7111
    8MOL0     H 1066  12.315   9.859   3.691  0.2152 -2.1709 -0.3631
    8MOL0     H 1067  12.523   9.964   3.593 -0.3977 -1.4515 -0.8997
    8MOL0     H 1068  12.753   9.957   3.484  0.3016  0.9659  0.1482
    8MOL0     H 1069  12.691  10.090   3.596 -0.6737 -1.3082  1.8403
    8MOL0     H 1070  12.957  10.088   3.660  0.3772  1.0009 -0.4205
    8MOL0     H 1071  12.962  10.019   3.487 -3.5471  1.1595 -3.1792
    8MOL0     H 1072  12.841  10.285   3.550  1.1973  0.9674  0.4769
    8MOL0     H 1073  12.863  10.195   3.401 -1.3340 -1.5548  1.4700
    8MOL0     H 1074  13.098  10.210   3.430 -4.7058 -4.1556  0.9344
    8MOL0     H 1075  13.088  10.306   3.581  0.1546 -0.1523 -0.3070
    8MOL0     H 1076  12.933  10.471   3.421  0.2707  0.9859  0.5240
    8MOL0     H 1077  13.107  10.480   3.433  1.3611 -1.1777 -2.6850
    8MOL0     H 1078  12.991  10.314   3.211 -3.1844  2.9482  0.5237
    8MOL0     H 1079  13.158  10.331   3.252 -0.8086 -0.9362  1.1613
    8MOL0     H 1080  13.124  10.591   3.225  1.6172 -0.0559 -2.1107
    8MOL0     H 1081  12.959  10.554   3.183  0.1081  1.5491 -1.3680
    8MOL0     H 1082  13.107  10.614   2.986  2.9023 -0.4631 -1.6380
    8MOL0     H 1083  13.027  10.457   2.975  0.2947  2.1167 -1.0533
    8MOL0     H 1084  12.773   9.748   3.856  0.7989  2.7902  0.1036
    8MOL0     H 1085  12.561   9.646   3.967  1.8326 -2.5155 -0.9793
    8MOL0     H 1086  12.107   9.808   4.215  2.9034 -0.3519  0.9609
    8MOL0     H 1087  11.881   9.732   4.255  0.1026 -0.8191  1.5878
    8MOL0     H 1088  10.447   9.075   5.030 -2.3301 -0.4805  0.3158
    8MOL0     H 1089  10.208   9.159   5.067  0.4825 -1.1275 -0.8514
    8MOL0     H 1090   9.946   9.428   5.147  0.0815 -0.6211 -1.5498
    8MOL0     H 1091   9.730   9.525   5.218 -0.2906 -0.5770  0.7156
    8MOL0     H 1092   9.397   9.473   4.928 -1.1072 -3.9215 -0.5875
    8MOL0     H 1093   9.346   9.359   5.045  3.9813 -1.7556  0.4496
    8MOL0     H 1094   9.179   9.551   5.014  0.6682 -0.0059 -0.6353
    8MOL0     H 1095   9.301   9.663   5.072 -0.3748  0.0210  1.0416
    8MOL0     H 1096   9.333   9.577   5.274  1.0834  0.6314 -0.2707
    8MOL0     H 1097   9.170   9.643   5.249 -0.0186 -0.5000  2.2752
    8MOL0     H 1098   9.227   9.344   5.232 -0.5542 -0.3722 -2.3730
    8MOL0     H 1099   9.072   9.421   5.189  1.5690 -0.7459 -1.5632
    8MOL0     H 1100   9.045   9.504   5.607 -0.7833 -0.8539 -0.1340
    8MOL0     H 1101   9.529   9.317   4.906  1.5194 -3.4659 -0.9158
    8MOL0     H 1102   9.769   9.291   4.688 -1.2374 -2.0130 -2.9611
    8MOL0     H 1103   9.779   9.128   4.775  0.8398  0.9937  1.8527
    8MOL0     H 1104   9.627   9.209   4.753  0.5437 -0.8727 -0.2431
    9MOL0     O 1105   1.361   3.061   5.258 -0.0582  0.4115  0.6001
    9MOL0     C 1106   1.380   3.052   5.137  0.3530 -0.1443 -0.1079
    9MOL0     O 1107   1.384   3.160   5.056  0.3926  0.3574 -1.3419
    9MOL0     C 1108   1.414   3.155   4.923  0.5243  0.8188 -0.1611
    9MOL0     C 1109   1.528   3.214   4.878 -0.2734  0.2634 -1.1066
    9MOL0     C 1110   1.552   3.214   4.737 -0.5247 -0.9287  0.0076
    9MOL0     C 1111   1.469   3.153   4.643  0.1500 -0.5649  0.3654
    9MOL0     O 1112   1.498   3.142   4.507  0.0168  0.3771  0.5443
    9MOL0     C 1113   1.619   3.080   4.478 -0.6629  0.0048  1.4757
    9MOL0     C 1114   1.731   3.169   4.431  0.4478 -1.1373 -0.0693
    9MOL0     C 1115   1.707   3.238   4.290  0.3664  0.4287 -0.7070
    9MOL0     C 1116   1.801   3.353   4.256  0.8617  0.1368 -0.1128
    9MOL0     C 1117   1.789   3.407   4.121 -1.3801 -0.5582  0.4238
    9MOL0     C 1118   1.898   3.518   4.087  0.3805 -0.0491  1.3256
    9MOL0     C 1119   1.876   3.579   3.946 -0.1623 -0.1583 -0.3323
    9MOL0     C 1120   1.985   3.679   3.922  1.3583  0.1888  0.2990
    9MOL0     N 1121   1.972   3.727   3.782 -0.2795  0.3316  0.5679
    9MOL0     C 1122   1.927   3.849   3.729  0.1257  0.5042 -0.1020
    9MOL0     C 1123   1.936   3.827   3.595  0.1849  0.4889  0.4171
    9MOL0     C 1124   1.905   3.936   3.508 -0.7666 -0.0592  0.3940
    9MOL0     C 1125   1.788   3.917   3.416 -0.7376  1.2500  0.8655
    9MOL0     C 1126   1.768   4.017   3.294  0.0496  0.1721  0.5423
    9MOL0     C 1127   1.740   4.152   3.348 -0.6063 -0.3391 -0.3778
    9MOL0     O 1128   1.709   4.256   3.247  0.0650  0.0538 -0.1518
    9MOL0     C 1129   1.625   4.356   3.287 -0.1840 -0.8803  0.4526
    9MOL0     C 1130   1.501   4.342   3.337 -0.4173  0.4462  0.5935
    9MOL0     C 1131   1.421   4.457   3.369 -0.9083 -0.2487  0.9037
    9MOL0     C 1132   1.280   4.431   3.414 -0.1971  0.3446 -0.1495
    9MOL0     C 1133   1.472   4.588   3.341  0.6268 -0.4712 -0.3050
    9MOL0     C 1134   1.399   4.723   3.350  0.5640  0.6755  0.4361
    9MOL0     O 1135   1.439   4.806   3.246 -0.2012 -0.2113  0.2342
    9MOL0     C 1136   1.376   4.925   3.214  0.8996  0.5252  0.0116
    9MOL0     C 1137   1.371   4.963   3.081 -0.4377 -0.2296 -0.6105
    9MOL0     C 1138   1.308   5.086   3.049 -0.5402 -0.0064  0.2801
    9MOL0     C 1139   1.244   5.175   3.143  0.5833 -0.0059  0.0373
    9MOL0     O 1140   1.198   5.299   3.102  0.4371 -0.0369  0.2560
    9MOL0     C 1141   1.198   5.410   3.196  0.1985 -0.1656  1.2134
    9MOL0     C 1142   1.333   5.453   3.246 -0.2078  0.0205 -0.3916
    9MOL0     C 1143   1.350   5.608   3.252  0.0979 -0.0041  0.0845
    9MOL0     C 1144   1.257   5.686   3.342 -0.1092  0.2856 -0.6413
    9MOL0     C 1145   1.261   5.636   3.489 -0.0419  0.2972  0.3355
    9MOL0     C 1146   1.193   5.730   3.593  0.5139  0.2249  0.4700
    9MOL0     C 1147   1.195   5.670   3.731 -0.2148 -0.0805  0.4719
    9MOL0     C 1148   1.339   5.674   3.791  0.4458  0.4730 -0.3474
    9MOL0    Cl 1149   1.330   5.582   3.945 -0.1491 -0.0225  0.2731
    9MOL0     C 1150   1.239   5.130   3.275 -0.3176 -0.3661  0.0524
    9MOL0     C 1151   1.315   5.010   3.309  0.5952 -0.4480 -0.5839
    9MOL0     O 1152   1.307   4.748   3.428 -0.0235 -0.0431 -0.9577
    9MOL0     C 1153   1.595   4.599   3.271 -0.2157 -0.1481 -0.3192
    9MOL0     C 1154   1.666   4.485   3.257 -0.0036 -0.0998  0.8089
    9MOL0     N 1155   1.994   3.702   3.555  0.2769 -0.7337 -0.0240
    9MOL0     N 1156   2.008   3.654   3.674  0.0977  0.7058 -0.4106
    9MOL0     C 1157   1.361   3.094   4.688  0.4374 -0.3516 -0.5126
    9MOL0     C 1158   1.323   3.096   4.827 -0.1891 -0.5950  0.3550
    9MOL0     C 1159   1.368   2.919   5.084 -0.0320  0.4862  0.2738
    9MOL0     C 1160   1.487   2.855   5.039 -0.0381  0.5172  0.6177
    9MOL0     C 1161   1.490   2.720   5.013  1.0247  0.3644  0.0562
    9MOL0     C 1162   1.375   2.645   5.027  0.6436 -0.8970  0.2994
    9MOL0     O 1163   1.375   2.515   4.994  0.0901 -0.4256  0.4138
    9MOL0     C 1164   1.392   2.410   5.085 -0.3099 -0.2500 -0.2176
    9MOL0     C 1165   1.260   2.372   5.153 -0.2530 -0.8046  0.2090
    9MOL0     C 1166   1.270   2.232   5.220  0.2347 -0.0496 -0.2448
    9MOL0     C 1167   1.312   2.243   5.370 -0.3015 -0.8852  1.2990
    9MOL0     C 1168   1.323   2.106   5.413  0.2356  0.3961 -0.4474
    9MOL0     C 1169   1.334   1.987   5.445  0.4985  0.1547  0.1640
    9MOL0     C 1170   1.253   2.713   5.058  0.4362  0.3672 -0.0448
    9MOL0     C 1171   1.251   2.841   5.092  0.5959  0.4635 -0.0956
    9MOL0     C 1172   1.113   2.896   5.128  0.0635 -0.1279 -0.3698
    9MOL0     H 1173   1.592   3.282   4.934 -3.1116  1.6097  0.7386
    9MOL0     H 1174   1.632   3.278   4.701 -2.1080  1.4825  0.5221
    9MOL0     H 1175   1.600   3.007   4.398 -3.2694 -0.9778  2.8774
    9MOL0     H 1176   1.654   3.021   4.564  2.0386  1.4347  1.4669
    9MOL0     H 1177   1.734   3.245   4.510 -1.2008  1.5665 -2.3897
    9MOL0     H 1178   1.833   3.130   4.434  0.6267 -0.7102 -0.3987
    9MOL0     H 1179   1.702   3.161   4.213 -1.0017  0.5485 -0.7665
    9MOL0     H 1180   1.606   3.281   4.286  0.8134  1.6402  0.1536
    9MOL0     H 1181   1.790   3.425   4.337 -1.2303 -2.1330  1.8056
    9MOL0     H 1182   1.901   3.313   4.275  0.6668  0.0956  0.9339
    9MOL0     H 1183   1.691   3.450   4.101  0.1335  2.0073 -2.2473
    9MOL0     H 1184   1.795   3.320   4.053  2.1595  0.6483 -1.0567
    9MOL0     H 1185   1.896   3.600   4.159  0.8927  2.3977 -1.2697
    9MOL0     H 1186   1.998   3.472   4.083 -0.1843 -1.2367 -1.2069
    9MOL0     H 1187   1.778   3.623   3.965  0.0138  0.3363 -0.5453
    9MOL0     H 1188   1.882   3.499   3.872  2.3067 -0.3386 -0.0497
    9MOL0     H 1189   1.985   3.765   3.990 -3.8181  1.5580 -1.0085
    9MOL0     H 1190   2.076   3.618   3.922  0.3121 -1.6464 -3.1601
    9MOL0     H 1191   1.886   3.938   3.775 -0.1407  0.4846 -0.3002
    9MOL0     H 1192   1.991   3.939   3.442 -2.0314 -0.9997 -1.3901
    9MOL0     H 1193   1.894   4.027   3.567 -0.0698  1.6364 -1.9491
    9MOL0     H 1194   1.793   3.815   3.378  2.7897  1.7312 -0.2229
    9MOL0     H 1195   1.701   3.923   3.483 -0.8234  2.2884  0.6861
    9MOL0     H 1196   1.847   4.003   3.220  0.5913 -1.4654  1.3915
    9MOL0     H 1197   1.677   3.976   3.249  0.3471  0.1233 -0.0253
    9MOL0     H 1198   1.660   4.145   3.422  0.0908 -3.2649  0.2269
    9MOL0     H 1199   1.829   4.179   3.406  1.0808 -2.7558 -1.6601
    9MOL0     H 1200   1.476   4.238   3.352 -0.2241 -0.1605 -2.6890
    9MOL0     H 1201   1.280   4.403   3.520  0.1482  3.6620  0.8445
    9MOL0     H 1202   1.240   4.344   3.361  2.9597 -0.9101 -0.6543
    9MOL0     H 1203   1.220   4.523   3.414 -3.1139 -1.4127  0.4008
    9MOL0     H 1204   1.417   4.909   2.999  0.0640  1.8549 -1.7674
    9MOL0     H 1205   1.298   5.117   2.945  0.0732  2.1440  0.8265
    9MOL0     H 1206   1.164   5.497   3.138 -1.5205 -0.9215  1.0199
    9MOL0     H 1207   1.122   5.397   3.274 -0.0389  0.3096  1.0676
    9MOL0     H 1208   1.360   5.402   3.338  0.5994 -2.2918 -1.8247
    9MOL0     H 1209   1.418   5.418   3.187  0.5792  1.3523 -0.0918
    9MOL0     H 1210   1.336   5.657   3.155  1.5655  3.2114  1.3590
    9MOL0     H 1211   1.451   5.628   3.288 -0.4374  1.5079  0.8351
    9MOL0     H 1212   1.153   5.672   3.309 -0.2697  0.0960 -0.0745
    9MOL0     H 1213   1.278   5.793   3.331  0.7338  0.0477 -1.4324
    9MOL0     H 1214   1.225   5.533   3.496 -3.3728  1.0750 -2.6379
    9MOL0     H 1215   1.369   5.635   3.508 -0.2178 -0.6200  1.4088
    9MOL0     H 1216   1.093   5.761   3.558  0.8137  2.0607  1.1122
    9MOL0     H 1217   1.241   5.829   3.590 -1.9737  1.5443 -3.3355
    9MOL0     H 1218   1.166   5.564   3.732  3.9377 -1.4087  2.1313
    9MOL0     H 1219   1.129   5.731   3.793 -0.2025  0.2341  0.1738
    9MOL0     H 1220   1.371   5.778   3.802 -0.3311  0.5236  1.7224
    9MOL0     H 1221   1.415   5.622   3.731 -0.2221  0.4790 -1.2184
    9MOL0     H 1222   1.184   5.174   3.358 -1.4370  0.2726 -0.9998
    9MOL0     H 1223   1.315   4.985   3.415  3.2404 -0.9496 -0.6513
    9MOL0     H 1224   1.636   4.695   3.244 -1.3906  1.0901  2.0397
    9MOL0     H 1225   1.761   4.513   3.213 -0.2155  0.2529  0.5828
    9MOL0     H 1226   1.303   3.028   4.625 -0.2432 -2.1280  1.8176
    9MOL0     H 1227   1.233   3.044   4.860 -0.8583  2.0354  3.2058
    9MOL0     H 1228   1.574   2.918   5.022 -0.4414  0.9991  0.3028
    9MOL0     H 1229   1.580   2.670   4.979  1.1344 -0.3906  1.3665
    9MOL0     H 1230   1.433   2.328   5.025  0.7690 -0.1554  0.3610
    9MOL0     H 1231   1.466   2.439   5.160 -1.0711  4.2579 -0.9597
    9MOL0     H 1232   1.182   2.369   5.077  0.0282 -2.2695 -0.0448
    9MOL0     H 1233   1.235   2.451   5.225 -0.0450 -0.5165 -0.0327
    9MOL0     H 1234   1.170   2.189   5.217 -1.3138  3.0385  1.5617
    9MOL0     H 1235   1.340   2.165   5.168  0.5370 -1.4337  1.8207
    9MOL0     H 1236   1.236   2.295   5.428 -0.2670 -1.3474  1.7695
    9MOL0     H 1237   1.410   2.292   5.372  0.9088 -2.9642 -0.7749
    9MOL0     H 1238   1.342   1.883   5.470  0.2000  0.4408  1.5427
    9MOL0     H 1239   1.165   2.649   5.050  1.2866 -0.5673 -3.2905
    9MOL0     H 1240   1.094   2.986   5.070  1.9971 -0.1445 -1.0999
    9MOL0     H 1241   1.038   2.817   5.118 -1.0382  0.5632  1.6884
    9MOL0     H 1242   1.101   2.923   5.234  1.8183 -1.1300  0.1318
   10MOL0     O 1243   3.794   7.827   5.179 -0.3270  0.0111  0.4710
   10MOL0     C 1244   3.737   7.753   5.102 -0.3516  0.3474  0.3681
   10MOL0     O 1245   3.776   7.734   4.966  0.6212 -0.1028 -0.1856
   10MOL0     C 1246   3.893   7.789   4.927  0.4103 -0.3456  0.5351
   10MOL0     C 1247   4.005   7.725   4.868 -0.5024 -0.7816 -0.8469
   10MOL0     C 1248   4.116   7.803   4.816 -0.4209  0.0481 -0.2496
   10MOL0     C 1249   4.112   7.944   4.813 -0.1229 -0.4565  0.1352
   10MOL0     O 1250   4.204   8.038   4.766 -0.4021 -0.4817 -0.1886
   10MOL0     C 1251   4.305   7.979   4.677 -0.3680 -0.9109 -0.3652
   10MOL0     C 1252   4.413   8.087   4.635  1.0930 -1.1147 -0.5990
   10MOL0     C 1253   4.502   8.004   4.547 -0.7156 -0.0534 -0.4227
   10MOL0     C 1254   4.614   8.090   4.494 -0.3635  0.2503  0.1358
   10MOL0     C 1255   4.702   8.012   4.394  0.1158  0.1586  0.9420
   10MOL0     C 1256   4.797   7.904   4.449  0.3147 -0.0491 -0.2514
   10MOL0     C 1257   4.867   7.820   4.347  0.0601 -0.4960  0.9494
   10MOL0     C 1258   4.776   7.731   4.266 -0.2719 -0.1615 -0.3048
   10MOL0     N 1259   4.839   7.600   4.234 -0.5586  0.1635  0.6036
   10MOL0     C 1260   4.838   7.492   4.312 -0.0047  0.2667  0.3553
   10MOL0     C 1261   4.902   7.387   4.266 -0.6818 -0.5033  0.5648
   10MOL0     C 1262   4.906   7.254   4.328  0.2085 -0.5901 -0.7716
   10MOL0     C 1263   4.788   7.155   4.310 -0.5512 -0.3270 -0.0697
   10MOL0     C 1264   4.780   7.112   4.169 -0.6946  0.8533 -0.3432
   10MOL0     C 1265   4.664   7.025   4.129  0.1773  0.9148  0.0725
   10MOL0     O 1266   4.672   6.902   4.202 -0.0147 -0.1459 -0.6820
   10MOL0     C 1267   4.588   6.802   4.167  0.7076  0.1831 -0.3494
   10MOL0     C 1268   4.643   6.676   4.141  0.1909 -0.3757 -0.6107
   10MOL0     C 1269   4.571   6.558   4.113 -0.4830 -0.9048 -0.1089
   10MOL0     C 1270   4.645   6.429   4.067  1.3873  0.5765 -0.5741
   10MOL0     C 1271   4.430   6.570   4.098 -0.0490 -0.2663 -0.1688
   10MOL0     C 1272   4.337   6.456   4.084 -0.9840  0.3426 -0.3461
   10MOL0     O 1273   4.208   6.486   4.056  0.4008 -0.7838 -0.6057
   10MOL0     C 1274   4.108   6.412   4.105  0.3196  0.0537 -0.0841
   10MOL0     C 1275   4.098   6.357   4.233 -0.5849 -0.5016 -0.6681
   10MOL0     C 1276   3.990   6.282   4.268  0.6831  0.6420 -0.5762
   10MOL0     C 1277   3.889   6.260   4.181  0.9633  0.0865  0.4138
   10MOL0     O 1278   3.778   6.187   4.214  0.0423 -0.1060  0.0557
   10MOL0     C 1279   3.735   6.209   4.352 -0.4235 -0.4537  0.8747
   10MOL0     C 1280   3.600   6.129   4.376 -0.6753 -0.6125  0.3720
   10MOL0     C 1281   3.537   6.117   4.518  1.6741 -0.7366 -0.0396
   10MOL0     C 1282   3.463   5.980   4.534 -1.2359  0.0821 -0.0465
   10MOL0     C 1283   3.398   5.948   4.673  0.2401  0.3549  0.8751
   10MOL0     C 1284   3.283   6.048   4.693 -0.4447 -1.1139 -0.2280
   10MOL0     C 1285   3.205   6.040   4.821 -0.1193 -0.2168  0.6445
   10MOL0     C 1286   3.139   5.907   4.865  0.5533 -0.8572  0.2513
   10MOL0    Cl 1287   3.034   5.934   5.011 -0.3370  0.5035 -0.5384
   10MOL0     C 1288   3.894   6.319   4.058 -0.4531  0.2123  0.3749
   10MOL0     C 1289   4.002   6.401   4.019 -0.1345  0.1816  0.2318
   10MOL0     O 1290   4.373   6.340   4.100  0.3638  0.5572  0.8797
   10MOL0     C 1291   4.367   6.695   4.116 -0.3220  0.4601  0.1340
   10MOL0     C 1292   4.447   6.812   4.147  1.0081  0.4610 -0.7625
   10MOL0     N 1293   4.954   7.434   4.144 -0.4323  0.1704  0.9808
   10MOL0     N 1294   4.907   7.561   4.119  0.0649  0.4510  0.5363
   10MOL0     C 1295   3.993   7.999   4.862 -0.2558 -0.0869 -0.2088
   10MOL0     C 1296   3.887   7.927   4.919 -0.2924  0.1111  0.7314
   10MOL0     C 1297   3.638   7.655   5.152  0.4499  0.8926  0.4483
   10MOL0     C 1298   3.570   7.576   5.057 -0.3501 -0.3098  0.0150
   10MOL0     C 1299   3.476   7.479   5.095  1.1443  0.8419 -0.5723
   10MOL0     C 1300   3.443   7.460   5.232  0.1144  0.2005 -0.9344
   10MOL0     O 1301   3.347   7.371   5.272  0.4396 -0.1784 -0.2096
   10MOL0     C 1302   3.247   7.322   5.190  0.0761 -0.6285 -0.0405
   10MOL0     C 1303   3.140   7.254   5.278 -0.3807  0.1335 -0.1814
   10MOL0     C 1304   3.095   7.333   5.395 -0.3659 -0.5540 -0.0546
   10MOL0     C 1305   3.042   7.233   5.503  0.2379 -0.1511  0.4029
   10MOL0     C 1306   3.026   7.311   5.631  0.2842  0.0962 -0.0235
   10MOL0     C 1307   3.019   7.383   5.730 -0.1336 -1.3306 -0.2189
   10MOL0     C 1308   3.509   7.538   5.329 -0.1417 -0.0730 -0.3246
   10MOL0     C 1309   3.600   7.644   5.289 -0.6074 -0.2800 -0.6966
   10MOL0     C 1310   3.640   7.744   5.389  0.7079 -0.4223 -0.0051
   10MOL0     H 1311   4.007   7.618   4.852 -0.9088 -0.7876 -0.8652
   10MOL0     H 1312   4.200   7.739   4.790 -0.6578  0.4971 -2.2619
   10MOL0     H 1313   4.257   7.928   4.593  0.7115 -2.7314  0.0558
   10MOL0     H 1314   4.360   7.906   4.738  0.9734  1.1623  1.0461
   10MOL0     H 1315   4.374   8.162   4.566  1.3731  1.4686  1.8405
   10MOL0     H 1316   4.457   8.138   4.722  0.4651  0.9194 -1.3997
   10MOL0     H 1317   4.535   7.912   4.597 -2.2000 -0.9777 -1.0920
   10MOL0     H 1318   4.437   7.966   4.467 -2.2910  0.8661  0.3648
   10MOL0     H 1319   4.570   8.175   4.440  1.7587  1.4559  0.2004
   10MOL0     H 1320   4.672   8.141   4.572  0.1326  2.7114 -1.7174
   10MOL0     H 1321   4.774   8.080   4.347 -1.2531  1.1503  0.2164
   10MOL0     H 1322   4.642   7.954   4.323 -0.1786  1.7406 -0.1606
   10MOL0     H 1323   4.874   7.954   4.509 -0.2872  0.3801  0.1656
   10MOL0     H 1324   4.736   7.831   4.504  2.0144 -1.3799 -0.0401
   10MOL0     H 1325   4.950   7.768   4.395  0.4476  2.3166  3.5685
   10MOL0     H 1326   4.918   7.883   4.274 -1.5114 -2.9265 -2.5716
   10MOL0     H 1327   4.677   7.720   4.310 -1.6394  2.3149 -2.4874
   10MOL0     H 1328   4.744   7.779   4.173 -3.1459  1.7198  1.5098
   10MOL0     H 1329   4.781   7.484   4.405  1.0343 -2.0573  0.8467
   10MOL0     H 1330   4.935   7.264   4.432  1.9030  0.9564 -1.3350
   10MOL0     H 1331   4.994   7.210   4.281  0.4686 -0.8745 -0.0257
   10MOL0     H 1332   4.802   7.070   4.377  0.2982  0.7427  1.1523
   10MOL0     H 1333   4.697   7.202   4.348  1.2326  1.3413  2.4941
   10MOL0     H 1334   4.765   7.201   4.107  0.3807  0.6182 -0.9723
   10MOL0     H 1335   4.877   7.070   4.139 -0.6872  2.1634 -2.4353
   10MOL0     H 1336   4.566   7.067   4.154 -0.5428 -1.3261  1.4159
   10MOL0     H 1337   4.666   6.997   4.023  2.4667  1.6088 -0.1173
   10MOL0     H 1338   4.749   6.675   4.165 -0.3440 -1.1770  2.0555
   10MOL0     H 1339   4.624   6.423   3.960 -1.3473 -2.6094 -0.0018
   10MOL0     H 1340   4.605   6.342   4.120  2.0252  0.8266  0.3551
   10MOL0     H 1341   4.751   6.440   4.091  1.0514 -0.2816  1.5447
   10MOL0     H 1342   4.176   6.371   4.308 -0.0238 -2.5482 -0.8339
   10MOL0     H 1343   3.993   6.234   4.366 -1.8690  1.6066  0.0615
   10MOL0     H 1344   3.811   6.159   4.412  2.4630 -1.3681 -3.1438
   10MOL0     H 1345   3.732   6.316   4.375 -0.5008  0.0270 -1.1754
   10MOL0     H 1346   3.528   6.199   4.332 -2.3511 -0.9126  2.4416
   10MOL0     H 1347   3.591   6.035   4.321 -3.4532 -1.6650  2.3487
   10MOL0     H 1348   3.463   6.195   4.534  2.0117 -0.4256  0.0232
   10MOL0     H 1349   3.607   6.135   4.600 -0.6534  0.9939  1.7096
   10MOL0     H 1350   3.539   5.902   4.518  1.3674  2.4059  0.2893
   10MOL0     H 1351   3.388   5.982   4.455  1.2632  2.7531 -2.6174
   10MOL0     H 1352   3.360   5.846   4.676 -1.5466  0.9812  0.5074
   10MOL0     H 1353   3.476   5.967   4.748  0.9311 -0.3449  0.3489
   10MOL0     H 1354   3.213   6.053   4.609  1.8797  0.5184 -2.1850
   10MOL0     H 1355   3.331   6.146   4.702 -1.4297 -0.7348  1.4614
   10MOL0     H 1356   3.137   6.123   4.838 -2.4140 -2.2068  1.7447
   10MOL0     H 1357   3.284   6.061   4.893  0.1855 -2.4608  1.0524
   10MOL0     H 1358   3.217   5.831   4.877  0.4260 -1.0287  0.0200
   10MOL0     H 1359   3.073   5.885   4.780  0.1613 -0.6818  0.5053
   10MOL0     H 1360   3.810   6.303   3.992  0.3056 -0.0865 -0.5381
   10MOL0     H 1361   4.006   6.441   3.918 -1.9142 -0.0547  0.0302
   10MOL0     H 1362   4.260   6.708   4.101 -0.4737  0.4306  1.1550
   10MOL0     H 1363   4.382   6.898   4.155 -0.2010 -0.4972  0.4325
   10MOL0     H 1364   3.968   8.104   4.855 -0.8912  0.0719  2.9317
   10MOL0     H 1365   3.792   7.963   4.958 -1.1001 -0.6957 -0.4523
   10MOL0     H 1366   3.608   7.588   4.956  1.1045  0.0092  0.5693
   10MOL0     H 1367   3.429   7.413   5.023 -0.3973 -1.9564  2.6854
   10MOL0     H 1368   3.200   7.408   5.142  1.7886  0.7796  0.7291
   10MOL0     H 1369   3.275   7.255   5.108 -3.2852  1.8900 -3.6151
   10MOL0     H 1370   3.196   7.170   5.320 -0.6361 -1.5721 -2.9431
   10MOL0     H 1371   3.060   7.220   5.212  0.5661 -1.3127 -0.6384
   10MOL0     H 1372   3.169   7.402   5.437 -1.0958 -0.4209  1.0323
   10MOL0     H 1373   3.008   7.391   5.361 -0.6227  0.0425  1.5680
   10MOL0     H 1374   3.112   7.151   5.518  0.8093  0.4462  1.0377
   10MOL0     H 1375   2.947   7.192   5.466  0.7056 -0.0095 -1.0076
   10MOL0     H 1376   3.021   7.460   5.805 -0.6000 -0.9532 -0.5868
   10MOL0     H 1377   3.475   7.545   5.432  4.6120  0.3410  1.4501
   10MOL0     H 1378   3.748   7.752   5.406  0.6309  1.7866 -0.2388
   10MOL0     H 1379   3.608   7.844   5.356 -0.1861 -0.3769  0.9447
   10MOL0     H 1380   3.590   7.720   5.483 -3.3111  1.8181 -1.3410
   11MOL0     O 1381   2.911  11.449   1.720 -0.2060 -0.4021 -0.4727
   11MOL0     C 1382   2.847  11.467   1.820 -0.3537 -0.0136 -0.0674
   11MOL0     O 1383   2.894  11.493   1.943  0.1514  0.5161  0.5484
   11MOL0     C 1384   3.020  11.532   1.979 -0.1805  0.5888 -0.4113
   11MOL0     C 1385   3.118  11.585   1.895 -0.6503  0.8003  0.2593
   11MOL0     C 1386   3.251  11.608   1.928  0.9678 -0.9036 -0.2838
   11MOL0     C 1387   3.292  11.586   2.065  0.3491 -0.2954 -0.2302
   11MOL0     O 1388   3.422  11.611   2.097  0.8255  0.4828  0.2970
   11MOL0     C 1389   3.439  11.728   2.168  0.3990 -0.4962 -0.1400
   11MOL0     C 1390   3.489  11.855   2.095 -0.4566 -0.2738 -0.2946
   11MOL0     C 1391   3.621  11.913   2.155 -0.0799  0.9199 -1.1165
   11MOL0     C 1392   3.743  11.816   2.139 -0.0174 -0.7006 -0.1174
   11MOL0     C 1393   3.821  11.824   2.008 -0.3271  0.5141  0.2660
   11MOL0     C 1394   3.974  11.827   2.018  0.4860  0.0401  0.2946
   11MOL0     C 1395   4.049  11.822   1.889  0.2291  0.5513  0.0905
   11MOL0     C 1396   4.205  11.841   1.905 -0.7480  0.0298  0.3224
   11MOL0     N 1397   4.236  11.968   1.974  0.6990  0.0818 -0.5117
   11MOL0     C 1398   4.272  11.980   2.103 -1.1099  0.3714 -0.0487
   11MOL0     C 1399   4.280  12.108   2.125 -0.6770 -0.9528  0.1629
   11MOL0     C 1400   4.323  12.180   2.246  0.5003  0.1488 -0.0369
   11MOL0     C 1401   4.413  12.296   2.214 -0.3146 -1.0535 -0.0506
   11MOL0     C 1402   4.481  12.355   2.337 -0.5364  0.0430 -0.8211
   11MOL0     C 1403   4.538  12.494   2.310 -0.1971  0.5072 -0.4941
   11MOL0     O 1404   4.563  12.547   2.441 -0.2139  0.0734  0.3273
   11MOL0     C 1405   4.688  12.556   2.491 -0.1089 -0.1941 -0.3044
   11MOL0     C 1406   4.808  12.484   2.457 -0.5643  0.2532  0.1019
   11MOL0     C 1407   4.930  12.510   2.521 -0.1954 -0.3854  0.3211
   11MOL0     C 1408   5.052  12.419   2.481 -0.1148 -0.1238  0.0898
   11MOL0     C 1409   4.933  12.613   2.619 -0.1369 -1.0729 -0.0243
   11MOL0     C 1410   5.055  12.665   2.692 -0.1844 -0.0843 -0.6071
   11MOL0     O 1411   5.057  12.795   2.722 -0.0049  0.2256  0.5492
   11MOL0     C 1412   5.171  12.867   2.762 -0.2721  0.6004  0.0607
   11MOL0     C 1413   5.150  12.986   2.828  0.7429 -0.4112  0.2122
   11MOL0     C 1414   5.255  13.072   2.864  0.3969 -0.0571 -0.3092
   11MOL0     C 1415   5.385  13.034   2.851 -0.0392 -0.3298  0.4206
   11MOL0     O 1416   5.472  13.134   2.880  0.1631  0.5419  0.1781
   11MOL0     C 1417   5.595  13.119   2.822 -0.9485  0.9329 -0.3871
   11MOL0     C 1418   5.675  13.248   2.846  0.9122  0.1533  0.0098
   11MOL0     C 1419   5.603  13.370   2.775  0.4336  0.0875 -0.1011
   11MOL0     C 1420   5.603  13.354   2.624  1.0554 -0.0034  0.4303
   11MOL0     C 1421   5.588  13.481   2.536 -0.1984 -0.5460 -1.3080
   11MOL0     C 1422   5.435  13.525   2.537 -0.4146  0.7986 -0.9474
   11MOL0     C 1423   5.414  13.639   2.436 -0.3045 -0.4697  0.7992
   11MOL0     C 1424   5.277  13.625   2.363 -0.8174 -0.5233 -0.0058
   11MOL0    Cl 1425   5.154  13.621   2.490  0.0363  0.1665  0.3981
   11MOL0     C 1426   5.405  12.908   2.789 -0.0570 -0.5722 -0.9844
   11MOL0     C 1427   5.305  12.832   2.742 -0.2519 -0.0301 -1.4127
   11MOL0     O 1428   5.144  12.584   2.714 -0.4029 -0.2704 -0.5807
   11MOL0     C 1429   4.813  12.680   2.650 -0.0920 -0.0012  0.7024
   11MOL0     C 1430   4.699  12.647   2.590  0.5904 -0.5647 -0.2770
   11MOL0     N 1431   4.234  12.175   2.013 -0.6416 -0.1678 -1.0892
   11MOL0     N 1432   4.212  12.091   1.925  0.8181  0.5302  0.8098
   11MOL0     C 1433   3.197  11.537   2.156  0.4085  0.1489 -0.3899
   11MOL0     C 1434   3.063  11.509   2.109 -0.3827  0.5423  0.1493
   11MOL0     C 1435   2.699  11.477   1.798  0.2745  0.1603  0.4724
   11MOL0     C 1436   2.653  11.441   1.667 -0.7344 -0.2381  0.1165
   11MOL0     C 1437   2.515  11.451   1.629 -0.6248 -0.6945 -0.3715
   11MOL0     C 1438   2.428  11.491   1.725 -0.4008 -1.4513  0.1822
   11MOL0     O 1439   2.293  11.497   1.687 -0.2366 -0.4753  0.3043
   11MOL0     C 1440   2.245  11.560   1.563 -0.0955  0.3803 -0.3280
   11MOL0     C 1441   2.279  11.701   1.557  0.3300 -0.2865 -0.3810
   11MOL0     C 1442   2.188  11.781   1.463  0.0406 -0.2968 -0.2454
   11MOL0     C 1443   2.205  11.934   1.478 -0.2570 -0.3152  0.1418
   11MOL0     C 1444   2.135  12.007   1.365  0.4231  0.2367  0.7031
   11MOL0     C 1445   2.082  12.052   1.263  0.0219  0.0316  0.0737
   11MOL0     C 1446   2.470  11.528   1.851 -0.1414 -0.3747  0.4939
   11MOL0     C 1447   2.608  11.524   1.893  0.1960  0.6038  0.2798
   11MOL0     C 1448   2.635  11.570   2.030  0.1675 -0.0865 -0.1428
   11MOL0     H 1449   3.087  11.618   1.797 -0.7352 -0.7998 -0.2830
   11MOL0     H 1450   3.324  11.644   1.856 -0.6319  0.7657 -1.1326
   11MOL0     H 1451   3.504  11.698   2.250 -3.4473 -0.4849  3.2685
   11MOL0     H 1452   3.350  11.754   2.226  2.0684 -2.6066  3.6949
   11MOL0     H 1453   3.511  11.842   1.989  0.1540 -1.3037 -0.0652
   11MOL0     H 1454   3.430  11.947   2.100  4.2748  3.0420  1.7577
   11MOL0     H 1455   3.646  12.014   2.121  0.3539  1.6792  1.2400
   11MOL0     H 1456   3.596  11.922   2.261  0.6514  0.1955 -0.8710
   11MOL0     H 1457   3.807  11.852   2.220  0.1543 -2.3775  0.5222
   11MOL0     H 1458   3.722  11.711   2.162  0.6697 -0.9021 -0.4106
   11MOL0     H 1459   3.805  11.924   1.967  2.3361  0.9387  0.0817
   11MOL0     H 1460   3.779  11.761   1.930 -0.5283  1.9067 -0.8034
   11MOL0     H 1461   4.003  11.920   2.068  1.8931 -0.4147  0.3828
   11MOL0     H 1462   4.001  11.744   2.084  0.7221  0.4630  0.7356
   11MOL0     H 1463   4.005  11.910   1.840 -0.5147 -1.3279 -2.8884
   11MOL0     H 1464   4.028  11.730   1.834  3.3182 -0.7499  0.8978
   11MOL0     H 1465   4.259  11.765   1.962  2.6971  0.6570 -1.8090
   11MOL0     H 1466   4.241  11.850   1.803  0.2257 -0.9425  0.5619
   11MOL0     H 1467   4.306  11.906   2.175  3.8842 -0.5219 -2.8917
   11MOL0     H 1468   4.356  12.096   2.308 -2.6679 -0.4189  1.0712
   11MOL0     H 1469   4.241  12.227   2.300  2.9461  1.1539  3.1436
   11MOL0     H 1470   4.487  12.264   2.141  0.7137 -1.3203  1.0804
   11MOL0     H 1471   4.349  12.372   2.168 -0.0031 -0.5923  0.2636
   11MOL0     H 1472   4.413  12.359   2.423  2.3645  2.4092  1.6335
   11MOL0     H 1473   4.561  12.283   2.358 -1.5775 -0.5572  1.4385
   11MOL0     H 1474   4.625  12.484   2.244  1.9235  2.0774  1.8822
   11MOL0     H 1475   4.469  12.561   2.259 -1.1495  0.3930  0.6064
   11MOL0     H 1476   4.796  12.410   2.379  1.4668 -2.5575  2.2396
   11MOL0     H 1477   5.027  12.343   2.406  0.5344 -1.7901  1.4767
   11MOL0     H 1478   5.097  12.365   2.565 -2.1799 -2.4461 -0.1643
   11MOL0     H 1479   5.131  12.471   2.428  1.3567 -1.4690  0.8786
   11MOL0     H 1480   5.051  13.026   2.845  1.1732  0.7204  0.1653
   11MOL0     H 1481   5.224  13.167   2.907  1.3212 -0.4422  1.2768
   11MOL0     H 1482   5.646  13.038   2.875 -1.1504  1.6185  0.8889
   11MOL0     H 1483   5.593  13.095   2.715  3.1406 -2.4393  0.0089
   11MOL0     H 1484   5.672  13.271   2.953 -0.5881 -0.0722  0.0298
   11MOL0     H 1485   5.775  13.236   2.804 -0.1243 -1.1691 -2.2217
   11MOL0     H 1486   5.645  13.467   2.802  0.4102  0.2590 -0.6583
   11MOL0     H 1487   5.497  13.374   2.801 -0.3147  2.1393 -2.9080
   11MOL0     H 1488   5.519  13.289   2.600  0.3413  1.5177 -1.5182
   11MOL0     H 1489   5.691  13.293   2.602  0.5605 -0.1181 -1.3474
   11MOL0     H 1490   5.662  13.555   2.564 -1.0654 -1.3714  4.5057
   11MOL0     H 1491   5.617  13.448   2.436 -1.7921 -1.3771 -1.5430
   11MOL0     H 1492   5.420  13.551   2.642 -1.7272 -2.5527 -0.1978
   11MOL0     H 1493   5.378  13.436   2.510  2.0176 -1.0905 -0.1783
   11MOL0     H 1494   5.500  13.646   2.369 -1.2164  0.8946 -0.2862
   11MOL0     H 1495   5.405  13.736   2.487 -0.3300  0.0088 -0.1096
   11MOL0     H 1496   5.260  13.532   2.308  0.5054 -1.4311  1.0477
   11MOL0     H 1497   5.258  13.715   2.305  0.2298 -0.7811 -0.7817
   11MOL0     H 1498   5.509  12.879   2.774  0.0746 -0.0271 -1.1445
   11MOL0     H 1499   5.321  12.737   2.690 -3.1820 -0.0145 -2.4957
   11MOL0     H 1500   4.805  12.746   2.736  0.8294  3.2874 -1.5758
   11MOL0     H 1501   4.613  12.697   2.632  2.7079  2.0356  1.2785
   11MOL0     H 1502   3.220  11.525   2.261 -2.2500  2.6508  0.6076
   11MOL0     H 1503   2.988  11.462   2.172  0.7794 -2.1804 -0.3176
   11MOL0     H 1504   2.726  11.410   1.592  0.7808  0.0137  1.4394
   11MOL0     H 1505   2.481  11.435   1.527 -1.5398 -0.9767 -0.0378
   11MOL0     H 1506   2.275  11.512   1.470 -0.1275 -2.1422  0.8835
   11MOL0     H 1507   2.137  11.546   1.560 -0.1175  0.7291 -2.3383
   11MOL0     H 1508   2.385  11.711   1.531  1.3141 -1.7505  2.5652
   11MOL0     H 1509   2.265  11.733   1.661  0.5998 -1.3589 -0.0091
   11MOL0     H 1510   2.208  11.742   1.363  1.0697 -3.2390  0.9998
   11MOL0     H 1511   2.085  11.762   1.495 -0.1922  1.1032 -0.0934
   11MOL0     H 1512   2.312  11.954   1.468  0.6124 -2.8647  2.8910
   11MOL0     H 1513   2.168  11.969   1.575  0.7361  1.7017 -0.1524
   11MOL0     H 1514   2.032  12.100   1.182  0.9600 -2.5134 -2.1617
   11MOL0     H 1515   2.391  11.570   1.913 -0.6959 -0.0818 -0.3993
   11MOL0     H 1516   2.550  11.571   2.098  1.6959 -1.1958  1.9121
   11MOL0     H 1517   2.689  11.489   2.079 -0.6148 -0.8213 -0.4652
   11MOL0     H 1518   2.680  11.669   2.023 -1.9353  0.8379 -1.3715
   12MOL0     O 1519   1.859   8.984   8.283 -0.3197  0.1562  0.4990
   12MOL0     C 1520   1.910   9.093   8.313  0.8605 -0.5635  1.5000
   12MOL0     O 1521   1.873   9.212   8.267 -0.7180  0.0964  0.6243
   12MOL0     C 1522   1.762   9.224   8.191  0.1761 -1.1177 -0.5609
   12MOL0     C 1523   1.638   9.204   8.239 -0.1498  0.2962 -0.7140
   12MOL0     C 1524   1.530   9.219   8.150 -0.7305  0.6102 -0.5718
   12MOL0     C 1525   1.543   9.262   8.019 -0.0635 -0.0560 -0.2360
   12MOL0     O 1526   1.439   9.299   7.937 -0.0035  0.2633 -0.2018
   12MOL0     C 1527   1.317   9.221   7.931  0.1733 -1.0623 -0.1663
   12MOL0     C 1528   1.234   9.247   7.802  1.0494  0.2455 -0.2250
   12MOL0     C 1529   1.115   9.157   7.793 -0.5810  0.6832 -0.3368
   12MOL0     C 1530   1.026   9.179   7.665 -0.3973  0.0320 -1.1068
   12MOL0     C 1531   0.921   9.069   7.670  0.0596 -0.4533 -0.0826
   12MOL0     C 1532   0.825   9.096   7.558 -0.3553 -0.7295 -0.1846
   12MOL0     C 1533   0.702   8.995   7.556 -0.5398  0.7691 -0.2034
   12MOL0     C 1534   0.597   9.022   7.446  0.3124  0.5349 -0.2633
   12MOL0     N 1535   0.484   8.933   7.465  0.7985  0.5273 -1.0207
   12MOL0     C 1536   0.362   8.958   7.523  0.2126  0.2432  0.1049
   12MOL0     C 1537   0.282   8.850   7.509  0.1630  0.2844  0.2167
   12MOL0     C 1538   0.135   8.855   7.533  0.0043  0.1715  0.4414
   12MOL0     C 1539   0.106   8.748   7.636 -0.2363 -0.6369 -0.1323
   12MOL0     C 1540  -0.045   8.739   7.669 -0.1870 -0.3435  0.1070
   12MOL0     C 1541  -0.104   8.861   7.745  0.0135  0.7132  0.7638
   12MOL0     O 1542  -0.037   8.908   7.866  0.3466  0.2656  0.3856
   12MOL0     C 1543  -0.067   9.043   7.901 -0.1711  0.4851  0.2330
   12MOL0     C 1544  -0.182   9.106   7.877 -0.6464 -1.1249 -0.0259
   12MOL0     C 1545  -0.203   9.239   7.920  0.0852  0.1419 -0.3113
   12MOL0     C 1546  -0.344   9.297   7.882 -1.0574 -0.9793 -0.4994
   12MOL0     C 1547  -0.098   9.306   7.999  0.1662  0.1024 -0.0291
   12MOL0     C 1548  -0.103   9.456   8.009 -0.1773  0.4095 -1.2705
   12MOL0     O 1549  -0.229   9.501   8.033 -0.3243 -0.7433 -0.0329
   12MOL0     C 1550  -0.243   9.584   8.139  0.6011 -0.4352 -0.3999
   12MOL0     C 1551  -0.327   9.537   8.242  1.3600 -0.2088 -0.6430
   12MOL0     C 1552  -0.345   9.612   8.365 -0.3924 -0.2742  0.6521
   12MOL0     C 1553  -0.302   9.742   8.381 -0.2321  0.4726 -0.3516
   12MOL0     O 1554  -0.335   9.820   8.495 -0.8454 -1.0668  0.4621
   12MOL0     C 1555  -0.338   9.961   8.501  0.0479  0.0367  0.1578
   12MOL0     C 1556  -0.402  10.021   8.627 -0.1454 -0.3287 -0.7613
   12MOL0     C 1557  -0.344   9.968   8.757  0.1199 -0.2252 -0.8348
   12MOL0     C 1558  -0.417  10.007   8.893  0.2402 -0.0050  0.1439
   12MOL0     C 1559  -0.374  10.146   8.933 -0.0529 -0.8033 -0.3873
   12MOL0     C 1560  -0.457  10.187   9.055  0.5776 -0.6101  0.3916
   12MOL0     C 1561  -0.390  10.290   9.152  0.2216  0.4268  0.2859
   12MOL0     C 1562  -0.488  10.338   9.262 -0.3521 -0.0896 -1.0149
   12MOL0    Cl 1563  -0.618  10.452   9.192  0.4843  0.1410  0.1857
   12MOL0     C 1564  -0.241   9.798   8.261  1.3131 -0.0922 -0.4503
   12MOL0     C 1565  -0.213   9.720   8.150 -0.1577 -0.7928 -0.2545
   12MOL0     O 1566  -0.000   9.516   8.011  0.0439 -0.2328 -0.3018
   12MOL0     C 1567   0.024   9.241   8.019 -0.2003  0.2124 -0.2679
   12MOL0     C 1568   0.036   9.108   7.971 -0.9129 -0.0726 -0.5422
   12MOL0     N 1569   0.357   8.762   7.431  0.3463 -0.7555  0.3818
   12MOL0     N 1570   0.472   8.816   7.410 -0.0064  0.7163  0.3851
   12MOL0     C 1571   1.667   9.305   7.977  0.5660  0.6179  0.0628
   12MOL0     C 1572   1.783   9.279   8.058  0.9205 -0.2924  0.0164
   12MOL0     C 1573   2.009   9.093   8.432 -0.4873 -0.3382  0.4172
   12MOL0     C 1574   2.009   9.201   8.520  0.6799  0.1246  0.0312
   12MOL0     C 1575   2.096   9.210   8.627 -0.2451  0.9857 -0.2793
   12MOL0     C 1576   2.191   9.102   8.651 -0.2807 -0.6501 -0.7639
   12MOL0     O 1577   2.287   9.108   8.746 -0.1437 -0.6154 -0.1603
   12MOL0     C 1578   2.306   9.002   8.840  0.0911  0.0444  0.2344
   12MOL0     C 1579   2.457   8.973   8.868  0.0631 -0.5840 -0.0284
   12MOL0     C 1580   2.515   8.890   8.762  0.4904  0.6011  0.5011
   12MOL0     C 1581   2.664   8.846   8.751  0.8870  0.3065  0.2415
   12MOL0     C 1582   2.721   8.816   8.881 -0.6931  0.0615 -0.1824
   12MOL0     C 1583   2.774   8.792   8.994  0.0091  0.6928 -0.3083
   12MOL0     C 1584   2.180   8.995   8.559 -0.2882  0.0772 -0.2710
   12MOL0     C 1585   2.103   8.987   8.450  0.3345  0.0258  0.4435
   12MOL0     C 1586   2.112   8.858   8.366  1.0057  0.4843 -0.1409
   12MOL0     H 1587   1.622   9.167   8.340  0.0036  0.0558 -0.7767
   12MOL0     H 1588   1.427   9.211   8.185 -0.2505  2.1861  1.3991
   12MOL0     H 1589   1.260   9.238   8.023  1.9272 -1.1136  0.9709
   12MOL0     H 1590   1.343   9.115   7.931 -0.2414 -1.2082 -2.0338
   12MOL0     H 1591   1.194   9.349   7.795  2.1595  0.6312 -1.4424
   12MOL0     H 1592   1.291   9.242   7.709 -3.4624 -0.6768 -3.2358
   12MOL0     H 1593   1.161   9.058   7.783  0.5499  1.3523 -2.2878
   12MOL0     H 1594   1.050   9.171   7.880  0.6978 -1.5770  1.1045
   12MOL0     H 1595   0.975   9.273   7.684  1.4567  0.4503  2.8574
   12MOL0     H 1596   1.077   9.179   7.568 -1.5977 -1.6643 -1.7892
   12MOL0     H 1597   0.863   9.083   7.761 -2.7299  1.6932 -2.0296
   12MOL0     H 1598   0.963   8.968   7.664  0.1127 -0.3894 -1.0458
   12MOL0     H 1599   0.783   9.196   7.574 -0.6314 -1.2166  2.4656
   12MOL0     H 1600   0.869   9.087   7.458 -4.3762 -0.6141 -2.1509
   12MOL0     H 1601   0.647   9.008   7.650 -1.3964  0.1572 -0.6050
   12MOL0     H 1602   0.734   8.891   7.567  0.0294  1.1710  2.9411
   12MOL0     H 1603   0.571   9.128   7.443 -1.5124  0.1199 -0.4160
   12MOL0     H 1604   0.649   8.989   7.355 -1.3939 -1.8293 -0.4804
   12MOL0     H 1605   0.331   9.049   7.572  1.7743 -0.6204  2.8822
   12MOL0     H 1606   0.076   8.833   7.443  0.7608  2.4301 -0.7135
   12MOL0     H 1607   0.101   8.954   7.566  3.3580  1.3875  0.7420
   12MOL0     H 1608   0.145   8.652   7.601  1.6756  0.3109 -0.7043
   12MOL0     H 1609   0.170   8.765   7.723  0.8145  1.7094 -1.2932
   12MOL0     H 1610  -0.101   8.724   7.576  1.7781  1.0185 -1.3954
   12MOL0     H 1611  -0.067   8.647   7.725 -2.5297  0.9679  1.4995
   12MOL0     H 1612  -0.103   8.945   7.675 -1.6806  2.2231  2.4341
   12MOL0     H 1613  -0.209   8.837   7.768 -0.4811  1.3678 -0.7213
   12MOL0     H 1614  -0.256   9.064   7.809  1.5800 -1.2745 -2.5125
   12MOL0     H 1615  -0.395   9.311   7.977 -1.1693 -2.4329 -0.3200
   12MOL0     H 1616  -0.398   9.221   7.825 -3.4152  1.1490 -1.2816
   12MOL0     H 1617  -0.335   9.387   7.820  3.2737 -2.9693 -3.2312
   12MOL0     H 1618  -0.360   9.436   8.223 -0.6622 -0.1023  1.8553
   12MOL0     H 1619  -0.419   9.579   8.437 -1.2285 -0.7802 -0.4035
   12MOL0     H 1620  -0.232   9.983   8.511  0.1055  0.1207 -0.6111
   12MOL0     H 1621  -0.368  10.006   8.406  0.0476 -0.3946 -0.0448
   12MOL0     H 1622  -0.390  10.130   8.633 -1.4931 -0.2326  2.1315
   12MOL0     H 1623  -0.508   9.997   8.620 -0.5931  1.5635 -1.2166
   12MOL0     H 1624  -0.236   9.981   8.767  0.2049 -1.2138 -0.3244
   12MOL0     H 1625  -0.348   9.859   8.756 -3.7364 -0.2816  1.3345
   12MOL0     H 1626  -0.399   9.939   8.977 -1.0835  1.2680  1.5480
   12MOL0     H 1627  -0.523   9.996   8.872  0.6977 -0.3857 -2.1770
   12MOL0     H 1628  -0.271  10.162   8.967 -0.3997 -0.2865  0.4558
   12MOL0     H 1629  -0.384  10.220   8.852  4.3942 -0.2849 -0.7535
   12MOL0     H 1630  -0.491  10.104   9.118 -2.0318 -0.6672 -0.9550
   12MOL0     H 1631  -0.540  10.238   9.006  2.7151  2.1549 -0.5894
   12MOL0     H 1632  -0.351  10.375   9.095  3.3008 -1.1502 -0.2105
   12MOL0     H 1633  -0.302  10.243   9.197  1.6588  2.8182  0.1884
   12MOL0     H 1634  -0.441  10.385   9.349 -2.4719  0.4419 -0.0978
   12MOL0     H 1635  -0.518  10.242   9.303 -1.0331  0.4450 -0.2376
   12MOL0     H 1636  -0.215   9.903   8.272 -0.8440  0.5153 -0.6089
   12MOL0     H 1637  -0.169   9.758   8.059 -1.8106  1.9297 -0.0399
   12MOL0     H 1638   0.112   9.275   8.073  0.4686  2.1499 -2.4210
   12MOL0     H 1639   0.120   9.041   7.988 -2.7873 -2.4422 -0.0103
   12MOL0     H 1640   1.666   9.358   7.882 -0.2860 -0.5868 -0.6275
   12MOL0     H 1641   1.885   9.302   8.029  1.1644 -0.6508  0.5891
   12MOL0     H 1642   1.949   9.291   8.510 -0.6359 -0.2074  3.4586
   12MOL0     H 1643   2.093   9.300   8.687  1.8955  1.5430 -0.9164
   12MOL0     H 1644   2.245   9.027   8.926  1.2747 -1.4249  1.5712
   12MOL0     H 1645   2.266   8.907   8.803  2.9198 -1.6176  1.1192
   12MOL0     H 1646   2.458   8.922   8.965  1.5261 -0.2013  0.1879
   12MOL0     H 1647   2.517   9.063   8.887 -1.5123 -0.1594  3.9303
   12MOL0     H 1648   2.453   8.800   8.762  0.1756  0.7854  2.3227
   12MOL0     H 1649   2.487   8.946   8.672  0.4947  0.5931  0.4953
   12MOL0     H 1650   2.716   8.929   8.701  0.8359 -0.4248 -1.0643
   12MOL0     H 1651   2.658   8.762   8.682 -4.7547 -0.4555  1.2116
   12MOL0     H 1652   2.805   8.783   9.096 -0.0882 -2.9449 -0.4861
   12MOL0     H 1653   2.252   8.916   8.573  0.8837  1.1383 -0.0984
   12MOL0     H 1654   2.106   8.873   8.258  1.6542 -2.3116 -0.6317
   12MOL0     H 1655   2.204   8.800   8.382 -0.7853 -1.6078  3.9176
   12MOL0     H 1656   2.029   8.792   8.388  1.5457 -0.1557 -0.0060
   13MOL0     O 1657   1.432   2.589   5.736  0.0682  0.3257  0.7781
   13MOL0     C 1658   1.402   2.649   5.844 -0.0938  0.4559 -0.5159
   13MOL0     O 1659   1.497   2.702   5.932  0.4863 -0.4752  0.2513
   13MOL0     C 1660   1.630   2.691   5.915  0.0991 -0.6656  0.7342
   13MOL0     C 1661   1.692   2.739   5.799  0.3228  0.9559  0.4095
   13MOL0     C 1662   1.828   2.725   5.780 -0.4183 -0.2517  0.1284
   13MOL0     C 1663   1.914   2.686   5.889  0.4683  0.0095 -0.0691
   13MOL0     O 1664   2.045   2.701   5.861 -0.4302  0.5386 -0.3521
   13MOL0     C 1665   2.144   2.644   5.953 -0.5454 -0.4254 -0.0887
   13MOL0     C 1666   2.291   2.650   5.902 -0.5876  1.0209 -0.4301
   13MOL0     C 1667   2.309   2.533   5.804 -0.0141  0.5958 -0.2975
   13MOL0     C 1668   2.456   2.539   5.740  0.4075  0.5672  0.3071
   13MOL0     C 1669   2.494   2.652   5.645  0.0086  0.3280  0.3457
   13MOL0     C 1670   2.588   2.751   5.712 -0.1100  0.2303 -0.0925
   13MOL0     C 1671   2.636   2.878   5.632  0.1321  0.0598  1.0228
   13MOL0     C 1672   2.717   2.826   5.518  0.7461 -0.1550 -0.1795
   13MOL0     N 1673   2.780   2.946   5.464 -1.5309  0.7237  0.5554
   13MOL0     C 1674   2.732   3.002   5.347  0.1829 -0.3708 -0.1425
   13MOL0     C 1675   2.828   3.095   5.324  0.2188 -0.1861  0.4034
   13MOL0     C 1676   2.808   3.173   5.195 -0.4852 -0.2010 -1.0069
   13MOL0     C 1677   2.778   3.320   5.227 -0.8402  0.1919 -1.4690
   13MOL0     C 1678   2.762   3.413   5.102 -0.0640 -0.0179 -0.2275
   13MOL0     C 1679   2.887   3.421   5.005 -0.7778 -0.8523 -0.0723
   13MOL0     O 1680   2.981   3.513   5.057 -0.2560 -0.3613  0.2524
   13MOL0     C 1681   3.105   3.499   5.013  0.3338 -0.7554  0.3982
   13MOL0     C 1682   3.196   3.446   5.107 -0.7842 -0.7198  1.1325
   13MOL0     C 1683   3.328   3.428   5.078 -0.0261 -0.6679  0.7504
   13MOL0     C 1684   3.413   3.359   5.181  0.1814 -0.4947  1.9470
   13MOL0     C 1685   3.378   3.482   4.953  0.8923 -0.5114 -0.3118
   13MOL0     C 1686   3.523   3.493   4.921  0.7751 -1.0230  0.2508
   13MOL0     O 1687   3.543   3.514   4.783  0.1090  0.1710 -0.8988
   13MOL0     C 1688   3.675   3.535   4.762  1.0373 -0.1444  0.9801
   13MOL0     C 1689   3.729   3.435   4.680 -1.1197 -0.7256 -0.1136
   13MOL0     C 1690   3.860   3.458   4.635  0.1909 -0.4945  0.0023
   13MOL0     C 1691   3.942   3.568   4.675  0.4951 -0.1384  0.1424
   13MOL0     O 1692   4.062   3.570   4.615 -0.3854  0.0261 -0.5480
   13MOL0     C 1693   4.154   3.677   4.645  0.2380 -0.4891  0.6321
   13MOL0     C 1694   4.274   3.680   4.551 -1.1960 -0.9975  0.6355
   13MOL0     C 1695   4.370   3.573   4.589 -0.8734 -0.4761 -0.0445
   13MOL0     C 1696   4.501   3.560   4.500 -0.2439 -0.2869 -0.4449
   13MOL0     C 1697   4.472   3.475   4.379 -0.0338 -0.4597  0.1631
   13MOL0     C 1698   4.596   3.401   4.334  0.1477 -0.1920 -0.6272
   13MOL0     C 1699   4.553   3.297   4.235 -0.6055  0.2087  0.3410
   13MOL0     C 1700   4.675   3.225   4.184  0.4369  0.2505 -1.0946
   13MOL0    Cl 1701   4.669   3.136   4.038  0.2321 -0.0923  0.1103
   13MOL0     C 1702   3.882   3.664   4.756  0.0829 -0.0067 -0.3654
   13MOL0     C 1703   3.746   3.655   4.790  0.0666 -0.0455  1.3269
   13MOL0     O 1704   3.607   3.513   5.011 -0.4104 -0.0886  0.6919
   13MOL0     C 1705   3.278   3.538   4.862 -0.2097 -0.5736 -0.2187
   13MOL0     C 1706   3.145   3.554   4.895  0.5809  0.8855 -0.3319
   13MOL0     N 1707   2.941   3.067   5.405 -0.1560  0.7686  0.1123
   13MOL0     N 1708   2.906   2.980   5.495 -0.1308 -0.2327  0.2072
   13MOL0     C 1709   1.852   2.643   6.007  0.1460 -0.7342 -0.1804
   13MOL0     C 1710   1.713   2.638   6.016 -0.8416  0.6060  0.1430
   13MOL0     C 1711   1.261   2.660   5.871  0.2763  0.2782  0.7601
   13MOL0     C 1712   1.232   2.761   5.973 -0.0341  0.0410  0.4107
   13MOL0     C 1713   1.101   2.784   6.007 -0.0417  0.3542  0.2202
   13MOL0     C 1714   0.996   2.710   5.956 -0.8881 -0.2353 -0.2954
   13MOL0     O 1715   0.876   2.745   6.005  0.2394 -0.1698  0.0339
   13MOL0     C 1716   0.754   2.668   5.977  0.0629 -0.0362  0.5265
   13MOL0     C 1717   0.644   2.694   6.065 -0.0086  0.4063 -0.0034
   13MOL0     C 1718   0.618   2.842   6.101 -0.4298  0.0396  0.1043
   13MOL0     C 1719   0.498   2.909   6.038 -0.7710 -0.0192  0.6079
   13MOL0     C 1720   0.380   2.822   6.062  0.3740 -0.2118 -0.1407
   13MOL0     C 1721   0.297   2.743   6.092  0.4239 -0.0738 -0.0780
   13MOL0     C 1722   1.017   2.611   5.854 -0.5307 -0.9390  0.1097
   13MOL0     C 1723   1.159   2.583   5.807 -0.1250  0.1156 -0.3949
   13MOL0     C 1724   1.190   2.475   5.702  0.2704 -0.9166  0.3374
   13MOL0     H 1725   1.630   2.764   5.714 -2.1836 -1.9831  1.1964
   13MOL0     H 1726   1.874   2.752   5.686 -0.0785 -0.3090  0.2756
   13MOL0     H 1727   2.116   2.544   5.986 -1.7457  0.2236  0.9747
   13MOL0     H 1728   2.147   2.713   6.038  0.0097 -1.4953  0.7897
   13MOL0     H 1729   2.326   2.747   5.865  2.3086  0.7902  1.3708
   13MOL0     H 1730   2.364   2.627   5.980 -0.6570 -0.5343 -0.7972
   13MOL0     H 1731   2.272   2.441   5.849  1.6902  0.1954  0.3418
   13MOL0     H 1732   2.245   2.545   5.716 -0.7100  0.8410  0.2324
   13MOL0     H 1733   2.534   2.538   5.816  2.5266  0.5751 -1.7265
   13MOL0     H 1734   2.467   2.445   5.686 -0.9571 -0.7290  2.1646
   13MOL0     H 1735   2.410   2.703   5.598  0.2485 -1.1590 -1.8547
   13MOL0     H 1736   2.544   2.610   5.557  0.9070  4.8339 -1.5939
   13MOL0     H 1737   2.545   2.789   5.805  0.0085  1.9596 -0.6969
   13MOL0     H 1738   2.675   2.691   5.741 -0.9968 -0.8800  0.3408
   13MOL0     H 1739   2.703   2.941   5.691 -0.2126 -0.1961  1.6996
   13MOL0     H 1740   2.549   2.938   5.602  1.8773  1.5398 -1.5021
   13MOL0     H 1741   2.787   2.751   5.557 -0.9735 -0.9831  1.4601
   13MOL0     H 1742   2.656   2.775   5.443 -0.8274  2.0692 -0.5081
   13MOL0     H 1743   2.633   2.991   5.305  0.6720  0.8702 -1.7509
   13MOL0     H 1744   2.738   3.142   5.118 -0.6901  1.2279 -1.4199
   13MOL0     H 1745   2.909   3.171   5.154 -0.3832  0.0473 -0.7724
   13MOL0     H 1746   2.680   3.324   5.277  0.0657  3.0447  0.3437
   13MOL0     H 1747   2.854   3.361   5.295 -0.5563 -1.2758 -0.8519
   13MOL0     H 1748   2.678   3.363   5.053  0.1537 -1.8879  1.1744
   13MOL0     H 1749   2.728   3.511   5.136  0.9922 -0.4114  2.1337
   13MOL0     H 1750   2.938   3.326   4.986 -1.0160 -0.7550 -1.3292
   13MOL0     H 1751   2.857   3.471   4.912  2.7385 -0.0604 -0.9219
   13MOL0     H 1752   3.156   3.406   5.200 -0.9330  0.4360  1.5814
   13MOL0     H 1753   3.473   3.443   5.215 -1.8171  1.0798  1.7764
   13MOL0     H 1754   3.479   3.285   5.136  0.3003  1.5816 -1.7022
   13MOL0     H 1755   3.358   3.309   5.262 -0.8998  0.8845  2.1093
   13MOL0     H 1756   3.670   3.347   4.656 -0.0323 -1.2597 -0.9305
   13MOL0     H 1757   3.904   3.394   4.560 -1.3705 -1.4334 -0.1692
   13MOL0     H 1758   4.107   3.775   4.638 -1.5851 -1.3962 -0.6531
   13MOL0     H 1759   4.193   3.665   4.746  2.0434  1.1380  0.1911
   13MOL0     H 1760   4.255   3.674   4.443  1.9521 -3.6523  0.0429
   13MOL0     H 1761   4.328   3.773   4.570 -1.2255 -0.3506 -2.0198
   13MOL0     H 1762   4.305   3.485   4.590  1.4905 -2.3468  1.6080
   13MOL0     H 1763   4.404   3.592   4.692 -0.2032  1.8218 -0.6284
   13MOL0     H 1764   4.582   3.506   4.550  1.9410  1.4241 -1.9285
   13MOL0     H 1765   4.544   3.654   4.464  2.1480 -2.2378 -3.1176
   13MOL0     H 1766   4.393   3.407   4.413 -1.0662  0.9181  0.6213
   13MOL0     H 1767   4.434   3.537   4.297  0.2439  0.1835  0.5041
   13MOL0     H 1768   4.646   3.345   4.413  0.5094  1.5820  0.4559
   13MOL0     H 1769   4.662   3.472   4.283  1.8440 -0.3148  1.2863
   13MOL0     H 1770   4.518   3.350   4.146  1.1605  0.6132 -0.1520
   13MOL0     H 1771   4.479   3.225   4.271 -1.1764  0.5339 -0.1596
   13MOL0     H 1772   4.710   3.167   4.270 -2.7227  2.0504  1.6777
   13MOL0     H 1773   4.753   3.297   4.158  1.8688 -1.2469 -1.1024
   13MOL0     H 1774   3.955   3.737   4.788  1.3405 -1.5274  0.4095
   13MOL0     H 1775   3.705   3.728   4.860 -0.1902  0.5642  0.5561
   13MOL0     H 1776   3.305   3.595   4.774 -1.1527  0.1932 -0.0272
   13MOL0     H 1777   3.069   3.590   4.826  0.1945  0.4900 -0.1165
   13MOL0     H 1778   1.910   2.598   6.086  1.7120 -0.3211 -1.0559
   13MOL0     H 1779   1.671   2.607   6.111  0.8819 -1.0901  0.4295
   13MOL0     H 1780   1.305   2.811   6.036 -1.8479  2.0407  1.0616
   13MOL0     H 1781   1.071   2.850   6.087  0.0735 -0.6303  1.0994
   13MOL0     H 1782   0.726   2.681   5.872  0.6358 -0.0902  0.3652
   13MOL0     H 1783   0.781   2.563   5.983  0.3561  0.0175  0.1657
   13MOL0     H 1784   0.669   2.640   6.157  1.0344 -0.4161 -0.7533
   13MOL0     H 1785   0.557   2.659   6.009 -0.7361  2.7382 -0.4501
   13MOL0     H 1786   0.606   2.857   6.209  0.3522  2.6098 -0.0893
   13MOL0     H 1787   0.708   2.902   6.084  0.0321 -1.3569 -3.1001
   13MOL0     H 1788   0.516   2.927   5.931 -0.1274 -1.3830  0.4638
   13MOL0     H 1789   0.481   3.012   6.070  0.1294  0.0147  0.9969
   13MOL0     H 1790   0.231   2.670   6.135  0.9192  0.4134  1.5853
   13MOL0     H 1791   0.946   2.542   5.809 -0.8986  0.4578 -1.5333
   13MOL0     H 1792   1.101   2.436   5.650  0.6192 -1.5049  0.1696
   13MOL0     H 1793   1.245   2.519   5.619 -1.1764  2.1205  0.8493
   13MOL0     H 1794   1.241   2.390   5.749  0.2248 -1.2904 -0.2800
   14MOL0     O 1795   2.447   6.070   8.768 -0.0958 -0.1405  0.2492
   14MOL0     C 1796   2.351   6.032   8.839  0.9318 -0.2969  0.6515
   14MOL0     O 1797   2.347   6.035   8.980 -0.2357  0.8205  1.0656
   14MOL0     C 1798   2.434   6.095   9.065 -0.4722 -0.8812  0.7680
   14MOL0     C 1799   2.473   6.022   9.174  0.0692 -0.0365 -0.2329
   14MOL0     C 1800   2.537   6.078   9.280 -0.4452 -0.5655  0.0665
   14MOL0     C 1801   2.561   6.218   9.279  0.3812 -0.0080  0.9027
   14MOL0     O 1802   2.612   6.297   9.379 -0.4080 -0.1869  0.1404
   14MOL0     C 1803   2.690   6.235   9.481  0.4983  0.0293 -0.4723
   14MOL0     C 1804   2.805   6.322   9.523 -0.3155 -0.1054  0.2791
   14MOL0     C 1805   2.908   6.331   9.400  0.0998  0.3556 -0.6660
   14MOL0     C 1806   3.015   6.220   9.405 -0.1643  1.2075  0.3502
   14MOL0     C 1807   3.111   6.235   9.288  0.6536 -0.5266  0.3212
   14MOL0     C 1808   3.236   6.142   9.297 -0.0278  0.3064  0.4421
   14MOL0     C 1809   3.331   6.164   9.413 -1.0876 -0.2996 -0.7466
   14MOL0     C 1810   3.384   6.315   9.418  0.4388 -0.7419 -0.0471
   14MOL0     N 1811   3.478   6.330   9.307  0.2688  0.9742 -0.5571
   14MOL0     C 1812   3.615   6.282   9.306 -0.0379 -0.2743 -0.0263
   14MOL0     C 1813   3.662   6.328   9.191  0.1499 -0.9488 -0.1769
   14MOL0     C 1814   3.796   6.312   9.123 -0.6848 -0.1978  0.0716
   14MOL0     C 1815   3.887   6.434   9.152  0.3881 -0.6004 -0.2373
   14MOL0     C 1816   3.861   6.543   9.043  0.1092 -0.3144 -0.2697
   14MOL0     C 1817   3.953   6.661   9.067  0.5105 -0.0573 -0.1787
   14MOL0     O 1818   3.955   6.751   8.962 -0.0610  0.0529 -0.1224
   14MOL0     C 1819   4.007   6.872   8.980  0.2559  0.3664 -0.2097
   14MOL0     C 1820   3.920   6.982   9.008 -1.2128 -0.7541 -0.0861
   14MOL0     C 1821   3.971   7.107   9.031  0.4109  1.2074  0.3101
   14MOL0     C 1822   3.872   7.206   9.084  0.5007  0.8682 -0.2087
   14MOL0     C 1823   4.112   7.127   9.021 -0.4226 -0.5638  1.0595
   14MOL0     C 1824   4.181   7.265   9.034  0.0019 -0.4956  0.6233
   14MOL0     O 1825   4.295   7.286   8.960  0.5015  0.2615  0.5045
   14MOL0     C 1826   4.348   7.408   8.932 -0.4611 -0.4502  0.4135
   14MOL0     C 1827   4.265   7.511   8.881  0.4085  0.1139  0.7374
   14MOL0     C 1828   4.323   7.632   8.841  0.2068 -0.3636  0.8390
   14MOL0     C 1829   4.457   7.658   8.835 -0.2915  0.6329  0.8427
   14MOL0     O 1830   4.512   7.769   8.782 -0.9242 -0.7950 -0.0861
   14MOL0     C 1831   4.633   7.749   8.710  0.0079  0.8483  0.2848
   14MOL0     C 1832   4.627   7.855   8.597 -0.9495  0.7341  0.5902
   14MOL0     C 1833   4.761   7.826   8.520 -0.0453  0.0529 -0.0338
   14MOL0     C 1834   4.784   7.942   8.419 -0.3867 -0.1631  0.3607
   14MOL0     C 1835   4.693   7.947   8.297  0.2685  0.4896 -0.3422
   14MOL0     C 1836   4.687   8.086   8.229 -0.8212  0.6692 -0.5465
   14MOL0     C 1837   4.598   8.184   8.301  0.5470  0.2138  0.5077
   14MOL0     C 1838   4.594   8.313   8.221  0.9502  0.0695 -1.2956
   14MOL0    Cl 1839   4.503   8.428   8.334 -0.4403  0.3182  0.2051
   14MOL0     C 1840   4.536   7.555   8.899 -1.0136 -0.4385 -0.7077
   14MOL0     C 1841   4.489   7.433   8.938 -1.2125 -0.1169 -0.7657
   14MOL0     O 1842   4.129   7.341   9.106  0.3768 -0.1192 -0.5407
   14MOL0     C 1843   4.199   7.012   9.000  0.4243 -0.8938 -0.6880
   14MOL0     C 1844   4.145   6.888   8.982 -0.7223 -0.3276  0.6321
   14MOL0     N 1845   3.557   6.391   9.118  0.5385  0.3646 -0.1313
   14MOL0     N 1846   3.451   6.397   9.190  0.7275 -0.3006 -0.5203
   14MOL0     C 1847   2.512   6.293   9.169  0.6337 -0.1162 -0.5427
   14MOL0     C 1848   2.450   6.231   9.061  0.6457  0.2262 -0.1478
   14MOL0     C 1849   2.229   5.965   8.779  0.7226 -1.3500 -0.1498
   14MOL0     C 1850   2.215   5.960   8.636 -0.2398 -0.5660  0.3234
   14MOL0     C 1851   2.103   5.898   8.575 -0.8852  0.4934  0.7030
   14MOL0     C 1852   2.005   5.839   8.657  0.0246  0.7024  0.9952
   14MOL0     O 1853   1.891   5.798   8.599 -0.1684  0.6420 -0.1287
   14MOL0     C 1854   1.789   5.895   8.569 -0.3215  0.0090 -0.0917
   14MOL0     C 1855   1.658   5.858   8.637  0.0595 -0.0073 -0.4307
   14MOL0     C 1856   1.661   5.815   8.786  1.3056  0.0372  0.1086
   14MOL0     C 1857   1.531   5.748   8.826  0.2409  1.0273  0.7423
   14MOL0     C 1858   1.549   5.610   8.883 -0.3470  0.0017  0.8711
   14MOL0     C 1859   1.558   5.430   8.959 -1.2156  0.2163 -0.5250
   14MOL0     C 1860   2.009   5.850   8.792  0.7902  0.5058 -0.3982
   14MOL0     C 1861   2.121   5.908   8.855  0.8007 -0.1292 -0.5197
   14MOL0     C 1862   2.095   5.937   9.002 -0.0675 -0.2045  0.0866
   14MOL0     H 1863   2.455   5.915   9.177 -0.6342  0.0564 -0.9654
   14MOL0     H 1864   2.562   6.015   9.365  1.6414  2.3327  1.7977
   14MOL0     H 1865   2.740   6.143   9.449  1.0430 -1.4019  3.8091
   14MOL0     H 1866   2.633   6.206   9.570 -0.3031 -1.1008 -1.3122
   14MOL0     H 1867   2.763   6.422   9.534 -2.4103 -0.6788 -1.6733
   14MOL0     H 1868   2.853   6.303   9.620 -0.7668  4.3379  1.5959
   14MOL0     H 1869   2.840   6.322   9.314 -4.5056  0.9628  2.5360
   14MOL0     H 1870   2.962   6.426   9.391  2.5048 -1.0541 -2.2864
   14MOL0     H 1871   3.073   6.238   9.495  1.1089  2.8742 -0.7357
   14MOL0     H 1872   2.975   6.118   9.400 -1.7386  1.6953  1.9846
   14MOL0     H 1873   3.143   6.340   9.280  3.6383 -1.4380 -1.1050
   14MOL0     H 1874   3.051   6.221   9.198  0.9077  1.8579 -0.2996
   14MOL0     H 1875   3.212   6.036   9.310 -0.8259  0.3783 -0.3069
   14MOL0     H 1876   3.284   6.154   9.200 -0.9544 -2.4961 -0.4522
   14MOL0     H 1877   3.416   6.095   9.408 -1.5990 -1.4318  3.2333
   14MOL0     H 1878   3.279   6.161   9.509  0.2555  3.6821  0.2975
   14MOL0     H 1879   3.300   6.386   9.417  1.2600  0.3668  2.1603
   14MOL0     H 1880   3.446   6.348   9.502  1.4658 -0.4704 -0.8797
   14MOL0     H 1881   3.677   6.233   9.380  1.5761  0.8082 -0.6147
   14MOL0     H 1882   3.786   6.295   9.015  0.3307 -2.3493  0.2590
   14MOL0     H 1883   3.828   6.215   9.163 -3.5751 -0.2473  2.6461
   14MOL0     H 1884   3.875   6.472   9.254 -0.5992 -0.4379 -0.4094
   14MOL0     H 1885   3.991   6.399   9.148  0.8631  0.6373  0.6041
   14MOL0     H 1886   3.887   6.504   8.944  4.1059 -0.9490  0.8432
   14MOL0     H 1887   3.756   6.573   9.046  0.0001 -0.6887 -0.2853
   14MOL0     H 1888   3.929   6.691   9.170 -0.9660  2.4618 -1.1797
   14MOL0     H 1889   4.057   6.628   9.072  1.0707  1.0996 -2.8866
   14MOL0     H 1890   3.816   6.953   9.004 -0.6421 -2.9745 -0.6170
   14MOL0     H 1891   3.874   7.220   9.192 -0.3440 -3.5755  0.5898
   14MOL0     H 1892   3.767   7.183   9.064  0.6669  0.2337 -0.3681
   14MOL0     H 1893   3.895   7.300   9.034 -0.4316  0.6805 -1.0129
   14MOL0     H 1894   4.157   7.500   8.879  0.5540 -1.5776  0.8392
   14MOL0     H 1895   4.254   7.702   8.798 -1.3308 -2.0794  0.3837
   14MOL0     H 1896   4.723   7.754   8.771  0.7517 -4.1325  0.0003
   14MOL0     H 1897   4.634   7.648   8.669  0.6605  1.4654 -1.2843
   14MOL0     H 1898   4.537   7.841   8.536 -2.2621  1.0589  2.3712
   14MOL0     H 1899   4.619   7.956   8.637  0.6911  0.5743  1.3930
   14MOL0     H 1900   4.759   7.730   8.468  1.8393 -1.3044  2.1656
   14MOL0     H 1901   4.850   7.823   8.584  0.5576 -0.0280 -0.8665
   14MOL0     H 1902   4.886   7.934   8.382 -0.9620  1.2572 -1.7597
   14MOL0     H 1903   4.783   8.036   8.476 -0.2851  0.0627 -0.0019
   14MOL0     H 1904   4.711   7.869   8.222  0.3732 -1.0551  1.2466
   14MOL0     H 1905   4.592   7.930   8.334 -0.2858  0.2882 -1.8726
   14MOL0     H 1906   4.657   8.078   8.124 -4.0400  0.8562  0.2389
   14MOL0     H 1907   4.791   8.121   8.225 -0.4218 -0.3498  0.4257
   14MOL0     H 1908   4.620   8.197   8.407 -0.8849 -1.5898  1.0757
   14MOL0     H 1909   4.499   8.139   8.295  1.1980 -1.1233 -4.4457
   14MOL0     H 1910   4.532   8.301   8.131 -1.3438  0.8182  0.0961
   14MOL0     H 1911   4.694   8.336   8.182  0.4338  3.6734 -0.9096
   14MOL0     H 1912   4.641   7.579   8.911 -1.1266  0.2166 -0.9928
   14MOL0     H 1913   4.553   7.354   8.976 -1.8421 -0.0711  0.4287
   14MOL0     H 1914   4.306   7.016   8.986  0.3392  1.5526 -0.9873
   14MOL0     H 1915   4.208   6.803   8.959 -0.3987  0.1981 -0.5136
   14MOL0     H 1916   2.523   6.401   9.169 -1.2876  0.1121 -0.2504
   14MOL0     H 1917   2.393   6.280   8.982 -1.0696 -1.8568 -0.2787
   14MOL0     H 1918   2.294   6.003   8.576  0.7661 -0.4646  1.6796
   14MOL0     H 1919   2.095   5.892   8.466  3.1433 -0.2995  0.2809
   14MOL0     H 1920   1.830   5.988   8.611  1.6135 -1.2999  1.0945
   14MOL0     H 1921   1.775   5.905   8.461  0.9700 -1.4760 -0.4255
   14MOL0     H 1922   1.620   5.772   8.580  1.5984 -0.8286 -0.2719
   14MOL0     H 1923   1.583   5.937   8.632 -1.3505 -1.0627  2.0829
   14MOL0     H 1924   1.744   5.747   8.808  1.1018  0.4924  2.4531
   14MOL0     H 1925   1.681   5.904   8.847 -2.3929  0.2415  1.2294
   14MOL0     H 1926   1.463   5.722   8.744  2.0263 -3.9174  0.4938
   14MOL0     H 1927   1.481   5.812   8.899 -4.1717 -1.9714  0.7359
   14MOL0     H 1928   1.565   5.331   9.000 -0.0278 -1.1503 -3.6263
   14MOL0     H 1929   1.925   5.815   8.851  1.8129 -2.3232 -0.4416
   14MOL0     H 1930   2.123   6.040   9.026 -0.1390 -0.0598 -0.4487
   14MOL0     H 1931   1.992   5.920   9.035  0.1936 -2.8633 -0.2019
   14MOL0     H 1932   2.159   5.873   9.063 -1.5835 -1.8108  0.0630
   15MOL0     O 1933   4.284   7.644   7.058 -0.0459  1.0400  0.3899
   15MOL0     C 1934   4.193   7.578   7.010  0.3947  0.6354  0.7254
   15MOL0     O 1935   4.152   7.583   6.884 -0.1308  0.7013  0.5797
   15MOL0     C 1936   4.233   7.627   6.782 -0.1264  0.3369 -0.8710
   15MOL0     C 1937   4.191   7.590   6.655 -0.0470  0.2613  0.4167
   15MOL0     C 1938   4.247   7.659   6.538  0.6030  0.2194 -0.9100
   15MOL0     C 1939   4.353   7.750   6.559  0.8821  0.8771  0.4009
   15MOL0     O 1940   4.412   7.809   6.451  0.7846 -0.2171  0.5439
   15MOL0     C 1941   4.476   7.714   6.364  0.7750 -0.8809  0.5923
   15MOL0     C 1942   4.521   7.784   6.242 -0.4068 -0.3346 -0.0752
   15MOL0     C 1943   4.562   7.672   6.144 -0.1457  0.3440 -0.9948
   15MOL0     C 1944   4.619   7.729   6.027  0.0743 -0.2793  0.4271
   15MOL0     C 1945   4.681   7.634   5.926 -0.7218  0.3759 -0.7236
   15MOL0     C 1946   4.725   7.711   5.806  0.1174 -0.5323  0.4144
   15MOL0     C 1947   4.765   7.623   5.687  0.4443 -0.2884  0.2286
   15MOL0     C 1948   4.888   7.529   5.715 -0.2179 -0.7413  0.3886
   15MOL0     N 1949   4.925   7.429   5.608  0.6697 -0.0573  0.7347
   15MOL0     C 1950   5.048   7.431   5.545  0.1028 -0.0112 -0.0694
   15MOL0     C 1951   5.045   7.326   5.470 -0.2497  0.0418  0.5566
   15MOL0     C 1952   5.163   7.303   5.381  0.3066 -0.4590 -0.4432
   15MOL0     C 1953   5.200   7.153   5.368  0.3496  0.5198 -0.6348
   15MOL0     C 1954   5.340   7.141   5.300  0.3954 -0.9964  0.1831
   15MOL0     C 1955   5.370   6.998   5.244  0.1917  0.6804  0.6692
   15MOL0     O 1956   5.505   6.991   5.207 -0.1055  0.5843 -0.5813
   15MOL0     C 1957   5.601   6.909   5.276  0.5370 -1.1524 -0.4383
   15MOL0     C 1958   5.581   6.778   5.301  0.2979  0.0085  0.0762
   15MOL0     C 1959   5.681   6.689   5.336 -0.5054 -0.1774  0.6359
   15MOL0     C 1960   5.640   6.545   5.358  0.0810  0.4646  0.0485
   15MOL0     C 1961   5.808   6.749   5.361 -0.0465  0.2632 -0.2116
   15MOL0     C 1962   5.927   6.664   5.391  0.3966 -0.0842 -0.2528
   15MOL0     O 1963   6.040   6.730   5.423  0.1848  0.2390 -0.4382
   15MOL0     C 1964   6.171   6.673   5.415  0.4242  0.4572  0.0859
   15MOL0     C 1965   6.272   6.741   5.483 -0.2770 -0.4340 -0.2008
   15MOL0     C 1966   6.406   6.707   5.484  0.0203  0.0219 -0.0091
   15MOL0     C 1967   6.448   6.586   5.430 -0.1460  0.5859 -0.3279
   15MOL0     O 1968   6.586   6.549   5.446  0.4278 -0.3622  0.3569
   15MOL0     C 1969   6.623   6.428   5.364 -0.3556 -0.7332 -0.0722
   15MOL0     C 1970   6.772   6.404   5.376 -0.4127 -0.0298 -0.0754
   15MOL0     C 1971   6.828   6.302   5.272  0.2727 -0.4678  0.1763
   15MOL0     C 1972   6.970   6.265   5.311  0.4462  0.0623  0.1459
   15MOL0     C 1973   7.009   6.156   5.201 -0.0797 -1.0655  0.4284
   15MOL0     C 1974   7.159   6.145   5.197  0.3163 -0.9487  0.2608
   15MOL0     C 1975   7.238   6.120   5.329  0.0570  0.3277  0.8359
   15MOL0     C 1976   7.361   6.034   5.310 -0.6964  0.0171  0.9295
   15MOL0    Cl 1977   7.482   6.116   5.197  0.1984 -0.3772  0.2020
   15MOL0     C 1978   6.344   6.505   5.370 -0.0102  0.2944  0.0791
   15MOL0     C 1979   6.209   6.542   5.360  0.0805  0.0764 -0.3963
   15MOL0     O 1980   5.918   6.541   5.394  0.5813 -0.6055  0.1131
   15MOL0     C 1981   5.824   6.886   5.341  0.2054 -0.5800  0.0730
   15MOL0     C 1982   5.721   6.967   5.305  0.1921  0.3868  0.4770
   15MOL0     N 1983   4.935   7.249   5.492  0.3991  0.1882  0.0510
   15MOL0     N 1984   4.859   7.313   5.569 -0.0645 -0.1734 -0.5667
   15MOL0     C 1985   4.390   7.794   6.682 -0.0851  0.1955  0.1693
   15MOL0     C 1986   4.323   7.733   6.792 -0.1212 -0.0259  0.0651
   15MOL0     C 1987   4.133   7.476   7.103  0.3826  0.7370  0.8092
   15MOL0     C 1988   4.202   7.444   7.225  0.4151  1.0769 -0.0478
   15MOL0     C 1989   4.140   7.345   7.312  0.8277 -0.9420 -0.6260
   15MOL0     C 1990   4.028   7.272   7.280 -0.2885  0.2461  0.8162
   15MOL0     O 1991   3.976   7.188   7.378 -0.5637 -0.4455  0.2554
   15MOL0     C 1992   3.891   7.078   7.339 -0.7575 -1.1505 -0.9574
   15MOL0     C 1993   3.964   6.964   7.278 -0.0416 -0.1600  0.1787
   15MOL0     C 1994   4.084   6.935   7.372  0.3432 -0.5153 -0.8100
   15MOL0     C 1995   4.119   6.784   7.407  0.6501  0.1543  0.4568
   15MOL0     C 1996   4.033   6.716   7.502 -1.3663 -0.7391  0.2277
   15MOL0     C 1997   3.951   6.676   7.579  0.5179 -0.4888 -0.0645
   15MOL0     C 1998   3.969   7.301   7.159  0.7515  0.8104 -0.5686
   15MOL0     C 1999   4.014   7.404   7.080 -0.4382  0.0651  1.2260
   15MOL0     C 2000   3.920   7.430   6.962 -0.7420 -0.2458 -0.8848
   15MOL0     H 2001   4.104   7.526   6.645 -0.7321  1.1567  0.4932
   15MOL0     H 2002   4.226   7.628   6.437  1.7480 -0.5426 -0.9383
   15MOL0     H 2003   4.411   7.631   6.334  1.6919 -1.0866 -0.8938
   15MOL0     H 2004   4.566   7.673   6.411  2.3158 -1.8937 -2.9598
   15MOL0     H 2005   4.443   7.845   6.194 -1.7437  0.6420  3.0822
   15MOL0     H 2006   4.608   7.846   6.265 -0.8308  0.0752  0.4663
   15MOL0     H 2007   4.640   7.610   6.190  0.7589  0.3207 -2.5093
   15MOL0     H 2008   4.474   7.609   6.127 -0.8401  0.1364  2.5575
   15MOL0     H 2009   4.531   7.780   5.986  1.2959  1.6156  0.0405
   15MOL0     H 2010   4.691   7.808   6.053  1.1495 -1.1215  0.1050
   15MOL0     H 2011   4.606   7.561   5.896 -0.1234  0.3451 -2.2325
   15MOL0     H 2012   4.761   7.580   5.978 -1.8933  0.2745  1.0851
   15MOL0     H 2013   4.634   7.760   5.769  0.8617 -0.6152 -1.6799
   15MOL0     H 2014   4.800   7.789   5.824  1.0694 -1.1240 -0.8609
   15MOL0     H 2015   4.791   7.688   5.603 -2.0917  0.9899  0.3292
   15MOL0     H 2016   4.681   7.566   5.645  1.3415 -2.3350  1.0353
   15MOL0     H 2017   4.975   7.590   5.740 -1.7145  1.6097  0.0866
   15MOL0     H 2018   4.859   7.477   5.807  0.3756 -1.6135  0.1055
   15MOL0     H 2019   5.140   7.487   5.560  0.2218 -0.2113 -0.0498
   15MOL0     H 2020   5.248   7.365   5.412  0.7383  0.7751 -3.6578
   15MOL0     H 2021   5.133   7.349   5.287 -4.4482  2.4609  2.1154
   15MOL0     H 2022   5.217   7.109   5.466 -1.1414  2.1669  0.4222
   15MOL0     H 2023   5.131   7.089   5.313 -0.8076  0.9510  0.2846
   15MOL0     H 2024   5.346   7.216   5.220 -1.8364 -2.9766 -2.0105
   15MOL0     H 2025   5.417   7.166   5.373  0.4590 -1.8830  0.4250
   15MOL0     H 2026   5.339   6.928   5.322  0.8635  0.9240  1.1608
   15MOL0     H 2027   5.307   6.981   5.156 -0.0777 -0.5372  1.0805
   15MOL0     H 2028   5.483   6.735   5.282  0.8534 -1.6275  0.7193
   15MOL0     H 2029   5.665   6.512   5.459 -3.0804  1.0733  1.1508
   15MOL0     H 2030   5.678   6.481   5.278 -0.5900 -0.9938  0.8451
   15MOL0     H 2031   5.531   6.539   5.356  0.0475 -1.5217  2.6986
   15MOL0     H 2032   6.243   6.827   5.543 -3.0394 -3.5845  3.5255
   15MOL0     H 2033   6.474   6.769   5.543 -0.2139  0.5556 -0.2955
   15MOL0     H 2034   6.580   6.338   5.410  2.4380 -1.8587  0.6082
   15MOL0     H 2035   6.603   6.448   5.258 -1.5006 -0.1234  0.2436
   15MOL0     H 2036   6.824   6.498   5.352  2.8013 -1.8583 -0.8257
   15MOL0     H 2037   6.785   6.367   5.478  4.3701 -1.3398 -0.9438
   15MOL0     H 2038   6.815   6.348   5.174 -2.2215  1.3130  1.2238
   15MOL0     H 2039   6.756   6.220   5.270  2.2276 -2.5036  3.3638
   15MOL0     H 2040   6.982   6.225   5.412 -0.2672  2.0011  1.0517
   15MOL0     H 2041   7.034   6.353   5.313  1.1151 -0.3079 -1.9901
   15MOL0     H 2042   6.971   6.057   5.225  3.0158 -2.0341  1.9742
   15MOL0     H 2043   6.973   6.194   5.105 -2.5004 -0.6047  1.4458
   15MOL0     H 2044   7.187   6.233   5.138  2.8478 -1.3089  0.7961
   15MOL0     H 2045   7.184   6.058   5.136 -0.7321 -0.7952 -0.4091
   15MOL0     H 2046   7.173   6.077   5.406  0.8000 -0.3205  1.1207
   15MOL0     H 2047   7.274   6.217   5.364  3.5101  0.3216 -2.1231
   15MOL0     H 2048   7.336   5.940   5.260  1.6325 -0.5973  0.7766
   15MOL0     H 2049   7.406   6.009   5.407 -2.0777  0.1900  1.6363
   15MOL0     H 2050   6.355   6.403   5.336 -3.5771 -0.2643  0.2804
   15MOL0     H 2051   6.151   6.465   5.310  2.3163 -1.8853 -0.1837
   15MOL0     H 2052   5.918   6.939   5.360  0.2864 -0.3707 -0.8879
   15MOL0     H 2053   5.746   7.072   5.300  1.6176  0.0024 -2.4990
   15MOL0     H 2054   4.462   7.873   6.702  0.4848 -0.8271  2.4743
   15MOL0     H 2055   4.349   7.766   6.892 -1.4084 -1.6002  0.9532
   15MOL0     H 2056   4.304   7.470   7.251 -0.3003  0.2381  4.3493
   15MOL0     H 2057   4.187   7.324   7.408  0.5129  0.8301 -0.0377
   15MOL0     H 2058   3.834   7.052   7.429 -2.0610  0.1551 -1.3671
   15MOL0     H 2059   3.818   7.114   7.266 -0.4568  2.1437  0.1970
   15MOL0     H 2060   4.008   6.995   7.182 -1.3504 -0.5078 -0.5581
   15MOL0     H 2061   3.894   6.883   7.255 -0.0060 -0.8703  2.4066
   15MOL0     H 2062   4.174   6.971   7.321 -0.1199  1.3741 -0.3647
   15MOL0     H 2063   4.076   6.989   7.466 -1.3092 -0.8136 -0.7521
   15MOL0     H 2064   4.221   6.774   7.447  0.7701  0.6271  0.2736
   15MOL0     H 2065   4.111   6.741   7.306  0.7671  1.6495 -0.2110
   15MOL0     H 2066   3.878   6.652   7.653 -0.2865 -0.7242 -0.9089
   15MOL0     H 2067   3.869   7.263   7.137  0.2649 -0.1645  2.7048
   15MOL0     H 2068   3.959   7.395   6.865  0.4476 -0.3779 -0.3756
   15MOL0     H 2069   3.820   7.390   6.977 -2.8431  4.2549 -1.4528
   15MOL0     H 2070   3.908   7.538   6.954  2.7174  0.7716  3.5998
   16MOL0     O 2071   9.855   8.468   5.161 -0.4825  0.9273 -0.2748
   16MOL0     C 2072   9.893   8.539   5.254 -0.8995  0.2664 -0.2467
   16MOL0     O 2073   9.827   8.626   5.317  0.6670  0.2762  0.4415
   16MOL0     C 2074   9.689   8.617   5.333  0.2361 -0.4778 -0.4298
   16MOL0     C 2075   9.634   8.730   5.403  0.0119  0.5656 -0.7602
   16MOL0     C 2076   9.501   8.730   5.441 -0.7008  0.2780  0.5066
   16MOL0     C 2077   9.408   8.638   5.400 -0.8712  0.6386  0.4203
   16MOL0     O 2078   9.279   8.648   5.423 -0.8032  0.0899 -0.5961
   16MOL0     C 2079   9.254   8.589   5.559 -0.0005  0.2106  0.1089
   16MOL0     C 2080   9.109   8.628   5.576 -0.8745  0.2186 -0.4187
   16MOL0     C 2081   9.062   8.631   5.729  0.3107 -0.0081  0.8425
   16MOL0     C 2082   8.908   8.648   5.736 -0.0176 -0.2821 -0.1181
   16MOL0     C 2083   8.855   8.632   5.880  0.1601 -0.0814  0.6054
   16MOL0     C 2084   8.846   8.480   5.899  0.0962  0.3710  1.0594
   16MOL0     C 2085   8.809   8.441   6.043  0.1884  0.0982 -0.3447
   16MOL0     C 2086   8.868   8.302   6.078  0.4538  0.1352  0.3711
   16MOL0     N 2087   8.847   8.265   6.215 -0.0995 -0.4589  0.1309
   16MOL0     C 2088   8.736   8.200   6.259 -0.0455 -0.0274  0.3232
   16MOL0     C 2089   8.771   8.152   6.379 -0.4676  0.2537  0.1950
   16MOL0     C 2090   8.670   8.084   6.473  0.1218 -0.6392  0.1584
   16MOL0     C 2091   8.748   8.035   6.597 -0.3586  0.2286  0.5393
   16MOL0     C 2092   8.741   8.138   6.715 -0.0315  0.2294  0.0783
   16MOL0     C 2093   8.861   8.127   6.813  0.7396 -0.6700 -0.2523
   16MOL0     O 2094   8.889   7.998   6.866 -0.0899 -0.3424  0.2288
   16MOL0     C 2095   8.963   8.000   6.982  0.7408 -0.2925  0.2620
   16MOL0     C 2096   9.051   8.104   7.013  0.2630 -0.5617  0.2552
   16MOL0     C 2097   9.130   8.100   7.127 -0.5389 -1.8711  0.0349
   16MOL0     C 2098   9.217   8.220   7.161 -0.8303 -0.1352  0.0779
   16MOL0     C 2099   9.118   7.994   7.219 -0.0026 -0.2514 -0.0479
   16MOL0     C 2100   9.184   7.990   7.348 -1.0738 -0.6358  1.4314
   16MOL0     O 2101   9.182   8.105   7.412 -0.0639 -0.8118 -0.2002
   16MOL0     C 2102   9.259   8.123   7.522  1.0389  0.1793 -0.3160
   16MOL0     C 2103   9.397   8.123   7.500 -0.1754  0.5551  1.3380
   16MOL0     C 2104   9.486   8.149   7.606 -0.4944  0.5537 -0.4408
   16MOL0     C 2105   9.434   8.151   7.741  0.7959  0.4845  0.8035
   16MOL0     O 2106   9.530   8.162   7.839  0.0750  0.0893 -0.0593
   16MOL0     C 2107   9.499   8.191   7.980 -0.3486  0.1139  0.8053
   16MOL0     C 2108   9.473   8.071   8.066  0.6746 -0.6597 -0.3269
   16MOL0     C 2109   9.599   7.981   8.053 -0.8799 -0.4800 -0.3605
   16MOL0     C 2110   9.590   7.853   8.140  0.7435  0.1117  0.7423
   16MOL0     C 2111   9.712   7.756   8.130 -0.4411  0.2775 -0.1428
   16MOL0     C 2112   9.821   7.795   8.226  0.0609 -0.0435 -0.8158
   16MOL0     C 2113   9.925   7.699   8.270 -0.2005 -0.2769  0.4098
   16MOL0     C 2114  10.034   7.761   8.357  0.1221 -0.1902  0.1210
   16MOL0    Cl 2115  10.133   7.626   8.432 -0.2652 -0.0462 -0.0770
   16MOL0     C 2116   9.294   8.156   7.758  0.4427 -0.5525  0.0940
   16MOL0     C 2117   9.206   8.144   7.653 -0.0744 -0.7540  0.9882
   16MOL0     O 2118   9.223   7.882   7.395  0.2452 -0.2119 -0.2960
   16MOL0     C 2119   9.046   7.881   7.180 -0.0361 -0.1838  0.8630
   16MOL0     C 2120   8.969   7.888   7.066  0.0556 -0.0387  0.5145
   16MOL0     N 2121   8.899   8.196   6.412 -0.1525 -0.5764 -0.5238
   16MOL0     N 2122   8.946   8.260   6.309 -0.1315  1.1626 -0.3733
   16MOL0     C 2123   9.451   8.528   5.321  0.8132  0.7508  0.8666
   16MOL0     C 2124   9.589   8.523   5.288  0.6792 -0.9633 -0.4330
   16MOL0     C 2125  10.040   8.526   5.280 -0.1850 -1.1680  0.2108
   16MOL0     C 2126  10.118   8.438   5.203  0.4803  0.1839  0.5441
   16MOL0     C 2127  10.256   8.432   5.219 -0.2657  0.6151 -0.3204
   16MOL0     C 2128  10.308   8.500   5.330 -0.3863  0.1530  0.0245
   16MOL0     O 2129  10.444   8.469   5.346  0.1498  0.4940 -0.0977
   16MOL0     C 2130  10.515   8.510   5.472 -0.4627 -0.8522 -0.1663
   16MOL0     C 2131  10.664   8.509   5.439 -0.2683 -0.0114 -0.2600
   16MOL0     C 2132  10.750   8.537   5.567 -0.3000  0.7477  0.8581
   16MOL0     C 2133  10.891   8.548   5.525  0.2398 -0.0850  1.1596
   16MOL0     C 2134  10.979   8.527   5.641  0.0063 -0.3546  0.3106
   16MOL0     C 2135  11.049   8.521   5.745 -0.1876  0.2101  0.6277
   16MOL0     C 2136  10.237   8.590   5.410  0.3917  0.4630  0.0177
   16MOL0     C 2137  10.103   8.606   5.388 -0.0219 -0.4412 -0.0602
   16MOL0     C 2138  10.038   8.713   5.481 -0.1246 -0.1428  0.6611
   16MOL0     H 2139   9.700   8.807   5.442 -1.5447  2.5875 -1.8952
   16MOL0     H 2140   9.484   8.816   5.506 -3.6480 -0.4697  0.8427
   16MOL0     H 2141   9.318   8.629   5.638  1.3998  1.3140 -1.4989
   16MOL0     H 2142   9.266   8.480   5.552  1.4560  0.3733 -0.5019
   16MOL0     H 2143   9.090   8.731   5.544  2.0440  1.1290  0.4784
   16MOL0     H 2144   9.034   8.570   5.522 -0.1228 -1.3655  0.1753
   16MOL0     H 2145   9.094   8.538   5.777 -0.6110 -1.2254 -0.8195
   16MOL0     H 2146   9.105   8.718   5.780 -0.0077  1.1117 -0.7107
   16MOL0     H 2147   8.883   8.748   5.701  2.2731  0.2414 -0.4250
   16MOL0     H 2148   8.862   8.571   5.673  1.3253  0.1574 -1.6906
   16MOL0     H 2149   8.760   8.678   5.907  0.6876  0.8501  0.8876
   16MOL0     H 2150   8.935   8.673   5.942  3.3425 -2.2312 -1.7444
   16MOL0     H 2151   8.768   8.438   5.835  2.3825 -5.0128  1.3107
   16MOL0     H 2152   8.938   8.439   5.856 -1.5065  0.2229 -2.6239
   16MOL0     H 2153   8.701   8.434   6.054  0.5052 -2.0384  2.6081
   16MOL0     H 2154   8.830   8.522   6.113  1.8468 -0.8059  0.2746
   16MOL0     H 2155   8.823   8.217   6.025  0.5445 -0.3982  1.1260
   16MOL0     H 2156   8.973   8.293   6.051 -0.1033  0.6402 -2.1865
   16MOL0     H 2157   8.643   8.175   6.209  1.4895  1.1383 -3.4900
   16MOL0     H 2158   8.615   8.002   6.427 -2.3936  1.6687 -1.2613
   16MOL0     H 2159   8.592   8.158   6.493  0.3615  0.2070 -1.7579
   16MOL0     H 2160   8.699   7.942   6.629  0.2976  0.1004  1.1921
   16MOL0     H 2161   8.850   8.000   6.578 -0.9525 -2.4139  1.7449
   16MOL0     H 2162   8.738   8.237   6.669  2.6542  1.5055  2.3240
   16MOL0     H 2163   8.658   8.110   6.780  2.2631 -4.5633  1.3677
   16MOL0     H 2164   8.949   8.162   6.758  0.6134 -1.0803 -0.7312
   16MOL0     H 2165   8.839   8.196   6.894 -0.7399  0.8006 -1.8188
   16MOL0     H 2166   9.058   8.185   6.941  0.3186  0.3265  1.2325
   16MOL0     H 2167   9.315   8.198   7.205 -0.6160  1.9253  0.7509
   16MOL0     H 2168   9.159   8.287   7.226  2.3058  1.5353  1.3794
   16MOL0     H 2169   9.223   8.277   7.068 -2.9589  1.5298  0.8607
   16MOL0     H 2170   9.428   8.121   7.396  0.3196  0.0472  1.4895
   16MOL0     H 2171   9.592   8.158   7.586 -1.0216  2.7084 -2.7119
   16MOL0     H 2172   9.583   8.247   8.021 -0.2735 -1.6618  3.3225
   16MOL0     H 2173   9.413   8.260   7.984  1.7410  3.2418 -2.4657
   16MOL0     H 2174   9.476   8.126   8.160 -0.6815 -2.5172  0.8661
   16MOL0     H 2175   9.377   8.021   8.053  0.3139  0.2424 -1.3033
   16MOL0     H 2176   9.688   8.038   8.081 -1.8448  1.7069 -1.4828
   16MOL0     H 2177   9.604   7.949   7.948  1.8458  0.8175 -0.7046
   16MOL0     H 2178   9.501   7.793   8.116  0.4408  1.2216 -1.0598
   16MOL0     H 2179   9.559   7.887   8.239 -0.7604  2.4534 -0.4228
   16MOL0     H 2180   9.677   7.653   8.148  3.0236 -0.5518  3.1171
   16MOL0     H 2181   9.747   7.759   8.026  0.0691  4.3324  0.0121
   16MOL0     H 2182   9.770   7.825   8.319  2.5275 -2.5687  1.5151
   16MOL0     H 2183   9.865   7.890   8.195 -1.1204  0.9737  0.4855
   16MOL0     H 2184   9.959   7.644   8.182 -2.2028 -4.8628  2.1256
   16MOL0     H 2185   9.887   7.619   8.335  0.8044 -2.1135 -1.1618
   16MOL0     H 2186   9.989   7.829   8.430  2.2479 -0.5286  1.8783
   16MOL0     H 2187  10.097   7.819   8.290 -2.2245  1.3997 -0.8272
   16MOL0     H 2188   9.256   8.155   7.859  1.1779 -1.2269  0.3744
   16MOL0     H 2189   9.097   8.146   7.660 -0.1949 -2.4255  0.0003
   16MOL0     H 2190   9.048   7.784   7.228 -0.3519  0.5115  2.3304
   16MOL0     H 2191   8.908   7.802   7.041  0.1732 -0.8240  2.7368
   16MOL0     H 2192   9.379   8.460   5.276  0.5660  2.1718 -1.0541
   16MOL0     H 2193   9.628   8.437   5.234 -0.6615 -2.3555  0.7125
   16MOL0     H 2194  10.069   8.383   5.124 -2.7969 -0.8569  3.0664
   16MOL0     H 2195  10.316   8.360   5.163 -0.1808  0.5056 -0.0899
   16MOL0     H 2196  10.486   8.614   5.489 -0.4528 -1.1600  2.0081
   16MOL0     H 2197  10.492   8.445   5.557  2.5419 -0.7398  0.8612
   16MOL0     H 2198  10.692   8.592   5.373  1.7131 -1.5322 -1.4248
   16MOL0     H 2199  10.672   8.415   5.383 -0.2975 -0.2122  0.0712
   16MOL0     H 2200  10.707   8.623   5.620 -0.3682 -0.1588  2.3474
   16MOL0     H 2201  10.754   8.450   5.633 -4.6025  1.1774  2.0124
   16MOL0     H 2202  10.916   8.650   5.494  0.9502 -1.2419 -2.5323
   16MOL0     H 2203  10.911   8.484   5.439  0.3614  0.0367  1.0968
   16MOL0     H 2204  11.107   8.527   5.835 -2.2517 -0.1944  2.0579
   16MOL0     H 2205  10.287   8.651   5.484  1.1756  1.9728 -1.6661
   16MOL0     H 2206   9.963   8.778   5.436 -0.0559  1.3098  2.4945
   16MOL0     H 2207   9.982   8.651   5.551 -0.6940 -0.4897 -0.0974
   16MOL0     H 2208  10.111   8.765   5.545 -0.8435 -0.3060  1.6332
   17MOL0     O 2209   5.724   2.820   5.958 -0.2627  0.3031 -0.0415
   17MOL0     C 2210   5.672   2.930   5.987 -0.4870  0.3095 -0.3370
   17MOL0     O 2211   5.730   3.045   6.048  0.7350 -0.1679 -0.5942
   17MOL0     C 2212   5.854   3.012   6.093 -0.1086  0.2263  0.4880
   17MOL0     C 2213   5.961   3.047   6.023  0.7130  0.3389  0.0926
   17MOL0     C 2214   6.085   2.997   6.048 -1.3136  0.3324 -0.4812
   17MOL0     C 2215   6.106   2.916   6.159  1.0266  0.1486  0.1625
   17MOL0     O 2216   6.222   2.865   6.191  0.0485 -0.1393 -0.3193
   17MOL0     C 2217   6.265   2.760   6.107 -0.9121  0.1336 -0.1772
   17MOL0     C 2218   6.396   2.800   6.036 -0.6340 -0.4636  0.2257
   17MOL0     C 2219   6.514   2.800   6.126 -0.4848  0.0477  0.1031
   17MOL0     C 2220   6.649   2.797   6.048 -0.0189  0.4615  0.0708
   17MOL0     C 2221   6.757   2.769   6.148 -0.3622 -0.6367 -0.3511
   17MOL0     C 2222   6.883   2.715   6.069 -1.1288 -1.1058  0.5969
   17MOL0     C 2223   7.015   2.729   6.154 -0.3526 -0.0699  0.3798
   17MOL0     C 2224   7.046   2.874   6.167  0.4160  0.2055  0.0271
   17MOL0     N 2225   7.181   2.899   6.218  0.4578  0.1035  0.5814
   17MOL0     C 2226   7.302   2.879   6.154 -0.0636  0.3674  0.2413
   17MOL0     C 2227   7.393   2.906   6.244 -0.8469 -1.2080  0.8068
   17MOL0     C 2228   7.536   2.908   6.216 -0.0467  0.1353  0.3694
   17MOL0     C 2229   7.593   2.991   6.099 -0.5074 -0.2112  0.7492
   17MOL0     C 2230   7.747   2.984   6.106 -0.2117 -0.3719  0.3614
   17MOL0     C 2231   7.806   3.106   6.187  0.0414  0.0179  0.5308
   17MOL0     O 2232   7.950   3.091   6.199 -0.2630  0.3097 -0.6138
   17MOL0     C 2233   8.004   3.042   6.319 -0.0398 -0.5007 -0.1288
   17MOL0     C 2234   7.923   2.987   6.426  0.4777 -0.2562  0.2701
   17MOL0     C 2235   7.983   2.947   6.545  0.0719 -1.3970  0.8491
   17MOL0     C 2236   7.890   2.894   6.647  0.5407 -0.0920 -0.3227
   17MOL0     C 2237   8.126   2.959   6.556  0.2425 -0.2227  0.0741
   17MOL0     C 2238   8.184   2.904   6.677 -0.5753  0.4682  0.5850
   17MOL0     O 2239   8.281   2.811   6.659 -0.3105  0.7204 -0.0820
   17MOL0     C 2240   8.328   2.723   6.755  0.6953 -0.8981 -0.0846
   17MOL0     C 2241   8.408   2.616   6.716 -0.3087 -0.9245 -0.0361
   17MOL0     C 2242   8.459   2.529   6.804 -0.1747 -0.3551  0.6207
   17MOL0     C 2243   8.438   2.535   6.939 -0.1520 -0.1178 -0.1306
   17MOL0     O 2244   8.491   2.447   7.028  0.2118  0.8129 -0.0641
   17MOL0     C 2245   8.450   2.308   7.007  0.3632 -0.0639 -0.7561
   17MOL0     C 2246   8.524   2.200   7.096  0.1761 -0.7208 -0.1531
   17MOL0     C 2247   8.503   2.222   7.247  0.1292 -1.1164  0.4741
   17MOL0     C 2248   8.587   2.121   7.321  0.3946 -1.1289 -0.4896
   17MOL0     C 2249   8.582   2.146   7.474 -0.5531  0.0472 -1.0628
   17MOL0     C 2250   8.667   2.054   7.566 -0.4115  0.4932  0.2545
   17MOL0     C 2251   8.665   2.104   7.715  0.3394  0.8890  1.3212
   17MOL0     C 2252   8.772   2.023   7.784  0.7414  1.0136  0.3572
   17MOL0    Cl 2253   8.799   2.070   7.948 -0.1502  0.0579  0.3364
   17MOL0     C 2254   8.361   2.647   6.985  0.4915  0.0202  0.1392
   17MOL0     C 2255   8.309   2.737   6.891  0.0493 -0.7676  0.3771
   17MOL0     O 2256   8.151   2.951   6.787 -0.1059 -0.0133  0.6361
   17MOL0     C 2257   8.205   2.994   6.447 -0.1696 -0.0982 -0.0657
   17MOL0     C 2258   8.145   3.045   6.329 -0.8232  1.0513 -0.3560
   17MOL0     N 2259   7.335   2.945   6.371 -0.7727  0.0084  0.5839
   17MOL0     N 2260   7.206   2.946   6.345  0.1958  0.7267 -0.5261
   17MOL0     C 2261   5.996   2.891   6.246  0.6621 -0.2086 -0.1294
   17MOL0     C 2262   5.872   2.950   6.210 -0.3799 -0.5846 -0.8100
   17MOL0     C 2263   5.540   2.970   5.942  1.3495  0.0575  0.3061
   17MOL0     C 2264   5.436   2.949   6.030 -0.6766 -0.7468 -0.3329
   17MOL0     C 2265   5.307   2.979   5.996  0.2221  0.1885  0.0292
   17MOL0     C 2266   5.270   3.027   5.868  0.7032  0.3680 -0.1815
   17MOL0     O 2267   5.140   3.052   5.825 -0.1323  0.5407  0.1432
   17MOL0     C 2268   5.034   3.049   5.927 -0.0540 -0.0528  0.1960
   17MOL0     C 2269   4.901   3.091   5.861  0.2158 -0.4632 -0.0865
   17MOL0     C 2270   4.881   3.248   5.880 -1.1778  0.0649  0.4895
   17MOL0     C 2271   4.737   3.300   5.856  0.2414 -0.3795  0.1708
   17MOL0     C 2272   4.690   3.279   5.716  0.3914  0.5265  0.7706
   17MOL0     C 2273   4.667   3.265   5.597  0.2481 -0.1698  0.7111
   17MOL0     C 2274   5.378   3.031   5.776 -0.2686 -0.3113 -0.1125
   17MOL0     C 2275   5.507   3.003   5.809 -0.6565  0.2190 -0.6549
   17MOL0     C 2276   5.610   2.981   5.695  0.4849 -0.5705 -0.2848
   17MOL0     H 2277   5.949   3.102   5.930  2.5239  1.2466  0.3327
   17MOL0     H 2278   6.164   3.016   5.976 -1.6031 -1.1728 -1.2471
   17MOL0     H 2279   6.203   2.738   6.020  1.5553 -2.4442 -1.4418
   17MOL0     H 2280   6.279   2.663   6.154  1.7153 -0.7215 -2.4434
   17MOL0     H 2281   6.417   2.728   5.957 -2.0707  0.9903 -1.5662
   17MOL0     H 2282   6.390   2.893   5.978  1.4160  0.7870  1.8849
   17MOL0     H 2283   6.514   2.879   6.202  2.0057 -1.9613  2.4237
   17MOL0     H 2284   6.506   2.707   6.184 -2.3980 -0.5169 -0.9765
   17MOL0     H 2285   6.643   2.717   5.973 -2.9715 -1.3163  1.9781
   17MOL0     H 2286   6.676   2.890   5.998 -2.3705 -0.1871 -2.6521
   17MOL0     H 2287   6.739   2.689   6.221  1.6789 -2.4452 -1.6944
   17MOL0     H 2288   6.771   2.865   6.199 -1.9137  0.1297 -1.2791
   17MOL0     H 2289   6.885   2.612   6.034 -0.1212 -0.3989 -1.5959
   17MOL0     H 2290   6.890   2.781   5.982  2.0657 -0.7062  1.0333
   17MOL0     H 2291   7.094   2.681   6.096  1.6006  1.2526  1.8173
   17MOL0     H 2292   7.000   2.679   6.250  0.9876  2.1968  1.8793
   17MOL0     H 2293   7.044   2.937   6.078 -1.6772 -0.6740 -0.6205
   17MOL0     H 2294   6.982   2.919   6.243  0.1210  0.4693 -0.3736
   17MOL0     H 2295   7.323   2.861   6.049  0.3450  1.8842  0.0438
   17MOL0     H 2296   7.575   2.807   6.200  0.4022  0.1624  1.2144
   17MOL0     H 2297   7.573   2.930   6.317 -0.6273 -0.4424  0.7080
   17MOL0     H 2298   7.574   2.949   6.000  2.1609  1.4440 -0.5611
   17MOL0     H 2299   7.564   3.097   6.104 -0.1577 -0.0761  0.0321
   17MOL0     H 2300   7.770   2.887   6.151 -2.1741 -1.0045  0.1180
   17MOL0     H 2301   7.790   2.993   6.006 -0.6912 -1.5756  0.0340
   17MOL0     H 2302   7.788   3.199   6.132  1.4395  0.5920  0.9973
   17MOL0     H 2303   7.748   3.116   6.280 -0.7042  0.7730 -0.0013
   17MOL0     H 2304   7.817   2.964   6.416 -0.1788  2.1363  0.9131
   17MOL0     H 2305   7.939   2.829   6.720  1.6912  1.2040  0.1212
   17MOL0     H 2306   7.806   2.862   6.586  0.2921  2.8999 -1.7417
   17MOL0     H 2307   7.858   2.977   6.710 -1.3937 -1.9393  1.2488
   17MOL0     H 2308   8.426   2.600   6.610 -2.9820  0.5084 -0.7775
   17MOL0     H 2309   8.519   2.446   6.769  0.7946  1.2035 -1.6849
   17MOL0     H 2310   8.343   2.301   7.028  0.9776 -0.0087  3.0484
   17MOL0     H 2311   8.455   2.277   6.902  1.6559  0.2210 -0.7969
   17MOL0     H 2312   8.515   2.096   7.064  2.6048 -1.4024  1.1988
   17MOL0     H 2313   8.632   2.213   7.084  0.5245 -2.6186  0.6655
   17MOL0     H 2314   8.397   2.203   7.269 -0.5718 -0.3416 -1.8537
   17MOL0     H 2315   8.526   2.328   7.267  0.9782 -1.0991 -0.5171
   17MOL0     H 2316   8.688   2.144   7.286  0.4590  0.3700  0.5987
   17MOL0     H 2317   8.559   2.017   7.303 -4.5697 -0.7626  3.0870
   17MOL0     H 2318   8.629   2.242   7.498  1.3551 -1.2053  0.5092
   17MOL0     H 2319   8.482   2.157   7.515  0.8304 -0.4428  2.8149
   17MOL0     H 2320   8.771   2.068   7.536 -0.3508  1.0945  0.7196
   17MOL0     H 2321   8.627   1.953   7.554  0.1891 -0.1242  2.8870
   17MOL0     H 2322   8.563   2.071   7.740  0.0559  0.9029  0.2094
   17MOL0     H 2323   8.677   2.212   7.712 -3.1333  1.3869 -0.8698
   17MOL0     H 2324   8.869   2.042   7.738  0.5443  1.1258 -0.0213
   17MOL0     H 2325   8.743   1.917   7.784 -1.1289  1.4520  2.2851
   17MOL0     H 2326   8.347   2.652   7.092  2.4119 -4.6742  0.8647
   17MOL0     H 2327   8.246   2.806   6.946 -0.7023  0.1601 -1.5721
   17MOL0     H 2328   8.313   2.985   6.459 -0.2832  0.1874  1.2340
   17MOL0     H 2329   8.200   3.098   6.251 -2.1080  6.0004  1.7304
   17MOL0     H 2330   6.000   2.824   6.331 -0.6031 -1.6069 -1.1130
   17MOL0     H 2331   5.790   2.931   6.279  0.8947 -1.3026  0.5688
   17MOL0     H 2332   5.432   2.912   6.132 -0.3351  1.2340  0.4416
   17MOL0     H 2333   5.237   2.981   6.079  0.7987  1.2710  0.5120
   17MOL0     H 2334   5.021   2.949   5.967 -2.2965 -0.0865 -0.4596
   17MOL0     H 2335   5.068   3.119   6.003  1.6663 -1.6049  0.9156
   17MOL0     H 2336   4.813   3.046   5.908 -0.2514 -2.4504 -2.6413
   17MOL0     H 2337   4.887   3.065   5.756  1.7587 -1.4429 -0.0782
   17MOL0     H 2338   4.909   3.286   5.979 -2.3238  0.1588  0.7918
   17MOL0     H 2339   4.942   3.302   5.807 -5.5714  1.3230 -2.6945
   17MOL0     H 2340   4.727   3.408   5.873 -0.2846 -0.2184 -1.0890
   17MOL0     H 2341   4.672   3.252   5.931  1.4580 -4.0732 -0.9480
   17MOL0     H 2342   4.641   3.264   5.493 -0.7316  0.4121  0.9279
   17MOL0     H 2343   5.359   3.062   5.674  1.3986 -1.9098 -0.9671
   17MOL0     H 2344   5.600   2.880   5.655  1.3813 -0.5780 -0.5135
   17MOL0     H 2345   5.582   3.051   5.616  0.4635  0.7328  0.8393
   17MOL0     H 2346   5.713   3.005   5.721  0.2358  0.0970  0.1176
   18MOL0     O 2347   3.387   0.768  10.170  0.4002  0.8120 -0.3361
   18MOL0     C 2348   3.393   0.664  10.233  0.4826 -0.8556 -0.2226
   18MOL0     O 2349   3.353   0.540  10.182 -0.5363 -0.2161  0.8043
   18MOL0     C 2350   3.405   0.496  10.056 -0.0625 -0.1117 -0.1671
   18MOL0     C 2351   3.377   0.369  10.006  1.0072 -0.7100 -0.0324
   18MOL0     C 2352   3.414   0.325   9.874  1.1040 -0.6867 -0.1586
   18MOL0     C 2353   3.484   0.410   9.796 -1.1556  0.3370  0.6788
   18MOL0     O 2354   3.531   0.351   9.682  0.0694  0.4492 -0.2793
   18MOL0     C 2355   3.606   0.421   9.587 -0.6508 -0.5031 -0.0722
   18MOL0     C 2356   3.631   0.323   9.464 -0.2700  0.4435  0.2527
   18MOL0     C 2357   3.502   0.310   9.384  0.4159  0.7059  0.1967
   18MOL0     C 2358   3.512   0.238   9.263 -1.1894  0.3383 -0.1087
   18MOL0     C 2359   3.380   0.189   9.188  0.0005 -0.0304 -0.0330
   18MOL0     C 2360   3.308   0.075   9.259  0.4753 -0.8346 -0.1127
   18MOL0     C 2361   3.176   0.041   9.187 -0.2935 -0.2326 -0.1871
   18MOL0     C 2362   3.092  -0.025   9.291  0.5633  0.3055  0.1309
   18MOL0     N 2363   3.150  -0.144   9.355  0.0009  0.1826  0.1825
   18MOL0     C 2364   3.210  -0.249   9.290 -0.2738  0.3699  0.1550
   18MOL0     C 2365   3.248  -0.322   9.398  0.0661  0.6654  0.7561
   18MOL0     C 2366   3.340  -0.441   9.372  0.0463 -0.4635 -0.4107
   18MOL0     C 2367   3.283  -0.553   9.289 -0.6572 -0.0370 -0.4263
   18MOL0     C 2368   3.146  -0.596   9.342 -0.0217 -0.3739  0.0445
   18MOL0     C 2369   3.146  -0.648   9.490  0.7227 -0.3787 -0.1558
   18MOL0     O 2370   3.252  -0.747   9.507  0.2806  0.6348 -0.3405
   18MOL0     C 2371   3.287  -0.757   9.645 -0.1029 -0.7448  0.2661
   18MOL0     C 2372   3.402  -0.685   9.690 -0.6580 -0.3602 -0.7676
   18MOL0     C 2373   3.446  -0.697   9.820  0.5454 -0.4834 -0.0224
   18MOL0     C 2374   3.572  -0.623   9.857 -0.5527  0.2268  0.4333
   18MOL0     C 2375   3.370  -0.776   9.912  0.2756 -0.4383  0.0984
   18MOL0     C 2376   3.399  -0.797  10.053  0.7183  0.7438  0.1333
   18MOL0     O 2377   3.331  -0.902  10.113  0.9856 -0.5002  0.4665
   18MOL0     C 2378   3.357  -0.934  10.238 -0.6934  0.3211 -0.2477
   18MOL0     C 2379   3.466  -1.025  10.274  0.1372 -0.3318  0.3806
   18MOL0     C 2380   3.472  -1.074  10.403  0.1131  0.0982 -0.0855
   18MOL0     C 2381   3.390  -1.034  10.510 -0.0834  1.0370 -1.0514
   18MOL0     O 2382   3.421  -1.082  10.640  0.6367  0.8064 -0.4320
   18MOL0     C 2383   3.306  -1.086  10.725  0.3336 -0.2476 -0.4200
   18MOL0     C 2384   3.336  -1.155  10.857 -0.1737  0.4663  0.3723
   18MOL0     C 2385   3.434  -1.087  10.934 -1.5539 -0.1882 -0.3024
   18MOL0     C 2386   3.468  -1.146  11.070  0.7334  0.5918  0.7612
   18MOL0     C 2387   3.605  -1.083  11.111 -0.5999 -0.0891  0.0526
   18MOL0     C 2388   3.619  -1.089  11.260 -0.8526  0.6412 -0.3469
   18MOL0     C 2389   3.720  -0.993  11.318 -0.8983 -0.5013  0.0743
   18MOL0     C 2390   3.733  -1.009  11.467 -0.0758 -0.5976 -0.2196
   18MOL0    Cl 2391   3.831  -0.874  11.532 -0.2290  0.7200  0.2760
   18MOL0     C 2392   3.295  -0.936  10.477 -0.3126  0.6237  0.6896
   18MOL0     C 2393   3.274  -0.899  10.342  0.2268 -0.4831  0.3297
   18MOL0     O 2394   3.479  -0.720  10.114  0.2189 -0.4178 -0.2160
   18MOL0     C 2395   3.254  -0.843   9.858  0.3397  0.4667  0.2549
   18MOL0     C 2396   3.214  -0.835   9.729  0.8580 -0.2515 -0.2470
   18MOL0     N 2397   3.199  -0.279   9.520  0.0343  0.4854 -0.2192
   18MOL0     N 2398   3.135  -0.176   9.488  0.1927  0.0125  0.7144
   18MOL0     C 2399   3.514   0.538   9.836 -0.5045 -0.2343  0.2803
   18MOL0     C 2400   3.471   0.582   9.966 -0.5506  0.2578 -0.5875
   18MOL0     C 2401   3.416   0.670  10.379 -0.1775  0.2897 -0.5699
   18MOL0     C 2402   3.362   0.784  10.446  1.2919  0.3261 -0.2263
   18MOL0     C 2403   3.373   0.787  10.588 -1.2226 -0.2237  0.1518
   18MOL0     C 2404   3.432   0.681  10.666 -0.3509  0.6319  0.0522
   18MOL0     O 2405   3.444   0.678  10.800 -0.7117  0.3584 -0.5269
   18MOL0     C 2406   3.385   0.794  10.869 -0.4454  0.1778  0.0966
   18MOL0     C 2407   3.380   0.770  11.022  0.4822  0.3506  0.9531
   18MOL0     C 2408   3.298   0.649  11.070  0.5609  0.7250  0.6853
   18MOL0     C 2409   3.323   0.637  11.219  0.1368  0.7165  0.1206
   18MOL0     C 2410   3.242   0.533  11.292  0.2786  1.1695 -0.3344
   18MOL0     C 2411   3.184   0.434  11.342  0.1394  0.3908  0.1323
   18MOL0     C 2412   3.494   0.577  10.590 -0.3643 -0.7802  1.0110
   18MOL0     C 2413   3.477   0.565  10.455  0.8039 -0.2174 -0.0136
   18MOL0     C 2414   3.526   0.442  10.386  0.2562  0.1525 -0.2860
   18MOL0     H 2415   3.316   0.297  10.060 -0.1480 -0.1979 -0.6272
   18MOL0     H 2416   3.396   0.221   9.849  2.0359 -0.4020 -2.1728
   18MOL0     H 2417   3.695   0.450   9.643 -0.5310  0.4853 -0.7493
   18MOL0     H 2418   3.561   0.514   9.553  1.8451  1.2934  1.2159
   18MOL0     H 2419   3.719   0.356   9.409  0.6976 -1.6301  0.4853
   18MOL0     H 2420   3.670   0.228   9.502 -1.8090  0.6408  2.5634
   18MOL0     H 2421   3.422   0.264   9.442  1.3890 -0.2542  0.8201
   18MOL0     H 2422   3.464   0.409   9.356 -0.5121 -0.2890 -2.3723
   18MOL0     H 2423   3.564   0.293   9.184 -1.7507 -0.8397 -1.3315
   18MOL0     H 2424   3.581   0.154   9.275 -0.5220  0.4594 -2.5094
   18MOL0     H 2425   3.398   0.168   9.082  4.3614  2.8696 -0.1223
   18MOL0     H 2426   3.317   0.278   9.196 -3.0753 -2.0960  0.4079
   18MOL0     H 2427   3.377  -0.009   9.253 -0.1253 -1.2835 -0.9895
   18MOL0     H 2428   3.289   0.109   9.361  2.0260  1.1140 -0.4127
   18MOL0     H 2429   3.196  -0.007   9.091 -3.2473 -2.5032  0.1817
   18MOL0     H 2430   3.116   0.125   9.151  0.4078 -0.2102 -1.3613
   18MOL0     H 2431   3.077   0.051   9.367  0.8252 -0.4770  0.9825
   18MOL0     H 2432   2.992  -0.055   9.258  0.2757 -1.5078  2.3733
   18MOL0     H 2433   3.217  -0.266   9.183 -2.0183 -0.1058  0.0817
   18MOL0     H 2434   3.360  -0.482   9.471  0.6957 -0.8691 -0.7014
   18MOL0     H 2435   3.442  -0.418   9.341  0.2572 -1.1990 -0.2837
   18MOL0     H 2436   3.266  -0.520   9.186 -3.7120 -1.4968 -0.4910
   18MOL0     H 2437   3.347  -0.641   9.288 -2.0368 -1.1326  1.3544
   18MOL0     H 2438   3.074  -0.513   9.348  0.4463  0.0926 -0.6800
   18MOL0     H 2439   3.103  -0.669   9.273  1.8964 -2.0251  0.5027
   18MOL0     H 2440   3.154  -0.565   9.560 -2.6828 -0.9646  1.0833
   18MOL0     H 2441   3.044  -0.685   9.500 -0.5664  1.2512 -4.6929
   18MOL0     H 2442   3.458  -0.621   9.623  0.7075  2.4002  2.7007
   18MOL0     H 2443   3.632  -0.591   9.772  1.6211 -0.9308  1.4492
   18MOL0     H 2444   3.637  -0.689   9.915  0.5957 -0.3923 -1.4755
   18MOL0     H 2445   3.558  -0.538   9.925  3.7224  0.7366  0.9327
   18MOL0     H 2446   3.535  -1.057  10.197  3.3192 -1.0407  3.2894
   18MOL0     H 2447   3.544  -1.151  10.430  0.6146  0.6323  0.1268
   18MOL0     H 2448   3.261  -0.989  10.748 -1.1995 -0.9315 -0.4500
   18MOL0     H 2449   3.232  -1.140  10.667  1.3964 -0.0023 -2.0667
   18MOL0     H 2450   3.241  -1.163  10.911 -0.8875  2.7811 -0.4300
   18MOL0     H 2451   3.372  -1.256  10.836 -2.9399 -0.9525  1.9094
   18MOL0     H 2452   3.400  -0.986  10.955 -0.7101  0.6523 -2.6678
   18MOL0     H 2453   3.529  -1.078  10.880 -0.5720  0.8851  1.4997
   18MOL0     H 2454   3.495  -1.252  11.064  1.2941  0.7388  0.6525
   18MOL0     H 2455   3.390  -1.134  11.145  0.4503 -0.4920  0.6668
   18MOL0     H 2456   3.691  -1.135  11.067  0.5176 -0.7182  2.7806
   18MOL0     H 2457   3.609  -0.981  11.072  2.1952 -0.1629 -0.0310
   18MOL0     H 2458   3.642  -1.194  11.281  0.0141  1.0046  0.6343
   18MOL0     H 2459   3.526  -1.073  11.316 -0.4590 -0.4955  0.6691
   18MOL0     H 2460   3.680  -0.891  11.306 -1.6713 -0.9202 -1.0743
   18MOL0     H 2461   3.821  -0.996  11.277 -0.6250  2.2273  0.3473
   18MOL0     H 2462   3.776  -1.103  11.503  0.3455  0.5261  2.4554
   18MOL0     H 2463   3.633  -1.005  11.512 -1.1550 -0.3907 -2.4868
   18MOL0     H 2464   3.235  -0.899  10.559  1.5890  2.3441  1.3786
   18MOL0     H 2465   3.186  -0.840  10.317  0.7602 -0.3433 -1.3494
   18MOL0     H 2466   3.182  -0.905   9.911 -0.3575  0.3132 -0.8391
   18MOL0     H 2467   3.131  -0.898   9.700 -0.2616  1.2671 -0.4433
   18MOL0     H 2468   3.541   0.601   9.752 -2.9821 -0.5998 -0.8854
   18MOL0     H 2469   3.500   0.683   9.994 -0.0590 -0.2304  0.7723
   18MOL0     H 2470   3.318   0.861  10.384  2.1638  2.3223  1.5095
   18MOL0     H 2471   3.347   0.881  10.636  1.9760  1.9444 -1.9487
   18MOL0     H 2472   3.438   0.889  10.851 -0.4786  0.0349 -0.7938
   18MOL0     H 2473   3.281   0.800  10.837 -0.5348  1.6624  0.5986
   18MOL0     H 2474   3.354   0.866  11.067  0.6888 -0.3619  2.6558
   18MOL0     H 2475   3.485   0.757  11.048  0.9352  1.9783  0.0405
   18MOL0     H 2476   3.193   0.669  11.044  0.4830  1.4332  1.5024
   18MOL0     H 2477   3.327   0.554  11.025 -1.5520  0.0264  0.7025
   18MOL0     H 2478   3.304   0.737  11.260  1.0963  1.2672 -0.7465
   18MOL0     H 2479   3.430   0.613  11.223  0.1946 -0.1487 -3.5963
   18MOL0     H 2480   3.129   0.355  11.389  2.1408  0.2455  2.4477
   18MOL0     H 2481   3.536   0.495  10.648  1.9633  0.9261  1.8463
   18MOL0     H 2482   3.575   0.377  10.459  2.7674 -1.3585 -3.0938
   18MOL0     H 2483   3.434   0.395  10.350 -0.5696 -0.0102  1.8906
   18MOL0     H 2484   3.591   0.451  10.298 -0.6558 -0.0023 -0.9951
   19MOL0     O 2485   1.426   2.453   6.191 -0.7677 -0.4259 -0.1560
   19MOL0     C 2486   1.361   2.390   6.105  0.9149 -0.2567 -0.6822
   19MOL0     O 2487   1.421   2.307   6.017  0.6668  0.0251  0.3728
   19MOL0     C 2488   1.558   2.310   5.987  0.9368  1.4292  0.1377
   19MOL0     C 2489   1.654   2.251   6.075  0.0458  0.5244 -0.3019
   19MOL0     C 2490   1.780   2.212   6.030 -0.0759  0.4339 -0.2768
   19MOL0     C 2491   1.812   2.231   5.891  0.8068 -0.9917  0.8410
   19MOL0     O 2492   1.940   2.208   5.840  0.0267 -0.1901  0.7381
   19MOL0     C 2493   2.044   2.264   5.909 -0.4485 -0.8315 -0.6849
   19MOL0     C 2494   2.131   2.161   5.988  0.1967  0.1006  0.4987
   19MOL0     C 2495   2.247   2.225   6.052  0.0205  0.0739  0.0073
   19MOL0     C 2496   2.320   2.131   6.146 -0.1007  0.6743 -0.6495
   19MOL0     C 2497   2.425   2.036   6.073  0.3378 -1.0418  0.1977
   19MOL0     C 2498   2.573   2.084   6.069  0.7244  0.9558 -0.2663
   19MOL0     C 2499   2.652   2.079   6.199 -0.2575 -0.0856 -0.8565
   19MOL0     C 2500   2.785   2.140   6.177  1.2031 -0.3257  0.3760
   19MOL0     N 2501   2.885   2.058   6.118  0.4452  0.1661  0.3919
   19MOL0     C 2502   2.948   1.954   6.175  0.7316  0.4526  0.6883
   19MOL0     C 2503   2.993   1.876   6.078  0.1587 -0.5477 -0.4877
   19MOL0     C 2504   3.078   1.764   6.105  0.2146  0.9298 -1.0953
   19MOL0     C 2505   3.220   1.783   6.050 -0.2430 -0.6467  0.0509
   19MOL0     C 2506   3.312   1.669   6.108 -0.2051  0.6157  0.2163
   19MOL0     C 2507   3.339   1.680   6.262 -0.2733 -0.0983  0.5118
   19MOL0     O 2508   3.443   1.598   6.305  0.2464 -0.8000 -0.3436
   19MOL0     C 2509   3.571   1.607   6.258 -0.8018  0.3459  0.4820
   19MOL0     C 2510   3.648   1.490   6.258 -0.9672  0.5863 -0.5820
   19MOL0     C 2511   3.777   1.484   6.194  0.4420 -0.6089  0.1222
   19MOL0     C 2512   3.848   1.349   6.193 -0.8772 -0.2487  0.7028
   19MOL0     C 2513   3.826   1.607   6.134 -0.7010 -0.7039 -0.4247
   19MOL0     C 2514   3.967   1.620   6.083  0.6024 -0.1559  0.2169
   19MOL0     O 2515   3.990   1.726   6.008 -0.2790 -0.4850  0.1132
   19MOL0     C 2516   4.119   1.779   5.979  0.0995 -1.0500  0.7694
   19MOL0     C 2517   4.138   1.851   5.860 -0.5404 -0.3951  0.9713
   19MOL0     C 2518   4.256   1.922   5.834 -0.4086 -0.0912  0.0621
   19MOL0     C 2519   4.359   1.922   5.929  0.0487  0.0616  0.4757
   19MOL0     O 2520   4.459   2.014   5.901 -0.2723 -0.4818 -0.1286
   19MOL0     C 2521   4.555   2.048   6.002 -0.8574  0.4993 -0.7913
   19MOL0     C 2522   4.499   2.151   6.103  0.1980 -0.1801 -0.4129
   19MOL0     C 2523   4.426   2.275   6.049  0.2755 -0.3640 -1.2904
   19MOL0     C 2524   4.486   2.329   5.917 -0.6198 -0.4705  0.3663
   19MOL0     C 2525   4.435   2.473   5.894  0.4738  0.7077 -0.9945
   19MOL0     C 2526   4.534   2.544   5.806 -0.2122 -0.0969  0.6015
   19MOL0     C 2527   4.480   2.682   5.751  0.8784 -0.1232  0.0337
   19MOL0     C 2528   4.554   2.749   5.638 -0.2116  0.6705 -1.3597
   19MOL0    Cl 2529   4.726   2.765   5.689  0.1918 -0.0334 -0.0922
   19MOL0     C 2530   4.339   1.854   6.052 -0.2407  0.5934 -0.3023
   19MOL0     C 2531   4.225   1.774   6.066 -0.8648 -1.1604  0.2912
   19MOL0     O 2532   4.050   1.538   6.128  0.8814 -0.3697  0.3980
   19MOL0     C 2533   3.747   1.719   6.136 -0.1857  0.5386 -0.1448
   19MOL0     C 2534   3.626   1.713   6.196  0.2274 -0.7155  0.8823
   19MOL0     N 2535   2.961   1.939   5.957 -0.4555 -0.1216  0.0724
   19MOL0     N 2536   2.890   2.044   5.980 -0.9953  0.5164  0.0655
   19MOL0     C 2537   1.718   2.301   5.807 -0.7860 -0.3909  0.0670
   19MOL0     C 2538   1.591   2.331   5.856  0.4614 -0.4502  0.4723
   19MOL0     C 2539   1.216   2.386   6.115  0.1216 -0.4589 -1.0316
   19MOL0     C 2540   1.150   2.285   6.045  0.4983  0.1659  0.0466
   19MOL0     C 2541   1.015   2.268   6.054  0.1666 -0.1704 -0.4499
   19MOL0     C 2542   0.932   2.352   6.127  0.3593 -0.1383 -0.5107
   19MOL0     O 2543   0.795   2.349   6.140 -0.0385 -0.2556  0.2018
   19MOL0     C 2544   0.726   2.242   6.076 -0.4255 -0.3908 -0.3122
   19MOL0     C 2545   0.675   2.296   5.948  0.8464 -1.4027  0.0744
   19MOL0     C 2546   0.637   2.176   5.851 -0.6278 -0.4552  0.0382
   19MOL0     C 2547   0.517   2.096   5.909 -0.4963  0.1150 -0.3878
   19MOL0     C 2548   0.487   1.992   5.812  0.2878  0.8378 -0.3351
   19MOL0     C 2549   0.462   1.910   5.728  0.5873 -0.0722  0.3129
   19MOL0     C 2550   0.999   2.449   6.195 -1.1006 -0.1424  0.4558
   19MOL0     C 2551   1.145   2.473   6.196  1.0983  0.5788 -0.7459
   19MOL0     C 2552   1.209   2.594   6.268  0.6819 -0.2284 -0.3928
   19MOL0     H 2553   1.630   2.236   6.180  1.2183 -2.2677 -0.3411
   19MOL0     H 2554   1.848   2.166   6.101  1.2246  0.1252 -1.6745
   19MOL0     H 2555   1.994   2.337   5.973 -1.1389  0.1375 -2.2679
   19MOL0     H 2556   2.105   2.326   5.843 -0.0945 -0.8446 -0.3752
   19MOL0     H 2557   2.075   2.095   6.055  0.4161  0.3738  0.9552
   19MOL0     H 2558   2.174   2.105   5.904  0.7420 -0.6119  1.2334
   19MOL0     H 2559   2.323   2.268   5.986  0.6912  0.7024  1.1356
   19MOL0     H 2560   2.208   2.311   6.107 -2.2679 -1.9620  1.7865
   19MOL0     H 2561   2.370   2.191   6.222  2.0445 -0.9958 -0.6621
   19MOL0     H 2562   2.240   2.077   6.197  1.4036  3.8488  6.1936
   19MOL0     H 2563   2.386   2.037   5.971  0.0641  1.3263  0.2665
   19MOL0     H 2564   2.420   1.932   6.107 -2.1014 -0.1294  3.0754
   19MOL0     H 2565   2.615   2.027   5.985 -1.3363 -2.4561  0.8007
   19MOL0     H 2566   2.567   2.188   6.035 -2.3326  0.9425 -0.1001
   19MOL0     H 2567   2.668   1.979   6.241  3.6995  0.2354 -1.1944
   19MOL0     H 2568   2.607   2.139   6.278  0.8389 -1.9965  1.3590
   19MOL0     H 2569   2.772   2.238   6.130  1.2218  0.1304  1.2978
   19MOL0     H 2570   2.832   2.173   6.270  1.1032 -1.0312  0.6816
   19MOL0     H 2571   2.949   1.928   6.280 -1.3993 -1.9237  0.2000
   19MOL0     H 2572   3.028   1.680   6.055  0.7650 -0.7036  0.9768
   19MOL0     H 2573   3.086   1.734   6.209 -0.2630  1.0720 -1.0151
   19MOL0     H 2574   3.209   1.771   5.942  0.0539  1.1346 -0.1967
   19MOL0     H 2575   3.257   1.880   6.083  4.3227 -2.0114 -0.2892
   19MOL0     H 2576   3.248   1.582   6.093 -2.1158  2.0269 -0.2745
   19MOL0     H 2577   3.406   1.659   6.053  0.2803 -0.7720  1.2367
   19MOL0     H 2578   3.355   1.785   6.288 -2.1423 -0.1998  2.2645
   19MOL0     H 2579   3.247   1.647   6.310 -0.6157  0.0066 -0.0588
   19MOL0     H 2580   3.599   1.407   6.308 -1.2314  0.5664 -0.8658
   19MOL0     H 2581   3.945   1.348   6.244  0.4548  2.0051 -1.5826
   19MOL0     H 2582   3.862   1.313   6.091 -0.1807 -1.1551  1.0962
   19MOL0     H 2583   3.781   1.273   6.236 -0.8366 -1.2692 -0.9824
   19MOL0     H 2584   4.053   1.856   5.793  0.6036  1.9337 -0.4471
   19MOL0     H 2585   4.260   1.986   5.747 -2.8223 -0.4009 -0.3284
   19MOL0     H 2586   4.592   1.962   6.058 -0.4411  0.5132 -1.0355
   19MOL0     H 2587   4.636   2.092   5.943  0.3202 -1.0058 -0.3863
   19MOL0     H 2588   4.423   2.104   6.165 -0.6892  3.1536  1.2933
   19MOL0     H 2589   4.582   2.184   6.165 -0.9722  0.6072  0.7815
   19MOL0     H 2590   4.435   2.357   6.121  1.7533  1.5261 -3.4744
   19MOL0     H 2591   4.320   2.247   6.046  0.3249 -1.3672  2.1156
   19MOL0     H 2592   4.454   2.260   5.838  1.5475 -1.4674  0.2682
   19MOL0     H 2593   4.595   2.323   5.915 -0.6680 -1.5771  0.5631
   19MOL0     H 2594   4.338   2.467   5.844  1.9729 -0.8870 -3.9491
   19MOL0     H 2595   4.424   2.523   5.991  0.7652 -0.9584 -0.0689
   19MOL0     H 2596   4.559   2.481   5.720  1.0871  0.6509  0.4000
   19MOL0     H 2597   4.635   2.553   5.846 -0.5800  1.7261  1.2314
   19MOL0     H 2598   4.465   2.746   5.838  2.7854  0.4793 -0.0349
   19MOL0     H 2599   4.376   2.672   5.719  0.1989 -0.8101  2.2208
   19MOL0     H 2600   4.516   2.850   5.620 -2.4720 -0.0296 -0.8503
   19MOL0     H 2601   4.551   2.699   5.541  0.8139 -1.4778 -0.3619
   19MOL0     H 2602   4.419   1.839   6.124 -0.7655  0.5232  0.2756
   19MOL0     H 2603   4.221   1.713   6.155  1.1997 -0.3851  0.9729
   19MOL0     H 2604   3.776   1.813   6.090  2.0521 -2.3972 -5.8285
   19MOL0     H 2605   3.560   1.799   6.209  0.0343 -0.6761 -0.3295
   19MOL0     H 2606   1.755   2.328   5.709 -3.1040  1.3498 -0.4309
   19MOL0     H 2607   1.518   2.362   5.782  1.2788 -1.5077 -0.8370
   19MOL0     H 2608   1.209   2.230   5.972  0.6937  0.7374 -0.2382
   19MOL0     H 2609   0.972   2.190   5.992  2.0811  0.2019 -2.3680
   19MOL0     H 2610   0.775   2.148   6.050 -0.0131 -0.3678  0.3470
   19MOL0     H 2611   0.648   2.215   6.148  0.1561  1.5944  1.1578
   19MOL0     H 2612   0.760   2.354   5.910  1.7518 -0.9477  2.5809
   19MOL0     H 2613   0.587   2.358   5.967 -0.2704 -1.2557 -4.4068
   19MOL0     H 2614   0.610   2.225   5.757  0.1479  1.4718  0.7883
   19MOL0     H 2615   0.726   2.112   5.844 -0.0436  0.2530  0.8187
   19MOL0     H 2616   0.441   2.174   5.913  1.8032  2.9623 -4.4309
   19MOL0     H 2617   0.531   2.047   6.006 -0.3840 -0.2093 -0.5662
   19MOL0     H 2618   0.436   1.834   5.657 -1.2924  0.6796  0.1176
   19MOL0     H 2619   0.951   2.538   6.236 -2.0657 -1.4291  2.2421
   19MOL0     H 2620   1.129   2.655   6.312 -1.8531 -2.3137 -1.7708
   19MOL0     H 2621   1.265   2.559   6.354  2.1304  2.3117 -0.1965
   19MOL0     H 2622   1.274   2.657   6.207  0.4394  0.3590 -0.0517
   20MOL0     O 2623   8.816   5.585   5.007  0.1064  0.0993  0.3466
   20MOL0     C 2624   8.697   5.605   5.031 -0.8623  0.0782  0.3985
   20MOL0     O 2625   8.612   5.685   4.952  0.2417  0.1440  0.0391
   20MOL0     C 2626   8.651   5.712   4.826  0.1444 -0.9535 -0.2332
   20MOL0     C 2627   8.678   5.844   4.784 -0.9388  0.5198 -0.6143
   20MOL0     C 2628   8.725   5.877   4.657  0.4666 -0.1482  0.3989
   20MOL0     C 2629   8.730   5.771   4.560 -1.1705 -0.3512 -0.9971
   20MOL0     O 2630   8.787   5.810   4.444 -0.9001 -0.2163 -0.6122
   20MOL0     C 2631   8.813   5.708   4.345 -0.4220 -0.0510  0.2380
   20MOL0     C 2632   8.888   5.769   4.228  0.3375 -0.6945 -0.3696
   20MOL0     C 2633   8.889   5.674   4.110 -0.1026 -0.5418 -0.7476
   20MOL0     C 2634   9.010   5.586   4.134  0.1155  0.3768  0.3560
   20MOL0     C 2635   9.141   5.644   4.080 -0.0719 -0.2588 -0.0527
   20MOL0     C 2636   9.161   5.640   3.926 -0.6885  0.3918  0.3464
   20MOL0     C 2637   9.301   5.693   3.878 -0.3982 -0.1404 -0.1953
   20MOL0     C 2638   9.324   5.741   3.732 -0.4262 -0.7649 -0.6179
   20MOL0     N 2639   9.313   5.626   3.639  0.3624 -0.1074  0.1275
   20MOL0     C 2640   9.424   5.555   3.603  0.0696 -0.0326 -0.4123
   20MOL0     C 2641   9.378   5.447   3.548  0.3352  1.4924  0.1784
   20MOL0     C 2642   9.456   5.336   3.492 -0.0236  0.6853 -0.1927
   20MOL0     C 2643   9.502   5.355   3.354 -1.0813 -0.0167  0.1781
   20MOL0     C 2644   9.577   5.229   3.312  0.0489 -0.0048  0.9767
   20MOL0     C 2645   9.650   5.264   3.178  0.6055  0.5705 -0.2647
   20MOL0     O 2646   9.544   5.295   3.081 -0.9159 -0.3929  0.0822
   20MOL0     C 2647   9.580   5.390   2.990 -0.4027  0.2079 -0.3920
   20MOL0     C 2648   9.699   5.371   2.926 -0.2529  0.3217  0.6007
   20MOL0     C 2649   9.733   5.432   2.804  0.6376 -0.3553  0.0001
   20MOL0     C 2650   9.861   5.385   2.725  0.1605  0.3734  0.2692
   20MOL0     C 2651   9.639   5.527   2.748 -0.5304  0.4258  0.1624
   20MOL0     C 2652   9.652   5.598   2.613 -0.1240  0.3593 -0.4318
   20MOL0     O 2653   9.572   5.704   2.599 -0.3054 -0.0597 -0.5347
   20MOL0     C 2654   9.600   5.785   2.490  0.2565  0.1197  0.0363
   20MOL0     C 2655   9.736   5.823   2.467 -1.2655 -0.1854  0.3777
   20MOL0     C 2656   9.764   5.913   2.358  0.5471  0.5532 -1.4927
   20MOL0     C 2657   9.660   5.959   2.269 -0.8055  0.1872 -1.0168
   20MOL0     O 2658   9.711   6.047   2.177 -0.1081 -0.1382 -0.7967
   20MOL0     C 2659   9.618   6.089   2.080  0.0905 -1.0012 -0.3728
   20MOL0     C 2660   9.702   6.135   1.966 -0.3076 -0.4251  0.3596
   20MOL0     C 2661   9.782   6.026   1.901 -0.9022 -0.0685 -0.2613
   20MOL0     C 2662   9.856   6.083   1.775  0.1343 -0.1282 -0.3440
   20MOL0     C 2663   9.905   5.964   1.692 -0.4693  0.4352 -0.6715
   20MOL0     C 2664  10.010   5.874   1.743  0.0241 -0.0927  0.0146
   20MOL0     C 2665  10.135   5.955   1.776  0.0727  1.0517 -0.3348
   20MOL0     C 2666  10.266   5.872   1.785  0.3311  0.8946  0.2809
   20MOL0    Cl 2667  10.388   5.943   1.900 -0.2965  0.1477  0.0544
   20MOL0     C 2668   9.532   5.924   2.304 -0.6306  0.8204 -0.5814
   20MOL0     C 2669   9.505   5.836   2.409  0.6805 -0.1095  0.2204
   20MOL0     O 2670   9.720   5.546   2.523 -0.9212 -0.0545  0.8000
   20MOL0     C 2671   9.525   5.564   2.829 -0.0772  0.1131 -0.0460
   20MOL0     C 2672   9.489   5.487   2.945  0.0836 -0.9603  0.4329
   20MOL0     N 2673   9.241   5.451   3.545  1.0798  0.8760  0.0516
   20MOL0     N 2674   9.202   5.558   3.593  0.7302 -0.4522  0.2558
   20MOL0     C 2675   8.698   5.637   4.599  0.4193  0.5175  0.5084
   20MOL0     C 2676   8.656   5.611   4.727  0.5791  0.6134  0.5576
   20MOL0     C 2677   8.637   5.549   5.145  0.9905  0.0302 -0.2254
   20MOL0     C 2678   8.498   5.508   5.140 -1.4179  0.4760  0.9209
   20MOL0     C 2679   8.433   5.442   5.251  0.5776  0.7219 -0.2280
   20MOL0     C 2680   8.509   5.430   5.369  0.2279  0.2091 -0.7146
   20MOL0     O 2681   8.470   5.371   5.485 -0.4395  0.2707  0.0591
   20MOL0     C 2682   8.337   5.368   5.529  0.0975 -0.2236  0.7798
   20MOL0     C 2683   8.329   5.337   5.678 -0.4027 -0.0804  0.0169
   20MOL0     C 2684   8.195   5.261   5.706  1.0132  1.4744 -0.8583
   20MOL0     C 2685   8.166   5.228   5.863  0.2847 -0.4087 -0.3879
   20MOL0     C 2686   8.097   5.100   5.889 -0.1624 -0.0450 -0.3164
   20MOL0     C 2687   8.018   5.012   5.908  0.9788 -0.4481  1.2428
   20MOL0     C 2688   8.647   5.467   5.369  0.8230 -0.0320  0.4442
   20MOL0     C 2689   8.712   5.528   5.264 -0.4349  1.2826 -0.1245
   20MOL0     C 2690   8.856   5.561   5.294 -0.8519 -1.2164  0.9648
   20MOL0     H 2691   8.691   5.926   4.854 -3.9678 -1.8512  3.1292
   20MOL0     H 2692   8.757   5.979   4.638  0.1080 -0.3254 -1.3504
   20MOL0     H 2693   8.715   5.671   4.315 -1.0398 -0.6167  2.6874
   20MOL0     H 2694   8.870   5.624   4.386 -1.7109 -1.0814 -0.0084
   20MOL0     H 2695   8.839   5.865   4.206  1.4577  1.0609  3.8611
   20MOL0     H 2696   8.987   5.801   4.262 -1.3642  2.2407  2.4147
   20MOL0     H 2697   8.792   5.625   4.097  0.3861 -1.3207 -1.6718
   20MOL0     H 2698   8.904   5.720   4.012 -0.6908  0.9945 -0.1388
   20MOL0     H 2699   9.019   5.570   4.242 -1.8089  0.1324  0.5118
   20MOL0     H 2700   9.000   5.485   4.092 -0.1235  0.3712  0.4274
   20MOL0     H 2701   9.229   5.598   4.126 -0.1369 -2.2043 -1.7427
   20MOL0     H 2702   9.144   5.751   4.105 -0.1310 -0.1106 -0.6666
   20MOL0     H 2703   9.162   5.537   3.891  2.9400  0.6322 -0.6298
   20MOL0     H 2704   9.083   5.699   3.876 -2.5407 -2.2331 -0.0834
   20MOL0     H 2705   9.370   5.608   3.880  0.1849  0.3384  1.6915
   20MOL0     H 2706   9.349   5.755   3.954  1.5322 -1.5332 -0.1934
   20MOL0     H 2707   9.254   5.822   3.708 -0.1748  0.2881  1.8564
   20MOL0     H 2708   9.426   5.779   3.728  0.0393 -2.0824 -3.0284
   20MOL0     H 2709   9.526   5.591   3.610 -0.6720  2.2420 -0.5372
   20MOL0     H 2710   9.383   5.254   3.484 -1.0854  1.7540 -2.3272
   20MOL0     H 2711   9.536   5.315   3.564  0.0696 -0.0591 -0.5025
   20MOL0     H 2712   9.421   5.379   3.285 -0.4766  0.3327 -0.4161
   20MOL0     H 2713   9.568   5.442   3.352  0.0581 -0.8673 -0.4086
   20MOL0     H 2714   9.642   5.190   3.391  0.3727  0.7102  1.0658
   20MOL0     H 2715   9.506   5.148   3.292 -0.3317 -0.0146  2.3104
   20MOL0     H 2716   9.727   5.341   3.188  0.2807  0.9086 -0.3869
   20MOL0     H 2717   9.701   5.170   3.151  0.3817 -0.4921  2.6367
   20MOL0     H 2718   9.771   5.291   2.946 -0.0594 -0.5769 -3.0470
   20MOL0     H 2719   9.931   5.466   2.700  2.1957 -1.3989 -0.0603
   20MOL0     H 2720   9.834   5.339   2.630 -2.0445  1.4567  0.2945
   20MOL0     H 2721   9.916   5.312   2.785  0.0804  0.4320  0.4136
   20MOL0     H 2722   9.823   5.786   2.519  0.0781 -0.3541 -1.8367
   20MOL0     H 2723   9.866   5.949   2.347 -0.1946  4.2025  1.5545
   20MOL0     H 2724   9.540   6.017   2.054 -0.1163 -0.2923 -1.8121
   20MOL0     H 2725   9.563   6.175   2.121  2.4501 -0.5935  2.2083
   20MOL0     H 2726   9.626   6.173   1.897 -2.8750  1.1094  3.7305
   20MOL0     H 2727   9.772   6.216   1.990  1.1542 -0.7783 -2.3236
   20MOL0     H 2728   9.712   5.946   1.873  0.1629 -0.6294 -1.4525
   20MOL0     H 2729   9.851   5.986   1.976 -0.5290  1.8434  0.4702
   20MOL0     H 2730   9.947   6.138   1.800  0.3795 -0.7663  0.2114
   20MOL0     H 2731   9.787   6.133   1.706 -2.7999 -1.2959  1.5314
   20MOL0     H 2732   9.818   5.900   1.674 -0.9760 -0.6270  4.2519
   20MOL0     H 2733   9.937   5.992   1.591  0.7609  1.9816  0.0839
   20MOL0     H 2734  10.027   5.798   1.666 -1.2482 -1.2611  0.8353
   20MOL0     H 2735   9.964   5.824   1.829  1.5915 -1.1316  0.2968
   20MOL0     H 2736  10.100   6.002   1.868 -1.6015  3.6740 -2.1786
   20MOL0     H 2737  10.144   6.033   1.700  0.4719  3.1153  1.7127
   20MOL0     H 2738  10.318   5.862   1.689  2.0909  2.8355  0.9574
   20MOL0     H 2739  10.235   5.775   1.825  1.0193  1.3465  2.0203
   20MOL0     H 2740   9.448   5.960   2.246  0.9175  0.1138 -3.4680
   20MOL0     H 2741   9.408   5.795   2.435  1.2464 -1.6259  0.0686
   20MOL0     H 2742   9.452   5.635   2.792  0.7010  0.3714 -1.1528
   20MOL0     H 2743   9.395   5.512   2.994 -1.2773  0.5925 -2.6709
   20MOL0     H 2744   8.709   5.558   4.526  0.8285  0.9217  0.1264
   20MOL0     H 2745   8.639   5.508   4.757 -0.9260  0.6357 -0.1162
   20MOL0     H 2746   8.442   5.530   5.049  0.2492  1.2937  0.0535
   20MOL0     H 2747   8.335   5.397   5.244  1.5952 -1.4402 -1.9175
   20MOL0     H 2748   8.281   5.458   5.502  1.5242 -0.3245 -3.3103
   20MOL0     H 2749   8.287   5.289   5.472  3.1648 -0.8295 -1.3323
   20MOL0     H 2750   8.336   5.426   5.741 -0.1424 -2.4759  3.6774
   20MOL0     H 2751   8.411   5.266   5.691 -1.0773 -1.2394 -1.7250
   20MOL0     H 2752   8.109   5.314   5.665 -0.8540 -3.1874 -3.7941
   20MOL0     H 2753   8.186   5.167   5.651  0.4435  0.3710  1.0205
   20MOL0     H 2754   8.114   5.305   5.920 -1.6461  0.9729 -3.6955
   20MOL0     H 2755   8.259   5.222   5.920  0.0661 -0.4602 -0.0340
   20MOL0     H 2756   7.946   4.933   5.915 -0.3814  0.7243  0.9529
   20MOL0     H 2757   8.700   5.450   5.462  0.5564 -0.1765  0.5716
   20MOL0     H 2758   8.878   5.668   5.302 -1.6770 -0.5669 -3.2244
   20MOL0     H 2759   8.890   5.533   5.394  2.2443  1.1273  0.7407
   20MOL0     H 2760   8.923   5.516   5.220  0.7332 -0.0300  1.6281
   21MOL0     O 2761   5.847  11.256   2.111  0.1940 -0.2419 -0.4923
   21MOL0     C 2762   5.758  11.330   2.163 -0.3392 -0.2740 -0.3810
   21MOL0     O 2763   5.711  11.451   2.115 -0.4510  0.3236  0.1903
   21MOL0     C 2764   5.732  11.470   1.981  0.1439  1.1333 -0.5443
   21MOL0     C 2765   5.624  11.442   1.892 -0.4968  1.1638 -0.3374
   21MOL0     C 2766   5.634  11.472   1.758 -0.4760 -0.1699  0.6009
   21MOL0     C 2767   5.748  11.528   1.707 -0.4061  0.2532  0.3710
   21MOL0     O 2768   5.747  11.561   1.573  0.5151 -0.1984  0.0359
   21MOL0     C 2769   5.832  11.492   1.482  0.1347 -0.4949  0.1588
   21MOL0     C 2770   5.765  11.357   1.434 -0.5010  1.0027  0.7848
   21MOL0     C 2771   5.643  11.383   1.340 -0.1349 -0.1058  0.4798
   21MOL0     C 2772   5.633  11.276   1.235 -0.0922  0.0608 -0.1978
   21MOL0     C 2773   5.593  11.142   1.303  0.3358  0.4757 -0.7149
   21MOL0     C 2774   5.509  11.054   1.218 -0.3939  0.4294  0.0348
   21MOL0     C 2775   5.481  10.917   1.283 -1.3770  0.4454 -0.1111
   21MOL0     C 2776   5.424  10.837   1.163 -0.5689 -0.5844 -0.2639
   21MOL0     N 2777   5.299  10.884   1.106 -0.3858 -0.4014 -0.1116
   21MOL0     C 2778   5.301  10.993   1.022 -0.0971 -0.1164 -0.3322
   21MOL0     C 2779   5.174  11.042   1.013 -0.1223 -0.4339  0.2475
   21MOL0     C 2780   5.125  11.159   0.928 -0.7111  0.3740  0.0557
   21MOL0     C 2781   5.157  11.137   0.784  0.0255 -0.4153  0.1469
   21MOL0     C 2782   5.118  11.263   0.695  0.5643  0.2586 -0.2497
   21MOL0     C 2783   5.175  11.270   0.559  0.3741 -0.1943  0.1897
   21MOL0     O 2784   5.317  11.240   0.542  0.3746  0.1666 -0.4611
   21MOL0     C 2785   5.384  11.256   0.427  0.2529  0.7320 -0.5565
   21MOL0     C 2786   5.514  11.216   0.419 -0.2897  0.0279 -0.6739
   21MOL0     C 2787   5.584  11.213   0.303  0.3062 -0.6745  0.3215
   21MOL0     C 2788   5.720  11.167   0.324  0.2149  0.5100 -0.6148
   21MOL0     C 2789   5.523  11.227   0.177  0.7910  0.5595 -0.4719
   21MOL0     C 2790   5.579  11.189   0.049 -0.1828  0.1523 -0.6044
   21MOL0     O 2791   5.711  11.172   0.040  0.3357 -0.5360  0.2129
   21MOL0     C 2792   5.769  11.159  -0.085  0.0091  0.2938  0.2329
   21MOL0     C 2793   5.743  11.238  -0.203 -0.2008 -0.3714 -0.5314
   21MOL0     C 2794   5.816  11.212  -0.324 -0.5854 -0.0853  0.0522
   21MOL0     C 2795   5.916  11.118  -0.328  0.0165  1.1050  0.8720
   21MOL0     O 2796   5.996  11.111  -0.442 -0.0522 -0.3528 -0.7615
   21MOL0     C 2797   6.125  11.050  -0.443  1.0346  0.2759 -0.3722
   21MOL0     C 2798   6.229  11.150  -0.383 -0.4300  0.3266 -0.2563
   21MOL0     C 2799   6.374  11.102  -0.410 -0.5533 -0.3571 -0.1621
   21MOL0     C 2800   6.491  11.168  -0.339 -0.5187 -0.0105 -0.5016
   21MOL0     C 2801   6.486  11.316  -0.370  0.1883 -0.8382 -0.8202
   21MOL0     C 2802   6.624  11.382  -0.366 -0.2520  0.6710  0.9287
   21MOL0     C 2803   6.712  11.352  -0.495 -0.7115 -1.1964  0.8295
   21MOL0     C 2804   6.867  11.374  -0.447  0.4818  0.2352 -0.2552
   21MOL0    Cl 2805   6.905  11.526  -0.361 -0.1482 -0.0500  0.1462
   21MOL0     C 2806   5.942  11.041  -0.210 -0.1973 -0.2637  0.4843
   21MOL0     C 2807   5.868  11.065  -0.092  0.3807 -0.6034  0.2390
   21MOL0     O 2808   5.503  11.182  -0.046 -0.4072  0.2406 -0.0419
   21MOL0     C 2809   5.386  11.269   0.182  1.2206 -0.6516  0.3440
   21MOL0     C 2810   5.319  11.282   0.307  0.3629 -0.5682  0.6349
   21MOL0     N 2811   5.092  10.962   1.099 -0.0851 -0.3823  0.4967
   21MOL0     N 2812   5.170  10.877   1.155  0.0740 -0.8554 -0.9039
   21MOL0     C 2813   5.852  11.562   1.794  1.1539 -0.6362  1.2800
   21MOL0     C 2814   5.846  11.537   1.937  0.2196  0.4997  0.1704
   21MOL0     C 2815   5.712  11.280   2.292  0.3643 -0.2817  0.5387
   21MOL0     C 2816   5.803  11.228   2.385  0.4799  1.1805 -0.3501
   21MOL0     C 2817   5.763  11.179   2.512 -0.3081 -0.1670  0.8700
   21MOL0     C 2818   5.631  11.181   2.548  0.1704  0.6961 -0.5004
   21MOL0     O 2819   5.595  11.123   2.672 -0.3289  0.0870  0.1375
   21MOL0     C 2820   5.463  11.135   2.715 -0.6682  0.4426 -0.6256
   21MOL0     C 2821   5.450  11.047   2.839  0.1432 -0.9372 -0.2961
   21MOL0     C 2822   5.552  11.068   2.950 -0.5972 -0.2064  0.4511
   21MOL0     C 2823   5.545  10.960   3.059 -0.1564  1.0094  0.2545
   21MOL0     C 2824   5.605  11.013   3.174 -0.4950  0.3089 -1.2373
   21MOL0     C 2825   5.638  11.038   3.282  0.8423 -0.2229  0.0288
   21MOL0     C 2826   5.532  11.236   2.455 -0.3296 -0.0776 -1.2137
   21MOL0     C 2827   5.574  11.286   2.327  0.1461 -0.6051 -0.0290
   21MOL0     C 2828   5.469  11.327   2.236 -0.4273  0.8964 -0.0769
   21MOL0     H 2829   5.538  11.388   1.931 -0.2240  2.2984  2.0488
   21MOL0     H 2830   5.547  11.447   1.699 -1.5398  0.5784  1.7814
   21MOL0     H 2831   5.931  11.476   1.524  0.5852  1.9786  0.1530
   21MOL0     H 2832   5.854  11.561   1.400 -1.8451  1.5500  1.2263
   21MOL0     H 2833   5.832  11.288   1.383 -2.1703 -0.1236  0.0158
   21MOL0     H 2834   5.729  11.295   1.516  1.0113  0.6334  1.1920
   21MOL0     H 2835   5.549  11.392   1.395 -0.6551 -1.5225 -0.1309
   21MOL0     H 2836   5.663  11.475   1.283  3.3277 -2.3567 -2.3951
   21MOL0     H 2837   5.561  11.293   1.155 -2.0609 -2.2042  0.9646
   21MOL0     H 2838   5.729  11.263   1.184 -0.1994 -0.7558 -0.1980
   21MOL0     H 2839   5.534  11.156   1.395 -0.6256 -0.5629 -1.1535
   21MOL0     H 2840   5.687  11.092   1.328 -0.5649 -1.6589 -1.3777
   21MOL0     H 2841   5.407  11.091   1.206 -0.5044 -0.7079 -4.5232
   21MOL0     H 2842   5.550  11.046   1.117 -1.6149 -1.5490 -0.3435
   21MOL0     H 2843   5.409  10.924   1.366 -0.6690  4.7884  0.4076
   21MOL0     H 2844   5.572  10.869   1.323 -1.2391  0.1429 -0.7843
   21MOL0     H 2845   5.491  10.829   1.077  1.2018  3.4465  0.5317
   21MOL0     H 2846   5.398  10.734   1.192 -3.3453  0.2432  0.5064
   21MOL0     H 2847   5.389  11.042   0.982 -0.1380  1.9186  1.8101
   21MOL0     H 2848   5.182  11.244   0.966 -0.2180 -0.7817  2.0425
   21MOL0     H 2849   5.017  11.170   0.944 -0.4801  2.5100  0.4813
   21MOL0     H 2850   5.261  11.107   0.776  0.6665  1.1096  2.0541
   21MOL0     H 2851   5.104  11.051   0.743  1.4168 -1.5418  0.6401
   21MOL0     H 2852   5.010  11.272   0.678  0.8684  0.7425 -2.0685
   21MOL0     H 2853   5.150  11.344   0.760  0.9833 -0.7832  0.8809
   21MOL0     H 2854   5.121  11.192   0.504 -2.9843  2.2853 -0.3421
   21MOL0     H 2855   5.142  11.366   0.517 -1.7127  0.0593  2.2125
   21MOL0     H 2856   5.549  11.200   0.520 -1.7709 -2.3583 -0.4642
   21MOL0     H 2857   5.733  11.060   0.304  1.8881  0.8124 -1.2871
   21MOL0     H 2858   5.744  11.180   0.430  0.8479 -1.8255 -0.4152
   21MOL0     H 2859   5.792  11.229   0.270 -0.3791  2.2462  0.4792
   21MOL0     H 2860   5.671  11.319  -0.192  1.7949  1.3385  0.4595
   21MOL0     H 2861   5.797  11.262  -0.418  0.4114 -0.9649 -0.6316
   21MOL0     H 2862   6.126  10.955  -0.388  0.2501 -0.4010 -1.4701
   21MOL0     H 2863   6.144  11.033  -0.549  0.3104  1.2688 -0.6739
   21MOL0     H 2864   6.211  11.250  -0.425 -0.2522  0.2023 -0.6258
   21MOL0     H 2865   6.219  11.154  -0.274  2.0498 -1.6729  0.1181
   21MOL0     H 2866   6.397  11.116  -0.516 -0.6393 -1.2744 -0.3098
   21MOL0     H 2867   6.387  10.994  -0.398  1.8312 -0.0201  0.7989
   21MOL0     H 2868   6.574  11.131  -0.400 -1.3976 -0.7248 -1.2913
   21MOL0     H 2869   6.500  11.152  -0.231  2.5971 -2.5187 -0.9925
   21MOL0     H 2870   6.450  11.337  -0.471 -0.4040  2.6190 -0.0274
   21MOL0     H 2871   6.424  11.368  -0.297  2.4753  2.3292 -0.8921
   21MOL0     H 2872   6.678  11.333  -0.285 -0.5138  0.3589  0.9190
   21MOL0     H 2873   6.612  11.490  -0.354  0.8900  0.9227 -0.0035
   21MOL0     H 2874   6.701  11.421  -0.579  2.6066 -0.1825  1.0859
   21MOL0     H 2875   6.694  11.255  -0.541  1.8154 -1.1464 -0.4251
   21MOL0     H 2876   6.931  11.363  -0.535  1.9643 -2.2248  1.0018
   21MOL0     H 2877   6.905  11.287  -0.392  0.8624  1.1814  1.0457
   21MOL0     H 2878   6.017  10.963  -0.212 -1.0391 -1.0806 -1.2911
   21MOL0     H 2879   5.883  10.999  -0.006  0.3483 -0.2123  0.5458
   21MOL0     H 2880   5.342  11.290   0.085  5.3655 -1.9161 -2.0627
   21MOL0     H 2881   5.217  11.321   0.301  0.4307 -0.5841 -2.9476
   21MOL0     H 2882   5.943  11.607   1.757  1.7187 -2.9096 -0.3233
   21MOL0     H 2883   5.929  11.565   2.002  0.3836  1.5435 -0.4816
   21MOL0     H 2884   5.906  11.224   2.350  0.3285 -1.0362 -0.7159
   21MOL0     H 2885   5.841  11.133   2.571  0.3716  0.4423  0.4584
   21MOL0     H 2886   5.455  11.240   2.745 -1.9058 -0.0724  1.0019
   21MOL0     H 2887   5.385  11.114   2.641 -3.0839  1.3387  1.5009
   21MOL0     H 2888   5.462  10.946   2.801 -0.1076  0.2139 -3.8167
   21MOL0     H 2889   5.347  11.065   2.873  0.0510  0.9852 -1.4099
   21MOL0     H 2890   5.650  11.070   2.901 -1.4648  0.1808 -1.3187
   21MOL0     H 2891   5.541  11.166   2.998 -1.7314 -0.8540  1.5751
   21MOL0     H 2892   5.597  10.865   3.043  1.8762  1.8366  1.4849
   21MOL0     H 2893   5.440  10.933   3.074  0.5277 -0.9418  1.8969
   21MOL0     H 2894   5.690  11.054   3.375  1.4798 -0.3103 -0.3080
   21MOL0     H 2895   5.429  11.248   2.484 -0.0642 -1.1678  0.2992
   21MOL0     H 2896   5.441  11.433   2.228  0.1947  0.9516 -2.3094
   21MOL0     H 2897   5.498  11.295   2.135 -1.5161 -1.2196  0.2199
   21MOL0     H 2898   5.378  11.272   2.261  0.0511  0.5982  1.0567
   22MOL0     O 2899   8.712   7.019   8.987 -0.4664 -0.3693  0.2207
   22MOL0     C 2900   8.614   6.969   9.053 -0.4184 -0.5731  0.0500
   22MOL0     O 2901   8.612   6.960   9.180  0.4135  0.3729  0.0157
   22MOL0     C 2902   8.681   7.052   9.254 -0.0811  0.5477 -0.8714
   22MOL0     C 2903   8.614   7.162   9.306 -0.3399  0.4021 -0.0590
   22MOL0     C 2904   8.668   7.262   9.381  0.2604  0.0458  0.3940
   22MOL0     C 2905   8.796   7.255   9.417 -1.3712  0.0178 -0.5704
   22MOL0     O 2906   8.841   7.332   9.521 -0.3266  0.6472 -0.0475
   22MOL0     C 2907   8.886   7.260   9.637  0.0011 -0.2399  0.4064
   22MOL0     C 2908   8.951   7.354   9.740 -0.6035 -0.0265  0.0171
   22MOL0     C 2909   8.931   7.294   9.885  0.6119 -0.8181 -0.1325
   22MOL0     C 2910   9.005   7.165   9.912  0.5823 -0.2664 -0.5911
   22MOL0     C 2911   8.951   7.117  10.054 -0.0750 -0.0239 -0.5346
   22MOL0     C 2912   8.834   7.014  10.046 -0.0607 -0.0001  0.4727
   22MOL0     C 2913   8.842   6.916  10.162  0.2798  0.2013 -0.0186
   22MOL0     C 2914   8.741   6.805  10.145  0.1343 -0.4103  0.2189
   22MOL0     N 2915   8.749   6.718  10.263  0.3914 -0.3063  0.2899
   22MOL0     C 2916   8.788   6.581  10.271  0.6533 -0.8291 -1.2851
   22MOL0     C 2917   8.772   6.547  10.406  0.8011  0.0081  0.1081
   22MOL0     C 2918   8.818   6.427  10.473  0.7738 -0.4301 -0.3112
   22MOL0     C 2919   8.943   6.477  10.555  0.4573  1.1938 -0.3252
   22MOL0     C 2920   9.024   6.355  10.612  0.2680  0.2023  0.3627
   22MOL0     C 2921   9.147   6.396  10.687  1.4169 -0.2360  0.2197
   22MOL0     O 2922   9.210   6.271  10.714  0.1937 -0.2768  0.3266
   22MOL0     C 2923   9.344   6.284  10.743 -0.2320  1.0865  0.6041
   22MOL0     C 2924   9.420   6.401  10.760 -0.2381  0.8428  0.3176
   22MOL0     C 2925   9.553   6.400  10.799  0.1994  0.1606  0.1871
   22MOL0     C 2926   9.623   6.531  10.811  0.3293 -0.3673  0.1897
   22MOL0     C 2927   9.623   6.279  10.804  0.6606  0.9519 -1.0755
   22MOL0     C 2928   9.766   6.274  10.825  0.0759  0.8822 -0.3914
   22MOL0     O 2929   9.840   6.331  10.732 -0.5099  0.3079 -0.6747
   22MOL0     C 2930   9.973   6.322  10.749  0.1948  0.2434 -0.5886
   22MOL0     C 2931  10.053   6.205  10.723 -0.3308  0.6208 -0.3995
   22MOL0     C 2932  10.189   6.206  10.755  0.3560  1.1247 -0.1551
   22MOL0     C 2933  10.258   6.318  10.791 -0.0906 -1.1650  0.6169
   22MOL0     O 2934  10.395   6.333  10.810  0.0225 -0.0942  0.2662
   22MOL0     C 2935  10.478   6.239  10.745  0.3036 -0.1616  0.3763
   22MOL0     C 2936  10.610   6.289  10.701 -0.5280 -0.4128  0.6480
   22MOL0     C 2937  10.588   6.354  10.552  0.5757 -0.2861  0.2458
   22MOL0     C 2938  10.665   6.485  10.522  0.1834 -0.1015  1.8478
   22MOL0     C 2939  10.809   6.471  10.554  0.4839 -0.0893  0.4276
   22MOL0     C 2940  10.885   6.598  10.509 -0.2809 -0.3063 -0.2567
   22MOL0     C 2941  10.899   6.625  10.361  0.3970 -0.6802 -0.4841
   22MOL0     C 2942  11.004   6.727  10.319 -0.7283 -0.3993 -0.4546
   22MOL0    Cl 2943  10.960   6.891  10.361 -0.0750 -0.0986 -0.0143
   22MOL0     C 2944  10.181   6.431  10.818 -0.6917 -0.0298 -0.3650
   22MOL0     C 2945  10.045   6.432  10.792 -0.8008 -0.0989 -0.4852
   22MOL0     O 2946   9.805   6.219  10.926  0.6493 -0.3126 -0.1691
   22MOL0     C 2947   9.551   6.163  10.781  0.0170  0.6594  0.8536
   22MOL0     C 2948   9.416   6.167  10.748  0.2668 -0.0365 -0.3014
   22MOL0     N 2949   8.743   6.664  10.470  0.0312  0.1049  0.3872
   22MOL0     N 2950   8.720   6.766  10.386 -0.0986  0.1169 -0.6197
   22MOL0     C 2951   8.875   7.145   9.371 -0.1962 -0.2171 -0.4686
   22MOL0     C 2952   8.816   7.037   9.297 -0.3138 -0.6991 -0.3997
   22MOL0     C 2953   8.487   6.927   8.979  0.3779  0.1638 -0.3637
   22MOL0     C 2954   8.355   6.954   9.028 -0.3631 -0.2995 -0.1652
   22MOL0     C 2955   8.241   6.903   8.962  1.4608  0.2767 -0.0844
   22MOL0     C 2956   8.246   6.837   8.841  0.1756 -0.4116  1.3646
   22MOL0     O 2957   8.128   6.808   8.774 -0.4395 -0.6991 -0.2564
   22MOL0     C 2958   8.124   6.743   8.647 -0.1043  0.3278  0.0078
   22MOL0     C 2959   7.983   6.749   8.594  0.5553  0.1826 -0.3811
   22MOL0     C 2960   7.966   6.651   8.473  0.1781  0.4711 -0.1930
   22MOL0     C 2961   8.051   6.683   8.346  0.0235 -0.7954  0.2045
   22MOL0     C 2962   8.188   6.639   8.348  0.1917  0.3658  1.3898
   22MOL0     C 2963   8.291   6.580   8.371 -0.1822  0.2548  0.4510
   22MOL0     C 2964   8.380   6.818   8.785  0.8061  1.0674  0.1789
   22MOL0     C 2965   8.491   6.866   8.854 -0.3111 -0.2342 -0.7051
   22MOL0     C 2966   8.615   6.842   8.779 -0.3356 -0.4261  0.1542
   22MOL0     H 2967   8.511   7.182   9.278 -0.6366 -1.3406 -0.3374
   22MOL0     H 2968   8.612   7.350   9.411  0.9299  1.0721 -1.1745
   22MOL0     H 2969   8.942   7.168   9.620 -0.7085 -0.5560 -0.2887
   22MOL0     H 2970   8.797   7.214   9.680  0.1302  1.1121  2.2285
   22MOL0     H 2971   9.058   7.372   9.727 -0.4555 -0.1211  0.9787
   22MOL0     H 2972   8.896   7.449   9.744 -0.7137 -0.0943  0.1278
   22MOL0     H 2973   8.969   7.371   9.953  0.0652 -0.5662 -0.1024
   22MOL0     H 2974   8.823   7.285   9.904  0.2991  1.4663 -0.6043
   22MOL0     H 2975   8.989   7.094   9.830 -1.8114  0.3649 -0.7233
   22MOL0     H 2976   9.112   7.190   9.907  0.6383 -0.5776 -1.2029
   22MOL0     H 2977   8.932   7.200  10.123  0.5986 -1.6630  1.7420
   22MOL0     H 2978   9.026   7.062  10.111 -3.8600 -0.2750  4.9029
   22MOL0     H 2979   8.737   7.064  10.050 -0.4993 -0.7895 -0.0623
   22MOL0     H 2980   8.833   6.973   9.945 -2.4497  1.6914 -0.2755
   22MOL0     H 2981   8.831   6.975  10.254  1.9062 -0.5414  0.6902
   22MOL0     H 2982   8.944   6.880  10.173 -0.3446 -1.5478  0.2849
   22MOL0     H 2983   8.641   6.849  10.133  0.5635  1.7258  3.2917
   22MOL0     H 2984   8.770   6.743  10.059  0.7484  2.2726 -1.6686
   22MOL0     H 2985   8.829   6.514  10.196  1.7456 -0.6728 -0.8529
   22MOL0     H 2986   8.846   6.349  10.401  1.3399 -0.5743  0.0601
   22MOL0     H 2987   8.740   6.394  10.542  0.7220  0.1231 -0.0956
   22MOL0     H 2988   9.010   6.540  10.497  0.2629  1.3842 -0.3439
   22MOL0     H 2989   8.908   6.524  10.648  0.0163  0.8982 -0.3378
   22MOL0     H 2990   8.961   6.297  10.679  0.3687  1.2540  1.3976
   22MOL0     H 2991   9.051   6.277  10.540  0.6512 -0.1884  0.9174
   22MOL0     H 2992   9.206   6.459  10.619  0.0662 -2.2403 -3.0204
   22MOL0     H 2993   9.109   6.456  10.769 -0.2805  1.9582 -2.0353
   22MOL0     H 2994   9.387   6.499  10.726 -0.8789  0.3666 -0.4821
   22MOL0     H 2995   9.616   6.576  10.711 -1.4535 -3.5072 -1.2273
   22MOL0     H 2996   9.731   6.516  10.822  0.3222 -2.5369 -1.7919
   22MOL0     H 2997   9.591   6.597  10.892 -0.9933  0.6140 -1.0673
   22MOL0     H 2998  10.013   6.110  10.690  0.8104 -0.6498  1.6467
   22MOL0     H 2999  10.244   6.116  10.729 -1.8036 -0.2762 -0.1484
   22MOL0     H 3000  10.493   6.158  10.817  1.7333  0.6226  1.0045
   22MOL0     H 3001  10.430   6.199  10.655  1.3758  2.0074 -1.2457
   22MOL0     H 3002  10.651   6.366  10.767  0.4247 -1.7278  1.6536
   22MOL0     H 3003  10.664   6.195  10.685 -0.7981 -0.8803  2.3221
   22MOL0     H 3004  10.482   6.377  10.538  0.0818 -3.1723 -1.5996
   22MOL0     H 3005  10.607   6.284  10.470 -1.2275  2.4880 -2.7905
   22MOL0     H 3006  10.626   6.565  10.586  0.1842  2.4910 -1.1564
   22MOL0     H 3007  10.642   6.504  10.417  1.1327 -0.0390  1.6460
   22MOL0     H 3008  10.831   6.464  10.661  2.3695 -2.2616 -0.0180
   22MOL0     H 3009  10.854   6.381  10.510  3.2960  2.2111 -1.8634
   22MOL0     H 3010  10.979   6.597  10.565  1.0811  5.1777 -1.9027
   22MOL0     H 3011  10.835   6.687  10.547  1.2385  0.6933 -0.5409
   22MOL0     H 3012  10.801   6.649  10.319 -0.0430 -0.5038  0.5879
   22MOL0     H 3013  10.928   6.530  10.315 -0.1143 -0.7603 -0.6466
   22MOL0     H 3014  11.007   6.726  10.210  1.2964  0.5276 -0.4475
   22MOL0     H 3015  11.103   6.693  10.350 -0.9614 -0.5769  0.1070
   22MOL0     H 3016  10.229   6.523  10.849  1.2853  0.6848 -4.7798
   22MOL0     H 3017   9.997   6.527  10.813 -0.5163  0.1964 -1.1604
   22MOL0     H 3018   9.609   6.072  10.766 -0.4963  0.4694 -0.1005
   22MOL0     H 3019   9.364   6.077  10.717 -0.6898  0.4170 -0.0441
   22MOL0     H 3020   8.969   7.126   9.422 -1.8430 -2.5067  1.9907
   22MOL0     H 3021   8.862   6.944   9.263  2.0119  0.8274 -1.7053
   22MOL0     H 3022   8.350   7.007   9.122 -1.7237 -0.8188  0.0864
   22MOL0     H 3023   8.136   6.910   8.989  0.7639  0.2081 -2.5659
   22MOL0     H 3024   8.194   6.797   8.582  1.2389 -1.1910  0.1409
   22MOL0     H 3025   8.154   6.638   8.655 -1.3534 -0.1234 -0.9143
   22MOL0     H 3026   7.966   6.854   8.566  2.1284  0.7986  0.8223
   22MOL0     H 3027   7.916   6.716   8.674  1.3509 -2.4593 -0.7285
   22MOL0     H 3028   7.994   6.552   8.510 -1.6929 -0.5328 -1.3132
   22MOL0     H 3029   7.859   6.648   8.451 -0.4526  0.5231  2.5356
   22MOL0     H 3030   8.042   6.792   8.335 -0.0642 -0.9357 -1.4475
   22MOL0     H 3031   8.007   6.637   8.257  1.0353 -0.3181 -0.5602
   22MOL0     H 3032   8.368   6.512   8.401 -0.6477  0.3378  1.8822
   22MOL0     H 3033   8.387   6.760   8.694  0.4766 -2.0187  1.9727
   22MOL0     H 3034   8.607   6.779   8.689 -0.6695 -1.5191  0.9288
   22MOL0     H 3035   8.664   6.934   8.747 -0.1134 -0.3105  0.8274
   22MOL0     H 3036   8.692   6.795   8.841  0.6517 -0.3303 -0.9493
   23MOL0     O 3037  11.497  11.054   0.451  0.6681  0.3447 -0.0917
   23MOL0     C 3038  11.600  11.118   0.407  0.8487 -0.3346 -0.3132
   23MOL0     O 3039  11.723  11.116   0.468  0.4342  0.8601 -0.0794
   23MOL0     C 3040  11.722  11.083   0.600 -0.4440  0.2492 -0.1757
   23MOL0     C 3041  11.630  11.097   0.700  1.1100 -0.2353  1.0428
   23MOL0     C 3042  11.641  11.055   0.831 -0.4185 -1.1011 -0.1330
   23MOL0     C 3043  11.763  10.999   0.870 -0.2173  0.2574  0.1537
   23MOL0     O 3044  11.777  10.954   0.998 -1.3895 -0.2208  0.2444
   23MOL0     C 3045  11.669  10.915   1.075  0.2917  0.3265 -0.8347
   23MOL0     C 3046  11.636  10.769   1.055  0.9191  0.3256 -0.0757
   23MOL0     C 3047  11.746  10.674   1.092 -0.3925  0.5077 -0.1540
   23MOL0     C 3048  11.692  10.528   1.053  0.0570 -0.5721 -0.8784
   23MOL0     C 3049  11.800  10.426   1.092 -0.2266  0.0519 -0.5845
   23MOL0     C 3050  11.905  10.409   0.980  0.3015  0.8487 -0.4269
   23MOL0     C 3051  12.002  10.294   1.017 -0.3219  0.5767 -0.1369
   23MOL0     C 3052  12.106  10.330   1.121 -0.1496 -0.1284  0.5157
   23MOL0     N 3053  12.200  10.224   1.145 -0.6194  0.4456  0.6537
   23MOL0     C 3054  12.302  10.199   1.070 -0.9570 -1.1120  0.6931
   23MOL0     C 3055  12.376  10.098   1.127 -0.5823 -0.2486 -0.0729
   23MOL0     C 3056  12.512  10.042   1.088 -0.8997 -0.0565 -0.7955
   23MOL0     C 3057  12.630  10.101   1.177 -0.2171  0.2623 -0.1192
   23MOL0     C 3058  12.619  10.026   1.309 -1.8344 -0.8792 -0.6990
   23MOL0     C 3059  12.756  10.037   1.387  0.9138  1.1534  0.5545
   23MOL0     O 3060  12.853   9.966   1.302  0.4603  0.3587 -0.6847
   23MOL0     C 3061  12.984   9.997   1.322  0.1861  0.0863  0.5993
   23MOL0     C 3062  13.042  10.010   1.452  0.2960  0.0572 -0.1931
   23MOL0     C 3063  13.175  10.057   1.464 -0.0629 -0.6116  0.5663
   23MOL0     C 3064  13.229  10.052   1.603 -0.2150 -0.1164  0.1293
   23MOL0     C 3065  13.250  10.096   1.353 -0.4270  0.0257  0.5874
   23MOL0     C 3066  13.381  10.155   1.356 -0.6532  0.3464 -0.3070
   23MOL0     O 3067  13.417  10.230   1.251 -0.1289 -0.7512 -0.1502
   23MOL0     C 3068  13.549  10.281   1.258  0.0327  0.1328 -0.2820
   23MOL0     C 3069  13.647  10.234   1.170 -0.4363 -1.2978  0.2923
   23MOL0     C 3070  13.769  10.313   1.157  0.2467  0.5449  0.6605
   23MOL0     C 3071  13.802  10.420   1.239 -0.1349  0.8056  0.7397
   23MOL0     O 3072  13.926  10.487   1.233  0.3982 -0.3100 -0.3111
   23MOL0     C 3073  13.970  10.570   1.349 -0.1660  0.0158 -0.0599
   23MOL0     C 3074  14.115  10.625   1.325 -0.8588  0.0642  0.6619
   23MOL0     C 3075  14.218  10.524   1.344 -0.0512 -0.2802  0.1106
   23MOL0     C 3076  14.347  10.565   1.273  0.1869  0.3986 -0.6269
   23MOL0     C 3077  14.440  10.667   1.351 -0.6446  0.2864  0.6987
   23MOL0     C 3078  14.497  10.629   1.489 -0.1538 -0.3114 -0.7756
   23MOL0     C 3079  14.599  10.520   1.483 -0.9616  0.5979 -0.9398
   23MOL0     C 3080  14.646  10.467   1.626 -0.4088  0.6834  0.1565
   23MOL0    Cl 3081  14.538  10.346   1.700 -0.2135 -0.0487  0.4921
   23MOL0     C 3082  13.700  10.456   1.332 -0.4390  0.4106  1.0784
   23MOL0     C 3083  13.575  10.393   1.328  0.4540  0.0447  0.0666
   23MOL0     O 3084  13.466  10.114   1.444 -0.1140  0.0239  0.4199
   23MOL0     C 3085  13.203  10.076   1.227  0.4403  0.0049  1.7644
   23MOL0     C 3086  13.070  10.035   1.214  0.4125 -0.0863 -0.1198
   23MOL0     N 3087  12.305  10.070   1.243  0.1396 -0.2980  0.6964
   23MOL0     N 3088  12.209  10.148   1.262 -0.4726 -0.2422  0.3254
   23MOL0     C 3089  11.866  10.993   0.782 -0.6071 -0.7722 -0.4425
   23MOL0     C 3090  11.848  11.034   0.651  0.7990  0.1266  0.1233
   23MOL0     C 3091  11.581  11.193   0.281 -0.2270 -0.0308 -0.5917
   23MOL0     C 3092  11.653  11.322   0.278  0.9843 -0.4549  0.1546
   23MOL0     C 3093  11.634  11.408   0.169  0.5281  0.6323 -0.4729
   23MOL0     C 3094  11.560  11.362   0.057 -0.3233 -0.0194 -0.3064
   23MOL0     O 3095  11.545  11.452  -0.036  0.2440  0.1091  1.2150
   23MOL0     C 3096  11.483  11.427  -0.166 -0.6656 -0.3329 -0.5361
   23MOL0     C 3097  11.428  11.562  -0.202  0.4324 -0.4312 -1.0464
   23MOL0     C 3098  11.340  11.573  -0.323 -0.4064  0.3895  0.1645
   23MOL0     C 3099  11.274  11.723  -0.338 -0.0237 -0.2814 -0.5171
   23MOL0     C 3100  11.373  11.820  -0.384  0.7306 -0.8327  1.3579
   23MOL0     C 3101  11.459  11.900  -0.430  1.0722  0.6351 -0.0198
   23MOL0     C 3102  11.506  11.231   0.059  0.3517 -0.3170  0.0373
   23MOL0     C 3103  11.520  11.146   0.161 -0.1514 -1.3370 -1.1041
   23MOL0     C 3104  11.458  11.013   0.152  0.6197 -0.3829  0.1783
   23MOL0     H 3105  11.532  11.139   0.681  0.7312 -1.3601  0.4561
   23MOL0     H 3106  11.561  11.074   0.902 -0.5078  1.3952 -0.8046
   23MOL0     H 3107  11.575  10.971   1.065 -0.0823 -0.3079 -0.9362
   23MOL0     H 3108  11.699  10.923   1.180 -0.6847 -3.0224 -0.1819
   23MOL0     H 3109  11.544  10.754   1.112 -0.1941 -0.3948 -1.9464
   23MOL0     H 3110  11.617  10.757   0.947 -0.4856  1.3828  0.0270
   23MOL0     H 3111  11.836  10.692   1.032 -0.0849 -2.0187 -0.5628
   23MOL0     H 3112  11.777  10.695   1.195 -0.1777 -1.9682  0.3633
   23MOL0     H 3113  11.596  10.512   1.103 -1.1534  0.2478 -2.8525
   23MOL0     H 3114  11.674  10.518   0.946  4.4346 -0.5498 -1.8274
   23MOL0     H 3115  11.754  10.330   1.115 -0.6989  0.9302  2.7580
   23MOL0     H 3116  11.847  10.466   1.183  1.9542  0.7036 -1.9316
   23MOL0     H 3117  11.857  10.384   0.885  1.1200 -0.1064 -0.6066
   23MOL0     H 3118  11.961  10.502   0.967  1.8764  0.1240  0.7867
   23MOL0     H 3119  12.047  10.249   0.929  2.0008 -1.2088  1.8499
   23MOL0     H 3120  11.943  10.211   1.058  0.8361  0.1161  0.6393
   23MOL0     H 3121  12.164  10.422   1.116  0.1418 -0.3033  0.6285
   23MOL0     H 3122  12.051  10.338   1.215 -2.1054 -4.4145 -0.0237
   23MOL0     H 3123  12.330  10.249   0.977 -2.0180  1.0662  1.4701
   23MOL0     H 3124  12.536  10.056   0.982 -2.0340 -1.0009 -1.1937
   23MOL0     H 3125  12.521   9.933   1.094 -0.4654 -0.0103 -0.5527
   23MOL0     H 3126  12.721  10.081   1.120 -1.2902 -1.3172 -1.3661
   23MOL0     H 3127  12.619  10.210   1.184  4.8310  1.1450 -1.5132
   23MOL0     H 3128  12.551  10.082   1.374 -1.2426  0.3841 -1.1509
   23MOL0     H 3129  12.591   9.920   1.303 -1.8738 -0.9791  0.8853
   23MOL0     H 3130  12.790  10.139   1.410  0.2554  2.0557 -2.1484
   23MOL0     H 3131  12.737   9.981   1.479 -0.6084  0.2633 -0.2711
   23MOL0     H 3132  12.997   9.974   1.544 -0.5580 -1.4391 -1.1555
   23MOL0     H 3133  13.160  10.021   1.682 -0.3457 -2.3507 -0.7892
   23MOL0     H 3134  13.261  10.154   1.627 -1.2522 -0.2960  2.5600
   23MOL0     H 3135  13.318   9.989   1.601 -1.4701 -1.9500  0.0863
   23MOL0     H 3136  13.629  10.149   1.106  0.1707 -1.3427  0.1727
   23MOL0     H 3137  13.846  10.283   1.086 -0.3416 -1.2083  0.7184
   23MOL0     H 3138  13.908  10.659   1.357 -2.3158 -1.5279  1.4813
   23MOL0     H 3139  13.970  10.508   1.440  2.6058 -0.4358 -0.2719
   23MOL0     H 3140  14.116  10.676   1.228 -0.7257  1.3989  1.3411
   23MOL0     H 3141  14.134  10.699   1.404 -1.1454 -1.5267  2.2964
   23MOL0     H 3142  14.197  10.435   1.283  1.5194  0.9741 -2.4445
   23MOL0     H 3143  14.233  10.506   1.451 -0.2354 -0.8050  0.0494
   23MOL0     H 3144  14.331  10.601   1.171  1.6605  1.6051 -0.4591
   23MOL0     H 3145  14.415  10.481   1.253  2.3557  2.1747 -1.0546
   23MOL0     H 3146  14.507  10.704   1.273 -1.5666  0.4894 -0.0103
   23MOL0     H 3147  14.375  10.754   1.364 -0.4516  1.1551 -3.0137
   23MOL0     H 3148  14.419  10.604   1.562  0.5677 -0.0598  0.1040
   23MOL0     H 3149  14.559  10.712   1.524  4.0671 -2.4605 -2.3735
   23MOL0     H 3150  14.682  10.563   1.427 -0.3717 -1.1527 -1.4865
   23MOL0     H 3151  14.564  10.436   1.422  0.9655  0.4535 -1.9303
   23MOL0     H 3152  14.647  10.553   1.693  0.6875 -0.9189  2.3361
   23MOL0     H 3153  14.747  10.426   1.627 -0.4034  0.7147  0.6739
   23MOL0     H 3154  13.734  10.536   1.397  0.9093  0.1913  0.6713
   23MOL0     H 3155  13.504  10.431   1.401  3.8419  1.8261  2.7207
   23MOL0     H 3156  13.250  10.086   1.130  0.8432 -1.2892  1.7996
   23MOL0     H 3157  13.030  10.005   1.117 -0.3639 -0.9952  0.4663
   23MOL0     H 3158  11.964  10.958   0.813 -1.4559 -0.2733  3.4448
   23MOL0     H 3159  11.925  11.028   0.575 -0.2561  1.3641 -1.0900
   23MOL0     H 3160  11.709  11.346   0.368 -0.6403  1.1162  0.8108
   23MOL0     H 3161  11.689  11.501   0.158  1.8125 -0.1054 -0.5164
   23MOL0     H 3162  11.561  11.400  -0.238  0.3177  0.3988  0.2246
   23MOL0     H 3163  11.403  11.352  -0.167 -2.4941  1.5168 -1.7046
   23MOL0     H 3164  11.497  11.647  -0.201 -2.3398  1.9760 -0.0123
   23MOL0     H 3165  11.366  11.583  -0.114 -0.7796 -2.2445 -1.4224
   23MOL0     H 3166  11.402  11.556  -0.412 -1.1394  2.4454 -0.8125
   23MOL0     H 3167  11.264  11.494  -0.321  0.6878 -0.7859 -1.4734
   23MOL0     H 3168  11.230  11.762  -0.245  2.3258  0.1432  0.4844
   23MOL0     H 3169  11.204  11.729  -0.422 -1.1916  3.9802  0.5353
   23MOL0     H 3170  11.527  11.969  -0.474 -0.7177  0.6473 -3.0149
   23MOL0     H 3171  11.447  11.203  -0.027  5.0541  1.8017 -4.4912
   23MOL0     H 3172  11.380  10.994   0.226  2.0460  0.8091  2.0885
   23MOL0     H 3173  11.415  11.001   0.053  4.3345 -0.0926 -1.6464
   23MOL0     H 3174  11.542  10.942   0.162  5.2835  4.4103 -0.5060
   24MOL0     O 3175   4.087   1.638   9.527 -0.2949  0.8182 -0.4116
   24MOL0     C 3176   4.007   1.732   9.519  0.1157  0.3120 -0.1651
   24MOL0     O 3177   4.017   1.830   9.424 -0.1077  0.5453  0.4056
   24MOL0     C 3178   4.120   1.829   9.342 -0.3123 -0.9231  0.3695
   24MOL0     C 3179   4.248   1.857   9.394 -0.3054 -0.3319 -0.6727
   24MOL0     C 3180   4.360   1.851   9.310 -0.2553 -0.1255  0.3422
   24MOL0     C 3181   4.345   1.818   9.171 -0.3966 -0.5992 -0.3248
   24MOL0     O 3182   4.460   1.798   9.101  0.2963  0.0223 -0.0540
   24MOL0     C 3183   4.459   1.722   8.978  0.4604 -0.1725 -0.4868
   24MOL0     C 3184   4.593   1.688   8.922 -0.6599  0.1781 -0.0688
   24MOL0     C 3185   4.685   1.595   9.011 -0.7790 -0.5631 -0.6611
   24MOL0     C 3186   4.838   1.615   8.989 -0.2720 -0.7098  0.6529
   24MOL0     C 3187   4.878   1.759   9.036  0.2230  0.0537  0.0042
   24MOL0     C 3188   4.837   1.798   9.188  0.3383 -0.5669 -0.3444
   24MOL0     C 3189   4.896   1.699   9.289  0.2266 -0.0144 -0.6886
   24MOL0     C 3190   4.845   1.728   9.437 -0.0662 -0.2314  0.5285
   24MOL0     N 3191   4.925   1.659   9.537 -0.4729 -0.3034  0.1907
   24MOL0     C 3192   4.936   1.713   9.659  0.3031  0.8343  0.2171
   24MOL0     C 3193   5.023   1.635   9.728 -0.1780 -0.5447 -0.9059
   24MOL0     C 3194   5.076   1.646   9.868  0.4519  0.3058 -0.7676
   24MOL0     C 3195   4.968   1.625   9.975  0.7120 -0.9348  0.4386
   24MOL0     C 3196   4.890   1.497   9.963  0.8347  0.6753  0.2795
   24MOL0     C 3197   4.969   1.351   9.971 -0.6274 -0.1796  0.6506
   24MOL0     O 3198   4.868   1.257  10.007  0.1533  0.7999 -0.6374
   24MOL0     C 3199   4.898   1.121   9.987 -0.6598  0.5844  0.6867
   24MOL0     C 3200   4.914   1.046  10.106  0.0096  0.0518  0.1551
   24MOL0     C 3201   4.941   0.907  10.097  0.2311  0.1501 -0.6074
   24MOL0     C 3202   4.913   0.822  10.222 -0.7360  0.0462  0.2126
   24MOL0     C 3203   4.956   0.842   9.976  0.1674 -0.1340  0.0772
   24MOL0     C 3204   4.979   0.698   9.963 -0.0473  0.3429  0.0959
   24MOL0     O 3205   4.962   0.648   9.834  0.4674  0.1006  0.3492
   24MOL0     C 3206   4.966   0.509   9.817  1.2328  0.2131  0.1299
   24MOL0     C 3207   5.042   0.455   9.714 -0.7506 -0.4682  0.0838
   24MOL0     C 3208   5.054   0.320   9.710  0.0310 -0.3602  0.3020
   24MOL0     C 3209   4.991   0.233   9.792 -0.0592 -0.5082  0.0144
   24MOL0     O 3210   5.006   0.108   9.755  0.0370  0.3851  0.9212
   24MOL0     C 3211   4.891   0.020   9.730 -0.3226 -0.3101 -0.2604
   24MOL0     C 3212   4.945  -0.098   9.658  0.4150 -0.4489  0.1573
   24MOL0     C 3213   4.822  -0.171   9.585 -0.9003  0.6583 -0.7377
   24MOL0     C 3214   4.785  -0.304   9.662  0.3418 -0.7175  0.0257
   24MOL0     C 3215   4.863  -0.433   9.631  0.3007 -0.0189  0.8871
   24MOL0     C 3216   4.797  -0.513   9.517  0.9758  0.8316  0.1135
   24MOL0     C 3217   4.871  -0.649   9.514  0.8777 -0.3294  0.2096
   24MOL0     C 3218   5.015  -0.637   9.466  1.0023 -0.7392  0.2489
   24MOL0    Cl 3219   5.064  -0.800   9.432 -0.4101  0.0695 -0.0469
   24MOL0     C 3220   4.887   0.284   9.870 -0.7552  0.2202 -0.3858
   24MOL0     C 3221   4.871   0.423   9.884  0.4340  1.0168 -0.0408
   24MOL0     O 3222   5.009   0.623  10.058  0.0573 -0.2074  0.9412
   24MOL0     C 3223   4.942   0.920   9.865 -0.3552 -0.2394  0.3173
   24MOL0     C 3224   4.919   1.060   9.863  0.3228  0.0374 -0.0086
   24MOL0     N 3225   5.065   1.539   9.642 -0.4189  0.1174  0.6807
   24MOL0     N 3226   5.008   1.550   9.526  0.1776 -0.3916  0.3940
   24MOL0     C 3227   4.224   1.798   9.119  0.4943 -0.7009 -0.4003
   24MOL0     C 3228   4.111   1.802   9.204  0.8127  1.2173 -1.0656
   24MOL0     C 3229   3.904   1.737   9.623 -0.5725  0.2984 -0.5770
   24MOL0     C 3230   3.849   1.865   9.646 -0.1938  0.7642 -0.2215
   24MOL0     C 3231   3.761   1.884   9.748 -0.4880 -0.2390 -0.4324
   24MOL0     C 3232   3.720   1.780   9.832  0.7596 -0.0523  0.8646
   24MOL0     O 3233   3.632   1.813   9.933  0.1545  0.3517  0.3701
   24MOL0     C 3234   3.588   1.711  10.034  0.2815  0.6001 -0.3843
   24MOL0     C 3235   3.464   1.646   9.971 -0.9009  0.0337 -0.4076
   24MOL0     C 3236   3.396   1.566  10.086 -0.0274  1.3972  0.8235
   24MOL0     C 3237   3.284   1.477  10.017  0.3905  0.1235  1.0503
   24MOL0     C 3238   3.162   1.553   9.976  0.2736  0.2908 -0.4714
   24MOL0     C 3239   3.055   1.601   9.933 -0.3215 -0.2627  0.2461
   24MOL0     C 3240   3.767   1.650   9.803  0.4951  0.6261 -0.0126
   24MOL0     C 3241   3.851   1.626   9.693 -0.0121  0.2717  0.0205
   24MOL0     C 3242   3.877   1.479   9.652  0.0277 -0.0671 -0.4281
   24MOL0     H 3243   4.263   1.872   9.500  0.3606 -2.3397 -0.4270
   24MOL0     H 3244   4.455   1.842   9.361 -1.0151 -2.2405  1.5016
   24MOL0     H 3245   4.419   1.784   8.897  0.2023 -2.9007 -2.6045
   24MOL0     H 3246   4.402   1.629   8.982  1.4940 -0.7801  1.0922
   24MOL0     H 3247   4.585   1.657   8.817 -1.6247 -2.6467  0.7720
   24MOL0     H 3248   4.641   1.786   8.929 -3.0600  1.3826  0.3601
   24MOL0     H 3249   4.669   1.610   9.118 -1.2471  0.5148 -0.8684
   24MOL0     H 3250   4.666   1.492   8.979 -3.3757 -0.9502  1.7067
   24MOL0     H 3251   4.891   1.529   9.032 -2.4308 -1.4137  2.0904
   24MOL0     H 3252   4.852   1.616   8.880 -2.3179 -2.0935  0.3242
   24MOL0     H 3253   4.853   1.836   8.962 -0.1558  1.2187  1.3107
   24MOL0     H 3254   4.988   1.760   9.039  0.3726 -3.7117  0.8731
   24MOL0     H 3255   4.884   1.896   9.178 -0.2718 -0.4615 -3.0895
   24MOL0     H 3256   4.728   1.807   9.184  0.5007  2.1714 -1.0312
   24MOL0     H 3257   5.006   1.703   9.291  0.2816 -1.2488  0.3018
   24MOL0     H 3258   4.853   1.600   9.272 -2.7189  1.2721 -1.3000
   24MOL0     H 3259   4.845   1.836   9.454  0.3460 -0.3106  1.0589
   24MOL0     H 3260   4.744   1.690   9.454  0.8510 -2.4622  1.4174
   24MOL0     H 3261   4.890   1.804   9.697 -0.0010  0.2730  1.2253
   24MOL0     H 3262   5.118   1.744   9.890 -0.6416  0.1397  2.5969
   24MOL0     H 3263   5.159   1.577   9.888  2.9356  2.9993 -1.1863
   24MOL0     H 3264   5.009   1.636  10.075  0.1700  1.6912  0.4539
   24MOL0     H 3265   4.906   1.713   9.956  1.6810  0.2563  2.5218
   24MOL0     H 3266   4.822   1.490  10.049 -0.0699 -0.8253 -0.5192
   24MOL0     H 3267   4.832   1.511   9.871 -0.5079  1.4372  1.2046
   24MOL0     H 3268   5.014   1.328   9.873 -4.5493  0.1223 -1.4335
   24MOL0     H 3269   5.036   1.336  10.056 -0.5512 -0.5084  0.5350
   24MOL0     H 3270   4.895   1.092  10.202  1.5324 -0.0199  0.5179
   24MOL0     H 3271   5.006   0.796  10.272 -0.3861  0.1699 -0.3660
   24MOL0     H 3272   4.854   0.732  10.200  1.7308 -1.6200  0.0787
   24MOL0     H 3273   4.852   0.875  10.297 -4.3379 -0.9829 -1.7264
   24MOL0     H 3274   5.103   0.518   9.649 -0.0327 -0.7466  0.4786
   24MOL0     H 3275   5.124   0.281   9.636 -1.0137  0.4523 -1.1576
   24MOL0     H 3276   4.844  -0.006   9.825 -0.5052  0.5814 -0.0941
   24MOL0     H 3277   4.819   0.079   9.671  0.1123  1.6261  1.0279
   24MOL0     H 3278   5.014  -0.061   9.582 -0.9150 -1.4089 -1.6131
   24MOL0     H 3279   4.984  -0.166   9.734 -3.4481 -2.6900  0.4170
   24MOL0     H 3280   4.842  -0.200   9.482 -0.0080 -0.6835 -0.2037
   24MOL0     H 3281   4.734  -0.106   9.593 -1.1199  0.2330  0.5973
   24MOL0     H 3282   4.681  -0.312   9.630  0.6744  1.4020 -1.8861
   24MOL0     H 3283   4.780  -0.282   9.769  1.8441 -0.3569  0.0561
   24MOL0     H 3284   4.966  -0.404   9.609 -0.2152 -0.0398 -1.9528
   24MOL0     H 3285   4.853  -0.486   9.726 -1.1929 -2.3689 -0.4542
   24MOL0     H 3286   4.803  -0.466   9.418  3.1575 -0.2670 -0.3405
   24MOL0     H 3287   4.691  -0.528   9.535  1.2235  1.3017  2.2418
   24MOL0     H 3288   4.816  -0.717   9.449 -0.7879 -0.0242  1.2319
   24MOL0     H 3289   4.860  -0.683   9.617  0.5813  2.3057  1.1493
   24MOL0     H 3290   5.076  -0.588   9.543  0.1123  1.3314 -0.3180
   24MOL0     H 3291   5.029  -0.582   9.373 -0.6938 -0.8809 -0.1249
   24MOL0     H 3292   4.817   0.231   9.933 -1.1765  2.7229  1.4027
   24MOL0     H 3293   4.801   0.471   9.952 -2.4434 -0.0606 -2.0340
   24MOL0     H 3294   4.968   0.868   9.774  3.6673 -1.0003  1.6851
   24MOL0     H 3295   4.922   1.126   9.777 -1.5095  0.0284 -0.1120
   24MOL0     H 3296   4.218   1.772   9.014 -0.2379 -1.9380 -0.0840
   24MOL0     H 3297   4.006   1.796   9.177  0.4249  0.5534  0.5166
   24MOL0     H 3298   3.876   1.950   9.584 -1.2550 -0.9913 -3.3832
   24MOL0     H 3299   3.720   1.983   9.765  2.0170  0.3912  3.1446
   24MOL0     H 3300   3.666   1.643  10.067  2.2836  2.3525 -1.2657
   24MOL0     H 3301   3.553   1.769  10.120  0.1313 -1.9340  1.3505
   24MOL0     H 3302   3.503   1.578   9.894 -1.0326  0.1098 -0.5408
   24MOL0     H 3303   3.404   1.723   9.924  2.1762  0.3370 -4.3851
   24MOL0     H 3304   3.470   1.500  10.132  1.4315  1.4238 -1.3567
   24MOL0     H 3305   3.361   1.639  10.159 -1.5859  4.5997 -2.7839
   24MOL0     H 3306   3.252   1.399  10.087 -2.2813 -0.1311 -0.3149
   24MOL0     H 3307   3.315   1.417   9.931  0.8745 -1.6403  2.4022
   24MOL0     H 3308   2.962   1.641   9.899  0.2397 -0.1495 -1.2311
   24MOL0     H 3309   3.733   1.557   9.847  1.9264  0.6686  1.2831
   24MOL0     H 3310   3.890   1.469   9.544  1.0575 -2.4768 -0.1347
   24MOL0     H 3311   3.965   1.444   9.707  1.8701  1.3417 -2.3197
   24MOL0     H 3312   3.798   1.410   9.683  0.3167  0.5668  1.9006
   25MOL0     O 3313   5.122   7.716   4.841  0.4287 -0.2428  0.2566
   25MOL0     C 3314   5.020   7.789   4.827 -1.0950  0.4071 -0.1571
   25MOL0     O 3315   5.009   7.920   4.868  0.0084  0.5072  0.2597
   25MOL0     C 3316   5.124   7.972   4.931 -0.5443  1.2697  0.0819
   25MOL0     C 3317   5.121   7.977   5.074 -0.4817 -0.3685 -0.4677
   25MOL0     C 3318   5.214   8.052   5.141  0.4022  0.7488  0.0985
   25MOL0     C 3319   5.322   8.104   5.076 -0.0896 -0.3525 -0.8283
   25MOL0     O 3320   5.428   8.165   5.141 -0.6305  0.1277  0.9473
   25MOL0     C 3321   5.426   8.145   5.284 -0.9370  0.8854  0.2666
   25MOL0     C 3322   5.571   8.096   5.326  0.5915  0.2228 -0.6979
   25MOL0     C 3323   5.671   8.211   5.344 -0.1637  0.8726  0.1928
   25MOL0     C 3324   5.799   8.142   5.380 -0.3430 -0.1069  0.1713
   25MOL0     C 3325   5.916   8.252   5.395  0.0697 -0.4767 -1.2571
   25MOL0     C 3326   6.043   8.189   5.440  0.2668 -0.7555  0.8172
   25MOL0     C 3327   6.167   8.287   5.419 -0.8916  0.7854 -0.0218
   25MOL0     C 3328   6.186   8.385   5.542  0.5525  0.3212  1.3302
   25MOL0     N 3329   6.218   8.301   5.658  0.3407 -1.0842 -0.9726
   25MOL0     C 3330   6.128   8.286   5.757 -0.1791 -0.5704  0.4128
   25MOL0     C 3331   6.164   8.170   5.811  0.2067  0.7187 -0.7304
   25MOL0     C 3332   6.096   8.107   5.925 -0.0505  0.5795  0.3724
   25MOL0     C 3333   5.946   8.075   5.890 -0.2335 -0.1338  0.0125
   25MOL0     C 3334   5.891   7.956   5.970 -0.5883  0.1350 -0.2397
   25MOL0     C 3335   5.739   7.939   5.971  0.1459 -0.9149 -0.1100
   25MOL0     O 3336   5.689   7.963   5.836  0.2431 -0.1611  0.1101
   25MOL0     C 3337   5.562   7.924   5.808  0.1010  0.3559 -0.6522
   25MOL0     C 3338   5.477   7.844   5.877  0.1757  0.1841 -0.5705
   25MOL0     C 3339   5.352   7.813   5.835  0.8885  0.3421 -0.3296
   25MOL0     C 3340   5.271   7.716   5.921 -0.5240 -0.0294 -0.2806
   25MOL0     C 3341   5.302   7.873   5.723 -0.0775 -0.5732  1.2775
   25MOL0     C 3342   5.170   7.861   5.666 -0.4297 -0.1173  0.6761
   25MOL0     O 3343   5.171   7.857   5.530 -0.2786  0.0501  0.6154
   25MOL0     C 3344   5.056   7.836   5.456  0.1170  0.3916 -0.6085
   25MOL0     C 3345   4.945   7.916   5.450  1.4240 -0.0755  0.1286
   25MOL0     C 3346   4.830   7.890   5.373  0.1772  0.4336  0.1892
   25MOL0     C 3347   4.821   7.776   5.293  0.5599 -0.5658  0.2966
   25MOL0     O 3348   4.710   7.743   5.215 -0.3127  0.9048  0.1223
   25MOL0     C 3349   4.596   7.678   5.279 -0.0401  0.0388  0.2385
   25MOL0     C 3350   4.501   7.637   5.157 -0.3751 -0.3564  0.3824
   25MOL0     C 3351   4.357   7.590   5.216  0.6035 -0.9560  0.3265
   25MOL0     C 3352   4.249   7.552   5.105  0.5053 -0.2939 -0.3126
   25MOL0     C 3353   4.112   7.563   5.173  0.4895  0.0511 -0.1027
   25MOL0     C 3354   4.077   7.442   5.252 -0.0988 -0.0963 -0.5501
   25MOL0     C 3355   3.935   7.447   5.309 -0.6769  0.7616 -0.5399
   25MOL0     C 3356   3.905   7.331   5.400 -0.0958 -0.6535 -0.4980
   25MOL0    Cl 3357   3.895   7.185   5.311 -0.0998 -0.3746 -0.2176
   25MOL0     C 3358   4.925   7.690   5.302 -0.4816 -0.8216  0.7797
   25MOL0     C 3359   5.041   7.719   5.381 -0.0304  0.6219 -0.2952
   25MOL0     O 3360   5.075   7.853   5.739 -0.1675 -0.3131 -0.0257
   25MOL0     C 3361   5.382   7.966   5.648  1.1344  1.1079 -0.8014
   25MOL0     C 3362   5.509   7.990   5.695  0.0731 -0.3599 -1.3190
   25MOL0     N 3363   6.267   8.110   5.746  0.2617 -0.2161 -0.4176
   25MOL0     N 3364   6.299   8.194   5.650  0.0976  0.4225 -0.5113
   25MOL0     C 3365   5.329   8.097   4.938  0.4932 -1.2552  0.7813
   25MOL0     C 3366   5.236   8.027   4.860 -0.3950  0.2666  0.3149
   25MOL0     C 3367   4.894   7.721   4.790 -0.4570  0.4266 -0.4120
   25MOL0     C 3368   4.776   7.788   4.832  0.6915 -0.2317  0.6446
   25MOL0     C 3369   4.647   7.742   4.809 -0.6110  0.2173  0.8841
   25MOL0     C 3370   4.632   7.619   4.753  0.8570  0.0722 -0.9766
   25MOL0     O 3371   4.505   7.562   4.743 -0.9691 -0.4367  0.0663
   25MOL0     C 3372   4.418   7.617   4.647  0.0158 -0.0686 -0.1459
   25MOL0     C 3373   4.454   7.570   4.507 -0.1595  0.6501  0.6991
   25MOL0     C 3374   4.360   7.617   4.399  0.4837 -1.6280 -0.1720
   25MOL0     C 3375   4.389   7.551   4.267  0.0242 -0.6396  0.1252
   25MOL0     C 3376   4.343   7.414   4.251 -0.0750 -0.6942  0.1776
   25MOL0     C 3377   4.313   7.299   4.233  1.0201 -0.4185 -0.0755
   25MOL0     C 3378   4.745   7.550   4.705 -0.5848  0.3910  0.5880
   25MOL0     C 3379   4.873   7.599   4.716 -0.3797 -0.1874  0.5348
   25MOL0     C 3380   4.988   7.529   4.647 -0.3550 -0.3801 -0.1350
   25MOL0     H 3381   5.033   7.940   5.127  0.6386 -0.5276  1.3718
   25MOL0     H 3382   5.194   8.057   5.247  1.4375 -0.5350  0.3858
   25MOL0     H 3383   5.367   8.067   5.334 -1.1998  0.0347 -1.3271
   25MOL0     H 3384   5.399   8.242   5.328 -4.9962 -0.9021  2.2981
   25MOL0     H 3385   5.563   8.047   5.423 -1.0233  1.9192  0.1009
   25MOL0     H 3386   5.607   8.031   5.245 -0.0753 -0.2358 -0.6367
   25MOL0     H 3387   5.674   8.271   5.252 -0.4907  3.9325  2.0507
   25MOL0     H 3388   5.651   8.291   5.416  2.0436  1.0493  0.6640
   25MOL0     H 3389   5.780   8.086   5.473 -1.9686 -0.4209 -0.3178
   25MOL0     H 3390   5.823   8.070   5.302  0.3287  2.7585 -2.4713
   25MOL0     H 3391   5.891   8.324   5.473  0.8258 -0.2452 -1.2255
   25MOL0     H 3392   5.932   8.305   5.301  1.9855  0.7033 -0.3380
   25MOL0     H 3393   6.027   8.158   5.544 -2.7317 -0.8313  0.4400
   25MOL0     H 3394   6.068   8.104   5.376 -2.3918 -1.8736  1.1031
   25MOL0     H 3395   6.139   8.344   5.330  2.0177  1.4513 -0.6100
   25MOL0     H 3396   6.254   8.223   5.400 -0.2484  1.7511 -0.4568
   25MOL0     H 3397   6.253   8.469   5.520  0.3140  0.8582  2.5725
   25MOL0     H 3398   6.086   8.430   5.553 -0.2338 -0.5923 -1.2997
   25MOL0     H 3399   6.033   8.335   5.774 -1.7484 -3.0958 -0.5125
   25MOL0     H 3400   6.085   8.161   6.019 -4.2948 -2.2065  1.8000
   25MOL0     H 3401   6.146   8.011   5.943 -3.2182 -1.7820 -2.1753
   25MOL0     H 3402   5.883   8.162   5.910 -0.5018 -0.5556  1.1025
   25MOL0     H 3403   5.944   8.041   5.786  1.6695  1.6511 -0.6713
   25MOL0     H 3404   5.930   7.861   5.934  0.6045  1.4027 -2.5379
   25MOL0     H 3405   5.915   7.961   6.077 -1.5471  0.6311 -0.0327
   25MOL0     H 3406   5.710   7.840   6.005 -0.3670 -1.5935 -2.3575
   25MOL0     H 3407   5.702   8.011   6.044 -0.1883  0.2784 -1.3937
   25MOL0     H 3408   5.515   7.781   5.956  0.5251  1.0206 -0.0569
   25MOL0     H 3409   5.324   7.644   5.984 -0.3522  1.2670  1.0909
   25MOL0     H 3410   5.198   7.667   5.856 -0.4561  0.1589 -0.5019
   25MOL0     H 3411   5.223   7.786   5.989 -1.0321  0.2604 -0.9225
   25MOL0     H 3412   4.947   8.018   5.486 -0.7803  0.5846 -1.4265
   25MOL0     H 3413   4.768   7.977   5.354 -0.6888 -0.2668 -0.2384
   25MOL0     H 3414   4.630   7.586   5.328  1.6337  0.0027 -0.8818
   25MOL0     H 3415   4.563   7.746   5.358  2.4430  3.1286 -1.1537
   25MOL0     H 3416   4.500   7.722   5.088 -0.7542 -0.0263  0.7906
   25MOL0     H 3417   4.553   7.559   5.101  0.0106 -0.1844  0.5012
   25MOL0     H 3418   4.318   7.671   5.277  1.2561  0.6663 -1.3227
   25MOL0     H 3419   4.370   7.501   5.279  1.8360 -0.6590  0.5088
   25MOL0     H 3420   4.259   7.447   5.076  0.2133 -0.0870 -1.1769
   25MOL0     H 3421   4.257   7.617   5.017  0.3432 -1.4034 -1.1700
   25MOL0     H 3422   4.107   7.655   5.232  1.9013  1.2919 -1.8115
   25MOL0     H 3423   4.032   7.571   5.098  0.4222 -0.0364 -0.0401
   25MOL0     H 3424   4.148   7.426   5.333 -0.6156 -1.4801 -0.3411
   25MOL0     H 3425   4.086   7.357   5.183  2.0069  0.4047 -0.9470
   25MOL0     H 3426   3.875   7.449   5.218 -0.1511  1.7106 -0.8754
   25MOL0     H 3427   3.912   7.535   5.370  1.3103  1.1427 -0.2948
   25MOL0     H 3428   3.813   7.344   5.457  1.1486  0.2274  1.4021
   25MOL0     H 3429   3.984   7.311   5.473 -1.6731 -3.7991  0.5271
   25MOL0     H 3430   4.915   7.599   5.244 -1.6706 -0.6856  0.7598
   25MOL0     H 3431   5.122   7.647   5.377 -2.4757 -2.3141 -0.4668
   25MOL0     H 3432   5.342   8.023   5.565  0.4186 -0.0681 -1.2851
   25MOL0     H 3433   5.567   8.067   5.646  1.9914 -0.1879  1.0298
   25MOL0     H 3434   5.419   8.140   4.895  1.2267 -2.1594  1.3926
   25MOL0     H 3435   5.244   8.021   4.752 -3.2866  0.7865 -0.0013
   25MOL0     H 3436   4.777   7.886   4.880 -4.2093  1.1489 -1.3817
   25MOL0     H 3437   4.568   7.805   4.849 -1.3098  0.5358 -0.9121
   25MOL0     H 3438   4.322   7.569   4.670  1.8714 -2.9120  2.4466
   25MOL0     H 3439   4.392   7.723   4.657 -3.1236 -0.7493 -0.2026
   25MOL0     H 3440   4.463   7.461   4.514 -1.8061  0.5349  1.5147
   25MOL0     H 3441   4.551   7.611   4.478 -0.2755 -0.7326 -1.9663
   25MOL0     H 3442   4.257   7.600   4.431  0.1861  0.6728  0.2275
   25MOL0     H 3443   4.377   7.723   4.376 -1.6943 -1.6421 -2.2584
   25MOL0     H 3444   4.498   7.547   4.254 -0.2274 -1.9378 -2.2706
   25MOL0     H 3445   4.349   7.612   4.186  0.8991  0.3814  0.4410
   25MOL0     H 3446   4.255   7.211   4.211  0.8899 -1.0221  2.3766
   25MOL0     H 3447   4.730   7.450   4.664 -0.3896  0.6025 -0.0199
   25MOL0     H 3448   4.964   7.498   4.545 -0.5274  0.2392 -0.2830
   25MOL0     H 3449   5.077   7.591   4.634 -0.7874  0.2445 -0.1495
   25MOL0     H 3450   5.012   7.434   4.697 -1.4195 -0.5866 -0.0028
   26MOL0     O 3451   7.083   7.222  11.422 -0.4273  0.3971  0.0992
   26MOL0     C 3452   7.190   7.277  11.388 -0.2012  0.9332 -0.2390
   26MOL0     O 3453   7.199   7.408  11.331  0.3126 -0.3947 -0.5141
   26MOL0     C 3454   7.120   7.504  11.380  0.0211 -0.0863  0.2218
   26MOL0     C 3455   7.046   7.499  11.497 -0.6128 -0.1796 -0.1311
   26MOL0     C 3456   6.983   7.619  11.539  0.8393  0.9459  0.0941
   26MOL0     C 3457   6.995   7.732  11.453  1.6565  0.4284  0.1007
   26MOL0     O 3458   6.910   7.839  11.488  0.8936  0.2596 -0.5491
   26MOL0     C 3459   6.921   7.972  11.422  1.2271  0.0466 -0.2489
   26MOL0     C 3460   6.801   8.058  11.465 -0.0659 -0.0524 -0.3338
   26MOL0     C 3461   6.807   8.087  11.611  1.3659 -0.2911  0.2138
   26MOL0     C 3462   6.677   8.138  11.662  0.8843  0.5985  0.6110
   26MOL0     C 3463   6.693   8.163  11.813  0.8406  0.4359 -0.0832
   26MOL0     C 3464   6.556   8.156  11.885  0.9838  0.0413  0.5914
   26MOL0     C 3465   6.574   8.167  12.033 -0.4690 -1.0583 -0.2526
   26MOL0     C 3466   6.455   8.154  12.121  0.6586  0.7902  0.1865
   26MOL0     N 3467   6.467   8.119  12.264  0.6953 -0.3706 -0.3965
   26MOL0     C 3468   6.537   8.016  12.298 -0.6147  0.5034  0.8428
   26MOL0     C 3469   6.547   8.015  12.437  0.1747  0.3799  0.5551
   26MOL0     C 3470   6.644   7.924  12.507  1.0578  0.0443 -0.4471
   26MOL0     C 3471   6.697   7.991  12.636  1.0742 -0.3028 -0.2119
   26MOL0     C 3472   6.805   7.903  12.705 -0.2915  0.9912  1.1085
   26MOL0     C 3473   6.861   7.977  12.828  0.3989 -1.0145  0.3101
   26MOL0     O 3474   6.963   7.884  12.884 -0.5005 -0.2352 -0.1560
   26MOL0     C 3475   7.067   7.934  12.962  0.3551 -0.6870  0.8305
   26MOL0     C 3476   7.108   7.855  13.068 -0.2789  0.2593 -0.0522
   26MOL0     C 3477   7.216   7.881  13.138  0.1539 -0.1783  0.2657
   26MOL0     C 3478   7.248   7.799  13.264 -0.5183  0.0785  0.5207
   26MOL0     C 3479   7.301   7.997  13.099 -0.1646  0.4199 -0.0154
   26MOL0     C 3480   7.425   8.039  13.173 -0.0901 -0.3495  0.3391
   26MOL0     O 3481   7.475   8.164  13.134  0.9759  0.5527 -0.4733
   26MOL0     C 3482   7.603   8.184  13.170 -0.9656 -0.3629 -0.0030
   26MOL0     C 3483   7.707   8.158  13.076  1.1701  0.7635  0.4994
   26MOL0     C 3484   7.843   8.196  13.105 -1.3886  0.5819 -0.2101
   26MOL0     C 3485   7.882   8.261  13.224  1.5067  0.9309  0.3470
   26MOL0     O 3486   8.011   8.296  13.264  0.0978  0.0619  0.4527
   26MOL0     C 3487   8.129   8.239  13.195 -0.1302 -0.4754 -0.2782
   26MOL0     C 3488   8.254   8.286  13.268 -0.5748 -0.4305  0.4182
   26MOL0     C 3489   8.269   8.437  13.267 -0.5511  0.5436  0.3116
   26MOL0     C 3490   8.412   8.509  13.276  0.0417  0.0206 -0.3375
   26MOL0     C 3491   8.440   8.518  13.432 -0.3901  0.4727  0.7524
   26MOL0     C 3492   8.568   8.600  13.448  0.0839 -0.0956 -0.1050
   26MOL0     C 3493   8.698   8.524  13.441  0.4258 -0.6316 -0.1536
   26MOL0     C 3494   8.818   8.621  13.437  0.5546  0.7278 -0.1080
   26MOL0    Cl 3495   8.829   8.732  13.297 -0.0965  0.0232  0.5244
   26MOL0     C 3496   7.771   8.295  13.310  0.2693  0.1588 -0.6582
   26MOL0     C 3497   7.636   8.253  13.284  0.6362 -1.1624 -1.0146
   26MOL0     O 3498   7.478   7.963  13.253 -0.2712  0.0009  0.3159
   26MOL0     C 3499   7.245   8.088  13.011 -0.8181  0.8924  0.0079
   26MOL0     C 3500   7.141   8.050  12.931  0.2595  0.0815 -0.4537
   26MOL0     N 3501   6.485   8.132  12.474  0.3149  0.1445  0.9375
   26MOL0     N 3502   6.429   8.192  12.370 -0.3989  0.4536 -0.0994
   26MOL0     C 3503   7.057   7.727  11.329  0.1343 -0.0731 -0.6110
   26MOL0     C 3504   7.134   7.616  11.304 -0.0681  0.3779 -0.0678
   26MOL0     C 3505   7.320   7.202  11.376  0.3556  0.0537 -0.3732
   26MOL0     C 3506   7.400   7.235  11.266 -0.1211  0.1311  1.0806
   26MOL0     C 3507   7.526   7.172  11.245 -0.4874  0.6388 -0.0571
   26MOL0     C 3508   7.560   7.069  11.325  0.1284  0.0730  0.2694
   26MOL0     O 3509   7.693   7.023  11.297 -0.1764 -0.5805  0.8961
   26MOL0     C 3510   7.758   6.899  11.349  1.1411  0.0752  0.1841
   26MOL0     C 3511   7.853   6.914  11.470 -0.0373 -0.9994  0.0148
   26MOL0     C 3512   7.803   7.003  11.576 -0.6600  0.0179  0.2201
   26MOL0     C 3513   7.883   7.013  11.697 -0.2715  0.1931  0.3074
   26MOL0     C 3514   7.856   6.893  11.781  0.6521  0.5839  0.4693
   26MOL0     C 3515   7.848   6.815  11.876  0.1070  0.0288 -0.0183
   26MOL0     C 3516   7.482   7.036  11.434 -0.4372  0.1820  1.4079
   26MOL0     C 3517   7.364   7.097  11.460 -0.8728  0.2178 -0.3594
   26MOL0     C 3518   7.301   7.058  11.595 -0.0514  0.3419 -0.7682
   26MOL0     H 3519   7.044   7.412  11.562  2.1017  0.4582  0.9728
   26MOL0     H 3520   6.932   7.628  11.634 -1.0079  3.3746 -1.0003
   26MOL0     H 3521   6.920   7.974  11.313 -2.8221 -1.1661 -0.3976
   26MOL0     H 3522   7.012   8.020  11.459  1.4543  0.2798 -1.1000
   26MOL0     H 3523   6.821   8.148  11.406 -0.3293  1.6624  2.0551
   26MOL0     H 3524   6.707   8.007  11.442 -0.1382 -0.4466  0.7493
   26MOL0     H 3525   6.832   8.003  11.676 -0.8444  0.8677  2.7970
   26MOL0     H 3526   6.876   8.172  11.619  0.8140  0.1471  0.3461
   26MOL0     H 3527   6.645   8.222  11.599 -0.2977 -0.8510 -0.8108
   26MOL0     H 3528   6.610   8.053  11.650  1.3225  0.4956 -1.5275
   26MOL0     H 3529   6.754   8.251  11.835 -0.9134  1.2008  2.0053
   26MOL0     H 3530   6.752   8.080  11.854  0.0599 -0.1718 -0.1586
   26MOL0     H 3531   6.487   8.229  11.842 -3.2958 -2.9663  1.6077
   26MOL0     H 3532   6.511   8.059  11.860 -0.1969  0.8668 -0.5674
   26MOL0     H 3533   6.616   8.264  12.059 -0.3668 -1.0280 -0.5273
   26MOL0     H 3534   6.651   8.091  12.052  0.7523 -0.3905 -2.2025
   26MOL0     H 3535   6.395   8.244  12.103  0.1131  0.6314  1.1402
   26MOL0     H 3536   6.392   8.080  12.072  0.6971  0.5789  0.4507
   26MOL0     H 3537   6.572   7.938  12.230 -1.9850 -1.0501  1.8308
   26MOL0     H 3538   6.715   7.906  12.426 -1.5886  1.8569 -3.4062
   26MOL0     H 3539   6.584   7.833  12.525  0.2564  0.0034 -2.9923
   26MOL0     H 3540   6.737   8.090  12.617  2.0769 -0.6379  0.0868
   26MOL0     H 3541   6.611   8.003  12.702  0.0060  4.3445 -2.1024
   26MOL0     H 3542   6.761   7.811  12.743  1.0095  0.7145  1.9902
   26MOL0     H 3543   6.880   7.885  12.627 -3.2636 -0.4768 -1.6145
   26MOL0     H 3544   6.904   8.072  12.794 -0.0387 -0.7657  0.4488
   26MOL0     H 3545   6.782   7.981  12.904  1.0365 -0.6333  0.9639
   26MOL0     H 3546   7.041   7.769  13.068 -1.2004  0.8132 -3.2411
   26MOL0     H 3547   7.325   7.723  13.255 -0.4169  0.0699  1.3594
   26MOL0     H 3548   7.160   7.747  13.303 -0.9116  1.8250  2.1402
   26MOL0     H 3549   7.286   7.873  13.336  2.2686  0.5986 -1.3119
   26MOL0     H 3550   7.672   8.117  12.982 -1.8801  2.0112  0.9810
   26MOL0     H 3551   7.920   8.154  13.042 -4.6013 -2.3670 -2.6007
   26MOL0     H 3552   8.127   8.130  13.188  1.3626 -0.6525  1.5053
   26MOL0     H 3553   8.129   8.275  13.092 -0.5552  1.5435  0.3708
   26MOL0     H 3554   8.253   8.256  13.374 -0.1860  1.9108  1.1468
   26MOL0     H 3555   8.340   8.230  13.229  0.2237  1.5459 -0.7886
   26MOL0     H 3556   8.206   8.483  13.344  1.7810  0.4672  2.3662
   26MOL0     H 3557   8.228   8.469  13.170 -1.3726  2.0504  1.1307
   26MOL0     H 3558   8.391   8.606  13.230 -0.3788  0.4705  0.7490
   26MOL0     H 3559   8.487   8.445  13.230 -0.7441 -1.2444  0.0856
   26MOL0     H 3560   8.360   8.572  13.484  0.2060  0.3000  1.8726
   26MOL0     H 3561   8.446   8.423  13.485  1.2307  0.4672  0.6148
   26MOL0     H 3562   8.569   8.656  13.542 -1.6581  0.2599 -0.2579
   26MOL0     H 3563   8.566   8.672  13.366 -1.3325  0.0154 -0.0023
   26MOL0     H 3564   8.695   8.460  13.352 -0.9264 -1.6596  0.5928
   26MOL0     H 3565   8.702   8.457  13.527  0.3203 -1.3364 -0.6826
   26MOL0     H 3566   8.913   8.567  13.448 -0.4089 -0.8347  0.8138
   26MOL0     H 3567   8.805   8.689  13.523 -0.3122  1.6128 -0.9133
   26MOL0     H 3568   7.785   8.346  13.405 -2.6779 -2.5513  1.4460
   26MOL0     H 3569   7.556   8.280  13.353 -0.9834 -2.8738 -2.1565
   26MOL0     H 3570   7.295   8.184  12.999  1.6663 -0.2682  0.4699
   26MOL0     H 3571   7.115   8.110  12.845  3.2353  1.3142 -0.6313
   26MOL0     H 3572   7.070   7.815  11.267  0.6736  0.4185  0.1701
   26MOL0     H 3573   7.205   7.613  11.222 -1.3054 -1.4732 -1.1318
   26MOL0     H 3574   7.373   7.307  11.189  1.5114 -1.8043 -1.4544
   26MOL0     H 3575   7.582   7.211  11.161  1.5829 -0.8986  0.5355
   26MOL0     H 3576   7.679   6.838  11.394  0.4464 -0.5051 -1.6956
   26MOL0     H 3577   7.816   6.856  11.267 -1.5914  0.8315 -2.3187
   26MOL0     H 3578   7.944   6.956  11.426 -0.0954 -0.2056  0.6386
   26MOL0     H 3579   7.873   6.809  11.497 -0.2521 -0.6874  1.4896
   26MOL0     H 3580   7.793   7.099  11.525  2.7417 -0.1965 -1.1539
   26MOL0     H 3581   7.699   6.978  11.600  0.1039 -0.8303  3.0625
   26MOL0     H 3582   7.855   7.107  11.744 -1.9718  0.4112 -1.0644
   26MOL0     H 3583   7.985   7.006  11.657 -0.6938 -0.1852 -0.7590
   26MOL0     H 3584   7.844   6.744  11.956 -0.3899  1.9079  1.7175
   26MOL0     H 3585   7.512   6.959  11.505 -3.0107 -1.1942  1.1222
   26MOL0     H 3586   7.198   7.095  11.600  0.5095  2.0476 -0.8821
   26MOL0     H 3587   7.287   6.950  11.607  1.7555  0.2322  0.7092
   26MOL0     H 3588   7.351   7.097  11.684 -4.5141 -1.8409  3.0881
   27MOL0     O 3589   9.478   2.623   7.385 -0.3247  0.2533  0.6665
   27MOL0     C 3590   9.434   2.720   7.442 -0.6560 -0.2341 -0.2865
   27MOL0     O 3591   9.410   2.837   7.390 -0.2549  0.4114 -0.4864
   27MOL0     C 3592   9.412   2.854   7.256  0.0549  0.7266 -0.0345
   27MOL0     C 3593   9.509   2.929   7.199 -0.9741  0.4628  0.0240
   27MOL0     C 3594   9.511   2.948   7.056  0.1024 -0.3350  0.6821
   27MOL0     C 3595   9.402   2.904   6.980  0.1247 -0.2031 -0.2744
   27MOL0     O 3596   9.406   2.933   6.850  0.4710 -0.8996 -0.4722
   27MOL0     C 3597   9.310   2.879   6.757 -0.0707  0.5615 -0.4711
   27MOL0     C 3598   9.295   2.955   6.629  0.5904 -0.7202 -0.3312
   27MOL0     C 3599   9.291   3.104   6.641  0.2166  0.3768  0.1078
   27MOL0     C 3600   9.315   3.155   6.491  0.6462  0.5845 -0.0505
   27MOL0     C 3601   9.254   3.296   6.479  0.0602 -0.3737  0.4397
   27MOL0     C 3602   9.289   3.383   6.600 -0.4820 -0.1003 -0.1790
   27MOL0     C 3603   9.274   3.531   6.586 -0.4014  0.2606 -0.1077
   27MOL0     C 3604   9.132   3.571   6.563  0.1204  0.0330  0.3671
   27MOL0     N 3605   9.117   3.720   6.551  0.3340 -0.0342 -0.2683
   27MOL0     C 3606   9.114   3.814   6.654 -0.0059  0.3884  0.2807
   27MOL0     C 3607   9.088   3.932   6.588 -1.6706  1.0729 -0.5462
   27MOL0     C 3608   9.083   4.062   6.665  0.9805  0.2510  0.0244
   27MOL0     C 3609   9.210   4.077   6.745 -0.6596  0.3867  0.2900
   27MOL0     C 3610   9.190   4.038   6.887  0.1321  0.0743  0.7426
   27MOL0     C 3611   9.324   4.045   6.950  1.4725 -0.0107 -0.6371
   27MOL0     O 3612   9.310   4.002   7.090  0.9229 -0.1355  0.8599
   27MOL0     C 3613   9.406   4.022   7.187 -1.7048 -0.1046 -0.5311
   27MOL0     C 3614   9.380   3.994   7.313 -0.2308 -0.2921 -0.5060
   27MOL0     C 3615   9.477   4.006   7.413 -0.6126  0.5784 -0.2579
   27MOL0     C 3616   9.443   3.963   7.556  0.0427 -0.4846  0.1080
   27MOL0     C 3617   9.614   4.046   7.376  0.0516  0.4541 -0.2477
   27MOL0     C 3618   9.729   4.067   7.462 -0.2272  0.4965 -0.1102
   27MOL0     O 3619   9.850   4.063   7.404  0.0164 -0.4539  0.1424
   27MOL0     C 3620   9.959   4.052   7.493  0.0094  0.1718 -0.5164
   27MOL0     C 3621   9.969   3.951   7.585 -0.9020  0.0701 -0.5455
   27MOL0     C 3622  10.078   3.950   7.673 -0.1228 -0.5317  0.2153
   27MOL0     C 3623  10.179   4.051   7.664 -0.3475 -0.0254  0.3381
   27MOL0     O 3624  10.288   4.060   7.744  0.1640  0.4413 -0.3182
   27MOL0     C 3625  10.293   3.975   7.858 -0.2695  0.2509 -1.0669
   27MOL0     C 3626  10.442   4.002   7.922  0.2852  0.1614  0.2955
   27MOL0     C 3627  10.552   3.969   7.826  0.1376 -0.4729  0.1400
   27MOL0     C 3628  10.694   3.958   7.905 -0.0995 -1.1851  0.2663
   27MOL0     C 3629  10.742   4.088   7.987 -0.2435  1.1093 -0.3214
   27MOL0     C 3630  10.887   4.067   8.019 -0.0487 -0.7733  0.2077
   27MOL0     C 3631  10.988   4.127   7.912 -0.1355 -0.0364 -0.1628
   27MOL0     C 3632  11.134   4.125   7.947  0.4409  1.2139  0.4650
   27MOL0    Cl 3633  11.184   3.958   7.929 -0.9127  0.0898  0.2689
   27MOL0     C 3634  10.170   4.148   7.562  0.2337 -0.1628 -0.4662
   27MOL0     C 3635  10.068   4.140   7.469 -0.3792 -0.3260 -0.5413
   27MOL0     O 3636   9.711   4.103   7.575 -0.2671 -0.6039 -0.1761
   27MOL0     C 3637   9.630   4.083   7.237  0.0757 -0.1628 -0.5226
   27MOL0     C 3638   9.530   4.064   7.142  0.5787  1.0844  0.3695
   27MOL0     N 3639   9.093   3.903   6.448  0.3104 -0.4787 -0.0888
   27MOL0     N 3640   9.107   3.781   6.430 -0.4280 -0.2414 -0.4178
   27MOL0     C 3641   9.301   2.832   7.045 -0.3104 -0.1451  0.3235
   27MOL0     C 3642   9.308   2.800   7.182  0.3880  0.4612  0.3988
   27MOL0     C 3643   9.400   2.700   7.577 -0.9027  0.3065  0.2608
   27MOL0     C 3644   9.458   2.784   7.667  0.3202 -0.3625  0.0633
   27MOL0     C 3645   9.436   2.769   7.797  0.4804 -0.4636 -0.2154
   27MOL0     C 3646   9.367   2.658   7.852 -0.3862  0.4262 -0.0746
   27MOL0     O 3647   9.346   2.639   7.986 -0.1762  0.1474  0.9238
   27MOL0     C 3648   9.290   2.757   8.050  0.5491 -0.1191  0.1215
   27MOL0     C 3649   9.169   2.830   7.995 -0.7365 -0.2065 -0.8320
   27MOL0     C 3650   9.058   2.731   7.972 -0.6822  0.1570 -0.3735
   27MOL0     C 3651   8.983   2.678   8.097 -0.3179 -0.9180  0.8173
   27MOL0     C 3652   8.910   2.783   8.167  0.7243  0.6146  0.4957
   27MOL0     C 3653   8.834   2.858   8.226  0.3275 -0.3958 -1.0310
   27MOL0     C 3654   9.319   2.564   7.763 -0.3476 -0.1316 -0.3620
   27MOL0     C 3655   9.330   2.589   7.625  0.0216  0.3905  0.1948
   27MOL0     C 3656   9.266   2.501   7.516 -0.4424  0.1210  0.2916
   27MOL0     H 3657   9.604   2.951   7.247 -2.1448  0.2205  2.6703
   27MOL0     H 3658   9.598   2.992   7.008  0.1681 -1.5559 -0.3673
   27MOL0     H 3659   9.216   2.875   6.812  0.3194 -3.4461  0.2032
   27MOL0     H 3660   9.343   2.775   6.751  0.6754  0.6679  1.1055
   27MOL0     H 3661   9.380   2.921   6.570  0.3790  0.2831 -1.2482
   27MOL0     H 3662   9.196   2.931   6.590 -0.9554 -1.0126  3.3572
   27MOL0     H 3663   9.193   3.136   6.678  0.2193  1.8517 -1.0957
   27MOL0     H 3664   9.371   3.140   6.706  1.1526 -0.9705 -0.2412
   27MOL0     H 3665   9.421   3.141   6.467  0.8791  0.8253  0.7762
   27MOL0     H 3666   9.258   3.098   6.418 -0.3315  0.6885  0.6120
   27MOL0     H 3667   9.145   3.286   6.479  0.1857 -2.1709 -0.0606
   27MOL0     H 3668   9.287   3.342   6.385  0.2621 -2.1962 -0.4225
   27MOL0     H 3669   9.239   3.346   6.690  1.3434 -0.2217  0.8504
   27MOL0     H 3670   9.394   3.372   6.630  0.3361  1.9472 -2.0120
   27MOL0     H 3671   9.338   3.554   6.499  0.1267  0.7574  0.4033
   27MOL0     H 3672   9.311   3.579   6.677  4.5658  2.5768 -2.9044
   27MOL0     H 3673   9.092   3.532   6.468 -2.0767 -0.0229  1.2523
   27MOL0     H 3674   9.062   3.533   6.638 -0.7736  1.3785  0.2331
   27MOL0     H 3675   9.120   3.795   6.761  2.0135  3.1411  0.7771
   27MOL0     H 3676   8.997   4.065   6.732  2.0040 -1.7057  1.5142
   27MOL0     H 3677   9.064   4.135   6.585  1.3305 -2.2439 -2.4860
   27MOL0     H 3678   9.283   4.015   6.692 -2.0037  1.4618 -3.0874
   27MOL0     H 3679   9.248   4.180   6.736  1.3423  0.0117  3.0179
   27MOL0     H 3680   9.116   4.100   6.939 -0.6524 -0.3559  0.1518
   27MOL0     H 3681   9.158   3.934   6.888  4.7936 -1.7315 -2.5739
   27MOL0     H 3682   9.395   3.982   6.895  1.7090 -0.6588  0.3751
   27MOL0     H 3683   9.361   4.147   6.943 -1.0619  1.0387  0.1332
   27MOL0     H 3684   9.274   3.971   7.324 -0.1807 -1.3525 -2.0559
   27MOL0     H 3685   9.399   4.044   7.614  2.3108 -0.2482  1.6106
   27MOL0     H 3686   9.528   3.936   7.619 -0.0801  3.0187  2.0209
   27MOL0     H 3687   9.370   3.881   7.547  0.1277 -0.5793  0.2799
   27MOL0     H 3688   9.901   3.866   7.588 -0.1466 -0.6684 -2.6518
   27MOL0     H 3689  10.095   3.874   7.748  1.4886  2.0115  2.6435
   27MOL0     H 3690  10.222   4.001   7.936  2.5799  4.4160  0.4979
   27MOL0     H 3691  10.292   3.868   7.834  0.6777  0.5626 -2.6666
   27MOL0     H 3692  10.450   4.105   7.959  2.3978  0.1743 -0.0487
   27MOL0     H 3693  10.442   3.936   8.009 -0.0964 -2.2366 -1.4378
   27MOL0     H 3694  10.555   4.056   7.759 -0.0921  0.8841  1.8104
   27MOL0     H 3695  10.537   3.882   7.762 -0.6713  1.8267 -3.0789
   27MOL0     H 3696  10.773   3.935   7.833  0.1627  3.7059 -1.4071
   27MOL0     H 3697  10.694   3.878   7.980 -0.0098 -3.9446 -2.4854
   27MOL0     H 3698  10.725   4.173   7.921 -0.4154  0.3053 -1.3533
   27MOL0     H 3699  10.680   4.103   8.076  0.3428 -1.2468  0.5712
   27MOL0     H 3700  10.917   3.962   8.029  1.4730 -0.4467 -0.5771
   27MOL0     H 3701  10.911   4.115   8.114 -3.5639 -0.5224  1.0820
   27MOL0     H 3702  10.953   4.228   7.886  0.5445 -0.2773 -2.2178
   27MOL0     H 3703  10.970   4.080   7.815  1.5716 -0.5523 -0.2478
   27MOL0     H 3704  11.167   4.154   8.047  1.1902  1.3224  0.1907
   27MOL0     H 3705  11.183   4.188   7.872 -0.6317  0.2385 -1.1264
   27MOL0     H 3706  10.247   4.225   7.563 -0.8957  0.9862 -0.6708
   27MOL0     H 3707  10.069   4.220   7.396  0.1132 -0.9430 -1.2295
   27MOL0     H 3708   9.719   4.134   7.203  0.4019 -0.1284  0.3600
   27MOL0     H 3709   9.559   4.092   7.041  3.8307 -0.8557  0.6192
   27MOL0     H 3710   9.216   2.792   6.991 -0.7526  1.6513 -0.3801
   27MOL0     H 3711   9.227   2.739   7.222  0.3492  1.1589  1.4355
   27MOL0     H 3712   9.507   2.874   7.632  0.2375 -0.0567  0.7284
   27MOL0     H 3713   9.474   2.853   7.855  0.3075  0.3746 -1.2739
   27MOL0     H 3714   9.279   2.725   8.154  1.5931  0.2021  0.3494
   27MOL0     H 3715   9.372   2.830   8.054 -2.3427  3.4370  0.2867
   27MOL0     H 3716   9.192   2.871   7.896  1.2330 -0.1626 -0.3915
   27MOL0     H 3717   9.157   2.909   8.070 -2.1646 -1.5130  0.3777
   27MOL0     H 3718   8.980   2.781   7.914  0.1310  2.5161  0.4549
   27MOL0     H 3719   9.101   2.650   7.912 -1.0027  0.6474 -1.2786
   27MOL0     H 3720   9.062   2.638   8.162  0.0361 -2.2513 -0.3818
   27MOL0     H 3721   8.919   2.601   8.055 -2.1788  1.6955 -1.4847
   27MOL0     H 3722   8.768   2.919   8.284 -0.5736 -1.5683 -0.7664
   27MOL0     H 3723   9.250   2.492   7.805 -0.2398  1.1663  2.2791
   27MOL0     H 3724   9.335   2.466   7.439 -0.6801  2.3644 -1.0319
   27MOL0     H 3725   9.211   2.413   7.551 -1.8408  0.4677 -0.9579
   27MOL0     H 3726   9.210   2.565   7.448  1.4259  0.5738 -0.8777
   28MOL0     O 3727   5.968   6.225  11.485 -0.2965 -0.1918  0.2819
   28MOL0     C 3728   5.972   6.316  11.398 -0.3881  0.1658  0.0260
   28MOL0     O 3729   6.061   6.321  11.291  0.6883  0.3286  0.4392
   28MOL0     C 3730   6.142   6.218  11.288  0.9390  0.6949 -0.2080
   28MOL0     C 3731   6.097   6.104  11.232 -0.4191 -0.0359 -0.3935
   28MOL0     C 3732   6.189   5.990  11.244  0.3748 -0.3077  0.0791
   28MOL0     C 3733   6.313   5.992  11.298 -0.4086  0.4146 -0.4223
   28MOL0     O 3734   6.396   5.877  11.290 -0.1262 -0.2434 -0.3776
   28MOL0     C 3735   6.507   5.896  11.198 -0.1103  0.7648 -0.3519
   28MOL0     C 3736   6.570   5.767  11.152 -0.5627 -0.5768 -1.4357
   28MOL0     C 3737   6.665   5.726  11.272  0.4486  0.4374 -0.4825
   28MOL0     C 3738   6.706   5.586  11.261 -0.4179 -0.3463  0.3729
   28MOL0     C 3739   6.810   5.548  11.156 -0.1893  0.1130 -0.5193
   28MOL0     C 3740   6.824   5.397  11.160  0.3426  0.0458  0.3457
   28MOL0     C 3741   6.939   5.353  11.067  0.6499 -0.3259 -0.6683
   28MOL0     C 3742   7.070   5.416  11.117  0.7893 -1.0122 -0.2052
   28MOL0     N 3743   7.195   5.335  11.092 -0.4494 -0.0710 -1.2294
   28MOL0     C 3744   7.248   5.315  10.971 -0.5337 -0.2559  0.2155
   28MOL0     C 3745   7.351   5.236  11.001  0.4049 -0.3650  0.3112
   28MOL0     C 3746   7.452   5.170  10.911 -0.2222 -0.4750 -0.1787
   28MOL0     C 3747   7.387   5.072  10.813  0.5436  0.1347 -0.2703
   28MOL0     C 3748   7.485   5.026  10.703  0.6342  0.0650  0.3916
   28MOL0     C 3749   7.407   4.980  10.572 -0.6844  0.2356 -0.4219
   28MOL0     O 3750   7.396   5.087  10.478  0.3668 -0.2273  0.2933
   28MOL0     C 3751   7.469   5.065  10.364 -0.2681  0.7707 -0.1081
   28MOL0     C 3752   7.572   5.150  10.331  0.8123  0.0161 -0.1740
   28MOL0     C 3753   7.671   5.112  10.233  0.0510 -0.0197 -0.1657
   28MOL0     C 3754   7.777   5.211  10.207  0.1232 -0.0454  0.2532
   28MOL0     C 3755   7.655   4.983  10.167 -0.7092  0.1967 -0.3463
   28MOL0     C 3756   7.748   4.950  10.045 -1.4164 -0.7875 -0.9823
   28MOL0     O 3757   7.697   4.854   9.962  0.5078 -0.0475 -0.5286
   28MOL0     C 3758   7.762   4.817   9.855 -0.6551 -0.6129  0.6311
   28MOL0     C 3759   7.890   4.847   9.808 -0.1901  0.7354  0.2017
   28MOL0     C 3760   7.937   4.804   9.687 -0.2792  0.9532  0.0002
   28MOL0     C 3761   7.853   4.733   9.598  0.8745  0.5952 -0.4905
   28MOL0     O 3762   7.882   4.673   9.480 -0.1442 -0.1963  0.3519
   28MOL0     C 3763   8.021   4.632   9.468  0.0337 -0.6250 -1.3071
   28MOL0     C 3764   8.045   4.569   9.332  0.1297 -0.1396  0.9423
   28MOL0     C 3765   8.006   4.417   9.316 -0.4730  0.1750  0.4567
   28MOL0     C 3766   7.863   4.402   9.280  0.3604 -0.4058  0.0823
   28MOL0     C 3767   7.818   4.256   9.260  0.7314  0.6459 -0.1009
   28MOL0     C 3768   7.660   4.218   9.254  0.2274 -0.0098 -0.2189
   28MOL0     C 3769   7.632   4.061   9.247 -0.2526 -0.5855  0.7215
   28MOL0     C 3770   7.657   3.998   9.118  0.2866 -0.4935  0.1741
   28MOL0    Cl 3771   7.578   4.079   8.978 -0.0773 -0.0172  0.1046
   28MOL0     C 3772   7.718   4.714   9.630 -0.4940  0.6654 -0.0082
   28MOL0     C 3773   7.674   4.764   9.758  0.0664  0.9053  0.3141
   28MOL0     O 3774   7.860   4.999  10.037  0.3444 -1.1217 -0.3219
   28MOL0     C 3775   7.538   4.910  10.183 -0.3883  0.3049 -0.2709
   28MOL0     C 3776   7.455   4.945  10.289 -1.0631 -0.4028  0.4210
   28MOL0     N 3777   7.355   5.219  11.143 -0.9083  0.2891  0.2669
   28MOL0     N 3778   7.268   5.288  11.200 -0.2222 -0.2423 -0.2062
   28MOL0     C 3779   6.357   6.111  11.344  0.0228 -0.1994 -0.6162
   28MOL0     C 3780   6.274   6.220  11.345  0.6566  0.4507 -0.6879
   28MOL0     C 3781   5.859   6.414  11.400  0.5896 -0.2520 -0.4177
   28MOL0     C 3782   5.781   6.438  11.293 -0.4315 -0.6978 -0.4146
   28MOL0     C 3783   5.686   6.536  11.294 -0.5128 -0.5657  0.2074
   28MOL0     C 3784   5.659   6.610  11.411 -0.5705  0.5106  1.3540
   28MOL0     O 3785   5.562   6.698  11.435 -0.7715  0.1226  0.1885
   28MOL0     C 3786   5.494   6.761  11.319 -0.4018 -0.6559  0.8313
   28MOL0     C 3787   5.589   6.870  11.253 -0.4199 -0.4067  0.3051
   28MOL0     C 3788   5.531   6.977  11.158  0.2390  0.2050  0.9006
   28MOL0     C 3789   5.441   6.923  11.047 -0.3322 -0.9534 -0.2447
   28MOL0     C 3790   5.489   6.804  10.967  0.8504 -1.1530  0.5766
   28MOL0     C 3791   5.541   6.702  10.929 -0.2310  0.9113  0.2044
   28MOL0     C 3792   5.739   6.583  11.519  0.2023  0.1832  0.4716
   28MOL0     C 3793   5.836   6.483  11.518 -0.4925  0.5369 -0.0678
   28MOL0     C 3794   5.928   6.478  11.637  0.1790  0.9678  0.4155
   28MOL0     H 3795   6.007   6.100  11.171 -1.0822  0.0404  0.5595
   28MOL0     H 3796   6.153   5.895  11.206  2.0366 -2.6074  3.6723
   28MOL0     H 3797   6.588   5.951  11.247 -0.7635  0.5397  1.0396
   28MOL0     H 3798   6.488   5.970  11.120  0.4663  3.3018  1.7754
   28MOL0     H 3799   6.498   5.691  11.122 -1.2734 -0.2276 -0.6529
   28MOL0     H 3800   6.639   5.781  11.068  0.6508  0.7560 -0.2815
   28MOL0     H 3801   6.751   5.792  11.256 -1.8958  3.0557 -3.5328
   28MOL0     H 3802   6.609   5.730  11.366  1.1669 -2.0664  0.1248
   28MOL0     H 3803   6.749   5.555  11.357 -0.1146 -1.2540 -0.0334
   28MOL0     H 3804   6.622   5.517  11.245  1.7617 -2.7846 -1.4554
   28MOL0     H 3805   6.905   5.596  11.183 -1.9064  2.5468  1.7280
   28MOL0     H 3806   6.777   5.581  11.057 -0.7519 -1.4074 -0.8720
   28MOL0     H 3807   6.841   5.361  11.262 -1.1677 -1.5800  0.0608
   28MOL0     H 3808   6.731   5.347  11.132  0.0705  1.4345 -1.4256
   28MOL0     H 3809   6.914   5.370  10.962 -3.0068  1.6140  0.3497
   28MOL0     H 3810   6.954   5.247  11.091  1.0111 -0.4107 -1.2420
   28MOL0     H 3811   7.086   5.518  11.082  0.8457  0.4259  3.5240
   28MOL0     H 3812   7.063   5.424  11.226 -0.5558 -2.4851 -0.1410
   28MOL0     H 3813   7.222   5.367  10.879 -0.6306  0.3647  0.5867
   28MOL0     H 3814   7.523   5.116  10.974 -0.2238 -1.0087 -0.6267
   28MOL0     H 3815   7.511   5.248  10.861  0.1254 -0.0890  0.8099
   28MOL0     H 3816   7.356   4.983  10.868  0.2569  1.3961  1.7080
   28MOL0     H 3817   7.296   5.119  10.772  0.3021  0.7892  0.9636
   28MOL0     H 3818   7.560   5.099  10.675 -0.7197  1.5091  0.3856
   28MOL0     H 3819   7.543   4.943  10.743 -2.1078 -3.1449 -1.7081
   28MOL0     H 3820   7.458   4.892  10.532 -1.0387 -1.5488  2.7360
   28MOL0     H 3821   7.310   4.942  10.606  0.7889 -0.6565  3.2284
   28MOL0     H 3822   7.574   5.240  10.392  3.8179  1.8922 -2.6897
   28MOL0     H 3823   7.869   5.172  10.251 -0.9792 -1.7023  1.1859
   28MOL0     H 3824   7.766   5.304  10.263  2.6078  0.0102  0.7813
   28MOL0     H 3825   7.794   5.238  10.102  1.3873 -4.0042 -0.7488
   28MOL0     H 3826   7.970   4.893   9.866  0.7027 -0.5144  0.0077
   28MOL0     H 3827   8.041   4.819   9.660  0.3453 -0.5207  1.4122
   28MOL0     H 3828   8.091   4.715   9.478 -2.3531  1.2376  2.2772
   28MOL0     H 3829   8.043   4.561   9.549  2.6791  0.2239 -1.2127
   28MOL0     H 3830   7.994   4.627   9.254  0.3873  0.2805  1.0850
   28MOL0     H 3831   8.150   4.583   9.304  0.4177 -1.3474  1.3490
   28MOL0     H 3832   8.003   4.360   9.409  0.6670  1.5149  1.3676
   28MOL0     H 3833   8.066   4.384   9.231 -1.2276  0.3065 -0.1382
   28MOL0     H 3834   7.848   4.458   9.187  1.1187 -1.3234 -0.6143
   28MOL0     H 3835   7.801   4.446   9.359  0.1942  1.4826 -1.0537
   28MOL0     H 3836   7.870   4.231   9.167  1.4323  2.0102 -0.0949
   28MOL0     H 3837   7.867   4.195   9.337  0.2473  0.8621  0.3809
   28MOL0     H 3838   7.622   4.270   9.166  0.8541  2.7924  1.0602
   28MOL0     H 3839   7.616   4.254   9.347  2.8921  0.2085  1.0302
   28MOL0     H 3840   7.526   4.048   9.271 -0.1829  1.1711  2.1675
   28MOL0     H 3841   7.690   4.007   9.322  1.4450 -4.5952 -3.0145
   28MOL0     H 3842   7.628   3.893   9.131 -0.6051 -0.0118  2.4388
   28MOL0     H 3843   7.765   3.991   9.099  0.2846 -1.7278  0.4872
   28MOL0     H 3844   7.645   4.657   9.573  0.7987 -2.6440  1.3763
   28MOL0     H 3845   7.570   4.754   9.787  0.6777  1.3784  2.9547
   28MOL0     H 3846   7.519   4.822  10.122 -4.0446  0.6523  0.1476
   28MOL0     H 3847   7.377   4.874  10.315  0.3811 -2.3542 -0.3696
   28MOL0     H 3848   6.453   6.119  11.394 -0.9043  0.3308  1.1717
   28MOL0     H 3849   6.305   6.314  11.391 -1.7811  1.3800 -0.7817
   28MOL0     H 3850   5.796   6.386  11.199 -0.3988  1.2540 -1.5490
   28MOL0     H 3851   5.628   6.555  11.204  1.7897  5.8851 -0.4325
   28MOL0     H 3852   5.486   6.678  11.248  0.5765  0.8605 -1.1570
   28MOL0     H 3853   5.398   6.811  11.337 -0.7091 -1.6926  2.2646
   28MOL0     H 3854   5.675   6.826  11.203  0.0721 -0.1239  0.8881
   28MOL0     H 3855   5.641   6.930  11.328 -1.1970 -0.5029  0.9373
   28MOL0     H 3856   5.465   7.049  11.207  1.0798  1.3120  0.4482
   28MOL0     H 3857   5.614   7.042  11.129  1.9152 -2.1665  0.0138
   28MOL0     H 3858   5.407   7.001  10.978  0.7742 -0.4217 -0.2166
   28MOL0     H 3859   5.353   6.878  11.093 -1.6717  0.9848 -0.7827
   28MOL0     H 3860   5.608   6.622  10.905 -1.0047  0.5019 -0.6246
   28MOL0     H 3861   5.725   6.643  11.609  1.4462  1.1859  0.0204
   28MOL0     H 3862   5.940   6.372  11.663  1.7177  0.2104 -2.8532
   28MOL0     H 3863   6.028   6.517  11.620 -0.3247  2.4363  0.7149
   28MOL0     H 3864   5.881   6.537  11.717 -0.0212  1.3693  0.0009
   29MOL0     O 3865   1.255   1.713   4.389 -0.4597 -0.0952  0.3727
   29MOL0     C 3866   1.272   1.592   4.396  0.9518 -0.0935 -1.1013
   29MOL0     O 3867   1.361   1.518   4.323  0.0911  0.4616  0.1136
   29MOL0     C 3868   1.439   1.583   4.239 -0.0608 -0.6583  0.3128
   29MOL0     C 3869   1.574   1.595   4.263 -0.7720  0.0940 -0.1966
   29MOL0     C 3870   1.650   1.682   4.180 -0.1540 -0.2840  0.6257
   29MOL0     C 3871   1.596   1.750   4.065 -0.7170 -0.2780 -0.5758
   29MOL0     O 3872   1.657   1.831   3.973  0.2602 -0.5589  0.7354
   29MOL0     C 3873   1.794   1.875   3.997  0.9888  0.1287 -0.5803
   29MOL0     C 3874   1.853   1.903   3.858  1.0220  0.5238 -0.3194
   29MOL0     C 3875   2.009   1.917   3.854 -0.5318 -0.6403  0.3113
   29MOL0     C 3876   2.076   1.778   3.859  0.5475 -0.3771  0.6953
   29MOL0     C 3877   2.081   1.713   3.720 -0.5190 -0.8088  0.3925
   29MOL0     C 3878   2.184   1.598   3.698 -0.3493  0.6993 -0.2713
   29MOL0     C 3879   2.172   1.498   3.814 -0.5438 -0.3018 -0.4366
   29MOL0     C 3880   2.031   1.433   3.814  0.2234 -0.3447  0.7912
   29MOL0     N 3881   2.023   1.351   3.932 -0.5422 -0.1401 -0.4126
   29MOL0     C 3882   2.039   1.212   3.930  0.3980 -0.2081  0.0512
   29MOL0     C 3883   2.028   1.177   4.068 -0.0884 -0.0889  0.8161
   29MOL0     C 3884   2.058   1.036   4.111 -0.5538 -0.7177  0.8593
   29MOL0     C 3885   1.987   0.922   4.039 -0.0367  0.5378 -1.4523
   29MOL0     C 3886   1.839   0.927   4.070  0.6003 -1.0892 -0.0695
   29MOL0     C 3887   1.774   0.811   3.981 -0.8187  0.2488 -0.2076
   29MOL0     O 3888   1.786   0.844   3.839 -0.4387  0.3902 -0.5611
   29MOL0     C 3889   1.773   0.741   3.739 -0.8709 -0.3198 -0.3088
   29MOL0     C 3890   1.754   0.599   3.760 -0.3674  0.0960  0.1740
   29MOL0     C 3891   1.754   0.518   3.646 -0.3318  0.3750 -0.2870
   29MOL0     C 3892   1.747   0.369   3.681  0.3494 -0.2988  0.4005
   29MOL0     C 3893   1.783   0.560   3.515  0.2085  0.3741  0.2015
   29MOL0     C 3894   1.755   0.472   3.405  0.6565  0.1914  0.3928
   29MOL0     O 3895   1.834   0.502   3.290 -0.4298 -0.5932 -0.3640
   29MOL0     C 3896   1.833   0.442   3.175 -0.2886  0.0407  0.1233
   29MOL0     C 3897   1.881   0.507   3.062  0.6575 -0.2459  0.0524
   29MOL0     C 3898   1.886   0.453   2.935 -0.8747  0.2284  0.0971
   29MOL0     C 3899   1.837   0.323   2.914  0.5166  1.2914  0.6136
   29MOL0     O 3900   1.830   0.263   2.785  0.4446 -0.6703  0.0078
   29MOL0     C 3901   1.797   0.355   2.675  0.0524  0.6870  0.0756
   29MOL0     C 3902   1.689   0.273   2.592 -0.2476  0.0458  0.3115
   29MOL0     C 3903   1.740   0.132   2.548  0.1880  1.2563  1.1503
   29MOL0     C 3904   1.693   0.093   2.403  0.0345  0.3385 -0.4688
   29MOL0     C 3905   1.776   0.145   2.276  0.1209  0.1384 -0.5121
   29MOL0     C 3906   1.919   0.091   2.270 -1.1874  0.7284  0.3712
   29MOL0     C 3907   1.976   0.127   2.135  0.5928 -0.0710  0.3915
   29MOL0     C 3908   2.103   0.059   2.094  0.5477  0.5706 -0.4535
   29MOL0    Cl 3909   2.246   0.109   2.194  0.3384  0.1801 -0.5561
   29MOL0     C 3910   1.801   0.247   3.023  0.4942  0.6539 -0.8283
   29MOL0     C 3911   1.807   0.303   3.151 -0.2296 -0.2881  0.6585
   29MOL0     O 3912   1.670   0.386   3.404  0.6871  0.0577 -0.3217
   29MOL0     C 3913   1.816   0.698   3.502 -0.4703  0.6595 -0.1689
   29MOL0     C 3914   1.813   0.780   3.614 -0.0003 -0.3667  0.5666
   29MOL0     N 3915   2.017   1.296   4.143  0.5594  0.5355 -0.8416
   29MOL0     N 3916   2.007   1.392   4.063  0.2006 -0.0217  0.9332
   29MOL0     C 3917   1.459   1.724   4.038 -0.3734 -0.0735  0.6155
   29MOL0     C 3918   1.379   1.653   4.128  0.5435 -0.0433  0.0015
   29MOL0     C 3919   1.164   1.518   4.464 -0.3586  0.9372 -0.4918
   29MOL0     C 3920   1.153   1.383   4.433 -0.5331 -0.3062  0.1367
   29MOL0     C 3921   1.052   1.303   4.484 -0.1028 -0.1716 -0.5611
   29MOL0     C 3922   0.970   1.342   4.591  0.3640  0.8682  0.2905
   29MOL0     O 3923   0.878   1.251   4.645 -0.4679 -0.5026  0.3522
   29MOL0     C 3924   0.845   1.271   4.782  0.3306  0.2742 -0.3012
   29MOL0     C 3925   0.786   1.151   4.831 -0.3328  1.2257  0.7618
   29MOL0     C 3926   0.719   1.156   4.968 -0.1146 -0.8029 -0.2361
   29MOL0     C 3927   0.576   1.106   4.965  0.1911 -0.2642  0.5557
   29MOL0     C 3928   0.489   1.190   4.883  0.2224 -0.4890 -0.0318
   29MOL0     C 3929   0.416   1.253   4.814  0.6108  0.4127 -0.7236
   29MOL0     C 3930   0.971   1.486   4.615 -0.0647  0.0225 -0.0945
   29MOL0     C 3931   1.064   1.573   4.554  0.4451 -0.3869  0.0652
   29MOL0     C 3932   1.062   1.717   4.596 -0.0747 -0.0192  0.0075
   29MOL0     H 3933   1.615   1.540   4.347 -2.5684  2.2205  2.2616
   29MOL0     H 3934   1.758   1.684   4.189 -0.1698  0.3338  0.7456
   29MOL0     H 3935   1.856   1.802   4.051  1.7289  0.0025 -1.5720
   29MOL0     H 3936   1.790   1.970   4.050  1.7043  0.8078 -1.7067
   29MOL0     H 3937   1.817   1.821   3.796  0.9515 -1.4172  2.1236
   29MOL0     H 3938   1.822   1.991   3.801  1.2400 -0.0077 -1.2740
   29MOL0     H 3939   2.046   1.971   3.767 -0.0442 -0.0879  0.8503
   29MOL0     H 3940   2.012   1.972   3.949 -2.4209 -1.0420  0.6513
   29MOL0     H 3941   2.177   1.784   3.900  0.2940 -0.9838  1.4389
   29MOL0     H 3942   2.022   1.717   3.932 -0.1164  1.0244  1.4031
   29MOL0     H 3943   2.102   1.794   3.651 -4.1275  1.0315  1.2276
   29MOL0     H 3944   1.981   1.675   3.698  0.2378 -2.4848 -0.3321
   29MOL0     H 3945   2.145   1.548   3.609 -0.4512 -0.3370  0.3435
   29MOL0     H 3946   2.285   1.638   3.694  0.4174 -1.1060  0.3389
   29MOL0     H 3947   2.201   1.540   3.910 -1.3281 -0.5491 -0.0840
   29MOL0     H 3948   2.235   1.411   3.794 -0.3685 -0.5882  1.2198
   29MOL0     H 3949   1.951   1.506   3.827  0.6995  0.1872  0.7964
   29MOL0     H 3950   2.017   1.381   3.719 -2.5815 -1.5881  1.7995
   29MOL0     H 3951   2.054   1.157   3.838  0.4663 -1.1482  0.6106
   29MOL0     H 3952   2.025   1.041   4.215 -2.0953  1.9061  0.3204
   29MOL0     H 3953   2.165   1.015   4.107 -0.5246 -0.7545  1.7603
   29MOL0     H 3954   2.019   0.916   3.935  2.6811 -1.2310 -0.6232
   29MOL0     H 3955   2.029   0.830   4.081  0.4562  0.5977 -1.8080
   29MOL0     H 3956   1.818   0.913   4.177 -0.1832 -1.8848 -0.3199
   29MOL0     H 3957   1.795   1.024   4.044  0.7967 -0.5580  1.4628
   29MOL0     H 3958   1.830   0.720   4.006 -0.6216  0.3693 -0.2117
   29MOL0     H 3959   1.672   0.786   4.013  0.1406 -4.2207  0.0918
   29MOL0     H 3960   1.740   0.558   3.860  0.1833  1.8753  1.0138
   29MOL0     H 3961   1.793   0.313   3.600 -0.0976  1.6762 -1.3021
   29MOL0     H 3962   1.642   0.346   3.701  0.3386  0.0322  0.7484
   29MOL0     H 3963   1.810   0.357   3.770  1.1261 -1.5164 -0.2934
   29MOL0     H 3964   1.920   0.606   3.080  1.4605 -0.3098 -1.2215
   29MOL0     H 3965   1.929   0.509   2.853 -1.7366 -1.1201 -1.3423
   29MOL0     H 3966   1.769   0.454   2.714 -2.2510  1.0723 -2.2814
   29MOL0     H 3967   1.881   0.363   2.606  0.4631 -0.0861  0.4681
   29MOL0     H 3968   1.600   0.278   2.656 -0.9650  0.1273 -0.6688
   29MOL0     H 3969   1.672   0.330   2.500  2.3478  0.4251 -0.0032
   29MOL0     H 3970   1.700   0.050   2.609  1.6540 -0.7672 -0.4677
   29MOL0     H 3971   1.849   0.133   2.553  0.2247  2.9379  0.5760
   29MOL0     H 3972   1.592   0.133   2.399 -0.8724 -1.8926 -1.5076
   29MOL0     H 3973   1.677  -0.015   2.417  0.8153  0.6323  5.2128
   29MOL0     H 3974   1.725   0.136   2.180  5.1551 -1.0163 -3.4402
   29MOL0     H 3975   1.789   0.251   2.300  0.4647 -0.1232  0.5146
   29MOL0     H 3976   1.930  -0.017   2.286 -1.7146  0.8040  1.3428
   29MOL0     H 3977   1.977   0.143   2.348 -0.0763  0.3184 -0.1560
   29MOL0     H 3978   1.973   0.234   2.116 -0.4953 -0.0343  0.7107
   29MOL0     H 3979   1.907   0.086   2.060  0.7760 -0.2656  0.3273
   29MOL0     H 3980   2.121   0.074   1.988  0.1700 -0.2177 -0.6375
   29MOL0     H 3981   2.090  -0.046   2.120 -0.7426  1.1376  1.4416
   29MOL0     H 3982   1.781   0.141   3.022 -0.1111  0.7437  0.4671
   29MOL0     H 3983   1.768   0.247   3.235 -2.3921  0.0463 -0.0721
   29MOL0     H 3984   1.842   0.737   3.404  3.7258  1.2545  1.0108
   29MOL0     H 3985   1.842   0.883   3.597  0.1990 -0.5096  0.0263
   29MOL0     H 3986   1.392   1.762   3.962  0.3015 -2.3275 -1.2409
   29MOL0     H 3987   1.275   1.642   4.099  0.0074 -1.8898  2.2917
   29MOL0     H 3988   1.201   1.332   4.350 -1.2383 -2.2092  0.8396
   29MOL0     H 3989   1.055   1.199   4.453 -0.5883 -0.9642  1.8884
   29MOL0     H 3990   0.928   1.296   4.849 -0.3825 -4.2783  2.7576
   29MOL0     H 3991   0.774   1.354   4.788 -1.4832 -1.2623  0.6230
   29MOL0     H 3992   0.876   1.088   4.834  1.0009  2.9146 -1.1533
   29MOL0     H 3993   0.718   1.100   4.761 -0.6170 -0.8319  2.4351
   29MOL0     H 3994   0.770   1.081   5.028 -1.4813 -0.8559  0.9162
   29MOL0     H 3995   0.726   1.246   5.029  0.8352 -0.9141 -0.1719
   29MOL0     H 3996   0.527   1.092   5.062 -0.8976 -0.3263  0.0063
   29MOL0     H 3997   0.581   1.012   4.911  0.4378  1.0683 -1.8672
   29MOL0     H 3998   0.365   1.310   4.739 -0.4349 -0.1380 -0.4508
   29MOL0     H 3999   0.896   1.532   4.679 -1.8074 -0.6838 -1.5579
   29MOL0     H 4000   1.044   1.787   4.514  0.4479 -1.3124 -1.2460
   29MOL0     H 4001   0.987   1.741   4.672  0.7540 -1.2282  1.2544
   29MOL0     H 4002   1.158   1.741   4.643 -1.5413 -2.3092  4.8020
   30MOL0     O 4003   8.679  10.181  10.030 -0.6985 -0.1231  0.0589
   30MOL0     C 4004   8.707  10.174  10.148 -0.2245 -0.0326  0.2112
   30MOL0     O 4005   8.718  10.281  10.237 -0.8618  0.7569  0.7687
   30MOL0     C 4006   8.709  10.405  10.185 -0.2722  0.3047 -0.3617
   30MOL0     C 4007   8.823  10.491  10.186 -0.5212 -0.8121  0.1388
   30MOL0     C 4008   8.811  10.624  10.144  0.4238  0.6623  0.3938
   30MOL0     C 4009   8.702  10.668  10.077  0.1848  1.0418  0.3134
   30MOL0     O 4010   8.686  10.791  10.020 -0.7159 -0.5126  0.0132
   30MOL0     C 4011   8.789  10.844   9.936 -0.5354 -0.3924 -0.1373
   30MOL0     C 4012   8.846  10.759   9.828  0.4150  1.2090 -0.3226
   30MOL0     C 4013   8.740  10.674   9.758 -0.3760 -0.4649 -0.4364
   30MOL0     C 4014   8.749  10.683   9.607 -0.0998 -0.8624  0.9872
   30MOL0     C 4015   8.678  10.567   9.543  0.7739 -0.3767 -0.3456
   30MOL0     C 4016   8.774  10.443   9.530 -0.0410 -0.6528 -0.7623
   30MOL0     C 4017   8.717  10.324   9.456 -0.4902 -0.2473 -0.3018
   30MOL0     C 4018   8.675  10.352   9.309 -0.1711 -1.2386  0.0590
   30MOL0     N 4019   8.630  10.230   9.246  0.7628 -0.1092 -0.9168
   30MOL0     C 4020   8.703  10.114   9.228  0.0567 -0.0761  0.3638
   30MOL0     C 4021   8.615  10.018   9.203 -0.1817 -0.5871  0.8627
   30MOL0     C 4022   8.642   9.876   9.186 -0.0420 -0.6195 -0.1513
   30MOL0     C 4023   8.516   9.788   9.203 -0.0345  0.3120 -0.3254
   30MOL0     C 4024   8.557   9.640   9.224 -0.6823  0.4630 -0.0774
   30MOL0     C 4025   8.701   9.601   9.186 -0.5979 -0.3900 -0.1227
   30MOL0     O 4026   8.727   9.457   9.186  0.7931  0.2934  0.0310
   30MOL0     C 4027   8.735   9.378   9.293  0.0128  0.1523  0.1471
   30MOL0     C 4028   8.769   9.244   9.266  0.4155 -0.0963 -0.1182
   30MOL0     C 4029   8.766   9.144   9.369  0.5440 -0.3293 -0.2555
   30MOL0     C 4030   8.778   9.005   9.321 -0.5793 -0.2754  0.7485
   30MOL0     C 4031   8.726   9.182   9.493  0.3254 -0.1743  0.1545
   30MOL0     C 4032   8.725   9.095   9.606 -0.0649  0.9353 -0.1148
   30MOL0     O 4033   8.631   9.117   9.695 -0.1845  0.2659 -0.3470
   30MOL0     C 4034   8.573   9.025   9.783  0.8132  0.7291 -0.2322
   30MOL0     C 4035   8.479   9.081   9.872 -1.1059  0.5645 -0.6822
   30MOL0     C 4036   8.414   9.011   9.973  0.3653  0.1138  0.5954
   30MOL0     C 4037   8.443   8.875   9.991  0.5244 -0.2891  0.6330
   30MOL0     O 4038   8.376   8.810  10.092  0.9847 -0.1571  0.2094
   30MOL0     C 4039   8.318   8.683  10.044 -0.4752  0.5603 -0.9420
   30MOL0     C 4040   8.187   8.659  10.117 -0.8351  0.7953  0.2625
   30MOL0     C 4041   8.138   8.523  10.056  0.3939  0.2742 -0.8036
   30MOL0     C 4042   7.990   8.493  10.080  0.1478 -0.6600  0.1123
   30MOL0     C 4043   7.957   8.369   9.987  0.2769  0.5387 -0.0352
   30MOL0     C 4044   7.984   8.233  10.050 -0.4796  1.0174  0.6563
   30MOL0     C 4045   7.965   8.125   9.945 -0.4443  1.0453 -0.3288
   30MOL0     C 4046   7.972   7.987  10.006 -0.0983  0.7331  0.4055
   30MOL0    Cl 4047   7.813   7.927  10.051 -0.3452 -0.0294 -0.3318
   30MOL0     C 4048   8.541   8.810   9.899  0.1697 -0.3155  0.1431
   30MOL0     C 4049   8.598   8.886   9.794 -0.9189 -0.6778 -0.1911
   30MOL0     O 4050   8.804   9.001   9.615 -0.8746  0.5415 -0.3006
   30MOL0     C 4051   8.698   9.316   9.518  0.0406  0.0983  1.1814
   30MOL0     C 4052   8.706   9.419   9.423  0.0965 -1.0096  0.3350
   30MOL0     N 4053   8.492  10.077   9.194  0.1212  0.0089  0.0426
   30MOL0     N 4054   8.499  10.204   9.213  0.2607 -0.0051  0.3910
   30MOL0     C 4055   8.586  10.584  10.082 -0.4295  0.6730 -0.3404
   30MOL0     C 4056   8.592  10.453  10.135 -0.2401 -0.5037  0.6413
   30MOL0     C 4057   8.731  10.044  10.212  0.0151 -0.6814 -0.9022
   30MOL0     C 4058   8.630   9.944  10.213 -0.6616 -0.3210 -0.1144
   30MOL0     C 4059   8.642   9.820  10.281 -0.1726 -0.1427  0.0223
   30MOL0     C 4060   8.765   9.802  10.350  0.9096  0.2849 -0.0390
   30MOL0     O 4061   8.781   9.687  10.421  0.3551  0.8092  0.2714
   30MOL0     C 4062   8.821   9.708  10.559 -0.3680 -0.2988 -0.2125
   30MOL0     C 4063   8.752   9.618  10.657 -0.2341 -0.0257 -0.6220
   30MOL0     C 4064   8.599   9.626  10.653 -0.6520 -0.4501 -0.1943
   30MOL0     C 4065   8.534   9.542  10.772 -0.0029 -0.5525 -0.2310
   30MOL0     C 4066   8.531   9.639  10.888 -0.7249  1.5469 -0.0387
   30MOL0     C 4067   8.548   9.702  10.984  0.7322  0.0066 -0.1960
   30MOL0     C 4068   8.862   9.909  10.360  0.7432 -0.7389  0.1636
   30MOL0     C 4069   8.844  10.024  10.285 -0.5069 -0.1851 -0.5385
   30MOL0     C 4070   8.955  10.123  10.286  0.4686  0.5474  0.2012
   30MOL0     H 4071   8.919  10.449  10.215  0.6134  1.2273 -0.5073
   30MOL0     H 4072   8.902  10.682  10.158  0.3278  1.6292 -2.2829
   30MOL0     H 4073   8.878  10.883   9.986  0.6806 -0.9354 -1.8015
   30MOL0     H 4074   8.757  10.935   9.885  2.9892  0.0860 -1.7423
   30MOL0     H 4075   8.898  10.805   9.744 -1.7639  2.3069 -1.1407
   30MOL0     H 4076   8.909  10.684   9.877  0.1324  1.0772 -0.1570
   30MOL0     H 4077   8.753  10.571   9.794 -0.0071  0.0680  1.0185
   30MOL0     H 4078   8.641  10.721   9.757 -1.6160 -2.8725 -1.9765
   30MOL0     H 4079   8.710  10.779   9.570  2.0858 -0.0603  0.6532
   30MOL0     H 4080   8.854  10.679   9.578  0.6383  3.5596  2.2023
   30MOL0     H 4081   8.648  10.599   9.443  3.5053  1.6750 -0.6285
   30MOL0     H 4082   8.591  10.546   9.606  1.4893 -1.4381  0.3229
   30MOL0     H 4083   8.869  10.478   9.490 -0.1425  2.0336  1.0268
   30MOL0     H 4084   8.790  10.410   9.633 -1.0537  0.3823 -0.2499
   30MOL0     H 4085   8.632  10.287   9.514 -0.6641 -0.2610 -0.5662
   30MOL0     H 4086   8.784  10.238   9.467  0.9329  0.9503  0.8821
   30MOL0     H 4087   8.600  10.431   9.313  1.1132  0.0080  0.6794
   30MOL0     H 4088   8.761  10.394   9.256 -2.2625  2.1014 -1.0015
   30MOL0     H 4089   8.810  10.105   9.243  0.6006  1.9284 -1.6428
   30MOL0     H 4090   8.717   9.856   9.262  0.5640  2.0275  0.0430
   30MOL0     H 4091   8.693   9.865   9.090  0.8023  2.1158 -0.1106
   30MOL0     H 4092   8.458   9.816   9.291  0.4954 -2.9995  1.2239
   30MOL0     H 4093   8.460   9.783   9.110  1.1487  0.1292 -1.0538
   30MOL0     H 4094   8.531   9.613   9.326 -0.3374 -2.9348 -0.7571
   30MOL0     H 4095   8.492   9.565   9.178 -0.6564  0.4221 -0.0481
   30MOL0     H 4096   8.724   9.637   9.085  0.6605 -0.5127  0.1009
   30MOL0     H 4097   8.769   9.651   9.255 -1.8863 -0.2035  1.0592
   30MOL0     H 4098   8.783   9.205   9.166 -4.0393  0.0223 -0.9639
   30MOL0     H 4099   8.681   8.954   9.311 -0.2830 -0.4788 -1.5701
   30MOL0     H 4100   8.844   8.948   9.386 -2.1159 -0.3632  2.3109
   30MOL0     H 4101   8.819   8.999   9.220 -0.2524 -3.6109  0.9504
   30MOL0     H 4102   8.474   9.188   9.888 -2.0194 -0.0118  4.4243
   30MOL0     H 4103   8.350   9.075  10.034  0.5895  3.8428 -2.6396
   30MOL0     H 4104   8.285   8.693   9.940 -2.2210  1.9591 -0.3036
   30MOL0     H 4105   8.397   8.607  10.045 -2.2193 -1.3645 -2.1561
   30MOL0     H 4106   8.189   8.646  10.225 -0.3572  0.4701  0.2241
   30MOL0     H 4107   8.120   8.739  10.085  1.0866  2.3657 -0.1044
   30MOL0     H 4108   8.206   8.442  10.085 -0.4880  0.4428  2.0272
   30MOL0     H 4109   8.156   8.536   9.948 -1.2438  0.4630 -1.0834
   30MOL0     H 4110   7.930   8.580  10.051 -0.3624 -0.2108  2.3793
   30MOL0     H 4111   7.973   8.470  10.185  1.4619 -0.6758  0.3315
   30MOL0     H 4112   7.853   8.359   9.954 -0.0342  1.4709  0.6371
   30MOL0     H 4113   8.010   8.381   9.893  1.3065  1.3533  0.6287
   30MOL0     H 4114   7.919   8.214  10.136 -2.0288  0.4771 -0.5926
   30MOL0     H 4115   8.089   8.230  10.083  1.4138 -1.2780 -4.5804
   30MOL0     H 4116   8.032   8.146   9.860 -0.4562  0.3069 -0.5346
   30MOL0     H 4117   7.863   8.124   9.907 -0.5896 -2.7199 -0.2927
   30MOL0     H 4118   8.037   7.984  10.094 -0.2651 -2.6562  0.5513
   30MOL0     H 4119   7.997   7.913   9.930 -4.1254 -2.4019  1.7459
   30MOL0     H 4120   8.554   8.703   9.915 -0.1578 -0.2744  0.7499
   30MOL0     H 4121   8.672   8.833   9.735 -1.8201  1.5345 -3.5811
   30MOL0     H 4122   8.677   9.349   9.619  3.2780 -0.0694  2.0041
   30MOL0     H 4123   8.683   9.518   9.460  1.0208  0.1071 -1.9253
   30MOL0     H 4124   8.497  10.611  10.026 -0.7790  0.8025  0.2718
   30MOL0     H 4125   8.506  10.389  10.116  0.5728 -0.8221 -2.5260
   30MOL0     H 4126   8.534   9.965  10.166  0.8871  2.0202 -2.5609
   30MOL0     H 4127   8.567   9.742  10.265 -0.4689  0.0872  0.2654
   30MOL0     H 4128   8.928   9.716  10.578 -0.4899  1.4301 -0.0227
   30MOL0     H 4129   8.781   9.802  10.599 -1.3247  0.1304 -2.0637
   30MOL0     H 4130   8.783   9.648  10.757  2.2399 -1.5360 -0.8700
   30MOL0     H 4131   8.773   9.512  10.643  0.5945 -0.0320  0.5441
   30MOL0     H 4132   8.572   9.731  10.643  2.9043  0.7588  1.2545
   30MOL0     H 4133   8.564   9.582  10.559 -0.0824  2.5282 -1.9516
   30MOL0     H 4134   8.579   9.444  10.791  0.6344 -0.8347 -2.7611
   30MOL0     H 4135   8.431   9.515  10.743  0.7865  0.5235 -4.9947
   30MOL0     H 4136   8.562   9.773  11.063  1.8266 -0.8592  0.4035
   30MOL0     H 4137   8.957   9.895  10.410 -0.1746 -1.2569  1.8183
   30MOL0     H 4138   8.957  10.211  10.351  1.6973 -0.1124  1.0801
   30MOL0     H 4139   9.041  10.061  10.313 -0.2510 -0.5779 -0.0089
   30MOL0     H 4140   8.970  10.154  10.182  2.5011 -0.5364  0.1186
   31MOL0     O 4141   5.176   7.056   1.555  0.2031  0.0279 -0.1154
   31MOL0     C 4142   5.221   6.954   1.606 -0.7277  1.0357  0.0326
   31MOL0     O 4143   5.288   6.949   1.730 -0.2360 -0.1554  0.1189
   31MOL0     C 4144   5.370   7.058   1.751 -0.0362  0.4837 -0.0044
   31MOL0     C 4145   5.501   7.043   1.710 -0.4136  0.5748  0.7130
   31MOL0     C 4146   5.593   7.145   1.717 -0.5039  0.1874 -0.2357
   31MOL0     C 4147   5.550   7.274   1.760 -0.4273  0.2511  0.8668
   31MOL0     O 4148   5.632   7.381   1.780  0.3586 -0.4365 -0.7896
   31MOL0     C 4149   5.753   7.381   1.707 -0.5971  0.0284 -0.4085
   31MOL0     C 4150   5.823   7.514   1.702 -0.1971 -1.0995 -0.8083
   31MOL0     C 4151   5.839   7.586   1.840 -0.1189 -0.0914  0.3168
   31MOL0     C 4152   5.848   7.738   1.833 -0.4114 -0.6353  0.3709
   31MOL0     C 4153   5.897   7.796   1.968 -0.1740 -0.1127 -0.7258
   31MOL0     C 4154   5.786   7.778   2.078 -0.6582  0.2433 -0.3337
   31MOL0     C 4155   5.829   7.837   2.221 -0.4095  0.5426 -0.0484
   31MOL0     C 4156   5.831   7.995   2.220 -1.2749 -0.1656 -0.1928
   31MOL0     N 4157   5.955   8.045   2.160 -0.0273 -0.8070 -0.2811
   31MOL0     C 4158   6.087   8.026   2.196  0.6179  0.7463 -0.2972
   31MOL0     C 4159   6.156   8.107   2.120 -0.1123 -0.4906 -0.6942
   31MOL0     C 4160   6.304   8.100   2.138  0.3259  0.5466 -0.5203
   31MOL0     C 4161   6.361   8.239   2.100  0.3694 -0.1490  0.0534
   31MOL0     C 4162   6.513   8.236   2.097 -0.8216  0.1816  0.0242
   31MOL0     C 4163   6.586   8.211   2.232  0.0487  0.0836 -0.2723
   31MOL0     O 4164   6.721   8.232   2.199 -0.3799  0.4141  0.7768
   31MOL0     C 4165   6.812   8.197   2.289  0.5139 -0.3658 -0.2369
   31MOL0     C 4166   6.938   8.160   2.243  0.3216  0.3026  1.3625
   31MOL0     C 4167   7.042   8.114   2.321  0.2105 -0.7738 -0.4880
   31MOL0     C 4168   7.161   8.051   2.255  0.5312  0.4313  0.0172
   31MOL0     C 4169   7.028   8.123   2.461 -0.3065 -0.0517  0.3045
   31MOL0     C 4170   7.130   8.094   2.567  0.7073  0.4315 -0.0563
   31MOL0     O 4171   7.084   8.072   2.699 -0.3920 -0.3659  0.2357
   31MOL0     C 4172   7.163   7.996   2.781 -0.6393  0.1754  0.6305
   31MOL0     C 4173   7.281   8.037   2.847  0.4184 -0.3024 -0.6334
   31MOL0     C 4174   7.359   7.941   2.911 -0.5608  0.0219 -0.2934
   31MOL0     C 4175   7.328   7.803   2.908  0.4043 -0.1584 -0.0666
   31MOL0     O 4176   7.420   7.718   2.965 -0.4933 -0.4476  0.3707
   31MOL0     C 4177   7.378   7.590   3.025 -0.2178  0.8143  0.3420
   31MOL0     C 4178   7.499   7.500   3.052 -0.4637  0.7553  1.0845
   31MOL0     C 4179   7.488   7.426   3.195 -0.7690 -0.2873  1.1546
   31MOL0     C 4180   7.616   7.337   3.223  0.9762  0.0085  1.0296
   31MOL0     C 4181   7.746   7.402   3.189  0.3579  0.6527  0.8868
   31MOL0     C 4182   7.870   7.330   3.225 -0.7869  1.3237  0.4446
   31MOL0     C 4183   7.994   7.418   3.225  0.4434  0.4481 -0.1679
   31MOL0     C 4184   8.127   7.343   3.250  0.3616 -0.4638 -0.6697
   31MOL0    Cl 4185   8.255   7.462   3.227  0.9602  0.0444  0.0178
   31MOL0     C 4186   7.207   7.762   2.850 -0.1392  0.4947  0.2106
   31MOL0     C 4187   7.130   7.858   2.789  0.4812 -0.0704 -0.9090
   31MOL0     O 4188   7.245   8.078   2.527  0.4354  0.2362  0.2895
   31MOL0     C 4189   6.910   8.180   2.512  0.5102 -0.0320 -0.0421
   31MOL0     C 4190   6.800   8.199   2.427 -0.2155  0.6179 -0.3921
   31MOL0     N 4191   6.069   8.180   2.036 -0.4338 -0.0079  0.4364
   31MOL0     N 4192   5.947   8.154   2.077  0.0685  0.8860 -0.3499
   31MOL0     C 4193   5.418   7.296   1.806 -0.4550 -0.5031 -0.0179
   31MOL0     C 4194   5.330   7.185   1.798  0.0016  0.1936 -0.9511
   31MOL0     C 4195   5.182   6.816   1.545 -1.3024  1.0913 -0.2927
   31MOL0     C 4196   5.273   6.707   1.574 -0.0413 -0.0377 -1.1815
   31MOL0     C 4197   5.252   6.578   1.517 -0.8075  0.2370 -1.4203
   31MOL0     C 4198   5.132   6.565   1.436 -0.3664  1.2550  0.3025
   31MOL0     O 4199   5.106   6.430   1.403 -0.3707 -0.4649  0.4315
   31MOL0     C 4200   4.977   6.395   1.356  0.0040  0.1472 -0.0473
   31MOL0     C 4201   4.918   6.261   1.398  0.5278 -0.3170 -1.0256
   31MOL0     C 4202   5.018   6.146   1.373 -0.3502 -0.7641  0.2354
   31MOL0     C 4203   5.089   6.135   1.237 -0.0295 -0.4608 -0.5884
   31MOL0     C 4204   5.123   5.991   1.218 -0.1473  0.0400 -0.0373
   31MOL0     C 4205   5.167   5.881   1.197 -0.2432 -0.8183  0.1371
   31MOL0     C 4206   5.043   6.674   1.411 -0.6781 -0.6198  0.8475
   31MOL0     C 4207   5.069   6.792   1.467  0.4659  0.2002  0.0545
   31MOL0     C 4208   4.968   6.899   1.448  0.6312  0.6579  0.2644
   31MOL0     H 4209   5.533   6.941   1.693  0.0158  0.9329 -0.7499
   31MOL0     H 4210   5.698   7.118   1.708 -1.1637 -2.6647 -0.2152
   31MOL0     H 4211   5.730   7.352   1.604  0.0276  0.7193 -0.7473
   31MOL0     H 4212   5.821   7.314   1.760 -0.7257  0.1723 -0.0556
   31MOL0     H 4213   5.920   7.510   1.651  0.2787  1.6567 -0.2587
   31MOL0     H 4214   5.761   7.576   1.637 -0.1569 -1.9584 -1.6966
   31MOL0     H 4215   5.749   7.556   1.894 -0.4797  0.5411  0.0716
   31MOL0     H 4216   5.926   7.547   1.894 -2.6906 -3.6521  2.2910
   31MOL0     H 4217   5.923   7.777   1.765 -2.0579  4.4593  1.0347
   31MOL0     H 4218   5.748   7.777   1.811  0.2127  0.5544 -0.4603
   31MOL0     H 4219   5.935   7.898   1.952  2.2004  0.1618  4.5604
   31MOL0     H 4220   5.990   7.748   1.999 -1.6320 -0.6742  3.2480
   31MOL0     H 4221   5.686   7.813   2.051 -0.0327  0.3485 -2.6851
   31MOL0     H 4222   5.767   7.672   2.092 -1.2305  0.4736  0.7636
   31MOL0     H 4223   5.919   7.782   2.247 -0.2840  0.3250 -0.9088
   31MOL0     H 4224   5.756   7.803   2.295  1.4207 -2.1071  0.6606
   31MOL0     H 4225   5.745   8.038   2.167 -0.9425  1.6326  0.6496
   31MOL0     H 4226   5.825   8.031   2.323  1.2646  0.0439 -0.0594
   31MOL0     H 4227   6.127   7.961   2.273 -2.0584 -0.9446 -0.1930
   31MOL0     H 4228   6.347   8.025   2.071  0.4454 -1.3132  1.5530
   31MOL0     H 4229   6.329   8.070   2.240 -1.5742  2.6539  0.6570
   31MOL0     H 4230   6.327   8.264   1.999 -0.3506  0.1129  0.3546
   31MOL0     H 4231   6.311   8.320   2.153 -0.8975 -1.1028  0.3663
   31MOL0     H 4232   6.542   8.158   2.026  0.1310  0.5717 -0.0223
   31MOL0     H 4233   6.546   8.333   2.060 -4.1439  1.6626  0.6295
   31MOL0     H 4234   6.541   8.276   2.308 -0.4217 -0.8388  0.2527
   31MOL0     H 4235   6.572   8.107   2.263 -0.6246  0.7734  1.9634
   31MOL0     H 4236   6.946   8.148   2.136  0.4405 -0.2734  1.4325
   31MOL0     H 4237   7.152   8.049   2.146 -2.7026  0.1203  0.1839
   31MOL0     H 4238   7.167   7.946   2.284  0.1564  0.1651 -0.8571
   31MOL0     H 4239   7.250   8.110   2.278 -1.5347  3.5722  0.6436
   31MOL0     H 4240   7.311   8.142   2.842 -2.8180  0.6795 -3.8194
   31MOL0     H 4241   7.457   7.971   2.948 -0.1905  0.1607 -1.3418
   31MOL0     H 4242   7.327   7.620   3.117  1.8265  2.0794  1.1177
   31MOL0     H 4243   7.311   7.532   2.960  1.2970  0.5102 -1.0091
   31MOL0     H 4244   7.493   7.416   2.982 -2.5538  1.7167  0.0231
   31MOL0     H 4245   7.590   7.559   3.038  0.0063 -0.1269  0.2346
   31MOL0     H 4246   7.404   7.356   3.195 -3.3668  2.4436 -2.3986
   31MOL0     H 4247   7.474   7.499   3.275  0.3619  2.2723 -0.8159
   31MOL0     H 4248   7.604   7.248   3.161  1.8966 -0.5499  1.6408
   31MOL0     H 4249   7.617   7.310   3.329 -2.9202  0.3924  1.3142
   31MOL0     H 4250   7.739   7.418   3.081 -1.6307 -0.9988  0.7070
   31MOL0     H 4251   7.754   7.503   3.231 -1.4775  0.8099  0.9652
   31MOL0     H 4252   7.895   7.246   3.160  2.9465  2.0339  0.7376
   31MOL0     H 4253   7.846   7.283   3.321 -3.2779 -1.9214 -1.5649
   31MOL0     H 4254   7.977   7.500   3.295  2.2011  0.6452  0.0960
   31MOL0     H 4255   8.007   7.460   3.125  1.0542  1.5119  0.3365
   31MOL0     H 4256   8.143   7.266   3.173 -0.4535  1.3972 -2.8211
   31MOL0     H 4257   8.141   7.304   3.351  2.6135  1.0571 -0.3244
   31MOL0     H 4258   7.182   7.657   2.852 -2.1925  0.9148 -0.7031
   31MOL0     H 4259   7.045   7.822   2.733 -0.3369  1.5944 -0.8128
   31MOL0     H 4260   6.886   8.192   2.618 -0.4435 -0.4905 -0.1945
   31MOL0     H 4261   6.709   8.228   2.479 -0.1193  3.4967 -1.6115
   31MOL0     H 4262   5.395   7.395   1.843  2.0416 -0.7014  2.4126
   31MOL0     H 4263   5.225   7.191   1.824 -0.0894  0.5621 -1.3871
   31MOL0     H 4264   5.358   6.732   1.637 -1.6452  0.6183  0.8346
   31MOL0     H 4265   5.313   6.491   1.536 -0.0015  0.9530 -0.6834
   31MOL0     H 4266   4.902   6.465   1.394  0.5437  0.3191  0.7419
   31MOL0     H 4267   4.978   6.395   1.247 -0.5266  0.9130 -0.0603
   31MOL0     H 4268   4.830   6.239   1.337  0.1915  1.8469 -1.3968
   31MOL0     H 4269   4.900   6.257   1.506  1.9792 -1.9158 -0.7896
   31MOL0     H 4270   5.097   6.147   1.449  0.5555  1.8249 -0.6136
   31MOL0     H 4271   4.969   6.051   1.396 -1.4023 -0.6685 -1.4885
   31MOL0     H 4272   5.177   6.201   1.237 -0.5936  0.4839 -4.2603
   31MOL0     H 4273   5.028   6.178   1.158 -3.2603 -1.5224  1.1452
   31MOL0     H 4274   5.213   5.785   1.181  0.5365 -0.5783  0.8271
   31MOL0     H 4275   4.965   6.674   1.336 -0.0858  1.1211  0.1835
   31MOL0     H 4276   5.014   6.964   1.372  0.1258 -0.7754 -1.3418
   31MOL0     H 4277   4.872   6.863   1.411  0.7425  1.9873 -1.4672
   31MOL0     H 4278   4.956   6.945   1.546 -2.2762 -0.1282  0.3726
   32MOL0     O 4279   6.058   2.280  11.493 -0.5787 -0.0337 -0.3897
   32MOL0     C 4280   5.984   2.183  11.464 -0.0679  0.9202  0.3448
   32MOL0     O 4281   5.876   2.144  11.544 -0.1665 -0.5716  0.5052
   32MOL0     C 4282   5.864   2.184  11.678  0.6308  0.0535  0.5599
   32MOL0     C 4283   5.783   2.293  11.707  0.4545  0.2461  0.5753
   32MOL0     C 4284   5.754   2.332  11.840 -0.1159 -0.3432  0.7484
   32MOL0     C 4285   5.814   2.261  11.947 -0.6372  0.6958  0.3264
   32MOL0     O 4286   5.798   2.309  12.078 -0.0323 -0.7523  0.3443
   32MOL0     C 4287   5.707   2.416  12.113 -0.0606 -0.9830 -0.1674
   32MOL0     C 4288   5.786   2.541  12.177  1.3939  0.8649  0.1925
   32MOL0     C 4289   5.667   2.631  12.241  0.6747 -0.9033  0.3684
   32MOL0     C 4290   5.720   2.778  12.253 -0.0574  0.7723 -0.4376
   32MOL0     C 4291   5.617   2.863  12.323  0.5217  0.5527  0.0708
   32MOL0     C 4292   5.690   2.983  12.360 -1.0636 -0.6611  0.5454
   32MOL0     C 4293   5.605   3.090  12.435 -0.2355  1.0175 -0.2806
   32MOL0     C 4294   5.688   3.218  12.464 -0.5082 -0.6033 -0.4848
   32MOL0     N 4295   5.618   3.346  12.468  0.1236  0.4220  0.0683
   32MOL0     C 4296   5.564   3.413  12.576  0.7703 -0.3049  0.1123
   32MOL0     C 4297   5.484   3.507  12.518  0.0796  0.3964  0.0085
   32MOL0     C 4298   5.406   3.615  12.590 -0.3413 -0.7734 -0.2718
   32MOL0     C 4299   5.469   3.757  12.579 -0.4186 -0.2385  0.5434
   32MOL0     C 4300   5.463   3.835  12.439  0.0806 -0.2767 -0.7125
   32MOL0     C 4301   5.331   3.860  12.393 -0.4811 -0.3746  1.4809
   32MOL0     O 4302   5.340   3.941  12.267  0.1206  0.3351  0.0017
   32MOL0     C 4303   5.399   3.895  12.151  0.8308 -0.8076 -1.1226
   32MOL0     C 4304   5.421   3.756  12.124 -0.9604 -0.1223  0.3401
   32MOL0     C 4305   5.465   3.711  12.000 -0.2447 -0.1967  0.4064
   32MOL0     C 4306   5.489   3.559  11.989  0.4320 -0.2948 -0.4109
   32MOL0     C 4307   5.488   3.807  11.895  0.4198  0.6785  0.9388
   32MOL0     C 4308   5.537   3.772  11.754 -0.5773  0.3687  0.3785
   32MOL0     O 4309   5.607   3.650  11.738 -0.8295 -0.3850  0.6598
   32MOL0     C 4310   5.618   3.591  11.613  0.3816  0.3600 -0.4049
   32MOL0     C 4311   5.518   3.588  11.518  0.2006  0.8802  0.5769
   32MOL0     C 4312   5.551   3.518  11.391  0.4078  0.1888 -0.3400
   32MOL0     C 4313   5.681   3.463  11.372 -0.1282 -0.6945 -0.8840
   32MOL0     O 4314   5.723   3.435  11.240  0.5131 -0.4237 -0.3561
   32MOL0     C 4315   5.853   3.468  11.187  0.3673 -0.3685 -0.7497
   32MOL0     C 4316   5.837   3.501  11.040 -0.0805 -0.5742 -0.4962
   32MOL0     C 4317   5.778   3.386  10.960 -0.2528  0.3083  0.0542
   32MOL0     C 4318   5.750   3.430  10.819 -0.0868  0.5050  0.5023
   32MOL0     C 4319   5.616   3.392  10.762  0.7107  0.4297  0.0018
   32MOL0     C 4320   5.572   3.254  10.790  0.1549 -0.3946  1.0485
   32MOL0     C 4321   5.428   3.245  10.742 -0.3046  0.0312 -0.0658
   32MOL0     C 4322   5.326   3.341  10.806 -1.2407  0.1248  0.0326
   32MOL0    Cl 4323   5.155   3.276  10.787 -0.4349  0.3737 -0.2282
   32MOL0     C 4324   5.775   3.472  11.476  0.0306  0.0518  0.2581
   32MOL0     C 4325   5.744   3.537  11.588 -0.1648  0.0675 -0.1412
   32MOL0     O 4326   5.524   3.864  11.670 -0.1638  0.1771  0.4373
   32MOL0     C 4327   5.447   3.935  11.918  0.6939  0.5189  0.7380
   32MOL0     C 4328   5.402   3.982  12.049  0.4069 -0.4513  0.7699
   32MOL0     N 4329   5.494   3.492  12.385 -0.3587  0.6858  0.8825
   32MOL0     N 4330   5.579   3.401  12.351 -0.2350 -0.1772 -0.1577
   32MOL0     C 4331   5.914   2.173  11.907  0.8250  0.1301 -0.0208
   32MOL0     C 4332   5.936   2.127  11.782 -0.5449 -0.2537  0.6160
   32MOL0     C 4333   5.990   2.107  11.340  0.4102 -0.7667  0.1529
   32MOL0     C 4334   5.883   2.025  11.305  0.2272  0.4126 -1.4418
   32MOL0     C 4335   5.873   1.964  11.181  0.1781 -0.1096 -0.1107
   32MOL0     C 4336   5.982   1.976  11.093  0.0514 -0.9384  0.8994
   32MOL0     O 4337   5.977   1.927  10.967  0.4945  0.7530  0.1511
   32MOL0     C 4338   5.879   1.832  10.920  0.3794 -0.2063 -0.2513
   32MOL0     C 4339   5.920   1.782  10.779  1.2345  0.9796  0.5488
   32MOL0     C 4340   5.793   1.750  10.695  0.4877  0.0845  0.0565
   32MOL0     C 4341   5.809   1.755  10.542  0.2868  0.3909  0.4132
   32MOL0     C 4342   5.681   1.719  10.487 -0.2561  0.6257  0.2824
   32MOL0     C 4343   5.570   1.712  10.441 -0.3076  0.4376 -0.0599
   32MOL0     C 4344   6.094   2.047  11.128  0.6418 -0.1501 -0.7665
   32MOL0     C 4345   6.105   2.116  11.252  0.1926  0.4911 -0.1492
   32MOL0     C 4346   6.235   2.192  11.277  0.7776  0.1914 -0.9567
   32MOL0     H 4347   5.736   2.350  11.627  0.4449 -1.1831 -0.4741
   32MOL0     H 4348   5.680   2.411  11.840  0.5231  0.4067 -2.4012
   32MOL0     H 4349   5.639   2.386  12.194  1.6420 -0.2254  1.6245
   32MOL0     H 4350   5.657   2.460  12.026  1.6259 -0.1272 -0.7414
   32MOL0     H 4351   5.847   2.505  12.260  0.3792  0.0153  0.5871
   32MOL0     H 4352   5.847   2.587  12.098 -0.1294  1.7526 -0.5106
   32MOL0     H 4353   5.577   2.641  12.179  0.1931  2.1810  1.3540
   32MOL0     H 4354   5.629   2.585  12.332  1.9494 -0.4921  1.1375
   32MOL0     H 4355   5.814   2.780  12.308 -0.1979 -0.7074 -0.0906
   32MOL0     H 4356   5.748   2.818  12.155 -0.3358 -2.1492 -1.8244
   32MOL0     H 4357   5.587   2.812  12.415  2.2079  2.7121  1.9516
   32MOL0     H 4358   5.537   2.885  12.252  0.2910  0.9967  0.4630
   32MOL0     H 4359   5.781   2.966  12.418  1.4557  1.7720 -2.3090
   32MOL0     H 4360   5.730   3.023  12.266  0.9186  1.1493  2.0339
   32MOL0     H 4361   5.581   3.042  12.530  3.8364 -1.8866 -0.4776
   32MOL0     H 4362   5.517   3.099  12.371  0.8525 -2.2028 -2.4568
   32MOL0     H 4363   5.734   3.207  12.563 -2.8088  3.4765  1.2661
   32MOL0     H 4364   5.761   3.233  12.384 -1.8029 -0.0091 -1.5906
   32MOL0     H 4365   5.572   3.407  12.684  1.5493  4.0161  0.4627
   32MOL0     H 4366   5.404   3.592  12.697 -0.9204  0.7510  0.0757
   32MOL0     H 4367   5.306   3.631  12.548  0.3824  2.7937 -1.0204
   32MOL0     H 4368   5.437   3.828  12.656  0.4566  0.4918  0.2626
   32MOL0     H 4369   5.576   3.753  12.600 -0.2396  1.1001  0.0284
   32MOL0     H 4370   5.518   3.929  12.443 -0.5693  0.2067 -2.3964
   32MOL0     H 4371   5.506   3.766  12.366  0.0379  0.8633 -1.8507
   32MOL0     H 4372   5.276   3.766  12.385 -1.4150  0.1267  1.8705
   32MOL0     H 4373   5.275   3.920  12.465 -1.3612 -0.2680  0.7338
   32MOL0     H 4374   5.400   3.675  12.193 -1.7112 -0.1833  0.0489
   32MOL0     H 4375   5.434   3.519  11.902 -0.5266  1.2013 -0.5414
   32MOL0     H 4376   5.440   3.523  12.080 -0.5998 -0.8229 -1.1447
   32MOL0     H 4377   5.595   3.538  11.999  0.8230  1.4268 -0.6325
   32MOL0     H 4378   5.421   3.619  11.556  0.9879  0.4459  3.1801
   32MOL0     H 4379   5.489   3.531  11.303  0.8395  1.9148 -0.4379
   32MOL0     H 4380   5.896   3.552  11.241  1.1394 -0.9837 -0.3823
   32MOL0     H 4381   5.920   3.384  11.207 -1.9493 -2.0657  0.4190
   32MOL0     H 4382   5.771   3.588  11.030  4.1016  2.9934 -0.5027
   32MOL0     H 4383   5.934   3.536  11.003 -0.9456 -1.5302 -4.0612
   32MOL0     H 4384   5.690   3.351  11.017 -1.9313  1.9520 -1.3875
   32MOL0     H 4385   5.851   3.306  10.961 -0.8140 -0.3150  3.1753
   32MOL0     H 4386   5.828   3.384  10.758 -0.8240  1.0450 -0.9042
   32MOL0     H 4387   5.761   3.538  10.813 -2.3803  0.7396 -0.5109
   32MOL0     H 4388   5.549   3.468  10.802 -1.4286 -0.7698 -1.1107
   32MOL0     H 4389   5.614   3.409  10.654 -0.4728 -0.3429 -0.1230
   32MOL0     H 4390   5.575   3.232  10.897 -0.9779  2.7925  1.8369
   32MOL0     H 4391   5.627   3.183  10.728  0.2533  0.2292  0.4075
   32MOL0     H 4392   5.382   3.150  10.769 -0.0208  0.2995  1.4344
   32MOL0     H 4393   5.419   3.271  10.636  2.2320  0.4773 -0.2385
   32MOL0     H 4394   5.329   3.446  10.775 -2.5492  0.8029  2.0632
   32MOL0     H 4395   5.351   3.341  10.912  0.4673  0.9315 -0.3383
   32MOL0     H 4396   5.874   3.426  11.471  0.0735  0.2467 -1.1003
   32MOL0     H 4397   5.818   3.547  11.668 -1.1885  3.6599  0.5446
   32MOL0     H 4398   5.461   4.012  11.843  1.2544 -0.1522  0.1407
   32MOL0     H 4399   5.385   4.089  12.055 -0.4672 -0.4674 -0.7494
   32MOL0     H 4400   5.982   2.140  11.985  2.7469  0.2818 -1.5464
   32MOL0     H 4401   6.020   2.058  11.772 -0.1920  0.0695  1.2806
   32MOL0     H 4402   5.800   2.006  11.372  0.7774 -1.0478 -1.1598
   32MOL0     H 4403   5.785   1.905  11.156  0.5516 -0.1242 -1.4657
   32MOL0     H 4404   5.887   1.746  10.987 -0.7068 -0.6428 -0.6565
   32MOL0     H 4405   5.779   1.875  10.928  1.4244  2.5521 -0.7774
   32MOL0     H 4406   5.971   1.688  10.800 -0.3286 -0.0326  0.0302
   32MOL0     H 4407   5.981   1.853  10.722  1.4463  0.7388  0.4701
   32MOL0     H 4408   5.743   1.655  10.717  3.7562 -1.5292  1.2480
   32MOL0     H 4409   5.720   1.827  10.719 -0.9365 -1.7731  2.1887
   32MOL0     H 4410   5.889   1.685  10.515 -2.2319 -2.3901 -0.4207
   32MOL0     H 4411   5.833   1.857  10.510 -1.5304  0.0742 -2.2173
   32MOL0     H 4412   5.470   1.713  10.402 -1.1436 -0.7975  1.8754
   32MOL0     H 4413   6.170   2.061  11.052  1.5381  2.3084  0.4616
   32MOL0     H 4414   6.280   2.207  11.178  0.2221  0.3335 -1.1933
   32MOL0     H 4415   6.230   2.291  11.324  0.9448 -0.1874 -0.1359
   32MOL0     H 4416   6.312   2.136  11.330 -0.6727 -0.1953  0.8399
   33MOL0     O 4417   7.269   9.559   3.685 -0.1024 -0.0791  0.5719
   33MOL0     C 4418   7.206   9.490   3.774 -0.4864 -0.4436 -0.0482
   33MOL0     O 4419   7.109   9.396   3.751 -0.1401  0.4807 -0.5963
   33MOL0     C 4420   7.049   9.388   3.630  0.6536 -0.0592 -0.6877
   33MOL0     C 4421   6.968   9.489   3.583  0.5207 -0.9797 -0.1608
   33MOL0     C 4422   6.905   9.478   3.456  0.7209 -0.1311  0.5525
   33MOL0     C 4423   6.930   9.362   3.368 -0.2155 -0.0233 -0.0822
   33MOL0     O 4424   6.878   9.364   3.247  0.7953 -0.3036  0.1933
   33MOL0     C 4425   6.926   9.454   3.151  0.6551  0.1922  0.3749
   33MOL0     C 4426   6.821   9.468   3.038 -0.5526 -1.1429 -0.2742
   33MOL0     C 4427   6.876   9.561   2.933 -0.3225  0.1317  0.5774
   33MOL0     C 4428   6.775   9.668   2.903  0.1415  0.4081 -0.0547
   33MOL0     C 4429   6.797   9.736   2.773 -0.1105  0.1687  0.8435
   33MOL0     C 4430   6.671   9.823   2.723 -0.5028 -0.2254  0.0891
   33MOL0     C 4431   6.700   9.889   2.589  0.3317 -0.3874  0.7598
   33MOL0     C 4432   6.794  10.011   2.608 -0.7850  0.2962 -0.9020
   33MOL0     N 4433   6.728  10.130   2.669 -0.1565 -0.4927  0.4163
   33MOL0     C 4434   6.631  10.204   2.613  0.2041 -0.0135  0.2469
   33MOL0     C 4435   6.623  10.322   2.686 -0.4469 -0.7998  0.1130
   33MOL0     C 4436   6.540  10.448   2.657  0.6403  0.5425 -0.1604
   33MOL0     C 4437   6.558  10.555   2.754 -0.6086 -0.1234  0.0438
   33MOL0     C 4438   6.497  10.685   2.690  0.8970  0.4159 -0.0605
   33MOL0     C 4439   6.510  10.802   2.787 -0.4226  0.1601  0.1596
   33MOL0     O 4440   6.650  10.848   2.807  0.3202 -0.1427  0.7260
   33MOL0     C 4441   6.668  10.976   2.866 -0.2116 -0.1860 -0.4912
   33MOL0     C 4442   6.597  11.012   2.980 -0.3986  0.5913  0.1704
   33MOL0     C 4443   6.623  11.136   3.056 -0.4256 -0.2587  0.3866
   33MOL0     C 4444   6.531  11.167   3.174 -1.4257 -0.2729  0.3641
   33MOL0     C 4445   6.724  11.222   3.003 -0.3020 -0.1343 -0.6690
   33MOL0     C 4446   6.754  11.350   3.071 -0.6499  0.2444 -0.1585
   33MOL0     O 4447   6.658  11.403   3.143  0.2818 -0.6571 -0.2665
   33MOL0     C 4448   6.687  11.519   3.223 -0.2461  0.6789 -1.1290
   33MOL0     C 4449   6.681  11.651   3.174 -0.3929 -0.3707  0.7438
   33MOL0     C 4450   6.708  11.757   3.260  0.0803  0.8068  0.0369
   33MOL0     C 4451   6.737  11.745   3.393  0.3221 -0.9152 -0.0157
   33MOL0     O 4452   6.736  11.860   3.462  0.6054  0.1349 -0.2268
   33MOL0     C 4453   6.674  11.856   3.595 -0.9300  0.1447  0.2970
   33MOL0     C 4454   6.638  12.001   3.659 -0.3673 -0.2520  0.1162
   33MOL0     C 4455   6.634  11.983   3.812 -0.8743 -0.1429  0.9914
   33MOL0     C 4456   6.622  12.109   3.896  0.1529  0.6387  0.3646
   33MOL0     C 4457   6.493  12.188   3.859 -0.6728 -0.0588 -0.8276
   33MOL0     C 4458   6.366  12.121   3.926 -0.0650 -0.4675 -0.7023
   33MOL0     C 4459   6.244  12.208   3.918  1.3139  0.6793 -0.6096
   33MOL0     C 4460   6.126  12.120   3.911 -0.1014  0.4491 -0.0169
   33MOL0    Cl 4461   5.973  12.202   3.930 -0.4689 -0.2333 -0.3292
   33MOL0     C 4462   6.735  11.621   3.442  0.9555  0.3000 -1.1388
   33MOL0     C 4463   6.705  11.508   3.357 -0.1394 -0.4783 -0.0291
   33MOL0     O 4464   6.863  11.395   3.054 -0.7758  0.6242 -0.0306
   33MOL0     C 4465   6.803  11.178   2.893  0.1618  1.1101 -0.4020
   33MOL0     C 4466   6.773  11.060   2.824  0.1662  1.0546  0.3170
   33MOL0     N 4467   6.710  10.301   2.790  0.8667  0.3470  0.5112
   33MOL0     N 4468   6.773  10.188   2.781  0.2272 -0.4975 -0.8087
   33MOL0     C 4469   7.004   9.259   3.425 -0.1005 -0.4985  0.0239
   33MOL0     C 4470   7.054   9.263   3.560  0.0355  0.0067 -0.8993
   33MOL0     C 4471   7.203   9.534   3.919  0.6096  0.0324 -0.4883
   33MOL0     C 4472   7.091   9.490   4.004  0.1798  0.7805 -0.3121
   33MOL0     C 4473   7.081   9.529   4.141  1.0226 -0.5970 -0.0366
   33MOL0     C 4474   7.177   9.615   4.190  0.1871  0.1548 -0.6569
   33MOL0     O 4475   7.148   9.683   4.307  0.2611 -0.1838  0.1548
   33MOL0     C 4476   7.126   9.607   4.427  0.2381  0.9371 -0.2990
   33MOL0     C 4477   7.259   9.566   4.494  0.6724 -0.2399  0.4797
   33MOL0     C 4478   7.336   9.676   4.574  0.5184 -0.2198 -0.2049
   33MOL0     C 4479   7.401   9.790   4.498  0.2201  0.4823  0.9729
   33MOL0     C 4480   7.507   9.736   4.416  0.0466 -0.1848 -0.0870
   33MOL0     C 4481   7.594   9.685   4.354  0.6879  0.3871 -0.5746
   33MOL0     C 4482   7.280   9.661   4.107 -0.0454  0.7568  0.2861
   33MOL0     C 4483   7.302   9.612   3.979  0.0970  0.6939 -0.0721
   33MOL0     C 4484   7.416   9.658   3.899 -0.4068  0.0708 -0.3431
   33MOL0     H 4485   6.954   9.581   3.640 -0.5234  1.4048 -3.9291
   33MOL0     H 4486   6.839   9.547   3.404 -2.0913 -1.9437  1.5117
   33MOL0     H 4487   7.019   9.412   3.111  1.3313  0.7885  1.2686
   33MOL0     H 4488   6.934   9.560   3.178 -4.4220  1.1546 -0.9178
   33MOL0     H 4489   6.798   9.369   2.996  1.5479 -2.4605  1.4483
   33MOL0     H 4490   6.732   9.517   3.078  0.6642  1.5154 -0.5952
   33MOL0     H 4491   6.964   9.618   2.966  0.2184 -1.2567  1.6410
   33MOL0     H 4492   6.894   9.503   2.843  2.1042  0.0809  1.0408
   33MOL0     H 4493   6.673   9.628   2.903 -0.2670  1.4351 -0.6819
   33MOL0     H 4494   6.770   9.747   2.979 -0.4558  1.4116 -1.1062
   33MOL0     H 4495   6.817   9.668   2.689 -2.6790  4.4217 -3.8000
   33MOL0     H 4496   6.897   9.781   2.776  0.6264 -1.2533 -0.6531
   33MOL0     H 4497   6.586   9.756   2.706 -1.1063  1.3237 -4.2439
   33MOL0     H 4498   6.639   9.897   2.796 -1.6878  1.0094 -1.6248
   33MOL0     H 4499   6.607   9.920   2.541  0.3849  0.7506  1.3534
   33MOL0     H 4500   6.734   9.812   2.518 -1.8265  0.4931 -1.3519
   33MOL0     H 4501   6.886   9.975   2.654 -1.6931 -0.5037  0.3465
   33MOL0     H 4502   6.841  10.034   2.512  0.6247  2.4004  0.2168
   33MOL0     H 4503   6.586  10.167   2.522  0.0679 -1.2220  0.7802
   33MOL0     H 4504   6.434  10.421   2.658  1.2206 -1.9645  1.0689
   33MOL0     H 4505   6.567  10.476   2.554 -1.3793  1.6476 -0.4350
   33MOL0     H 4506   6.512  10.529   2.850  3.8231 -2.4501  1.8195
   33MOL0     H 4507   6.664  10.575   2.766 -0.8143 -0.7500  4.0320
   33MOL0     H 4508   6.538  10.724   2.596  1.4664  1.0545  0.4416
   33MOL0     H 4509   6.389  10.678   2.678  0.9429  0.2348 -0.3614
   33MOL0     H 4510   6.437  10.880   2.762  0.9309  1.4907  0.1524
   33MOL0     H 4511   6.470  10.758   2.878 -1.7028  0.2653 -0.3356
   33MOL0     H 4512   6.515  10.946   3.003  0.5501 -0.5223  0.4345
   33MOL0     H 4513   6.482  11.074   3.205 -0.2119 -1.3693 -0.9259
   33MOL0     H 4514   6.454  11.242   3.152 -0.1236  0.7472 -0.8631
   33MOL0     H 4515   6.595  11.213   3.250  1.3774  1.4840 -2.8180
   33MOL0     H 4516   6.654  11.664   3.069  1.4344  2.8644  0.5378
   33MOL0     H 4517   6.716  11.853   3.210  1.7057 -0.0712 -1.5393
   33MOL0     H 4518   6.586  11.791   3.592  1.2996 -3.0929 -0.0633
   33MOL0     H 4519   6.740  11.803   3.665  1.5701  0.8312 -1.3950
   33MOL0     H 4520   6.715  12.075   3.635 -1.4266  0.1087 -2.4173
   33MOL0     H 4521   6.542  12.036   3.621  0.5570  3.8422  1.0540
   33MOL0     H 4522   6.731  11.945   3.845 -0.8466  0.0653  1.1501
   33MOL0     H 4523   6.554  11.910   3.832 -1.9657  0.3147 -1.3798
   33MOL0     H 4524   6.714  12.166   3.879  1.3437 -1.6232 -1.3985
   33MOL0     H 4525   6.619  12.072   3.999  0.0399  0.3576  0.2609
   33MOL0     H 4526   6.514  12.285   3.904 -1.5430 -0.9895  1.7816
   33MOL0     H 4527   6.471  12.189   3.752 -1.7048  0.3216 -0.6190
   33MOL0     H 4528   6.387  12.110   4.033 -0.7810  0.4186 -0.4569
   33MOL0     H 4529   6.360  12.021   3.883  3.4473 -0.7900 -0.7122
   33MOL0     H 4530   6.245  12.271   3.829  0.1409  1.0211 -0.4090
   33MOL0     H 4531   6.214  12.260   4.010 -0.6670 -0.8147 -0.3477
   33MOL0     H 4532   6.128  12.055   3.999 -0.5187  1.1016  0.4794
   33MOL0     H 4533   6.122  12.063   3.818 -0.5597  2.7038 -1.4530
   33MOL0     H 4534   6.767  11.609   3.545  0.5096 -2.8073 -1.2564
   33MOL0     H 4535   6.701  11.405   3.392  0.1824 -0.5849 -0.3039
   33MOL0     H 4536   6.885  11.239   2.857 -0.9997  2.8259 -0.2814
   33MOL0     H 4537   6.816  11.036   2.727 -0.7229  1.3640 -0.1733
   33MOL0     H 4538   7.026   9.169   3.368 -0.3450 -1.6139  1.5900
   33MOL0     H 4539   7.132   9.188   3.572 -0.7849 -0.5752  1.1778
   33MOL0     H 4540   7.003   9.442   3.960 -0.2293  1.5896 -0.3861
   33MOL0     H 4541   6.998   9.492   4.199 -1.8496  3.3420 -1.1832
   33MOL0     H 4542   7.080   9.670   4.504 -1.5000 -0.0078 -0.5315
   33MOL0     H 4543   7.062   9.519   4.422  1.1522  0.1743  0.7870
   33MOL0     H 4544   7.330   9.522   4.423 -0.0711 -1.9750  0.7588
   33MOL0     H 4545   7.225   9.482   4.554  1.4233 -2.0839 -1.5303
   33MOL0     H 4546   7.277   9.732   4.646 -1.8111 -2.5081 -0.2174
   33MOL0     H 4547   7.417   9.641   4.639  1.8255 -1.5614 -2.4087
   33MOL0     H 4548   7.462   9.859   4.557  2.4379  0.2179 -0.8328
   33MOL0     H 4549   7.321   9.846   4.450 -0.0309 -2.3891 -2.3688
   33MOL0     H 4550   7.682   9.657   4.298  1.9324  3.0240 -0.0794
   33MOL0     H 4551   7.351   9.736   4.141  0.8809  0.4964 -0.9661
   33MOL0     H 4552   7.495   9.701   3.962  0.1152 -0.6775 -0.4676
   33MOL0     H 4553   7.467   9.587   3.834  0.8106  1.4585 -0.9559
   33MOL0     H 4554   7.383   9.730   3.824  0.4954  1.0778  0.1909
   34MOL0     O 4555   7.854   1.850   9.059  0.8356 -0.7497 -0.8885
   34MOL0     C 4556   7.940   1.858   8.968 -0.0903  0.1019 -0.1209
   34MOL0     O 4557   7.909   1.833   8.835  0.8409 -0.0677 -0.1980
   34MOL0     C 4558   7.773   1.849   8.802 -0.4857 -0.0990 -0.2196
   34MOL0     C 4559   7.758   1.927   8.688  0.6555 -0.5255  0.0123
   34MOL0     C 4560   7.627   1.932   8.631 -0.3161 -0.3894  0.4380
   34MOL0     C 4561   7.518   1.866   8.682 -0.4039 -0.0661  0.2471
   34MOL0     O 4562   7.406   1.878   8.605 -0.4616  0.2036 -0.6060
   34MOL0     C 4563   7.303   1.954   8.683  0.2604  0.9409  0.9056
   34MOL0     C 4564   7.190   2.003   8.594 -0.1484  0.7406  0.2771
   34MOL0     C 4565   7.238   2.096   8.484  0.1634 -0.4625  1.1398
   34MOL0     C 4566   7.126   2.128   8.381  0.0793  0.5463 -0.0136
   34MOL0     C 4567   7.175   2.241   8.290  0.6725 -0.7385  0.7338
   34MOL0     C 4568   7.068   2.287   8.193  0.4866 -0.7682  0.6426
   34MOL0     C 4569   7.112   2.405   8.110 -0.0232  0.4147  0.6702
   34MOL0     C 4570   6.994   2.452   8.022 -0.5259 -0.6762  0.6669
   34MOL0     N 4571   7.046   2.578   7.959  0.6893  0.2371 -0.0209
   34MOL0     C 4572   7.098   2.580   7.833  1.1507 -0.2790  0.3508
   34MOL0     C 4573   7.125   2.710   7.822 -0.4005 -0.6562  0.4477
   34MOL0     C 4574   7.194   2.755   7.695 -0.0949 -0.3310 -0.6213
   34MOL0     C 4575   7.342   2.788   7.725  0.5729 -0.6078  1.0164
   34MOL0     C 4576   7.387   2.845   7.587  0.1696  0.1701  0.3729
   34MOL0     C 4577   7.543   2.856   7.602 -0.7801  0.8021 -0.6146
   34MOL0     O 4578   7.609   2.838   7.474 -0.1584 -0.1800 -0.6311
   34MOL0     C 4579   7.614   2.931   7.375 -0.3635 -0.0613  0.3769
   34MOL0     C 4580   7.647   2.898   7.246 -0.6161  0.6919 -0.3070
   34MOL0     C 4581   7.670   2.989   7.138 -0.1295  0.5315 -0.1151
   34MOL0     C 4582   7.732   2.928   7.012 -0.5126 -0.3552 -0.0040
   34MOL0     C 4583   7.643   3.127   7.158 -0.3340  0.5388 -0.0250
   34MOL0     C 4584   7.655   3.225   7.052  0.6577  0.6540  0.3778
   34MOL0     O 4585   7.589   3.341   7.091 -0.2973  0.0142 -0.9665
   34MOL0     C 4586   7.549   3.434   6.998  0.7320  0.0421 -0.0877
   34MOL0     C 4587   7.623   3.549   6.972 -0.1262  0.0002  0.1559
   34MOL0     C 4588   7.572   3.638   6.886  0.2828 -0.0721 -0.2498
   34MOL0     C 4589   7.445   3.620   6.816 -0.2117 -0.2423 -0.1306
   34MOL0     O 4590   7.401   3.716   6.727 -0.2160  0.1401 -0.4001
   34MOL0     C 4591   7.263   3.707   6.689  0.4064  0.2044 -0.6072
   34MOL0     C 4592   7.224   3.818   6.592  0.0888  0.3407 -0.4914
   34MOL0     C 4593   7.214   3.959   6.655  0.5938  0.7963 -0.0576
   34MOL0     C 4594   7.154   4.060   6.559  0.1452  0.1480  0.7417
   34MOL0     C 4595   7.149   4.201   6.613 -0.6744  0.1417  0.7406
   34MOL0     C 4596   7.289   4.273   6.624 -0.0473 -0.0012  0.1883
   34MOL0     C 4597   7.369   4.283   6.497  0.3150 -0.4664  0.2249
   34MOL0     C 4598   7.321   4.374   6.381 -0.0257 -0.3658  0.2607
   34MOL0    Cl 4599   7.353   4.550   6.426  0.8741  0.0891  0.3115
   34MOL0     C 4600   7.380   3.494   6.834  0.0109  0.2428 -0.1700
   34MOL0     C 4601   7.429   3.411   6.932 -0.0757 -0.0412 -0.5811
   34MOL0     O 4602   7.691   3.203   6.939 -0.1666 -0.1925  0.0300
   34MOL0     C 4603   7.595   3.158   7.290  0.6380 -0.4665  0.6490
   34MOL0     C 4604   7.572   3.063   7.389 -0.6000 -0.5252 -0.1669
   34MOL0     N 4605   7.101   2.784   7.931 -0.0783 -0.0835 -0.7703
   34MOL0     N 4606   7.042   2.708   8.012  0.1115 -0.1503  0.4746
   34MOL0     C 4607   7.531   1.803   8.805 -0.2991  0.0315  0.0197
   34MOL0     C 4608   7.659   1.793   8.866  0.0494 -0.4173 -0.5827
   34MOL0     C 4609   8.089   1.890   8.983  0.4202 -0.2427  0.3400
   34MOL0     C 4610   8.171   1.894   8.860 -0.6820  0.8246 -0.3955
   34MOL0     C 4611   8.299   1.938   8.861  0.4540 -0.5054  0.3426
   34MOL0     C 4612   8.353   1.987   8.982  0.6511  0.0058  0.1863
   34MOL0     O 4613   8.471   2.046   8.988  0.3527  0.3516 -0.1603
   34MOL0     C 4614   8.470   2.185   8.932  0.4046  0.1268  0.1977
   34MOL0     C 4615   8.614   2.247   8.921 -0.5593  0.4060 -0.0133
   34MOL0     C 4616   8.625   2.383   8.863 -0.1713  0.5386 -0.9407
   34MOL0     C 4617   8.598   2.385   8.716  0.5845  0.3778  0.0544
   34MOL0     C 4618   8.570   2.517   8.651  0.3342  1.0797 -0.0231
   34MOL0     C 4619   8.561   2.618   8.587 -0.3412 -1.0022  0.1197
   34MOL0     C 4620   8.277   1.983   9.099 -0.2721 -0.1511 -0.3237
   34MOL0     C 4621   8.143   1.928   9.103  0.0469 -0.0262 -0.1328
   34MOL0     C 4622   8.067   1.930   9.234 -0.3435  0.3728 -0.0332
   34MOL0     H 4623   7.833   1.982   8.631 -1.1325 -0.7553 -2.7367
   34MOL0     H 4624   7.611   1.987   8.539 -0.3068 -0.9793  0.0830
   34MOL0     H 4625   7.357   2.038   8.725  3.4644 -0.4178 -0.1860
   34MOL0     H 4626   7.266   1.889   8.763 -0.0889  0.7314  0.5787
   34MOL0     H 4627   7.133   1.917   8.558  0.2941  0.4027  0.3706
   34MOL0     H 4628   7.122   2.055   8.662 -0.8601 -1.1778  1.1033
   34MOL0     H 4629   7.271   2.192   8.524  2.1174 -0.0798 -1.1938
   34MOL0     H 4630   7.318   2.046   8.429  0.6648 -0.0186  1.4548
   34MOL0     H 4631   7.113   2.048   8.308 -2.6610  1.4445 -0.6129
   34MOL0     H 4632   7.034   2.154   8.433  0.3842  0.3200  0.6539
   34MOL0     H 4633   7.258   2.210   8.227  2.0723  0.8995  1.6962
   34MOL0     H 4634   7.206   2.335   8.336 -2.0949  0.9953 -0.7308
   34MOL0     H 4635   7.026   2.208   8.131 -0.2182  0.7413 -0.8622
   34MOL0     H 4636   6.988   2.332   8.252  1.6230  0.8344  1.0237
   34MOL0     H 4637   7.199   2.371   8.054  0.7097 -4.2430  4.0443
   34MOL0     H 4638   7.146   2.490   8.170  3.4901  1.0009 -1.8225
   34MOL0     H 4639   6.984   2.379   7.941  3.2692  1.7512 -2.3343
   34MOL0     H 4640   6.902   2.471   8.078 -0.9177 -1.1646  0.2085
   34MOL0     H 4641   7.110   2.497   7.765  2.1995 -1.9408  2.4503
   34MOL0     H 4642   7.143   2.848   7.668 -2.9320 -1.8828 -1.0050
   34MOL0     H 4643   7.169   2.687   7.613 -1.6662 -2.9993  1.8674
   34MOL0     H 4644   7.354   2.872   7.794  1.5998 -0.2993  0.4917
   34MOL0     H 4645   7.391   2.695   7.754  0.8458 -0.8170 -0.0505
   34MOL0     H 4646   7.363   2.774   7.508  0.3631  0.1273  0.3511
   34MOL0     H 4647   7.356   2.944   7.554  2.7284  0.3848 -1.7478
   34MOL0     H 4648   7.568   2.943   7.663 -2.2670  0.6588  0.2512
   34MOL0     H 4649   7.578   2.767   7.655  1.5247  0.4476 -2.5644
   34MOL0     H 4650   7.666   2.792   7.233  0.7983  0.1735  4.1650
   34MOL0     H 4651   7.688   2.965   6.919  1.6686 -0.3523 -1.0899
   34MOL0     H 4652   7.738   2.819   7.013  0.5402 -0.3560 -1.7528
   34MOL0     H 4653   7.837   2.960   7.009 -0.6527  0.5741  2.6297
   34MOL0     H 4654   7.717   3.561   7.024  0.7322  1.4482 -1.6136
   34MOL0     H 4655   7.627   3.730   6.872 -1.1797  1.1102  1.3566
   34MOL0     H 4656   7.244   3.610   6.643  1.0807  0.8043 -2.1908
   34MOL0     H 4657   7.206   3.706   6.783  2.7576 -0.0573  0.8945
   34MOL0     H 4658   7.297   3.818   6.511  0.9214  1.5115  0.2341
   34MOL0     H 4659   7.128   3.793   6.546 -0.7240  2.7517 -0.2739
   34MOL0     H 4660   7.312   3.989   6.693 -0.7892  3.3404  1.8264
   34MOL0     H 4661   7.155   3.949   6.747  1.9697  0.3864  0.8182
   34MOL0     H 4662   7.052   4.030   6.534  0.4927  0.9640 -1.9290
   34MOL0     H 4663   7.189   4.065   6.456 -2.6950  0.4190 -0.3167
   34MOL0     H 4664   7.083   4.264   6.552 -0.4760  0.6940  1.0861
   34MOL0     H 4665   7.101   4.189   6.710  0.3119 -3.1838  0.9126
   34MOL0     H 4666   7.350   4.206   6.686 -0.7025 -2.6722 -1.8561
   34MOL0     H 4667   7.287   4.373   6.669  0.7167 -0.0594  0.3753
   34MOL0     H 4668   7.386   4.180   6.464  3.4516  0.0943 -0.2260
   34MOL0     H 4669   7.473   4.312   6.516  0.3386  2.4120 -3.1413
   34MOL0     H 4670   7.214   4.355   6.377  0.3223 -2.9456  1.5031
   34MOL0     H 4671   7.372   4.350   6.287  0.3853  4.4762 -1.0235
   34MOL0     H 4672   7.298   3.458   6.771 -1.4586 -1.3985  2.4756
   34MOL0     H 4673   7.365   3.326   6.953  3.9891 -3.2234  0.1873
   34MOL0     H 4674   7.552   3.257   7.303  0.1889 -0.1502 -2.5499
   34MOL0     H 4675   7.513   3.089   7.476 -0.5904  0.3347 -0.4092
   34MOL0     H 4676   7.447   1.753   8.852 -0.0408 -0.6009 -0.1829
   34MOL0     H 4677   7.673   1.730   8.953  3.2337  0.7414 -0.1069
   34MOL0     H 4678   8.135   1.856   8.765  0.7284 -3.3625  0.5317
   34MOL0     H 4679   8.347   1.930   8.764 -0.7074  0.6393 -0.3614
   34MOL0     H 4680   8.436   2.177   8.828 -1.5973 -1.2389  0.8991
   34MOL0     H 4681   8.413   2.258   8.990 -0.1028  0.0501 -0.2030
   34MOL0     H 4682   8.677   2.174   8.868  4.0495  1.2629  3.5970
   34MOL0     H 4683   8.673   2.246   9.014  0.2634 -0.8059 -0.5195
   34MOL0     H 4684   8.548   2.440   8.917 -1.0242 -1.4846  0.0633
   34MOL0     H 4685   8.728   2.414   8.884 -0.1657 -0.4023  0.5970
   34MOL0     H 4686   8.517   2.317   8.689 -0.0666  0.3869  1.8609
   34MOL0     H 4687   8.693   2.338   8.690  0.3676 -0.5730  0.8985
   34MOL0     H 4688   8.547   2.709   8.532 -0.6939 -1.2092 -0.1410
   34MOL0     H 4689   8.311   2.011   9.198 -3.6771  0.2531  0.8972
   34MOL0     H 4690   7.995   2.010   9.251 -0.3175  0.7203 -1.4560
   34MOL0     H 4691   8.014   1.834   9.235 -0.3628  0.3778 -0.5226
   34MOL0     H 4692   8.137   1.932   9.318 -0.9168  2.4144  0.4409
   35MOL0     O 4693   8.966   6.777   0.069  0.4678  0.1745  0.5679
   35MOL0     C 4694   8.982   6.711  -0.037  0.1442 -0.0989 -0.3438
   35MOL0     O 4695   9.103   6.661  -0.083 -0.4699 -0.0744 -0.2320
   35MOL0     C 4696   9.229   6.690  -0.022 -0.1286 -0.0611  0.5208
   35MOL0     C 4697   9.336   6.729  -0.105 -0.4463 -0.0674  0.0703
   35MOL0     C 4698   9.460   6.761  -0.047  0.8465 -0.6889 -0.1873
   35MOL0     C 4699   9.471   6.779   0.096  0.0128 -0.3353  0.1278
   35MOL0     O 4700   9.587   6.815   0.161  0.2465 -0.3667  0.1661
   35MOL0     C 4701   9.709   6.833   0.086 -0.4276  1.0887 -0.1623
   35MOL0     C 4702   9.833   6.855   0.179  0.0154  0.6786  0.6139
   35MOL0     C 4703   9.963   6.896   0.104  0.6397  0.0018 -0.4285
   35MOL0     C 4704  10.079   6.917   0.199 -0.1042 -0.5429  0.1252
   35MOL0     C 4705  10.203   7.002   0.142 -0.3112 -0.3928 -0.3406
   35MOL0     C 4706  10.313   6.979   0.239  0.3435 -0.5288 -0.5642
   35MOL0     C 4707  10.435   7.059   0.190 -0.5099  0.0079 -0.4848
   35MOL0     C 4708  10.407   7.209   0.193  0.3130  0.0112 -0.5539
   35MOL0     N 4709  10.532   7.285   0.161  0.3638  0.4417  0.0365
   35MOL0     C 4710  10.626   7.319   0.253  0.4451  0.3481  0.3395
   35MOL0     C 4711  10.722   7.384   0.176  0.4886  1.2911  0.1946
   35MOL0     C 4712  10.850   7.448   0.228  1.1000  0.2909 -0.4603
   35MOL0     C 4713  10.836   7.597   0.250  0.1116 -0.3328  0.4786
   35MOL0     C 4714  10.968   7.666   0.287 -0.6237 -0.7984  0.6127
   35MOL0     C 4715  11.046   7.600   0.397 -0.6586  0.4909  0.3357
   35MOL0     O 4716  11.141   7.699   0.459 -0.1486  0.7376 -0.3198
   35MOL0     C 4717  11.277   7.662   0.468  0.8232  0.7302  0.5828
   35MOL0     C 4718  11.324   7.614   0.587 -0.3248  0.7495  0.4055
   35MOL0     C 4719  11.462   7.582   0.602  0.1410 -0.7707 -0.1356
   35MOL0     C 4720  11.500   7.550   0.746 -0.2235 -0.9713 -0.0771
   35MOL0     C 4721  11.557   7.619   0.500  0.9605 -0.7430  0.5420
   35MOL0     C 4722  11.702   7.614   0.528  0.0339 -0.5712  0.6410
   35MOL0     O 4723  11.771   7.681   0.429  0.3539  0.8632  0.2611
   35MOL0     C 4724  11.913   7.672   0.436  0.4170  0.4425 -0.1512
   35MOL0     C 4725  12.001   7.784   0.420  0.1752  0.2460 -0.8619
   35MOL0     C 4726  12.138   7.762   0.423  0.1625  0.0248 -0.0078
   35MOL0     C 4727  12.199   7.639   0.431  0.2670 -0.1890  0.1942
   35MOL0     O 4728  12.332   7.631   0.455  0.3430  0.4485  0.0784
   35MOL0     C 4729  12.417   7.612   0.341 -0.1660 -0.2581  0.3962
   35MOL0     C 4730  12.471   7.749   0.312 -0.7165  0.0348  0.2717
   35MOL0     C 4731  12.578   7.737   0.199  1.0092  1.0937  0.5871
   35MOL0     C 4732  12.633   7.869   0.140 -0.5787 -0.5367  0.4923
   35MOL0     C 4733  12.673   7.855  -0.011 -1.0115  0.2754  0.3638
   35MOL0     C 4734  12.695   8.005  -0.067 -0.6039 -0.5788  0.3245
   35MOL0     C 4735  12.781   8.097   0.019  0.3381 -0.3049 -0.5372
   35MOL0     C 4736  12.782   8.242  -0.044 -0.4391 -0.8245  0.2392
   35MOL0    Cl 4737  12.825   8.365   0.083  0.0658 -0.1959  0.3670
   35MOL0     C 4738  12.119   7.527   0.445  0.7974  0.8222 -0.0137
   35MOL0     C 4739  11.974   7.550   0.436  0.2988 -0.2382  0.1400
   35MOL0     O 4740  11.748   7.559   0.627  0.3021  0.0906 -0.1665
   35MOL0     C 4741  11.507   7.670   0.377 -0.8508  0.1529  0.0551
   35MOL0     C 4742  11.366   7.693   0.363  0.3515 -1.0150  0.4873
   35MOL0     N 4743  10.679   7.388   0.046 -0.5646  0.4992 -0.4715
   35MOL0     N 4744  10.561   7.339   0.041 -0.3123  0.8655  0.0130
   35MOL0     C 4745   9.353   6.755   0.169  0.0290 -0.1638  0.6018
   35MOL0     C 4746   9.238   6.697   0.114  0.9656 -0.9340  0.1209
   35MOL0     C 4747   8.870   6.717  -0.129  0.3507  0.7734 -0.5721
   35MOL0     C 4748   8.772   6.815  -0.118  0.1200 -0.2734  0.3127
   35MOL0     C 4749   8.671   6.812  -0.212 -0.1797  0.2640  0.3444
   35MOL0     C 4750   8.663   6.714  -0.309 -0.1298  0.9785  1.1399
   35MOL0     O 4751   8.557   6.719  -0.394  0.0657 -0.5115 -0.4394
   35MOL0     C 4752   8.543   6.643  -0.504  0.1839  0.6342 -0.0770
   35MOL0     C 4753   8.427   6.697  -0.584 -0.0801 -0.0588 -0.4950
   35MOL0     C 4754   8.295   6.636  -0.533  0.2734  0.3424 -0.3950
   35MOL0     C 4755   8.245   6.705  -0.410  0.5627  0.0294  0.3752
   35MOL0     C 4756   8.190   6.836  -0.450  0.2679 -0.1639  0.7187
   35MOL0     C 4757   8.145   6.943  -0.483 -0.6268 -0.2194  0.5089
   35MOL0     C 4758   8.760   6.618  -0.309  0.3407  1.3113 -0.0618
   35MOL0     C 4759   8.868   6.613  -0.224 -0.0766 -0.3613 -0.0449
   35MOL0     C 4760   8.946   6.484  -0.241 -0.3591  0.4602 -0.1446
   35MOL0     H 4761   9.332   6.715  -0.213  1.0269  2.3721 -0.3745
   35MOL0     H 4762   9.545   6.786  -0.109  1.0903  0.6336  0.6408
   35MOL0     H 4763   9.718   6.923   0.024  2.2315  1.2540  0.3195
   35MOL0     H 4764   9.729   6.748   0.021 -4.3319 -0.9434  0.9686
   35MOL0     H 4765   9.802   6.939   0.242  1.7227  1.6187  0.2401
   35MOL0     H 4766   9.848   6.767   0.244 -3.5031  0.8400  1.8534
   35MOL0     H 4767   9.986   6.819   0.029  0.2181 -2.6596  1.9815
   35MOL0     H 4768   9.949   6.993   0.055 -0.6164 -0.3675 -0.8277
   35MOL0     H 4769  10.041   6.982   0.279  0.8146  0.6732 -0.3924
   35MOL0     H 4770  10.111   6.826   0.251  4.5365  1.7381  1.8619
   35MOL0     H 4771  10.179   7.107   0.127  2.5260  0.3420 -0.1154
   35MOL0     H 4772  10.232   6.957   0.046 -2.3648  1.1010 -1.7494
   35MOL0     H 4773  10.299   7.005   0.344  3.7786 -2.5542  0.5692
   35MOL0     H 4774  10.337   6.872   0.244 -0.4039 -0.8232 -2.5090
   35MOL0     H 4775  10.463   7.032   0.088 -1.0962  0.2843 -0.7191
   35MOL0     H 4776  10.521   7.038   0.255 -0.5441  0.1312 -0.3999
   35MOL0     H 4777  10.337   7.233   0.112 -1.3060  0.8398  1.0269
   35MOL0     H 4778  10.358   7.240   0.286  1.0847  1.2666 -0.5496
   35MOL0     H 4779  10.623   7.306   0.361  4.0698  1.2358  0.6855
   35MOL0     H 4780  10.940   7.426   0.169  1.1619 -0.7868  0.0291
   35MOL0     H 4781  10.861   7.393   0.322 -1.8308 -0.2651 -0.3699
   35MOL0     H 4782  10.801   7.647   0.159 -2.7715  0.2016  1.7813
   35MOL0     H 4783  10.758   7.616   0.323 -0.2388 -1.2572  0.3577
   35MOL0     H 4784  11.038   7.672   0.204  0.3701 -1.2750  1.3849
   35MOL0     H 4785  10.948   7.769   0.318 -0.8419 -0.5799 -0.2486
   35MOL0     H 4786  10.981   7.570   0.479  2.5505  1.8664  3.6551
   35MOL0     H 4787  11.103   7.514   0.361  1.3161  1.2485  1.4614
   35MOL0     H 4788  11.252   7.605   0.668  0.0537  0.4110  0.7089
   35MOL0     H 4789  11.541   7.635   0.800  4.4373 -1.8122 -1.8511
   35MOL0     H 4790  11.583   7.479   0.743  1.3834  0.8353 -2.9360
   35MOL0     H 4791  11.412   7.509   0.797 -2.7405 -0.5992 -3.6914
   35MOL0     H 4792  11.958   7.883   0.429  2.5078  1.0924  2.5358
   35MOL0     H 4793  12.191   7.856   0.416  0.6907 -0.2849 -0.2444
   35MOL0     H 4794  12.505   7.550   0.362  1.2924  1.3099 -0.7154
   35MOL0     H 4795  12.360   7.565   0.260 -0.7908  1.0892  0.0135
   35MOL0     H 4796  12.389   7.810   0.273 -2.3934 -2.6773 -0.7173
   35MOL0     H 4797  12.522   7.791   0.399 -0.5325  0.0174  0.1730
   35MOL0     H 4798  12.525   7.678   0.124 -0.1377  1.7794  0.8368
   35MOL0     H 4799  12.661   7.673   0.231 -0.3765 -0.1440  1.8956
   35MOL0     H 4800  12.722   7.884   0.202 -0.7431 -0.1967  0.6522
   35MOL0     H 4801  12.566   7.954   0.157 -1.7937 -1.1797 -0.8644
   35MOL0     H 4802  12.765   7.797  -0.024 -1.6342 -1.4679  2.8960
   35MOL0     H 4803  12.589   7.816  -0.068 -0.9319  0.9940 -0.2651
   35MOL0     H 4804  12.597   8.048  -0.088 -0.1523  0.4679  0.3081
   35MOL0     H 4805  12.733   7.987  -0.168 -0.2084 -1.4013  0.6057
   35MOL0     H 4806  12.882   8.056   0.015  0.1369 -1.3980  2.6378
   35MOL0     H 4807  12.755   8.103   0.125 -2.1197 -1.1125 -1.0322
   35MOL0     H 4808  12.686   8.270  -0.087 -0.7830 -0.7988  1.0089
   35MOL0     H 4809  12.853   8.248  -0.127  0.3518 -2.5579  0.7472
   35MOL0     H 4810  12.158   7.426   0.446  0.2465  0.4530 -3.8168
   35MOL0     H 4811  11.924   7.453   0.440 -0.4195 -0.0416 -2.3547
   35MOL0     H 4812  11.567   7.733   0.313 -1.4502  1.5811  0.8594
   35MOL0     H 4813  11.325   7.734   0.271  3.3925  1.7344  0.1714
   35MOL0     H 4814   9.357   6.780   0.274  1.7387  1.1320  0.2707
   35MOL0     H 4815   9.159   6.670   0.184 -1.8557 -2.2019 -3.2829
   35MOL0     H 4816   8.773   6.890  -0.039 -1.2968  1.8995 -1.5843
   35MOL0     H 4817   8.593   6.884  -0.195  0.0997  0.3978  1.1314
   35MOL0     H 4818   8.634   6.645  -0.565 -0.1148  3.1433 -0.5289
   35MOL0     H 4819   8.520   6.538  -0.482  1.4139  0.1349 -1.0323
   35MOL0     H 4820   8.432   6.674  -0.691 -0.3703  3.1184 -1.3040
   35MOL0     H 4821   8.418   6.806  -0.590 -3.0321 -0.1476  0.8268
   35MOL0     H 4822   8.222   6.629  -0.613  0.7179 -2.7279 -0.6561
   35MOL0     H 4823   8.322   6.530  -0.524 -1.4374 -0.3396 -2.5727
   35MOL0     H 4824   8.315   6.705  -0.326  0.8487 -3.2008  0.2865
   35MOL0     H 4825   8.167   6.633  -0.383  1.3566 -1.8955 -2.0323
   35MOL0     H 4826   8.119   7.040  -0.520 -2.7168  0.3040  3.1078
   35MOL0     H 4827   8.741   6.552  -0.393  0.8093  1.2846 -0.1525
   35MOL0     H 4828   8.900   6.415  -0.311  0.0835  0.1820 -0.1650
   35MOL0     H 4829   9.043   6.506  -0.288 -0.0144 -0.8075 -0.0637
   35MOL0     H 4830   8.955   6.434  -0.144 -0.2253  1.5044  0.3943
   36MOL0     O 4831   9.096  11.370   5.686 -0.1698 -0.3869 -0.7218
   36MOL0     C 4832   9.044  11.454   5.614 -0.4291  0.0157 -0.2869
   36MOL0     O 4833   9.122  11.531   5.522 -0.0763 -1.3302  0.2568
   36MOL0     C 4834   9.254  11.512   5.504 -1.1524  0.4505  0.9372
   36MOL0     C 4835   9.345  11.591   5.574  0.5173 -0.4112  0.1930
   36MOL0     C 4836   9.483  11.571   5.576  0.7761  0.6390  0.1499
   36MOL0     C 4837   9.532  11.480   5.486 -0.6486  0.7573  0.6921
   36MOL0     O 4838   9.669  11.461   5.454 -0.2243  0.7245  0.4318
   36MOL0     C 4839   9.763  11.495   5.550 -0.8081 -0.3299 -0.0066
   36MOL0     C 4840   9.901  11.445   5.508  0.2096 -0.6372  0.2902
   36MOL0     C 4841  10.005  11.465   5.622  0.0347 -0.5727 -0.6205
   36MOL0     C 4842  10.008  11.610   5.661  0.0996  0.0986  0.3237
   36MOL0     C 4843  10.144  11.643   5.728 -0.1685 -0.1096  0.2780
   36MOL0     C 4844  10.144  11.782   5.780  0.6407 -0.5831  0.5898
   36MOL0     C 4845  10.235  11.801   5.900 -0.5658 -0.4687  0.2779
   36MOL0     C 4846  10.378  11.733   5.874  0.9091 -0.3891  0.3192
   36MOL0     N 4847  10.459  11.795   5.771 -0.5812 -1.0710 -0.3000
   36MOL0     C 4848  10.469  11.759   5.638 -0.3453 -0.0070  0.1333
   36MOL0     C 4849  10.553  11.858   5.590 -0.2957 -0.5387 -1.2619
   36MOL0     C 4850  10.571  11.902   5.442 -0.4407  0.7167  0.1743
   36MOL0     C 4851  10.617  11.788   5.348  0.3231  0.3501  0.0550
   36MOL0     C 4852  10.680  11.838   5.226 -0.5782 -0.1559  0.2595
   36MOL0     C 4853  10.719  11.718   5.139 -0.0427 -0.2091 -0.1063
   36MOL0     O 4854  10.772  11.607   5.206  0.2522  0.0042  0.2388
   36MOL0     C 4855  10.898  11.613   5.259 -0.3258  0.0683 -0.0300
   36MOL0     C 4856  10.929  11.530   5.359 -0.0727 -0.2975 -0.4899
   36MOL0     C 4857  11.060  11.523   5.420  0.6768 -0.0043  0.4779
   36MOL0     C 4858  11.074  11.426   5.536  0.0702  0.9052  0.1143
   36MOL0     C 4859  11.164  11.612   5.373 -0.3904  0.1199  0.3889
   36MOL0     C 4860  11.305  11.617   5.417  0.1541  0.9168  0.5712
   36MOL0     O 4861  11.371  11.740   5.403  0.2099  0.2960 -0.3528
   36MOL0     C 4862  11.501  11.745   5.430  0.8378 -0.0041  0.6517
   36MOL0     C 4863  11.587  11.758   5.316  0.0026  0.5650  0.4922
   36MOL0     C 4864  11.717  11.759   5.329  0.6120 -0.2641 -0.0792
   36MOL0     C 4865  11.770  11.758   5.457 -1.2952  0.3329  0.5243
   36MOL0     O 4866  11.908  11.765   5.480 -0.7211  1.0565  0.0798
   36MOL0     C 4867  11.992  11.837   5.387 -0.0926 -0.7982 -1.1969
   36MOL0     C 4868  12.130  11.850   5.444 -0.0989 -0.9071  0.3959
   36MOL0     C 4869  12.217  11.930   5.337  0.0572  0.6420 -0.0584
   36MOL0     C 4870  12.309  12.049   5.380  0.4015  0.0385 -0.5519
   36MOL0     C 4871  12.406  12.006   5.496 -1.0066 -0.6348 -0.2686
   36MOL0     C 4872  12.489  11.878   5.466  1.0240 -0.0715 -0.0857
   36MOL0     C 4873  12.616  11.884   5.551 -0.0138 -0.7537 -0.1474
   36MOL0     C 4874  12.722  11.770   5.521 -0.6073  0.4282  0.1899
   36MOL0    Cl 4875  12.785  11.789   5.363 -0.1035  0.4436  0.4969
   36MOL0     C 4876  11.694  11.744   5.573 -0.2156 -0.4299 -0.0973
   36MOL0     C 4877  11.557  11.743   5.562 -0.6089  0.4736  0.5692
   36MOL0     O 4878  11.356  11.511   5.467  0.0450  0.3550  0.1359
   36MOL0     C 4879  11.138  11.694   5.266 -0.1810 -0.5096  0.4416
   36MOL0     C 4880  11.003  11.694   5.215  0.1081  0.1868 -0.4619
   36MOL0     N 4881  10.606  11.936   5.699  0.9531 -0.2551 -0.0903
   36MOL0     N 4882  10.543  11.897   5.802 -0.1571 -0.0214 -0.5733
   36MOL0     C 4883   9.444  11.397   5.406  1.2504 -0.3047  0.1815
   36MOL0     C 4884   9.304  11.405   5.423 -1.6042 -0.3256 -0.7313
   36MOL0     C 4885   8.907  11.499   5.641 -0.6005  0.1168  0.0319
   36MOL0     C 4886   8.879  11.627   5.608  0.1515 -1.4672  0.8140
   36MOL0     C 4887   8.748  11.675   5.629 -0.0902  0.8241  0.0130
   36MOL0     C 4888   8.649  11.592   5.677  1.2029 -0.1473 -0.3786
   36MOL0     O 4889   8.522  11.645   5.686  0.1898 -0.4681  0.0589
   36MOL0     C 4890   8.407  11.573   5.689 -0.2048  0.1745  0.1836
   36MOL0     C 4891   8.298  11.648   5.621 -0.5348 -0.2559 -0.2337
   36MOL0     C 4892   8.149  11.614   5.673 -1.0450  0.2514  1.0091
   36MOL0     C 4893   8.056  11.729   5.689 -0.2146 -0.2875  0.7379
   36MOL0     C 4894   8.053  11.816   5.568 -0.5753  0.6136 -0.2534
   36MOL0     C 4895   8.059  11.885   5.468 -0.7539  0.0247 -0.0401
   36MOL0     C 4896   8.679  11.461   5.698  0.3266  0.6316 -0.2836
   36MOL0     C 4897   8.810  11.411   5.691  0.1843 -0.2408  0.9140
   36MOL0     C 4898   8.825  11.267   5.720 -0.3069  0.0817  0.1455
   36MOL0     H 4899   9.306  11.675   5.631 -0.5026 -0.3006 -0.6416
   36MOL0     H 4900   9.548  11.621   5.648  1.3072 -2.1058  1.7088
   36MOL0     H 4901   9.739  11.454   5.649  1.7052  0.4059  0.9867
   36MOL0     H 4902   9.773  11.604   5.554 -0.0790 -0.4008  0.4898
   36MOL0     H 4903   9.896  11.338   5.487 -1.9018 -0.5708  0.1773
   36MOL0     H 4904   9.931  11.505   5.423  1.1662 -1.6789 -0.1327
   36MOL0     H 4905   9.980  11.415   5.715 -0.4526  1.1492  0.2243
   36MOL0     H 4906  10.104  11.434   5.586  0.7147  0.7639  0.0017
   36MOL0     H 4907  10.000  11.668   5.568  1.7216 -1.6956 -1.0235
   36MOL0     H 4908   9.931  11.631   5.736 -0.5960 -4.5459  1.2325
   36MOL0     H 4909  10.224  11.643   5.653 -0.9500  3.8112 -0.7731
   36MOL0     H 4910  10.164  11.577   5.813 -1.9295 -3.8395 -1.9552
   36MOL0     H 4911  10.167  11.853   5.700 -0.2582  0.1815  0.9850
   36MOL0     H 4912  10.041  11.801   5.812  0.5640  1.0488 -0.4897
   36MOL0     H 4913  10.186  11.753   5.985  2.2987 -2.2169  1.0836
   36MOL0     H 4914  10.240  11.907   5.928 -0.6117 -0.0710 -1.1148
   36MOL0     H 4915  10.425  11.764   5.968 -0.0732  0.2307  0.6193
   36MOL0     H 4916  10.387  11.624   5.866 -2.3684 -0.9078  1.8174
   36MOL0     H 4917  10.417  11.673   5.596 -4.4156  1.6394  1.2779
   36MOL0     H 4918  10.653  11.972   5.457  0.4363 -0.4209  0.9658
   36MOL0     H 4919  10.486  11.964   5.415 -1.0755 -0.2390 -0.0853
   36MOL0     H 4920  10.696  11.736   5.403 -0.3708  0.3641  1.1010
   36MOL0     H 4921  10.531  11.725   5.322  1.6945 -1.0920 -1.1368
   36MOL0     H 4922  10.613  11.908   5.174 -0.1057  0.8190  0.9349
   36MOL0     H 4923  10.767  11.898   5.257 -2.0555  1.8890  0.6592
   36MOL0     H 4924  10.628  11.694   5.084 -0.0727 -0.3432  0.0006
   36MOL0     H 4925  10.792  11.751   5.064  0.4026  1.8742  1.1653
   36MOL0     H 4926  10.856  11.462   5.403 -0.5273 -0.1572 -1.0244
   36MOL0     H 4927  11.146  11.347   5.515 -2.5599 -2.2734  1.9876
   36MOL0     H 4928  10.978  11.388   5.575 -1.9981  4.6033 -0.9077
   36MOL0     H 4929  11.113  11.477   5.624  1.0175  1.1307 -0.4339
   36MOL0     H 4930  11.551  11.789   5.219 -1.2213  0.2700  0.8313
   36MOL0     H 4931  11.775  11.786   5.242 -0.7155  0.9984 -0.6080
   36MOL0     H 4932  12.001  11.784   5.291  1.3440 -2.1478 -0.3460
   36MOL0     H 4933  11.951  11.938   5.370  0.8324 -0.4048 -1.1352
   36MOL0     H 4934  12.134  11.903   5.540 -0.3775  0.1916 -0.1797
   36MOL0     H 4935  12.165  11.746   5.447 -0.3113 -1.2510 -3.3686
   36MOL0     H 4936  12.152  11.972   5.260  1.2972 -0.8123 -1.9811
   36MOL0     H 4937  12.281  11.851   5.297  0.4465  1.7845 -1.7997
   36MOL0     H 4938  12.238  12.119   5.425  0.7604  0.2281 -0.2750
   36MOL0     H 4939  12.345  12.101   5.291 -1.1842  2.1468 -0.0459
   36MOL0     H 4940  12.466  12.094   5.523 -0.7055 -2.0737  4.6242
   36MOL0     H 4941  12.350  11.989   5.588 -1.8723  0.5876 -0.5520
   36MOL0     H 4942  12.506  11.861   5.359  1.7129 -1.3637  0.2106
   36MOL0     H 4943  12.428  11.794   5.499  0.4088  0.5156  0.2748
   36MOL0     H 4944  12.589  11.865   5.656  1.6837 -0.3511  0.3858
   36MOL0     H 4945  12.663  11.980   5.532 -2.0452 -0.4368 -4.9854
   36MOL0     H 4946  12.689  11.666   5.527  2.4844 -0.8380 -2.1912
   36MOL0     H 4947  12.801  11.776   5.596 -2.2467 -1.3979  2.1906
   36MOL0     H 4948  11.733  11.722   5.672 -1.2821 -2.7832 -0.1319
   36MOL0     H 4949  11.492  11.722   5.646 -3.4951  0.9758 -1.3804
   36MOL0     H 4950  11.209  11.767   5.228 -1.9655  1.9713  1.6208
   36MOL0     H 4951  10.999  11.765   5.132  3.1781  0.8564 -0.1763
   36MOL0     H 4952   9.473  11.316   5.340 -2.3226 -0.2166 -1.7470
   36MOL0     H 4953   9.225  11.334   5.402 -0.0119 -2.4675  0.1516
   36MOL0     H 4954   8.959  11.696   5.582  0.1303 -2.3816 -1.9252
   36MOL0     H 4955   8.717  11.777   5.604 -0.4242  0.8017  0.3252
   36MOL0     H 4956   8.420  11.472   5.648  0.9599  1.7855 -3.8758
   36MOL0     H 4957   8.376  11.559   5.793  3.7385 -0.6208  1.4363
   36MOL0     H 4958   8.301  11.617   5.517  0.1439  0.2106 -0.3577
   36MOL0     H 4959   8.318  11.755   5.627  1.8868 -0.5635 -1.6701
   36MOL0     H 4960   8.097  11.546   5.604 -0.8729  0.3079  0.8222
   36MOL0     H 4961   8.164  11.578   5.775  0.7808  2.9764  1.8081
   36MOL0     H 4962   8.102  11.799   5.759  4.4148 -1.1370 -1.0702
   36MOL0     H 4963   7.958  11.694   5.723  0.8268 -2.3578  1.8410
   36MOL0     H 4964   8.095  11.955   5.395  1.9081  0.3196  1.4253
   36MOL0     H 4965   8.600  11.396   5.735 -1.3844  0.4360 -3.8380
   36MOL0     H 4966   8.856  11.256   5.824  2.0526  0.2439 -0.4842
   36MOL0     H 4967   8.737  11.208   5.695  1.5215 -2.4845 -0.6793
   36MOL0     H 4968   8.910  11.224   5.666  0.8473  0.6082  1.4897
   37MOL0     O 4969   8.922   8.086   8.071 -0.6979  0.3938 -0.6344
   37MOL0     C 4970   9.015   8.163   8.081  0.2187 -0.7634  0.9819
   37MOL0     O 4971   9.032   8.278   8.003 -0.2679 -0.2718  0.4628
   37MOL0     C 4972   8.964   8.304   7.887  0.1528  1.5297  0.4083
   37MOL0     C 4973   8.872   8.219   7.827 -0.4297  0.2557  0.6048
   37MOL0     C 4974   8.817   8.256   7.701 -0.2526 -0.3126 -0.2839
   37MOL0     C 4975   8.872   8.355   7.623 -0.5309  0.0335  0.3550
   37MOL0     O 4976   8.823   8.390   7.505 -0.7610 -0.6213  0.1627
   37MOL0     C 4977   8.915   8.426   7.394 -0.1155  0.2159  0.4826
   37MOL0     C 4978   8.825   8.447   7.277 -0.3724 -0.1458  0.2315
   37MOL0     C 4979   8.919   8.513   7.165  0.1843 -0.3132  0.6159
   37MOL0     C 4980   8.867   8.501   7.024 -0.0151 -0.9949  0.1082
   37MOL0     C 4981   8.968   8.560   6.915  0.6086  0.4078 -0.5377
   37MOL0     C 4982   8.900   8.531   6.774  0.5113  0.1005 -0.8429
   37MOL0     C 4983   8.987   8.586   6.660 -0.0904  0.0486  0.9628
   37MOL0     C 4984   8.906   8.567   6.534  0.0395  0.2674  0.3162
   37MOL0     N 4985   8.985   8.604   6.418  0.0890 -0.0647 -0.5127
   37MOL0     C 4986   9.107   8.551   6.385 -0.8182  0.0224 -0.2526
   37MOL0     C 4987   9.152   8.628   6.285  0.4912 -0.2880  0.1293
   37MOL0     C 4988   9.282   8.618   6.213  0.0003 -0.2266 -0.3632
   37MOL0     C 4989   9.263   8.506   6.102  0.2712  0.3943 -0.1856
   37MOL0     C 4990   9.392   8.501   6.012 -0.7786 -0.6242 -0.0088
   37MOL0     C 4991   9.457   8.640   5.980  0.5526 -0.2419 -0.0178
   37MOL0     O 4992   9.508   8.637   5.838 -0.2937 -0.1388 -0.1453
   37MOL0     C 4993   9.647   8.658   5.839 -0.4292  0.6386  0.9478
   37MOL0     C 4994   9.720   8.552   5.793 -0.5878  0.3785  0.9524
   37MOL0     C 4995   9.865   8.554   5.783 -0.1999 -0.4605  0.2888
   37MOL0     C 4996   9.934   8.432   5.750 -0.0558 -0.6181 -0.0497
   37MOL0     C 4997   9.931   8.681   5.815  0.0003  0.6094  0.8665
   37MOL0     C 4998  10.078   8.693   5.809  0.4539 -0.5107 -0.6755
   37MOL0     O 4999  10.125   8.807   5.864 -0.2670  0.6200  0.5102
   37MOL0     C 5000  10.260   8.844   5.866  0.2609  0.2655  0.6798
   37MOL0     C 5001  10.305   8.935   5.966 -0.7719 -0.3630  1.1942
   37MOL0     C 5002  10.439   8.975   5.968  0.7098  0.0273 -0.5795
   37MOL0     C 5003  10.536   8.927   5.888 -0.7637  0.8011  0.3463
   37MOL0     O 5004  10.673   8.960   5.901 -0.3607  0.3368  0.7177
   37MOL0     C 5005  10.772   8.876   5.844  0.0041 -0.3416 -0.4048
   37MOL0     C 5006  10.913   8.921   5.887  0.2159 -0.2576  0.9030
   37MOL0     C 5007  10.937   9.063   5.849 -0.5676 -0.3108 -0.1518
   37MOL0     C 5008  11.084   9.092   5.868 -0.2989 -1.1332  0.4345
   37MOL0     C 5009  11.127   9.234   5.843  0.5211  0.0409 -0.1413
   37MOL0     C 5010  11.270   9.239   5.891 -0.2833  0.0190  0.2462
   37MOL0     C 5011  11.331   9.383   5.878  0.1395  0.4173  0.4217
   37MOL0     C 5012  11.246   9.495   5.941 -0.2029 -0.0956  0.2196
   37MOL0    Cl 5013  11.339   9.643   5.927  0.5134  0.1380  0.1732
   37MOL0     C 5014  10.493   8.832   5.791  0.1961 -0.4755  0.5172
   37MOL0     C 5015  10.360   8.797   5.779  1.0233  0.5019  0.2514
   37MOL0     O 5016  10.150   8.604   5.769 -0.2844  0.3315 -0.1062
   37MOL0     C 5017   9.849   8.785   5.841  0.4099 -0.0932  1.1794
   37MOL0     C 5018   9.709   8.777   5.862  0.8374 -0.4043 -0.0659
   37MOL0     N 5019   9.058   8.729   6.255  0.5807  0.5168 -0.5153
   37MOL0     N 5020   8.963   8.714   6.338 -0.0240 -0.9308  0.5324
   37MOL0     C 5021   8.963   8.443   7.691 -0.1422 -0.7709  0.2723
   37MOL0     C 5022   9.012   8.411   7.820  0.0673 -0.3345  0.2281
   37MOL0     C 5023   9.127   8.162   8.189 -0.4400 -0.9327 -0.6861
   37MOL0     C 5024   9.211   8.274   8.210 -0.5201  0.1230  1.1285
   37MOL0     C 5025   9.301   8.280   8.322  0.7803 -0.6735  1.2627
   37MOL0     C 5026   9.323   8.165   8.399  0.0386 -0.2154  0.2717
   37MOL0     O 5027   9.414   8.163   8.496 -0.4078 -0.3427 -0.7634
   37MOL0     C 5028   9.437   8.280   8.574 -0.2402 -0.0809 -1.1672
   37MOL0     C 5029   9.472   8.225   8.707 -0.8572  0.0185  0.4278
   37MOL0     C 5030   9.341   8.200   8.795  0.2451 -0.4947  0.4171
   37MOL0     C 5031   9.320   8.307   8.898 -0.7783 -0.9295 -0.0847
   37MOL0     C 5032   9.299   8.436   8.837  0.0334 -0.3387  0.3655
   37MOL0     C 5033   9.260   8.533   8.767 -0.4123  0.9468 -0.2611
   37MOL0     C 5034   9.232   8.064   8.381 -0.7364  0.5792  0.9332
   37MOL0     C 5035   9.136   8.051   8.275 -1.2608 -0.9545 -0.0617
   37MOL0     C 5036   9.073   7.919   8.258 -0.0057  0.0701  0.0342
   37MOL0     H 5037   8.844   8.123   7.867 -1.7199 -1.1018 -3.1093
   37MOL0     H 5038   8.736   8.198   7.659 -0.1744 -3.1924  3.0753
   37MOL0     H 5039   8.992   8.354   7.367  0.6009  0.9545  0.4971
   37MOL0     H 5040   8.968   8.519   7.417 -1.1682  0.2629  2.9633
   37MOL0     H 5041   8.802   8.348   7.237  1.7647  0.3910 -2.6424
   37MOL0     H 5042   8.736   8.509   7.288  0.9514  2.1794 -1.2651
   37MOL0     H 5043   8.923   8.619   7.192  2.7075  0.2896 -1.6652
   37MOL0     H 5044   9.019   8.470   7.172  0.0596 -0.9012 -1.0019
   37MOL0     H 5045   8.836   8.403   6.987 -0.6717  0.1363 -2.5073
   37MOL0     H 5046   8.777   8.562   7.016  2.5138  2.9688 -0.8881
   37MOL0     H 5047   9.062   8.504   6.925  1.4522  1.8413 -0.1912
   37MOL0     H 5048   8.982   8.667   6.931 -1.5716  0.5433  0.8189
   37MOL0     H 5049   8.860   8.431   6.755  0.7314 -0.0619 -0.4678
   37MOL0     H 5050   8.803   8.580   6.770  0.0197 -0.1708  3.3951
   37MOL0     H 5051   9.091   8.553   6.669 -0.0035  0.0471  0.0662
   37MOL0     H 5052   8.985   8.695   6.663  0.3487  0.2756 -2.6608
   37MOL0     H 5053   8.866   8.466   6.531  0.5699 -0.0598  2.5089
   37MOL0     H 5054   8.815   8.627   6.545 -0.8380 -1.0827  0.6498
   37MOL0     H 5055   9.158   8.464   6.425  1.0942  0.0011 -2.4908
   37MOL0     H 5056   9.358   8.595   6.288 -2.6129  1.0575  2.9313
   37MOL0     H 5057   9.288   8.719   6.171 -1.1140  1.4440  3.1216
   37MOL0     H 5058   9.231   8.410   6.142 -2.0130  1.9002  1.9697
   37MOL0     H 5059   9.179   8.541   6.041  1.6821 -0.4598 -2.7911
   37MOL0     H 5060   9.465   8.442   6.069 -1.2208 -1.4498 -0.2718
   37MOL0     H 5061   9.387   8.447   5.917  1.1419 -2.9982  1.1032
   37MOL0     H 5062   9.389   8.726   5.979  2.9374  1.8075 -2.5516
   37MOL0     H 5063   9.540   8.661   6.048  0.8309  1.3539 -0.8069
   37MOL0     H 5064   9.667   8.458   5.778  1.4775 -1.4150  3.8384
   37MOL0     H 5065   9.865   8.348   5.747 -1.9740  0.8672  0.0147
   37MOL0     H 5066  10.016   8.402   5.815 -0.4369 -1.5461  0.0084
   37MOL0     H 5067   9.978   8.426   5.650  0.0345 -1.5644  0.0371
   37MOL0     H 5068  10.244   8.992   6.035  1.0718  0.9325  1.8316
   37MOL0     H 5069  10.462   9.052   6.042 -0.3778  0.6322 -0.8334
   37MOL0     H 5070  10.753   8.772   5.870  0.2549 -0.7806 -1.9186
   37MOL0     H 5071  10.768   8.882   5.735 -1.0295 -2.8933 -0.5651
   37MOL0     H 5072  10.912   8.912   5.996 -2.5618 -0.8951  0.8766
   37MOL0     H 5073  10.985   8.850   5.847 -0.7311  0.2257 -1.8179
   37MOL0     H 5074  10.879   9.121   5.921  0.5728 -1.2853  1.6148
   37MOL0     H 5075  10.898   9.078   5.748 -1.5896  0.4848  0.3448
   37MOL0     H 5076  11.141   9.025   5.804 -0.5923 -2.7489  1.7749
   37MOL0     H 5077  11.119   9.076   5.971  0.6924 -1.0871  0.1048
   37MOL0     H 5078  11.111   9.256   5.737 -2.3779  0.4199  0.3008
   37MOL0     H 5079  11.067   9.309   5.894  2.3529  1.6889 -0.2867
   37MOL0     H 5080  11.328   9.178   5.821 -0.4607  1.2212 -1.0037
   37MOL0     H 5081  11.284   9.207   5.994 -2.5516  1.3341  1.0177
   37MOL0     H 5082  11.360   9.418   5.779  4.7269 -2.2900  0.5042
   37MOL0     H 5083  11.429   9.384   5.927  1.1532  2.2198 -1.4716
   37MOL0     H 5084  11.228   9.480   6.048  1.0043 -3.4380  0.0504
   37MOL0     H 5085  11.156   9.499   5.879  0.7552  1.2140 -1.1531
   37MOL0     H 5086  10.570   8.795   5.724  1.3816  0.2140  1.4581
   37MOL0     H 5087  10.337   8.720   5.707  2.1966 -1.2746  1.6987
   37MOL0     H 5088   9.888   8.884   5.861 -2.2748  1.0316  1.2513
   37MOL0     H 5089   9.655   8.869   5.879 -0.1267 -0.8868 -0.4518
   37MOL0     H 5090   8.974   8.544   7.653 -0.4285 -1.4066 -1.6077
   37MOL0     H 5091   9.083   8.482   7.862  1.8964 -1.1322 -1.3624
   37MOL0     H 5092   9.185   8.361   8.150 -0.0821 -0.1572  0.5159
   37MOL0     H 5093   9.353   8.375   8.332  0.9854 -0.1791 -2.8956
   37MOL0     H 5094   9.518   8.339   8.530 -0.2470  1.4635  0.7446
   37MOL0     H 5095   9.353   8.350   8.575 -1.4936 -1.5133 -0.3292
   37MOL0     H 5096   9.530   8.299   8.763 -1.8286  2.5568 -1.7458
   37MOL0     H 5097   9.533   8.134   8.704  2.8879  2.3235  0.2099
   37MOL0     H 5098   9.250   8.202   8.736  0.7903  0.8412 -0.4304
   37MOL0     H 5099   9.349   8.099   8.837  0.5387 -0.2640  0.9350
   37MOL0     H 5100   9.418   8.321   8.944 -0.8893 -0.3676 -0.0123
   37MOL0     H 5101   9.239   8.282   8.968  0.4426 -1.2435  1.2587
   37MOL0     H 5102   9.218   8.606   8.700 -4.3808 -2.4130 -1.8614
   37MOL0     H 5103   9.246   7.972   8.436 -0.9252 -0.9825 -1.4714
   37MOL0     H 5104   8.965   7.926   8.275  0.1800  2.4538  0.6069
   37MOL0     H 5105   9.093   7.898   8.153 -3.2095  0.2441 -0.7156
   37MOL0     H 5106   9.105   7.852   8.338  1.4468 -0.0205 -0.6000
   38MOL0     O 5107  11.412   6.203   0.300 -0.1572  0.4157 -0.3788
   38MOL0     C 5108  11.434   6.090   0.263  0.5928  0.0896  1.2285
   38MOL0     O 5109  11.377   5.978   0.298  1.0546 -1.1682 -0.6156
   38MOL0     C 5110  11.265   5.985   0.376 -0.0877 -0.1475 -0.4798
   38MOL0     C 5111  11.148   6.019   0.312 -0.5420 -0.2851  0.1710
   38MOL0     C 5112  11.037   6.030   0.394  0.6295 -0.5384  0.1694
   38MOL0     C 5113  11.038   5.997   0.529 -0.2139  0.0666 -0.7549
   38MOL0     O 5114  10.934   5.991   0.618 -0.6600 -0.1004  0.6816
   38MOL0     C 5115  10.813   6.052   0.579  0.3088  0.8140  0.2702
   38MOL0     C 5116  10.725   6.055   0.709 -1.2280 -0.4645 -1.0587
   38MOL0     C 5117  10.572   6.090   0.677  0.6153  0.0794 -0.1548
   38MOL0     C 5118  10.490   6.088   0.806  0.6196 -0.2834 -0.2729
   38MOL0     C 5119  10.344   6.037   0.797 -0.6075 -0.1193  0.4916
   38MOL0     C 5120  10.249   6.124   0.710  0.1773 -0.0517  1.2170
   38MOL0     C 5121  10.107   6.050   0.693 -0.0013 -0.0805  0.5641
   38MOL0     C 5122  10.016   6.033   0.819  0.8498 -0.0354 -0.3933
   38MOL0     N 5123   9.880   5.974   0.777 -0.2727 -0.2595  0.1254
   38MOL0     C 5124   9.776   6.042   0.710 -0.4448 -0.3463  0.2447
   38MOL0     C 5125   9.675   5.951   0.715  0.3670 -0.0671  0.6072
   38MOL0     C 5126   9.531   5.943   0.662  0.3113  0.5203 -1.0443
   38MOL0     C 5127   9.472   6.087   0.636  0.1822 -0.6674  0.1612
   38MOL0     C 5128   9.331   6.082   0.573 -0.4304 -0.6296 -0.2228
   38MOL0     C 5129   9.228   6.076   0.688  0.1433 -0.1176 -0.6887
   38MOL0     O 5130   9.099   6.047   0.631  0.1295 -0.2741  0.7462
   38MOL0     C 5131   8.990   6.125   0.666 -0.4313  0.1179 -0.2460
   38MOL0     C 5132   8.892   6.138   0.565  0.2928 -0.2101  0.0583
   38MOL0     C 5133   8.776   6.217   0.571  0.5095  0.6682  1.0613
   38MOL0     C 5134   8.674   6.216   0.463  0.7172 -0.2508  0.6347
   38MOL0     C 5135   8.767   6.290   0.695 -0.3444 -0.7682  0.8002
   38MOL0     C 5136   8.648   6.369   0.730  0.5366  0.2269 -0.2441
   38MOL0     O 5137   8.529   6.297   0.718  0.1169  0.6538 -0.6167
   38MOL0     C 5138   8.413   6.372   0.737 -0.1540 -0.4902 -0.4909
   38MOL0     C 5139   8.333   6.360   0.857  0.2634 -0.3811  0.0392
   38MOL0     C 5140   8.213   6.428   0.869 -0.6781 -0.7960 -0.5167
   38MOL0     C 5141   8.161   6.491   0.755 -0.8963  0.2327  0.1186
   38MOL0     O 5142   8.035   6.548   0.751  0.3692 -0.5764 -0.1273
   38MOL0     C 5143   7.995   6.617   0.861  0.8948 -0.6767 -0.2489
   38MOL0     C 5144   7.869   6.703   0.812 -0.4940 -0.2322 -0.0134
   38MOL0     C 5145   7.845   6.820   0.901  0.8084  0.6205 -0.1749
   38MOL0     C 5146   7.728   6.902   0.849 -0.1216  0.4379 -0.5270
   38MOL0     C 5147   7.731   6.937   0.693  0.5532 -0.0167  0.9950
   38MOL0     C 5148   7.610   7.024   0.645 -0.7724 -0.2794  0.3930
   38MOL0     C 5149   7.611   7.047   0.490 -0.0978  0.3560 -0.0256
   38MOL0     C 5150   7.482   7.126   0.436 -0.3770 -0.1079  0.5784
   38MOL0    Cl 5151   7.480   7.283   0.517  0.2153 -0.6967 -0.0490
   38MOL0     C 5152   8.233   6.503   0.638 -0.6631 -0.0730 -0.3025
   38MOL0     C 5153   8.360   6.453   0.634 -0.5687 -0.8349 -0.3611
   38MOL0     O 5154   8.661   6.480   0.780  0.2719 -0.0096 -0.3429
   38MOL0     C 5155   8.872   6.278   0.794 -0.6024 -0.2677 -0.2653
   38MOL0     C 5156   8.982   6.187   0.785  1.2072 -1.0103  0.7292
   38MOL0     N 5157   9.705   5.838   0.790  0.0159  0.9281 -0.2675
   38MOL0     N 5158   9.823   5.857   0.833 -0.0796  0.7251 -0.3789
   38MOL0     C 5159  11.153   5.954   0.587 -0.9552  0.3623  0.0681
   38MOL0     C 5160  11.273   5.954   0.510 -0.1332 -0.4759 -0.1374
   38MOL0     C 5161  11.551   6.076   0.179 -0.1899 -0.5303 -0.1867
   38MOL0     C 5162  11.573   6.190   0.097  0.5914  0.2315 -0.5776
   38MOL0     C 5163  11.688   6.201   0.013  0.3812  0.3042  0.1146
   38MOL0     C 5164  11.778   6.097  -0.003 -0.7239  0.3157 -0.0449
   38MOL0     O 5165  11.868   6.123  -0.097  0.4947 -0.2232  0.0733
   38MOL0     C 5166  11.987   6.042  -0.113  0.5795 -0.7497 -0.0050
   38MOL0     C 5167  12.068   6.088  -0.238  0.0814  1.3883 -0.4292
   38MOL0     C 5168  12.105   6.234  -0.227 -1.0620  0.4048 -0.0729
   38MOL0     C 5169  12.006   6.345  -0.273 -0.0779  1.6126 -0.5809
   38MOL0     C 5170  12.032   6.486  -0.250  0.4388 -1.2475 -0.1475
   38MOL0     C 5171  12.053   6.610  -0.244  0.2413  0.2567 -0.1467
   38MOL0     C 5172  11.759   5.980   0.069  0.5439  0.2447  0.3857
   38MOL0     C 5173  11.649   5.971   0.162 -0.1616  0.3324 -0.9318
   38MOL0     C 5174  11.638   5.830   0.230 -0.6171  0.0197  0.1830
   38MOL0     H 5175  11.143   6.025   0.204 -0.4494 -1.9528  0.0545
   38MOL0     H 5176  10.943   6.061   0.350  0.8475  0.7630  0.5905
   38MOL0     H 5177  10.764   5.989   0.504 -1.2478  1.2372  0.8876
   38MOL0     H 5178  10.824   6.152   0.535 -0.8321  1.7246  1.9314
   38MOL0     H 5179  10.747   5.961   0.760  0.5748  2.2573  3.9579
   38MOL0     H 5180  10.769   6.132   0.773 -0.8075  0.4238 -2.3822
   38MOL0     H 5181  10.559   6.187   0.628 -0.7007  0.2475  0.4762
   38MOL0     H 5182  10.530   6.008   0.618 -1.2970  1.0110 -0.1533
   38MOL0     H 5183  10.544   6.033   0.884  0.4907  1.1138  0.8506
   38MOL0     H 5184  10.486   6.187   0.853  3.6478 -1.0915  1.9945
   38MOL0     H 5185  10.297   6.024   0.895  1.3490  3.5006  2.1266
   38MOL0     H 5186  10.351   5.936   0.755 -2.6420  0.0336 -0.3241
   38MOL0     H 5187  10.233   6.219   0.761 -1.0025  0.1545  0.5004
   38MOL0     H 5188  10.283   6.150   0.609 -0.7206 -0.4585  0.7903
   38MOL0     H 5189  10.134   5.951   0.656  1.3090  0.0631  1.0669
   38MOL0     H 5190  10.044   6.106   0.622 -0.0337 -0.5906  0.1892
   38MOL0     H 5191  10.064   5.958   0.883  0.5278 -1.0155 -1.2644
   38MOL0     H 5192   9.998   6.125   0.875  0.8453 -0.6897  0.7226
   38MOL0     H 5193   9.778   6.136   0.655 -0.4408  0.8626  2.2048
   38MOL0     H 5194   9.466   5.898   0.738 -0.1627  0.1705 -1.6529
   38MOL0     H 5195   9.532   5.883   0.571 -2.5299  0.2600 -0.9959
   38MOL0     H 5196   9.475   6.117   0.741  2.0885 -3.4384  1.0210
   38MOL0     H 5197   9.534   6.151   0.573  2.0130 -2.1987  0.3106
   38MOL0     H 5198   9.309   6.171   0.514  2.0287 -1.2524 -2.2856
   38MOL0     H 5199   9.328   5.998   0.503 -1.2734  0.4769 -1.5493
   38MOL0     H 5200   9.253   5.997   0.759  0.2895 -0.4831 -1.1419
   38MOL0     H 5201   9.227   6.175   0.734 -2.1544 -0.0573 -0.7407
   38MOL0     H 5202   8.902   6.096   0.466  3.8979 -1.7847  0.9147
   38MOL0     H 5203   8.659   6.322   0.438 -1.3696 -0.4551  0.8148
   38MOL0     H 5204   8.575   6.172   0.478 -1.1857  3.0452 -1.0332
   38MOL0     H 5205   8.706   6.180   0.365  0.8149 -0.0391  0.5888
   38MOL0     H 5206   8.368   6.301   0.941  0.4619  2.5583  2.1472
   38MOL0     H 5207   8.161   6.443   0.964 -0.8012 -0.4999 -0.6294
   38MOL0     H 5208   7.954   6.551   0.938  1.6748  0.8154  1.5073
   38MOL0     H 5209   8.074   6.671   0.913  0.0892  1.4043 -1.0798
   38MOL0     H 5210   7.900   6.736   0.712 -0.3265 -0.4144 -0.0225
   38MOL0     H 5211   7.773   6.653   0.794 -1.6813  2.7734 -3.2563
   38MOL0     H 5212   7.936   6.879   0.917 -0.2989  2.7223 -1.1543
   38MOL0     H 5213   7.817   6.796   1.004 -2.6681  1.4301 -0.7999
   38MOL0     H 5214   7.742   6.997   0.901  5.4089  0.6317 -1.6704
   38MOL0     H 5215   7.636   6.848   0.875  0.7414 -0.9330 -0.1907
   38MOL0     H 5216   7.827   6.985   0.673 -0.6236  1.3284 -2.0061
   38MOL0     H 5217   7.732   6.845   0.634 -1.1159 -0.6701  1.9220
   38MOL0     H 5218   7.625   7.122   0.693 -0.6486  0.6914 -1.5106
   38MOL0     H 5219   7.517   6.977   0.675 -1.6988  0.2604 -1.4753
   38MOL0     H 5220   7.614   6.950   0.440  1.7750  0.9444 -1.1442
   38MOL0     H 5221   7.701   7.102   0.460  1.6269 -2.4843 -0.4064
   38MOL0     H 5222   7.395   7.061   0.448  1.1282 -2.6991 -1.3520
   38MOL0     H 5223   7.494   7.140   0.328  0.4425 -0.2857  0.6350
   38MOL0     H 5224   8.201   6.552   0.546 -1.6882 -0.9439 -0.4324
   38MOL0     H 5225   8.415   6.453   0.540 -0.4918  0.6136 -0.3374
   38MOL0     H 5226   8.857   6.329   0.889 -2.1656 -2.5328  0.7914
   38MOL0     H 5227   9.060   6.170   0.859  3.3948  0.6858 -1.0552
   38MOL0     H 5228  11.150   5.911   0.686  0.1641  0.7825  0.2979
   38MOL0     H 5229  11.361   5.910   0.555 -1.3047 -1.6795  1.0726
   38MOL0     H 5230  11.501   6.271   0.097 -0.7376 -0.9118 -0.1503
   38MOL0     H 5231  11.697   6.282  -0.058  0.2443  0.2808  0.0698
   38MOL0     H 5232  12.042   6.036  -0.019  0.2626 -1.8194  0.1178
   38MOL0     H 5233  11.961   5.939  -0.138  1.1825 -0.5495 -1.6347
   38MOL0     H 5234  12.009   6.071  -0.329 -1.0582 -0.0270  0.5397
   38MOL0     H 5235  12.161   6.030  -0.237 -0.9335 -0.3704  2.2112
   38MOL0     H 5236  12.138   6.255  -0.125  2.4389 -1.7638 -0.5880
   38MOL0     H 5237  12.196   6.260  -0.282  1.2673 -1.6882  2.4820
   38MOL0     H 5238  11.914   6.325  -0.216  0.6483 -3.9973 -0.8205
   38MOL0     H 5239  11.982   6.329  -0.378  0.3105  1.5963 -0.6682
   38MOL0     H 5240  12.098   6.707  -0.234  0.8034  0.1320 -1.2489
   38MOL0     H 5241  11.828   5.897   0.060 -2.3033 -2.1608 -0.8545
   38MOL0     H 5242  11.565   5.839   0.311 -1.7336  1.4669 -0.9425
   38MOL0     H 5243  11.603   5.771   0.145  1.6767  1.6807 -2.0926
   38MOL0     H 5244  11.736   5.796   0.265 -0.1291 -0.0779 -1.2164
   39MOL0     O 5245   8.543   0.869   9.158  0.3177  0.7019  0.0014
   39MOL0     C 5246   8.662   0.842   9.146  0.1104 -0.0308  0.7137
   39MOL0     O 5247   8.758   0.897   9.231  0.1507  0.6360 -0.0079
   39MOL0     C 5248   8.708   1.001   9.307  1.5900  0.3417 -0.5974
   39MOL0     C 5249   8.658   1.118   9.248 -0.1142 -0.1160  0.1953
   39MOL0     C 5250   8.599   1.215   9.322 -0.6358 -0.7694 -0.0785
   39MOL0     C 5251   8.610   1.211   9.455  0.3872  0.6202  0.1517
   39MOL0     O 5252   8.558   1.321   9.519 -0.0307 -0.5785  0.3124
   39MOL0     C 5253   8.487   1.298   9.647 -0.4409  0.6346  0.2997
   39MOL0     C 5254   8.441   1.429   9.714  0.1629 -0.4021 -0.7487
   39MOL0     C 5255   8.524   1.468   9.841  0.2016  0.5733 -0.0700
   39MOL0     C 5256   8.460   1.589   9.913  0.1212 -0.4677 -0.7227
   39MOL0     C 5257   8.512   1.596  10.062  0.2205  0.0774  0.0411
   39MOL0     C 5258   8.461   1.726  10.125 -0.0323  0.6728 -0.0487
   39MOL0     C 5259   8.312   1.755  10.118  0.2498 -0.8272  0.8218
   39MOL0     C 5260   8.214   1.656  10.177  0.3289  0.4630  0.1028
   39MOL0     N 5261   8.069   1.681  10.135 -0.0131 -1.0024  0.0669
   39MOL0     C 5262   7.982   1.790  10.181  0.3516  0.1242  0.7059
   39MOL0     C 5263   7.860   1.759  10.137  0.9838 -0.1640 -0.0055
   39MOL0     C 5264   7.741   1.839  10.182 -0.3637  0.2642  0.1688
   39MOL0     C 5265   7.716   1.824  10.331 -0.6568 -0.3610 -0.2879
   39MOL0     C 5266   7.592   1.884  10.375 -0.1884  0.2906  0.0897
   39MOL0     C 5267   7.570   1.860  10.527  0.3060  0.1167  0.5854
   39MOL0     O 5268   7.641   1.950  10.609  0.1994 -1.0492 -0.5122
   39MOL0     C 5269   7.728   1.898  10.703  0.3538 -0.0024 -0.3016
   39MOL0     C 5270   7.678   1.819  10.809 -0.7024  0.2726  0.3259
   39MOL0     C 5271   7.780   1.776  10.904 -0.5137  0.4710 -0.2580
   39MOL0     C 5272   7.738   1.684  11.014  0.3994 -0.9655  0.2779
   39MOL0     C 5273   7.917   1.793  10.883 -0.2742  1.3378 -0.1768
   39MOL0     C 5274   8.020   1.725  10.977  0.4940 -1.3654  0.3638
   39MOL0     O 5275   7.991   1.741  11.109 -1.2978  0.0527 -0.2006
   39MOL0     C 5276   8.082   1.700  11.207 -0.3957 -0.2052 -0.2452
   39MOL0     C 5277   8.015   1.648  11.321 -0.2367 -1.0725  0.2152
   39MOL0     C 5278   8.090   1.594  11.432  0.6718  0.3304 -0.1453
   39MOL0     C 5279   8.223   1.601  11.439  0.1447  0.6746 -0.2433
   39MOL0     O 5280   8.311   1.545  11.533  0.0747 -0.8907  0.4033
   39MOL0     C 5281   8.270   1.418  11.590 -0.4198 -0.0053  1.0544
   39MOL0     C 5282   8.367   1.369  11.699 -0.0270 -0.2825 -0.1244
   39MOL0     C 5283   8.334   1.226  11.745  0.6300  0.3622  0.7505
   39MOL0     C 5284   8.431   1.169  11.851  0.2676 -0.3134  1.0721
   39MOL0     C 5285   8.427   1.239  11.991 -0.4094 -0.4943  0.4075
   39MOL0     C 5286   8.527   1.358  11.997 -0.0373 -0.6156 -1.1538
   39MOL0     C 5287   8.521   1.433  12.131  0.0077 -0.8725 -0.1879
   39MOL0     C 5288   8.385   1.518  12.152  0.2425  0.1282 -0.3747
   39MOL0    Cl 5289   8.345   1.613  12.010  0.0840  0.3373 -0.2097
   39MOL0     C 5290   8.288   1.673  11.340  0.1209 -0.5856  0.9626
   39MOL0     C 5291   8.219   1.719  11.221  0.2506  0.4174 -0.5132
   39MOL0     O 5292   8.118   1.666  10.935 -0.3393 -0.4441  0.6974
   39MOL0     C 5293   7.965   1.876  10.773  0.8369  0.4455 -0.2523
   39MOL0     C 5294   7.863   1.928  10.692  0.0012  0.6460  0.2551
   39MOL0     N 5295   7.876   1.674  10.030  0.0173 -0.7140 -0.6971
   39MOL0     N 5296   7.996   1.624  10.038  0.2718 -0.7190 -0.0211
   39MOL0     C 5297   8.666   1.093   9.519  0.0479 -0.6037 -0.5301
   39MOL0     C 5298   8.713   0.987   9.444 -0.0221  1.2107 -0.5640
   39MOL0     C 5299   8.709   0.752   9.033 -0.5432 -0.5834  0.5501
   39MOL0     C 5300   8.845   0.731   9.017  0.1604  0.6065  0.3480
   39MOL0     C 5301   8.904   0.660   8.915  1.2684  0.6524 -0.6752
   39MOL0     C 5302   8.821   0.607   8.813  0.2370 -0.2179  0.3293
   39MOL0     O 5303   8.886   0.564   8.700 -0.0883 -0.5560 -0.5780
   39MOL0     C 5304   8.826   0.476   8.601  0.3939 -0.5857  0.4861
   39MOL0     C 5305   8.794   0.340   8.660  0.2587 -0.5544  0.8196
   39MOL0     C 5306   8.766   0.243   8.545  0.7100  0.7761 -0.1232
   39MOL0     C 5307   8.748   0.098   8.600 -0.1588 -0.5052  0.2736
   39MOL0     C 5308   8.745  -0.001   8.495 -0.5064  0.2938 -0.1558
   39MOL0     C 5309   8.743  -0.069   8.398 -0.4940 -0.4107  0.4163
   39MOL0     C 5310   8.677   0.627   8.825 -0.0212 -0.1927  0.7775
   39MOL0     C 5311   8.625   0.697   8.936  0.2635  0.0044 -0.6153
   39MOL0     C 5312   8.472   0.692   8.950  0.4255  0.3201 -0.2731
   39MOL0     H 5313   8.644   1.126   9.141 -1.1427 -2.7690  0.0539
   39MOL0     H 5314   8.545   1.300   9.279  1.9342  1.1784  0.3243
   39MOL0     H 5315   8.545   1.234   9.713  0.8923  2.5006  1.0222
   39MOL0     H 5316   8.394   1.242   9.632  0.3326 -0.8122  0.7988
   39MOL0     H 5317   8.445   1.508   9.639 -2.1599 -0.3833 -0.9174
   39MOL0     H 5318   8.334   1.421   9.732 -0.1424 -0.8793 -2.6024
   39MOL0     H 5319   8.525   1.372   9.892 -0.8282  0.1023 -0.9052
   39MOL0     H 5320   8.627   1.496   9.813  0.8072 -0.0643  1.4183
   39MOL0     H 5321   8.497   1.681   9.867 -0.4762 -0.0779 -0.4369
   39MOL0     H 5322   8.351   1.574   9.914  0.0917 -0.2276 -0.1927
   39MOL0     H 5323   8.622   1.597  10.061  0.4393 -1.8004 -4.8766
   39MOL0     H 5324   8.476   1.509  10.118  1.1131 -3.1426 -3.9572
   39MOL0     H 5325   8.494   1.739  10.228  1.0850 -0.2100 -0.2622
   39MOL0     H 5326   8.508   1.805  10.066  1.5062  0.4356  0.8048
   39MOL0     H 5327   8.269   1.769  10.018 -1.3504 -1.0359  1.4489
   39MOL0     H 5328   8.296   1.854  10.161 -3.5423 -0.7945 -0.2985
   39MOL0     H 5329   8.252   1.560  10.142  0.4596  0.9280 -1.0609
   39MOL0     H 5330   8.220   1.668  10.286  1.7522  0.9602 -0.0065
   39MOL0     H 5331   8.010   1.858  10.260  3.9911  1.6318 -1.6213
   39MOL0     H 5332   7.653   1.805  10.126  0.7485  2.3839 -3.1778
   39MOL0     H 5333   7.762   1.945  10.163  3.7754 -0.4785 -0.4522
   39MOL0     H 5334   7.716   1.719  10.362  0.8059 -1.3449 -3.2686
   39MOL0     H 5335   7.804   1.854  10.387 -2.3387  2.4618  1.0409
   39MOL0     H 5336   7.608   1.990  10.351 -1.9694 -0.0310 -3.0197
   39MOL0     H 5337   7.508   1.852  10.313  1.7892 -0.4893 -2.3818
   39MOL0     H 5338   7.463   1.863  10.551  0.0024 -0.4897 -0.6397
   39MOL0     H 5339   7.606   1.764  10.564 -0.7408  0.8980  4.0484
   39MOL0     H 5340   7.572   1.799  10.823 -0.6866 -1.2950 -1.4035
   39MOL0     H 5341   7.746   1.713  11.119  1.3215  1.0832 -0.3150
   39MOL0     H 5342   7.786   1.590  10.986  1.9090  0.2056 -1.2763
   39MOL0     H 5343   7.634   1.652  11.001 -0.4108 -0.3707  4.0939
   39MOL0     H 5344   7.907   1.659  11.329 -0.0465  1.3087  0.2802
   39MOL0     H 5345   8.034   1.559  11.519 -3.9178  1.5770 -2.3036
   39MOL0     H 5346   8.173   1.425  11.639 -0.1086 -0.5692  1.7639
   39MOL0     H 5347   8.269   1.339  11.514  1.1401 -0.2482  1.2384
   39MOL0     H 5348   8.469   1.385  11.663 -0.7992 -0.3334 -2.4635
   39MOL0     H 5349   8.354   1.440  11.781 -1.2067 -1.0851  0.4086
   39MOL0     H 5350   8.332   1.159  11.659  0.7812  0.0883  0.9593
   39MOL0     H 5351   8.235   1.223  11.792 -1.3925 -0.9866 -3.1493
   39MOL0     H 5352   8.537   1.178  11.827 -0.0813  2.6334  0.2099
   39MOL0     H 5353   8.396   1.066  11.863 -2.5883 -0.2968 -4.1123
   39MOL0     H 5354   8.325   1.276  12.005  0.4752  1.3034  2.7337
   39MOL0     H 5355   8.446   1.174  12.077 -0.7226 -1.3304 -0.1327
   39MOL0     H 5356   8.524   1.426  11.912  0.0789  2.6700  1.2706
   39MOL0     H 5357   8.629   1.319  11.985  0.5407  0.1368  0.8443
   39MOL0     H 5358   8.609   1.497  12.126 -0.4518 -0.2912 -3.5520
   39MOL0     H 5359   8.537   1.361  12.212 -1.1250  1.5884  2.3820
   39MOL0     H 5360   8.399   1.582  12.240  1.1728  0.0184 -0.4378
   39MOL0     H 5361   8.299   1.453  12.172  1.0262 -0.3514  1.6086
   39MOL0     H 5362   8.396   1.674  11.344  0.1778 -0.5747 -0.3819
   39MOL0     H 5363   8.254   1.779  11.138  1.1875  0.7394  0.0979
   39MOL0     H 5364   8.070   1.898  10.755  1.2770 -1.0880  0.3245
   39MOL0     H 5365   7.895   2.001  10.618  0.2916 -0.2522 -0.5289
   39MOL0     H 5366   8.673   1.093   9.628  0.1309 -0.7478 -0.5355
   39MOL0     H 5367   8.745   0.896   9.494 -2.9055  2.5628  4.4194
   39MOL0     H 5368   8.911   0.762   9.097 -0.4831 -0.0540  1.1489
   39MOL0     H 5369   9.011   0.647   8.915  1.1753 -0.2234 -0.1960
   39MOL0     H 5370   8.737   0.535   8.578 -1.3996 -1.8835  3.3790
   39MOL0     H 5371   8.891   0.474   8.514  3.1018 -0.9691  2.3948
   39MOL0     H 5372   8.706   0.343   8.725 -0.0441  3.6518  0.5235
   39MOL0     H 5373   8.870   0.312   8.732  2.5149  0.2201 -1.1170
   39MOL0     H 5374   8.671   0.263   8.494  1.3481  1.8831 -0.9114
   39MOL0     H 5375   8.849   0.250   8.474  1.6847  2.8890  1.1304
   39MOL0     H 5376   8.658   0.088   8.662  0.0503 -1.5581  0.4261
   39MOL0     H 5377   8.827   0.069   8.669  0.0811  2.4570  1.3862
   39MOL0     H 5378   8.753  -0.126   8.308 -0.5823 -3.7697  2.3855
   39MOL0     H 5379   8.600   0.599   8.754  0.7139 -2.0888  0.6621
   39MOL0     H 5380   8.433   0.601   8.904 -0.9637  1.8050 -2.1917
   39MOL0     H 5381   8.440   0.678   9.053 -4.1654  3.0217 -1.0504
   39MOL0     H 5382   8.422   0.783   8.915 -0.1908  0.1448  0.1405
   40MOL0     O 5383   1.433   1.770   5.773 -0.1190 -0.3102 -0.1223
   40MOL0     C 5384   1.417   1.759   5.893 -1.2382 -0.2386  0.7222
   40MOL0     O 5385   1.515   1.743   5.985  0.6902 -0.0457  0.1126
   40MOL0     C 5386   1.644   1.741   5.951 -0.3100 -1.1107  1.0366
   40MOL0     C 5387   1.720   1.853   5.982 -0.0149  0.6170  0.2508
   40MOL0     C 5388   1.851   1.845   5.944 -1.2835 -0.0308 -0.1718
   40MOL0     C 5389   1.904   1.729   5.896 -0.7039 -0.4271 -0.9474
   40MOL0     O 5390   2.036   1.709   5.860  0.0201 -0.0252 -0.9899
   40MOL0     C 5391   2.114   1.824   5.829  0.0879 -0.2506  0.3358
   40MOL0     C 5392   2.088   1.891   5.694 -0.5161  0.0193 -0.3128
   40MOL0     C 5393   2.153   1.822   5.564 -0.2740 -0.2185 -1.0761
   40MOL0     C 5394   2.303   1.817   5.575 -1.2082 -0.8387 -0.5000
   40MOL0     C 5395   2.374   1.949   5.620  0.5856 -0.2192  0.5218
   40MOL0     C 5396   2.525   1.940   5.589  0.1446 -0.8811  0.0185
   40MOL0     C 5397   2.590   2.071   5.636 -0.1154 -0.4737 -0.9794
   40MOL0     C 5398   2.713   2.109   5.546 -0.6012 -1.0466  0.3577
   40MOL0     N 5399   2.764   2.242   5.584  0.6406 -0.2971  0.2696
   40MOL0     C 5400   2.837   2.270   5.694  0.4655 -0.1915 -0.3593
   40MOL0     C 5401   2.879   2.393   5.662  0.2744 -0.4958 -0.4599
   40MOL0     C 5402   2.980   2.476   5.742  0.5122  0.8360  0.1182
   40MOL0     C 5403   3.124   2.450   5.682 -0.1779  0.3579  0.5284
   40MOL0     C 5404   3.241   2.444   5.782  0.0020 -0.2151  0.1544
   40MOL0     C 5405   3.380   2.461   5.717  0.1933  1.1953 -0.3050
   40MOL0     O 5406   3.426   2.357   5.629  0.2221  0.2077  0.0200
   40MOL0     C 5407   3.489   2.248   5.687 -0.0339  0.5532  0.0659
   40MOL0     C 5408   3.497   2.202   5.819 -0.2256 -0.9918 -0.8935
   40MOL0     C 5409   3.543   2.076   5.858  0.0589 -0.0443  0.0740
   40MOL0     C 5410   3.555   2.039   6.000 -0.2078  0.0362  0.5566
   40MOL0     C 5411   3.594   1.995   5.750 -0.7225 -1.1903 -0.5527
   40MOL0     C 5412   3.647   1.856   5.775  0.2861 -0.1075  0.1019
   40MOL0     O 5413   3.744   1.804   5.689  0.1078 -0.3104 -0.0945
   40MOL0     C 5414   3.811   1.680   5.714 -0.3851 -0.0582  0.2408
   40MOL0     C 5415   3.771   1.588   5.806  0.5112 -0.7267  0.1193
   40MOL0     C 5416   3.835   1.465   5.808  0.4104 -0.2578  0.7908
   40MOL0     C 5417   3.950   1.443   5.739  0.3895  0.2504 -0.0749
   40MOL0     O 5418   4.021   1.327   5.746 -0.2058 -0.9320 -0.2431
   40MOL0     C 5419   4.157   1.331   5.801 -0.3236 -0.7352 -0.4694
   40MOL0     C 5420   4.184   1.184   5.834  0.2558  0.2712  0.1967
   40MOL0     C 5421   4.159   1.080   5.723 -0.4664  0.5963  0.7123
   40MOL0     C 5422   4.264   1.077   5.609 -0.1607  0.3913 -0.2907
   40MOL0     C 5423   4.242   0.971   5.508  1.0999  0.9728 -0.0451
   40MOL0     C 5424   4.350   0.952   5.408  0.0864 -0.1355  0.2799
   40MOL0     C 5425   4.301   0.859   5.295  1.0859 -0.3814 -0.7064
   40MOL0     C 5426   4.385   0.870   5.167 -0.1091 -0.2906 -0.1545
   40MOL0    Cl 5427   4.317   0.784   5.021  0.2148  0.3102  0.0064
   40MOL0     C 5428   3.997   1.537   5.651 -1.0395 -0.2999 -0.2595
   40MOL0     C 5429   3.922   1.653   5.633  0.4657 -0.5325 -0.4022
   40MOL0     O 5430   3.574   1.794   5.850  0.3095 -0.6560  0.0976
   40MOL0     C 5431   3.608   2.044   5.623  0.5282 -0.0171 -0.1254
   40MOL0     C 5432   3.545   2.167   5.593  0.4927 -0.2012  0.6642
   40MOL0     N 5433   2.821   2.435   5.546  0.6386  0.2360  0.9681
   40MOL0     N 5434   2.759   2.340   5.491  0.8969 -0.0418 -0.9550
   40MOL0     C 5435   1.827   1.617   5.873  0.8385 -0.5035  0.8699
   40MOL0     C 5436   1.696   1.620   5.911  0.5870  0.7489  0.8454
   40MOL0     C 5437   1.288   1.795   5.941 -0.5265  0.4817 -0.0603
   40MOL0     C 5438   1.169   1.721   5.894 -0.4763  0.2882  0.1522
   40MOL0     C 5439   1.042   1.753   5.934  0.6310  0.0347  0.8538
   40MOL0     C 5440   1.019   1.842   6.035  0.5250 -0.1999 -0.0559
   40MOL0     O 5441   0.896   1.885   6.081  0.2009 -0.1429  0.4851
   40MOL0     C 5442   0.774   1.844   6.011 -0.6210  0.0970  0.0190
   40MOL0     C 5443   0.719   1.706   6.063  0.7482  0.2137 -0.2192
   40MOL0     C 5444   0.669   1.729   6.213  1.0681  0.4345 -0.3630
   40MOL0     C 5445   0.535   1.800   6.219 -0.1591  0.1313  0.4162
   40MOL0     C 5446   0.431   1.745   6.129 -0.9286  0.6086 -0.4512
   40MOL0     C 5447   0.346   1.713   6.050 -0.3973 -0.0724 -0.4635
   40MOL0     C 5448   1.133   1.907   6.091  0.1985  0.6172 -0.1329
   40MOL0     C 5449   1.264   1.888   6.044 -0.8238 -0.4844 -0.0081
   40MOL0     C 5450   1.371   1.975   6.110 -0.1530 -0.3203  0.3288
   40MOL0     H 5451   1.672   1.939   6.027 -3.1931 -1.0955  0.4002
   40MOL0     H 5452   1.912   1.935   5.950  1.0225 -1.1908 -3.0429
   40MOL0     H 5453   2.217   1.786   5.829  0.5456  0.9367 -0.3238
   40MOL0     H 5454   2.106   1.901   5.906 -2.2545  1.7448 -1.7150
   40MOL0     H 5455   1.983   1.902   5.666 -0.5908 -0.8129 -0.3687
   40MOL0     H 5456   2.133   1.991   5.694 -0.0401 -0.1847 -0.9556
   40MOL0     H 5457   2.110   1.724   5.542  0.5224 -0.8861  0.1747
   40MOL0     H 5458   2.137   1.888   5.479 -2.2993  0.5588 -0.1482
   40MOL0     H 5459   2.342   1.748   5.651 -0.1300  0.3406  0.0581
   40MOL0     H 5460   2.327   1.792   5.471 -1.7872  2.4466 -1.5231
   40MOL0     H 5461   2.362   1.978   5.725 -1.9015  1.5943 -0.1593
   40MOL0     H 5462   2.332   2.027   5.556  2.1485  0.8345  0.7224
   40MOL0     H 5463   2.567   1.855   5.642  0.9330  1.3202  3.2525
   40MOL0     H 5464   2.531   1.937   5.480  3.1373  0.6767  0.0392
   40MOL0     H 5465   2.628   2.053   5.737 -1.1216  0.9816 -0.3183
   40MOL0     H 5466   2.515   2.149   5.653 -0.9382 -1.9100  3.1916
   40MOL0     H 5467   2.798   2.041   5.555  1.0349  0.9712  1.0967
   40MOL0     H 5468   2.673   2.104   5.444  0.3597 -1.8597  0.0037
   40MOL0     H 5469   2.879   2.204   5.769 -0.8605 -0.7098 -0.0327
   40MOL0     H 5470   2.969   2.463   5.851  3.0730 -2.5063  0.1490
   40MOL0     H 5471   2.958   2.582   5.731 -0.2591  1.2900  4.2505
   40MOL0     H 5472   3.130   2.357   5.625  0.3201 -0.8926  2.5312
   40MOL0     H 5473   3.142   2.533   5.614 -0.0104  1.1652  1.5316
   40MOL0     H 5474   3.234   2.512   5.867 -0.3684 -1.1620  0.8957
   40MOL0     H 5475   3.225   2.353   5.841 -0.9718  0.8685  1.6416
   40MOL0     H 5476   3.364   2.558   5.670  0.9921  1.2648 -0.4495
   40MOL0     H 5477   3.459   2.473   5.791 -0.0976  1.7151 -0.0802
   40MOL0     H 5478   3.453   2.268   5.893 -0.7227 -1.6636 -0.5801
   40MOL0     H 5479   3.475   1.971   6.033 -0.3603 -0.0157  0.0959
   40MOL0     H 5480   3.545   2.135   6.051 -2.5253  1.9745 -3.0625
   40MOL0     H 5481   3.648   1.993   6.035  0.4663  0.8555 -0.1369
   40MOL0     H 5482   3.672   1.602   5.848 -0.1304  4.6082 -2.2655
   40MOL0     H 5483   3.795   1.384   5.868  2.1474 -1.4838  0.4006
   40MOL0     H 5484   4.235   1.363   5.732 -0.0949 -0.9001 -0.2884
   40MOL0     H 5485   4.172   1.396   5.888  1.1199 -2.5642  0.7151
   40MOL0     H 5486   4.285   1.178   5.875  0.6796  1.3713 -0.6268
   40MOL0     H 5487   4.115   1.165   5.916  0.1302  3.1190  0.8847
   40MOL0     H 5488   4.057   1.095   5.686 -0.1860 -0.5279 -0.5759
   40MOL0     H 5489   4.170   0.985   5.775 -1.5304 -0.2309 -0.5107
   40MOL0     H 5490   4.359   1.064   5.661  0.8673 -2.2144 -2.5713
   40MOL0     H 5491   4.269   1.175   5.560  2.7529  1.4079  1.7464
   40MOL0     H 5492   4.231   0.870   5.548 -0.8263 -0.1263 -2.9891
   40MOL0     H 5493   4.146   0.990   5.460  0.8927 -0.5277 -0.2673
   40MOL0     H 5494   4.427   0.903   5.468 -0.6751  0.1366  1.5074
   40MOL0     H 5495   4.371   1.054   5.374 -2.3757  0.1061 -0.7608
   40MOL0     H 5496   4.195   0.872   5.270  1.3448  0.9345 -1.1716
   40MOL0     H 5497   4.313   0.756   5.330 -1.8354 -1.0259 -1.3149
   40MOL0     H 5498   4.490   0.852   5.195 -1.1041 -2.7848  2.5685
   40MOL0     H 5499   4.379   0.977   5.144 -0.9839 -0.3542 -0.2521
   40MOL0     H 5500   4.081   1.516   5.586  0.4717  2.5536  0.5762
   40MOL0     H 5501   3.940   1.736   5.566 -2.7829 -0.7529 -1.7012
   40MOL0     H 5502   3.646   1.982   5.543  1.1200 -1.6387  1.3317
   40MOL0     H 5503   3.539   2.204   5.491 -4.9932  3.1173  1.7670
   40MOL0     H 5504   1.871   1.526   5.833  0.3437 -0.2053 -0.3880
   40MOL0     H 5505   1.635   1.533   5.891  0.7756  0.6569  0.6659
   40MOL0     H 5506   1.190   1.648   5.816  0.1930  0.3766  0.2385
   40MOL0     H 5507   0.972   1.697   5.872  1.3556  1.7326 -1.6468
   40MOL0     H 5508   0.696   1.919   6.030 -0.7303  0.8818 -3.0097
   40MOL0     H 5509   0.784   1.841   5.902  0.3069 -0.3629  0.1110
   40MOL0     H 5510   0.799   1.632   6.078  0.8025  0.1616 -0.7420
   40MOL0     H 5511   0.638   1.676   5.996  0.0710  1.0589  0.2102
   40MOL0     H 5512   0.658   1.630   6.259  0.7451  1.2607  1.4374
   40MOL0     H 5513   0.745   1.777   6.275 -0.0387 -0.6705  1.9765
   40MOL0     H 5514   0.545   1.909   6.212  0.2975  0.0698  0.0205
   40MOL0     H 5515   0.495   1.797   6.321  1.1754 -0.0589  0.9543
   40MOL0     H 5516   0.263   1.699   5.983  0.7962  2.6019 -2.7059
   40MOL0     H 5517   1.126   1.982   6.170  1.0684  0.9259 -0.3246
   40MOL0     H 5518   1.471   1.933   6.124  0.6001  2.2351  4.2942
   40MOL0     H 5519   1.398   2.069   6.059  0.2374 -0.4035  0.3745
   40MOL0     H 5520   1.362   2.002   6.216 -0.5671  3.1878 -0.4486
   41MOL0     O 5521   0.707   5.138  10.687 -0.2548  0.2143  0.2156
   41MOL0     C 5522   0.732   5.018  10.675  0.3248 -0.2882 -0.0943
   41MOL0     O 5523   0.634   4.927  10.694  0.0297  0.0333 -0.3168
   41MOL0     C 5524   0.532   4.969  10.781 -1.1790  0.4528  0.7049
   41MOL0     C 5525   0.563   5.032  10.903  0.1053 -0.2570 -0.2461
   41MOL0     C 5526   0.464   5.091  10.978  1.7544 -0.2403 -0.0908
   41MOL0     C 5527   0.326   5.078  10.936  0.1884  0.5146  0.4625
   41MOL0     O 5528   0.216   5.120  11.009 -0.0326  0.1257  0.0507
   41MOL0     C 5529   0.245   5.238  11.089  0.7520 -0.0161 -0.3890
   41MOL0     C 5530   0.118   5.328  11.114 -0.4611  1.1180  0.6284
   41MOL0     C 5531   0.122   5.407  11.247  0.7012 -0.3516 -0.5172
   41MOL0     C 5532   0.084   5.324  11.368 -0.1027 -0.0413 -0.2610
   41MOL0     C 5533  -0.064   5.302  11.355  0.5144 -0.3113  0.7378
   41MOL0     C 5534  -0.129   5.233  11.466  0.0153 -0.4149 -0.5540
   41MOL0     C 5535  -0.277   5.230  11.452 -0.4297 -0.0994 -0.0931
   41MOL0     C 5536  -0.336   5.140  11.560  0.4673 -0.9172  0.3540
   41MOL0     N 5537  -0.480   5.124  11.540 -0.3501  0.3096  0.1984
   41MOL0     C 5538  -0.536   5.023  11.467 -0.6755  0.6134 -0.9304
   41MOL0     C 5539  -0.665   5.062  11.455 -0.9324 -1.2870 -0.9996
   41MOL0     C 5540  -0.765   4.980  11.389 -0.2682  0.2350  0.1028
   41MOL0     C 5541  -0.727   4.952  11.246 -0.7880 -0.4153 -0.3547
   41MOL0     C 5542  -0.832   4.888  11.156  0.0699 -0.4408  0.1519
   41MOL0     C 5543  -0.924   4.796  11.236 -0.8444  0.9828  0.4699
   41MOL0     O 5544  -1.008   4.731  11.138  0.0071  0.2072  0.5817
   41MOL0     C 5545  -1.137   4.706  11.175 -0.0675 -0.8258 -0.9426
   41MOL0     C 5546  -1.180   4.636  11.295  0.3161  0.0566  0.2432
   41MOL0     C 5547  -1.313   4.628  11.327  0.8727  0.4284  0.8635
   41MOL0     C 5548  -1.358   4.521  11.428 -0.2775 -0.1929  0.2039
   41MOL0     C 5549  -1.411   4.691  11.239 -0.1488  0.5878  0.5264
   41MOL0     C 5550  -1.559   4.691  11.271 -0.6110 -0.2778 -0.3768
   41MOL0     O 5551  -1.630   4.776  11.199 -0.7287 -0.9947 -0.3460
   41MOL0     C 5552  -1.771   4.773  11.221 -0.3637 -0.1609  0.1091
   41MOL0     C 5553  -1.851   4.695  11.133  0.1775 -0.0282  0.3361
   41MOL0     C 5554  -1.998   4.683  11.149  0.4854  0.1321 -0.4972
   41MOL0     C 5555  -2.055   4.759  11.254 -0.5465 -0.2015 -1.2741
   41MOL0     O 5556  -2.193   4.737  11.282 -0.3356  0.8057  0.5529
   41MOL0     C 5557  -2.239   4.762  11.423  1.4054 -0.0858 -1.0389
   41MOL0     C 5558  -2.225   4.631  11.503  0.1085  0.5177  0.4663
   41MOL0     C 5559  -2.203   4.640  11.655  0.0666  0.3237  0.1484
   41MOL0     C 5560  -2.304   4.723  11.745 -0.2641  0.1651  0.6081
   41MOL0     C 5561  -2.227   4.773  11.875  0.2723 -0.4332 -0.0168
   41MOL0     C 5562  -2.321   4.865  11.961  0.2927  0.1287  0.3319
   41MOL0     C 5563  -2.262   4.934  12.092 -0.5484 -0.0292 -0.1705
   41MOL0     C 5564  -2.197   4.828  12.186  0.1324  0.4902 -0.6419
   41MOL0    Cl 5565  -2.332   4.715  12.245 -0.2805 -0.1174  0.5417
   41MOL0     C 5566  -1.970   4.829  11.347 -0.1801 -0.7231 -0.0893
   41MOL0     C 5567  -1.833   4.834  11.324  0.2767 -0.5430  0.4457
   41MOL0     O 5568  -1.598   4.634  11.371 -0.0169  0.5700  0.2310
   41MOL0     C 5569  -1.364   4.760  11.124 -0.3699 -1.3081  0.4566
   41MOL0     C 5570  -1.234   4.762  11.089 -0.1963  0.6856  0.2076
   41MOL0     N 5571  -0.688   5.185  11.514 -0.2245 -0.3275 -0.0891
   41MOL0     N 5572  -0.567   5.223  11.564  0.6481  0.3691  0.6258
   41MOL0     C 5573   0.301   4.994  10.829 -0.2042  0.0421 -0.3676
   41MOL0     C 5574   0.403   4.947  10.745  0.1444  0.2578  0.6591
   41MOL0     C 5575   0.867   4.979  10.617  0.3537 -0.6147 -0.3941
   41MOL0     C 5576   0.871   4.865  10.545 -0.0591 -0.4390  0.3392
   41MOL0     C 5577   0.990   4.836  10.479  0.1653 -0.2409 -0.8520
   41MOL0     C 5578   1.105   4.892  10.511  0.6184 -1.1115  0.0207
   41MOL0     O 5579   1.224   4.845  10.460 -0.1046  0.1262  0.1002
   41MOL0     C 5580   1.327   4.840  10.555 -0.3856  0.1132  0.5152
   41MOL0     C 5581   1.421   4.728  10.509  0.3417  0.5432  0.5845
   41MOL0     C 5582   1.557   4.753  10.554  0.6474 -0.4233  0.0967
   41MOL0     C 5583   1.656   4.633  10.559 -0.7374  0.2945 -0.2390
   41MOL0     C 5584   1.782   4.690  10.555 -0.4719 -0.7185 -0.2510
   41MOL0     C 5585   1.895   4.732  10.546  0.3610 -0.3944 -0.3901
   41MOL0     C 5586   1.103   5.007  10.592 -0.3733  0.0071  0.1581
   41MOL0     C 5587   0.981   5.059  10.639 -0.0976  0.9149  0.0012
   41MOL0     C 5588   0.993   5.186  10.717 -0.7017  0.5722  0.6105
   41MOL0     H 5589   0.666   5.037  10.934 -0.0498  1.4127  0.1250
   41MOL0     H 5590   0.479   5.145  11.071 -0.5272 -2.0088  1.4473
   41MOL0     H 5591   0.320   5.310  11.056  1.0706  0.8593  2.0357
   41MOL0     H 5592   0.285   5.201  11.184  1.3295 -1.3524 -1.1256
   41MOL0     H 5593   0.113   5.409  11.040  1.5159  0.7618  0.0421
   41MOL0     H 5594   0.028   5.268  11.093 -0.2488  1.0183  0.0006
   41MOL0     H 5595   0.222   5.446  11.269  1.4321 -2.2115 -0.4092
   41MOL0     H 5596   0.050   5.489  11.242 -0.2488 -1.2044 -1.4116
   41MOL0     H 5597   0.133   5.226  11.375 -0.3349 -0.0415  2.6432
   41MOL0     H 5598   0.111   5.365  11.466  1.5272 -2.1656  0.2541
   41MOL0     H 5599  -0.080   5.242  11.265  1.9723  1.1361 -0.5416
   41MOL0     H 5600  -0.113   5.399  11.348 -4.0436 -2.2244  1.9013
   41MOL0     H 5601  -0.083   5.134  11.473 -0.7795 -0.7225  0.6266
   41MOL0     H 5602  -0.091   5.280  11.557  0.8390 -0.6313 -0.7782
   41MOL0     H 5603  -0.306   5.192  11.354  2.2021  3.9907 -2.7495
   41MOL0     H 5604  -0.315   5.332  11.460  0.9010  0.4397 -0.3799
   41MOL0     H 5605  -0.281   5.046  11.564  1.1612 -0.7359 -2.8168
   41MOL0     H 5606  -0.328   5.188  11.658 -0.4529  1.1224 -0.5093
   41MOL0     H 5607  -0.488   4.928  11.444  5.1848  2.4293  1.8391
   41MOL0     H 5608  -0.861   5.032  11.397  1.1623  3.2118 -0.6970
   41MOL0     H 5609  -0.772   4.887  11.447  2.1978  0.7428  1.3888
   41MOL0     H 5610  -0.691   5.039  11.190 -2.0646 -0.8625 -1.9558
   41MOL0     H 5611  -0.652   4.873  11.258 -1.3515 -0.9846 -0.5437
   41MOL0     H 5612  -0.890   4.969  11.109  1.3389  0.2744 -0.2255
   41MOL0     H 5613  -0.786   4.832  11.075 -1.8540 -0.4113 -1.0094
   41MOL0     H 5614  -0.861   4.722  11.286 -0.9815 -0.0358 -0.7809
   41MOL0     H 5615  -0.989   4.852  11.304 -1.0795  1.4730 -0.1431
   41MOL0     H 5616  -1.109   4.593  11.364 -0.0355 -0.3578  0.3503
   41MOL0     H 5617  -1.432   4.452  11.386  1.9767 -1.1613 -2.4693
   41MOL0     H 5618  -1.405   4.573  11.512 -0.1146 -0.5561  0.5230
   41MOL0     H 5619  -1.274   4.465  11.470  0.1915  1.2185  1.2077
   41MOL0     H 5620  -1.807   4.623  11.063 -2.8288 -2.5774  0.8241
   41MOL0     H 5621  -2.045   4.624  11.071  2.2700  0.1264 -1.6287
   41MOL0     H 5622  -2.189   4.844  11.474  2.8109 -1.9288  0.7232
   41MOL0     H 5623  -2.346   4.784  11.431  0.6583 -3.6470  1.3790
   41MOL0     H 5624  -2.309   4.563  11.487 -0.9233  1.9339 -0.2805
   41MOL0     H 5625  -2.135   4.589  11.457  1.0374  2.2461  0.6312
   41MOL0     H 5626  -2.108   4.693  11.664 -0.2612  0.9600 -0.1356
   41MOL0     H 5627  -2.176   4.541  11.694  1.1692  0.0499 -1.2400
   41MOL0     H 5628  -2.397   4.675  11.778  0.8005  0.0531  3.8235
   41MOL0     H 5629  -2.339   4.809  11.687  0.1968 -0.2548 -0.3134
   41MOL0     H 5630  -2.198   4.688  11.937 -0.2488 -0.9839 -0.5167
   41MOL0     H 5631  -2.131   4.821  11.854 -0.1618  0.4776  0.0140
   41MOL0     H 5632  -2.405   4.800  11.987  1.3364 -2.5622 -2.3445
   41MOL0     H 5633  -2.358   4.944  11.896 -0.5876 -1.4601 -1.1893
   41MOL0     H 5634  -2.338   5.002  12.131 -1.4577 -1.4971  0.7288
   41MOL0     H 5635  -2.184   5.001  12.056 -1.6061  1.1012 -0.4141
   41MOL0     H 5636  -2.154   4.881  12.271  0.5039 -1.6561  0.5936
   41MOL0     H 5637  -2.111   4.788  12.131 -0.1395 -0.4844 -0.3896
   41MOL0     H 5638  -1.993   4.859  11.449  0.5354 -0.5678  0.0308
   41MOL0     H 5639  -1.760   4.894  11.378 -1.0031  0.7849  0.7516
   41MOL0     H 5640  -1.424   4.824  11.059  1.0381  0.1974  0.5875
   41MOL0     H 5641  -1.203   4.826  11.006  2.5293 -0.2232  0.4288
   41MOL0     H 5642   0.198   4.960  10.817 -0.0225 -0.5235 -0.3783
   41MOL0     H 5643   0.384   4.891  10.653  2.5129 -0.9605  0.8275
   41MOL0     H 5644   0.789   4.797  10.522 -2.8220  3.1413 -1.4798
   41MOL0     H 5645   0.994   4.743  10.424 -0.1488 -0.0925 -1.1283
   41MOL0     H 5646   1.385   4.933  10.560  0.5005 -0.3382 -0.7954
   41MOL0     H 5647   1.287   4.819  10.654 -4.2931  2.4272 -0.3676
   41MOL0     H 5648   1.438   4.721  10.401 -0.0779 -0.9276  0.5806
   41MOL0     H 5649   1.375   4.631  10.530 -1.9871  1.2538 -0.8434
   41MOL0     H 5650   1.598   4.827  10.485 -1.5786  1.0662  0.2841
   41MOL0     H 5651   1.549   4.795  10.655  1.0760  0.1896 -0.1156
   41MOL0     H 5652   1.632   4.573  10.470  0.4938 -3.8417  1.9404
   41MOL0     H 5653   1.644   4.562  10.641 -0.4345 -0.6363 -0.9745
   41MOL0     H 5654   1.990   4.781  10.547  0.5777 -0.6184 -3.1266
   41MOL0     H 5655   1.201   5.052  10.600 -0.0873 -0.2634 -1.6031
   41MOL0     H 5656   0.938   5.190  10.811  0.3592 -1.6764  1.4043
   41MOL0     H 5657   1.096   5.216  10.737 -0.0877 -1.7711  1.3383
   41MOL0     H 5658   0.953   5.265  10.652  0.3030  1.1824  0.7225
   42MOL0     O 5659   2.582   5.200   2.412  0.5995  0.4362  0.2015
   42MOL0     C 5660   2.576   5.115   2.330 -0.6193 -0.2566  1.0406
   42MOL0     O 5661   2.540   5.132   2.202  0.2803 -0.3518 -0.0028
   42MOL0     C 5662   2.515   5.258   2.153 -0.0550 -0.2096 -0.0829
   42MOL0     C 5663   2.462   5.370   2.226 -0.4351  0.2304 -0.3386
   42MOL0     C 5664   2.459   5.501   2.169  0.0504  0.2604 -0.5182
   42MOL0     C 5665   2.506   5.516   2.037  0.1644  0.0304 -0.8426
   42MOL0     O 5666   2.527   5.641   1.982  0.4481  0.5481 -0.2624
   42MOL0     C 5667   2.454   5.750   2.040 -0.1585 -0.0648 -0.5062
   42MOL0     C 5668   2.494   5.873   1.962  0.1423  1.0434 -0.6602
   42MOL0     C 5669   2.436   5.996   2.014  0.1882 -0.3540  0.8751
   42MOL0     C 5670   2.467   6.108   1.912  0.0452 -0.0456 -0.8474
   42MOL0     C 5671   2.417   6.237   1.971  0.1098  0.1477  0.4878
   42MOL0     C 5672   2.476   6.355   1.891  0.6178 -0.0292 -0.1267
   42MOL0     C 5673   2.424   6.484   1.958 -0.5216 -0.9270 -0.0175
   42MOL0     C 5674   2.500   6.613   1.915  0.2036  0.2220 -0.5126
   42MOL0     N 5675   2.411   6.719   1.959  0.1894  0.2041 -0.3514
   42MOL0     C 5676   2.410   6.771   2.090 -0.1803  0.4996 -0.1868
   42MOL0     C 5677   2.315   6.876   2.088  0.1821  0.2939  0.4426
   42MOL0     C 5678   2.295   6.979   2.191 -0.5834 -0.8472 -1.1056
   42MOL0     C 5679   2.393   7.100   2.183 -0.8416 -0.0271 -0.4896
   42MOL0     C 5680   2.544   7.054   2.193  0.9295 -0.1574  0.2187
   42MOL0     C 5681   2.636   7.179   2.197 -0.1875  0.3029 -0.2053
   42MOL0     O 5682   2.773   7.148   2.181 -0.5077 -1.2417 -0.0159
   42MOL0     C 5683   2.867   7.238   2.134 -0.4102 -0.6863  0.0352
   42MOL0     C 5684   2.837   7.365   2.075  0.4745 -0.3412  0.0577
   42MOL0     C 5685   2.937   7.452   2.021 -0.6640 -0.6636  1.0408
   42MOL0     C 5686   2.912   7.594   1.970  0.1197  0.5508 -0.1562
   42MOL0     C 5687   3.076   7.409   2.033  0.5788  0.2125  0.1291
   42MOL0     C 5688   3.195   7.495   1.999  0.3027  0.1104 -0.3800
   42MOL0     O 5689   3.315   7.446   2.040 -0.2532 -0.2239  0.0722
   42MOL0     C 5690   3.427   7.526   2.026  0.5796 -0.6982  0.1083
   42MOL0     C 5691   3.479   7.608   2.126  0.3213  0.7899 -0.4919
   42MOL0     C 5692   3.592   7.691   2.106 -0.1151  0.5982 -0.2536
   42MOL0     C 5693   3.663   7.694   1.982  0.4479  0.1742 -0.7479
   42MOL0     O 5694   3.785   7.752   1.974 -0.3323 -0.2893  0.2950
   42MOL0     C 5695   3.890   7.665   1.950  0.3608  0.0300  1.1396
   42MOL0     C 5696   3.992   7.688   2.065  1.1149  1.0220  0.4006
   42MOL0     C 5697   4.039   7.831   2.092  0.1800 -0.0727  0.2613
   42MOL0     C 5698   4.143   7.838   2.214 -0.2805 -0.2120  0.7825
   42MOL0     C 5699   4.163   7.982   2.271 -0.8932  0.3684  0.4715
   42MOL0     C 5700   4.167   8.093   2.166  0.6124 -0.3283  0.7387
   42MOL0     C 5701   4.208   8.230   2.234  0.0328  0.3058  0.0452
   42MOL0     C 5702   4.184   8.345   2.141 -0.4172 -0.3302 -0.2084
   42MOL0    Cl 5703   4.201   8.504   2.221 -0.0603  0.2486 -0.1845
   42MOL0     C 5704   3.612   7.610   1.882  0.2142  0.1116 -0.3151
   42MOL0     C 5705   3.498   7.527   1.905 -0.3975 -0.4353  0.3871
   42MOL0     O 5706   3.183   7.600   1.932 -0.7151  1.2511 -0.5184
   42MOL0     C 5707   3.098   7.277   2.061  0.0710 -0.0388  0.8091
   42MOL0     C 5708   3.000   7.190   2.105  0.2655  0.7399  0.4678
   42MOL0     N 5709   2.261   6.868   1.960 -0.4879  0.6626 -0.0389
   42MOL0     N 5710   2.330   6.795   1.877 -0.3224  0.4280 -0.6795
   42MOL0     C 5711   2.539   5.408   1.968 -0.7324  1.0683  1.0239
   42MOL0     C 5712   2.551   5.276   2.024  0.3723 -0.7551  0.1656
   42MOL0     C 5713   2.586   4.978   2.383  0.3752  0.1231  1.0311
   42MOL0     C 5714   2.619   4.951   2.512 -0.5405 -1.0287  0.5788
   42MOL0     C 5715   2.617   4.826   2.576  0.2261  0.0435 -0.2601
   42MOL0     C 5716   2.588   4.713   2.497  0.1524  0.0394  0.0216
   42MOL0     O 5717   2.586   4.583   2.547 -0.6164 -0.1003 -0.8361
   42MOL0     C 5718   2.589   4.558   2.687  0.8609  0.4509  0.2529
   42MOL0     C 5719   2.445   4.581   2.755  1.1634  0.3555 -0.4789
   42MOL0     C 5720   2.327   4.514   2.692  0.5389 -0.5204 -0.4558
   42MOL0     C 5721   2.191   4.570   2.760 -0.3540  0.3840 -0.7160
   42MOL0     C 5722   2.157   4.524   2.896 -0.2273 -0.2064 -0.2806
   42MOL0     C 5723   2.103   4.474   2.995  0.2521  0.3477  0.0749
   42MOL0     C 5724   2.562   4.737   2.362 -0.4210 -0.2703 -0.3130
   42MOL0     C 5725   2.546   4.866   2.306 -0.5187  0.3767 -0.7677
   42MOL0     C 5726   2.494   4.868   2.164 -0.4227 -0.3132 -0.4782
   42MOL0     H 5727   2.424   5.348   2.325 -2.4110 -1.8969 -1.4944
   42MOL0     H 5728   2.416   5.577   2.234 -0.1466  0.0897 -0.4453
   42MOL0     H 5729   2.471   5.775   2.145  0.9557  1.6530 -1.0461
   42MOL0     H 5730   2.347   5.733   2.027 -0.6393  2.4275 -0.3669
   42MOL0     H 5731   2.602   5.884   1.967  0.1787  0.5529 -0.2800
   42MOL0     H 5732   2.455   5.855   1.861 -2.6723 -1.1130  0.6533
   42MOL0     H 5733   2.327   5.997   2.019 -0.0641  0.8621 -2.4627
   42MOL0     H 5734   2.484   6.023   2.108  0.4443 -0.7758  0.8674
   42MOL0     H 5735   2.576   6.115   1.904  0.2594 -0.6558  1.1566
   42MOL0     H 5736   2.406   6.092   1.822 -2.1479  5.0817 -0.5946
   42MOL0     H 5737   2.451   6.245   2.074  0.6839 -0.8753  0.3954
   42MOL0     H 5738   2.308   6.229   1.967  0.1489  0.0444 -1.2014
   42MOL0     H 5739   2.584   6.343   1.879  0.4297 -0.1576 -1.9904
   42MOL0     H 5740   2.432   6.339   1.792 -0.7306 -2.4868  0.7760
   42MOL0     H 5741   2.432   6.481   2.068 -1.8014 -2.6304  0.0702
   42MOL0     H 5742   2.319   6.502   1.934  0.3983  3.0572 -1.7988
   42MOL0     H 5743   2.596   6.599   1.965 -0.5780 -0.4784  0.8662
   42MOL0     H 5744   2.512   6.611   1.806  4.0654  1.0348 -0.2253
   42MOL0     H 5745   2.467   6.718   2.166  0.5903 -0.6903 -1.5361
   42MOL0     H 5746   2.300   6.941   2.293  0.7669 -0.0727 -0.8690
   42MOL0     H 5747   2.194   7.021   2.178 -0.0015  0.8363 -0.4431
   42MOL0     H 5748   2.372   7.154   2.090 -0.3366 -1.1352 -1.2607
   42MOL0     H 5749   2.388   7.165   2.270  1.8841 -1.5819  0.9629
   42MOL0     H 5750   2.558   6.980   2.271  2.1383 -0.4020 -0.2168
   42MOL0     H 5751   2.559   7.001   2.098 -3.9671  3.4932 -3.1651
   42MOL0     H 5752   2.603   7.240   2.112  1.0825  0.4013 -0.6418
   42MOL0     H 5753   2.618   7.244   2.284 -1.2468 -3.8699  3.0358
   42MOL0     H 5754   2.741   7.415   2.079  0.2838 -0.4669 -1.9548
   42MOL0     H 5755   2.962   7.672   2.028  0.6126 -0.2595  0.5360
   42MOL0     H 5756   2.809   7.627   1.984 -0.4724 -0.2628 -2.2741
   42MOL0     H 5757   2.940   7.599   1.864  0.6462 -1.3670 -0.1482
   42MOL0     H 5758   3.427   7.599   2.221 -0.3338  0.7667 -0.8479
   42MOL0     H 5759   3.612   7.759   2.188 -2.0106  2.0966 -0.9553
   42MOL0     H 5760   3.865   7.559   1.956  0.0666  0.0182 -0.1418
   42MOL0     H 5761   3.931   7.688   1.851 -1.5613  0.2331  0.3479
   42MOL0     H 5762   3.941   7.650   2.154 -0.7408 -0.4413 -1.1868
   42MOL0     H 5763   4.070   7.613   2.052  0.4139  0.1517  1.1201
   42MOL0     H 5764   3.948   7.871   2.136  0.1590  1.1414 -0.8244
   42MOL0     H 5765   4.074   7.874   1.997  1.6780 -1.4516  0.1489
   42MOL0     H 5766   4.241   7.812   2.174 -0.3956  1.3329 -0.6132
   42MOL0     H 5767   4.127   7.765   2.294  0.3052 -0.3277  0.7970
   42MOL0     H 5768   4.089   8.003   2.349  0.2407 -0.1980  1.7288
   42MOL0     H 5769   4.259   7.972   2.322 -0.3979  3.4244  0.3438
   42MOL0     H 5770   4.065   8.093   2.127  1.0625 -0.8360 -0.4747
   42MOL0     H 5771   4.238   8.079   2.084  0.5012 -2.4863  0.9599
   42MOL0     H 5772   4.315   8.222   2.252  0.0236 -1.8795 -0.5882
   42MOL0     H 5773   4.162   8.260   2.329  1.7117  2.5001  0.2338
   42MOL0     H 5774   4.086   8.336   2.094 -0.4117 -0.5410 -0.1794
   42MOL0     H 5775   4.260   8.341   2.062  1.0916 -1.6695  1.2452
   42MOL0     H 5776   3.663   7.620   1.787 -2.3772  0.0187 -1.8008
   42MOL0     H 5777   3.467   7.459   1.825 -2.5527 -1.8619  2.3284
   42MOL0     H 5778   3.200   7.241   2.046  0.5796  0.8032  2.1493
   42MOL0     H 5779   3.034   7.092   2.137 -0.7235  0.2805  0.1376
   42MOL0     H 5780   2.586   5.410   1.870 -2.8058 -1.9905 -0.2247
   42MOL0     H 5781   2.595   5.199   1.962 -2.2588 -1.1089 -1.3938
   42MOL0     H 5782   2.641   5.044   2.564 -0.1029  1.3399 -3.4535
   42MOL0     H 5783   2.635   4.814   2.683  1.3594  1.9946 -0.1730
   42MOL0     H 5784   2.616   4.452   2.696 -1.1553 -0.4467 -2.6968
   42MOL0     H 5785   2.654   4.620   2.749  0.0055  0.9863  0.6304
   42MOL0     H 5786   2.429   4.690   2.752 -2.9123 -0.0665  0.1874
   42MOL0     H 5787   2.438   4.559   2.862  2.3126  2.7976  0.1759
   42MOL0     H 5788   2.318   4.549   2.589 -1.4792 -0.4308 -0.2765
   42MOL0     H 5789   2.332   4.404   2.695 -3.0598 -0.7822  0.7561
   42MOL0     H 5790   2.101   4.532   2.712  0.4177 -1.4278 -0.8172
   42MOL0     H 5791   2.189   4.679   2.760 -2.8305  0.4225  1.2875
   42MOL0     H 5792   2.062   4.414   3.074 -2.2277  2.4448  0.5545
   42MOL0     H 5793   2.557   4.655   2.290  0.5963 -0.3847 -0.2673
   42MOL0     H 5794   2.403   4.929   2.162 -1.3008 -1.5719 -0.3079
   42MOL0     H 5795   2.580   4.898   2.104 -1.3366  2.9836 -0.2854
   42MOL0     H 5796   2.455   4.773   2.124 -1.9794  1.3835 -3.3123
   43MOL0     O 5797   3.104   6.544   4.954 -0.0548 -0.7420 -0.1464
   43MOL0     C 5798   3.184   6.633   4.946 -0.1669  0.0779  0.8957
   43MOL0     O 5799   3.196   6.747   5.030  0.3319  1.2897  1.0855
   43MOL0     C 5800   3.118   6.750   5.145 -0.4613 -0.6830 -0.7809
   43MOL0     C 5801   3.081   6.639   5.221  0.2782 -0.2204 -1.1831
   43MOL0     C 5802   3.016   6.664   5.352 -0.1452 -0.4540  0.6928
   43MOL0     C 5803   2.980   6.788   5.385  0.0097  0.4742 -0.4886
   43MOL0     O 5804   2.916   6.808   5.506  0.2553 -0.8053 -0.1766
   43MOL0     C 5805   2.797   6.895   5.507  0.0532  0.0989  0.2144
   43MOL0     C 5806   2.713   6.855   5.628 -0.3627 -0.3942  0.7211
   43MOL0     C 5807   2.659   6.717   5.600 -0.1616 -0.7562 -0.6479
   43MOL0     C 5808   2.540   6.694   5.694 -0.4262 -1.1521  0.3707
   43MOL0     C 5809   2.568   6.648   5.842 -0.6849  0.0635  0.6255
   43MOL0     C 5810   2.433   6.608   5.907  0.6751  0.4299 -0.0830
   43MOL0     C 5811   2.421   6.654   6.052 -0.3021  0.3619  0.6827
   43MOL0     C 5812   2.399   6.810   6.076  0.9680 -0.9539  0.7765
   43MOL0     N 5813   2.362   6.823   6.214 -0.1905 -0.7738 -0.3559
   43MOL0     C 5814   2.442   6.798   6.322 -0.1475  0.0852  0.3802
   43MOL0     C 5815   2.372   6.820   6.434  0.4590 -0.7025  0.5780
   43MOL0     C 5816   2.430   6.821   6.576 -0.4930  0.3859 -0.8689
   43MOL0     C 5817   2.351   6.736   6.672 -0.6171 -0.3092  0.4432
   43MOL0     C 5818   2.345   6.580   6.652  0.2224  0.6793 -0.0171
   43MOL0     C 5819   2.256   6.519   6.761 -0.6557 -0.9475 -0.2491
   43MOL0     O 5820   2.247   6.373   6.733 -0.0417 -0.2936  0.4972
   43MOL0     C 5821   2.222   6.299   6.849  0.1692 -0.1171 -0.2663
   43MOL0     C 5822   2.309   6.200   6.886 -0.4988 -0.5296 -0.2466
   43MOL0     C 5823   2.288   6.110   6.994  0.1662 -0.8263  1.4827
   43MOL0     C 5824   2.407   6.015   7.014 -0.0747 -0.9210  0.7068
   43MOL0     C 5825   2.176   6.128   7.077  1.0041  0.0329 -0.9459
   43MOL0     C 5826   2.144   6.055   7.198 -0.9397  0.0931  0.1149
   43MOL0     O 5827   2.038   6.094   7.265  0.3485  0.4558 -0.3756
   43MOL0     C 5828   2.020   6.047   7.398 -0.4985 -0.2427  0.5089
   43MOL0     C 5829   1.985   6.136   7.498 -0.2147  0.4332 -0.1811
   43MOL0     C 5830   1.967   6.095   7.629 -0.0807 -0.5194  0.4509
   43MOL0     C 5831   1.972   5.953   7.657  0.1085  0.0696  0.2238
   43MOL0     O 5832   1.938   5.923   7.793  0.2177  0.9587 -0.4978
   43MOL0     C 5833   1.993   5.797   7.842 -0.8712 -0.1605  0.6647
   43MOL0     C 5834   2.007   5.777   7.995  0.0102  0.8617  0.0580
   43MOL0     C 5835   2.094   5.888   8.048 -0.9182 -0.0955 -0.0799
   43MOL0     C 5836   2.136   5.871   8.186 -0.2583  0.0507 -0.2258
   43MOL0     C 5837   2.274   5.933   8.211  0.4396 -1.1417  0.0112
   43MOL0     C 5838   2.401   5.857   8.163  0.4132 -0.3042  0.1208
   43MOL0     C 5839   2.516   5.879   8.265 -0.7568 -0.1183 -0.0761
   43MOL0     C 5840   2.638   5.799   8.217 -0.2673 -0.2058  0.0208
   43MOL0    Cl 5841   2.780   5.859   8.315 -0.1218  0.1729 -0.0260
   43MOL0     C 5842   1.996   5.859   7.557  0.3808 -0.5150  0.1148
   43MOL0     C 5843   2.006   5.905   7.426  0.1069 -0.2999 -0.4176
   43MOL0     O 5844   2.226   5.969   7.224  0.4851 -0.5952 -0.2655
   43MOL0     C 5845   2.086   6.232   7.034  0.3657  0.6750 -1.1357
   43MOL0     C 5846   2.102   6.308   6.923 -0.3960  0.4941  0.5215
   43MOL0     N 5847   2.247   6.849   6.393  0.3297  0.6171 -0.3177
   43MOL0     N 5848   2.238   6.844   6.261  0.8524 -0.1970  0.0224
   43MOL0     C 5849   3.012   6.902   5.303  0.2609 -0.3212  0.1356
   43MOL0     C 5850   3.086   6.879   5.195 -0.3479 -0.5186  0.2722
   43MOL0     C 5851   3.284   6.638   4.835 -1.0844 -0.2033  0.8210
   43MOL0     C 5852   3.388   6.738   4.839 -0.2627  0.2003  0.0395
   43MOL0     C 5853   3.492   6.734   4.753 -0.8046 -0.1758  0.1876
   43MOL0     C 5854   3.492   6.651   4.643 -0.3384 -0.0404 -0.8535
   43MOL0     O 5855   3.596   6.657   4.561  0.0322 -0.1575 -0.0616
   43MOL0     C 5856   3.669   6.533   4.540 -0.0665  0.3245 -0.2281
   43MOL0     C 5857   3.730   6.459   4.661 -0.9495  0.2855  0.2295
   43MOL0     C 5858   3.868   6.505   4.703 -0.0571 -0.7503  0.8256
   43MOL0     C 5859   3.977   6.486   4.592  0.2827  0.5152 -0.1046
   43MOL0     C 5860   4.100   6.532   4.651 -0.7183 -0.2183 -0.3747
   43MOL0     C 5861   4.206   6.552   4.693 -0.1987  0.7351  0.0927
   43MOL0     C 5862   3.387   6.561   4.623  0.2069 -0.2788 -0.0962
   43MOL0     C 5863   3.283   6.553   4.716  0.0620  0.0812 -1.2252
   43MOL0     C 5864   3.171   6.468   4.677  0.6790 -0.2588 -0.5954
   43MOL0     H 5865   3.120   6.543   5.189 -1.6686 -0.7612 -2.0949
   43MOL0     H 5866   3.000   6.584   5.424  1.1388 -2.2484 -0.8804
   43MOL0     H 5867   2.739   6.870   5.418 -1.8993 -0.3850  1.5573
   43MOL0     H 5868   2.825   7.001   5.517  2.0797 -0.5929  2.8396
   43MOL0     H 5869   2.775   6.843   5.717  0.5472  2.0676  0.5181
   43MOL0     H 5870   2.636   6.930   5.649  0.6195  0.3201  1.9799
   43MOL0     H 5871   2.619   6.719   5.498 -1.2173  1.2518 -0.2538
   43MOL0     H 5872   2.735   6.639   5.609  1.9588  1.2926  0.2657
   43MOL0     H 5873   2.484   6.788   5.698 -0.1282 -0.7570 -2.5212
   43MOL0     H 5874   2.478   6.622   5.639 -1.9851  0.2345  0.2442
   43MOL0     H 5875   2.627   6.713   5.907 -1.1891 -2.1206  3.4459
   43MOL0     H 5876   2.634   6.561   5.838 -1.5374 -0.5676 -0.1773
   43MOL0     H 5877   2.346   6.646   5.852  2.2537  2.1906 -1.5110
   43MOL0     H 5878   2.419   6.500   5.901  0.6218  0.3927  0.6326
   43MOL0     H 5879   2.517   6.628   6.097  0.4973  0.9015 -0.6226
   43MOL0     H 5880   2.340   6.599   6.100  2.0102 -1.9695  2.1551
   43MOL0     H 5881   2.487   6.871   6.053  0.0937 -0.3175 -1.0866
   43MOL0     H 5882   2.321   6.835   6.003  3.2873  0.1944 -1.4926
   43MOL0     H 5883   2.547   6.769   6.318 -0.5008 -1.2792  0.5191
   43MOL0     H 5884   2.432   6.923   6.615  4.5690 -0.7362  2.9000
   43MOL0     H 5885   2.534   6.789   6.567 -1.3268 -1.8598 -4.1032
   43MOL0     H 5886   2.375   6.753   6.778 -0.0058  1.2276  0.0769
   43MOL0     H 5887   2.246   6.767   6.672 -0.3176  0.7280 -0.2244
   43MOL0     H 5888   2.289   6.566   6.558 -0.4932  0.3884  0.4386
   43MOL0     H 5889   2.439   6.525   6.661  1.9618  3.7753  2.4145
   43MOL0     H 5890   2.309   6.529   6.856  0.0004 -0.9793 -0.6037
   43MOL0     H 5891   2.166   6.581   6.767  0.7248  1.1213  0.1419
   43MOL0     H 5892   2.403   6.188   6.834  0.6956  0.6279  1.5580
   43MOL0     H 5893   2.457   6.005   6.917 -2.8180  0.9204 -1.0323
   43MOL0     H 5894   2.369   5.915   7.037  0.8473 -1.6413 -0.7062
   43MOL0     H 5895   2.467   6.054   7.097  2.3783  0.1971 -1.4495
   43MOL0     H 5896   1.975   6.239   7.467  1.3766  0.3441 -1.0776
   43MOL0     H 5897   1.923   6.171   7.693 -1.0291  2.3247 -3.2286
   43MOL0     H 5898   1.927   5.715   7.810  0.9207 -1.0322 -0.9940
   43MOL0     H 5899   2.087   5.780   7.789 -0.7589  1.1682  0.4156
   43MOL0     H 5900   1.907   5.788   8.039 -0.8095  0.5885 -1.6887
   43MOL0     H 5901   2.043   5.676   8.015  1.6310  1.8349  2.4830
   43MOL0     H 5902   2.032   5.979   8.043 -1.5155 -0.3779  1.6163
   43MOL0     H 5903   2.183   5.906   7.986 -2.7737  1.4987 -2.4712
   43MOL0     H 5904   2.136   5.764   8.210 -0.7467 -0.9045 -3.9233
   43MOL0     H 5905   2.064   5.919   8.253  1.2086  0.9954  0.7166
   43MOL0     H 5906   2.295   6.039   8.194  2.5092 -0.9633  2.9716
   43MOL0     H 5907   2.272   5.935   8.320 -1.9063 -2.6187  0.0639
   43MOL0     H 5908   2.438   5.895   8.068 -0.9455 -1.7595 -1.0497
   43MOL0     H 5909   2.385   5.749   8.155 -1.1984 -0.3865  3.0249
   43MOL0     H 5910   2.499   5.834   8.363  0.8851 -1.1391 -0.2133
   43MOL0     H 5911   2.545   5.984   8.273  1.8927 -0.8169  0.3502
   43MOL0     H 5912   2.649   5.812   8.109  0.7623 -0.8178  0.0401
   43MOL0     H 5913   2.618   5.692   8.227 -0.2391 -0.1243  1.1354
   43MOL0     H 5914   1.998   5.753   7.579  0.0019 -0.2025  1.8840
   43MOL0     H 5915   2.001   5.832   7.345  0.2560  2.0686 -2.7059
   43MOL0     H 5916   1.993   6.246   7.087  2.4291 -1.2588  3.5095
   43MOL0     H 5917   2.019   6.372   6.896 -1.9210 -1.1924  0.9708
   43MOL0     H 5918   2.976   7.002   5.323 -2.1874 -1.3163  1.1683
   43MOL0     H 5919   3.111   6.963   5.131  0.3455  0.1588  1.3865
   43MOL0     H 5920   3.377   6.817   4.912  0.9502  0.1618  0.2719
   43MOL0     H 5921   3.583   6.791   4.768  0.7696 -2.8380  1.5498
   43MOL0     H 5922   3.609   6.459   4.487 -0.0831 -0.7309  1.2017
   43MOL0     H 5923   3.752   6.563   4.476  1.0488  0.7176  1.3246
   43MOL0     H 5924   3.742   6.353   4.638  0.9481 -0.3054  3.3310
   43MOL0     H 5925   3.666   6.472   4.749 -2.1869 -2.3013 -0.2103
   43MOL0     H 5926   3.872   6.614   4.716  0.2134 -0.3873 -1.8359
   43MOL0     H 5927   3.898   6.462   4.799 -0.0811  2.4081  2.3774
   43MOL0     H 5928   3.974   6.543   4.499 -2.3882  1.3154  0.3862
   43MOL0     H 5929   3.980   6.381   4.562  1.2063 -0.0789  1.9214
   43MOL0     H 5930   4.307   6.571   4.724  1.0318 -1.0828 -2.4045
   43MOL0     H 5931   3.369   6.505   4.532 -1.2881 -0.7444  0.4467
   43MOL0     H 5932   3.084   6.527   4.707  1.9163  1.4746 -0.3059
   43MOL0     H 5933   3.175   6.450   4.569  2.2349  1.3947 -0.8405
   43MOL0     H 5934   3.175   6.377   4.738  0.5365  0.9175  1.2665
   44MOL0     O 5935   7.547   1.335   3.244  0.0217  0.7272  0.6279
   44MOL0     C 5936   7.662   1.301   3.217 -0.2496 -0.8765 -0.7331
   44MOL0     O 5937   7.749   1.370   3.135 -0.7242  0.3088 -0.0384
   44MOL0     C 5938   7.706   1.491   3.093  1.0420  0.6407  0.4861
   44MOL0     C 5939   7.760   1.611   3.130  0.0810  0.1154 -0.1648
   44MOL0     C 5940   7.718   1.739   3.083  0.0246 -0.1361  0.5028
   44MOL0     C 5941   7.615   1.742   2.989 -0.3739  0.0951  0.3963
   44MOL0     O 5942   7.575   1.863   2.929  0.7612 -0.2632 -0.4926
   44MOL0     C 5943   7.637   1.981   2.980 -0.0753 -1.1706  0.0369
   44MOL0     C 5944   7.596   2.100   2.898  0.0148 -0.9806  0.8918
   44MOL0     C 5945   7.678   2.218   2.934 -0.1548 -0.5996  0.1508
   44MOL0     C 5946   7.646   2.327   2.836 -0.3760 -1.0419  0.3404
   44MOL0     C 5947   7.721   2.294   2.701 -0.0469 -0.1808 -0.2704
   44MOL0     C 5948   7.749   2.425   2.633  0.2422 -0.4749 -0.3157
   44MOL0     C 5949   7.869   2.413   2.537 -0.3336 -0.5253  0.7363
   44MOL0     C 5950   8.001   2.410   2.605  1.5041 -0.9920 -0.9680
   44MOL0     N 5951   8.114   2.410   2.512 -0.8567 -0.0559 -0.9140
   44MOL0     C 5952   8.175   2.309   2.443 -0.5501 -0.4735 -0.3801
   44MOL0     C 5953   8.277   2.361   2.375  0.5454 -1.0049 -0.3256
   44MOL0     C 5954   8.383   2.293   2.301  0.0370  0.6342 -0.0082
   44MOL0     C 5955   8.526   2.338   2.342  0.8798 -0.7550  0.6610
   44MOL0     C 5956   8.571   2.302   2.489  0.2747 -0.0440  0.7378
   44MOL0     C 5957   8.579   2.148   2.509 -0.6360  0.1003  0.0657
   44MOL0     O 5958   8.457   2.074   2.503  0.0509 -0.4972  0.5629
   44MOL0     C 5959   8.464   1.942   2.522 -1.0939 -0.3295 -0.5975
   44MOL0     C 5960   8.418   1.846   2.433 -0.1196  0.7016  0.4961
   44MOL0     C 5961   8.419   1.713   2.460 -1.0161  0.0049  0.1345
   44MOL0     C 5962   8.372   1.611   2.361 -0.1247  0.5294  0.1763
   44MOL0     C 5963   8.475   1.668   2.589 -0.0071 -0.9089  0.4228
   44MOL0     C 5964   8.514   1.530   2.630  0.6481  0.4183  0.1910
   44MOL0     O 5965   8.620   1.516   2.707 -0.1314 -0.3317 -0.3059
   44MOL0     C 5966   8.648   1.391   2.741  0.7434  0.2174 -0.5802
   44MOL0     C 5967   8.722   1.319   2.645 -0.5104  0.3577  1.0198
   44MOL0     C 5968   8.760   1.185   2.657 -0.3224 -0.3597  0.7360
   44MOL0     C 5969   8.721   1.120   2.771 -0.4741  0.0493 -0.4154
   44MOL0     O 5970   8.747   0.984   2.785 -0.7100  0.4656  0.7644
   44MOL0     C 5971   8.842   0.914   2.703 -0.1559 -0.1719 -0.0899
   44MOL0     C 5972   8.765   0.841   2.583  0.4235  0.2777  0.4599
   44MOL0     C 5973   8.859   0.753   2.493  0.3658 -0.1513  0.0105
   44MOL0     C 5974   9.008   0.801   2.483  0.0265 -0.4806 -0.5025
   44MOL0     C 5975   9.079   0.752   2.353  1.1962 -0.4165 -0.4823
   44MOL0     C 5976   9.112   0.603   2.375  1.3434  0.8571  1.8416
   44MOL0     C 5977   9.184   0.546   2.242 -0.2262 -0.2319 -0.3742
   44MOL0     C 5978   9.338   0.533   2.269  0.5535 -0.6967 -0.0692
   44MOL0    Cl 5979   9.414   0.463   2.126 -0.1195 -0.4573  0.3087
   44MOL0     C 5980   8.657   1.189   2.875 -0.3707  0.0656  0.4946
   44MOL0     C 5981   8.616   1.326   2.860 -0.0823 -0.7056  0.0538
   44MOL0     O 5982   8.424   1.450   2.608  0.2095  0.4121 -0.1005
   44MOL0     C 5983   8.529   1.767   2.680  0.8542 -1.2810 -0.0592
   44MOL0     C 5984   8.525   1.901   2.647  0.6253 -0.7881  0.6661
   44MOL0     N 5985   8.275   2.500   2.398  0.0984 -0.5193 -0.7867
   44MOL0     N 5986   8.188   2.523   2.486 -0.2575  0.5839  0.4418
   44MOL0     C 5987   7.576   1.622   2.933  0.2693 -0.0398 -0.1797
   44MOL0     C 5988   7.606   1.505   3.002  0.2692 -0.9679 -0.0417
   44MOL0     C 5989   7.714   1.177   3.280  0.0420  0.2030  0.2287
   44MOL0     C 5990   7.852   1.162   3.307 -0.1993 -0.0273  0.0018
   44MOL0     C 5991   7.895   1.051   3.379  0.2198 -0.0117 -0.6509
   44MOL0     C 5992   7.810   0.950   3.426  0.2988 -0.4451  0.0901
   44MOL0     O 5993   7.849   0.836   3.493 -0.6384  0.6672 -0.2541
   44MOL0     C 5994   7.958   0.832   3.587 -0.2843 -0.6154 -0.4114
   44MOL0     C 5995   8.001   0.688   3.606  0.6159  0.5086 -0.5105
   44MOL0     C 5996   8.056   0.623   3.473  0.3988 -0.0646  0.2192
   44MOL0     C 5997   8.120   0.493   3.501 -0.2459 -0.6954 -0.2893
   44MOL0     C 5998   8.191   0.439   3.384 -0.7871 -0.2798  0.6778
   44MOL0     C 5999   8.245   0.416   3.275 -0.7497 -0.5983 -0.1294
   44MOL0     C 6000   7.677   0.967   3.398 -0.1663  0.4705 -0.0478
   44MOL0     C 6001   7.625   1.076   3.325 -0.1594  0.6419 -0.0319
   44MOL0     C 6002   7.486   1.057   3.257  1.5565 -0.1225 -0.2345
   44MOL0     H 6003   7.844   1.612   3.199  0.4733  0.7764 -0.6350
   44MOL0     H 6004   7.785   1.821   3.105  0.8486  1.2314 -5.3783
   44MOL0     H 6005   7.746   1.976   2.984  0.2298  0.3042 -3.2327
   44MOL0     H 6006   7.593   1.999   3.079 -2.7207  0.1027 -1.2615
   44MOL0     H 6007   7.610   2.078   2.792  1.8981  3.9063 -0.1157
   44MOL0     H 6008   7.494   2.121   2.932 -0.2103 -1.2624  0.3942
   44MOL0     H 6009   7.639   2.247   3.032 -0.8161 -3.7453  0.9159
   44MOL0     H 6010   7.787   2.214   2.936 -0.0727  1.0259  1.3009
   44MOL0     H 6011   7.537   2.328   2.825 -0.4330 -5.7082 -2.2350
   44MOL0     H 6012   7.682   2.423   2.875 -2.4806  0.4805 -1.1880
   44MOL0     H 6013   7.656   2.225   2.647 -1.9982 -0.1009  1.8091
   44MOL0     H 6014   7.816   2.243   2.719  0.3347  0.3474 -0.7399
   44MOL0     H 6015   7.660   2.426   2.570 -2.1267 -0.1341  2.8030
   44MOL0     H 6016   7.734   2.519   2.686 -2.2044 -2.1161  2.1407
   44MOL0     H 6017   7.865   2.501   2.472 -1.8913 -0.9251  0.2640
   44MOL0     H 6018   7.848   2.319   2.484 -4.3631 -1.4760  3.5380
   44MOL0     H 6019   8.000   2.503   2.663  4.7256 -2.1706  1.2749
   44MOL0     H 6020   8.003   2.324   2.673 -0.7160 -1.1807 -1.0915
   44MOL0     H 6021   8.149   2.203   2.448 -0.2932 -0.4894  1.3517
   44MOL0     H 6022   8.371   2.308   2.193  2.3087  0.6976 -0.3102
   44MOL0     H 6023   8.375   2.184   2.309  1.2120  0.2729 -2.6283
   44MOL0     H 6024   8.594   2.300   2.266 -0.9112  2.1050 -2.6482
   44MOL0     H 6025   8.522   2.448   2.341 -3.6491 -0.7623 -0.1292
   44MOL0     H 6026   8.672   2.337   2.509  0.3392 -0.1860  0.6627
   44MOL0     H 6027   8.502   2.348   2.561 -0.8002  0.5809 -0.6536
   44MOL0     H 6028   8.647   2.108   2.433  0.4936  0.5155  0.8343
   44MOL0     H 6029   8.622   2.131   2.608 -1.9579 -0.0389  0.6412
   44MOL0     H 6030   8.385   1.869   2.332 -1.5383 -3.2035 -0.1069
   44MOL0     H 6031   8.422   1.515   2.379 -1.3283 -0.5625 -1.9153
   44MOL0     H 6032   8.387   1.648   2.259  0.8298  0.1685  0.1700
   44MOL0     H 6033   8.266   1.585   2.372  0.2186 -0.4163  1.5725
   44MOL0     H 6034   8.746   1.379   2.558 -0.5097  1.0467  1.4865
   44MOL0     H 6035   8.812   1.145   2.570 -2.4451  0.5215 -1.0352
   44MOL0     H 6036   8.924   0.974   2.662  0.6051 -1.6378 -0.7915
   44MOL0     H 6037   8.895   0.842   2.767  1.3817  0.0630 -1.0303
   44MOL0     H 6038   8.691   0.776   2.630  0.4001  1.9266  2.8669
   44MOL0     H 6039   8.710   0.909   2.517 -4.7272 -0.1516  3.7388
   44MOL0     H 6040   8.816   0.728   2.395 -1.4945 -0.3086  0.8133
   44MOL0     H 6041   8.862   0.659   2.550  1.1321 -0.3477 -0.3430
   44MOL0     H 6042   9.070   0.778   2.569  1.4422 -0.4524 -1.4836
   44MOL0     H 6043   9.013   0.910   2.471 -0.0873 -0.5945 -1.8130
   44MOL0     H 6044   9.002   0.760   2.276 -0.3733  0.9179  1.1413
   44MOL0     H 6045   9.169   0.810   2.330 -0.7059  3.2456  0.4273
   44MOL0     H 6046   9.021   0.545   2.391  1.0500  1.3655  2.0253
   44MOL0     H 6047   9.177   0.578   2.460  1.0650 -1.5976  1.4197
   44MOL0     H 6048   9.172   0.610   2.155  3.8639  1.4713  0.0683
   44MOL0     H 6049   9.145   0.449   2.211  0.5187 -0.8274  0.4884
   44MOL0     H 6050   9.354   0.461   2.349  0.2472  2.9602  3.6769
   44MOL0     H 6051   9.383   0.631   2.290  0.2568 -0.0541 -2.2372
   44MOL0     H 6052   8.638   1.128   2.963  0.5372 -1.6510 -0.4575
   44MOL0     H 6053   8.555   1.375   2.935 -0.6300 -2.4279  0.7838
   44MOL0     H 6054   8.570   1.736   2.776  0.4104  0.1044  0.5948
   44MOL0     H 6055   8.551   1.964   2.731  1.1922 -1.1282  0.7499
   44MOL0     H 6056   7.501   1.625   2.854 -1.3275 -1.5718  1.1755
   44MOL0     H 6057   7.580   1.409   2.960  1.0682 -0.3587 -2.0349
   44MOL0     H 6058   7.922   1.233   3.264 -2.5741  0.4930 -3.3156
   44MOL0     H 6059   8.000   1.045   3.403 -0.5368 -0.3674  3.3012
   44MOL0     H 6060   8.048   0.879   3.547 -0.1138  0.8199  1.4884
   44MOL0     H 6061   7.918   0.888   3.672  0.5360 -0.8135  0.1193
   44MOL0     H 6062   7.916   0.634   3.649 -0.3480  1.0239 -1.7029
   44MOL0     H 6063   8.075   0.696   3.686 -1.0172 -0.0521  1.1165
   44MOL0     H 6064   7.982   0.612   3.393  0.9639  2.0426 -0.6383
   44MOL0     H 6065   8.128   0.694   3.434  4.4693 -2.1640  3.1598
   44MOL0     H 6066   8.039   0.421   3.518  0.3200 -0.8080  2.1987
   44MOL0     H 6067   8.189   0.496   3.586 -3.2007  2.4532  2.2902
   44MOL0     H 6068   8.283   0.419   3.175  5.0624  2.1747  1.6648
   44MOL0     H 6069   7.604   0.893   3.431 -0.3057  0.9434  0.7311
   44MOL0     H 6070   7.478   1.112   3.163  0.1439 -0.8203 -0.5525
   44MOL0     H 6071   7.490   0.953   3.223  0.4233  0.3910 -2.0566
   44MOL0     H 6072   7.403   1.070   3.327  0.2697 -1.3538 -1.4440
   45MOL0     O 6073   7.021  10.399   6.189  0.0919  0.4028  0.3700
   45MOL0     C 6074   6.953  10.297   6.205 -0.8772 -0.2586  0.4970
   45MOL0     O 6075   6.955  10.194   6.113 -0.6452 -0.2045  0.0973
   45MOL0     C 6076   7.063  10.184   6.026  0.0120 -0.9241  0.2346
   45MOL0     C 6077   7.072  10.262   5.907  0.0754  0.6135  0.1212
   45MOL0     C 6078   7.177  10.238   5.816  0.1769  0.4067  0.1949
   45MOL0     C 6079   7.281  10.140   5.841  0.7589 -0.3668  0.1635
   45MOL0     O 6080   7.385  10.103   5.762 -0.8834 -0.4984  0.0706
   45MOL0     C 6081   7.451  10.213   5.707 -0.2152  0.0260 -0.2001
   45MOL0     C 6082   7.474  10.336   5.807  0.0845 -0.4925 -0.6495
   45MOL0     C 6083   7.593  10.436   5.766  0.0733 -0.0902 -0.0901
   45MOL0     C 6084   7.731  10.402   5.827  0.7945 -0.0725 -0.1520
   45MOL0     C 6085   7.855  10.470   5.770 -0.0580  0.9168  1.0164
   45MOL0     C 6086   7.978  10.429   5.852  0.3070 -0.9124  1.0161
   45MOL0     C 6087   8.114  10.479   5.798  0.3079  0.1393 -0.6303
   45MOL0     C 6088   8.234  10.406   5.855 -0.6868  0.2520 -0.7325
   45MOL0     N 6089   8.268  10.452   5.992 -0.9781 -0.0831  0.6266
   45MOL0     C 6090   8.307  10.579   6.030 -0.2639  0.8061 -0.0306
   45MOL0     C 6091   8.285  10.581   6.164 -0.2419  0.4870  0.5970
   45MOL0     C 6092   8.328  10.696   6.245  0.1741 -0.3215  0.2813
   45MOL0     C 6093   8.416  10.647   6.363 -0.1958  0.0582  0.2609
   45MOL0     C 6094   8.557  10.645   6.303 -0.9556  0.3477 -0.2851
   45MOL0     C 6095   8.659  10.585   6.406  0.6423  0.2723  0.1526
   45MOL0     O 6096   8.797  10.602   6.349  0.6450 -0.2957  0.2172
   45MOL0     C 6097   8.902  10.618   6.434  0.2056 -0.2077 -0.5122
   45MOL0     C 6098   9.015  10.690   6.387  0.4690  0.1300  0.6118
   45MOL0     C 6099   9.133  10.709   6.462 -1.5594 -1.0566 -0.7744
   45MOL0     C 6100   9.239  10.805   6.402  0.3753 -0.4319 -0.6388
   45MOL0     C 6101   9.146  10.649   6.582  0.4083  0.0183  0.1889
   45MOL0     C 6102   9.254  10.683   6.673  0.7358 -0.5603  0.9606
   45MOL0     O 6103   9.383  10.673   6.626  0.5597 -0.0390 -0.2305
   45MOL0     C 6104   9.479  10.697   6.716 -0.4060 -0.2564 -0.6996
   45MOL0     C 6105   9.574  10.797   6.677 -0.1546  0.0185 -0.8105
   45MOL0     C 6106   9.690  10.820   6.760 -0.4715 -1.1312 -0.3466
   45MOL0     C 6107   9.689  10.758   6.887  0.4363  0.2576 -0.3870
   45MOL0     O 6108   9.786  10.785   6.977  0.3363  0.1710 -0.1048
   45MOL0     C 6109   9.842  10.917   6.988 -0.3143  0.2975 -0.4586
   45MOL0     C 6110   9.848  10.955   7.136 -0.2860  0.5164  0.0395
   45MOL0     C 6111   9.887  11.102   7.148  0.9321 -0.2225 -0.6301
   45MOL0     C 6112   9.961  11.136   7.281  0.5908  0.0895  0.2259
   45MOL0     C 6113  10.106  11.100   7.271  0.3717  0.8614 -0.1902
   45MOL0     C 6114  10.157  11.064   7.410 -0.1592  0.1220  0.4817
   45MOL0     C 6115  10.304  11.018   7.407  0.3173  0.0113 -0.4921
   45MOL0     C 6116  10.347  10.971   7.548 -0.7229 -0.6513 -0.1154
   45MOL0    Cl 6117  10.463  10.838   7.535 -0.1837 -0.0490 -0.5939
   45MOL0     C 6118   9.605  10.658   6.926  0.6091 -0.2447  0.2166
   45MOL0     C 6119   9.504  10.624   6.838  0.4490 -0.8964 -0.2682
   45MOL0     O 6120   9.220  10.699   6.789 -0.5106  0.0143  0.0217
   45MOL0     C 6121   9.040  10.570   6.629  0.1929  0.7363  0.0234
   45MOL0     C 6122   8.917  10.557   6.560  0.0231  0.6181 -0.9257
   45MOL0     N 6123   8.241  10.451   6.202 -0.3728  0.1599  0.3527
   45MOL0     N 6124   8.237  10.371   6.099 -0.4093 -0.0404  0.4656
   45MOL0     C 6125   7.275  10.079   5.973 -0.1683  0.4891  0.7558
   45MOL0     C 6126   7.164  10.095   6.066 -0.2114  0.0019  0.4328
   45MOL0     C 6127   6.861  10.285   6.316  1.1043  0.6333 -0.2228
   45MOL0     C 6128   6.743  10.206   6.295 -0.4922 -0.6336  0.4664
   45MOL0     C 6129   6.637  10.202   6.382  0.1205  0.4380 -0.5288
   45MOL0     C 6130   6.629  10.271   6.504 -0.6158 -0.5786  0.9017
   45MOL0     O 6131   6.518  10.257   6.581 -0.2704  0.0690  0.1791
   45MOL0     C 6132   6.518  10.347   6.701 -0.9597  0.8642  0.2707
   45MOL0     C 6133   6.380  10.333   6.770  0.0627 -0.1010 -0.4766
   45MOL0     C 6134   6.277  10.393   6.678 -0.0180 -0.5006  0.2956
   45MOL0     C 6135   6.254  10.548   6.705 -0.0275  0.7533 -0.3509
   45MOL0     C 6136   6.181  10.564   6.824  1.2431  0.3422 -0.7057
   45MOL0     C 6137   6.106  10.573   6.924  0.4223 -0.2454 -0.0246
   45MOL0     C 6138   6.743  10.356   6.516  0.7588 -0.0121  0.3369
   45MOL0     C 6139   6.858  10.361   6.434  0.1018  0.0852  0.2495
   45MOL0     C 6140   6.973  10.446   6.472  0.0308  0.8944  1.3030
   45MOL0     H 6141   6.985  10.324   5.887 -2.9833 -2.6393  2.1378
   45MOL0     H 6142   7.183  10.302   5.728 -0.3259  0.7547  0.4049
   45MOL0     H 6143   7.393  10.251   5.622 -3.1008 -0.7190  1.2924
   45MOL0     H 6144   7.548  10.186   5.666  2.1337  1.2255  4.0163
   45MOL0     H 6145   7.377  10.387   5.806 -0.5841 -1.3448  3.2112
   45MOL0     H 6146   7.486  10.294   5.907 -2.3437  0.7207  0.2224
   45MOL0     H 6147   7.606  10.419   5.659  0.3538 -0.2246 -0.0352
   45MOL0     H 6148   7.562  10.540   5.783 -1.8378 -0.7777  1.0371
   45MOL0     H 6149   7.725  10.438   5.930  2.7762 -0.3634  0.0898
   45MOL0     H 6150   7.746  10.294   5.835  0.2146  0.0200  4.5142
   45MOL0     H 6151   7.843  10.578   5.766 -3.3720  0.6648  1.5617
   45MOL0     H 6152   7.875  10.428   5.671  4.4456 -1.5802  2.6848
   45MOL0     H 6153   7.966  10.455   5.957 -1.7289 -1.3859  0.9414
   45MOL0     H 6154   7.980  10.320   5.852  3.5383 -0.9332  1.7756
   45MOL0     H 6155   8.140  10.584   5.811  0.7319 -0.1685  1.2817
   45MOL0     H 6156   8.120  10.448   5.693  3.1686  0.4437 -0.6419
   45MOL0     H 6157   8.210  10.299   5.851 -0.0564 -0.0063  1.2805
   45MOL0     H 6158   8.324  10.426   5.795  0.4495  0.3891  0.9589
   45MOL0     H 6159   8.342  10.657   5.964 -1.3745  1.4790  0.1377
   45MOL0     H 6160   8.243  10.752   6.286  0.1605 -1.6340  2.1471
   45MOL0     H 6161   8.364  10.768   6.170 -3.6720  1.4674 -0.0859
   45MOL0     H 6162   8.411  10.724   6.441 -0.0198  1.1101 -0.7477
   45MOL0     H 6163   8.393  10.549   6.406 -0.5873 -0.3897 -0.9250
   45MOL0     H 6164   8.561  10.583   6.213 -0.7795 -0.8929  0.5397
   45MOL0     H 6165   8.599  10.742   6.277  2.2569 -0.7277  0.3551
   45MOL0     H 6166   8.636  10.652   6.489 -0.6605 -1.3620  1.1842
   45MOL0     H 6167   8.637  10.485   6.446 -1.6629  0.7285  0.1538
   45MOL0     H 6168   9.008  10.721   6.283 -0.9276 -1.6106  0.1378
   45MOL0     H 6169   9.233  10.789   6.294 -1.1842 -0.6111 -0.5463
   45MOL0     H 6170   9.342  10.795   6.439  0.2101  0.1647  0.0009
   45MOL0     H 6171   9.215  10.910   6.422 -0.8832 -0.7322 -0.4993
   45MOL0     H 6172   9.552  10.864   6.595 -2.2064  0.6470  0.1834
   45MOL0     H 6173   9.774  10.882   6.730 -1.2858  0.1190 -0.1490
   45MOL0     H 6174   9.944  10.926   6.948  1.4012 -1.2809  3.0598
   45MOL0     H 6175   9.773  10.994   6.954  0.1664  2.0157  2.1410
   45MOL0     H 6176   9.753  10.932   7.184  0.1338 -1.5873 -0.0384
   45MOL0     H 6177   9.915  10.889   7.192 -2.4039 -2.8258 -1.1171
   45MOL0     H 6178   9.801  11.170   7.138  1.7596  1.0856  0.7399
   45MOL0     H 6179   9.958  11.128   7.070  2.3790 -0.7603  0.4690
   45MOL0     H 6180   9.920  11.082   7.367  3.7955 -1.6599  0.8160
   45MOL0     H 6181   9.953  11.243   7.303 -1.8882  0.4253 -1.8178
   45MOL0     H 6182  10.119  11.015   7.204 -1.8847  0.6346 -0.4411
   45MOL0     H 6183  10.153  11.191   7.232  1.4239  0.3977 -0.0317
   45MOL0     H 6184  10.096  10.995   7.470  1.3777 -0.1225  1.8483
   45MOL0     H 6185  10.148  11.160   7.461 -0.6640  0.5875 -0.4596
   45MOL0     H 6186  10.370  11.102   7.384  3.1611 -1.2105  2.4927
   45MOL0     H 6187  10.321  10.946   7.326 -3.0810 -0.0657 -1.3161
   45MOL0     H 6188  10.257  10.939   7.600 -0.4806  2.4836  2.5204
   45MOL0     H 6189  10.406  11.035   7.614 -0.4109  1.0967 -1.9811
   45MOL0     H 6190   9.603  10.610   7.023 -1.5374 -0.6695  0.0193
   45MOL0     H 6191   9.445  10.536   6.863  3.1558 -3.6759 -2.9771
   45MOL0     H 6192   9.038  10.530   6.730  2.3001  4.1599  1.6088
   45MOL0     H 6193   8.826  10.510   6.598 -1.5402  2.1870 -2.5299
   45MOL0     H 6194   7.354  10.015   6.012 -1.4574 -1.6232  0.0657
   45MOL0     H 6195   7.168  10.041   6.160 -0.1866  1.0347  1.0385
   45MOL0     H 6196   6.746  10.144   6.206  1.5029  1.3991 -1.0190
   45MOL0     H 6197   6.563  10.125   6.365 -0.3991  1.0993 -1.3496
   45MOL0     H 6198   6.591  10.313   6.775 -2.9368 -0.7408  1.5725
   45MOL0     H 6199   6.534  10.452   6.674  2.3166  0.6488  0.9475
   45MOL0     H 6200   6.356  10.381   6.866 -2.4355 -0.1430 -0.9997
   45MOL0     H 6201   6.343  10.230   6.774 -1.9497  0.5011 -1.7612
   45MOL0     H 6202   6.307  10.372   6.575  0.0090  0.1625  0.1647
   45MOL0     H 6203   6.182  10.339   6.686  0.2491 -0.8899  0.8674
   45MOL0     H 6204   6.186  10.593   6.632  1.2965  1.2695 -1.2986
   45MOL0     H 6205   6.348  10.601   6.694  1.1000 -1.4782 -2.3410
   45MOL0     H 6206   6.055  10.594   7.016  1.1549  1.0250  0.1261
   45MOL0     H 6207   6.747  10.429   6.597  0.2663  0.4682 -0.0674
   45MOL0     H 6208   7.065  10.390   6.450 -0.6736  0.6343 -1.3978
   45MOL0     H 6209   6.967  10.536   6.411 -1.4597 -0.1379 -0.1935
   45MOL0     H 6210   6.972  10.470   6.579  2.2485 -0.4816  1.6834
   46MOL0     O 6211   3.822   6.189   5.860 -0.4349 -0.5341 -0.0594
   46MOL0     C 6212   3.771   6.083   5.845  0.2410  0.4095 -0.2920
   46MOL0     O 6213   3.632   6.059   5.823  0.2666  1.0659  0.3757
   46MOL0     C 6214   3.554   6.142   5.883 -0.9545 -0.4677 -0.5225
   46MOL0     C 6215   3.560   6.173   6.021  0.3454  0.3520  0.5968
   46MOL0     C 6216   3.466   6.270   6.078 -0.3585  0.2784  0.4370
   46MOL0     C 6217   3.353   6.310   6.003 -0.0628 -0.2020 -0.0566
   46MOL0     O 6218   3.256   6.390   6.057  0.4125  0.4464  0.3025
   46MOL0     C 6219   3.213   6.344   6.190 -0.6137  0.3717  0.3178
   46MOL0     C 6220   3.102   6.439   6.230 -0.0350  0.2414 -0.2323
   46MOL0     C 6221   3.142   6.569   6.309  0.0725  0.1375 -1.0360
   46MOL0     C 6222   3.010   6.626   6.374 -0.0788  0.2554 -0.4114
   46MOL0     C 6223   3.032   6.731   6.474 -0.3528  0.0117  0.5519
   46MOL0     C 6224   2.903   6.780   6.546  0.5077  0.0691 -0.1589
   46MOL0     C 6225   2.939   6.872   6.664 -0.3898  0.0168  0.1306
   46MOL0     C 6226   2.838   6.984   6.676  0.0730  0.7250  0.2033
   46MOL0     N 6227   2.860   7.066   6.790 -0.0811 -0.0811  0.1158
   46MOL0     C 6228   2.975   7.136   6.834 -0.1821 -1.0057 -0.6153
   46MOL0     C 6229   2.963   7.157   6.967 -0.5205  0.7089  0.5291
   46MOL0     C 6230   3.063   7.215   7.061 -0.1785  0.2160  0.4645
   46MOL0     C 6231   3.090   7.359   7.034  0.4080 -0.4167  0.8442
   46MOL0     C 6232   3.181   7.388   6.912  0.3228 -0.2398  0.2627
   46MOL0     C 6233   3.305   7.302   6.888  0.4397  0.3436  0.5310
   46MOL0     O 6234   3.367   7.365   6.778 -0.8542 -0.0496  0.1835
   46MOL0     C 6235   3.492   7.330   6.741  0.2418 -0.5175 -0.6593
   46MOL0     C 6236   3.568   7.235   6.806 -0.2329  0.5573 -0.1087
   46MOL0     C 6237   3.689   7.189   6.753  0.8504 -1.1894 -0.5422
   46MOL0     C 6238   3.768   7.085   6.833  0.1212  0.6107  0.3612
   46MOL0     C 6239   3.745   7.248   6.636  0.3155 -0.4689 -0.4432
   46MOL0     C 6240   3.879   7.232   6.585 -0.4213  0.3236 -0.1706
   46MOL0     O 6241   3.895   7.267   6.456 -1.1288  0.3597  0.0660
   46MOL0     C 6242   4.017   7.243   6.389  0.1711 -0.6407 -1.0807
   46MOL0     C 6243   4.145   7.282   6.443  0.8565  0.0722  0.8194
   46MOL0     C 6244   4.261   7.269   6.377  1.0768 -0.4379  0.2153
   46MOL0     C 6245   4.256   7.228   6.244  0.0187  0.4511 -0.0442
   46MOL0     O 6246   4.367   7.209   6.164  0.0898 -0.2629 -0.3058
   46MOL0     C 6247   4.494   7.273   6.205  0.6056  0.3921  0.1177
   46MOL0     C 6248   4.598   7.220   6.119 -1.1540  1.3691 -0.9508
   46MOL0     C 6249   4.736   7.285   6.141 -0.1139 -0.5401  0.6872
   46MOL0     C 6250   4.844   7.239   6.039 -0.4114 -0.0255 -0.6214
   46MOL0     C 6251   4.973   7.302   6.091  0.1642 -0.7577 -0.1370
   46MOL0     C 6252   5.091   7.247   6.009  0.2000 -0.4526  0.3018
   46MOL0     C 6253   5.219   7.304   6.055 -1.1163 -0.9311 -1.0582
   46MOL0     C 6254   5.333   7.259   5.975  0.0295  0.0815  0.7624
   46MOL0    Cl 6255   5.468   7.337   6.054  0.1000  0.6383  0.3808
   46MOL0     C 6256   4.132   7.183   6.188  0.5325  0.1600  0.6826
   46MOL0     C 6257   4.009   7.189   6.260 -0.0296  0.3322  0.0205
   46MOL0     O 6258   3.976   7.197   6.659  0.0164 -0.3757  0.1795
   46MOL0     C 6259   3.658   7.344   6.567 -0.2583 -0.3297 -0.0170
   46MOL0     C 6260   3.536   7.388   6.625 -0.8369  0.8071  1.2408
   46MOL0     N 6261   2.849   7.096   7.009  0.1615  0.4951  0.2882
   46MOL0     N 6262   2.791   7.039   6.904 -0.2199  0.5511  0.7761
   46MOL0     C 6263   3.350   6.281   5.868  0.7876  0.6550  0.3129
   46MOL0     C 6264   3.440   6.189   5.811  0.4886  0.1795  0.3244
   46MOL0     C 6265   3.855   5.959   5.847 -0.0835 -0.1395 -0.9805
   46MOL0     C 6266   3.841   5.850   5.759  0.2110  0.0524 -0.6755
   46MOL0     C 6267   3.921   5.730   5.781 -1.1576 -1.0473 -0.2127
   46MOL0     C 6268   4.017   5.729   5.883  0.3677  0.5151 -0.6285
   46MOL0     O 6269   4.103   5.628   5.910  0.1182  0.2502 -0.8465
   46MOL0     C 6270   4.106   5.518   5.819  0.1756  0.7811  0.4042
   46MOL0     C 6271   4.006   5.420   5.878  0.1034  0.6314  0.5690
   46MOL0     C 6272   4.003   5.298   5.783 -0.2243 -0.3013 -0.5542
   46MOL0     C 6273   3.908   5.179   5.820 -0.1820 -0.5133  1.5010
   46MOL0     C 6274   3.764   5.228   5.831 -0.2802  0.9470 -0.2417
   46MOL0     C 6275   3.648   5.260   5.853  0.1431 -0.2036  0.3297
   46MOL0     C 6276   4.043   5.843   5.963 -1.1344  0.1568  0.7606
   46MOL0     C 6277   3.960   5.955   5.945  0.1929 -0.1841 -0.2556
   46MOL0     C 6278   3.993   6.066   6.040 -0.3024 -0.2734 -1.0000
   46MOL0     H 6279   3.647   6.136   6.073  0.1049 -0.7355  0.2565
   46MOL0     H 6280   3.478   6.302   6.181  1.4984 -1.9939  1.0090
   46MOL0     H 6281   3.291   6.348   6.267 -0.4465  1.2451  0.1114
   46MOL0     H 6282   3.169   6.244   6.178  1.4621 -0.9521  2.6848
   46MOL0     H 6283   3.049   6.464   6.138 -1.1366 -2.7049 -0.4982
   46MOL0     H 6284   3.033   6.385   6.295 -1.7091  1.6580 -0.7567
   46MOL0     H 6285   3.210   6.536   6.388 -1.4962  0.3604  0.4764
   46MOL0     H 6286   3.183   6.644   6.241  1.0767  0.3613 -0.2044
   46MOL0     H 6287   2.944   6.665   6.297 -0.7429  1.1247  0.5825
   46MOL0     H 6288   2.956   6.544   6.423 -2.3200  1.3403 -0.9809
   46MOL0     H 6289   3.086   6.815   6.429  1.9179 -0.7835  1.6490
   46MOL0     H 6290   3.097   6.690   6.552  1.1813  0.6108 -0.3676
   46MOL0     H 6291   2.841   6.828   6.471 -0.0046 -0.3234  0.0035
   46MOL0     H 6292   2.839   6.697   6.577 -0.0583 -0.3332 -2.2709
   46MOL0     H 6293   3.033   6.924   6.646  0.1182 -0.1997  1.9627
   46MOL0     H 6294   2.955   6.803   6.747  0.6424 -1.5026 -1.2572
   46MOL0     H 6295   2.846   7.039   6.582  0.4707 -0.2989 -0.3746
   46MOL0     H 6296   2.733   6.954   6.668 -0.6911  3.4754 -1.5650
   46MOL0     H 6297   3.062   7.164   6.774 -1.1250  0.7982 -1.1948
   46MOL0     H 6298   3.155   7.157   7.052  0.4467  0.9648  1.6736
   46MOL0     H 6299   3.036   7.196   7.166 -2.4315  0.6074  0.0030
   46MOL0     H 6300   2.997   7.414   7.016  0.5880  0.3424  2.0924
   46MOL0     H 6301   3.139   7.400   7.123  0.7629  0.7444  0.1431
   46MOL0     H 6302   3.121   7.374   6.821  2.1519  1.2533 -1.2610
   46MOL0     H 6303   3.206   7.494   6.906 -1.2732  0.0772 -2.9505
   46MOL0     H 6304   3.368   7.321   6.976 -1.2654  0.4401  1.8017
   46MOL0     H 6305   3.291   7.195   6.870 -1.0878  0.1472  2.4766
   46MOL0     H 6306   3.540   7.183   6.897  0.3789 -0.7920 -0.6679
   46MOL0     H 6307   3.851   7.135   6.884  0.1471  1.2750 -0.3123
   46MOL0     H 6308   3.802   7.019   6.752  1.5405 -0.2624  1.6170
   46MOL0     H 6309   3.702   7.030   6.902  1.7302 -0.6150  0.9963
   46MOL0     H 6310   4.144   7.328   6.541 -0.2881  0.0449  0.8317
   46MOL0     H 6311   4.352   7.314   6.415  1.5090 -3.1242  2.7414
   46MOL0     H 6312   4.485   7.380   6.185  1.7363  0.7120  1.2071
   46MOL0     H 6313   4.524   7.266   6.310 -0.7421  2.4877  0.7110
   46MOL0     H 6314   4.612   7.115   6.148  3.0451  2.2971  1.1722
   46MOL0     H 6315   4.583   7.236   6.012  1.1911  2.0826 -1.2307
   46MOL0     H 6316   4.768   7.248   6.238 -0.6054 -0.5244  0.8571
   46MOL0     H 6317   4.732   7.395   6.143 -2.4219 -0.4739 -1.5113
   46MOL0     H 6318   4.821   7.269   5.937 -1.1136 -2.4772 -1.2463
   46MOL0     H 6319   4.854   7.130   6.049  3.8527  0.2300  0.1572
   46MOL0     H 6320   4.965   7.410   6.075 -1.9123 -0.7767  0.5228
   46MOL0     H 6321   4.992   7.272   6.194  2.0320 -1.4636 -0.6476
   46MOL0     H 6322   5.076   7.258   5.901  0.5977 -1.0907  0.1716
   46MOL0     H 6323   5.099   7.141   6.035  0.6500 -0.1441  1.4702
   46MOL0     H 6324   5.233   7.275   6.159 -0.2639 -1.4766 -1.3169
   46MOL0     H 6325   5.223   7.413   6.045  1.1919 -0.7685  0.8379
   46MOL0     H 6326   5.332   7.319   5.884  1.6656 -1.4064 -0.2913
   46MOL0     H 6327   5.347   7.154   5.952 -0.7395 -0.0413  0.8502
   46MOL0     H 6328   4.124   7.144   6.087  0.7555  1.0367  0.3157
   46MOL0     H 6329   3.915   7.158   6.214  0.4829 -1.7487  0.2628
   46MOL0     H 6330   3.688   7.393   6.475 -1.1038  0.8002  0.2855
   46MOL0     H 6331   3.465   7.451   6.570  0.4013  1.0083 -0.2003
   46MOL0     H 6332   3.267   6.318   5.809  0.3810  0.2640  0.6326
   46MOL0     H 6333   3.420   6.149   5.712  0.0160 -0.2919  0.6022
   46MOL0     H 6334   3.762   5.857   5.685  0.0891  2.2107 -0.4123
   46MOL0     H 6335   3.903   5.650   5.711  0.3835 -0.6682 -1.0916
   46MOL0     H 6336   4.080   5.533   5.714  1.1714 -0.8676 -0.1284
   46MOL0     H 6337   4.212   5.490   5.819  0.4865  1.9166  0.6386
   46MOL0     H 6338   3.909   5.470   5.885 -0.5959 -0.1839 -2.1355
   46MOL0     H 6339   4.043   5.388   5.976 -0.7237  0.2541  0.7703
   46MOL0     H 6340   3.958   5.332   5.689 -0.5127  0.9193  0.0174
   46MOL0     H 6341   4.103   5.257   5.762  0.6780  2.0909 -1.2486
   46MOL0     H 6342   3.937   5.132   5.914  0.5780 -1.5630  0.7665
   46MOL0     H 6343   3.906   5.100   5.744 -2.7195  0.3491  0.5706
   46MOL0     H 6344   3.552   5.299   5.880  0.4055  1.2832 -0.7799
   46MOL0     H 6345   4.134   5.848   6.021 -0.3555 -1.1303 -0.2909
   46MOL0     H 6346   4.063   6.034   6.118 -2.6451  0.7491  1.6734
   46MOL0     H 6347   4.030   6.151   5.981 -3.0123 -0.7803 -3.6499
   46MOL0     H 6348   3.912   6.121   6.088 -0.8671 -0.9717 -1.1421
   47MOL0     O 6349   5.102   9.117   7.774  0.1060 -0.0422  0.5552
   47MOL0     C 6350   5.019   9.082   7.854 -0.5480  0.2095  0.5654
   47MOL0     O 6351   5.013   8.959   7.912 -0.0977  0.0967 -0.2509
   47MOL0     C 6352   5.101   8.861   7.882  0.4861  0.7703 -0.5118
   47MOL0     C 6353   5.205   8.839   7.966 -0.6890  0.4384 -0.8970
   47MOL0     C 6354   5.287   8.723   7.944 -0.8809 -0.9042 -0.0666
   47MOL0     C 6355   5.281   8.642   7.824 -0.1518  0.1423 -0.0019
   47MOL0     O 6356   5.356   8.531   7.789 -0.1655  0.5787 -0.4649
   47MOL0     C 6357   5.465   8.480   7.876 -0.1260  0.2218  0.2625
   47MOL0     C 6358   5.517   8.344   7.833  0.2980  0.8346 -0.2016
   47MOL0     C 6359   5.599   8.281   7.951 -0.0666 -0.5770 -0.0568
   47MOL0     C 6360   5.747   8.304   7.932  0.2923  0.1280  0.5974
   47MOL0     C 6361   5.804   8.446   7.966 -0.6877 -0.1751 -0.2876
   47MOL0     C 6362   5.784   8.486   8.113  0.6796  0.2156 -0.5936
   47MOL0     C 6363   5.884   8.596   8.137  0.2384 -0.5964  0.3929
   47MOL0     C 6364   5.844   8.739   8.097  0.1127 -0.3640  0.2847
   47MOL0     N 6365   5.949   8.832   8.129 -0.0440 -0.5091 -0.2026
   47MOL0     C 6366   6.071   8.831   8.071 -0.0469  0.7734 -0.1280
   47MOL0     C 6367   6.145   8.922   8.138 -0.1615 -0.4538 -0.9929
   47MOL0     C 6368   6.285   8.966   8.094  0.0046 -0.1642  0.1773
   47MOL0     C 6369   6.389   8.880   8.169 -0.0174  0.3664 -0.7875
   47MOL0     C 6370   6.525   8.951   8.185  0.4024  0.6532 -0.4720
   47MOL0     C 6371   6.575   8.987   8.045 -0.5660 -0.1589  0.9783
   47MOL0     O 6372   6.713   8.969   8.062  0.4153 -0.5486  0.5008
   47MOL0     C 6373   6.773   8.871   7.992 -0.1510  0.7082  0.0139
   47MOL0     C 6374   6.909   8.852   8.020  1.1873 -0.0591  0.3085
   47MOL0     C 6375   6.987   8.757   7.966  0.5670 -0.2632  0.2084
   47MOL0     C 6376   7.125   8.751   8.022 -0.3723  0.6141 -0.4945
   47MOL0     C 6377   6.929   8.661   7.877 -0.1408 -0.2557  0.0435
   47MOL0     C 6378   7.001   8.541   7.838 -0.9276 -0.6690 -0.7962
   47MOL0     O 6379   6.946   8.457   7.751  0.1241 -0.6080 -0.1908
   47MOL0     C 6380   7.011   8.339   7.737  0.1028 -0.2615  0.1772
   47MOL0     C 6381   7.093   8.322   7.623 -0.0858 -0.2638  0.5864
   47MOL0     C 6382   7.168   8.199   7.602 -0.2322 -0.3914 -1.1846
   47MOL0     C 6383   7.127   8.085   7.670  1.8058  0.4081  0.6482
   47MOL0     O 6384   7.194   7.971   7.623 -0.5245  0.3349  0.5337
   47MOL0     C 6385   7.241   7.878   7.718 -0.4061  0.2060  1.1085
   47MOL0     C 6386   7.232   7.736   7.653  0.2107 -0.1651 -0.7319
   47MOL0     C 6387   7.344   7.713   7.544  0.2894 -0.6116  0.9472
   47MOL0     C 6388   7.330   7.593   7.449  0.7564 -0.5349  0.4567
   47MOL0     C 6389   7.418   7.601   7.323 -0.5108  0.2856 -0.3461
   47MOL0     C 6390   7.386   7.480   7.224 -0.0948  0.5748 -0.1642
   47MOL0     C 6391   7.421   7.339   7.281 -0.2801  0.0573  0.3124
   47MOL0     C 6392   7.569   7.320   7.291  0.4717 -0.8436  0.4499
   47MOL0    Cl 6393   7.621   7.192   7.415  0.1692  0.2070 -0.1306
   47MOL0     C 6394   7.032   8.096   7.777 -0.6384  0.3713  0.2721
   47MOL0     C 6395   6.981   8.224   7.808 -0.1819  0.1371  0.3362
   47MOL0     O 6396   7.115   8.522   7.881  0.1203  0.2134  0.6582
   47MOL0     C 6397   6.789   8.683   7.840 -0.0471  0.5356 -0.8298
   47MOL0     C 6398   6.711   8.783   7.899 -0.0438 -0.3981  0.4178
   47MOL0     N 6399   6.084   8.963   8.256  0.3100  1.0962 -0.4076
   47MOL0     N 6400   5.966   8.913   8.249  0.0353 -0.1380  0.5436
   47MOL0     C 6401   5.188   8.681   7.733  0.5489 -0.0744  0.2879
   47MOL0     C 6402   5.093   8.773   7.762  0.7795  0.6327  0.0290
   47MOL0     C 6403   4.926   9.183   7.912 -0.5213 -0.5053  0.2295
   47MOL0     C 6404   4.793   9.140   7.907  0.5107 -0.0279  0.6372
   47MOL0     C 6405   4.686   9.214   7.952  0.4307 -1.0977  0.5824
   47MOL0     C 6406   4.715   9.347   8.000 -0.1718  0.4010  0.3379
   47MOL0     O 6407   4.633   9.443   8.029 -0.3599  0.1454 -0.1354
   47MOL0     C 6408   4.498   9.432   7.983  0.0530 -0.5058  0.1759
   47MOL0     C 6409   4.440   9.566   8.040 -0.2738  0.4814 -0.8643
   47MOL0     C 6410   4.305   9.619   7.987 -0.1789  0.2870 -0.0789
   47MOL0     C 6411   4.259   9.754   8.048 -0.3615 -0.1311  0.1929
   47MOL0     C 6412   4.232   9.751   8.194 -0.2071  0.5674  0.2165
   47MOL0     C 6413   4.197   9.741   8.314 -0.5098  0.3677 -0.1903
   47MOL0     C 6414   4.848   9.382   8.014  0.0202 -0.7067  0.1667
   47MOL0     C 6415   4.956   9.303   7.974 -0.1866  0.2627 -1.0547
   47MOL0     C 6416   5.101   9.348   7.992  0.1542  0.0100  0.1409
   47MOL0     H 6417   5.229   8.900   8.053  0.8036 -2.2179  0.6805
   47MOL0     H 6418   5.368   8.725   8.017  0.1450 -1.1939 -1.1679
   47MOL0     H 6419   5.437   8.472   7.981  2.9723 -1.0386  1.1117
   47MOL0     H 6420   5.545   8.555   7.877 -2.3930  2.8022  1.3343
   47MOL0     H 6421   5.425   8.285   7.824 -0.7459  1.1039  5.2326
   47MOL0     H 6422   5.562   8.348   7.734 -1.2881  0.9496 -0.9551
   47MOL0     H 6423   5.558   8.313   8.047  0.9724  2.8055 -0.6113
   47MOL0     H 6424   5.591   8.172   7.942 -1.6987 -0.4689 -0.1189
   47MOL0     H 6425   5.792   8.229   7.997  2.7991  0.6259 -0.4643
   47MOL0     H 6426   5.773   8.277   7.829 -4.0092 -1.0429 -0.4059
   47MOL0     H 6427   5.761   8.518   7.896  1.2535  3.1907  1.6978
   47MOL0     H 6428   5.913   8.443   7.955 -0.4365  2.3643  0.8668
   47MOL0     H 6429   5.682   8.508   8.145  1.2292  0.3422  1.1843
   47MOL0     H 6430   5.817   8.398   8.169  0.5976  1.0497  0.7992
   47MOL0     H 6431   5.985   8.580   8.097 -0.0561  0.9529 -1.1058
   47MOL0     H 6432   5.888   8.603   8.246 -2.5790  2.6214  0.4573
   47MOL0     H 6433   5.846   8.745   7.987  1.1958  2.4445  0.3597
   47MOL0     H 6434   5.743   8.760   8.133 -0.1344 -1.9135  0.5494
   47MOL0     H 6435   6.094   8.782   7.977 -0.2671 -2.1356  1.2536
   47MOL0     H 6436   6.295   9.074   8.104  3.4700 -0.5335  2.0780
   47MOL0     H 6437   6.300   8.944   7.988 -0.9852  0.5711 -0.1287
   47MOL0     H 6438   6.347   8.859   8.267  1.4830  4.2783  0.8820
   47MOL0     H 6439   6.410   8.776   8.140 -0.3231  0.1924 -0.3917
   47MOL0     H 6440   6.512   9.036   8.252 -2.2473  2.2325 -2.7794
   47MOL0     H 6441   6.585   8.882   8.246 -1.3843  0.1009  0.7714
   47MOL0     H 6442   6.523   8.926   7.971  3.3291 -0.7158 -1.6086
   47MOL0     H 6443   6.559   9.092   8.018  0.4918 -0.1210  0.4289
   47MOL0     H 6444   6.949   8.921   8.094 -0.4918 -0.3994  1.5858
   47MOL0     H 6445   7.150   8.664   8.082  1.6359  2.3643  1.3912
   47MOL0     H 6446   7.140   8.835   8.090 -0.5723  0.4985 -0.3091
   47MOL0     H 6447   7.202   8.759   7.944  1.5848 -1.2085  1.1374
   47MOL0     H 6448   7.128   8.406   7.564  1.3541  1.6693  3.9224
   47MOL0     H 6449   7.241   8.185   7.522  0.5366 -0.4214 -0.4972
   47MOL0     H 6450   7.345   7.899   7.745  0.1854  0.5741 -1.2636
   47MOL0     H 6451   7.169   7.887   7.800 -2.7086  0.4028 -0.8394
   47MOL0     H 6452   7.231   7.669   7.739 -3.6840  0.9001  0.2374
   47MOL0     H 6453   7.133   7.727   7.608 -0.7636  2.1314  0.7339
   47MOL0     H 6454   7.440   7.713   7.596  1.5350 -0.6374 -1.2470
   47MOL0     H 6455   7.344   7.803   7.481 -2.5815 -1.1318  0.0330
   47MOL0     H 6456   7.223   7.590   7.427  0.5845  0.4758  1.0904
   47MOL0     H 6457   7.347   7.498   7.501 -1.7684 -2.3163 -1.7138
   47MOL0     H 6458   7.394   7.695   7.273 -0.4866 -0.8203 -2.6046
   47MOL0     H 6459   7.525   7.611   7.341 -0.5257 -1.4963  1.0959
   47MOL0     H 6460   7.438   7.498   7.129 -0.4152  1.2090 -0.2228
   47MOL0     H 6461   7.279   7.481   7.201  0.1835 -0.1471 -1.6719
   47MOL0     H 6462   7.393   7.267   7.203  2.2064  2.4414 -3.0968
   47MOL0     H 6463   7.364   7.318   7.371 -2.8713  0.6111 -1.0911
   47MOL0     H 6464   7.621   7.410   7.325 -1.4571  0.1936  0.7940
   47MOL0     H 6465   7.611   7.285   7.197 -0.0217  1.1784 -0.5889
   47MOL0     H 6466   7.005   8.004   7.828 -1.2775  0.7621  0.6449
   47MOL0     H 6467   6.927   8.229   7.902  0.8981  0.1101  0.9756
   47MOL0     H 6468   6.744   8.610   7.774  2.2495 -1.5116 -0.2886
   47MOL0     H 6469   6.611   8.781   7.857  0.4185 -1.4477 -0.6853
   47MOL0     H 6470   5.200   8.645   7.631  4.5481  1.5318  0.0192
   47MOL0     H 6471   5.003   8.776   7.702  0.2657  0.5189  0.7850
   47MOL0     H 6472   4.760   9.043   7.870 -2.3225  1.3792 -0.8999
   47MOL0     H 6473   4.582   9.187   7.939 -0.0097 -0.2103  1.9796
   47MOL0     H 6474   4.495   9.424   7.874 -0.3301 -1.4833  0.2496
   47MOL0     H 6475   4.442   9.350   8.029  3.5859 -1.9475  2.3044
   47MOL0     H 6476   4.515   9.640   8.009  0.0554  0.0667 -1.0684
   47MOL0     H 6477   4.437   9.554   8.149  0.0388  1.8981 -0.6730
   47MOL0     H 6478   4.304   9.635   7.879 -3.5394  1.6045  0.0354
   47MOL0     H 6479   4.225   9.545   7.995 -0.5292  0.7160  0.5575
   47MOL0     H 6480   4.160   9.784   8.012 -0.2021 -2.4830 -2.5538
   47MOL0     H 6481   4.337   9.829   8.034  0.0712 -0.6586 -0.2620
   47MOL0     H 6482   4.170   9.733   8.417  0.5027 -0.4996  0.0212
   47MOL0     H 6483   4.868   9.484   8.047 -0.2521 -0.0148 -1.6547
   47MOL0     H 6484   5.149   9.281   8.065  1.1862 -0.7944 -1.2155
   47MOL0     H 6485   5.158   9.340   7.899 -4.8977 -0.4949 -3.2894
   47MOL0     H 6486   5.107   9.450   8.032 -1.0246 -0.6887  2.2896
   48MOL0     O 6487   4.023  10.151   6.348  0.2874  0.0010  0.4339
   48MOL0     C 6488   4.105  10.143   6.255  0.0428  0.8392 -0.1775
   48MOL0     O 6489   4.063  10.119   6.126 -0.2228  0.5056 -0.5388
   48MOL0     C 6490   3.936  10.168   6.099 -0.4773 -0.0020  0.8221
   48MOL0     C 6491   3.918  10.300   6.062 -0.6161  0.6989  0.3916
   48MOL0     C 6492   3.797  10.353   6.022  0.3037 -0.0084  0.6020
   48MOL0     C 6493   3.679  10.271   6.027  0.9496 -0.7367  0.8099
   48MOL0     O 6494   3.556  10.326   5.994  0.7878 -0.0256 -0.8070
   48MOL0     C 6495   3.559  10.419   5.881 -0.2611 -0.4125 -0.0859
   48MOL0     C 6496   3.414  10.454   5.847 -0.4014  0.3262 -0.3449
   48MOL0     C 6497   3.400  10.477   5.701 -0.3567  0.7621 -0.1751
   48MOL0     C 6498   3.443  10.618   5.658  0.3537 -0.0513 -0.0147
   48MOL0     C 6499   3.370  10.741   5.718  0.1503  1.1038 -0.3429
   48MOL0     C 6500   3.437  10.872   5.675 -0.6731  0.2902 -0.0752
   48MOL0     C 6501   3.349  10.982   5.733  0.0716 -0.4775  0.1214
   48MOL0     C 6502   3.427  11.112   5.737 -0.7125 -0.2366  0.5361
   48MOL0     N 6503   3.338  11.213   5.787 -1.0019 -0.3385 -0.6673
   48MOL0     C 6504   3.288  11.229   5.918 -0.6977  0.6515 -0.0074
   48MOL0     C 6505   3.221  11.348   5.914 -0.6592 -0.4490  0.0443
   48MOL0     C 6506   3.159  11.410   6.027  0.2958  0.2957 -0.1062
   48MOL0     C 6507   3.026  11.341   6.059  0.2064 -0.5760 -0.6633
   48MOL0     C 6508   2.938  11.341   5.935 -0.1330  0.3784 -0.1990
   48MOL0     C 6509   2.788  11.328   5.982  0.2158  0.0668  0.2828
   48MOL0     O 6510   2.770  11.190   6.023  0.5177 -0.6612  0.5578
   48MOL0     C 6511   2.639  11.174   6.059 -0.5129 -0.4807 -0.0040
   48MOL0     C 6512   2.604  11.209   6.186 -0.5570 -0.2245 -1.1569
   48MOL0     C 6513   2.469  11.194   6.219  0.3707  0.0561  0.0397
   48MOL0     C 6514   2.426  11.198   6.362 -0.3612  0.5479 -0.5693
   48MOL0     C 6515   2.369  11.168   6.122 -0.7380  0.0727 -0.1780
   48MOL0     C 6516   2.226  11.163   6.151  0.4742  0.2958 -0.2172
   48MOL0     O 6517   2.137  11.226   6.063  0.1451 -0.6625  0.1547
   48MOL0     C 6518   2.005  11.181   6.075  0.0751 -0.1677 -0.0145
   48MOL0     C 6519   1.905  11.267   6.122 -0.5063 -0.0968 -0.9871
   48MOL0     C 6520   1.775  11.224   6.161 -0.8083  0.7608 -0.5338
   48MOL0     C 6521   1.740  11.090   6.151  0.1828 -0.5030 -1.0167
   48MOL0     O 6522   1.615  11.029   6.177 -0.3899 -0.2773  0.3751
   48MOL0     C 6523   1.541  11.087   6.286 -0.7462 -0.7616 -1.2488
   48MOL0     C 6524   1.616  11.071   6.424  1.8431  0.7351 -0.1484
   48MOL0     C 6525   1.611  10.919   6.445  0.6782  0.6042  0.1852
   48MOL0     C 6526   1.626  10.881   6.597 -1.2259  0.2140 -0.5767
   48MOL0     C 6527   1.605  10.729   6.601 -0.2290 -0.6278  0.3837
   48MOL0     C 6528   1.554  10.694   6.742  0.4940 -0.3592  0.0378
   48MOL0     C 6529   1.567  10.541   6.766  0.6903  1.0809  0.3333
   48MOL0     C 6530   1.461  10.509   6.881 -0.1967  0.1870 -0.5797
   48MOL0    Cl 6531   1.409  10.330   6.876 -0.3395 -0.5929  0.2421
   48MOL0     C 6532   1.842  11.005   6.098 -0.5585  0.1130  1.2214
   48MOL0     C 6533   1.971  11.045   6.059 -0.0192 -0.0401  0.1605
   48MOL0     O 6534   2.188  11.095   6.246 -0.0764 -0.2750  0.0273
   48MOL0     C 6535   2.415  11.126   5.996 -0.3075 -0.6708  0.5958
   48MOL0     C 6536   2.550  11.134   5.962 -0.0956 -0.6746  0.8114
   48MOL0     N 6537   3.243  11.409   5.790  0.2141  0.1141  0.2012
   48MOL0     N 6538   3.306  11.331   5.719  0.1424  0.0003 -0.5625
   48MOL0     C 6539   3.695  10.139   6.065 -0.4672 -0.0343  0.1651
   48MOL0     C 6540   3.818  10.089   6.098 -0.0010 -0.4437 -0.9989
   48MOL0     C 6541   4.248  10.132   6.290  0.3677 -0.3407  0.3374
   48MOL0     C 6542   4.339  10.093   6.196  0.6627  0.2854  0.3861
   48MOL0     C 6543   4.475  10.098   6.209  0.1968 -0.3344  0.9142
   48MOL0     C 6544   4.536  10.135   6.331  0.0750 -0.2666  0.2325
   48MOL0     O 6545   4.673  10.125   6.354 -0.0019  0.3815  0.1203
   48MOL0     C 6546   4.758  10.100   6.241  0.3588 -0.1869 -0.9570
   48MOL0     C 6547   4.774   9.952   6.228 -0.0724 -0.6626  0.1950
   48MOL0     C 6548   4.864   9.905   6.117 -1.2068 -0.0890  0.2611
   48MOL0     C 6549   4.999   9.846   6.165  0.0306  0.4065  0.0154
   48MOL0     C 6550   5.096   9.955   6.198 -1.1598 -0.2129  0.1564
   48MOL0     C 6551   5.195  10.023   6.231 -0.8178 -0.2044  0.0948
   48MOL0     C 6552   4.442  10.172   6.429 -0.4512  0.3758  0.1659
   48MOL0     C 6553   4.300  10.162   6.418  0.1422 -0.0086 -0.2985
   48MOL0     C 6554   4.211  10.194   6.541  0.1058  0.0009  0.8019
   48MOL0     H 6555   4.010  10.357   6.056 -1.1545  1.4383 -1.4807
   48MOL0     H 6556   3.791  10.456   5.988  0.5781 -1.0876 -3.1140
   48MOL0     H 6557   3.621  10.375   5.803  1.3473  1.2489  0.1931
   48MOL0     H 6558   3.595  10.518   5.910 -3.6929  0.4632  1.6880
   48MOL0     H 6559   3.359  10.361   5.863  0.9303 -0.2653  1.0323
   48MOL0     H 6560   3.369  10.535   5.906  0.2430 -0.8735  1.8998
   48MOL0     H 6561   3.445  10.399   5.640 -1.0118  0.7175 -0.6043
   48MOL0     H 6562   3.294  10.464   5.680 -0.2459 -0.1843 -0.1646
   48MOL0     H 6563   3.551  10.632   5.666  0.1489  0.3825  3.4307
   48MOL0     H 6564   3.433  10.631   5.550  1.2676 -0.9613 -0.2231
   48MOL0     H 6565   3.370  10.729   5.827 -2.8844  1.8690 -0.1794
   48MOL0     H 6566   3.261  10.737   5.715 -0.0390  1.2262  2.7785
   48MOL0     H 6567   3.541  10.880   5.709 -0.6086 -4.6960  1.7084
   48MOL0     H 6568   3.435  10.874   5.566  0.9240 -2.8878 -0.2684
   48MOL0     H 6569   3.332  10.955   5.837 -1.5521 -2.7114 -0.6340
   48MOL0     H 6570   3.262  11.001   5.670  0.0582 -1.8487 -0.3035
   48MOL0     H 6571   3.515  11.100   5.802 -0.9075 -2.0909  0.5272
   48MOL0     H 6572   3.452  11.136   5.634 -3.8427 -1.2429 -0.5788
   48MOL0     H 6573   3.281  11.148   5.990 -1.2144  0.2520 -0.5014
   48MOL0     H 6574   3.146  11.518   6.014  0.1116  0.0976 -1.8031
   48MOL0     H 6575   3.233  11.390   6.105  0.5320  0.7399 -0.2164
   48MOL0     H 6576   3.047  11.236   6.080 -1.1882 -0.1294  4.1788
   48MOL0     H 6577   2.976  11.386   6.145  0.3970 -1.3261 -0.1548
   48MOL0     H 6578   2.955  11.435   5.880 -0.6380 -0.5313 -1.9993
   48MOL0     H 6579   2.962  11.260   5.866  0.1110 -1.5643  2.0537
   48MOL0     H 6580   2.762  11.410   6.049 -1.4653 -0.9363  0.9164
   48MOL0     H 6581   2.714  11.335   5.902  2.3265 -0.0231 -1.8088
   48MOL0     H 6582   2.677  11.242   6.259 -0.1834 -0.8330 -1.2505
   48MOL0     H 6583   2.489  11.244   6.439  1.0535 -1.9941 -0.0952
   48MOL0     H 6584   2.406  11.095   6.394 -2.8699  0.5800 -1.8594
   48MOL0     H 6585   2.332  11.253   6.369 -1.4506 -0.8402 -3.0466
   48MOL0     H 6586   1.910  11.376   6.125 -1.0693  0.1022 -4.0687
   48MOL0     H 6587   1.713  11.298   6.211 -0.1928 -1.1952  3.5581
   48MOL0     H 6588   1.528  11.195   6.272 -1.6493 -0.3295  2.0870
   48MOL0     H 6589   1.443  11.041   6.282 -0.8301 -0.5669 -1.4678
   48MOL0     H 6590   1.715  11.118   6.420  1.3065  1.9035 -0.1637
   48MOL0     H 6591   1.566  11.123   6.506  0.4609  0.7848 -0.9871
   48MOL0     H 6592   1.679  10.856   6.387 -0.5256 -1.1408  0.5773
   48MOL0     H 6593   1.515  10.879   6.411  1.1561  2.1457 -3.4119
   48MOL0     H 6594   1.549  10.931   6.657 -1.6811  2.0077 -2.5442
   48MOL0     H 6595   1.723  10.910   6.639 -0.2492 -1.7587 -1.3451
   48MOL0     H 6596   1.530  10.697   6.529 -0.1826 -2.1352  0.9643
   48MOL0     H 6597   1.696  10.673   6.576 -0.1269 -0.0090 -0.6829
   48MOL0     H 6598   1.448  10.722   6.737  0.2114 -1.4467 -0.2306
   48MOL0     H 6599   1.613  10.746   6.818 -1.1150  1.1697  0.3003
   48MOL0     H 6600   1.658  10.509   6.816  1.1425  1.1804 -0.4134
   48MOL0     H 6601   1.551  10.483   6.674 -0.0531 -0.1896  1.2320
   48MOL0     H 6602   1.370  10.569   6.871 -0.8437 -1.0494 -2.6167
   48MOL0     H 6603   1.500  10.517   6.983  2.6748 -0.9708 -1.5063
   48MOL0     H 6604   1.814  10.900   6.089  0.6344 -0.2256  1.3190
   48MOL0     H 6605   2.045  10.978   6.018 -1.6547 -0.5994 -2.0747
   48MOL0     H 6606   2.343  11.104   5.918  0.1586 -0.2421  0.0324
   48MOL0     H 6607   2.575  11.103   5.861 -1.2787  1.3735 -0.1815
   48MOL0     H 6608   3.607  10.075   6.070  0.8479 -1.9777 -0.4907
   48MOL0     H 6609   3.823   9.986   6.132  0.8412  0.4139  1.7471
   48MOL0     H 6610   4.295  10.061   6.102  0.1789  1.4598  0.1845
   48MOL0     H 6611   4.533  10.073   6.120  2.5841  1.7359  1.7646
   48MOL0     H 6612   4.723  10.138   6.145  2.0227  1.1261 -1.1019
   48MOL0     H 6613   4.856  10.143   6.265 -0.0515 -0.2879  1.1430
   48MOL0     H 6614   4.676   9.912   6.200 -0.4108  1.7273 -2.5893
   48MOL0     H 6615   4.806   9.910   6.324  3.2527 -3.2554 -1.8384
   48MOL0     H 6616   4.811   9.831   6.056 -0.8176  2.4476 -3.5156
   48MOL0     H 6617   4.885   9.995   6.058  1.0888 -1.2048 -0.7302
   48MOL0     H 6618   5.041   9.791   6.081 -3.1917  1.6207 -2.6177
   48MOL0     H 6619   4.986   9.780   6.252  2.3139  1.0135  0.8759
   48MOL0     H 6620   5.275  10.080   6.275 -1.5497  0.5437  0.5005
   48MOL0     H 6621   4.482  10.216   6.521 -1.1311 -0.0859  0.6878
   48MOL0     H 6622   4.159  10.100   6.560  0.7249 -0.6629 -0.6426
   48MOL0     H 6623   4.270  10.217   6.630 -1.8602  2.2350  1.6469
   48MOL0     H 6624   4.141  10.278   6.528 -1.3906 -1.2669  0.4149
   49MOL0     O 6625   0.938   2.265   7.073 -0.1753 -0.5474  0.2811
   49MOL0     C 6626   0.884   2.162   7.028 -0.2669  0.2321 -0.5669
   49MOL0     O 6627   0.949   2.054   6.974 -0.0484  0.2580 -0.1309
   49MOL0     C 6628   1.086   2.037   6.998  0.1079  0.0219  0.2598
   49MOL0     C 6629   1.141   1.932   6.911  0.0157 -0.6347 -0.6525
   49MOL0     C 6630   1.278   1.909   6.911 -0.2854  0.4348 -0.6224
   49MOL0     C 6631   1.366   1.965   7.000 -0.8078 -0.0337 -0.2147
   49MOL0     O 6632   1.498   1.929   7.017 -0.1212  0.6052  0.1814
   49MOL0     C 6633   1.557   1.826   6.941 -0.2091  0.2801 -0.8460
   49MOL0     C 6634   1.628   1.904   6.824  0.7420  0.0701 -0.2328
   49MOL0     C 6635   1.722   1.804   6.756  0.2724 -0.5824  0.4457
   49MOL0     C 6636   1.849   1.782   6.841  0.7117  0.3078  0.0533
   49MOL0     C 6637   1.884   1.632   6.839  0.1369  0.3650 -0.4781
   49MOL0     C 6638   2.029   1.592   6.853  0.6020  0.0485 -0.4805
   49MOL0     C 6639   2.110   1.620   6.715 -0.8294 -0.7497  0.7525
   49MOL0     C 6640   2.228   1.522   6.687  0.4983  0.0173 -0.3450
   49MOL0     N 6641   2.309   1.485   6.804  0.4687  0.3181  0.0065
   49MOL0     C 6642   2.414   1.570   6.832 -0.9098 -0.4395 -0.2842
   49MOL0     C 6643   2.472   1.494   6.933  0.3782 -0.9965 -0.4727
   49MOL0     C 6644   2.590   1.552   7.000 -0.8039  0.6808  0.0608
   49MOL0     C 6645   2.656   1.476   7.117 -0.0427  0.5254 -0.3128
   49MOL0     C 6646   2.584   1.497   7.246 -1.4490  0.6198  0.3637
   49MOL0     C 6647   2.658   1.422   7.365 -0.2168  0.8547  0.4260
   49MOL0     O 6648   2.786   1.482   7.407 -0.1670  0.6619 -0.6626
   49MOL0     C 6649   2.859   1.422   7.506  0.7343 -0.3910 -1.1819
   49MOL0     C 6650   2.799   1.365   7.622  0.3315 -0.4016  0.7115
   49MOL0     C 6651   2.870   1.321   7.735 -0.0556  0.1048 -0.3345
   49MOL0     C 6652   2.783   1.275   7.857 -0.2367  0.5434 -0.0505
   49MOL0     C 6653   3.014   1.340   7.739 -0.1130 -0.2209  0.4848
   49MOL0     C 6654   3.096   1.309   7.856 -0.9337  0.9119 -0.4287
   49MOL0     O 6655   3.222   1.347   7.831  0.1239 -0.1253 -0.7545
   49MOL0     C 6656   3.312   1.382   7.930 -0.3052  0.1427  1.3095
   49MOL0     C 6657   3.444   1.342   7.916 -0.5224 -0.6643 -0.2748
   49MOL0     C 6658   3.546   1.391   8.004 -0.3832 -0.5881  0.0826
   49MOL0     C 6659   3.505   1.462   8.117  0.5603 -0.0068 -0.2564
   49MOL0     O 6660   3.592   1.501   8.212  0.1209 -0.4613  0.1090
   49MOL0     C 6661   3.727   1.523   8.191  0.2896  0.7518  0.6195
   49MOL0     C 6662   3.761   1.627   8.083 -0.2501 -0.4656 -0.5598
   49MOL0     C 6663   3.910   1.664   8.092 -0.6443 -0.4026  0.2238
   49MOL0     C 6664   3.935   1.803   8.145  0.0961 -0.5375 -1.1359
   49MOL0     C 6665   4.091   1.811   8.178 -0.2631 -0.2083  0.4575
   49MOL0     C 6666   4.144   1.937   8.255 -1.2835  0.5380 -0.0750
   49MOL0     C 6667   4.133   2.067   8.175  0.5530  0.1163  0.0476
   49MOL0     C 6668   4.174   2.189   8.262  0.4497 -0.8690 -0.6801
   49MOL0    Cl 6669   4.354   2.173   8.301 -0.0751 -0.4988 -0.4873
   49MOL0     C 6670   3.367   1.501   8.130 -0.8216  0.5111  0.8673
   49MOL0     C 6671   3.278   1.465   8.038  0.0942 -0.2491 -0.5841
   49MOL0     O 6672   3.057   1.279   7.963  0.0010  0.6111 -0.1640
   49MOL0     C 6673   3.069   1.375   7.613  0.1246  0.5624 -0.5706
   49MOL0     C 6674   2.993   1.422   7.506 -0.6195  0.7305 -0.9766
   49MOL0     N 6675   2.413   1.376   6.956 -0.2241  0.0519 -1.4167
   49MOL0     N 6676   2.303   1.384   6.891 -0.0576  0.8360 -0.1846
   49MOL0     C 6677   1.310   2.061   7.091 -0.1497 -1.0468  0.5757
   49MOL0     C 6678   1.175   2.112   7.082 -0.6889  0.5389 -0.0869
   49MOL0     C 6679   0.741   2.164   7.018 -0.0615  1.1310  0.6382
   49MOL0     C 6680   0.665   2.221   7.120 -0.5229 -0.5692 -0.5465
   49MOL0     C 6681   0.520   2.230   7.119 -0.1574  0.0791  0.1607
   49MOL0     C 6682   0.458   2.200   6.996  0.4061 -0.2778 -0.6278
   49MOL0     O 6683   0.322   2.219   6.971 -0.1528  0.3999 -0.6918
   49MOL0     C 6684   0.245   2.246   7.091  0.6224  0.4923  0.8039
   49MOL0     C 6685   0.104   2.250   7.023  0.4624 -0.0467  0.3624
   49MOL0     C 6686   0.014   2.314   7.134  1.0048 -0.9140  0.0237
   49MOL0     C 6687  -0.122   2.345   7.089 -0.5819  0.0716 -0.8114
   49MOL0     C 6688  -0.196   2.230   7.056  0.6369  0.4493 -0.3227
   49MOL0     C 6689  -0.252   2.130   7.025  0.5736 -0.1534  0.2532
   49MOL0     C 6690   0.537   2.138   6.900 -0.1671 -0.9986  0.1431
   49MOL0     C 6691   0.670   2.119   6.905 -0.1838 -0.3742 -0.3475
   49MOL0     C 6692   0.731   2.044   6.784 -0.0215 -0.8239 -0.7630
   49MOL0     H 6693   1.075   1.897   6.832 -4.1233  1.2287  1.6782
   49MOL0     H 6694   1.323   1.849   6.832  3.7768  2.9123 -0.4754
   49MOL0     H 6695   1.482   1.752   6.912  0.0762 -1.6669  2.7761
   49MOL0     H 6696   1.629   1.776   7.007  1.0919  2.5351 -0.4746
   49MOL0     H 6697   1.566   1.931   6.738 -0.3078 -3.2523 -0.6551
   49MOL0     H 6698   1.678   1.993   6.863 -3.6347  2.1943  1.2724
   49MOL0     H 6699   1.673   1.709   6.734  0.2735  0.1712 -3.6414
   49MOL0     H 6700   1.744   1.847   6.658  0.6676  0.5760  1.0189
   49MOL0     H 6701   1.925   1.847   6.797 -2.2275  0.6452 -5.4462
   49MOL0     H 6702   1.837   1.810   6.946  0.7162  0.7391 -0.0594
   49MOL0     H 6703   1.858   1.591   6.741  2.3805  1.4663 -1.6268
   49MOL0     H 6704   1.828   1.579   6.917 -1.5376  2.0565 -0.4710
   49MOL0     H 6705   2.076   1.624   6.946 -1.9909 -0.2285  1.0222
   49MOL0     H 6706   2.012   1.484   6.851 -0.2173  0.1166  1.0766
   49MOL0     H 6707   2.147   1.723   6.713  1.9404 -1.6405 -1.4931
   49MOL0     H 6708   2.044   1.611   6.628  0.6189  1.1597 -0.6362
   49MOL0     H 6709   2.179   1.430   6.652 -0.5666 -0.7467  2.8792
   49MOL0     H 6710   2.290   1.562   6.607 -0.5521 -0.4619 -1.4408
   49MOL0     H 6711   2.441   1.666   6.789 -1.4795 -0.9550 -1.8236
   49MOL0     H 6712   2.572   1.654   7.035  0.6698  1.1107 -0.3455
   49MOL0     H 6713   2.662   1.544   6.918 -0.6210  0.0476  0.2813
   49MOL0     H 6714   2.661   1.371   7.086 -3.1266  0.4688 -1.0233
   49MOL0     H 6715   2.762   1.497   7.133 -0.1819  0.3612  0.8470
   49MOL0     H 6716   2.582   1.604   7.269 -1.8688  1.0846 -1.6350
   49MOL0     H 6717   2.482   1.457   7.242 -0.4138 -2.2443 -2.9200
   49MOL0     H 6718   2.588   1.419   7.448  0.4880  0.1612  1.0068
   49MOL0     H 6719   2.669   1.315   7.345 -0.3526  0.9827 -0.3664
   49MOL0     H 6720   2.692   1.362   7.637  0.1156 -2.2250 -0.8331
   49MOL0     H 6721   2.677   1.300   7.849 -0.5396 -0.1098  1.4191
   49MOL0     H 6722   2.825   1.329   7.943  0.7974 -0.1962 -0.0656
   49MOL0     H 6723   2.789   1.166   7.869  1.2743  0.7473  1.5273
   49MOL0     H 6724   3.466   1.269   7.839 -0.9164  0.3075 -1.3457
   49MOL0     H 6725   3.649   1.358   7.995  0.2756  1.2617  0.4298
   49MOL0     H 6726   3.768   1.538   8.291  0.2902 -3.3963  1.4307
   49MOL0     H 6727   3.769   1.433   8.145 -3.4098  0.2977 -2.3784
   49MOL0     H 6728   3.737   1.597   7.980 -1.2874 -0.5064 -0.3244
   49MOL0     H 6729   3.705   1.718   8.106  0.4646 -0.0273 -0.5528
   49MOL0     H 6730   3.957   1.652   7.994  2.1852  3.3661  0.9079
   49MOL0     H 6731   3.971   1.606   8.163 -2.0808  0.2047  2.0350
   49MOL0     H 6732   3.876   1.823   8.235  3.6199  0.9960  1.0660
   49MOL0     H 6733   3.913   1.873   8.064 -0.2794 -1.9106 -2.2572
   49MOL0     H 6734   4.115   1.727   8.243 -1.5353  1.2264  2.9003
   49MOL0     H 6735   4.148   1.783   8.089  0.3977  1.6303  0.2535
   49MOL0     H 6736   4.245   1.912   8.288 -1.7536  3.3597  4.3141
   49MOL0     H 6737   4.091   1.946   8.351  0.7071 -1.6789  1.3353
   49MOL0     H 6738   4.030   2.076   8.139  1.0569  1.6517 -1.1290
   49MOL0     H 6739   4.200   2.069   8.088  1.1436 -0.0853  0.4910
   49MOL0     H 6740   4.111   2.194   8.351  0.4740  1.6569 -0.7416
   49MOL0     H 6741   4.165   2.284   8.209  0.1050  0.6272  1.9137
   49MOL0     H 6742   3.344   1.547   8.225  1.4598 -1.7641  2.6284
   49MOL0     H 6743   3.182   1.514   8.039 -0.1748 -0.5650  3.0352
   49MOL0     H 6744   3.176   1.375   7.602  0.4103  0.2803  1.6396
   49MOL0     H 6745   3.036   1.476   7.423  0.1490  1.3063 -0.2151
   49MOL0     H 6746   1.366   2.120   7.162 -2.7825  0.5357  1.4688
   49MOL0     H 6747   1.153   2.188   7.156 -2.3247 -1.6804  1.8548
   49MOL0     H 6748   0.715   2.258   7.209 -1.6969  1.0057 -0.5008
   49MOL0     H 6749   0.473   2.261   7.211  0.6037 -1.0614  0.9662
   49MOL0     H 6750   0.258   2.169   7.168  2.0667  0.3848  0.4813
   49MOL0     H 6751   0.264   2.346   7.132 -0.9201  1.4760 -0.7242
   49MOL0     H 6752   0.080   2.146   7.000  1.3765 -0.4080  0.9834
   49MOL0     H 6753   0.106   2.311   6.932 -0.7762  0.4746  0.6592
   49MOL0     H 6754   0.003   2.250   7.222 -0.4050 -0.3901  0.2456
   49MOL0     H 6755   0.053   2.409   7.172 -0.1531 -1.0317  1.5690
   49MOL0     H 6756  -0.127   2.422   7.012 -2.0865 -0.5306 -1.3601
   49MOL0     H 6757  -0.173   2.390   7.175  2.7024  1.4604  0.5600
   49MOL0     H 6758  -0.301   2.038   7.001  2.7400 -1.3003 -0.0216
   49MOL0     H 6759   0.469   2.110   6.821  1.4305 -1.7358 -1.0240
   49MOL0     H 6760   0.786   1.953   6.809  1.0662  0.0545  0.1382
   49MOL0     H 6761   0.653   2.019   6.712  3.0517 -2.9304 -3.6702
   49MOL0     H 6762   0.801   2.117   6.742 -2.3256  2.3504  0.5114
   50MOL0     O 6763   6.873   5.870   4.924  0.2728 -0.0306 -0.1730
   50MOL0     C 6764   6.953   5.790   4.869  0.1299 -0.0971  1.0016
   50MOL0     O 6765   7.076   5.820   4.814 -0.3031 -0.6338 -0.3994
   50MOL0     C 6766   7.142   5.940   4.826  0.4522  0.5307 -0.9121
   50MOL0     C 6767   7.068   6.062   4.837 -0.3560  0.1595  0.4812
   50MOL0     C 6768   7.135   6.179   4.857 -1.1516  0.1571  0.1848
   50MOL0     C 6769   7.271   6.183   4.848 -0.2227 -1.1372  0.1749
   50MOL0     O 6770   7.321   6.309   4.876 -0.5209  0.1861  0.0278
   50MOL0     C 6771   7.458   6.317   4.897 -0.1577 -0.3165 -0.8585
   50MOL0     C 6772   7.481   6.478   4.929 -0.8920 -0.7183 -0.1725
   50MOL0     C 6773   7.615   6.500   4.994 -0.2904  0.5083 -0.2099
   50MOL0     C 6774   7.644   6.649   5.020 -0.2644  0.9757 -0.7196
   50MOL0     C 6775   7.768   6.661   5.110 -0.7421  0.1113  0.1472
   50MOL0     C 6776   7.802   6.802   5.163  0.0961  0.4060 -0.2182
   50MOL0     C 6777   7.946   6.812   5.227  0.4492  0.4884  0.1118
   50MOL0     C 6778   7.968   6.947   5.279 -0.2914 -0.2908 -0.2791
   50MOL0     N 6779   8.110   6.992   5.306  0.0601 -0.0453 -0.2356
   50MOL0     C 6780   8.206   7.009   5.207 -0.0493  0.0187 -0.1274
   50MOL0     C 6781   8.318   7.030   5.274 -0.2090  0.2405  0.2883
   50MOL0     C 6782   8.462   7.027   5.219  0.0272  0.2074  0.8933
   50MOL0     C 6783   8.522   7.173   5.200  1.0207 -0.1213  0.0398
   50MOL0     C 6784   8.679   7.182   5.179 -0.3788  0.4203  0.4029
   50MOL0     C 6785   8.772   7.138   5.297 -0.6426 -0.4415 -0.4296
   50MOL0     O 6786   8.782   7.236   5.400  0.9140  0.2037  0.3362
   50MOL0     C 6787   8.872   7.340   5.390  1.1823  0.7751  0.2990
   50MOL0     C 6788   8.836   7.455   5.453  1.0119 -0.4709  0.3418
   50MOL0     C 6789   8.910   7.577   5.447 -0.2752  0.9386  0.6566
   50MOL0     C 6790   8.860   7.707   5.507 -0.7862 -0.5591  0.2182
   50MOL0     C 6791   9.034   7.576   5.383  0.2605 -0.5716  0.6033
   50MOL0     C 6792   9.127   7.682   5.365 -0.0329  0.5051 -0.6740
   50MOL0     O 6793   9.208   7.671   5.255  0.2045 -0.3173 -0.1549
   50MOL0     C 6794   9.305   7.766   5.231 -0.2159 -0.1121 -0.0342
   50MOL0     C 6795   9.423   7.708   5.191 -0.5938 -0.1290  0.3184
   50MOL0     C 6796   9.530   7.790   5.155 -0.0406  0.4809 -0.3497
   50MOL0     C 6797   9.525   7.929   5.165  0.0526  0.2150 -0.5985
   50MOL0     O 6798   9.627   7.999   5.109 -0.5788 -0.5181  0.4295
   50MOL0     C 6799   9.585   8.072   4.999  0.1631  0.2538  0.6735
   50MOL0     C 6800   9.700   8.149   4.930 -0.4829 -1.1933 -0.0369
   50MOL0     C 6801   9.820   8.060   4.907 -0.1262  0.0636  0.5186
   50MOL0     C 6802   9.938   8.065   5.006  0.8173  0.2210 -0.1390
   50MOL0     C 6803  10.071   8.045   4.930  0.9888 -0.2659 -0.4361
   50MOL0     C 6804  10.198   8.016   5.010 -0.3205 -0.9272  0.2188
   50MOL0     C 6805  10.301   7.970   4.903 -0.3433 -0.5482 -0.2067
   50MOL0     C 6806  10.439   7.999   4.965  0.2699  0.2716  0.4564
   50MOL0    Cl 6807  10.465   7.880   5.088  0.4036  0.1098 -0.3635
   50MOL0     C 6808   9.412   7.988   5.220  0.2584 -0.0299  0.6351
   50MOL0     C 6809   9.295   7.907   5.244 -0.2956  0.3015  0.1111
   50MOL0     O 6810   9.151   7.758   5.460  0.4111  0.3305 -0.2714
   50MOL0     C 6811   9.082   7.450   5.329  0.3373 -0.1118 -0.0165
   50MOL0     C 6812   8.997   7.331   5.330 -0.8374  0.3126  0.4138
   50MOL0     N 6813   8.289   7.033   5.410  0.6258  0.0584  0.2557
   50MOL0     N 6814   8.168   6.998   5.422 -0.2582  0.1561  0.3495
   50MOL0     C 6815   7.346   6.069   4.829  0.1992 -0.3456  0.6215
   50MOL0     C 6816   7.278   5.944   4.807  0.1845 -1.3176 -0.9978
   50MOL0     C 6817   6.914   5.649   4.853 -0.6279 -0.0047 -0.6300
   50MOL0     C 6818   6.979   5.541   4.921  0.8051  0.0934 -0.4274
   50MOL0     C 6819   6.917   5.411   4.922  0.4690 -0.8970 -0.3038
   50MOL0     C 6820   6.800   5.397   4.849  0.2773  0.3292  0.2695
   50MOL0     O 6821   6.737   5.280   4.858  0.5431  0.6568  0.0198
   50MOL0     C 6822   6.787   5.159   4.924 -0.1982 -0.2151  0.6633
   50MOL0     C 6823   6.777   5.165   5.081 -0.1326 -0.3098 -0.4392
   50MOL0     C 6824   6.627   5.144   5.121 -0.6977  0.4121  0.2083
   50MOL0     C 6825   6.559   5.277   5.159  0.0959 -0.1245  0.3970
   50MOL0     C 6826   6.415   5.253   5.184  0.1052 -0.0396 -0.1161
   50MOL0     C 6827   6.302   5.236   5.225 -0.3564 -0.4541 -0.3097
   50MOL0     C 6828   6.744   5.494   4.773 -0.4797 -0.5472 -0.0055
   50MOL0     C 6829   6.803   5.621   4.779  0.0620  1.2436  0.2530
   50MOL0     C 6830   6.732   5.718   4.696  0.6020  0.8454 -0.3984
   50MOL0     H 6831   6.960   6.064   4.832 -0.3983 -1.6773 -0.2002
   50MOL0     H 6832   7.079   6.273   4.854 -1.0362  0.2220  0.0713
   50MOL0     H 6833   7.530   6.287   4.819  2.9226 -0.1308  1.6962
   50MOL0     H 6834   7.483   6.261   4.988  3.4341  1.0526 -0.8380
   50MOL0     H 6835   7.477   6.530   4.833  1.3681 -0.5135 -0.2092
   50MOL0     H 6836   7.405   6.509   5.002  0.8154  4.6347 -0.2812
   50MOL0     H 6837   7.625   6.437   5.083  0.8541 -3.1369 -2.6772
   50MOL0     H 6838   7.701   6.474   4.932 -1.5018 -0.4462 -1.5750
   50MOL0     H 6839   7.674   6.697   4.926  1.1176  0.6724 -0.4592
   50MOL0     H 6840   7.559   6.709   5.055  0.4603  0.3253  2.3940
   50MOL0     H 6841   7.854   6.626   5.051  0.2144  3.1112 -0.3989
   50MOL0     H 6842   7.753   6.602   5.201  0.4865 -3.5752 -1.8300
   50MOL0     H 6843   7.814   6.861   5.071  4.1765  0.5876  0.2513
   50MOL0     H 6844   7.713   6.822   5.224  1.0076 -0.3436  1.4174
   50MOL0     H 6845   8.024   6.800   5.151 -1.3047  2.3016 -2.1297
   50MOL0     H 6846   7.960   6.737   5.305  1.3769 -2.2601 -2.4980
   50MOL0     H 6847   7.923   7.022   5.214  3.7833  0.7484 -2.2587
   50MOL0     H 6848   7.906   6.950   5.369 -3.0838 -0.4269 -2.0785
   50MOL0     H 6849   8.195   6.994   5.100 -0.3780  1.0489 -0.2489
   50MOL0     H 6850   8.455   6.973   5.125 -1.7207  0.2729  0.9466
   50MOL0     H 6851   8.517   6.961   5.287  1.3731 -1.0787 -1.3486
   50MOL0     H 6852   8.472   7.219   5.113  0.5732 -0.7780 -0.0581
   50MOL0     H 6853   8.494   7.240   5.282 -1.5653 -0.2357 -0.6629
   50MOL0     H 6854   8.700   7.114   5.096  0.7434  0.8753  0.2950
   50MOL0     H 6855   8.708   7.283   5.149 -0.7302  0.4093  0.0118
   50MOL0     H 6856   8.753   7.043   5.348 -0.1535 -0.9639 -1.1907
   50MOL0     H 6857   8.864   7.106   5.248  0.0589  0.7048  0.1020
   50MOL0     H 6858   8.737   7.461   5.497  0.3357 -1.4959 -0.9381
   50MOL0     H 6859   8.906   7.715   5.606 -0.7870 -1.8328  0.3454
   50MOL0     H 6860   8.751   7.707   5.517 -1.0036  1.5275 -1.4298
   50MOL0     H 6861   8.890   7.790   5.443  0.8771 -1.3304 -0.0623
   50MOL0     H 6862   9.433   7.600   5.186 -2.3453 -0.2688 -0.8307
   50MOL0     H 6863   9.627   7.750   5.126 -1.3885 -1.1534 -3.0468
   50MOL0     H 6864   9.542   8.002   4.927 -0.8297  0.9443  0.5780
   50MOL0     H 6865   9.495   8.129   5.024 -1.0515  0.3136 -3.2246
   50MOL0     H 6866   9.668   8.181   4.830  2.8502 -0.4528 -1.0144
   50MOL0     H 6867   9.718   8.241   4.985 -1.7428 -2.6400  3.0465
   50MOL0     H 6868   9.861   8.092   4.811 -0.9599 -0.6704 -0.1102
   50MOL0     H 6869   9.784   7.959   4.885 -1.9660  0.9772 -1.0401
   50MOL0     H 6870   9.925   7.991   5.085  0.9122 -0.3595 -0.6661
   50MOL0     H 6871   9.939   8.166   5.050 -0.2588  0.1379  0.0823
   50MOL0     H 6872  10.046   7.967   4.858  1.0582  1.8037 -2.8452
   50MOL0     H 6873  10.082   8.137   4.872 -0.0072 -0.7886 -1.4900
   50MOL0     H 6874  10.188   7.937   5.085 -2.9649 -2.0758 -1.1962
   50MOL0     H 6875  10.228   8.112   5.052 -0.5917 -1.3979  1.5433
   50MOL0     H 6876  10.308   8.035   4.815  1.3359  0.8067  0.8604
   50MOL0     H 6877  10.288   7.865   4.876 -2.2162 -0.3927 -0.0296
   50MOL0     H 6878  10.435   8.101   5.005 -1.5176  0.5454 -0.3233
   50MOL0     H 6879  10.514   7.997   4.886 -0.7396 -2.3611 -0.5151
   50MOL0     H 6880   9.406   8.096   5.228 -0.9704  0.0021 -0.4274
   50MOL0     H 6881   9.202   7.960   5.262 -1.3213 -1.2079 -0.5501
   50MOL0     H 6882   9.184   7.443   5.292 -0.1534 -1.5693 -1.1779
   50MOL0     H 6883   9.040   7.239   5.291  1.8472  1.2269  0.9964
   50MOL0     H 6884   7.453   6.059   4.842  0.3118 -1.1957 -0.7132
   50MOL0     H 6885   7.320   5.846   4.786 -0.5046 -1.3565 -2.3279
   50MOL0     H 6886   7.062   5.559   4.989 -1.2483  0.4642  2.1538
   50MOL0     H 6887   6.973   5.331   4.971  1.2351  0.6608  1.5122
   50MOL0     H 6888   6.730   5.071   4.891  0.1711 -0.3608  0.4016
   50MOL0     H 6889   6.887   5.138   4.884 -1.5383 -1.2081 -2.4579
   50MOL0     H 6890   6.809   5.261   5.122 -1.7414 -0.1022  0.4350
   50MOL0     H 6891   6.830   5.085   5.133 -0.5415 -0.2508  0.0933
   50MOL0     H 6892   6.570   5.096   5.041  1.2625 -0.4239 -0.7423
   50MOL0     H 6893   6.617   5.085   5.212 -2.5745  2.5177  1.4746
   50MOL0     H 6894   6.563   5.343   5.072  1.5719 -0.5473  0.1201
   50MOL0     H 6895   6.607   5.331   5.242  1.0817  0.1947 -0.3622
   50MOL0     H 6896   6.209   5.237   5.279  1.1326  2.5021  2.4728
   50MOL0     H 6897   6.658   5.469   4.712 -0.0591 -2.2624  0.0651
   50MOL0     H 6898   6.800   5.740   4.613  0.5914 -0.1117 -0.6708
   50MOL0     H 6899   6.638   5.676   4.659  0.5852  1.7379 -1.4252
   50MOL0     H 6900   6.697   5.808   4.747  3.1644  1.7562 -0.1300
   51MOL0     O 6901   6.167   1.746   3.951  0.6197  0.0289  0.1639
   51MOL0     C 6902   6.256   1.784   3.888  0.4980  1.3745  0.2581
   51MOL0     O 6903   6.266   1.802   3.753  0.2509 -0.0246 -0.1336
   51MOL0     C 6904   6.183   1.726   3.676 -0.6317 -0.9547  0.4914
   51MOL0     C 6905   6.054   1.777   3.661  0.3306  0.0359  0.5184
   51MOL0     C 6906   5.977   1.725   3.553 -1.1317 -1.1870 -0.6559
   51MOL0     C 6907   6.023   1.624   3.476  0.2069  0.4318  1.0487
   51MOL0     O 6908   5.951   1.569   3.377 -0.7605  0.4209 -0.4196
   51MOL0     C 6909   5.868   1.650   3.292 -0.5902 -0.2924 -0.5661
   51MOL0     C 6910   5.945   1.720   3.174  0.5613 -0.8822  0.4914
   51MOL0     C 6911   5.954   1.881   3.177 -0.3948  0.7095  0.1781
   51MOL0     C 6912   6.065   1.929   3.265 -0.7441  0.3834 -0.9230
   51MOL0     C 6913   6.066   2.082   3.245 -0.1330 -1.3132  0.6266
   51MOL0     C 6914   6.164   2.135   3.132 -0.3005 -0.6814  0.3920
   51MOL0     C 6915   6.169   2.291   3.136 -0.0192 -0.2023  0.2947
   51MOL0     C 6916   6.276   2.350   3.037  0.0723  0.9507 -0.7685
   51MOL0     N 6917   6.263   2.494   3.019  0.5954  0.4589  0.0238
   51MOL0     C 6918   6.156   2.555   2.949 -0.5014 -0.7372 -0.7172
   51MOL0     C 6919   6.155   2.683   2.989  1.0842 -0.5283  0.3960
   51MOL0     C 6920   6.029   2.767   2.976  0.0560 -0.6152 -0.0168
   51MOL0     C 6921   5.900   2.688   3.026  0.0371  0.1213  0.5644
   51MOL0     C 6922   5.851   2.707   3.167 -0.3966  0.0003  0.3685
   51MOL0     C 6923   5.752   2.597   3.209  0.6226  0.2429  0.3496
   51MOL0     O 6924   5.627   2.598   3.143  0.1998 -0.0651  0.2809
   51MOL0     C 6925   5.516   2.529   3.206  0.1251 -0.2192  0.3554
   51MOL0     C 6926   5.391   2.533   3.153 -0.2946  0.0237 -0.0059
   51MOL0     C 6927   5.279   2.491   3.223 -0.0767  0.1882 -0.5654
   51MOL0     C 6928   5.143   2.526   3.161 -0.3523  0.6370 -0.1164
   51MOL0     C 6929   5.294   2.411   3.342  0.4600 -0.2277  0.5457
   51MOL0     C 6930   5.179   2.355   3.422 -0.2175 -0.7646  1.0164
   51MOL0     O 6931   5.187   2.218   3.440  0.2886  0.1861  1.0176
   51MOL0     C 6932   5.091   2.160   3.519 -0.9066 -0.0864  0.2569
   51MOL0     C 6933   5.089   2.180   3.658 -0.2377 -0.2603  0.3283
   51MOL0     C 6934   4.987   2.128   3.737 -0.1589 -0.0909  0.1803
   51MOL0     C 6935   4.887   2.045   3.676  0.0232 -0.8803 -0.1439
   51MOL0     O 6936   4.775   2.009   3.740 -0.0922 -0.3825 -0.5625
   51MOL0     C 6937   4.704   2.123   3.809  0.7989  0.7278  1.2355
   51MOL0     C 6938   4.563   2.079   3.835  0.4525  0.0722 -0.3706
   51MOL0     C 6939   4.492   2.017   3.717  0.2004 -0.7718  1.0321
   51MOL0     C 6940   4.373   1.935   3.757  0.0485  0.5846 -0.0218
   51MOL0     C 6941   4.363   1.806   3.671 -0.2853  0.1431 -0.1059
   51MOL0     C 6942   4.360   1.824   3.521 -0.0580 -0.4954 -0.9485
   51MOL0     C 6943   4.256   1.717   3.454 -0.5913 -0.6160  0.3337
   51MOL0     C 6944   4.299   1.577   3.454  0.0851 -0.4273 -0.1753
   51MOL0    Cl 6945   4.446   1.577   3.355  0.0648  0.3260 -0.1977
   51MOL0     C 6946   4.889   2.028   3.536  0.1975  0.5074 -0.0592
   51MOL0     C 6947   4.995   2.087   3.455  0.1629 -0.4797  0.0684
   51MOL0     O 6948   5.083   2.431   3.444 -0.1876  0.2280 -0.0959
   51MOL0     C 6949   5.420   2.403   3.400  0.2687 -0.4864  0.6617
   51MOL0     C 6950   5.526   2.467   3.335  0.9725  0.8213 -0.2221
   51MOL0     N 6951   6.260   2.707   3.072 -0.3159  0.1824 -0.2121
   51MOL0     N 6952   6.333   2.595   3.088  0.6671 -0.1610  0.6745
   51MOL0     C 6953   6.148   1.569   3.501  0.0793 -0.9850 -0.1026
   51MOL0     C 6954   6.230   1.630   3.596 -1.4545  0.2385 -0.1119
   51MOL0     C 6955   6.382   1.821   3.958  0.1676 -1.0315  0.0762
   51MOL0     C 6956   6.500   1.814   3.885 -0.0009 -0.2798  0.0356
   51MOL0     C 6957   6.626   1.841   3.941  0.3737  0.8649 -0.4058
   51MOL0     C 6958   6.628   1.887   4.074 -1.1644  0.8446  0.1938
   51MOL0     O 6959   6.753   1.918   4.134 -0.6722  1.0339 -0.9460
   51MOL0     C 6960   6.830   1.796   4.169 -0.2188  0.0100 -0.0878
   51MOL0     C 6961   6.952   1.848   4.256 -0.3073  0.0401  0.0499
   51MOL0     C 6962   7.032   1.975   4.208  0.2339  0.9083  0.0878
   51MOL0     C 6963   7.143   2.018   4.293  0.0811  0.4978 -0.4661
   51MOL0     C 6964   7.252   1.912   4.282  0.0783  0.7162  0.5123
   51MOL0     C 6965   7.360   1.852   4.275  0.5867 -0.0790  1.1088
   51MOL0     C 6966   6.513   1.898   4.145 -0.3967 -0.2647  0.7435
   51MOL0     C 6967   6.387   1.865   4.091  0.5039  0.4534 -0.7370
   51MOL0     C 6968   6.270   1.895   4.178  0.3347  0.8334  0.1352
   51MOL0     H 6969   6.023   1.864   3.718 -1.3088  1.2321 -2.0253
   51MOL0     H 6970   5.875   1.764   3.554 -1.2056 -1.2968  1.6001
   51MOL0     H 6971   5.810   1.719   3.354  2.0350  0.2431  1.5001
   51MOL0     H 6972   5.800   1.583   3.239  0.4201  0.2846 -2.6977
   51MOL0     H 6973   6.045   1.678   3.166 -0.0078 -3.0233  3.0425
   51MOL0     H 6974   5.894   1.695   3.080 -1.3837  4.0196 -0.0862
   51MOL0     H 6975   5.967   1.910   3.072 -0.6840  0.9709  0.2120
   51MOL0     H 6976   5.860   1.926   3.209 -1.0788  0.5444 -1.4908
   51MOL0     H 6977   6.039   1.903   3.368  0.3488  0.9646 -0.4764
   51MOL0     H 6978   6.156   1.879   3.229 -0.6909  0.1945 -0.5306
   51MOL0     H 6979   6.113   2.106   3.340 -0.4933  1.9072  0.1025
   51MOL0     H 6980   5.973   2.138   3.227  1.4878  0.6478 -2.6427
   51MOL0     H 6981   6.270   2.108   3.138  0.3778  1.9049  1.3706
   51MOL0     H 6982   6.119   2.099   3.039 -0.0034 -1.6352  0.6034
   51MOL0     H 6983   6.193   2.322   3.238  2.4277 -1.1081  0.0582
   51MOL0     H 6984   6.074   2.332   3.098  1.5463  2.0239 -1.5561
   51MOL0     H 6985   6.379   2.329   3.067 -0.3577 -0.6136 -0.2958
   51MOL0     H 6986   6.265   2.297   2.942 -0.6679 -0.3118  0.0037
   51MOL0     H 6987   6.078   2.510   2.888  0.9466 -1.5970 -2.0057
   51MOL0     H 6988   6.015   2.790   2.870 -0.0822 -1.1739 -0.1240
   51MOL0     H 6989   6.031   2.866   3.022 -0.4360 -0.8806  0.5923
   51MOL0     H 6990   5.811   2.722   2.972  0.7022  2.4807  0.8338
   51MOL0     H 6991   5.901   2.581   3.004 -2.7385  0.2956 -0.8592
   51MOL0     H 6992   5.934   2.709   3.238  1.3332  3.3497 -1.4948
   51MOL0     H 6993   5.810   2.808   3.167 -2.2711 -0.7105 -0.1219
   51MOL0     H 6994   5.791   2.499   3.180  2.0159 -0.1087  3.0702
   51MOL0     H 6995   5.741   2.583   3.317 -2.2187 -0.7517  0.0120
   51MOL0     H 6996   5.374   2.581   3.057  0.0494  1.4246  0.6078
   51MOL0     H 6997   5.158   2.582   3.068 -4.2600  0.0491 -1.2884
   51MOL0     H 6998   5.059   2.569   3.216 -1.9120  1.0486 -2.6582
   51MOL0     H 6999   5.103   2.430   3.128 -2.3197  1.4554 -0.2218
   51MOL0     H 7000   5.165   2.246   3.698 -0.0075  0.4692 -1.2242
   51MOL0     H 7001   4.982   2.162   3.840  2.2021 -3.0670  1.4537
   51MOL0     H 7002   4.751   2.135   3.907  4.2681 -0.7583 -0.0762
   51MOL0     H 7003   4.695   2.216   3.753 -0.7766  1.4214  2.5771
   51MOL0     H 7004   4.551   2.003   3.914 -3.0020  0.2545 -0.5849
   51MOL0     H 7005   4.508   2.164   3.874  2.4221  0.3778  2.0121
   51MOL0     H 7006   4.554   1.959   3.649  0.2461 -0.6035  0.9309
   51MOL0     H 7007   4.450   2.103   3.665 -1.8307 -1.2394  1.7789
   51MOL0     H 7008   4.280   1.993   3.745  1.4725  2.5343 -2.6690
   51MOL0     H 7009   4.370   1.890   3.856  1.0008 -0.0949 -0.2986
   51MOL0     H 7010   4.436   1.735   3.711 -2.3782 -3.3349 -1.9017
   51MOL0     H 7011   4.267   1.758   3.695 -0.2977  0.2950  0.1559
   51MOL0     H 7012   4.462   1.815   3.484  0.9255 -0.0914  1.4981
   51MOL0     H 7013   4.328   1.927   3.505  1.1059 -0.2153 -1.5666
   51MOL0     H 7014   4.252   1.747   3.349 -0.6008 -3.1547 -0.4565
   51MOL0     H 7015   4.155   1.724   3.497 -0.7081 -1.8291  0.2931
   51MOL0     H 7016   4.219   1.509   3.423  0.9968 -1.9061  0.5838
   51MOL0     H 7017   4.320   1.544   3.556  0.4388  3.1525  1.0197
   51MOL0     H 7018   4.817   1.956   3.497  0.9585  0.0452 -0.6311
   51MOL0     H 7019   4.988   2.068   3.348  0.7761 -1.4601  0.1907
   51MOL0     H 7020   5.430   2.355   3.497  1.2802  0.4044  1.0206
   51MOL0     H 7021   5.610   2.465   3.404  1.5801 -1.3161 -0.9336
   51MOL0     H 7022   6.192   1.492   3.438 -0.3138  0.4542 -2.2437
   51MOL0     H 7023   6.329   1.587   3.606 -1.5836 -0.1246 -0.3766
   51MOL0     H 7024   6.493   1.785   3.781  2.3297  0.4722 -0.3742
   51MOL0     H 7025   6.706   1.826   3.869  0.9912  0.4970  0.3458
   51MOL0     H 7026   6.786   1.707   4.215  0.6179 -0.5333 -0.3270
   51MOL0     H 7027   6.872   1.757   4.076 -0.7088  1.8266 -1.1118
   51MOL0     H 7028   7.025   1.767   4.254  1.1337  1.2676  1.0090
   51MOL0     H 7029   6.932   1.866   4.362 -3.5227 -1.4004 -0.1949
   51MOL0     H 7030   7.053   1.972   4.101  0.2484  4.4417 -0.0958
   51MOL0     H 7031   6.962   2.058   4.209  0.3556  1.0971 -2.1914
   51MOL0     H 7032   7.100   2.025   4.394 -0.9098 -0.5841 -0.7905
   51MOL0     H 7033   7.179   2.119   4.270 -0.0039  1.2784  2.4070
   51MOL0     H 7034   7.453   1.800   4.267  1.0201  0.9265 -1.0696
   51MOL0     H 7035   6.507   1.914   4.252 -3.3606  0.6660  0.5347
   51MOL0     H 7036   6.226   1.807   4.224 -3.5636  0.8313 -3.0306
   51MOL0     H 7037   6.305   1.963   4.257 -0.5038  1.7286 -0.2400
   51MOL0     H 7038   6.185   1.945   4.130 -1.1280 -2.8378 -1.4863
   52MOL0     O 7039   4.728   1.901   1.402 -0.3473  0.6146 -0.1881
   52MOL0     C 7040   4.677   1.889   1.516 -0.5367 -0.6212  0.3516
   52MOL0     O 7041   4.755   1.887   1.630  0.7195 -0.8794  0.5334
   52MOL0     C 7042   4.890   1.914   1.609  0.0768 -1.1642  0.1179
   52MOL0     C 7043   4.978   1.810   1.588 -0.6295  0.0142 -0.0799
   52MOL0     C 7044   5.118   1.843   1.567  0.3506  0.0970 -0.2462
   52MOL0     C 7045   5.168   1.976   1.583  0.3480 -0.2448  1.3636
   52MOL0     O 7046   5.307   1.989   1.550 -1.0328 -0.2864 -0.2073
   52MOL0     C 7047   5.365   2.116   1.573  0.0845 -0.2260 -0.7365
   52MOL0     C 7048   5.519   2.126   1.557  0.3610 -0.0138 -0.9577
   52MOL0     C 7049   5.554   2.242   1.469 -0.0618 -0.6901 -0.1385
   52MOL0     C 7050   5.546   2.374   1.540 -0.0029 -0.2602  0.5303
   52MOL0     C 7051   5.680   2.406   1.607  0.5530  0.1507 -0.4847
   52MOL0     C 7052   5.695   2.551   1.642  0.9469 -0.6210  0.5701
   52MOL0     C 7053   5.599   2.605   1.742  0.4354 -0.0858 -0.1944
   52MOL0     C 7054   5.605   2.758   1.752 -0.4672 -0.2721  0.4634
   52MOL0     N 7055   5.576   2.827   1.630  0.1555 -0.1295  0.5838
   52MOL0     C 7056   5.444   2.824   1.578 -0.5618 -0.0003 -0.1507
   52MOL0     C 7057   5.449   2.920   1.478  1.0122  0.2944 -0.6034
   52MOL0     C 7058   5.336   2.966   1.395  0.7429 -0.5063  0.4689
   52MOL0     C 7059   5.369   3.015   1.250 -0.1830 -0.0853 -0.7321
   52MOL0     C 7060   5.236   3.024   1.172  0.6112  0.2604  0.5372
   52MOL0     C 7061   5.246   3.124   1.056 -0.8750  0.1017  0.5586
   52MOL0     O 7062   5.122   3.136   0.986 -0.0109  0.6140 -0.6638
   52MOL0     C 7063   5.095   3.234   0.892  0.4768  0.3638  0.0550
   52MOL0     C 7064   4.980   3.234   0.807  0.7142 -0.4739  0.7402
   52MOL0     C 7065   4.948   3.330   0.717 -0.0866 -0.3369 -0.0306
   52MOL0     C 7066   4.818   3.317   0.645  0.2396  0.5912  0.0879
   52MOL0     C 7067   5.039   3.433   0.692  0.2557 -0.2003  0.2907
   52MOL0     C 7068   5.027   3.530   0.583 -0.4298 -0.3224 -0.8223
   52MOL0     O 7069   5.137   3.577   0.529 -0.4083  0.3678  0.0440
   52MOL0     C 7070   5.120   3.648   0.419  0.1789  0.2024  0.0070
   52MOL0     C 7071   5.172   3.601   0.302 -0.5142 -0.1231  0.2274
   52MOL0     C 7072   5.189   3.678   0.187  0.5253  0.0999 -0.6069
   52MOL0     C 7073   5.148   3.810   0.182  0.9254  0.7432 -0.0664
   52MOL0     O 7074   5.170   3.911   0.096 -0.0533  0.1288  0.6298
   52MOL0     C 7075   5.201   3.863  -0.036  0.3851 -0.1289  0.1763
   52MOL0     C 7076   5.248   3.981  -0.127 -0.8147 -0.1164  0.3204
   52MOL0     C 7077   5.127   4.076  -0.150  0.9006 -0.0658 -0.0782
   52MOL0     C 7078   5.169   4.197  -0.237  0.5828  0.5650  0.8665
   52MOL0     C 7079   5.051   4.274  -0.302 -1.1090  0.4616 -0.3885
   52MOL0     C 7080   4.966   4.355  -0.197 -0.9128  0.0400 -0.1923
   52MOL0     C 7081   4.874   4.447  -0.281  0.1329  0.0848 -0.6496
   52MOL0     C 7082   4.791   4.525  -0.182 -0.7066  0.7044 -0.3719
   52MOL0    Cl 7083   4.895   4.632  -0.083 -0.2149 -0.4573 -0.0968
   52MOL0     C 7084   5.098   3.865   0.308  0.1182 -0.2835  0.9851
   52MOL0     C 7085   5.079   3.779   0.421 -0.0201 -0.4598  0.3895
   52MOL0     O 7086   4.917   3.564   0.556 -0.0774  0.2493 -0.1404
   52MOL0     C 7087   5.165   3.419   0.754 -0.4316 -0.9798 -0.8321
   52MOL0     C 7088   5.182   3.332   0.854  0.5244 -0.4250 -0.7670
   52MOL0     N 7089   5.581   2.965   1.466  0.0090 -0.0212  0.4912
   52MOL0     N 7090   5.650   2.909   1.553 -0.1026  0.4421 -0.1841
   52MOL0     C 7091   5.076   2.078   1.611 -0.1674 -0.0367 -0.3202
   52MOL0     C 7092   4.942   2.045   1.615 -0.2515 -0.4183 -0.2227
   52MOL0     C 7093   4.534   1.851   1.537 -0.5369 -1.0912  0.0890
   52MOL0     C 7094   4.499   1.830   1.669  0.0315  0.1029  0.8670
   52MOL0     C 7095   4.369   1.781   1.695  0.5953  0.7455 -0.9695
   52MOL0     C 7096   4.281   1.760   1.591  0.9767  0.0103  1.2956
   52MOL0     O 7097   4.150   1.736   1.628 -0.3099  0.4681 -0.3827
   52MOL0     C 7098   4.081   1.631   1.559  0.4357  0.2197  0.0184
   52MOL0     C 7099   3.988   1.553   1.660 -0.9162 -0.7400 -0.7579
   52MOL0     C 7100   3.845   1.603   1.653 -0.6483 -0.4235 -0.4857
   52MOL0     C 7101   3.825   1.748   1.713  0.2935 -0.2466  0.3291
   52MOL0     C 7102   3.685   1.808   1.700  0.3238  0.6049 -0.2372
   52MOL0     C 7103   3.577   1.866   1.685 -0.0496 -0.4592 -0.1497
   52MOL0     C 7104   4.331   1.771   1.458 -0.1431 -0.4123  0.2650
   52MOL0     C 7105   4.447   1.818   1.432  0.0018 -0.2789 -0.4619
   52MOL0     C 7106   4.479   1.819   1.279 -0.3940  0.0555 -0.8632
   52MOL0     H 7107   4.940   1.708   1.581 -0.8993 -0.0236  1.6481
   52MOL0     H 7108   5.192   1.770   1.535 -0.7524 -0.1145 -2.4938
   52MOL0     H 7109   5.336   2.125   1.678 -2.1366 -2.0244 -1.1072
   52MOL0     H 7110   5.317   2.190   1.507  0.6915  0.5389 -0.3339
   52MOL0     H 7111   5.570   2.136   1.653  1.5004  0.1757 -1.5628
   52MOL0     H 7112   5.550   2.032   1.510 -1.7635 -1.7044  0.8329
   52MOL0     H 7113   5.656   2.240   1.430  0.7329  3.3029  1.2435
   52MOL0     H 7114   5.491   2.246   1.380  0.2581 -2.1141 -0.4442
   52MOL0     H 7115   5.531   2.445   1.458 -1.0143 -0.6653  0.3577
   52MOL0     H 7116   5.468   2.381   1.615  3.3492  0.4012  4.2667
   52MOL0     H 7117   5.758   2.399   1.531  1.8921 -0.6956  0.9057
   52MOL0     H 7118   5.703   2.333   1.685 -0.6045 -1.4468 -1.5721
   52MOL0     H 7119   5.801   2.574   1.656  1.0673  0.5986 -1.8903
   52MOL0     H 7120   5.676   2.599   1.546  0.3175  2.9465  2.3363
   52MOL0     H 7121   5.631   2.567   1.839  0.8645  4.2787  1.5748
   52MOL0     H 7122   5.496   2.569   1.729 -0.5157  1.0815  3.1437
   52MOL0     H 7123   5.531   2.787   1.827 -0.4165  2.1166 -0.3388
   52MOL0     H 7124   5.703   2.788   1.790  0.3522  1.9756 -2.9866
   52MOL0     H 7125   5.362   2.761   1.611  1.9318 -3.5219 -0.1393
   52MOL0     H 7126   5.288   3.045   1.455 -0.4092  1.0484 -2.2837
   52MOL0     H 7127   5.256   2.891   1.396  1.2511 -1.0604  0.1193
   52MOL0     H 7128   5.421   3.111   1.256  0.8827 -0.6556 -0.4826
   52MOL0     H 7129   5.439   2.946   1.202 -0.7563  0.5180 -2.5133
   52MOL0     H 7130   5.206   2.924   1.141  1.1933  0.1222  0.4125
   52MOL0     H 7131   5.163   3.058   1.246  1.7349 -1.6618  2.6642
   52MOL0     H 7132   5.285   3.221   1.089  2.5457 -0.1449 -2.1763
   52MOL0     H 7133   5.326   3.094   0.987 -0.9157  1.5412 -0.1454
   52MOL0     H 7134   4.917   3.146   0.810  2.1014 -1.5959 -1.3747
   52MOL0     H 7135   4.748   3.399   0.664 -2.1242 -1.0416 -1.0563
   52MOL0     H 7136   4.763   3.227   0.674 -0.2097  1.0347  0.6286
   52MOL0     H 7137   4.839   3.298   0.539  0.2796 -1.9218  0.4782
   52MOL0     H 7138   5.196   3.495   0.308  0.1056  0.1104  2.6857
   52MOL0     H 7139   5.227   3.643   0.091  2.2209 -1.8419  0.6955
   52MOL0     H 7140   5.276   3.784  -0.041 -0.2752 -0.6872 -2.2714
   52MOL0     H 7141   5.119   3.819  -0.093  1.3792 -0.8844 -0.7141
   52MOL0     H 7142   5.332   4.030  -0.076 -1.9795  0.0859  2.1212
   52MOL0     H 7143   5.296   3.955  -0.222 -2.0303 -0.4186 -0.2318
   52MOL0     H 7144   5.080   4.111  -0.057 -2.7514 -0.0663 -1.7751
   52MOL0     H 7145   5.053   4.019  -0.206  1.5179 -0.9970  0.0188
   52MOL0     H 7146   5.239   4.166  -0.315 -1.2989 -2.6954  0.2865
   52MOL0     H 7147   5.231   4.270  -0.185  2.1835  0.4402 -0.7817
   52MOL0     H 7148   5.085   4.353  -0.369 -1.4478  0.6074 -0.3868
   52MOL0     H 7149   4.995   4.202  -0.361  2.6147 -1.0478 -2.4264
   52MOL0     H 7150   5.036   4.411  -0.133  0.9357 -1.8466 -0.4431
   52MOL0     H 7151   4.910   4.286  -0.133 -1.7418  1.4269  0.6374
   52MOL0     H 7152   4.815   4.376  -0.340 -0.9492  1.0374 -0.7720
   52MOL0     H 7153   4.936   4.507  -0.348  0.4259  0.2715 -0.2143
   52MOL0     H 7154   4.742   4.453  -0.116 -1.0009  2.0342  0.9259
   52MOL0     H 7155   4.719   4.570  -0.251 -0.3836 -1.5351 -2.2986
   52MOL0     H 7156   5.088   3.973   0.307  1.6531 -0.1066 -0.7002
   52MOL0     H 7157   5.047   3.826   0.513 -1.4689 -1.2625  0.3281
   52MOL0     H 7158   5.242   3.495   0.746 -1.2724  0.2239  1.4397
   52MOL0     H 7159   5.275   3.334   0.910 -1.1160 -1.2642  2.2241
   52MOL0     H 7160   5.106   2.181   1.625 -1.0030  0.0820  0.7589
   52MOL0     H 7161   4.863   2.119   1.620 -2.1766 -2.3060 -0.9997
   52MOL0     H 7162   4.559   1.848   1.758 -1.5217 -1.6123  2.3570
   52MOL0     H 7163   4.346   1.779   1.801 -2.6440 -1.9892 -1.5316
   52MOL0     H 7164   4.020   1.675   1.480  1.4190  0.5618 -0.5763
   52MOL0     H 7165   4.149   1.561   1.509  0.0761  0.4461 -0.8015
   52MOL0     H 7166   4.025   1.586   1.758 -1.9511 -0.5808 -0.4121
   52MOL0     H 7167   3.991   1.444   1.649 -0.7388 -0.7078 -1.0179
   52MOL0     H 7168   3.817   1.603   1.547  1.0641 -2.2226 -1.0073
   52MOL0     H 7169   3.782   1.538   1.715 -2.1733  2.5789  1.3302
   52MOL0     H 7170   3.882   1.811   1.644 -1.9199  1.8259  0.2601
   52MOL0     H 7171   3.864   1.762   1.814  1.4067 -1.3835  0.0780
   52MOL0     H 7172   3.496   1.934   1.672  0.8081  0.5629 -0.3408
   52MOL0     H 7173   4.269   1.748   1.371  0.0905  0.3822 -0.1216
   52MOL0     H 7174   4.394   1.782   1.222 -0.6042 -2.4323  0.8975
   52MOL0     H 7175   4.488   1.920   1.239 -5.6074  0.9373 -0.5515
   52MOL0     H 7176   4.562   1.750   1.259  1.3638  2.4804 -2.4443
   53MOL0     O 7177   3.303   4.459   0.390 -0.2092 -0.7436  0.4122
   53MOL0     C 7178   3.323   4.578   0.418  0.1844 -0.2368 -0.2071
   53MOL0     O 7179   3.268   4.691   0.355 -0.2082 -0.0697 -0.6641
   53MOL0     C 7180   3.156   4.672   0.282  0.2691 -0.6241 -0.3747
   53MOL0     C 7181   3.032   4.689   0.347  1.2999 -0.4990 -0.1012
   53MOL0     C 7182   2.915   4.668   0.266 -0.6369  0.5022 -0.0060
   53MOL0     C 7183   2.915   4.643   0.131 -0.6140 -0.2689  0.7234
   53MOL0     O 7184   2.794   4.636   0.069 -0.1801  0.0726  0.2937
   53MOL0     C 7185   2.785   4.538  -0.036  0.1701  0.3868 -0.1335
   53MOL0     C 7186   2.641   4.535  -0.091  0.4870  0.1001  0.1762
   53MOL0     C 7187   2.529   4.507   0.009 -0.3023  0.2100  0.0269
   53MOL0     C 7188   2.407   4.579  -0.005  0.3250  0.2783  0.5611
   53MOL0     C 7189   2.414   4.727   0.034 -0.7696  0.5783  0.0071
   53MOL0     C 7190   2.297   4.798  -0.033 -0.8945 -0.0031  0.1151
   53MOL0     C 7191   2.275   4.943   0.033 -0.8730  0.0325  1.2304
   53MOL0     C 7192   2.126   4.992   0.025  0.1202 -0.2663 -0.2308
   53MOL0     N 7193   2.044   4.906   0.114 -0.4137  0.3514 -0.0972
   53MOL0     C 7194   2.059   4.906   0.256  0.8050 -0.2846  0.2841
   53MOL0     C 7195   1.988   4.794   0.293  0.7943 -0.2996  0.4859
   53MOL0     C 7196   1.976   4.745   0.436 -0.1653  0.4861 -0.3835
   53MOL0     C 7197   1.843   4.778   0.505  0.0480 -0.3908  0.1878
   53MOL0     C 7198   1.824   4.678   0.617  0.1151 -0.5225  0.4003
   53MOL0     C 7199   1.703   4.712   0.699  0.0227 -0.3285 -0.2629
   53MOL0     O 7200   1.701   4.844   0.754  0.5184 -1.0576  0.8190
   53MOL0     C 7201   1.601   4.877   0.843 -0.5922 -0.4078  0.3433
   53MOL0     C 7202   1.508   4.973   0.801  0.1360  0.3369 -0.2490
   53MOL0     C 7203   1.420   5.008   0.901  0.2599 -0.1300 -0.4256
   53MOL0     C 7204   1.329   5.127   0.872  0.9885  0.5158  0.0950
   53MOL0     C 7205   1.414   4.946   1.026  0.9634 -0.3269 -0.5019
   53MOL0     C 7206   1.308   4.984   1.128  0.3508 -0.7602 -0.1775
   53MOL0     O 7207   1.302   5.111   1.165 -0.2131  0.1235  0.3846
   53MOL0     C 7208   1.230   5.170   1.270 -0.5119  0.6820  0.0912
   53MOL0     C 7209   1.244   5.308   1.278  0.4463 -0.3959  0.1738
   53MOL0     C 7210   1.197   5.372   1.387 -0.8264  0.1600 -0.8493
   53MOL0     C 7211   1.111   5.310   1.475  0.3956  0.6616  0.5631
   53MOL0     O 7212   1.051   5.386   1.577 -0.2362  0.1144  0.4487
   53MOL0     C 7213   0.936   5.327   1.639 -0.3608 -0.2829 -0.3425
   53MOL0     C 7214   0.855   5.433   1.710 -0.4309 -0.1052  0.3060
   53MOL0     C 7215   0.765   5.377   1.822  0.1568  0.2197 -0.4295
   53MOL0     C 7216   0.700   5.482   1.906 -0.2052 -0.3557 -0.1145
   53MOL0     C 7217   0.790   5.529   2.026  0.1078  0.1448  0.4483
   53MOL0     C 7218   0.822   5.426   2.126  0.3781  0.9811 -0.0971
   53MOL0     C 7219   0.879   5.487   2.266  0.4185 -0.5906  0.2572
   53MOL0     C 7220   0.848   5.385   2.379  0.6142 -0.0073 -0.1675
   53MOL0    Cl 7221   0.887   5.210   2.331  0.0798  0.0313 -0.1033
   53MOL0     C 7222   1.091   5.167   1.466 -0.8714  0.2678 -0.8637
   53MOL0     C 7223   1.156   5.097   1.368 -0.3016 -0.7566  0.5517
   53MOL0     O 7224   1.242   4.889   1.164 -0.0928 -0.4359 -0.8411
   53MOL0     C 7225   1.510   4.857   1.056 -0.0573  0.6396 -0.9297
   53MOL0     C 7226   1.608   4.828   0.968 -0.3629  0.0197 -0.9357
   53MOL0     N 7227   1.931   4.739   0.178  0.3405  0.8924  0.7837
   53MOL0     N 7228   1.961   4.804   0.074  0.7744 -0.5005 -0.4672
   53MOL0     C 7229   3.042   4.642   0.076  0.9805 -0.2272  1.1297
   53MOL0     C 7230   3.166   4.660   0.144 -0.2353  0.7703 -0.4011
   53MOL0     C 7231   3.425   4.606   0.515 -0.0300 -0.1454 -0.5698
   53MOL0     C 7232   3.479   4.739   0.534 -0.6085  0.0239  0.1893
   53MOL0     C 7233   3.580   4.768   0.630 -0.0046  0.7271 -0.0695
   53MOL0     C 7234   3.640   4.659   0.708  0.1170 -0.3133 -0.1142
   53MOL0     O 7235   3.745   4.675   0.790 -0.2296  0.4569  0.3814
   53MOL0     C 7236   3.798   4.807   0.810  0.3386  0.1345 -0.6926
   53MOL0     C 7237   3.904   4.796   0.925  0.3853  0.2163  0.1821
   53MOL0     C 7238   3.962   4.938   0.948  0.2234  0.2082 -0.2368
   53MOL0     C 7239   4.012   5.017   0.826 -1.0222  0.0594  0.7826
   53MOL0     C 7240   4.080   5.134   0.863 -0.3255  0.4651 -0.2820
   53MOL0     C 7241   4.131   5.230   0.913  0.0948  0.1104  0.1899
   53MOL0     C 7242   3.580   4.534   0.695 -1.1105  0.2647 -0.0235
   53MOL0     C 7243   3.475   4.502   0.603  0.6744  0.2840 -0.4389
   53MOL0     C 7244   3.416   4.366   0.642  0.1952  0.2509  0.2788
   53MOL0     H 7245   3.024   4.729   0.447  1.6272  0.5336 -0.4773
   53MOL0     H 7246   2.818   4.674   0.315  0.1700  0.0059  1.7420
   53MOL0     H 7247   2.809   4.439   0.005  2.1779  1.4106  1.3048
   53MOL0     H 7248   2.861   4.555  -0.113 -0.4104  0.2025 -0.7584
   53MOL0     H 7249   2.619   4.637  -0.125 -0.8594 -0.1451  0.2700
   53MOL0     H 7250   2.643   4.473  -0.181 -0.7816  0.6084 -0.2192
   53MOL0     H 7251   2.502   4.402  -0.001 -0.8133 -0.0922  3.4618
   53MOL0     H 7252   2.567   4.523   0.110 -1.9742 -0.9546  0.8860
   53MOL0     H 7253   2.367   4.559  -0.105 -0.0127 -0.2772  0.8071
   53MOL0     H 7254   2.332   4.545   0.066 -0.0599 -0.4162 -0.1599
   53MOL0     H 7255   2.506   4.772  -0.004  0.8855 -2.3109  0.2820
   53MOL0     H 7256   2.408   4.742   0.143 -0.4940  2.8603 -0.2448
   53MOL0     H 7257   2.311   4.814  -0.141 -0.7381 -0.6559  0.0361
   53MOL0     H 7258   2.211   4.731  -0.022 -0.3706 -0.9895 -1.4101
   53MOL0     H 7259   2.341   5.019  -0.009  0.5567 -0.5454  2.3241
   53MOL0     H 7260   2.305   4.932   0.138  2.5961  0.7083  0.4411
   53MOL0     H 7261   2.139   5.096   0.058 -1.3076  0.4606 -1.7781
   53MOL0     H 7262   2.089   5.001  -0.078  2.0054  1.3419 -0.8389
   53MOL0     H 7263   2.107   4.981   0.318 -1.2622  2.0321 -0.7602
   53MOL0     H 7264   2.065   4.785   0.484 -0.3968  1.6511 -0.9058
   53MOL0     H 7265   1.998   4.639   0.415 -0.8207  0.7299 -2.5196
   53MOL0     H 7266   1.844   4.882   0.537  1.2949  0.0128 -1.0945
   53MOL0     H 7267   1.763   4.762   0.432 -1.4825  1.0403  1.4716
   53MOL0     H 7268   1.838   4.577   0.576  2.5371 -0.6514  1.3575
   53MOL0     H 7269   1.907   4.697   0.685 -0.3527 -0.3254  0.9174
   53MOL0     H 7270   1.609   4.716   0.643  0.7150  0.6536 -1.4108
   53MOL0     H 7271   1.685   4.648   0.786 -0.4305  2.7755  2.1330
   53MOL0     H 7272   1.514   5.003   0.697  0.9153  1.3326  0.0737
   53MOL0     H 7273   1.356   5.212   0.936 -3.5371  0.5438  2.3119
   53MOL0     H 7274   1.227   5.095   0.892  2.1237 -3.8279 -0.0263
   53MOL0     H 7275   1.347   5.168   0.772  0.6589  1.4723  0.4146
   53MOL0     H 7276   1.308   5.374   1.219  0.7806  1.1227  2.1410
   53MOL0     H 7277   1.216   5.479   1.392  2.5143 -0.2952 -1.8812
   53MOL0     H 7278   0.877   5.274   1.565 -1.1327 -0.6938  0.5497
   53MOL0     H 7279   0.974   5.266   1.721  3.7002  4.8445  2.1976
   53MOL0     H 7280   0.919   5.499   1.769 -0.0088  0.1991 -0.4868
   53MOL0     H 7281   0.789   5.478   1.635  0.2375  0.6555  0.1644
   53MOL0     H 7282   0.809   5.300   1.887 -0.8848 -0.4154 -0.4447
   53MOL0     H 7283   0.675   5.323   1.791 -0.1246  0.5843 -0.2636
   53MOL0     H 7284   0.619   5.435   1.963 -0.1074  0.0890  0.4032
   53MOL0     H 7285   0.653   5.552   1.836  0.4872  1.2274  0.9418
   53MOL0     H 7286   0.879   5.567   1.976 -0.8131  1.0125 -0.5870
   53MOL0     H 7287   0.750   5.619   2.075 -1.0495  0.6973 -1.3955
   53MOL0     H 7288   0.902   5.359   2.091  3.1669  3.3083  1.3909
   53MOL0     H 7289   0.731   5.369   2.145  0.8452  0.5518  0.8934
   53MOL0     H 7290   0.838   5.587   2.284 -0.8054 -1.1398  0.6379
   53MOL0     H 7291   0.988   5.501   2.268  0.3486  0.8715 -2.2729
   53MOL0     H 7292   0.741   5.389   2.400  0.7146 -0.1424  0.4113
   53MOL0     H 7293   0.909   5.410   2.467 -1.0250  1.5446  0.5856
   53MOL0     H 7294   1.032   5.113   1.539 -3.7827  1.6860 -1.9917
   53MOL0     H 7295   1.152   4.988   1.375  0.0314 -0.9318 -1.4227
   53MOL0     H 7296   1.502   4.797   1.146 -0.8514  0.4984 -1.0862
   53MOL0     H 7297   1.682   4.751   0.989  2.0983  2.6356  0.6907
   53MOL0     H 7298   3.059   4.627  -0.030  0.9486  0.1409  1.0688
   53MOL0     H 7299   3.260   4.659   0.091  0.9371 -1.3269  1.5687
   53MOL0     H 7300   3.422   4.821   0.492  2.1605  1.8361 -0.2394
   53MOL0     H 7301   3.624   4.867   0.635  0.9052  0.2770  1.2556
   53MOL0     H 7302   3.851   4.847   0.723  2.3175 -1.6556 -0.4083
   53MOL0     H 7303   3.708   4.861   0.839 -1.1990 -3.3706  1.8567
   53MOL0     H 7304   3.986   4.739   0.880  0.9634  2.5114 -1.8996
   53MOL0     H 7305   3.863   4.753   1.017  1.1536  1.3915  1.1160
   53MOL0     H 7306   3.892   5.010   0.992 -0.7985 -0.4136 -0.8173
   53MOL0     H 7307   4.048   4.918   1.012  1.0135 -2.0556 -1.8755
   53MOL0     H 7308   3.926   5.057   0.771  0.1523  0.7686 -0.6035
   53MOL0     H 7309   4.077   4.956   0.763 -1.5706  0.6073 -0.3557
   53MOL0     H 7310   4.168   5.323   0.952  1.7668 -0.7458  0.7180
   53MOL0     H 7311   3.634   4.463   0.756  1.0740  0.8188 -1.1976
   53MOL0     H 7312   3.414   4.347   0.750  0.3293 -0.7893  0.1096
   53MOL0     H 7313   3.314   4.356   0.604  0.6360  0.0001 -0.8800
   53MOL0     H 7314   3.477   4.290   0.593 -1.2544 -0.3457 -0.6770
   54MOL0     O 7315   9.577   1.932   8.395  0.3846  0.6200 -0.2010
   54MOL0     C 7316   9.516   2.036   8.384  1.5423  0.3722  0.5953
   54MOL0     O 7317   9.398   2.067   8.455 -0.6818  0.2844  0.2643
   54MOL0     C 7318   9.353   1.961   8.538 -0.3542 -0.5276 -0.5525
   54MOL0     C 7319   9.320   1.991   8.670  0.7177 -0.2462  0.3308
   54MOL0     C 7320   9.265   1.903   8.761  0.0744 -0.0737  0.1809
   54MOL0     C 7321   9.232   1.772   8.714 -0.9207 -0.1025 -0.1351
   54MOL0     O 7322   9.171   1.681   8.796  0.5313 -0.1871 -0.4910
   54MOL0     C 7323   9.217   1.679   8.930 -0.1006  0.1414 -0.4333
   54MOL0     C 7324   9.170   1.548   8.999  0.3224  0.2255  0.0021
   54MOL0     C 7325   9.290   1.438   9.014  0.3119 -0.7489  0.1392
   54MOL0     C 7326   9.225   1.307   9.042  0.1291 -0.5532 -0.9646
   54MOL0     C 7327   9.329   1.199   9.063 -1.4377  0.7731 -1.0598
   54MOL0     C 7328   9.377   1.141   8.935  0.8714 -0.4523 -0.1886
   54MOL0     C 7329   9.414   0.992   8.939  0.3647 -0.2459  0.5729
   54MOL0     C 7330   9.577   0.971   8.932 -0.2126 -0.3847  0.4279
   54MOL0     N 7331   9.617   0.828   8.937 -0.2716 -0.1108 -0.1493
   54MOL0     C 7332   9.601   0.729   8.847  0.0443  0.3480 -0.2200
   54MOL0     C 7333   9.644   0.615   8.911 -0.0667 -0.1788  0.0081
   54MOL0     C 7334   9.629   0.473   8.865  0.7597  1.2668 -0.0057
   54MOL0     C 7335   9.726   0.448   8.745  0.6882 -0.3005  0.3761
   54MOL0     C 7336   9.731   0.296   8.715 -0.7674  0.6386 -1.0963
   54MOL0     C 7337   9.813   0.209   8.825 -0.0359  0.2326 -0.5045
   54MOL0     O 7338   9.815   0.076   8.791 -0.5101 -0.2868  0.1041
   54MOL0     C 7339   9.710  -0.004   8.825 -1.2444  0.0800 -0.2507
   54MOL0     C 7340   9.579   0.030   8.856  0.5465  0.1313 -0.5389
   54MOL0     C 7341   9.469  -0.059   8.886 -0.5619 -0.1470 -0.2049
   54MOL0     C 7342   9.331  -0.013   8.910 -0.0017  0.1785  1.0202
   54MOL0     C 7343   9.501  -0.197   8.878 -0.2498  0.9355  0.0292
   54MOL0     C 7344   9.405  -0.298   8.901 -0.3638  0.0939 -0.4519
   54MOL0     O 7345   9.401  -0.414   8.824 -0.0268  0.0157  0.0748
   54MOL0     C 7346   9.300  -0.499   8.829 -0.6005  0.0521  0.7463
   54MOL0     C 7347   9.186  -0.492   8.903  0.3384  0.8483 -0.2161
   54MOL0     C 7348   9.080  -0.590   8.878 -0.8878  0.2772 -0.0058
   54MOL0     C 7349   9.086  -0.691   8.777  0.2631  0.9885 -0.8187
   54MOL0     O 7350   8.982  -0.783   8.759 -0.2184 -0.3778 -1.2528
   54MOL0     C 7351   8.859  -0.720   8.725 -0.0832  0.2034 -0.6878
   54MOL0     C 7352   8.875  -0.641   8.590 -0.0627  0.1409  0.2094
   54MOL0     C 7353   8.753  -0.558   8.546  0.0190  0.1162  0.0013
   54MOL0     C 7354   8.794  -0.477   8.428  0.3839  0.5843 -0.5263
   54MOL0     C 7355   8.747  -0.539   8.300  0.1611 -0.3964 -0.2595
   54MOL0     C 7356   8.789  -0.447   8.185 -0.1528 -0.2356 -0.7397
   54MOL0     C 7357   8.798  -0.515   8.052 -0.0090  1.6564  1.4701
   54MOL0     C 7358   8.914  -0.608   8.048 -0.4585  0.2656 -0.1807
   54MOL0    Cl 7359   9.001  -0.596   7.878 -0.1710 -0.1931  0.2261
   54MOL0     C 7360   9.212  -0.704   8.714  0.2085  0.2458 -0.4211
   54MOL0     C 7361   9.316  -0.607   8.738  0.3273 -0.7400  0.1248
   54MOL0     O 7362   9.351  -0.282   9.010  0.6192  0.0781 -0.4503
   54MOL0     C 7363   9.624  -0.232   8.824 -0.5093  0.2270 -0.4718
   54MOL0     C 7364   9.732  -0.141   8.803 -0.4009  0.3383 -0.6048
   54MOL0     N 7365   9.675   0.648   9.039  0.2301 -0.0084 -0.6462
   54MOL0     N 7366   9.664   0.780   9.054 -0.3024 -0.2043 -0.1701
   54MOL0     C 7367   9.266   1.737   8.583  0.4452  0.4335  0.7242
   54MOL0     C 7368   9.323   1.831   8.497  0.2675  0.2136 -0.4201
   54MOL0     C 7369   9.571   2.144   8.285 -0.6312  1.2058 -0.3092
   54MOL0     C 7370   9.521   2.275   8.290  0.1205  0.5848  0.4422
   54MOL0     C 7371   9.561   2.374   8.194 -0.2110 -0.2478  0.4156
   54MOL0     C 7372   9.661   2.341   8.105 -0.3813 -0.2792  0.5653
   54MOL0     O 7373   9.716   2.415   8.002  0.1438  0.1712 -0.2108
   54MOL0     C 7374   9.679   2.556   8.008 -0.2294  1.0129  0.3571
   54MOL0     C 7375   9.762   2.644   7.911 -0.2662  1.1070  0.2746
   54MOL0     C 7376   9.775   2.583   7.775  0.2505  0.9039  0.7618
   54MOL0     C 7377   9.823   2.683   7.671  0.4414  0.9999 -0.7499
   54MOL0     C 7378   9.831   2.638   7.531  0.1986 -0.2293  0.2082
   54MOL0     C 7379   9.841   2.590   7.424 -0.5296 -1.0204 -0.3663
   54MOL0     C 7380   9.714   2.211   8.104 -0.4819  0.6288 -0.4178
   54MOL0     C 7381   9.671   2.113   8.188  0.5690 -0.2220 -0.8173
   54MOL0     C 7382   9.738   1.979   8.178  0.1110 -0.9027 -0.4321
   54MOL0     H 7383   9.334   2.090   8.712  0.6096  0.4272 -1.1397
   54MOL0     H 7384   9.249   1.940   8.862 -1.9779  1.5229 -0.6523
   54MOL0     H 7385   9.189   1.763   8.995 -2.2437 -0.7349 -0.1226
   54MOL0     H 7386   9.326   1.676   8.937 -0.2154 -2.3770  1.4884
   54MOL0     H 7387   9.122   1.572   9.094 -1.8211 -0.6492 -0.7935
   54MOL0     H 7388   9.095   1.495   8.939  0.5132 -1.3295  1.0678
   54MOL0     H 7389   9.345   1.423   8.921  1.1795 -3.1654  0.9489
   54MOL0     H 7390   9.349   1.463   9.103 -1.7687 -2.4525  2.1153
   54MOL0     H 7391   9.168   1.317   9.135  0.8489  1.5635 -0.6922
   54MOL0     H 7392   9.164   1.271   8.958  2.2608 -2.1064 -1.9225
   54MOL0     H 7393   9.269   1.122   9.111 -0.2153 -1.4026 -2.8589
   54MOL0     H 7394   9.410   1.225   9.133 -1.2606 -1.6894 -0.2576
   54MOL0     H 7395   9.297   1.159   8.862  0.4247 -2.7237 -0.3449
   54MOL0     H 7396   9.463   1.200   8.902  0.3165  0.1612 -0.5718
   54MOL0     H 7397   9.361   0.950   8.853 -1.9099  1.6797  0.9199
   54MOL0     H 7398   9.378   0.937   9.027  1.9400 -0.6051  1.0285
   54MOL0     H 7399   9.603   1.016   8.836 -1.1887 -1.1402 -0.2052
   54MOL0     H 7400   9.607   1.034   9.016 -1.9105 -0.5257  1.1730
   54MOL0     H 7401   9.565   0.730   8.745  1.0848  3.2399 -0.6663
   54MOL0     H 7402   9.522   0.469   8.842  0.3996  3.2959  1.0416
   54MOL0     H 7403   9.670   0.412   8.946  3.0862  1.2704 -1.0854
   54MOL0     H 7404   9.685   0.505   8.661  0.5484 -0.2469  0.4804
   54MOL0     H 7405   9.827   0.490   8.756  0.5690  0.3287 -0.8470
   54MOL0     H 7406   9.632   0.251   8.719  0.7035 -2.8516  0.9715
   54MOL0     H 7407   9.779   0.279   8.618 -3.2520  2.4097 -2.7468
   54MOL0     H 7408   9.920   0.232   8.832 -0.0535  0.1873 -0.0227
   54MOL0     H 7409   9.793   0.230   8.930  4.4973  1.5091  0.3528
   54MOL0     H 7410   9.548   0.134   8.862  1.1395  0.3587 -1.2333
   54MOL0     H 7411   9.262  -0.088   8.870  2.2385 -0.3074 -2.3534
   54MOL0     H 7412   9.312   0.075   8.847  2.9894  0.6295  0.6342
   54MOL0     H 7413   9.302   0.014   9.012  1.1216  1.0798  1.1178
   54MOL0     H 7414   9.160  -0.407   8.966 -2.3328  0.6219 -0.9290
   54MOL0     H 7415   8.988  -0.569   8.930  0.2309 -0.0972  2.2509
   54MOL0     H 7416   8.782  -0.798   8.728 -0.6148  0.7386  1.7993
   54MOL0     H 7417   8.827  -0.644   8.797 -2.0206 -1.3517  0.1678
   54MOL0     H 7418   8.959  -0.571   8.597 -0.2874  0.3202  1.2560
   54MOL0     H 7419   8.904  -0.712   8.512 -0.3858  0.0337  0.1830
   54MOL0     H 7420   8.707  -0.494   8.621 -1.6295 -0.6892 -0.2626
   54MOL0     H 7421   8.665  -0.617   8.518 -0.1172 -0.3923  1.4520
   54MOL0     H 7422   8.899  -0.452   8.445 -0.3117  2.2848  1.8987
   54MOL0     H 7423   8.750  -0.378   8.444 -0.3448  0.2974 -0.7377
   54MOL0     H 7424   8.796  -0.636   8.291 -1.1001 -1.0398 -0.2947
   54MOL0     H 7425   8.640  -0.559   8.302  0.0931  0.0061  2.0067
   54MOL0     H 7426   8.883  -0.395   8.201 -0.7642  1.0734 -1.2271
   54MOL0     H 7427   8.705  -0.377   8.180 -2.3416 -2.7083 -1.0170
   54MOL0     H 7428   8.804  -0.441   7.971  2.5222 -1.8463 -1.9377
   54MOL0     H 7429   8.711  -0.570   8.015  1.1853  2.2754 -2.8373
   54MOL0     H 7430   8.883  -0.712   8.064 -0.5424  0.2159 -0.6293
   54MOL0     H 7431   8.991  -0.574   8.118  0.9764  0.9402 -1.9707
   54MOL0     H 7432   9.238  -0.778   8.640 -0.1765 -0.6939  0.3678
   54MOL0     H 7433   9.405  -0.615   8.676  1.6418  0.3591  1.7878
   54MOL0     H 7434   9.648  -0.335   8.801 -0.5608  0.1977 -0.3893
   54MOL0     H 7435   9.828  -0.176   8.768 -0.2230  1.0687 -0.8649
   54MOL0     H 7436   9.242   1.640   8.539 -0.5424  1.0615 -0.1778
   54MOL0     H 7437   9.332   1.815   8.390 -0.1662  2.6402 -0.8701
   54MOL0     H 7438   9.441   2.305   8.357  0.0231  1.2399  0.0418
   54MOL0     H 7439   9.523   2.475   8.197  2.1730  0.7246 -0.2685
   54MOL0     H 7440   9.572   2.554   7.986 -0.2834 -0.1376  0.6597
   54MOL0     H 7441   9.700   2.584   8.112  1.6901  0.2681  0.2137
   54MOL0     H 7442   9.854   2.660   7.968 -1.1100  0.6550  1.7996
   54MOL0     H 7443   9.711   2.740   7.895  0.7126  1.1478 -3.6794
   54MOL0     H 7444   9.851   2.504   7.782 -0.4105  0.0226 -1.1656
   54MOL0     H 7445   9.685   2.530   7.743  2.3902 -1.9341 -1.0426
   54MOL0     H 7446   9.924   2.713   7.702  0.3042 -1.0040  1.9796
   54MOL0     H 7447   9.750   2.763   7.683 -1.4129 -0.4871 -1.6751
   54MOL0     H 7448   9.850   2.535   7.332  3.4861 -2.2904  0.6059
   54MOL0     H 7449   9.784   2.188   8.025  0.5248 -0.6179  0.7924
   54MOL0     H 7450   9.813   1.974   8.098 -1.1009 -4.6785 -1.5881
   54MOL0     H 7451   9.780   1.951   8.275 -2.1064 -0.2739  0.7792
   54MOL0     H 7452   9.662   1.904   8.153 -2.5454  0.5557  2.5118
   55MOL0     O 7453   6.168   1.255  11.081 -0.2893 -0.6022  0.5792
   55MOL0     C 7454   6.222   1.175  11.002  0.8115 -0.3161  0.4333
   55MOL0     O 7455   6.182   1.031  10.990 -0.0270 -0.2933 -0.3226
   55MOL0     C 7456   6.062   1.002  11.054 -0.4759  0.8800 -1.9154
   55MOL0     C 7457   5.952   1.086  11.047  0.1694 -0.4833 -0.8844
   55MOL0     C 7458   5.821   1.049  11.105 -0.5305  0.6724  0.4741
   55MOL0     C 7459   5.816   0.932  11.180  0.0680  1.5661  0.5369
   55MOL0     O 7460   5.707   0.893  11.257 -0.5785  0.1655  0.2838
   55MOL0     C 7461   5.609   0.994  11.279 -0.1323  0.0229  0.7042
   55MOL0     C 7462   5.520   0.960  11.400 -0.5262 -0.2695 -1.3180
   55MOL0     C 7463   5.442   1.089  11.451 -0.6258 -0.3587 -0.2557
   55MOL0     C 7464   5.391   1.048  11.590  0.6209 -0.9768 -0.3699
   55MOL0     C 7465   5.290   1.146  11.660  0.1104  0.5811  0.0830
   55MOL0     C 7466   5.337   1.292  11.646 -0.1809 -0.4266 -0.0593
   55MOL0     C 7467   5.239   1.386  11.727 -0.0488  0.1337  1.0270
   55MOL0     C 7468   5.278   1.398  11.875  0.5881 -0.4669  0.6541
   55MOL0     N 7469   5.203   1.504  11.948  0.3032 -0.2298 -0.8430
   55MOL0     C 7470   5.231   1.638  11.947 -0.8062  0.5033  0.8962
   55MOL0     C 7471   5.125   1.691  12.001 -0.2052 -0.4291 -0.0450
   55MOL0     C 7472   5.138   1.833  12.036 -0.6557 -0.6406 -0.4209
   55MOL0     C 7473   5.134   1.859  12.181  0.4506 -0.1770 -0.0954
   55MOL0     C 7474   5.234   1.979  12.211 -0.3605  1.0156  0.0743
   55MOL0     C 7475   5.216   2.115  12.140  0.4695  0.0542 -0.1122
   55MOL0     O 7476   5.083   2.126  12.083  0.7954  0.0111 -0.5885
   55MOL0     C 7477   5.039   2.243  12.021 -0.1326 -0.7269  0.2742
   55MOL0     C 7478   4.920   2.236  11.946  0.1391  0.8490 -0.4382
   55MOL0     C 7479   4.864   2.355  11.876 -0.2116  0.0263  0.7444
   55MOL0     C 7480   4.735   2.326  11.806  0.3105 -0.1860 -0.0671
   55MOL0     C 7481   4.935   2.476  11.872 -0.0560 -0.6825 -0.1136
   55MOL0     C 7482   4.895   2.600  11.802  0.3892 -0.2262  0.6225
   55MOL0     O 7483   4.949   2.717  11.851 -0.4228  0.5941  0.4459
   55MOL0     C 7484   4.914   2.834  11.782  1.0646 -0.5745  0.0081
   55MOL0     C 7485   4.931   2.846  11.638  0.5200  0.3116  0.1524
   55MOL0     C 7486   4.907   2.961  11.574 -0.1562  0.6554  0.0566
   55MOL0     C 7487   4.860   3.076  11.641 -0.6494  0.0723  0.2269
   55MOL0     O 7488   4.851   3.187  11.563  0.1505 -0.0395  0.0064
   55MOL0     C 7489   4.820   3.309  11.636  0.7110  0.1910 -0.2139
   55MOL0     C 7490   4.844   3.428  11.536  0.1241  0.3546 -0.4463
   55MOL0     C 7491   4.821   3.564  11.602 -0.9449 -0.0100 -1.0884
   55MOL0     C 7492   4.825   3.675  11.494 -0.3374 -0.4922 -0.0491
   55MOL0     C 7493   4.773   3.809  11.552  0.5737 -0.3537 -0.5882
   55MOL0     C 7494   4.745   3.905  11.442  0.2715 -0.5488 -0.1649
   55MOL0     C 7495   4.744   4.048  11.503  0.3569 -0.0152  0.4983
   55MOL0     C 7496   4.632   4.139  11.454  0.9126  0.9548  0.3028
   55MOL0    Cl 7497   4.645   4.156  11.270  0.3178  0.0348  0.1629
   55MOL0     C 7498   4.848   3.068  11.783  0.5312 -0.4168  0.5770
   55MOL0     C 7499   4.879   2.948  11.856  0.0411 -0.0692  1.0389
   55MOL0     O 7500   4.812   2.594  11.715  0.5804 -0.2131 -0.4138
   55MOL0     C 7501   5.055   2.479  11.952  0.3481 -0.2209 -0.2282
   55MOL0     C 7502   5.104   2.367  12.016  0.0307 -0.0190 -0.5097
   55MOL0     N 7503   5.038   1.595  12.035 -0.7944  0.1565 -0.0411
   55MOL0     N 7504   5.077   1.484  12.002 -0.7065  0.3868  0.5538
   55MOL0     C 7505   5.932   0.854  11.190  0.5833  0.3978  0.4303
   55MOL0     C 7506   6.056   0.880  11.130 -0.2280 -0.8927  1.1655
   55MOL0     C 7507   6.329   1.231  10.917  0.0566  0.4833  0.1977
   55MOL0     C 7508   6.343   1.172  10.791  0.0202 -0.6325  0.7933
   55MOL0     C 7509   6.419   1.237  10.693 -0.1758 -0.0704  0.0643
   55MOL0     C 7510   6.497   1.347  10.722  0.0452 -0.3064 -0.3675
   55MOL0     O 7511   6.567   1.424  10.630 -0.4251  0.8928 -0.2829
   55MOL0     C 7512   6.601   1.367  10.505 -0.5144  0.0032 -0.1893
   55MOL0     C 7513   6.716   1.451  10.453 -0.6411  0.0792  0.1137
   55MOL0     C 7514   6.858   1.417  10.491  0.0395  0.2606 -0.2345
   55MOL0     C 7515   6.899   1.476  10.623  0.0850 -0.5330 -0.0669
   55MOL0     C 7516   7.027   1.413  10.659 -0.2274  0.1196 -1.2043
   55MOL0     C 7517   7.129   1.355  10.681 -0.3322  0.0887 -0.3780
   55MOL0     C 7518   6.496   1.396  10.847 -0.5156  0.2900 -1.0292
   55MOL0     C 7519   6.412   1.346  10.945  0.1177  0.2853 -0.3708
   55MOL0     C 7520   6.407   1.402  11.090  0.9198  0.4753  0.2270
   55MOL0     H 7521   5.969   1.173  10.984  0.9548  1.0995  1.3691
   55MOL0     H 7522   5.740   1.120  11.094  0.5079  2.3355  2.7043
   55MOL0     H 7523   5.537   1.009  11.198 -0.5421  0.2929  1.1135
   55MOL0     H 7524   5.659   1.089  11.302 -0.2188  0.2015  0.1654
   55MOL0     H 7525   5.452   0.877  11.379 -0.3331 -1.0659  0.9392
   55MOL0     H 7526   5.595   0.930  11.474 -0.7101 -1.7249 -1.6906
   55MOL0     H 7527   5.490   1.186  11.443 -3.7568  1.5157  1.7086
   55MOL0     H 7528   5.356   1.113  11.387  0.9221  0.4474 -2.1279
   55MOL0     H 7529   5.357   0.944  11.580  1.8317 -1.2960 -1.5364
   55MOL0     H 7530   5.480   1.048  11.654  1.1313  1.1962 -0.9846
   55MOL0     H 7531   5.273   1.116  11.764 -1.5170 -1.4188 -0.6960
   55MOL0     H 7532   5.195   1.122  11.611  2.1332 -4.7043 -1.9729
   55MOL0     H 7533   5.436   1.303  11.692 -0.9282  0.7791  1.3614
   55MOL0     H 7534   5.346   1.331  11.544 -0.5298  1.0233  0.4385
   55MOL0     H 7535   5.138   1.346  11.717 -0.1989  1.0709 -2.1694
   55MOL0     H 7536   5.238   1.488  11.690  0.5702  0.8905  2.9460
   55MOL0     H 7537   5.253   1.304  11.924 -2.2758 -1.7307 -2.7691
   55MOL0     H 7538   5.386   1.411  11.880  0.7915 -1.7703  0.1699
   55MOL0     H 7539   5.323   1.687  11.915 -0.6565  1.0644  2.1423
   55MOL0     H 7540   5.064   1.889  11.979  2.5243  1.3805 -2.9253
   55MOL0     H 7541   5.237   1.864  12.001  2.4028 -3.3519  4.5494
   55MOL0     H 7542   5.032   1.882  12.213  0.4947 -2.3003  1.8111
   55MOL0     H 7543   5.160   1.767  12.232 -2.1776 -1.6076 -1.1384
   55MOL0     H 7544   5.257   2.000  12.316  2.0742  0.2766 -0.2558
   55MOL0     H 7545   5.329   1.937  12.176 -2.0235 -3.0037 -0.2482
   55MOL0     H 7546   5.247   2.205  12.195  0.5128  1.0781 -1.7390
   55MOL0     H 7547   5.283   2.111  12.054  0.1493  1.7164 -0.4819
   55MOL0     H 7548   4.865   2.143  11.937  1.4099  0.1183 -0.9428
   55MOL0     H 7549   4.704   2.234  11.857  0.1769  1.6640  3.4981
   55MOL0     H 7550   4.744   2.307  11.699 -0.1153 -0.5839 -0.0366
   55MOL0     H 7551   4.654   2.397  11.824  1.2243  0.9451 -0.3087
   55MOL0     H 7552   4.965   2.754  11.591  1.4097  0.8575 -0.2823
   55MOL0     H 7553   4.917   2.953  11.466  0.6980 -3.4858  0.2756
   55MOL0     H 7554   4.715   3.308  11.666  0.2190 -0.1785 -1.8364
   55MOL0     H 7555   4.888   3.325  11.720  1.5733 -0.8481 -0.6882
   55MOL0     H 7556   4.946   3.423  11.495 -0.0339  0.8800 -0.9193
   55MOL0     H 7557   4.771   3.414  11.456 -1.5708  1.1315  0.8962
   55MOL0     H 7558   4.905   3.575  11.671  0.4161 -3.2972 -2.0705
   55MOL0     H 7559   4.732   3.553  11.665  0.5969  1.2784  1.5056
   55MOL0     H 7560   4.766   3.649  11.406 -1.6965  0.5285  0.5152
   55MOL0     H 7561   4.928   3.682  11.458 -0.0365 -1.3598  0.6169
   55MOL0     H 7562   4.681   3.803  11.611  1.9743  0.5062  1.8256
   55MOL0     H 7563   4.848   3.840  11.626  0.3556 -2.3710  0.5559
   55MOL0     H 7564   4.646   3.890  11.399 -2.1390  1.3649  4.1753
   55MOL0     H 7565   4.821   3.890  11.364 -3.0396 -2.7305 -3.3138
   55MOL0     H 7566   4.842   4.095  11.496 -0.4141  1.4743 -1.3869
   55MOL0     H 7567   4.720   4.031  11.608  3.0579 -0.6473  1.0785
   55MOL0     H 7568   4.663   4.236  11.493 -0.1138  2.1646 -1.7084
   55MOL0     H 7569   4.533   4.103  11.483  0.5976  2.0989  0.6920
   55MOL0     H 7570   4.811   3.151  11.843  0.5181 -1.1562  1.6076
   55MOL0     H 7571   4.854   2.942  11.961 -0.2682  1.9237  1.1103
   55MOL0     H 7572   5.114   2.569  11.969  1.1963 -1.2283  2.8133
   55MOL0     H 7573   5.203   2.382  12.058  0.1672  0.6029 -1.0313
   55MOL0     H 7574   5.923   0.758  11.240 -1.5259  1.1975  1.7368
   55MOL0     H 7575   6.134   0.807  11.148  2.1286  1.6913  2.0631
   55MOL0     H 7576   6.300   1.073  10.781  1.5380 -1.1902 -0.5224
   55MOL0     H 7577   6.417   1.193  10.594 -0.2672 -1.7537  0.7863
   55MOL0     H 7578   6.632   1.262  10.504  1.7943  0.6108 -1.5332
   55MOL0     H 7579   6.519   1.383  10.435  0.2388  0.5322 -0.9732
   55MOL0     H 7580   6.694   1.558  10.461  0.7173  0.4525 -0.7788
   55MOL0     H 7581   6.715   1.432  10.345 -0.3893 -6.1530  0.8512
   55MOL0     H 7582   6.863   1.308  10.508 -0.5355  0.0495 -1.3665
   55MOL0     H 7583   6.926   1.456  10.416  2.7882  1.6023  2.7211
   55MOL0     H 7584   6.822   1.461  10.699 -0.9879  0.2089 -0.9817
   55MOL0     H 7585   6.924   1.583  10.617 -0.1502 -0.3523  1.6275
   55MOL0     H 7586   7.201   1.285  10.718 -0.0544 -0.2337 -1.4845
   55MOL0     H 7587   6.574   1.468  10.872  0.6339 -0.9198 -0.9980
   55MOL0     H 7588   6.418   1.320  11.162  1.0804 -0.3009 -0.6565
   55MOL0     H 7589   6.487   1.476  11.098 -0.1224  1.9952 -2.2681
   55MOL0     H 7590   6.321   1.468  11.107  1.5728  0.9914  1.7980
   56MOL0     O 7591   7.721  10.856  11.031  0.4839  0.0849  0.2134
   56MOL0     C 7592   7.678  10.966  11.002  0.1303 -0.2289 -0.3208
   56MOL0     O 7593   7.717  11.080  11.068  0.0990  0.5836  0.0663
   56MOL0     C 7594   7.808  11.085  11.170  1.4596 -0.0000  0.8622
   56MOL0     C 7595   7.785  11.027  11.292  0.0729 -0.3925 -0.6730
   56MOL0     C 7596   7.872  11.045  11.401 -0.7808 -0.9794  0.5557
   56MOL0     C 7597   7.982  11.125  11.385 -0.3093 -0.5571  0.0252
   56MOL0     O 7598   8.072  11.135  11.487  0.1119  0.0457  0.1415
   56MOL0     C 7599   8.183  11.232  11.478  0.7600 -0.3328 -0.7330
   56MOL0     C 7600   8.277  11.247  11.608  0.0886  0.0829  0.1626
   56MOL0     C 7601   8.389  11.359  11.588  0.2786 -0.0991  0.2482
   56MOL0     C 7602   8.461  11.347  11.454 -0.4092  0.4963  0.0427
   56MOL0     C 7603   8.610  11.386  11.467  0.1076  0.1630 -0.2833
   56MOL0     C 7604   8.667  11.375  11.324  0.6779 -1.3951  0.2435
   56MOL0     C 7605   8.823  11.359  11.333  1.0035  0.3122 -0.4513
   56MOL0     C 7606   8.890  11.475  11.404  0.3759  0.3784  0.9016
   56MOL0     N 7607   9.032  11.476  11.402  0.4836  0.3029 -0.7706
   56MOL0     C 7608   9.115  11.492  11.295  0.7198  0.1638  0.0664
   56MOL0     C 7609   9.241  11.480  11.351  1.5913 -0.3095  0.6103
   56MOL0     C 7610   9.364  11.489  11.269  0.1143  0.1437 -0.4179
   56MOL0     C 7611   9.438  11.619  11.293 -0.2600 -0.9796 -0.4083
   56MOL0     C 7612   9.520  11.604  11.424 -0.5835  0.4020 -0.6248
   56MOL0     C 7613   9.635  11.702  11.436 -1.2772  0.5982 -0.1349
   56MOL0     O 7614   9.586  11.834  11.447 -0.0230 -0.3772  0.4963
   56MOL0     C 7615   9.686  11.926  11.442  0.3607  0.2765 -0.4356
   56MOL0     C 7616   9.768  11.956  11.557  0.5712 -0.1529  0.2902
   56MOL0     C 7617   9.873  12.050  11.548 -0.0493  0.4520 -0.6625
   56MOL0     C 7618   9.947  12.085  11.669  0.4315 -0.0818 -0.3106
   56MOL0     C 7619   9.890  12.127  11.421 -1.1519 -0.4355 -0.7081
   56MOL0     C 7620   9.988  12.234  11.407  1.1038  0.6061  0.1364
   56MOL0     O 7621  10.005  12.325  11.510 -0.0141  0.4143  0.9571
   56MOL0     C 7622  10.100  12.411  11.477 -0.2880 -0.3524  0.2688
   56MOL0     C 7623  10.083  12.529  11.407 -0.0129  0.5220 -0.1901
   56MOL0     C 7624  10.196  12.620  11.389 -0.2686 -0.0389  0.4469
   56MOL0     C 7625  10.324  12.587  11.436  0.4140  0.6870  0.0165
   56MOL0     O 7626  10.422  12.682  11.414 -0.0481 -0.3127 -0.1434
   56MOL0     C 7627  10.555  12.675  11.476 -0.6763  0.9538  0.1571
   56MOL0     C 7628  10.617  12.809  11.476 -0.3102 -0.5463  0.1763
   56MOL0     C 7629  10.739  12.803  11.563  0.4221  1.0119  0.4969
   56MOL0     C 7630  10.815  12.938  11.557  0.0215 -0.2787  0.0200
   56MOL0     C 7631  10.972  12.926  11.593  0.6890 -0.0852  0.3723
   56MOL0     C 7632  11.023  12.850  11.718 -0.0572  0.3935 -0.1134
   56MOL0     C 7633  10.992  12.932  11.844 -0.4109 -0.0298  0.1909
   56MOL0     C 7634  11.085  12.893  11.965  0.3354 -0.1651 -0.3300
   56MOL0    Cl 7635  11.041  12.993  12.117  0.1768 -0.2623  0.1053
   56MOL0     C 7636  10.335  12.462  11.501  0.2943 -0.4515 -0.4195
   56MOL0     C 7637  10.228  12.376  11.518  0.1705 -0.0558 -1.1481
   56MOL0     O 7638  10.047  12.239  11.298 -0.0614  0.9190  0.6149
   56MOL0     C 7639   9.804  12.097  11.316  0.2328  0.2580 -0.2371
   56MOL0     C 7640   9.706  11.997  11.327  0.0617  0.0097  0.3084
   56MOL0     N 7641   9.222  11.448  11.482 -0.6753 -0.0728 -0.2138
   56MOL0     N 7642   9.098  11.453  11.513 -0.1407 -0.3126  0.5133
   56MOL0     C 7643   8.009  11.191  11.260  0.9724 -0.0740  0.3335
   56MOL0     C 7644   7.916  11.169  11.156 -0.2957  0.5082  0.7086
   56MOL0     C 7645   7.584  10.974  10.887 -0.4509 -0.4507 -0.8765
   56MOL0     C 7646   7.572  10.864  10.803 -1.0679 -0.6598  0.1796
   56MOL0     C 7647   7.483  10.855  10.697  0.5356  0.4031 -0.6192
   56MOL0     C 7648   7.398  10.965  10.673  1.3328  1.4017 -0.2868
   56MOL0     O 7649   7.312  10.975  10.567  0.2278 -0.0924  0.6333
   56MOL0     C 7650   7.238  10.865  10.537 -0.3515  0.1239  0.3092
   56MOL0     C 7651   7.132  10.901  10.439 -0.1032 -0.5402 -0.6199
   56MOL0     C 7652   7.030  10.788  10.427 -0.4961  0.0894  0.4956
   56MOL0     C 7653   6.923  10.817  10.328  1.0359  0.0935  0.4040
   56MOL0     C 7654   6.835  10.695  10.302 -0.0670  0.5055  0.4889
   56MOL0     C 7655   6.777  10.591  10.271 -0.0849  0.0712  0.0294
   56MOL0     C 7656   7.412  11.079  10.752 -0.7316  0.7898  1.1758
   56MOL0     C 7657   7.507  11.083  10.854 -0.2446  0.5360 -0.3525
   56MOL0     C 7658   7.511  11.221  10.915 -1.2408 -0.5229 -0.6862
   56MOL0     H 7659   7.704  10.956  11.302  0.7748 -0.9510  1.6944
   56MOL0     H 7660   7.857  11.008  11.502  2.1284  0.1871  1.5299
   56MOL0     H 7661   8.137  11.328  11.451 -2.1148 -1.0533  1.2639
   56MOL0     H 7662   8.247  11.221  11.389  0.8432  1.1278 -0.8818
   56MOL0     H 7663   8.211  11.283  11.687 -1.1879 -2.1465  0.1994
   56MOL0     H 7664   8.303  11.144  11.634 -2.0098 -0.9502 -1.4773
   56MOL0     H 7665   8.341  11.456  11.597 -0.8514 -0.5807 -0.4239
   56MOL0     H 7666   8.456  11.367  11.675 -0.5690 -2.0407  1.1461
   56MOL0     H 7667   8.461  11.245  11.416  1.9567 -0.3074  1.9204
   56MOL0     H 7668   8.402  11.408  11.385 -0.7787  0.1521  0.0490
   56MOL0     H 7669   8.654  11.315  11.539 -3.9404 -1.8364  0.5006
   56MOL0     H 7670   8.612  11.492  11.494 -0.5537  0.4312 -1.2401
   56MOL0     H 7671   8.628  11.289  11.270  2.5942 -0.4626 -2.9171
   56MOL0     H 7672   8.640  11.465  11.268 -0.0235 -1.6640  0.1423
   56MOL0     H 7673   8.855  11.358  11.228 -3.7636  2.2937 -2.1770
   56MOL0     H 7674   8.836  11.260  11.377 -1.7670  0.3422  0.5730
   56MOL0     H 7675   8.864  11.569  11.354  0.2350 -0.1110  0.0302
   56MOL0     H 7676   8.858  11.484  11.508 -7.8486 -0.0177 -0.8955
   56MOL0     H 7677   9.082  11.505  11.192 -1.0306 -0.0386  0.5679
   56MOL0     H 7678   9.341  11.487  11.161  1.1202  0.4579 -0.6435
   56MOL0     H 7679   9.427  11.403  11.291  1.9522  1.2945 -1.0159
   56MOL0     H 7680   9.506  11.629  11.208  1.8305 -1.7409  1.0771
   56MOL0     H 7681   9.378  11.710  11.300  1.8367  0.4189  0.1615
   56MOL0     H 7682   9.456  11.616  11.512 -1.0193 -1.6104 -0.6209
   56MOL0     H 7683   9.571  11.507  11.427 -0.6989  0.1574 -3.4308
   56MOL0     H 7684   9.700  11.676  11.521 -0.6125 -2.0119 -1.3213
   56MOL0     H 7685   9.705  11.707  11.352 -0.2638  0.3157  0.6769
   56MOL0     H 7686   9.742  11.907  11.650 -1.7918  0.4407 -0.0045
   56MOL0     H 7687   9.917  12.020  11.752  1.7824 -2.3876 -1.5184
   56MOL0     H 7688   9.930  12.189  11.698  3.4579  1.5543 -3.6876
   56MOL0     H 7689  10.055  12.076  11.654  0.2760  1.1147 -2.4069
   56MOL0     H 7690   9.981  12.558  11.384 -0.9525 -1.8672  0.7014
   56MOL0     H 7691  10.174  12.715  11.342  1.1089  0.0782  0.0129
   56MOL0     H 7692  10.551  12.624  11.573 -1.3460 -1.0252 -0.8483
   56MOL0     H 7693  10.609  12.610  11.406 -1.6112  0.3850 -0.0641
   56MOL0     H 7694  10.657  12.835  11.378  0.7701  0.0397  0.7546
   56MOL0     H 7695  10.547  12.888  11.507  0.9774  0.2382  1.1627
   56MOL0     H 7696  10.803  12.721  11.530 -1.1503 -1.8234  3.8449
   56MOL0     H 7697  10.716  12.767  11.663  4.6050 -0.5090  1.0793
   56MOL0     H 7698  10.772  13.009  11.628 -0.6122  0.7828 -1.3736
   56MOL0     H 7699  10.823  12.985  11.459  1.9461 -0.8424 -0.1384
   56MOL0     H 7700  11.013  12.863  11.514  1.8409 -0.0313  0.9128
   56MOL0     H 7701  11.005  13.030  11.584 -1.5972  0.5866 -1.2624
   56MOL0     H 7702  11.126  12.820  11.702 -0.8681 -1.9295 -1.3915
   56MOL0     H 7703  10.973  12.754  11.731 -0.1887  0.6833  1.8051
   56MOL0     H 7704  10.887  12.908  11.860 -1.2527  2.7144 -0.6802
   56MOL0     H 7705  11.002  13.037  11.814 -1.9446 -0.2225 -1.1309
   56MOL0     H 7706  11.189  12.916  11.945  1.2390 -2.2334  1.5422
   56MOL0     H 7707  11.082  12.784  11.981 -2.1370 -0.1365 -0.1493
   56MOL0     H 7708  10.432  12.436  11.542 -0.8179 -3.6045  0.5073
   56MOL0     H 7709  10.237  12.284  11.575 -0.1793  0.9308  0.6017
   56MOL0     H 7710   9.820  12.146  11.220  1.5910 -3.3664 -2.0565
   56MOL0     H 7711   9.646  11.983  11.237  1.3988 -0.5209 -0.5272
   56MOL0     H 7712   8.087  11.265  11.246  0.3797  0.3189 -0.9736
   56MOL0     H 7713   7.927  11.216  11.058 -0.5413  1.4086  1.1115
   56MOL0     H 7714   7.636  10.777  10.817 -0.7250 -0.2997  0.9051
   56MOL0     H 7715   7.485  10.772  10.627 -1.7012 -0.2706  0.0586
   56MOL0     H 7716   7.300  10.785  10.493 -0.3154 -0.2671  1.0577
   56MOL0     H 7717   7.190  10.831  10.629  1.0603 -0.4990  0.8407
   56MOL0     H 7718   7.161  10.924  10.336  0.5919 -0.1455 -0.3390
   56MOL0     H 7719   7.087  10.994  10.474  0.2733  1.4861 -4.8261
   56MOL0     H 7720   7.079  10.690  10.417  1.2314  0.7347  2.0474
   56MOL0     H 7721   6.975  10.777  10.521  1.6629 -1.8552  1.6598
   56MOL0     H 7722   6.967  10.858  10.237  1.2726  4.3722  2.2373
   56MOL0     H 7723   6.853  10.897  10.352  1.5728  1.7420 -2.9618
   56MOL0     H 7724   6.733  10.502  10.229  2.5781 -0.1193 -2.7198
   56MOL0     H 7725   7.334  11.152  10.736 -0.3102  1.1958  0.9636
   56MOL0     H 7726   7.601  11.274  10.883  0.4595 -2.7796  0.0947
   56MOL0     H 7727   7.423  11.283  10.893  1.1587  1.8673 -4.6709
   56MOL0     H 7728   7.518  11.217  11.024 -0.2945  4.5361 -0.2975
   57MOL0     O 7729  10.902   4.038   8.846 -0.9218  0.6296 -0.6855
   57MOL0     C 7730  10.988   3.968   8.902  0.4714  0.6935  0.6476
   57MOL0     O 7731  10.993   3.833   8.891 -0.6100 -0.0695 -0.1903
   57MOL0     C 7732  10.914   3.763   8.798  0.3048 -0.2696  0.0895
   57MOL0     C 7733  10.840   3.647   8.834 -1.0246 -0.1553 -0.5340
   57MOL0     C 7734  10.757   3.583   8.746  0.1931 -1.1558  0.0263
   57MOL0     C 7735  10.737   3.631   8.615  0.3015  0.2157 -0.5462
   57MOL0     O 7736  10.637   3.590   8.526  0.3967 -0.0006 -0.0026
   57MOL0     C 7737  10.525   3.531   8.595 -0.0584  1.1558 -0.0073
   57MOL0     C 7738  10.395   3.546   8.514  0.0539 -0.2707 -0.7061
   57MOL0     C 7739  10.338   3.688   8.502  0.2693 -0.1391  0.3144
   57MOL0     C 7740  10.275   3.733   8.637  0.9816  0.3744  0.1888
   57MOL0     C 7741  10.243   3.880   8.652 -0.1401 -0.0535 -0.0184
   57MOL0     C 7742  10.367   3.960   8.687 -0.1787  0.0320  0.9963
   57MOL0     C 7743  10.453   3.906   8.801  0.0552  0.6465 -0.4574
   57MOL0     C 7744  10.572   3.996   8.840  0.3641  0.8683 -0.2351
   57MOL0     N 7745  10.566   3.996   8.995  1.0811 -0.4157  0.3237
   57MOL0     C 7746  10.607   3.880   9.066  0.0250  0.3154  0.6391
   57MOL0     C 7747  10.589   3.910   9.198  0.2212 -0.2230 -0.5538
   57MOL0     C 7748  10.638   3.832   9.321  0.0849 -0.3525  0.1294
   57MOL0     C 7749  10.784   3.785   9.295  0.7880 -0.1395 -0.4880
   57MOL0     C 7750  10.881   3.896   9.296  0.8543  0.5556 -0.7405
   57MOL0     C 7751  11.019   3.849   9.337 -0.5419  0.3526 -0.2212
   57MOL0     O 7752  11.075   3.748   9.262 -0.5120 -0.8390 -0.4869
   57MOL0     C 7753  11.209   3.725   9.288 -0.4373 -0.1755 -0.5152
   57MOL0     C 7754  11.297   3.780   9.383  0.2131 -0.2447 -0.2376
   57MOL0     C 7755  11.437   3.741   9.393 -0.8139 -0.3503  0.1953
   57MOL0     C 7756  11.519   3.828   9.484 -0.0071  0.0442 -0.6122
   57MOL0     C 7757  11.492   3.650   9.303  0.0271  0.3941  1.0436
   57MOL0     C 7758  11.642   3.616   9.291 -0.6886  0.6488 -0.6599
   57MOL0     O 7759  11.687   3.533   9.181  0.0677 -0.0693 -0.1091
   57MOL0     C 7760  11.816   3.504   9.167  0.1784 -0.2025 -0.3342
   57MOL0     C 7761  11.927   3.584   9.193 -0.1335 -0.2619 -0.4236
   57MOL0     C 7762  12.056   3.534   9.174  0.6426  0.1974  0.4120
   57MOL0     C 7763  12.087   3.416   9.117  0.1200  0.0448 -0.3885
   57MOL0     O 7764  12.215   3.367   9.100  0.4639  0.0902  0.3080
   57MOL0     C 7765  12.251   3.322   8.971  0.9709  0.6880  0.7684
   57MOL0     C 7766  12.357   3.424   8.925  0.6808  0.1457 -0.9284
   57MOL0     C 7767  12.413   3.396   8.790 -0.8501  0.3481 -0.2806
   57MOL0     C 7768  12.498   3.267   8.784 -0.4694 -0.0743 -0.2957
   57MOL0     C 7769  12.540   3.242   8.639 -0.1375 -1.1239 -0.2875
   57MOL0     C 7770  12.629   3.117   8.626  0.0658 -0.4969  0.8132
   57MOL0     C 7771  12.724   3.097   8.745  0.2180  0.1251 -0.2706
   57MOL0     C 7772  12.840   2.994   8.727 -0.3457  0.5431  0.2536
   57MOL0    Cl 7773  12.984   3.023   8.833  0.2833 -0.1035  0.3403
   57MOL0     C 7774  11.984   3.339   9.086  0.1425 -0.3006 -0.5222
   57MOL0     C 7775  11.849   3.377   9.103  0.5857  0.1579  0.4174
   57MOL0     O 7776  11.718   3.665   9.373  0.3791  0.2326 -0.5117
   57MOL0     C 7777  11.404   3.590   9.212 -1.1665 -0.8221  1.2190
   57MOL0     C 7778  11.268   3.620   9.216  0.1188  0.5296  0.0682
   57MOL0     N 7779  10.534   4.036   9.195 -0.4917 -0.0866  0.9346
   57MOL0     N 7780  10.524   4.087   9.075 -0.1809  0.2335  0.0829
   57MOL0     C 7781  10.830   3.734   8.566  1.8092  0.6552 -0.0191
   57MOL0     C 7782  10.913   3.805   8.664  0.2913  0.0037  0.1221
   57MOL0     C 7783  11.067   4.037   9.000 -0.2942 -0.8267  0.3316
   57MOL0     C 7784  11.201   3.990   9.011  1.0741  0.3759  0.2706
   57MOL0     C 7785  11.289   4.048   9.095 -0.0637  0.0687  0.4933
   57MOL0     C 7786  11.252   4.159   9.169 -0.1938  0.3553  0.7223
   57MOL0     O 7787  11.356   4.192   9.258  0.0668 -0.7368 -0.6595
   57MOL0     C 7788  11.354   4.319   9.335  0.0134  0.1380  0.2157
   57MOL0     C 7789  11.314   4.296   9.488 -1.2449 -0.0126 -0.3446
   57MOL0     C 7790  11.411   4.352   9.594 -0.7070  0.3793 -0.1476
   57MOL0     C 7791  11.396   4.272   9.724 -0.3573  0.5254  0.6045
   57MOL0     C 7792  11.258   4.269   9.787  0.1274 -0.0383  0.5113
   57MOL0     C 7793  11.152   4.280   9.848  0.0052 -0.2868 -0.5021
   57MOL0     C 7794  11.117   4.208   9.172 -0.1652  0.6746  0.3534
   57MOL0     C 7795  11.028   4.149   9.079  0.0575  0.0874  0.2900
   57MOL0     C 7796  10.885   4.203   9.088  0.1594  0.4611  0.2985
   57MOL0     H 7797  10.856   3.615   8.937  0.7341  3.1902  0.3789
   57MOL0     H 7798  10.694   3.508   8.794  0.7292 -1.1083  0.8025
   57MOL0     H 7799  10.519   3.564   8.699  0.3734  0.9925  0.0711
   57MOL0     H 7800  10.526   3.423   8.612  1.3910  1.3413  1.3578
   57MOL0     H 7801  10.406   3.500   8.415 -6.2856  0.4736 -2.2275
   57MOL0     H 7802  10.322   3.482   8.564 -0.6343 -0.6467 -2.1241
   57MOL0     H 7803  10.425   3.749   8.474  1.9942 -2.3904  0.5328
   57MOL0     H 7804  10.266   3.686   8.419 -0.2291 -0.7860  0.7605
   57MOL0     H 7805  10.178   3.683   8.633  1.0209  0.2000  1.2324
   57MOL0     H 7806  10.331   3.698   8.724  2.2647  1.4270 -0.1753
   57MOL0     H 7807  10.166   3.900   8.727 -2.5814  2.1503 -2.8320
   57MOL0     H 7808  10.204   3.928   8.561  3.2472  1.2622 -0.9183
   57MOL0     H 7809  10.428   3.960   8.597 -0.6202 -0.4621  0.6901
   57MOL0     H 7810  10.338   4.064   8.704  2.9921  1.3686 -0.9889
   57MOL0     H 7811  10.493   3.805   8.788 -0.0484  0.3874  1.0116
   57MOL0     H 7812  10.381   3.919   8.883 -1.6508  0.5171 -1.8795
   57MOL0     H 7813  10.662   3.950   8.797  0.4786  0.9579 -0.0965
   57MOL0     H 7814  10.564   4.097   8.798 -1.1666  1.9255  2.3554
   57MOL0     H 7815  10.660   3.805   9.009 -0.2427  0.5490  0.0728
   57MOL0     H 7816  10.586   3.736   9.329  1.2839 -1.1752 -1.2434
   57MOL0     H 7817  10.615   3.892   9.409 -2.7013  0.2966 -0.9364
   57MOL0     H 7818  10.800   3.713   9.376  1.2486  0.8248  0.3099
   57MOL0     H 7819  10.794   3.730   9.201 -1.1205 -2.0374  0.3503
   57MOL0     H 7820  10.901   3.937   9.196  2.2172  1.5736 -0.0863
   57MOL0     H 7821  10.855   3.978   9.363 -2.9493 -0.4468 -0.7456
   57MOL0     H 7822  11.086   3.935   9.330 -1.1517  0.9868  1.3317
   57MOL0     H 7823  11.008   3.818   9.442 -0.2274  0.1027 -0.2577
   57MOL0     H 7824  11.248   3.862   9.434  0.0178  0.2159 -1.1483
   57MOL0     H 7825  11.576   3.774   9.559  0.6469  0.0362 -1.1057
   57MOL0     H 7826  11.465   3.903   9.542  1.4945 -0.3819  1.4359
   57MOL0     H 7827  11.597   3.873   9.422  1.1294 -0.1333  0.6682
   57MOL0     H 7828  11.920   3.686   9.229  0.3588  0.9975 -3.5749
   57MOL0     H 7829  12.132   3.607   9.201  1.0672  1.3275 -3.2944
   57MOL0     H 7830  12.300   3.225   8.985 -1.3403 -0.6992 -0.0441
   57MOL0     H 7831  12.172   3.317   8.895  3.8856  0.4740 -2.5185
   57MOL0     H 7832  12.317   3.525   8.928  1.5825  0.5100  1.5436
   57MOL0     H 7833  12.438   3.424   9.000 -0.1131 -0.4267 -0.0474
   57MOL0     H 7834  12.484   3.476   8.769  1.0937 -1.5245 -1.2472
   57MOL0     H 7835  12.335   3.399   8.713  1.0084  0.9074 -2.2278
   57MOL0     H 7836  12.452   3.175   8.818 -1.2265  0.5294  0.3510
   57MOL0     H 7837  12.590   3.293   8.837 -0.4943 -1.0968  0.2585
   57MOL0     H 7838  12.450   3.217   8.582 -0.6041 -1.0254  0.4044
   57MOL0     H 7839  12.593   3.329   8.599 -0.9050 -1.0142 -1.0945
   57MOL0     H 7840  12.686   3.131   8.533  1.9293  1.7299  2.1717
   57MOL0     H 7841  12.563   3.030   8.630 -1.0785  0.3908  2.1947
   57MOL0     H 7842  12.653   3.072   8.825 -2.3551  2.8278 -1.5147
   57MOL0     H 7843  12.768   3.195   8.763  0.8906 -0.3207  0.5607
   57MOL0     H 7844  12.873   3.003   8.623 -0.0958 -1.1930  0.1548
   57MOL0     H 7845  12.791   2.896   8.731 -0.8683  0.8011  0.3096
   57MOL0     H 7846  11.993   3.238   9.047  2.6197 -0.6248  0.6736
   57MOL0     H 7847  11.759   3.320   9.082 -0.7251  1.3696  2.3873
   57MOL0     H 7848  11.437   3.515   9.141 -0.9333  0.9932 -0.6539
   57MOL0     H 7849  11.207   3.559   9.150 -0.7636  1.8363 -0.3658
   57MOL0     H 7850  10.819   3.764   8.463  2.8157 -0.2136 -0.4004
   57MOL0     H 7851  10.976   3.891   8.644  0.7900 -0.2733  0.4696
   57MOL0     H 7852  11.239   3.910   8.948  1.9405 -0.3948  1.7143
   57MOL0     H 7853  11.390   4.012   9.086  0.0273  0.9088 -3.5535
   57MOL0     H 7854  11.455   4.358   9.319  1.9284 -4.1641  0.3506
   57MOL0     H 7855  11.276   4.387   9.302  0.8657  1.3188  0.5905
   57MOL0     H 7856  11.305   4.189   9.507  1.7824 -0.3906 -0.5954
   57MOL0     H 7857  11.218   4.345   9.511 -0.2167  1.1269  1.8362
   57MOL0     H 7858  11.516   4.346   9.563 -0.8964  0.1322 -0.7459
   57MOL0     H 7859  11.386   4.456   9.615  0.0223  0.4884  0.2222
   57MOL0     H 7860  11.461   4.314   9.801  1.0721  3.2077 -1.8583
   57MOL0     H 7861  11.422   4.168   9.701  0.6007  0.9675 -0.3782
   57MOL0     H 7862  11.057   4.289   9.897 -0.8564 -1.9081 -1.7886
   57MOL0     H 7863  11.097   4.285   9.246  1.1557  1.7841 -0.3967
   57MOL0     H 7864  10.885   4.295   9.146 -6.6128  1.9704 -1.2792
   57MOL0     H 7865  10.847   4.231   8.989 -1.9813 -1.4782  0.4877
   57MOL0     H 7866  10.816   4.140   9.145 -2.3327 -0.2080 -3.1336
   58MOL0     O 7867  10.373   5.986  10.409  0.2649 -0.4222 -0.3606
   58MOL0     C 7868  10.256   5.999  10.422  0.4379  1.2750  0.4309
   58MOL0     O 7869  10.193   6.120  10.395 -0.6915  0.7139  0.3408
   58MOL0     C 7870  10.258   6.237  10.360 -0.0443  0.4379 -0.2742
   58MOL0     C 7871  10.216   6.356  10.424  0.0334 -0.5484  0.3547
   58MOL0     C 7872  10.283   6.475  10.385 -0.8890  0.1610 -0.8781
   58MOL0     C 7873  10.395   6.478  10.300 -0.8459  0.0534  0.7018
   58MOL0     O 7874  10.468   6.588  10.251 -0.4608  0.2738  0.2724
   58MOL0     C 7875  10.420   6.714  10.289  0.5292 -0.0490 -0.3877
   58MOL0     C 7876  10.514   6.770  10.404  0.4184 -0.2965 -0.2286
   58MOL0     C 7877  10.482   6.915  10.438 -0.3738  0.3952 -0.5637
   58MOL0     C 7878  10.603   6.970  10.518  0.3646  0.0408  1.0922
   58MOL0     C 7879  10.577   7.114  10.563  0.4211  0.1920  0.4051
   58MOL0     C 7880  10.691   7.176  10.654 -0.5380  1.2723  1.1718
   58MOL0     C 7881  10.676   7.322  10.672  0.0870 -0.0202  0.1059
   58MOL0     C 7882  10.781   7.384  10.764  0.9140 -0.7999  0.0543
   58MOL0     N 7883  10.760   7.530  10.772 -0.4049 -0.0184 -0.0955
   58MOL0     C 7884  10.780   7.621  10.666  1.3211  0.1390 -0.0617
   58MOL0     C 7885  10.744   7.741  10.713 -0.0947 -0.5091  0.1899
   58MOL0     C 7886  10.757   7.873  10.653 -0.2715 -1.1324  0.7414
   58MOL0     C 7887  10.653   7.893  10.541  0.0825 -0.0633 -0.1252
   58MOL0     C 7888  10.547   8.002  10.573  0.3690 -0.8476  0.7637
   58MOL0     C 7889  10.446   7.969  10.688  0.1391 -0.1966  0.2671
   58MOL0     O 7890  10.394   7.835  10.680  0.0386  0.3648 -0.3935
   58MOL0     C 7891  10.358   7.778  10.564 -0.7722 -0.0388 -0.1753
   58MOL0     C 7892  10.354   7.638  10.568 -0.2606  0.9145 -0.2300
   58MOL0     C 7893  10.326   7.557  10.453 -0.4074 -0.0037 -0.2709
   58MOL0     C 7894  10.328   7.405  10.470  0.4749 -0.1547 -0.2806
   58MOL0     C 7895  10.290   7.612  10.334 -0.1260  0.3285  0.0238
   58MOL0     C 7896  10.266   7.550  10.208  1.2501 -0.1563  0.5192
   58MOL0     O 7897  10.165   7.594  10.120  0.0903  0.4329 -0.0223
   58MOL0     C 7898  10.152   7.554   9.990  0.9659 -0.1021  0.7416
   58MOL0     C 7899  10.168   7.423   9.966  0.7264 -0.4705  0.5922
   58MOL0     C 7900  10.167   7.370   9.838  0.0686 -0.3576 -1.3072
   58MOL0     C 7901  10.141   7.450   9.730 -0.6498  0.5005 -0.0183
   58MOL0     O 7902  10.128   7.384   9.610  0.0484 -0.3964  0.3505
   58MOL0     C 7903  10.021   7.441   9.533  0.0960 -0.0301  0.5913
   58MOL0     C 7904   9.996   7.360   9.406 -0.4039  0.2467 -0.6265
   58MOL0     C 7905  10.117   7.360   9.325  0.5156 -0.6233 -0.3164
   58MOL0     C 7906  10.104   7.281   9.196 -0.5780  0.0602 -0.8381
   58MOL0     C 7907  10.239   7.273   9.120  0.0997  0.0281  0.9507
   58MOL0     C 7908  10.224   7.237   8.970 -0.2935  0.3145 -0.3563
   58MOL0     C 7909  10.165   7.101   8.939 -0.4394  0.3668 -0.3286
   58MOL0     C 7910  10.148   7.064   8.790 -0.1208 -0.1900 -0.2661
   58MOL0    Cl 7911   9.998   7.143   8.730  0.3865  0.0398  0.2248
   58MOL0     C 7912  10.126   7.584   9.761  0.6554  0.2269  0.1563
   58MOL0     C 7913  10.124   7.637   9.886 -0.5075 -0.2121 -0.4978
   58MOL0     O 7914  10.343   7.459  10.188  0.7012 -0.3103  0.1698
   58MOL0     C 7915  10.279   7.749  10.335 -0.0927 -0.5253 -0.1784
   58MOL0     C 7916  10.312   7.832  10.449  0.7040 -0.5305  0.6052
   58MOL0     N 7917  10.714   7.724  10.848 -0.1729  0.0204  0.4204
   58MOL0     N 7918  10.723   7.596  10.887 -0.5921 -0.4709 -0.2833
   58MOL0     C 7919  10.429   6.355  10.245 -0.1280 -0.1105  0.0331
   58MOL0     C 7920  10.357   6.236  10.269  0.0212 -0.0368 -0.3902
   58MOL0     C 7921  10.176   5.874  10.440 -0.8087 -0.1244 -0.4880
   58MOL0     C 7922  10.045   5.863  10.382 -0.1034  0.2569 -0.8537
   58MOL0     C 7923   9.972   5.743  10.390  0.7691 -0.1148  0.4122
   58MOL0     C 7924  10.016   5.636  10.473  0.1799 -1.1038 -0.7170
   58MOL0     O 7925   9.926   5.535  10.492 -0.5665 -0.2649  0.2103
   58MOL0     C 7926   9.953   5.415  10.567  0.1674  0.8716  0.3296
   58MOL0     C 7927   9.881   5.294  10.506 -0.1554  0.4414 -0.0227
   58MOL0     C 7928   9.749   5.340  10.452  0.3058 -0.5015 -0.0080
   58MOL0     C 7929   9.646   5.235  10.418 -0.5622  0.9521 -0.0957
   58MOL0     C 7930   9.519   5.289  10.374 -0.0631 -0.8586  0.3037
   58MOL0     C 7931   9.419   5.355  10.354  0.7915  0.3410 -0.2711
   58MOL0     C 7932  10.138   5.642  10.535 -0.8544 -0.1359  0.6888
   58MOL0     C 7933  10.215   5.756  10.519 -0.3776  0.0864  0.0461
   58MOL0     C 7934  10.353   5.754  10.587 -1.3768 -0.5680 -1.0807
   58MOL0     H 7935  10.134   6.357  10.495 -0.8837  0.5025 -0.6802
   58MOL0     H 7936  10.232   6.562  10.426  1.3607  0.3590  1.7466
   58MOL0     H 7937  10.316   6.728  10.319  1.5250 -0.1439  3.7204
   58MOL0     H 7938  10.440   6.791  10.214  0.3370  0.9484  0.5577
   58MOL0     H 7939  10.508   6.708  10.493  0.8833 -3.5330 -2.2661
   58MOL0     H 7940  10.621   6.774  10.380  0.6702  1.9015  0.9813
   58MOL0     H 7941  10.469   6.979  10.351 -0.3408  1.6995  0.3682
   58MOL0     H 7942  10.398   6.904  10.508  1.0569  0.7478  1.2794
   58MOL0     H 7943  10.617   6.908  10.607  1.2649 -2.4480 -0.6655
   58MOL0     H 7944  10.696   6.965  10.460  0.1351  1.2062  0.6019
   58MOL0     H 7945  10.489   7.109  10.628  0.3369 -2.8818  0.2282
   58MOL0     H 7946  10.548   7.173  10.475 -0.2077 -1.3396 -0.4787
   58MOL0     H 7947  10.697   7.132  10.754 -1.1193  2.5638  1.8082
   58MOL0     H 7948  10.788   7.168  10.604 -1.4345  0.0293 -0.4765
   58MOL0     H 7949  10.578   7.352  10.711  0.7434  2.9998 -0.3382
   58MOL0     H 7950  10.690   7.372  10.576  2.4312 -1.1965 -0.2346
   58MOL0     H 7951  10.760   7.345  10.864 -2.2330 -0.3081 -0.3253
   58MOL0     H 7952  10.884   7.366  10.731  0.9302  0.2077 -0.4915
   58MOL0     H 7953  10.838   7.607  10.576  5.5166  0.5396  2.2993
   58MOL0     H 7954  10.859   7.884  10.614  0.9560 -4.9256  2.3472
   58MOL0     H 7955  10.742   7.941  10.737  0.3647 -0.1362  0.0637
   58MOL0     H 7956  10.711   7.920  10.452 -0.0745 -0.5385 -0.3747
   58MOL0     H 7957  10.594   7.809  10.505  0.4578 -0.5073  0.2726
   58MOL0     H 7958  10.590   8.099  10.598  1.2843 -1.0571  0.0576
   58MOL0     H 7959  10.489   8.023  10.482  1.0772  1.7520  0.8551
   58MOL0     H 7960  10.489   7.989  10.786 -1.6461  0.0552  1.0447
   58MOL0     H 7961  10.357   8.033  10.690 -0.1561 -0.5982  0.1118
   58MOL0     H 7962  10.374   7.585  10.661 -0.1153 -3.9955 -2.7252
   58MOL0     H 7963  10.333   7.367  10.573 -0.4177 -1.2536 -0.6318
   58MOL0     H 7964  10.415   7.372  10.412 -0.9084  0.4151 -2.7829
   58MOL0     H 7965  10.240   7.359  10.425  0.9977  0.7372 -2.3441
   58MOL0     H 7966  10.193   7.354  10.047  2.4505  0.7782  1.1826
   58MOL0     H 7967  10.177   7.262   9.836 -0.6584 -0.5004  0.6428
   58MOL0     H 7968   9.931   7.430   9.594  1.1557 -0.2736  2.1424
   58MOL0     H 7969  10.022   7.546   9.502  0.0445 -0.4839 -1.0784
   58MOL0     H 7970   9.955   7.268   9.449  2.2206 -2.0302 -2.6603
   58MOL0     H 7971   9.919   7.410   9.345  0.4720  0.3016 -1.7129
   58MOL0     H 7972  10.205   7.318   9.376  0.8499 -0.1586 -0.5002
   58MOL0     H 7973  10.138   7.462   9.294  1.3484 -1.2572 -1.9581
   58MOL0     H 7974  10.022   7.323   9.137  0.7468  3.0347 -0.7698
   58MOL0     H 7975  10.078   7.178   9.223  4.8931 -1.7371 -1.1769
   58MOL0     H 7976  10.296   7.367   9.114  0.3258 -0.1660 -0.1595
   58MOL0     H 7977  10.301   7.198   9.170 -0.6752 -0.0719  1.7862
   58MOL0     H 7978  10.322   7.234   8.922  0.5780 -4.1525  1.1817
   58MOL0     H 7979  10.163   7.315   8.923 -1.3516 -0.3403 -0.0964
   58MOL0     H 7980  10.070   7.083   8.990 -1.7230  0.0294 -2.7289
   58MOL0     H 7981  10.236   7.035   8.990  0.4784  0.7064 -1.1291
   58MOL0     H 7982  10.127   6.959   8.767 -1.2484  0.1813 -1.0283
   58MOL0     H 7983  10.233   7.110   8.739 -2.1422  3.6038 -0.5990
   58MOL0     H 7984  10.115   7.652   9.677 -1.8749 -0.2934 -0.0222
   58MOL0     H 7985  10.110   7.744   9.897  1.9230  0.3669 -2.2673
   58MOL0     H 7986  10.245   7.803  10.247 -0.3909 -1.0697 -0.4040
   58MOL0     H 7987  10.292   7.939  10.448  1.6589 -0.2923  2.6661
   58MOL0     H 7988  10.511   6.367  10.175 -0.4863 -2.5721 -0.8747
   58MOL0     H 7989  10.385   6.141  10.224 -3.9899 -0.7995 -1.6835
   58MOL0     H 7990  10.025   5.943  10.311  2.9920  0.5870 -1.4768
   58MOL0     H 7991   9.880   5.726  10.335  0.8847 -2.3467  0.8017
   58MOL0     H 7992  10.057   5.385  10.580 -0.5588 -3.0794 -1.4038
   58MOL0     H 7993   9.919   5.426  10.670  2.1889  1.7102  0.9368
   58MOL0     H 7994   9.877   5.217  10.584  2.6200  0.2237  0.0005
   58MOL0     H 7995   9.940   5.257  10.421 -0.1980 -0.0800  0.1755
   58MOL0     H 7996   9.710   5.399  10.535 -0.2218 -1.8267  0.7083
   58MOL0     H 7997   9.751   5.411  10.369 -1.0677  0.0554  0.4104
   58MOL0     H 7998   9.612   5.170  10.499  0.4832 -1.5419 -1.5314
   58MOL0     H 7999   9.666   5.169  10.333 -1.2519  0.8655 -0.2000
   58MOL0     H 8000   9.333   5.419  10.355  1.9034  1.8827  0.0276
   58MOL0     H 8001  10.179   5.566  10.602  1.7782  0.3113 -0.3076
   58MOL0     H 8002  10.377   5.665  10.647  3.1002  2.1168  1.6257
   58MOL0     H 8003  10.442   5.765  10.524 -1.5860  0.5768 -1.1854
   58MOL0     H 8004  10.358   5.842  10.651  4.4134 -0.3075 -1.4368
   59MOL0     O 8005   3.179   0.999   4.769 -0.4016 -0.2779  0.4874
   59MOL0     C 8006   3.165   1.020   4.653  0.5518  0.4912  1.1662
   59MOL0     O 8007   3.243   0.979   4.552  0.2818  0.4388  0.3267
   59MOL0     C 8008   3.351   0.910   4.585  0.0697 -0.9355 -0.2688
   59MOL0     C 8009   3.471   0.965   4.638  0.7806  0.2557 -0.1671
   59MOL0     C 8010   3.579   0.879   4.661 -0.1211 -0.4016 -0.3994
   59MOL0     C 8011   3.564   0.746   4.625  0.9055  0.1128  0.1234
   59MOL0     O 8012   3.674   0.663   4.646  0.2630 -1.2751  0.6451
   59MOL0     C 8013   3.727   0.606   4.526 -0.1453  0.0593 -0.2678
   59MOL0     C 8014   3.871   0.556   4.549  1.1459 -0.2291  0.6388
   59MOL0     C 8015   3.894   0.463   4.670 -0.1444  0.1697  0.0211
   59MOL0     C 8016   3.837   0.322   4.625 -0.1337  0.2552  0.6806
   59MOL0     C 8017   3.801   0.236   4.743 -0.6620  0.8128  0.2186
   59MOL0     C 8018   3.927   0.180   4.806  0.6633 -0.0538 -1.0367
   59MOL0     C 8019   3.889   0.129   4.954 -0.4120 -0.4924  0.5339
   59MOL0     C 8020   4.003   0.058   5.026  0.4676 -0.3565 -0.9692
   59MOL0     N 8021   3.990   0.060   5.174 -0.6514  0.2501 -0.4409
   59MOL0     C 8022   4.039   0.158   5.259  0.2335 -0.7005  0.7981
   59MOL0     C 8023   3.998   0.118   5.381  0.5332  0.1748 -0.4314
   59MOL0     C 8024   4.031   0.171   5.515  0.0605 -0.0109 -0.6461
   59MOL0     C 8025   4.179   0.148   5.556  0.2147 -0.0048 -0.0289
   59MOL0     C 8026   4.164   0.093   5.703  1.3326  0.0328 -0.0164
   59MOL0     C 8027   4.282   0.027   5.761 -0.2855  0.4595 -0.3397
   59MOL0     O 8028   4.397   0.092   5.708  0.7394  0.1920 -0.1812
   59MOL0     C 8029   4.466   0.183   5.786  0.6361  0.1807  0.5625
   59MOL0     C 8030   4.601   0.204   5.750  0.2581  0.0126  0.0686
   59MOL0     C 8031   4.700   0.271   5.820  0.6238  0.2666 -0.7998
   59MOL0     C 8032   4.836   0.269   5.763  0.1641  0.4251 -0.2969
   59MOL0     C 8033   4.662   0.320   5.948 -1.0747 -0.5266 -0.5303
   59MOL0     C 8034   4.756   0.386   6.034  0.7605 -0.6618 -0.1855
   59MOL0     O 8035   4.700   0.464   6.129  0.7514 -0.5496  0.7494
   59MOL0     C 8036   4.776   0.542   6.218 -1.1901 -0.3040  0.0035
   59MOL0     C 8037   4.809   0.492   6.342  0.9953  0.0382 -0.1466
   59MOL0     C 8038   4.884   0.564   6.429  0.7370  0.3469  0.7376
   59MOL0     C 8039   4.924   0.695   6.394 -0.0346 -0.1317  1.1084
   59MOL0     O 8040   5.011   0.765   6.467  0.1568  0.1761 -1.0650
   59MOL0     C 8041   4.945   0.834   6.577 -0.3620 -0.0341  0.1770
   59MOL0     C 8042   5.032   0.852   6.696  0.1430 -0.5339 -0.6420
   59MOL0     C 8043   5.094   0.720   6.745  0.7674 -0.1207  0.0936
   59MOL0     C 8044   5.122   0.741   6.889 -0.3236  0.4037 -0.1986
   59MOL0     C 8045   5.241   0.836   6.926 -0.1517  0.3973 -0.3336
   59MOL0     C 8046   5.245   0.867   7.075 -0.7255 -1.1528 -0.4369
   59MOL0     C 8047   5.138   0.961   7.127  0.4842 -0.3406  0.3922
   59MOL0     C 8048   5.174   0.995   7.269 -0.5428 -0.7344  0.4496
   59MOL0    Cl 8049   5.135   0.854   7.367 -0.1387  0.3640 -0.5597
   59MOL0     C 8050   4.888   0.746   6.269  0.6995  0.0832  0.0732
   59MOL0     C 8051   4.809   0.673   6.178  0.0778 -0.1166  0.0624
   59MOL0     O 8052   4.867   0.358   6.034 -1.2156 -0.7888 -0.2293
   59MOL0     C 8053   4.525   0.316   5.989  1.2337 -0.5517 -0.3015
   59MOL0     C 8054   4.425   0.253   5.905 -0.7660  0.2579  0.7068
   59MOL0     N 8055   3.931   0.005   5.369  0.8020 -0.5779 -0.7143
   59MOL0     N 8056   3.917  -0.026   5.245  0.4373  0.3851 -0.0922
   59MOL0     C 8057   3.444   0.698   4.570  0.2836  0.7236 -0.7423
   59MOL0     C 8058   3.338   0.776   4.545  1.2036  0.2765  0.3454
   59MOL0     C 8059   3.043   1.089   4.608  0.5920 -0.5756 -0.0505
   59MOL0     C 8060   2.977   1.176   4.699  0.0892  0.5441 -0.2638
   59MOL0     C 8061   2.861   1.251   4.677  0.1052 -0.6385 -0.1037
   59MOL0     C 8062   2.793   1.244   4.555  0.1514  0.5827 -0.4594
   59MOL0     O 8063   2.671   1.301   4.522 -1.0281  0.1710  0.7228
   59MOL0     C 8064   2.605   1.387   4.613 -0.1310 -0.1001 -0.2048
   59MOL0     C 8065   2.538   1.506   4.537 -0.8733  0.4915 -0.0907
   59MOL0     C 8066   2.463   1.603   4.634 -0.3578 -0.0191 -0.3664
   59MOL0     C 8067   2.375   1.692   4.548 -0.0285  0.5722 -0.0900
   59MOL0     C 8068   2.282   1.778   4.613  0.8383 -0.3558  0.2079
   59MOL0     C 8069   2.205   1.838   4.686 -0.2278 -0.3958 -0.5245
   59MOL0     C 8070   2.858   1.166   4.463 -0.1244  0.2768  0.1031
   59MOL0     C 8071   2.973   1.082   4.482  0.9723  0.2410 -0.4405
   59MOL0     C 8072   3.026   0.990   4.377 -0.8937 -0.7543 -0.0058
   59MOL0     H 8073   3.464   1.070   4.664 -0.6806  0.4678 -1.2769
   59MOL0     H 8074   3.673   0.922   4.695 -1.6241  1.4712  1.6371
   59MOL0     H 8075   3.725   0.683   4.448 -1.1666 -1.2290 -1.5968
   59MOL0     H 8076   3.654   0.532   4.490  0.6064 -0.7280 -0.2120
   59MOL0     H 8077   3.898   0.501   4.458  0.2428 -0.9896  0.8111
   59MOL0     H 8078   3.932   0.646   4.553  1.8766 -0.7451  1.6717
   59MOL0     H 8079   3.999   0.467   4.699  0.4829  3.6071 -2.2454
   59MOL0     H 8080   3.842   0.514   4.751 -3.0725 -1.1141 -0.9174
   59MOL0     H 8081   3.757   0.334   4.552  1.1290  0.2879 -0.7602
   59MOL0     H 8082   3.918   0.268   4.574  0.2475  2.1438 -0.8108
   59MOL0     H 8083   3.744   0.150   4.705  0.8666 -0.5613  0.9104
   59MOL0     H 8084   3.748   0.301   4.813 -0.2952  3.9087 -2.1774
   59MOL0     H 8085   3.956   0.099   4.738 -0.3563 -0.8983 -0.4939
   59MOL0     H 8086   3.999   0.261   4.820 -0.9172  1.3186 -0.5528
   59MOL0     H 8087   3.805   0.064   4.928  1.4603 -1.5964 -3.6156
   59MOL0     H 8088   3.859   0.204   5.027  0.6264 -0.9419  1.4445
   59MOL0     H 8089   4.001  -0.049   5.002  0.5801 -0.0836 -2.2545
   59MOL0     H 8090   4.098   0.097   4.989  2.1482 -0.1798  2.9907
   59MOL0     H 8091   4.110   0.238   5.242 -1.4466  0.8782  0.8976
   59MOL0     H 8092   3.958   0.124   5.583  0.7705  0.0838  0.1998
   59MOL0     H 8093   4.019   0.279   5.505  1.2565 -0.0369 -3.2649
   59MOL0     H 8094   4.244   0.081   5.499  1.6520  0.5262  0.9415
   59MOL0     H 8095   4.228   0.245   5.552  1.3436 -0.5978 -2.1814
   59MOL0     H 8096   4.127   0.172   5.769  0.2269  0.0418 -0.6216
   59MOL0     H 8097   4.088   0.015   5.708 -0.0138  1.3826  1.8882
   59MOL0     H 8098   4.279   0.026   5.870  0.1139  2.8803 -0.2378
   59MOL0     H 8099   4.278  -0.073   5.719 -1.5312  1.0269 -1.6563
   59MOL0     H 8100   4.633   0.156   5.658  2.9411  1.2456  0.2695
   59MOL0     H 8101   4.835   0.269   5.654  1.3782 -0.9623 -0.3398
   59MOL0     H 8102   4.886   0.176   5.792  0.3577  1.1030  1.6904
   59MOL0     H 8103   4.893   0.351   5.809  0.9210 -0.0975 -0.2933
   59MOL0     H 8104   4.791   0.387   6.363 -2.1008  0.8065  1.6192
   59MOL0     H 8105   4.918   0.512   6.518 -1.1029 -1.3863  0.4834
   59MOL0     H 8106   4.907   0.929   6.537 -0.6726 -1.7462 -4.1769
   59MOL0     H 8107   4.861   0.773   6.613  2.7867 -3.9481  1.5268
   59MOL0     H 8108   5.114   0.922   6.681  1.9382 -2.4474 -0.1941
   59MOL0     H 8109   4.974   0.900   6.775  1.3964  2.2684 -1.3198
   59MOL0     H 8110   5.178   0.672   6.694 -1.0015 -4.2735  0.7169
   59MOL0     H 8111   5.021   0.639   6.738  1.6614 -0.9133 -0.3587
   59MOL0     H 8112   5.155   0.644   6.927 -1.7557 -0.2792 -0.6168
   59MOL0     H 8113   5.033   0.768   6.947  1.3341  1.4273  2.0079
   59MOL0     H 8114   5.333   0.781   6.904 -1.4571 -1.6057 -1.1029
   59MOL0     H 8115   5.252   0.932   6.873  0.0050  0.2754 -0.5241
   59MOL0     H 8116   5.346   0.900   7.102 -1.4724  1.1475 -0.2565
   59MOL0     H 8117   5.237   0.783   7.145 -0.9216  1.7231  3.3219
   59MOL0     H 8118   5.034   0.932   7.115 -0.5914  3.6221 -1.7441
   59MOL0     H 8119   5.146   1.049   7.063  1.4861  0.7287  1.8914
   59MOL0     H 8120   5.115   1.081   7.301 -0.6965  0.6776 -3.1563
   59MOL0     H 8121   5.276   1.031   7.279 -0.8184 -0.1221  1.1380
   59MOL0     H 8122   4.926   0.841   6.234 -0.9236  1.0528  0.8122
   59MOL0     H 8123   4.782   0.711   6.080 -1.0370  3.8963  1.7093
   59MOL0     H 8124   4.490   0.369   6.077 -0.0463 -3.0872  0.8500
   59MOL0     H 8125   4.324   0.259   5.946 -0.3292  1.1330  1.7178
   59MOL0     H 8126   3.436   0.592   4.552 -0.1260  0.6624 -0.2068
   59MOL0     H 8127   3.250   0.732   4.500  1.2183 -1.5910  2.0368
   59MOL0     H 8128   3.006   1.182   4.803 -1.6686 -1.2072  0.3912
   59MOL0     H 8129   2.816   1.308   4.757  0.8986 -0.1432 -0.0001
   59MOL0     H 8130   2.528   1.340   4.675 -0.5990  0.4584 -0.3470
   59MOL0     H 8131   2.669   1.436   4.687  0.0395 -0.0223 -0.4052
   59MOL0     H 8132   2.471   1.458   4.465  3.8742 -2.7930 -2.8488
   59MOL0     H 8133   2.610   1.567   4.482  0.8735 -1.0677  0.3666
   59MOL0     H 8134   2.392   1.555   4.702  0.1825 -2.8038 -1.6108
   59MOL0     H 8135   2.539   1.655   4.693  0.0500  0.2148 -1.0865
   59MOL0     H 8136   2.304   1.630   4.492 -0.6840  1.8341 -0.7028
   59MOL0     H 8137   2.442   1.742   4.478  1.6338 -1.3508  0.0342
   59MOL0     H 8138   2.127   1.887   4.741  0.9357  2.9740 -1.6816
   59MOL0     H 8139   2.831   1.165   4.358 -0.7895  2.4483  0.1917
   59MOL0     H 8140   3.038   0.893   4.427  1.4270 -0.0049  1.0325
   59MOL0     H 8141   2.957   0.971   4.294 -0.8098 -2.3200  0.2367
   59MOL0     H 8142   3.125   1.009   4.335 -0.6496  1.0857  1.2856
   60MOL0     O 8143   6.027   9.896   3.860 -0.7062  0.3300 -0.6602
   60MOL0     C 8144   5.910   9.931   3.899  0.4048 -0.4221  0.8024
   60MOL0     O 8145   5.890  10.029   3.985 -0.4989 -0.0967  0.1555
   60MOL0     C 8146   5.992  10.116   4.017  0.2784 -0.3361  0.7967
   60MOL0     C 8147   6.094  10.169   3.938 -1.3651 -0.4779  1.0150
   60MOL0     C 8148   6.181  10.271   3.980 -0.2603 -0.3610  0.0769
   60MOL0     C 8149   6.169  10.310   4.113 -0.3721  0.2902 -0.0326
   60MOL0     O 8150   6.235  10.418   4.163 -1.0509 -0.7949 -0.3550
   60MOL0     C 8151   6.346  10.465   4.079 -0.6266 -0.1166 -0.7689
   60MOL0     C 8152   6.421  10.575   4.164 -0.0515  0.0793 -0.6616
   60MOL0     C 8153   6.552  10.600   4.089  0.6147  0.0294 -0.3203
   60MOL0     C 8154   6.656  10.677   4.159  0.3181 -1.0655 -0.3502
   60MOL0     C 8155   6.767  10.734   4.073 -0.2149 -0.5287 -0.4449
   60MOL0     C 8156   6.881  10.794   4.153  1.3729 -0.5276  0.5119
   60MOL0     C 8157   6.988  10.849   4.063  0.4220 -1.0931 -0.0717
   60MOL0     C 8158   7.082  10.920   4.154 -0.1621 -0.1157 -0.6704
   60MOL0     N 8159   7.215  10.940   4.089  0.7299 -0.2553 -0.0422
   60MOL0     C 8160   7.236  11.027   3.980  0.5234 -0.7335 -0.9140
   60MOL0     C 8161   7.372  11.034   3.965  0.3875 -0.3288 -0.1519
   60MOL0     C 8162   7.449  11.101   3.847 -0.0368 -0.5304 -0.1120
   60MOL0     C 8163   7.382  11.236   3.816  0.7605  0.1736  0.0001
   60MOL0     C 8164   7.431  11.284   3.682 -0.5493 -0.0539  0.2777
   60MOL0     C 8165   7.574  11.285   3.672  0.1190  0.9221 -0.0972
   60MOL0     O 8166   7.622  11.340   3.544  0.1976 -0.7682  0.0639
   60MOL0     C 8167   7.762  11.328   3.522  0.2265 -0.1543  0.2207
   60MOL0     C 8168   7.810  11.402   3.415  0.9703  0.0053 -0.3767
   60MOL0     C 8169   7.942  11.416   3.379  0.0754 -0.3155 -1.1987
   60MOL0     C 8170   7.975  11.509   3.269  1.1056  0.1881 -0.4613
   60MOL0     C 8171   8.035  11.347   3.466 -0.0317  0.4382 -0.0175
   60MOL0     C 8172   8.184  11.341   3.436 -0.3599  0.7005  0.2670
   60MOL0     O 8173   8.232  11.415   3.328  0.1711 -0.3762 -0.5030
   60MOL0     C 8174   8.367  11.433   3.305  0.0522 -0.5111  0.0803
   60MOL0     C 8175   8.477  11.350   3.338  0.7103  1.2455 -1.0027
   60MOL0     C 8176   8.610  11.384   3.305  0.2647  0.7303  0.8827
   60MOL0     C 8177   8.628  11.515   3.246 -0.2084 -0.0659 -0.2206
   60MOL0     O 8178   8.761  11.551   3.223  0.1721 -0.1912  0.4076
   60MOL0     C 8179   8.788  11.650   3.129 -0.2066 -0.0324  0.1041
   60MOL0     C 8180   8.931  11.690   3.148 -0.8272 -0.3116 -0.2247
   60MOL0     C 8181   9.038  11.590   3.084  0.0757  0.5945  0.4874
   60MOL0     C 8182   9.169  11.647   3.065  0.3339  0.2518 -0.9503
   60MOL0     C 8183   9.258  11.556   2.978  0.0877 -0.0110 -0.3739
   60MOL0     C 8184   9.406  11.584   3.015  0.2025 -0.4755 -0.2703
   60MOL0     C 8185   9.499  11.516   2.921  0.1317 -0.3448  0.4040
   60MOL0     C 8186   9.648  11.550   2.916  0.6281  0.6870  0.5116
   60MOL0    Cl 8187   9.729  11.606   3.074  0.1463 -0.2710  0.0745
   60MOL0     C 8188   8.521  11.602   3.216 -0.6407  0.4821 -0.7135
   60MOL0     C 8189   8.389  11.561   3.247 -0.0902 -1.0207  0.3855
   60MOL0     O 8190   8.252  11.273   3.509 -0.1001 -0.2798  0.2800
   60MOL0     C 8191   7.988  11.273   3.576 -1.4288  0.3997 -0.3991
   60MOL0     C 8192   7.851  11.261   3.607 -0.6216  0.3579 -0.4324
   60MOL0     N 8193   7.425  10.938   4.049  0.5723  0.9066  0.4418
   60MOL0     N 8194   7.334  10.886   4.126  0.6274  0.0601 -0.2012
   60MOL0     C 8195   6.067  10.271   4.185  0.3537  0.6103 -0.1026
   60MOL0     C 8196   5.982  10.174   4.145  0.2958  0.2520 -0.2922
   60MOL0     C 8197   5.783   9.862   3.853  0.5717 -1.4547 -0.1608
   60MOL0     C 8198   5.797   9.739   3.791 -0.6399  0.2095  1.3071
   60MOL0     C 8199   5.687   9.661   3.766  0.4155 -0.6430  0.0047
   60MOL0     C 8200   5.557   9.713   3.770 -0.1299 -0.7632  0.1568
   60MOL0     O 8201   5.441   9.645   3.735  0.3918 -0.6110  0.1791
   60MOL0     C 8202   5.436   9.500   3.757  0.3721 -0.5467  0.2709
   60MOL0     C 8203   5.411   9.475   3.908  0.3381 -0.3735  0.3977
   60MOL0     C 8204   5.289   9.535   3.966  0.6267  0.1159 -0.6902
   60MOL0     C 8205   5.163   9.549   3.877 -0.4865 -0.6223  0.0227
   60MOL0     C 8206   5.104   9.418   3.842 -0.5900  0.1974 -0.0706
   60MOL0     C 8207   5.053   9.320   3.791  0.1012 -0.4565 -0.2456
   60MOL0     C 8208   5.540   9.849   3.803 -0.1375  0.0710 -0.7651
   60MOL0     C 8209   5.646   9.920   3.852 -0.4629 -0.1174 -0.5575
   60MOL0     C 8210   5.625  10.062   3.887 -0.4392  0.0954  0.0645
   60MOL0     H 8211   6.100  10.146   3.832 -0.9864  2.5805  0.2757
   60MOL0     H 8212   6.250  10.305   3.904  2.5711 -0.8652  2.2723
   60MOL0     H 8213   6.315  10.517   3.988  0.4114  0.4325 -0.8284
   60MOL0     H 8214   6.412  10.382   4.052  1.9319  1.2175  1.0328
   60MOL0     H 8215   6.354  10.662   4.161  1.1887  1.0454 -1.6126
   60MOL0     H 8216   6.426  10.559   4.272 -2.4988 -3.6550 -0.9428
   60MOL0     H 8217   6.602  10.504   4.073  1.4907  0.6450 -1.4048
   60MOL0     H 8218   6.537  10.645   3.990  2.9963  0.7703 -0.4187
   60MOL0     H 8219   6.599  10.754   4.213  0.7428 -0.8860 -0.1487
   60MOL0     H 8220   6.712  10.608   4.223 -0.9482 -1.1160  0.7370
   60MOL0     H 8221   6.725  10.806   4.002  0.2836 -1.3807 -1.6261
   60MOL0     H 8222   6.812  10.654   4.015  2.0967 -1.0814  1.9186
   60MOL0     H 8223   6.848  10.872   4.222  0.1583  0.3852 -1.0408
   60MOL0     H 8224   6.932  10.714   4.208  0.8714 -1.4085 -0.2764
   60MOL0     H 8225   6.943  10.914   3.988  1.9698 -0.3367 -0.3693
   60MOL0     H 8226   7.041  10.778   3.999  0.5715 -0.2735 -0.8638
   60MOL0     H 8227   7.044  11.022   4.164 -0.2638 -0.3320  1.7198
   60MOL0     H 8228   7.092  10.871   4.252 -1.0098 -3.1768 -1.9912
   60MOL0     H 8229   7.166  11.083   3.918  0.3213 -2.4382 -2.3092
   60MOL0     H 8230   7.452  11.036   3.759 -1.6341  0.0168 -0.5913
   60MOL0     H 8231   7.548  11.126   3.886  1.5395 -2.4065 -2.5578
   60MOL0     H 8232   7.273  11.246   3.822  0.9328  2.7718  0.2167
   60MOL0     H 8233   7.411  11.314   3.887 -4.2544  0.9604  1.5239
   60MOL0     H 8234   7.387  11.224   3.601  1.5609  0.2017 -1.1330
   60MOL0     H 8235   7.399  11.388   3.667 -2.0961 -0.2935  1.5850
   60MOL0     H 8236   7.622  11.335   3.757  1.2859 -1.0984  0.4990
   60MOL0     H 8237   7.608  11.181   3.667 -1.0871  0.5271 -0.3166
   60MOL0     H 8238   7.744  11.467   3.359  4.2721  2.0122 -2.2856
   60MOL0     H 8239   8.047  11.585   3.301 -1.6179  3.2156 -0.9956
   60MOL0     H 8240   7.881  11.557   3.239 -0.4204 -2.4516 -0.2607
   60MOL0     H 8241   8.021  11.461   3.182  5.0422  2.2012  0.2654
   60MOL0     H 8242   8.444  11.255   3.378 -1.8503  1.8873 -1.3793
   60MOL0     H 8243   8.688  11.309   3.305 -0.0970  0.3428  1.2697
   60MOL0     H 8244   8.773  11.610   3.028  1.2315 -2.2792  0.7089
   60MOL0     H 8245   8.732  11.741   3.152 -1.5380 -0.8513  0.2106
   60MOL0     H 8246   8.945  11.783   3.094 -0.6068 -2.5547 -4.4396
   60MOL0     H 8247   8.948  11.694   3.256  0.3528 -2.5334 -0.2671
   60MOL0     H 8248   8.998  11.546   2.992  2.8259  0.7341 -0.8723
   60MOL0     H 8249   9.052  11.496   3.138  5.2831  0.4404 -0.5643
   60MOL0     H 8250   9.216  11.656   3.164 -3.4063  0.5653  0.9731
   60MOL0     H 8251   9.167  11.751   3.033  0.6292 -0.1978 -2.5137
   60MOL0     H 8252   9.233  11.451   2.993 -2.6718  0.3058 -2.0292
   60MOL0     H 8253   9.245  11.574   2.871  2.7728  0.8053 -0.6286
   60MOL0     H 8254   9.418  11.535   3.113  0.2872  0.3714  0.1520
   60MOL0     H 8255   9.414  11.691   3.032  0.2525 -0.3107 -1.2970
   60MOL0     H 8256   9.472  11.536   2.816  3.1256 -1.6925 -0.7297
   60MOL0     H 8257   9.493  11.408   2.938  1.1917 -0.1455  2.2093
   60MOL0     H 8258   9.655  11.633   2.845  0.9876 -0.4288 -0.7892
   60MOL0     H 8259   9.697  11.460   2.879 -1.8541 -0.8712  0.7251
   60MOL0     H 8260   8.536  11.700   3.171  1.9401  0.6302  0.3213
   60MOL0     H 8261   8.309  11.631   3.225  1.9350  1.0128 -1.0002
   60MOL0     H 8262   8.054  11.225   3.648 -0.4473  1.5210 -0.5252
   60MOL0     H 8263   7.824  11.217   3.703 -1.1114  2.0750  0.2483
   60MOL0     H 8264   6.041  10.327   4.274 -2.6114  0.9634 -1.0692
   60MOL0     H 8265   5.896  10.148   4.207  1.6877 -1.7855  0.8858
   60MOL0     H 8266   5.893   9.690   3.778 -1.9312 -3.0957  2.9996
   60MOL0     H 8267   5.711   9.558   3.740 -0.9033 -0.8460 -0.4564
   60MOL0     H 8268   5.356   9.456   3.696  0.3448 -1.4084  0.9071
   60MOL0     H 8269   5.525   9.441   3.735  1.0834  0.5672  0.0663
   60MOL0     H 8270   5.501   9.511   3.959  0.3288  0.9928 -0.5137
   60MOL0     H 8271   5.418   9.369   3.937  1.6327 -1.0850 -2.2632
   60MOL0     H 8272   5.267   9.491   4.063  3.2066 -0.6504 -0.4066
   60MOL0     H 8273   5.322   9.635   3.998  1.0955 -0.3664  0.3662
   60MOL0     H 8274   5.186   9.614   3.793 -1.8218  2.6089  1.9598
   60MOL0     H 8275   5.085   9.607   3.927  0.0087 -0.6765  0.8802
   60MOL0     H 8276   5.018   9.238   3.732  2.0891 -0.2718 -1.7992
   60MOL0     H 8277   5.442   9.895   3.816  0.3926  1.0517 -0.1426
   60MOL0     H 8278   5.657  10.079   3.991  0.8278  3.2911 -0.7247
   60MOL0     H 8279   5.695  10.132   3.839 -0.2416  1.3976  2.1115
   60MOL0     H 8280   5.524  10.102   3.878 -0.2102  0.4059 -1.2395
   61MOL0     O 8281   6.368   0.994   8.871 -1.1236  0.2693 -0.8647
   61MOL0     C 8282   6.453   0.909   8.834 -1.0722 -0.0604  0.3131
   61MOL0     O 8283   6.433   0.784   8.793  0.2128 -0.4089  0.2617
   61MOL0     C 8284   6.299   0.743   8.790  1.1969  0.1165 -0.5643
   61MOL0     C 8285   6.212   0.740   8.899  0.1307 -1.0578 -0.0525
   61MOL0     C 8286   6.089   0.677   8.886  0.5419  0.0865 -0.4120
   61MOL0     C 8287   6.043   0.626   8.767 -0.0165 -0.2292  0.0234
   61MOL0     O 8288   5.917   0.583   8.758 -0.5512  0.0918  0.2554
   61MOL0     C 8289   5.865   0.557   8.633  1.1748  1.1344  0.1388
   61MOL0     C 8290   5.726   0.497   8.644 -0.4637  0.6986 -0.2588
   61MOL0     C 8291   5.758   0.353   8.695 -0.0574  0.2910 -0.5560
   61MOL0     C 8292   5.655   0.317   8.790  0.9565 -1.1988 -0.4742
   61MOL0     C 8293   5.660   0.172   8.833 -0.1140  0.9169  0.0430
   61MOL0     C 8294   5.800   0.131   8.882  0.7923 -0.1361  0.6798
   61MOL0     C 8295   5.834   0.203   9.021  0.4247 -0.2088  0.7455
   61MOL0     C 8296   5.965   0.143   9.088  0.2440 -0.0924  0.2682
   61MOL0     N 8297   6.075   0.154   8.999 -0.8986  0.7318  0.8434
   61MOL0     C 8298   6.116   0.271   8.944 -0.1169 -1.1635  0.0171
   61MOL0     C 8299   6.212   0.241   8.855  0.0936  0.4350  1.0614
   61MOL0     C 8300   6.290   0.336   8.768  0.4964 -0.0600  0.3716
   61MOL0     C 8301   6.440   0.345   8.809 -0.1686  0.4212 -0.1922
   61MOL0     C 8302   6.521   0.419   8.695  0.2443  0.0508 -0.4925
   61MOL0     C 8303   6.669   0.372   8.682 -0.2041  0.4472  0.3056
   61MOL0     O 8304   6.745   0.390   8.802  0.1575  0.6618 -0.0958
   61MOL0     C 8305   6.881   0.379   8.796  0.7730  0.2953  0.0698
   61MOL0     C 8306   6.955   0.327   8.692  0.0330  0.0518  0.1502
   61MOL0     C 8307   7.097   0.326   8.685  0.3710  1.0138  0.2981
   61MOL0     C 8308   7.155   0.271   8.552  0.5429 -0.5185 -0.2826
   61MOL0     C 8309   7.165   0.380   8.789  0.1710 -0.4815  0.8145
   61MOL0     C 8310   7.311   0.378   8.802  1.1489  0.5651 -0.6196
   61MOL0     O 8311   7.362   0.462   8.904  0.1856  0.6130 -0.0863
   61MOL0     C 8312   7.499   0.473   8.915  0.4823 -0.1210 -1.1087
   61MOL0     C 8313   7.568   0.554   8.833 -0.0438 -0.2995  0.3038
   61MOL0     C 8314   7.710   0.572   8.839  0.7006  0.4108  0.5270
   61MOL0     C 8315   7.778   0.491   8.929 -1.0241  0.0061  0.3552
   61MOL0     O 8316   7.922   0.488   8.941  0.8663 -0.5802  0.4765
   61MOL0     C 8317   8.001   0.592   8.876  0.0886 -0.0179 -0.2482
   61MOL0     C 8318   8.141   0.590   8.943 -0.2490  0.0661 -0.0400
   61MOL0     C 8319   8.139   0.615   9.099  1.3310 -0.0796 -0.4966
   61MOL0     C 8320   8.069   0.744   9.139 -0.1179  0.2908 -0.3250
   61MOL0     C 8321   8.068   0.770   9.291 -0.0190 -0.9933 -0.4023
   61MOL0     C 8322   8.202   0.822   9.346 -0.4196  0.2192  0.2253
   61MOL0     C 8323   8.199   0.834   9.494 -0.0548 -0.2913 -0.1372
   61MOL0     C 8324   8.342   0.805   9.555 -0.9362 -0.6302  0.1205
   61MOL0    Cl 8325   8.324   0.848   9.728 -0.2106 -0.0344  0.1445
   61MOL0     C 8326   7.706   0.404   9.011 -0.7456  0.3867  0.6148
   61MOL0     C 8327   7.561   0.400   9.005 -0.2543  0.4378 -0.0023
   61MOL0     O 8328   7.364   0.286   8.746 -0.1325 -0.0466  0.5679
   61MOL0     C 8329   7.094   0.422   8.896  0.4588  0.1734 -0.3892
   61MOL0     C 8330   6.951   0.422   8.905  0.0596 -0.1348 -0.0743
   61MOL0     N 8331   6.238   0.102   8.864  0.6689 -0.1128 -0.2294
   61MOL0     N 8332   6.150   0.050   8.941  0.6864 -0.2224  0.0516
   61MOL0     C 8333   6.133   0.624   8.661 -0.5631 -0.3682  0.1245
   61MOL0     C 8334   6.258   0.682   8.670  0.8104 -0.4745 -0.3855
   61MOL0     C 8335   6.599   0.947   8.827 -0.3879 -0.3188  0.3980
   61MOL0     C 8336   6.620   1.081   8.789  1.0592  0.4879 -0.2040
   61MOL0     C 8337   6.750   1.134   8.781  0.3201 -0.3562  0.3305
   61MOL0     C 8338   6.864   1.056   8.806  0.0549  0.6214  0.1958
   61MOL0     O 8339   6.987   1.108   8.786 -0.4564  0.2463  0.1037
   61MOL0     C 8340   7.113   1.036   8.805 -0.5580 -0.9257 -0.0232
   61MOL0     C 8341   7.221   1.142   8.772  0.0584  0.3357  0.2129
   61MOL0     C 8342   7.247   1.155   8.626 -0.5931  0.0719  0.4298
   61MOL0     C 8343   7.349   1.266   8.586 -0.5504  0.2371  0.4697
   61MOL0     C 8344   7.336   1.294   8.445 -0.2392  0.6871  0.8149
   61MOL0     C 8345   7.314   1.329   8.332 -0.1368 -0.6770  0.1759
   61MOL0     C 8346   6.839   0.921   8.832  0.0921  0.6695  0.3706
   61MOL0     C 8347   6.708   0.862   8.843 -1.0961 -0.5319 -0.3655
   61MOL0     C 8348   6.711   0.735   8.919 -0.3189 -0.6063  0.4423
   61MOL0     H 8349   6.234   0.777   8.998 -4.1316 -0.0208  0.7044
   61MOL0     H 8350   6.017   0.679   8.968 -0.2825  2.9553 -1.0783
   61MOL0     H 8351   5.919   0.480   8.578 -1.8643 -1.9600  1.1142
   61MOL0     H 8352   5.849   0.653   8.584 -2.9752  0.7063  0.3353
   61MOL0     H 8353   5.676   0.568   8.710  0.4109 -1.3490  2.8245
   61MOL0     H 8354   5.687   0.481   8.543  0.2869 -0.4125 -0.3985
   61MOL0     H 8355   5.743   0.279   8.616 -0.7753  0.6607 -0.7735
   61MOL0     H 8356   5.864   0.338   8.719 -0.1899  0.5115  0.1813
   61MOL0     H 8357   5.657   0.370   8.886  1.5337 -2.0305 -0.0149
   61MOL0     H 8358   5.554   0.327   8.748  1.7387  0.1398 -2.1747
   61MOL0     H 8359   5.636   0.100   8.754 -1.8271 -0.0974  1.4128
   61MOL0     H 8360   5.580   0.153   8.905 -0.7924 -0.7311 -1.0784
   61MOL0     H 8361   5.796   0.023   8.900  1.7607 -0.5301 -1.1469
   61MOL0     H 8362   5.868   0.147   8.797  1.3526 -3.4199  0.3568
   61MOL0     H 8363   5.747   0.202   9.087  0.6861  0.1578  1.0986
   61MOL0     H 8364   5.850   0.310   9.002  2.5509 -0.9010 -2.1716
   61MOL0     H 8365   5.991   0.197   9.179  0.1019 -1.1443  0.9417
   61MOL0     H 8366   5.943   0.040   9.117  1.9099 -1.0137 -1.5347
   61MOL0     H 8367   6.061   0.364   8.957 -1.1315 -1.8795  1.0199
   61MOL0     H 8368   6.241   0.434   8.772  1.7588  0.5493  2.7812
   61MOL0     H 8369   6.289   0.294   8.667 -0.9228  2.2479 -0.6708
   61MOL0     H 8370   6.455   0.398   8.903 -1.0395 -1.1264  0.8674
   61MOL0     H 8371   6.481   0.246   8.834  0.9151  0.5276 -1.4367
   61MOL0     H 8372   6.470   0.404   8.599 -1.1772  1.9565 -0.0977
   61MOL0     H 8373   6.522   0.526   8.716  2.6784  0.1774 -1.0038
   61MOL0     H 8374   6.666   0.265   8.660  0.3972  0.3980  0.4539
   61MOL0     H 8375   6.723   0.415   8.597  0.5107 -1.0796 -0.0325
   61MOL0     H 8376   6.890   0.289   8.614  1.9559 -0.5997 -1.2040
   61MOL0     H 8377   7.096   0.292   8.463  0.4613 -1.0691 -0.3632
   61MOL0     H 8378   7.158   0.161   8.548 -0.5765 -0.6461  1.3994
   61MOL0     H 8379   7.256   0.311   8.549 -0.1474  1.4293  0.8189
   61MOL0     H 8380   7.514   0.623   8.769 -3.1655 -0.3110  2.6424
   61MOL0     H 8381   7.763   0.653   8.790  2.1515 -0.1621  1.0825
   61MOL0     H 8382   8.006   0.576   8.768 -1.7810  0.1160 -0.3860
   61MOL0     H 8383   7.961   0.693   8.892  2.1387  0.7158  0.5836
   61MOL0     H 8384   8.195   0.498   8.921 -0.4021  0.0442 -0.3347
   61MOL0     H 8385   8.198   0.676   8.906 -0.0351 -0.1741 -0.2680
   61MOL0     H 8386   8.244   0.613   9.129  1.1906  0.3473  0.0609
   61MOL0     H 8387   8.100   0.527   9.151  0.9866  0.6373  0.4967
   61MOL0     H 8388   7.966   0.750   9.101  0.1054  1.5973 -0.7710
   61MOL0     H 8389   8.120   0.831   9.097  0.1453 -0.1882 -1.0294
   61MOL0     H 8390   8.003   0.853   9.321  1.1137 -1.7733  5.2760
   61MOL0     H 8391   8.043   0.679   9.346  0.4532  0.3384  2.1308
   61MOL0     H 8392   8.227   0.918   9.300 -0.9240  0.3985  0.3145
   61MOL0     H 8393   8.278   0.752   9.313 -1.2334 -0.5085 -0.1479
   61MOL0     H 8394   8.130   0.753   9.522 -1.8281 -0.4004 -4.1213
   61MOL0     H 8395   8.171   0.929   9.540  0.3495 -1.1478  1.9896
   61MOL0     H 8396   8.422   0.865   9.510 -0.7078  1.1402  2.7233
   61MOL0     H 8397   8.355   0.697   9.542 -1.2498 -0.6780  0.2023
   61MOL0     H 8398   7.778   0.347   9.069  1.0992  2.8411  0.9200
   61MOL0     H 8399   7.514   0.342   9.083  2.1268 -1.9452 -0.1716
   61MOL0     H 8400   7.137   0.451   8.991 -2.1552  2.2787  0.2846
   61MOL0     H 8401   6.900   0.471   8.987 -0.0110  2.7418 -1.7014
   61MOL0     H 8402   6.110   0.580   8.565  1.9337  1.8357 -1.5951
   61MOL0     H 8403   6.316   0.667   8.580 -1.2588 -1.5234 -1.6229
   61MOL0     H 8404   6.536   1.148   8.772  0.1081 -0.6831 -0.2224
   61MOL0     H 8405   6.760   1.241   8.764 -2.1926 -0.0623  0.2114
   61MOL0     H 8406   7.120   1.012   8.911 -1.1867 -3.0186 -0.4132
   61MOL0     H 8407   7.117   0.950   8.738  1.5569 -0.5960 -0.3936
   61MOL0     H 8408   7.307   1.106   8.830  0.7592 -2.5304 -2.3281
   61MOL0     H 8409   7.181   1.234   8.816 -2.1747 -0.9133  0.9763
   61MOL0     H 8410   7.307   1.069   8.596  0.8916  0.6333  1.6541
   61MOL0     H 8411   7.154   1.169   8.570  1.1435 -0.4583 -2.8749
   61MOL0     H 8412   7.454   1.244   8.606  0.3119  3.9931  0.6760
   61MOL0     H 8413   7.315   1.349   8.649 -0.0677  1.2191 -0.5323
   61MOL0     H 8414   7.290   1.370   8.236  1.6857  5.4899  1.9405
   61MOL0     H 8415   6.926   0.862   8.859 -0.6223 -0.9014 -0.5601
   61MOL0     H 8416   6.781   0.748   9.002  0.5405 -0.6151 -0.2715
   61MOL0     H 8417   6.612   0.716   8.961  0.4312 -3.6636  1.1542
   61MOL0     H 8418   6.745   0.645   8.866  1.3386  0.9948 -1.3673
   62MOL0     O 8419   0.684   2.927   3.341  0.5578 -0.4201  0.0039
   62MOL0     C 8420   0.699   3.024   3.266 -0.7013  0.5465 -0.2543
   62MOL0     O 8421   0.602   3.076   3.186  0.2270  0.3663  0.0927
   62MOL0     C 8422   0.475   3.042   3.226  0.1092  0.1364 -0.8588
   62MOL0     C 8423   0.416   2.950   3.133  0.1492 -0.5314  1.0435
   62MOL0     C 8424   0.279   2.908   3.154  0.0830  0.5308  0.6214
   62MOL0     C 8425   0.208   2.962   3.256  0.8755  0.3671  0.2104
   62MOL0     O 8426   0.075   2.931   3.267  0.5858 -0.7036 -0.7350
   62MOL0     C 8427   0.042   2.879   3.402 -0.3447  1.4345 -0.0710
   62MOL0     C 8428  -0.118   2.883   3.414  0.1517 -1.0466 -0.6930
   62MOL0     C 8429  -0.171   2.785   3.520 -0.9219  0.4620 -0.6996
   62MOL0     C 8430  -0.319   2.811   3.550 -0.8286 -0.4405 -1.6045
   62MOL0     C 8431  -0.363   2.695   3.651  0.0678  0.3580 -0.6334
   62MOL0     C 8432  -0.501   2.724   3.702 -0.5280 -0.3859 -0.1995
   62MOL0     C 8433  -0.601   2.764   3.583 -0.3954  0.2390 -0.1930
   62MOL0     C 8434  -0.748   2.797   3.630 -0.5080 -0.2877 -0.8331
   62MOL0     N 8435  -0.749   2.920   3.710  1.1546 -0.1013  0.6435
   62MOL0     C 8436  -0.790   3.044   3.669  0.6079 -0.4240 -0.6230
   62MOL0     C 8437  -0.793   3.125   3.776  0.0027 -0.2796 -1.0285
   62MOL0     C 8438  -0.822   3.268   3.774  0.3796  0.0813  0.2405
   62MOL0     C 8439  -0.941   3.313   3.691  0.1641 -0.4107 -0.1680
   62MOL0     C 8440  -1.038   3.409   3.765  0.1282 -0.6247  1.0063
   62MOL0     C 8441  -0.973   3.550   3.780 -0.7234  1.1512 -0.0315
   62MOL0     O 8442  -0.992   3.633   3.668  0.8189 -0.4744 -0.4644
   62MOL0     C 8443  -0.921   3.752   3.675 -0.0024  0.6061 -0.1492
   62MOL0     C 8444  -0.919   3.817   3.552 -0.1032 -0.3383 -0.1285
   62MOL0     C 8445  -0.834   3.921   3.529  0.5909  0.5714  1.3556
   62MOL0     C 8446  -0.851   3.978   3.391 -0.2525 -0.9291 -0.3626
   62MOL0     C 8447  -0.762   3.974   3.639  0.1514  0.5569 -0.4179
   62MOL0     C 8448  -0.658   4.082   3.631  0.0486 -0.3740  1.2481
   62MOL0     O 8449  -0.581   4.111   3.742  0.5995 -0.6123  0.2153
   62MOL0     C 8450  -0.507   4.223   3.737  0.2635 -0.1054 -0.2723
   62MOL0     C 8451  -0.558   4.349   3.704  1.0715 -0.1007  0.3543
   62MOL0     C 8452  -0.478   4.462   3.729  0.6174  0.3813  0.5644
   62MOL0     C 8453  -0.349   4.455   3.779 -0.2964  0.9733 -0.4487
   62MOL0     O 8454  -0.274   4.559   3.811 -0.6061  0.3182 -0.8993
   62MOL0     C 8455  -0.171   4.591   3.712  0.0585  0.0911 -0.0279
   62MOL0     C 8456  -0.209   4.697   3.609  0.0609 -0.1008 -0.2139
   62MOL0     C 8457  -0.226   4.829   3.683  0.2241 -0.1084 -0.3578
   62MOL0     C 8458  -0.362   4.906   3.657  0.3089 -0.8877  0.5085
   62MOL0     C 8459  -0.360   5.057   3.702 -0.5492  0.0152 -0.1236
   62MOL0     C 8460  -0.497   5.123   3.684 -0.6332  0.4786 -0.1787
   62MOL0     C 8461  -0.506   5.263   3.751  0.4748  0.8278  1.1137
   62MOL0     C 8462  -0.643   5.322   3.701  0.6733  0.7108  0.2385
   62MOL0    Cl 8463  -0.786   5.237   3.787  0.0203  0.1330 -0.0433
   62MOL0     C 8464  -0.296   4.329   3.799 -0.2225  0.4491 -0.2102
   62MOL0     C 8465  -0.375   4.213   3.784 -0.1526  0.1496  0.0628
   62MOL0     O 8466  -0.637   4.131   3.519  0.0142  0.5302  0.9091
   62MOL0     C 8467  -0.783   3.918   3.769 -0.8182 -0.0373 -0.1106
   62MOL0     C 8468  -0.866   3.809   3.783  0.0218  0.3026 -0.6364
   62MOL0     N 8469  -0.748   3.055   3.884  0.0762  0.2612 -0.2232
   62MOL0     N 8470  -0.734   2.937   3.844 -0.6084  0.2549  0.0808
   62MOL0     C 8471   0.265   3.055   3.343 -0.0899 -0.8921 -0.2803
   62MOL0     C 8472   0.402   3.098   3.331 -0.4714 -0.6325 -0.6806
   62MOL0     C 8473   0.843   3.084   3.252  0.0200  0.2636 -0.5397
   62MOL0     C 8474   0.844   3.201   3.184 -0.6606  0.2035  0.7868
   62MOL0     C 8475   0.961   3.257   3.144  0.6996 -0.2528  0.8515
   62MOL0     C 8476   1.084   3.196   3.167  0.7829 -0.3196  0.8466
   62MOL0     O 8477   1.198   3.273   3.130 -0.4925  0.2861  0.7502
   62MOL0     C 8478   1.325   3.204   3.118 -0.2139  0.4602 -0.6591
   62MOL0     C 8479   1.430   3.293   3.040 -0.7296  0.6440  0.0163
   62MOL0     C 8480   1.568   3.210   3.046  0.6524 -0.3973 -0.4007
   62MOL0     C 8481   1.587   3.129   2.924  0.5596  0.9210  0.3834
   62MOL0     C 8482   1.611   3.229   2.812  0.4308  0.3904 -0.0210
   62MOL0     C 8483   1.622   3.318   2.732  0.6210 -0.5006 -0.0020
   62MOL0     C 8484   1.084   3.065   3.223 -0.4241 -0.4315  0.2930
   62MOL0     C 8485   0.966   3.009   3.268 -0.2468 -0.1230  0.0260
   62MOL0     C 8486   0.967   2.869   3.322  0.3633  0.3095  0.8830
   62MOL0     H 8487   0.468   2.908   3.047 -3.3877 -0.1975 -1.5261
   62MOL0     H 8488   0.219   2.835   3.101 -2.0931  0.3565  3.1384
   62MOL0     H 8489   0.086   2.928   3.490 -0.7461  0.4527  0.7035
   62MOL0     H 8490   0.067   2.773   3.408 -0.5817  1.4461  1.6481
   62MOL0     H 8491  -0.141   2.985   3.447  1.3120 -0.7078 -0.8895
   62MOL0     H 8492  -0.170   2.870   3.319  1.5229  2.7076 -2.1440
   62MOL0     H 8493  -0.158   2.680   3.495 -3.5240  0.1377 -0.9465
   62MOL0     H 8494  -0.119   2.812   3.613 -0.0272  1.2522 -1.4045
   62MOL0     H 8495  -0.326   2.910   3.595  1.6138 -0.3956 -1.2002
   62MOL0     H 8496  -0.381   2.801   3.460 -0.8867 -2.6072 -1.3701
   62MOL0     H 8497  -0.296   2.697   3.738 -0.1341 -1.2186 -0.4057
   62MOL0     H 8498  -0.364   2.595   3.606  1.2160 -0.9892  2.0902
   62MOL0     H 8499  -0.534   2.639   3.763 -2.9527 -0.0119 -0.8861
   62MOL0     H 8500  -0.480   2.808   3.769 -1.8614  0.9822 -1.4342
   62MOL0     H 8501  -0.601   2.684   3.508  2.5208 -1.1748  1.1382
   62MOL0     H 8502  -0.572   2.855   3.530 -0.7545 -1.3684 -3.4022
   62MOL0     H 8503  -0.813   2.804   3.543 -1.8921  2.2250  0.2769
   62MOL0     H 8504  -0.793   2.719   3.692  0.7269  0.9626  1.8028
   62MOL0     H 8505  -0.835   3.079   3.577  0.2075 -1.4000 -0.8161
   62MOL0     H 8506  -0.737   3.318   3.727 -1.0977  0.2481 -2.3983
   62MOL0     H 8507  -0.831   3.304   3.877  0.5164  1.6898 -0.2828
   62MOL0     H 8508  -0.902   3.373   3.609  0.5940 -0.2164  0.1751
   62MOL0     H 8509  -1.004   3.229   3.662 -2.6563  0.5160  2.6152
   62MOL0     H 8510  -1.127   3.428   3.705  0.8161  2.9298  0.9099
   62MOL0     H 8511  -1.055   3.378   3.869  2.7301 -0.9071  1.4298
   62MOL0     H 8512  -1.018   3.609   3.859  1.3515 -2.0511  3.9172
   62MOL0     H 8513  -0.868   3.534   3.806 -0.4141  2.3629 -0.4588
   62MOL0     H 8514  -0.970   3.761   3.474  2.1849 -1.7771 -0.6539
   62MOL0     H 8515  -0.888   4.075   3.425  1.6047 -0.3003 -0.0749
   62MOL0     H 8516  -0.935   3.930   3.339 -2.5496  4.4256 -2.2539
   62MOL0     H 8517  -0.754   3.985   3.343 -0.6243 -2.3625 -1.3938
   62MOL0     H 8518  -0.660   4.351   3.667  1.4610  1.9845 -0.7425
   62MOL0     H 8519  -0.522   4.562   3.724 -0.9664 -0.3588 -1.9511
   62MOL0     H 8520  -0.076   4.614   3.760  2.4523 -1.9456 -3.4050
   62MOL0     H 8521  -0.143   4.503   3.654 -0.5555 -0.1903  0.0960
   62MOL0     H 8522  -0.137   4.695   3.527 -0.0150  0.2872 -0.2912
   62MOL0     H 8523  -0.303   4.666   3.563 -0.3728  2.0298 -0.8845
   62MOL0     H 8524  -0.149   4.893   3.639  0.5867 -0.2340  0.0954
   62MOL0     H 8525  -0.220   4.819   3.791  1.1304 -3.1030 -0.5966
   62MOL0     H 8526  -0.448   4.856   3.704  1.7007 -2.8857  1.0430
   62MOL0     H 8527  -0.394   4.907   3.552 -2.6561 -0.0285  1.2975
   62MOL0     H 8528  -0.343   5.044   3.809  1.2294 -0.0695 -0.3935
   62MOL0     H 8529  -0.278   5.098   3.643 -1.3212 -0.0088 -1.2445
   62MOL0     H 8530  -0.569   5.047   3.716 -1.0811 -1.4004 -4.8370
   62MOL0     H 8531  -0.523   5.132   3.579 -1.3314  1.4150  0.0648
   62MOL0     H 8532  -0.438   5.334   3.705  1.2977 -1.5092 -1.5325
   62MOL0     H 8533  -0.497   5.248   3.859 -0.7370  0.4345  1.1743
   62MOL0     H 8534  -0.648   5.304   3.593  0.5866  0.2913  0.3103
   62MOL0     H 8535  -0.659   5.429   3.715 -3.6165  0.1852  0.8779
   62MOL0     H 8536  -0.197   4.326   3.844 -0.6593 -1.5600  0.7174
   62MOL0     H 8537  -0.319   4.120   3.790  0.6285  0.5971 -0.1936
   62MOL0     H 8538  -0.731   3.961   3.854  0.4579  2.0844 -1.8463
   62MOL0     H 8539  -0.878   3.776   3.886  1.5489  1.0993 -0.1798
   62MOL0     H 8540   0.212   3.085   3.433  0.0977 -1.6871  0.1122
   62MOL0     H 8541   0.451   3.164   3.402  0.1324 -1.3386 -0.4216
   62MOL0     H 8542   0.753   3.247   3.145 -0.6499 -1.3655 -1.2746
   62MOL0     H 8543   0.976   3.350   3.089  1.5736 -1.1589 -0.4907
   62MOL0     H 8544   1.358   3.192   3.222 -0.9817  0.5574 -0.3921
   62MOL0     H 8545   1.323   3.110   3.062  1.5906  1.3331 -2.2986
   62MOL0     H 8546   1.436   3.374   3.113  1.6322 -0.0766  0.7026
   62MOL0     H 8547   1.392   3.316   2.940 -1.0770  2.0393  0.4481
   62MOL0     H 8548   1.659   3.270   3.062  0.5284 -0.0275 -1.0688
   62MOL0     H 8549   1.571   3.140   3.130  0.0901 -0.0322 -0.0690
   62MOL0     H 8550   1.501   3.063   2.906 -0.2881  2.2361 -0.6351
   62MOL0     H 8551   1.677   3.069   2.939  1.2340  2.5710  3.7613
   62MOL0     H 8552   1.608   3.405   2.672 -2.8645 -0.0306  1.2748
   62MOL0     H 8553   1.175   3.008   3.237 -0.7552 -0.9633  0.3186
   62MOL0     H 8554   0.892   2.856   3.400 -0.3022  0.0266  0.2027
   62MOL0     H 8555   0.946   2.805   3.237 -3.3563 -1.8244  3.1401
   62MOL0     H 8556   1.057   2.842   3.378 -2.9510 -1.8181  5.9643
   63MOL0     O 8557   2.178   8.390   5.808  0.0426  0.1715  0.2261
   63MOL0     C 8558   2.171   8.273   5.847 -0.3556 -0.4197  0.8183
   63MOL0     O 8559   2.059   8.208   5.852  0.1575  0.3481  0.1715
   63MOL0     C 8560   1.938   8.237   5.789  1.1432 -0.2247 -0.3711
   63MOL0     C 8561   1.935   8.290   5.659 -0.4075  0.2691 -0.0591
   63MOL0     C 8562   1.808   8.305   5.597 -0.7387 -0.0905 -0.5635
   63MOL0     C 8563   1.688   8.279   5.671 -0.5605  0.0890  0.0291
   63MOL0     O 8564   1.568   8.302   5.616  0.1073 -0.1302 -0.1989
   63MOL0     C 8565   1.497   8.192   5.574 -0.4696 -0.5587  0.1461
   63MOL0     C 8566   1.416   8.228   5.454  0.4480 -0.4745 -0.6275
   63MOL0     C 8567   1.483   8.282   5.326  0.4194  0.6131 -0.1105
   63MOL0     C 8568   1.567   8.176   5.251  0.1785 -0.4720  0.0709
   63MOL0     C 8569   1.618   8.247   5.118 -0.1363  0.7329 -0.4405
   63MOL0     C 8570   1.552   8.204   4.987  0.7812 -0.6458 -0.8539
   63MOL0     C 8571   1.627   8.249   4.869  0.3385 -0.4980  0.0306
   63MOL0     C 8572   1.592   8.388   4.823 -0.2770  0.2695  0.5140
   63MOL0     N 8573   1.494   8.360   4.718 -0.6656  0.1357  0.1521
   63MOL0     C 8574   1.362   8.353   4.742 -0.0801 -0.1903 -0.6645
   63MOL0     C 8575   1.306   8.291   4.640 -0.0748  0.4930  0.0803
   63MOL0     C 8576   1.162   8.256   4.622 -0.4862  0.2194 -0.2555
   63MOL0     C 8577   1.110   8.353   4.519 -0.1101  0.3521 -1.1158
   63MOL0     C 8578   1.048   8.471   4.591 -0.2059 -0.2588  0.3883
   63MOL0     C 8579   1.068   8.597   4.511  0.4563 -0.3725  0.2688
   63MOL0     O 8580   1.207   8.648   4.495  0.4350 -0.2732  0.2188
   63MOL0     C 8581   1.282   8.688   4.612 -0.7006  0.4893 -0.8164
   63MOL0     C 8582   1.418   8.712   4.591 -0.7633  1.0815 -0.8942
   63MOL0     C 8583   1.501   8.763   4.698  0.4036 -0.0846  0.2360
   63MOL0     C 8584   1.647   8.800   4.665  0.0242  0.6846  0.0644
   63MOL0     C 8585   1.444   8.781   4.826 -1.0000  0.3577  0.2333
   63MOL0     C 8586   1.521   8.819   4.957 -0.1710 -0.6930 -0.4639
   63MOL0     O 8587   1.461   8.799   5.073 -0.1452  0.2020  0.0322
   63MOL0     C 8588   1.537   8.814   5.186 -0.4410  0.7025  0.5921
   63MOL0     C 8589   1.622   8.717   5.238  0.2314  0.2508  0.7683
   63MOL0     C 8590   1.712   8.747   5.344  0.1088 -0.3333 -1.1036
   63MOL0     C 8591   1.715   8.871   5.403 -0.1050 -0.7493  0.5118
   63MOL0     O 8592   1.808   8.892   5.500  0.2255  0.7764  0.2962
   63MOL0     C 8593   1.824   9.012   5.572  0.8213  0.1241 -0.7365
   63MOL0     C 8594   1.720   9.033   5.673 -0.2785  0.6249  0.1940
   63MOL0     C 8595   1.601   9.126   5.635 -0.1658  0.4502  0.3578
   63MOL0     C 8596   1.533   9.169   5.764 -0.6284  0.2205 -0.3806
   63MOL0     C 8597   1.460   9.055   5.834 -0.1354 -1.0972  0.8073
   63MOL0     C 8598   1.410   9.097   5.969  0.2300  0.2074  0.2558
   63MOL0     C 8599   1.324   8.994   6.027 -0.3938 -0.3092 -0.6342
   63MOL0     C 8600   1.220   9.051   6.136  0.9970 -0.5327 -0.0365
   63MOL0    Cl 8601   1.070   9.132   6.059  0.3216  0.4492 -0.3063
   63MOL0     C 8602   1.633   8.974   5.349 -0.4591  0.2893  0.1482
   63MOL0     C 8603   1.550   8.944   5.240 -0.1328 -0.3201  0.4822
   63MOL0     O 8604   1.633   8.875   4.944 -0.0225  0.1543 -0.2148
   63MOL0     C 8605   1.309   8.747   4.844 -0.7979 -0.0008 -0.2318
   63MOL0     C 8606   1.232   8.701   4.740 -0.0527 -0.2661  0.1624
   63MOL0     N 8607   1.409   8.268   4.551 -0.2058  0.3611 -0.0356
   63MOL0     N 8608   1.519   8.308   4.594  0.0807  0.1799 -0.8482
   63MOL0     C 8609   1.693   8.225   5.797  0.6905  0.2127  0.8639
   63MOL0     C 8610   1.816   8.201   5.855 -0.6429 -0.0800  0.3837
   63MOL0     C 8611   2.310   8.209   5.870 -0.1180  0.6652 -0.7599
   63MOL0     C 8612   2.313   8.088   5.953 -0.4065 -0.4018 -0.6029
   63MOL0     C 8613   2.430   8.018   5.968 -0.6516 -0.1316  0.3864
   63MOL0     C 8614   2.550   8.074   5.917 -0.7949  0.1853  0.2909
   63MOL0     O 8615   2.661   8.006   5.942  0.0944 -0.5805  0.1825
   63MOL0     C 8616   2.752   7.976   5.828 -0.6658  0.6066  0.0576
   63MOL0     C 8617   2.835   7.855   5.882 -0.3392 -0.1124 -0.3996
   63MOL0     C 8618   2.977   7.845   5.819 -0.5097  0.5145  0.1867
   63MOL0     C 8619   2.963   7.828   5.666 -0.4385 -0.3038  0.1137
   63MOL0     C 8620   3.091   7.797   5.604 -0.6246 -0.5375  0.0968
   63MOL0     C 8621   3.201   7.805   5.553 -0.4885  0.6058  0.8474
   63MOL0     C 8622   2.547   8.191   5.835 -0.9007  1.2897  0.4303
   63MOL0     C 8623   2.425   8.254   5.806 -0.0492  0.6936 -0.0759
   63MOL0     C 8624   2.426   8.370   5.701 -0.6144 -0.3194  0.2745
   63MOL0     H 8625   2.026   8.318   5.607  0.3423 -3.2323 -0.8982
   63MOL0     H 8626   1.810   8.362   5.506 -0.5612  2.7289  1.0910
   63MOL0     H 8627   1.437   8.156   5.658  1.4487 -0.5302  1.6079
   63MOL0     H 8628   1.568   8.113   5.548  1.3411 -0.0973  3.1880
   63MOL0     H 8629   1.365   8.133   5.431  0.8166 -0.9589  0.4864
   63MOL0     H 8630   1.335   8.297   5.477 -1.5206 -1.3703 -4.0924
   63MOL0     H 8631   1.410   8.319   5.254  0.5997 -1.0063 -1.1521
   63MOL0     H 8632   1.550   8.361   5.362  0.0803  0.1951  1.5211
   63MOL0     H 8633   1.650   8.139   5.310 -1.3448 -0.2557  2.4773
   63MOL0     H 8634   1.506   8.089   5.226 -1.7350  1.0690 -0.9770
   63MOL0     H 8635   1.722   8.215   5.107  0.1412  1.8880 -1.3702
   63MOL0     H 8636   1.616   8.355   5.137 -1.1082  0.2315  3.2290
   63MOL0     H 8637   1.558   8.095   4.994  3.4374 -0.4825  1.2800
   63MOL0     H 8638   1.450   8.243   4.983  1.4639  1.1260 -1.8557
   63MOL0     H 8639   1.619   8.173   4.792  3.3489 -0.8875 -0.0040
   63MOL0     H 8640   1.733   8.254   4.899 -0.3174  2.3858  2.4195
   63MOL0     H 8641   1.559   8.453   4.904 -3.5235  1.0562 -1.2571
   63MOL0     H 8642   1.684   8.435   4.787 -0.6597  3.5325  3.2800
   63MOL0     H 8643   1.310   8.388   4.832 -1.2205 -0.3552 -1.2416
   63MOL0     H 8644   1.107   8.273   4.716  4.1327  1.7408  2.5380
   63MOL0     H 8645   1.155   8.152   4.592  0.0094  0.0942  0.0440
   63MOL0     H 8646   1.195   8.387   4.459 -0.3218 -1.4415 -2.4996
   63MOL0     H 8647   1.040   8.297   4.456  0.9134 -3.1289  0.5651
   63MOL0     H 8648   0.942   8.447   4.596 -0.5526  1.2927  0.9455
   63MOL0     H 8649   1.092   8.487   4.690  3.3327 -2.0945 -0.6881
   63MOL0     H 8650   1.007   8.604   4.420  1.4008  1.4016 -0.2570
   63MOL0     H 8651   1.019   8.672   4.573 -2.8171 -2.4011  0.3978
   63MOL0     H 8652   1.459   8.697   4.491 -1.6395  0.5513 -1.1861
   63MOL0     H 8653   1.714   8.761   4.742  0.8259  0.3059 -0.7937
   63MOL0     H 8654   1.667   8.907   4.655 -1.0476  0.7579 -1.7481
   63MOL0     H 8655   1.672   8.740   4.577 -1.5932  0.1301 -0.0411
   63MOL0     H 8656   1.634   8.621   5.188 -0.9877  1.2934 -1.7354
   63MOL0     H 8657   1.760   8.666   5.398 -1.5665 -0.1092  0.8058
   63MOL0     H 8658   1.919   9.002   5.624  0.9143 -1.6522 -1.1634
   63MOL0     H 8659   1.827   9.101   5.509 -0.2465  0.1946 -0.6970
   63MOL0     H 8660   1.678   8.935   5.697  2.3536 -0.8428 -0.6621
   63MOL0     H 8661   1.762   9.063   5.770 -0.8100 -0.3276  0.7313
   63MOL0     H 8662   1.522   9.082   5.574 -0.0861  0.0132  0.5673
   63MOL0     H 8663   1.638   9.212   5.578  1.3432  0.5014  1.3379
   63MOL0     H 8664   1.463   9.251   5.747 -0.4716  0.2950 -0.6766
   63MOL0     H 8665   1.607   9.212   5.831  0.3054  1.1595 -1.9458
   63MOL0     H 8666   1.379   9.030   5.765  0.4013  2.2604 -1.2453
   63MOL0     H 8667   1.526   8.968   5.846  2.8754  0.7880 -0.9173
   63MOL0     H 8668   1.347   9.186   5.956 -1.1977 -0.7556  0.3870
   63MOL0     H 8669   1.491   9.125   6.036  2.4564  0.0565 -2.2370
   63MOL0     H 8670   1.385   8.908   6.056 -1.0907 -0.1838  1.3874
   63MOL0     H 8671   1.258   8.952   5.951  0.2673  0.4746 -1.6611
   63MOL0     H 8672   1.263   9.133   6.195  1.4670 -1.7594  1.4096
   63MOL0     H 8673   1.187   8.963   6.192 -1.4972 -1.3847 -2.6160
   63MOL0     H 8674   1.632   9.078   5.380 -1.4649 -0.1198  1.5987
   63MOL0     H 8675   1.490   9.024   5.197 -1.2827 -0.6680  1.3785
   63MOL0     H 8676   1.262   8.749   4.942 -2.7015 -4.2723 -0.8260
   63MOL0     H 8677   1.128   8.681   4.763 -0.1623 -0.7950 -0.7548
   63MOL0     H 8678   1.607   8.185   5.850  0.8684 -2.5082 -0.7328
   63MOL0     H 8679   1.817   8.153   5.952  1.7806 -1.6061 -0.3082
   63MOL0     H 8680   2.220   8.074   6.007 -2.0018 -4.1079 -3.7827
   63MOL0     H 8681   2.439   7.942   6.045  2.5004 -1.4227 -1.0586
   63MOL0     H 8682   2.710   7.952   5.729  1.3760 -1.7861 -0.3472
   63MOL0     H 8683   2.815   8.064   5.817  0.1832  0.1956  1.3714
   63MOL0     H 8684   2.779   7.760   5.883  0.1355 -0.3964 -0.6922
   63MOL0     H 8685   2.872   7.885   5.980  0.0152 -0.9761 -0.2607
   63MOL0     H 8686   3.033   7.935   5.846  0.8908 -0.8862  2.1965
   63MOL0     H 8687   3.026   7.754   5.856  0.6578  1.7441  1.7755
   63MOL0     H 8688   2.910   7.910   5.618  0.1489 -0.9687 -1.7439
   63MOL0     H 8689   2.899   7.739   5.662  3.7962 -3.7110  1.1439
   63MOL0     H 8690   3.293   7.853   5.527 -0.8591 -0.7233 -3.8209
   63MOL0     H 8691   2.639   8.228   5.790  0.4959 -0.0769  2.0191
   63MOL0     H 8692   2.523   8.374   5.651 -0.1538 -1.1666  1.0633
   63MOL0     H 8693   2.353   8.356   5.622 -1.4348 -1.7189  1.2422
   63MOL0     H 8694   2.393   8.466   5.742 -1.3128  0.4053 -1.8670
   64MOL0     O 8695  10.119   9.418   7.410 -0.3898  0.4876  0.7679
   64MOL0     C 8696  10.158   9.456   7.516  0.0083 -0.3508 -0.5716
   64MOL0     O 8697  10.147   9.390   7.638  0.0819 -0.6974  0.9479
   64MOL0     C 8698  10.133   9.256   7.635  0.3596  0.6954  0.4156
   64MOL0     C 8699  10.242   9.173   7.605  0.1232  0.1490  0.2543
   64MOL0     C 8700  10.225   9.034   7.593 -0.0435  0.2858  0.5830
   64MOL0     C 8701  10.107   8.975   7.626  1.0392  0.1603  0.2022
   64MOL0     O 8702  10.117   8.842   7.647  0.4383  0.3726 -0.2580
   64MOL0     C 8703   9.999   8.760   7.675  0.3586 -0.1668  0.4449
   64MOL0     C 8704   9.939   8.704   7.545  1.0582 -0.1142  0.3635
   64MOL0     C 8705   9.884   8.812   7.454 -0.2564  0.4570  0.1063
   64MOL0     C 8706   9.837   8.758   7.318  0.9833 -0.3644  0.0524
   64MOL0     C 8707   9.787   8.876   7.224  0.2236  0.1920  0.5293
   64MOL0     C 8708   9.692   8.974   7.294  0.8384  0.1968  0.2605
   64MOL0     C 8709   9.627   9.082   7.204  0.4653  0.0321  0.1226
   64MOL0     C 8710   9.534   9.159   7.294 -0.1802 -0.6335 -1.0576
   64MOL0     N 8711   9.598   9.236   7.405  0.5520 -0.2843  0.4158
   64MOL0     C 8712   9.659   9.353   7.397 -0.1556 -0.2546  0.0809
   64MOL0     C 8713   9.671   9.394   7.524  0.6471 -0.3244 -0.9615
   64MOL0     C 8714   9.706   9.536   7.560 -0.4744  0.4610 -0.2797
   64MOL0     C 8715   9.803   9.556   7.673  0.4779 -0.0463 -0.4344
   64MOL0     C 8716   9.884   9.685   7.660  0.0407 -0.1493  0.7840
   64MOL0     C 8717   9.991   9.695   7.766 -0.0555  0.5822  0.0216
   64MOL0     O 8718   9.925   9.739   7.886 -0.3654 -0.5976  0.1936
   64MOL0     C 8719   9.901   9.647   7.987 -0.4019 -0.4714  1.1312
   64MOL0     C 8720   9.844   9.706   8.097 -0.6527  0.0144 -0.9186
   64MOL0     C 8721   9.818   9.634   8.213 -0.7776 -0.7774  0.1523
   64MOL0     C 8722   9.729   9.712   8.316 -0.2476 -0.1634  0.2580
   64MOL0     C 8723   9.866   9.501   8.228 -0.3236  0.0684 -1.2134
   64MOL0     C 8724   9.845   9.429   8.362  0.0791  0.5078  0.5858
   64MOL0     O 8725   9.852   9.290   8.351  0.0197 -0.3873 -0.6033
   64MOL0     C 8726   9.819   9.222   8.460  0.2091  0.1778 -0.9853
   64MOL0     C 8727   9.910   9.203   8.568 -0.4522  0.2323  0.2186
   64MOL0     C 8728   9.865   9.151   8.693  0.6442 -0.5549  0.5667
   64MOL0     C 8729   9.733   9.102   8.703 -0.1758 -0.4214  0.6466
   64MOL0     O 8730   9.696   9.045   8.821 -0.2385  0.5927 -1.0986
   64MOL0     C 8731   9.558   9.015   8.844  0.2809 -0.3775 -0.2098
   64MOL0     C 8732   9.543   8.956   8.988  0.4426 -0.7338 -0.3830
   64MOL0     C 8733   9.541   8.808   9.002 -0.0494  0.6910  0.4954
   64MOL0     C 8734   9.522   8.767   9.154 -0.1060  0.1253 -0.4001
   64MOL0     C 8735   9.539   8.619   9.179  0.6400  0.4095  0.2456
   64MOL0     C 8736   9.500   8.556   9.315 -0.5096  0.6950  0.5700
   64MOL0     C 8737   9.392   8.626   9.391  0.1363  0.6315  0.1253
   64MOL0     C 8738   9.352   8.543   9.512  0.2543 -0.4478  0.4175
   64MOL0    Cl 8739   9.474   8.546   9.645 -0.3980 -0.3364 -0.2225
   64MOL0     C 8740   9.648   9.113   8.595  0.3930  0.9457  0.2884
   64MOL0     C 8741   9.689   9.169   8.476 -0.0275 -0.1953  0.1805
   64MOL0     O 8742   9.842   9.489   8.468  0.0290  0.3549  0.0467
   64MOL0     C 8743   9.916   9.430   8.112  0.3199  0.0043 -0.2851
   64MOL0     C 8744   9.939   9.510   7.997  1.1706  0.6109 -0.0781
   64MOL0     N 8745   9.628   9.303   7.611  0.1786 -0.0459 -0.6578
   64MOL0     N 8746   9.586   9.203   7.539 -0.0065  0.1232  0.7738
   64MOL0     C 8747   9.993   9.050   7.645 -0.5943  0.2263  0.4064
   64MOL0     C 8748  10.005   9.190   7.658 -0.1705  0.3910  1.0925
   64MOL0     C 8749  10.237   9.583   7.520 -0.0664  1.0102  0.5958
   64MOL0     C 8750  10.288   9.625   7.641 -0.2046 -0.7322  0.0252
   64MOL0     C 8751  10.343   9.755   7.660 -0.8095 -0.0673 -0.3859
   64MOL0     C 8752  10.376   9.831   7.541 -1.5797  0.9768  0.7484
   64MOL0     O 8753  10.442   9.952   7.535 -0.5453 -0.5687 -0.7172
   64MOL0     C 8754  10.513   9.998   7.650 -0.2733  0.1516 -0.5699
   64MOL0     C 8755  10.405  10.086   7.723 -0.5391  0.3024  0.0761
   64MOL0     C 8756  10.471  10.203   7.793  0.3585  0.0871 -0.1974
   64MOL0     C 8757  10.378  10.305   7.872 -0.1439 -0.3651 -0.1331
   64MOL0     C 8758  10.280  10.363   7.778  0.2665  0.1529  0.0354
   64MOL0     C 8759  10.193  10.418   7.713 -0.6729  0.4953 -0.1175
   64MOL0     C 8760  10.334   9.782   7.413 -0.1411  0.0840  0.0228
   64MOL0     C 8761  10.263   9.670   7.404 -0.5435 -0.0646 -0.0547
   64MOL0     C 8762  10.192   9.652   7.272 -0.3234  0.4167  0.1981
   64MOL0     H 8763  10.342   9.208   7.582  0.6271 -2.2312 -1.6107
   64MOL0     H 8764  10.315   8.975   7.579  0.6861  0.8692  2.4294
   64MOL0     H 8765   9.932   8.828   7.730  0.2576 -0.7624  1.0812
   64MOL0     H 8766  10.042   8.686   7.743 -1.2033 -0.7554  0.8316
   64MOL0     H 8767  10.022   8.647   7.502  1.4164 -0.6983  1.7524
   64MOL0     H 8768   9.865   8.629   7.573 -0.7233  0.9730 -1.2406
   64MOL0     H 8769   9.811   8.883   7.495  1.3968  1.9200  0.6476
   64MOL0     H 8770   9.960   8.883   7.422 -1.5409  1.2034 -1.4438
   64MOL0     H 8771   9.910   8.699   7.261  1.1815  1.3976 -1.6191
   64MOL0     H 8772   9.754   8.693   7.349  1.9826 -0.0005  4.0495
   64MOL0     H 8773   9.730   8.834   7.141 -1.0152  0.4497  1.2376
   64MOL0     H 8774   9.873   8.930   7.182 -0.3570 -0.4835 -1.6273
   64MOL0     H 8775   9.616   8.910   7.340  0.1995  3.2216  3.8712
   64MOL0     H 8776   9.755   9.023   7.369  0.6244  2.4786 -0.9657
   64MOL0     H 8777   9.561   9.043   7.126  1.8846 -0.4585 -0.8742
   64MOL0     H 8778   9.705   9.152   7.170  0.4774  0.0418  0.1709
   64MOL0     H 8779   9.487   9.238   7.235  0.8321 -0.5406 -1.7724
   64MOL0     H 8780   9.458   9.089   7.331 -0.0043 -0.9722 -1.3374
   64MOL0     H 8781   9.677   9.418   7.311  0.1459 -1.1424 -0.5352
   64MOL0     H 8782   9.620   9.597   7.591  1.3334  1.1700  4.1578
   64MOL0     H 8783   9.736   9.580   7.464  0.2686  0.5215 -0.0261
   64MOL0     H 8784   9.757   9.563   7.772  0.8688 -1.1464 -0.1645
   64MOL0     H 8785   9.869   9.470   7.678  0.6645  0.1121 -0.1512
   64MOL0     H 8786   9.940   9.684   7.566  3.2019  0.0507  2.5294
   64MOL0     H 8787   9.822   9.775   7.657  1.2394  0.7427 -3.0221
   64MOL0     H 8788  10.035   9.595   7.777 -0.3664  0.2196 -1.8086
   64MOL0     H 8789  10.063   9.766   7.726  1.1467  0.7667  2.3550
   64MOL0     H 8790   9.809   9.808   8.098  0.8665  0.5686 -1.5274
   64MOL0     H 8791   9.700   9.651   8.402  0.9163 -0.9132  0.1426
   64MOL0     H 8792   9.643   9.751   8.261 -0.2445  1.3418  1.2688
   64MOL0     H 8793   9.769   9.804   8.359 -2.0488  0.1205  1.4451
   64MOL0     H 8794  10.008   9.246   8.548  0.1395 -0.8821  0.6509
   64MOL0     H 8795   9.913   9.140   8.790  0.9416 -1.8861  0.2791
   64MOL0     H 8796   9.499   9.107   8.833 -1.3465 -0.8021  3.4574
   64MOL0     H 8797   9.525   8.946   8.766 -0.7835  0.7210 -0.7643
   64MOL0     H 8798   9.611   8.997   9.063  0.6763 -4.2671  1.5423
   64MOL0     H 8799   9.441   8.984   9.019  1.0223 -0.3183  1.2713
   64MOL0     H 8800   9.639   8.771   8.969 -1.4647 -2.8389 -0.2267
   64MOL0     H 8801   9.462   8.764   8.940 -1.1859  3.4964 -0.2007
   64MOL0     H 8802   9.421   8.795   9.184 -0.0293  0.9094 -0.8464
   64MOL0     H 8803   9.584   8.823   9.224 -1.6370  0.1193  0.9954
   64MOL0     H 8804   9.474   8.565   9.109 -1.8404 -2.2164  4.1454
   64MOL0     H 8805   9.636   8.573   9.159  0.1565 -0.8375  0.6555
   64MOL0     H 8806   9.582   8.532   9.384 -0.6086 -1.4042  0.0166
   64MOL0     H 8807   9.466   8.454   9.295  1.8753 -0.0908  0.1892
   64MOL0     H 8808   9.303   8.648   9.331 -0.1098  0.5134  0.4412
   64MOL0     H 8809   9.443   8.713   9.431 -0.0537  0.1912  1.3487
   64MOL0     H 8810   9.322   8.442   9.483 -1.9902 -0.2929  1.9816
   64MOL0     H 8811   9.260   8.590   9.547 -1.0263 -2.1396 -0.5339
   64MOL0     H 8812   9.543   9.087   8.600 -0.1364  2.8556  0.0907
   64MOL0     H 8813   9.632   9.176   8.384 -1.2574  1.9444  1.0362
   64MOL0     H 8814   9.929   9.324   8.132 -1.4929  0.4078  4.4499
   64MOL0     H 8815   9.978   9.457   7.910 -0.4473 -0.1454 -0.3818
   64MOL0     H 8816   9.900   8.994   7.657  0.9937 -2.3682  1.3516
   64MOL0     H 8817   9.911   9.240   7.682 -0.9289 -0.5850  0.2642
   64MOL0     H 8818  10.272   9.565   7.730 -2.1336  1.3856  1.2066
   64MOL0     H 8819  10.352   9.792   7.762  0.1591 -0.1139 -0.4515
   64MOL0     H 8820  10.559   9.919   7.710 -0.0336  0.4969 -0.2934
   64MOL0     H 8821  10.594  10.054   7.602  0.7947 -1.0384 -0.2065
   64MOL0     H 8822  10.341  10.021   7.783 -1.8607  0.0965 -1.4811
   64MOL0     H 8823  10.346  10.133   7.643 -0.3304  1.1496  0.4100
   64MOL0     H 8824  10.532  10.161   7.873 -0.4140  0.4301  0.5863
   64MOL0     H 8825  10.523  10.258   7.714  1.0729 -0.3128 -0.0124
   64MOL0     H 8826  10.443  10.384   7.909 -1.1426 -0.0066  0.9029
   64MOL0     H 8827  10.330  10.264   7.961 -0.0160 -1.7354 -0.6693
   64MOL0     H 8828  10.126  10.463   7.642 -1.6953 -4.2896 -2.5824
   64MOL0     H 8829  10.344   9.850   7.328  0.2355 -0.5691 -0.4647
   64MOL0     H 8830  10.248   9.593   7.199 -1.2221 -0.0228 -0.1419
   64MOL0     H 8831  10.090   9.615   7.287 -0.4286 -1.7695 -4.4415
   64MOL0     H 8832  10.183   9.748   7.220  1.7080  0.0811 -0.8560
   65MOL0     O 8833   7.799   2.999   4.437 -0.7214 -0.4270  0.6405
   65MOL0     C 8834   7.703   2.924   4.436 -0.7827  0.4841  0.7513
   65MOL0     O 8835   7.574   2.948   4.486  0.4256 -0.4247 -0.3369
   65MOL0     C 8836   7.539   3.077   4.482 -0.0437 -0.0263  0.0698
   65MOL0     C 8837   7.524   3.138   4.360 -0.3105  0.0957  0.2582
   65MOL0     C 8838   7.472   3.271   4.345  0.7415  0.1471 -0.0544
   65MOL0     C 8839   7.417   3.340   4.459  0.4686  1.0402 -0.1948
   65MOL0     O 8840   7.368   3.462   4.429  0.3062 -1.1299  0.3683
   65MOL0     C 8841   7.351   3.545   4.545 -0.6122  0.4690  0.2111
   65MOL0     C 8842   7.214   3.537   4.596 -0.5432 -0.6465  0.1248
   65MOL0     C 8843   7.189   3.625   4.721  0.3413  0.1999 -1.6186
   65MOL0     C 8844   7.200   3.535   4.851  0.4132 -0.5301 -0.1145
   65MOL0     C 8845   7.179   3.628   4.976  0.9696  0.6771 -0.1212
   65MOL0     C 8846   7.317   3.708   4.994 -1.0078  0.0993 -0.0916
   65MOL0     C 8847   7.312   3.807   5.105  0.1191 -1.1824 -0.0821
   65MOL0     C 8848   7.321   3.736   5.241 -0.3216 -1.1343  0.3398
   65MOL0     N 8849   7.298   3.834   5.350  0.9600 -0.8604 -0.4400
   65MOL0     C 8850   7.374   3.939   5.385 -0.9372 -0.3921  0.3995
   65MOL0     C 8851   7.329   3.980   5.508  0.4813  0.5820  0.4324
   65MOL0     C 8852   7.382   4.103   5.572 -0.1781 -0.2595 -0.2887
   65MOL0     C 8853   7.267   4.201   5.603 -0.3594 -0.0563  0.3284
   65MOL0     C 8854   7.206   4.263   5.468 -0.2606 -0.0037  0.0401
   65MOL0     C 8855   7.114   4.386   5.502 -0.9928  0.8523 -0.5669
   65MOL0     O 8856   7.194   4.499   5.545  0.0012 -0.1393  0.0034
   65MOL0     C 8857   7.136   4.583   5.637  0.0276 -0.3195  0.4287
   65MOL0     C 8858   7.195   4.608   5.758  0.1765 -0.0073  0.3206
   65MOL0     C 8859   7.149   4.703   5.856  0.1539  0.5337  0.3835
   65MOL0     C 8860   7.225   4.726   5.985  0.3772  0.8266  0.0918
   65MOL0     C 8861   7.027   4.767   5.822  0.1056 -0.3156  0.1639
   65MOL0     C 8862   6.960   4.863   5.915 -0.1903  0.5041  0.2175
   65MOL0     O 8863   6.870   4.939   5.847  0.5439  0.0835  0.0455
   65MOL0     C 8864   6.780   5.027   5.916 -0.9131 -0.5059  0.2526
   65MOL0     C 8865   6.755   5.153   5.868 -1.0986  0.5180 -0.0444
   65MOL0     C 8866   6.660   5.232   5.923  0.1799  0.5710 -1.1887
   65MOL0     C 8867   6.560   5.184   6.024 -0.6351 -0.0352 -0.5163
   65MOL0     O 8868   6.481   5.276   6.080  1.0161  0.2655 -0.3184
   65MOL0     C 8869   6.386   5.229   6.177  0.0911 -0.0105  0.4974
   65MOL0     C 8870   6.290   5.339   6.225  1.2049 -0.8113 -0.1585
   65MOL0     C 8871   6.235   5.418   6.104  0.5023  0.1066 -0.1577
   65MOL0     C 8872   6.115   5.515   6.123  0.4620 -0.1972 -0.0040
   65MOL0     C 8873   6.104   5.591   6.255  0.6235 -0.2686 -0.2679
   65MOL0     C 8874   5.985   5.693   6.237  0.2244 -0.4221 -0.2544
   65MOL0     C 8875   5.998   5.793   6.354 -0.3500  0.1194 -0.3014
   65MOL0     C 8876   5.913   5.913   6.315  0.4421 -0.4317  0.9494
   65MOL0    Cl 8877   5.916   6.026   6.462  0.0625 -0.1237 -0.3933
   65MOL0     C 8878   6.586   5.050   6.065  0.8939 -0.5353 -0.8007
   65MOL0     C 8879   6.701   4.980   6.014 -0.0959 -0.3349 -0.3493
   65MOL0     O 8880   6.980   4.871   6.038  0.6176  0.4249 -0.7062
   65MOL0     C 8881   6.968   4.738   5.703  0.0141 -0.0612 -0.3292
   65MOL0     C 8882   7.017   4.649   5.611  0.5044 -0.8356  1.5840
   65MOL0     N 8883   7.228   3.898   5.549  0.8721  0.5262 -0.7459
   65MOL0     N 8884   7.202   3.818   5.448 -0.4980  0.0486 -0.1862
   65MOL0     C 8885   7.430   3.268   4.586 -0.1304 -0.4573  0.1303
   65MOL0     C 8886   7.492   3.143   4.597  0.3266 -0.4733  0.8043
   65MOL0     C 8887   7.726   2.781   4.402 -1.0419  0.1985 -0.1130
   65MOL0     C 8888   7.616   2.689   4.421 -0.2650 -0.4651  0.1652
   65MOL0     C 8889   7.631   2.557   4.377  1.2613 -0.0910 -0.5909
   65MOL0     C 8890   7.752   2.505   4.313  0.3677 -1.0840  0.3088
   65MOL0     O 8891   7.774   2.375   4.274 -0.2931  0.0536  0.4370
   65MOL0     C 8892   7.669   2.304   4.215  0.3632  1.3670 -0.6298
   65MOL0     C 8893   7.602   2.200   4.306  0.2727 -0.2723 -0.2145
   65MOL0     C 8894   7.697   2.085   4.357 -0.0111  0.1570  0.1725
   65MOL0     C 8895   7.754   1.994   4.251 -0.1959 -0.6892  0.1174
   65MOL0     C 8896   7.859   1.908   4.314  0.4139 -0.3230  0.1989
   65MOL0     C 8897   7.944   1.823   4.352 -0.5873 -0.5435  0.4916
   65MOL0     C 8898   7.866   2.594   4.312  0.4524  0.0029  0.0923
   65MOL0     C 8899   7.848   2.729   4.353 -0.1648 -0.3330  0.1157
   65MOL0     C 8900   7.978   2.812   4.338  1.1268 -0.0579  0.2217
   65MOL0     H 8901   7.559   3.090   4.269  1.3197  0.8755  0.4365
   65MOL0     H 8902   7.471   3.319   4.248 -2.7194  1.5889  0.5303
   65MOL0     H 8903   7.359   3.644   4.498 -1.9094 -1.3710 -4.5168
   65MOL0     H 8904   7.413   3.531   4.633 -0.0472  2.4606  0.1747
   65MOL0     H 8905   7.141   3.574   4.523  0.2536 -0.1722 -0.4431
   65MOL0     H 8906   7.194   3.431   4.614  0.8881 -0.7111  1.5891
   65MOL0     H 8907   7.273   3.695   4.720  0.8729 -0.4375 -2.4902
   65MOL0     H 8908   7.095   3.679   4.714  0.5680  0.9644  0.4334
   65MOL0     H 8909   7.126   3.455   4.855  0.8383 -0.9278 -0.1339
   65MOL0     H 8910   7.300   3.491   4.859  1.2607  1.3075 -0.0766
   65MOL0     H 8911   7.157   3.571   5.066 -1.3808  0.8301 -0.5307
   65MOL0     H 8912   7.084   3.681   4.971  0.4240 -0.1025  1.4632
   65MOL0     H 8913   7.394   3.634   5.017 -3.7478 -3.7813 -2.2175
   65MOL0     H 8914   7.341   3.767   4.905  3.3807  0.4665  1.0744
   65MOL0     H 8915   7.215   3.855   5.097  0.0792 -1.0541  1.0490
   65MOL0     H 8916   7.401   3.871   5.114 -0.8634 -0.0935  2.7904
   65MOL0     H 8917   7.237   3.667   5.247  0.5164 -2.2550 -0.3095
   65MOL0     H 8918   7.417   3.684   5.240  1.9888  2.6931 -2.1212
   65MOL0     H 8919   7.461   3.970   5.328 -2.5091  0.7978 -1.4557
   65MOL0     H 8920   7.451   4.160   5.509  0.7231  0.9196  1.6515
   65MOL0     H 8921   7.432   4.087   5.668 -0.5991  0.3844  0.0466
   65MOL0     H 8922   7.203   4.139   5.666 -1.5880  1.5468  0.7490
   65MOL0     H 8923   7.308   4.282   5.665  2.3720 -1.7023  0.8250
   65MOL0     H 8924   7.292   4.282   5.403  0.5553 -1.2121  0.7203
   65MOL0     H 8925   7.147   4.185   5.421 -0.0754 -0.7017  0.9423
   65MOL0     H 8926   7.050   4.399   5.414 -0.6324 -1.4001 -1.2252
   65MOL0     H 8927   7.037   4.357   5.574 -2.8987  0.9643 -2.4584
   65MOL0     H 8928   7.286   4.550   5.771 -0.8997 -2.2692 -1.5780
   65MOL0     H 8929   7.286   4.816   5.999  5.8929 -2.5241  0.8017
   65MOL0     H 8930   7.296   4.647   6.010  2.1800  2.1334 -0.6512
   65MOL0     H 8931   7.158   4.705   6.069  2.3638 -1.1423  1.2901
   65MOL0     H 8932   6.821   5.199   5.794 -0.5892  1.4005  0.9259
   65MOL0     H 8933   6.649   5.334   5.886  4.3867  1.0529 -1.6383
   65MOL0     H 8934   6.328   5.142   6.145 -1.8306  1.7575 -1.1288
   65MOL0     H 8935   6.445   5.212   6.267 -0.5259  0.2349  0.9602
   65MOL0     H 8936   6.205   5.288   6.271 -1.3798  0.6603 -2.9344
   65MOL0     H 8937   6.341   5.410   6.291 -0.0199 -0.8669  0.8644
   65MOL0     H 8938   6.219   5.346   6.023  2.5212 -0.5355 -0.0275
   65MOL0     H 8939   6.315   5.478   6.059  1.5734 -1.1784 -0.0103
   65MOL0     H 8940   6.022   5.460   6.115 -0.3282  1.0604  0.2189
   65MOL0     H 8941   6.102   5.585   6.040  1.4620 -1.8509 -1.6179
   65MOL0     H 8942   6.083   5.516   6.332 -1.0514  1.2650  0.8602
   65MOL0     H 8943   6.196   5.646   6.277  0.1087  0.3842  0.2929
   65MOL0     H 8944   5.889   5.642   6.241 -0.3402  0.5832 -0.5959
   65MOL0     H 8945   5.994   5.751   6.145 -0.5696  0.5591  0.2678
   65MOL0     H 8946   6.100   5.829   6.370 -0.7531  0.2310  2.5999
   65MOL0     H 8947   5.965   5.745   6.447  0.0017 -0.8731 -0.6736
   65MOL0     H 8948   5.815   5.872   6.288  1.4608 -1.8640 -0.7558
   65MOL0     H 8949   5.960   5.955   6.226 -0.7356 -0.8678  0.1062
   65MOL0     H 8950   6.531   5.016   6.152  1.4485  2.1503  0.7007
   65MOL0     H 8951   6.709   4.874   6.037  0.0209 -0.3555 -0.4877
   65MOL0     H 8952   6.876   4.793   5.685  2.2564  5.6154  2.8153
   65MOL0     H 8953   6.964   4.622   5.519  0.9260  0.6004  0.8930
   65MOL0     H 8954   7.399   3.319   4.677  0.3475 -0.9898  0.6031
   65MOL0     H 8955   7.493   3.085   4.689 -0.6758 -2.3811 -0.3366
   65MOL0     H 8956   7.521   2.721   4.463 -1.5571 -1.6733 -1.7008
   65MOL0     H 8957   7.550   2.487   4.395  2.0995 -0.5917  1.5800
   65MOL0     H 8958   7.597   2.384   4.198  1.7225  2.7268 -0.2073
   65MOL0     H 8959   7.708   2.268   4.119 -1.7666 -3.0395 -0.0923
   65MOL0     H 8960   7.514   2.153   4.261  1.7824 -4.8655  1.0552
   65MOL0     H 8961   7.569   2.253   4.396 -0.1057 -0.4678 -0.2355
   65MOL0     H 8962   7.781   2.118   4.420  0.6314 -1.9912  0.5115
   65MOL0     H 8963   7.633   2.022   4.419 -0.3504 -0.2481 -0.5862
   65MOL0     H 8964   7.791   2.059   4.172 -1.7645  0.4372  0.2650
   65MOL0     H 8965   7.666   1.937   4.217 -0.2041 -2.3850  2.6535
   65MOL0     H 8966   8.019   1.752   4.381 -0.2877  0.6987  3.0033
   65MOL0     H 8967   7.958   2.549   4.278 -0.2518 -1.3782 -0.0550
   65MOL0     H 8968   7.941   2.903   4.290 -2.8512 -0.8760  1.3315
   65MOL0     H 8969   8.008   2.836   4.441 -1.9202  0.9850  0.9867
   65MOL0     H 8970   8.056   2.757   4.285 -0.0531 -2.0022  0.3745
   66MOL0     O 8971   5.520  10.687   4.379 -0.3440 -0.0654  0.5040
   66MOL0     C 8972   5.633  10.738   4.354  0.1465  0.2401 -0.8199
   66MOL0     O 8973   5.754  10.688   4.394 -0.2028  0.2008  0.4925
   66MOL0     C 8974   5.751  10.577   4.477 -0.2570 -0.4371 -0.1716
   66MOL0     C 8975   5.784  10.460   4.410  0.2782  0.3237  0.4176
   66MOL0     C 8976   5.766  10.337   4.472 -1.6105  0.5432  0.2315
   66MOL0     C 8977   5.727  10.327   4.607  0.5188  0.0134 -0.3907
   66MOL0     O 8978   5.698  10.211   4.677 -0.3715 -0.2399  0.8820
   66MOL0     C 8979   5.776  10.096   4.651  0.3334  0.1265  1.2794
   66MOL0     C 8980   5.744   9.987   4.754  0.3754 -0.2166 -0.3922
   66MOL0     C 8981   5.807  10.019   4.889  0.6237  0.3461 -0.3555
   66MOL0     C 8982   5.758   9.926   4.997 -0.5117  0.1290  0.5262
   66MOL0     C 8983   5.867   9.821   5.022  0.2648 -0.2951 -0.3212
   66MOL0     C 8984   5.808   9.723   5.123 -0.2562 -0.0085  0.5979
   66MOL0     C 8985   5.929   9.651   5.170 -0.1567  0.0388 -0.4849
   66MOL0     C 8986   5.902   9.559   5.283  0.6603  1.1330 -0.3547
   66MOL0     N 8987   6.026   9.500   5.334 -0.2474  0.5021 -0.1021
   66MOL0     C 8988   6.037   9.463   5.467  0.3640 -0.7721  0.9355
   66MOL0     C 8989   6.168   9.441   5.486 -0.0018 -0.5242  0.2886
   66MOL0     C 8990   6.213   9.390   5.613  0.2320 -0.3279  0.6807
   66MOL0     C 8991   6.345   9.458   5.659 -0.2230 -0.2431  0.1992
   66MOL0     C 8992   6.316   9.598   5.702 -0.3758 -0.3612  0.2222
   66MOL0     C 8993   6.430   9.678   5.773 -0.2539 -0.9011  0.0535
   66MOL0     O 8994   6.556   9.673   5.703 -0.6234  0.1259  0.2949
   66MOL0     C 8995   6.663   9.596   5.749 -0.5731 -0.5002 -0.8151
   66MOL0     C 8996   6.662   9.521   5.875 -1.0114 -0.2154 -0.0435
   66MOL0     C 8997   6.764   9.423   5.909 -0.3882 -1.4009 -1.3578
   66MOL0     C 8998   6.745   9.351   6.043  0.3485 -0.0166 -0.1602
   66MOL0     C 8999   6.872   9.404   5.821 -0.1953 -1.7006  0.7782
   66MOL0     C 9000   6.987   9.323   5.835 -0.1495 -0.0888 -0.1156
   66MOL0     O 9001   7.105   9.387   5.804  0.1445 -0.7512  0.6923
   66MOL0     C 9002   7.225   9.314   5.798 -0.3253 -0.1320  0.3478
   66MOL0     C 9003   7.326   9.377   5.720  0.0784 -0.4932 -0.9523
   66MOL0     C 9004   7.449   9.308   5.699 -0.4722  0.7202  0.5547
   66MOL0     C 9005   7.472   9.186   5.760  0.2703 -0.5735  0.0784
   66MOL0     O 9006   7.595   9.134   5.723  0.2355  0.6559 -0.3721
   66MOL0     C 9007   7.633   9.028   5.809 -0.3736  0.4026  0.2400
   66MOL0     C 9008   7.756   8.960   5.750 -0.4471 -0.1873  0.1146
   66MOL0     C 9009   7.858   8.903   5.839 -0.1223  0.2777 -0.9435
   66MOL0     C 9010   7.807   8.778   5.917  0.1080 -0.6037  0.3993
   66MOL0     C 9011   7.889   8.738   6.048  0.6106  0.1002  0.4846
   66MOL0     C 9012   8.025   8.657   6.002  0.4823 -1.3605 -0.2641
   66MOL0     C 9013   8.098   8.592   6.119 -0.0504 -0.0560  0.4112
   66MOL0     C 9014   8.033   8.467   6.164 -0.0752  0.5301 -0.5336
   66MOL0    Cl 9015   8.007   8.486   6.349 -0.2299 -0.3271  0.0670
   66MOL0     C 9016   7.374   9.131   5.850  0.0234 -0.1496  0.3340
   66MOL0     C 9017   7.247   9.192   5.869 -0.8847 -0.5856  0.7161
   66MOL0     O 9018   6.976   9.196   5.833 -0.8979 -0.2080  0.3783
   66MOL0     C 9019   6.880   9.482   5.701  0.3616  0.4995 -0.1197
   66MOL0     C 9020   6.784   9.580   5.673 -0.3741 -0.3299  0.0304
   66MOL0     N 9021   6.231   9.433   5.365 -0.4593  0.4916 -0.2881
   66MOL0     N 9022   6.146   9.481   5.278 -0.0475  0.1369  0.6536
   66MOL0     C 9023   5.697  10.449   4.668  0.0591  0.4415  0.6953
   66MOL0     C 9024   5.705  10.572   4.611  1.3967 -0.9312  0.1110
   66MOL0     C 9025   5.637  10.869   4.275  1.2920  0.3779 -0.0806
   66MOL0     C 9026   5.766  10.938   4.268 -0.3246  0.0933  0.2064
   66MOL0     C 9027   5.786  11.061   4.205  0.2738 -0.2796 -0.1490
   66MOL0     C 9028   5.676  11.120   4.140 -0.0274  0.1447 -0.7400
   66MOL0     O 9029   5.691  11.230   4.057  0.4036  0.0012  0.1525
   66MOL0     C 9030   5.823  11.308   4.049  0.1892  0.5216 -0.4712
   66MOL0     C 9031   5.790  11.400   3.928 -0.1918  0.0596 -0.2087
   66MOL0     C 9032   5.671  11.506   3.971  0.0040 -0.6123  0.1481
   66MOL0     C 9033   5.708  11.598   4.079 -0.1964 -0.1010  0.3548
   66MOL0     C 9034   5.824  11.688   4.051  0.5085 -0.8466  0.7272
   66MOL0     C 9035   5.920  11.758   4.025  0.0639 -0.4300 -0.2049
   66MOL0     C 9036   5.554  11.054   4.140 -0.2633  0.8620 -0.0365
   66MOL0     C 9037   5.528  10.939   4.212 -0.9852  0.3166  0.3997
   66MOL0     C 9038   5.390  10.877   4.205  0.5716  0.0589  0.6224
   66MOL0     H 9039   5.810  10.456   4.305  1.2582 -3.0850  0.6816
   66MOL0     H 9040   5.784  10.248   4.412  1.1421  0.0004  1.7110
   66MOL0     H 9041   5.884  10.113   4.644  0.2741 -0.1627 -3.0535
   66MOL0     H 9042   5.750  10.050   4.555  2.8711  2.5506 -0.7464
   66MOL0     H 9043   5.636   9.978   4.770 -0.4000  2.0839 -3.4936
   66MOL0     H 9044   5.773   9.890   4.714 -2.0425  0.1144 -3.3151
   66MOL0     H 9045   5.916  10.017   4.892  0.5920 -1.0733  2.0375
   66MOL0     H 9046   5.771  10.117   4.924 -0.1882  0.6113 -1.8336
   66MOL0     H 9047   5.755   9.979   5.093  1.5230 -1.4044  1.5266
   66MOL0     H 9048   5.665   9.872   4.976  1.0679 -2.0628 -1.3082
   66MOL0     H 9049   5.955   9.870   5.065 -1.0196 -0.7574  3.1785
   66MOL0     H 9050   5.892   9.766   4.931 -0.4674 -1.7054  0.2986
   66MOL0     H 9051   5.773   9.767   5.217  2.3684 -0.8852  2.0985
   66MOL0     H 9052   5.726   9.669   5.076  0.0252  1.6815 -2.0638
   66MOL0     H 9053   5.997   9.719   5.222  0.0761 -0.7718  0.2856
   66MOL0     H 9054   5.968   9.596   5.084 -1.3134  2.2402 -2.5346
   66MOL0     H 9055   5.851   9.611   5.365  1.4492  1.0190  0.2179
   66MOL0     H 9056   5.834   9.478   5.253  1.2515  0.6325 -0.3665
   66MOL0     H 9057   5.956   9.462   5.539  0.8778 -2.9386  1.5797
   66MOL0     H 9058   6.238   9.284   5.600 -0.3700 -0.3373 -0.5741
   66MOL0     H 9059   6.134   9.395   5.688 -0.0525 -0.9183  0.4302
   66MOL0     H 9060   6.379   9.399   5.744 -1.0745  1.0102  1.4568
   66MOL0     H 9061   6.417   9.472   5.578  2.1275  1.0449  2.3771
   66MOL0     H 9062   6.289   9.656   5.613  2.3743  0.9718  0.1520
   66MOL0     H 9063   6.217   9.593   5.749 -1.5784  0.5593 -2.0190
   66MOL0     H 9064   6.415   9.786   5.764  2.2149 -0.5980 -1.5707
   66MOL0     H 9065   6.431   9.665   5.881  0.5299  2.4100  0.5509
   66MOL0     H 9066   6.574   9.530   5.938  0.2948 -0.2138  1.8831
   66MOL0     H 9067   6.773   9.416   6.126 -0.4174 -0.3140  0.3417
   66MOL0     H 9068   6.799   9.256   6.044 -3.7226 -2.6259 -0.9027
   66MOL0     H 9069   6.639   9.328   6.058 -0.0648  1.6632 -0.2908
   66MOL0     H 9070   7.297   9.477   5.692 -1.2192  0.0491  1.9323
   66MOL0     H 9071   7.518   9.345   5.623 -0.8133 -0.9574 -0.6357
   66MOL0     H 9072   7.667   9.072   5.904 -0.3775  0.0494  0.4061
   66MOL0     H 9073   7.552   8.955   5.814  2.4698 -3.0334 -0.0370
   66MOL0     H 9074   7.728   8.880   5.682  1.0407 -1.4590  0.9263
   66MOL0     H 9075   7.805   9.035   5.686 -3.2304 -0.6993 -2.9047
   66MOL0     H 9076   7.881   8.977   5.916 -3.8800  1.1374 -0.4418
   66MOL0     H 9077   7.954   8.879   5.792  0.1410  0.4590 -0.4937
   66MOL0     H 9078   7.807   8.699   5.842 -0.5591 -0.0391 -0.2049
   66MOL0     H 9079   7.709   8.815   5.949  0.8127  1.2022  0.5831
   66MOL0     H 9080   7.918   8.834   6.093  0.2582  0.6500 -0.4308
   66MOL0     H 9081   7.825   8.679   6.113 -1.1487  0.1877 -1.0770
   66MOL0     H 9082   8.093   8.732   5.962 -0.2808 -0.5807 -0.1221
   66MOL0     H 9083   8.002   8.583   5.925  0.1934 -0.4432 -1.0672
   66MOL0     H 9084   8.108   8.668   6.196 -3.0186  0.0621  0.7996
   66MOL0     H 9085   8.197   8.569   6.079  0.5386  0.7944  1.3487
   66MOL0     H 9086   8.102   8.388   6.135  0.4120  1.3205 -1.5978
   66MOL0     H 9087   7.933   8.450   6.121 -1.3816 -0.1406  2.4574
   66MOL0     H 9088   7.392   9.038   5.903 -1.0080 -0.6421 -0.1527
   66MOL0     H 9089   7.172   9.137   5.925 -0.9564  0.0485  1.2526
   66MOL0     H 9090   6.966   9.471   5.635 -0.6665 -0.8246 -1.3069
   66MOL0     H 9091   6.779   9.640   5.583 -2.4497  0.8883  0.8882
   66MOL0     H 9092   5.664  10.432   4.770 -2.3934 -0.8438 -0.2376
   66MOL0     H 9093   5.671  10.662   4.662 -1.7876 -3.3039  2.5931
   66MOL0     H 9094   5.865  10.901   4.295 -0.0742 -2.4368 -3.4703
   66MOL0     H 9095   5.887  11.097   4.193  1.2178 -3.1557 -1.9058
   66MOL0     H 9096   5.839  11.360   4.144 -0.0439 -1.2287  0.5741
   66MOL0     H 9097   5.914  11.253   4.024  0.6719  1.8918 -1.8642
   66MOL0     H 9098   5.762  11.345   3.838 -1.1569 -2.1611  1.3626
   66MOL0     H 9099   5.879  11.459   3.903  0.9719 -1.3681  0.4512
   66MOL0     H 9100   5.625  11.559   3.887  1.8346 -0.2544 -0.6844
   66MOL0     H 9101   5.581  11.451   4.001 -1.1807  1.7345  1.1616
   66MOL0     H 9102   5.727  11.551   4.176  2.4782  0.9970  0.4388
   66MOL0     H 9103   5.625  11.667   4.098  2.3933  3.9708 -1.8041
   66MOL0     H 9104   6.004  11.821   4.003 -0.4314 -0.7339 -3.6527
   66MOL0     H 9105   5.462  11.092   4.096 -1.4621  2.0432  3.2287
   66MOL0     H 9106   5.333  10.893   4.297  2.3693 -0.4291  1.8739
   66MOL0     H 9107   5.339  10.926   4.121  2.0871  0.2053 -0.2702
   66MOL0     H 9108   5.382  10.771   4.181 -4.5124  0.5433 -0.9498
   67MOL0     O 9109   5.469   6.781   5.689 -0.1683  0.1016  0.6056
   67MOL0     C 9110   5.397   6.755   5.782  0.3674  0.1619 -0.4458
   67MOL0     O 9111   5.430   6.694   5.909 -0.0688  0.1494 -0.4893
   67MOL0     C 9112   5.561   6.666   5.945  0.6519  0.4268 -0.5293
   67MOL0     C 9113   5.683   6.669   5.872 -0.7602  0.0785 -0.7750
   67MOL0     C 9114   5.805   6.665   5.935 -0.2949  0.5569  0.3341
   67MOL0     C 9115   5.815   6.635   6.067 -0.3836 -0.3588  0.4073
   67MOL0     O 9116   5.944   6.631   6.120  0.2989  0.6432  0.0439
   67MOL0     C 9117   5.972   6.564   6.246  0.6654  1.1335  0.6200
   67MOL0     C 9118   6.118   6.594   6.280 -0.5988 -0.0143 -0.4651
   67MOL0     C 9119   6.163   6.520   6.403  0.0769 -0.6076 -0.6790
   67MOL0     C 9120   6.302   6.564   6.460  0.0696 -0.0496  0.4014
   67MOL0     C 9121   6.418   6.562   6.361  0.2873  0.2555  0.8217
   67MOL0     C 9122   6.555   6.575   6.426 -0.0960 -0.1816 -0.1368
   67MOL0     C 9123   6.674   6.556   6.330 -1.0066  0.7030  0.0881
   67MOL0     C 9124   6.807   6.582   6.407  0.5578 -0.1721 -0.1786
   67MOL0     N 9125   6.848   6.485   6.508 -0.5734 -0.1906  0.8113
   67MOL0     C 9126   6.789   6.464   6.633 -0.5300 -0.5206  0.4925
   67MOL0     C 9127   6.853   6.354   6.682  0.4837  0.7066 -0.7624
   67MOL0     C 9128   6.838   6.298   6.827 -0.9801 -0.0897  0.0380
   67MOL0     C 9129   6.694   6.254   6.853  0.0837 -0.8777 -0.3276
   67MOL0     C 9130   6.678   6.131   6.946  0.4300  0.0933  0.5728
   67MOL0     C 9131   6.750   6.127   7.078  0.6538 -0.5708  0.1211
   67MOL0     O 9132   6.696   6.234   7.157 -0.8145  0.5419 -0.3050
   67MOL0     C 9133   6.795   6.298   7.234 -0.6067  0.4668 -0.0705
   67MOL0     C 9134   6.850   6.424   7.200  0.4067 -0.0200 -0.2273
   67MOL0     C 9135   6.965   6.477   7.274  0.9258 -0.8251  0.2598
   67MOL0     C 9136   7.039   6.590   7.203 -0.0838 -0.3355 -0.1188
   67MOL0     C 9137   6.998   6.423   7.403  0.1944 -0.8332  0.5677
   67MOL0     C 9138   7.107   6.470   7.503  0.5882  0.1885  0.1112
   67MOL0     O 9139   7.130   6.389   7.611 -0.2034 -0.0869 -0.0363
   67MOL0     C 9140   7.234   6.419   7.695 -0.2386  0.5559  0.6872
   67MOL0     C 9141   7.221   6.400   7.834 -1.2645 -0.0338  1.1390
   67MOL0     C 9142   7.330   6.417   7.920  0.4030 -0.6693 -0.0912
   67MOL0     C 9143   7.454   6.457   7.884 -0.0326 -0.2536 -0.3287
   67MOL0     O 9144   7.552   6.472   7.979 -0.0673 -0.6911 -0.2320
   67MOL0     C 9145   7.687   6.481   7.930  1.0399 -0.2559 -0.4719
   67MOL0     C 9146   7.773   6.472   8.057 -0.2326  0.1750  1.1239
   67MOL0     C 9147   7.747   6.355   8.147  0.0687  0.4170  0.0355
   67MOL0     C 9148   7.809   6.233   8.081  0.2416 -1.4558  0.9387
   67MOL0     C 9149   7.838   6.111   8.154 -1.0196  0.2995 -0.1584
   67MOL0     C 9150   7.881   6.012   8.059 -0.2363  0.1944 -0.2144
   67MOL0     C 9151   7.938   5.876   8.114 -1.2298  0.9620 -0.7227
   67MOL0     C 9152   8.053   5.902   8.212 -0.6972  0.1763  0.3034
   67MOL0    Cl 9153   8.201   5.957   8.140  0.2554  0.2063  0.0394
   67MOL0     C 9154   7.469   6.471   7.745  0.4111  0.2302  0.1132
   67MOL0     C 9155   7.359   6.451   7.654  0.3077  0.1229  0.2534
   67MOL0     O 9156   7.173   6.564   7.480  0.0579  0.0313 -0.0659
   67MOL0     C 9157   6.906   6.323   7.452  0.2463  1.2958  0.0375
   67MOL0     C 9158   6.817   6.257   7.367  0.5413 -0.6496  0.0659
   67MOL0     N 9159   6.950   6.322   6.603 -0.2135  0.5923  0.4071
   67MOL0     N 9160   6.944   6.387   6.490  0.5235 -0.5284  0.7206
   67MOL0     C 9161   5.696   6.622   6.138 -0.2339 -0.1971 -0.2990
   67MOL0     C 9162   5.572   6.630   6.085  0.1150 -0.4943  0.0706
   67MOL0     C 9163   5.248   6.798   5.771 -0.0482  0.0580  0.0690
   67MOL0     C 9164   5.189   6.846   5.895 -0.3541 -0.0117 -0.2775
   67MOL0     C 9165   5.063   6.904   5.900 -1.3467 -0.4856  0.0743
   67MOL0     C 9166   4.983   6.912   5.789 -0.3490  0.1916 -0.3065
   67MOL0     O 9167   4.861   6.979   5.804 -0.2923 -0.2512 -0.2495
   67MOL0     C 9168   4.765   6.966   5.702 -0.0901  0.3716  0.2381
   67MOL0     C 9169   4.624   6.981   5.751 -0.1467 -0.3933  0.2646
   67MOL0     C 9170   4.582   6.906   5.884  0.4549  0.6801 -0.7536
   67MOL0     C 9171   4.433   6.920   5.907 -0.4558 -0.1239 -1.5549
   67MOL0     C 9172   4.344   6.866   5.808  0.5031  0.1449 -0.3037
   67MOL0     C 9173   4.253   6.815   5.754 -0.2772  0.2095  0.6281
   67MOL0     C 9174   5.035   6.862   5.665 -0.0092  0.4610 -0.8388
   67MOL0     C 9175   5.163   6.807   5.657 -0.3116 -0.4118 -0.3437
   67MOL0     C 9176   5.219   6.771   5.518  0.3319  0.6837  0.5266
   67MOL0     H 9177   5.693   6.697   5.768  0.5260  0.0704 -0.6684
   67MOL0     H 9178   5.902   6.681   5.889 -0.3448  1.0060  0.3836
   67MOL0     H 9179   5.944   6.459   6.234 -4.3862  1.9916  2.3287
   67MOL0     H 9180   5.917   6.604   6.332 -0.8681  0.9882 -0.2596
   67MOL0     H 9181   6.175   6.541   6.202  0.5037  1.1969 -0.5092
   67MOL0     H 9182   6.149   6.699   6.284 -0.9113  0.0494  1.8956
   67MOL0     H 9183   6.084   6.525   6.479  0.3554 -2.2836 -0.2542
   67MOL0     H 9184   6.176   6.417   6.370  0.5467 -0.0247 -2.4314
   67MOL0     H 9185   6.299   6.670   6.488  0.1553 -0.0828  0.5371
   67MOL0     H 9186   6.312   6.506   6.553 -2.2334  3.1919  2.8982
   67MOL0     H 9187   6.418   6.639   6.283 -1.2296 -0.7045 -0.1894
   67MOL0     H 9188   6.411   6.466   6.310 -0.4543 -1.0576  3.2086
   67MOL0     H 9189   6.563   6.672   6.476 -1.2552  0.8023 -1.7516
   67MOL0     H 9190   6.560   6.494   6.499  4.3175  0.0600  0.0786
   67MOL0     H 9191   6.665   6.625   6.246 -1.3752 -0.8882 -1.2405
   67MOL0     H 9192   6.683   6.456   6.286  0.1233  0.2320  1.2867
   67MOL0     H 9193   6.885   6.597   6.332  0.7662  0.3926  0.1448
   67MOL0     H 9194   6.796   6.671   6.469  1.2689 -2.0436  2.8943
   67MOL0     H 9195   6.713   6.530   6.671  0.4075  0.9951 -0.1707
   67MOL0     H 9196   6.867   6.375   6.899 -0.3895 -0.8237  0.6009
   67MOL0     H 9197   6.904   6.211   6.834  0.0990  0.4404 -2.3808
   67MOL0     H 9198   6.637   6.341   6.888  0.0984 -0.4685 -1.3008
   67MOL0     H 9199   6.651   6.223   6.758 -0.2130 -3.6640  0.6109
   67MOL0     H 9200   6.571   6.127   6.971  0.5145 -1.8503  0.8286
   67MOL0     H 9201   6.706   6.044   6.885 -1.8365 -2.7729  3.2792
   67MOL0     H 9202   6.740   6.030   7.127  3.7602  0.0854  2.3786
   67MOL0     H 9203   6.855   6.133   7.047  0.3169  0.0113 -0.9654
   67MOL0     H 9204   6.829   6.473   7.106 -1.4737  0.5558  0.4352
   67MOL0     H 9205   7.089   6.661   7.269  1.0934 -0.9109 -0.3696
   67MOL0     H 9206   6.969   6.657   7.151  0.8324 -1.2645 -2.7305
   67MOL0     H 9207   7.111   6.545   7.133  0.0606  0.6822 -0.6439
   67MOL0     H 9208   7.146   6.343   7.887  0.4679 -1.5409  2.0880
   67MOL0     H 9209   7.306   6.395   8.024 -4.3567  2.8254 -0.0694
   67MOL0     H 9210   7.711   6.399   7.861 -0.1582 -0.4789 -0.6487
   67MOL0     H 9211   7.698   6.580   7.886  0.6932  0.7294  1.5579
   67MOL0     H 9212   7.878   6.463   8.031 -0.4308  1.1998 -0.0989
   67MOL0     H 9213   7.760   6.566   8.112 -1.1500  2.5909 -2.8338
   67MOL0     H 9214   7.642   6.350   8.174 -0.4193  1.3760 -1.5647
   67MOL0     H 9215   7.795   6.384   8.241  0.4016 -2.7541  0.9718
   67MOL0     H 9216   7.897   6.252   8.019 -0.6792 -0.3269 -0.0856
   67MOL0     H 9217   7.735   6.204   8.005 -0.7081 -0.2586  1.3605
   67MOL0     H 9218   7.919   6.144   8.219 -0.6980 -0.4493 -0.1701
   67MOL0     H 9219   7.751   6.069   8.206 -1.3422 -0.1687 -1.0506
   67MOL0     H 9220   7.962   6.054   7.999 -1.3539 -0.4011 -2.2550
   67MOL0     H 9221   7.794   5.986   7.998 -1.3055 -0.0374  1.3546
   67MOL0     H 9222   7.971   5.821   8.025 -1.4837  1.2810 -1.0201
   67MOL0     H 9223   7.844   5.833   8.149 -1.3643  0.6475 -1.4561
   67MOL0     H 9224   8.078   5.807   8.261  0.2173 -1.6584 -3.3708
   67MOL0     H 9225   8.028   5.980   8.284 -2.5084  0.0163 -0.1199
   67MOL0     H 9226   7.564   6.507   7.707  0.5895 -0.3880 -0.0546
   67MOL0     H 9227   7.377   6.443   7.547 -2.7530  0.7988 -0.4119
   67MOL0     H 9228   6.933   6.277   7.546  0.0629  1.2525  0.0697
   67MOL0     H 9229   6.778   6.171   7.421  1.5635 -0.3818  1.2690
   67MOL0     H 9230   5.683   6.594   6.243 -2.8136 -1.2038 -0.8004
   67MOL0     H 9231   5.492   6.623   6.158  2.4294 -1.3353  2.7313
   67MOL0     H 9232   5.231   6.836   5.995 -0.5413  0.6338 -0.1298
   67MOL0     H 9233   5.035   6.947   5.996 -0.0555  1.8960 -0.5125
   67MOL0     H 9234   4.797   7.025   5.616  3.2659  1.2229  1.9075
   67MOL0     H 9235   4.760   6.862   5.669  0.6762  1.3199 -3.1978
   67MOL0     H 9236   4.555   6.960   5.669 -1.1628  0.0090  1.0070
   67MOL0     H 9237   4.608   7.087   5.774 -0.1067 -0.6473  1.5416
   67MOL0     H 9238   4.603   6.799   5.887  0.3996  0.6849  1.2726
   67MOL0     H 9239   4.629   6.950   5.972 -1.7978 -0.1143  0.9361
   67MOL0     H 9240   4.419   7.026   5.927  1.2394 -0.2305  0.6096
   67MOL0     H 9241   4.407   6.865   5.997 -0.4476 -0.4515 -1.7503
   67MOL0     H 9242   4.180   6.754   5.705 -0.3888  1.0377 -0.2817
   67MOL0     H 9243   4.974   6.866   5.575  0.3767  0.6995 -1.0927
   67MOL0     H 9244   5.169   6.804   5.426  4.7117  0.1982 -2.3471
   67MOL0     H 9245   5.324   6.800   5.512  0.3774  0.5086  0.4646
   67MOL0     H 9246   5.204   6.663   5.518 -0.1119  0.6902 -1.5900
   68MOL0     O 9247   3.666   7.378   1.631  0.3527 -0.2389 -0.0288
   68MOL0     C 9248   3.616   7.292   1.563  0.5215  0.4693 -0.4252
   68MOL0     O 9249   3.680   7.178   1.527  0.1132 -0.0588  0.1522
   68MOL0     C 9250   3.784   7.120   1.597  0.1246  1.1334  0.3118
   68MOL0     C 9251   3.887   7.192   1.661  0.6429  0.2865  0.3364
   68MOL0     C 9252   3.999   7.125   1.711 -0.4077  0.1292  0.9279
   68MOL0     C 9253   4.012   6.976   1.704  0.4051  0.6304  0.6258
   68MOL0     O 9254   4.122   6.897   1.735 -0.2846 -0.2050 -0.2483
   68MOL0     C 9255   4.208   6.949   1.842 -0.2916 -0.3544  0.4564
   68MOL0     C 9256   4.316   6.839   1.874  0.4155  0.3754 -0.4012
   68MOL0     C 9257   4.390   6.817   1.753  0.1529  0.6322  0.0539
   68MOL0     C 9258   4.505   6.716   1.772  0.0098  0.1333  0.4119
   68MOL0     C 9259   4.600   6.733   1.652  0.5187  0.4758  0.4912
   68MOL0     C 9260   4.715   6.631   1.641  0.6498  0.2848 -0.3233
   68MOL0     C 9261   4.804   6.640   1.769 -0.7930 -0.2397 -0.2727
   68MOL0     C 9262   4.923   6.541   1.764  0.1299  0.4143  0.1874
   68MOL0     N 9263   5.050   6.597   1.828  0.1694  0.6009  0.1496
   68MOL0     C 9264   5.173   6.539   1.843  0.5277  0.2186 -0.7771
   68MOL0     C 9265   5.249   6.626   1.900 -0.4083 -0.1281 -0.4558
   68MOL0     C 9266   5.398   6.598   1.900 -0.5077 -0.3116 -0.0534
   68MOL0     C 9267   5.445   6.591   2.047 -0.4532  0.2692  0.2015
   68MOL0     C 9268   5.521   6.712   2.084 -0.1371  0.1105  0.3419
   68MOL0     C 9269   5.450   6.845   2.078  0.3513  0.3932 -0.0655
   68MOL0     O 9270   5.513   6.937   2.172  1.2564  0.0320 -1.0334
   68MOL0     C 9271   5.626   6.999   2.134 -0.9015 -0.2265 -1.2943
   68MOL0     C 9272   5.750   6.940   2.169  0.0200  0.9316 -0.4616
   68MOL0     C 9273   5.874   6.997   2.143 -0.9984  0.2054  0.2475
   68MOL0     C 9274   5.996   6.915   2.199 -0.0846 -0.3356 -0.0786
   68MOL0     C 9275   5.873   7.111   2.062 -0.1355 -0.5159 -0.2569
   68MOL0     C 9276   5.998   7.167   2.007 -0.4403  0.2252  0.7789
   68MOL0     O 9277   6.082   7.071   1.960 -0.3786 -1.0175 -0.4817
   68MOL0     C 9278   6.190   7.115   1.889 -0.2013  0.2009 -0.5358
   68MOL0     C 9279   6.182   7.188   1.769 -0.4377 -0.1182 -0.4887
   68MOL0     C 9280   6.296   7.201   1.689 -1.3155  0.2585  0.1649
   68MOL0     C 9281   6.421   7.151   1.726 -0.6124 -1.0940 -1.0234
   68MOL0     O 9282   6.531   7.169   1.649  0.4549  0.0258 -0.2141
   68MOL0     C 9283   6.594   7.296   1.649 -0.3137 -0.3305  0.2274
   68MOL0     C 9284   6.705   7.291   1.752  0.8137 -0.5921 -0.1623
   68MOL0     C 9285   6.824   7.393   1.732  0.1169 -0.1175 -0.5662
   68MOL0     C 9286   6.912   7.389   1.857 -0.1709  0.6823  0.5955
   68MOL0     C 9287   7.019   7.495   1.861 -0.0395 -0.2206 -0.4403
   68MOL0     C 9288   7.126   7.497   1.981  0.3212  0.6463  0.0637
   68MOL0     C 9289   7.064   7.557   2.105  0.2514 -0.6417 -0.7367
   68MOL0     C 9290   7.174   7.599   2.207 -0.4915  0.1919 -0.5772
   68MOL0    Cl 9291   7.279   7.720   2.124 -0.0625  0.1364  0.1910
   68MOL0     C 9292   6.428   7.079   1.846 -0.3656 -0.4838 -0.0428
   68MOL0     C 9293   6.317   7.063   1.925  0.1262  0.9048 -0.2107
   68MOL0     O 9294   6.014   7.288   1.990 -0.4701 -0.6184 -0.1724
   68MOL0     C 9295   5.745   7.178   2.037 -0.1293 -0.1137  0.4186
   68MOL0     C 9296   5.623   7.131   2.081 -0.4828 -0.3092  0.1056
   68MOL0     N 9297   5.186   6.741   1.916 -0.0032  0.5943 -0.4770
   68MOL0     N 9298   5.065   6.723   1.861  0.0914 -0.1500 -0.5540
   68MOL0     C 9299   3.909   6.909   1.632  1.2997  0.1640  1.0495
   68MOL0     C 9300   3.790   6.981   1.592 -0.4406  0.0419 -0.6687
   68MOL0     C 9301   3.470   7.319   1.530 -0.0694  0.7007  0.8516
   68MOL0     C 9302   3.375   7.215   1.552  0.1491 -0.2117  0.5654
   68MOL0     C 9303   3.235   7.235   1.542  0.4887 -0.4761  0.2423
   68MOL0     C 9304   3.181   7.354   1.493 -0.0316  0.0174 -0.4744
   68MOL0     O 9305   3.048   7.378   1.471 -0.7572  0.2361 -0.2102
   68MOL0     C 9306   2.948   7.290   1.541 -0.0330  0.0686 -0.1455
   68MOL0     C 9307   2.808   7.357   1.502  0.4107  1.0716 -0.6751
   68MOL0     C 9308   2.682   7.322   1.595  0.3582 -0.3191  0.2123
   68MOL0     C 9309   2.587   7.227   1.522  0.5578 -0.0814  0.2258
   68MOL0     C 9310   2.513   7.145   1.618 -0.8937 -0.3769  0.4974
   68MOL0     C 9311   2.470   7.074   1.708 -0.4218 -0.0754  0.3807
   68MOL0     C 9312   3.273   7.453   1.465  0.3015  0.3749 -0.3305
   68MOL0     C 9313   3.411   7.447   1.494 -0.1941  0.0822 -0.1330
   68MOL0     C 9314   3.506   7.564   1.456 -1.1225 -0.0281 -0.3669
   68MOL0     H 9315   3.888   7.300   1.659 -0.7653  0.3589  1.3833
   68MOL0     H 9316   4.088   7.175   1.747  0.4230 -0.4849 -0.2148
   68MOL0     H 9317   4.151   6.948   1.935 -0.4320 -1.1872  0.3671
   68MOL0     H 9318   4.258   7.044   1.822 -1.2774 -0.1385 -1.1681
   68MOL0     H 9319   4.384   6.865   1.956 -0.6645 -1.6168  1.2277
   68MOL0     H 9320   4.261   6.750   1.905 -0.8845  1.7296  1.4461
   68MOL0     H 9321   4.322   6.788   1.672  0.7880 -0.2902 -0.1653
   68MOL0     H 9322   4.432   6.910   1.715  1.1716 -0.5704 -1.9338
   68MOL0     H 9323   4.556   6.747   1.864 -1.2833  0.4864  1.0418
   68MOL0     H 9324   4.470   6.613   1.781 -0.9616  0.1113 -2.6573
   68MOL0     H 9325   4.645   6.832   1.646 -0.4472  0.8989 -0.0622
   68MOL0     H 9326   4.533   6.736   1.565 -0.5693  0.1285  1.2958
   68MOL0     H 9327   4.674   6.530   1.653 -0.3852  0.7431  0.0275
   68MOL0     H 9328   4.761   6.651   1.544  0.8678 -1.8318 -0.7074
   68MOL0     H 9329   4.754   6.624   1.865  2.0243 -0.8981  1.1740
   68MOL0     H 9330   4.847   6.740   1.771  1.6874 -1.2524 -0.2511
   68MOL0     H 9331   4.887   6.450   1.813  0.4394  0.5660  0.6992
   68MOL0     H 9332   4.960   6.515   1.664  0.1480 -1.6067  0.6779
   68MOL0     H 9333   5.208   6.442   1.807 -1.5246 -1.4185  1.3187
   68MOL0     H 9334   5.453   6.682   1.854  0.8112  0.1076  2.1559
   68MOL0     H 9335   5.426   6.498   1.866 -1.9889 -1.3954  1.7992
   68MOL0     H 9336   5.366   6.573   2.120 -0.9780 -0.0129 -0.4299
   68MOL0     H 9337   5.520   6.511   2.054  0.0930  0.3871 -2.9723
   68MOL0     H 9338   5.558   6.682   2.182  0.3377 -1.0948 -0.1876
   68MOL0     H 9339   5.607   6.717   2.017 -1.2208 -0.6524 -1.1672
   68MOL0     H 9340   5.462   6.881   1.976  1.6553  0.7783  0.2144
   68MOL0     H 9341   5.345   6.837   2.108  0.4964  1.4334  0.8028
   68MOL0     H 9342   5.744   6.847   2.225 -0.4254  0.5602 -1.1185
   68MOL0     H 9343   5.959   6.863   2.288 -3.6882  3.2855  0.8307
   68MOL0     H 9344   6.085   6.974   2.223  1.4851 -0.8885 -3.9185
   68MOL0     H 9345   6.006   6.850   2.112 -3.9175  1.9060 -2.5041
   68MOL0     H 9346   6.093   7.241   1.735  0.2780  1.5600  0.1380
   68MOL0     H 9347   6.285   7.249   1.593  1.7139  1.6547  0.4144
   68MOL0     H 9348   6.640   7.330   1.555  1.5065 -2.5042  0.2342
   68MOL0     H 9349   6.525   7.372   1.686  0.3389  1.5137 -2.0759
   68MOL0     H 9350   6.654   7.305   1.848 -0.9473  2.1288 -1.3509
   68MOL0     H 9351   6.747   7.191   1.739  0.5954 -1.4048  3.8601
   68MOL0     H 9352   6.776   7.490   1.721  1.6006  0.8776  1.2269
   68MOL0     H 9353   6.883   7.369   1.642  0.4517  0.3056 -0.4595
   68MOL0     H 9354   6.962   7.293   1.870 -0.7650  0.4636  1.4172
   68MOL0     H 9355   6.851   7.396   1.948 -0.8843 -0.1944  0.2042
   68MOL0     H 9356   7.078   7.476   1.771 -1.7014 -1.5388 -1.3258
   68MOL0     H 9357   6.982   7.598   1.858 -1.4530 -0.4436  3.3271
   68MOL0     H 9358   7.216   7.541   1.939  0.6578  1.4503  1.5714
   68MOL0     H 9359   7.164   7.396   2.003 -2.1171  0.2749  3.4925
   68MOL0     H 9360   6.986   7.499   2.155  1.1682  1.1485  3.1709
   68MOL0     H 9361   7.017   7.651   2.074  0.7683 -0.0135  0.3004
   68MOL0     H 9362   7.228   7.514   2.249 -2.0099  1.5072  4.7073
   68MOL0     H 9363   7.126   7.659   2.285 -1.1633  0.1381 -0.9445
   68MOL0     H 9364   6.516   7.027   1.885  1.1646  0.8910 -1.5030
   68MOL0     H 9365   6.328   7.005   2.016  2.0629  2.6336  0.7242
   68MOL0     H 9366   5.748   7.275   1.989 -1.0079 -0.5243 -0.5046
   68MOL0     H 9367   5.523   7.173   2.075 -1.1797 -1.7618  1.0277
   68MOL0     H 9368   3.902   6.801   1.627  1.6008  0.2045 -2.0595
   68MOL0     H 9369   3.699   6.934   1.556 -1.5035  2.1629 -0.9061
   68MOL0     H 9370   3.417   7.123   1.593  2.0717 -0.0609 -0.9286
   68MOL0     H 9371   3.176   7.147   1.567  2.3419 -1.0216  3.2343
   68MOL0     H 9372   2.951   7.186   1.506  2.3105  0.6007 -1.7804
   68MOL0     H 9373   2.964   7.299   1.649 -1.2182 -0.8090  0.1181
   68MOL0     H 9374   2.791   7.316   1.402 -0.1377  2.8713 -1.3594
   68MOL0     H 9375   2.809   7.464   1.480 -1.9648  1.4145  0.5847
   68MOL0     H 9376   2.718   7.281   1.689 -0.2775 -0.9774  0.1731
   68MOL0     H 9377   2.620   7.409   1.618 -0.2741 -0.6878 -0.0761
   68MOL0     H 9378   2.640   7.142   1.477 -0.4056  0.2542 -1.6173
   68MOL0     H 9379   2.521   7.264   1.443  1.8668 -1.1748 -1.4633
   68MOL0     H 9380   2.426   7.007   1.780  0.8437  0.2311  1.4876
   68MOL0     H 9381   3.241   7.552   1.435  0.4058  0.5078 -0.0131
   68MOL0     H 9382   3.512   7.623   1.548  3.4547 -3.1267  1.7224
   68MOL0     H 9383   3.606   7.522   1.442 -0.6951  0.5513  0.8229
   68MOL0     H 9384   3.468   7.630   1.377 -0.5848 -1.2575 -1.7195
   69MOL0     O 9385   8.436  11.063   4.240 -0.6040 -0.2061 -0.0094
   69MOL0     C 9386   8.426  11.116   4.349  0.6444  0.7861  0.0989
   69MOL0     O 9387   8.510  11.096   4.455  0.3655 -0.0508  0.5772
   69MOL0     C 9388   8.636  11.033   4.433 -0.9101 -0.3889  1.0871
   69MOL0     C 9389   8.671  10.912   4.358  0.5416  0.0012  0.2564
   69MOL0     C 9390   8.795  10.851   4.362 -0.0153 -0.0550 -0.1605
   69MOL0     C 9391   8.900  10.924   4.429 -0.7328 -0.1415  0.0842
   69MOL0     O 9392   9.028  10.865   4.422 -0.0581  0.6749  0.0452
   69MOL0     C 9393   9.146  10.946   4.445  0.1040 -0.2540 -0.2019
   69MOL0     C 9394   9.274  10.877   4.393  0.5297 -0.3012  0.4521
   69MOL0     C 9395   9.398  10.963   4.388 -0.2224  1.1308 -0.0629
   69MOL0     C 9396   9.434  11.010   4.533  0.2505 -0.6646  0.7941
   69MOL0     C 9397   9.430  11.160   4.534  0.2206 -0.2627  0.1917
   69MOL0     C 9398   9.493  11.235   4.658 -0.6554  0.3712 -0.0289
   69MOL0     C 9399   9.455  11.378   4.647 -0.5824 -0.0523  0.0311
   69MOL0     C 9400   9.315  11.406   4.706 -0.3893  0.2364  0.2451
   69MOL0     N 9401   9.202  11.389   4.606  0.2016  0.7036 -0.2409
   69MOL0     C 9402   9.176  11.456   4.489  0.9325 -0.0209  0.0475
   69MOL0     C 9403   9.053  11.422   4.459 -0.1650  1.0088 -0.0745
   69MOL0     C 9404   8.982  11.458   4.340  0.4716 -0.3283  0.7390
   69MOL0     C 9405   8.878  11.348   4.294  0.0727 -1.4161  0.2168
   69MOL0     C 9406   8.811  11.369   4.157 -0.3347 -0.6146  0.5045
   69MOL0     C 9407   8.716  11.492   4.140  0.0477 -0.2868 -0.2098
   69MOL0     O 9408   8.631  11.503   4.256 -0.0657  0.0596  0.8362
   69MOL0     C 9409   8.528  11.593   4.258 -0.1207  0.2986  0.1671
   69MOL0     C 9410   8.484  11.636   4.389  0.0526 -0.7658  0.1035
   69MOL0     C 9411   8.388  11.729   4.402 -0.5491 -0.4917 -1.0723
   69MOL0     C 9412   8.380  11.801   4.534 -0.2602 -0.0874 -1.0755
   69MOL0     C 9413   8.303  11.757   4.293  0.0152 -0.5721 -0.6206
   69MOL0     C 9414   8.179  11.841   4.307 -0.0485 -0.0317 -0.1542
   69MOL0     O 9415   8.158  11.921   4.416  0.5128 -0.6507  0.3652
   69MOL0     C 9416   8.073  12.030   4.408  0.3128 -0.0738 -0.2028
   69MOL0     C 9417   8.041  12.110   4.296  1.1755 -0.6221  0.4418
   69MOL0     C 9418   7.954  12.223   4.312 -0.9379  0.0846  0.0326
   69MOL0     C 9419   7.894  12.246   4.444 -0.5816 -0.4864  0.3100
   69MOL0     O 9420   7.800  12.342   4.466 -0.1112 -0.3238 -0.0309
   69MOL0     C 9421   7.777  12.446   4.365  0.0964 -0.4023  0.1548
   69MOL0     C 9422   7.674  12.541   4.431 -0.2942  0.5168  0.4949
   69MOL0     C 9423   7.632  12.652   4.332  0.1257  0.1424 -0.2817
   69MOL0     C 9424   7.505  12.710   4.393 -0.2844 -0.3719  0.3869
   69MOL0     C 9425   7.477  12.856   4.348 -0.0678  0.3459 -0.5157
   69MOL0     C 9426   7.475  12.866   4.195 -0.1095 -0.9891 -0.0732
   69MOL0     C 9427   7.430  13.014   4.170 -0.4819  0.2143 -0.8549
   69MOL0     C 9428   7.358  13.037   4.037  0.4770  0.2547  0.8991
   69MOL0    Cl 9429   7.209  12.954   4.024  0.0820  0.0134  0.3386
   69MOL0     C 9430   7.929  12.163   4.549  0.3540 -0.5132  0.9103
   69MOL0     C 9431   8.019  12.056   4.534  0.4968  0.2851  0.4246
   69MOL0     O 9432   8.108  11.847   4.208 -0.6582  0.0931  0.3909
   69MOL0     C 9433   8.340  11.714   4.160  0.1848 -0.7083  0.3376
   69MOL0     C 9434   8.449  11.630   4.148  0.2949 -0.3066 -0.0206
   69MOL0     N 9435   9.007  11.347   4.563  0.8537  0.7043 -0.7880
   69MOL0     N 9436   9.099  11.316   4.643  1.3811 -1.0482  0.0271
   69MOL0     C 9437   8.874  11.039   4.502 -0.3164 -0.4513  0.5657
   69MOL0     C 9438   8.746  11.094   4.495  0.4064  0.8735 -0.7947
   69MOL0     C 9439   8.307  11.211   4.359  0.5673 -0.1776  0.1825
   69MOL0     C 9440   8.317  11.337   4.429 -0.0189  0.1981  0.1825
   69MOL0     C 9441   8.203  11.423   4.446 -0.0700 -0.4176  0.4434
   69MOL0     C 9442   8.076  11.375   4.409  0.4507 -0.0829  0.0458
   69MOL0     O 9443   7.960  11.452   4.416  0.1787 -0.2522 -0.2307
   69MOL0     C 9444   7.983  11.591   4.373 -0.7496  0.5597  0.0603
   69MOL0     C 9445   7.861  11.641   4.297  0.2291 -0.6885 -0.4345
   69MOL0     C 9446   7.782  11.740   4.382  0.1210  0.5572  0.0095
   69MOL0     C 9447   7.641  11.748   4.326  0.7630  0.1755  0.3441
   69MOL0     C 9448   7.562  11.831   4.416  0.7467 -0.6144 -0.3961
   69MOL0     C 9449   7.491  11.904   4.490  0.3797  0.8786  0.4721
   69MOL0     C 9450   8.065  11.254   4.339 -0.6076  0.4433  0.9550
   69MOL0     C 9451   8.177  11.173   4.309  0.7508 -0.6464 -0.5276
   69MOL0     C 9452   8.160  11.031   4.252  0.2250 -0.9973 -0.6677
   69MOL0     H 9453   8.591  10.865   4.302 -1.3735  0.3787  2.4944
   69MOL0     H 9454   8.818  10.755   4.317 -2.2536 -0.9872  0.5312
   69MOL0     H 9455   9.155  10.967   4.552 -1.2935 -3.6399  0.7399
   69MOL0     H 9456   9.127  11.034   4.384 -1.1204 -0.9366 -0.8476
   69MOL0     H 9457   9.301  10.777   4.429  3.8307 -0.0161 -0.8782
   69MOL0     H 9458   9.256  10.865   4.285  1.8728  1.9003 -0.0790
   69MOL0     H 9459   9.483  10.903   4.353  0.9312  2.4014  0.4641
   69MOL0     H 9460   9.394  11.045   4.317 -1.1044  1.3496  0.2296
   69MOL0     H 9461   9.366  10.966   4.607 -2.1458  2.0500  0.4118
   69MOL0     H 9462   9.538  10.982   4.552  0.0532 -0.9765  1.4409
   69MOL0     H 9463   9.324  11.187   4.526  0.0632 -1.4497 -2.8595
   69MOL0     H 9464   9.494  11.197   4.454  1.1392 -0.3080  0.8894
   69MOL0     H 9465   9.463  11.194   4.755 -1.9892  2.3808  0.4795
   69MOL0     H 9466   9.601  11.228   4.645 -0.2651  4.5981 -0.4388
   69MOL0     H 9467   9.462  11.413   4.544  2.1150 -1.2219 -0.2641
   69MOL0     H 9468   9.530  11.434   4.705  0.9534  0.4956 -2.3591
   69MOL0     H 9469   9.301  11.329   4.782  0.7533  0.2659  0.5040
   69MOL0     H 9470   9.320  11.506   4.749  2.4270  1.7893 -3.0936
   69MOL0     H 9471   9.248  11.513   4.431  3.0247  0.3504  2.7638
   69MOL0     H 9472   9.051  11.467   4.256  0.3674 -2.1151  0.4265
   69MOL0     H 9473   8.934  11.554   4.362 -1.0505 -0.8135 -0.3014
   69MOL0     H 9474   8.927  11.251   4.282 -0.2638 -1.3171 -2.4840
   69MOL0     H 9475   8.802  11.343   4.372  0.3787  1.1318  0.7902
   69MOL0     H 9476   8.883  11.384   4.076 -0.5350 -0.5890  0.3312
   69MOL0     H 9477   8.755  11.279   4.134  3.4893 -3.0546 -0.0827
   69MOL0     H 9478   8.774  11.584   4.129  2.4211 -1.7001 -0.2833
   69MOL0     H 9479   8.652  11.474   4.052  0.3599  1.2414 -0.7744
   69MOL0     H 9480   8.556  11.606   4.465 -0.8236 -4.6558 -0.3922
   69MOL0     H 9481   8.459  11.773   4.604 -1.1610  1.9585  0.9087
   69MOL0     H 9482   8.282  11.783   4.580 -0.0096  0.1644 -0.4272
   69MOL0     H 9483   8.391  11.908   4.510  0.3893 -0.5238 -2.8969
   69MOL0     H 9484   8.098  12.092   4.206 -0.1493  1.7223 -0.9688
   69MOL0     H 9485   7.933  12.296   4.235 -0.6244  1.2931  1.0493
   69MOL0     H 9486   7.867  12.498   4.332 -0.0431  0.8317  1.6238
   69MOL0     H 9487   7.730  12.385   4.287  1.6730 -3.5259  1.4652
   69MOL0     H 9488   7.595  12.468   4.447 -0.8560  1.0129  0.0091
   69MOL0     H 9489   7.706  12.570   4.532 -1.8619  0.6649  0.9684
   69MOL0     H 9490   7.609  12.619   4.230 -0.5041  2.4598 -0.9339
   69MOL0     H 9491   7.711  12.727   4.331 -0.4485  0.7816  0.8514
   69MOL0     H 9492   7.511  12.733   4.499 -5.9637 -0.3149  1.0460
   69MOL0     H 9493   7.417  12.651   4.364  0.5768 -1.8259  0.6531
   69MOL0     H 9494   7.383  12.882   4.397  1.3168  1.1852  1.8410
   69MOL0     H 9495   7.562  12.914   4.385 -0.7957  0.7427  0.5836
   69MOL0     H 9496   7.409  12.787   4.156  0.7039 -1.5725 -0.3046
   69MOL0     H 9497   7.579  12.849   4.164  0.1127 -0.2599  0.2398
   69MOL0     H 9498   7.519  13.077   4.167 -1.7087  2.1460  0.8368
   69MOL0     H 9499   7.365  13.055   4.248 -0.9982 -0.1549 -1.0804
   69MOL0     H 9500   7.429  12.995   3.965  2.2203 -2.8251  4.0403
   69MOL0     H 9501   7.342  13.140   4.006 -0.4291 -0.3993 -0.9295
   69MOL0     H 9502   7.884  12.187   4.645  0.4704 -0.5757  0.9820
   69MOL0     H 9503   8.041  11.992   4.619 -0.2770 -0.8534 -0.1945
   69MOL0     H 9504   8.279  11.745   4.076  0.3772 -1.4513 -0.0852
   69MOL0     H 9505   8.478  11.595   4.050 -0.7857 -2.6031  0.3845
   69MOL0     H 9506   8.946  11.100   4.555 -0.0147 -0.5762  0.3017
   69MOL0     H 9507   8.727  11.185   4.552 -2.8099  1.1199 -2.0522
   69MOL0     H 9508   8.417  11.368   4.458  0.0720  0.2094 -0.1338
   69MOL0     H 9509   8.213  11.522   4.488 -1.1887 -0.7927  1.6711
   69MOL0     H 9510   8.011  11.657   4.455  1.7060 -1.3082  0.8616
   69MOL0     H 9511   8.063  11.596   4.298 -1.4166 -1.1937 -0.8454
   69MOL0     H 9512   7.800  11.554   4.270 -2.9699  0.8877  1.1061
   69MOL0     H 9513   7.882  11.687   4.200 -3.2451 -1.6573 -1.7738
   69MOL0     H 9514   7.793  11.715   4.488  0.5173 -0.3882 -0.2495
   69MOL0     H 9515   7.834  11.835   4.364  3.0490 -1.1335 -1.2246
   69MOL0     H 9516   7.605  11.645   4.319 -1.5129  0.8972  0.4088
   69MOL0     H 9517   7.645  11.799   4.229  0.7680 -0.9646 -0.2799
   69MOL0     H 9518   7.431  11.970   4.549  0.7982  1.0469  0.7164
   69MOL0     H 9519   7.970  11.212   4.306  0.3645 -0.6551 -0.5335
   69MOL0     H 9520   8.213  11.013   4.158  2.2306 -1.6522  0.5360
   69MOL0     H 9521   8.190  10.946   4.314 -0.7153 -1.5585 -0.9670
   69MOL0     H 9522   8.054  11.033   4.224 -0.0128  2.0784  0.0859
   70MOL0     O 9523   0.955  10.971   1.805 -0.5094 -0.8148 -0.0751
   70MOL0     C 9524   0.860  10.908   1.757 -0.4184 -0.3310  0.0800
   70MOL0     O 9525   0.850  10.869   1.632 -0.6891  0.5705 -0.0113
   70MOL0     C 9526   0.909  10.936   1.520 -0.2327  0.3722  0.2828
   70MOL0     C 9527   1.041  10.921   1.477 -0.2388  0.1310  0.0097
   70MOL0     C 9528   1.090  10.968   1.357 -0.0184 -0.5078  0.1710
   70MOL0     C 9529   1.001  11.039   1.268 -0.1498  0.8149 -0.4698
   70MOL0     O 9530   1.059  11.072   1.146 -0.3616 -0.8368  0.1735
   70MOL0     C 9531   1.015  11.180   1.057  0.4035 -0.7240 -0.0151
   70MOL0     C 9532   1.057  11.159   0.911 -0.4580 -0.1839 -0.1674
   70MOL0     C 9533   0.985  11.042   0.849  0.3352 -0.0558 -0.8537
   70MOL0     C 9534   0.856  11.075   0.788  0.1742  0.2360 -0.2278
   70MOL0     C 9535   0.746  10.974   0.831 -0.1664  0.3940 -0.4561
   70MOL0     C 9536   0.683  10.988   0.970  0.1757 -0.3808 -0.0405
   70MOL0     C 9537   0.613  11.122   0.979 -0.4453  0.2992  0.3736
   70MOL0     C 9538   0.539  11.132   1.119 -0.4101 -0.1641  0.4114
   70MOL0     N 9539   0.470  11.256   1.132  1.0383 -0.6788 -0.0712
   70MOL0     C 9540   0.357  11.306   1.069 -0.1155  0.3856 -0.2802
   70MOL0     C 9541   0.311  11.406   1.148  0.0148  0.5776  0.2884
   70MOL0     C 9542   0.185  11.480   1.143 -0.1313  0.5197  0.1788
   70MOL0     C 9543   0.215  11.627   1.094 -0.6097 -0.5107  0.2597
   70MOL0     C 9544   0.091  11.710   1.065  1.0236 -0.4762 -0.4595
   70MOL0     C 9545   0.122  11.834   0.982  1.0755 -0.8664 -0.2979
   70MOL0     O 9546   0.213  11.799   0.873  0.1541 -0.3178 -0.0913
   70MOL0     C 9547   0.340  11.847   0.858  0.1849  0.2485 -0.3644
   70MOL0     C 9548   0.427  11.868   0.963 -0.9976  0.8728 -0.0839
   70MOL0     C 9549   0.553  11.923   0.955 -0.4738 -0.1458 -0.9521
   70MOL0     C 9550   0.639  11.947   1.080  0.1632  0.3598  0.2636
   70MOL0     C 9551   0.593  11.983   0.832 -0.6249 -0.7844  0.6051
   70MOL0     C 9552   0.722  12.059   0.808 -0.6814 -0.7604  0.4917
   70MOL0     O 9553   0.823  12.022   0.894  0.1375  0.4884 -0.5891
   70MOL0     C 9554   0.941  12.078   0.880 -0.5115 -1.1678 -0.4670
   70MOL0     C 9555   0.968  12.221   0.859  0.3297  0.3544  0.2540
   70MOL0     C 9556   1.092  12.274   0.837  0.3140 -0.9420 -0.1152
   70MOL0     C 9557   1.202  12.197   0.840 -0.1335  0.3547 -1.1114
   70MOL0     O 9558   1.325  12.254   0.843  0.5484 -0.5791  0.0201
   70MOL0     C 9559   1.343  12.347   0.949 -0.0643 -0.5595  0.3750
   70MOL0     C 9560   1.452  12.304   1.051 -1.1898 -0.4966 -0.1679
   70MOL0     C 9561   1.399  12.212   1.161 -0.5083 -0.1823 -0.0818
   70MOL0     C 9562   1.344  12.296   1.279  0.2943  0.1945  0.2160
   70MOL0     C 9563   1.267  12.206   1.372  0.6026 -0.7061  0.6273
   70MOL0     C 9564   1.143  12.140   1.326  0.4385  0.1162  0.0784
   70MOL0     C 9565   1.081  12.040   1.430 -0.3681 -0.7233 -0.5702
   70MOL0     C 9566   0.934  11.990   1.404 -0.2636 -0.2363  0.0759
   70MOL0    Cl 9567   0.815  12.119   1.350 -0.6730 -0.2226  0.2223
   70MOL0     C 9568   1.188  12.056   0.860 -0.8659  0.1332  0.3399
   70MOL0     C 9569   1.059  12.006   0.874  0.2704  0.8315  0.0600
   70MOL0     O 9570   0.725  12.134   0.711  0.3591  0.1071 -0.0485
   70MOL0     C 9571   0.509  11.952   0.717  0.3396  0.0698 -0.0305
   70MOL0     C 9572   0.387  11.888   0.729  1.0476  0.1795  0.3890
   70MOL0     N 9573   0.394  11.418   1.259 -0.3108 -0.0716  0.0956
   70MOL0     N 9574   0.496  11.334   1.241  0.3679 -0.4946 -0.0299
   70MOL0     C 9575   0.867  11.061   1.309  0.0579 -0.3640 -0.0340
   70MOL0     C 9576   0.826  11.002   1.432 -0.4875  0.2078  0.0543
   70MOL0     C 9577   0.754  10.844   1.849  0.2595  0.0950 -0.1471
   70MOL0     C 9578   0.656  10.775   1.772  0.5958 -1.0147 -0.7927
   70MOL0     C 9579   0.554  10.714   1.843 -0.6601 -0.4928 -0.5148
   70MOL0     C 9580   0.547  10.700   1.982  0.4316  0.1611 -0.3517
   70MOL0     O 9581   0.437  10.636   2.033  0.0726  0.7242 -0.0245
   70MOL0     C 9582   0.429  10.611   2.171  0.0149  0.2147 -0.3244
   70MOL0     C 9583   0.322  10.505   2.185 -0.3826 -0.0848 -0.2838
   70MOL0     C 9584   0.350  10.370   2.108  0.3624  0.4465 -0.0144
   70MOL0     C 9585   0.302  10.241   2.177  0.1819  0.0163  0.2386
   70MOL0     C 9586   0.160  10.250   2.212  1.5432 -0.7088  0.5773
   70MOL0     C 9587   0.038  10.270   2.230  0.1550 -0.6619 -0.1730
   70MOL0     C 9588   0.645  10.774   2.053  0.4247  0.4284  0.0881
   70MOL0     C 9589   0.746  10.845   1.987 -0.4482 -0.3133 -0.3437
   70MOL0     C 9590   0.858  10.916   2.072 -0.6963  0.0661  0.0841
   70MOL0     H 9591   1.119  10.874   1.536 -2.0698 -1.4920  1.2888
   70MOL0     H 9592   1.192  10.941   1.332  0.5129  0.2757  1.3648
   70MOL0     H 9593   1.055  11.279   1.081 -0.4926 -0.6520  1.3119
   70MOL0     H 9594   0.906  11.193   1.061  0.1280 -2.2939 -1.4158
   70MOL0     H 9595   1.032  11.251   0.857 -1.6384 -0.1132  0.4626
   70MOL0     H 9596   1.166  11.152   0.915 -0.3309  1.8095  1.6412
   70MOL0     H 9597   1.051  10.996   0.776 -1.0676 -2.5472 -0.6640
   70MOL0     H 9598   0.970  10.965   0.925 -2.3910  1.3411  0.1720
   70MOL0     H 9599   0.813  11.169   0.825 -0.5449  0.1778 -0.8918
   70MOL0     H 9600   0.858  11.076   0.679 -2.5921  0.3664 -0.3589
   70MOL0     H 9601   0.786  10.874   0.814 -0.1364  0.2794  0.2664
   70MOL0     H 9602   0.673  10.990   0.752  1.9563  1.8598 -2.2297
   70MOL0     H 9603   0.605  10.912   0.982  0.6322 -0.8831 -0.2506
   70MOL0     H 9604   0.754  10.973   1.052  0.4531 -0.8960 -0.3734
   70MOL0     H 9605   0.534  11.148   0.907 -1.8774  1.5640  2.3037
   70MOL0     H 9606   0.695  11.193   0.987 -1.1932  1.5844 -2.2532
   70MOL0     H 9607   0.470  11.048   1.103  4.1504 -3.7254 -3.7352
   70MOL0     H 9608   0.602  11.115   1.207 -0.0309  1.5440  0.5075
   70MOL0     H 9609   0.306  11.267   0.983 -0.0032  0.6944 -0.4893
   70MOL0     H 9610   0.130  11.478   1.238 -1.9349  0.5762 -0.8267
   70MOL0     H 9611   0.109  11.433   1.079 -1.6678  2.8545  0.1899
   70MOL0     H 9612   0.267  11.679   1.175 -0.2913  0.9221 -0.8198
   70MOL0     H 9613   0.283  11.613   1.010 -0.5261 -0.4898  0.3230
   70MOL0     H 9614   0.012  11.655   1.013 -0.6762  0.9510  0.4888
   70MOL0     H 9615   0.052  11.748   1.160  1.1323 -1.3634 -0.0580
   70MOL0     H 9616   0.031  11.879   0.941  3.8793  4.9769 -1.1500
   70MOL0     H 9617   0.153  11.922   1.038  0.8463  1.2482 -3.2814
   70MOL0     H 9618   0.392  11.853   1.065  1.8350  0.9247  0.9934
   70MOL0     H 9619   0.728  11.884   1.077 -0.7353 -1.0969  2.1509
   70MOL0     H 9620   0.579  11.927   1.170  0.3969  3.3374  1.2060
   70MOL0     H 9621   0.667  12.053   1.088 -0.0762  0.3005  2.7099
   70MOL0     H 9622   0.884  12.289   0.858 -0.0993 -0.1594  0.8158
   70MOL0     H 9623   1.099  12.382   0.830 -2.0012 -0.7122  0.2519
   70MOL0     H 9624   1.377  12.445   0.913 -2.3490  1.2877  2.9040
   70MOL0     H 9625   1.250  12.374   1.000 -1.0910 -1.9398 -0.6863
   70MOL0     H 9626   1.540  12.267   0.997  0.0091  0.1810  1.2136
   70MOL0     H 9627   1.497  12.387   1.107 -1.0174 -1.5714  1.3639
   70MOL0     H 9628   1.485  12.155   1.196 -1.2641  0.7852  3.9409
   70MOL0     H 9629   1.326  12.141   1.121  3.9062 -3.2850 -3.6044
   70MOL0     H 9630   1.273  12.373   1.249 -2.9270 -2.0454  1.4097
   70MOL0     H 9631   1.428  12.341   1.332 -0.0496  2.1816 -0.8354
   70MOL0     H 9632   1.326  12.120   1.403  1.5841 -1.4910 -2.9474
   70MOL0     H 9633   1.249  12.271   1.458  4.6152  4.4989 -1.9034
   70MOL0     H 9634   1.156  12.090   1.230  0.0580  2.4824 -1.2550
   70MOL0     H 9635   1.070  12.221   1.314 -0.7301 -0.5310  2.2231
   70MOL0     H 9636   1.074  12.092   1.526  2.0228  1.3770 -1.4111
   70MOL0     H 9637   1.153  11.960   1.446  0.3775  0.1651  0.7378
   70MOL0     H 9638   0.893  11.939   1.492 -1.5218 -3.2721 -2.1022
   70MOL0     H 9639   0.926  11.913   1.327 -0.3653  1.3827 -1.6065
   70MOL0     H 9640   1.272  11.988   0.850 -2.3527 -1.5885 -1.3462
   70MOL0     H 9641   1.052  11.898   0.878  0.1022  0.7317 -2.1315
   70MOL0     H 9642   0.542  11.980   0.618  0.9963 -0.5074  0.0149
   70MOL0     H 9643   0.330  11.882   0.637  1.3956 -0.2946  0.2022
   70MOL0     H 9644   0.802  11.113   1.239 -0.4695  1.2485  1.5715
   70MOL0     H 9645   0.719  10.999   1.453 -0.3006 -1.9931  0.9626
   70MOL0     H 9646   0.650  10.779   1.664 -0.8116  2.8563 -0.7497
   70MOL0     H 9647   0.483  10.668   1.775  0.7174 -0.3535 -2.1013
   70MOL0     H 9648   0.519  10.562   2.211 -0.2775 -2.5993 -2.7679
   70MOL0     H 9649   0.387  10.693   2.230  0.2233  0.3614 -0.3795
   70MOL0     H 9650   0.227  10.550   2.156  0.4588  3.6793  2.1479
   70MOL0     H 9651   0.315  10.478   2.290 -0.7029 -2.9012 -0.9455
   70MOL0     H 9652   0.295  10.380   2.013  2.0033 -1.9224 -1.3252
   70MOL0     H 9653   0.455  10.357   2.081  0.6462  0.4627  1.0597
   70MOL0     H 9654   0.371  10.220   2.260  0.7202  0.5237 -0.0729
   70MOL0     H 9655   0.312  10.159   2.105  0.3323  1.1790 -1.1122
   70MOL0     H 9656  -0.066  10.292   2.244  0.0774  0.0579 -1.7229
   70MOL0     H 9657   0.641  10.776   2.162  0.1028  1.6854  0.0716
   70MOL0     H 9658   0.952  10.871   2.040 -2.0818 -3.6710  0.7126
   70MOL0     H 9659   0.858  11.024   2.060  3.7846  0.1449 -1.0225
   70MOL0     H 9660   0.844  10.890   2.178  1.2656 -1.9282 -0.0752
   71MOL0     O 9661   8.678   3.071   1.280  0.2345  0.8135 -0.1202
   71MOL0     C 9662   8.640   3.076   1.398 -0.2823  0.2726  1.0880
   71MOL0     O 9663   8.721   3.057   1.507  0.3037 -0.2657 -0.3303
   71MOL0     C 9664   8.859   3.051   1.488 -0.7722  0.3308  0.1838
   71MOL0     C 9665   8.939   3.152   1.431 -1.2202 -0.1054 -0.5200
   71MOL0     C 9666   9.079   3.133   1.439  0.4495 -0.5688 -0.0315
   71MOL0     C 9667   9.139   3.026   1.506  0.1283  0.2794 -0.1585
   71MOL0     O 9668   9.274   3.029   1.535 -0.5426 -0.1458 -0.5187
   71MOL0     C 9669   9.376   3.076   1.451  0.6253 -0.1949 -0.1026
   71MOL0     C 9670   9.510   3.006   1.480  0.0873 -0.3225  0.3060
   71MOL0     C 9671   9.622   3.079   1.409 -1.1316  0.5498 -0.5021
   71MOL0     C 9672   9.757   3.025   1.464  0.0127 -0.1516 -0.3240
   71MOL0     C 9673   9.874   3.093   1.382  0.0192 -0.2328  0.2243
   71MOL0     C 9674  10.015   3.044   1.403 -0.4170  0.3780  0.3732
   71MOL0     C 9675  10.119   3.112   1.312  1.2829  0.9418 -0.4401
   71MOL0     C 9676  10.236   3.018   1.308 -0.3248  0.1131 -0.5665
   71MOL0     N 9677  10.358   3.079   1.248  0.5312  1.1119  0.4356
   71MOL0     C 9678  10.383   3.204   1.218  1.0180  0.6377  0.4817
   71MOL0     C 9679  10.512   3.208   1.177  0.3726  0.7960 -1.1948
   71MOL0     C 9680  10.582   3.330   1.133 -0.2165 -0.2754 -0.5301
   71MOL0     C 9681  10.644   3.300   0.990 -0.4693 -1.0410 -0.7520
   71MOL0     C 9682  10.728   3.414   0.943  0.2630 -0.8777 -0.3995
   71MOL0     C 9683  10.793   3.373   0.813  0.0348  0.1247 -0.0447
   71MOL0     O 9684  10.700   3.340   0.711 -0.3848 -0.8205  0.2044
   71MOL0     C 9685  10.730   3.270   0.595 -0.2700 -0.4598  0.4737
   71MOL0     C 9686  10.851   3.252   0.526 -0.8748 -0.3784 -0.5655
   71MOL0     C 9687  10.854   3.212   0.390 -0.3628  0.2089 -0.2916
   71MOL0     C 9688  10.994   3.216   0.325 -0.2084 -0.2094 -0.8386
   71MOL0     C 9689  10.736   3.175   0.320 -0.3618  0.8665  0.2567
   71MOL0     C 9690  10.726   3.124   0.185 -0.1312  0.0461 -0.4940
   71MOL0     O 9691  10.607   3.082   0.137 -0.6807 -0.6211 -0.3139
   71MOL0     C 9692  10.595   3.008   0.028 -0.0440  0.0919  1.2043
   71MOL0     C 9693  10.690   2.916  -0.021 -0.7281  0.4148 -0.1154
   71MOL0     C 9694  10.666   2.840  -0.142 -0.1898  0.0960 -0.6242
   71MOL0     C 9695  10.552   2.858  -0.218  1.2619 -0.3821 -0.5627
   71MOL0     O 9696  10.525   2.786  -0.334  0.4032 -0.1543  0.0372
   71MOL0     C 9697  10.582   2.654  -0.331  1.3332 -0.8769  0.8828
   71MOL0     C 9698  10.516   2.550  -0.425 -0.4093  0.2218 -0.1800
   71MOL0     C 9699  10.365   2.539  -0.395  0.5790 -0.3948 -0.1545
   71MOL0     C 9700  10.306   2.416  -0.456 -0.2356  0.0787 -0.0569
   71MOL0     C 9701  10.281   2.405  -0.605 -0.2051 -0.9347 -0.1197
   71MOL0     C 9702  10.223   2.535  -0.655  1.3591 -0.8445  0.5113
   71MOL0     C 9703  10.127   2.529  -0.781 -0.6809 -0.3084 -0.1683
   71MOL0     C 9704  10.199   2.465  -0.906 -0.0099 -0.1862 -0.3992
   71MOL0    Cl 9705  10.083   2.442  -1.038  0.2837 -0.2639  0.3960
   71MOL0     C 9706  10.462   2.954  -0.173 -0.2520  0.2021  0.3870
   71MOL0     C 9707  10.484   3.025  -0.062 -0.1178 -0.1167 -1.9927
   71MOL0     O 9708  10.819   3.150   0.110 -0.2407 -0.6571  1.0157
   71MOL0     C 9709  10.614   3.186   0.393  0.4578 -0.7495  0.2781
   71MOL0     C 9710  10.613   3.234   0.528  0.1316  0.1548  0.2419
   71MOL0     N 9711  10.569   3.085   1.188  0.1281 -0.2215  0.4944
   71MOL0     N 9712  10.471   3.008   1.228 -0.1658  0.2479 -0.1069
   71MOL0     C 9713   9.059   2.928   1.561  0.1749 -0.3289  0.2895
   71MOL0     C 9714   8.922   2.941   1.551  0.4487  0.6926  0.2760
   71MOL0     C 9715   8.498   3.110   1.424 -0.1398  1.0172 -0.2154
   71MOL0     C 9716   8.471   3.150   1.556  0.1401  0.2799 -0.1361
   71MOL0     C 9717   8.345   3.174   1.603  1.5875  0.0844  0.0052
   71MOL0     C 9718   8.235   3.169   1.513  0.9780 -0.8258  0.7865
   71MOL0     O 9719   8.106   3.196   1.564 -0.4331  0.3011  0.7962
   71MOL0     C 9720   7.997   3.228   1.471  0.2103  0.0535  0.4038
   71MOL0     C 9721   7.865   3.233   1.551 -0.1732  0.1504  0.2425
   71MOL0     C 9722   7.807   3.093   1.568 -0.0439  0.5497  0.3849
   71MOL0     C 9723   7.691   3.092   1.670 -0.0084 -0.3591  0.2596
   71MOL0     C 9724   7.570   3.138   1.613 -0.9306 -0.1279 -0.8221
   71MOL0     C 9725   7.466   3.194   1.562 -0.0232  1.0384  0.6513
   71MOL0     C 9726   8.262   3.139   1.379  0.2094 -0.1770  0.2290
   71MOL0     C 9727   8.389   3.112   1.336  0.2704  0.0057 -0.0461
   71MOL0     C 9728   8.415   3.089   1.196  0.1561 -0.1323 -0.1211
   71MOL0     H 9729   8.905   3.244   1.384  0.1415  0.2874 -0.7805
   71MOL0     H 9730   9.128   3.225   1.412  1.0417 -0.0548  2.5279
   71MOL0     H 9731   9.385   3.185   1.458 -0.6119 -0.1252  0.7322
   71MOL0     H 9732   9.337   3.057   1.350  0.9438 -0.4824 -0.1741
   71MOL0     H 9733   9.515   3.004   1.589 -0.0879  0.1615  0.3290
   71MOL0     H 9734   9.508   2.902   1.447  2.1837 -1.1659  2.5250
   71MOL0     H 9735   9.615   3.065   1.301  1.1043  1.1148 -0.7723
   71MOL0     H 9736   9.624   3.187   1.425 -0.4299  0.5860 -0.7688
   71MOL0     H 9737   9.753   3.055   1.569 -1.4782 -0.2531 -0.3343
   71MOL0     H 9738   9.757   2.918   1.443  3.3596 -0.2056 -0.6583
   71MOL0     H 9739   9.863   3.201   1.399 -0.7750  0.0121 -1.6037
   71MOL0     H 9740   9.855   3.089   1.274  3.8585  1.4987 -0.6637
   71MOL0     H 9741  10.027   3.064   1.510 -2.2568  1.3508  0.4349
   71MOL0     H 9742  10.019   2.939   1.374 -0.0871  0.4562  0.1288
   71MOL0     H 9743  10.149   3.210   1.350 -0.4901  0.7015  1.7871
   71MOL0     H 9744  10.068   3.116   1.215  3.0223  0.9624 -1.3895
   71MOL0     H 9745  10.255   2.996   1.413  0.0742 -2.5145 -1.1271
   71MOL0     H 9746  10.197   2.928   1.259 -2.5708  0.6392  0.1264
   71MOL0     H 9747  10.323   3.294   1.230 -0.4449  0.4147 -3.5114
   71MOL0     H 9748  10.659   3.364   1.202  1.1990 -1.0399 -1.6860
   71MOL0     H 9749  10.499   3.402   1.134 -0.3890 -0.4858  0.1338
   71MOL0     H 9750  10.700   3.206   0.982  1.4093  0.0646 -1.2974
   71MOL0     H 9751  10.557   3.296   0.924 -1.1013 -0.9664  0.0518
   71MOL0     H 9752  10.663   3.500   0.929  0.1597 -0.5126  1.8969
   71MOL0     H 9753  10.798   3.449   1.019  1.1897 -0.2071 -1.5309
   71MOL0     H 9754  10.869   3.447   0.785  0.1051 -0.8968 -2.8474
   71MOL0     H 9755  10.841   3.279   0.840  0.0844 -0.1196 -0.9548
   71MOL0     H 9756  10.944   3.269   0.579 -2.2698 -0.3883  2.0740
   71MOL0     H 9757  11.068   3.258   0.395  0.2043  0.7572 -1.8170
   71MOL0     H 9758  10.984   3.282   0.238 -0.9271  1.3981  0.4014
   71MOL0     H 9759  11.019   3.114   0.296 -1.5020 -0.8500  0.1941
   71MOL0     H 9760  10.774   2.883   0.040  1.5825  0.3090 -3.1265
   71MOL0     H 9761  10.742   2.766  -0.163 -0.7450 -1.6772  2.8843
   71MOL0     H 9762  10.681   2.669  -0.376  1.8235 -1.6765  1.6655
   71MOL0     H 9763  10.569   2.613  -0.231  1.3031  0.8568  1.6259
   71MOL0     H 9764  10.521   2.597  -0.524 -0.8515  2.3922  0.7592
   71MOL0     H 9765  10.566   2.453  -0.433 -2.6054 -0.8955 -1.2886
   71MOL0     H 9766  10.306   2.622  -0.435 -2.1982 -1.7502  0.8018
   71MOL0     H 9767  10.355   2.541  -0.286 -1.4805  0.9221 -0.3014
   71MOL0     H 9768  10.206   2.398  -0.414 -0.1677 -3.0685 -0.9754
   71MOL0     H 9769  10.360   2.331  -0.413  0.4417  0.3831 -0.2921
   71MOL0     H 9770  10.365   2.369  -0.666 -1.5504 -0.6499 -2.2641
   71MOL0     H 9771  10.207   2.328  -0.630 -0.5849 -0.2628 -1.1477
   71MOL0     H 9772  10.303   2.605  -0.680 -0.5540  1.4681  0.4488
   71MOL0     H 9773  10.163   2.585  -0.578  0.1345 -2.1969  0.4903
   71MOL0     H 9774  10.091   2.624  -0.820 -1.5348 -1.9486 -3.7630
   71MOL0     H 9775  10.035   2.471  -0.769  1.0939 -3.5052 -0.9280
   71MOL0     H 9776  10.238   2.368  -0.873 -0.4468 -1.7598 -3.9515
   71MOL0     H 9777  10.292   2.519  -0.927  0.4896  0.2842  2.5579
   71MOL0     H 9778  10.371   2.973  -0.229  0.2107  3.0849  0.4516
   71MOL0     H 9779  10.399   3.088  -0.037  0.0728 -0.1744 -1.1954
   71MOL0     H 9780  10.521   3.160   0.343 -1.1206 -1.0756  3.1751
   71MOL0     H 9781  10.517   3.237   0.580 -0.8168  1.4758 -1.4719
   71MOL0     H 9782   9.110   2.843   1.605  0.4480 -0.6640 -0.6542
   71MOL0     H 9783   8.859   2.868   1.600  0.4136 -1.7468 -3.1022
   71MOL0     H 9784   8.538   3.152   1.641 -0.7054  0.1189  0.5541
   71MOL0     H 9785   8.325   3.195   1.707  1.6440  1.8386 -0.3105
   71MOL0     H 9786   7.998   3.329   1.428  3.1359 -0.7695 -1.7762
   71MOL0     H 9787   7.978   3.154   1.394  2.9826  2.1101 -2.5282
   71MOL0     H 9788   7.800   3.303   1.498 -0.7620 -1.0443 -0.6332
   71MOL0     H 9789   7.886   3.270   1.652 -0.0240 -0.8358  0.5851
   71MOL0     H 9790   7.780   3.054   1.470  1.7508 -2.1982  0.8834
   71MOL0     H 9791   7.887   3.032   1.611 -0.5621 -0.4842 -0.0944
   71MOL0     H 9792   7.721   3.152   1.757  0.4305 -0.3263  0.0896
   71MOL0     H 9793   7.677   2.987   1.695 -0.9066  0.1686  2.1858
   71MOL0     H 9794   7.374   3.229   1.518 -1.1209 -0.0902  1.9345
   71MOL0     H 9795   8.187   3.139   1.300 -0.0708  0.8089  0.4885
   71MOL0     H 9796   8.468   2.993   1.192 -2.1269 -1.5308  0.8877
   71MOL0     H 9797   8.326   3.075   1.134  0.7775  1.0279 -1.3129
   71MOL0     H 9798   8.472   3.172   1.153 -0.2049  0.2875  0.1963
   72MOL0     O 9799   3.235   6.867   7.007  0.6446 -0.0187  0.4501
   72MOL0     C 9800   3.226   6.755   6.960  0.9482 -0.8424  0.2692
   72MOL0     O 9801   3.264   6.715   6.835 -0.5081 -0.9257 -0.5920
   72MOL0     C 9802   3.317   6.806   6.744 -0.2205 -0.2782  0.0474
   72MOL0     C 9803   3.331   6.746   6.615  0.0106  0.3026  0.4279
   72MOL0     C 9804   3.356   6.813   6.495  0.0728  0.6368  0.4939
   72MOL0     C 9805   3.377   6.953   6.503 -0.4635 -0.6662  0.3406
   72MOL0     O 9806   3.393   7.036   6.399 -1.0715 -0.1139  0.7447
   72MOL0     C 9807   3.457   6.983   6.284  0.1295  0.0191  0.2438
   72MOL0     C 9808   3.471   7.100   6.194 -0.2255  0.1350  0.4574
   72MOL0     C 9809   3.554   7.212   6.249  0.8641  0.3754 -0.2758
   72MOL0     C 9810   3.577   7.328   6.146  0.9800  0.1030  0.6033
   72MOL0     C 9811   3.471   7.437   6.143 -0.6882 -0.7258 -0.5736
   72MOL0     C 9812   3.467   7.520   6.268 -0.1514  0.4763 -0.2345
   72MOL0     C 9813   3.393   7.655   6.258  0.2269 -1.4393  0.5195
   72MOL0     C 9814   3.367   7.749   6.380  0.3484  0.5697  0.6198
   72MOL0     N 9815   3.447   7.724   6.502  0.0439 -0.2582  0.1241
   72MOL0     C 9816   3.397   7.706   6.631  0.3209 -0.6290 -0.1756
   72MOL0     C 9817   3.506   7.692   6.700  0.3512 -0.2462 -0.0243
   72MOL0     C 9818   3.511   7.681   6.845  0.0318 -0.3554 -0.1696
   72MOL0     C 9819   3.554   7.806   6.935  0.9162  0.4835  0.0502
   72MOL0     C 9820   3.428   7.901   6.952 -0.5568 -0.3028  0.0523
   72MOL0     C 9821   3.464   8.042   7.012 -0.6468 -0.6610  0.7678
   72MOL0     O 9822   3.517   8.023   7.140  0.3469  0.2926 -0.9876
   72MOL0     C 9823   3.623   8.104   7.185 -0.0440 -0.0021  0.1643
   72MOL0     C 9824   3.688   8.066   7.303  0.1642  0.0200 -0.1013
   72MOL0     C 9825   3.802   8.128   7.344 -0.4799 -0.6248  0.4585
   72MOL0     C 9826   3.885   8.072   7.460 -0.0674 -0.4031 -0.5827
   72MOL0     C 9827   3.843   8.254   7.281  0.3329  0.9782  0.1201
   72MOL0     C 9828   3.962   8.330   7.325  0.4395 -1.4813  0.4017
   72MOL0     O 9829   4.077   8.278   7.282 -0.1977 -0.6689  0.3265
   72MOL0     C 9830   4.201   8.331   7.307  0.9843 -0.8698  1.2871
   72MOL0     C 9831   4.252   8.406   7.200 -0.5065 -0.1147 -0.3371
   72MOL0     C 9832   4.382   8.460   7.204  0.5700  0.2044 -0.2310
   72MOL0     C 9833   4.457   8.441   7.314  0.2438  0.2390  0.1221
   72MOL0     O 9834   4.577   8.512   7.313 -0.1456 -0.3189  0.4122
   72MOL0     C 9835   4.673   8.466   7.407 -0.3435  0.4990 -0.7407
   72MOL0     C 9836   4.811   8.528   7.376  0.5912  0.2024  0.1268
   72MOL0     C 9837   4.801   8.678   7.407 -0.6609  0.6222  0.3229
   72MOL0     C 9838   4.936   8.737   7.368 -0.2908 -0.6483 -0.1015
   72MOL0     C 9839   4.931   8.880   7.326 -1.0007 -0.4676  0.0742
   72MOL0     C 9840   4.897   8.958   7.449  0.2541 -0.5819  0.0852
   72MOL0     C 9841   4.914   9.104   7.436 -0.0289 -0.7962  0.4813
   72MOL0     C 9842   4.842   9.179   7.323  0.0800  0.0805  0.6517
   72MOL0    Cl 9843   4.673   9.194   7.382  0.2644 -0.2132  0.2104
   72MOL0     C 9844   4.414   8.354   7.416 -0.1998  0.4384  0.2390
   72MOL0     C 9845   4.287   8.301   7.407  0.0758  0.0829 -0.2910
   72MOL0     O 9846   3.948   8.444   7.370 -0.2176  1.4429  0.4182
   72MOL0     C 9847   3.768   8.297   7.173 -0.3512 -0.0015 -0.7792
   72MOL0     C 9848   3.656   8.226   7.120  0.4067  0.2758 -0.7707
   72MOL0     N 9849   3.622   7.700   6.627 -0.4008  0.2944  0.5473
   72MOL0     N 9850   3.580   7.718   6.509  0.9195  0.3601  1.2444
   72MOL0     C 9851   3.364   7.019   6.630 -0.8731  0.9240  0.3534
   72MOL0     C 9852   3.344   6.946   6.745  0.3911  1.0646 -0.9792
   72MOL0     C 9853   3.173   6.640   7.041  0.0607  0.4610 -0.2237
   72MOL0     C 9854   3.253   6.526   7.058  0.1433  0.1721  0.2022
   72MOL0     C 9855   3.199   6.414   7.125 -0.0841 -0.0610 -0.7460
   72MOL0     C 9856   3.072   6.412   7.188 -0.2175  0.5493 -0.4457
   72MOL0     O 9857   3.037   6.291   7.247 -0.4010 -0.3143  0.1652
   72MOL0     C 9858   2.917   6.287   7.324 -0.2301 -0.1821 -0.9680
   72MOL0     C 9859   2.900   6.135   7.361  0.8358  0.5257  0.2214
   72MOL0     C 9860   2.902   6.052   7.230 -0.1847  0.0973  0.7600
   72MOL0     C 9861   2.830   6.114   7.109  0.2738  0.1555  0.0751
   72MOL0     C 9862   2.819   6.015   7.000  0.1511 -0.8823  0.3003
   72MOL0     C 9863   2.808   5.915   6.928  0.7793 -0.4128  0.6808
   72MOL0     C 9864   2.996   6.534   7.187 -0.5711 -0.6716  0.0273
   72MOL0     C 9865   3.046   6.644   7.105  0.5271 -0.3390  1.0919
   72MOL0     C 9866   2.951   6.765   7.083 -0.8950  0.9289  0.5268
   72MOL0     H 9867   3.332   6.638   6.609 -0.4936  0.3419 -0.6114
   72MOL0     H 9868   3.366   6.761   6.400 -0.3136 -3.2237  2.3657
   72MOL0     H 9869   3.411   6.899   6.231  2.1392 -0.7738 -0.3069
   72MOL0     H 9870   3.554   6.945   6.317  0.8986 -0.8429 -2.7599
   72MOL0     H 9871   3.525   7.064   6.106 -1.0569 -0.7557  0.2802
   72MOL0     H 9872   3.372   7.132   6.160 -1.6965 -1.6145  2.7076
   72MOL0     H 9873   3.493   7.252   6.331 -1.2817  0.8471 -1.9928
   72MOL0     H 9874   3.649   7.172   6.286  0.2771  0.8738  1.9430
   72MOL0     H 9875   3.670   7.376   6.178  1.6981 -1.4184  0.9477
   72MOL0     H 9876   3.593   7.287   6.046  2.3361 -0.4810  1.0232
   72MOL0     H 9877   3.368   7.401   6.130 -0.6990 -0.6442 -0.7181
   72MOL0     H 9878   3.482   7.508   6.060  2.5982 -0.3043  0.0987
   72MOL0     H 9879   3.424   7.453   6.343 -3.1888  1.8591 -0.6124
   72MOL0     H 9880   3.571   7.533   6.299  0.1179 -0.1680 -0.8268
   72MOL0     H 9881   3.297   7.637   6.209  1.1277 -0.4434 -1.7340
   72MOL0     H 9882   3.446   7.718   6.186 -0.1166  3.5476  4.0938
   72MOL0     H 9883   3.381   7.856   6.360  1.1820 -0.0286 -2.5693
   72MOL0     H 9884   3.260   7.737   6.400 -0.0411 -0.0024 -1.5717
   72MOL0     H 9885   3.294   7.705   6.666 -0.5423  3.5769 -1.9517
   72MOL0     H 9886   3.595   7.613   6.864  3.5106  2.9105 -2.3104
   72MOL0     H 9887   3.421   7.626   6.875  1.1651 -2.0910  0.1945
   72MOL0     H 9888   3.575   7.766   7.035 -0.6610 -2.5850 -0.7306
   72MOL0     H 9889   3.641   7.859   6.895  0.5787  1.8077  0.9937
   72MOL0     H 9890   3.360   7.911   6.867 -0.4512  2.0992  0.1788
   72MOL0     H 9891   3.365   7.848   7.024  0.9641 -1.1322  0.8030
   72MOL0     H 9892   3.548   8.081   6.955  2.1241  0.2643  5.0505
   72MOL0     H 9893   3.388   8.120   6.999 -0.1127 -0.1877  0.4744
   72MOL0     H 9894   3.656   7.972   7.346 -0.6346  0.0932 -0.4985
   72MOL0     H 9895   3.881   8.144   7.542  2.0191 -0.7939 -0.0766
   72MOL0     H 9896   3.987   8.066   7.421  0.2116  0.9353 -0.1052
   72MOL0     H 9897   3.836   7.979   7.490  0.9835 -0.0350  2.6020
   72MOL0     H 9898   4.189   8.412   7.112  1.2463 -0.4108 -1.6640
   72MOL0     H 9899   4.432   8.513   7.124  2.1938 -0.4610  0.2931
   72MOL0     H 9900   4.641   8.491   7.509  0.2687 -0.7740 -0.2211
   72MOL0     H 9901   4.684   8.358   7.418 -2.0953  0.5083  1.7605
   72MOL0     H 9902   4.884   8.488   7.446  0.2423 -1.1426 -0.2412
   72MOL0     H 9903   4.840   8.501   7.274  1.0568 -0.8660  0.5294
   72MOL0     H 9904   4.791   8.693   7.515 -0.2659  2.0671  0.1855
   72MOL0     H 9905   4.715   8.722   7.355 -0.4168 -1.0350 -1.5840
   72MOL0     H 9906   4.968   8.675   7.284 -0.1082 -0.5756 -0.0855
   72MOL0     H 9907   5.012   8.715   7.443  0.4445  0.4834 -0.4853
   72MOL0     H 9908   5.026   8.911   7.282 -2.0283 -0.1049 -2.0599
   72MOL0     H 9909   4.858   8.900   7.247  2.3807  3.4969 -2.4748
   72MOL0     H 9910   4.966   8.938   7.532  0.5456  1.3888  0.3527
   72MOL0     H 9911   4.801   8.936   7.497  1.3516  0.1426  2.8188
   72MOL0     H 9912   5.019   9.129   7.417 -1.0819  1.8505 -2.9908
   72MOL0     H 9913   4.885   9.151   7.530 -2.7205 -1.9659  0.3245
   72MOL0     H 9914   4.842   9.124   7.228 -4.1752 -0.7960  0.9464
   72MOL0     H 9915   4.888   9.278   7.317  3.3577 -1.3774 -0.6143
   72MOL0     H 9916   4.468   8.340   7.509 -0.5513  0.9421  0.5214
   72MOL0     H 9917   4.256   8.233   7.486 -1.9136 -1.7973 -2.5406
   72MOL0     H 9918   3.780   8.397   7.133 -0.4701 -0.0787 -1.0100
   72MOL0     H 9919   3.601   8.277   7.042 -1.6475  0.9562  1.0036
   72MOL0     H 9920   3.374   7.127   6.635 -2.4287  1.0656  0.9881
   72MOL0     H 9921   3.354   7.002   6.838 -0.6804 -1.8328  1.0339
   72MOL0     H 9922   3.353   6.521   7.017 -0.5266  0.2925 -1.5804
   72MOL0     H 9923   3.262   6.326   7.127 -1.8352 -1.3869 -1.3233
   72MOL0     H 9924   2.930   6.349   7.413 -0.1656 -1.6339  0.0639
   72MOL0     H 9925   2.832   6.334   7.272 -0.4597 -0.2595 -0.6639
   72MOL0     H 9926   2.806   6.127   7.416 -0.9382  2.2560 -2.3549
   72MOL0     H 9927   2.979   6.093   7.425  1.0298 -5.4599 -3.2932
   72MOL0     H 9928   3.001   6.035   7.188 -1.4914 -0.1785 -2.4627
   72MOL0     H 9929   2.859   5.953   7.245 -1.1792  0.7212  2.2241
   72MOL0     H 9930   2.888   6.197   7.068 -1.4669  1.5882  0.4217
   72MOL0     H 9931   2.732   6.154   7.137  0.7965  1.9540 -0.5129
   72MOL0     H 9932   2.790   5.822   6.878 -2.3838  0.7353 -0.5513
   72MOL0     H 9933   2.893   6.546   7.221 -0.1953  0.5389  0.8475
   72MOL0     H 9934   2.952   6.831   7.170 -0.2954 -2.0358  2.9107
   72MOL0     H 9935   2.986   6.830   7.002  1.6755 -0.7208  0.1781
   72MOL0     H 9936   2.850   6.725   7.070  0.0034 -1.7183  1.0821
   73MOL0     O 9937   5.005   2.304   7.427 -0.9686 -0.1994  0.1234
   73MOL0     C 9938   4.941   2.410   7.421  0.0723  0.7915  0.6789
   73MOL0     O 9939   4.997   2.532   7.404 -0.1547 -0.0753 -0.0267
   73MOL0     C 9940   5.131   2.554   7.424 -0.2527  0.1668  0.2928
   73MOL0     C 9941   5.177   2.584   7.554 -0.6185  0.0355 -0.0956
   73MOL0     C 9942   5.315   2.624   7.580  0.3744 -0.0684 -0.3524
   73MOL0     C 9943   5.393   2.628   7.468  0.0949  0.1523  0.2937
   73MOL0     O 9944   5.516   2.689   7.463  0.0319  0.0856 -0.0685
   73MOL0     C 9945   5.550   2.789   7.557 -1.0474 -0.1815  0.1873
   73MOL0     C 9946   5.690   2.836   7.542  0.4351 -0.8010  0.2302
   73MOL0     C 9947   5.797   2.724   7.554  0.2918  0.2951  0.3235
   73MOL0     C 9948   5.936   2.796   7.535  0.3833  0.8842  0.4160
   73MOL0     C 9949   5.982   2.872   7.654  0.3088 -0.6769  0.0815
   73MOL0     C 9950   6.100   2.966   7.622  0.1306  0.5942 -0.6291
   73MOL0     C 9951   6.107   3.075   7.724 -0.2840  0.6636 -0.5977
   73MOL0     C 9952   6.031   3.205   7.690 -0.0601  0.6367  0.6796
   73MOL0     N 9953   6.021   3.303   7.799  0.6547  0.0106  0.1101
   73MOL0     C 9954   5.936   3.303   7.910 -0.3445  0.7268 -0.0927
   73MOL0     C 9955   5.986   3.403   7.985  0.4270  0.0492  0.3493
   73MOL0     C 9956   5.947   3.443   8.126  0.3314  0.0264 -0.0031
   73MOL0     C 9957   6.069   3.476   8.217 -0.2656 -0.1273  0.3379
   73MOL0     C 9958   6.110   3.634   8.190 -0.1395  0.7270  0.2608
   73MOL0     C 9959   6.226   3.671   8.274  0.1083 -0.6049 -1.0309
   73MOL0     O 9960   6.271   3.805   8.243 -0.1746  0.2542 -0.3951
   73MOL0     C 9961   6.352   3.827   8.135  0.6628  1.8097 -0.2633
   73MOL0     C 9962   6.420   3.945   8.118  0.2891 -0.8719  0.5747
   73MOL0     C 9963   6.519   3.972   8.022 -0.2540  0.3602 -0.6741
   73MOL0     C 9964   6.580   4.105   8.010 -0.4253  0.6288 -0.0313
   73MOL0     C 9965   6.551   3.861   7.930  0.3583 -0.3212 -0.3063
   73MOL0     C 9966   6.654   3.879   7.829 -0.3005 -1.0201  0.3493
   73MOL0     O 9967   6.714   3.764   7.791 -0.5247  0.0198 -0.6644
   73MOL0     C 9968   6.813   3.759   7.687  0.6362 -0.3253  0.5981
   73MOL0     C 9969   6.925   3.682   7.725  0.2671  0.5300  0.6113
   73MOL0     C 9970   7.036   3.676   7.639  0.9451  0.8827  0.1229
   73MOL0     C 9971   7.034   3.732   7.512 -0.6929 -0.4193 -0.6733
   73MOL0     O 9972   7.138   3.697   7.435 -0.4778 -0.1567  0.3223
   73MOL0     C 9973   7.160   3.762   7.311 -0.3561  1.0719  0.3684
   73MOL0     C 9974   7.315   3.749   7.272  0.1964 -0.8139  0.7441
   73MOL0     C 9975   7.347   3.810   7.126 -0.2514  0.1972 -0.6324
   73MOL0     C 9976   7.367   3.960   7.131  0.2407  0.2697  0.3380
   73MOL0     C 9977   7.436   4.023   7.011 -0.2669 -0.2270  0.5061
   73MOL0     C 9978   7.477   4.165   7.047  0.5891 -1.1053 -0.4545
   73MOL0     C 9979   7.552   4.234   6.933 -0.0181 -0.2894 -0.0774
   73MOL0     C 9980   7.569   4.392   6.946 -0.7324  0.5223 -0.4005
   73MOL0    Cl 9981   7.629   4.446   6.784  0.4381 -0.1914  0.0222
   73MOL0     C 9982   6.931   3.808   7.474  0.2666  0.2634  0.8977
   73MOL0     C 9983   6.818   3.817   7.555  0.0607 -0.1022 -0.1781
   73MOL0     O 9984   6.675   3.986   7.773  0.1068  0.9066 -0.7150
   73MOL0     C 9985   6.479   3.741   7.937 -0.0292 -0.3999  0.6829
   73MOL0     C 9986   6.388   3.723   8.046  0.0186 -0.4849 -0.3392
   73MOL0     N 9987   6.095   3.463   7.920  0.2758  0.2282  0.3052
   73MOL0     N 9988   6.108   3.406   7.808  0.0198 -0.1339 -0.0923
   73MOL0     C 9989   5.362   2.590   7.343  0.3645 -0.7563  0.8732
   73MOL0     C 9990   5.225   2.559   7.316  0.5953  0.3492 -0.4841
   73MOL0     C 9991   4.793   2.406   7.436  0.3396  0.2848 -0.7918
   73MOL0     C 9992   4.744   2.498   7.529  0.4421  0.2393 -0.1306
   73MOL0     C 9993   4.608   2.499   7.567  0.4592  0.8480  0.1074
   73MOL0     C 9994   4.517   2.411   7.506  0.1800 -0.3132 -0.0961
   73MOL0     O 9995   4.382   2.409   7.552 -0.3633 -0.0315  0.2684
   73MOL0     C 9996   4.290   2.325   7.479 -0.2562 -0.0997 -0.5971
   73MOL0     C 9997   4.152   2.376   7.526  0.1943 -0.5481 -0.0169
   73MOL0     C 9998   4.048   2.321   7.430  0.4583  0.7297 -0.7865
   73MOL0     C 9999   3.906   2.347   7.477 -0.2601  0.9162 -1.0639
   73MOL0     C10000   3.805   2.350   7.378 -0.0863  0.7488  0.2241
   73MOL0     C10001   3.714   2.340   7.300 -0.0181  0.2780  0.6266
   73MOL0     C10002   4.566   2.336   7.396 -0.0034 -0.0370 -0.1733
   73MOL0     C10003   4.708   2.323   7.365 -0.1019 -0.1584 -0.6472
   73MOL0     C10004   4.752   2.228   7.253  0.7139 -0.5762  0.1758
   73MOL0     H10005   5.107   2.584   7.637 -0.4108  1.2856  0.1004
   73MOL0     H10006   5.358   2.654   7.675  1.3201  1.1326 -1.1320
   73MOL0     H10007   5.554   2.751   7.660 -2.0525 -0.0726  0.2782
   73MOL0     H10008   5.489   2.880   7.554  0.4523  0.9674  1.9106
   73MOL0     H10009   5.695   2.895   7.450 -0.1060  3.0394  2.4202
   73MOL0     H10010   5.708   2.910   7.621 -0.7099  0.1845 -0.4001
   73MOL0     H10011   5.795   2.672   7.650  0.8320  3.0160  1.9201
   73MOL0     H10012   5.777   2.647   7.478  1.2319 -0.7817  1.1316
   73MOL0     H10013   6.020   2.730   7.510 -1.6591 -1.6878 -0.1690
   73MOL0     H10014   5.915   2.857   7.446 -3.1598  1.0992  1.2297
   73MOL0     H10015   6.004   2.801   7.735 -0.4003  2.3323  3.1288
   73MOL0     H10016   5.902   2.935   7.693 -2.0718 -3.3964 -0.0623
   73MOL0     H10017   6.196   2.915   7.628  1.7876  3.5772  0.1276
   73MOL0     H10018   6.099   3.003   7.519  3.3411  1.2289 -0.5325
   73MOL0     H10019   6.210   3.102   7.745 -0.1300 -1.0742  1.2835
   73MOL0     H10020   6.066   3.034   7.817 -1.9836  1.0822 -1.1213
   73MOL0     H10021   6.079   3.250   7.602 -0.2708 -0.7647 -0.1727
   73MOL0     H10022   5.935   3.182   7.644  0.3037  2.4494 -1.1580
   73MOL0     H10023   5.857   3.233   7.936 -1.5124  0.9622 -2.6789
   73MOL0     H10024   5.891   3.363   8.176 -3.6205  2.1695 -0.6600
   73MOL0     H10025   5.881   3.529   8.116  0.1620 -0.1157 -0.1023
   73MOL0     H10026   6.041   3.469   8.322 -2.3384  3.0444  0.1412
   73MOL0     H10027   6.149   3.407   8.187 -0.5035  0.1020 -0.8857
   73MOL0     H10028   6.134   3.652   8.084 -0.5991 -0.5272 -0.0765
   73MOL0     H10029   6.028   3.697   8.227  0.5236  2.2432 -0.7078
   73MOL0     H10030   6.193   3.664   8.378 -1.5310 -2.1234 -1.6034
   73MOL0     H10031   6.304   3.596   8.259 -1.3177 -1.7266 -3.4953
   73MOL0     H10032   6.383   4.025   8.181  1.3027 -0.7891  1.0940
   73MOL0     H10033   6.536   4.168   7.932 -0.1654  1.9081  0.8141
   73MOL0     H10034   6.689   4.105   7.999 -0.3818  3.4843 -0.3944
   73MOL0     H10035   6.560   4.164   8.100  2.9067 -0.8419  1.8760
   73MOL0     H10036   6.952   3.659   7.827 -0.0721 -1.4092  0.2975
   73MOL0     H10037   7.129   3.632   7.673  0.8504 -1.0935 -1.9178
   73MOL0     H10038   7.098   3.713   7.235  3.2235 -3.5656 -0.0479
   73MOL0     H10039   7.131   3.867   7.312 -3.3359  0.3231  0.9434
   73MOL0     H10040   7.376   3.799   7.348  2.4081  1.1765 -2.0884
   73MOL0     H10041   7.347   3.644   7.266  0.4460 -0.7221  0.4114
   73MOL0     H10042   7.262   3.791   7.060  0.3021 -0.3703 -1.1872
   73MOL0     H10043   7.438   3.763   7.088 -0.6131 -1.3363  0.3074
   73MOL0     H10044   7.433   3.974   7.217  1.5930 -1.3252 -0.3744
   73MOL0     H10045   7.268   4.006   7.144  0.0931  0.3261 -0.8882
   73MOL0     H10046   7.515   3.956   6.977 -1.2583 -2.7916  2.8682
   73MOL0     H10047   7.356   4.019   6.936 -1.0892 -0.2512  1.3649
   73MOL0     H10048   7.540   4.141   7.134 -2.0389 -4.7637  0.6983
   73MOL0     H10049   7.394   4.229   7.081 -2.2334 -5.0321  0.7090
   73MOL0     H10050   7.490   4.219   6.844 -0.8403  1.1204  0.2325
   73MOL0     H10051   7.653   4.194   6.921  0.5938  1.5228 -1.4069
   73MOL0     H10052   7.629   4.435   7.027 -0.7211  0.7436 -0.5281
   73MOL0     H10053   7.474   4.442   6.964 -1.0921 -0.0356 -0.7370
   73MOL0     H10054   6.926   3.846   7.372 -0.4309 -4.0608 -0.9049
   73MOL0     H10055   6.732   3.869   7.516  0.4351  1.0027  0.4364
   73MOL0     H10056   6.505   3.652   7.880  0.5207  0.5805 -0.6456
   73MOL0     H10057   6.346   3.626   8.070 -0.0549 -0.2026  0.7132
   73MOL0     H10058   5.431   2.600   7.260 -0.3607 -3.0026 -0.0702
   73MOL0     H10059   5.186   2.511   7.227 -2.3342 -0.2064  0.9707
   73MOL0     H10060   4.804   2.579   7.570 -0.3079  1.7433 -1.8794
   73MOL0     H10061   4.571   2.563   7.646 -2.6562  1.5423 -1.7235
   73MOL0     H10062   4.308   2.343   7.372 -2.2116  0.6410 -0.8462
   73MOL0     H10063   4.301   2.220   7.507  0.5803  0.2089  0.2577
   73MOL0     H10064   4.150   2.484   7.538  1.5721 -0.4854 -0.0838
   73MOL0     H10065   4.127   2.352   7.630 -1.0732  0.6464 -0.0243
   73MOL0     H10066   4.060   2.365   7.330 -2.4329 -0.7521 -1.9019
   73MOL0     H10067   4.057   2.215   7.403 -0.1059  0.1900  1.0321
   73MOL0     H10068   3.905   2.440   7.535 -1.4937  0.1565  0.1717
   73MOL0     H10069   3.886   2.278   7.559  0.1731  1.6989 -0.2752
   73MOL0     H10070   3.632   2.311   7.238  1.0739 -0.4855 -0.5047
   73MOL0     H10071   4.509   2.256   7.350  0.4385 -0.5186  0.0952
   73MOL0     H10072   4.685   2.143   7.240 -2.5232  1.7119  0.7144
   73MOL0     H10073   4.759   2.284   7.159 -2.4715  1.6900  1.1440
   73MOL0     H10074   4.848   2.184   7.283  0.5535 -0.0867  1.4786
   74MOL0     O10075   3.308  11.089   4.447  0.7175  0.0492  0.0853
   74MOL0     C10076   3.273  11.153   4.548 -0.4139  0.4288  0.3235
   74MOL0     O10077   3.343  11.163   4.668  0.3358  0.4845  0.0430
   74MOL0     C10078   3.452  11.094   4.703 -0.4199  0.2069 -0.0233
   74MOL0     C10079   3.519  10.992   4.631 -0.4745 -0.4262  0.4951
   74MOL0     C10080   3.644  10.944   4.677  0.2692  0.2128  0.3684
   74MOL0     C10081   3.695  10.997   4.790 -0.1038 -0.1014 -0.7628
   74MOL0     O10082   3.822  10.953   4.829  0.2332 -0.1012  0.4967
   74MOL0     C10083   3.931  10.974   4.738 -0.4450 -0.4497  0.0323
   74MOL0     C10084   4.058  10.973   4.813 -0.1159 -1.1323 -0.6729
   74MOL0     C10085   4.098  10.838   4.872  1.1809  0.5315  0.2288
   74MOL0     C10086   4.222  10.847   4.965 -0.3701 -0.4499 -0.1447
   74MOL0     C10087   4.281  10.718   4.996  1.0432 -0.4637 -0.4520
   74MOL0     C10088   4.194  10.611   5.057  0.9524  0.9217 -0.2738
   74MOL0     C10089   4.135  10.647   5.194 -0.3205  0.0957  0.4184
   74MOL0     C10090   4.234  10.696   5.304 -0.0963  0.2157  0.7561
   74MOL0     N10091   4.190  10.724   5.437  0.3483 -0.2848 -0.2531
   74MOL0     C10092   4.062  10.741   5.475 -0.0455  0.1147  0.5123
   74MOL0     C10093   4.059  10.755   5.611 -0.0369  0.3722 -0.0410
   74MOL0     C10094   3.928  10.780   5.681 -0.5140  0.1952 -0.6429
   74MOL0     C10095   3.937  10.899   5.784 -0.0059  0.2737 -0.6344
   74MOL0     C10096   3.797  10.942   5.839 -0.0393 -0.0945  0.7876
   74MOL0     C10097   3.720  10.838   5.928 -0.3256  0.2420 -0.4616
   74MOL0     O10098   3.729  10.876   6.071 -0.9506  0.4817 -0.2150
   74MOL0     C10099   3.843  10.842   6.136 -0.3069 -0.2564 -0.0835
   74MOL0     C10100   3.850  10.717   6.196  0.9143 -0.1100  0.0120
   74MOL0     C10101   3.955  10.687   6.290 -0.0993  0.5972  0.6684
   74MOL0     C10102   3.937  10.548   6.357  0.2303 -0.5263 -0.8003
   74MOL0     C10103   4.057  10.785   6.322  0.5169  0.2358 -0.0868
   74MOL0     C10104   4.174  10.771   6.417  0.4063 -0.7106  0.8736
   74MOL0     O10105   4.191  10.649   6.477 -0.2202 -0.0053 -0.3589
   74MOL0     C10106   4.253  10.646   6.599  0.1377  0.1126 -0.6514
   74MOL0     C10107   4.185  10.665   6.723  0.7900 -0.6011  0.2936
   74MOL0     C10108   4.259  10.651   6.834 -0.4755  1.3727  0.0463
   74MOL0     C10109   4.393  10.614   6.836 -0.1141  0.2222  0.3331
   74MOL0     O10110   4.444  10.600   6.959  0.0611 -0.2394  0.0886
   74MOL0     C10111   4.557  10.689   6.980 -0.1928 -0.4079 -0.5068
   74MOL0     C10112   4.691  10.606   6.998  0.4606  0.0375 -0.2031
   74MOL0     C10113   4.801  10.680   7.061  0.8036 -0.4175  0.8182
   74MOL0     C10114   4.918  10.592   7.115  0.2046  0.0072 -0.1289
   74MOL0     C10115   4.995  10.532   6.995 -0.2338 -0.5075 -0.6558
   74MOL0     C10116   5.106  10.442   7.052 -0.3649 -0.8140  0.5102
   74MOL0     C10117   5.224  10.423   6.965 -0.4739  0.1321  0.4476
   74MOL0     C10118   5.207  10.335   6.845  0.4059 -0.3678  0.1312
   74MOL0    Cl10119   5.365  10.274   6.785  0.4438  0.2023 -0.3068
   74MOL0     C10120   4.454  10.589   6.718  0.0236  0.8813 -0.0385
   74MOL0     C10121   4.387  10.607   6.597  0.5056  0.3441  0.5298
   74MOL0     O10122   4.229  10.879   6.451 -0.7827  0.4323 -0.0221
   74MOL0     C10123   4.056  10.901   6.240 -0.1616  0.3503  0.3151
   74MOL0     C10124   3.947  10.930   6.151 -0.2530  0.1585 -0.1573
   74MOL0     N10125   4.191  10.750   5.652 -0.3252 -0.8823 -0.0758
   74MOL0     N10126   4.264  10.724   5.550 -0.1892  0.5850  0.5037
   74MOL0     C10127   3.637  11.103   4.867  0.5923 -0.0524  0.7423
   74MOL0     C10128   3.509  11.144   4.821 -0.2955 -0.7447  0.2619
   74MOL0     C10129   3.142  11.219   4.555 -0.2160 -0.5282 -0.4066
   74MOL0     C10130   3.087  11.242   4.687  0.2088  0.1744  0.6755
   74MOL0     C10131   2.955  11.294   4.706  0.2870  0.3221  0.3407
   74MOL0     C10132   2.872  11.314   4.586  0.2373  0.0474  1.4873
   74MOL0     O10133   2.740  11.351   4.595 -0.2141 -0.3799  0.9428
   74MOL0     C10134   2.668  11.370   4.716 -0.5493 -0.7391 -0.2073
   74MOL0     C10135   2.634  11.229   4.767  0.1126 -1.1809 -0.0695
   74MOL0     C10136   2.505  11.183   4.708 -0.4490 -0.6669  0.3621
   74MOL0     C10137   2.547  11.095   4.585  0.9433 -0.4804  0.6262
   74MOL0     C10138   2.421  11.046   4.520 -0.0360 -0.7519  0.0275
   74MOL0     C10139   2.321  11.015   4.454  0.0327  0.8605 -0.8955
   74MOL0     C10140   2.929  11.296   4.455  0.6908 -0.1316 -0.4964
   74MOL0     C10141   3.062  11.260   4.439  0.2243  0.8853 -1.1905
   74MOL0     C10142   3.122  11.248   4.300  0.6335 -0.5660 -0.5665
   74MOL0     H10143   3.467  10.930   4.559 -3.7344  0.6087  1.7490
   74MOL0     H10144   3.681  10.858   4.622 -2.5342 -1.3824  0.7789
   74MOL0     H10145   3.924  11.061   4.672  2.6961  0.1957  0.4134
   74MOL0     H10146   3.921  10.882   4.680 -1.2440 -1.7370  2.0843
   74MOL0     H10147   4.136  11.015   4.749  0.0255  1.1381  0.8644
   74MOL0     H10148   4.051  11.049   4.891 -4.0945 -0.8409 -1.1013
   74MOL0     H10149   4.020  10.813   4.945  2.6306 -2.2685  0.9778
   74MOL0     H10150   4.101  10.760   4.794  0.7439  1.1051 -0.3751
   74MOL0     H10151   4.302  10.908   4.923 -1.0382  0.5119 -0.0420
   74MOL0     H10152   4.201  10.901   5.058  0.9012 -2.1951  1.2246
   74MOL0     H10153   4.366  10.738   5.061  0.3759  1.7302 -0.1806
   74MOL0     H10154   4.324  10.670   4.908  1.4891 -0.4516 -0.2408
   74MOL0     H10155   4.112  10.586   4.988  3.2156 -2.5357 -2.0102
   74MOL0     H10156   4.255  10.522   5.075  0.1126 -0.1791 -2.3831
   74MOL0     H10157   4.085  10.561   5.240  0.4321 -0.2435  0.6248
   74MOL0     H10158   4.062  10.727   5.180  0.8314  0.9014 -1.4409
   74MOL0     H10159   4.318  10.627   5.318 -1.1041 -0.9492  1.2199
   74MOL0     H10160   4.277  10.790   5.268 -1.5659  0.6066 -0.0307
   74MOL0     H10161   3.983  10.743   5.400  2.1511  0.5203 -1.9110
   74MOL0     H10162   3.893  10.691   5.735 -1.0924  1.3914  1.0171
   74MOL0     H10163   3.844  10.809   5.617 -1.0871 -2.3140 -1.1578
   74MOL0     H10164   4.007  10.868   5.862 -2.3258 -0.2253  1.3776
   74MOL0     H10165   3.987  10.981   5.732 -0.0863 -0.6379 -2.2116
   74MOL0     H10166   3.806  11.027   5.907 -1.5701 -2.9444  4.9828
   74MOL0     H10167   3.736  10.979   5.757  2.7563 -1.7183 -2.2938
   74MOL0     H10168   3.612  10.852   5.914 -0.2846 -0.0691 -1.1241
   74MOL0     H10169   3.753  10.735   5.914 -0.5805 -0.0430  0.8475
   74MOL0     H10170   3.771  10.647   6.173  0.1612  0.1940  1.5170
   74MOL0     H10171   3.833  10.515   6.363 -0.1232  0.7382  0.6536
   74MOL0     H10172   3.963  10.571   6.460 -0.2836  0.9057 -0.9589
   74MOL0     H10173   3.999  10.468   6.318 -1.1075 -2.2900  0.5326
   74MOL0     H10174   4.078  10.678   6.723  0.9798  1.5989 -1.8949
   74MOL0     H10175   4.207  10.658   6.929 -0.7408 -0.0661  0.0412
   74MOL0     H10176   4.569  10.763   6.901  1.5212 -1.6234 -1.4534
   74MOL0     H10177   4.545  10.735   7.078  0.0584  1.3329 -1.2519
   74MOL0     H10178   4.663  10.523   7.063  1.4049  0.4403  0.7505
   74MOL0     H10179   4.717  10.566   6.900 -0.7576 -4.1759  1.0066
   74MOL0     H10180   4.765  10.739   7.145  1.6971  0.3553  0.6719
   74MOL0     H10181   4.850  10.757   7.001 -0.7219 -0.1368 -0.1433
   74MOL0     H10182   4.888  10.518   7.190  1.0106 -2.3423 -2.0147
   74MOL0     H10183   4.983  10.659   7.172 -0.2763  0.7590 -0.4399
   74MOL0     H10184   4.929  10.479   6.926 -1.3065 -0.6354  0.4189
   74MOL0     H10185   5.031  10.617   6.937  0.6931 -0.2203  0.3017
   74MOL0     H10186   5.063  10.347   7.087  0.4334 -1.2354  0.3691
   74MOL0     H10187   5.150  10.495   7.137 -1.2944 -0.0994  0.5725
   74MOL0     H10188   5.298  10.359   7.013  0.0781  0.1470 -0.3595
   74MOL0     H10189   5.273  10.517   6.939  1.8148 -1.5183 -1.7311
   74MOL0     H10190   5.159  10.396   6.768 -6.6624 -3.5192  1.2676
   74MOL0     H10191   5.128  10.262   6.867 -1.5321  1.2095 -1.2113
   74MOL0     H10192   4.554  10.547   6.727  0.3659  1.6325 -0.2965
   74MOL0     H10193   4.436  10.578   6.505 -2.7986 -1.4163 -0.8561
   74MOL0     H10194   4.124  10.981   6.264 -3.2037  2.3300  3.2510
   74MOL0     H10195   3.944  11.031   6.113 -4.0453  0.0702 -0.4231
   74MOL0     H10196   3.694  11.159   4.941  0.3043  2.3381 -0.7162
   74MOL0     H10197   3.464  11.230   4.870  2.1071  1.3165 -0.9476
   74MOL0     H10198   3.132  11.221   4.784  0.3508  1.6397  0.9433
   74MOL0     H10199   2.909  11.328   4.799 -0.3789 -1.5504  0.7267
   74MOL0     H10200   2.725  11.434   4.785  2.2098 -1.6555 -1.4885
   74MOL0     H10201   2.576  11.420   4.687 -0.4876 -0.0832  0.6725
   74MOL0     H10202   2.614  11.231   4.875  0.0105 -1.3889 -0.0833
   74MOL0     H10203   2.722  11.164   4.763  0.7447 -0.4023  0.7377
   74MOL0     H10204   2.454  11.118   4.780  0.3589 -1.8842 -0.1336
   74MOL0     H10205   2.435  11.261   4.679 -1.3077 -1.9375 -1.1438
   74MOL0     H10206   2.612  11.015   4.621  0.3418 -1.0782  0.4073
   74MOL0     H10207   2.609  11.147   4.511  0.8014  0.9659  1.4766
   74MOL0     H10208   2.233  11.001   4.395  0.5521 -0.2261 -1.4273
   74MOL0     H10209   2.856  11.317   4.378  0.3544 -0.6375 -0.3212
   74MOL0     H10210   3.108  11.147   4.262 -0.2573 -1.0799  1.0331
   74MOL0     H10211   3.097  11.329   4.231  0.0999  0.1782  0.4684
   74MOL0     H10212   3.227  11.279   4.308  0.8277 -1.3128 -0.1855
   75MOL0     O10213  11.063  11.288   6.494 -0.6053  0.3792 -0.1604
   75MOL0     C10214  11.066  11.176   6.535  0.1336  0.1336 -0.2265
   75MOL0     O10215  11.170  11.121   6.600  0.2757 -0.3092 -0.2107
   75MOL0     C10216  11.290  11.182   6.577 -0.7292 -0.7686  0.1605
   75MOL0     C10217  11.361  11.159   6.452 -0.2470 -0.3010 -0.2123
   75MOL0     C10218  11.484  11.220   6.431 -0.5973  0.7963 -0.2688
   75MOL0     C10219  11.542  11.303   6.536 -0.3885 -0.1317  1.7764
   75MOL0     O10220  11.659  11.378   6.516 -0.1284 -0.0104  0.1536
   75MOL0     C10221  11.759  11.336   6.421 -0.3138 -0.4030  0.0130
   75MOL0     C10222  11.891  11.417   6.442 -0.1249 -0.8264  0.1436
   75MOL0     C10223  11.871  11.575   6.435  0.3950 -0.4322 -0.1737
   75MOL0     C10224  12.001  11.646   6.439 -0.6524 -0.8108 -0.1529
   75MOL0     C10225  12.086  11.649   6.306 -0.1965  0.0598  0.6135
   75MOL0     C10226  12.018  11.741   6.192 -0.5103 -0.6751 -0.0300
   75MOL0     C10227  12.104  11.757   6.066 -0.4917 -1.0239 -0.4698
   75MOL0     C10228  12.059  11.878   5.975  0.2868  0.8572  0.3250
   75MOL0     N10229  12.060  12.014   6.039  0.8200  1.1978  0.3387
   75MOL0     C10230  12.168  12.082   6.074  0.3916 -1.1623  0.6806
   75MOL0     C10231  12.124  12.177   6.163 -0.4657  0.3443  0.0362
   75MOL0     C10232  12.209  12.288   6.227 -0.6489  0.8982  0.2036
   75MOL0     C10233  12.138  12.343   6.350 -1.3579 -0.5223 -0.0198
   75MOL0     C10234  12.207  12.472   6.406  0.3617  0.2345 -0.3652
   75MOL0     C10235  12.133  12.534   6.529 -0.1053  0.9802  0.9139
   75MOL0     O10236  12.069  12.430   6.607  0.1779  0.2284 -0.2865
   75MOL0     C10237  12.138  12.354   6.693  0.2497  0.4201  0.3853
   75MOL0     C10238  12.074  12.251   6.754 -0.2005  0.4004 -0.0558
   75MOL0     C10239  12.136  12.164   6.850 -0.6854  0.0655  1.1072
   75MOL0     C10240  12.044  12.071   6.926 -0.1522 -0.1167 -0.1919
   75MOL0     C10241  12.274  12.180   6.874  0.4964  0.1328 -0.5639
   75MOL0     C10242  12.348  12.116   6.981 -0.3507  0.4415 -0.1408
   75MOL0     O10243  12.462  12.181   7.023 -0.3845  0.4847 -0.5067
   75MOL0     C10244  12.520  12.127   7.141 -0.6646 -0.3785 -0.6086
   75MOL0     C10245  12.517  12.201   7.266  0.3605  0.0922  0.6488
   75MOL0     C10246  12.594  12.163   7.372 -0.1805 -0.4126 -0.2902
   75MOL0     C10247  12.673  12.054   7.374 -0.3010  0.8683  0.4711
   75MOL0     O10248  12.748  12.019   7.477  0.3970 -0.0152 -0.4774
   75MOL0     C10249  12.883  12.013   7.461  0.1630 -0.3254  0.3373
   75MOL0     C10250  12.953  12.030   7.597 -0.6072 -0.1981  0.1714
   75MOL0     C10251  13.098  12.068   7.588  0.8107  0.2517  0.0947
   75MOL0     C10252  13.170  12.055   7.716  0.8285 -0.7619 -0.0434
   75MOL0     C10253  13.316  12.029   7.705  0.4821 -0.2497  0.3681
   75MOL0     C10254  13.389  12.023   7.837 -0.2682 -0.4053 -0.3919
   75MOL0     C10255  13.536  12.013   7.805 -0.8778  0.1273 -0.5068
   75MOL0     C10256  13.620  12.008   7.929  0.1634  0.2421 -0.1634
   75MOL0    Cl10257  13.647  12.170   7.992 -0.6563  0.0850 -0.7612
   75MOL0     C10258  12.681  11.980   7.255 -0.3872  0.0341  0.2263
   75MOL0     C10259  12.598  12.016   7.145 -0.4038  0.3122  0.0086
   75MOL0     O10260  12.310  12.002   7.020 -0.0546 -0.4960  0.5329
   75MOL0     C10261  12.336  12.288   6.809  0.7421 -0.4222 -0.2766
   75MOL0     C10262  12.275  12.365   6.714  0.7841 -0.1991  0.6335
   75MOL0     N10263  11.991  12.160   6.170  0.2766 -0.1867  0.6302
   75MOL0     N10264  11.949  12.064   6.106  0.2483  0.8105 -0.3127
   75MOL0     C10265  11.471  11.321   6.646  0.3578  0.4845 -0.5325
   75MOL0     C10266  11.349  11.267   6.667  0.8148  0.0084  0.1249
   75MOL0     C10267  10.949  11.088   6.510  0.2403 -1.9250 -0.9356
   75MOL0     C10268  10.954  10.952   6.556 -0.1841  0.1801  0.7436
   75MOL0     C10269  10.852  10.852   6.538 -1.1839 -0.8014  0.0089
   75MOL0     C10270  10.732  10.892   6.490 -0.4857 -0.6615  0.6540
   75MOL0     O10271  10.623  10.813   6.472 -0.2842 -0.3745 -0.1765
   75MOL0     C10272  10.612  10.680   6.518  0.4450 -0.0930  0.0301
   75MOL0     C10273  10.655  10.590   6.406 -1.1805 -0.0310  0.7544
   75MOL0     C10274  10.625  10.442   6.436 -0.8440 -0.5014  0.4640
   75MOL0     C10275  10.690  10.335   6.343  0.2383  0.6166 -0.4708
   75MOL0     C10276  10.700  10.361   6.201  0.2343  0.4609  0.9412
   75MOL0     C10277  10.704  10.397   6.090  0.9722  0.0413 -0.8189
   75MOL0     C10278  10.728  11.018   6.430 -0.1227  0.1625 -0.0264
   75MOL0     C10279  10.828  11.116   6.439  0.5981  0.2556  0.2412
   75MOL0     C10280  10.800  11.256   6.387 -0.3203  0.8485 -0.6373
   75MOL0     H10281  11.321  11.098   6.371  1.2589 -1.0351 -0.4357
   75MOL0     H10282  11.532  11.195   6.337 -0.8224  0.7853 -0.3827
   75MOL0     H10283  11.731  11.356   6.317  2.1067 -3.6248 -1.4188
   75MOL0     H10284  11.792  11.232   6.432  4.3729  0.8496  0.1388
   75MOL0     H10285  11.919  11.385   6.543 -1.3789 -0.6212  0.5675
   75MOL0     H10286  11.965  11.391   6.366 -0.1635  3.8383 -1.7820
   75MOL0     H10287  11.825  11.596   6.338 -1.8512  2.3623  1.3087
   75MOL0     H10288  11.803  11.609   6.514 -2.9585  1.7154 -3.6193
   75MOL0     H10289  11.976  11.746   6.476 -4.4037 -2.5514  2.6867
   75MOL0     H10290  12.046  11.597   6.526 -2.1011 -0.4436  0.8263
   75MOL0     H10291  12.101  11.552   6.258  1.7454  2.8984 -5.6963
   75MOL0     H10292  12.181  11.693   6.339 -0.6328  1.3943  0.1872
   75MOL0     H10293  11.926  11.684   6.173 -0.3760 -1.8850  2.4996
   75MOL0     H10294  11.990  11.838   6.233 -2.4258 -0.4930 -1.5964
   75MOL0     H10295  12.098  11.663   6.012  0.1250 -0.4520 -1.5672
   75MOL0     H10296  12.204  11.776   6.106 -0.7529 -1.9189  0.6472
   75MOL0     H10297  12.135  11.890   5.897 -0.3433 -0.1958 -0.4955
   75MOL0     H10298  11.970  11.857   5.916  0.8984 -1.0549  0.0010
   75MOL0     H10299  12.271  12.067   6.043  0.6494  0.0254  0.9270
   75MOL0     H10300  12.230  12.365   6.153  1.8051  0.3384  0.2055
   75MOL0     H10301  12.310  12.247   6.243 -0.1078  0.7223 -3.0381
   75MOL0     H10302  12.030  12.358   6.342 -1.2543  0.6839  0.4714
   75MOL0     H10303  12.152  12.267   6.428 -1.1304 -1.8665 -1.3357
   75MOL0     H10304  12.307  12.445   6.439  0.1278 -0.6642 -0.3614
   75MOL0     H10305  12.210  12.551   6.330 -0.4607 -0.8779 -1.5999
   75MOL0     H10306  12.204  12.597   6.584  0.7252  0.1553  0.8142
   75MOL0     H10307  12.049  12.597   6.500 -2.2574 -1.7717  0.7656
   75MOL0     H10308  11.966  12.248   6.738 -0.2171  2.2914 -0.5996
   75MOL0     H10309  12.034  11.981   6.864 -1.8256  1.1588 -1.8890
   75MOL0     H10310  11.944  12.113   6.918 -1.0341 -2.3470 -1.8145
   75MOL0     H10311  12.064  12.058   7.033 -1.0482 -0.3118 -0.0397
   75MOL0     H10312  12.455  12.288   7.284  1.8872  1.3983 -0.2071
   75MOL0     H10313  12.581  12.218   7.465 -0.1917 -2.6009  1.0782
   75MOL0     H10314  12.914  11.919   7.414  1.1620  0.4302 -0.5900
   75MOL0     H10315  12.914  12.088   7.388 -0.3256  1.5224  1.9507
   75MOL0     H10316  12.907  12.111   7.654 -0.5380 -2.1780  3.2793
   75MOL0     H10317  12.947  11.935   7.651 -2.1976 -0.5888 -0.6138
   75MOL0     H10318  13.098  12.167   7.541  1.1715 -0.5422 -1.6875
   75MOL0     H10319  13.148  12.003   7.515  1.3801 -1.1058  1.6370
   75MOL0     H10320  13.127  11.976   7.778 -0.7509 -0.3761 -0.5995
   75MOL0     H10321  13.154  12.148   7.771  1.8957 -0.6999  0.1881
   75MOL0     H10322  13.327  11.937   7.647 -2.1028 -0.1730 -0.3552
   75MOL0     H10323  13.353  12.118   7.654  0.0784 -1.4797 -2.2400
   75MOL0     H10324  13.358  11.940   7.901 -2.7790  1.6499  1.2706
   75MOL0     H10325  13.376  12.123   7.880  0.2893 -0.9492  1.1304
   75MOL0     H10326  13.581  12.097   7.750  2.0817 -0.4493  0.8501
   75MOL0     H10327  13.542  11.924   7.741  3.3992 -0.7693  0.8328
   75MOL0     H10328  13.713  11.956   7.907 -0.5045 -0.8874 -0.4108
   75MOL0     H10329  13.577  11.940   8.005  0.2821 -0.5088 -0.7532
   75MOL0     H10330  12.739  11.889   7.244  1.5144  1.0554  1.4254
   75MOL0     H10331  12.591  11.960   7.052 -2.3579 -0.4149  0.5385
   75MOL0     H10332  12.442  12.310   6.817  0.9273 -1.4045  0.1593
   75MOL0     H10333  12.324  12.443   6.656 -2.1716 -0.2578 -2.2476
   75MOL0     H10334  11.519  11.373   6.728 -0.8587  0.5441  0.1664
   75MOL0     H10335  11.299  11.284   6.762  0.4246  0.1258 -0.1009
   75MOL0     H10336  11.052  10.913   6.583  0.3948  0.8933 -0.2645
   75MOL0     H10337  10.871  10.752   6.575 -2.2012 -0.8976  0.2948
   75MOL0     H10338  10.659  10.652   6.613 -2.2579 -3.2642  0.6144
   75MOL0     H10339  10.505  10.664   6.532  0.5225 -0.9288 -0.2620
   75MOL0     H10340  10.763  10.606   6.393 -1.1128 -0.8194  0.2523
   75MOL0     H10341  10.613  10.604   6.306  3.3040 -1.1645 -1.5842
   75MOL0     H10342  10.648  10.422   6.542  2.0924  1.9359  0.4260
   75MOL0     H10343  10.516  10.436   6.437 -1.0389  1.2591 -1.9861
   75MOL0     H10344  10.626  10.247   6.352  1.0635  0.0936  0.3910
   75MOL0     H10345  10.783  10.307   6.393 -1.5436 -0.7593  2.2939
   75MOL0     H10346  10.704  10.430   5.988 -3.2200 -1.5701 -1.5416
   75MOL0     H10347  10.638  11.051   6.381  0.1417  0.2121 -0.4782
   75MOL0     H10348  10.769  11.321   6.470  2.1834  1.9970 -0.5311
   75MOL0     H10349  10.885  11.295   6.331  2.3405 -0.7870  1.9933
   75MOL0     H10350  10.705  11.261   6.332 -0.2692 -1.4075 -1.0427
   76MOL0     O10351   4.097   3.445   1.138  0.1461  0.1819 -0.2947
   76MOL0     C10352   4.149   3.437   1.031 -0.7321 -0.0786 -0.0599
   76MOL0     O10353   4.102   3.361   0.929  0.8484 -0.3419 -0.2269
   76MOL0     C10354   3.989   3.273   0.944  0.3183 -0.7274 -0.1512
   76MOL0     C10355   3.877   3.312   1.009  0.0232  0.2848  0.1966
   76MOL0     C10356   3.761   3.231   1.028  0.9270  0.4882 -0.0619
   76MOL0     C10357   3.764   3.104   0.973  0.2253 -0.0536 -0.0015
   76MOL0     O10358   3.650   3.034   1.000 -0.9631 -0.5692 -0.2472
   76MOL0     C10359   3.660   2.898   0.981 -0.7199 -0.0912 -0.2551
   76MOL0     C10360   3.521   2.841   1.021 -1.7511  0.3126  1.4305
   76MOL0     C10361   3.525   2.732   1.117 -0.3525  1.8686 -1.1318
   76MOL0     C10362   3.384   2.693   1.163  0.5199 -1.0303 -0.0962
   76MOL0     C10363   3.381   2.589   1.275 -0.2412 -0.3331 -0.2894
   76MOL0     C10364   3.406   2.652   1.416 -0.8632 -0.0329 -0.5621
   76MOL0     C10365   3.296   2.752   1.458  0.0205  0.0289 -0.0927
   76MOL0     C10366   3.312   2.798   1.607 -0.3183  0.1903 -0.6527
   76MOL0     N10367   3.222   2.909   1.629 -0.0443  0.0613 -0.9240
   76MOL0     C10368   3.211   3.025   1.553 -0.5963 -0.1646 -0.0760
   76MOL0     C10369   3.112   3.094   1.616 -0.3320  0.3779  0.4973
   76MOL0     C10370   3.102   3.243   1.587  0.4752  0.4138  0.1135
   76MOL0     C10371   3.229   3.334   1.616 -0.0903  0.2810 -0.1308
   76MOL0     C10372   3.210   3.482   1.594  0.0414 -0.1079  0.1810
   76MOL0     C10373   3.344   3.552   1.578 -0.6921 -0.1894 -0.2748
   76MOL0     O10374   3.416   3.553   1.698  0.1498  0.2274 -0.6682
   76MOL0     C10375   3.549   3.584   1.702  0.3483  0.1415 -0.2425
   76MOL0     C10376   3.628   3.626   1.591 -0.5256 -0.8531  0.3737
   76MOL0     C10377   3.764   3.665   1.598  0.2929  1.2948 -0.3741
   76MOL0     C10378   3.831   3.691   1.462  0.1935 -0.5044 -0.6408
   76MOL0     C10379   3.827   3.652   1.730  0.3280 -0.8065 -0.5431
   76MOL0     C10380   3.968   3.695   1.749 -0.2326  0.5668 -0.0238
   76MOL0     O10381   4.027   3.662   1.868 -0.5921  0.8935 -0.2914
   76MOL0     C10382   4.147   3.710   1.908 -0.7211 -0.1292  0.3135
   76MOL0     C10383   4.166   3.730   2.046  0.0077 -0.3406  0.2030
   76MOL0     C10384   4.291   3.769   2.098 -1.3058  0.2081 -0.5665
   76MOL0     C10385   4.404   3.790   2.012  0.1264  0.0788  0.5700
   76MOL0     O10386   4.527   3.853   2.042  0.6649  0.0642  0.4920
   76MOL0     C10387   4.560   3.864   2.188  0.5254  0.7652  0.3906
   76MOL0     C10388   4.684   3.943   2.204 -0.3976 -0.0817 -1.1733
   76MOL0     C10389   4.743   3.957   2.345  0.2763  0.2899  0.0403
   76MOL0     C10390   4.857   4.055   2.338 -0.4245 -0.5574 -0.1478
   76MOL0     C10391   4.954   4.037   2.461 -0.1709 -0.2762  0.8168
   76MOL0     C10392   5.069   4.137   2.447  0.0534 -0.0804  0.1306
   76MOL0     C10393   5.031   4.283   2.499 -0.1991 -0.0903  0.2855
   76MOL0     C10394   5.155   4.363   2.531 -0.8406 -0.3383 -0.4800
   76MOL0    Cl10395   5.140   4.499   2.640  0.3651 -0.0597  0.2652
   76MOL0     C10396   4.381   3.768   1.877  0.3329  0.5343  0.2658
   76MOL0     C10397   4.258   3.719   1.827 -0.7752  0.1408 -0.0809
   76MOL0     O10398   4.015   3.776   1.670  0.3009  0.1748  0.0995
   76MOL0     C10399   3.753   3.596   1.842 -0.0265  0.4045  0.1069
   76MOL0     C10400   3.622   3.574   1.831  0.6290  0.7433  1.8206
   76MOL0     N10401   3.059   3.025   1.723 -0.3173  0.3110  0.1574
   76MOL0     N10402   3.124   2.911   1.728  0.4614 -0.9866  0.5506
   76MOL0     C10403   3.889   3.053   0.914  0.0156 -0.5918 -1.0285
   76MOL0     C10404   3.995   3.144   0.887 -1.0200  0.6178  0.4798
   76MOL0     C10405   4.283   3.500   1.014  0.2424 -0.2408  0.1380
   76MOL0     C10406   4.336   3.505   0.883  0.7436 -0.1884  0.3720
   76MOL0     C10407   4.453   3.564   0.850  0.6029 -0.0798 -0.0526
   76MOL0     C10408   4.536   3.621   0.948 -0.6809  0.8737 -0.2895
   76MOL0     O10409   4.659   3.669   0.927  0.3210 -0.5960  0.1489
   76MOL0     C10410   4.717   3.696   0.796 -0.4887 -0.2481 -1.3218
   76MOL0     C10411   4.839   3.783   0.805 -0.1793 -0.3672 -1.1713
   76MOL0     C10412   4.804   3.921   0.868 -0.4729 -0.4996  0.4062
   76MOL0     C10413   4.931   4.002   0.896 -0.8317  0.2754  0.2648
   76MOL0     C10414   5.005   4.032   0.773  0.5329 -0.5901 -0.3941
   76MOL0     C10415   5.066   4.050   0.671 -0.6429 -0.6222 -0.9059
   76MOL0     C10416   4.487   3.615   1.078 -0.5745 -0.0667 -0.1197
   76MOL0     C10417   4.366   3.555   1.117  0.6956 -0.4988 -0.2885
   76MOL0     C10418   4.345   3.524   1.265  0.3677  0.5623 -0.1911
   76MOL0     H10419   3.858   3.414   1.041 -0.4831 -0.5520  2.7322
   76MOL0     H10420   3.674   3.265   1.082  0.2731  2.9321 -2.4484
   76MOL0     H10421   3.742   2.850   1.036 -1.4014 -1.0240 -0.0277
   76MOL0     H10422   3.674   2.878   0.875  2.8901  0.2077  0.0383
   76MOL0     H10423   3.457   2.921   1.058 -1.2461  0.1688  2.6451
   76MOL0     H10424   3.477   2.806   0.927 -0.0090  0.1188  0.6417
   76MOL0     H10425   3.568   2.637   1.081 -1.8566  0.4011  0.7352
   76MOL0     H10426   3.592   2.764   1.197 -0.7171  0.8243 -0.3929
   76MOL0     H10427   3.330   2.781   1.197  1.7033 -0.4273  0.2757
   76MOL0     H10428   3.338   2.653   1.073 -1.3094  0.9137 -0.0720
   76MOL0     H10429   3.456   2.511   1.258  2.4066  2.2455 -1.2816
   76MOL0     H10430   3.281   2.545   1.269 -1.2184  1.7598 -0.3838
   76MOL0     H10431   3.413   2.574   1.492  1.0850  1.0015  0.3694
   76MOL0     H10432   3.506   2.694   1.424 -1.2234  0.4902  1.5581
   76MOL0     H10433   3.201   2.702   1.442  0.8698 -2.1648  1.3065
   76MOL0     H10434   3.298   2.843   1.398  0.6951 -0.6252 -1.0787
   76MOL0     H10435   3.269   2.721   1.672 -2.2040  0.8971 -0.9994
   76MOL0     H10436   3.414   2.815   1.644 -0.9890 -1.4633  2.2575
   76MOL0     H10437   3.268   3.050   1.464 -2.1791 -0.5388 -1.2401
   76MOL0     H10438   3.011   3.275   1.638 -2.9827  0.1028 -5.0937
   76MOL0     H10439   3.078   3.251   1.480  0.5277 -1.0426 -0.0246
   76MOL0     H10440   3.260   3.320   1.720  1.5120  1.7586 -0.3677
   76MOL0     H10441   3.322   3.300   1.570  0.0718 -1.4730  1.3779
   76MOL0     H10442   3.148   3.501   1.506  0.9700  0.5810 -0.3388
   76MOL0     H10443   3.154   3.514   1.682  0.4994  0.8510  0.1389
   76MOL0     H10444   3.391   3.493   1.499  1.7967  1.6333 -0.2787
   76MOL0     H10445   3.334   3.654   1.537 -0.8642 -0.4927 -1.0037
   76MOL0     H10446   3.576   3.624   1.496 -2.3143  1.8252  1.1806
   76MOL0     H10447   3.848   3.797   1.442 -0.1553 -0.3273 -0.0181
   76MOL0     H10448   3.770   3.652   1.380  2.2643 -1.4582 -1.8021
   76MOL0     H10449   3.926   3.638   1.449  0.8027  0.4100 -0.0289
   76MOL0     H10450   4.094   3.691   2.116 -0.9014 -2.7191 -1.9034
   76MOL0     H10451   4.287   3.781   2.206 -0.7881 -1.8909 -0.2750
   76MOL0     H10452   4.484   3.921   2.243  0.3551  1.9636 -1.0157
   76MOL0     H10453   4.579   3.768   2.236 -1.2194 -0.4715 -1.2310
   76MOL0     H10454   4.768   3.902   2.147  2.2898  2.6520  0.4791
   76MOL0     H10455   4.655   4.043   2.169 -1.1434  0.5327  1.0408
   76MOL0     H10456   4.777   3.855   2.368 -0.8235 -0.6913 -2.3078
   76MOL0     H10457   4.671   4.000   2.415  1.1362  1.9250 -0.0469
   76MOL0     H10458   4.811   4.154   2.331  0.6318 -0.0700 -0.4448
   76MOL0     H10459   4.916   4.031   2.249 -3.1337 -1.7465 -1.7307
   76MOL0     H10460   4.902   4.061   2.554 -1.7031  0.6398 -0.2435
   76MOL0     H10461   4.992   3.935   2.473 -1.5663 -1.1057 -1.2866
   76MOL0     H10462   5.096   4.154   2.343  1.6195 -0.2678  0.4795
   76MOL0     H10463   5.163   4.101   2.492  1.1495  1.3587 -0.9002
   76MOL0     H10464   4.970   4.268   2.589  0.5377 -0.0579  0.7974
   76MOL0     H10465   4.975   4.331   2.419 -0.8296 -0.4323  0.5064
   76MOL0     H10466   5.193   4.398   2.434 -0.7864  0.1788 -0.2752
   76MOL0     H10467   5.231   4.291   2.560 -0.1046  0.0693 -1.3388
   76MOL0     H10468   4.466   3.784   1.811  0.7153  2.4508  1.1374
   76MOL0     H10469   4.248   3.708   1.719 -1.0036  0.7038 -0.1222
   76MOL0     H10470   3.801   3.603   1.939  0.0266  1.5747  0.0050
   76MOL0     H10471   3.569   3.528   1.913 -1.7580 -1.8634 -0.9611
   76MOL0     H10472   3.906   2.950   0.885  0.5443 -0.3537 -1.6112
   76MOL0     H10473   4.074   3.099   0.829 -1.2939 -3.5174  2.9286
   76MOL0     H10474   4.288   3.452   0.801  1.8210  0.7574 -0.9300
   76MOL0     H10475   4.484   3.575   0.746  1.4944  2.6174  0.4127
   76MOL0     H10476   4.739   3.599   0.749 -2.1066 -0.2060 -2.2278
   76MOL0     H10477   4.645   3.748   0.732 -2.0405  0.0880  0.5951
   76MOL0     H10478   4.877   3.795   0.703  0.2239  1.6239 -0.8252
   76MOL0     H10479   4.917   3.740   0.867  1.1634 -0.5932 -2.9489
   76MOL0     H10480   4.738   3.980   0.804  0.7814 -1.0719 -1.4745
   76MOL0     H10481   4.766   3.901   0.969  0.5048  2.4300  1.4773
   76MOL0     H10482   4.998   3.950   0.965  0.3867  1.8614  0.3344
   76MOL0     H10483   4.920   4.095   0.952  0.6847  1.4223 -1.2558
   76MOL0     H10484   5.119   4.053   0.577 -1.6093 -0.6597 -1.4658
   76MOL0     H10485   4.563   3.643   1.149  0.2735 -0.8933 -0.6835
   76MOL0     H10486   4.437   3.534   1.323  0.4915  2.8950 -0.6970
   76MOL0     H10487   4.278   3.599   1.309  1.5629  1.2154  0.5629
   76MOL0     H10488   4.305   3.426   1.291  2.2132  0.0237  0.7531
   77MOL0     O10489   7.226   0.471   9.546 -0.0095 -0.2085 -0.3851
   77MOL0     C10490   7.220   0.463   9.426 -0.6043 -0.3807  0.4945
   77MOL0     O10491   7.323   0.485   9.332 -0.6974  0.9824  0.3470
   77MOL0     C10492   7.446   0.508   9.394  0.4966  0.3524 -0.3559
   77MOL0     C10493   7.523   0.419   9.458  0.4133  0.2893 -0.1058
   77MOL0     C10494   7.652   0.450   9.490  0.0620 -0.1371 -0.2124
   77MOL0     C10495   7.705   0.576   9.465 -0.2463 -0.2534  1.0293
   77MOL0     O10496   7.834   0.598   9.505  0.0700 -0.1682  0.2345
   77MOL0     C10497   7.843   0.641   9.641  0.2193  0.1439  0.3541
   77MOL0     C10498   7.841   0.790   9.662  0.5005  0.3946  0.1337
   77MOL0     C10499   7.901   0.838   9.793  0.0411  0.6041 -0.7474
   77MOL0     C10500   7.875   0.989   9.794  0.2917  0.7564 -0.4040
   77MOL0     C10501   7.936   1.053   9.922  0.2902  1.0408 -1.3202
   77MOL0     C10502   7.899   1.190   9.965 -0.1143  0.5140 -0.2979
   77MOL0     C10503   7.936   1.293   9.860  0.3747  0.2704  0.5040
   77MOL0     C10504   8.087   1.302   9.833 -0.9424 -0.0947  0.0825
   77MOL0     N10505   8.180   1.260   9.939  0.8481 -1.0991  1.1333
   77MOL0     C10506   8.281   1.167   9.943 -0.4530  0.3065  0.0374
   77MOL0     C10507   8.369   1.206  10.046  0.2256 -0.0740  0.3610
   77MOL0     C10508   8.495   1.145  10.089 -0.0432 -0.2783  0.5689
   77MOL0     C10509   8.563   1.218  10.207 -0.5581  0.2582  0.8291
   77MOL0     C10510   8.694   1.142  10.262  0.8041  0.3752 -0.4399
   77MOL0     C10511   8.655   1.019  10.340  0.6125 -0.6594 -1.0878
   77MOL0     O10512   8.612   1.037  10.477 -0.3034  0.0468 -0.5883
   77MOL0     C10513   8.694   1.087  10.577  0.5766  0.4706 -0.2175
   77MOL0     C10514   8.635   1.110  10.703  0.9620  0.5604  0.4244
   77MOL0     C10515   8.712   1.121  10.820 -0.0829 -0.3042  0.5383
   77MOL0     C10516   8.641   1.119  10.946 -0.1224 -0.2366  0.1696
   77MOL0     C10517   8.856   1.121  10.807 -0.0411 -0.2297 -0.5516
   77MOL0     C10518   8.945   1.127  10.930  0.1720 -0.6657 -0.6918
   77MOL0     O10519   9.085   1.088  10.923  0.6974 -0.0919 -0.3685
   77MOL0     C10520   9.179   1.121  11.019 -0.8057  0.5386  0.4834
   77MOL0     C10521   9.242   1.027  11.102 -0.6345  0.1718 -0.7798
   77MOL0     C10522   9.330   1.085  11.192  0.4067 -0.0738 -0.0670
   77MOL0     C10523   9.362   1.217  11.205  0.1815  0.1027  0.8950
   77MOL0     O10524   9.457   1.251  11.290 -0.0184  0.1040 -0.3288
   77MOL0     C10525   9.496   1.389  11.295 -0.9590 -0.4160  0.3538
   77MOL0     C10526   9.620   1.417  11.377  0.1539 -0.0006  0.0863
   77MOL0     C10527   9.761   1.370  11.321  0.5171  0.1959  0.9696
   77MOL0     C10528   9.862   1.357  11.430  0.4996 -0.4549  0.3278
   77MOL0     C10529   9.893   1.487  11.508  0.1513  0.3273 -0.4592
   77MOL0     C10530  10.024   1.500  11.597 -0.4492  0.6900 -0.3058
   77MOL0     C10531  10.052   1.641  11.631  0.1449  0.5607  0.2176
   77MOL0     C10532   9.995   1.685  11.770  0.2516 -0.1751  0.1751
   77MOL0    Cl10533  10.038   1.576  11.895 -0.4144 -0.1257 -0.3232
   77MOL0     C10534   9.313   1.305  11.110 -0.6837 -0.5701 -0.7356
   77MOL0     C10535   9.215   1.259  11.026  0.2481  0.8108 -0.2880
   77MOL0     O10536   8.902   1.182  11.032 -0.1173 -0.9411 -0.2978
   77MOL0     C10537   8.917   1.125  10.679  0.0415  0.6340 -1.1973
   77MOL0     C10538   8.831   1.103  10.567 -0.1509 -0.1973 -0.3593
   77MOL0     N10539   8.310   1.302  10.119  0.4474 -0.4349 -0.2536
   77MOL0     N10540   8.200   1.331  10.059  1.1568 -0.3902  0.0161
   77MOL0     C10541   7.623   0.677   9.408  0.2602  0.2172  0.2305
   77MOL0     C10542   7.495   0.636   9.370  0.3110  0.4502 -1.3964
   77MOL0     C10543   7.100   0.418   9.373 -0.7216  0.0836  0.2005
   77MOL0     C10544   6.991   0.498   9.393 -0.8682 -0.0569  0.7049
   77MOL0     C10545   6.870   0.452   9.344 -0.3927  0.9300 -0.2702
   77MOL0     C10546   6.855   0.336   9.270 -0.0136  1.0305 -0.9910
   77MOL0     O10547   6.731   0.317   9.218  0.0498 -0.0952  0.6746
   77MOL0     C10548   6.707   0.224   9.112 -0.4902 -0.5577  1.0028
   77MOL0     C10549   6.623   0.100   9.159  0.2922  0.1905 -0.3569
   77MOL0     C10550   6.484   0.135   9.222 -0.7747  0.1943  0.0439
   77MOL0     C10551   6.392   0.008   9.260 -0.0421  0.5388  0.5335
   77MOL0     C10552   6.299   0.049   9.370  0.1650  0.6753  0.7826
   77MOL0     C10553   6.242   0.101   9.461 -0.1275  0.9054  0.0280
   77MOL0     C10554   6.965   0.259   9.242 -0.1059 -0.0890 -0.2754
   77MOL0     C10555   7.089   0.304   9.288  0.9209 -0.3415 -0.5636
   77MOL0     C10556   7.204   0.210   9.253  0.5846  0.6292 -0.7608
   77MOL0     H10557   7.493   0.314   9.464  0.8470  0.2007  0.6376
   77MOL0     H10558   7.717   0.377   9.538  0.5397  1.4433  1.6799
   77MOL0     H10559   7.940   0.601   9.671 -0.6544 -0.9855  1.8323
   77MOL0     H10560   7.767   0.584   9.695 -1.4951  1.5333 -0.4865
   77MOL0     H10561   7.893   0.817   9.570 -0.5219 -1.9099 -1.2326
   77MOL0     H10562   7.738   0.823   9.646  0.6020  0.5040 -0.2989
   77MOL0     H10563   7.846   0.800   9.879  0.8445 -0.4793 -0.6841
   77MOL0     H10564   8.010   0.825   9.800  0.3368  2.9549 -0.2811
   77MOL0     H10565   7.912   1.031   9.699 -2.0822 -0.2958 -1.8911
   77MOL0     H10566   7.768   1.012   9.795 -0.0891 -0.8842 -0.2500
   77MOL0     H10567   8.042   1.028   9.926  0.3196  1.0864  2.5797
   77MOL0     H10568   7.906   0.997  10.011  2.5087 -1.4551 -2.0119
   77MOL0     H10569   7.790   1.177   9.971  0.1617 -1.6098  0.8059
   77MOL0     H10570   7.940   1.225  10.060  0.7418  2.7349 -1.4192
   77MOL0     H10571   7.901   1.389   9.898 -1.1960  0.5114 -1.3848
   77MOL0     H10572   7.882   1.266   9.768 -0.2752  2.6631  0.1301
   77MOL0     H10573   8.119   1.246   9.745  0.4055  0.8292 -0.0491
   77MOL0     H10574   8.104   1.409   9.814 -1.5498 -0.2438 -1.4772
   77MOL0     H10575   8.296   1.090   9.868  5.0641  0.6034  0.4094
   77MOL0     H10576   8.574   1.139  10.014  0.1482  0.0501  0.7411
   77MOL0     H10577   8.461   1.045  10.115 -0.7665  0.1322  1.2412
   77MOL0     H10578   8.594   1.316  10.170 -1.0141 -1.1845 -4.0672
   77MOL0     H10579   8.488   1.229  10.286 -3.0758  0.2701 -1.4116
   77MOL0     H10580   8.761   1.102  10.185 -1.0891 -0.8100 -1.5718
   77MOL0     H10581   8.749   1.210  10.327  0.0243  1.5342 -0.9557
   77MOL0     H10582   8.580   0.967  10.281  0.3870 -1.0605 -0.4535
   77MOL0     H10583   8.738   0.948  10.338  1.2297 -0.0002 -0.0358
   77MOL0     H10584   8.529   1.086  10.709  0.7072  0.4307 -2.8626
   77MOL0     H10585   8.634   1.221  10.986 -0.5150 -0.4587  0.6909
   77MOL0     H10586   8.684   1.051  11.020 -1.5945 -0.3830  0.9299
   77MOL0     H10587   8.535   1.091  10.941 -0.1742 -0.6098  2.3179
   77MOL0     H10588   9.225   0.920  11.099  1.9415 -0.4423  2.2132
   77MOL0     H10589   9.377   1.021  11.266  0.3637 -1.1981 -0.9694
   77MOL0     H10590   9.527   1.421  11.195 -2.3471  1.8035  0.5721
   77MOL0     H10591   9.418   1.459  11.325  0.3589  1.0033  0.6138
   77MOL0     H10592   9.611   1.525  11.389 -2.8286  0.3984 -3.7659
   77MOL0     H10593   9.607   1.373  11.477  0.7634  1.2312  0.7417
   77MOL0     H10594   9.793   1.426  11.233  2.0410 -2.0869 -0.0415
   77MOL0     H10595   9.745   1.269  11.282 -0.1184 -0.7948  3.5298
   77MOL0     H10596   9.959   1.328  11.389  1.1990  1.4372  0.5066
   77MOL0     H10597   9.848   1.272  11.497  3.0560 -2.0882 -1.0715
   77MOL0     H10598   9.901   1.566  11.433  1.0184  1.3005  0.6203
   77MOL0     H10599   9.805   1.508  11.570  0.8288  2.9423 -0.2855
   77MOL0     H10600  10.105   1.466  11.531  0.5089  0.8989  0.7396
   77MOL0     H10601  10.022   1.431  11.682 -3.5406 -0.0089 -0.8231
   77MOL0     H10602  10.010   1.718  11.565  2.5318  1.9280  0.2096
   77MOL0     H10603  10.157   1.669  11.638  0.4895 -0.7179  0.4509
   77MOL0     H10604   9.889   1.707  11.755 -0.1089 -0.7986  1.5985
   77MOL0     H10605  10.039   1.782  11.794 -2.9361  1.4825 -0.1596
   77MOL0     H10606   9.333   1.408  11.135  2.5194 -1.3682  0.4892
   77MOL0     H10607   9.151   1.321  10.963  0.0985 -3.2481 -4.7759
   77MOL0     H10608   9.025   1.126  10.667  0.3095  0.1172  0.7505
   77MOL0     H10609   8.872   1.070  10.472 -0.3985 -1.5268 -0.0292
   77MOL0     H10610   7.664   0.776   9.396 -0.3147  0.3397 -0.9200
   77MOL0     H10611   7.428   0.698   9.310 -0.5047  1.1247  0.1418
   77MOL0     H10612   7.007   0.595   9.439 -0.7080  1.5377 -2.4283
   77MOL0     H10613   6.785   0.518   9.355 -1.1844  0.0161 -0.8293
   77MOL0     H10614   6.635   0.271   9.043 -1.9312  1.2124  3.5328
   77MOL0     H10615   6.798   0.186   9.065 -0.1869 -0.8041  1.7740
   77MOL0     H10616   6.682   0.057   9.241 -0.4323  2.5337  1.5051
   77MOL0     H10617   6.597   0.030   9.078 -1.8624 -0.3321  0.7086
   77MOL0     H10618   6.509   0.180   9.318  2.5033 -2.1771  0.4887
   77MOL0     H10619   6.434   0.201   9.150  2.5796  1.5388 -1.2799
   77MOL0     H10620   6.449  -0.081   9.287  1.0446  0.3523 -2.0863
   77MOL0     H10621   6.337  -0.014   9.167 -0.7311 -1.3244  1.3407
   77MOL0     H10622   6.196   0.150   9.544 -0.2449  0.0457  0.4827
   77MOL0     H10623   6.971   0.168   9.184 -0.2234  2.3873 -4.6077
   77MOL0     H10624   7.203   0.126   9.323  1.7125 -1.2740 -2.8867
   77MOL0     H10625   7.207   0.161   9.155  0.4968  0.3725 -0.6363
   77MOL0     H10626   7.304   0.255   9.253  1.3180 -0.9168 -1.4450
   78MOL0     O10627   6.095   7.665   2.402  0.4923 -0.4127 -0.5753
   78MOL0     C10628   6.046   7.605   2.497 -0.3445 -0.1222  0.4837
   78MOL0     O10629   5.987   7.654   2.598 -0.0256 -0.7615  0.2060
   78MOL0     C10630   5.929   7.776   2.581  0.0811 -0.1843  0.2764
   78MOL0     C10631   6.010   7.887   2.572 -0.2886  0.3232  0.2574
   78MOL0     C10632   5.945   8.016   2.568  0.0702  0.9209 -0.4598
   78MOL0     C10633   5.803   8.026   2.577  0.2426 -0.2579 -0.0085
   78MOL0     O10634   5.754   8.151   2.572 -0.4804 -0.2585 -0.1268
   78MOL0     C10635   5.627   8.191   2.620  0.5630 -0.5113 -0.1801
   78MOL0     C10636   5.627   8.346   2.616  0.8334 -0.3750 -0.5192
   78MOL0     C10637   5.703   8.406   2.734  0.3609 -0.3124 -0.6739
   78MOL0     C10638   5.676   8.563   2.761 -0.4042  0.9045 -0.5210
   78MOL0     C10639   5.720   8.616   2.902  0.4018 -0.6272 -0.1641
   78MOL0     C10640   5.615   8.596   3.018 -0.1295 -0.2622 -0.2274
   78MOL0     C10641   5.483   8.680   3.006 -0.0370  0.0978 -0.8619
   78MOL0     C10642   5.371   8.652   3.116 -0.2447 -1.1133  0.1242
   78MOL0     N10643   5.350   8.511   3.133  0.3100 -0.9048 -1.2463
   78MOL0     C10644   5.293   8.435   3.041  0.5456 -0.4627 -0.0128
   78MOL0     C10645   5.261   8.325   3.113  0.6350  0.6924 -0.1671
   78MOL0     C10646   5.158   8.224   3.062 -0.7554 -0.1536 -0.4329
   78MOL0     C10647   5.018   8.270   3.091 -0.8126  1.1968 -0.5770
   78MOL0     C10648   4.919   8.160   3.051 -0.0972 -0.3899 -0.4554
   78MOL0     C10649   4.773   8.214   3.036 -0.1814  0.4199  0.7485
   78MOL0     O10650   4.687   8.117   2.978  0.3377  0.2434  0.9075
   78MOL0     C10651   4.553   8.143   2.990  0.4896  0.4335 -1.5720
   78MOL0     C10652   4.453   8.048   2.979  0.2137  0.6099 -0.1740
   78MOL0     C10653   4.321   8.071   2.989  0.1796  0.4013  0.4337
   78MOL0     C10654   4.225   7.966   2.945  1.0611  0.7847  0.0099
   78MOL0     C10655   4.274   8.198   3.025 -0.0697 -0.0635 -0.6916
   78MOL0     C10656   4.124   8.234   3.052 -0.3197 -0.1715 -0.6906
   78MOL0     O10657   4.020   8.153   3.022 -0.5581  1.1029 -0.6503
   78MOL0     C10658   3.884   8.195   3.003 -1.2657  0.0341 -0.1954
   78MOL0     C10659   3.799   8.085   2.970 -0.3362 -1.2968  0.0430
   78MOL0     C10660   3.667   8.123   2.932  0.6149  0.7065  0.2565
   78MOL0     C10661   3.621   8.255   2.925 -0.2880  0.6218  0.3960
   78MOL0     O10662   3.496   8.294   2.886 -0.6274 -0.1537 -0.0997
   78MOL0     C10663   3.402   8.219   2.806  0.0140  1.6975 -0.9625
   78MOL0     C10664   3.273   8.259   2.877 -0.1603  0.7206 -0.6524
   78MOL0     C10665   3.150   8.199   2.817  0.2055  0.4802  0.3923
   78MOL0     C10666   3.072   8.295   2.726 -0.3808 -0.8106 -0.6437
   78MOL0     C10667   2.947   8.228   2.657 -0.4214  0.1038 -0.2783
   78MOL0     C10668   2.848   8.326   2.598 -0.3906 -0.3321 -0.4836
   78MOL0     C10669   2.908   8.388   2.477 -1.0842 -0.6648  0.3321
   78MOL0     C10670   2.816   8.496   2.414  0.2406  0.8540  0.6819
   78MOL0    Cl10671   2.836   8.646   2.516 -0.4056 -0.0293  0.1859
   78MOL0     C10672   3.712   8.360   2.964 -0.4531  0.3458 -0.0016
   78MOL0     C10673   3.841   8.331   2.995 -0.9861  0.2401  0.1323
   78MOL0     O10674   4.110   8.340   3.112 -0.3550 -0.0211 -0.4880
   78MOL0     C10675   4.366   8.301   3.033  0.7300  1.0180  0.6942
   78MOL0     C10676   4.499   8.272   3.010 -0.8804  0.3101 -0.2204
   78MOL0     N10677   5.319   8.333   3.242  0.7679  0.1825 -0.4771
   78MOL0     N10678   5.364   8.451   3.259 -0.0239 -0.4008  0.0387
   78MOL0     C10679   5.731   7.914   2.599  0.6408 -0.3662  0.5379
   78MOL0     C10680   5.791   7.786   2.598  0.6034  0.5393  0.8599
   78MOL0     C10681   6.051   7.454   2.499 -0.4193 -1.0308 -0.1594
   78MOL0     C10682   6.128   7.395   2.597 -0.3563  0.0799 -0.4231
   78MOL0     C10683   6.144   7.256   2.604 -0.1809 -0.3030  0.8709
   78MOL0     C10684   6.081   7.170   2.515 -0.1190 -0.7249  0.5802
   78MOL0     O10685   6.095   7.034   2.514 -0.1481 -0.0987  0.1510
   78MOL0     C10686   6.195   6.976   2.596  0.1211  0.1139  0.2622
   78MOL0     C10687   6.173   6.826   2.585 -0.1846  0.1264  0.8479
   78MOL0     C10688   6.024   6.782   2.609  0.3245  1.0941  0.4906
   78MOL0     C10689   5.976   6.799   2.760 -0.1832 -0.3820 -0.5347
   78MOL0     C10690   6.056   6.716   2.856  0.4850  0.4129 -0.2349
   78MOL0     C10691   6.114   6.658   2.940 -0.1881 -0.9463  0.3324
   78MOL0     C10692   6.001   7.233   2.423  1.0642  0.2098 -0.0223
   78MOL0     C10693   5.976   7.370   2.421 -0.3476  0.4187 -0.1161
   78MOL0     C10694   5.890   7.423   2.302  0.4065 -0.0265 -0.3381
   78MOL0     H10695   6.118   7.878   2.565 -0.4596 -0.5513 -2.9024
   78MOL0     H10696   6.002   8.108   2.559  2.1169 -0.2422  0.0214
   78MOL0     H10697   5.602   8.152   2.719 -3.1774  0.3191 -0.6654
   78MOL0     H10698   5.561   8.160   2.539 -0.2353  0.2377  0.1781
   78MOL0     H10699   5.677   8.377   2.523  1.4114 -0.4926 -0.2518
   78MOL0     H10700   5.526   8.387   2.622  1.6639  1.8744 -1.0443
   78MOL0     H10701   5.679   8.348   2.823  1.2032  0.8360  0.3248
   78MOL0     H10702   5.811   8.398   2.719  0.3783  1.6545 -2.0153
   78MOL0     H10703   5.743   8.620   2.696  1.7448  1.0918  1.6890
   78MOL0     H10704   5.573   8.593   2.740 -1.0109 -0.5368  0.2937
   78MOL0     H10705   5.754   8.719   2.911  0.6028 -0.8284  2.0312
   78MOL0     H10706   5.815   8.566   2.924  0.7278 -0.5791 -1.3953
   78MOL0     H10707   5.584   8.491   3.020  0.2939 -0.3757  0.7884
   78MOL0     H10708   5.660   8.609   3.117 -1.1179  1.9583 -0.0103
   78MOL0     H10709   5.444   8.645   2.909  0.3887  0.0946 -1.0355
   78MOL0     H10710   5.495   8.788   2.996 -2.0160  0.3421 -1.0889
   78MOL0     H10711   5.405   8.697   3.209  0.3211  1.7532 -1.3522
   78MOL0     H10712   5.284   8.702   3.073 -1.3310  1.4466  4.6649
   78MOL0     H10713   5.269   8.465   2.940 -2.1138 -0.5418  0.5177
   78MOL0     H10714   5.186   8.137   3.122 -0.3554 -0.1421 -0.6078
   78MOL0     H10715   5.170   8.211   2.954 -0.0089  1.9151 -0.6456
   78MOL0     H10716   5.001   8.306   3.193 -4.2994 -0.3070 -0.4715
   78MOL0     H10717   4.989   8.354   3.027 -2.7482  1.0392  0.0267
   78MOL0     H10718   4.945   8.109   2.957 -1.3313 -0.6833 -0.6623
   78MOL0     H10719   4.912   8.078   3.123 -2.1674 -0.4497 -0.6446
   78MOL0     H10720   4.736   8.254   3.131 -1.4810 -1.6075  1.1372
   78MOL0     H10721   4.799   8.301   2.975  1.1381  0.0610  0.7714
   78MOL0     H10722   4.491   7.948   2.960 -2.0177 -0.6380  1.4545
   78MOL0     H10723   4.143   8.000   2.881 -1.3341 -1.7354  1.4697
   78MOL0     H10724   4.191   7.900   3.026 -0.4717  1.4625 -0.0486
   78MOL0     H10725   4.284   7.898   2.882  1.8259  3.1714 -1.9919
   78MOL0     H10726   3.827   7.980   2.961  1.8585 -0.5851 -3.4616
   78MOL0     H10727   3.602   8.040   2.909 -1.7063  2.3640  0.5389
   78MOL0     H10728   3.411   8.239   2.698 -0.0529 -0.6365 -1.4507
   78MOL0     H10729   3.414   8.112   2.827 -2.8846  1.0080 -2.3046
   78MOL0     H10730   3.276   8.234   2.983 -0.2282  0.8987 -0.6084
   78MOL0     H10731   3.268   8.368   2.884 -2.4805  0.5250  3.3679
   78MOL0     H10732   3.083   8.173   2.899  1.0488 -3.5751  0.0008
   78MOL0     H10733   3.172   8.104   2.767  0.0762 -1.4752  3.7468
   78MOL0     H10734   3.133   8.337   2.645 -0.1179  0.2054  0.0663
   78MOL0     H10735   3.039   8.373   2.795  3.0623 -1.2136  1.7313
   78MOL0     H10736   2.992   8.153   2.592 -0.4379  0.0623 -0.2410
   78MOL0     H10737   2.898   8.159   2.726 -1.5722  1.2941  0.1403
   78MOL0     H10738   2.821   8.401   2.673  1.8109  2.1067 -1.9435
   78MOL0     H10739   2.761   8.270   2.562  0.2822 -1.1569 -0.8600
   78MOL0     H10740   2.948   8.313   2.409  1.6318  1.0788 -0.1184
   78MOL0     H10741   3.003   8.438   2.496 -1.3980  1.3931 -2.8062
   78MOL0     H10742   2.709   8.476   2.425 -0.2030  1.4390 -1.9265
   78MOL0     H10743   2.838   8.517   2.309 -1.7716  0.4254  0.1226
   78MOL0     H10744   3.675   8.461   2.959 -2.2209 -0.2528 -4.9385
   78MOL0     H10745   3.904   8.418   3.003  1.4260 -1.4545  0.6476
   78MOL0     H10746   4.342   8.404   3.055 -0.0545  0.7964  0.8885
   78MOL0     H10747   4.564   8.355   3.035 -1.5850  1.4380 -1.9153
   78MOL0     H10748   5.624   7.923   2.615  0.3935  0.4822 -1.2839
   78MOL0     H10749   5.728   7.697   2.600  0.5024  0.5263 -1.1067
   78MOL0     H10750   6.182   7.457   2.668  0.8299  2.0620 -2.8822
   78MOL0     H10751   6.201   7.203   2.679 -0.4381 -1.2301  0.4315
   78MOL0     H10752   6.294   6.998   2.555 -0.8976  1.1289 -1.7992
   78MOL0     H10753   6.200   6.995   2.704  1.5984 -3.0227  0.8714
   78MOL0     H10754   6.231   6.779   2.665  1.2085 -1.2531 -0.8700
   78MOL0     H10755   6.210   6.791   2.488  1.1283 -0.8717  1.6765
   78MOL0     H10756   5.956   6.833   2.540  0.4165  0.8987  0.2544
   78MOL0     H10757   6.021   6.677   2.579 -1.1138  1.7665 -1.9935
   78MOL0     H10758   5.868   6.782   2.774 -0.5225  1.8970 -0.0162
   78MOL0     H10759   5.994   6.899   2.800  3.8695 -1.8253  1.8865
   78MOL0     H10760   6.175   6.603   3.009 -1.4087 -1.1358  1.2988
   78MOL0     H10761   5.942   7.168   2.360  0.6189  1.8781 -1.4248
   78MOL0     H10762   5.824   7.501   2.340 -1.3689 -1.1269 -1.0266
   78MOL0     H10763   5.967   7.468   2.238  1.7631 -2.7982 -0.8096
   78MOL0     H10764   5.827   7.352   2.246  2.0166  1.0547 -3.8527
   79MOL0     O10765   5.996   9.232   3.121 -0.8633 -1.1421  0.0703
   79MOL0     C10766   6.015   9.283   3.009  0.0452 -0.7520 -0.0344
   79MOL0     O10767   5.945   9.255   2.905  0.4034  0.4137 -0.7382
   79MOL0     C10768   5.816   9.214   2.934 -1.1046  0.0152  0.4068
   79MOL0     C10769   5.773   9.077   2.913 -0.4070  0.5519 -0.3634
   79MOL0     C10770   5.641   9.047   2.936 -0.2815  0.3660  0.4773
   79MOL0     C10771   5.551   9.137   2.966  1.4750 -0.0528  0.2233
   79MOL0     O10772   5.425   9.072   2.983  0.0270  0.1783 -0.6330
   79MOL0     C10773   5.315   9.147   3.032  0.6692 -0.6556 -0.1283
   79MOL0     C10774   5.203   9.045   3.033  0.7158  0.5270  0.9543
   79MOL0     C10775   5.066   9.111   3.016 -0.0746  0.0546  0.0814
   79MOL0     C10776   4.942   9.043   3.087  0.4183  0.2631 -0.7020
   79MOL0     C10777   4.811   9.111   3.042 -0.8936 -0.3061 -0.7530
   79MOL0     C10778   4.690   9.042   3.103 -0.2585 -0.5153 -0.6909
   79MOL0     C10779   4.564   9.119   3.082  0.6317  0.6526  0.7722
   79MOL0     C10780   4.452   9.024   3.138 -0.3330 -0.6948 -0.5968
   79MOL0     N10781   4.328   9.100   3.149 -0.0912 -0.1618 -0.6411
   79MOL0     C10782   4.322   9.232   3.205  0.0896  0.5194 -0.4750
   79MOL0     C10783   4.184   9.249   3.211  0.0875 -0.5253 -0.2209
   79MOL0     C10784   4.108   9.365   3.274  1.1934 -0.0836  0.0771
   79MOL0     C10785   4.197   9.486   3.316  0.5267  0.7198 -0.4432
   79MOL0     C10786   4.103   9.591   3.396  0.3581  0.3580 -0.6546
   79MOL0     C10787   4.173   9.708   3.454 -0.1741  0.7432  0.8963
   79MOL0     O10788   4.281   9.752   3.358 -0.7626 -0.1259  0.2392
   79MOL0     C10789   4.374   9.844   3.405 -0.4127 -0.0982  0.5282
   79MOL0     C10790   4.434   9.939   3.315  0.0576  0.3033  0.3726
   79MOL0     C10791   4.514  10.042   3.358  0.2217  0.4542 -0.7881
   79MOL0     C10792   4.562  10.137   3.251 -0.2561  0.0155  0.2369
   79MOL0     C10793   4.560  10.050   3.499 -0.6179 -0.0146  0.3852
   79MOL0     C10794   4.658  10.144   3.545 -0.7260 -1.1659 -1.4151
   79MOL0     O10795   4.732  10.122   3.655  1.5498 -0.9594  0.2603
   79MOL0     C10796   4.820  10.223   3.695  0.2327 -0.5177  0.6014
   79MOL0     C10797   4.943  10.243   3.634  0.7533 -0.0152 -0.1288
   79MOL0     C10798   5.021  10.352   3.683  0.8806 -0.9258 -0.1301
   79MOL0     C10799   4.976  10.426   3.797 -0.3433  0.4624 -0.4866
   79MOL0     O10800   5.069  10.502   3.854  0.3472  0.0667  0.0711
   79MOL0     C10801   5.027  10.631   3.906  0.4206 -0.1970 -0.9246
   79MOL0     C10802   5.169  10.703   3.919  0.5744  0.0173  0.2441
   79MOL0     C10803   5.222  10.758   3.787 -0.2747 -0.3886  0.0277
   79MOL0     C10804   5.366  10.819   3.788  0.3312 -0.3651 -0.4070
   79MOL0     C10805   5.401  10.876   3.652 -1.2054  0.4278  0.1358
   79MOL0     C10806   5.551  10.920   3.630  0.4722 -0.6340 -0.3280
   79MOL0     C10807   5.612  10.995   3.746  0.7852 -0.2017 -0.1345
   79MOL0     C10808   5.769  10.982   3.731  0.3833 -0.1852 -0.0663
   79MOL0    Cl10809   5.848  11.041   3.585  0.2585  0.2051  0.2470
   79MOL0     C10810   4.855  10.393   3.857 -0.4844  0.1487 -0.2000
   79MOL0     C10811   4.770  10.305   3.799  0.4727 -0.2947 -0.3753
   79MOL0     O10812   4.663  10.251   3.481 -0.2394  0.3369 -0.4285
   79MOL0     C10813   4.519   9.947   3.581  0.3258 -0.1943 -0.4275
   79MOL0     C10814   4.429   9.842   3.532 -0.2249 -0.3992 -0.5716
   79MOL0     N10815   4.118   9.146   3.150 -0.8032 -0.9853 -0.4502
   79MOL0     N10816   4.202   9.059   3.121 -0.0086  0.3093  0.2712
   79MOL0     C10817   5.586   9.271   2.998  0.5829 -0.6119  0.4419
   79MOL0     C10818   5.717   9.311   2.974  0.0375 -0.3433  0.6340
   79MOL0     C10819   6.126   9.382   2.993 -0.2074  0.6768  0.3875
   79MOL0     C10820   6.085   9.511   2.968  0.0282 -0.4677  0.4571
   79MOL0     C10821   6.168   9.624   2.985 -0.0892  0.1734 -0.1763
   79MOL0     C10822   6.306   9.604   3.015 -0.0360  0.1668 -0.5657
   79MOL0     O10823   6.402   9.704   3.032 -0.0863  0.4843  0.8478
   79MOL0     C10824   6.359   9.829   3.085  0.1760 -0.0633  0.5525
   79MOL0     C10825   6.468   9.931   3.126 -0.1140  0.7479 -0.8389
   79MOL0     C10826   6.569   9.860   3.223  0.9581 -0.4127 -0.0405
   79MOL0     C10827   6.694   9.938   3.248  0.1067 -0.6220 -0.2904
   79MOL0     C10828   6.751   9.898   3.384  0.9827  0.7917  0.7900
   79MOL0     C10829   6.798   9.833   3.482  0.7639 -0.4727  0.0081
   79MOL0     C10830   6.351   9.465   3.028  0.4250 -0.2144 -0.0727
   79MOL0     C10831   6.258   9.359   3.031  0.4152  0.0302 -0.0073
   79MOL0     C10832   6.312   9.220   3.076 -0.0450 -0.2615  0.0656
   79MOL0     H10833   5.842   8.996   2.891 -2.5819 -2.5987  3.2140
   79MOL0     H10834   5.604   8.950   2.902 -0.3343  1.0465 -1.5404
   79MOL0     H10835   5.296   9.228   2.960  0.0140  0.7009  1.5139
   79MOL0     H10836   5.329   9.197   3.128  4.4516  0.0311 -0.9035
   79MOL0     H10837   5.212   8.981   2.945  2.1074  0.9309  0.7668
   79MOL0     H10838   5.209   8.988   3.125  0.5379  0.4488  0.9183
   79MOL0     H10839   5.076   9.212   3.057  1.0238 -0.0047 -0.0082
   79MOL0     H10840   5.035   9.104   2.912 -0.7811  0.2187  0.2748
   79MOL0     H10841   4.945   8.933   3.085 -2.7922 -0.0053  1.6853
   79MOL0     H10842   4.949   9.057   3.195 -0.0359 -2.7465 -0.1711
   79MOL0     H10843   4.806   9.126   2.934  1.1537 -1.0712 -1.0010
   79MOL0     H10844   4.816   9.211   3.084  0.7791 -0.6482 -0.0396
   79MOL0     H10845   4.686   8.935   3.084  1.6399 -0.9399  0.9223
   79MOL0     H10846   4.708   9.046   3.211 -0.1534  0.3508 -0.7339
   79MOL0     H10847   4.541   9.147   2.979  2.1176 -2.5896 -0.6015
   79MOL0     H10848   4.571   9.212   3.140  1.5818  0.2865  1.2667
   79MOL0     H10849   4.452   8.933   3.078  1.0443 -0.9565 -0.2430
   79MOL0     H10850   4.485   9.000   3.239  2.7062  1.3933 -0.9522
   79MOL0     H10851   4.402   9.300   3.233 -0.2440  0.6603  0.1489
   79MOL0     H10852   4.056   9.329   3.363 -0.1411 -1.2064 -1.1057
   79MOL0     H10853   4.038   9.399   3.197  0.0789  1.0405  1.5238
   79MOL0     H10854   4.291   9.453   3.360  0.7140 -1.4791 -2.2985
   79MOL0     H10855   4.223   9.551   3.232 -1.0279  3.7740  1.2608
   79MOL0     H10856   4.011   9.610   3.339 -2.1179 -1.0296  2.5624
   79MOL0     H10857   4.060   9.540   3.483 -0.6834 -2.2102 -2.5688
   79MOL0     H10858   4.107   9.794   3.463 -0.0540  1.1917 -1.6729
   79MOL0     H10859   4.207   9.662   3.547 -0.5101 -0.0183  0.6496
   79MOL0     H10860   4.406   9.939   3.210  1.0747 -2.1080  0.0411
   79MOL0     H10861   4.550  10.245   3.266 -2.0854  0.1569 -1.7068
   79MOL0     H10862   4.517  10.124   3.152  0.8370  1.0575 -0.4382
   79MOL0     H10863   4.665  10.109   3.227 -0.3795 -0.6901  0.5184
   79MOL0     H10864   4.967  10.186   3.545  2.2508  1.0954 -0.4765
   79MOL0     H10865   5.123  10.371   3.648  0.4447 -0.4290 -1.1741
   79MOL0     H10866   4.978  10.697   3.833 -0.9109 -0.5143 -0.3291
   79MOL0     H10867   4.971  10.621   3.999  1.6572 -1.5905 -0.2952
   79MOL0     H10868   5.150  10.789   3.985  1.4944  0.0658  0.4509
   79MOL0     H10869   5.241  10.628   3.954 -2.7096 -3.2391  0.6224
   79MOL0     H10870   5.149  10.835   3.761 -2.3689 -2.9080 -2.2423
   79MOL0     H10871   5.212  10.681   3.710 -3.9374  0.4657 -0.5297
   79MOL0     H10872   5.449  10.758   3.825  0.2256  0.8566  2.1029
   79MOL0     H10873   5.368  10.899   3.863  0.9925  0.5370 -1.3522
   79MOL0     H10874   5.379  10.793   3.584  0.1173  0.4046 -0.3017
   79MOL0     H10875   5.342  10.964   3.627 -1.7009  0.2168  0.5506
   79MOL0     H10876   5.559  10.981   3.540  3.0192 -2.2052 -1.2745
   79MOL0     H10877   5.613  10.832   3.609  1.1030 -1.4882  4.1661
   79MOL0     H10878   5.581  10.950   3.841 -1.5260 -1.0414 -1.2110
   79MOL0     H10879   5.582  11.100   3.744 -2.6670 -1.0304  1.1325
   79MOL0     H10880   5.798  10.877   3.738 -1.5302 -0.6626  1.5106
   79MOL0     H10881   5.812  11.019   3.825 -1.1785 -1.5780  1.2624
   79MOL0     H10882   4.822  10.430   3.954  0.4524  2.3837 -0.6787
   79MOL0     H10883   4.673  10.275   3.837  0.8473 -0.6192  0.3443
   79MOL0     H10884   4.557   9.948   3.683 -4.4027  3.1013  1.6684
   79MOL0     H10885   4.408   9.759   3.599  1.8237 -2.1123 -1.9188
   79MOL0     H10886   5.507   9.321   3.052 -1.1599 -1.2796 -1.3572
   79MOL0     H10887   5.734   9.413   3.008  0.2719 -1.0436  2.7623
   79MOL0     H10888   5.981   9.533   2.942  0.2952 -1.5129 -1.7353
   79MOL0     H10889   6.124   9.723   2.973  1.8966  1.0258 -1.0199
   79MOL0     H10890   6.284   9.867   3.016 -1.9621 -0.2974  2.5939
   79MOL0     H10891   6.312   9.789   3.176  0.6132 -4.3205 -0.8691
   79MOL0     H10892   6.420  10.009   3.186 -2.7535 -2.4001  1.4662
   79MOL0     H10893   6.512   9.972   3.034  1.4933  0.0312 -0.4098
   79MOL0     H10894   6.533   9.834   3.323  2.2469  0.9492  0.8110
   79MOL0     H10895   6.602   9.767   3.177  0.7059 -1.5442  1.9498
   79MOL0     H10896   6.658  10.041   3.251 -0.6032 -0.8911  1.1871
   79MOL0     H10897   6.765   9.928   3.166  0.3664 -0.1870 -0.1195
   79MOL0     H10898   6.834   9.799   3.577  0.1231 -3.2283 -0.6555
   79MOL0     H10899   6.453   9.456   3.063  0.5312 -0.8862 -0.5400
   79MOL0     H10900   6.281   9.137   3.012  0.9829  0.7290 -1.8216
   79MOL0     H10901   6.420   9.231   3.084 -0.4006  3.0879  2.0522
   79MOL0     H10902   6.281   9.191   3.177 -1.7947 -0.5824 -0.5273
   80MOL0     O10903   0.439   2.603   7.043  0.0703 -0.3340 -0.6135
   80MOL0     C10904   0.360   2.583   7.135 -0.2665  0.3161 -0.5904
   80MOL0     O10905   0.379   2.522   7.251 -0.0608  0.2363  0.4377
   80MOL0     C10906   0.503   2.520   7.310  0.0898 -0.0987  0.6805
   80MOL0     C10907   0.629   2.552   7.250  0.4350  0.7050  0.5516
   80MOL0     C10908   0.752   2.517   7.304 -0.3133  0.3180 -0.1422
   80MOL0     C10909   0.751   2.446   7.417 -0.2079 -0.7167 -0.2351
   80MOL0     O10910   0.861   2.387   7.477  0.4395  0.2198 -0.1082
   80MOL0     C10911   0.980   2.384   7.400 -0.6378 -0.0611  0.1193
   80MOL0     C10912   1.084   2.290   7.468  0.0001  0.4003 -0.5414
   80MOL0     C10913   1.130   2.321   7.608 -0.1278 -1.0952  0.5115
   80MOL0     C10914   1.247   2.425   7.612  0.2905  0.4349  0.5560
   80MOL0     C10915   1.298   2.458   7.747  1.3875 -0.6626  1.0632
   80MOL0     C10916   1.427   2.539   7.729 -0.0843 -0.2697  0.4574
   80MOL0     C10917   1.466   2.589   7.862 -0.7038 -0.2857  0.0975
   80MOL0     C10918   1.605   2.651   7.863 -0.5865 -0.1466 -0.0156
   80MOL0     N10919   1.721   2.558   7.850  0.3008 -0.2960 -0.3886
   80MOL0     C10920   1.782   2.490   7.953  0.2897 -0.1885  0.1102
   80MOL0     C10921   1.897   2.449   7.897 -0.1837 -0.7054 -0.0606
   80MOL0     C10922   2.008   2.382   7.978  0.3529  0.9820  0.0359
   80MOL0     C10923   1.954   2.253   8.040 -0.5142  0.3784  0.3441
   80MOL0     C10924   1.998   2.232   8.188 -0.3767  0.7293  0.0645
   80MOL0     C10925   2.144   2.255   8.197 -0.0839  0.4202 -0.6841
   80MOL0     O10926   2.231   2.184   8.108 -0.7866  0.5616 -0.3462
   80MOL0     C10927   2.367   2.185   8.124 -0.4758  0.7041  0.4419
   80MOL0     C10928   2.442   2.121   8.024 -0.3291  0.8195 -0.1305
   80MOL0     C10929   2.580   2.109   8.037 -0.8499  0.4324 -0.4146
   80MOL0     C10930   2.641   2.026   7.935  0.7881  0.5792 -1.7775
   80MOL0     C10931   2.649   2.160   8.153 -0.1885  0.9395 -0.9491
   80MOL0     C10932   2.797   2.147   8.173  0.6850 -0.1225  0.1055
   80MOL0     O10933   2.888   2.098   8.083  0.0610  1.3516  0.3012
   80MOL0     C10934   3.029   2.122   8.101  0.3163  0.6872  0.4410
   80MOL0     C10935   3.111   2.084   7.995  0.3020  0.4879  0.5193
   80MOL0     C10936   3.254   2.094   7.996 -0.7670  0.0594 -0.2280
   80MOL0     C10937   3.318   2.141   8.107  0.2827 -0.5995 -0.3903
   80MOL0     O10938   3.446   2.144   8.111 -0.1048 -0.0602 -0.4808
   80MOL0     C10939   3.505   2.084   8.227  1.2568  0.9729 -0.2816
   80MOL0     C10940   3.658   2.055   8.220 -0.0142  0.4965  0.7597
   80MOL0     C10941   3.739   2.076   8.345 -0.8700  0.2402 -0.0914
   80MOL0     C10942   3.715   1.975   8.462  0.8615 -1.1514  0.0957
   80MOL0     C10943   3.789   2.013   8.587 -0.3097 -0.4218  0.4044
   80MOL0     C10944   3.744   1.936   8.715  0.0588 -0.0450  0.2322
   80MOL0     C10945   3.812   1.991   8.841  0.2305 -0.5603 -0.3410
   80MOL0     C10946   3.774   1.909   8.965  0.1710  0.8168 -0.1410
   80MOL0    Cl10947   3.868   1.753   8.950  0.1712  0.5030 -0.5562
   80MOL0     C10948   3.238   2.177   8.209 -0.3252 -0.1517 -0.9001
   80MOL0     C10949   3.095   2.173   8.212  0.5821 -0.9690 -0.2659
   80MOL0     O10950   2.828   2.181   8.289  0.5293 -0.5162 -0.4552
   80MOL0     C10951   2.570   2.222   8.247  0.5367  0.1869 -0.2417
   80MOL0     C10952   2.437   2.228   8.235  0.5615  0.0396  0.8458
   80MOL0     N10953   1.909   2.493   7.766 -0.3861  0.3344  0.0795
   80MOL0     N10954   1.802   2.557   7.741  0.2294 -0.5646  0.9336
   80MOL0     C10955   0.634   2.420   7.482 -0.6214  0.6844 -0.7995
   80MOL0     C10956   0.513   2.447   7.427  0.4510 -0.1559  0.3813
   80MOL0     C10957   0.222   2.639   7.121 -0.4174  0.1368  0.7391
   80MOL0     C10958   0.151   2.672   7.238 -0.0467  0.4508  0.3844
   80MOL0     C10959   0.012   2.705   7.233 -0.4726  0.0619 -0.7873
   80MOL0     C10960  -0.057   2.719   7.110 -0.3783  0.1179  0.3104
   80MOL0     O10961  -0.182   2.750   7.089  0.2937 -0.0903  0.0590
   80MOL0     C10962  -0.277   2.739   7.193 -0.1030  0.0843  0.9981
   80MOL0     C10963  -0.425   2.730   7.143 -0.6331 -1.1929 -0.8482
   80MOL0     C10964  -0.448   2.608   7.052  0.4604 -0.2215  0.6048
   80MOL0     C10965  -0.600   2.586   7.025 -0.2038  0.3768 -0.1501
   80MOL0     C10966  -0.676   2.693   6.955 -0.3837  1.0388 -0.1536
   80MOL0     C10967  -0.740   2.780   6.896 -0.1093 -0.2666 -0.6885
   80MOL0     C10968   0.024   2.696   6.999 -0.1500 -0.2566 -0.2310
   80MOL0     C10969   0.155   2.642   7.001  0.2291 -0.6358  0.4964
   80MOL0     C10970   0.216   2.599   6.863  0.1634  0.3198  0.9350
   80MOL0     H10971   0.646   2.589   7.149  3.5009 -3.9167 -0.9907
   80MOL0     H10972   0.836   2.553   7.245 -0.8592  1.0246 -0.5083
   80MOL0     H10973   1.020   2.484   7.382 -2.4014  1.5881  4.2368
   80MOL0     H10974   0.957   2.338   7.303  0.1456 -0.4563  0.1047
   80MOL0     H10975   1.030   2.196   7.473  1.0296 -0.1663  4.2629
   80MOL0     H10976   1.176   2.284   7.409  0.6609 -1.1361  0.5742
   80MOL0     H10977   1.040   2.366   7.650 -0.8908 -0.0301 -2.0836
   80MOL0     H10978   1.165   2.235   7.666  0.8373 -1.3741 -0.4442
   80MOL0     H10979   1.331   2.393   7.549  1.3229 -0.6727  2.4036
   80MOL0     H10980   1.207   2.520   7.574 -1.0634 -0.7447 -1.0802
   80MOL0     H10981   1.320   2.368   7.806 -1.4732 -0.8886  1.9788
   80MOL0     H10982   1.230   2.519   7.807  1.0647 -0.0137  0.0714
   80MOL0     H10983   1.512   2.495   7.675  0.3848  2.6706 -1.4073
   80MOL0     H10984   1.407   2.623   7.662  2.0867 -0.4310 -0.4967
   80MOL0     H10985   1.462   2.509   7.937 -0.6386  0.6880  1.1701
   80MOL0     H10986   1.391   2.659   7.899  2.2918  2.5342  1.3333
   80MOL0     H10987   1.604   2.725   7.783  2.3844 -0.7438 -0.7276
   80MOL0     H10988   1.622   2.713   7.952  2.5981 -0.3441 -0.3589
   80MOL0     H10989   1.746   2.475   8.054 -0.3287  3.0139  0.4447
   80MOL0     H10990   2.048   2.453   8.050 -1.0681  2.5962 -0.7007
   80MOL0     H10991   2.091   2.366   7.908 -1.3827  2.7902 -2.6225
   80MOL0     H10992   1.846   2.256   8.051 -0.4961  2.0807  0.2244
   80MOL0     H10993   1.972   2.164   7.978 -0.5509  1.0638 -0.6668
   80MOL0     H10994   1.945   2.291   8.263 -1.5151 -0.8611  0.5811
   80MOL0     H10995   1.989   2.130   8.226  0.6190  1.0420  1.1799
   80MOL0     H10996   2.170   2.361   8.192 -0.6918  0.7396  1.5968
   80MOL0     H10997   2.166   2.217   8.298  2.4524 -0.1633 -1.3720
   80MOL0     H10998   2.388   2.084   7.937  1.0333  1.4497 -1.2833
   80MOL0     H10999   2.577   2.010   7.848 -1.8298 -0.0691  0.1543
   80MOL0     H11000   2.654   1.929   7.985  2.2472  0.3200 -2.5924
   80MOL0     H11001   2.738   2.059   7.897  1.8946  0.2955  0.6085
   80MOL0     H11002   3.060   2.050   7.905 -0.0023  0.5071  0.6837
   80MOL0     H11003   3.315   2.064   7.911  0.3471 -0.1029  0.6055
   80MOL0     H11004   3.483   2.154   8.307 -0.6708  3.1013 -2.5398
   80MOL0     H11005   3.452   1.993   8.257 -1.1231  2.6232  0.8313
   80MOL0     H11006   3.668   1.953   8.183  4.0026  0.2237  2.0590
   80MOL0     H11007   3.707   2.118   8.145  0.0114  1.1222  1.2900
   80MOL0     H11008   3.733   2.178   8.383  1.5584  0.1803  0.6522
   80MOL0     H11009   3.840   2.055   8.307 -1.6785 -1.8588 -1.3065
   80MOL0     H11010   3.730   1.870   8.436  0.8737 -1.1181 -0.0331
   80MOL0     H11011   3.611   1.993   8.492  0.3789  1.4268 -2.6497
   80MOL0     H11012   3.894   1.991   8.565 -0.2369 -0.4474  0.7721
   80MOL0     H11013   3.773   2.120   8.602 -0.8914 -0.4003 -0.3080
   80MOL0     H11014   3.765   1.830   8.700  0.3713  0.1310 -0.6903
   80MOL0     H11015   3.636   1.943   8.725 -0.0656 -2.8901  1.6937
   80MOL0     H11016   3.781   2.095   8.854 -2.7402 -1.7302  4.2368
   80MOL0     H11017   3.920   1.977   8.830  0.4891 -1.7218  2.5617
   80MOL0     H11018   3.667   1.888   8.975  0.3154 -0.7945 -1.4316
   80MOL0     H11019   3.806   1.955   9.059  1.1264 -1.1536  0.5767
   80MOL0     H11020   3.272   2.226   8.300  0.6998  0.0396 -1.3798
   80MOL0     H11021   3.048   2.217   8.299  0.5631  0.0233 -0.7598
   80MOL0     H11022   2.615   2.269   8.334  2.0340  1.1770 -1.4815
   80MOL0     H11023   2.378   2.275   8.313  1.8637  3.1216  0.1516
   80MOL0     H11024   0.630   2.358   7.571 -0.2083  0.6146 -0.8267
   80MOL0     H11025   0.426   2.411   7.480  1.5982 -0.3147  2.2723
   80MOL0     H11026   0.196   2.675   7.336 -0.3863 -1.7348  0.6488
   80MOL0     H11027  -0.042   2.731   7.323 -3.0139 -1.2810 -1.8085
   80MOL0     H11028  -0.256   2.651   7.255 -2.7058 -0.0490  1.8201
   80MOL0     H11029  -0.264   2.826   7.258  0.0921  0.9395 -0.1643
   80MOL0     H11030  -0.448   2.830   7.108  0.6042 -1.1349 -1.5564
   80MOL0     H11031  -0.483   2.725   7.235  0.6199  2.5162  0.3412
   80MOL0     H11032  -0.410   2.617   6.950  2.4551 -0.8094  1.2413
   80MOL0     H11033  -0.408   2.512   7.083  0.7235  0.1453  1.4355
   80MOL0     H11034  -0.651   2.570   7.121  1.4383 -3.6674  0.1989
   80MOL0     H11035  -0.618   2.494   6.970 -1.2724  0.2482  0.3783
   80MOL0     H11036  -0.797   2.846   6.835  0.1970  0.5292 -0.1387
   80MOL0     H11037  -0.018   2.723   6.903  0.5747  3.6232  0.3853
   80MOL0     H11038   0.135   2.603   6.790 -0.3698  0.9730  1.5483
   80MOL0     H11039   0.295   2.670   6.840 -1.3533  1.7439 -0.1488
   80MOL0     H11040   0.253   2.496   6.856  1.7464  0.8876  0.6589
   81MOL0     O11041  11.130  10.608   2.780 -1.2900 -0.1005 -0.2603
   81MOL0     C11042  11.057  10.551   2.701  0.8763  0.0253 -0.2344
   81MOL0     O11043  11.082  10.434   2.628  0.0247 -0.6793 -0.0999
   81MOL0     C11044  11.201  10.365   2.647  0.1546  1.1487  0.5496
   81MOL0     C11045  11.322  10.432   2.614 -0.0069  0.5881  0.2532
   81MOL0     C11046  11.433  10.351   2.582 -0.5543  0.7854 -0.2091
   81MOL0     C11047  11.425  10.212   2.587  0.0534  0.0564 -0.5825
   81MOL0     O11048  11.546  10.147   2.564  0.5311 -0.0642 -0.2870
   81MOL0     C11049  11.570  10.026   2.631 -0.7837  0.1830 -0.1970
   81MOL0     C11050  11.715   9.991   2.623  0.0888 -0.7881 -1.0412
   81MOL0     C11051  11.739   9.943   2.475 -0.2426 -0.5097 -0.2130
   81MOL0     C11052  11.856   9.838   2.458 -0.1310 -0.3662 -0.4007
   81MOL0     C11053  11.902   9.848   2.313 -0.5392 -0.0304 -0.0397
   81MOL0     C11054  12.028   9.761   2.308 -0.2190  0.2135 -0.8795
   81MOL0     C11055  12.054   9.738   2.169 -0.8261 -0.9810 -0.5744
   81MOL0     C11056  12.183   9.651   2.154 -0.0743  0.3168  0.7686
   81MOL0     N11057  12.222   9.614   2.016 -0.5632  0.1767  0.6304
   81MOL0     C11058  12.273   9.710   1.925 -0.1340  0.0098  0.2119
   81MOL0     C11059  12.277   9.655   1.806  0.1661 -0.5354  0.0720
   81MOL0     C11060  12.337   9.717   1.685 -0.0019  0.2452  0.8169
   81MOL0     C11061  12.280   9.673   1.553 -0.6357  0.9434 -0.3275
   81MOL0     C11062  12.336   9.761   1.443  0.6953  0.4754  0.1290
   81MOL0     C11063  12.260   9.720   1.313  0.0225  0.2736 -0.0635
   81MOL0     O11064  12.333   9.614   1.245  0.5560 -0.3401 -0.2980
   81MOL0     C11065  12.318   9.599   1.115 -1.1481 -0.2446 -0.0684
   81MOL0     C11066  12.323   9.708   1.022  0.5885 -0.4264  0.2146
   81MOL0     C11067  12.314   9.688   0.885 -0.0353 -0.2240  0.7454
   81MOL0     C11068  12.330   9.802   0.795 -0.9084 -1.2388 -0.0952
   81MOL0     C11069  12.308   9.554   0.831 -0.1898 -0.8345 -0.5661
   81MOL0     C11070  12.290   9.517   0.685  0.1501  0.1845 -0.0881
   81MOL0     O11071  12.247   9.610   0.598  0.2919  0.7409  0.4075
   81MOL0     C11072  12.247   9.599   0.458  1.2122  0.9290 -0.1002
   81MOL0     C11073  12.185   9.705   0.402 -0.0642 -0.3481  0.0320
   81MOL0     C11074  12.197   9.717   0.260 -0.3885  0.3699  0.3279
   81MOL0     C11075  12.272   9.632   0.177 -0.0412  0.1524  0.7014
   81MOL0     O11076  12.293   9.671   0.048 -0.6733 -0.6633 -0.0710
   81MOL0     C11077  12.360   9.602  -0.049 -1.5735  0.2993 -0.3527
   81MOL0     C11078  12.400   9.698  -0.153 -0.1088  0.1605  0.5950
   81MOL0     C11079  12.277   9.774  -0.206  0.7021  0.4139 -0.6542
   81MOL0     C11080  12.316   9.875  -0.306 -0.3687  0.0921  0.6075
   81MOL0     C11081  12.203   9.963  -0.355  0.1551 -0.6382  1.3261
   81MOL0     C11082  12.144  10.062  -0.259 -0.4370  0.7451  0.3592
   81MOL0     C11083  12.031  10.139  -0.327 -0.6028  0.2656  0.0770
   81MOL0     C11084  11.976  10.255  -0.244  1.0977 -0.4224 -0.5224
   81MOL0    Cl11085  11.832  10.317  -0.330 -0.4115 -0.7006  0.1523
   81MOL0     C11086  12.318   9.514   0.232 -0.4248  0.3978 -0.0731
   81MOL0     C11087  12.296   9.492   0.373  0.0559 -0.0302  0.5769
   81MOL0     O11088  12.322   9.402   0.653  0.2442  0.0794 -0.1402
   81MOL0     C11089  12.310   9.453   0.929 -1.1506 -0.3877  0.2920
   81MOL0     C11090  12.324   9.467   1.063  0.5328 -0.3444  0.1764
   81MOL0     N11091  12.215   9.527   1.815  0.1371  0.7505  0.9084
   81MOL0     N11092  12.188   9.501   1.940 -0.2266  0.6781  0.1289
   81MOL0     C11093  11.307  10.152   2.630 -0.1906  0.6896 -0.4779
   81MOL0     C11094  11.194  10.229   2.660  0.5982 -0.0981 -0.5880
   81MOL0     C11095  10.921  10.609   2.679  0.5255  0.3183 -0.3382
   81MOL0     C11096  10.844  10.563   2.568 -0.1891 -0.0041  0.5321
   81MOL0     C11097  10.729  10.620   2.520 -0.5339  0.4314 -0.7666
   81MOL0     C11098  10.664  10.710   2.612 -0.3542 -0.2640  1.3080
   81MOL0     O11099  10.557  10.786   2.577  0.4705  0.5433  0.3109
   81MOL0     C11100  10.432  10.722   2.601 -0.1133  0.0223  0.1888
   81MOL0     C11101  10.344  10.827   2.668  0.0209  0.5064  0.0919
   81MOL0     C11102  10.271  10.917   2.568  0.7346  0.5444 -0.3209
   81MOL0     C11103  10.197  11.037   2.621 -0.3996 -0.2896  0.1109
   81MOL0     C11104  10.070  10.985   2.675  0.1924  0.3767 -0.5044
   81MOL0     C11105   9.966  10.948   2.738  0.5845  0.0144  1.0267
   81MOL0     C11106  10.726  10.746   2.733  0.0021  0.1848  0.3639
   81MOL0     C11107  10.854  10.695   2.772 -0.8908  0.1429  0.2787
   81MOL0     C11108  10.908  10.752   2.904 -0.0280 -0.2951  0.4661
   81MOL0     H11109  11.334  10.537   2.592  0.2983  0.7734  1.2862
   81MOL0     H11110  11.522  10.403   2.547 -0.7294  3.6407  3.0360
   81MOL0     H11111  11.511   9.949   2.580 -0.2317  0.6054 -1.4933
   81MOL0     H11112  11.543  10.032   2.737 -1.5938  2.3159 -0.4679
   81MOL0     H11113  11.778  10.078   2.642 -0.2628 -0.7392 -0.0545
   81MOL0     H11114  11.729   9.909   2.694  0.4627 -0.1107 -0.3161
   81MOL0     H11115  11.648   9.894   2.441  1.4152 -2.1729 -2.5314
   81MOL0     H11116  11.762  10.031   2.413  2.2473 -1.9244 -1.4562
   81MOL0     H11117  11.930   9.869   2.532 -0.3335  0.6368 -0.5919
   81MOL0     H11118  11.815   9.743   2.492 -0.1976  0.1473  1.0317
   81MOL0     H11119  11.931   9.949   2.285 -2.2933  1.1442  2.0141
   81MOL0     H11120  11.830   9.802   2.245  2.2833 -4.8778 -0.2234
   81MOL0     H11121  12.120   9.813   2.338  0.3280  0.0441 -2.2004
   81MOL0     H11122  12.024   9.668   2.365  0.8265  1.0529  0.6519
   81MOL0     H11123  12.068   9.833   2.115 -1.0456 -1.2714 -1.1541
   81MOL0     H11124  11.976   9.678   2.121  0.5262 -2.3516 -1.1361
   81MOL0     H11125  12.272   9.704   2.191  1.6555 -1.3926 -0.7256
   81MOL0     H11126  12.171   9.561   2.214 -0.7437 -0.2392 -0.1727
   81MOL0     H11127  12.295   9.812   1.956 -2.5893  0.7101 -0.1079
   81MOL0     H11128  12.444   9.695   1.692 -0.2178 -1.2906 -0.2356
   81MOL0     H11129  12.332   9.826   1.695 -0.4604  0.4037 -0.9264
   81MOL0     H11130  12.310   9.568   1.544 -1.4168  0.6829 -0.0043
   81MOL0     H11131  12.171   9.685   1.548 -0.6069  1.4706  0.2282
   81MOL0     H11132  12.310   9.861   1.478  1.1002 -0.0358  2.0265
   81MOL0     H11133  12.446   9.762   1.437  0.7653 -0.4442  0.9293
   81MOL0     H11134  12.158   9.686   1.331  0.7794 -1.5131  1.0770
   81MOL0     H11135  12.264   9.811   1.253 -3.2837 -0.5188 -1.7112
   81MOL0     H11136  12.338   9.811   1.054 -1.8370  0.2672 -0.6496
   81MOL0     H11137  12.356   9.891   0.853  1.6194 -1.9077 -0.0555
   81MOL0     H11138  12.239   9.818   0.738 -3.0650 -2.3580  2.7463
   81MOL0     H11139  12.422   9.792   0.736 -0.6422  4.0562 -1.0100
   81MOL0     H11140  12.143   9.786   0.461  0.4207  0.8515 -1.2111
   81MOL0     H11141  12.148   9.791   0.198  0.6763  0.1557 -0.8002
   81MOL0     H11142  12.459   9.580  -0.010 -0.6051 -0.4268 -2.9891
   81MOL0     H11143  12.309   9.514  -0.089  0.5191 -2.3759  2.4483
   81MOL0     H11144  12.477   9.755  -0.101  0.9148 -2.1017  1.7062
   81MOL0     H11145  12.455   9.650  -0.235  0.6663  0.5713  0.8665
   81MOL0     H11146  12.219   9.818  -0.124  0.4847 -0.4611 -0.3313
   81MOL0     H11147  12.191   9.720  -0.246 -1.3695  0.7912  2.8536
   81MOL0     H11148  12.360   9.818  -0.388 -2.0910 -1.3068  0.5827
   81MOL0     H11149  12.399   9.926  -0.257  0.0384 -1.9769  2.1737
   81MOL0     H11150  12.237  10.017  -0.443 -1.4291  0.8861  1.5924
   81MOL0     H11151  12.117   9.903  -0.387  0.7561 -0.7446 -0.1363
   81MOL0     H11152  12.233  10.122  -0.238  1.0120 -0.1529 -2.7377
   81MOL0     H11153  12.106  10.018  -0.166 -0.0620  0.9482  0.6150
   81MOL0     H11154  11.942  10.080  -0.350 -1.4110  1.7485 -0.7598
   81MOL0     H11155  12.078  10.175  -0.419 -0.9588 -0.5469 -0.4345
   81MOL0     H11156  12.054  10.332  -0.245  1.0711 -0.3797 -2.0189
   81MOL0     H11157  11.959  10.232  -0.139  3.0774 -0.1298 -0.0997
   81MOL0     H11158  12.360   9.426   0.182  1.0451  1.5562 -0.9905
   81MOL0     H11159  12.344   9.405   0.417  0.9481 -0.8310 -1.8091
   81MOL0     H11160  12.310   9.350   0.895 -0.1252 -0.5719  0.8035
   81MOL0     H11161  12.339   9.378   1.124  1.5383 -1.1277 -1.1679
   81MOL0     H11162  11.308  10.046   2.651 -2.3713  0.7089 -0.0644
   81MOL0     H11163  11.104  10.187   2.705  1.4915  1.3247  2.8767
   81MOL0     H11164  10.897  10.491   2.506  2.1363  0.6944  1.6288
   81MOL0     H11165  10.681  10.596   2.425 -0.7835 -1.7628 -0.1372
   81MOL0     H11166  10.391  10.692   2.504 -0.3272  1.1234 -0.0801
   81MOL0     H11167  10.445  10.632   2.661 -0.9281  0.6140  1.2962
   81MOL0     H11168  10.409  10.893   2.726  1.1661 -1.9622  1.7750
   81MOL0     H11169  10.277  10.783   2.742  1.2279  0.8364  1.4363
   81MOL0     H11170  10.343  10.949   2.493  0.8739 -4.2110 -2.5688
   81MOL0     H11171  10.197  10.859   2.513 -1.5264  1.3451  1.6694
   81MOL0     H11172  10.171  11.116   2.551 -0.2722  0.6685  1.1098
   81MOL0     H11173  10.258  11.089   2.696  0.9051  0.7976 -1.6206
   81MOL0     H11174   9.884  10.921   2.801  0.3395  0.7269  1.0266
   81MOL0     H11175  10.659  10.802   2.797 -1.9060 -1.2953 -0.2453
   81MOL0     H11176  10.967  10.671   2.947  0.0486 -1.5230 -1.7755
   81MOL0     H11177  10.965  10.843   2.884  1.2192 -1.3002 -0.8696
   81MOL0     H11178  10.825  10.771   2.972 -0.1197 -2.8047  1.1568
   82MOL0     O11179   8.041  10.801   6.810  0.3992 -0.1207 -0.8625
   82MOL0     C11180   8.098  10.724   6.740  0.5380  0.5004 -0.5551
   82MOL0     O11181   8.229  10.722   6.723  0.8219 -0.0642 -0.5236
   82MOL0     C11182   8.324  10.771   6.814  1.1124 -0.4311  0.4916
   82MOL0     C11183   8.436  10.840   6.763 -0.4492  0.7237  0.4133
   82MOL0     C11184   8.544  10.883   6.851 -0.1595  0.0814  0.0882
   82MOL0     C11185   8.530  10.861   6.986 -0.3272  0.8291 -0.1953
   82MOL0     O11186   8.638  10.893   7.064 -0.4350  0.0769  0.6529
   82MOL0     C11187   8.716  10.812   7.151  0.0226  0.7274 -0.0753
   82MOL0     C11188   8.725  10.664   7.100 -0.2730 -0.0601  0.0310
   82MOL0     C11189   8.783  10.557   7.194  0.3558  0.0046  0.3058
   82MOL0     C11190   8.919  10.599   7.255  0.1056 -0.5353 -0.1414
   82MOL0     C11191   8.972  10.494   7.361 -0.1250 -0.4855 -0.0555
   82MOL0     C11192   8.892  10.509   7.493 -0.6484  0.8488 -0.6270
   82MOL0     C11193   8.986  10.510   7.613 -0.2590 -0.4223 -0.6658
   82MOL0     C11194   8.895  10.503   7.734  0.0794  0.3706  0.1926
   82MOL0     N11195   8.981  10.497   7.859  0.4339  0.1008  0.3173
   82MOL0     C11196   9.098  10.566   7.879 -0.5296 -0.3504 -1.2479
   82MOL0     C11197   9.127  10.551   8.008 -0.0905  0.4166 -0.1689
   82MOL0     C11198   9.233  10.611   8.090  0.7001  0.3710  0.4370
   82MOL0     C11199   9.182  10.744   8.146 -0.3572 -0.1274  0.2338
   82MOL0     C11200   9.269  10.794   8.265 -0.8349  0.4612  0.1591
   82MOL0     C11201   9.210  10.898   8.354 -0.0598  0.8731  0.2532
   82MOL0     O11202   9.168  10.998   8.266 -0.2687 -0.6171 -0.8745
   82MOL0     C11203   9.164  11.130   8.316  0.6182  0.2815  0.3347
   82MOL0     C11204   9.190  11.179   8.443  0.3763  0.1103 -0.4266
   82MOL0     C11205   9.200  11.323   8.469  0.2752 -0.9291  0.5362
   82MOL0     C11206   9.225  11.371   8.610  0.2476  0.5026 -0.1114
   82MOL0     C11207   9.181  11.417   8.360 -0.0281  0.2416  0.4979
   82MOL0     C11208   9.191  11.568   8.382 -0.0633 -0.6201  0.4217
   82MOL0     O11209   9.257  11.616   8.492  0.0764 -0.7414 -0.2222
   82MOL0     C11210   9.286  11.751   8.507  0.1539  0.1189  0.2431
   82MOL0     C11211   9.380  11.813   8.425 -0.9542 -1.3835 -0.0702
   82MOL0     C11212   9.422  11.945   8.447 -0.5619 -0.0680 -0.3800
   82MOL0     C11213   9.374  12.016   8.554  0.2897 -0.5871  0.6843
   82MOL0     O11214   9.403  12.143   8.587 -0.0744  0.2296 -0.3580
   82MOL0     C11215   9.383  12.227   8.471  0.0988 -0.3083 -0.8038
   82MOL0     C11216   9.382  12.372   8.516  0.7818  0.3611 -0.1150
   82MOL0     C11217   9.251  12.404   8.616 -0.8762 -1.2598 -0.0760
   82MOL0     C11218   9.116  12.399   8.550 -0.3293  0.0431  0.1688
   82MOL0     C11219   9.013  12.439   8.661  0.2098 -0.1285 -0.3598
   82MOL0     C11220   8.866  12.439   8.609 -0.4643 -0.0907 -0.7028
   82MOL0     C11221   8.780  12.561   8.651 -0.1294  0.2958 -0.0845
   82MOL0     C11222   8.729  12.544   8.792  0.7699 -0.2505  0.1907
   82MOL0    Cl11223   8.626  12.685   8.835 -0.2359 -0.5118  0.1138
   82MOL0     C11224   9.276  11.955   8.638  0.5257 -0.6503 -0.6057
   82MOL0     C11225   9.232  11.819   8.619 -0.3737  0.7164  0.1592
   82MOL0     O11226   9.147  11.640   8.297  0.1950 -0.1392 -0.0731
   82MOL0     C11227   9.137  11.362   8.244  0.3564  0.5191  0.1835
   82MOL0     C11228   9.136  11.221   8.220 -0.2096 -0.6575  0.5330
   82MOL0     N11229   9.026  10.468   8.062  0.5792 -0.3691  0.1444
   82MOL0     N11230   8.933  10.450   7.976 -0.3875 -0.1808  0.0429
   82MOL0     C11231   8.416  10.796   7.030 -0.0523 -0.5500  0.4740
   82MOL0     C11232   8.312  10.751   6.945  0.0567  0.5892  0.1612
   82MOL0     C11233   8.021  10.620   6.667 -0.6413  0.2290  0.6369
   82MOL0     C11234   8.076  10.572   6.543  0.0850  0.0403  0.4324
   82MOL0     C11235   8.002  10.492   6.457 -0.4954 -0.0865 -0.3347
   82MOL0     C11236   7.871  10.453   6.488  0.2852 -1.0546 -0.0743
   82MOL0     O11237   7.791  10.399   6.391  0.4376 -0.2739 -0.1616
   82MOL0     C11238   7.850  10.293   6.309  0.3874 -0.1594  0.8643
   82MOL0     C11239   7.736  10.245   6.213 -0.3344  0.3123  0.2845
   82MOL0     C11240   7.608  10.192   6.293 -0.5484 -0.9727 -0.8683
   82MOL0     C11241   7.640  10.084   6.393  1.0548  0.8126  0.8660
   82MOL0     C11242   7.678   9.962   6.318  0.1474 -1.0128 -0.6732
   82MOL0     C11243   7.700   9.860   6.277  0.0636  0.2088 -0.6342
   82MOL0     C11244   7.823  10.498   6.609 -0.0894  0.5492 -1.2737
   82MOL0     C11245   7.885  10.584   6.699 -0.3244 -0.4294 -0.6842
   82MOL0     C11246   7.803  10.646   6.810  0.0765 -0.7414  0.6989
   82MOL0     H11247   8.438  10.862   6.657 -2.0040  0.0742  0.2260
   82MOL0     H11248   8.635  10.924   6.810 -0.9672  1.3613 -0.5076
   82MOL0     H11249   8.667  10.802   7.249  0.2088  0.9441  0.0427
   82MOL0     H11250   8.818  10.851   7.154  1.5458 -2.8662  0.0244
   82MOL0     H11251   8.627  10.633   7.063  0.1136 -0.4510 -0.6940
   82MOL0     H11252   8.790  10.671   7.011 -1.3784 -0.4329 -0.8242
   82MOL0     H11253   8.717  10.546   7.282 -0.9590  0.3692 -0.6083
   82MOL0     H11254   8.788  10.456   7.152 -1.9126  0.5520 -1.4546
   82MOL0     H11255   8.997  10.585   7.180  1.7152  0.6193  1.2372
   82MOL0     H11256   8.914  10.699   7.299 -0.6072 -0.3839 -0.5468
   82MOL0     H11257   9.077  10.508   7.387 -0.7903  1.0981  2.0388
   82MOL0     H11258   8.959  10.393   7.321 -1.2393  0.5318 -2.4649
   82MOL0     H11259   8.835  10.602   7.499  0.7745  1.7957 -1.2049
   82MOL0     H11260   8.828  10.421   7.505 -1.6694  1.9091  3.1974
   82MOL0     H11261   9.049  10.599   7.616 -0.1843 -0.4966  1.5574
   82MOL0     H11262   9.057  10.427   7.621  1.3523  0.9333 -0.1830
   82MOL0     H11263   8.829  10.588   7.751 -1.4175 -0.6148 -0.4519
   82MOL0     H11264   8.825  10.419   7.729 -0.4017  0.8372 -2.8615
   82MOL0     H11265   9.167  10.610   7.808  0.5830  1.0344  0.5896
   82MOL0     H11266   9.317  10.626   8.022  0.1732  1.0247 -0.0776
   82MOL0     H11267   9.261  10.543   8.172 -1.9805 -2.7956 -1.0512
   82MOL0     H11268   9.195  10.824   8.072  0.0249  0.5304  0.9950
   82MOL0     H11269   9.077  10.731   8.173  0.6156 -4.1885  2.8412
   82MOL0     H11270   9.288  10.706   8.327  3.1817  0.4937 -0.7455
   82MOL0     H11271   9.369  10.823   8.230 -1.1526 -1.4959 -2.7645
   82MOL0     H11272   9.143  10.842   8.419  2.3861  0.3316  2.4933
   82MOL0     H11273   9.290  10.927   8.423 -0.8381 -3.0202  3.0956
   82MOL0     H11274   9.216  11.114   8.526  2.6154  1.2478 -0.1584
   82MOL0     H11275   9.225  11.291   8.684 -0.3404  0.6937  0.1004
   82MOL0     H11276   9.158  11.448   8.649 -1.3457 -0.4236 -0.9189
   82MOL0     H11277   9.327  11.411   8.612  0.2803  0.4633 -0.7076
   82MOL0     H11278   9.426  11.765   8.339  0.8790  0.3067 -0.1202
   82MOL0     H11279   9.492  12.002   8.386  2.5901  0.9621  3.7870
   82MOL0     H11280   9.443  12.203   8.384 -2.0664 -2.6549 -1.7713
   82MOL0     H11281   9.285  12.203   8.429  1.3878 -1.5028 -3.3135
   82MOL0     H11282   9.478  12.406   8.556  0.3185  2.5886 -0.7445
   82MOL0     H11283   9.367  12.432   8.425  1.6687 -0.1834 -0.6258
   82MOL0     H11284   9.261  12.501   8.665 -0.2005 -1.6404  0.5699
   82MOL0     H11285   9.246  12.328   8.695 -0.8584 -0.2777  0.8981
   82MOL0     H11286   9.091  12.301   8.509  0.8640 -1.1123  2.0816
   82MOL0     H11287   9.115  12.469   8.465 -1.6885  0.5577  0.5975
   82MOL0     H11288   9.017  12.369   8.745 -1.5228  2.4541  2.0842
   82MOL0     H11289   9.035  12.539   8.701 -0.5952 -0.1330  0.1251
   82MOL0     H11290   8.805  12.352   8.632 -1.1954 -0.1056 -2.5376
   82MOL0     H11291   8.883  12.440   8.500  0.7140 -0.1521 -0.5345
   82MOL0     H11292   8.704  12.571   8.573  0.5859  0.0852 -0.8169
   82MOL0     H11293   8.828  12.658   8.642 -3.0418  1.9346  0.6713
   82MOL0     H11294   8.813  12.531   8.862  3.9405 -1.3693 -3.4971
   82MOL0     H11295   8.661  12.459   8.789 -0.5401  0.7252  1.1859
   82MOL0     H11296   9.234  12.007   8.723 -1.2287 -0.3987 -1.5774
   82MOL0     H11297   9.171  11.765   8.690  1.4048  2.9173  3.6335
   82MOL0     H11298   9.126  11.423   8.155 -0.1104 -0.4902 -0.4722
   82MOL0     H11299   9.121  11.171   8.125  0.2323 -2.7977  1.5383
   82MOL0     H11300   8.406  10.778   7.136 -3.1261 -1.9237  0.0680
   82MOL0     H11301   8.218  10.723   6.991 -2.0543  3.6069 -1.9458
   82MOL0     H11302   8.174  10.605   6.511  0.2242 -1.6123 -1.0523
   82MOL0     H11303   8.057  10.463   6.368  1.3970 -2.9688  1.5858
   82MOL0     H11304   7.945  10.321   6.261  0.1559  0.4745  0.7578
   82MOL0     H11305   7.893  10.212   6.368  3.6333  0.9631  0.3049
   82MOL0     H11306   7.770  10.165   6.147  2.5807  0.0917  1.8519
   82MOL0     H11307   7.698  10.326   6.150  0.6578  1.5868  1.2482
   82MOL0     H11308   7.565  10.273   6.354  0.9680  0.8872 -2.1561
   82MOL0     H11309   7.521  10.159   6.236 -0.5862 -0.0704 -1.3560
   82MOL0     H11310   7.548  10.059   6.447  0.6513 -4.1179 -1.5839
   82MOL0     H11311   7.708  10.115   6.473 -3.3219 -0.4361  5.6572
   82MOL0     H11312   7.709   9.766   6.227  1.1313  0.6601 -1.3254
   82MOL0     H11313   7.719  10.474   6.628  0.2754 -1.4534 -1.5928
   82MOL0     H11314   7.851  10.626   6.906  0.9697 -1.5997  0.0958
   82MOL0     H11315   7.803  10.752   6.785  1.6670 -0.4932  1.6069
   82MOL0     H11316   7.705  10.598   6.805  0.3917 -1.9563  3.8965
   83MOL0     O11317   0.057   2.831   7.694  0.2208 -0.3582 -0.4464
   83MOL0     C11318   0.145   2.861   7.610  1.3879 -0.2377  0.7061
   83MOL0     O11319   0.127   2.910   7.481  0.6156 -1.0576 -0.2523
   83MOL0     C11320   0.018   2.977   7.428  0.2197  0.3477 -0.7205
   83MOL0     C11321  -0.109   2.978   7.499  0.7088  1.0157 -0.1662
   83MOL0     C11322  -0.224   3.043   7.445  0.2505  0.2386 -0.0653
   83MOL0     C11323  -0.217   3.101   7.308 -0.0665  0.0932 -0.6184
   83MOL0     O11324  -0.324   3.141   7.226 -1.2241 -0.0193 -0.1493
   83MOL0     C11325  -0.460   3.135   7.264 -0.1168 -0.2972  0.5415
   83MOL0     C11326  -0.542   3.201   7.150  0.4903  0.5537  0.8584
   83MOL0     C11327  -0.703   3.175   7.168  0.8862 -1.2197  1.1212
   83MOL0     C11328  -0.780   3.259   7.059 -0.4347  0.1243  0.5063
   83MOL0     C11329  -0.834   3.391   7.113  1.0329 -0.4571 -0.1030
   83MOL0     C11330  -0.855   3.492   7.000  1.2308 -0.3168 -0.0999
   83MOL0     C11331  -0.895   3.620   7.073 -0.1456  0.9414  0.3557
   83MOL0     C11332  -0.930   3.741   6.969  0.2742  1.6153  0.2573
   83MOL0     N11333  -1.070   3.740   6.927 -0.1181  0.0211  0.2054
   83MOL0     C11334  -1.154   3.647   6.873 -0.8397  0.4083  0.1749
   83MOL0     C11335  -1.266   3.700   6.819 -0.6623  0.3717 -0.5737
   83MOL0     C11336  -1.380   3.638   6.744 -0.3717  0.0656  0.2277
   83MOL0     C11337  -1.384   3.675   6.594 -0.3298  0.2660 -0.7660
   83MOL0     C11338  -1.464   3.814   6.586  0.4406  0.2011  0.5402
   83MOL0     C11339  -1.460   3.870   6.443 -0.0863  0.0873  0.7275
   83MOL0     O11340  -1.502   4.003   6.443 -0.5980  0.5879  0.2520
   83MOL0     C11341  -1.549   4.062   6.333  0.3355 -0.2829 -0.8138
   83MOL0     C11342  -1.550   4.198   6.346  0.3661  0.2259  0.3518
   83MOL0     C11343  -1.584   4.281   6.241 -0.8021 -0.4913 -0.4814
   83MOL0     C11344  -1.560   4.429   6.270  0.2388  0.2395 -0.0289
   83MOL0     C11345  -1.629   4.222   6.118  0.3597  0.0514 -0.0789
   83MOL0     C11346  -1.668   4.304   6.000 -0.1075 -0.6395 -1.3834
   83MOL0     O11347  -1.773   4.260   5.927 -0.6199  0.0837  0.4616
   83MOL0     C11348  -1.849   4.332   5.837 -0.8012  0.0104 -0.1298
   83MOL0     C11349  -1.972   4.277   5.787  0.4683  0.3394 -0.0960
   83MOL0     C11350  -2.039   4.332   5.680  0.2047  1.5720  0.4329
   83MOL0     C11351  -2.008   4.460   5.634 -0.2965 -0.1104  1.1076
   83MOL0     O11352  -2.086   4.519   5.538  0.1821 -0.2924 -0.5483
   83MOL0     C11353  -2.205   4.448   5.492  0.1158  1.2384 -0.6515
   83MOL0     C11354  -2.269   4.517   5.377 -0.2996 -0.5180  0.5217
   83MOL0     C11355  -2.361   4.636   5.425  0.3698  0.6580  0.4456
   83MOL0     C11356  -2.407   4.716   5.307  0.3920 -0.3858 -0.6017
   83MOL0     C11357  -2.288   4.813   5.264  0.0963 -0.0747 -0.3325
   83MOL0     C11358  -2.343   4.891   5.155  0.4027 -0.4520 -0.9253
   83MOL0     C11359  -2.234   4.994   5.126 -0.1996 -0.4801  0.0575
   83MOL0     C11360  -2.290   5.095   5.023  0.7689 -0.3365  0.2847
   83MOL0    Cl11361  -2.396   5.214   5.105  0.0029  0.4862 -0.5398
   83MOL0     C11362  -1.897   4.527   5.694  0.1466  0.4159  0.6388
   83MOL0     C11363  -1.818   4.463   5.790 -0.9111 -0.2174  0.6913
   83MOL0     O11364  -1.611   4.407   5.987 -0.5823  0.6379  0.1631
   83MOL0     C11365  -1.646   4.085   6.114 -0.3222 -1.1018  0.4482
   83MOL0     C11366  -1.610   4.000   6.216  0.5314  0.1593 -0.4136
   83MOL0     N11367  -1.249   3.835   6.844 -0.2415  0.8520  0.1841
   83MOL0     N11368  -1.134   3.859   6.906  0.2922  0.3481  1.2657
   83MOL0     C11369  -0.096   3.100   7.245 -1.4985  0.4927  0.5854
   83MOL0     C11370   0.018   3.035   7.299 -0.4025  0.2279  0.0390
   83MOL0     C11371   0.286   2.843   7.640  0.0787 -0.3101 -0.6782
   83MOL0     C11372   0.372   2.958   7.626 -0.9227  0.6314 -0.1226
   83MOL0     C11373   0.508   2.938   7.658  0.7113 -0.5152  0.0434
   83MOL0     C11374   0.562   2.819   7.705  0.3375 -0.2897  0.7827
   83MOL0     O11375   0.695   2.816   7.732 -0.3244 -1.2419  0.0323
   83MOL0     C11376   0.758   2.690   7.753 -0.6126  0.8261  0.2647
   83MOL0     C11377   0.911   2.684   7.768 -0.4752 -1.3764  0.0310
   83MOL0     C11378   0.958   2.743   7.905 -0.0838  0.2005 -0.2007
   83MOL0     C11379   1.114   2.759   7.920  0.0022 -0.0191 -0.0156
   83MOL0     C11380   1.176   2.812   7.798 -0.0848  0.5927 -0.0173
   83MOL0     C11381   1.229   2.863   7.704  0.6226  0.1826  0.7404
   83MOL0     C11382   0.468   2.712   7.715 -0.6510  0.8685 -0.0065
   83MOL0     C11383   0.332   2.724   7.694 -0.3115 -0.1635  0.8860
   83MOL0     C11384   0.253   2.592   7.700 -0.0523 -0.5421 -0.4835
   83MOL0     H11385  -0.123   2.936   7.598 -1.6963 -0.5878 -1.0966
   83MOL0     H11386  -0.315   3.041   7.505 -1.0624  1.4784 -1.9046
   83MOL0     H11387  -0.490   3.196   7.350 -2.7256  0.1947 -0.6185
   83MOL0     H11388  -0.491   3.033   7.285 -2.4497  0.3024  0.2456
   83MOL0     H11389  -0.512   3.305   7.134  2.1023 -0.1403 -1.0241
   83MOL0     H11390  -0.496   3.146   7.068 -0.2050 -0.8738  1.3862
   83MOL0     H11391  -0.714   3.069   7.144  2.6983 -0.8919 -1.6358
   83MOL0     H11392  -0.721   3.199   7.273 -1.9102 -0.6549  0.6014
   83MOL0     H11393  -0.704   3.279   6.982  2.3648 -2.0132  2.4987
   83MOL0     H11394  -0.864   3.206   7.014 -1.2579  3.3352 -2.2046
   83MOL0     H11395  -0.768   3.432   7.190 -1.6310 -1.7618  3.1489
   83MOL0     H11396  -0.926   3.371   7.169  0.7756  1.5332  0.2398
   83MOL0     H11397  -0.766   3.498   6.937  0.6222 -1.0978 -1.0560
   83MOL0     H11398  -0.934   3.449   6.937  2.9844  0.3456 -2.9007
   83MOL0     H11399  -0.808   3.657   7.128 -0.0173  1.7623 -0.3851
   83MOL0     H11400  -0.974   3.619   7.149 -0.6621 -0.1751 -0.1887
   83MOL0     H11401  -0.914   3.834   7.023 -0.2834  0.9420  1.6295
   83MOL0     H11402  -0.864   3.732   6.882  1.8532 -0.4816  1.5722
   83MOL0     H11403  -1.145   3.539   6.871  0.6307  0.4454  1.9378
   83MOL0     H11404  -1.477   3.660   6.787 -2.7847 -6.0564 -1.0247
   83MOL0     H11405  -1.365   3.529   6.742  0.4507  0.1450  1.4552
   83MOL0     H11406  -1.287   3.680   6.545  0.9594 -2.0427  1.3944
   83MOL0     H11407  -1.437   3.599   6.536 -1.5123 -0.3173  1.0027
   83MOL0     H11408  -1.566   3.803   6.626  0.7501 -0.5485  1.1358
   83MOL0     H11409  -1.426   3.896   6.648 -0.6103  0.7637  0.4650
   83MOL0     H11410  -1.354   3.867   6.416  0.2998  1.8789  1.8587
   83MOL0     H11411  -1.516   3.806   6.375  2.0046 -1.7718  0.6234
   83MOL0     H11412  -1.521   4.241   6.441 -0.5274  1.4076  0.1132
   83MOL0     H11413  -1.465   4.454   6.221 -1.1704  2.0202 -2.0011
   83MOL0     H11414  -1.568   4.457   6.375  1.1141 -0.9961  0.3947
   83MOL0     H11415  -1.634   4.485   6.213  2.7602  1.6032 -2.1969
   83MOL0     H11416  -1.987   4.178   5.828 -0.3984  0.2660 -0.5941
   83MOL0     H11417  -2.126   4.277   5.646  1.3255 -0.9958  1.4169
   83MOL0     H11418  -2.168   4.350   5.458  3.9417  2.7038 -1.2675
   83MOL0     H11419  -2.280   4.440   5.571  0.0887  3.3068 -0.4317
   83MOL0     H11420  -2.195   4.562   5.311 -2.6408  0.0499 -1.9032
   83MOL0     H11421  -2.332   4.446   5.323 -1.2060  0.6077  0.0562
   83MOL0     H11422  -2.292   4.697   5.483  0.2913 -0.0126  1.2633
   83MOL0     H11423  -2.437   4.595   5.492  0.7164 -1.5626 -0.4298
   83MOL0     H11424  -2.501   4.766   5.332 -1.3100 -4.3962  2.1455
   83MOL0     H11425  -2.438   4.650   5.225  1.4335 -0.3418 -1.0470
   83MOL0     H11426  -2.253   4.876   5.347 -0.4546  0.1370 -0.2514
   83MOL0     H11427  -2.202   4.751   5.240  0.6043  0.8023 -0.8265
   83MOL0     H11428  -2.430   4.952   5.183 -0.9275 -2.9245  0.7525
   83MOL0     H11429  -2.365   4.824   5.071 -2.0735 -1.4278  0.3875
   83MOL0     H11430  -2.147   4.950   5.077 -2.0088 -1.9954 -2.0478
   83MOL0     H11431  -2.200   5.050   5.214  0.2193  1.2128 -1.1256
   83MOL0     H11432  -2.338   5.042   4.941  2.0044 -2.5264  0.9140
   83MOL0     H11433  -2.207   5.143   4.971  0.6073  0.6669  0.9162
   83MOL0     H11434  -1.871   4.625   5.656  2.4781 -0.1481  0.6579
   83MOL0     H11435  -1.729   4.521   5.815 -1.1670  1.0239 -1.0556
   83MOL0     H11436  -1.683   4.051   6.018 -0.3412  2.2774 -0.8717
   83MOL0     H11437  -1.597   3.894   6.192 -0.6968 -0.1052  0.0326
   83MOL0     H11438  -0.090   3.145   7.146  1.1981 -2.0377 -0.5468
   83MOL0     H11439   0.111   3.035   7.244 -0.7052  2.8440 -0.5976
   83MOL0     H11440   0.328   3.054   7.601 -1.5892  0.5633  0.7350
   83MOL0     H11441   0.573   3.025   7.650 -1.8789  1.4968 -0.5613
   83MOL0     H11442   0.712   2.647   7.843 -1.1227 -1.2824 -0.9626
   83MOL0     H11443   0.730   2.627   7.669  0.2204 -0.5115  0.9523
   83MOL0     H11444   0.948   2.745   7.685 -0.2415 -0.2970  0.8975
   83MOL0     H11445   0.963   2.588   7.765  1.9903 -0.2638  2.3381
   83MOL0     H11446   0.913   2.840   7.931  1.2603  0.8270 -0.1386
   83MOL0     H11447   0.932   2.671   7.982  0.8825 -2.0707 -1.9042
   83MOL0     H11448   1.155   2.662   7.950 -0.6724  0.0240  1.1120
   83MOL0     H11449   1.131   2.837   7.995  1.4446  0.4876 -0.8265
   83MOL0     H11450   1.265   2.930   7.628 -3.0199 -0.1695 -1.5608
   83MOL0     H11451   0.503   2.610   7.728  1.0522  1.1671 -1.7900
   83MOL0     H11452   0.202   2.591   7.797  3.0710  2.0148  1.3855
   83MOL0     H11453   0.185   2.585   7.615 -2.2940  1.5742  1.0153
   83MOL0     H11454   0.308   2.498   7.689 -1.1227 -1.2179 -0.2297
   84MOL0     O11455   0.047   3.458   3.940  0.2185 -0.4586 -0.3790
   84MOL0     C11456   0.064   3.357   4.002 -0.1026 -0.9176 -0.0177
   84MOL0     O11457   0.061   3.346   4.138 -0.1546 -0.5198  0.1741
   84MOL0     C11458   0.034   3.455   4.212  0.1093 -0.1224 -0.0204
   84MOL0     C11459  -0.052   3.434   4.311 -0.8882  0.2907 -0.4476
   84MOL0     C11460  -0.072   3.524   4.412 -0.5964 -0.2820 -0.4227
   84MOL0     C11461  -0.015   3.657   4.411  0.5214  0.1114 -1.0987
   84MOL0     O11462  -0.039   3.757   4.499  0.0001 -0.0963 -0.0766
   84MOL0     C11463  -0.127   3.732   4.603  0.2545  0.3651 -0.2640
   84MOL0     C11464  -0.240   3.835   4.579 -0.2467  0.5671  0.1135
   84MOL0     C11465  -0.342   3.828   4.698  0.7010  0.0427  0.6151
   84MOL0     C11466  -0.439   3.948   4.712  0.6428  1.0642  0.8871
   84MOL0     C11467  -0.532   3.938   4.832 -0.2532  0.2820 -0.3549
   84MOL0     C11468  -0.603   4.064   4.881  0.3616 -0.3946 -0.3540
   84MOL0     C11469  -0.744   4.031   4.946  0.5378 -0.0162 -0.6908
   84MOL0     C11470  -0.783   4.129   5.063 -0.0150  0.3258  1.5011
   84MOL0     N11471  -0.904   4.083   5.136 -0.3458 -0.1233 -0.7536
   84MOL0     C11472  -0.917   3.964   5.211  0.0822  0.7580 -0.6574
   84MOL0     C11473  -1.040   3.967   5.268 -0.3319 -0.0982 -0.1036
   84MOL0     C11474  -1.097   3.872   5.376 -0.0221 -0.4121  0.2427
   84MOL0     C11475  -1.098   3.939   5.506  0.3882  0.1496 -0.6115
   84MOL0     C11476  -0.965   3.946   5.579 -0.1579  0.1772 -0.1599
   84MOL0     C11477  -0.924   3.819   5.651 -0.1409  0.6209 -0.7214
   84MOL0     O11478  -0.890   3.716   5.563 -0.6278 -0.2910  0.4690
   84MOL0     C11479  -0.792   3.619   5.595 -0.1056  0.1546 -0.5436
   84MOL0     C11480  -0.760   3.526   5.490 -0.9064  0.3130 -0.0241
   84MOL0     C11481  -0.656   3.420   5.508  0.3144 -0.2668  0.3087
   84MOL0     C11482  -0.618   3.347   5.379  0.0352 -0.0056 -0.1396
   84MOL0     C11483  -0.587   3.415   5.625 -0.1429 -0.5822 -0.3523
   84MOL0     C11484  -0.464   3.332   5.649  0.7408 -0.9970  0.3943
   84MOL0     O11485  -0.365   3.384   5.740  0.2563  1.2480  0.1632
   84MOL0     C11486  -0.267   3.300   5.774  1.0078 -0.0315 -0.8643
   84MOL0     C11487  -0.137   3.285   5.708  0.0590 -0.5798  0.1949
   84MOL0     C11488  -0.061   3.187   5.764 -0.8520 -0.4206 -0.2363
   84MOL0     C11489  -0.096   3.091   5.857  0.6829 -0.4683  0.3060
   84MOL0     O11490  -0.007   3.002   5.905 -0.2608 -0.4089  0.3816
   84MOL0     C11491  -0.042   2.861   5.900 -0.3794 -0.4212 -0.0865
   84MOL0     C11492  -0.041   2.811   5.754 -1.0655 -0.0789  0.5319
   84MOL0     C11493  -0.043   2.661   5.750 -0.7939 -0.0785  0.3112
   84MOL0     C11494   0.076   2.588   5.816 -0.1393  0.5177 -0.4330
   84MOL0     C11495   0.080   2.437   5.784  0.1752 -0.2898  0.5335
   84MOL0     C11496   0.135   2.364   5.911  0.2778 -0.8452 -0.3212
   84MOL0     C11497   0.161   2.225   5.878 -0.0273 -0.6078 -0.0128
   84MOL0     C11498   0.198   2.138   6.005  0.3425 -0.1212 -0.2117
   84MOL0    Cl11499   0.309   2.219   6.124 -0.0788 -0.3551 -0.0554
   84MOL0     C11500  -0.223   3.095   5.904  0.0389  0.2375  1.2150
   84MOL0     C11501  -0.301   3.200   5.872  0.5520 -0.1296  0.4950
   84MOL0     O11502  -0.444   3.231   5.584 -0.2999 -0.1431 -0.4198
   84MOL0     C11503  -0.627   3.498   5.734  0.1124 -0.1728 -0.2764
   84MOL0     C11504  -0.721   3.601   5.721 -0.4711  0.4538 -0.6343
   84MOL0     N11505  -1.111   4.079   5.215  0.5356 -0.0399  0.2769
   84MOL0     N11506  -1.030   4.145   5.139 -0.2493 -0.0236 -0.4922
   84MOL0     C11507   0.073   3.683   4.299 -0.3015 -0.0430  0.2557
   84MOL0     C11508   0.106   3.576   4.207  0.1156 -0.1072 -0.6315
   84MOL0     C11509   0.108   3.245   3.922 -0.2417 -0.5781  0.0248
   84MOL0     C11510   0.227   3.187   3.957 -0.6551 -0.2777 -0.5728
   84MOL0     C11511   0.260   3.068   3.903  0.2854 -0.4706 -1.0123
   84MOL0     C11512   0.197   3.017   3.795 -0.1668  0.2884  0.5805
   84MOL0     O11513   0.246   2.902   3.736  0.2680 -0.4563 -0.1346
   84MOL0     C11514   0.361   2.913   3.657 -0.9373  0.2327 -0.9343
   84MOL0     C11515   0.451   2.789   3.703 -0.0772 -0.1982  0.1236
   84MOL0     C11516   0.586   2.796   3.627 -0.9118  0.0556  0.3163
   84MOL0     C11517   0.704   2.717   3.688  0.3196  0.7215  0.4784
   84MOL0     C11518   0.744   2.751   3.824 -0.7391  0.3154 -0.4605
   84MOL0     C11519   0.782   2.774   3.939 -0.5492  0.7649  0.9642
   84MOL0     C11520   0.080   3.073   3.754 -0.8384  0.2675 -1.1792
   84MOL0     C11521   0.030   3.189   3.819  0.0803  0.0177 -0.3902
   84MOL0     C11522  -0.115   3.232   3.800  0.0627  0.9180 -1.1351
   84MOL0     H11523  -0.099   3.337   4.319  0.5403 -0.7870 -3.4010
   84MOL0     H11524  -0.144   3.491   4.486 -0.5806  1.8440  0.6108
   84MOL0     H11525  -0.063   3.750   4.690  1.7671  0.0052 -1.2737
   84MOL0     H11526  -0.165   3.629   4.606  2.3867 -0.7842 -4.5536
   84MOL0     H11527  -0.195   3.933   4.560 -0.6979  0.5265 -1.2755
   84MOL0     H11528  -0.286   3.810   4.483 -1.6156  0.7275  0.6953
   84MOL0     H11529  -0.397   3.734   4.690 -0.7838  0.9125  0.2772
   84MOL0     H11530  -0.293   3.824   4.796  0.9514  0.3800  0.5047
   84MOL0     H11531  -0.377   4.037   4.718  1.5497  0.3786  2.3233
   84MOL0     H11532  -0.504   3.960   4.625  2.1687  1.8652 -0.1839
   84MOL0     H11533  -0.476   3.891   4.913 -1.8775  0.0493  0.6698
   84MOL0     H11534  -0.609   3.867   4.804 -0.5243 -1.2892  3.7243
   84MOL0     H11535  -0.541   4.109   4.959 -0.9951  2.3997 -0.7779
   84MOL0     H11536  -0.615   4.144   4.808  0.4689  0.8234  0.9150
   84MOL0     H11537  -0.733   3.941   5.007 -0.8872  1.1253  1.3489
   84MOL0     H11538  -0.832   4.025   4.880 -0.2772  3.8809 -0.2267
   84MOL0     H11539  -0.693   4.144   5.124  0.8974 -2.0040  0.8234
   84MOL0     H11540  -0.804   4.219   5.004  4.4938 -0.6524 -2.2010
   84MOL0     H11541  -0.841   3.890   5.233  0.8325  1.9210  0.8088
   84MOL0     H11542  -1.056   3.770   5.379 -0.9881 -0.8051  0.5535
   84MOL0     H11543  -1.201   3.853   5.345 -0.7053  1.4883  1.2369
   84MOL0     H11544  -1.145   4.034   5.479 -2.1156 -2.1392 -5.5814
   84MOL0     H11545  -1.163   3.876   5.567 -2.1297  0.7253 -2.5740
   84MOL0     H11546  -0.900   3.979   5.497  0.9719 -1.1394  0.1585
   84MOL0     H11547  -0.972   4.020   5.660  1.6548  0.7998 -0.5215
   84MOL0     H11548  -0.834   3.845   5.709 -0.4560 -0.2023  0.1614
   84MOL0     H11549  -1.001   3.790   5.722  0.9661 -3.1667 -0.8785
   84MOL0     H11550  -0.808   3.551   5.395  0.1275 -0.2206 -0.7047
   84MOL0     H11551  -0.686   3.369   5.296  0.5722  0.8249 -0.3623
   84MOL0     H11552  -0.630   3.238   5.389 -2.0700  0.0916 -1.0735
   84MOL0     H11553  -0.513   3.367   5.358  0.0405  3.5279  2.3793
   84MOL0     H11554  -0.109   3.350   5.626  0.6945 -1.0080  0.0647
   84MOL0     H11555   0.031   3.153   5.716  0.5945 -1.1636  2.8385
   84MOL0     H11556   0.028   2.807   5.964 -0.7415 -0.0677  0.6126
   84MOL0     H11557  -0.143   2.849   5.941 -0.8644 -2.0398 -1.6224
   84MOL0     H11558  -0.130   2.845   5.701 -0.8080 -0.8749 -0.4315
   84MOL0     H11559   0.041   2.854   5.696 -0.3434  2.6228  3.2576
   84MOL0     H11560  -0.052   2.630   5.646 -3.6017 -1.4540  0.8826
   84MOL0     H11561  -0.120   2.603   5.801  0.0358 -1.9376 -0.4401
   84MOL0     H11562   0.077   2.611   5.923  2.5872 -1.7667  0.1532
   84MOL0     H11563   0.169   2.625   5.771  1.0282 -2.9485 -1.1840
   84MOL0     H11564  -0.023   2.406   5.762  0.8146 -2.0395 -0.2201
   84MOL0     H11565   0.145   2.429   5.697  0.4196 -0.6177  0.7446
   84MOL0     H11566   0.057   2.357   5.987 -0.1934 -0.1392 -0.7392
   84MOL0     H11567   0.228   2.408   5.949 -0.3658 -1.0114  1.5108
   84MOL0     H11568   0.237   2.217   5.799 -0.9479  0.5964 -1.0613
   84MOL0     H11569   0.068   2.183   5.838 -1.6237  3.8297 -1.6158
   84MOL0     H11570   0.240   2.040   5.981  0.8461  0.0374  0.0022
   84MOL0     H11571   0.105   2.122   6.059 -0.2951  0.8364 -0.9835
   84MOL0     H11572  -0.262   3.025   5.976  0.4626 -0.8243  0.4400
   84MOL0     H11573  -0.387   3.208   5.938 -0.9616  1.9159 -1.5675
   84MOL0     H11574  -0.576   3.489   5.829  2.0221 -1.8546 -1.3628
   84MOL0     H11575  -0.745   3.656   5.812 -2.5196 -0.3877 -0.5957
   84MOL0     H11576   0.138   3.769   4.309 -0.5037  0.0442  0.8576
   84MOL0     H11577   0.180   3.578   4.128 -0.5270 -1.7206 -1.3071
   84MOL0     H11578   0.295   3.232   4.029 -1.3341  1.1802 -0.8050
   84MOL0     H11579   0.343   3.012   3.946 -0.6869  1.3219  3.9296
   84MOL0     H11580   0.332   2.891   3.554 -1.8851 -0.0748 -0.6138
   84MOL0     H11581   0.413   3.010   3.663  2.6205 -1.5867  0.5210
   84MOL0     H11582   0.390   2.698   3.690  3.7956 -2.7596 -2.1018
   84MOL0     H11583   0.472   2.813   3.808  1.6959  1.1537 -0.5013
   84MOL0     H11584   0.555   2.778   3.524 -0.0052 -0.3168  0.0953
   84MOL0     H11585   0.625   2.898   3.626  4.3894 -1.5902  1.9798
   84MOL0     H11586   0.795   2.721   3.627 -0.8172  1.4459 -1.2421
   84MOL0     H11587   0.674   2.613   3.703  0.7433  0.6041  0.5166
   84MOL0     H11588   0.828   2.792   4.034  1.4762 -1.8032  0.5863
   84MOL0     H11589   0.029   3.015   3.678 -2.0386 -2.7952  1.7104
   84MOL0     H11590  -0.173   3.240   3.892 -0.5441  6.2914 -1.6746
   84MOL0     H11591  -0.110   3.329   3.750 -1.3231  0.8319 -1.4735
   84MOL0     H11592  -0.165   3.158   3.737 -0.6341 -0.5829  1.0586
   85MOL0     O11593   8.331   1.366   6.570 -0.2746  0.3700  0.4901
   85MOL0     C11594   8.413   1.397   6.485  0.6996  0.0140  1.4612
   85MOL0     O11595   8.537   1.418   6.502  0.0152  0.3133 -0.2800
   85MOL0     C11596   8.580   1.419   6.634 -1.5688 -1.0638 -0.4572
   85MOL0     C11597   8.574   1.536   6.700  0.0170 -0.8796  0.1173
   85MOL0     C11598   8.602   1.540   6.845  0.0855 -0.6074  1.0129
   85MOL0     C11599   8.644   1.421   6.906 -0.5031  1.3247  0.1256
   85MOL0     O11600   8.673   1.431   7.040  0.0235 -0.4502 -0.7764
   85MOL0     C11601   8.688   1.312   7.116 -0.2991  0.2804 -0.5253
   85MOL0     C11602   8.762   1.337   7.241 -1.0304  0.0259 -0.4205
   85MOL0     C11603   8.901   1.399   7.204 -0.0761 -0.4814  0.2601
   85MOL0     C11604   8.992   1.373   7.324  0.7323  0.0883  0.3391
   85MOL0     C11605   9.131   1.429   7.303  0.6361 -0.4422  0.7868
   85MOL0     C11606   9.203   1.409   7.435  0.1086  0.4059 -1.4899
   85MOL0     C11607   9.298   1.525   7.464 -0.0171 -0.2640  0.4969
   85MOL0     C11608   9.362   1.517   7.607 -0.1590 -1.0179  0.0104
   85MOL0     N11609   9.478   1.421   7.621  0.1361  0.4074  0.3122
   85MOL0     C11610   9.593   1.428   7.695  0.5097 -0.0575  0.4976
   85MOL0     C11611   9.669   1.324   7.666  0.3099 -0.4606 -0.4745
   85MOL0     C11612   9.807   1.284   7.720  0.1836  0.7884 -0.4641
   85MOL0     C11613   9.782   1.240   7.873 -0.9211 -1.4796 -1.0197
   85MOL0     C11614   9.909   1.199   7.957  0.4389  0.4347 -0.4355
   85MOL0     C11615   9.948   1.058   7.914  0.7926  0.0297  0.0494
   85MOL0     O11616   9.876   0.945   7.976 -0.4840  0.7113  0.1184
   85MOL0     C11617   9.968   0.843   7.993 -0.4618 -0.7263  0.0065
   85MOL0     C11618   9.990   0.754   7.886 -0.2325  0.2426 -0.3899
   85MOL0     C11619  10.082   0.648   7.883 -0.7829  0.4567 -0.4254
   85MOL0     C11620  10.095   0.575   7.744  0.3907  0.4775 -0.8865
   85MOL0     C11621  10.153   0.619   8.012 -0.8392 -0.6939  0.7052
   85MOL0     C11622  10.259   0.517   8.025 -1.2582 -0.0139  0.1332
   85MOL0     O11623  10.319   0.494   8.148 -0.0704  0.1839 -0.3642
   85MOL0     C11624  10.393   0.387   8.164 -0.1509  0.2323 -0.4916
   85MOL0     C11625  10.525   0.376   8.124  0.0018 -0.5309  0.8741
   85MOL0     C11626  10.600   0.253   8.118  0.1684 -0.2379 -0.1219
   85MOL0     C11627  10.546   0.137   8.178 -0.1879 -0.3928  0.6641
   85MOL0     O11628  10.617   0.025   8.180  0.3349 -0.0024 -0.6872
   85MOL0     C11629  10.760   0.038   8.195  0.1150 -0.1372  0.4702
   85MOL0     C11630  10.814  -0.103   8.218 -0.8304 -0.3335  0.1941
   85MOL0     C11631  10.775  -0.162   8.356  0.3071 -0.4139  0.0486
   85MOL0     C11632  10.904  -0.196   8.434  0.2842 -0.5157 -0.6162
   85MOL0     C11633  10.877  -0.255   8.575  0.0070  0.0812  0.0492
   85MOL0     C11634  10.761  -0.363   8.582  0.2128  0.2838 -0.0091
   85MOL0     C11635  10.794  -0.488   8.506 -0.3570 -0.0981  0.0557
   85MOL0     C11636  10.691  -0.599   8.534 -0.3637 -0.6949  0.0786
   85MOL0    Cl11637  10.718  -0.722   8.408 -0.4465  0.0630 -0.0185
   85MOL0     C11638  10.415   0.144   8.227 -0.2172  0.0409 -0.0111
   85MOL0     C11639  10.339   0.267   8.226 -1.0281 -0.4624 -0.2096
   85MOL0     O11640  10.285   0.445   7.929 -0.8839 -0.3258  0.4424
   85MOL0     C11641  10.129   0.712   8.116 -0.3791 -0.4021  0.6984
   85MOL0     C11642  10.033   0.821   8.110  0.0564  0.8474  0.5797
   85MOL0     N11643   9.591   1.263   7.562  0.1986  1.0630 -0.8934
   85MOL0     N11644   9.485   1.311   7.544 -0.2827 -0.2096 -0.0021
   85MOL0     C11645   8.667   1.306   6.831 -0.7274  0.4765 -0.2662
   85MOL0     C11646   8.626   1.303   6.697 -0.4073 -0.3289 -0.1613
   85MOL0     C11647   8.363   1.430   6.340 -1.1318 -0.7709 -0.0168
   85MOL0     C11648   8.455   1.469   6.238 -0.0253 -0.6860 -0.1959
   85MOL0     C11649   8.408   1.495   6.109 -0.8988 -0.3387  0.4821
   85MOL0     C11650   8.274   1.502   6.075 -0.5096  0.7726  0.4557
   85MOL0     O11651   8.213   1.533   5.952  0.0769  0.1311  0.3346
   85MOL0     C11652   8.295   1.564   5.832  0.0603  0.1835  0.3833
   85MOL0     C11653   8.212   1.618   5.720 -0.1142 -0.2863 -1.2204
   85MOL0     C11654   8.125   1.745   5.752 -0.1017 -0.3885 -0.1740
   85MOL0     C11655   8.213   1.853   5.821  0.1000 -0.6597  0.4056
   85MOL0     C11656   8.327   1.893   5.740 -1.0094  0.7063 -0.1736
   85MOL0     C11657   8.425   1.915   5.675 -0.3366  0.3286  0.5353
   85MOL0     C11658   8.183   1.470   6.175 -0.3811  0.8553 -0.5330
   85MOL0     C11659   8.226   1.438   6.303 -0.1968 -0.9879 -0.5264
   85MOL0     C11660   8.116   1.422   6.407  0.5584  0.8444 -1.0480
   85MOL0     H11661   8.520   1.613   6.647 -0.3301 -2.5977 -2.1782
   85MOL0     H11662   8.583   1.624   6.911  1.8666  0.9982 -0.3832
   85MOL0     H11663   8.741   1.227   7.073 -0.4784 -0.5528  0.8452
   85MOL0     H11664   8.585   1.279   7.131  0.8989 -3.1372  1.1801
   85MOL0     H11665   8.705   1.399   7.310  0.0465  1.5387 -0.8516
   85MOL0     H11666   8.787   1.240   7.284 -2.2314 -0.8705 -1.6495
   85MOL0     H11667   8.944   1.348   7.117 -0.8811  1.2516 -1.2251
   85MOL0     H11668   8.890   1.505   7.180 -2.6029 -1.0760 -1.7203
   85MOL0     H11669   8.941   1.420   7.409 -1.0027  1.1916 -1.2418
   85MOL0     H11670   8.989   1.268   7.356 -0.3866 -0.2356 -0.7677
   85MOL0     H11671   9.121   1.536   7.285  1.1747 -0.5147  0.0074
   85MOL0     H11672   9.190   1.372   7.231  2.3582 -0.7339  2.3502
   85MOL0     H11673   9.136   1.392   7.519  1.1351  0.0802 -0.7303
   85MOL0     H11674   9.263   1.318   7.433  0.9758  0.9765 -2.0843
   85MOL0     H11675   9.243   1.620   7.461  0.5199  0.0373 -1.2636
   85MOL0     H11676   9.371   1.533   7.382 -1.1971  2.9169 -0.4183
   85MOL0     H11677   9.405   1.615   7.626 -1.5416 -0.7349  1.9773
   85MOL0     H11678   9.287   1.492   7.682 -1.6237  0.5703 -0.8567
   85MOL0     H11679   9.631   1.503   7.764  0.9451  2.6219 -2.3859
   85MOL0     H11680   9.891   1.352   7.702  1.4334 -0.2456  1.1493
   85MOL0     H11681   9.842   1.192   7.672  2.7817  0.8217  1.1871
   85MOL0     H11682   9.746   1.334   7.917  0.4873 -0.8739 -1.1029
   85MOL0     H11683   9.696   1.172   7.874 -2.0966 -0.1633  1.9577
   85MOL0     H11684   9.989   1.272   7.942  0.4144  0.8003  1.0598
   85MOL0     H11685   9.894   1.198   8.066  0.9371 -0.5117 -0.3668
   85MOL0     H11686   9.945   1.047   7.805 -1.7286  2.3159 -0.2271
   85MOL0     H11687  10.051   1.046   7.948 -0.1153 -1.4195  2.4988
   85MOL0     H11688   9.924   0.777   7.804 -0.8977  0.5493  0.2220
   85MOL0     H11689  10.195   0.593   7.704 -0.0758  2.0700 -1.4149
   85MOL0     H11690  10.022   0.613   7.672 -2.3670 -0.6541  1.0868
   85MOL0     H11691  10.075   0.470   7.766 -0.6589  1.3739  3.4752
   85MOL0     H11692  10.568   0.460   8.069 -2.0416  0.7235  1.0949
   85MOL0     H11693  10.704   0.253   8.090  1.1189 -1.1792  3.0065
   85MOL0     H11694  10.820   0.075   8.112  1.5912 -2.1150  0.5847
   85MOL0     H11695  10.781   0.109   8.275 -0.4368  1.0707 -0.4249
   85MOL0     H11696  10.788  -0.172   8.138  0.1197  1.6383 -1.9112
   85MOL0     H11697  10.923  -0.105   8.216 -0.5484  0.2888  4.6543
   85MOL0     H11698  10.715  -0.251   8.336 -0.0998  0.1004 -1.1238
   85MOL0     H11699  10.711  -0.093   8.412  1.6837 -0.3508  1.6166
   85MOL0     H11700  10.968  -0.108   8.448 -0.9778  0.5660 -1.4040
   85MOL0     H11701  10.950  -0.273   8.371 -1.0410 -0.3286 -1.8669
   85MOL0     H11702  10.971  -0.301   8.607  0.7382 -0.0179 -2.0822
   85MOL0     H11703  10.854  -0.164   8.631 -0.4214 -0.0690  0.1192
   85MOL0     H11704  10.667  -0.321   8.544 -0.5930 -0.8325  0.7021
   85MOL0     H11705  10.754  -0.370   8.691 -0.9269 -2.4959 -0.1782
   85MOL0     H11706  10.890  -0.520   8.549 -2.4597 -2.5983  3.3287
   85MOL0     H11707  10.791  -0.470   8.398  2.1343 -0.6519 -0.1780
   85MOL0     H11708  10.590  -0.558   8.520 -0.1340 -0.1059  0.1286
   85MOL0     H11709  10.720  -0.625   8.636  3.5887  0.7752 -0.5170
   85MOL0     H11710  10.373   0.057   8.276  0.1415  0.3392  0.8336
   85MOL0     H11711  10.238   0.261   8.265  0.1624 -0.5968  3.1466
   85MOL0     H11712  10.185   0.698   8.208 -2.2146 -5.2752  1.3650
   85MOL0     H11713  10.019   0.884   8.197 -1.5850  1.2425  0.0787
   85MOL0     H11714   8.686   1.207   6.872  0.2580 -0.1489 -2.1089
   85MOL0     H11715   8.630   1.208   6.645 -0.8285  0.0271 -0.8550
   85MOL0     H11716   8.562   1.468   6.256 -0.1186 -1.0031  0.3623
   85MOL0     H11717   8.478   1.518   6.029  0.6074  1.1364  2.1514
   85MOL0     H11718   8.367   1.646   5.844  0.6674 -0.0886 -1.1565
   85MOL0     H11719   8.363   1.482   5.808  0.6739  0.8927 -0.3788
   85MOL0     H11720   8.143   1.535   5.697 -0.5204 -0.2197 -0.2739
   85MOL0     H11721   8.271   1.634   5.629  0.2737  1.3819 -0.7123
   85MOL0     H11722   8.094   1.783   5.654  1.3108 -1.3259 -1.0241
   85MOL0     H11723   8.047   1.711   5.821 -0.3052  0.3218 -0.0507
   85MOL0     H11724   8.249   1.822   5.919  1.8271  1.0357  0.3960
   85MOL0     H11725   8.159   1.947   5.835  2.2942  0.6991  0.4132
   85MOL0     H11726   8.510   1.938   5.614 -1.1247 -1.6099 -1.4142
   85MOL0     H11727   8.079   1.486   6.146 -0.5945  0.9793  0.2612
   85MOL0     H11728   8.117   1.492   6.492  4.2338 -1.5762  1.1620
   85MOL0     H11729   8.018   1.407   6.360 -0.3959 -5.1901  1.8603
   85MOL0     H11730   8.123   1.323   6.453 -2.0660 -0.2852 -2.8414
   86MOL0     O11731  10.606  10.456   1.942  1.0696  0.1880 -0.0164
   86MOL0     C11732  10.672  10.445   1.840 -0.5165 -0.0811  0.2164
   86MOL0     O11733  10.774  10.357   1.825 -0.4590  1.1055 -0.4031
   86MOL0     C11734  10.814  10.278   1.935 -0.1085 -0.1208  0.1921
   86MOL0     C11735  10.747  10.157   1.955 -0.0612  0.3208  0.4892
   86MOL0     C11736  10.768  10.088   2.073  0.6088  0.2098  0.5524
   86MOL0     C11737  10.860  10.131   2.169  0.3918 -0.3906 -0.3055
   86MOL0     O11738  10.870  10.055   2.287 -0.0311 -0.0008  0.1546
   86MOL0     C11739  10.975  10.079   2.386 -0.8759 -0.9496 -0.5317
   86MOL0     C11740  11.110  10.020   2.334  0.4025  0.1911  0.2192
   86MOL0     C11741  11.087   9.870   2.318  0.0198 -0.1569  0.7910
   86MOL0     C11742  11.227   9.802   2.302  0.6854  0.0305  0.0788
   86MOL0     C11743  11.212   9.654   2.268 -0.1326 -0.5120  0.5707
   86MOL0     C11744  11.143   9.580   2.383 -0.3530 -0.5216 -0.6687
   86MOL0     C11745  11.137   9.435   2.373  0.7927 -0.5635  0.2553
   86MOL0     C11746  11.068   9.373   2.249 -0.4313  0.7737 -0.2506
   86MOL0     N11747  11.057   9.230   2.247 -0.2702  0.1089  0.0878
   86MOL0     C11748  11.160   9.155   2.194  0.0415  0.2207  1.3094
   86MOL0     C11749  11.141   9.035   2.255 -1.0788  0.4224 -0.7969
   86MOL0     C11750  11.218   8.915   2.208 -0.0060 -0.2590 -0.6074
   86MOL0     C11751  11.146   8.872   2.082  0.6417  0.7763  0.5443
   86MOL0     C11752  11.215   8.752   2.025 -0.1481  0.3874  0.5215
   86MOL0     C11753  11.166   8.701   1.885 -0.1175  0.0896 -0.7443
   86MOL0     O11754  11.227   8.802   1.794  0.0899  0.8456 -0.7267
   86MOL0     C11755  11.254   8.771   1.667  0.9367  0.3140  0.1745
   86MOL0     C11756  11.210   8.662   1.608  0.3533 -0.1929  0.4513
   86MOL0     C11757  11.229   8.634   1.474  1.1159  1.2254 -0.0502
   86MOL0     C11758  11.169   8.507   1.420 -0.3920 -0.0119  0.9124
   86MOL0     C11759  11.318   8.722   1.400  0.7944  0.0425  1.4393
   86MOL0     C11760  11.358   8.698   1.254 -0.0409  0.3604 -0.3439
   86MOL0     O11761  11.460   8.778   1.205  0.3891  0.0464  0.0708
   86MOL0     C11762  11.503   8.749   1.078 -0.5137  0.2794  0.1930
   86MOL0     C11763  11.426   8.780   0.970  0.4433 -0.0633 -0.5231
   86MOL0     C11764  11.468   8.773   0.843 -0.5861  0.2621  0.1617
   86MOL0     C11765  11.597   8.729   0.814  0.7524 -0.1085  0.9574
   86MOL0     O11766  11.643   8.721   0.688  0.4093 -0.5409 -0.0374
   86MOL0     C11767  11.782   8.743   0.663 -0.1576  0.5964  1.3065
   86MOL0     C11768  11.818   8.778   0.514  0.2310  0.9741  1.0327
   86MOL0     C11769  11.970   8.815   0.488 -0.0888 -0.8937  0.0241
   86MOL0     C11770  12.003   8.810   0.335  0.4220  0.3296  0.8421
   86MOL0     C11771  12.147   8.846   0.295 -0.2549  0.0171  0.5248
   86MOL0     C11772  12.181   8.982   0.230 -0.1434 -0.1116 -1.0414
   86MOL0     C11773  12.205   9.097   0.330 -0.4777 -1.0734  0.1203
   86MOL0     C11774  12.341   9.099   0.401  0.6155  0.3392  0.7547
   86MOL0    Cl11775  12.471   9.104   0.283 -0.7295 -0.3158  0.2880
   86MOL0     C11776  11.678   8.692   0.926 -0.0062  1.3675  0.0498
   86MOL0     C11777  11.633   8.708   1.059 -0.2554 -1.0570  0.1453
   86MOL0     O11778  11.315   8.596   1.199 -0.3690  0.1378  0.0412
   86MOL0     C11779  11.358   8.842   1.458  0.0747 -0.2793 -0.6985
   86MOL0     C11780  11.333   8.857   1.597  0.8302 -0.7712  0.9111
   86MOL0     N11781  11.033   9.022   2.333  0.1844 -0.6079  0.0035
   86MOL0     N11782  10.995   9.149   2.344  0.4066 -0.6131  0.3189
   86MOL0     C11783  10.938  10.243   2.139 -0.5049 -0.1099 -0.0573
   86MOL0     C11784  10.921  10.310   2.025  0.4333  0.3190  1.2237
   86MOL0     C11785  10.619  10.520   1.726  0.5155 -0.6422 -0.1090
   86MOL0     C11786  10.488  10.503   1.684  1.1176 -0.1734 -0.0214
   86MOL0     C11787  10.433  10.578   1.583 -0.2069 -0.4030  0.5808
   86MOL0     C11788  10.499  10.689   1.530 -0.2496  0.2212  0.2023
   86MOL0     O11789  10.445  10.772   1.428  0.6468  0.4299 -0.2181
   86MOL0     C11790  10.297  10.774   1.416 -0.0432 -0.6154 -0.5132
   86MOL0     C11791  10.242  10.921   1.423 -0.5012  0.1883 -1.1582
   86MOL0     C11792  10.292  10.999   1.301 -0.5750  0.4862  0.0641
   86MOL0     C11793  10.252  11.144   1.280  0.6977 -0.5600 -0.0639
   86MOL0     C11794  10.103  11.152   1.250  0.3425  0.8126  0.3619
   86MOL0     C11795   9.984  11.151   1.216 -0.0220 -0.9981 -0.1686
   86MOL0     C11796  10.626  10.709   1.566  0.0819 -0.8966  0.0669
   86MOL0     C11797  10.693  10.623   1.665 -0.7115  0.8133 -0.0681
   86MOL0     C11798  10.839  10.662   1.692  0.2697  0.0392  0.4622
   86MOL0     H11799  10.683  10.117   1.877 -0.6816  0.1034  1.1031
   86MOL0     H11800  10.714   9.996   2.091  0.0601  0.4612  0.2240
   86MOL0     H11801  10.955  10.036   2.484 -0.1982 -0.2919 -0.0957
   86MOL0     H11802  10.994  10.186   2.399  1.2818 -1.5388  1.9527
   86MOL0     H11803  11.137  10.052   2.233  2.7664 -1.4715  0.2450
   86MOL0     H11804  11.188  10.064   2.398  2.6332  1.7308 -3.2421
   86MOL0     H11805  11.034   9.827   2.403 -0.6462  1.0155  0.9948
   86MOL0     H11806  11.032   9.862   2.224 -0.7923  3.4535  0.7925
   86MOL0     H11807  11.286   9.854   2.227  0.4972  0.4021  0.1845
   86MOL0     H11808  11.276   9.820   2.398  2.6673 -0.2587 -0.8402
   86MOL0     H11809  11.310   9.613   2.242 -1.5556 -3.3381 -0.8210
   86MOL0     H11810  11.148   9.646   2.180  0.0517  1.1510  0.2668
   86MOL0     H11811  11.195   9.606   2.477 -0.5087 -1.6702 -0.2480
   86MOL0     H11812  11.041   9.618   2.392 -0.1747  0.1051 -1.2411
   86MOL0     H11813  11.081   9.400   2.460 -1.9775  3.3111  0.3166
   86MOL0     H11814  11.244   9.416   2.385  1.0873  0.6064 -0.3208
   86MOL0     H11815  10.970   9.421   2.243 -0.1226  1.3124 -1.3764
   86MOL0     H11816  11.121   9.406   2.159  4.2326 -2.2134  1.0578
   86MOL0     H11817  11.221   9.188   2.111 -0.6646 -0.0493  0.6741
   86MOL0     H11818  11.232   8.842   2.288  1.4029 -0.1024 -0.6711
   86MOL0     H11819  11.315   8.954   2.175 -0.1512  0.6962  0.0639
   86MOL0     H11820  11.046   8.838   2.112  0.5050  0.9805  0.3243
   86MOL0     H11821  11.138   8.959   2.017  1.3041  1.0230  0.7802
   86MOL0     H11822  11.320   8.778   2.011 -0.4445  0.8984 -0.9834
   86MOL0     H11823  11.222   8.672   2.098  2.5405 -0.0367 -0.1015
   86MOL0     H11824  11.205   8.601   1.864  2.0069  0.5617  0.7188
   86MOL0     H11825  11.056   8.708   1.886 -0.3122 -2.1062 -1.5559
   86MOL0     H11826  11.139   8.592   1.650  0.1917 -3.1553 -4.1011
   86MOL0     H11827  11.105   8.520   1.333 -0.4751 -3.8058  0.2585
   86MOL0     H11828  11.106   8.460   1.496  0.2926  0.6385  1.9163
   86MOL0     H11829  11.251   8.437   1.401  3.1525  3.3286  2.3916
   86MOL0     H11830  11.328   8.804   1.010 -0.4708 -2.7362 -0.9430
   86MOL0     H11831  11.406   8.779   0.754 -0.2208 -0.7918 -0.1789
   86MOL0     H11832  11.815   8.825   0.728 -1.0888  2.8127 -0.8823
   86MOL0     H11833  11.836   8.651   0.688 -0.2207  0.2531  0.2242
   86MOL0     H11834  11.796   8.696   0.445  1.9699  1.6945 -0.4700
   86MOL0     H11835  11.757   8.861   0.479 -1.2453 -0.6025 -0.3291
   86MOL0     H11836  12.036   8.757   0.551  0.3163 -1.2220 -0.6918
   86MOL0     H11837  11.985   8.920   0.516  3.3764 -0.8091 -1.6781
   86MOL0     H11838  11.937   8.886   0.291  1.2225  0.6198  0.1218
   86MOL0     H11839  11.976   8.712   0.294 -2.7250  0.5087  2.1789
   86MOL0     H11840  12.213   8.839   0.382  0.1892 -0.3156  0.1653
   86MOL0     H11841  12.182   8.771   0.224  0.0521  0.5611  0.0914
   86MOL0     H11842  12.096   8.993   0.162 -1.0469  0.7784  0.1811
   86MOL0     H11843  12.271   8.980   0.168  0.6660 -0.3883  0.1120
   86MOL0     H11844  12.122   9.099   0.402 -2.2586 -0.9356 -1.8457
   86MOL0     H11845  12.209   9.188   0.269  0.7646  0.2169  2.0067
   86MOL0     H11846  12.352   9.015   0.471 -0.2057  2.2111  3.2769
   86MOL0     H11847  12.348   9.190   0.460  0.3421 -0.2535  1.7177
   86MOL0     H11848  11.777   8.650   0.913 -1.2590 -1.0390 -2.8925
   86MOL0     H11849  11.684   8.697   1.154  4.8366 -2.6867 -2.4289
   86MOL0     H11850  11.421   8.916   1.412  1.1727 -0.0708  1.0551
   86MOL0     H11851  11.376   8.937   1.656  1.9555 -0.3901 -0.3770
   86MOL0     H11852  11.013  10.285   2.205 -0.4987  0.7289 -0.5900
   86MOL0     H11853  10.979  10.401   2.009  1.7166 -1.1373 -4.7842
   86MOL0     H11854  10.421  10.423   1.715 -1.0229  1.1764 -0.8919
   86MOL0     H11855  10.333  10.548   1.554 -0.7393  1.3748  0.4214
   86MOL0     H11856  10.280  10.723   1.320 -0.2046 -0.2386 -0.6840
   86MOL0     H11857  10.235  10.714   1.484 -0.7961  0.1131 -0.5411
   86MOL0     H11858  10.277  10.984   1.505  2.2121 -0.4182 -1.7313
   86MOL0     H11859  10.134  10.917   1.437 -0.1053 -3.5691  3.8645
   86MOL0     H11860  10.401  10.998   1.301 -0.5315  2.4550 -0.5500
   86MOL0     H11861  10.267  10.940   1.213  1.1568 -0.4620  0.1689
   86MOL0     H11862  10.309  11.194   1.201  0.7454  0.8166  0.8132
   86MOL0     H11863  10.267  11.206   1.369 -2.4403  1.3096 -0.6443
   86MOL0     H11864   9.886  11.145   1.172 -3.0974 -1.8361  5.7815
   86MOL0     H11865  10.681  10.789   1.517  0.1449  0.8206  2.7373
   86MOL0     H11866  10.908  10.577   1.692  2.3100  1.6037 -1.2354
   86MOL0     H11867  10.869  10.745   1.627 -0.5785  0.6053  0.7729
   86MOL0     H11868  10.829  10.706   1.792 -1.3131  3.6475 -1.1040
   87MOL0     O11869   7.655   4.959   8.536  0.9291  0.2973  0.0664
   87MOL0     C11870   7.751   4.883   8.517  0.4229 -0.3142 -0.5675
   87MOL0     O11871   7.883   4.929   8.512  0.1051  0.5837  0.5044
   87MOL0     C11872   7.898   5.067   8.495 -0.1284 -0.3209  1.1318
   87MOL0     C11873   7.921   5.151   8.607  0.0287 -0.3693 -0.0007
   87MOL0     C11874   7.965   5.281   8.581 -0.8656 -0.0098 -0.1663
   87MOL0     C11875   7.972   5.330   8.451 -0.0954  0.0123 -0.0261
   87MOL0     O11876   8.030   5.458   8.438 -0.5311 -0.0148  0.2516
   87MOL0     C11877   8.088   5.502   8.320 -0.2689  0.2364  0.3911
   87MOL0     C11878   8.222   5.576   8.348  0.1597  0.3672 -0.7418
   87MOL0     C11879   8.302   5.499   8.454 -0.4577  0.4846 -0.1351
   87MOL0     C11880   8.283   5.547   8.599  0.5628  0.7017  0.3796
   87MOL0     C11881   8.367   5.470   8.697 -0.0186  1.1329 -0.4937
   87MOL0     C11882   8.307   5.338   8.745  0.0120 -0.0345 -0.4306
   87MOL0     C11883   8.381   5.272   8.861 -0.0160  0.6001  0.5884
   87MOL0     C11884   8.350   5.321   8.999 -0.2012  0.7058  0.1741
   87MOL0     N11885   8.351   5.210   9.092  0.3871  0.4292 -0.6075
   87MOL0     C11886   8.446   5.117   9.120 -0.2418  0.8302  0.4255
   87MOL0     C11887   8.420   5.051   9.228  0.4103  0.5708  0.1726
   87MOL0     C11888   8.502   4.939   9.271  0.1025  0.6364  0.2377
   87MOL0     C11889   8.495   4.823   9.170 -0.2429 -0.0511  0.0283
   87MOL0     C11890   8.347   4.781   9.157  0.5592  0.3849  0.2307
   87MOL0     C11891   8.341   4.657   9.072 -0.3749  0.2631  0.3104
   87MOL0     O11892   8.207   4.609   9.051  0.4119  0.3325 -0.3394
   87MOL0     C11893   8.185   4.485   8.994 -1.7309  0.5271 -0.3040
   87MOL0     C11894   8.056   4.460   8.957  0.4499 -0.0500  0.0095
   87MOL0     C11895   8.002   4.346   8.902 -0.9148 -1.0906 -0.6082
   87MOL0     C11896   7.857   4.331   8.871  0.3583 -0.3568  0.4475
   87MOL0     C11897   8.107   4.242   8.887  0.5170 -0.6872  0.2639
   87MOL0     C11898   8.075   4.104   8.831  0.0460  0.3529 -0.4705
   87MOL0     O11899   8.150   4.000   8.885  0.4303  0.3573 -0.6499
   87MOL0     C11900   8.110   3.871   8.884  0.7375 -0.3000  0.6213
   87MOL0     C11901   7.980   3.820   8.889 -0.3094  0.1194  1.0532
   87MOL0     C11902   7.959   3.686   8.870  0.2152 -0.8884  0.8068
   87MOL0     C11903   8.071   3.598   8.855 -0.3055 -0.4806  0.6233
   87MOL0     O11904   8.060   3.464   8.847  0.1853 -0.5660 -0.1070
   87MOL0     C11905   7.926   3.409   8.813  0.1393  0.3990  0.2628
   87MOL0     C11906   7.933   3.261   8.851 -0.4218  0.2939  0.4646
   87MOL0     C11907   7.833   3.165   8.788  0.2322 -0.2099  0.2722
   87MOL0     C11908   7.825   3.047   8.892  0.8215  0.0637 -0.4657
   87MOL0     C11909   7.724   2.941   8.831  0.2241 -0.3690 -0.5752
   87MOL0     C11910   7.689   2.844   8.939 -0.3423 -0.4270  0.7111
   87MOL0     C11911   7.604   2.723   8.913 -0.1439 -0.1318 -0.3591
   87MOL0     C11912   7.669   2.606   8.838  0.6223  0.2449  0.5563
   87MOL0    Cl11913   7.719   2.651   8.668  0.0662 -0.1208  0.3412
   87MOL0     C11914   8.200   3.642   8.859 -0.0318  1.1429  0.3736
   87MOL0     C11915   8.212   3.780   8.869 -0.1208 -0.4834 -0.3212
   87MOL0     O11916   7.982   4.095   8.759  0.3583 -0.3085 -0.4429
   87MOL0     C11917   8.237   4.267   8.919 -0.8555 -0.1297  1.2230
   87MOL0     C11918   8.285   4.383   8.969 -0.4465  0.3327  0.1806
   87MOL0     N11919   8.308   5.101   9.283  0.8228  0.0250  0.3324
   87MOL0     N11920   8.263   5.193   9.198 -0.5574  0.7820 -0.0723
   87MOL0     C11921   7.931   5.249   8.344 -0.5038  1.0041 -0.7708
   87MOL0     C11922   7.903   5.118   8.365  0.0561 -0.3589 -0.3727
   87MOL0     C11923   7.736   4.734   8.513 -0.5023 -0.2564 -0.2078
   87MOL0     C11924   7.682   4.690   8.629  0.1684  0.3698  0.4133
   87MOL0     C11925   7.663   4.553   8.656 -0.2725 -0.0287  0.7182
   87MOL0     C11926   7.710   4.464   8.557 -0.6760  0.1378  0.2124
   87MOL0     O11927   7.701   4.327   8.571 -0.3313  0.2596 -0.3668
   87MOL0     C11928   7.754   4.225   8.476 -0.5017 -0.7297  0.2545
   87MOL0     C11929   7.661   4.210   8.362 -0.0625 -0.1058 -0.2284
   87MOL0     C11930   7.700   4.101   8.254  0.2917 -0.8306 -0.6197
   87MOL0     C11931   7.581   4.066   8.173  0.0500  0.4513 -0.3633
   87MOL0     C11932   7.634   3.974   8.071  0.2745  0.4444  0.5612
   87MOL0     C11933   7.683   3.911   7.985  0.1633  0.9775  0.2945
   87MOL0     C11934   7.769   4.512   8.434  0.1041 -0.1061  0.4359
   87MOL0     C11935   7.778   4.650   8.412  0.4661 -0.1516 -0.1358
   87MOL0     C11936   7.845   4.712   8.301 -0.7077  0.1341 -0.8494
   87MOL0     H11937   7.915   5.128   8.713  0.8322 -0.2275  0.0842
   87MOL0     H11938   7.990   5.338   8.670 -3.8101  1.1101  0.0576
   87MOL0     H11939   8.021   5.561   8.257  0.3268  0.1492 -0.3301
   87MOL0     H11940   8.123   5.418   8.260 -2.0354 -0.8434  0.7837
   87MOL0     H11941   8.291   5.593   8.265  2.6413  3.2626  1.6484
   87MOL0     H11942   8.212   5.675   8.394  0.3406  0.5939 -1.1815
   87MOL0     H11943   8.272   5.394   8.458  0.5940  0.1946  0.6096
   87MOL0     H11944   8.408   5.499   8.427 -0.6493 -0.2791 -0.9194
   87MOL0     H11945   8.330   5.646   8.600  0.2280  0.9102 -1.3168
   87MOL0     H11946   8.178   5.547   8.630 -0.8241 -2.7937 -3.4547
   87MOL0     H11947   8.379   5.534   8.785 -0.4049 -1.2161  1.3508
   87MOL0     H11948   8.468   5.451   8.659  0.2862  0.9308  0.4036
   87MOL0     H11949   8.204   5.361   8.775 -0.2648 -0.8458 -0.7224
   87MOL0     H11950   8.293   5.271   8.659 -1.0435 -1.2363  0.6433
   87MOL0     H11951   8.489   5.270   8.839  0.3026 -1.5689  1.9987
   87MOL0     H11952   8.367   5.164   8.847 -1.3120  0.8183  0.1232
   87MOL0     H11953   8.430   5.390   9.030  1.3901 -1.4073  0.9915
   87MOL0     H11954   8.257   5.378   8.996 -0.4372  0.3131  0.0668
   87MOL0     H11955   8.533   5.083   9.064 -4.3026 -2.5424 -4.9297
   87MOL0     H11956   8.472   4.901   9.370  0.0003  0.9991  0.3495
   87MOL0     H11957   8.608   4.961   9.287 -0.0893  0.8671  1.2719
   87MOL0     H11958   8.532   4.860   9.073  0.5436 -3.9111 -1.3343
   87MOL0     H11959   8.568   4.744   9.192 -0.9968 -1.1840 -1.3361
   87MOL0     H11960   8.301   4.748   9.250 -0.2302  2.8293  0.7928
   87MOL0     H11961   8.287   4.856   9.104 -2.1982 -0.6568  1.7321
   87MOL0     H11962   8.391   4.675   8.976 -0.7883 -0.8345 -0.1388
   87MOL0     H11963   8.393   4.590   9.140 -1.6924 -1.4311 -0.2567
   87MOL0     H11964   7.989   4.545   8.957  2.5941  1.8248 -2.5645
   87MOL0     H11965   7.814   4.245   8.923  1.0473 -0.6217  0.5921
   87MOL0     H11966   7.853   4.341   8.763  5.0755  0.2160  0.1401
   87MOL0     H11967   7.805   4.418   8.914 -1.1780 -0.3513 -1.3037
   87MOL0     H11968   7.900   3.889   8.915  1.2185  2.3809  0.0625
   87MOL0     H11969   7.854   3.658   8.874 -0.6019  1.8617  0.9532
   87MOL0     H11970   7.839   3.450   8.866 -1.1943 -1.7232 -0.1761
   87MOL0     H11971   7.904   3.408   8.706 -0.0487 -0.2164  0.2995
   87MOL0     H11972   8.032   3.222   8.828 -0.1491 -1.2045  3.6503
   87MOL0     H11973   7.925   3.245   8.959 -0.3817 -0.2261  0.3954
   87MOL0     H11974   7.880   3.125   8.698 -0.4081 -0.2169 -0.0652
   87MOL0     H11975   7.735   3.203   8.754  0.1580  0.3695  1.0974
   87MOL0     H11976   7.786   3.085   8.987  1.5809  2.0724 -0.9131
   87MOL0     H11977   7.919   2.990   8.900  0.3286 -0.8346 -0.9065
   87MOL0     H11978   7.634   2.991   8.794  0.0362  0.5920  1.0422
   87MOL0     H11979   7.766   2.893   8.743  1.1706 -0.3092 -0.1701
   87MOL0     H11980   7.638   2.905   9.014  1.4750 -1.1277  2.6144
   87MOL0     H11981   7.781   2.806   8.985  1.8568  0.2130 -2.8103
   87MOL0     H11982   7.512   2.751   8.863  0.0290 -3.5274 -2.9788
   87MOL0     H11983   7.580   2.691   9.015 -1.9627  1.4205 -0.2489
   87MOL0     H11984   7.599   2.524   8.822  1.5287 -0.6214  0.9049
   87MOL0     H11985   7.748   2.564   8.901  0.2854 -1.7891 -0.3010
   87MOL0     H11986   8.276   3.565   8.853 -2.3948 -1.2566 -2.3292
   87MOL0     H11987   8.315   3.808   8.851  0.5579 -0.8157  2.5144
   87MOL0     H11988   8.304   4.186   8.893  1.7812  2.0020  0.9527
   87MOL0     H11989   8.391   4.392   8.990  0.2653 -2.8680 -1.3699
   87MOL0     H11990   7.919   5.288   8.243  0.2825  1.6664 -0.6197
   87MOL0     H11991   7.874   5.054   8.282 -1.4628 -0.8825  0.5079
   87MOL0     H11992   7.652   4.764   8.703 -3.3793  1.3477 -1.8052
   87MOL0     H11993   7.625   4.521   8.752 -1.7521  1.3245  0.6064
   87MOL0     H11994   7.852   4.261   8.445 -0.1748 -1.7463  0.0469
   87MOL0     H11995   7.784   4.132   8.525  2.8488  1.0302  1.8224
   87MOL0     H11996   7.654   4.306   8.310 -2.8520 -0.2082 -0.2004
   87MOL0     H11997   7.560   4.200   8.401 -0.9319  4.7246 -0.5961
   87MOL0     H11998   7.766   4.148   8.181 -0.6108  1.0683 -0.2822
   87MOL0     H11999   7.756   4.018   8.298  0.4540 -1.1725 -1.4638
   87MOL0     H12000   7.545   4.160   8.132  0.6430 -0.2171 -2.5179
   87MOL0     H12001   7.502   4.020   8.235 -0.8101  1.1515 -0.9125
   87MOL0     H12002   7.720   3.835   7.919 -1.3652  1.6948 -1.4682
   87MOL0     H12003   7.800   4.448   8.352  1.2926 -0.6839  1.3039
   87MOL0     H12004   7.870   4.643   8.220  0.3397 -0.1001 -0.3456
   87MOL0     H12005   7.775   4.789   8.267 -1.3877  0.6018  1.4041
   87MOL0     H12006   7.930   4.768   8.341 -1.1196 -0.7491  1.4732
   88MOL0     O12007   1.097   2.125   8.186  0.4817 -0.7741  0.2149
   88MOL0     C12008   1.086   2.176   8.069  0.2237 -1.2798  0.2083
   88MOL0     O12009   1.186   2.246   7.999  0.2553  0.5161 -0.3673
   88MOL0     C12010   1.297   2.259   8.071 -0.0104 -0.2644  0.0170
   88MOL0     C12011   1.323   2.358   8.171  0.4980 -0.6192  0.1457
   88MOL0     C12012   1.453   2.374   8.232  0.0799 -0.1786  0.3647
   88MOL0     C12013   1.538   2.270   8.211 -0.4071  0.9241  0.1010
   88MOL0     O12014   1.662   2.277   8.272 -0.4054  0.3669 -0.4987
   88MOL0     C12015   1.668   2.333   8.404  0.6296 -0.9960 -0.3288
   88MOL0     C12016   1.786   2.278   8.481  0.2736  0.1920 -0.1271
   88MOL0     C12017   1.767   2.302   8.632 -1.1656 -0.0209  0.4713
   88MOL0     C12018   1.901   2.259   8.698 -0.6870 -0.2978 -0.3105
   88MOL0     C12019   1.923   2.320   8.838  0.2093 -0.4251  0.4767
   88MOL0     C12020   2.063   2.293   8.889  0.1236  0.1125  0.1352
   88MOL0     C12021   2.068   2.335   9.037  0.1070  0.0433 -0.2456
   88MOL0     C12022   2.190   2.277   9.107 -0.0024 -0.3742  0.2886
   88MOL0     N12023   2.174   2.302   9.255 -0.5706  0.3948  0.4802
   88MOL0     C12024   2.263   2.241   9.346 -0.6635 -0.2750  0.1302
   88MOL0     C12025   2.247   2.309   9.464  0.9605  0.4685  0.7728
   88MOL0     C12026   2.301   2.278   9.598  0.2816  0.4110 -0.1535
   88MOL0     C12027   2.450   2.319   9.627  0.0855  0.7960  0.7709
   88MOL0     C12028   2.556   2.311   9.518 -0.2012 -0.0161  1.1716
   88MOL0     C12029   2.703   2.337   9.567 -0.1929 -0.0384  0.5859
   88MOL0     O12030   2.786   2.337   9.448 -0.6616 -0.3147  0.5554
   88MOL0     C12031   2.925   2.315   9.475  0.7055  0.3226  0.2154
   88MOL0     C12032   2.992   2.312   9.355  0.8016  0.5955  0.2835
   88MOL0     C12033   3.132   2.270   9.351  0.4827 -0.5782  0.2296
   88MOL0     C12034   3.200   2.253   9.222 -0.5667 -0.8368 -0.4686
   88MOL0     C12035   3.199   2.260   9.477 -0.1322 -0.2028  1.2909
   88MOL0     C12036   3.343   2.218   9.478  0.1082  0.4546 -0.3001
   88MOL0     O12037   3.402   2.145   9.381 -0.1679 -0.2852  0.6649
   88MOL0     C12038   3.534   2.180   9.350  0.2512  0.1388  0.0119
   88MOL0     C12039   3.627   2.077   9.379  0.7197  0.1903 -0.2003
   88MOL0     C12040   3.758   2.091   9.336  1.1370  0.5106  0.2826
   88MOL0     C12041   3.802   2.202   9.262  0.3542 -0.5319 -0.7739
   88MOL0     O12042   3.931   2.238   9.215  0.5648 -0.1148 -0.3315
   88MOL0     C12043   4.035   2.147   9.256 -0.5626 -0.5392 -0.1679
   88MOL0     C12044   4.169   2.178   9.186  0.2818 -0.1327  0.0293
   88MOL0     C12045   4.153   2.194   9.033 -0.2222 -0.0198 -0.0777
   88MOL0     C12046   4.301   2.201   8.979  0.4502  0.4028  0.7540
   88MOL0     C12047   4.318   2.250   8.832 -0.1436 -0.7477 -0.2009
   88MOL0     C12048   4.454   2.224   8.779 -0.2196 -0.4580 -1.1913
   88MOL0     C12049   4.482   2.249   8.626 -0.3498 -0.4500 -0.1218
   88MOL0     C12050   4.610   2.193   8.587 -0.1822 -0.3402  0.3475
   88MOL0    Cl12051   4.740   2.286   8.647 -0.1124  0.0319 -0.1484
   88MOL0     C12052   3.711   2.301   9.245 -0.4514 -1.0811 -0.4431
   88MOL0     C12053   3.578   2.290   9.277  0.1906 -0.3009  0.4441
   88MOL0     O12054   3.410   2.248   9.577 -0.1663  0.0644 -0.3922
   88MOL0     C12055   3.133   2.279   9.594  0.8216 -0.5509 -0.4466
   88MOL0     C12056   2.997   2.293   9.598  0.1438 -0.9928 -0.4784
   88MOL0     N12057   2.152   2.403   9.440  0.1413  0.0308  0.2605
   88MOL0     N12058   2.113   2.403   9.316 -0.4597 -0.6493  0.3271
   88MOL0     C12059   1.522   2.175   8.108  0.2816 -0.3789 -0.1042
   88MOL0     C12060   1.398   2.168   8.043  0.3865 -0.0735 -0.4285
   88MOL0     C12061   0.964   2.152   7.995 -0.7693 -0.1359 -0.4169
   88MOL0     C12062   0.925   2.249   7.898 -0.0319 -0.4502 -0.1160
   88MOL0     C12063   0.808   2.236   7.816  0.8307  1.5392  0.3387
   88MOL0     C12064   0.729   2.112   7.821 -0.0077 -0.0404 -0.4460
   88MOL0     O12065   0.617   2.107   7.738 -0.7568  0.0380  0.5431
   88MOL0     C12066   0.555   1.981   7.746  1.1097 -0.4069  0.0915
   88MOL0     C12067   0.464   1.969   7.622  0.6355 -0.1625 -0.1435
   88MOL0     C12068   0.376   2.094   7.601  1.2788 -0.4283 -0.4191
   88MOL0     C12069   0.309   2.081   7.465 -0.2017  0.3864  0.0518
   88MOL0     C12070   0.228   2.196   7.455 -0.7746 -0.9284  0.1385
   88MOL0     C12071   0.168   2.302   7.445  0.2426 -0.0917 -0.3233
   88MOL0     C12072   0.781   2.014   7.900  0.2238  0.7182 -0.6132
   88MOL0     C12073   0.894   2.026   7.985 -0.6759 -1.0201  0.3344
   88MOL0     C12074   0.950   1.904   8.065  0.1498  0.5434 -0.8570
   88MOL0     H12075   1.244   2.432   8.178  0.2470 -1.0047  1.5441
   88MOL0     H12076   1.490   2.460   8.288  1.5074  1.5760 -2.9937
   88MOL0     H12077   1.584   2.310   8.469  0.2159 -1.6412 -1.0699
   88MOL0     H12078   1.672   2.441   8.394  0.5490 -0.8988  0.6365
   88MOL0     H12079   1.803   2.170   8.478 -0.1314  0.1505 -1.5334
   88MOL0     H12080   1.866   2.339   8.439  0.6891 -0.6165 -0.5426
   88MOL0     H12081   1.742   2.406   8.654 -0.5560  0.7641 -2.1985
   88MOL0     H12082   1.685   2.244   8.677 -0.3231  0.2681  2.4671
   88MOL0     H12083   1.911   2.150   8.705  0.6445 -0.1369  0.6655
   88MOL0     H12084   1.982   2.297   8.634 -0.2258  1.5118  1.2727
   88MOL0     H12085   1.845   2.282   8.905 -1.6979 -0.2790 -1.5493
   88MOL0     H12086   1.913   2.429   8.836  0.1800 -0.3940  1.5881
   88MOL0     H12087   2.082   2.187   8.872 -1.6339  0.1123 -2.4546
   88MOL0     H12088   2.128   2.350   8.822  1.3755  1.6035  2.4933
   88MOL0     H12089   1.977   2.305   9.090  0.9151  1.1914  1.8977
   88MOL0     H12090   2.069   2.445   9.041  0.6750  0.0622  3.9295
   88MOL0     H12091   2.207   2.171   9.085  0.3430  0.3524 -3.9895
   88MOL0     H12092   2.270   2.337   9.062  0.0742 -0.4706  0.2961
   88MOL0     H12093   2.348   2.175   9.332 -1.6720 -1.7580  0.8232
   88MOL0     H12094   2.282   2.172   9.618 -1.3469  0.6832 -0.0540
   88MOL0     H12095   2.236   2.328   9.671  1.9825 -0.1984  1.8531
   88MOL0     H12096   2.458   2.423   9.662  0.7417  0.6244  1.1611
   88MOL0     H12097   2.490   2.263   9.712  2.0452 -0.1597 -0.6955
   88MOL0     H12098   2.556   2.207   9.483  2.4355 -0.2266  1.6436
   88MOL0     H12099   2.529   2.373   9.432 -1.4832 -1.2399  0.6352
   88MOL0     H12100   2.722   2.426   9.628  2.2585 -0.7674  0.9979
   88MOL0     H12101   2.712   2.253   9.637 -1.1360 -0.3696  0.3109
   88MOL0     H12102   2.937   2.310   9.261  2.1324 -2.6724 -0.5553
   88MOL0     H12103   3.234   2.149   9.211  2.2507  0.0234 -0.6425
   88MOL0     H12104   3.286   2.319   9.221 -0.0305 -1.5186 -0.5312
   88MOL0     H12105   3.133   2.284   9.142 -1.2432  1.4132  0.8845
   88MOL0     H12106   3.596   1.993   9.440  0.6657  0.8911  0.7585
   88MOL0     H12107   3.825   2.011   9.363  1.5380 -0.4873 -3.1851
   88MOL0     H12108   4.039   2.151   9.366 -1.2963  0.8780 -0.1688
   88MOL0     H12109   4.017   2.049   9.211 -1.1630  0.1028 -1.3514
   88MOL0     H12110   4.217   2.268   9.225 -1.0388  0.8261 -0.4925
   88MOL0     H12111   4.240   2.096   9.201  0.4531 -0.4030 -2.0037
   88MOL0     H12112   4.100   2.285   9.004 -0.8089  0.5542  2.5477
   88MOL0     H12113   4.099   2.111   8.987  3.7678 -1.4543 -2.7325
   88MOL0     H12114   4.352   2.104   8.977 -0.9483 -0.5292 -4.4392
   88MOL0     H12115   4.349   2.277   9.041 -1.4303  0.6809  1.9684
   88MOL0     H12116   4.244   2.195   8.774  0.8681 -1.6585 -0.6745
   88MOL0     H12117   4.294   2.356   8.824  3.2378  0.0134 -2.3595
   88MOL0     H12118   4.493   2.127   8.810  2.7318  0.9800 -0.0389
   88MOL0     H12119   4.509   2.300   8.836 -2.1294  0.1155 -0.0057
   88MOL0     H12120   4.474   2.355   8.602 -1.8752 -0.5117  0.0266
   88MOL0     H12121   4.400   2.203   8.570  0.1367  1.5548 -2.6475
   88MOL0     H12122   4.612   2.175   8.479 -2.0276 -2.9446  0.6401
   88MOL0     H12123   4.616   2.100   8.645  0.1667  1.1451  2.8058
   88MOL0     H12124   3.742   2.394   9.199 -4.1914  1.0621  0.9160
   88MOL0     H12125   3.510   2.362   9.235 -0.4538 -1.3803 -0.4137
   88MOL0     H12126   3.188   2.263   9.687  2.6857  0.4220 -1.3316
   88MOL0     H12127   2.952   2.290   9.697  0.9712  0.5256 -0.0218
   88MOL0     H12128   1.592   2.095   8.087 -0.5574 -0.5531 -2.6654
   88MOL0     H12129   1.369   2.086   7.978  0.9005 -0.9038  0.3688
   88MOL0     H12130   0.981   2.341   7.884  0.3578 -0.2917  2.0769
   88MOL0     H12131   0.769   2.306   7.741 -1.6813 -0.5450 -0.4529
   88MOL0     H12132   0.626   1.902   7.722  1.2810  0.0278 -0.8508
   88MOL0     H12133   0.495   1.971   7.838 -0.4726  0.0103 -0.8571
   88MOL0     H12134   0.390   1.888   7.632 -1.4571  1.5640 -0.8583
   88MOL0     H12135   0.521   1.955   7.530 -2.5209  1.7366 -2.6146
   88MOL0     H12136   0.307   2.109   7.685 -0.0508  0.0910 -1.5660
   88MOL0     H12137   0.448   2.177   7.591  1.6833 -0.6973  0.2097
   88MOL0     H12138   0.242   1.996   7.449 -0.8612  1.2070 -1.8566
   88MOL0     H12139   0.385   2.081   7.386 -1.1153  0.3908 -0.8426
   88MOL0     H12140   0.112   2.394   7.436  0.2500  0.6050  4.1839
   88MOL0     H12141   0.747   1.911   7.903  1.5270  0.2424 -1.3185
   88MOL0     H12142   0.903   1.893   8.163 -3.9002  2.6451 -2.3247
   88MOL0     H12143   0.939   1.814   8.003  0.8521  1.2853 -2.1156
   88MOL0     H12144   1.056   1.925   8.079  0.1474 -0.3960  0.6871
   89MOL0     O12145   8.434   5.862   9.959 -0.3430 -0.6276 -0.0954
   89MOL0     C12146   8.463   5.804  10.065 -0.2511  0.1831  0.2365
   89MOL0     O12147   8.460   5.859  10.194  0.3164  0.6168  0.2649
   89MOL0     C12148   8.436   5.998  10.207 -0.0548  0.5824 -0.2725
   89MOL0     C12149   8.524   6.083  10.277  0.5488  0.4443  1.2874
   89MOL0     C12150   8.489   6.222  10.311  0.2498  0.1982  0.5207
   89MOL0     C12151   8.368   6.277  10.276 -0.6161  0.0038  1.0878
   89MOL0     O12152   8.340   6.406  10.298  0.2545 -0.2420  0.5660
   89MOL0     C12153   8.206   6.456  10.259  0.7620  0.5165  0.2236
   89MOL0     C12154   8.187   6.607  10.292 -0.0105  0.2866 -1.2318
   89MOL0     C12155   8.248   6.654  10.419 -0.0289  0.1201 -1.1023
   89MOL0     C12156   8.203   6.798  10.449  0.3068 -0.5566  0.1116
   89MOL0     C12157   8.292   6.861  10.561 -0.1895 -0.8650  0.1057
   89MOL0     C12158   8.255   7.008  10.580  0.1627  0.6723  0.7510
   89MOL0     C12159   8.316   7.071  10.709 -0.0768 -0.3294  0.0094
   89MOL0     C12160   8.469   7.051  10.718 -0.2147  0.1888  0.2153
   89MOL0     N12161   8.522   7.136  10.824  0.1481 -0.2090 -0.3105
   89MOL0     C12162   8.490   7.117  10.953  0.0246  0.3697 -0.1597
   89MOL0     C12163   8.568   7.203  11.018 -0.4626 -0.3181  0.3193
   89MOL0     C12164   8.576   7.213  11.163  0.4389 -0.7264 -0.1226
   89MOL0     C12165   8.709   7.156  11.203  0.3057  0.2729 -0.4330
   89MOL0     C12166   8.747   7.201  11.358  0.7423  0.2284  0.3724
   89MOL0     C12167   8.786   7.350  11.363  0.3652  0.1266 -0.4974
   89MOL0     O12168   8.867   7.379  11.252 -0.7869 -0.0249  0.2777
   89MOL0     C12169   8.846   7.501  11.196 -0.8587 -0.0242 -0.7174
   89MOL0     C12170   8.819   7.617  11.268 -0.7259  0.4136 -0.2923
   89MOL0     C12171   8.820   7.743  11.207 -0.3558 -0.0204  0.4030
   89MOL0     C12172   8.801   7.865  11.289 -0.7703  1.0025 -0.8507
   89MOL0     C12173   8.835   7.748  11.065  0.3111  0.7418  0.0191
   89MOL0     C12174   8.871   7.867  10.988  0.3301 -0.2409  0.4073
   89MOL0     O12175   8.858   7.859  10.846  0.9534 -0.7600  0.1527
   89MOL0     C12176   8.908   7.965  10.778 -1.0651  0.2327 -0.6055
   89MOL0     C12177   9.041   7.974  10.781  0.3852  0.3196  1.2161
   89MOL0     C12178   9.102   8.065  10.692 -1.2455  0.6485 -0.2241
   89MOL0     C12179   9.034   8.149  10.601 -0.4669  0.2080 -0.0971
   89MOL0     O12180   9.114   8.235  10.525  0.8724 -0.1931  0.2921
   89MOL0     C12181   9.048   8.324  10.434  0.9013  0.0870 -0.3000
   89MOL0     C12182   9.160   8.385  10.341  0.2107  0.0933 -0.8245
   89MOL0     C12183   9.098   8.445  10.215  0.1820  0.0752 -0.2050
   89MOL0     C12184   9.199   8.453  10.098  0.5166 -1.0490 -0.1514
   89MOL0     C12185   9.129   8.489   9.966 -0.1136 -0.9633 -0.4117
   89MOL0     C12186   9.060   8.630   9.977  0.7102  0.4069  0.2191
   89MOL0     C12187   9.022   8.676   9.839 -0.2460 -0.1946 -0.0070
   89MOL0     C12188   8.934   8.579   9.763 -0.0472 -0.6431 -1.0059
   89MOL0    Cl12189   8.765   8.583   9.816  0.1524 -0.3092  0.2635
   89MOL0     C12190   8.892   8.129  10.597 -0.2380 -0.4453 -0.6225
   89MOL0     C12191   8.828   8.039  10.690  0.2209 -0.4189  0.3362
   89MOL0     O12192   8.905   7.966  11.050  0.4212  0.2960 -0.4069
   89MOL0     C12193   8.850   7.629  10.994  0.7751  0.4137  0.1128
   89MOL0     C12194   8.865   7.510  11.059  0.8054 -0.4725  0.4251
   89MOL0     N12195   8.621   7.293  10.931  0.1223 -0.9694 -0.0613
   89MOL0     N12196   8.597   7.250  10.815 -0.2451 -0.2742 -0.4494
   89MOL0     C12197   8.281   6.184  10.205  0.3125 -0.1838 -0.2143
   89MOL0     C12198   8.315   6.048  10.170 -0.6409  0.8053  0.0115
   89MOL0     C12199   8.521   5.667  10.043  1.1037 -0.2193 -0.7709
   89MOL0     C12200   8.471   5.591   9.939 -0.2858 -0.9504 -0.4402
   89MOL0     C12201   8.514   5.455   9.925 -0.3528 -0.9535 -0.3074
   89MOL0     C12202   8.583   5.387  10.032 -0.7319 -1.0477 -0.0616
   89MOL0     O12203   8.599   5.257  10.028 -0.9188 -0.0331  0.7764
   89MOL0     C12204   8.490   5.180  10.087  0.3587 -0.4016 -0.3557
   89MOL0     C12205   8.422   5.080   9.991 -0.3806 -0.5382  0.3539
   89MOL0     C12206   8.366   5.156   9.868  0.0721  0.4631 -0.4554
   89MOL0     C12207   8.253   5.071   9.801 -0.3543 -0.7219 -0.1953
   89MOL0     C12208   8.329   4.963   9.741 -0.3721 -0.0885 -0.0064
   89MOL0     C12209   8.401   4.874   9.680 -0.2149 -0.4477 -0.0645
   89MOL0     C12210   8.636   5.470  10.128 -1.1757  0.1244 -0.2511
   89MOL0     C12211   8.614   5.608  10.131  0.1811 -0.1748 -0.7407
   89MOL0     C12212   8.689   5.680  10.243  0.0146 -0.6713 -0.7508
   89MOL0     H12213   8.618   6.050  10.321  0.2151  1.4392  2.8247
   89MOL0     H12214   8.568   6.269  10.368  2.9372 -2.7610 -0.4576
   89MOL0     H12215   8.128   6.393  10.303 -0.8552  2.1243 -0.2504
   89MOL0     H12216   8.191   6.451  10.151  0.1753 -0.5924  0.3467
   89MOL0     H12217   8.228   6.663  10.208  0.8645  3.3193  1.0427
   89MOL0     H12218   8.078   6.617  10.301 -0.5382 -4.6839  1.4517
   89MOL0     H12219   8.216   6.587  10.499 -0.2130 -1.7502 -2.6848
   89MOL0     H12220   8.357   6.662  10.412  0.0709 -0.6034 -0.4686
   89MOL0     H12221   8.205   6.856  10.357 -2.6062  0.1266  0.3877
   89MOL0     H12222   8.097   6.788  10.476  0.3177  0.3048  0.5114
   89MOL0     H12223   8.394   6.858  10.522 -1.0131  0.2074 -2.2966
   89MOL0     H12224   8.298   6.803  10.654  0.0925 -2.0758 -0.6526
   89MOL0     H12225   8.285   7.063  10.490 -2.1669 -0.5944 -0.9197
   89MOL0     H12226   8.146   7.015  10.579  0.0023 -0.9370 -1.0696
   89MOL0     H12227   8.263   7.022  10.791  0.2308  0.0978  0.4717
   89MOL0     H12228   8.287   7.175  10.728 -1.9472 -0.7870 -0.1549
   89MOL0     H12229   8.479   6.945  10.743 -0.9380 -0.7649 -2.9585
   89MOL0     H12230   8.514   7.056  10.618 -0.8312 -0.3674 -0.1032
   89MOL0     H12231   8.417   7.049  10.995 -1.6111  1.3658 -1.2726
   89MOL0     H12232   8.503   7.150  11.216  2.3258  0.0271  3.7428
   89MOL0     H12233   8.562   7.318  11.193 -0.4267 -0.6300 -0.8196
   89MOL0     H12234   8.702   7.048  11.192  0.3406  0.1117  0.9424
   89MOL0     H12235   8.784   7.189  11.131 -0.5099  0.5278 -1.1914
   89MOL0     H12236   8.663   7.173  11.422 -1.2837 -0.2753 -2.3689
   89MOL0     H12237   8.832   7.141  11.394 -0.7633 -1.0575  1.9676
   89MOL0     H12238   8.690   7.403  11.364  1.4611  2.2831 -1.8363
   89MOL0     H12239   8.834   7.362  11.461 -0.3789 -2.2615  0.2157
   89MOL0     H12240   8.803   7.614  11.376  1.2360  0.6030  0.0450
   89MOL0     H12241   8.747   7.845  11.382 -0.0226  0.4009 -0.5415
   89MOL0     H12242   8.731   7.933  11.239 -1.3812  0.1511 -1.1901
   89MOL0     H12243   8.901   7.896  11.319 -1.4649 -0.7942  4.3634
   89MOL0     H12244   9.098   7.919  10.855  1.0914  0.3686  0.7208
   89MOL0     H12245   9.209   8.084  10.697 -0.9627 -1.0076  3.4425
   89MOL0     H12246   8.975   8.267  10.376  0.5746 -0.7499  0.9032
   89MOL0     H12247   8.987   8.402  10.482  0.5190  1.1118 -2.3519
   89MOL0     H12248   9.220   8.463  10.390 -0.3324  0.7472 -1.1837
   89MOL0     H12249   9.228   8.302  10.321 -0.8212 -0.7287 -1.0022
   89MOL0     H12250   9.054   8.544  10.231  0.7341  0.5843 -1.6829
   89MOL0     H12251   9.016   8.382  10.179  0.5843  0.0751 -1.1687
   89MOL0     H12252   9.241   8.353  10.088  3.2274 -0.0144 -0.0194
   89MOL0     H12253   9.279   8.524  10.121 -0.0230 -0.8191  1.0702
   89MOL0     H12254   9.208   8.503   9.891  1.5402 -1.2791  1.2062
   89MOL0     H12255   9.057   8.412   9.939 -2.5155  0.4246  1.6400
   89MOL0     H12256   9.129   8.704  10.019  1.0309 -0.4243  1.1909
   89MOL0     H12257   8.979   8.628  10.050 -0.4035  1.5985 -0.9136
   89MOL0     H12258   9.119   8.689   9.790 -1.0459  0.2143 -1.5253
   89MOL0     H12259   8.971   8.772   9.845 -1.1209 -0.6984  4.8584
   89MOL0     H12260   8.968   8.475   9.763  1.1402 -0.3023  0.4841
   89MOL0     H12261   8.942   8.612   9.659  0.6623  0.6225 -0.5716
   89MOL0     H12262   8.835   8.182  10.521  0.8670  0.2422 -0.9934
   89MOL0     H12263   8.723   8.017  10.673  0.2153 -0.6440  0.6545
   89MOL0     H12264   8.873   7.628  10.888  0.6887  2.1039  0.0524
   89MOL0     H12265   8.888   7.415  11.011  2.9165  0.0775  0.2579
   89MOL0     H12266   8.179   6.209  10.180  0.6249  1.4840  0.0345
   89MOL0     H12267   8.253   5.973  10.123 -0.7316  2.1708 -2.1605
   89MOL0     H12268   8.395   5.625   9.869 -0.7730 -0.0120  0.5197
   89MOL0     H12269   8.479   5.401   9.837 -2.4860  1.0384 -0.7772
   89MOL0     H12270   8.521   5.135  10.183  2.0308 -1.6083 -1.4013
   89MOL0     H12271   8.412   5.247  10.123  0.6795 -0.8124  1.1889
   89MOL0     H12272   8.342   5.028  10.044 -1.1608  0.8211  0.5576
   89MOL0     H12273   8.495   5.010   9.949 -1.6522 -1.1970 -0.8355
   89MOL0     H12274   8.315   5.249   9.893  0.8382  1.3101 -1.9064
   89MOL0     H12275   8.450   5.182   9.803  2.3231 -0.6521  1.8176
   89MOL0     H12276   8.187   5.127   9.735  0.5703  2.3340  1.2580
   89MOL0     H12277   8.184   5.031   9.876 -0.9463  1.1696  0.3291
   89MOL0     H12278   8.467   4.799   9.641 -0.8944 -0.0111 -2.1548
   89MOL0     H12279   8.689   5.424  10.210 -0.3386  0.1713 -0.7497
   89MOL0     H12280   8.689   5.789  10.239 -1.9843 -0.5984  0.0033
   89MOL0     H12281   8.641   5.657  10.338  0.0936 -0.8660 -0.7584
   89MOL0     H12282   8.791   5.644  10.229  0.1411 -1.7199  2.2831
   90MOL0     O12283   7.985   0.123  11.253 -0.3002  0.1585  0.4777
   90MOL0     C12284   8.068   0.196  11.207 -0.6181  0.8651  0.3805
   90MOL0     O12285   8.050   0.275  11.100 -0.0559 -0.1723 -0.1752
   90MOL0     C12286   7.933   0.260  11.024 -0.7918 -0.1673 -0.9460
   90MOL0     C12287   7.820   0.328  11.045 -0.4087  0.6585 -0.1858
   90MOL0     C12288   7.709   0.317  10.955 -0.1218 -0.0592 -0.8925
   90MOL0     C12289   7.713   0.235  10.843  0.7827 -0.5230 -0.2145
   90MOL0     O12290   7.591   0.218  10.780  0.2044 -0.7649  0.5660
   90MOL0     C12291   7.559   0.095  10.715  0.1225 -0.4156  0.5796
   90MOL0     C12292   7.581   0.102  10.566 -0.5239  0.0978 -0.5171
   90MOL0     C12293   7.512   0.226  10.518 -0.3192 -0.2769  0.0186
   90MOL0     C12294   7.533   0.223  10.356 -0.1689 -0.5001 -1.2121
   90MOL0     C12295   7.472   0.353  10.309  0.5682  0.2334  0.3681
   90MOL0     C12296   7.466   0.351  10.155  0.0022 -0.1655  0.6995
   90MOL0     C12297   7.447   0.500  10.099  1.1075  0.3034 -0.5226
   90MOL0     C12298   7.433   0.489   9.954  0.0558  0.4434 -0.0471
   90MOL0     N12299   7.416   0.623   9.907  0.1233  0.3348 -0.3875
   90MOL0     C12300   7.290   0.675   9.902 -0.1987 -0.2294  0.5855
   90MOL0     C12301   7.315   0.800   9.861  0.2099  0.4482  0.1221
   90MOL0     C12302   7.198   0.894   9.819 -0.3681 -0.2411  0.8799
   90MOL0     C12303   7.136   0.868   9.681  0.6518 -0.4558 -0.2661
   90MOL0     C12304   7.202   0.951   9.573  0.1587  0.5829  0.8638
   90MOL0     C12305   7.353   0.959   9.565 -0.2005 -0.5550 -0.2589
   90MOL0     O12306   7.375   1.042   9.455 -0.1467 -0.2607 -0.2354
   90MOL0     C12307   7.509   1.078   9.423  0.9151  0.3520 -0.6853
   90MOL0     C12308   7.522   1.134   9.305  0.5669  0.2471 -0.4819
   90MOL0     C12309   7.642   1.171   9.256 -0.3056  0.7417 -0.4678
   90MOL0     C12310   7.635   1.230   9.114 -0.2880 -0.5853 -0.4813
   90MOL0     C12311   7.767   1.145   9.327  0.0368  1.0213 -0.0560
   90MOL0     C12312   7.902   1.180   9.280 -0.0558 -0.4408 -1.4438
   90MOL0     O12313   7.925   1.186   9.150  0.4511 -0.6681  0.5366
   90MOL0     C12314   8.046   1.247   9.113 -0.0476 -0.5220 -0.0691
   90MOL0     C12315   8.044   1.382   9.120  0.2463 -0.4547  0.5572
   90MOL0     C12316   8.162   1.451   9.099  0.4697 -0.4360 -0.1247
   90MOL0     C12317   8.275   1.387   9.055  0.2097  0.0023  0.5701
   90MOL0     O12318   8.391   1.452   9.027 -0.3886 -0.5110 -0.8060
   90MOL0     C12319   8.380   1.570   8.939 -0.9975  0.8220 -0.1193
   90MOL0     C12320   8.511   1.637   8.904  0.0544 -0.0735 -1.0690
   90MOL0     C12321   8.588   1.543   8.810  0.3033 -0.5812 -0.6001
   90MOL0     C12322   8.596   1.593   8.660 -0.5875 -0.6649 -0.2850
   90MOL0     C12323   8.673   1.489   8.577  0.0268 -1.3639 -0.0713
   90MOL0     C12324   8.809   1.454   8.641 -0.5816 -0.4882 -0.4614
   90MOL0     C12325   8.892   1.397   8.530  0.9445 -0.0590  0.5823
   90MOL0     C12326   9.030   1.377   8.583 -0.1410 -0.2512 -1.0233
   90MOL0    Cl12327   9.136   1.315   8.464  0.0756 -0.1138  0.3764
   90MOL0     C12328   8.278   1.245   9.039 -0.6523 -0.1419 -0.2589
   90MOL0     C12329   8.159   1.175   9.069 -0.0229 -0.1652  0.0833
   90MOL0     O12330   7.990   1.194   9.364 -0.5628 -0.4088 -0.6401
   90MOL0     C12331   7.754   1.091   9.456 -0.3084  0.0744 -0.1571
   90MOL0     C12332   7.623   1.066   9.502 -0.0867  0.1254 -0.2821
   90MOL0     N12333   7.447   0.827   9.857 -1.0117 -0.0189  0.1389
   90MOL0     N12334   7.509   0.711   9.875 -0.3029  0.0655  0.2091
   90MOL0     C12335   7.832   0.181  10.816  0.4608 -0.0336  0.3873
   90MOL0     C12336   7.939   0.198  10.904 -0.0855 -0.0743 -0.0431
   90MOL0     C12337   8.201   0.212  11.273 -0.0661 -0.4144 -0.2111
   90MOL0     C12338   8.311   0.285  11.210  0.4768 -0.4077  0.2022
   90MOL0     C12339   8.425   0.316  11.286  0.8488 -0.3838  0.2194
   90MOL0     C12340   8.437   0.271  11.415 -0.6750 -0.8953  0.6434
   90MOL0     O12341   8.557   0.299  11.472 -0.2521 -0.4727  0.5904
   90MOL0     C12342   8.589   0.274  11.605 -0.2750  0.3806  0.3732
   90MOL0     C12343   8.740   0.289  11.645  0.0613 -0.2555  0.5300
   90MOL0     C12344   8.766   0.439  11.628  0.1018  0.3547  0.1935
   90MOL0     C12345   8.909   0.475  11.660 -0.2934  0.9876 -1.0944
   90MOL0     C12346   9.002   0.390  11.590  0.1536 -0.7660 -0.5461
   90MOL0     C12347   9.089   0.318  11.553 -0.4075 -0.2074  0.8895
   90MOL0     C12348   8.343   0.193  11.477 -0.0208 -0.1703  0.7948
   90MOL0     C12349   8.222   0.161  11.412 -0.4083  1.0118 -0.0275
   90MOL0     C12350   8.121   0.093  11.500 -0.9578  0.4503 -0.4994
   90MOL0     H12351   7.820   0.393  11.132 -2.8343 -0.7137  0.9455
   90MOL0     H12352   7.614   0.362  10.981  1.5806  3.7125 -0.4523
   90MOL0     H12353   7.456   0.072  10.741  1.4764 -1.0504  6.9164
   90MOL0     H12354   7.610   0.010  10.763 -0.9573 -1.0833  0.5664
   90MOL0     H12355   7.687   0.082  10.546 -0.6296 -0.5418 -0.4792
   90MOL0     H12356   7.526   0.013  10.535 -4.0096  0.5300  3.5656
   90MOL0     H12357   7.407   0.227  10.547 -0.0373  0.3958  1.0570
   90MOL0     H12358   7.567   0.311  10.559 -0.6919 -0.3416  0.6680
   90MOL0     H12359   7.638   0.223  10.326 -0.4574  0.3479 -2.2816
   90MOL0     H12360   7.486   0.137  10.308  1.3828 -1.3782 -1.2300
   90MOL0     H12361   7.523   0.443  10.345 -0.5295  0.1613  2.2088
   90MOL0     H12362   7.366   0.369  10.331  0.5398  3.5355 -1.4255
   90MOL0     H12363   7.561   0.313  10.118  0.3289 -0.3311  1.6863
   90MOL0     H12364   7.384   0.281  10.133 -0.5289  0.2494  1.2998
   90MOL0     H12365   7.523   0.573  10.129 -0.5388  1.7107  0.4418
   90MOL0     H12366   7.350   0.532  10.139  1.9086  0.4173  1.4593
   90MOL0     H12367   7.521   0.451   9.900  0.8195  0.9079  0.8309
   90MOL0     H12368   7.346   0.428   9.929 -0.7774  0.6923  2.0513
   90MOL0     H12369   7.199   0.616   9.909 -0.0528 -0.6634 -0.9385
   90MOL0     H12370   7.240   0.994   9.808  0.2804 -0.7718 -2.5973
   90MOL0     H12371   7.115   0.895   9.891  0.0365  1.8365  1.4014
   90MOL0     H12372   7.136   0.761   9.660 -2.8625 -0.0609 -3.0639
   90MOL0     H12373   7.031   0.899   9.682  1.0124  1.0308 -2.1586
   90MOL0     H12374   7.157   0.930   9.476  0.1363 -1.2126  1.2223
   90MOL0     H12375   7.172   1.052   9.603 -0.1985  0.2395  1.6867
   90MOL0     H12376   7.407   0.995   9.652  0.8631 -2.5125 -0.0686
   90MOL0     H12377   7.393   0.861   9.540 -0.9958 -0.9879  0.1191
   90MOL0     H12378   7.435   1.148   9.243 -0.9636  0.6931  1.6611
   90MOL0     H12379   7.531   1.263   9.101 -0.2086  0.6163  1.5203
   90MOL0     H12380   7.665   1.169   9.029 -0.8162  0.7401 -1.6706
   90MOL0     H12381   7.698   1.319   9.125  0.8025 -1.3867 -0.0569
   90MOL0     H12382   7.949   1.429   9.144 -0.9373 -1.7572 -1.2443
   90MOL0     H12383   8.160   1.558   9.113 -1.0745 -0.5783  1.0010
   90MOL0     H12384   8.335   1.550   8.841 -1.8095 -2.4688  0.7952
   90MOL0     H12385   8.299   1.630   8.981 -1.2148 -0.6555  1.7071
   90MOL0     H12386   8.503   1.738   8.863 -3.0795  0.9796  1.7317
   90MOL0     H12387   8.564   1.646   8.999 -2.6093  1.2550  0.3817
   90MOL0     H12388   8.550   1.440   8.813 -1.2391 -0.0359 -0.2442
   90MOL0     H12389   8.690   1.535   8.847 -0.5471  1.6616  2.6701
   90MOL0     H12390   8.640   1.693   8.670  1.1450 -1.5356  1.4716
   90MOL0     H12391   8.497   1.608   8.615  0.1996  2.2216 -1.3204
   90MOL0     H12392   8.615   1.396   8.582 -2.7484  0.3232  1.0460
   90MOL0     H12393   8.679   1.525   8.474  0.4129 -1.0858  0.0455
   90MOL0     H12394   8.800   1.388   8.728 -0.1930  1.7608  1.4097
   90MOL0     H12395   8.857   1.546   8.677 -2.7272 -0.4149  2.6015
   90MOL0     H12396   8.889   1.474   8.451  0.0557  1.0270  1.6296
   90MOL0     H12397   8.860   1.300   8.492 -0.4434  0.9857 -1.1175
   90MOL0     H12398   9.020   1.310   8.669 -0.0730  0.9546 -0.0425
   90MOL0     H12399   9.063   1.467   8.636 -3.4325  0.0840  0.7644
   90MOL0     H12400   8.371   1.197   9.010 -0.3726  0.6260 -0.6380
   90MOL0     H12401   8.147   1.067   9.074  1.1112 -0.2409  2.3194
   90MOL0     H12402   7.844   1.068   9.513 -1.1550  0.1199  1.2668
   90MOL0     H12403   7.609   1.016   9.597 -2.6021  0.6870 -0.2999
   90MOL0     H12404   7.829   0.119  10.727 -0.1628 -0.0608  0.4256
   90MOL0     H12405   8.039   0.165  10.876  0.7574  2.5462 -0.3476
   90MOL0     H12406   8.292   0.322  11.110  0.1210  1.8395  1.0561
   90MOL0     H12407   8.503   0.375  11.238 -2.9255  2.8811 -2.4848
   90MOL0     H12408   8.526   0.332  11.672 -0.1743 -0.9997  1.7155
   90MOL0     H12409   8.563   0.171  11.630  1.9866 -0.7992 -1.6495
   90MOL0     H12410   8.789   0.230  11.566 -1.3617 -1.6413  0.6195
   90MOL0     H12411   8.759   0.260  11.748  0.7891 -1.0886  0.1774
   90MOL0     H12412   8.748   0.491  11.534  3.0375  0.7566 -0.2462
   90MOL0     H12413   8.705   0.489  11.704  0.6540  3.0433 -1.0188
   90MOL0     H12414   8.924   0.474  11.768 -0.1836  1.3078 -1.1064
   90MOL0     H12415   8.918   0.578  11.625  2.2480  2.1763  2.4143
   90MOL0     H12416   9.166   0.247  11.532 -0.4914  0.5701 -2.6044
   90MOL0     H12417   8.349   0.162  11.581 -1.5093 -3.0595  0.1237
   90MOL0     H12418   8.044   0.163  11.533 -0.9826 -0.6600  2.0433
   90MOL0     H12419   8.075   0.002  11.460  3.5653 -2.6992  0.6306
   90MOL0     H12420   8.163   0.062  11.596 -1.2797  3.8243  0.8655
   91MOL0     O12421  10.464   5.878   3.744  0.5293  0.1715  0.0290
   91MOL0     C12422  10.508   5.891   3.858  0.2438 -0.6710 -0.1868
   91MOL0     O12423  10.640   5.944   3.889 -0.3018 -0.1311  0.7093
   91MOL0     C12424  10.719   6.004   3.800 -0.6339  0.0184  0.3727
   91MOL0     C12425  10.777   6.121   3.832  0.1204 -0.1278  0.3238
   91MOL0     C12426  10.842   6.193   3.734  0.1888 -0.0796 -0.1304
   91MOL0     C12427  10.844   6.162   3.600 -0.0752  0.1253  0.6542
   91MOL0     O12428  10.922   6.237   3.508  0.0696  0.8745 -0.4440
   91MOL0     C12429  10.870   6.243   3.373 -0.2095 -0.3932  0.5159
   91MOL0     C12430  10.945   6.368   3.313  0.0408 -0.7612  0.5321
   91MOL0     C12431  10.925   6.405   3.167  0.3404 -0.0615  0.2868
   91MOL0     C12432  10.934   6.280   3.077 -0.6635 -0.4264 -0.3593
   91MOL0     C12433  10.964   6.300   2.930  0.1545  0.0532 -0.4280
   91MOL0     C12434  10.966   6.172   2.840  0.1547 -0.5038 -0.9541
   91MOL0     C12435  11.020   6.199   2.693  0.0908 -0.5129 -0.1419
   91MOL0     C12436  10.949   6.106   2.596 -0.4063 -0.9766  0.4947
   91MOL0     N12437  11.011   5.973   2.610 -0.2886 -0.9947  0.4349
   91MOL0     C12438  11.124   5.933   2.541 -0.1816 -0.4325 -0.6404
   91MOL0     C12439  11.149   5.809   2.579  0.6300 -0.7178  0.1950
   91MOL0     C12440  11.262   5.722   2.539  0.1053 -0.4914  0.5803
   91MOL0     C12441  11.233   5.609   2.444 -0.0154 -0.1318  0.7889
   91MOL0     C12442  11.159   5.644   2.313  0.8819 -0.1050  0.0823
   91MOL0     C12443  11.239   5.730   2.216 -0.0270  0.0396 -0.7503
   91MOL0     O12444  11.376   5.688   2.200 -0.0924  0.3857 -0.6310
   91MOL0     C12445  11.438   5.667   2.077  0.3726 -0.5217  0.7009
   91MOL0     C12446  11.572   5.623   2.084 -0.1061 -0.0645 -0.5671
   91MOL0     C12447  11.653   5.586   1.977  0.3857 -0.6184  1.0871
   91MOL0     C12448  11.790   5.539   2.001 -0.2234 -0.2564 -0.3225
   91MOL0     C12449  11.597   5.598   1.848 -0.2049 -0.0533  0.2418
   91MOL0     C12450  11.669   5.566   1.729 -0.1518 -0.3667 -0.1370
   91MOL0     O12451  11.750   5.455   1.724 -0.0914  0.2523 -0.5671
   91MOL0     C12452  11.830   5.442   1.615 -0.3036  1.0548 -1.5734
   91MOL0     C12453  11.964   5.493   1.613  0.5259  0.8519  0.7523
   91MOL0     C12454  12.030   5.478   1.495 -0.5716 -0.6340  0.9585
   91MOL0     C12455  11.983   5.414   1.379  1.0516  0.5119 -0.9442
   91MOL0     O12456  12.051   5.389   1.262 -0.4310  0.5074  0.0342
   91MOL0     C12457  12.191   5.369   1.274 -0.6778  0.1871  0.7833
   91MOL0     C12458  12.233   5.307   1.142 -0.2862 -0.7964  0.5729
   91MOL0     C12459  12.390   5.288   1.145 -0.2470 -0.1711 -0.7005
   91MOL0     C12460  12.466   5.245   1.018  0.4754  0.9805  0.0285
   91MOL0     C12461  12.403   5.127   0.935  0.4855 -0.1017 -0.2770
   91MOL0     C12462  12.457   4.993   1.003 -0.0150 -0.3448  0.0038
   91MOL0     C12463  12.394   4.863   0.937 -0.4515 -0.3624  0.5174
   91MOL0     C12464  12.426   4.831   0.789  0.9928 -0.6614  0.2701
   91MOL0    Cl12465  12.596   4.788   0.785 -0.1280  0.3819 -0.4571
   91MOL0     C12466  11.844   5.389   1.375 -0.2421 -0.5499  0.0891
   91MOL0     C12467  11.766   5.400   1.492  0.2740  0.8996  0.4940
   91MOL0     O12468  11.670   5.654   1.651  0.0610  0.2511 -0.6230
   91MOL0     C12469  11.463   5.650   1.837 -0.7455 -0.4938 -1.2126
   91MOL0     C12470  11.385   5.682   1.945 -0.5545 -0.3314 -1.0330
   91MOL0     N12471  11.054   5.772   2.671  0.0327 -1.2196  0.4202
   91MOL0     N12472  10.978   5.871   2.690 -0.8844  0.1069  0.6511
   91MOL0     C12473  10.774   6.046   3.561  0.1361 -0.3153 -0.8736
   91MOL0     C12474  10.716   5.964   3.667 -0.1779 -0.1765 -0.8857
   91MOL0     C12475  10.416   5.832   3.958  0.3898  0.4003 -0.1513
   91MOL0     C12476  10.329   5.715   3.930 -0.2990 -0.6293 -0.1652
   91MOL0     C12477  10.237   5.672   4.022 -0.3045 -0.0988 -0.2801
   91MOL0     C12478  10.238   5.726   4.157  0.3809  0.3267  1.0644
   91MOL0     O12479  10.160   5.679   4.266  0.8564 -0.5356  0.0261
   91MOL0     C12480  10.048   5.601   4.236 -0.4341  0.3225 -0.0980
   91MOL0     C12481   9.943   5.617   4.357 -0.5118 -0.5716 -0.0245
   91MOL0     C12482   9.990   5.545   4.486  0.6955 -0.2954  0.4403
   91MOL0     C12483   9.947   5.601   4.622 -1.2087  0.1746 -0.0587
   91MOL0     C12484   9.799   5.612   4.640  0.3754  1.2529  0.2141
   91MOL0     C12485   9.684   5.647   4.658  0.4135 -0.2140  0.1034
   91MOL0     C12486  10.321   5.830   4.186 -0.2233 -0.1070 -0.0528
   91MOL0     C12487  10.414   5.888   4.093 -0.6588 -0.1137 -0.4334
   91MOL0     C12488  10.514   5.993   4.138  0.3804  0.4407 -0.6826
   91MOL0     H12489  10.785   6.154   3.935 -0.3842  0.0264  0.3136
   91MOL0     H12490  10.900   6.278   3.770 -1.0535  1.6008 -1.8869
   91MOL0     H12491  10.761   6.254   3.374 -0.0953  1.1386 -0.7066
   91MOL0     H12492  10.896   6.148   3.326 -1.7545 -1.0164  0.8305
   91MOL0     H12493  10.929   6.457   3.375  1.8737 -0.8274  1.1306
   91MOL0     H12494  11.049   6.336   3.317 -0.6228 -2.9075  2.9824
   91MOL0     H12495  10.824   6.446   3.173  0.4134  0.3539 -1.0644
   91MOL0     H12496  10.996   6.483   3.139  2.6658 -2.0372  0.3547
   91MOL0     H12497  11.017   6.218   3.112  1.6630  1.6442 -1.9414
   91MOL0     H12498  10.841   6.227   3.100 -0.1264 -0.1286  3.0132
   91MOL0     H12499  11.064   6.345   2.930 -1.4095  4.1501  2.3045
   91MOL0     H12500  10.904   6.379   2.885  2.5695  1.9021 -0.6276
   91MOL0     H12501  11.039   6.103   2.883 -0.0942  0.5768  1.3820
   91MOL0     H12502  10.865   6.131   2.838  0.1938 -0.7250  0.3365
   91MOL0     H12503  11.129   6.202   2.696  0.0839  2.2483 -0.6663
   91MOL0     H12504  10.998   6.301   2.663  0.8153 -0.6314 -1.1276
   91MOL0     H12505  10.841   6.105   2.610 -1.5962 -0.3508 -5.7894
   91MOL0     H12506  10.964   6.140   2.493 -0.4932  0.3748  0.9093
   91MOL0     H12507  11.173   5.994   2.466 -0.6740  4.4220  2.5728
   91MOL0     H12508  11.311   5.680   2.628 -0.2616  0.8560  1.4577
   91MOL0     H12509  11.330   5.790   2.488 -1.2633  2.6779  2.6043
   91MOL0     H12510  11.326   5.554   2.425 -1.2817 -1.6147 -1.6989
   91MOL0     H12511  11.166   5.534   2.487  0.0044 -1.8146 -1.8963
   91MOL0     H12512  11.141   5.553   2.256 -0.4144  0.1263  0.0715
   91MOL0     H12513  11.059   5.687   2.331 -0.0032 -2.0487  0.0738
   91MOL0     H12514  11.179   5.724   2.125 -0.6685  1.0137 -0.4040
   91MOL0     H12515  11.238   5.832   2.257  2.0507 -1.8308  4.9626
   91MOL0     H12516  11.618   5.605   2.180 -1.8421  3.5011  1.1502
   91MOL0     H12517  11.818   5.568   2.102 -5.0401  2.4705  0.5688
   91MOL0     H12518  11.851   5.583   1.922 -0.6883 -1.0140 -1.1241
   91MOL0     H12519  11.786   5.430   1.995 -0.0726 -0.3175  0.6014
   91MOL0     H12520  12.015   5.549   1.690  1.6263  0.4187  0.3553
   91MOL0     H12521  12.127   5.527   1.487 -1.8418  2.8971  4.1852
   91MOL0     H12522  12.250   5.459   1.291  1.3726 -0.1459 -3.3249
   91MOL0     H12523  12.230   5.287   1.335  2.0029  0.8363  0.0639
   91MOL0     H12524  12.187   5.208   1.128 -2.6287  0.4876 -2.0559
   91MOL0     H12525  12.210   5.378   1.061  0.7605  0.3288  1.2265
   91MOL0     H12526  12.415   5.205   1.213 -1.2540  0.6179  0.6910
   91MOL0     H12527  12.435   5.379   1.186 -1.3044 -0.7772  2.0713
   91MOL0     H12528  12.570   5.223   1.044  0.9373  3.7353  0.9354
   91MOL0     H12529  12.471   5.332   0.951  0.4476  2.3755  1.7466
   91MOL0     H12530  12.294   5.132   0.931  0.4946 -0.7222 -1.5263
   91MOL0     H12531  12.444   5.134   0.834 -0.7264  0.0124 -0.7765
   91MOL0     H12532  12.434   4.986   1.109  1.5408  1.2636  0.4834
   91MOL0     H12533  12.565   4.984   0.989 -0.1732 -3.3195  0.1123
   91MOL0     H12534  12.285   4.873   0.943 -0.5084  2.9964 -2.4368
   91MOL0     H12535  12.430   4.777   0.993  1.0128 -1.0989 -1.4311
   91MOL0     H12536  12.407   4.918   0.726  1.2732 -0.5852  0.2870
   91MOL0     H12537  12.364   4.745   0.764 -3.0042  0.9485  3.4607
   91MOL0     H12538  11.805   5.353   1.281 -0.4229  1.0889 -0.4961
   91MOL0     H12539  11.657   5.394   1.494  0.3327 -4.1952 -0.5446
   91MOL0     H12540  11.407   5.658   1.744 -2.6247  2.7602  0.0413
   91MOL0     H12541  11.282   5.714   1.928 -0.5721  0.0556 -0.2178
   91MOL0     H12542  10.768   6.018   3.457  1.7384 -2.1960 -0.5165
   91MOL0     H12543  10.671   5.882   3.613 -3.5495  1.2700 -0.4791
   91MOL0     H12544  10.335   5.666   3.834 -0.3665 -0.4608 -0.2554
   91MOL0     H12545  10.165   5.596   3.996 -0.6852  0.0107  0.4195
   91MOL0     H12546  10.001   5.620   4.139 -0.2465  0.5109 -0.1531
   91MOL0     H12547  10.077   5.496   4.235 -2.2478 -0.2141 -0.6255
   91MOL0     H12548   9.839   5.603   4.326 -0.4459  0.1802 -0.5934
   91MOL0     H12549   9.930   5.724   4.375 -0.9706 -1.0869  3.3792
   91MOL0     H12550   9.967   5.438   4.485 -1.7360  0.1136  2.5464
   91MOL0     H12551  10.099   5.545   4.483  0.6832 -0.7016 -0.5852
   91MOL0     H12552  10.003   5.694   4.632  1.0746 -1.0386 -0.8265
   91MOL0     H12553   9.990   5.540   4.703 -1.6779  0.7810  0.6556
   91MOL0     H12554   9.589   5.694   4.670 -0.2603 -0.2559 -3.6693
   91MOL0     H12555  10.316   5.873   4.286 -0.5642  1.4084 -0.6999
   91MOL0     H12556  10.502   6.021   4.243  0.9997 -0.3609 -0.3896
   91MOL0     H12557  10.615   5.954   4.125 -0.4095 -1.8118 -0.4952
   91MOL0     H12558  10.523   6.084   4.078  0.5956  3.6128  3.6795
   92MOL0     O12559   0.150   9.162   3.682 -0.0716  0.0464 -0.4374
   92MOL0     C12560   0.244   9.096   3.635 -0.4379  0.3849  0.0565
   92MOL0     O12561   0.314   8.999   3.706 -0.1056  0.5765  0.1072
   92MOL0     C12562   0.297   8.987   3.841  0.3377 -0.3393 -0.0255
   92MOL0     C12563   0.395   9.041   3.926  0.2008  0.3960  0.8298
   92MOL0     C12564   0.378   9.025   4.058 -0.7985 -0.4282  1.0062
   92MOL0     C12565   0.268   8.951   4.121 -1.0661 -0.2334 -0.4851
   92MOL0     O12566   0.282   8.930   4.254 -0.0584  0.0642  0.3668
   92MOL0     C12567   0.167   8.894   4.326 -0.0926 -0.2952  0.0058
   92MOL0     C12568   0.194   8.929   4.469  0.1133 -0.2927  0.3303
   92MOL0     C12569   0.075   8.927   4.567 -0.6419 -0.9305 -0.7764
   92MOL0     C12570   0.027   8.787   4.601 -0.2552 -0.0714  0.4155
   92MOL0     C12571  -0.115   8.795   4.649 -0.1889 -0.0167  0.0698
   92MOL0     C12572  -0.171   8.654   4.665  0.7089  0.0179 -0.1663
   92MOL0     C12573  -0.256   8.640   4.788 -0.1740 -0.3507 -0.4183
   92MOL0     C12574  -0.381   8.735   4.789 -1.1103 -0.4246 -0.3992
   92MOL0     N12575  -0.479   8.664   4.881 -0.4442 -0.3808  0.0062
   92MOL0     C12576  -0.610   8.639   4.865  0.8725 -0.5349 -0.1495
   92MOL0     C12577  -0.661   8.608   4.992 -0.1046  0.4006  0.0242
   92MOL0     C12578  -0.801   8.593   5.039  0.1666 -0.3130  0.0801
   92MOL0     C12579  -0.891   8.495   4.959  0.3543 -0.5083 -0.2158
   92MOL0     C12580  -0.833   8.364   4.968  0.5111  0.8399  0.2066
   92MOL0     C12581  -0.826   8.306   5.109 -0.3593  0.0895  0.2258
   92MOL0     O12582  -0.818   8.170   5.080 -0.2350 -0.0334  0.8623
   92MOL0     C12583  -0.695   8.115   5.074 -0.2660 -0.4708 -0.4727
   92MOL0     C12584  -0.568   8.181   5.042 -0.5982  0.6541  0.1036
   92MOL0     C12585  -0.449   8.104   5.038  0.4409 -0.9338  0.7169
   92MOL0     C12586  -0.320   8.188   5.029  0.5950 -0.6770  0.7594
   92MOL0     C12587  -0.458   7.965   5.055 -1.1824 -0.3426  0.3595
   92MOL0     C12588  -0.333   7.885   5.071 -0.4527 -0.0755 -0.2170
   92MOL0     O12589  -0.341   7.786   5.163  0.2860 -0.4810 -0.7544
   92MOL0     C12590  -0.233   7.698   5.185 -0.3878 -0.4643 -0.3452
   92MOL0     C12591  -0.233   7.565   5.118  0.3343 -0.2871 -0.7725
   92MOL0     C12592  -0.136   7.472   5.154  0.4056  0.7081  0.4096
   92MOL0     C12593  -0.041   7.502   5.258  0.0487  0.2932  0.1284
   92MOL0     O12594   0.047   7.420   5.313  0.3585  0.7837 -0.8275
   92MOL0     C12595   0.098   7.312   5.232  0.4406 -0.6057  0.3204
   92MOL0     C12596   0.248   7.284   5.270  0.3443 -0.2589 -0.6741
   92MOL0     C12597   0.272   7.214   5.408  0.4725 -0.6699 -0.4721
   92MOL0     C12598   0.430   7.232   5.437 -0.3890 -0.4234  0.3460
   92MOL0     C12599   0.476   7.141   5.552  0.2854 -0.1303 -0.3171
   92MOL0     C12600   0.429   7.204   5.694  0.5038  0.8733  0.5140
   92MOL0     C12601   0.435   7.096   5.812 -0.4254  0.5555  0.6263
   92MOL0     C12602   0.449   7.158   5.947  0.2920 -0.0001  1.4072
   92MOL0    Cl12603   0.595   7.267   5.967 -0.2105 -0.2736 -0.2486
   92MOL0     C12604  -0.053   7.628   5.322  0.4906 -0.6893  0.1506
   92MOL0     C12605  -0.148   7.732   5.281  0.8303 -0.6361 -0.3028
   92MOL0     O12606  -0.236   7.905   4.993  0.5443 -0.7787 -0.1844
   92MOL0     C12607  -0.578   7.903   5.061 -0.4395  0.7698  0.3234
   92MOL0     C12608  -0.697   7.974   5.079  0.0553  0.1038  0.0327
   92MOL0     N12609  -0.554   8.618   5.077 -0.1364  0.9553 -0.0776
   92MOL0     N12610  -0.444   8.641   5.012 -0.4277 -1.1908 -0.3069
   92MOL0     C12611   0.179   8.885   4.032  0.2887 -1.1873 -0.4724
   92MOL0     C12612   0.196   8.902   3.891 -0.4855  0.8218 -0.5743
   92MOL0     C12613   0.286   9.110   3.496 -0.1174  0.8546 -0.2365
   92MOL0     C12614   0.181   9.133   3.402  0.6034 -0.5394  0.1566
   92MOL0     C12615   0.203   9.167   3.269  0.4046  0.4044  0.0840
   92MOL0     C12616   0.332   9.160   3.217 -0.5108 -0.3344  0.8187
   92MOL0     O12617   0.373   9.197   3.085 -0.0605 -0.7059 -0.3187
   92MOL0     C12618   0.266   9.209   2.986  0.1342  0.0632  0.0997
   92MOL0     C12619   0.332   9.218   2.848  0.4655  0.4915 -0.0477
   92MOL0     C12620   0.430   9.339   2.832  0.6034 -0.1722  0.0287
   92MOL0     C12621   0.402   9.424   2.701 -0.0437  0.4699  0.9891
   92MOL0     C12622   0.527   9.462   2.635 -0.0588 -0.0562  1.2278
   92MOL0     C12623   0.639   9.489   2.605  0.2871 -0.0323  0.0590
   92MOL0     C12624   0.437   9.123   3.303 -0.6732 -0.2584  0.3746
   92MOL0     C12625   0.415   9.097   3.441 -0.6468 -0.6817  0.3481
   92MOL0     C12626   0.536   9.090   3.534  0.3074  0.5556 -0.3910
   92MOL0     H12627   0.482   9.092   3.886  0.2346 -1.1626 -1.2786
   92MOL0     H12628   0.460   9.063   4.117 -0.6034  0.4873  0.1870
   92MOL0     H12629   0.161   8.785   4.331 -0.3939 -0.3720 -1.6019
   92MOL0     H12630   0.078   8.947   4.290  0.6307  2.5631  2.1028
   92MOL0     H12631   0.267   8.860   4.512 -1.0812  0.5837  4.0931
   92MOL0     H12632   0.239   9.028   4.481 -2.3680  0.7642  1.5728
   92MOL0     H12633   0.095   8.990   4.653 -4.4831  1.0343 -1.1075
   92MOL0     H12634  -0.002   8.986   4.516 -0.7147  0.2996  0.6995
   92MOL0     H12635   0.035   8.725   4.512  1.5024  0.8857 -0.1294
   92MOL0     H12636   0.090   8.752   4.683  0.5340  1.3318  0.4490
   92MOL0     H12637  -0.173   8.858   4.580 -0.5229  0.6392  0.9361
   92MOL0     H12638  -0.122   8.843   4.747  0.0451 -2.7571  1.5127
   92MOL0     H12639  -0.233   8.625   4.579 -2.8651  3.3269  1.0451
   92MOL0     H12640  -0.100   8.571   4.677 -1.4125 -1.6329  2.0240
   92MOL0     H12641  -0.189   8.642   4.874  1.6537 -0.1456 -1.7877
   92MOL0     H12642  -0.295   8.538   4.778 -1.9736 -0.6707  5.7792
   92MOL0     H12643  -0.352   8.835   4.822 -0.9799 -1.2372  2.1958
   92MOL0     H12644  -0.420   8.751   4.688 -0.0260  0.9122 -0.6291
   92MOL0     H12645  -0.662   8.638   4.769 -0.4292 -1.5452  0.5370
   92MOL0     H12646  -0.851   8.690   5.040  1.0461  0.1749  1.9545
   92MOL0     H12647  -0.790   8.568   5.145  1.0954  0.4533  0.1680
   92MOL0     H12648  -0.990   8.488   5.007  1.5681 -1.7564  2.3048
   92MOL0     H12649  -0.890   8.526   4.854 -1.2513 -1.6013 -0.5926
   92MOL0     H12650  -0.882   8.294   4.900  3.5973 -2.0412  0.6457
   92MOL0     H12651  -0.733   8.359   4.923  1.0306 -1.0446  1.4255
   92MOL0     H12652  -0.744   8.344   5.171  0.1622 -2.8961  1.5393
   92MOL0     H12653  -0.924   8.317   5.157 -0.3412  1.5720 -0.0205
   92MOL0     H12654  -0.549   8.286   5.018  2.3016  0.0109 -0.9226
   92MOL0     H12655  -0.273   8.182   4.930  0.0958  1.1676  0.3630
   92MOL0     H12656  -0.251   8.150   5.105 -1.2754 -2.5124  1.6516
   92MOL0     H12657  -0.332   8.296   5.045  3.3361 -0.1138 -0.4435
   92MOL0     H12658  -0.318   7.544   5.054  1.0571  0.6758 -2.1004
   92MOL0     H12659  -0.135   7.371   5.115 -3.8856  0.9882 -0.9719
   92MOL0     H12660   0.050   7.215   5.215 -1.1469  0.5241 -2.2955
   92MOL0     H12661   0.099   7.349   5.129 -2.7710  1.5416  0.9412
   92MOL0     H12662   0.281   7.212   5.195  1.5661 -0.0850 -0.3203
   92MOL0     H12663   0.304   7.376   5.251 -1.4180  1.3806  1.4753
   92MOL0     H12664   0.256   7.107   5.394 -0.5678 -0.1781 -3.7777
   92MOL0     H12665   0.218   7.258   5.492  2.7971 -1.4820  1.5781
   92MOL0     H12666   0.451   7.338   5.456 -1.8548 -0.3052  1.5426
   92MOL0     H12667   0.489   7.214   5.347  0.9339  1.2447  0.8240
   92MOL0     H12668   0.430   7.041   5.550  2.1958 -1.1198  1.4468
   92MOL0     H12669   0.585   7.146   5.562  0.3537  3.2694 -1.5770
   92MOL0     H12670   0.326   7.240   5.687  0.6058  1.0007 -0.4675
   92MOL0     H12671   0.497   7.286   5.717  0.3176  0.8738  1.0612
   92MOL0     H12672   0.529   7.042   5.798 -0.8334  0.2003 -0.9023
   92MOL0     H12673   0.345   7.036   5.798  1.5395 -2.2445 -1.0332
   92MOL0     H12674   0.446   7.084   6.027 -6.6847  0.0452  1.8059
   92MOL0     H12675   0.357   7.215   5.966 -1.9798 -2.4531 -1.1804
   92MOL0     H12676   0.026   7.651   5.393  0.7866 -2.1911  0.3568
   92MOL0     H12677  -0.155   7.830   5.327 -0.8315 -0.7566 -0.2144
   92MOL0     H12678  -0.595   7.798   5.082  1.8301 -0.1482 -1.9875
   92MOL0     H12679  -0.794   7.926   5.074  0.6706 -1.0688 -1.6986
   92MOL0     H12680   0.094   8.828   4.069 -0.1853  0.9293  1.9148
   92MOL0     H12681   0.135   8.847   3.819 -1.0088 -1.0993  1.2349
   92MOL0     H12682   0.079   9.134   3.438  0.8152 -0.5183  0.7665
   92MOL0     H12683   0.114   9.200   3.218  0.8565  0.4816 -0.6703
   92MOL0     H12684   0.203   9.121   2.999 -1.3349  1.2958  2.0190
   92MOL0     H12685   0.214   9.303   3.007  1.5172  0.5780  1.4535
   92MOL0     H12686   0.247   9.226   2.780 -1.0180 -3.6864  1.0105
   92MOL0     H12687   0.379   9.120   2.833 -0.4895 -0.0898  0.6539
   92MOL0     H12688   0.398   9.397   2.919 -0.7618 -3.3935  1.8619
   92MOL0     H12689   0.536   9.322   2.855  0.5374  2.5327  3.1567
   92MOL0     H12690   0.350   9.515   2.731 -0.2153  1.1966 -1.3399
   92MOL0     H12691   0.331   9.369   2.638 -0.1267  1.5466  0.1255
   92MOL0     H12692   0.734   9.521   2.565 -0.4948  3.1090  0.4438
   92MOL0     H12693   0.537   9.144   3.266 -1.1048  0.3388 -0.4932
   92MOL0     H12694   0.559   9.182   3.588 -3.5455 -0.1087  2.8454
   92MOL0     H12695   0.506   9.014   3.607 -2.3663  1.8697 -0.0022
   92MOL0     H12696   0.627   9.055   3.485  1.9453  1.8573  1.6086
   93MOL0     O12697  10.424   2.638   8.654  0.3017 -0.2432  0.3361
   93MOL0     C12698  10.406   2.542   8.726 -0.1227 -0.5621 -0.8906
   93MOL0     O12699  10.500   2.436   8.733 -0.3685  0.6901 -0.1958
   93MOL0     C12700  10.626   2.449   8.685 -0.4524 -0.7557 -0.2040
   93MOL0     C12701  10.724   2.483   8.776 -1.0812  0.7129  0.5244
   93MOL0     C12702  10.859   2.492   8.740 -0.4200 -0.5436  0.0380
   93MOL0     C12703  10.890   2.492   8.602 -0.1980  0.2873  0.0611
   93MOL0     O12704  11.020   2.524   8.561  0.5468  0.2488 -0.2718
   93MOL0     C12705  11.070   2.478   8.430  0.2818  1.2042 -0.5028
   93MOL0     C12706  11.198   2.540   8.390 -0.3986 -0.4805  0.7227
   93MOL0     C12707  11.250   2.473   8.263 -0.1689  0.6660 -0.1184
   93MOL0     C12708  11.388   2.523   8.211 -0.3192 -0.7430 -0.6229
   93MOL0     C12709  11.419   2.462   8.073 -0.8015 -0.2445 -0.3415
   93MOL0     C12710  11.335   2.538   7.966  0.6340 -0.1373 -0.0042
   93MOL0     C12711  11.339   2.463   7.828 -0.8884 -0.1996 -0.1816
   93MOL0     C12712  11.256   2.542   7.736  0.0919 -0.5175  0.1591
   93MOL0     N12713  11.224   2.462   7.624 -0.2704  0.1016  0.8020
   93MOL0     C12714  11.109   2.476   7.548 -0.1517 -0.0384 -0.8922
   93MOL0     C12715  11.129   2.402   7.439 -0.0102  0.2039 -0.0037
   93MOL0     C12716  11.026   2.365   7.333  0.6306 -0.1114  0.0366
   93MOL0     C12717  10.936   2.248   7.378 -0.2991  1.1637  0.5188
   93MOL0     C12718  10.890   2.162   7.257  0.2503  0.3944  0.4400
   93MOL0     C12719  10.805   2.044   7.295  0.2826 -0.0428 -0.5645
   93MOL0     O12720  10.697   2.086   7.380  0.7465  0.1172 -0.9753
   93MOL0     C12721  10.629   1.994   7.460  0.4342  0.1069 -1.1806
   93MOL0     C12722  10.646   1.854   7.441 -0.6129 -0.5265 -1.0139
   93MOL0     C12723  10.565   1.763   7.519  0.3399  0.9412  0.4228
   93MOL0     C12724  10.597   1.617   7.503  0.9742 -0.3068  0.2444
   93MOL0     C12725  10.466   1.801   7.613 -0.0114  0.4647  0.0995
   93MOL0     C12726  10.378   1.704   7.676  0.2294  0.2429  1.3669
   93MOL0     O12727  10.246   1.747   7.660 -0.3486 -0.2800  0.1234
   93MOL0     C12728  10.152   1.706   7.757  0.1079 -0.5139  0.1661
   93MOL0     C12729  10.018   1.696   7.713 -0.0662  0.2016  0.4805
   93MOL0     C12730   9.920   1.645   7.799 -0.7460  1.0315 -0.4231
   93MOL0     C12731   9.965   1.589   7.924  0.1632 -0.7336  0.7119
   93MOL0     O12732   9.876   1.525   8.001 -0.0265  0.3581 -0.4018
   93MOL0     C12733   9.900   1.516   8.139 -0.4951  1.4056 -0.4712
   93MOL0     C12734   9.769   1.473   8.204  0.5568  0.7017 -0.0222
   93MOL0     C12735   9.660   1.575   8.188  0.8844  0.6418  0.3326
   93MOL0     C12736   9.558   1.554   8.070  0.0861  0.4170 -0.5717
   93MOL0     C12737   9.449   1.654   8.072 -0.0066  0.0213 -0.2404
   93MOL0     C12738   9.347   1.648   7.959  1.0880 -0.8911  0.6488
   93MOL0     C12739   9.219   1.731   7.996 -0.7344 -0.5305  0.3173
   93MOL0     C12740   9.120   1.655   8.078  0.5997  0.9488  0.9133
   93MOL0    Cl12741   9.063   1.501   7.996 -0.1289 -0.1424  0.2749
   93MOL0     C12742  10.101   1.603   7.965  0.0038 -1.0621 -1.1335
   93MOL0     C12743  10.183   1.670   7.884 -0.6164  0.5725  0.0344
   93MOL0     O12744  10.406   1.592   7.719  0.0164 -0.3322 -0.2000
   93MOL0     C12745  10.453   1.938   7.626  0.5934 -0.2318 -0.5821
   93MOL0     C12746  10.527   2.030   7.558 -0.4225  0.1384  0.5771
   93MOL0     N12747  11.253   2.343   7.449  0.4441 -0.0577  0.0798
   93MOL0     N12748  11.306   2.377   7.560 -0.6068  0.5918 -0.3459
   93MOL0     C12749  10.793   2.459   8.512  0.3916  0.0779  0.1569
   93MOL0     C12750  10.658   2.441   8.553  0.2117 -0.1342  0.4969
   93MOL0     C12751  10.289   2.539   8.815  0.4755  0.2401 -0.7944
   93MOL0     C12752  10.202   2.432   8.798 -0.8643 -0.1380 -0.5507
   93MOL0     C12753  10.087   2.438   8.871  0.4290 -0.3765 -1.0037
   93MOL0     C12754  10.062   2.548   8.954 -0.6007  0.5160  0.4281
   93MOL0     O12755   9.941   2.546   9.016 -0.2409  0.0912  0.2995
   93MOL0     C12756   9.875   2.674   9.055 -0.2971  1.1051  0.2325
   93MOL0     C12757   9.855   2.669   9.209 -0.0142  0.2946  0.0556
   93MOL0     C12758   9.787   2.778   9.281 -0.1941  0.0465  0.3629
   93MOL0     C12759   9.862   2.912   9.341 -0.1578  0.5881  0.6774
   93MOL0     C12760   9.936   2.983   9.238 -0.0807  0.0310  1.2155
   93MOL0     C12761   9.994   3.042   9.144  0.4850 -0.0672  0.4146
   93MOL0     C12762  10.156   2.646   8.980  0.3738  0.8013  0.1165
   93MOL0     C12763  10.270   2.643   8.909  0.5238 -0.4616 -0.2173
   93MOL0     C12764  10.389   2.728   8.956 -0.3908 -0.0186  0.1688
   93MOL0     H12765  10.695   2.503   8.879 -0.9167  0.8591  0.5418
   93MOL0     H12766  10.936   2.531   8.806  0.4026  0.9631 -1.7309
   93MOL0     H12767  10.998   2.514   8.355 -0.7975  1.5385  0.6614
   93MOL0     H12768  11.083   2.369   8.430 -1.3719  0.9209  2.1080
   93MOL0     H12769  11.190   2.646   8.364  0.1159  0.2238  3.2177
   93MOL0     H12770  11.261   2.529   8.478 -2.5712  1.0332  2.5941
   93MOL0     H12771  11.247   2.370   8.298  1.0812  0.9244  0.8298
   93MOL0     H12772  11.175   2.479   8.184  1.3020 -1.5053 -1.7820
   93MOL0     H12773  11.384   2.632   8.219  0.9149 -0.7439  0.1539
   93MOL0     H12774  11.469   2.497   8.279 -0.5089  1.0058  0.3142
   93MOL0     H12775  11.388   2.357   8.068 -2.5879  0.2270  0.0781
   93MOL0     H12776  11.524   2.480   8.049 -0.0207 -0.0795  2.8082
   93MOL0     H12777  11.234   2.548   8.006  0.8348  2.1120  0.1145
   93MOL0     H12778  11.371   2.641   7.952 -1.4246  0.5892 -0.3174
   93MOL0     H12779  11.312   2.357   7.827  1.5381 -0.8736 -1.6498
   93MOL0     H12780  11.439   2.456   7.786 -0.1832  3.1213  0.6895
   93MOL0     H12781  11.163   2.564   7.789  1.1351  0.7653  1.5692
   93MOL0     H12782  11.307   2.632   7.701  2.9785 -2.0413  0.1594
   93MOL0     H12783  11.028   2.542   7.580  0.3942 -0.6101  1.9761
   93MOL0     H12784  11.076   2.342   7.239  0.1270  3.9438 -1.4291
   93MOL0     H12785  10.961   2.449   7.307  0.9189  0.3471  0.7514
   93MOL0     H12786  10.999   2.187   7.442 -0.2502  4.1486  3.5810
   93MOL0     H12787  10.850   2.281   7.437 -2.8122 -3.0455 -0.3275
   93MOL0     H12788  10.844   2.222   7.178 -2.5077 -2.2109 -0.1406
   93MOL0     H12789  10.984   2.120   7.220 -0.0676 -0.6488  0.7576
   93MOL0     H12790  10.761   2.004   7.204 -0.5363 -0.4763  0.0054
   93MOL0     H12791  10.869   1.974   7.350  0.5026  0.6367  0.0649
   93MOL0     H12792  10.722   1.814   7.375  1.7667  3.9096 -1.3136
   93MOL0     H12793  10.674   1.601   7.427  1.1961  0.8286  0.2151
   93MOL0     H12794  10.509   1.559   7.474  0.5076 -0.4091  1.8018
   93MOL0     H12795  10.635   1.585   7.601  1.1912  3.7724  1.6487
   93MOL0     H12796   9.992   1.735   7.614 -0.7928  0.9401  0.9438
   93MOL0     H12797   9.814   1.638   7.777 -1.2329 -0.8999  1.9600
   93MOL0     H12798   9.977   1.442   8.162  1.4605  3.2567 -0.6521
   93MOL0     H12799   9.942   1.612   8.171  0.2168  1.2571 -0.9443
   93MOL0     H12800   9.737   1.381   8.153  0.5596 -0.1908  1.4861
   93MOL0     H12801   9.782   1.439   8.308  2.0317 -3.7905 -1.4367
   93MOL0     H12802   9.696   1.677   8.174  1.0946  1.0360  3.2217
   93MOL0     H12803   9.603   1.570   8.281  1.6708 -0.8914  0.7608
   93MOL0     H12804   9.509   1.456   8.075  1.3219 -0.1774  0.8252
   93MOL0     H12805   9.609   1.564   7.974  0.3384  2.0953 -0.2842
   93MOL0     H12806   9.392   1.639   8.163  0.0744  0.9779 -0.0183
   93MOL0     H12807   9.501   1.750   8.073  1.7540 -0.8947  0.3086
   93MOL0     H12808   9.327   1.546   7.925  3.0328 -0.7375 -1.2034
   93MOL0     H12809   9.389   1.694   7.869 -1.7068  2.1798  0.7203
   93MOL0     H12810   9.171   1.750   7.899  2.7435 -2.3153 -1.9666
   93MOL0     H12811   9.248   1.821   8.051 -0.6235  0.5074 -1.3584
   93MOL0     H12812   9.030   1.713   8.097 -2.7900 -2.3942 -2.8637
   93MOL0     H12813   9.168   1.622   8.170 -0.3096  2.2588  1.8836
   93MOL0     H12814  10.135   1.569   8.062 -3.2158 -1.3749  0.0070
   93MOL0     H12815  10.284   1.698   7.915  0.3856 -1.4870 -1.1585
   93MOL0     H12816  10.382   1.966   7.703 -0.1677  0.1028 -1.3774
   93MOL0     H12817  10.516   2.133   7.590 -2.0365  0.1575  0.0465
   93MOL0     H12818  10.812   2.447   8.406 -5.5952 -2.4303 -1.0429
   93MOL0     H12819  10.596   2.405   8.471  3.1305 -4.3620 -0.2108
   93MOL0     H12820  10.220   2.351   8.728  0.6339 -0.7226  0.4509
   93MOL0     H12821  10.024   2.350   8.870  2.7898 -2.1775  0.3260
   93MOL0     H12822   9.915   2.772   9.028  0.5102  0.9972  1.0042
   93MOL0     H12823   9.771   2.672   9.021 -1.4115  1.8986  3.3059
   93MOL0     H12824   9.960   2.655   9.237 -0.0278 -2.8325 -0.9968
   93MOL0     H12825   9.810   2.577   9.248 -1.9342  1.2072  0.0858
   93MOL0     H12826   9.721   2.812   9.201  0.8736 -0.2581 -0.6743
   93MOL0     H12827   9.724   2.737   9.361 -1.0931 -1.3592 -1.0152
   93MOL0     H12828   9.924   2.875   9.423 -1.3315 -1.3190  0.7496
   93MOL0     H12829   9.797   2.985   9.389 -0.8298  1.1913 -1.0526
   93MOL0     H12830  10.040   3.097   9.064 -0.5992  3.1787  1.8659
   93MOL0     H12831  10.140   2.732   9.044 -1.5609 -0.1943  1.0624
   93MOL0     H12832  10.418   2.788   8.869 -2.8510  1.1950  0.1121
   93MOL0     H12833  10.369   2.790   9.043 -0.1941 -1.2706  1.1264
   93MOL0     H12834  10.474   2.662   8.976 -0.0522 -0.5421 -2.5822
   94MOL0     O12835   1.226   3.324   7.658 -0.7254 -0.6525 -0.2842
   94MOL0     C12836   1.165   3.419   7.691 -0.5333 -0.4030 -0.5114
   94MOL0     O12837   1.200   3.562   7.665 -0.7304 -0.0118 -0.2119
   94MOL0     C12838   1.327   3.590   7.652 -0.1616  0.2521 -0.6710
   94MOL0     C12839   1.393   3.603   7.528  1.7719  0.3089 -0.1695
   94MOL0     C12840   1.525   3.643   7.520 -0.7353 -0.2156 -0.5991
   94MOL0     C12841   1.601   3.683   7.628 -0.0430  0.7884  0.6888
   94MOL0     O12842   1.732   3.729   7.616  0.2842 -0.5091  0.1049
   94MOL0     C12843   1.794   3.814   7.717 -1.1315 -0.3142  0.3651
   94MOL0     C12844   1.883   3.724   7.805 -0.5488  0.0092  0.3797
   94MOL0     C12845   2.007   3.671   7.737  0.1092 -1.5073 -0.0612
   94MOL0     C12846   1.977   3.560   7.633  0.5588 -0.7573 -0.2990
   94MOL0     C12847   2.112   3.502   7.592 -0.4036 -0.1905 -0.0223
   94MOL0     C12848   2.090   3.375   7.506  0.0177  0.1015  1.1327
   94MOL0     C12849   2.220   3.307   7.453  0.3786  0.1733  0.5899
   94MOL0     C12850   2.210   3.163   7.393 -0.3843 -0.2963 -0.3094
   94MOL0     N12851   2.197   3.056   7.486  0.5643 -0.1748 -0.1905
   94MOL0     C12852   2.089   3.033   7.557  0.3687  0.3398  0.1976
   94MOL0     C12853   2.104   2.918   7.617 -0.0249  0.4463 -0.5760
   94MOL0     C12854   2.016   2.838   7.715  0.4895  0.5186  0.1979
   94MOL0     C12855   2.044   2.890   7.853 -0.5488 -0.3516  1.1239
   94MOL0     C12856   1.967   2.808   7.952 -0.2273 -0.3779  0.1586
   94MOL0     C12857   1.993   2.872   8.083 -0.6744 -0.3673 -0.4058
   94MOL0     O12858   1.948   2.789   8.193 -1.1544  0.2000 -0.3188
   94MOL0     C12859   2.033   2.705   8.256 -0.2502  0.0350  0.4403
   94MOL0     C12860   2.171   2.701   8.226 -0.4438 -0.6605 -0.0313
   94MOL0     C12861   2.259   2.623   8.299  0.4086 -0.8262  0.7768
   94MOL0     C12862   2.404   2.628   8.253 -0.2986  0.0875 -0.2506
   94MOL0     C12863   2.213   2.554   8.410 -0.3958  1.0243 -0.0738
   94MOL0     C12864   2.298   2.472   8.502 -0.7096 -0.6757  0.0602
   94MOL0     O12865   2.429   2.517   8.526  0.8738  0.2845  0.1326
   94MOL0     C12866   2.520   2.451   8.605 -0.5049  0.9556  0.2565
   94MOL0     C12867   2.472   2.408   8.732 -0.4570 -0.8576 -0.5631
   94MOL0     C12868   2.561   2.334   8.807 -0.5116  0.1063 -0.4567
   94MOL0     C12869   2.693   2.307   8.766 -0.7973 -0.6925  0.5019
   94MOL0     O12870   2.766   2.214   8.830 -0.0162 -0.4318  0.0885
   94MOL0     C12871   2.730   2.081   8.813 -0.6605  0.3800  0.0216
   94MOL0     C12872   2.851   1.995   8.806 -0.1380  0.2850 -0.6115
   94MOL0     C12873   2.929   1.995   8.671  1.0106  0.2137 -0.1324
   94MOL0     C12874   3.063   1.933   8.707 -0.2409  0.3171  0.1720
   94MOL0     C12875   3.147   1.913   8.579  0.2866 -1.2963  0.1880
   94MOL0     C12876   3.255   1.799   8.595  0.7733 -0.3382  0.0637
   94MOL0     C12877   3.337   1.782   8.468 -0.3188 -0.4671  0.1798
   94MOL0     C12878   3.435   1.659   8.478  0.3409  0.2504 -0.4448
   94MOL0    Cl12879   3.542   1.689   8.627  0.2264 -0.8077 -0.0921
   94MOL0     C12880   2.731   2.352   8.633  0.1719  0.0281  0.1071
   94MOL0     C12881   2.646   2.426   8.557 -0.4292  0.0499 -0.4326
   94MOL0     O12882   2.251   2.365   8.544  0.2955 -0.8702 -0.0943
   94MOL0     C12883   2.079   2.547   8.438 -0.3571  0.2701 -0.7824
   94MOL0     C12884   1.996   2.621   8.359  1.0313  0.8596 -0.0989
   94MOL0     N12885   2.228   2.862   7.574 -0.4375 -0.2859  0.1528
   94MOL0     N12886   2.279   2.947   7.495  0.7083  0.1146  0.3166
   94MOL0     C12887   1.534   3.670   7.760 -0.3274 -0.2385 -0.5173
   94MOL0     C12888   1.391   3.632   7.768 -0.3885 -0.2348  0.8697
   94MOL0     C12889   1.031   3.388   7.747 -0.3124 -0.4278  0.7729
   94MOL0     C12890   0.933   3.492   7.731  0.2294  0.1556 -0.2362
   94MOL0     C12891   0.810   3.462   7.774  0.9322 -0.0190 -0.2798
   94MOL0     C12892   0.770   3.350   7.840 -0.4180 -0.7076 -0.4579
   94MOL0     O12893   0.651   3.337   7.899 -0.3429 -0.3056  0.8497
   94MOL0     C12894   0.554   3.270   7.817  0.4665 -0.3478 -0.3913
   94MOL0     C12895   0.423   3.340   7.847  0.6410 -0.1448  0.3349
   94MOL0     C12896   0.403   3.477   7.772  1.4647  0.9868 -0.1741
   94MOL0     C12897   0.270   3.536   7.829  0.7230 -0.1827  0.5759
   94MOL0     C12898   0.235   3.653   7.749 -0.0146 -1.2755  0.8275
   94MOL0     C12899   0.201   3.746   7.676  0.7516 -0.3759 -0.4737
   94MOL0     C12900   0.867   3.253   7.865  0.0515 -0.8012 -0.0888
   94MOL0     C12901   1.004   3.277   7.824  0.5637  0.1207 -0.6512
   94MOL0     C12902   1.110   3.182   7.879  0.4824 -0.3043 -0.9040
   94MOL0     H12903   1.341   3.578   7.437  2.4539  2.0871 -1.1063
   94MOL0     H12904   1.572   3.649   7.423  0.7384  1.0440  0.1539
   94MOL0     H12905   1.721   3.860   7.784  1.0165  1.7748  1.4168
   94MOL0     H12906   1.850   3.895   7.671  0.9939 -2.6145 -1.3574
   94MOL0     H12907   1.930   3.788   7.881  2.4251  0.4660 -1.6313
   94MOL0     H12908   1.823   3.646   7.851  1.3470 -0.0437  2.9652
   94MOL0     H12909   2.051   3.755   7.682  1.9701 -1.3628  1.5333
   94MOL0     H12910   2.086   3.642   7.806  2.0304  0.1443 -1.4528
   94MOL0     H12911   1.908   3.490   7.681  1.3527 -0.4753  1.3129
   94MOL0     H12912   1.925   3.599   7.545  0.5880 -2.1387 -0.9354
   94MOL0     H12913   2.174   3.491   7.681 -0.2199  1.0421  0.0162
   94MOL0     H12914   2.170   3.554   7.516 -0.5823 -1.7855 -1.3131
   94MOL0     H12915   2.029   3.308   7.567 -0.1822 -0.7357  0.0569
   94MOL0     H12916   2.026   3.398   7.420 -0.5689  2.2292  2.0784
   94MOL0     H12917   2.291   3.299   7.536  0.3224 -1.3070  0.5180
   94MOL0     H12918   2.268   3.380   7.387  0.1664  1.0440  1.3669
   94MOL0     H12919   2.127   3.148   7.323 -0.6798 -1.4260  0.2667
   94MOL0     H12920   2.300   3.154   7.332 -0.1445 -2.8111  0.3140
   94MOL0     H12921   1.992   3.080   7.551 -0.0167 -0.3589  0.8153
   94MOL0     H12922   2.029   2.730   7.708  1.9338  0.5120  2.0949
   94MOL0     H12923   1.909   2.856   7.704  0.0605 -1.8237  0.0736
   94MOL0     H12924   2.153   2.886   7.858 -0.5717 -2.6344  1.0453
   94MOL0     H12925   2.006   2.993   7.859  1.8739  0.7670 -0.8973
   94MOL0     H12926   1.860   2.799   7.927 -0.5274 -3.3662  1.9583
   94MOL0     H12927   2.015   2.710   7.954  2.9673  1.0044 -1.6456
   94MOL0     H12928   2.096   2.909   8.079  0.8527 -3.6013  2.9621
   94MOL0     H12929   1.933   2.963   8.086 -2.3566 -1.4447 -0.1740
   94MOL0     H12930   2.210   2.764   8.147  1.0502  0.8115  1.7838
   94MOL0     H12931   2.410   2.632   8.144 -0.4834  0.3392 -0.2530
   94MOL0     H12932   2.455   2.531   8.261  1.7658  0.9358 -2.1642
   94MOL0     H12933   2.459   2.706   8.306 -1.3514 -0.2096  1.3482
   94MOL0     H12934   2.374   2.439   8.768  1.1448  0.5205  3.0516
   94MOL0     H12935   2.525   2.283   8.896 -0.7597 -0.5990 -0.9526
   94MOL0     H12936   2.678   2.048   8.903 -0.2584 -1.1876 -0.2828
   94MOL0     H12937   2.671   2.056   8.724 -0.1042 -3.2020  0.5149
   94MOL0     H12938   2.921   2.036   8.880 -0.4333  2.0423 -1.2467
   94MOL0     H12939   2.823   1.892   8.830 -1.9497  1.1127  1.1779
   94MOL0     H12940   2.940   2.097   8.633 -2.8712  0.0557 -2.1564
   94MOL0     H12941   2.870   1.937   8.599  0.9208 -1.2755  1.0896
   94MOL0     H12942   3.048   1.835   8.753  0.7952  0.8377  1.6993
   94MOL0     H12943   3.128   1.997   8.767 -0.8472  1.0238  0.0927
   94MOL0     H12944   3.085   1.886   8.492 -0.2599 -0.9835  0.4716
   94MOL0     H12945   3.191   2.008   8.547 -1.5993  0.7532  3.1799
   94MOL0     H12946   3.209   1.701   8.615 -1.5715  1.1787  2.8276
   94MOL0     H12947   3.319   1.817   8.681  0.9492  1.2513 -0.3775
   94MOL0     H12948   3.413   1.858   8.448  1.3243 -1.9479  0.5222
   94MOL0     H12949   3.278   1.758   8.379  2.6150 -0.8132 -1.8113
   94MOL0     H12950   3.501   1.655   8.391  0.5047 -3.1880 -0.2920
   94MOL0     H12951   3.376   1.568   8.490  0.3097  0.3316  0.0633
   94MOL0     H12952   2.833   2.335   8.600  1.0452  1.1698  2.0769
   94MOL0     H12953   2.694   2.464   8.468  2.2270  1.8072  1.5825
   94MOL0     H12954   2.030   2.485   8.512 -1.0303  2.3153  0.5663
   94MOL0     H12955   1.892   2.616   8.391  0.0191  0.6512 -3.1483
   94MOL0     H12956   1.592   3.703   7.845 -0.4907  1.1768 -0.9232
   94MOL0     H12957   1.335   3.626   7.861 -1.6552  0.5869  0.1858
   94MOL0     H12958   0.952   3.589   7.686 -1.1094  0.1492 -0.8960
   94MOL0     H12959   0.731   3.537   7.771 -0.4836 -1.4296  0.3437
   94MOL0     H12960   0.569   3.287   7.710 -0.6434  1.6456 -0.2741
   94MOL0     H12961   0.545   3.165   7.847  0.9164  0.1767  1.7375
   94MOL0     H12962   0.414   3.359   7.954  0.6146 -0.1043  0.3255
   94MOL0     H12963   0.345   3.269   7.820 -0.7877  0.4978  2.4821
   94MOL0     H12964   0.495   3.534   7.783  4.2530 -3.2845  0.9321
   94MOL0     H12965   0.405   3.470   7.663  1.6781  0.3246 -0.1333
   94MOL0     H12966   0.291   3.567   7.932  2.0924 -1.1140  0.6077
   94MOL0     H12967   0.184   3.469   7.832  0.6741 -0.1688 -0.3384
   94MOL0     H12968   0.194   3.825   7.604  1.0756  2.0272  1.9377
   94MOL0     H12969   0.834   3.161   7.912 -3.8658  0.7194  0.4519
   94MOL0     H12970   1.059   3.097   7.924 -3.0667  2.3333  0.5259
   94MOL0     H12971   1.175   3.136   7.804  0.3734  0.4056 -1.4498
   94MOL0     H12972   1.164   3.228   7.962  0.9261 -1.7735 -0.3551
   95MOL0     O12973   7.917   0.529   5.945 -0.3058  0.2224 -0.2486
   95MOL0     C12974   7.836   0.433   5.955  0.1185  0.1041  0.4748
   95MOL0     O12975   7.823   0.354   6.069  1.0071 -0.5790 -0.3220
   95MOL0     C12976   7.869   0.393   6.193 -0.0408  0.2601  0.3525
   95MOL0     C12977   7.787   0.358   6.302 -1.2080 -0.4351  0.9675
   95MOL0     C12978   7.807   0.411   6.426 -0.7396  0.0549 -0.5936
   95MOL0     C12979   7.927   0.480   6.461  0.0444  0.7900 -0.8089
   95MOL0     O12980   7.955   0.510   6.595  0.7316 -0.1742  0.1054
   95MOL0     C12981   8.013   0.643   6.617 -0.2655  0.0561  0.4479
   95MOL0     C12982   7.997   0.683   6.768  0.1329  0.9297  0.5196
   95MOL0     C12983   7.855   0.723   6.803 -0.6245  0.0469 -0.7442
   95MOL0     C12984   7.822   0.723   6.952 -0.4771  0.9811  0.5376
   95MOL0     C12985   7.735   0.848   7.001  0.4273  0.3882  0.4660
   95MOL0     C12986   7.596   0.833   6.941  0.0590 -0.0712  0.2941
   95MOL0     C12987   7.511   0.952   6.963  0.3703  0.6093 -0.2002
   95MOL0     C12988   7.381   0.954   6.882 -1.0684  0.5792  0.3232
   95MOL0     N12989   7.322   1.086   6.887  0.6061  0.1203 -0.0058
   95MOL0     C12990   7.364   1.197   6.814 -0.3957  0.0764  1.0555
   95MOL0     C12991   7.277   1.299   6.838  0.3976  0.8740  0.1948
   95MOL0     C12992   7.274   1.430   6.763  0.8189 -0.7130 -0.0019
   95MOL0     C12993   7.133   1.452   6.694 -0.3549  0.7447  0.0314
   95MOL0     C12994   7.026   1.501   6.795  0.2211  0.1391 -0.2049
   95MOL0     C12995   6.892   1.534   6.724  0.7881 -0.2635 -0.8078
   95MOL0     O12996   6.882   1.676   6.705 -0.5115  0.4867 -0.3854
   95MOL0     C12997   6.777   1.724   6.629  0.3259 -0.0672  0.8985
   95MOL0     C12998   6.785   1.846   6.570  0.1498 -1.1203 -0.2464
   95MOL0     C12999   6.672   1.917   6.513 -1.7615  0.8818  0.6039
   95MOL0     C13000   6.691   2.065   6.476 -0.5647 -0.1544 -0.4672
   95MOL0     C13001   6.547   1.845   6.499 -0.3135  0.7124 -0.6795
   95MOL0     C13002   6.428   1.906   6.438  0.3328  0.1845  0.6777
   95MOL0     O13003   6.323   1.815   6.444  0.3829 -0.3415 -1.3495
   95MOL0     C13004   6.201   1.859   6.403 -0.4482 -0.5121 -0.0184
   95MOL0     C13005   6.121   1.957   6.460  0.2045 -0.0276 -0.0762
   95MOL0     C13006   5.993   1.995   6.420  0.2724  0.0583  0.2508
   95MOL0     C13007   5.943   1.920   6.313  1.1187 -0.1322 -0.0116
   95MOL0     O13008   5.826   1.947   6.259  0.2467 -0.3393 -0.1643
   95MOL0     C13009   5.750   2.070   6.281 -0.9622  0.7745  0.0442
   95MOL0     C13010   5.631   2.090   6.199  0.5775 -0.3242 -0.0782
   95MOL0     C13011   5.523   1.994   6.228 -1.0814  0.1721 -0.2187
   95MOL0     C13012   5.403   2.019   6.131 -0.1429  0.4221 -0.5247
   95MOL0     C13013   5.283   1.959   6.200  0.2117  0.4133 -0.6333
   95MOL0     C13014   5.159   1.970   6.115 -0.3588 -0.5179 -0.5122
   95MOL0     C13015   5.085   2.103   6.103 -0.1153 -0.6403 -0.3593
   95MOL0     C13016   4.964   2.087   6.001  0.0487 -0.9986  0.1685
   95MOL0    Cl13017   4.862   1.952   6.050 -0.0900 -0.1325 -0.1218
   95MOL0     C13018   6.019   1.815   6.255 -0.4958 -0.4463 -0.0855
   95MOL0     C13019   6.146   1.788   6.294 -0.0723  0.0461  0.1159
   95MOL0     O13020   6.424   2.013   6.380 -0.0699  0.3116  0.4789
   95MOL0     C13021   6.545   1.712   6.558  0.8425  0.1971 -0.1778
   95MOL0     C13022   6.651   1.658   6.622 -0.7737 -0.1290  0.0775
   95MOL0     N13023   7.188   1.249   6.931  0.3276  0.3170 -1.3916
   95MOL0     N13024   7.226   1.133   6.975 -0.2532  0.2522 -0.9717
   95MOL0     C13025   8.017   0.500   6.356  0.0992 -0.0422 -0.2475
   95MOL0     C13026   7.981   0.462   6.220  0.3715  0.1674 -0.1021
   95MOL0     C13027   7.742   0.406   5.839 -0.2636  0.3026 -0.1026
   95MOL0     C13028   7.653   0.295   5.865  0.2062  0.0427 -0.7505
   95MOL0     C13029   7.554   0.260   5.777  0.3113 -0.1714  0.0588
   95MOL0     C13030   7.538   0.329   5.657 -0.3981  0.7217 -0.1701
   95MOL0     O13031   7.445   0.288   5.572  0.9276  0.1239 -0.1390
   95MOL0     C13032   7.374   0.386   5.494  0.1355 -0.2818 -0.1990
   95MOL0     C13033   7.224   0.364   5.492  0.3792 -0.0835 -0.1533
   95MOL0     C13034   7.146   0.353   5.623  0.5905 -0.4726 -0.1794
   95MOL0     C13035   7.001   0.302   5.591  0.0927  0.4390  0.4087
   95MOL0     C13036   6.915   0.307   5.712 -0.3011 -0.2673  0.2055
   95MOL0     C13037   6.849   0.328   5.810  1.0869 -0.0444 -0.3069
   95MOL0     C13038   7.630   0.434   5.628  0.8380 -0.5436 -0.4804
   95MOL0     C13039   7.735   0.471   5.716 -0.4509 -0.0737  0.8264
   95MOL0     C13040   7.840   0.559   5.665  0.3558 -1.3791  0.3805
   95MOL0     H13041   7.700   0.299   6.277 -0.1943 -1.0862 -1.2850
   95MOL0     H13042   7.745   0.368   6.504 -4.2403 -0.4617 -3.3825
   95MOL0     H13043   7.954   0.711   6.555 -0.2002 -0.5603 -0.3001
   95MOL0     H13044   8.115   0.642   6.578 -1.3399  0.3413 -2.6440
   95MOL0     H13045   8.028   0.590   6.817 -1.7908 -0.3998 -0.6386
   95MOL0     H13046   8.066   0.762   6.799  1.2525 -0.3859  1.5334
   95MOL0     H13047   7.842   0.827   6.770 -1.3401  0.4671  0.7537
   95MOL0     H13048   7.779   0.674   6.742 -2.5904  0.7220  1.0382
   95MOL0     H13049   7.784   0.631   6.998  3.2738 -1.3453 -0.5217
   95MOL0     H13050   7.914   0.726   7.012  0.1043  2.8533 -0.3743
   95MOL0     H13051   7.781   0.944   6.978 -0.9132  0.7312 -0.9175
   95MOL0     H13052   7.721   0.852   7.110 -1.9700  2.6443  0.1717
   95MOL0     H13053   7.598   0.815   6.833  1.3368  3.7218 -0.4760
   95MOL0     H13054   7.542   0.756   6.997 -2.1696  3.1150  3.0105
   95MOL0     H13055   7.578   1.031   6.927  0.3851 -0.7273 -3.3922
   95MOL0     H13056   7.483   0.962   7.068  1.4596 -1.8313  0.4000
   95MOL0     H13057   7.415   0.929   6.781 -2.2079 -1.9068  0.5072
   95MOL0     H13058   7.307   0.880   6.911  1.9719 -3.3373 -0.9968
   95MOL0     H13059   7.441   1.195   6.738 -1.3051 -2.3537  0.1060
   95MOL0     H13060   7.363   1.457   6.706  1.5096  2.0988  2.2022
   95MOL0     H13061   7.290   1.509   6.837 -1.0099  0.2761 -0.6292
   95MOL0     H13062   7.133   1.518   6.607  0.1050  1.3770  0.5131
   95MOL0     H13063   7.108   1.361   6.638  2.4591  1.8274 -3.4078
   95MOL0     H13064   7.017   1.427   6.875 -0.0528  0.3522 -0.0369
   95MOL0     H13065   7.071   1.588   6.845  0.0192 -1.3912  2.8795
   95MOL0     H13066   6.883   1.481   6.628  1.1353 -3.5556  0.8483
   95MOL0     H13067   6.813   1.497   6.790 -1.5339  1.0548 -2.6431
   95MOL0     H13068   6.876   1.903   6.587 -1.0053  1.2479 -1.6014
   95MOL0     H13069   6.798   2.088   6.485 -0.9117  0.8515  1.8307
   95MOL0     H13070   6.631   2.137   6.532 -0.5580 -0.5000 -0.0082
   95MOL0     H13071   6.683   2.067   6.367 -2.0610 -2.7782 -0.4990
   95MOL0     H13072   6.154   2.001   6.554 -3.2831 -1.4791  2.0369
   95MOL0     H13073   5.934   2.073   6.467  1.8591  2.1349 -0.9842
   95MOL0     H13074   5.717   2.074   6.385 -1.3541 -1.9320  0.1058
   95MOL0     H13075   5.821   2.149   6.254  1.1019 -1.8971 -3.2693
   95MOL0     H13076   5.592   2.188   6.231  1.1821  0.4916 -1.6988
   95MOL0     H13077   5.658   2.097   6.093  1.6871 -0.3762  0.1929
   95MOL0     H13078   5.497   2.011   6.333  1.6919 -0.5095  0.6609
   95MOL0     H13079   5.567   1.894   6.223 -0.7345  0.0144  3.4124
   95MOL0     H13080   5.415   1.962   6.038  0.9299  0.9931 -0.7507
   95MOL0     H13081   5.382   2.126   6.120 -3.4897  0.0060  0.6403
   95MOL0     H13082   5.316   1.859   6.229 -2.2429  0.3931  2.7640
   95MOL0     H13083   5.264   2.008   6.296 -3.7177 -0.0717 -0.9958
   95MOL0     H13084   5.095   1.903   6.172  0.4424 -0.1933  0.8249
   95MOL0     H13085   5.176   1.931   6.014  0.0185 -3.1840  0.5203
   95MOL0     H13086   5.147   2.182   6.060 -2.0978  0.7833 -0.7069
   95MOL0     H13087   5.060   2.139   6.203 -1.1599 -0.3521 -0.7117
   95MOL0     H13088   4.996   2.073   5.897  0.4481 -2.6990  0.4749
   95MOL0     H13089   4.904   2.177   5.986  1.9697  0.4507  0.7186
   95MOL0     H13090   5.979   1.766   6.167 -0.1548  0.5208 -0.7890
   95MOL0     H13091   6.205   1.716   6.238  4.1309 -0.0682  4.1837
   95MOL0     H13092   6.458   1.647   6.563 -0.7187  2.2763  3.4469
   95MOL0     H13093   6.646   1.560   6.669 -0.0484 -0.4026 -0.3950
   95MOL0     H13094   8.113   0.544   6.379 -0.2448 -0.1721  1.5300
   95MOL0     H13095   8.045   0.490   6.137  0.0556 -2.3145 -1.2667
   95MOL0     H13096   7.653   0.239   5.958 -0.3344  0.5354 -0.4498
   95MOL0     H13097   7.494   0.171   5.795  0.7137 -0.4856 -0.1371
   95MOL0     H13098   7.395   0.490   5.520  0.0232 -0.0802 -0.8850
   95MOL0     H13099   7.412   0.376   5.391 -2.6762 -0.9138 -1.2700
   95MOL0     H13100   7.200   0.272   5.437 -2.5852  0.0671  0.7179
   95MOL0     H13101   7.177   0.446   5.436 -2.0887 -2.0273 -1.1813
   95MOL0     H13102   7.191   0.292   5.702 -0.9587 -0.3277  0.8586
   95MOL0     H13103   7.135   0.454   5.662  1.6505 -0.9128  1.3462
   95MOL0     H13104   7.007   0.199   5.555  2.6663  0.2696  1.0825
   95MOL0     H13105   6.949   0.364   5.518 -2.3717 -1.1810  0.6628
   95MOL0     H13106   6.796   0.326   5.903 -3.0002 -1.7988 -2.4169
   95MOL0     H13107   7.619   0.492   5.537 -0.1922  0.3411  0.1822
   95MOL0     H13108   7.834   0.592   5.561 -1.3340 -1.9270  0.2586
   95MOL0     H13109   7.836   0.647   5.730  0.2867 -0.5720 -0.7089
   95MOL0     H13110   7.939   0.514   5.676  0.1688 -1.8239  0.2632
   96MOL0     O13111  10.845   0.107  10.971 -0.0383 -0.1722 -0.7606
   96MOL0     C13112  10.798   0.216  10.994  0.3560  0.6758 -0.0040
   96MOL0     O13113  10.662   0.236  11.012  0.2447  0.5852  0.1021
   96MOL0     C13114  10.563   0.145  10.978  0.0112 -0.8296  0.2469
   96MOL0     C13115  10.428   0.184  11.004  0.0345 -0.2516 -0.2019
   96MOL0     C13116  10.314   0.108  10.966 -0.3022  0.8051  0.4317
   96MOL0     C13117  10.337  -0.009  10.892  0.2668 -0.6436 -0.5941
   96MOL0     O13118  10.226  -0.075  10.844 -0.1661  0.6041  0.3974
   96MOL0     C13119  10.108  -0.007  10.818  0.4086 -0.4126  0.1357
   96MOL0     C13120  10.033  -0.084  10.715 -0.6098  0.4591  0.1265
   96MOL0     C13121   9.974  -0.213  10.773  0.5116  0.3578 -0.0883
   96MOL0     C13122   9.887  -0.284  10.669 -0.0070 -0.0069 -0.0281
   96MOL0     C13123   9.753  -0.349  10.724  0.4277 -0.8385 -0.7467
   96MOL0     C13124   9.788  -0.477  10.793  0.5227 -0.3742  0.3607
   96MOL0     C13125   9.664  -0.570  10.802  0.7026  0.4441  0.3037
   96MOL0     C13126   9.684  -0.684  10.913  0.1657 -0.4652  0.2311
   96MOL0     N13127   9.617  -0.632  11.033  0.6465  0.1893  0.4008
   96MOL0     C13128   9.667  -0.653  11.162 -0.8447 -1.0008  0.1471
   96MOL0     C13129   9.555  -0.628  11.232  0.4043  0.3590 -0.4108
   96MOL0     C13130   9.523  -0.647  11.386 -0.2641  0.8634  0.6901
   96MOL0     C13131   9.653  -0.594  11.458  0.1156 -0.2938 -0.0098
   96MOL0     C13132   9.642  -0.613  11.612  0.8600 -0.9619 -0.4938
   96MOL0     C13133   9.767  -0.586  11.693 -0.1863  0.0174 -0.4662
   96MOL0     O13134   9.832  -0.712  11.695  0.4979  0.4673  0.1022
   96MOL0     C13135   9.943  -0.735  11.779 -0.8191 -1.2601  0.2971
   96MOL0     C13136   9.974  -0.641  11.881  0.0591  0.0552  0.7170
   96MOL0     C13137  10.095  -0.658  11.957  0.3100  0.3937  0.1078
   96MOL0     C13138  10.135  -0.541  12.033 -0.3250  0.4407 -0.5358
   96MOL0     C13139  10.186  -0.758  11.926  0.2853 -0.3258 -0.5798
   96MOL0     C13140  10.319  -0.768  11.984 -0.0308 -0.3399 -0.1350
   96MOL0     O13141  10.412  -0.838  11.908 -0.8765 -0.8436  0.3734
   96MOL0     C13142  10.543  -0.848  11.949  0.1987  0.3327  0.5146
   96MOL0     C13143  10.634  -0.741  11.948  0.8077  1.1151 -0.3255
   96MOL0     C13144  10.766  -0.769  11.982  0.7576 -0.1394  0.1960
   96MOL0     C13145  10.806  -0.898  12.019  0.7805  0.8431  0.0605
   96MOL0     O13146  10.931  -0.941  12.056 -0.3493  0.2926 -0.0585
   96MOL0     C13147  11.026  -0.839  12.076 -0.8890 -0.3437 -0.1196
   96MOL0     C13148  11.152  -0.916  12.109  0.3783  0.6571 -0.6416
   96MOL0     C13149  11.273  -0.831  12.132  0.1241 -0.2143  0.1809
   96MOL0     C13150  11.404  -0.893  12.089  0.2790  0.5376  0.4946
   96MOL0     C13151  11.526  -0.801  12.097 -0.4673 -0.0244 -0.1838
   96MOL0     C13152  11.652  -0.887  12.071  0.7294 -0.8073 -0.0635
   96MOL0     C13153  11.780  -0.805  12.044  0.0113  0.8173 -0.4594
   96MOL0     C13154  11.909  -0.876  12.063  0.4483  0.3071 -0.7939
   96MOL0    Cl13155  11.993  -0.823  12.210 -0.1276  0.2499 -0.2874
   96MOL0     C13156  10.710  -1.002  12.015 -0.5630 -0.4880 -0.3508
   96MOL0     C13157  10.578  -0.974  11.984  0.7466 -0.6962 -0.4369
   96MOL0     O13158  10.340  -0.724  12.096 -0.3247  0.2562  0.6208
   96MOL0     C13159  10.147  -0.855  11.829  0.4478  0.2316  0.1802
   96MOL0     C13160  10.023  -0.845  11.761 -0.1759 -0.5015 -0.3025
   96MOL0     N13161   9.441  -0.604  11.155  0.2516  0.0273  0.2900
   96MOL0     N13162   9.481  -0.593  11.037 -0.8569  0.5299  0.2572
   96MOL0     C13163  10.461  -0.062  10.878 -1.0512 -0.2685  0.6977
   96MOL0     C13164  10.576   0.014  10.918 -0.8068  0.0291  0.5680
   96MOL0     C13165  10.886   0.326  11.022  0.0047 -1.0933 -0.7245
   96MOL0     C13166  10.855   0.417  11.123  0.5603 -0.1671 -0.4044
   96MOL0     C13167  10.922   0.536  11.152 -0.4130  0.1773  1.0433
   96MOL0     C13168  11.036   0.564  11.080  0.7107  0.5679  1.0788
   96MOL0     O13169  11.099   0.681  11.108  0.3680 -0.0099  0.4794
   96MOL0     C13170  11.242   0.700  11.074 -0.7876 -0.7072  0.0693
   96MOL0     C13171  11.302   0.789  11.186 -0.4661  0.3115  0.0800
   96MOL0     C13172  11.460   0.799  11.188  0.2294  0.1575 -0.0001
   96MOL0     C13173  11.493   0.879  11.313  0.3223  0.0075  1.1574
   96MOL0     C13174  11.631   0.937  11.326 -0.6724  0.2902  0.4584
   96MOL0     C13175  11.740   0.978  11.353 -0.3241 -0.5350  0.2986
   96MOL0     C13176  11.084   0.476  10.977 -0.3320  0.2633 -0.1559
   96MOL0     C13177  11.010   0.358  10.950  0.0882  0.5285  0.6038
   96MOL0     C13178  11.067   0.257  10.852 -0.6648  0.7027  0.1577
   96MOL0     H13179  10.409   0.282  11.047 -4.3086 -1.3080  0.7835
   96MOL0     H13180  10.214   0.144  10.990  0.6299  0.9051  5.2740
   96MOL0     H13181  10.131   0.092  10.777  1.5796 -0.9778 -0.6166
   96MOL0     H13182  10.049   0.031  10.902 -0.1760  3.1993 -1.7007
   96MOL0     H13183   9.947  -0.029  10.676 -0.8414  0.4263  0.5840
   96MOL0     H13184  10.111  -0.100  10.640 -0.2993  0.4829  0.4462
   96MOL0     H13185  10.046  -0.289  10.805 -0.5746 -0.3477  0.7455
   96MOL0     H13186   9.918  -0.181  10.861  2.9162 -0.9925  2.0769
   96MOL0     H13187   9.859  -0.203  10.601 -0.0950 -0.4148 -0.4794
   96MOL0     H13188   9.950  -0.345  10.605  0.3047  2.5720 -2.3509
   96MOL0     H13189   9.683  -0.365  10.642 -2.4259 -0.6302  1.5076
   96MOL0     H13190   9.688  -0.279  10.777 -0.1426  0.3484 -2.8773
   96MOL0     H13191   9.868  -0.528  10.739  2.4495  1.9432  0.8165
   96MOL0     H13192   9.816  -0.458  10.897 -0.2913  1.5925  0.2662
   96MOL0     H13193   9.645  -0.625  10.709  1.7518 -1.7542  1.3017
   96MOL0     H13194   9.576  -0.505  10.810 -0.2759 -0.3178 -2.8449
   96MOL0     H13195   9.640  -0.782  10.892 -2.3937 -0.3607  4.1456
   96MOL0     H13196   9.790  -0.694  10.940 -0.1857 -0.2397  1.7536
   96MOL0     H13197   9.768  -0.683  11.187 -0.8431  0.3972  1.9752
   96MOL0     H13198   9.504  -0.753  11.405 -1.3052  0.9078 -0.0088
   96MOL0     H13199   9.439  -0.587  11.422  0.7395  0.9204  3.1174
   96MOL0     H13200   9.743  -0.649  11.427  1.5274  2.4980 -1.2087
   96MOL0     H13201   9.662  -0.488  11.436  0.5029 -0.3862 -0.3029
   96MOL0     H13202   9.579  -0.526  11.635  2.4330  0.2275 -0.4722
   96MOL0     H13203   9.594  -0.703  11.650 -1.8968  0.7288  0.3354
   96MOL0     H13204   9.830  -0.514  11.640  2.3480 -0.4924  1.6571
   96MOL0     H13205   9.732  -0.552  11.791  3.2994 -0.7323  1.1992
   96MOL0     H13206   9.914  -0.551  11.884  0.4320  0.4377 -1.4626
   96MOL0     H13207  10.243  -0.521  12.037 -0.5327  1.3591  0.8367
   96MOL0     H13208  10.105  -0.559  12.137  0.3821 -0.6288 -0.4958
   96MOL0     H13209  10.082  -0.453  11.996 -1.4273  0.1746  0.3737
   96MOL0     H13210  10.612  -0.645  11.903 -3.4426  1.2322  1.5253
   96MOL0     H13211  10.830  -0.683  11.965 -0.0731  0.4999  0.2541
   96MOL0     H13212  11.057  -0.780  11.990  1.6742 -0.1786  0.8220
   96MOL0     H13213  11.002  -0.773  12.159  1.3372 -1.4470  1.5107
   96MOL0     H13214  11.146  -0.980  12.197  1.3218  1.9487  0.4029
   96MOL0     H13215  11.162  -0.980  12.020  2.2737 -0.4405  0.3022
   96MOL0     H13216  11.282  -0.793  12.234  0.3864 -0.5722  0.2910
   96MOL0     H13217  11.276  -0.749  12.059  1.5131  0.7212  1.2259
   96MOL0     H13218  11.397  -0.933  11.987  0.1739  1.5162  0.1055
   96MOL0     H13219  11.422  -0.971  12.164  2.9515  0.6947  0.0961
   96MOL0     H13220  11.520  -0.714  12.032 -2.3989  0.9327  1.1888
   96MOL0     H13221  11.543  -0.768  12.200  0.7601 -3.2495  0.8032
   96MOL0     H13222  11.629  -0.941  11.978 -0.6492 -0.2622 -0.0718
   96MOL0     H13223  11.666  -0.973  12.138 -0.7200 -1.2396 -0.2613
   96MOL0     H13224  11.782  -0.723  12.116 -0.8300  0.8571 -0.4764
   96MOL0     H13225  11.786  -0.757  11.946  0.0102  2.0377  0.1192
   96MOL0     H13226  11.966  -0.854  11.972  3.1252  2.2441  1.1739
   96MOL0     H13227  11.888  -0.983  12.076 -3.6558  1.0507 -0.2174
   96MOL0     H13228  10.728  -1.096  12.066 -0.0355  0.5192  1.4389
   96MOL0     H13229  10.511  -1.058  11.998  0.9124 -0.5195  1.7465
   96MOL0     H13230  10.217  -0.937  11.820 -1.3094 -1.1228 -2.7584
   96MOL0     H13231   9.999  -0.920  11.687  1.7448 -0.2207 -1.2953
   96MOL0     H13232  10.476  -0.155  10.825  1.3362 -1.6235  3.4653
   96MOL0     H13233  10.671  -0.034  10.897 -0.5701  1.0274 -0.8365
   96MOL0     H13234  10.765   0.410  11.184 -0.3621 -0.5342 -1.7684
   96MOL0     H13235  10.883   0.611  11.220 -2.4495  0.0992  0.0101
   96MOL0     H13236  11.292   0.603  11.071 -4.4990 -2.8750  1.3730
   96MOL0     H13237  11.250   0.736  10.971 -1.0957  1.4075  0.7439
   96MOL0     H13238  11.266   0.734  11.274 -2.0144 -0.9918 -1.2845
   96MOL0     H13239  11.247   0.883  11.177  3.4020  2.5499 -3.3734
   96MOL0     H13240  11.506   0.700  11.198  0.8640  0.2685 -1.6085
   96MOL0     H13241  11.503   0.853  11.104  1.5410  0.6996  0.9866
   96MOL0     H13242  11.450   0.832  11.402 -1.1203  0.4210  0.7065
   96MOL0     H13243  11.425   0.965  11.320  0.2902 -0.0416  1.5145
   96MOL0     H13244  11.836   1.025  11.361 -1.2796  1.8649 -1.4175
   96MOL0     H13245  11.177   0.503  10.929 -1.3369  2.0140 -1.2174
   96MOL0     H13246  10.981   0.223  10.793 -1.7293  3.5947 -0.0839
   96MOL0     H13247  11.155   0.291  10.798  0.3659 -1.0280  0.6576
   96MOL0     H13248  11.098   0.167  10.906 -2.6812 -0.1822 -0.0617
   97MOL0     O13249   6.856   1.144   5.991  0.8939 -0.0924 -0.1671
   97MOL0     C13250   6.815   1.255   5.967  0.3199 -0.2029  1.1640
   97MOL0     O13251   6.896   1.373   5.975  0.9827  0.1238  0.0189
   97MOL0     C13252   7.029   1.382   5.961 -0.3528  0.7781 -0.0128
   97MOL0     C13253   7.094   1.499   6.004 -0.4100 -0.0975 -0.0544
   97MOL0     C13254   7.230   1.505   6.012  0.0705 -0.6193 -0.3723
   97MOL0     C13255   7.308   1.397   5.963 -0.3404  0.4385 -0.9095
   97MOL0     O13256   7.445   1.408   5.973 -0.4776 -0.0095 -0.3332
   97MOL0     C13257   7.521   1.286   6.005  0.7586 -0.7520  0.7480
   97MOL0     C13258   7.666   1.326   6.024 -0.9098  0.9769  0.4958
   97MOL0     C13259   7.749   1.319   5.897 -0.2798  0.9219  0.1882
   97MOL0     C13260   7.900   1.335   5.917  0.3765  0.2599  0.5491
   97MOL0     C13261   7.976   1.209   5.941  0.2861 -0.1250 -0.1973
   97MOL0     C13262   7.959   1.101   5.840  0.3869  0.7335  0.2649
   97MOL0     C13263   8.063   0.989   5.874  0.2233  0.3292  1.6599
   97MOL0     C13264   8.069   0.893   5.757  0.4580 -0.4023  0.0367
   97MOL0     N13265   8.199   0.824   5.740 -0.2893 -0.0732  0.1479
   97MOL0     C13266   8.235   0.704   5.799 -0.2184 -1.0651 -0.3726
   97MOL0     C13267   8.352   0.660   5.748 -0.2372  0.2096  0.2640
   97MOL0     C13268   8.413   0.525   5.774  0.1682 -0.4043 -0.0278
   97MOL0     C13269   8.562   0.519   5.819 -1.1250 -0.4505 -0.1571
   97MOL0     C13270   8.655   0.598   5.725  0.2403  0.5763 -0.2569
   97MOL0     C13271   8.802   0.588   5.775  0.9442  0.5114  0.3957
   97MOL0     O13272   8.837   0.456   5.820  0.7656  0.5252  0.1350
   97MOL0     C13273   8.973   0.425   5.832 -0.6569 -0.3904  0.1722
   97MOL0     C13274   9.018   0.301   5.881 -0.0539 -1.0007 -0.4296
   97MOL0     C13275   9.146   0.251   5.878  0.5455 -0.3059  0.0486
   97MOL0     C13276   9.170   0.105   5.925  0.2840  0.5584  0.1141
   97MOL0     C13277   9.256   0.336   5.849  0.2182  0.3376 -0.0296
   97MOL0     C13278   9.399   0.296   5.850  0.8825 -0.7307 -0.0235
   97MOL0     O13279   9.438   0.225   5.951  0.0531  0.3168  0.8501
   97MOL0     C13280   9.566   0.181   5.976 -0.5418  0.8432 -0.1254
   97MOL0     C13281   9.574   0.047   6.023 -0.5753 -0.4849 -0.2653
   97MOL0     C13282   9.700  -0.004   6.061 -0.5063  0.6108  1.0214
   97MOL0     C13283   9.824   0.069   6.042  0.6249 -0.8200  0.0615
   97MOL0     O13284   9.951   0.028   6.076  0.6854  0.4867 -0.4350
   97MOL0     C13285   9.964  -0.055   6.191 -0.4100  0.1276 -0.3791
   97MOL0     C13286  10.017   0.021   6.312  0.8176  1.0637  0.4358
   97MOL0     C13287  10.154   0.089   6.306 -0.8650 -0.3186 -0.3018
   97MOL0     C13288  10.159   0.245   6.290  0.5323  0.8427 -0.9209
   97MOL0     C13289  10.296   0.295   6.334  0.4411 -0.0341 -0.2054
   97MOL0     C13290  10.306   0.446   6.336 -0.5655  0.5175  0.1951
   97MOL0     C13291  10.455   0.485   6.349  0.1562  0.7670 -1.1176
   97MOL0     C13292  10.538   0.478   6.222  0.2955 -0.4682 -0.5180
   97MOL0    Cl13293  10.697   0.520   6.269 -0.0214  0.2410  0.2405
   97MOL0     C13294   9.806   0.189   5.982 -1.0010 -0.0204 -0.3910
   97MOL0     C13295   9.685   0.253   5.960  0.5853  0.6563  0.5161
   97MOL0     O13296   9.465   0.344   5.763 -0.2308  0.1474  0.3030
   97MOL0     C13297   9.222   0.470   5.797  0.4192  0.5021  1.1266
   97MOL0     C13298   9.083   0.500   5.780  1.2192  0.0121 -0.4520
   97MOL0     N13299   8.385   0.750   5.657  0.2737 -0.3098  0.5270
   97MOL0     N13300   8.298   0.847   5.648  1.4525 -0.6146  0.4023
   97MOL0     C13301   7.246   1.282   5.918  0.4026 -0.8021  1.5203
   97MOL0     C13302   7.107   1.270   5.921 -0.3059  0.0272  0.4133
   97MOL0     C13303   6.669   1.265   5.957  0.7835  0.2885  0.4569
   97MOL0     C13304   6.621   1.399   5.942 -0.3244  0.1102  0.1028
   97MOL0     C13305   6.487   1.438   5.947  1.0131 -0.2016 -0.1390
   97MOL0     C13306   6.393   1.330   5.963  0.5230 -0.7058 -0.0779
   97MOL0     O13307   6.259   1.335   5.983 -0.0816 -0.2516  0.6243
   97MOL0     C13308   6.210   1.477   6.000  0.9321 -0.7000  0.2092
   97MOL0     C13309   6.070   1.484   6.070  0.4188 -0.5110 -0.2605
   97MOL0     C13310   6.059   1.420   6.209  1.0910  0.2011 -0.2030
   97MOL0     C13311   5.914   1.434   6.259  0.2547 -0.5895  0.4983
   97MOL0     C13312   5.895   1.343   6.368 -0.3424 -0.5450  0.5508
   97MOL0     C13313   5.869   1.243   6.432  0.6578 -0.1826  0.0855
   97MOL0     C13314   6.426   1.193   5.963  0.7903 -0.1466  1.0288
   97MOL0     C13315   6.566   1.161   5.951  0.9729 -0.3105 -0.4245
   97MOL0     C13316   6.603   1.008   5.946  0.1339 -0.0276  0.0660
   97MOL0     H13317   7.030   1.577   6.043  2.6184  2.5646 -0.0266
   97MOL0     H13318   7.282   1.592   6.051 -0.1646 -1.2835  1.5592
   97MOL0     H13319   7.510   1.214   5.924 -1.0720 -1.6807  1.7608
   97MOL0     H13320   7.486   1.241   6.098  0.9980  0.7072  1.5846
   97MOL0     H13321   7.678   1.426   6.067 -3.4199  0.2070  3.2800
   97MOL0     H13322   7.713   1.252   6.090  0.5679 -2.4208 -3.8453
   97MOL0     H13323   7.723   1.240   5.826 -1.5092  2.9861 -1.8230
   97MOL0     H13324   7.715   1.412   5.850 -0.3762  0.8940  0.2029
   97MOL0     H13325   7.934   1.376   5.821  0.3557  0.2056  0.5188
   97MOL0     H13326   7.922   1.398   6.004 -0.3136 -0.1595  1.0288
   97MOL0     H13327   7.943   1.162   6.033 -1.0486 -1.2200 -1.1920
   97MOL0     H13328   8.079   1.244   5.951 -0.6196  2.3711  1.4290
   97MOL0     H13329   7.855   1.072   5.857 -0.5192  4.4436  2.1081
   97MOL0     H13330   7.971   1.130   5.735  0.2121 -1.5782 -0.4454
   97MOL0     H13331   8.034   0.932   5.963  3.3781  2.4489  4.3017
   97MOL0     H13332   8.166   1.016   5.898  1.0027  1.7675 -2.4393
   97MOL0     H13333   7.989   0.819   5.767  1.9723 -2.6906 -3.1662
   97MOL0     H13334   8.038   0.937   5.662  0.3050 -0.3702  0.1016
   97MOL0     H13335   8.188   0.650   5.881  1.1684 -0.8910  0.5584
   97MOL0     H13336   8.397   0.458   5.689 -0.0631 -0.5798  0.1506
   97MOL0     H13337   8.359   0.479   5.857 -1.6391  1.0505 -0.3184
   97MOL0     H13338   8.565   0.544   5.925 -4.7987  0.5637 -0.1532
   97MOL0     H13339   8.594   0.417   5.797  0.6951 -0.3358  1.6655
   97MOL0     H13340   8.648   0.551   5.627  1.5040 -0.6405  0.1928
   97MOL0     H13341   8.631   0.704   5.724 -0.4309  0.4400  0.6847
   97MOL0     H13342   8.863   0.623   5.692 -2.6065 -1.4418 -3.3984
   97MOL0     H13343   8.807   0.641   5.871 -0.0594  0.2310  0.6214
   97MOL0     H13344   8.948   0.224   5.911 -0.9907 -0.9957 -2.4428
   97MOL0     H13345   9.103   0.030   5.882 -0.2483  1.3461 -0.4435
   97MOL0     H13346   9.159   0.098   6.033  1.2221 -0.6056  0.1513
   97MOL0     H13347   9.270   0.064   5.904 -0.5535 -1.0774 -0.9268
   97MOL0     H13348   9.478  -0.001   6.040 -1.7648  2.2178  1.5091
   97MOL0     H13349   9.699  -0.103   6.107  0.4662 -0.5308 -1.2452
   97MOL0     H13350   9.875  -0.117   6.207 -0.5404  0.6174  0.8950
   97MOL0     H13351  10.034  -0.137   6.172 -1.7993 -1.4102  0.7524
   97MOL0     H13352   9.950   0.104   6.339  0.4200  1.5737 -1.8862
   97MOL0     H13353  10.016  -0.058   6.387  0.6569  0.0695 -0.5895
   97MOL0     H13354  10.212   0.038   6.229 -0.7616 -0.9101  0.1617
   97MOL0     H13355  10.201   0.084   6.405 -1.5237  2.3822  0.2292
   97MOL0     H13356  10.077   0.293   6.343  0.5011  0.5254 -0.6791
   97MOL0     H13357  10.144   0.266   6.183 -1.6619  1.2792 -0.5723
   97MOL0     H13358  10.326   0.262   6.434 -0.2788 -0.6317 -0.1733
   97MOL0     H13359  10.366   0.262   6.257  2.5584  1.3559  1.0137
   97MOL0     H13360  10.258   0.481   6.428  0.7250  4.7295 -0.5307
   97MOL0     H13361  10.248   0.489   6.254 -2.7206 -3.3864 -0.5742
   97MOL0     H13362  10.491   0.414   6.424 -2.0314  1.2471  0.4792
   97MOL0     H13363  10.470   0.585   6.392  2.4589 -0.3259  0.9157
   97MOL0     H13364  10.496   0.549   6.151  0.8737 -0.9472 -1.3495
   97MOL0     H13365  10.526   0.372   6.197 -3.1273  0.0213 -1.4187
   97MOL0     H13366   9.895   0.251   5.972 -0.1730 -1.3840 -1.8595
   97MOL0     H13367   9.680   0.356   5.926 -2.0899 -0.4865 -3.2017
   97MOL0     H13368   9.290   0.544   5.759  0.3835 -0.9404 -2.0254
   97MOL0     H13369   9.068   0.604   5.751  1.2318 -0.0439 -0.6618
   97MOL0     H13370   7.297   1.196   5.877 -0.3969 -0.4703 -0.2730
   97MOL0     H13371   7.061   1.191   5.863 -0.2278 -0.2790  0.7676
   97MOL0     H13372   6.694   1.476   5.920 -0.1349 -0.2676 -0.6406
   97MOL0     H13373   6.446   1.537   5.929  0.0580 -0.4492  0.6274
   97MOL0     H13374   6.259   1.532   6.080 -3.4345  1.8882  1.4184
   97MOL0     H13375   6.208   1.535   5.907  1.2635  0.2403  0.7830
   97MOL0     H13376   6.001   1.427   6.007 -0.3448 -0.2905  0.3633
   97MOL0     H13377   6.034   1.588   6.065 -0.0050 -0.6748 -0.7842
   97MOL0     H13378   6.090   1.317   6.193  4.1413  1.3357 -2.8382
   97MOL0     H13379   6.126   1.463   6.284  0.7332  1.3930 -0.5327
   97MOL0     H13380   5.845   1.419   6.176  2.9034  0.6085 -2.1105
   97MOL0     H13381   5.903   1.536   6.297  1.4988  0.1405 -0.9728
   97MOL0     H13382   5.835   1.172   6.505  1.2801  1.3378  1.9188
   97MOL0     H13383   6.355   1.112   5.976 -0.0771  0.7206  1.9225
   97MOL0     H13384   6.525   0.958   5.888  1.9664  0.2257 -2.7598
   97MOL0     H13385   6.696   0.992   5.891  0.1719 -0.9076  0.3659
   97MOL0     H13386   6.599   0.971   6.049  3.1666  0.4255  0.4185
   98MOL0     O13387   0.276   2.917   5.654  0.2040 -0.1398  0.4738
   98MOL0     C13388   0.392   2.954   5.676 -0.3748  0.3528 -0.0340
   98MOL0     O13389   0.501   2.884   5.642 -0.4256  0.4136 -0.1353
   98MOL0     C13390   0.484   2.751   5.604 -0.3113 -1.0810  0.2619
   98MOL0     C13391   0.459   2.649   5.700  0.3233 -0.3821  1.3679
   98MOL0     C13392   0.431   2.514   5.650 -0.6063 -0.6063  0.3913
   98MOL0     C13393   0.457   2.477   5.518  0.3283 -0.5413  0.1620
   98MOL0     O13394   0.465   2.348   5.470  0.5429 -0.5613 -0.5843
   98MOL0     C13395   0.354   2.261   5.506 -0.5480  0.4395  0.1715
   98MOL0     C13396   0.368   2.134   5.418 -0.2705  0.1430  0.9265
   98MOL0     C13397   0.262   2.034   5.443 -0.1469  0.2352 -1.4434
   98MOL0     C13398   0.307   1.904   5.379  0.5840  0.8462  0.3926
   98MOL0     C13399   0.198   1.788   5.380  0.1209  0.1954 -0.1598
   98MOL0     C13400   0.130   1.782   5.515 -0.6794  0.1229 -0.7323
   98MOL0     C13401   0.035   1.663   5.513 -1.3039  0.0206  0.4900
   98MOL0     C13402   0.112   1.543   5.567  0.3640 -0.4359 -0.4179
   98MOL0     N13403   0.082   1.518   5.712 -0.6166  0.7126  0.2794
   98MOL0     C13404   0.036   1.396   5.768 -0.3032 -1.3106  0.0772
   98MOL0     C13405   0.033   1.421   5.901 -0.3663  0.1738 -0.9940
   98MOL0     C13406  -0.011   1.309   5.987 -0.1274 -0.1114 -1.0803
   98MOL0     C13407  -0.159   1.282   5.952  0.6238 -0.3176 -0.6965
   98MOL0     C13408  -0.217   1.188   6.049  1.0997 -0.5107  0.3407
   98MOL0     C13409  -0.370   1.178   6.021  0.0691  0.0891 -0.0405
   98MOL0     O13410  -0.432   1.304   6.061  0.1618 -0.4712 -0.3048
   98MOL0     C13411  -0.466   1.304   6.195 -0.5001 -0.1214 -1.3250
   98MOL0     C13412  -0.379   1.350   6.298 -0.4464 -0.0939 -0.0957
   98MOL0     C13413  -0.415   1.337   6.436 -0.7079 -0.9240 -0.0811
   98MOL0     C13414  -0.305   1.381   6.540  0.3952  0.3273 -0.8000
   98MOL0     C13415  -0.549   1.299   6.469 -0.0022  0.2490 -0.1498
   98MOL0     C13416  -0.589   1.301   6.614 -0.2122  0.1832  0.4840
   98MOL0     O13417  -0.688   1.208   6.648  0.0197  0.7292  0.8145
   98MOL0     C13418  -0.744   1.221   6.770 -0.6212 -0.6568 -0.7130
   98MOL0     C13419  -0.671   1.249   6.896  0.2990  0.3269 -0.8493
   98MOL0     C13420  -0.744   1.261   7.011  0.6901  0.8068 -0.2488
   98MOL0     C13421  -0.885   1.251   7.014 -0.5773 -0.2189 -0.1039
   98MOL0     O13422  -0.941   1.242   7.143 -0.4353  0.7207 -0.0818
   98MOL0     C13423  -1.087   1.230   7.146 -0.1380  0.3431 -0.1295
   98MOL0     C13424  -1.139   1.163   7.272  0.2424 -1.0780 -0.4762
   98MOL0     C13425  -1.120   1.256   7.397 -0.5157  0.2692 -0.0867
   98MOL0     C13426  -1.184   1.192   7.517  0.7544 -1.3342  0.0139
   98MOL0     C13427  -1.179   1.288   7.637  0.3422  0.2229  0.9447
   98MOL0     C13428  -1.209   1.216   7.764 -1.1969  0.7525  0.4627
   98MOL0     C13429  -1.218   1.303   7.880 -0.2169 -0.3201 -1.0003
   98MOL0     C13430  -1.191   1.228   8.018  0.4492  0.3980 -0.7613
   98MOL0    Cl13431  -1.015   1.227   8.023  0.1497 -0.0147  0.2058
   98MOL0     C13432  -0.954   1.229   6.892 -0.9558 -0.3989  0.7494
   98MOL0     C13433  -0.881   1.216   6.768 -0.6437  0.1704 -0.0457
   98MOL0     O13434  -0.549   1.381   6.690 -0.2231 -0.0627  0.2200
   98MOL0     C13435  -0.642   1.266   6.363  0.5728  0.9403  0.7761
   98MOL0     C13436  -0.601   1.270   6.230  0.5803 -0.1009  0.3425
   98MOL0     N13437   0.081   1.552   5.922  1.2766 -0.6836 -0.5248
   98MOL0     N13438   0.112   1.609   5.811  0.4708  0.6912 -0.6050
   98MOL0     C13439   0.493   2.577   5.422 -0.3201 -0.3493  0.0857
   98MOL0     C13440   0.504   2.715   5.470  0.3221 -0.0283  0.2166
   98MOL0     C13441   0.406   3.090   5.741 -0.3116 -0.6279  0.1273
   98MOL0     C13442   0.311   3.121   5.831  0.5011  0.5432  0.5734
   98MOL0     C13443   0.317   3.233   5.905 -0.2321 -1.0373 -0.4045
   98MOL0     C13444   0.417   3.331   5.883 -0.5049  0.5040  0.4441
   98MOL0     O13445   0.406   3.450   5.943  0.2514 -0.9141  0.0143
   98MOL0     C13446   0.433   3.574   5.869  0.7411 -0.1607  0.3482
   98MOL0     C13447   0.389   3.573   5.716  0.4320 -0.4745 -0.4612
   98MOL0     C13448   0.439   3.694   5.649  0.4466 -0.6973 -0.5147
   98MOL0     C13449   0.429   3.696   5.495  0.5210 -0.6179  0.2010
   98MOL0     C13450   0.493   3.585   5.430 -0.8195 -0.5956  0.0592
   98MOL0     C13451   0.552   3.495   5.379  0.1997 -0.0639  0.0547
   98MOL0     C13452   0.517   3.295   5.796 -0.8937 -0.3860 -0.2195
   98MOL0     C13453   0.520   3.175   5.720 -0.4536  0.0793 -0.8079
   98MOL0     C13454   0.635   3.151   5.624  0.3270 -0.6972 -0.0921
   98MOL0     H13455   0.450   2.676   5.804  0.8221 -1.2527  1.6464
   98MOL0     H13456   0.392   2.438   5.717 -1.6261  0.7796  1.4406
   98MOL0     H13457   0.263   2.316   5.481  0.0086  0.9185 -0.8726
   98MOL0     H13458   0.363   2.232   5.611  2.0489  1.3598  0.2809
   98MOL0     H13459   0.360   2.156   5.311 -1.3253 -0.7973  0.7958
   98MOL0     H13460   0.465   2.087   5.433  0.2058  1.1591  1.1362
   98MOL0     H13461   0.264   2.023   5.552  2.0977  2.9092 -1.0922
   98MOL0     H13462   0.164   2.065   5.405 -0.0528  0.1771 -1.7298
   98MOL0     H13463   0.337   1.920   5.275  2.4312 -1.8291  0.3953
   98MOL0     H13464   0.398   1.865   5.426 -0.4293 -1.1166  0.8380
   98MOL0     H13465   0.236   1.692   5.345 -1.5426 -0.0838 -1.3418
   98MOL0     H13466   0.121   1.833   5.316  0.3639  1.7739  0.6020
   98MOL0     H13467   0.208   1.759   5.588 -0.4878 -0.7434 -1.1987
   98MOL0     H13468   0.084   1.874   5.551 -0.7308 -0.1041 -0.2091
   98MOL0     H13469  -0.007   1.641   5.414  1.2243  1.9789 -1.1463
   98MOL0     H13470  -0.054   1.685   5.573 -0.3377  2.4851  1.1223
   98MOL0     H13471   0.068   1.466   5.502  0.0730  0.7215 -1.6376
   98MOL0     H13472   0.220   1.542   5.550  0.6392 -2.0985  1.1400
   98MOL0     H13473   0.015   1.303   5.715  1.4967 -2.0780  0.6325
   98MOL0     H13474   0.005   1.332   6.093  1.4478  0.1517 -1.3474
   98MOL0     H13475   0.047   1.218   5.967 -0.5663 -0.3577 -1.2562
   98MOL0     H13476  -0.219   1.374   5.950 -2.6236 -2.3085 -2.8336
   98MOL0     H13477  -0.161   1.241   5.851  2.8946  1.0162 -1.3641
   98MOL0     H13478  -0.165   1.093   6.034  0.8879 -0.3192 -1.9231
   98MOL0     H13479  -0.209   1.232   6.149 -2.4361 -1.1563  1.0366
   98MOL0     H13480  -0.386   1.161   5.914  0.6569 -0.4602 -0.0466
   98MOL0     H13481  -0.412   1.090   6.069  1.9199 -0.5122  0.5498
   98MOL0     H13482  -0.282   1.387   6.266 -0.7401  0.2716 -0.5785
   98MOL0     H13483  -0.309   1.312   6.625  2.0027 -0.4977 -1.3475
   98MOL0     H13484  -0.310   1.479   6.588  0.4662 -0.5796  1.2049
   98MOL0     H13485  -0.208   1.364   6.492  0.8941  0.5338  0.1031
   98MOL0     H13486  -0.562   1.245   6.897  0.3752 -0.5044  2.8564
   98MOL0     H13487  -0.682   1.260   7.100  1.7077  2.2485 -0.9049
   98MOL0     H13488  -1.141   1.322   7.120 -1.5202 -1.3067 -3.8569
   98MOL0     H13489  -1.127   1.161   7.071 -2.2466 -0.4752  1.6227
   98MOL0     H13490  -1.242   1.128   7.258 -0.4509  1.0170 -0.9690
   98MOL0     H13491  -1.074   1.076   7.286  2.6237  0.9331  1.9366
   98MOL0     H13492  -1.170   1.353   7.387 -1.5850  0.2338  3.4580
   98MOL0     H13493  -1.015   1.280   7.413 -0.8776  0.1922  2.9119
   98MOL0     H13494  -1.125   1.102   7.536  3.3378  0.1618 -0.4948
   98MOL0     H13495  -1.288   1.164   7.496  0.0960  0.0972  1.2040
   98MOL0     H13496  -1.077   1.325   7.633  0.7304 -0.6245  2.1476
   98MOL0     H13497  -1.239   1.378   7.622  3.2899  2.0129 -1.2293
   98MOL0     H13498  -1.127   1.144   7.773 -0.3297  1.6302 -0.2348
   98MOL0     H13499  -1.300   1.160   7.743 -0.4859  0.4494 -2.2382
   98MOL0     H13500  -1.315   1.352   7.892  0.6526  1.1006  0.8148
   98MOL0     H13501  -1.151   1.389   7.871  1.1436 -1.0084  1.5565
   98MOL0     H13502  -1.224   1.124   8.028  1.1922  0.0958 -1.2862
   98MOL0     H13503  -1.228   1.293   8.098  1.1410  0.7368 -0.7031
   98MOL0     H13504  -1.061   1.215   6.900 -0.9002 -0.6333  1.0878
   98MOL0     H13505  -0.920   1.206   6.667 -0.2182 -0.4301 -0.1598
   98MOL0     H13506  -0.742   1.231   6.388  1.0279  0.4174  1.9429
   98MOL0     H13507  -0.661   1.243   6.144  2.8906  1.3144 -1.8424
   98MOL0     H13508   0.505   2.561   5.315  0.0209 -4.3279  0.5455
   98MOL0     H13509   0.525   2.795   5.399 -2.8919  1.6477  0.9660
   98MOL0     H13510   0.233   3.049   5.854  1.2759 -0.9790 -1.2777
   98MOL0     H13511   0.235   3.256   5.972  0.0477  0.0742 -0.4328
   98MOL0     H13512   0.378   3.656   5.916 -0.3247  0.0672 -1.2195
   98MOL0     H13513   0.539   3.601   5.871  0.8290  0.7391 -4.6696
   98MOL0     H13514   0.280   3.567   5.712  0.3700  0.5790 -0.6116
   98MOL0     H13515   0.426   3.484   5.664  1.4463 -0.0650 -0.4681
   98MOL0     H13516   0.372   3.774   5.683  2.6769  1.5547 -1.1395
   98MOL0     H13517   0.540   3.721   5.680  0.6540 -0.3253 -1.4869
   98MOL0     H13518   0.471   3.786   5.449  1.3900 -0.7939  0.6152
   98MOL0     H13519   0.322   3.687   5.479  0.9711 -2.4029 -2.3389
   98MOL0     H13520   0.594   3.404   5.341  0.9146 -0.1412  0.9811
   98MOL0     H13521   0.597   3.368   5.784 -1.7609  0.5570 -0.3730
   98MOL0     H13522   0.688   3.064   5.665 -2.0164 -2.4071 -0.4193
   98MOL0     H13523   0.598   3.114   5.528  0.8435  1.7918 -1.3013
   98MOL0     H13524   0.701   3.237   5.611  0.1175 -0.6305 -0.7215
   99MOL0     O13525   7.816   2.208   8.556 -0.4502  0.3689 -0.2317
   99MOL0     C13526   7.822   2.257   8.444 -0.0715 -0.5590  0.5125
   99MOL0     O13527   7.922   2.244   8.357  0.3235 -0.6894 -0.0277
   99MOL0     C13528   7.997   2.129   8.385  0.3449 -0.5149  0.7502
   99MOL0     C13529   7.937   2.000   8.402  0.3260 -0.9105  0.0958
   99MOL0     C13530   8.024   1.891   8.427 -0.6499  0.2506 -0.0512
   99MOL0     C13531   8.167   1.908   8.424  0.3339 -0.9388 -0.1869
   99MOL0     O13532   8.259   1.805   8.439  0.6615 -0.1228 -0.3330
   99MOL0     C13533   8.218   1.666   8.443 -0.1284 -0.2016  0.1463
   99MOL0     C13534   8.224   1.605   8.304  0.3456  0.0870 -0.0193
   99MOL0     C13535   8.270   1.461   8.303  0.5404 -0.8711 -0.4348
   99MOL0     C13536   8.255   1.408   8.165 -0.6371  0.6168  0.1341
   99MOL0     C13537   8.343   1.479   8.055  0.2060  0.4777 -0.1626
   99MOL0     C13538   8.341   1.419   7.914  0.8092  0.7072  0.0266
   99MOL0     C13539   8.438   1.287   7.909  0.2225 -0.0251  0.1516
   99MOL0     C13540   8.413   1.178   7.796 -0.3534 -0.4120  0.8729
   99MOL0     N13541   8.402   1.242   7.662  0.5192 -0.1725 -0.0966
   99MOL0     C13542   8.288   1.262   7.590 -0.3336 -0.1707 -0.5168
   99MOL0     C13543   8.322   1.311   7.471 -0.1249 -0.2900  0.0229
   99MOL0     C13544   8.213   1.339   7.368 -0.0680 -0.0195 -0.2958
   99MOL0     C13545   8.266   1.441   7.264  0.2877 -0.1561 -1.5558
   99MOL0     C13546   8.176   1.461   7.146 -1.7733  1.1416  0.6678
   99MOL0     C13547   8.060   1.550   7.168  0.3838 -0.4806 -0.3779
   99MOL0     O13548   8.020   1.615   7.046 -0.1378  0.5567  0.6858
   99MOL0     C13549   7.980   1.521   6.952 -0.0281 -0.3135 -0.3943
   99MOL0     C13550   7.851   1.483   6.949  0.4245  0.5836 -0.4661
   99MOL0     C13551   7.801   1.387   6.867  1.2176  0.7260 -0.8560
   99MOL0     C13552   7.645   1.348   6.872 -0.2138 -0.0252 -0.3416
   99MOL0     C13553   7.878   1.334   6.763 -0.1728  0.1985  0.1412
   99MOL0     C13554   7.833   1.225   6.670 -1.5769 -0.3344 -0.1419
   99MOL0     O13555   7.877   1.236   6.547  0.7568  0.3068  0.3201
   99MOL0     C13556   7.825   1.148   6.452  0.0745 -0.1377 -0.1023
   99MOL0     C13557   7.912   1.057   6.387 -0.1550  0.3051  0.6556
   99MOL0     C13558   7.864   0.981   6.276 -0.7686  0.0400 -0.3651
   99MOL0     C13559   7.723   0.982   6.261  0.6016  0.5349 -0.0210
   99MOL0     O13560   7.671   0.901   6.160  0.2173 -0.1810 -0.0408
   99MOL0     C13561   7.683   0.757   6.172  0.5340 -0.1364  0.3508
   99MOL0     C13562   7.618   0.699   6.044  0.7634  0.1539 -0.0652
   99MOL0     C13563   7.496   0.784   5.992 -0.5056  0.3545 -0.8165
   99MOL0     C13564   7.426   0.709   5.879  0.0158  0.7256 -0.2513
   99MOL0     C13565   7.471   0.752   5.744 -0.6945 -0.4160  1.0118
   99MOL0     C13566   7.441   0.905   5.716 -0.8460  0.6136  0.5070
   99MOL0     C13567   7.460   0.926   5.559 -0.8257 -0.5535  1.5295
   99MOL0     C13568   7.432   1.078   5.528  0.3572 -0.5127  0.0662
   99MOL0    Cl13569   7.572   1.173   5.591  0.1710 -0.1478  0.3609
   99MOL0     C13570   7.644   1.065   6.328  0.1599  0.5454  0.1545
   99MOL0     C13571   7.688   1.149   6.426  0.3149  1.1759  0.3618
   99MOL0     O13572   7.772   1.135   6.721  0.0307  0.2276 -0.4087
   99MOL0     C13573   8.019   1.375   6.760  0.8717 -0.5817 -1.0151
   99MOL0     C13574   8.063   1.462   6.860 -0.2443 -1.4057 -0.2469
   99MOL0     N13575   8.458   1.312   7.462  0.8981 -0.3904 -0.1075
   99MOL0     N13576   8.503   1.281   7.581  0.1263  0.1852 -0.3979
   99MOL0     C13577   8.226   2.036   8.402  0.2939  0.9419 -0.2878
   99MOL0     C13578   8.135   2.142   8.388  0.8464  0.7018 -0.0188
   99MOL0     C13579   7.710   2.357   8.419 -0.6819 -0.1810  0.8321
   99MOL0     C13580   7.736   2.455   8.324  0.0793 -0.0121  0.4499
   99MOL0     C13581   7.651   2.562   8.303 -0.6107  1.0423  0.7039
   99MOL0     C13582   7.543   2.585   8.390  0.0635 -0.2770  0.0791
   99MOL0     O13583   7.458   2.687   8.371 -0.4631  0.7085 -0.0416
   99MOL0     C13584   7.369   2.656   8.267  0.2905  0.0402  0.3249
   99MOL0     C13585   7.410   2.728   8.143  0.1860 -0.0813  0.3496
   99MOL0     C13586   7.391   2.881   8.161 -0.0016 -0.0848  0.1732
   99MOL0     C13587   7.387   2.980   8.046  0.8243 -0.4681 -0.3367
   99MOL0     C13588   7.512   2.987   7.977 -0.6443  0.7557  0.4255
   99MOL0     C13589   7.620   2.974   7.922  0.2177 -0.1846  0.0242
   99MOL0     C13590   7.511   2.493   8.480 -0.3756 -0.5814  0.0579
   99MOL0     C13591   7.590   2.380   8.494 -0.0482 -0.1411  0.0966
   99MOL0     C13592   7.540   2.277   8.597  0.1778  0.7058 -0.4251
   99MOL0     H13593   7.829   1.985   8.406  0.0920  0.5847  0.2125
   99MOL0     H13594   7.985   1.791   8.417  0.9690 -0.2902 -1.5146
   99MOL0     H13595   8.119   1.643   8.485  0.4331 -0.8427  1.1630
   99MOL0     H13596   8.289   1.626   8.516 -2.2813 -4.4116  0.2360
   99MOL0     H13597   8.128   1.618   8.252  1.3166  1.3146 -1.6022
   99MOL0     H13598   8.291   1.665   8.241  0.1885  0.0601 -0.2136
   99MOL0     H13599   8.368   1.466   8.351  0.4291  0.4187 -0.3083
   99MOL0     H13600   8.202   1.400   8.363  0.6479  0.3648  1.0020
   99MOL0     H13601   8.300   1.308   8.162  2.9862  2.0685  0.8301
   99MOL0     H13602   8.153   1.414   8.127 -0.2222 -1.1094 -1.4265
   99MOL0     H13603   8.448   1.494   8.080 -0.4268  3.6730  1.0688
   99MOL0     H13604   8.304   1.581   8.047 -0.2177  0.2371 -1.4960
   99MOL0     H13605   8.238   1.403   7.879  1.1775  1.2500 -1.3819
   99MOL0     H13606   8.367   1.490   7.835 -0.3248  1.6299  0.4509
   99MOL0     H13607   8.424   1.230   8.002  1.8377  0.5687  0.7894
   99MOL0     H13608   8.542   1.319   7.909 -0.0037  0.9594  2.7773
   99MOL0     H13609   8.490   1.101   7.788 -1.9959 -1.9011 -3.4042
   99MOL0     H13610   8.321   1.123   7.814 -0.8400 -0.0282 -0.3412
   99MOL0     H13611   8.185   1.237   7.613 -0.2788  0.4239  0.4020
   99MOL0     H13612   8.116   1.362   7.414 -1.1963 -2.4151 -1.3059
   99MOL0     H13613   8.188   1.252   7.307 -0.1309  1.4294 -2.4264
   99MOL0     H13614   8.289   1.531   7.322  1.4200 -0.4038 -1.5841
   99MOL0     H13615   8.364   1.408   7.226  1.3894  2.5483 -1.2819
   99MOL0     H13616   8.254   1.490   7.076 -3.0603  1.7241 -0.5682
   99MOL0     H13617   8.152   1.366   7.100 -0.0927  1.2577 -0.5390
   99MOL0     H13618   7.986   1.489   7.220  1.6115 -1.5448  0.1690
   99MOL0     H13619   8.090   1.630   7.236  0.1291  0.1334 -0.9751
   99MOL0     H13620   7.787   1.526   7.025 -0.7439 -2.9670  0.7752
   99MOL0     H13621   7.621   1.242   6.859 -2.4764 -0.1817  3.5391
   99MOL0     H13622   7.586   1.406   6.800  0.8344  1.4347 -0.0580
   99MOL0     H13623   7.605   1.373   6.971 -0.2136 -2.9977  0.5179
   99MOL0     H13624   8.006   1.039   6.437 -1.4369  0.1614  3.1400
   99MOL0     H13625   7.923   0.914   6.213  0.1920  2.1040 -1.7698
   99MOL0     H13626   7.787   0.726   6.184  0.0501 -1.8517  0.3234
   99MOL0     H13627   7.629   0.710   6.254 -0.0950  0.4205  0.2646
   99MOL0     H13628   7.689   0.686   5.961 -1.6109 -0.7306 -2.0915
   99MOL0     H13629   7.581   0.601   6.075 -0.5829  0.7924  0.4210
   99MOL0     H13630   7.517   0.885   5.956  1.7262 -0.6163 -2.4457
   99MOL0     H13631   7.431   0.792   6.080 -1.4946  0.6966 -1.5719
   99MOL0     H13632   7.320   0.736   5.883 -0.0555  0.5268 -0.6820
   99MOL0     H13633   7.426   0.601   5.893  3.1983  0.6155 -0.3506
   99MOL0     H13634   7.580   0.737   5.748 -0.3808  0.6283 -1.7977
   99MOL0     H13635   7.413   0.696   5.670 -3.1567  2.4388  0.6206
   99MOL0     H13636   7.520   0.970   5.753  1.0415  0.1891 -2.4999
   99MOL0     H13637   7.348   0.948   5.757 -0.8599  1.8336 -0.7276
   99MOL0     H13638   7.395   0.861   5.500 -0.0341 -0.2651  0.3158
   99MOL0     H13639   7.559   0.903   5.520 -1.7284 -1.4973 -0.3474
   99MOL0     H13640   7.340   1.118   5.572  0.2673 -1.1893  0.5115
   99MOL0     H13641   7.427   1.082   5.418  1.0673 -0.0393  0.0475
   99MOL0     H13642   7.541   1.040   6.301  1.2723 -1.9311 -2.2142
   99MOL0     H13643   7.611   1.207   6.476  0.5532  0.9868  0.9551
   99MOL0     H13644   8.087   1.337   6.685  3.5993  0.0885  0.9699
   99MOL0     H13645   8.168   1.489   6.860  0.1157 -2.6921 -2.1756
   99MOL0     H13646   8.332   2.056   8.411  0.0394  3.0426 -1.2788
   99MOL0     H13647   8.179   2.240   8.374 -0.1941  0.9205 -2.2147
   99MOL0     H13648   7.813   2.446   8.248 -0.6915  0.2708 -0.3832
   99MOL0     H13649   7.681   2.621   8.217  1.1473 -0.8168 -0.0462
   99MOL0     H13650   7.368   2.550   8.242 -0.2435  0.0497  0.2904
   99MOL0     H13651   7.264   2.680   8.288  0.0128 -1.5019  0.8260
   99MOL0     H13652   7.341   2.693   8.065  0.1831  2.0798 -0.6935
   99MOL0     H13653   7.510   2.701   8.109 -0.1342 -1.2129  0.2719
   99MOL0     H13654   7.303   2.898   8.223 -0.6907 -1.2637 -0.4491
   99MOL0     H13655   7.476   2.908   8.225  0.9853 -2.7341  0.1012
   99MOL0     H13656   7.353   3.074   8.089  0.1667 -1.5026  1.5238
   99MOL0     H13657   7.305   2.957   7.977  0.7012  0.8925 -0.6731
   99MOL0     H13658   7.716   2.966   7.875  0.2835  0.0317  0.1197
   99MOL0     H13659   7.432   2.517   8.551 -1.0250  0.4870 -0.9930
   99MOL0     H13660   7.488   2.198   8.543 -1.7450  0.2753  1.9168
   99MOL0     H13661   7.612   2.225   8.661 -2.3001 -2.4704 -0.0059
   99MOL0     H13662   7.474   2.337   8.660 -0.7304  0.9706 -1.6033
  100MOL0     O13663   1.874   3.977   6.723  0.2723 -0.5445 -0.4667
  100MOL0     C13664   1.847   4.068   6.650  0.7382  0.3801 -0.0730
  100MOL0     O13665   1.879   4.194   6.665  0.6833 -0.7484 -0.4354
  100MOL0     C13666   1.978   4.228   6.763  1.0851  0.5653  0.4268
  100MOL0     C13667   1.960   4.346   6.850 -0.7403  0.7278  0.9891
  100MOL0     C13668   2.055   4.381   6.942 -0.3681  0.6123  0.3589
  100MOL0     C13669   2.161   4.295   6.967  0.3231 -0.1901  0.4803
  100MOL0     O13670   2.263   4.303   7.059  0.5377 -0.2269 -0.6875
  100MOL0     C13671   2.299   4.439   7.091 -0.0379 -0.3385  0.3919
  100MOL0     C13672   2.449   4.446   7.122 -0.3675 -0.5694  0.0875
  100MOL0     C13673   2.485   4.393   7.258  0.1301  0.1790  0.6638
  100MOL0     C13674   2.627   4.423   7.287 -0.0878 -0.1342  0.7552
  100MOL0     C13675   2.658   4.350   7.421  0.7111  0.3599 -0.0478
  100MOL0     C13676   2.679   4.200   7.419  0.2539 -0.3712  0.5400
  100MOL0     C13677   2.696   4.141   7.557 -0.8828  0.0321  0.2844
  100MOL0     C13678   2.692   3.987   7.573  0.7391  0.6384 -0.5453
  100MOL0     N13679   2.827   3.936   7.565 -0.2528 -0.2150 -0.1369
  100MOL0     C13680   2.920   3.942   7.672 -0.1914  0.3545  0.3479
  100MOL0     C13681   3.019   3.862   7.640 -0.1190  0.8569 -0.0943
  100MOL0     C13682   3.154   3.860   7.712 -0.5263  0.1580 -0.5154
  100MOL0     C13683   3.223   3.993   7.691  1.0527  0.4440 -0.5431
  100MOL0     C13684   3.359   3.982   7.758 -0.9930 -0.1418 -0.9998
  100MOL0     C13685   3.445   4.114   7.748 -0.6526  0.0450  0.3965
  100MOL0     O13686   3.582   4.077   7.789  0.1654 -0.4289  0.1914
  100MOL0     C13687   3.682   4.090   7.695  0.7440  0.2212 -0.0768
  100MOL0     C13688   3.779   4.179   7.730 -0.7393  0.9009  0.5926
  100MOL0     C13689   3.878   4.225   7.645 -0.0652 -0.6050  0.9884
  100MOL0     C13690   3.967   4.339   7.682  0.2553 -0.5022 -0.0062
  100MOL0     C13691   3.885   4.167   7.515 -0.0136  0.4734 -0.0838
  100MOL0     C13692   3.994   4.192   7.414 -0.2831 -0.2736  0.9713
  100MOL0     O13693   3.974   4.121   7.301  0.7904 -0.4366 -0.5543
  100MOL0     C13694   4.069   4.109   7.205 -0.0345 -0.4501 -1.0187
  100MOL0     C13695   4.042   4.191   7.095  0.1093  0.2575  0.3562
  100MOL0     C13696   4.118   4.175   6.978 -0.6428 -0.5032 -0.5917
  100MOL0     C13697   4.239   4.103   6.974 -0.6625  1.1166  0.2354
  100MOL0     O13698   4.333   4.096   6.871  1.0502  0.3126 -0.5058
  100MOL0     C13699   4.308   4.147   6.742  0.9167  0.1996 -0.2114
  100MOL0     C13700   4.301   4.031   6.638 -0.2365  0.1627 -0.6390
  100MOL0     C13701   4.430   3.975   6.576 -0.2457  0.2609 -0.1746
  100MOL0     C13702   4.506   4.077   6.499 -0.4753 -0.0140 -0.2735
  100MOL0     C13703   4.617   4.014   6.399  0.5122 -0.6200 -1.1531
  100MOL0     C13704   4.708   4.116   6.324  0.2498 -0.4675 -0.0074
  100MOL0     C13705   4.823   4.159   6.414 -0.7127 -0.2182  0.2997
  100MOL0     C13706   4.910   4.256   6.340 -0.0716  0.0797 -0.7021
  100MOL0    Cl13707   5.048   4.301   6.445 -0.1662 -0.7115 -0.1599
  100MOL0     C13708   4.275   4.022   7.088  0.0742 -0.4010  0.1284
  100MOL0     C13709   4.181   4.021   7.193  0.2816  0.5025 -0.7136
  100MOL0     O13710   4.092   4.258   7.437 -0.0757 -0.0421  0.9224
  100MOL0     C13711   3.782   4.071   7.479 -0.6728 -0.5477 -0.4857
  100MOL0     C13712   3.683   4.032   7.568  0.3735 -0.5081 -0.5059
  100MOL0     N13713   3.000   3.809   7.514  0.3107  0.5531 -0.5496
  100MOL0     N13714   2.880   3.846   7.474 -0.0591  0.1601 -0.5862
  100MOL0     C13715   2.176   4.181   6.889  0.1383 -0.7939  0.4171
  100MOL0     C13716   2.092   4.149   6.783  0.2839  0.8949 -0.4718
  100MOL0     C13717   1.762   4.031   6.541 -0.4561  0.4072  0.1615
  100MOL0     C13718   1.675   4.129   6.489 -0.2937  0.0234 -0.5872
  100MOL0     C13719   1.571   4.096   6.390 -0.0687  0.0328  0.0342
  100MOL0     C13720   1.563   3.975   6.340  1.0494 -0.5798 -0.0247
  100MOL0     O13721   1.489   3.925   6.234 -0.0397 -0.2215  0.1837
  100MOL0     C13722   1.415   4.007   6.148  0.0947 -0.1254  0.9261
  100MOL0     C13723   1.517   4.090   6.058 -0.9845 -0.1013  0.4138
  100MOL0     C13724   1.561   4.027   5.919  0.2150  0.1764 -0.9374
  100MOL0     C13725   1.647   3.899   5.932  0.1768  1.0638 -0.5994
  100MOL0     C13726   1.778   3.922   5.989 -0.3423 -0.2511 -0.3022
  100MOL0     C13727   1.887   3.945   6.036 -0.5966 -0.4124  0.5444
  100MOL0     C13728   1.652   3.876   6.390  0.0736  0.2047  0.0930
  100MOL0     C13729   1.758   3.898   6.485  0.1321  0.0089  1.0402
  100MOL0     C13730   1.861   3.788   6.509 -0.4396  0.6306  0.2077
  100MOL0     H13731   1.870   4.406   6.843 -1.2784 -0.2487 -1.9626
  100MOL0     H13732   2.040   4.463   7.012 -1.2251 -0.6096  1.6661
  100MOL0     H13733   2.247   4.462   7.185 -1.0505  2.2195 -0.7131
  100MOL0     H13734   2.294   4.512   7.009  0.1959 -0.7151  0.0392
  100MOL0     H13735   2.508   4.391   7.048  0.6767  2.6623 -1.6739
  100MOL0     H13736   2.479   4.550   7.113  0.1324 -0.8849 -3.1410
  100MOL0     H13737   2.417   4.427   7.336 -0.6516 -0.8216  0.4477
  100MOL0     H13738   2.467   4.287   7.238 -0.5053  0.3396  0.3826
  100MOL0     H13739   2.678   4.378   7.202 -1.7915 -0.9997  0.1477
  100MOL0     H13740   2.641   4.532   7.280 -1.0915 -0.0786 -1.1752
  100MOL0     H13741   2.580   4.358   7.497  0.0889 -1.5379 -0.4241
  100MOL0     H13742   2.757   4.385   7.453  0.3726  1.5931 -0.3065
  100MOL0     H13743   2.592   4.154   7.370  0.8124  0.3792 -1.2582
  100MOL0     H13744   2.763   4.172   7.355  0.8227 -0.7719  1.4429
  100MOL0     H13745   2.608   4.172   7.614  0.4160  1.1330  1.7796
  100MOL0     H13746   2.780   4.188   7.608  0.0488 -1.0548 -0.1956
  100MOL0     H13747   2.658   3.970   7.675 -1.8604  2.2654 -1.0241
  100MOL0     H13748   2.631   3.930   7.502 -1.1720 -0.5666  1.9169
  100MOL0     H13749   2.909   4.001   7.763 -1.4415 -2.7119  2.3437
  100MOL0     H13750   3.197   3.773   7.662 -0.5363 -1.2875  1.8367
  100MOL0     H13751   3.141   3.831   7.817 -0.5901  2.1254  0.0615
  100MOL0     H13752   3.228   4.019   7.585 -1.8936  1.4142 -0.5401
  100MOL0     H13753   3.159   4.069   7.737 -1.7565 -1.9655 -0.1598
  100MOL0     H13754   3.351   3.957   7.864 -1.3834 -1.8411 -1.4163
  100MOL0     H13755   3.419   3.905   7.709 -0.3375  0.7660 -1.6853
  100MOL0     H13756   3.439   4.156   7.647  0.9926  1.2986  0.7705
  100MOL0     H13757   3.405   4.191   7.814 -0.8286  1.7212 -1.5726
  100MOL0     H13758   3.775   4.227   7.828 -2.3183  1.5913  0.2114
  100MOL0     H13759   3.961   4.417   7.605 -0.6694  0.4251  0.9787
  100MOL0     H13760   4.072   4.311   7.689  0.4249  0.2850  0.7184
  100MOL0     H13761   3.930   4.384   7.774 -0.5173 -0.8247 -0.1498
  100MOL0     H13762   3.959   4.260   7.107 -0.2309  0.2504 -1.6171
  100MOL0     H13763   4.088   4.243   6.900 -1.7857  1.6555  1.5831
  100MOL0     H13764   4.214   4.203   6.739 -0.5388 -2.1076 -0.3979
  100MOL0     H13765   4.389   4.218   6.722 -1.9607  3.5138 -1.2185
  100MOL0     H13766   4.253   3.942   6.680 -0.0332 -0.3729 -1.5182
  100MOL0     H13767   4.239   4.080   6.563 -1.7581  0.3668  0.7004
  100MOL0     H13768   4.400   3.901   6.502  0.1550 -0.2672  0.1835
  100MOL0     H13769   4.491   3.928   6.654  1.3806  0.0462 -1.5357
  100MOL0     H13770   4.556   4.147   6.567  0.5438  0.0153 -1.0344
  100MOL0     H13771   4.438   4.137   6.437  0.1155  0.6336 -0.3013
  100MOL0     H13772   4.674   3.936   6.450  0.8979  0.3318 -0.0885
  100MOL0     H13773   4.559   3.952   6.330 -2.6454  1.4181 -0.5710
  100MOL0     H13774   4.653   4.203   6.285 -1.1321 -0.2659  2.2427
  100MOL0     H13775   4.747   4.054   6.243  1.6316  1.6163 -1.0359
  100MOL0     H13776   4.882   4.070   6.441 -1.3923 -0.5767  0.6162
  100MOL0     H13777   4.788   4.211   6.504  1.7855 -0.1419  1.3139
  100MOL0     H13778   4.858   4.347   6.306 -0.2837  1.0558  1.9904
  100MOL0     H13779   4.933   4.196   6.252 -1.1538 -0.4664 -0.6344
  100MOL0     H13780   4.363   3.959   7.080 -1.1020 -1.8712 -2.3281
  100MOL0     H13781   4.203   3.951   7.273  1.6532  1.5296 -0.1485
  100MOL0     H13782   3.786   4.015   7.386 -1.4273 -1.8507  0.2382
  100MOL0     H13783   3.609   3.964   7.526  0.2900 -0.9611  0.3577
  100MOL0     H13784   2.254   4.107   6.906  2.0686  1.2416  0.8035
  100MOL0     H13785   2.089   4.054   6.732  1.5579  1.0232 -0.8189
  100MOL0     H13786   1.673   4.230   6.530 -1.7573 -0.7196  1.3359
  100MOL0     H13787   1.511   4.177   6.350 -1.4351 -0.8573  0.1839
  100MOL0     H13788   1.349   3.956   6.077  1.1107 -2.4957  1.5987
  100MOL0     H13789   1.351   4.072   6.209 -0.7630  2.8456 -2.7204
  100MOL0     H13790   1.604   4.114   6.120  1.2820 -4.4111 -0.7262
  100MOL0     H13791   1.474   4.183   6.020 -1.6857 -1.9364 -3.8569
  100MOL0     H13792   1.471   4.003   5.863  0.0109  1.4039 -1.1693
  100MOL0     H13793   1.625   4.101   5.870  0.4570  2.3247  2.3041
  100MOL0     H13794   1.664   3.855   5.833  0.5068 -0.3854  0.0651
  100MOL0     H13795   1.604   3.816   5.990  2.2960  2.2900  3.1079
  100MOL0     H13796   1.984   3.946   6.080 -1.0799  1.7765  1.7316
  100MOL0     H13797   1.645   3.774   6.353  1.4303  0.7634 -1.8459
  100MOL0     H13798   1.883   3.744   6.411 -2.2775  2.4378 -1.0986
  100MOL0     H13799   1.941   3.814   6.579 -1.0687 -0.3956  1.3595
  100MOL0     H13800   1.803   3.707   6.554 -1.3023  0.5776 -0.9709
  101MOL0     O13801   3.733  10.177   8.720 -0.5673  0.2897 -0.0245
  101MOL0     C13802   3.626  10.223   8.758  0.1969  0.2071 -0.2567
  101MOL0     O13803   3.603  10.287   8.872 -0.0070  0.4203 -0.3202
  101MOL0     C13804   3.719  10.307   8.939  0.4921  0.1332  0.4210
  101MOL0     C13805   3.775  10.191   8.992 -1.2951 -0.7911 -0.4212
  101MOL0     C13806   3.909  10.194   9.044 -0.2546  0.5400  0.5227
  101MOL0     C13807   3.974  10.318   9.048 -0.2745  0.4670  0.2546
  101MOL0     O13808   4.095  10.321   9.108 -0.2002  0.1095  0.4160
  101MOL0     C13809   4.112  10.427   9.206 -1.0371 -0.4900 -0.7752
  101MOL0     C13810   4.230  10.375   9.295 -0.5923  0.5288 -0.0903
  101MOL0     C13811   4.374  10.378   9.237  0.9580 -0.4762 -0.8421
  101MOL0     C13812   4.407  10.507   9.172 -0.2474  0.7993  0.8787
  101MOL0     C13813   4.551  10.507   9.112 -0.4991  0.4931 -0.6149
  101MOL0     C13814   4.580  10.611   9.010  0.1967 -0.6833 -0.1782
  101MOL0     C13815   4.565  10.752   9.066 -0.2743 -0.1694 -0.7415
  101MOL0     C13816   4.669  10.820   9.164 -0.1734  0.1775 -0.1524
  101MOL0     N13817   4.805  10.827   9.104 -0.1005  0.4847  0.4978
  101MOL0     C13818   4.895  10.723   9.122 -0.6368 -0.6343 -0.5580
  101MOL0     C13819   5.000  10.767   9.043 -0.2853 -0.7118 -0.2949
  101MOL0     C13820   5.125  10.696   9.008 -0.1343 -1.4342 -0.4050
  101MOL0     C13821   5.247  10.795   8.989  0.9163  0.2040 -0.2392
  101MOL0     C13822   5.272  10.882   9.113 -0.4258  0.4988  0.3091
  101MOL0     C13823   5.353  10.815   9.226 -0.8797  0.3012  0.0646
  101MOL0     O13824   5.451  10.905   9.289  0.4350 -0.4274 -0.1343
  101MOL0     C13825   5.531  10.857   9.384  0.3555  0.2441 -0.3698
  101MOL0     C13826   5.629  10.940   9.428 -0.7799 -0.1611 -1.0795
  101MOL0     C13827   5.724  10.904   9.525  0.4052  0.9779 -0.0146
  101MOL0     C13828   5.838  11.008   9.559 -0.0446  0.7013  0.5641
  101MOL0     C13829   5.719  10.773   9.583  0.6201 -0.5923  0.4730
  101MOL0     C13830   5.823  10.728   9.687 -0.3616  0.8572  0.5050
  101MOL0     O13831   5.838  10.590   9.684 -0.8492  0.4538  1.1619
  101MOL0     C13832   5.936  10.533   9.757  0.1498  0.6349 -0.1394
  101MOL0     C13833   6.011  10.434   9.706  0.9369  0.9959  0.4510
  101MOL0     C13834   6.107  10.371   9.783  0.7409  0.3077 -0.7714
  101MOL0     C13835   6.126  10.406   9.913  0.2680  0.1488  0.0572
  101MOL0     O13836   6.215  10.342   9.987 -0.1466 -0.1725 -1.1053
  101MOL0     C13837   6.356  10.370   9.963 -0.0808  0.1630 -0.2216
  101MOL0     C13838   6.411  10.495  10.027  0.4314 -0.2917  0.1759
  101MOL0     C13839   6.391  10.504  10.174  0.6430  0.0477 -0.0248
  101MOL0     C13840   6.408  10.648  10.240 -0.0537 -1.1978  0.4983
  101MOL0     C13841   6.418  10.635  10.400 -0.2972 -0.0634  0.4604
  101MOL0     C13842   6.299  10.607  10.483 -0.0589 -0.7122  0.2072
  101MOL0     C13843   6.311  10.677  10.625 -0.3600  0.3806  0.9438
  101MOL0     C13844   6.188  10.656  10.710  0.5348 -0.2567 -0.4766
  101MOL0    Cl13845   6.211  10.695  10.892 -0.1113 -0.1284  0.1116
  101MOL0     C13846   6.048  10.505   9.975 -0.2277 -0.0597  0.1089
  101MOL0     C13847   5.946  10.560   9.892 -0.4897 -0.3164  1.3743
  101MOL0     O13848   5.872  10.807   9.765 -0.1711  0.2752  0.1983
  101MOL0     C13849   5.621  10.685   9.531 -0.8924 -0.3745 -0.5813
  101MOL0     C13850   5.536  10.721   9.425 -0.1678 -0.5027  0.0213
  101MOL0     N13851   4.965  10.885   8.980  0.6228 -0.0157 -0.0539
  101MOL0     N13852   4.850  10.928   9.032  0.1134 -0.0360 -0.0611
  101MOL0     C13853   3.912  10.429   8.987  0.1728 -0.4378  0.0452
  101MOL0     C13854   3.782  10.428   8.935 -0.1109 -0.2571 -0.4072
  101MOL0     C13855   3.516  10.219   8.661 -0.2452 -0.8283  0.2429
  101MOL0     C13856   3.518  10.303   8.550  0.0864 -0.8262  0.0342
  101MOL0     C13857   3.403  10.311   8.463 -0.3586 -0.3128  0.6871
  101MOL0     C13858   3.284  10.236   8.493 -0.2287  0.4315 -0.5368
  101MOL0     O13859   3.162  10.235   8.435  0.2508 -0.5895  0.3422
  101MOL0     C13860   3.126  10.348   8.350 -0.2732 -0.2855 -0.2293
  101MOL0     C13861   2.992  10.332   8.279 -0.3444  0.0989 -0.0312
  101MOL0     C13862   2.885  10.307   8.383 -0.3036 -0.1631  0.5735
  101MOL0     C13863   2.757  10.266   8.325  0.3259 -0.8050  0.4103
  101MOL0     C13864   2.649  10.230   8.411  1.7975  0.3142 -0.0192
  101MOL0     C13865   2.551  10.205   8.479 -0.1627  0.7963 -0.5143
  101MOL0     C13866   3.294  10.139   8.595 -0.7607  0.7918 -0.0025
  101MOL0     C13867   3.407  10.126   8.674 -0.4397 -0.0121  0.3454
  101MOL0     C13868   3.409  10.019   8.790  0.3510  0.3707 -0.2187
  101MOL0     H13869   3.734  10.090   8.991 -0.9679 -0.9190 -0.8595
  101MOL0     H13870   3.959  10.102   9.069  1.2095  1.5191  1.3153
  101MOL0     H13871   4.026  10.425   9.274 -0.3910 -0.0898  0.0657
  101MOL0     H13872   4.137  10.524   9.163 -3.3554 -1.7443 -5.6343
  101MOL0     H13873   4.238  10.440   9.383  3.5265  0.3354 -0.1684
  101MOL0     H13874   4.193  10.278   9.331 -2.4401  1.5754  1.0153
  101MOL0     H13875   4.446  10.347   9.314  0.6661 -1.7598 -1.0654
  101MOL0     H13876   4.378  10.287   9.176  0.1884 -2.3146  1.6654
  101MOL0     H13877   4.347  10.520   9.082  1.3696 -0.0674 -0.3797
  101MOL0     H13878   4.384  10.581   9.250 -1.6617 -0.8469  2.0791
  101MOL0     H13879   4.574  10.411   9.067  0.7246  0.6966 -0.4491
  101MOL0     H13880   4.619  10.511   9.198  0.1070  0.2341 -1.0742
  101MOL0     H13881   4.676  10.588   8.964  0.6639  1.1651 -0.2132
  101MOL0     H13882   4.503  10.611   8.933 -0.3800  2.6084  0.2207
  101MOL0     H13883   4.465  10.763   9.108  0.8244 -0.4386  2.2740
  101MOL0     H13884   4.557  10.821   8.982 -1.8200  1.4825  0.6660
  101MOL0     H13885   4.633  10.922   9.180 -3.1953 -0.6608 -0.8912
  101MOL0     H13886   4.682  10.761   9.255 -0.2539  2.0490  1.1273
  101MOL0     H13887   4.885  10.625   9.166  0.1116 -0.6489 -0.4113
  101MOL0     H13888   5.113  10.635   8.918 -0.1123 -1.2294 -0.5471
  101MOL0     H13889   5.144  10.623   9.088  0.1285  1.1377  2.0096
  101MOL0     H13890   5.337  10.743   8.954  1.1977  1.5781 -1.6425
  101MOL0     H13891   5.221  10.866   8.911 -1.7616  0.0923  0.4503
  101MOL0     H13892   5.324  10.968   9.071  1.1851  0.5890  2.3603
  101MOL0     H13893   5.178  10.917   9.157 -1.2475  1.4289 -2.0310
  101MOL0     H13894   5.283  10.773   9.299 -1.8515  0.4546 -0.7588
  101MOL0     H13895   5.401  10.724   9.189 -2.8299 -0.6105 -0.3892
  101MOL0     H13896   5.625  11.043   9.393  0.2013  0.7405  1.2333
  101MOL0     H13897   5.801  11.067   9.643 -0.4119 -0.2624  1.1009
  101MOL0     H13898   5.854  11.070   9.470  1.1928 -2.8612 -1.9274
  101MOL0     H13899   5.930  10.956   9.586  0.0109 -0.0982 -1.0395
  101MOL0     H13900   5.995  10.403   9.603  3.0885  0.0781  0.3255
  101MOL0     H13901   6.162  10.288   9.739  0.8839 -0.3728  0.6191
  101MOL0     H13902   6.430  10.297   9.995  2.1734  2.9408  1.3913
  101MOL0     H13903   6.362  10.377   9.854  0.6553 -2.0207 -0.3648
  101MOL0     H13904   6.517  10.518  10.013  0.9656  1.2716  5.0419
  101MOL0     H13905   6.369  10.585   9.982  3.0296  0.5089 -0.8852
  101MOL0     H13906   6.475  10.446  10.212  0.3316 -2.1089 -2.3982
  101MOL0     H13907   6.297  10.468  10.217  2.3191 -1.9125  2.2778
  101MOL0     H13908   6.323  10.708  10.207  0.2051 -0.1920  1.5763
  101MOL0     H13909   6.499  10.699  10.206 -1.6424  1.5061  0.0732
  101MOL0     H13910   6.500  10.568  10.427  0.7082  0.5663 -0.9346
  101MOL0     H13911   6.460  10.735  10.418  0.4003 -0.3126  0.2175
  101MOL0     H13912   6.280  10.500  10.486  1.3336 -0.9757  0.7083
  101MOL0     H13913   6.212  10.650  10.433  1.3048  0.3597 -1.3587
  101MOL0     H13914   6.334  10.783  10.608  1.0806 -0.1408 -0.5703
  101MOL0     H13915   6.388  10.621  10.679  0.4972 -1.7883 -2.2471
  101MOL0     H13916   6.154  10.553  10.698  2.9739 -1.1247 -0.6420
  101MOL0     H13917   6.116  10.724  10.665  0.1808  0.4249  1.0582
  101MOL0     H13918   6.049  10.541  10.077 -0.3388  4.2905 -1.2334
  101MOL0     H13919   5.883  10.638   9.932  1.5019  1.3383  1.4827
  101MOL0     H13920   5.615  10.580   9.561 -2.0111 -0.6156 -1.5768
  101MOL0     H13921   5.494  10.634   9.376  1.3041 -1.1432 -0.1273
  101MOL0     H13922   3.974  10.518   8.979  0.4250 -0.7333 -1.8979
  101MOL0     H13923   3.725  10.505   8.884 -1.9425  0.4530  2.4617
  101MOL0     H13924   3.597  10.373   8.525  1.0808 -2.0372 -0.3160
  101MOL0     H13925   3.402  10.382   8.381 -0.3375 -1.7765 -0.6423
  101MOL0     H13926   3.115  10.437   8.413 -1.2217  0.1141 -0.9414
  101MOL0     H13927   3.194  10.368   8.266 -0.9064 -0.5800 -0.8186
  101MOL0     H13928   2.991  10.257   8.200 -1.2183  0.3951 -0.3108
  101MOL0     H13929   2.956  10.427   8.237 -0.0766 -0.3753 -1.4026
  101MOL0     H13930   2.921  10.221   8.440 -0.3804 -0.1949  0.5744
  101MOL0     H13931   2.872  10.392   8.450 -1.0531 -1.3125  1.9325
  101MOL0     H13932   2.767  10.193   8.244 -0.6069  1.7026 -2.1276
  101MOL0     H13933   2.724  10.358   8.277  1.8960  0.4927  1.6935
  101MOL0     H13934   2.461  10.190   8.534  0.8948  0.7426  1.2874
  101MOL0     H13935   3.207  10.074   8.603  0.0992 -0.6961 -1.8814
  101MOL0     H13936   3.363  10.064   8.878 -0.2050  3.0395 -1.7675
  101MOL0     H13937   3.352   9.927   8.771  2.8829 -1.9885  2.6147
  101MOL0     H13938   3.510   9.987   8.815 -0.2988 -2.6847 -0.9993
  102MOL0     O13939  10.405   2.492   5.257  0.2994  0.2234  0.8796
  102MOL0     C13940  10.499   2.487   5.181 -0.2130  0.2414  0.2190
  102MOL0     O13941  10.621   2.419   5.199 -0.7788  0.4912  0.1028
  102MOL0     C13942  10.676   2.389   5.320  0.4173  0.0913  0.6147
  102MOL0     C13943  10.772   2.283   5.316  0.6542  0.1656 -0.6147
  102MOL0     C13944  10.829   2.254   5.438  0.3507  0.3995 -0.0127
  102MOL0     C13945  10.804   2.313   5.560 -0.1340  0.1287  0.3741
  102MOL0     O13946  10.861   2.273   5.678 -0.2945  0.3553 -0.5973
  102MOL0     C13947  10.967   2.176   5.666  0.0545  0.2061 -0.2118
  102MOL0     C13948  11.031   2.180   5.802  0.4987 -0.1538  0.2086
  102MOL0     C13949  11.148   2.085   5.804 -0.4991 -0.1079  0.0493
  102MOL0     C13950  11.236   2.103   5.932 -0.2700 -0.4913 -0.6051
  102MOL0     C13951  11.363   2.010   5.906  0.0143 -0.6715  0.5178
  102MOL0     C13952  11.347   1.861   5.927  0.0343  0.0327 -1.0604
  102MOL0     C13953  11.332   1.832   6.079  0.7448 -0.6486  0.8378
  102MOL0     C13954  11.310   1.685   6.115 -0.1076 -0.1500  1.5675
  102MOL0     N13955  11.378   1.652   6.241  0.4424 -0.4631  0.4214
  102MOL0     C13956  11.499   1.586   6.246 -0.5045 -0.8571 -0.1792
  102MOL0     C13957  11.512   1.538   6.368  0.1123 -0.3698 -0.5632
  102MOL0     C13958  11.602   1.422   6.417  0.6882  0.3045  0.6934
  102MOL0     C13959  11.742   1.479   6.427  0.0361 -0.5273  0.0775
  102MOL0     C13960  11.831   1.356   6.425 -0.1245 -0.4510  0.0489
  102MOL0     C13961  11.969   1.395   6.383  0.4337 -0.1697 -0.9346
  102MOL0     O13962  12.067   1.285   6.369  0.6261 -0.3990 -0.1319
  102MOL0     C13963  12.184   1.321   6.308 -0.7861 -0.1108 -1.0440
  102MOL0     C13964  12.179   1.334   6.168  0.3625  0.1043 -0.4172
  102MOL0     C13965  12.296   1.366   6.107 -0.2266  0.8663  0.4759
  102MOL0     C13966  12.281   1.374   5.958  0.1402  0.1913  0.4910
  102MOL0     C13967  12.421   1.363   6.183  0.1315 -0.0911  0.2889
  102MOL0     C13968  12.555   1.368   6.122 -0.0096  0.8447  1.1258
  102MOL0     O13969  12.666   1.408   6.201  0.4006 -0.8672  0.5204
  102MOL0     C13970  12.796   1.371   6.165 -0.0561  0.2839 -0.9958
  102MOL0     C13971  12.881   1.319   6.260 -1.2124  0.4988  0.2185
  102MOL0     C13972  13.018   1.282   6.229  0.2839 -0.2679  0.2141
  102MOL0     C13973  13.068   1.291   6.096  0.1552  0.1925 -0.5757
  102MOL0     O13974  13.202   1.284   6.052  0.0919 -0.3218  0.5884
  102MOL0     C13975  13.303   1.298   6.147  0.4385 -0.1948  0.2787
  102MOL0     C13976  13.437   1.305   6.089 -0.8888  0.8087 -0.3978
  102MOL0     C13977  13.556   1.316   6.189  0.3299 -0.3301 -1.3584
  102MOL0     C13978  13.665   1.227   6.168 -0.8678  0.4996  0.2894
  102MOL0     C13979  13.792   1.275   6.248 -0.1555 -0.0443 -0.0297
  102MOL0     C13980  13.895   1.170   6.253  0.2467  0.4040 -0.7416
  102MOL0     C13981  14.012   1.209   6.343 -0.2983 -0.6869 -0.0747
  102MOL0     C13982  13.989   1.199   6.500  0.3558 -0.2546  0.6793
  102MOL0    Cl13983  14.126   1.266   6.598 -0.7028 -0.0854 -0.2909
  102MOL0     C13984  12.979   1.348   6.003 -0.9301  0.6254  0.1297
  102MOL0     C13985  12.848   1.377   6.031  0.1924 -0.3116  0.8519
  102MOL0     O13986  12.561   1.311   6.012 -0.1423 -0.1121 -0.0345
  102MOL0     C13987  12.414   1.349   6.322  0.1206 -0.4230  0.5526
  102MOL0     C13988  12.296   1.328   6.388 -0.1707  0.2258 -0.0802
  102MOL0     N13989  11.413   1.593   6.442  0.5425  0.0780  0.6144
  102MOL0     N13990  11.327   1.659   6.369  0.0271  0.3896  0.2533
  102MOL0     C13991  10.712   2.414   5.556 -0.1600  0.0047 -0.6636
  102MOL0     C13992  10.650   2.456   5.437  0.0991 -0.2355  0.1467
  102MOL0     C13993  10.493   2.578   5.059  0.2237 -0.9430 -0.4249
  102MOL0     C13994  10.410   2.698   5.072  0.5792 -0.3037 -0.3408
  102MOL0     C13995  10.428   2.795   4.973  0.7139  0.2813  0.6069
  102MOL0     C13996  10.514   2.775   4.860 -0.2163  0.0917 -0.3442
  102MOL0     O13997  10.538   2.877   4.767 -0.3338 -0.2717 -0.0001
  102MOL0     C13998  10.547   3.016   4.806 -0.1323  0.2096 -1.0953
  102MOL0     C13999  10.670   3.041   4.884 -0.3647 -0.2951  0.6471
  102MOL0     C14000  10.794   3.050   4.787  0.6728  0.2139  0.1738
  102MOL0     C14001  10.922   3.003   4.852  0.1467  0.7000  0.1308
  102MOL0     C14002  10.946   3.046   4.993  0.6052  0.3025  0.5435
  102MOL0     C14003  10.961   3.055   5.113  0.4228 -1.1807 -0.6326
  102MOL0     C14004  10.579   2.653   4.849 -1.0886  0.6949 -0.7226
  102MOL0     C14005  10.569   2.556   4.952 -0.5857  0.2419  1.2458
  102MOL0     C14006  10.652   2.432   4.917 -0.7044 -0.3532  0.0961
  102MOL0     H14007  10.788   2.223   5.227  1.5692 -0.5197 -0.0076
  102MOL0     H14008  10.900   2.174   5.424 -2.0155 -1.7317 -0.5650
  102MOL0     H14009  11.040   2.204   5.589  0.7148 -4.0001 -1.3871
  102MOL0     H14010  10.923   2.081   5.636 -2.0721 -0.2875  3.7955
  102MOL0     H14011  11.066   2.278   5.833  0.6176  0.3189 -1.3189
  102MOL0     H14012  10.962   2.157   5.884 -1.3171  3.7314 -0.0282
  102MOL0     H14013  11.110   1.983   5.806  0.3482 -0.5347 -2.0262
  102MOL0     H14014  11.206   2.096   5.711  0.1178 -1.1345  0.2943
  102MOL0     H14015  11.282   2.201   5.942  0.8586 -1.0551  0.0102
  102MOL0     H14016  11.182   2.079   6.024 -0.0794  0.0124 -0.3629
  102MOL0     H14017  11.443   2.038   5.974  1.1538  2.4200 -1.8522
  102MOL0     H14018  11.398   2.030   5.804  0.3239  1.0850  0.9322
  102MOL0     H14019  11.256   1.821   5.881 -1.4422  0.0575  1.6177
  102MOL0     H14020  11.419   1.800   5.872 -0.3545 -1.5310  0.0773
  102MOL0     H14021  11.249   1.889   6.123  1.5533  0.2918  1.1817
  102MOL0     H14022  11.422   1.869   6.129  0.4894 -2.2377  2.6107
  102MOL0     H14023  11.201   1.674   6.121 -0.5894  1.7615 -1.1955
  102MOL0     H14024  11.344   1.611   6.041 -2.4631 -2.7979  2.9476
  102MOL0     H14025  11.555   1.565   6.155  3.9184 -0.8591  2.2136
  102MOL0     H14026  11.593   1.335   6.351  0.8023  1.5880 -1.0648
  102MOL0     H14027  11.571   1.392   6.518 -2.3486  1.8473  0.3446
  102MOL0     H14028  11.759   1.540   6.339  1.2580  1.6919  1.7666
  102MOL0     H14029  11.755   1.549   6.510  1.2006 -1.6471  0.8748
  102MOL0     H14030  11.846   1.318   6.527  2.8008  1.5123  0.4592
  102MOL0     H14031  11.798   1.277   6.357  1.8396 -0.6899 -0.6806
  102MOL0     H14032  11.965   1.452   6.290  3.3852  0.5719 -0.6982
  102MOL0     H14033  12.014   1.464   6.456  0.1209  0.6912 -1.5344
  102MOL0     H14034  12.088   1.317   6.111  0.6864  5.8147 -3.4047
  102MOL0     H14035  12.188   1.404   5.909 -0.3016 -1.3853  0.3024
  102MOL0     H14036  12.307   1.274   5.921 -0.9261  0.6760 -1.7505
  102MOL0     H14037  12.351   1.451   5.926 -0.2738  0.5792  0.5216
  102MOL0     H14038  12.848   1.316   6.363  3.0039  3.0649  1.8767
  102MOL0     H14039  13.079   1.243   6.309  0.1707 -1.2971 -0.1859
  102MOL0     H14040  13.280   1.385   6.209 -2.4065 -0.8588  0.3005
  102MOL0     H14041  13.304   1.209   6.212  0.0452 -1.2775 -1.1546
  102MOL0     H14042  13.456   1.213   6.032  4.6931  1.8332 -0.7472
  102MOL0     H14043  13.437   1.389   6.019  1.4725  0.7261 -0.5554
  102MOL0     H14044  13.523   1.306   6.293  1.6646 -1.0190 -0.9905
  102MOL0     H14045  13.596   1.418   6.188  1.6298 -0.6411  2.3971
  102MOL0     H14046  13.683   1.233   6.060 -2.9620  0.3078 -0.1136
  102MOL0     H14047  13.646   1.123   6.198 -1.6664  0.4583 -0.3395
  102MOL0     H14048  13.833   1.358   6.189 -2.6799  0.7451 -0.8401
  102MOL0     H14049  13.752   1.311   6.343  1.9910 -0.5509  1.1250
  102MOL0     H14050  13.932   1.143   6.154 -0.5633  2.6782 -1.7535
  102MOL0     H14051  13.845   1.081   6.293 -2.1873  2.1668  0.4030
  102MOL0     H14052  14.030   1.315   6.324 -0.7215 -0.4284  0.9140
  102MOL0     H14053  14.096   1.143   6.319 -0.9203 -0.9293 -1.6550
  102MOL0     H14054  13.962   1.099   6.535  0.9334 -0.9361 -0.7066
  102MOL0     H14055  13.904   1.267   6.512  1.4820  1.0951  1.2975
  102MOL0     H14056  13.024   1.359   5.905  2.9151  0.9281  1.7536
  102MOL0     H14057  12.786   1.422   5.953  1.4664  0.3012  0.1501
  102MOL0     H14058  12.511   1.364   6.367  0.7922 -1.4807 -0.4862
  102MOL0     H14059  12.283   1.326   6.496 -0.6997  0.0173 -0.1460
  102MOL0     H14060  10.690   2.466   5.648  1.2536 -1.0873  0.3251
  102MOL0     H14061  10.572   2.531   5.445 -1.3375 -1.8029  1.6044
  102MOL0     H14062  10.367   2.716   5.170 -1.4248 -3.5673 -0.4943
  102MOL0     H14063  10.379   2.889   4.994 -2.6877 -1.4704  1.2360
  102MOL0     H14064  10.535   3.070   4.712 -0.9285 -2.4985 -2.6429
  102MOL0     H14065  10.470   3.046   4.879  2.6619  0.9037  1.8015
  102MOL0     H14066  10.678   2.969   4.966 -3.4290 -1.8914 -0.3040
  102MOL0     H14067  10.675   3.143   4.924  2.1585 -0.0170 -0.1788
  102MOL0     H14068  10.790   2.991   4.696 -1.5239  2.7143 -1.4886
  102MOL0     H14069  10.805   3.155   4.758 -2.9614  1.3860  2.3655
  102MOL0     H14070  11.008   3.034   4.792 -0.9985 -0.0439 -1.9792
  102MOL0     H14071  10.921   2.894   4.861 -0.5464  0.8360  2.1822
  102MOL0     H14072  10.973   3.058   5.220  0.6952  1.9573 -0.6454
  102MOL0     H14073  10.636   2.633   4.759 -1.0305  1.6351 -0.9032
  102MOL0     H14074  10.649   2.407   4.811 -0.0793  1.0335 -0.2653
  102MOL0     H14075  10.758   2.451   4.939 -0.7950  1.4747 -0.8597
  102MOL0     H14076  10.629   2.337   4.966  1.2552  0.0364  1.9592
  103MOL0     O14077  10.316  11.356   6.461 -0.4400  0.4657 -0.1814
  103MOL0     C14078  10.427  11.389   6.420 -0.4302  0.6075  0.2341
  103MOL0     O14079  10.467  11.370   6.288 -0.9779 -0.0838  0.0646
  103MOL0     C14080  10.380  11.310   6.195 -0.1660 -0.1111 -0.2453
  103MOL0     C14081  10.337  11.383   6.083  0.3193 -0.3811 -0.3346
  103MOL0     C14082  10.262  11.340   5.984  0.6296  0.9593 -0.1967
  103MOL0     C14083  10.215  11.208   5.990 -0.3108 -0.1612 -0.4914
  103MOL0     O14084  10.141  11.158   5.885 -0.7963 -0.2461  0.4712
  103MOL0     C14085  10.192  11.050   5.815 -0.5496  0.0877  0.2537
  103MOL0     C14086  10.121  11.056   5.677 -0.6447  1.4877  0.6120
  103MOL0     C14087  10.141  10.919   5.602  0.1943  0.0331  0.4005
  103MOL0     C14088  10.098  10.795   5.680  1.0020  0.2794  0.4012
  103MOL0     C14089  10.085  10.670   5.594  0.2566  0.1916  0.3135
  103MOL0     C14090  10.206  10.633   5.524 -0.2596  0.5094  0.1669
  103MOL0     C14091  10.183  10.519   5.422  0.1991 -1.1984 -0.3790
  103MOL0     C14092  10.106  10.545   5.301  0.5147  0.4576 -0.6198
  103MOL0     N14093  10.134  10.442   5.200  0.8699  0.4794 -0.1977
  103MOL0     C14094  10.250  10.426   5.127  0.4348 -0.7046 -0.3097
  103MOL0     C14095  10.243  10.306   5.065 -0.5474  0.0003  0.0250
  103MOL0     C14096  10.368  10.247   4.993  0.8027 -0.6632 -0.8483
  103MOL0     C14097  10.483  10.221   5.093  0.0930  0.2525 -0.3200
  103MOL0     C14098  10.606  10.147   5.043  0.5419  0.2005  0.7026
  103MOL0     C14099  10.726  10.150   5.141  0.1403 -0.5433  0.2927
  103MOL0     O14100  10.777  10.287   5.147  0.4878 -0.0388 -0.7480
  103MOL0     C14101  10.866  10.329   5.241 -0.5189  0.6124 -0.0248
  103MOL0     C14102  10.901  10.462   5.242 -0.3763 -0.8556 -0.7581
  103MOL0     C14103  11.004  10.504   5.322  0.4533 -0.2808  0.3499
  103MOL0     C14104  11.026  10.661   5.307 -0.1327 -0.2231 -0.9195
  103MOL0     C14105  11.097  10.418   5.391  0.3137 -0.0731  0.0820
  103MOL0     C14106  11.209  10.454   5.476 -0.6021  0.2308 -0.7590
  103MOL0     O14107  11.271  10.357   5.542  0.6288  1.2910 -0.3351
  103MOL0     C14108  11.354  10.394   5.645  0.3734 -0.3774  0.2521
  103MOL0     C14109  11.327  10.486   5.745 -0.0843 -0.2240  0.7740
  103MOL0     C14110  11.421  10.519   5.840 -0.4989 -0.4862 -0.4956
  103MOL0     C14111  11.546  10.459   5.842 -0.0339  0.7606  0.0780
  103MOL0     O14112  11.637  10.478   5.937  0.0353  0.1735 -0.8492
  103MOL0     C14113  11.680  10.610   5.982  1.0587  0.7533  0.4043
  103MOL0     C14114  11.830  10.611   5.968  0.0689 -0.0610  0.1772
  103MOL0     C14115  11.877  10.755   5.974  0.3665  0.2787  0.5362
  103MOL0     C14116  12.028  10.768   5.959 -0.0397 -0.2378  0.3751
  103MOL0     C14117  12.054  10.913   5.922  0.5477  0.1708  0.5710
  103MOL0     C14118  12.179  10.976   5.970  0.0816  0.3182  0.4580
  103MOL0     C14119  12.171  11.121   5.948  0.0545 -0.4727 -0.6676
  103MOL0     C14120  12.306  11.190   5.985 -0.5712  0.3777 -0.6544
  103MOL0    Cl14121  12.280  11.361   5.999 -0.2399  0.4404  0.0355
  103MOL0     C14122  11.579  10.362   5.743  0.0362 -0.2623  0.0810
  103MOL0     C14123  11.479  10.332   5.655 -0.6999  0.5614 -0.8326
  103MOL0     O14124  11.228  10.577   5.494 -0.0286  0.5542 -0.1203
  103MOL0     C14125  11.059  10.281   5.382 -0.2656 -0.2146 -0.3804
  103MOL0     C14126  10.945  10.237   5.317 -0.1163 -0.0766 -0.5731
  103MOL0     N14127  10.126  10.251   5.100  0.8745 -0.3661  0.6598
  103MOL0     N14128  10.051  10.330   5.182 -0.8745 -0.1625  0.3720
  103MOL0     C14129  10.252  11.122   6.095 -0.2317  0.4187  0.3028
  103MOL0     C14130  10.344  11.170   6.197 -0.1973 -0.4304 -0.7725
  103MOL0     C14131  10.503  11.474   6.516 -0.6165  0.6238  0.6169
  103MOL0     C14132  10.567  11.584   6.466  0.8756  0.6904  0.5668
  103MOL0     C14133  10.626  11.680   6.548 -0.8444  0.1560 -0.0943
  103MOL0     C14134  10.630  11.649   6.688  0.0198  0.4106 -0.5060
  103MOL0     O14135  10.690  11.729   6.784 -0.8881  0.4055  0.0440
  103MOL0     C14136  10.693  11.871   6.763  0.5367 -0.3874  0.4815
  103MOL0     C14137  10.566  11.952   6.806 -0.7915 -0.0319  0.0711
  103MOL0     C14138  10.432  11.914   6.736 -0.1382 -0.2929  0.5479
  103MOL0     C14139  10.312  12.016   6.748 -0.0813 -0.8816 -0.3023
  103MOL0     C14140  10.351  12.148   6.694  0.8122  0.6600  0.0252
  103MOL0     C14141  10.367  12.254   6.649  0.7343 -0.0633  0.1231
  103MOL0     C14142  10.570  11.531   6.741 -0.3619 -1.3384 -0.3603
  103MOL0     C14143  10.520  11.439   6.657  0.1688 -0.1607  0.7338
  103MOL0     C14144  10.480  11.306   6.713 -0.7577 -0.1438 -0.2690
  103MOL0     H14145  10.375  11.484   6.069 -2.6809  0.8626 -0.4062
  103MOL0     H14146  10.223  11.398   5.901  0.5832  2.2600  0.7137
  103MOL0     H14147  10.160  10.960   5.868  2.0135 -0.5946  0.7576
  103MOL0     H14148  10.300  11.034   5.806 -0.7849 -0.7320 -1.4820
  103MOL0     H14149  10.012  11.067   5.680 -1.0579 -1.5636 -0.1721
  103MOL0     H14150  10.174  11.125   5.612 -1.0223 -1.5390 -3.2491
  103MOL0     H14151  10.094  10.931   5.504 -1.2439  0.0614  1.0653
  103MOL0     H14152  10.247  10.900   5.585  0.5549 -1.9790  3.9069
  103MOL0     H14153  10.169  10.763   5.756 -1.1140 -4.0323  0.9225
  103MOL0     H14154   9.999  10.801   5.725  0.3084 -4.2235 -0.0271
  103MOL0     H14155  10.014  10.698   5.515  0.9367  1.9696  0.2808
  103MOL0     H14156  10.037  10.583   5.639 -1.0309  0.1090 -1.1292
  103MOL0     H14157  10.266  10.717   5.487  3.2034 -2.4138 -1.5652
  103MOL0     H14158  10.274  10.589   5.597 -1.3522 -1.5429  0.0056
  103MOL0     H14159  10.152  10.424   5.465  1.9636 -1.4536  0.3974
  103MOL0     H14160  10.283  10.494   5.388  1.2669 -0.6412  2.1055
  103MOL0     H14161  10.001  10.565   5.324  1.1347  0.2727  3.1089
  103MOL0     H14162  10.140  10.635   5.249  0.3821  0.7911 -0.1453
  103MOL0     H14163  10.332  10.497   5.117  0.2958 -0.5170 -0.1135
  103MOL0     H14164  10.407  10.309   4.912  0.6706 -1.5308 -1.6001
  103MOL0     H14165  10.340  10.157   4.938  1.2475 -2.1249  1.1975
  103MOL0     H14166  10.518  10.318   5.130 -0.0803  0.3983 -0.5391
  103MOL0     H14167  10.439  10.155   5.169  2.2434 -0.1950  0.6108
  103MOL0     H14168  10.592  10.041   5.020  0.8911  0.2296  0.3316
  103MOL0     H14169  10.629  10.189   4.944 -1.4190 -3.8314 -1.7285
  103MOL0     H14170  10.683  10.109   5.233 -4.2113 -1.2061 -1.7900
  103MOL0     H14171  10.808  10.090   5.100  1.7963  1.0641  1.1266
  103MOL0     H14172  10.853  10.530   5.172  1.6049  1.4550 -0.0041
  103MOL0     H14173  11.130  10.694   5.304 -0.1259 -0.0424  0.5623
  103MOL0     H14174  10.986  10.704   5.399  2.3969 -1.3401  0.8053
  103MOL0     H14175  10.981  10.706   5.218  1.4271 -0.2227 -1.7497
  103MOL0     H14176  11.238  10.547   5.742 -0.1013 -0.2996 -0.6306
  103MOL0     H14177  11.407  10.587   5.924  1.7118  0.6382 -0.9761
  103MOL0     H14178  11.629  10.683   5.918 -0.5858 -2.1775 -1.9152
  103MOL0     H14179  11.638  10.624   6.082  0.2949 -1.9663  0.5511
  103MOL0     H14180  11.874  10.557   6.053  3.6893  0.7041 -1.0345
  103MOL0     H14181  11.866  10.560   5.878  0.5860 -1.2612  1.0214
  103MOL0     H14182  11.842  10.801   6.067  0.7811 -1.0214  1.3649
  103MOL0     H14183  11.825  10.804   5.891  0.1841 -0.1538  0.3921
  103MOL0     H14184  12.077  10.696   5.892 -0.8887 -3.6907  3.1733
  103MOL0     H14185  12.079  10.736   6.050 -1.7229 -5.0140 -0.0804
  103MOL0     H14186  12.060  10.909   5.812 -0.1968 -0.3357  0.5461
  103MOL0     H14187  11.974  10.973   5.965  1.5266  1.3751  0.7671
  103MOL0     H14188  12.259  10.938   5.906 -1.7137 -1.0795 -1.0746
  103MOL0     H14189  12.197  10.958   6.077  0.2204 -1.3183  0.1914
  103MOL0     H14190  12.093  11.169   6.008 -0.7693 -1.1686 -1.1653
  103MOL0     H14191  12.136  11.146   5.847 -0.0317 -0.5197 -0.6496
  103MOL0     H14192  12.388  11.161   5.918  0.0298  1.0489 -0.2134
  103MOL0     H14193  12.341  11.154   6.082  1.1839 -3.8665 -2.6039
  103MOL0     H14194  11.675  10.313   5.755  0.0466 -0.0434  0.9659
  103MOL0     H14195  11.503  10.252   5.585  3.1857  0.7249  0.0668
  103MOL0     H14196  11.125  10.207   5.425 -2.3242 -1.6367  0.4940
  103MOL0     H14197  10.933  10.129   5.321 -2.2878 -0.0201  5.9132
  103MOL0     H14198  10.220  11.020   6.109 -0.5325  0.1610 -1.8171
  103MOL0     H14199  10.369  11.112   6.285 -3.2914  1.1594  1.3649
  103MOL0     H14200  10.549  11.608   6.362 -1.9998  2.9902  1.4799
  103MOL0     H14201  10.674  11.765   6.502 -1.4223  1.2008  1.1527
  103MOL0     H14202  10.778  11.919   6.812  0.5871 -0.5024  0.5080
  103MOL0     H14203  10.705  11.904   6.659 -1.1384  1.5154  0.8257
  103MOL0     H14204  10.593  12.057   6.792  0.4189 -0.4331 -0.7625
  103MOL0     H14205  10.554  11.945   6.915  1.1917 -0.9734  0.2698
  103MOL0     H14206  10.450  11.916   6.628 -0.9828  1.2098  0.4094
  103MOL0     H14207  10.398  11.816   6.771 -3.3032  0.2634 -0.6345
  103MOL0     H14208  10.283  12.029   6.852  3.4608  2.8222  0.4551
  103MOL0     H14209  10.221  11.989   6.693 -2.7016  1.9025  2.3383
  103MOL0     H14210  10.388  12.349   6.604  1.9135 -0.9682 -1.3376
  103MOL0     H14211  10.562  11.515   6.848  0.6237 -1.1234 -0.2425
  103MOL0     H14212  10.546  11.279   6.796  0.9967  0.1933 -1.4945
  103MOL0     H14213  10.374  11.307   6.738 -0.9069  2.5071 -0.7952
  103MOL0     H14214  10.495  11.220   6.646  2.4803 -0.4842  0.6893
  104MOL0     O14215   6.671   1.601   3.670 -0.4705 -0.0947 -0.1714
  104MOL0     C14216   6.772   1.616   3.593 -0.0387 -0.8708 -0.0206
  104MOL0     O14217   6.795   1.730   3.519 -0.0895  0.1404  0.0456
  104MOL0     C14218   6.699   1.829   3.524 -0.0613 -0.1690 -0.5301
  104MOL0     C14219   6.568   1.802   3.485 -0.0909 -0.5526  0.3772
  104MOL0     C14220   6.472   1.900   3.498 -0.3890  0.3832  0.2959
  104MOL0     C14221   6.503   2.034   3.537  0.4305 -0.9726  0.6255
  104MOL0     O14222   6.416   2.143   3.540 -0.5755 -0.1629 -0.1587
  104MOL0     C14223   6.299   2.125   3.611 -0.4707  0.4177 -0.4433
  104MOL0     C14224   6.212   2.250   3.626  0.2459  0.1236 -0.2812
  104MOL0     C14225   6.085   2.229   3.706  0.4451  0.0126  1.4493
  104MOL0     C14226   6.103   2.246   3.848  0.8085  0.0596 -1.8481
  104MOL0     C14227   5.988   2.197   3.936  0.4444  0.4741  0.7140
  104MOL0     C14228   5.971   2.246   4.078 -0.1801 -0.7451  0.1071
  104MOL0     C14229   5.959   2.401   4.093  0.0607 -0.2876  0.6820
  104MOL0     C14230   5.822   2.467   4.049  0.8976  0.4915 -0.0587
  104MOL0     N14231   5.812   2.614   4.088 -0.4875 -0.3187  0.1898
  104MOL0     C14232   5.703   2.683   4.143  0.0047 -0.7691  0.8608
  104MOL0     C14233   5.740   2.814   4.131 -0.6233 -0.3709  0.4707
  104MOL0     C14234   5.657   2.936   4.168  0.1878 -0.5062 -0.3885
  104MOL0     C14235   5.655   3.042   4.055 -0.0896 -0.1747  0.5772
  104MOL0     C14236   5.582   2.979   3.932 -0.1354 -1.0674  0.1426
  104MOL0     C14237   5.554   3.103   3.839 -0.0653  0.3273  0.7997
  104MOL0     O14238   5.493   3.061   3.721 -0.1899 -0.1133 -0.0435
  104MOL0     C14239   5.362   3.006   3.734  0.7898 -0.1003  0.7406
  104MOL0     C14240   5.314   2.929   3.626  0.1427  0.0367  0.4718
  104MOL0     C14241   5.192   2.860   3.624 -0.1068 -0.5475  0.8331
  104MOL0     C14242   5.156   2.786   3.501  1.0033  0.6109  0.0217
  104MOL0     C14243   5.100   2.877   3.738  0.0257 -0.3321 -0.5660
  104MOL0     C14244   4.963   2.826   3.729 -0.5907  0.2954 -0.9530
  104MOL0     O14245   4.948   2.699   3.672  0.4929  0.2958 -0.0512
  104MOL0     C14246   4.807   2.663   3.681 -0.0309 -0.8531  0.3971
  104MOL0     C14247   4.721   2.721   3.586 -0.8018 -0.1362 -0.0259
  104MOL0     C14248   4.590   2.683   3.598  0.3446 -0.4283  0.0063
  104MOL0     C14249   4.547   2.583   3.686 -0.6957 -0.9157  0.1582
  104MOL0     O14250   4.415   2.557   3.655  0.1356  0.3283 -0.4433
  104MOL0     C14251   4.341   2.466   3.733  1.0776 -0.4202 -0.5105
  104MOL0     C14252   4.194   2.509   3.743 -0.1878 -0.6166 -0.2110
  104MOL0     C14253   4.104   2.413   3.825  0.9235 -0.1108 -0.7092
  104MOL0     C14254   4.093   2.267   3.764  0.6910 -1.3096  0.8210
  104MOL0     C14255   4.053   2.263   3.611  0.8285  0.7041  0.4435
  104MOL0     C14256   4.048   2.119   3.556  0.6771 -0.5034  0.1968
  104MOL0     C14257   3.958   2.082   3.426 -0.7318  0.4096  0.2863
  104MOL0     C14258   3.987   1.936   3.377  0.0500  0.5864  1.1837
  104MOL0    Cl14259   3.918   1.814   3.480  0.2782  0.0346  0.4364
  104MOL0     C14260   4.628   2.537   3.787  1.5714 -0.1412  0.2259
  104MOL0     C14261   4.762   2.563   3.782  0.1588 -0.1966 -1.0334
  104MOL0     O14262   4.868   2.895   3.777 -0.2209 -0.3441 -0.1611
  104MOL0     C14263   5.141   2.962   3.842 -1.0401 -0.1871  0.9006
  104MOL0     C14264   5.269   3.030   3.837  0.1063 -0.1911  0.0837
  104MOL0     N14265   5.875   2.813   4.088 -0.4782  0.2225  0.7763
  104MOL0     N14266   5.910   2.696   4.054 -1.1585  0.2317 -0.3123
  104MOL0     C14267   6.638   2.071   3.556 -0.1176  0.3974  0.3071
  104MOL0     C14268   6.733   1.962   3.550  0.3290  1.1430  0.1399
  104MOL0     C14269   6.884   1.518   3.596  0.3150  0.0894  0.2598
  104MOL0     C14270   6.997   1.549   3.529 -0.8615  0.7708 -0.0035
  104MOL0     C14271   7.103   1.469   3.515 -0.3232  0.0185  0.7231
  104MOL0     C14272   7.110   1.348   3.588 -0.1011  0.5089 -0.1480
  104MOL0     O14273   7.219   1.261   3.575  0.6327 -0.0572  0.0916
  104MOL0     C14274   7.346   1.327   3.568 -0.5443  0.0833  0.5605
  104MOL0     C14275   7.440   1.238   3.657 -0.2418  0.5828  0.4375
  104MOL0     C14276   7.393   1.210   3.804 -0.1392 -0.3115  0.5633
  104MOL0     C14277   7.519   1.187   3.875 -1.1139 -0.3809  0.5496
  104MOL0     C14278   7.590   1.068   3.828  0.7257  0.5732  0.5371
  104MOL0     C14279   7.640   0.970   3.776  0.5038  0.7047  0.8798
  104MOL0     C14280   6.997   1.307   3.657 -0.4634  0.3046 -0.6919
  104MOL0     C14281   6.888   1.394   3.666  1.0248  0.3348  0.5532
  104MOL0     C14282   6.774   1.341   3.740 -0.4321  0.0404  0.5098
  104MOL0     H14283   6.527   1.707   3.452 -4.7437  1.9631 -2.1695
  104MOL0     H14284   6.371   1.874   3.468  0.2562  0.2093 -1.8620
  104MOL0     H14285   6.324   2.085   3.710 -3.2401  1.6502  0.8813
  104MOL0     H14286   6.238   2.047   3.565  0.1420  0.0810 -0.6931
  104MOL0     H14287   6.264   2.334   3.673 -0.6003 -0.7210  2.3027
  104MOL0     H14288   6.183   2.287   3.527  0.7234  3.0759  0.5946
  104MOL0     H14289   6.018   2.305   3.665  0.7500 -0.2528  0.4321
  104MOL0     H14290   6.048   2.129   3.678 -0.0352  0.3093  1.0034
  104MOL0     H14291   6.200   2.200   3.869 -0.9444 -3.2348 -0.1810
  104MOL0     H14292   6.128   2.349   3.872  0.0851 -0.2669  0.6525
  104MOL0     H14293   5.998   2.088   3.932 -0.7905  0.3709 -0.1110
  104MOL0     H14294   5.896   2.218   3.881 -1.0658 -2.4369  1.8809
  104MOL0     H14295   5.879   2.206   4.123 -1.4028  0.4845 -1.1969
  104MOL0     H14296   6.063   2.213   4.126  0.3211 -2.6574 -2.0211
  104MOL0     H14297   6.042   2.445   4.037  2.2026 -2.8924  1.6065
  104MOL0     H14298   5.983   2.417   4.198 -0.3018 -1.5766  0.9831
  104MOL0     H14299   5.802   2.446   3.943  0.9963  2.0324 -0.4107
  104MOL0     H14300   5.746   2.411   4.105 -0.0503  0.7751 -1.0266
  104MOL0     H14301   5.607   2.647   4.177  1.2278 -2.3241  2.8886
  104MOL0     H14302   5.697   2.986   4.257  0.9758 -2.4243  0.3894
  104MOL0     H14303   5.557   2.904   4.199  1.2411 -1.5928  2.1823
  104MOL0     H14304   5.610   3.140   4.077 -0.7896 -0.3896  0.1348
  104MOL0     H14305   5.760   3.064   4.034  0.4547 -1.6172  1.6072
  104MOL0     H14306   5.646   2.908   3.878 -1.3862 -1.9897 -0.1694
  104MOL0     H14307   5.494   2.924   3.966 -0.7232  0.2171  0.7702
  104MOL0     H14308   5.495   3.177   3.894 -0.6069  0.9199 -0.5320
  104MOL0     H14309   5.646   3.157   3.815  1.4793 -2.2690  0.4574
  104MOL0     H14310   5.372   2.933   3.534 -0.9439  2.9818 -0.2091
  104MOL0     H14311   5.224   2.801   3.417  1.3740 -1.3820 -0.0684
  104MOL0     H14312   5.059   2.824   3.465  0.7694 -0.9539 -1.1069
  104MOL0     H14313   5.151   2.680   3.527  3.0991  0.6156  0.5624
  104MOL0     H14314   4.749   2.800   3.516 -1.9426  1.4398  1.2156
  104MOL0     H14315   4.522   2.735   3.532 -0.7355  0.4683  1.7777
  104MOL0     H14316   4.341   2.369   3.681 -1.1530  0.6069 -2.6332
  104MOL0     H14317   4.361   2.451   3.839 -3.8831  0.2397  0.7635
  104MOL0     H14318   4.202   2.605   3.794 -0.2570  0.4476 -2.0996
  104MOL0     H14319   4.141   2.507   3.647  1.1874 -1.9284 -0.9984
  104MOL0     H14320   4.005   2.457   3.834  0.8585 -0.6039  1.9669
  104MOL0     H14321   4.138   2.398   3.928 -3.2424 -0.1340  0.8598
  104MOL0     H14322   4.015   2.211   3.817 -1.0531  0.0945 -0.1188
  104MOL0     H14323   4.195   2.231   3.775  1.6669  0.8492 -0.4850
  104MOL0     H14324   3.957   2.317   3.609 -0.5081 -1.5166  1.3729
  104MOL0     H14325   4.119   2.319   3.544  2.8838 -2.4716 -0.3998
  104MOL0     H14326   4.008   2.057   3.637 -5.9067 -0.2912 -2.2412
  104MOL0     H14327   4.149   2.087   3.528  2.0180  3.2097  0.3187
  104MOL0     H14328   3.984   2.154   3.348  0.0396  2.3747  2.2277
  104MOL0     H14329   3.850   2.079   3.443 -1.3622 -0.0425 -3.1824
  104MOL0     H14330   4.095   1.919   3.366 -0.1501  0.4240 -0.8274
  104MOL0     H14331   3.938   1.918   3.281 -0.3444  1.9700  1.1068
  104MOL0     H14332   4.592   2.460   3.855  0.1054  1.5127  1.4218
  104MOL0     H14333   4.832   2.548   3.863  0.0789  0.8416 -0.7499
  104MOL0     H14334   5.068   2.983   3.919 -1.8562  0.7712 -0.0892
  104MOL0     H14335   5.296   3.090   3.923  0.2031  0.8544 -0.6665
  104MOL0     H14336   6.681   2.168   3.578  1.0781  0.1714 -0.9469
  104MOL0     H14337   6.839   1.967   3.571 -0.0106  1.1647  2.1098
  104MOL0     H14338   6.995   1.640   3.469  1.4488  0.0611 -1.2599
  104MOL0     H14339   7.192   1.501   3.461  1.2264  0.5220  3.3954
  104MOL0     H14340   7.381   1.322   3.464 -0.5753 -0.2895  0.5686
  104MOL0     H14341   7.341   1.427   3.613  2.6443  1.6169 -2.0668
  104MOL0     H14342   7.538   1.288   3.652  0.4334 -0.8380 -2.1326
  104MOL0     H14343   7.461   1.145   3.604  0.3973  0.7173  0.4497
  104MOL0     H14344   7.333   1.295   3.839  1.3962  2.6283 -3.2594
  104MOL0     H14345   7.328   1.122   3.801 -3.0604  1.7215 -2.9059
  104MOL0     H14346   7.490   1.173   3.980 -0.1398 -0.5898  0.8096
  104MOL0     H14347   7.589   1.270   3.864 -1.1250 -0.6802 -2.6558
  104MOL0     H14348   7.685   0.893   3.717 -1.0083  0.0807  0.5013
  104MOL0     H14349   7.001   1.204   3.691 -3.2524  0.0910 -0.7446
  104MOL0     H14350   6.787   1.238   3.772 -0.0296 -1.1239 -3.0191
  104MOL0     H14351   6.747   1.404   3.826 -2.6959 -1.7527  1.2097
  104MOL0     H14352   6.688   1.344   3.672 -0.4127 -2.3395  0.3204
  105MOL0     O14353   8.076   3.899  10.907 -0.3308  0.2284  0.6963
  105MOL0     C14354   7.987   3.842  10.975 -0.4659  0.0305 -0.8254
  105MOL0     O14355   8.011   3.769  11.087  0.2901 -0.3637  0.4235
  105MOL0     C14356   8.134   3.770  11.149  0.8416  1.2405  0.2561
  105MOL0     C14357   8.133   3.696  11.258 -0.1230  0.0203  0.3602
  105MOL0     C14358   8.234   3.708  11.351  0.2349 -0.0035 -0.3082
  105MOL0     C14359   8.352   3.781  11.331  0.7614 -0.3525  0.2314
  105MOL0     O14360   8.447   3.793  11.429 -0.0721  0.2451 -0.0942
  105MOL0     C14361   8.584   3.808  11.391  0.0901 -0.4440 -0.0337
  105MOL0     C14362   8.639   3.934  11.465 -0.0503  0.6844 -0.3103
  105MOL0     C14363   8.640   3.926  11.622 -0.2313 -0.2665  0.2730
  105MOL0     C14364   8.710   4.058  11.676 -0.4855  0.2031 -0.4617
  105MOL0     C14365   8.737   4.072  11.835 -0.1278 -0.3947  0.9180
  105MOL0     C14366   8.617   4.031  11.911 -0.0384  1.0321 -0.2723
  105MOL0     C14367   8.625   4.117  12.039 -0.3269 -0.4739 -0.4129
  105MOL0     C14368   8.493   4.119  12.119 -0.0623 -0.5098 -0.1696
  105MOL0     N14369   8.393   4.191  12.045  0.5599 -0.9423  0.0688
  105MOL0     C14370   8.381   4.326  12.035  0.6903 -0.6414 -0.0478
  105MOL0     C14371   8.285   4.350  11.940  0.0774  0.3498  0.3027
  105MOL0     C14372   8.219   4.473  11.892  0.4521 -0.1810 -0.6350
  105MOL0     C14373   8.133   4.545  12.005  0.5368  0.3836  0.8252
  105MOL0     C14374   8.136   4.704  11.991 -0.1150  0.2586  0.5778
  105MOL0     C14375   8.008   4.758  11.939 -0.2316  0.0522  0.5148
  105MOL0     O14376   8.022   4.891  11.874 -0.5999  0.1719  0.4833
  105MOL0     C14377   8.068   4.907  11.746 -0.3684 -0.2678 -0.3873
  105MOL0     C14378   8.053   5.028  11.685  0.7664  1.0029  0.6699
  105MOL0     C14379   8.108   5.077  11.557  0.5806  1.0487  0.1700
  105MOL0     C14380   8.089   5.213  11.511  0.3766  0.2647  1.0243
  105MOL0     C14381   8.188   4.985  11.491 -0.2820  0.3004 -0.0221
  105MOL0     C14382   8.229   5.005  11.347 -0.2946 -0.1761 -0.6725
  105MOL0     O14383   8.343   4.934  11.324  0.4324  0.2334 -0.9350
  105MOL0     C14384   8.432   4.960  11.227  0.3148 -0.0644 -0.2897
  105MOL0     C14385   8.462   5.086  11.180 -0.2006 -0.5107 -0.0453
  105MOL0     C14386   8.550   5.109  11.076 -0.8365  0.0510 -0.2025
  105MOL0     C14387   8.623   5.000  11.020  0.0977 -0.6612 -0.5854
  105MOL0     O14388   8.711   5.006  10.918  0.1506 -0.1944  0.7554
  105MOL0     C14389   8.744   5.135  10.868 -0.2667  0.0152  0.2537
  105MOL0     C14390   8.813   5.138  10.737 -0.4054 -0.4689 -0.0261
  105MOL0     C14391   8.766   5.047  10.629  0.0008  0.1711  0.2662
  105MOL0     C14392   8.613   5.015  10.632 -0.5934 -0.0513 -0.2434
  105MOL0     C14393   8.570   4.938  10.507  0.7995 -1.2240  0.0391
  105MOL0     C14394   8.415   4.926  10.494 -0.7690  0.5989 -0.2839
  105MOL0     C14395   8.352   4.904  10.354 -0.0405  0.3856 -0.0139
  105MOL0     C14396   8.202   4.926  10.380 -0.1539 -1.1340 -0.1147
  105MOL0    Cl14397   8.115   4.914  10.220 -0.0977  0.0111 -0.1799
  105MOL0     C14398   8.604   4.865  11.076  1.1852 -0.2461  0.1991
  105MOL0     C14399   8.508   4.851  11.181  0.5827  0.9851  0.1508
  105MOL0     O14400   8.177   5.089  11.270 -0.1980 -0.2387 -0.4659
  105MOL0     C14401   8.214   4.862  11.555  0.4469  1.0943 -0.3410
  105MOL0     C14402   8.155   4.820  11.678 -0.0107 -1.3688  0.0030
  105MOL0     N14403   8.237   4.225  11.900 -0.0707  0.5671 -0.4612
  105MOL0     N14404   8.291   4.136  11.977  0.6075  0.0882  0.3145
  105MOL0     C14405   8.351   3.858  11.219 -0.7603  0.1449 -0.5085
  105MOL0     C14406   8.246   3.855  11.129 -0.4269  0.2713  0.2350
  105MOL0     C14407   7.846   3.869  10.928  0.3980  0.8553  1.1314
  105MOL0     C14408   7.743   3.853  11.027  0.2657  0.0796 -0.2444
  105MOL0     C14409   7.608   3.860  10.992 -0.2252 -0.4912  0.4220
  105MOL0     C14410   7.562   3.888  10.859 -0.6485  0.8287 -0.3584
  105MOL0     O14411   7.432   3.900  10.815  0.0031 -0.1993  0.1761
  105MOL0     C14412   7.371   4.028  10.831 -0.1089 -0.0796  0.2334
  105MOL0     C14413   7.273   4.022  10.948  0.5155  0.1157  0.1121
  105MOL0     C14414   7.138   3.962  10.905  0.0849  0.1232  0.2533
  105MOL0     C14415   7.039   3.969  11.024 -0.1004 -0.6628  0.0638
  105MOL0     C14416   6.899   3.940  10.965  0.3323 -0.0325 -1.8488
  105MOL0     C14417   6.789   3.906  10.933 -0.0327  0.2786 -0.3804
  105MOL0     C14418   7.660   3.900  10.766 -0.0497  0.5018 -0.1146
  105MOL0     C14419   7.803   3.897  10.797 -0.1038  0.2083  0.4667
  105MOL0     C14420   7.890   3.923  10.666  0.1090 -0.5013 -0.8301
  105MOL0     H14421   8.052   3.630  11.288 -0.3740 -1.1726 -2.6312
  105MOL0     H14422   8.234   3.654  11.444  1.4491 -1.8113 -1.2919
  105MOL0     H14423   8.605   3.823  11.284  0.1634  1.5315  0.2202
  105MOL0     H14424   8.635   3.717  11.423  0.6189 -0.8986 -1.9981
  105MOL0     H14425   8.742   3.953  11.435  0.3970  4.0970  2.7322
  105MOL0     H14426   8.575   4.019  11.438  0.9185  0.9426 -1.9309
  105MOL0     H14427   8.537   3.934  11.658  0.1862 -0.2147  1.5217
  105MOL0     H14428   8.692   3.836  11.656  1.8504  0.9832  0.6058
  105MOL0     H14429   8.814   4.065  11.641  0.4185  0.9641  2.1676
  105MOL0     H14430   8.659   4.146  11.635 -1.0590 -0.1424 -0.4989
  105MOL0     H14431   8.769   4.177  11.844  1.4984 -0.4803 -2.2445
  105MOL0     H14432   8.828   4.023  11.870 -0.2907 -0.6357  1.0058
  105MOL0     H14433   8.522   4.061  11.866 -2.1359 -1.3707  2.2188
  105MOL0     H14434   8.616   3.924  11.931  0.9855  1.0469 -0.0924
  105MOL0     H14435   8.650   4.218  12.007 -0.7857 -0.3176 -0.2908
  105MOL0     H14436   8.709   4.082  12.099 -0.9161 -0.9153  0.1816
  105MOL0     H14437   8.451   4.024  12.154  0.1717 -0.8298 -0.7403
  105MOL0     H14438   8.504   4.182  12.208 -1.2771  0.3076 -0.5678
  105MOL0     H14439   8.438   4.402  12.088  1.5399  0.8260 -2.8407
  105MOL0     H14440   8.149   4.448  11.811 -0.9385  0.7154  0.2525
  105MOL0     H14441   8.294   4.546  11.862 -1.5857  2.6099  0.5929
  105MOL0     H14442   8.030   4.508  12.001  1.0806 -1.3907  2.2056
  105MOL0     H14443   8.174   4.520  12.103  0.1299 -2.5912  0.3254
  105MOL0     H14444   8.151   4.745  12.092  3.1051 -1.8638  1.1429
  105MOL0     H14445   8.219   4.744  11.933  0.5212  0.8831  1.8666
  105MOL0     H14446   7.971   4.688  11.863  2.1485 -0.0690 -0.6419
  105MOL0     H14447   7.938   4.780  12.020 -0.5127  0.3948  0.1782
  105MOL0     H14448   7.998   5.105  11.737 -0.7841  1.2662 -1.2458
  105MOL0     H14449   8.006   5.215  11.440  0.4179 -3.2667  0.6923
  105MOL0     H14450   8.190   5.239  11.475  0.1463 -1.9864 -1.6469
  105MOL0     H14451   8.065   5.282  11.592 -0.2605  2.3476 -0.8489
  105MOL0     H14452   8.434   5.177  11.233  4.0518  2.2490 -1.9568
  105MOL0     H14453   8.584   5.207  11.044  1.3753  0.5137  3.0447
  105MOL0     H14454   8.658   5.199  10.851 -1.6714 -2.4400 -3.2431
  105MOL0     H14455   8.810   5.173  10.947 -1.5300  1.5051  0.6158
  105MOL0     H14456   8.797   5.233  10.685  0.6947  0.6148  1.5314
  105MOL0     H14457   8.919   5.117  10.753 -0.7063 -2.3777 -0.3083
  105MOL0     H14458   8.822   4.953  10.638  1.9063  1.4078  1.8168
  105MOL0     H14459   8.795   5.090  10.533  2.4429 -0.7686  0.5093
  105MOL0     H14460   8.557   5.109  10.637 -1.6210 -0.7194  3.2989
  105MOL0     H14461   8.585   4.946  10.712 -2.8519  0.7715 -0.2415
  105MOL0     H14462   8.611   4.990  10.420  1.4803 -3.0707 -0.8209
  105MOL0     H14463   8.616   4.839  10.497 -1.9485 -2.4470 -1.6301
  105MOL0     H14464   8.373   5.019  10.532  1.0758  2.2566 -2.0867
  105MOL0     H14465   8.385   4.850  10.567 -0.0239  3.0186  2.7233
  105MOL0     H14466   8.373   4.802  10.323  3.0675  1.5295 -2.1638
  105MOL0     H14467   8.391   4.970  10.276  1.1716  0.7724  0.8900
  105MOL0     H14468   8.188   5.023  10.428  0.6533 -1.4523  0.8116
  105MOL0     H14469   8.166   4.850  10.450 -0.8815 -1.6428 -1.0187
  105MOL0     H14470   8.641   4.771  11.038 -1.6697 -0.2232 -3.1890
  105MOL0     H14471   8.469   4.758  11.221  0.0786  1.2225  0.2185
  105MOL0     H14472   8.282   4.795  11.503  0.0376  0.4309 -0.0376
  105MOL0     H14473   8.174   4.715  11.696 -0.1885 -1.4639 -0.3457
  105MOL0     H14474   8.429   3.932  11.206 -2.0156  1.2639 -2.2033
  105MOL0     H14475   8.263   3.916  11.040 -2.6536  0.7384  0.0724
  105MOL0     H14476   7.776   3.837  11.129 -0.7421  0.7536  0.2048
  105MOL0     H14477   7.522   3.848  11.057 -0.7853 -0.6229 -0.3296
  105MOL0     H14478   7.454   4.099  10.841  1.4925 -1.4354 -2.3555
  105MOL0     H14479   7.313   4.053  10.742 -0.8882 -1.2874  0.3782
  105MOL0     H14480   7.256   4.125  10.983 -2.4681 -0.0916 -0.4469
  105MOL0     H14481   7.327   3.972  11.028  2.0171 -1.8603 -2.0021
  105MOL0     H14482   7.098   4.027  10.826  0.7207 -2.3985 -2.3030
  105MOL0     H14483   7.147   3.862  10.861 -0.2812  0.0134  0.4214
  105MOL0     H14484   7.038   4.073  11.060 -2.4020 -0.6493  0.1235
  105MOL0     H14485   7.074   3.897  11.098  1.5107  1.1514  1.1786
  105MOL0     H14486   6.697   3.870  10.892 -0.5470  2.4579 -1.2999
  105MOL0     H14487   7.621   3.909  10.665  1.4046  3.8334 -0.5164
  105MOL0     H14488   7.889   4.030  10.643 -1.3080 -0.5946 -1.2914
  105MOL0     H14489   7.992   3.885  10.668  0.1471 -0.3987  1.4078
  105MOL0     H14490   7.841   3.878  10.579 -2.5036  3.0628 -1.4831
  106MOL0     O14491   9.243   6.734  10.583  0.3362  0.0113  0.2681
  106MOL0     C14492   9.348   6.715  10.526 -0.5363  0.3002  0.2704
  106MOL0     O14493   9.467   6.760  10.566  0.6634  0.8902  0.7932
  106MOL0     C14494   9.474   6.885  10.617 -0.1550 -0.1659  0.6517
  106MOL0     C14495   9.392   6.987  10.566  0.7672 -0.4115 -0.5882
  106MOL0     C14496   9.425   7.120  10.601  1.0927 -0.6085  0.2313
  106MOL0     C14497   9.526   7.153  10.690 -0.6127  0.4470 -0.5364
  106MOL0     O14498   9.553   7.285  10.719 -0.3590  0.8930  0.4702
  106MOL0     C14499   9.577   7.315  10.854 -0.2657  0.8203 -0.3313
  106MOL0     C14500   9.508   7.440  10.884 -0.5696 -0.0824 -0.1045
  106MOL0     C14501   9.548   7.503  11.016  0.2878 -0.1829  0.1639
  106MOL0     C14502   9.695   7.535  11.029  0.4329 -0.5986  0.2121
  106MOL0     C14503   9.728   7.633  11.150  0.4055 -0.8367  0.1502
  106MOL0     C14504   9.872   7.666  11.147 -0.0820  0.1909 -0.5522
  106MOL0     C14505   9.924   7.752  11.264 -0.4778  0.1054 -0.0707
  106MOL0     C14506   9.866   7.893  11.273  0.4310  0.5061 -0.4614
  106MOL0     N14507   9.941   7.984  11.364 -0.5796  0.0819  0.0408
  106MOL0     C14508   9.935   7.974  11.503  1.0825 -0.0151 -0.3681
  106MOL0     C14509  10.034   8.054  11.547  0.1244 -0.3726  0.0367
  106MOL0     C14510  10.086   8.072  11.686  0.7920  0.0244 -0.2936
  106MOL0     C14511   9.977   8.056  11.785  0.0748 -1.0265 -0.5744
  106MOL0     C14512  10.027   8.121  11.917  0.2385 -0.3569  0.0958
  106MOL0     C14513   9.908   8.142  12.002  0.3756  0.0452 -0.4106
  106MOL0     O14514   9.850   8.013  12.040  0.1137  0.1626 -0.4737
  106MOL0     C14515   9.739   7.955  11.986  0.1000 -0.8311  0.3213
  106MOL0     C14516   9.717   7.824  12.029 -0.0189 -0.0817 -0.5496
  106MOL0     C14517   9.611   7.743  11.995 -0.5658 -0.2789 -0.8114
  106MOL0     C14518   9.610   7.600  12.045  0.9917  0.3655  0.6854
  106MOL0     C14519   9.519   7.801  11.898 -0.4100  0.6763  0.8889
  106MOL0     C14520   9.396   7.740  11.847 -0.5097  0.0352  0.4499
  106MOL0     O14521   9.312   7.820  11.774  0.9922 -0.6252 -0.3136
  106MOL0     C14522   9.178   7.777  11.744 -0.1927 -0.1805 -0.2662
  106MOL0     C14523   9.153   7.666  11.658 -0.2286  0.2056  0.0712
  106MOL0     C14524   9.022   7.628  11.629  0.8236 -0.1501 -0.3598
  106MOL0     C14525   8.913   7.701  11.684  1.3348 -0.0983 -0.1753
  106MOL0     O14526   8.791   7.671  11.636 -0.0260  0.1175 -0.2899
  106MOL0     C14527   8.686   7.716  11.718  0.1496  0.2608 -0.6540
  106MOL0     C14528   8.557   7.663  11.660  0.2805  0.0964  0.1245
  106MOL0     C14529   8.551   7.517  11.665 -0.0151  0.1334 -0.0309
  106MOL0     C14530   8.408   7.457  11.625  0.0357  0.1547 -0.1745
  106MOL0     C14531   8.424   7.312  11.614 -0.1344  0.5496 -0.7800
  106MOL0     C14532   8.301   7.244  11.555 -0.8125  0.0478 -0.4612
  106MOL0     C14533   8.271   7.281  11.408 -0.3179 -0.0970 -0.1308
  106MOL0     C14534   8.137   7.217  11.354 -0.0519  0.4794  0.1077
  106MOL0    Cl14535   7.977   7.283  11.406  0.1234  0.2004  0.2307
  106MOL0     C14536   8.939   7.808  11.771  0.3532 -0.1157  0.5203
  106MOL0     C14537   9.073   7.846  11.800 -0.7521 -0.0900 -0.4803
  106MOL0     O14538   9.373   7.625  11.867 -0.3772  0.2994 -0.9811
  106MOL0     C14539   9.543   7.935  11.845 -0.1292  0.1145  0.4667
  106MOL0     C14540   9.655   8.012  11.894  1.3421  0.2657  0.2013
  106MOL0     N14541  10.093   8.113  11.437 -0.0895  0.4221  0.4049
  106MOL0     N14542  10.031   8.075  11.329  0.7136 -0.2629  0.5589
  106MOL0     C14543   9.614   7.046  10.727 -0.7158 -0.5537 -0.5306
  106MOL0     C14544   9.588   6.913  10.692 -0.0856 -0.0739  0.1416
  106MOL0     C14545   9.352   6.609  10.420 -0.3364 -0.6479 -0.3071
  106MOL0     C14546   9.443   6.503  10.441  0.6315  0.0209  0.0323
  106MOL0     C14547   9.440   6.394  10.357 -0.0119  0.2484 -0.0072
  106MOL0     C14548   9.342   6.371  10.267 -0.1611 -0.5369 -0.0112
  106MOL0     O14549   9.342   6.241  10.221 -0.2111  0.0452 -0.7002
  106MOL0     C14550   9.229   6.197  10.156 -0.3679  0.3313  0.1644
  106MOL0     C14551   9.220   6.047  10.183 -0.3553 -0.7863 -0.2399
  106MOL0     C14552   9.098   5.969  10.131 -0.1255 -0.1140  1.0137
  106MOL0     C14553   9.070   5.831  10.209  0.2445 -0.0951 -0.3179
  106MOL0     C14554   9.189   5.746  10.202 -0.2814 -0.5310  1.0285
  106MOL0     C14555   9.290   5.684  10.175  0.4191 -0.3599  0.3878
  106MOL0     C14556   9.257   6.481  10.244  0.6729  0.4617  0.5478
  106MOL0     C14557   9.260   6.606  10.310 -0.0384  0.0287  0.0103
  106MOL0     C14558   9.149   6.713  10.294  0.3107  0.7930 -0.2658
  106MOL0     H14559   9.309   6.965  10.500 -2.2015  1.0932  2.3813
  106MOL0     H14560   9.359   7.197  10.562  0.2582 -1.4659 -0.0672
  106MOL0     H14561   9.684   7.323  10.874  0.1714  0.4350 -2.3156
  106MOL0     H14562   9.530   7.244  10.923  1.0825 -0.2397 -0.4433
  106MOL0     H14563   9.532   7.516  10.809  0.2139  0.8045  1.0237
  106MOL0     H14564   9.402   7.415  10.884  0.0151 -2.9535 -0.3302
  106MOL0     H14565   9.488   7.594  11.020 -1.9117 -1.4337 -1.8511
  106MOL0     H14566   9.507   7.443  11.098  0.1846  0.9488  0.9643
  106MOL0     H14567   9.758   7.445  11.031  2.1464  0.5372 -0.4172
  106MOL0     H14568   9.730   7.580  10.935  1.5097 -1.1695  0.3302
  106MOL0     H14569   9.707   7.587  11.247  1.1436 -2.3887 -0.4020
  106MOL0     H14570   9.671   7.724  11.130  0.7933 -0.9930 -1.9112
  106MOL0     H14571   9.928   7.571  11.148 -1.1467 -0.5394  2.3863
  106MOL0     H14572   9.907   7.714  11.056  2.4715  1.9070  1.1647
  106MOL0     H14573  10.031   7.766  11.245 -1.1553  2.5197 -2.7679
  106MOL0     H14574   9.901   7.709  11.362  1.1208  0.0656  0.3195
  106MOL0     H14575   9.882   7.942  11.176  1.5255  0.9328 -0.0792
  106MOL0     H14576   9.760   7.893  11.301  0.4258 -1.5111 -0.3951
  106MOL0     H14577   9.866   7.916  11.563 -1.7346  4.3709  1.1070
  106MOL0     H14578  10.118   8.176  11.690 -0.7054  0.4902  0.1268
  106MOL0     H14579  10.164   8.000  11.714  0.7032 -0.4795 -1.3202
  106MOL0     H14580   9.891   8.110  11.744  0.2862  0.0372  0.3410
  106MOL0     H14581   9.954   7.950  11.800  0.7255 -1.2435 -1.0688
  106MOL0     H14582  10.112   8.072  11.967  0.1230  0.3030  0.9588
  106MOL0     H14583  10.059   8.223  11.894  0.1743 -0.4933 -0.6160
  106MOL0     H14584   9.928   8.200  12.093  2.6968  1.3388 -1.6428
  106MOL0     H14585   9.831   8.197  11.947  0.9458 -0.6922 -1.9974
  106MOL0     H14586   9.790   7.778  12.095  1.8590  1.3933 -1.4700
  106MOL0     H14587   9.519   7.585  12.103  1.5571  2.9073  2.3503
  106MOL0     H14588   9.693   7.578  12.112  1.4451 -0.1909 -0.0429
  106MOL0     H14589   9.606   7.520  11.970 -1.2544  2.1918 -1.2927
  106MOL0     H14590   9.235   7.621  11.602 -1.5096  0.4759 -2.1331
  106MOL0     H14591   8.994   7.542  11.568  1.0178 -0.6267  0.2097
  106MOL0     H14592   8.710   7.687  11.821  3.1800  0.0886 -1.3265
  106MOL0     H14593   8.678   7.825  11.712  1.0080  0.2758 -1.9377
  106MOL0     H14594   8.468   7.703  11.709  0.5039  2.6647 -1.4094
  106MOL0     H14595   8.559   7.696  11.556  3.9515  0.0379  0.0538
  106MOL0     H14596   8.570   7.481  11.767  0.0461  1.0804  0.3115
  106MOL0     H14597   8.635   7.476  11.610  0.1017  1.3315 -0.7852
  106MOL0     H14598   8.376   7.497  11.529 -0.8028 -0.2777 -0.0854
  106MOL0     H14599   8.334   7.476  11.704 -2.6334 -0.9406 -2.2593
  106MOL0     H14600   8.507   7.278  11.550 -2.8488 -2.1426 -3.1746
  106MOL0     H14601   8.454   7.274  11.713  2.7664  1.5127 -1.1745
  106MOL0     H14602   8.214   7.266  11.618 -1.2902  2.6383 -1.8920
  106MOL0     H14603   8.333   7.140  11.563  3.9327  1.3506  0.6482
  106MOL0     H14604   8.358   7.247  11.350 -0.3279  1.2342 -0.9626
  106MOL0     H14605   8.257   7.387  11.388 -2.8705 -0.5987 -1.4258
  106MOL0     H14606   8.142   7.115  11.394 -1.3372  0.3583  0.0159
  106MOL0     H14607   8.134   7.203  11.245 -0.2640 -1.7222  0.3561
  106MOL0     H14608   8.864   7.884  11.789  2.2005  2.4645 -1.6258
  106MOL0     H14609   9.093   7.934  11.860 -0.1914  0.8035 -1.9068
  106MOL0     H14610   9.478   7.974  11.767  0.1287 -2.7228 -1.2881
  106MOL0     H14611   9.668   8.111  11.849  1.2807 -1.2833 -3.6258
  106MOL0     H14612   9.696   7.075  10.792  0.9285 -1.0096 -2.2993
  106MOL0     H14613   9.662   6.846  10.733 -0.4683  0.4986  1.8521
  106MOL0     H14614   9.518   6.501  10.521  2.2439  0.9390 -1.3796
  106MOL0     H14615   9.495   6.302  10.372 -0.5146  0.2716  2.4383
  106MOL0     H14616   9.143   6.248  10.199 -0.1638  2.6417 -1.9606
  106MOL0     H14617   9.225   6.210  10.047  1.5670  1.3314  0.1791
  106MOL0     H14618   9.201   6.039  10.291 -0.8276 -2.1355 -0.3966
  106MOL0     H14619   9.308   5.986  10.160 -0.9446 -2.0787  0.7329
  106MOL0     H14620   9.011   6.033  10.149  0.0221 -0.2843  2.4227
  106MOL0     H14621   9.107   5.955  10.023 -1.0726  1.8212  0.6323
  106MOL0     H14622   8.983   5.773  10.177 -0.2741  1.8453 -2.7400
  106MOL0     H14623   9.055   5.848  10.316  0.1911 -0.1960 -0.3092
  106MOL0     H14624   9.373   5.629  10.137 -0.6874 -2.7011  1.1835
  106MOL0     H14625   9.183   6.479  10.165 -2.2120 -0.2081  3.0968
  106MOL0     H14626   9.174   6.807  10.246 -0.8908 -0.0698 -2.7300
  106MOL0     H14627   9.077   6.673  10.221 -0.5945  2.8491 -0.5601
  106MOL0     H14628   9.087   6.730  10.383  0.8613 -1.4947  0.6322
  107MOL0     O14629   3.361   0.189   4.536  0.0217  0.6430 -0.1426
  107MOL0     C14630   3.245   0.203   4.573  0.2927 -0.0493 -0.0706
  107MOL0     O14631   3.156   0.289   4.516 -0.4849  0.0096  0.2105
  107MOL0     C14632   3.182   0.367   4.404 -0.3072  0.7905  0.3281
  107MOL0     C14633   3.100   0.475   4.390  1.1490  0.6700  0.5263
  107MOL0     C14634   3.090   0.544   4.267  0.2400 -0.2456  0.4796
  107MOL0     C14635   3.175   0.514   4.164 -0.5110 -1.2072  0.5138
  107MOL0     O14636   3.183   0.590   4.050  0.2314 -0.0860  0.1829
  107MOL0     C14637   3.100   0.702   4.024 -0.2781  0.3686 -1.0799
  107MOL0     C14638   3.117   0.749   3.876 -0.3415 -0.1679  0.6827
  107MOL0     C14639   3.263   0.796   3.846 -1.4145  0.5475  0.8760
  107MOL0     C14640   3.292   0.769   3.697 -0.0766 -0.3948  0.2825
  107MOL0     C14641   3.435   0.819   3.663  0.1874 -0.2854 -0.5654
  107MOL0     C14642   3.470   0.810   3.519  0.2933 -0.0689  0.5462
  107MOL0     C14643   3.613   0.854   3.497 -0.6426  0.2216  0.1436
  107MOL0     C14644   3.715   0.751   3.544  0.2575 -0.2840  0.0170
  107MOL0     N14645   3.861   0.800   3.525  0.5844 -0.3048  0.1065
  107MOL0     C14646   3.914   0.822   3.403  0.1812  0.6153  0.7366
  107MOL0     C14647   4.027   0.894   3.423  1.1366 -0.6987 -0.9581
  107MOL0     C14648   4.121   0.926   3.316 -0.7854 -0.1664  0.1611
  107MOL0     C14649   4.159   1.074   3.294  0.8203  0.9664 -0.8961
  107MOL0     C14650   4.191   1.116   3.151  0.4195  0.4800 -0.3021
  107MOL0     C14651   4.222   1.259   3.124  0.1992  0.0988  0.4530
  107MOL0     O14652   4.105   1.342   3.146  0.0766  0.3767 -0.0997
  107MOL0     C14653   4.101   1.472   3.109  0.1277 -0.1836  0.0723
  107MOL0     C14654   4.215   1.545   3.076  0.1914  0.8612 -0.0320
  107MOL0     C14655   4.205   1.679   3.025 -0.0446  1.1959  0.2062
  107MOL0     C14656   4.334   1.754   3.031 -0.0033  0.7458  0.3913
  107MOL0     C14657   4.083   1.742   3.014  0.2963 -0.1655 -0.0954
  107MOL0     C14658   4.066   1.877   2.964  0.0811  1.0404 -0.6855
  107MOL0     O14659   3.943   1.930   3.000  0.4253 -0.4394  0.0346
  107MOL0     C14660   3.917   2.069   2.966 -0.0316 -0.6026 -1.0981
  107MOL0     C14661   3.871   2.140   3.070  0.4251 -0.8801  0.4095
  107MOL0     C14662   3.838   2.279   3.065 -0.0086  1.1086 -0.0088
  107MOL0     C14663   3.849   2.342   2.940 -0.2664  0.6810  0.5879
  107MOL0     O14664   3.804   2.475   2.915  0.4241 -0.2422 -0.2058
  107MOL0     C14665   3.870   2.570   2.999 -0.1797  0.5608 -0.8515
  107MOL0     C14666   3.959   2.670   2.925 -0.0925  0.2164  0.2161
  107MOL0     C14667   4.074   2.600   2.856  0.1679  0.1050 -0.6406
  107MOL0     C14668   4.150   2.713   2.780  0.3239 -0.3460 -0.3359
  107MOL0     C14669   4.293   2.663   2.730  0.2442 -0.4639 -0.0730
  107MOL0     C14670   4.360   2.778   2.658  0.0536 -0.2429  0.0797
  107MOL0     C14671   4.477   2.846   2.722  0.1132  0.1913 -0.3791
  107MOL0     C14672   4.491   2.990   2.677 -0.8006 -0.5397  0.2428
  107MOL0    Cl14673   4.531   3.018   2.507 -0.3963  0.4343 -0.3734
  107MOL0     C14674   3.896   2.270   2.829 -0.1657  0.0717  0.1653
  107MOL0     C14675   3.941   2.137   2.841 -0.7743 -0.5250 -0.2237
  107MOL0     O14676   4.157   1.931   2.903 -0.3132  0.5124 -0.0923
  107MOL0     C14677   3.973   1.662   3.062 -0.0723 -0.4203 -0.1991
  107MOL0     C14678   3.978   1.535   3.107 -0.2940  0.0440 -0.2806
  107MOL0     N14679   4.034   0.940   3.548  0.3940  0.3431 -1.1110
  107MOL0     N14680   3.936   0.875   3.612 -0.4522 -0.4338  0.1332
  107MOL0     C14681   3.271   0.413   4.179  0.7141 -0.2632 -0.9755
  107MOL0     C14682   3.269   0.333   4.301  0.4161 -0.2817  0.7366
  107MOL0     C14683   3.208   0.144   4.705  0.4780  0.5960 -1.1200
  107MOL0     C14684   3.093   0.191   4.764  0.1294 -0.4195 -0.1626
  107MOL0     C14685   3.042   0.139   4.880  0.2280  0.4312 -0.0702
  107MOL0     C14686   3.108   0.020   4.937  0.3174  0.1822  0.8714
  107MOL0     O14687   3.052  -0.048   5.051 -0.8186 -0.0374 -0.1049
  107MOL0     C14688   2.932  -0.001   5.114 -0.0932  0.1820 -0.0173
  107MOL0     C14689   2.964   0.122   5.201 -0.2097  0.8998  0.1999
  107MOL0     C14690   3.051   0.092   5.325  0.4149  0.2869  0.9141
  107MOL0     C14691   3.117   0.210   5.386 -0.3250  1.4033 -0.2247
  107MOL0     C14692   3.023   0.315   5.411  0.4369  0.7626 -0.5413
  107MOL0     C14693   2.947   0.404   5.418  0.2640  0.1383  1.0624
  107MOL0     C14694   3.208  -0.040   4.869 -0.8074  0.2641  0.1210
  107MOL0     C14695   3.274   0.029   4.763  0.6454  0.5100  0.1686
  107MOL0     C14696   3.404  -0.032   4.698  0.8853  0.1857  0.2459
  107MOL0     H14697   3.021   0.489   4.464 -0.1500 -1.5294 -0.3439
  107MOL0     H14698   3.014   0.620   4.251  0.9629  0.6821  1.2981
  107MOL0     H14699   3.123   0.781   4.096 -2.4599 -1.7719  2.2342
  107MOL0     H14700   2.993   0.686   4.042  0.1042 -3.1177 -1.2380
  107MOL0     H14701   3.088   0.668   3.809 -1.2849  1.5653 -1.0950
  107MOL0     H14702   3.044   0.829   3.859 -0.8227 -0.3384  1.8290
  107MOL0     H14703   3.285   0.902   3.861  1.5650 -0.2593  3.0574
  107MOL0     H14704   3.333   0.736   3.904 -0.9048  0.7153  0.4396
  107MOL0     H14705   3.276   0.667   3.660 -1.8933  1.0538 -3.4723
  107MOL0     H14706   3.232   0.838   3.636  4.1938  0.9411 -2.9865
  107MOL0     H14707   3.508   0.756   3.714  1.4278  1.3859 -0.1933
  107MOL0     H14708   3.451   0.921   3.697  0.2437 -0.7686  0.9007
  107MOL0     H14709   3.455   0.713   3.470 -0.6053  0.9123 -1.1885
  107MOL0     H14710   3.401   0.875   3.466 -2.0100 -1.4896  1.6301
  107MOL0     H14711   3.626   0.950   3.548 -1.5811  0.2307  0.3863
  107MOL0     H14712   3.629   0.878   3.392  0.1402 -1.2698 -0.0983
  107MOL0     H14713   3.703   0.732   3.651 -1.0119  1.8601  0.3366
  107MOL0     H14714   3.698   0.660   3.486 -0.9782 -1.0269  1.4870
  107MOL0     H14715   3.882   0.788   3.305  0.4840  1.1685  0.4374
  107MOL0     H14716   4.087   0.883   3.222  0.2982 -1.0719  0.1560
  107MOL0     H14717   4.218   0.882   3.342  0.3863  2.4064  0.3834
  107MOL0     H14718   4.079   1.138   3.332  0.0262 -1.7229  2.3843
  107MOL0     H14719   4.247   1.095   3.355  1.0074  0.1573 -0.8762
  107MOL0     H14720   4.276   1.056   3.115 -0.9179 -0.8499 -1.3910
  107MOL0     H14721   4.102   1.094   3.091  1.5910 -2.3666 -1.1842
  107MOL0     H14722   4.305   1.287   3.189  0.7520 -1.4382  0.4551
  107MOL0     H14723   4.266   1.248   3.025 -0.6712 -0.0054  0.0736
  107MOL0     H14724   4.313   1.500   3.092 -1.4298 -1.8554  3.9133
  107MOL0     H14725   4.326   1.837   3.101 -1.3108  1.4766 -0.5726
  107MOL0     H14726   4.351   1.791   2.929 -3.0585  2.3349  0.3466
  107MOL0     H14727   4.415   1.693   3.073 -1.4867  1.4515  4.7470
  107MOL0     H14728   3.862   2.078   3.158 -1.4819 -2.6253 -0.9298
  107MOL0     H14729   3.789   2.330   3.147  0.8862 -1.1333  2.0306
  107MOL0     H14730   3.795   2.627   3.054  2.5793  3.0670  0.5591
  107MOL0     H14731   3.927   2.519   3.077 -0.3535 -0.3830 -1.3222
  107MOL0     H14732   3.901   2.725   2.850  1.1106  1.5747  0.2545
  107MOL0     H14733   4.001   2.742   2.995 -1.6097  1.0185  0.3606
  107MOL0     H14734   4.043   2.521   2.787 -1.8135 -1.8285  2.2499
  107MOL0     H14735   4.129   2.562   2.942 -0.0852  4.6244  1.8566
  107MOL0     H14736   4.156   2.794   2.852  0.7166 -2.6938  2.4732
  107MOL0     H14737   4.077   2.740   2.704 -1.5301  2.0877  2.1043
  107MOL0     H14738   4.359   2.621   2.807 -0.5103  0.3816  1.0716
  107MOL0     H14739   4.280   2.591   2.649  1.3092 -1.7828  0.8839
  107MOL0     H14740   4.285   2.856   2.639  0.3729 -0.1058 -0.6664
  107MOL0     H14741   4.379   2.747   2.554 -0.8482 -0.7553  0.0630
  107MOL0     H14742   4.569   2.789   2.707  0.1444  0.5855 -1.8888
  107MOL0     H14743   4.464   2.852   2.830  2.6566  1.4054 -0.0620
  107MOL0     H14744   4.577   3.029   2.733  2.8910 -3.5752 -2.6896
  107MOL0     H14745   4.397   3.040   2.700 -1.0629 -1.3374  0.9629
  107MOL0     H14746   3.904   2.314   2.731  0.2354 -2.0915 -0.8391
  107MOL0     H14747   3.992   2.083   2.762  1.1481  1.3598 -0.3497
  107MOL0     H14748   3.871   1.699   3.061 -0.2522 -0.1822  4.4943
  107MOL0     H14749   3.886   1.483   3.134  0.2990 -1.6394 -1.3372
  107MOL0     H14750   3.345   0.385   4.105  0.4915  0.7524 -1.6021
  107MOL0     H14751   3.324   0.240   4.299 -2.5848 -2.2189 -1.3704
  107MOL0     H14752   3.050   0.280   4.719  1.1965 -0.1608 -0.6885
  107MOL0     H14753   2.956   0.177   4.934 -0.3353 -3.2813  1.9706
  107MOL0     H14754   2.849   0.016   5.045 -0.6083  0.8645  0.7522
  107MOL0     H14755   2.896  -0.081   5.181 -1.6902  2.4874  2.0727
  107MOL0     H14756   2.872   0.162   5.244 -0.1095  0.8442  0.4677
  107MOL0     H14757   3.017   0.189   5.133  0.5394 -0.5846 -0.7444
  107MOL0     H14758   2.991   0.053   5.408 -1.3683 -1.9951 -1.2646
  107MOL0     H14759   3.117   0.012   5.292 -2.0488 -1.1053 -0.9893
  107MOL0     H14760   3.191   0.254   5.319  1.7678 -0.0134  1.0245
  107MOL0     H14761   3.161   0.176   5.481  0.7906 -0.7200 -1.4245
  107MOL0     H14762   2.902   0.500   5.436  1.8070  1.5267 -1.7942
  107MOL0     H14763   3.251  -0.133   4.904  0.0053 -0.6655 -2.9911
  107MOL0     H14764   3.478   0.045   4.674  1.5385 -0.9730 -1.7436
  107MOL0     H14765   3.447  -0.105   4.767 -1.4065  0.3084  1.8938
  107MOL0     H14766   3.382  -0.076   4.600 -2.1052  0.9535  0.4835
  108MOL0     O14767   2.771  10.029   6.493  0.4524  0.1461  0.0698
  108MOL0     C14768   2.719  10.129   6.541  0.5427 -0.0644  0.2044
  108MOL0     O14769   2.780  10.216   6.625  0.1471  0.4367 -0.0949
  108MOL0     C14770   2.891  10.169   6.689  0.1408 -0.5156 -0.0738
  108MOL0     C14771   2.891  10.074   6.789  0.0468 -0.2111 -0.0499
  108MOL0     C14772   3.014  10.016   6.846  0.1865  0.0164 -0.5029
  108MOL0     C14773   3.135  10.077   6.828  0.1092 -0.4886 -0.2135
  108MOL0     O14774   3.242  10.038   6.896 -0.2556  0.3110  0.5337
  108MOL0     C14775   3.376  10.057   6.850  0.2496 -0.0953  0.4243
  108MOL0     C14776   3.473   9.961   6.910 -0.2663  0.3238  0.8364
  108MOL0     C14777   3.492   9.980   7.059  0.1733 -0.2242 -0.7006
  108MOL0     C14778   3.575  10.106   7.088  0.0090  1.0596  0.2030
  108MOL0     C14779   3.641  10.107   7.224  1.0415  0.3200 -0.2561
  108MOL0     C14780   3.710  10.236   7.242 -0.0309 -0.3179  0.5017
  108MOL0     C14781   3.762  10.245   7.384 -0.3198  0.2414 -0.3784
  108MOL0     C14782   3.908  10.202   7.417  0.2701  0.0444 -0.6558
  108MOL0     N14783   4.005  10.278   7.338 -0.1058 -0.8194 -0.7565
  108MOL0     C14784   4.053  10.238   7.223  0.2785 -0.0750  0.7348
  108MOL0     C14785   4.131  10.343   7.170 -1.0619  0.6609 -1.0557
  108MOL0     C14786   4.215  10.326   7.050 -0.8053  0.2733  0.2448
  108MOL0     C14787   4.348  10.274   7.094 -0.6408 -0.4273 -0.0173
  108MOL0     C14788   4.445  10.243   6.980  0.5563  0.2833  0.2027
  108MOL0     C14789   4.586  10.210   7.023 -1.0009 -1.1207  0.1079
  108MOL0     O14790   4.682  10.254   6.922 -0.1689  0.1878 -0.3691
  108MOL0     C14791   4.783  10.166   6.874 -0.1907  0.2206  0.1142
  108MOL0     C14792   4.819  10.195   6.739 -1.2139  0.3585 -0.1875
  108MOL0     C14793   4.925  10.122   6.680  0.3186  0.6998  0.7214
  108MOL0     C14794   4.968  10.174   6.547 -0.2264 -0.2115 -0.7368
  108MOL0     C14795   4.995  10.025   6.753 -0.1975  0.3505 -0.7466
  108MOL0     C14796   5.110   9.944   6.705 -0.6706  1.2201 -0.1488
  108MOL0     O14797   5.169   9.960   6.586 -0.2694  0.5568 -0.5817
  108MOL0     C14798   5.307   9.923   6.580  0.8694 -0.5959  0.4049
  108MOL0     C14799   5.342   9.843   6.479 -0.2321  0.3920 -0.1145
  108MOL0     C14800   5.471   9.814   6.446 -0.4283  0.7575 -0.0215
  108MOL0     C14801   5.573   9.843   6.538  0.3530 -0.5739  0.0138
  108MOL0     O14802   5.697   9.804   6.513 -0.0200 -0.0340  0.2123
  108MOL0     C14803   5.777   9.766   6.625  0.4587 -0.2619 -0.9194
  108MOL0     C14804   5.893   9.687   6.567  0.5003 -0.7431 -0.4127
  108MOL0     C14805   5.857   9.551   6.496  0.6637 -0.1568 -0.4934
  108MOL0     C14806   5.980   9.468   6.468  0.1708 -0.3807  0.5738
  108MOL0     C14807   5.959   9.393   6.333  0.4917  0.2539  0.4472
  108MOL0     C14808   5.974   9.468   6.203  0.4995 -0.1567 -0.0552
  108MOL0     C14809   6.017   9.370   6.088 -0.3433  0.3202  0.3881
  108MOL0     C14810   5.952   9.402   5.947 -0.4234 -0.6290 -0.0047
  108MOL0    Cl14811   5.807   9.302   5.937  0.1801  0.1627 -0.2389
  108MOL0     C14812   5.535   9.916   6.656 -0.7015 -0.5660  0.5443
  108MOL0     C14813   5.405   9.966   6.673  0.5755  0.2114  1.0652
  108MOL0     O14814   5.169   9.877   6.790 -0.0482 -0.0154 -1.1722
  108MOL0     C14815   4.948   9.986   6.881  0.3309  0.1712  0.2645
  108MOL0     C14816   4.850  10.067   6.949 -0.0650 -0.0407  0.3796
  108MOL0     N14817   4.117  10.450   7.266  0.5757  0.0786  0.7877
  108MOL0     N14818   4.048  10.402   7.363 -0.0623  0.1969 -0.4959
  108MOL0     C14819   3.134  10.172   6.726  0.3250 -0.2273  0.5396
  108MOL0     C14820   3.019  10.218   6.659  0.6182  0.6113 -0.1397
  108MOL0     C14821   2.578  10.176   6.508  0.1374 -0.0686 -0.2370
  108MOL0     C14822   2.521  10.282   6.582 -0.8337 -0.7242  0.7643
  108MOL0     C14823   2.385  10.306   6.571  1.0586 -0.1726  0.0272
  108MOL0     C14824   2.314  10.254   6.470  0.6067 -0.1045  0.3554
  108MOL0     O14825   2.179  10.290   6.459 -0.1059 -0.7815  1.2134
  108MOL0     C14826   2.094  10.241   6.354 -0.3961  1.4400  0.3214
  108MOL0     C14827   1.955  10.288   6.379 -0.6508  0.6405 -0.5026
  108MOL0     C14828   1.940  10.439   6.386 -0.8518 -0.6041 -0.0986
  108MOL0     C14829   2.044  10.526   6.297  0.7604 -0.1137  0.0168
  108MOL0     C14830   2.038  10.672   6.297 -0.0402 -0.1039 -0.1963
  108MOL0     C14831   2.050  10.791   6.279  0.7026 -0.1626 -0.6124
  108MOL0     C14832   2.366  10.160   6.382 -0.9630 -0.0306 -0.6937
  108MOL0     C14833   2.497  10.114   6.407  0.3309 -0.6049 -0.1203
  108MOL0     C14834   2.549  10.002   6.319 -0.2113  0.0138 -0.2913
  108MOL0     H14835   2.802  10.024   6.827  2.2675 -3.6441  1.0821
  108MOL0     H14836   3.003   9.924   6.902 -2.6214  0.3676 -0.3233
  108MOL0     H14837   3.408  10.160   6.867 -0.1933 -0.1655  1.8123
  108MOL0     H14838   3.377  10.052   6.740 -1.0862  1.4712  0.3000
  108MOL0     H14839   3.440   9.858   6.894  0.3139  0.4908 -1.7268
  108MOL0     H14840   3.567   9.977   6.857  1.1159  0.3665  3.1313
  108MOL0     H14841   3.397   9.984   7.113  0.3770 -0.7712 -0.2984
  108MOL0     H14842   3.552   9.900   7.102 -0.2765  0.5115  1.4133
  108MOL0     H14843   3.659  10.112   7.018 -1.7422  1.4919 -1.9898
  108MOL0     H14844   3.518  10.198   7.070 -1.4016 -0.1596 -1.9722
  108MOL0     H14845   3.710  10.023   7.234 -1.4622 -2.2561 -2.5745
  108MOL0     H14846   3.557  10.100   7.293  1.7392 -1.0706  0.5073
  108MOL0     H14847   3.785  10.250   7.164 -0.2228  0.8135  0.5032
  108MOL0     H14848   3.642  10.321   7.229  0.7894  0.2761  0.0223
  108MOL0     H14849   3.698  10.184   7.449  3.5414 -1.1922  2.4149
  108MOL0     H14850   3.759  10.351   7.410  3.1148  0.8660 -2.0195
  108MOL0     H14851   3.923  10.223   7.524  0.4644 -0.8340 -0.5033
  108MOL0     H14852   3.931  10.096   7.404  1.3007  0.2671 -0.7308
  108MOL0     H14853   4.040  10.145   7.167  2.3663  0.5276 -0.8699
  108MOL0     H14854   4.238  10.420   7.000  0.1208  0.9435  1.8660
  108MOL0     H14855   4.168  10.252   6.984  1.2000 -2.0668  1.2759
  108MOL0     H14856   4.380  10.359   7.156 -3.7613  0.4770  0.5280
  108MOL0     H14857   4.335  10.185   7.156  0.4156 -0.8048 -0.3196
  108MOL0     H14858   4.394  10.166   6.921 -2.1564  0.5459  2.0395
  108MOL0     H14859   4.445  10.326   6.908  1.4103  0.9486  0.9546
  108MOL0     H14860   4.601  10.270   7.113 -1.0516  0.5658 -0.9533
  108MOL0     H14861   4.601  10.107   7.055  1.7231 -1.6398 -2.4364
  108MOL0     H14862   4.770  10.273   6.681 -2.2641 -0.6525 -0.7065
  108MOL0     H14863   4.961  10.099   6.467  2.5010  1.2446 -2.4845
  108MOL0     H14864   5.070  10.213   6.554 -1.0790  2.5311 -2.0896
  108MOL0     H14865   4.899  10.251   6.513 -1.0981 -1.3420 -1.6315
  108MOL0     H14866   5.280   9.812   6.395 -0.6689  0.9124  0.0085
  108MOL0     H14867   5.502   9.760   6.357 -0.4499  1.0265 -0.1947
  108MOL0     H14868   5.815   9.854   6.677  0.0681 -0.7718  0.2456
  108MOL0     H14869   5.721   9.699   6.691 -2.2230  3.6646  1.1261
  108MOL0     H14870   5.942   9.754   6.495 -0.3319  3.0809  2.2345
  108MOL0     H14871   5.974   9.674   6.639 -0.7217 -0.3911  1.0644
  108MOL0     H14872   5.797   9.570   6.407  0.9146  0.5791 -0.5105
  108MOL0     H14873   5.794   9.497   6.568  0.1746  1.8714  0.6973
  108MOL0     H14874   5.998   9.400   6.551  1.9650 -0.8566 -0.1545
  108MOL0     H14875   6.069   9.529   6.453 -1.3915  2.0023  0.3873
  108MOL0     H14876   6.037   9.317   6.319  0.2559  0.4839 -3.0058
  108MOL0     H14877   5.861   9.345   6.338 -0.0918  1.3492 -0.1610
  108MOL0     H14878   6.043   9.548   6.229 -1.2783  1.0848  1.0778
  108MOL0     H14879   5.875   9.503   6.170 -0.6613 -0.1444  3.1406
  108MOL0     H14880   6.009   9.263   6.107  0.4114 -0.0294 -1.1006
  108MOL0     H14881   6.125   9.386   6.074 -0.1622 -2.3196 -2.0823
  108MOL0     H14882   6.017   9.397   5.859  3.3788 -1.7047  2.5984
  108MOL0     H14883   5.932   9.510   5.953  0.4684 -0.3185 -1.8346
  108MOL0     H14884   5.611   9.952   6.725 -1.0561  4.8050 -1.4130
  108MOL0     H14885   5.377  10.029   6.757  1.5370 -1.4802  2.7273
  108MOL0     H14886   4.980   9.909   6.950 -1.2189  1.1997  2.2598
  108MOL0     H14887   4.821  10.055   7.053 -2.7615  0.6042 -0.2174
  108MOL0     H14888   3.237  10.201   6.707  0.6936 -2.1314 -0.6842
  108MOL0     H14889   3.036  10.300   6.590  2.1144  0.1912 -0.3068
  108MOL0     H14890   2.575  10.327   6.664  1.7506 -1.8772 -0.1660
  108MOL0     H14891   2.330  10.365   6.644  1.2476 -2.1546  1.8466
  108MOL0     H14892   2.141  10.264   6.257 -0.1854  1.7686  0.4971
  108MOL0     H14893   2.086  10.133   6.362 -1.1968  1.1296 -3.0918
  108MOL0     H14894   1.919  10.244   6.472 -0.0294  0.4400 -0.3522
  108MOL0     H14895   1.903  10.248   6.292 -1.0300  3.5226 -1.7200
  108MOL0     H14896   1.836  10.474   6.374  0.7698  4.6705 -1.5917
  108MOL0     H14897   1.960  10.469   6.489 -3.1008 -3.1376  1.2198
  108MOL0     H14898   2.035  10.483   6.197 -0.3085 -1.0045  0.4721
  108MOL0     H14899   2.146  10.507   6.331  1.7034  2.0985 -1.3799
  108MOL0     H14900   2.082  10.886   6.241  3.1763  0.0680  1.7335
  108MOL0     H14901   2.308  10.120   6.298 -0.1326  1.6588 -2.1296
  108MOL0     H14902   2.651  10.019   6.282 -0.8977  2.5228 -1.2639
  108MOL0     H14903   2.549   9.911   6.380  2.5946 -1.3358 -2.0850
  108MOL0     H14904   2.480   9.988   6.235  1.9998  0.6826 -2.3265
  109MOL0     O14905   7.247   0.792   6.399 -0.2560  0.0233  0.0181
  109MOL0     C14906   7.195   0.838   6.497  0.2467  0.4735 -0.5126
  109MOL0     O14907   7.211   0.786   6.616  0.7639 -0.4266 -0.0135
  109MOL0     C14908   7.309   0.690   6.646  0.3038 -0.3367 -0.0748
  109MOL0     C14909   7.298   0.623   6.763 -0.3333  0.3279  0.1545
  109MOL0     C14910   7.391   0.529   6.818 -0.7423 -1.1227  0.9330
  109MOL0     C14911   7.521   0.507   6.747  0.2844 -0.1316  0.1074
  109MOL0     O14912   7.616   0.418   6.781 -0.1024  0.3354  0.3923
  109MOL0     C14913   7.619   0.371   6.911  0.0795  1.1248  0.0787
  109MOL0     C14914   7.551   0.227   6.912 -0.1502  0.4566  0.6686
  109MOL0     C14915   7.639   0.112   6.867 -0.4355  0.4997 -0.2728
  109MOL0     C14916   7.568  -0.024   6.859 -0.3131  0.4170 -0.7201
  109MOL0     C14917   7.655  -0.144   6.812 -0.3147  0.1896 -0.4273
  109MOL0     C14918   7.750  -0.195   6.926 -0.1428  0.1265 -0.0469
  109MOL0     C14919   7.842  -0.303   6.862  0.5256  0.8803  0.3952
  109MOL0     C14920   7.952  -0.351   6.957  0.8881 -0.4305  0.4587
  109MOL0     N14921   7.906  -0.432   7.075  0.3677  0.5632 -0.3446
  109MOL0     C14922   7.878  -0.569   7.071 -0.1682 -0.8037 -0.4881
  109MOL0     C14923   7.829  -0.598   7.195  0.7230 -0.2035 -0.3418
  109MOL0     C14924   7.793  -0.731   7.256  1.0716  0.2114  0.3524
  109MOL0     C14925   7.904  -0.806   7.323 -0.3815  0.0034  0.6698
  109MOL0     C14926   7.890  -0.960   7.310  0.2629  0.3993 -0.3391
  109MOL0     C14927   7.897  -1.019   7.166  0.2811 -0.8198 -0.6985
  109MOL0     O14928   8.016  -1.004   7.094 -0.7948  0.2460  0.2009
  109MOL0     C14929   8.052  -1.084   6.989  0.5465 -0.0182  0.7553
  109MOL0     C14930   8.182  -1.103   6.965  0.4798 -0.7029 -0.3243
  109MOL0     C14931   8.230  -1.157   6.851  0.4589  0.4693 -0.0453
  109MOL0     C14932   8.383  -1.153   6.835  0.8063  0.2946 -0.3810
  109MOL0     C14933   8.142  -1.222   6.760 -0.6566 -0.1184  0.4924
  109MOL0     C14934   8.196  -1.302   6.641  0.2891  0.4661  0.7392
  109MOL0     O14935   8.123  -1.400   6.595  0.3583  0.1485  0.0448
  109MOL0     C14936   8.140  -1.451   6.465 -0.5553  0.2121  0.0192
  109MOL0     C14937   8.191  -1.387   6.349 -0.3975 -0.7936  0.2202
  109MOL0     C14938   8.205  -1.457   6.225  0.0274 -1.1967 -0.0138
  109MOL0     C14939   8.144  -1.579   6.211  0.5558  0.5482 -1.0148
  109MOL0     O14940   8.119  -1.638   6.089 -1.3147 -0.0756 -1.0302
  109MOL0     C14941   8.135  -1.550   5.980 -0.7327  0.0497 -0.7184
  109MOL0     C14942   8.066  -1.614   5.863 -0.1515 -0.4079 -0.7430
  109MOL0     C14943   7.917  -1.661   5.866  0.0710  0.5419  0.4182
  109MOL0     C14944   7.819  -1.551   5.902  0.2114  0.0692 -0.4639
  109MOL0     C14945   7.687  -1.610   5.930  0.1672  0.2390  0.5553
  109MOL0     C14946   7.618  -1.657   5.797 -0.7637 -0.6931  0.6429
  109MOL0     C14947   7.470  -1.715   5.822  0.4671 -0.8001  0.4530
  109MOL0     C14948   7.394  -1.727   5.680  0.7046 -0.0792  0.5969
  109MOL0    Cl14949   7.471  -1.845   5.581  0.1624  0.2918 -0.0571
  109MOL0     C14950   8.090  -1.645   6.321  0.0851  1.2453 -0.0755
  109MOL0     C14951   8.087  -1.579   6.446 -0.1557  0.4595  0.4958
  109MOL0     O14952   8.302  -1.263   6.594  0.1155 -0.3423 -0.1738
  109MOL0     C14953   8.003  -1.227   6.791  0.4155 -0.4680  0.7409
  109MOL0     C14954   7.960  -1.153   6.902 -0.6287  1.0687 -0.4065
  109MOL0     N14955   7.830  -0.482   7.278  1.1458 -0.0218 -0.2556
  109MOL0     N14956   7.872  -0.383   7.197 -0.0316  0.0868 -1.2091
  109MOL0     C14957   7.540   0.581   6.628 -0.3067  0.3013 -0.2066
  109MOL0     C14958   7.435   0.676   6.589  1.0270 -0.1881  0.2059
  109MOL0     C14959   7.117   0.963   6.478 -1.1451  0.0187  0.4486
  109MOL0     C14960   7.049   1.014   6.591  0.2819 -0.3061  0.2498
  109MOL0     C14961   6.947   1.110   6.578 -0.2218  0.2161 -0.6652
  109MOL0     C14962   6.932   1.180   6.459  0.3134  0.1469 -1.0364
  109MOL0     O14963   6.852   1.286   6.458  0.0575  0.0166 -0.1919
  109MOL0     C14964   6.798   1.331   6.336  0.3597  0.5144  0.2693
  109MOL0     C14965   6.689   1.424   6.344 -0.0722 -0.8156 -0.8058
  109MOL0     C14966   6.556   1.355   6.403  0.3050  0.2958  0.4184
  109MOL0     C14967   6.515   1.234   6.316 -0.0008  0.1945  0.1175
  109MOL0     C14968   6.370   1.197   6.338  0.3034  0.6346 -0.8802
  109MOL0     C14969   6.250   1.185   6.366  0.2743 -0.3172 -0.5701
  109MOL0     C14970   7.005   1.142   6.349 -0.3066  0.4838 -0.5279
  109MOL0     C14971   7.095   1.034   6.353 -1.3404  1.0858 -0.1816
  109MOL0     C14972   7.146   1.001   6.216  0.4262  0.3006  0.4985
  109MOL0     H14973   7.202   0.633   6.813 -1.1591  3.0810 -1.7760
  109MOL0     H14974   7.371   0.465   6.904  0.5938 -1.1553  1.2304
  109MOL0     H14975   7.573   0.442   6.980  5.8995  1.7759  4.0354
  109MOL0     H14976   7.723   0.361   6.945 -0.0572 -2.1397 -0.1388
  109MOL0     H14977   7.518   0.211   7.015  0.9514 -1.4010  0.7669
  109MOL0     H14978   7.457   0.226   6.855  0.1908  0.4140  0.1057
  109MOL0     H14979   7.693   0.140   6.776  0.1549 -1.3181 -0.5306
  109MOL0     H14980   7.720   0.113   6.941 -0.5167  0.0455 -0.1716
  109MOL0     H14981   7.523  -0.062   6.952  0.2942  0.3389 -0.4540
  109MOL0     H14982   7.492  -0.004   6.783 -1.9531 -3.2123 -0.2453
  109MOL0     H14983   7.724  -0.110   6.734 -0.4271 -0.4370 -0.7961
  109MOL0     H14984   7.597  -0.228   6.775  0.3591  0.7694 -2.9694
  109MOL0     H14985   7.805  -0.114   6.973 -1.5617  2.0222 -1.4702
  109MOL0     H14986   7.703  -0.261   6.999  1.1061 -3.5813 -2.2653
  109MOL0     H14987   7.885  -0.266   6.769  1.1181  0.4176  0.4804
  109MOL0     H14988   7.778  -0.384   6.826 -0.6598  1.5962  0.8183
  109MOL0     H14989   8.029  -0.406   6.901 -1.8058 -1.5136 -2.4271
  109MOL0     H14990   7.983  -0.258   7.006 -2.3440 -0.8985  3.8206
  109MOL0     H14991   7.898  -0.634   6.987  1.4520  0.1412 -0.8744
  109MOL0     H14992   7.754  -0.793   7.175  3.8007  0.3329 -1.1573
  109MOL0     H14993   7.717  -0.708   7.332  0.3514  2.2814 -0.9055
  109MOL0     H14994   8.008  -0.787   7.296  0.4367 -1.3748  2.5686
  109MOL0     H14995   7.902  -0.787   7.431 -3.9427  0.5436  0.6468
  109MOL0     H14996   7.971  -1.016   7.357  1.4706 -0.4140 -3.1552
  109MOL0     H14997   7.792  -0.985   7.353 -0.1292  1.2841 -0.7064
  109MOL0     H14998   7.872  -1.125   7.164 -1.0295 -0.5730 -4.1617
  109MOL0     H14999   7.818  -0.972   7.106  0.4423  0.5701  0.1287
  109MOL0     H15000   8.245  -1.058   7.042  0.1922  0.2369 -0.6285
  109MOL0     H15001   8.422  -1.096   6.919 -2.1076  1.7094  0.1491
  109MOL0     H15002   8.400  -1.091   6.747  2.5745  3.1626  1.8198
  109MOL0     H15003   8.430  -1.252   6.835 -3.6737 -2.1134 -0.1366
  109MOL0     H15004   8.237  -1.289   6.354 -0.8039 -0.4580 -1.6525
  109MOL0     H15005   8.238  -1.390   6.146 -0.6220  2.0591  2.2793
  109MOL0     H15006   8.095  -1.452   6.004  0.0716 -0.4723  3.6283
  109MOL0     H15007   8.242  -1.537   5.963 -0.9020 -0.1427 -2.0484
  109MOL0     H15008   8.070  -1.551   5.773 -2.3377  1.6330  0.4567
  109MOL0     H15009   8.114  -1.708   5.835 -2.2088 -1.3275 -1.4313
  109MOL0     H15010   7.911  -1.740   5.941  1.5726 -0.0078 -0.0014
  109MOL0     H15011   7.898  -1.699   5.765  0.8319  1.3940 -0.0650
  109MOL0     H15012   7.810  -1.484   5.816  1.8344 -0.4600 -1.0792
  109MOL0     H15013   7.854  -1.495   5.990 -2.9991  3.1291 -0.9095
  109MOL0     H15014   7.715  -1.688   6.002 -0.4623 -1.4003 -0.9052
  109MOL0     H15015   7.624  -1.541   5.988  0.5934 -0.9956  2.6111
  109MOL0     H15016   7.687  -1.724   5.744 -0.5509  0.8602 -1.1609
  109MOL0     H15017   7.614  -1.572   5.729 -0.8063  0.3054  1.8740
  109MOL0     H15018   7.417  -1.650   5.893  0.8038 -1.7240  1.5908
  109MOL0     H15019   7.492  -1.811   5.870  0.6068 -0.7149  0.5618
  109MOL0     H15020   7.390  -1.629   5.632  1.8481 -0.7342 -0.9528
  109MOL0     H15021   7.293  -1.766   5.693  0.2620  0.0439 -1.9518
  109MOL0     H15022   8.043  -1.741   6.302  2.5812 -0.3311  1.1828
  109MOL0     H15023   8.045  -1.626   6.535 -0.7303  1.2039  0.6302
  109MOL0     H15024   7.936  -1.274   6.720  1.7270  1.0818 -1.6154
  109MOL0     H15025   7.856  -1.137   6.929  0.1281  1.6509  2.4808
  109MOL0     H15026   7.631   0.564   6.571 -1.4547 -1.7928 -1.5231
  109MOL0     H15027   7.460   0.746   6.510  1.8590  1.9256  2.2046
  109MOL0     H15028   7.080   0.983   6.690  2.7048  1.1939  0.0334
  109MOL0     H15029   6.893   1.147   6.664  0.1744 -0.8216  0.0511
  109MOL0     H15030   6.883   1.386   6.297  0.7844  0.0493  0.5270
  109MOL0     H15031   6.769   1.253   6.264  0.2780 -0.9252  1.7857
  109MOL0     H15032   6.675   1.474   6.247  0.5125 -0.8162 -0.8945
  109MOL0     H15033   6.728   1.498   6.415  3.5285  0.9012 -4.2071
  109MOL0     H15034   6.564   1.329   6.509 -1.3884  0.8839  0.7237
  109MOL0     H15035   6.470   1.423   6.409  1.9750  2.4428  1.4020
  109MOL0     H15036   6.573   1.146   6.344 -1.3112 -0.3613  1.2065
  109MOL0     H15037   6.520   1.256   6.209 -2.0459 -1.2065 -0.3297
  109MOL0     H15038   6.149   1.185   6.401  0.7529  4.7639  1.7194
  109MOL0     H15039   7.005   1.184   6.248  0.8527 -1.0427 -1.2095
  109MOL0     H15040   7.252   0.973   6.207  0.5461  1.4359 -3.2324
  109MOL0     H15041   7.081   0.917   6.190  0.5737 -0.6596  2.9649
  109MOL0     H15042   7.143   1.087   6.148 -0.4326  0.3349  0.5711
  110MOL0     O15043   4.761   6.162   0.981  0.1344 -0.1827 -0.1783
  110MOL0     C15044   4.809   6.267   0.934 -0.3439 -1.4461  0.0891
  110MOL0     O15045   4.765   6.386   0.972  0.6017  0.2663 -0.4468
  110MOL0     C15046   4.655   6.396   1.059 -0.5740  0.1287 -0.4179
  110MOL0     C15047   4.542   6.317   1.059 -0.4365  0.4571  0.4110
  110MOL0     C15048   4.438   6.342   1.148 -0.6171  0.2715  0.0608
  110MOL0     C15049   4.434   6.451   1.223 -0.5310 -0.2986 -0.9249
  110MOL0     O15050   4.327   6.449   1.311  0.0196 -0.0504  0.9094
  110MOL0     C15051   4.310   6.554   1.415 -0.5964  0.0591  0.2500
  110MOL0     C15052   4.180   6.553   1.499 -0.1021  0.1976 -0.6427
  110MOL0     C15053   4.064   6.508   1.412 -0.6149  0.1203  0.6716
  110MOL0     C15054   3.945   6.498   1.501  0.0648  0.0772 -0.8649
  110MOL0     C15055   3.823   6.478   1.421  0.6359 -0.2161 -0.5935
  110MOL0     C15056   3.703   6.433   1.505 -0.4024  0.1974  0.2310
  110MOL0     C15057   3.582   6.390   1.415  0.1113 -0.6578  0.0369
  110MOL0     C15058   3.471   6.500   1.429 -0.1459  0.3033 -0.7643
  110MOL0     N15059   3.518   6.632   1.381 -0.4737  0.5066 -0.1075
  110MOL0     C15060   3.553   6.663   1.253  0.0389 -1.3788 -1.0301
  110MOL0     C15061   3.542   6.800   1.244 -0.4584  0.6299  0.3624
  110MOL0     C15062   3.564   6.872   1.116 -0.2995 -0.2801 -0.4876
  110MOL0     C15063   3.688   6.838   1.022 -0.5124  0.8606  0.0221
  110MOL0     C15064   3.676   6.892   0.873 -0.1027  0.3139 -0.7937
  110MOL0     C15065   3.692   7.045   0.861 -0.3748 -0.0155  0.4416
  110MOL0     O15066   3.824   7.087   0.827 -1.1520  0.5893 -0.4460
  110MOL0     C15067   3.907   7.142   0.921  0.1155  0.6120 -0.4477
  110MOL0     C15068   4.039   7.182   0.888  0.4217 -0.0154  0.3068
  110MOL0     C15069   4.130   7.236   0.981 -0.4681 -0.0977  0.1990
  110MOL0     C15070   4.267   7.247   0.925  0.3769 -0.6542 -0.7416
  110MOL0     C15071   4.092   7.253   1.116 -0.5729  0.6311  0.6316
  110MOL0     C15072   4.177   7.315   1.224  0.1706  0.0608 -0.0144
  110MOL0     O15073   4.122   7.321   1.346  0.3963  0.1870  0.9624
  110MOL0     C15074   4.169   7.406   1.443 -0.0145  0.1357  0.3452
  110MOL0     C15075   4.064   7.466   1.515  0.8023 -0.2794  0.3322
  110MOL0     C15076   4.097   7.555   1.609  0.1898  0.4863 -0.7505
  110MOL0     C15077   4.228   7.584   1.639  0.1305 -0.4898  0.0755
  110MOL0     O15078   4.255   7.677   1.743  0.8227 -0.5750  0.0763
  110MOL0     C15079   4.350   7.652   1.848  0.6900  0.6277 -0.0649
  110MOL0     C15080   4.405   7.787   1.893 -0.0706 -0.1803 -0.3424
  110MOL0     C15081   4.504   7.825   1.785 -0.4131  0.1501  0.1353
  110MOL0     C15082   4.582   7.948   1.832 -0.6182 -0.1455 -0.8583
  110MOL0     C15083   4.717   7.958   1.757 -0.2342  0.7744  0.3224
  110MOL0     C15084   4.821   8.060   1.815  0.2930 -0.2875  0.1515
  110MOL0     C15085   4.940   8.068   1.724  0.2010 -0.1664  0.3382
  110MOL0     C15086   5.062   8.111   1.790 -0.0893 -0.7170  0.4309
  110MOL0    Cl15087   5.050   8.269   1.862  0.2175 -0.2387  0.4536
  110MOL0     C15088   4.336   7.515   1.573 -0.1926 -0.2817  0.1529
  110MOL0     C15089   4.303   7.420   1.473  0.5975  0.6885 -0.5332
  110MOL0     O15090   4.285   7.366   1.183  0.1465  0.1919 -0.0087
  110MOL0     C15091   3.969   7.204   1.154 -0.4100  1.0158 -0.2050
  110MOL0     C15092   3.883   7.146   1.057  0.2539 -0.7867  0.1393
  110MOL0     N15093   3.517   6.853   1.371  0.4146  0.8832  0.9797
  110MOL0     N15094   3.495   6.748   1.453 -0.5781  0.1656  0.2011
  110MOL0     C15095   4.549   6.539   1.228  0.5474  0.2048  0.4466
  110MOL0     C15096   4.658   6.512   1.144  0.0769  0.6294  0.8164
  110MOL0     C15097   4.914   6.274   0.834 -0.0453 -0.0318 -0.7651
  110MOL0     C15098   4.950   6.401   0.772 -0.1393  0.7426 -0.6841
  110MOL0     C15099   5.040   6.417   0.672 -1.0084 -0.1272 -0.2696
  110MOL0     C15100   5.102   6.296   0.626  0.2227  0.5628  0.3383
  110MOL0     O15101   5.180   6.308   0.518  0.4594 -0.3309  0.6970
  110MOL0     C15102   5.227   6.189   0.447 -0.4406  1.4176  0.5617
  110MOL0     C15103   5.316   6.232   0.329 -0.8648 -0.0821  0.9066
  110MOL0     C15104   5.447   6.299   0.357  0.8208 -0.6174  0.0167
  110MOL0     C15105   5.544   6.316   0.245 -0.7851  1.1638  0.7503
  110MOL0     C15106   5.583   6.192   0.174 -0.1164 -0.1734 -0.1436
  110MOL0     C15107   5.633   6.092   0.126 -0.4862 -0.1639  0.1387
  110MOL0     C15108   5.072   6.169   0.686  0.3821  0.1126 -0.3136
  110MOL0     C15109   4.982   6.155   0.789 -0.9878  0.0599  0.2816
  110MOL0     C15110   4.978   6.022   0.857 -0.0773 -0.1712  0.7458
  110MOL0     H15111   4.534   6.225   1.001  2.9409 -0.0995  0.6432
  110MOL0     H15112   4.357   6.274   1.174 -0.8278  1.2494  2.1651
  110MOL0     H15113   4.309   6.650   1.363  1.6633 -0.6200 -1.2104
  110MOL0     H15114   4.399   6.562   1.478 -1.3640  0.7079  1.2747
  110MOL0     H15115   4.190   6.485   1.584  5.0385 -0.5315 -1.5227
  110MOL0     H15116   4.170   6.653   1.543  1.9449  0.5974 -0.9777
  110MOL0     H15117   4.049   6.585   1.335 -1.0349  2.6688  3.1334
  110MOL0     H15118   4.079   6.416   1.355 -0.6450  0.4525  0.1127
  110MOL0     H15119   3.976   6.412   1.561  1.8085  1.4441  0.3363
  110MOL0     H15120   3.942   6.585   1.568  0.0016 -0.4499 -0.1807
  110MOL0     H15121   3.842   6.403   1.345  4.0337 -1.6127  1.3934
  110MOL0     H15122   3.798   6.575   1.377  2.4949  0.4106 -0.3610
  110MOL0     H15123   3.737   6.347   1.563 -2.8642 -1.0110  0.0311
  110MOL0     H15124   3.673   6.507   1.580 -1.0807 -0.4557  0.6212
  110MOL0     H15125   3.541   6.293   1.447  2.0292 -0.5910  3.0905
  110MOL0     H15126   3.614   6.381   1.311 -2.1249 -3.8587 -0.5202
  110MOL0     H15127   3.383   6.463   1.376  0.9805 -3.0384 -0.5499
  110MOL0     H15128   3.448   6.505   1.536 -1.1727 -1.5530 -0.8524
  110MOL0     H15129   3.583   6.591   1.177  0.3075 -0.8418 -1.4411
  110MOL0     H15130   3.551   6.978   1.138 -0.9674 -0.6014  0.7254
  110MOL0     H15131   3.472   6.863   1.057 -1.1671  0.2682  0.7454
  110MOL0     H15132   3.785   6.868   1.065  1.2829 -1.0375 -2.3951
  110MOL0     H15133   3.695   6.729   1.024  0.3849  0.9111  1.2530
  110MOL0     H15134   3.741   6.844   0.801 -0.3864 -3.4376  1.1845
  110MOL0     H15135   3.577   6.860   0.838  0.2569 -1.8416 -0.0023
  110MOL0     H15136   3.626   7.069   0.777 -0.2343  1.6128  0.7486
  110MOL0     H15137   3.659   7.099   0.950 -3.1037 -1.1268  0.1734
  110MOL0     H15138   4.072   7.173   0.785  2.1702 -1.4924  0.9418
  110MOL0     H15139   4.291   7.159   0.865 -3.3456 -2.7760  0.5268
  110MOL0     H15140   4.344   7.251   1.002  0.5371 -0.6935 -0.9019
  110MOL0     H15141   4.268   7.339   0.866  1.2293  1.6097  2.5037
  110MOL0     H15142   3.959   7.450   1.493  0.4814  2.7031 -0.8106
  110MOL0     H15143   4.005   7.600   1.647  1.1341  2.3311 -0.4960
  110MOL0     H15144   4.293   7.607   1.929  1.2866  1.2009  0.6897
  110MOL0     H15145   4.435   7.588   1.819  0.3010  1.2012 -2.7634
  110MOL0     H15146   4.319   7.854   1.895 -0.9502 -1.0606 -3.2796
  110MOL0     H15147   4.447   7.777   1.993 -3.0269  1.8688  1.2501
  110MOL0     H15148   4.454   7.858   1.694  0.3617  2.4692  0.4777
  110MOL0     H15149   4.572   7.740   1.779 -1.4096 -0.7332  1.0558
  110MOL0     H15150   4.594   7.960   1.940  3.7058  3.1256 -1.4634
  110MOL0     H15151   4.530   8.042   1.813  0.5908  1.0588  1.4685
  110MOL0     H15152   4.760   7.858   1.747 -2.0578 -0.3357  2.7198
  110MOL0     H15153   4.691   7.982   1.653 -2.3007  1.0853  0.8570
  110MOL0     H15154   4.861   8.018   1.908  0.5002 -0.7615 -0.1500
  110MOL0     H15155   4.777   8.158   1.837 -0.1823 -0.9160  2.2845
  110MOL0     H15156   4.916   8.132   1.639 -0.6962 -1.3665 -0.3562
  110MOL0     H15157   4.961   7.967   1.687 -1.7673 -0.5350  0.1002
  110MOL0     H15158   5.139   8.125   1.714  0.0797 -3.2283  0.0645
  110MOL0     H15159   5.105   8.041   1.862 -0.3497 -0.0212  1.2913
  110MOL0     H15160   4.442   7.526   1.589 -0.0747 -0.6786 -0.3212
  110MOL0     H15161   4.374   7.362   1.415 -2.4089 -2.2474 -1.5812
  110MOL0     H15162   3.930   7.199   1.255  0.6524 -1.6709  0.1602
  110MOL0     H15163   3.795   7.096   1.095 -0.3091  0.9838  1.2536
  110MOL0     H15164   4.549   6.626   1.293 -1.4618  0.6954 -0.1390
  110MOL0     H15165   4.740   6.583   1.132 -1.3712  2.0786 -1.5091
  110MOL0     H15166   4.911   6.499   0.799  0.5050  0.8385 -0.0779
  110MOL0     H15167   5.067   6.513   0.628 -1.5867  0.8408  1.3674
  110MOL0     H15168   5.280   6.129   0.521 -0.1667 -0.2237 -0.8751
  110MOL0     H15169   5.149   6.126   0.403  2.1667 -1.4669 -0.2779
  110MOL0     H15170   5.261   6.311   0.277  2.0519  2.1265  0.9912
  110MOL0     H15171   5.318   6.156   0.250 -3.0536 -0.2590  0.9339
  110MOL0     H15172   5.434   6.397   0.405  3.0320  0.4814 -1.4100
  110MOL0     H15173   5.489   6.235   0.435  2.4184  0.1457 -0.1705
  110MOL0     H15174   5.634   6.354   0.294  1.1407 -2.1597  0.1269
  110MOL0     H15175   5.501   6.392   0.178 -1.3598  4.2538  4.3247
  110MOL0     H15176   5.686   6.001   0.105 -0.1673  0.1693 -0.5304
  110MOL0     H15177   5.126   6.078   0.661  0.0568 -0.7724  1.9820
  110MOL0     H15178   4.882   5.974   0.833 -1.0063  2.8254 -2.2214
  110MOL0     H15179   5.054   5.947   0.834 -1.9652 -2.5341  1.7033
  110MOL0     H15180   4.990   6.035   0.965  3.7965 -2.4638  0.7859
  111MOL0     O15181   5.970   4.159   8.306 -0.4497 -0.4027 -0.2770
  111MOL0     C15182   5.887   4.069   8.273  0.5687  0.1555 -0.6783
  111MOL0     O15183   5.869   3.946   8.334  0.0867  0.0695  0.4460
  111MOL0     C15184   5.919   3.930   8.461 -0.0238  0.3848 -0.0181
  111MOL0     C15185   5.940   3.798   8.492  0.4550  0.1163 -0.4771
  111MOL0     C15186   5.978   3.756   8.616 -0.5497 -0.0079 -0.6161
  111MOL0     C15187   5.987   3.843   8.728 -0.4323 -0.3284 -0.1550
  111MOL0     O15188   6.008   3.795   8.857  0.4501 -0.1502  0.2141
  111MOL0     C15189   6.067   3.882   8.962  0.4630  0.4280 -0.5607
  111MOL0     C15190   6.069   3.822   9.104  0.3485  0.6253  0.4000
  111MOL0     C15191   6.145   3.692   9.101 -0.0183 -0.2025  0.0968
  111MOL0     C15192   6.302   3.697   9.081  0.8655 -0.0187 -0.4743
  111MOL0     C15193   6.366   3.564   9.042 -0.5454 -0.1270  0.1434
  111MOL0     C15194   6.517   3.555   9.028  0.0894 -0.9352 -0.1486
  111MOL0     C15195   6.564   3.441   8.934  0.6422  0.5747 -0.5028
  111MOL0     C15196   6.502   3.308   8.977  0.6303 -0.6322  0.4306
  111MOL0     N15197   6.594   3.195   8.952 -0.4837  0.2513 -0.1307
  111MOL0     C15198   6.673   3.130   9.053  0.5503  0.6981  0.4024
  111MOL0     C15199   6.774   3.065   8.982  1.5216 -1.1161 -0.6663
  111MOL0     C15200   6.897   2.994   9.043  0.1191 -0.2379 -0.2204
  111MOL0     C15201   7.024   3.001   8.959  0.1692 -0.6002 -0.3039
  111MOL0     C15202   7.129   2.912   9.022 -0.3935 -1.4692 -0.1253
  111MOL0     C15203   7.254   2.910   8.930 -0.8934  0.0036 -0.5868
  111MOL0     O15204   7.294   3.047   8.900 -0.1344 -0.2107 -0.0853
  111MOL0     C15205   7.394   3.103   8.975  0.5814 -0.4906 -0.4504
  111MOL0     C15206   7.443   3.066   9.099  0.9331 -0.4130  0.7344
  111MOL0     C15207   7.547   3.136   9.165 -0.2736 -0.0200  0.4203
  111MOL0     C15208   7.590   3.084   9.297 -0.8921  1.0335 -0.2291
  111MOL0     C15209   7.605   3.250   9.099  0.2717  0.1665  0.4727
  111MOL0     C15210   7.714   3.323   9.154 -0.5915 -0.9319  1.0731
  111MOL0     O15211   7.691   3.453   9.156  0.1993 -0.3313 -0.3414
  111MOL0     C15212   7.783   3.543   9.199  0.2436  0.1889  0.6424
  111MOL0     C15213   7.911   3.548   9.144 -0.4539 -0.5020  0.0288
  111MOL0     C15214   8.012   3.636   9.188 -0.9334  0.2927 -0.1822
  111MOL0     C15215   7.975   3.730   9.293  0.1033 -0.9377  0.3679
  111MOL0     O15216   8.054   3.834   9.340  0.3739  0.5503  0.1775
  111MOL0     C15217   8.135   3.905   9.247 -0.5531  0.5214  0.0539
  111MOL0     C15218   8.214   4.005   9.326  0.4415  0.2456 -0.1385
  111MOL0     C15219   8.236   4.137   9.260 -0.4791  0.1977  0.3986
  111MOL0     C15220   8.336   4.214   9.342  0.2630  0.4597 -0.6406
  111MOL0     C15221   8.400   4.328   9.270  0.0137  0.9507  0.3924
  111MOL0     C15222   8.502   4.395   9.357  0.8591 -0.3756  0.5498
  111MOL0     C15223   8.447   4.480   9.474  0.2971 -0.0992 -0.6061
  111MOL0     C15224   8.564   4.507   9.564  0.0408  0.9272  0.3937
  111MOL0    Cl15225   8.692   4.603   9.492  0.5834  0.0749  0.4208
  111MOL0     C15226   7.839   3.731   9.338 -0.1856 -0.4712 -0.7759
  111MOL0     C15227   7.749   3.640   9.291  0.6916  0.9020  0.3681
  111MOL0     O15228   7.816   3.269   9.196 -0.2565 -0.4842 -0.3461
  111MOL0     C15229   7.553   3.290   8.979 -0.3838  0.0448  0.2232
  111MOL0     C15230   7.460   3.209   8.913 -0.2359  0.8872  0.6482
  111MOL0     N15231   6.756   3.085   8.852 -0.2690 -0.5312  0.3250
  111MOL0     N15232   6.648   3.155   8.835  0.5313 -0.3257 -0.7516
  111MOL0     C15233   5.971   3.983   8.695 -0.9767 -0.6730  0.5999
  111MOL0     C15234   5.928   4.023   8.573 -1.0715  0.2192  0.2246
  111MOL0     C15235   5.809   4.096   8.147 -0.8411 -0.5448  1.5250
  111MOL0     C15236   5.670   4.070   8.143 -0.4599 -0.5545  0.2559
  111MOL0     C15237   5.588   4.112   8.048  0.5895 -0.5627  0.7312
  111MOL0     C15238   5.637   4.165   7.933  0.2597  0.3781  1.0539
  111MOL0     O15239   5.553   4.195   7.826 -0.5199  0.2515  0.3122
  111MOL0     C15240   5.520   4.334   7.821 -0.5550  0.3883 -0.5220
  111MOL0     C15241   5.451   4.374   7.694 -0.2934 -0.2953  0.3008
  111MOL0     C15242   5.435   4.532   7.669  0.4659  0.5417 -0.4817
  111MOL0     C15243   5.540   4.607   7.592  0.3466  0.0591 -0.6083
  111MOL0     C15244   5.679   4.595   7.632 -0.9508  0.5452  0.1090
  111MOL0     C15245   5.790   4.564   7.674 -0.5058 -0.1854 -0.1713
  111MOL0     C15246   5.776   4.182   7.924 -0.4638 -0.0047  0.5186
  111MOL0     C15247   5.855   4.154   8.026 -0.1587  0.6491 -0.2355
  111MOL0     C15248   5.999   4.186   8.002  0.4419  0.3578 -0.5819
  111MOL0     H15249   5.931   3.726   8.412  4.4808 -0.1449 -0.9044
  111MOL0     H15250   5.997   3.651   8.633  0.1970 -0.3139 -3.0243
  111MOL0     H15251   6.007   3.973   8.972 -0.5269 -0.2559  0.0006
  111MOL0     H15252   6.165   3.906   8.920 -1.7162  2.8866 -4.9016
  111MOL0     H15253   6.113   3.905   9.161  2.3309 -0.5063  0.5965
  111MOL0     H15254   5.965   3.819   9.138 -1.5684 -1.9426 -4.6463
  111MOL0     H15255   6.128   3.643   9.197  0.4369 -1.5194 -0.4737
  111MOL0     H15256   6.095   3.628   9.028  0.0332 -3.0634  2.4257
  111MOL0     H15257   6.330   3.770   9.005  2.9218 -0.9374 -0.6707
  111MOL0     H15258   6.347   3.726   9.177 -0.3813 -3.2365  1.2344
  111MOL0     H15259   6.317   3.551   8.945  1.2016 -1.7346 -0.5823
  111MOL0     H15260   6.341   3.486   9.114 -0.5754 -0.7736 -0.5438
  111MOL0     H15261   6.553   3.643   8.973 -0.6540 -1.2445 -1.1528
  111MOL0     H15262   6.572   3.562   9.123  1.0803  1.9504 -0.8274
  111MOL0     H15263   6.673   3.434   8.945  0.9515  1.3527 -2.5164
  111MOL0     H15264   6.535   3.452   8.829  0.5617 -0.4871 -0.6052
  111MOL0     H15265   6.481   3.308   9.084  1.2171  1.7984  0.6029
  111MOL0     H15266   6.404   3.296   8.929  0.2972 -1.9417  1.3742
  111MOL0     H15267   6.667   3.141   9.161 -1.4328  4.1869  0.0868
  111MOL0     H15268   6.872   2.888   9.056 -0.4085 -0.2820 -1.4550
  111MOL0     H15269   6.915   3.029   9.145  0.0811 -3.4914  1.0422
  111MOL0     H15270   6.992   2.973   8.859 -0.7510  1.1397 -0.5258
  111MOL0     H15271   7.057   3.105   8.960 -1.3569 -0.0391  2.6530
  111MOL0     H15272   7.148   2.967   9.115 -0.5977 -1.9701  0.2193
  111MOL0     H15273   7.092   2.810   9.038 -0.6055 -1.1578  1.5987
  111MOL0     H15274   7.340   2.855   8.969 -0.8019 -1.0124 -2.1381
  111MOL0     H15275   7.225   2.855   8.840 -0.4933 -1.6826  0.2758
  111MOL0     H15276   7.394   2.982   9.148 -4.7210  2.8558  1.5316
  111MOL0     H15277   7.671   3.010   9.297 -1.5378  0.2777  1.1849
  111MOL0     H15278   7.510   3.033   9.352  1.2732 -3.3668 -0.6860
  111MOL0     H15279   7.626   3.157   9.370 -1.5540  0.1161  1.0626
  111MOL0     H15280   7.940   3.469   9.075 -1.0792  0.1100 -0.9604
  111MOL0     H15281   8.112   3.639   9.145 -0.6183  1.7365  0.6065
  111MOL0     H15282   8.203   3.835   9.198  1.3848  1.9252  0.6154
  111MOL0     H15283   8.085   3.955   9.164  3.5790  1.2777 -2.2502
  111MOL0     H15284   8.160   4.018   9.421 -0.9383 -3.1165 -0.3045
  111MOL0     H15285   8.308   3.963   9.362  0.5324  1.0323  0.5782
  111MOL0     H15286   8.136   4.181   9.258 -0.2313  0.9487  2.5830
  111MOL0     H15287   8.275   4.105   9.163 -0.2037 -2.5353  1.3130
  111MOL0     H15288   8.404   4.132   9.367 -0.9306  0.0725  1.5626
  111MOL0     H15289   8.279   4.250   9.428  0.5159 -1.7335  0.5132
  111MOL0     H15290   8.439   4.292   9.174 -1.6309 -0.2147  0.1140
  111MOL0     H15291   8.327   4.405   9.243  0.3897  1.4279  0.7160
  111MOL0     H15292   8.561   4.463   9.295 -1.2993 -0.7267 -2.1089
  111MOL0     H15293   8.573   4.320   9.394  3.3614  0.9336 -1.3036
  111MOL0     H15294   8.374   4.424   9.534  0.6119  0.1184 -0.0223
  111MOL0     H15295   8.415   4.579   9.442 -0.3457  0.1407  0.7396
  111MOL0     H15296   8.595   4.413   9.610  0.6043  1.4035  0.9839
  111MOL0     H15297   8.530   4.570   9.646  0.1084  2.0834 -0.4391
  111MOL0     H15298   7.819   3.806   9.414  0.5013 -0.5300 -0.5246
  111MOL0     H15299   7.646   3.648   9.326  0.2644 -1.7428 -0.0638
  111MOL0     H15300   7.600   3.375   8.932 -0.0745 -0.6482 -0.7337
  111MOL0     H15301   7.432   3.248   8.815  1.4815  0.1690 -0.1666
  111MOL0     H15302   5.977   4.067   8.763 -0.7866  0.6444 -0.9788
  111MOL0     H15303   5.902   4.127   8.556  1.4440  1.0943  1.2420
  111MOL0     H15304   5.617   4.038   8.233  0.2786  1.7226  1.5840
  111MOL0     H15305   5.480   4.116   8.059 -0.1044  1.8137 -4.4823
  111MOL0     H15306   5.456   4.359   7.906  1.3918  5.9782 -0.2573
  111MOL0     H15307   5.606   4.399   7.840  0.0061 -0.7943  1.1832
  111MOL0     H15308   5.355   4.322   7.681 -1.2365  1.6844 -1.3957
  111MOL0     H15309   5.522   4.339   7.619 -0.1347  1.6981 -0.5297
  111MOL0     H15310   5.336   4.543   7.625 -0.3583  1.8013  1.5478
  111MOL0     H15311   5.429   4.582   7.766  1.6308 -2.4622  1.2941
  111MOL0     H15312   5.522   4.713   7.613  1.1660 -0.1659  1.4719
  111MOL0     H15313   5.515   4.586   7.488 -5.4829  0.5217  0.3783
  111MOL0     H15314   5.886   4.543   7.716 -0.0615  3.3832  0.9908
  111MOL0     H15315   5.813   4.229   7.833 -2.6631 -1.4584 -1.2396
  111MOL0     H15316   6.022   4.290   8.028 -1.0792  0.7312 -0.5785
  111MOL0     H15317   6.050   4.113   8.066 -1.3236  0.2493  0.7881
  111MOL0     H15318   6.033   4.160   7.901  1.5056  3.5725 -1.1747
  112MOL0     O15319   9.964  11.252   0.298 -0.5362  0.2524 -0.4422
  112MOL0     C15320   9.960  11.365   0.276  0.3948 -0.2185 -0.1950
  112MOL0     O15321   9.846  11.437   0.267 -0.5574 -0.0432  1.0328
  112MOL0     C15322   9.740  11.370   0.228 -0.1459  0.1486  0.1931
  112MOL0     C15323   9.721  11.335   0.092 -0.2613 -0.9970  0.1151
  112MOL0     C15324   9.603  11.269   0.055 -1.3557  0.2464  0.1879
  112MOL0     C15325   9.507  11.232   0.141  0.1804 -0.5461  0.6927
  112MOL0     O15326   9.407  11.165   0.083  0.0647 -0.0147 -0.3858
  112MOL0     C15327   9.279  11.148   0.156 -0.9315 -0.5285  0.4239
  112MOL0     C15328   9.169  11.077   0.076 -0.1952 -0.1039  0.1998
  112MOL0     C15329   9.035  11.099   0.147 -0.0697 -0.4354  0.6576
  112MOL0     C15330   8.923  11.015   0.078 -0.1376 -0.4635  0.0920
  112MOL0     C15331   8.794  11.046   0.154 -0.7420 -0.5679 -0.8380
  112MOL0     C15332   8.684  10.945   0.137 -0.9640  0.3960 -0.2863
  112MOL0     C15333   8.558  10.960   0.226  0.1562  0.3969 -0.1430
  112MOL0     C15334   8.555  10.860   0.340  0.6016  0.4123  0.4724
  112MOL0     N15335   8.659  10.877   0.440 -0.6695 -0.5579 -0.1044
  112MOL0     C15336   8.712  10.994   0.488  0.3414  0.6881  0.1151
  112MOL0     C15337   8.789  10.949   0.584 -0.2461  0.1486  0.1405
  112MOL0     C15338   8.875  11.032   0.657  0.0253 -0.4020  0.2327
  112MOL0     C15339   8.997  11.081   0.580 -0.1621  0.0305 -0.0124
  112MOL0     C15340   9.085  10.967   0.528 -0.2326 -0.3182 -0.1330
  112MOL0     C15341   9.228  11.014   0.535 -0.1882  0.2209 -0.8245
  112MOL0     O15342   9.296  10.951   0.651 -0.6172  0.5830  0.7551
  112MOL0     C15343   9.415  11.007   0.681 -0.8479  0.4987  0.5161
  112MOL0     C15344   9.437  11.046   0.813 -0.8779  0.0727 -0.3756
  112MOL0     C15345   9.567  11.101   0.850  1.1639 -0.2410  0.2227
  112MOL0     C15346   9.588  11.149   0.991 -0.7386  0.1149 -0.6556
  112MOL0     C15347   9.668  11.123   0.750  0.0119  0.0182 -0.9986
  112MOL0     C15348   9.791  11.196   0.778 -0.6949  0.8220  0.3609
  112MOL0     O15349   9.899  11.154   0.709  0.0616  0.5776 -0.1780
  112MOL0     C15350  10.005  11.226   0.728  0.3361  0.0495 -0.5412
  112MOL0     C15351  10.085  11.224   0.844 -0.1805 -0.0688 -0.1679
  112MOL0     C15352  10.191  11.315   0.855  0.1484  0.4944  0.9042
  112MOL0     C15353  10.229  11.397   0.748 -0.0838 -0.5059  0.2579
  112MOL0     O15354  10.333  11.479   0.757 -0.4063 -0.4227 -0.5925
  112MOL0     C15355  10.382  11.551   0.645  0.6274 -0.3272 -0.0759
  112MOL0     C15356  10.500  11.613   0.691  0.3618 -0.6024  0.7895
  112MOL0     C15357  10.622  11.518   0.724 -0.6472 -0.1235  0.2724
  112MOL0     C15358  10.750  11.599   0.743  0.3098  0.6594 -0.0212
  112MOL0     C15359  10.861  11.512   0.788 -0.2710  0.5013  0.0292
  112MOL0     C15360  10.992  11.581   0.802 -0.6035  0.3644  0.4839
  112MOL0     C15361  11.111  11.489   0.777  0.7444 -0.2018 -0.2232
  112MOL0     C15362  11.238  11.565   0.783  0.5981  0.7964  0.4078
  112MOL0    Cl15363  11.379  11.482   0.693 -0.0242 -0.0679 -0.1761
  112MOL0     C15364  10.152  11.386   0.636 -0.8084 -0.4286  0.8226
  112MOL0     C15365  10.046  11.304   0.626  0.1054  0.4733  0.8823
  112MOL0     O15366   9.788  11.286   0.864 -0.0503 -0.5680 -0.4680
  112MOL0     C15367   9.631  11.080   0.624 -0.5977  0.1521  0.5010
  112MOL0     C15368   9.516  11.027   0.590 -1.1582  1.1324  0.4877
  112MOL0     N15369   8.782  10.812   0.606  0.6970  0.4451  0.1101
  112MOL0     N15370   8.695  10.773   0.525  0.0949 -0.4069  0.2751
  112MOL0     C15371   9.520  11.274   0.272  0.1389  0.7683 -0.6654
  112MOL0     C15372   9.634  11.344   0.312  0.7757 -0.2358  0.0020
  112MOL0     C15373  10.093  11.419   0.267 -0.3827  0.5614 -0.2124
  112MOL0     C15374  10.214  11.340   0.289  0.2800  0.0976  0.2851
  112MOL0     C15375  10.341  11.402   0.288  0.6902  0.8649  0.0068
  112MOL0     C15376  10.357  11.537   0.270  1.0052 -0.1469  0.2899
  112MOL0     O15377  10.475  11.606   0.276 -0.2908  0.0519 -0.1329
  112MOL0     C15378  10.607  11.548   0.311 -0.6890  0.3555 -0.1007
  112MOL0     C15379  10.713  11.624   0.240  0.7484 -0.0154  0.3111
  112MOL0     C15380  10.858  11.571   0.256  0.8400 -0.0373  0.3243
  112MOL0     C15381  10.911  11.571   0.394 -0.3525  0.1762 -0.3605
  112MOL0     C15382  11.049  11.526   0.400 -0.6997  1.2611  0.4137
  112MOL0     C15383  11.169  11.495   0.400  0.3035 -0.6952  0.2367
  112MOL0     C15384  10.249  11.613   0.235 -0.0418 -0.7431 -0.8531
  112MOL0     C15385  10.125  11.551   0.223  1.1021  0.2151 -0.2160
  112MOL0     C15386  10.025  11.650   0.166  0.7693 -0.2815  0.7051
  112MOL0     H15387   9.804  11.363   0.029 -0.6893 -0.5201 -0.2493
  112MOL0     H15388   9.582  11.235  -0.046 -0.1650  0.0714 -0.0143
  112MOL0     H15389   9.261  11.240   0.213 -1.2196 -1.0231  1.1563
  112MOL0     H15390   9.313  11.075   0.230  1.9418  1.1859  0.9418
  112MOL0     H15391   9.147  11.114  -0.025  1.8942  0.3438 -0.1332
  112MOL0     H15392   9.190  10.971   0.063  3.4490  0.4411  0.6501
  112MOL0     H15393   9.044  11.066   0.251  0.9415 -0.6392  0.5210
  112MOL0     H15394   9.021  11.208   0.144 -0.1191 -0.4549 -0.1860
  112MOL0     H15395   8.918  11.044  -0.028  2.6532 -3.2567 -0.9549
  112MOL0     H15396   8.945  10.908   0.083 -3.7675 -1.2815  1.3799
  112MOL0     H15397   8.759  11.147   0.128  0.3472 -0.1039 -0.5558
  112MOL0     H15398   8.817  11.050   0.261 -0.3524 -1.8083 -0.8636
  112MOL0     H15399   8.660  10.941   0.030 -2.4428  3.0392 -0.1252
  112MOL0     H15400   8.730  10.849   0.161  0.7886  1.6551  1.7526
  112MOL0     H15401   8.476  10.956   0.154 -0.1709 -1.0713  0.2770
  112MOL0     H15402   8.550  11.063   0.261  0.9828  0.8676 -1.2808
  112MOL0     H15403   8.461  10.896   0.384  0.2239  0.4740 -0.3442
  112MOL0     H15404   8.554  10.754   0.312  1.5763 -0.1345  2.3911
  112MOL0     H15405   8.692  11.098   0.465 -2.1644  0.2975  0.2626
  112MOL0     H15406   8.902  10.964   0.739  0.7155 -1.7463 -1.0659
  112MOL0     H15407   8.818  11.115   0.699 -0.4368  0.1619 -1.4564
  112MOL0     H15408   8.974  11.150   0.498 -0.6783 -1.6404 -1.3429
  112MOL0     H15409   9.054  11.128   0.660 -0.5966 -0.7504  0.7763
  112MOL0     H15410   9.084  10.883   0.598  0.3718  2.6467  3.7871
  112MOL0     H15411   9.055  10.933   0.429  2.2791  3.6645 -2.5489
  112MOL0     H15412   9.285  11.003   0.443  1.1175  0.7730 -0.1195
  112MOL0     H15413   9.239  11.123   0.545 -0.5543  0.2936 -1.1837
  112MOL0     H15414   9.351  11.037   0.878 -0.1010  3.0548  1.2574
  112MOL0     H15415   9.514  11.093   1.049  0.0672 -2.1882 -1.7444
  112MOL0     H15416   9.552  11.252   1.000 -3.8174 -1.0180  4.0539
  112MOL0     H15417   9.690  11.126   1.022 -0.9963  1.2842  1.2405
  112MOL0     H15418  10.051  11.162   0.927  1.2802 -2.4318 -1.2410
  112MOL0     H15419  10.241  11.318   0.951  1.4121  0.0553  0.2736
  112MOL0     H15420  10.402  11.482   0.563  0.8336 -0.3668  0.0082
  112MOL0     H15421  10.309  11.620   0.603  0.7953  0.3381  0.6864
  112MOL0     H15422  10.540  11.669   0.606  1.1615 -1.3987  0.6337
  112MOL0     H15423  10.482  11.679   0.777 -0.4909  0.0309  0.1413
  112MOL0     H15424  10.645  11.449   0.642 -1.2253  0.5873 -0.5018
  112MOL0     H15425  10.597  11.462   0.815 -1.2948  4.3642  3.2021
  112MOL0     H15426  10.725  11.676   0.817 -1.5432  1.6235 -1.5599
  112MOL0     H15427  10.778  11.653   0.653  3.1398  0.8084  0.8530
  112MOL0     H15428  10.844  11.468   0.886  1.1705 -3.4879 -1.3006
  112MOL0     H15429  10.880  11.426   0.723  0.9558  0.7155  0.0762
  112MOL0     H15430  10.990  11.640   0.895 -1.8850  0.0415  0.6850
  112MOL0     H15431  10.988  11.653   0.720 -2.7609 -0.2721 -0.0134
  112MOL0     H15432  11.092  11.454   0.675 -0.0562 -0.2760 -0.0562
  112MOL0     H15433  11.111  11.402   0.843 -2.5690 -0.8588 -0.9133
  112MOL0     H15434  11.259  11.594   0.887  2.4835  2.7475 -0.4473
  112MOL0     H15435  11.229  11.656   0.723  2.4931  0.0105 -1.1583
  112MOL0     H15436  10.165  11.452   0.551 -0.3751 -2.6611 -0.9436
  112MOL0     H15437   9.977  11.308   0.542  1.0431 -3.9461 -0.3637
  112MOL0     H15438   9.709  11.079   0.548  1.0570 -0.2313  2.1292
  112MOL0     H15439   9.516  11.005   0.484  1.1673 -2.1726  1.0139
  112MOL0     H15440   9.439  11.259   0.343 -0.2445  3.4774 -0.4395
  112MOL0     H15441   9.660  11.365   0.415  0.3672 -1.3841  0.3565
  112MOL0     H15442  10.199  11.237   0.318 -1.5177  0.1483 -0.3898
  112MOL0     H15443  10.422  11.334   0.314 -0.3531 -1.0030 -1.3824
  112MOL0     H15444  10.616  11.550   0.420  2.1350  0.4241 -0.2718
  112MOL0     H15445  10.612  11.440   0.293 -1.3224 -0.3175  3.1603
  112MOL0     H15446  10.712  11.728   0.274  3.8840 -0.0276  0.7184
  112MOL0     H15447  10.691  11.631   0.133  0.4110  2.2453  0.4698
  112MOL0     H15448  10.862  11.478   0.198  0.3660 -0.9756  1.7625
  112MOL0     H15449  10.926  11.640   0.205 -1.3243  1.8119 -0.2449
  112MOL0     H15450  10.855  11.517   0.470 -2.7984  2.3880 -0.4483
  112MOL0     H15451  10.900  11.671   0.439  3.8124 -0.1488  1.9041
  112MOL0     H15452  11.274  11.475   0.402  0.3712 -1.0321 -2.6408
  112MOL0     H15453  10.270  11.711   0.193  1.7060 -1.3709 -1.5071
  112MOL0     H15454   9.951  11.597   0.105  1.3109 -0.6482  0.3581
  112MOL0     H15455   9.977  11.715   0.240  0.6479  1.4864 -0.8364
  112MOL0     H15456  10.074  11.729   0.108  0.2126 -0.6148 -0.2401
  113MOL0     O15457   8.287   9.762   3.514  0.3072  0.3992  0.1099
  113MOL0     C15458   8.214   9.685   3.453 -0.3693  0.5198  0.6115
  113MOL0     O15459   8.256   9.617   3.335  0.5097  1.4847  0.3269
  113MOL0     C15460   8.391   9.610   3.305 -0.1665 -0.0692  0.1444
  113MOL0     C15461   8.496   9.559   3.383 -0.9322  0.4827 -0.5932
  113MOL0     C15462   8.630   9.565   3.337 -0.3670 -0.1718 -0.5153
  113MOL0     C15463   8.663   9.617   3.213 -0.0387  0.1811  0.1508
  113MOL0     O15464   8.795   9.623   3.186  0.0947 -1.1702  0.9111
  113MOL0     C15465   8.853   9.751   3.160 -0.4250 -0.0402 -0.1426
  113MOL0     C15466   8.989   9.768   3.232 -1.0608 -0.6792  0.6300
  113MOL0     C15467   9.054   9.896   3.174  0.6235 -0.3328 -0.0016
  113MOL0     C15468   9.183   9.914   3.264 -0.2333  1.1474  0.5192
  113MOL0     C15469   9.304   9.813   3.242  1.0490 -0.1501  0.5544
  113MOL0     C15470   9.336   9.776   3.098 -0.8435 -0.4411  0.6782
  113MOL0     C15471   9.473   9.716   3.096  0.6035 -0.1863 -0.3925
  113MOL0     C15472   9.502   9.678   2.942  1.0345  0.7959 -0.4596
  113MOL0     N15473   9.623   9.604   2.935  0.3868 -0.2649 -1.1425
  113MOL0     C15474   9.744   9.674   2.945  0.0892 -0.1376 -0.0118
  113MOL0     C15475   9.836   9.579   2.912  0.6795 -1.0037 -0.5645
  113MOL0     C15476   9.986   9.590   2.937  1.0744  0.3140 -0.8697
  113MOL0     C15477  10.022   9.614   3.082 -0.0313  0.1677 -0.5366
  113MOL0     C15478   9.988   9.497   3.182 -0.1492  0.0372  0.2675
  113MOL0     C15479  10.046   9.517   3.317  0.1186  0.1016  0.5322
  113MOL0     O15480   9.978   9.431   3.411  0.2367  0.2629  0.1869
  113MOL0     C15481   9.997   9.431   3.551  0.5015  0.1650 -1.3259
  113MOL0     C15482   9.895   9.387   3.628 -0.3673 -0.3044 -0.7941
  113MOL0     C15483   9.895   9.397   3.771  0.5675 -0.0383  0.0600
  113MOL0     C15484   9.772   9.330   3.835  0.3023 -0.5631  0.1858
  113MOL0     C15485   9.995   9.474   3.840 -0.0705  0.3444 -0.7041
  113MOL0     C15486  10.010   9.508   3.985  0.2513 -0.5282 -0.3023
  113MOL0     O15487   9.914   9.456   4.066 -0.2734 -0.4769 -0.0698
  113MOL0     C15488   9.889   9.519   4.192 -0.9556  0.7154 -0.1979
  113MOL0     C15489   9.917   9.456   4.316 -0.2307  0.3902 -0.0016
  113MOL0     C15490   9.885   9.514   4.435  0.4045 -0.9209 -0.8589
  113MOL0     C15491   9.816   9.644   4.436 -0.2082  0.3108  0.0520
  113MOL0     O15492   9.773   9.711   4.549  0.0694 -0.2655 -0.2349
  113MOL0     C15493   9.726   9.637   4.665 -0.7532  0.9007 -0.0191
  113MOL0     C15494   9.642   9.724   4.771 -0.2016 -0.3124  0.8064
  113MOL0     C15495   9.486   9.703   4.734  0.2619 -0.3652 -0.3100
  113MOL0     C15496   9.402   9.827   4.757  0.6476 -0.2810  0.5615
  113MOL0     C15497   9.252   9.791   4.723  0.0553  0.0512 -0.2959
  113MOL0     C15498   9.157   9.910   4.697  0.3660  0.2112 -0.6650
  113MOL0     C15499   9.186  10.036   4.623  0.2124  0.7306  0.6060
  113MOL0     C15500   9.232  10.019   4.483  0.4952  0.4597  0.1083
  113MOL0    Cl15501   9.092   9.940   4.386  0.4608 -0.7907 -0.0807
  113MOL0     C15502   9.799   9.708   4.313  0.3835  0.1090 -0.8350
  113MOL0     C15503   9.830   9.643   4.193 -0.2912 -0.5120  0.5590
  113MOL0     O15504  10.105   9.573   4.020  0.6322 -0.1636 -0.0296
  113MOL0     C15505  10.097   9.528   3.751  0.1605 -0.6174 -0.1151
  113MOL0     C15506  10.097   9.501   3.610  0.5863  0.2408 -0.7609
  113MOL0     N15507   9.773   9.463   2.883  0.5182  0.1349 -0.3554
  113MOL0     N15508   9.643   9.475   2.898 -0.2273 -0.7966 -0.5159
  113MOL0     C15509   8.562   9.671   3.132 -0.2394 -0.5418  0.2413
  113MOL0     C15510   8.425   9.671   3.178  0.3426  0.6685 -0.6033
  113MOL0     C15511   8.068   9.685   3.490 -0.6518 -0.3590  0.3980
  113MOL0     C15512   7.978   9.632   3.392 -0.8988 -0.8158 -0.3153
  113MOL0     C15513   7.842   9.625   3.415 -0.2495  0.1890  0.2557
  113MOL0     C15514   7.792   9.670   3.543 -0.1737 -0.3335 -0.9976
  113MOL0     O15515   7.662   9.658   3.589 -0.3898 -0.0081  0.1928
  113MOL0     C15516   7.557   9.653   3.495 -0.0344 -0.9930 -0.8653
  113MOL0     C15517   7.541   9.782   3.419 -0.4402 -0.6118 -0.7566
  113MOL0     C15518   7.473   9.906   3.496  0.0314  0.0762 -0.4318
  113MOL0     C15519   7.534   9.937   3.640  0.3142 -0.1882 -0.4356
  113MOL0     C15520   7.516  10.074   3.688  0.4089 -0.6599 -1.2215
  113MOL0     C15521   7.484  10.186   3.727  0.5978 -0.2297  0.1936
  113MOL0     C15522   7.884   9.714   3.642 -0.6240  0.7850 -0.5538
  113MOL0     C15523   8.020   9.709   3.625 -0.4792 -0.3790  0.5375
  113MOL0     C15524   8.105   9.763   3.732 -0.2054 -0.6048 -1.0761
  113MOL0     H15525   8.464   9.516   3.477  1.3992 -0.6166 -0.2553
  113MOL0     H15526   8.715   9.524   3.391 -0.7993 -0.3143  0.0663
  113MOL0     H15527   8.785   9.829   3.197  0.1928 -0.2448  1.5518
  113MOL0     H15528   8.878   9.764   3.054 -1.2544 -3.1460 -0.7950
  113MOL0     H15529   8.967   9.758   3.339  0.4504 -1.4178  0.9062
  113MOL0     H15530   9.055   9.685   3.203  2.1736  1.8554  0.1361
  113MOL0     H15531   9.078   9.887   3.068  1.7679  0.5950  0.1609
  113MOL0     H15532   8.981   9.977   3.183 -1.0918 -1.8136  0.1687
  113MOL0     H15533   9.216  10.016   3.242  2.0939  0.9559  2.7104
  113MOL0     H15534   9.153   9.904   3.369 -0.7730  2.2825  0.4847
  113MOL0     H15535   9.273   9.714   3.277  1.0367 -0.6552 -0.8458
  113MOL0     H15536   9.387   9.850   3.302  1.3520 -0.8731  0.6003
  113MOL0     H15537   9.259   9.706   3.065 -0.3552 -0.4257 -0.5207
  113MOL0     H15538   9.341   9.868   3.038 -0.7349  1.0117  2.7815
  113MOL0     H15539   9.481   9.629   3.161 -1.7011  0.8889  1.4446
  113MOL0     H15540   9.541   9.800   3.113 -2.2973  2.8808 -2.6830
  113MOL0     H15541   9.421   9.622   2.895  2.2356 -1.9233  0.4906
  113MOL0     H15542   9.515   9.766   2.877 -1.1154 -1.9256 -5.0824
  113MOL0     H15543   9.765   9.778   2.968  0.9433 -0.2888 -0.0782
  113MOL0     H15544  10.026   9.671   2.875  1.2252  0.5646 -0.4453
  113MOL0     H15545  10.038   9.499   2.904  0.1856 -0.5670  0.0803
  113MOL0     H15546  10.129   9.638   3.086  1.0129 -3.1645 -3.1689
  113MOL0     H15547   9.958   9.697   3.113  0.5425 -0.5246  2.8242
  113MOL0     H15548   9.880   9.508   3.199 -0.9249  1.5849 -4.1761
  113MOL0     H15549  10.012   9.397   3.146 -0.9740  0.1759 -0.7444
  113MOL0     H15550  10.154   9.500   3.306  0.4252  1.0546  1.8021
  113MOL0     H15551  10.038   9.618   3.358 -0.1383 -0.0206  0.7851
  113MOL0     H15552   9.808   9.342   3.583 -1.4169  0.5842  0.2829
  113MOL0     H15553   9.748   9.245   3.771 -1.2677  0.2005 -0.2844
  113MOL0     H15554   9.691   9.403   3.830 -0.2802 -1.2734 -1.2557
  113MOL0     H15555   9.775   9.301   3.940 -0.4048  0.5813  0.5393
  113MOL0     H15556   9.977   9.365   4.316  0.5634  0.8782 -1.7984
  113MOL0     H15557   9.891   9.456   4.527 -0.3518  1.4558  0.7850
  113MOL0     H15558   9.658   9.553   4.645 -1.0640  0.5475  2.1838
  113MOL0     H15559   9.810   9.597   4.722 -0.6343  1.1367 -0.0313
  113MOL0     H15560   9.667   9.700   4.875  0.5952 -1.7699  0.3093
  113MOL0     H15561   9.678   9.825   4.752  0.9506 -0.7354  0.6581
  113MOL0     H15562   9.446   9.617   4.789 -1.1331  0.9933  0.8881
  113MOL0     H15563   9.489   9.672   4.629  0.7570  1.4251 -0.8518
  113MOL0     H15564   9.426   9.906   4.684  0.1833  0.1864  0.9071
  113MOL0     H15565   9.407   9.869   4.858  0.0483  0.8706  0.1263
  113MOL0     H15566   9.258   9.736   4.629 -0.4408  0.9325 -0.8510
  113MOL0     H15567   9.205   9.721   4.793  0.2444  0.9803  0.7865
  113MOL0     H15568   9.119   9.942   4.794 -0.8130  1.0336 -1.3797
  113MOL0     H15569   9.072   9.869   4.641 -1.7549  3.4020 -0.0387
  113MOL0     H15570   9.268  10.081   4.679  0.4077  0.0691  0.8598
  113MOL0     H15571   9.099  10.103   4.619  1.2775  2.5645  3.9614
  113MOL0     H15572   9.312   9.944   4.479 -0.6401 -1.0878  3.1403
  113MOL0     H15573   9.255  10.118   4.442 -0.5007  0.2696 -0.9641
  113MOL0     H15574   9.757   9.808   4.316 -0.6813 -0.3240 -0.7538
  113MOL0     H15575   9.801   9.680   4.095 -1.5506 -0.5596  0.8993
  113MOL0     H15576  10.166   9.604   3.786  0.5835 -1.3461  0.6524
  113MOL0     H15577  10.182   9.546   3.560  0.3336  1.9366  0.2815
  113MOL0     H15578   8.603   9.720   3.044  2.1749  2.3865  2.7527
  113MOL0     H15579   8.345   9.705   3.112 -2.9121 -1.9019  1.6732
  113MOL0     H15580   8.024   9.603   3.298  3.1880  0.8494  0.9360
  113MOL0     H15581   7.781   9.594   3.331 -1.1486 -0.0265  0.9654
  113MOL0     H15582   7.581   9.582   3.415  1.2475  1.5289 -2.8932
  113MOL0     H15583   7.473   9.626   3.560  0.2303  1.3534  0.5870
  113MOL0     H15584   7.467   9.771   3.340  0.8955  0.5796 -2.2520
  113MOL0     H15585   7.632   9.817   3.368 -1.1326  0.9916 -0.9577
  113MOL0     H15586   7.472   9.998   3.436  1.1993 -0.7581 -1.7868
  113MOL0     H15587   7.365   9.897   3.509 -0.0689  2.3509  0.8420
  113MOL0     H15588   7.642   9.923   3.642  0.3196 -0.0010  1.3459
  113MOL0     H15589   7.483   9.869   3.709 -0.4700  0.7058 -0.1270
  113MOL0     H15590   7.451  10.283   3.758 -0.0735 -0.8303  1.4544
  113MOL0     H15591   7.841   9.724   3.741 -0.8924 -0.7178 -0.4866
  113MOL0     H15592   8.053   9.763   3.828 -0.0188  3.1712 -0.8104
  113MOL0     H15593   8.200   9.710   3.747 -0.5985 -0.5815  2.1691
  113MOL0     H15594   8.138   9.866   3.714 -3.0498  0.1721 -2.2877
  114MOL0     O15595   5.462   0.477   3.496  0.3380 -0.7966  0.1053
  114MOL0     C15596   5.377   0.453   3.413  0.7060  0.7904  0.6502
  114MOL0     O15597   5.240   0.471   3.426  0.1331 -0.2604 -0.8314
  114MOL0     C15598   5.179   0.513   3.544 -0.8961  0.0742  0.2855
  114MOL0     C15599   5.094   0.431   3.624 -0.3080 -0.3725  1.1924
  114MOL0     C15600   5.039   0.487   3.736  0.5260  0.6709  0.4934
  114MOL0     C15601   5.060   0.620   3.774 -0.5602  0.2464  0.5842
  114MOL0     O15602   4.979   0.672   3.872  0.5588  0.8270 -0.1575
  114MOL0     C15603   4.924   0.804   3.875  0.1933  0.0563  0.6264
  114MOL0     C15604   4.887   0.843   4.019  0.6048 -0.2493 -0.3437
  114MOL0     C15605   4.811   0.719   4.087 -0.9607  0.2012 -0.4494
  114MOL0     C15606   4.774   0.749   4.231  0.5621 -0.0610  0.6719
  114MOL0     C15607   4.892   0.777   4.329 -0.0524 -0.7731 -0.1421
  114MOL0     C15608   4.865   0.819   4.476 -0.2548 -0.6555  0.4433
  114MOL0     C15609   4.984   0.857   4.561  0.0288  0.4377  0.1743
  114MOL0     C15610   4.957   0.890   4.702  0.6836 -0.2379 -0.0560
  114MOL0     N15611   5.081   0.922   4.763  0.6489 -0.1678  0.1698
  114MOL0     C15612   5.135   1.049   4.764 -0.6401  0.3621 -0.5383
  114MOL0     C15613   5.245   1.031   4.845  0.5786 -0.8544  0.5681
  114MOL0     C15614   5.330   1.139   4.899 -0.0346  0.5977 -0.6057
  114MOL0     C15615   5.481   1.111   4.902  0.1317 -0.2737 -0.1042
  114MOL0     C15616   5.542   1.066   4.763  0.2727  0.1576 -0.1541
  114MOL0     C15617   5.683   1.088   4.751 -0.3352  0.0430 -0.2241
  114MOL0     O15618   5.700   1.233   4.746 -0.2875  0.0073  0.4884
  114MOL0     C15619   5.830   1.267   4.770  0.1517 -0.9275  0.0465
  114MOL0     C15620   5.862   1.276   4.909 -0.4182 -0.8173 -0.8614
  114MOL0     C15621   5.992   1.305   4.941  0.4366 -0.5200 -0.4842
  114MOL0     C15622   6.030   1.299   5.089  0.3456 -0.4367  0.3706
  114MOL0     C15623   6.084   1.348   4.836 -0.1989 -1.6381 -0.1218
  114MOL0     C15624   6.224   1.401   4.855 -0.3296  0.3470 -0.4429
  114MOL0     O15625   6.242   1.473   4.974  0.0802 -0.1085 -0.5680
  114MOL0     C15626   6.360   1.531   5.005  0.7182 -0.1219 -0.3458
  114MOL0     C15627   6.436   1.476   5.104  0.7178  0.2519 -0.1619
  114MOL0     C15628   6.563   1.526   5.134 -0.2729 -0.3999 -0.1004
  114MOL0     C15629   6.608   1.647   5.073 -0.0013  0.0729  0.1596
  114MOL0     O15630   6.741   1.684   5.106  0.1470  0.6841 -0.6308
  114MOL0     C15631   6.805   1.776   5.008 -0.6084 -0.4457 -0.2519
  114MOL0     C15632   6.953   1.774   5.049 -0.4675 -0.0613  0.5382
  114MOL0     C15633   6.986   1.825   5.187  0.0527 -0.7523  0.7478
  114MOL0     C15634   7.136   1.863   5.196 -0.6311  0.4455 -0.2354
  114MOL0     C15635   7.217   1.757   5.270 -0.2973  0.1182 -0.0448
  114MOL0     C15636   7.368   1.805   5.292 -0.4176 -0.0382 -0.6541
  114MOL0     C15637   7.425   1.816   5.154 -0.6621  0.7122  0.4718
  114MOL0     C15638   7.574   1.852   5.147 -0.3397  0.2068 -0.2991
  114MOL0    Cl15639   7.609   2.004   5.218  0.1668  0.3283 -0.1439
  114MOL0     C15640   6.533   1.700   4.972 -0.0999 -0.9776  0.0643
  114MOL0     C15641   6.404   1.648   4.945 -0.4132 -1.4289 -0.2283
  114MOL0     O15642   6.314   1.383   4.769 -0.6659  0.6347 -0.5513
  114MOL0     C15643   6.037   1.340   4.699  0.5141 -0.3212  0.7988
  114MOL0     C15644   5.909   1.299   4.662 -0.2929  0.5256 -0.3642
  114MOL0     N15645   5.261   0.896   4.872  0.0948 -0.2951  0.0345
  114MOL0     N15646   5.167   0.830   4.820  0.7201 -0.9607  0.5220
  114MOL0     C15647   5.160   0.693   3.708  0.2406  0.5153 -0.1063
  114MOL0     C15648   5.211   0.638   3.592 -0.2444 -0.4943 -0.6113
  114MOL0     C15649   5.435   0.410   3.279 -0.4266 -0.0132  0.9038
  114MOL0     C15650   5.580   0.402   3.272 -0.0009  0.3003 -0.1254
  114MOL0     C15651   5.647   0.389   3.147  0.4039 -0.6019  0.3741
  114MOL0     C15652   5.581   0.361   3.030  0.5512 -0.5333  0.3360
  114MOL0     O15653   5.636   0.342   2.905 -0.0086 -0.1770  0.0184
  114MOL0     C15654   5.783   0.359   2.880  0.2248 -0.3741  0.7290
  114MOL0     C15655   5.833   0.506   2.909 -0.1819 -0.6284  0.0406
  114MOL0     C15656   5.971   0.534   2.835 -0.1655 -0.4227 -0.8066
  114MOL0     C15657   6.085   0.444   2.877  0.4441 -0.4774  0.1567
  114MOL0     C15658   6.129   0.439   3.017  0.1260  0.1666 -0.5865
  114MOL0     C15659   6.144   0.458   3.133 -1.2432  0.0871  0.0627
  114MOL0     C15660   5.445   0.340   3.045  0.3324 -0.2471 -0.1445
  114MOL0     C15661   5.363   0.373   3.161  0.1803  0.4878 -0.8541
  114MOL0     C15662   5.216   0.359   3.155  0.0443 -0.9285  0.1280
  114MOL0     H15663   5.068   0.330   3.597 -3.2456  0.9264 -1.3886
  114MOL0     H15664   4.985   0.420   3.802  0.5210  0.7874  0.6084
  114MOL0     H15665   4.829   0.796   3.822  1.6628 -2.8387 -1.8798
  114MOL0     H15666   4.980   0.884   3.826  0.4152  0.8046  2.0431
  114MOL0     H15667   4.978   0.872   4.072  0.3490 -1.7978  1.0413
  114MOL0     H15668   4.828   0.934   4.026 -1.5684 -1.6563  0.6797
  114MOL0     H15669   4.732   0.697   4.014  0.4142  0.0301 -1.9327
  114MOL0     H15670   4.878   0.634   4.103 -0.8178  0.4532  0.3602
  114MOL0     H15671   4.695   0.826   4.236 -1.6511 -2.2890  3.2779
  114MOL0     H15672   4.722   0.657   4.258 -1.4274  0.6025 -0.6192
  114MOL0     H15673   4.963   0.850   4.288 -0.1602 -1.5449 -1.7959
  114MOL0     H15674   4.940   0.679   4.337  1.5285  0.0217  0.7072
  114MOL0     H15675   4.800   0.904   4.459  0.4473 -0.1302  0.3449
  114MOL0     H15676   4.810   0.744   4.534 -2.8009  2.6290  2.6275
  114MOL0     H15677   5.028   0.946   4.514  0.2534  0.4980  0.4953
  114MOL0     H15678   5.045   0.766   4.556 -1.1872 -0.7970  4.1311
  114MOL0     H15679   4.887   0.971   4.724  0.8705 -0.2488  0.5776
  114MOL0     H15680   4.923   0.798   4.750 -0.4313  0.9039  1.4193
  114MOL0     H15681   5.092   1.142   4.727 -1.6473  0.6542  1.2760
  114MOL0     H15682   5.301   1.140   5.004 -1.3135  1.7330 -0.9461
  114MOL0     H15683   5.313   1.230   4.841 -1.0133  0.3321 -0.7552
  114MOL0     H15684   5.525   1.205   4.935  0.4314 -1.1265  2.0385
  114MOL0     H15685   5.496   1.040   4.983  0.4731  1.8889  1.8278
  114MOL0     H15686   5.530   0.960   4.736 -1.2433  0.0691  0.7686
  114MOL0     H15687   5.492   1.129   4.689 -2.5134  0.5693  1.9181
  114MOL0     H15688   5.743   1.044   4.832 -2.6003 -1.1688  0.8987
  114MOL0     H15689   5.723   1.041   4.662  1.6265  3.0822 -1.0880
  114MOL0     H15690   5.794   1.246   4.989  2.6697  2.8065  3.6565
  114MOL0     H15691   5.941   1.261   5.140 -0.3908 -0.1164 -0.6344
  114MOL0     H15692   6.044   1.400   5.130  0.9234 -0.3898  0.0725
  114MOL0     H15693   6.123   1.242   5.095  1.3997  0.9642 -1.4639
  114MOL0     H15694   6.405   1.389   5.160  0.1351  0.1100 -0.6930
  114MOL0     H15695   6.627   1.476   5.207 -0.0483 -0.1234 -0.1034
  114MOL0     H15696   6.809   1.726   4.911  1.5661 -1.1255  0.1303
  114MOL0     H15697   6.756   1.874   5.008  2.1492  1.0382 -0.5741
  114MOL0     H15698   7.002   1.677   5.036 -1.9763 -0.6636 -1.0181
  114MOL0     H15699   7.000   1.831   4.969 -1.9962 -2.6314 -2.4287
  114MOL0     H15700   6.964   1.755   5.267 -0.9974 -1.0095  0.2558
  114MOL0     H15701   6.925   1.914   5.203  2.0654  0.9667 -0.4706
  114MOL0     H15702   7.138   1.961   5.244 -1.2857 -0.2811  1.3300
  114MOL0     H15703   7.170   1.864   5.092 -3.0737 -1.7827 -1.1663
  114MOL0     H15704   7.178   1.720   5.366 -1.0728 -2.7247 -1.3351
  114MOL0     H15705   7.210   1.672   5.201 -2.3590  0.7240 -0.6382
  114MOL0     H15706   7.418   1.732   5.357  1.1752  1.9420  0.4691
  114MOL0     H15707   7.377   1.901   5.344  2.0168  1.1553 -2.9979
  114MOL0     H15708   7.373   1.883   5.085 -1.0480 -3.5627 -4.0130
  114MOL0     H15709   7.421   1.716   5.110  0.9877  1.3743 -1.3824
  114MOL0     H15710   7.590   1.860   5.039  0.0260 -1.8429 -0.4363
  114MOL0     H15711   7.638   1.770   5.180  0.4327  0.5150 -1.0175
  114MOL0     H15712   6.561   1.792   4.922  0.6131 -1.0412  0.3428
  114MOL0     H15713   6.347   1.689   4.863 -1.1129  2.1455  1.8364
  114MOL0     H15714   6.098   1.362   4.612  1.3144  1.4036  1.7244
  114MOL0     H15715   5.877   1.289   4.558 -0.3472  0.0985 -0.3078
  114MOL0     H15716   5.188   0.793   3.742 -0.1370  0.1196  1.4391
  114MOL0     H15717   5.295   0.685   3.541  0.6126  0.8302  1.8340
  114MOL0     H15718   5.637   0.409   3.364 -1.8993 -3.0706  1.5029
  114MOL0     H15719   5.754   0.406   3.148  0.1106  1.6358 -0.7423
  114MOL0     H15720   5.843   0.287   2.936 -0.0483 -1.5753 -0.4753
  114MOL0     H15721   5.804   0.335   2.775 -0.2181 -1.0600  0.7975
  114MOL0     H15722   5.851   0.528   3.015 -0.3302  3.5066 -0.6544
  114MOL0     H15723   5.764   0.581   2.870  0.1339 -0.7910 -0.8493
  114MOL0     H15724   5.954   0.515   2.729 -1.6007  1.6507 -1.0106
  114MOL0     H15725   5.996   0.637   2.863 -3.2071  0.4063 -0.6933
  114MOL0     H15726   6.175   0.478   2.825  1.2861 -0.2697  1.6906
  114MOL0     H15727   6.049   0.346   2.844 -3.1848  1.3550 -1.9466
  114MOL0     H15728   6.161   0.488   3.234 -0.3613 -1.8529  0.5169
  114MOL0     H15729   5.386   0.306   2.961 -1.7921  2.4502  0.1131
  114MOL0     H15730   5.179   0.324   3.058  2.2331 -6.3008  0.8515
  114MOL0     H15731   5.187   0.273   3.216 -0.5390 -0.6071  0.3054
  114MOL0     H15732   5.160   0.447   3.186 -2.2037 -1.6339 -1.6803
  115MOL0     O15733   8.654  10.255   1.765  0.0197 -0.0748 -0.4703
  115MOL0     C15734   8.770  10.237   1.776 -0.6863 -0.5247  0.3405
  115MOL0     O15735   8.833  10.171   1.878  0.0573  0.0840  0.1926
  115MOL0     C15736   8.779  10.166   2.004 -0.1427 -0.2620 -0.4293
  115MOL0     C15737   8.848  10.069   2.081  0.3380  0.5179 -0.1020
  115MOL0     C15738   8.798  10.034   2.209 -0.6738  0.3805 -0.1872
  115MOL0     C15739   8.683  10.106   2.260  0.0950  0.9461  0.5050
  115MOL0     O15740   8.638  10.074   2.387 -0.7069 -0.5313  0.5601
  115MOL0     C15741   8.493  10.049   2.398 -0.2748 -0.0303  0.2057
  115MOL0     C15742   8.457  10.010   2.540  0.2042 -0.6859  0.2271
  115MOL0     C15743   8.322   9.938   2.529  0.1603 -0.3943 -0.2131
  115MOL0     C15744   8.198  10.032   2.511  0.9112 -1.4165  0.1415
  115MOL0     C15745   8.075   9.978   2.582  0.1791 -0.6756  0.3517
  115MOL0     C15746   7.952  10.070   2.574  0.4561  0.2997  0.3140
  115MOL0     C15747   7.836  10.017   2.659  0.2333  0.0347  0.0833
  115MOL0     C15748   7.740  10.126   2.714  1.0055 -0.1387  0.2076
  115MOL0     N15749   7.796  10.227   2.802  0.5399 -0.9944 -0.4691
  115MOL0     C15750   7.825  10.199   2.929 -0.0478  0.2845 -0.9456
  115MOL0     C15751   7.852  10.323   2.984 -0.0393  0.0249 -1.4678
  115MOL0     C15752   7.861  10.348   3.136  0.7943 -0.1000 -0.6000
  115MOL0     C15753   8.004  10.410   3.164 -0.2449 -0.0029 -1.3025
  115MOL0     C15754   8.030  10.446   3.318 -0.0369 -0.2412  1.2792
  115MOL0     C15755   8.162  10.418   3.380  0.0206 -0.2488  0.8231
  115MOL0     O15756   8.257  10.484   3.298  0.1286 -0.2125 -0.1890
  115MOL0     C15757   8.378  10.500   3.357 -0.4297 -0.8368 -0.1309
  115MOL0     C15758   8.420  10.451   3.476  0.5352  0.0721 -0.1630
  115MOL0     C15759   8.551  10.467   3.527  0.1854  0.1312  0.5169
  115MOL0     C15760   8.579  10.398   3.663  0.3964  0.0878  0.7732
  115MOL0     C15761   8.643  10.528   3.440 -0.5213 -0.5088 -0.8187
  115MOL0     C15762   8.781  10.556   3.487 -0.1570  0.8702 -0.1534
  115MOL0     O15763   8.883  10.593   3.393  0.6214  0.7797 -0.2169
  115MOL0     C15764   8.996  10.644   3.442 -0.0172 -0.3915 -0.5668
  115MOL0     C15765   9.032  10.768   3.402 -0.0732  0.2841 -0.2664
  115MOL0     C15766   9.158  10.825   3.433 -0.2426  0.0668  0.1435
  115MOL0     C15767   9.251  10.742   3.512  0.2950 -0.2959 -0.5931
  115MOL0     O15768   9.381  10.774   3.539 -0.5089  0.5177 -0.3258
  115MOL0     C15769   9.409  10.917   3.568  0.6001 -0.0867  0.1268
  115MOL0     C15770   9.538  10.923   3.651 -0.7747 -0.3605  0.5785
  115MOL0     C15771   9.676  10.940   3.568 -0.5001  0.2722  0.1888
  115MOL0     C15772   9.795  10.939   3.675  0.5127 -0.0148 -0.1940
  115MOL0     C15773   9.928  10.971   3.600  0.9308  0.4699  0.1342
  115MOL0     C15774  10.035  10.994   3.702  0.5328  0.6518  0.5499
  115MOL0     C15775  10.175  11.012   3.648  0.4660  0.0387 -0.7396
  115MOL0     C15776  10.249  11.130   3.703 -0.4460 -0.1016  0.0360
  115MOL0    Cl15777  10.296  11.062   3.865  0.3247 -0.2257 -0.0228
  115MOL0     C15778   9.208  10.615   3.548 -0.7838 -0.4914  0.1344
  115MOL0     C15779   9.087  10.564   3.508  0.3192  0.1520 -0.1705
  115MOL0     O15780   8.797  10.563   3.607 -0.1779  0.0814 -0.3888
  115MOL0     C15781   8.603  10.573   3.306  0.2046  0.3482 -0.2872
  115MOL0     C15782   8.473  10.562   3.271 -0.1435 -0.0194 -0.9208
  115MOL0     N15783   7.839  10.421   2.890  0.0286  0.7152 -0.2015
  115MOL0     N15784   7.797  10.358   2.782  0.3670  0.1350  0.0771
  115MOL0     C15785   8.628  10.207   2.184 -0.3250  0.5254 -0.5600
  115MOL0     C15786   8.676  10.243   2.061 -0.5017  0.3482  0.2654
  115MOL0     C15787   8.854  10.263   1.653  0.0121  0.1139 -0.2042
  115MOL0     C15788   8.979  10.200   1.646 -0.7142 -0.5650  0.5674
  115MOL0     C15789   9.078  10.231   1.547  0.4156  0.3095 -0.3098
  115MOL0     C15790   9.047  10.321   1.441 -0.1043  0.2403  0.6530
  115MOL0     O15791   9.144  10.360   1.349 -0.3345  0.0414 -0.5984
  115MOL0     C15792   9.277  10.323   1.380  0.4982 -0.0786 -0.6468
  115MOL0     C15793   9.365  10.399   1.292  0.5260 -0.1622  0.6058
  115MOL0     C15794   9.381  10.545   1.332 -0.8308 -0.0838  0.3608
  115MOL0     C15795   9.469  10.622   1.228 -0.4079 -0.1437 -0.1559
  115MOL0     C15796   9.393  10.637   1.102 -0.1532  0.3839 -0.0013
  115MOL0     C15797   9.351  10.644   0.981 -0.0393 -0.1783 -0.3075
  115MOL0     C15798   8.920  10.375   1.439  0.3109 -0.6733  0.8577
  115MOL0     C15799   8.824  10.347   1.537  0.1644  0.0336  0.9016
  115MOL0     C15800   8.678  10.406   1.510 -1.0594  1.2211 -0.2783
  115MOL0     H15801   8.922  10.003   2.037  0.1819  0.7645 -0.7473
  115MOL0     H15802   8.831   9.958   2.279 -4.7521  1.2916  3.1103
  115MOL0     H15803   8.465   9.970   2.327  3.3006 -0.4857 -0.9094
  115MOL0     H15804   8.438  10.139   2.370  0.8234  0.8212  0.7312
  115MOL0     H15805   8.528   9.931   2.565 -1.1649 -2.1564 -0.3790
  115MOL0     H15806   8.447  10.101   2.601 -0.3860  1.8975 -3.3597
  115MOL0     H15807   8.318   9.871   2.442 -3.1648  0.0189 -0.5249
  115MOL0     H15808   8.303   9.887   2.624  4.3796  0.9009  1.5205
  115MOL0     H15809   8.216  10.131   2.551 -2.5132 -1.0913  1.1766
  115MOL0     H15810   8.172  10.043   2.405  2.8077 -2.3275 -0.4662
  115MOL0     H15811   8.098   9.950   2.685 -2.2617  0.4631  1.2879
  115MOL0     H15812   8.038   9.888   2.533 -2.4518 -0.2112  1.3114
  115MOL0     H15813   7.982  10.166   2.617  0.3772  0.9431 -1.0323
  115MOL0     H15814   7.923  10.093   2.471 -0.1535  0.5037  0.5216
  115MOL0     H15815   7.888   9.953   2.731  0.0003  2.1891  2.2824
  115MOL0     H15816   7.778   9.951   2.594  3.2252 -4.1147  1.1300
  115MOL0     H15817   7.706  10.167   2.618  0.5676 -1.3916 -0.1883
  115MOL0     H15818   7.659  10.081   2.772 -1.0082  0.8592 -1.6653
  115MOL0     H15819   7.810  10.106   2.983  0.7691  2.0528  2.6458
  115MOL0     H15820   7.827  10.261   3.193  0.0793  0.3587 -0.3059
  115MOL0     H15821   7.783  10.421   3.162 -1.1796 -2.0851 -0.6461
  115MOL0     H15822   8.081  10.334   3.144  2.3462  0.4560  4.6364
  115MOL0     H15823   8.027  10.506   3.117  2.0511  1.5006  2.4268
  115MOL0     H15824   8.014  10.552   3.339 -0.8721 -0.4102  1.5260
  115MOL0     H15825   7.951  10.398   3.377  1.1458 -1.5594  1.8446
  115MOL0     H15826   8.150  10.483   3.468 -1.4747  1.1994 -0.3823
  115MOL0     H15827   8.167  10.311   3.402 -0.5848 -0.5798 -0.5147
  115MOL0     H15828   8.345  10.403   3.538 -0.3552  1.0200 -0.4747
  115MOL0     H15829   8.481  10.362   3.695 -0.1595 -0.4000 -1.2827
  115MOL0     H15830   8.629  10.461   3.737 -0.6872  0.7019  0.9967
  115MOL0     H15831   8.645  10.311   3.651  4.1831  2.2835  3.4550
  115MOL0     H15832   8.964  10.819   3.334  1.3761  0.1664 -1.8673
  115MOL0     H15833   9.181  10.918   3.382 -1.5841 -1.7081 -4.2025
  115MOL0     H15834   9.419  10.983   3.481 -0.5978 -1.1497 -0.8485
  115MOL0     H15835   9.323  10.962   3.618 -0.3105 -1.6177 -0.0077
  115MOL0     H15836   9.529  11.000   3.728 -0.6212 -2.3415  2.7008
  115MOL0     H15837   9.540  10.831   3.711 -1.7284  0.1966  1.4831
  115MOL0     H15838   9.665  11.029   3.505  1.5406  0.2360 -0.3017
  115MOL0     H15839   9.686  10.857   3.498 -1.0134  0.4712 -0.1284
  115MOL0     H15840   9.788  10.850   3.737 -1.5326  2.6654  3.8193
  115MOL0     H15841   9.766  11.016   3.746  0.4288  2.1994 -2.4724
  115MOL0     H15842   9.967  10.887   3.543  1.8637  0.7752  0.2997
  115MOL0     H15843   9.904  11.050   3.528 -0.0358  0.3938  0.3560
  115MOL0     H15844  10.023  10.910   3.770 -1.3398  1.0084  0.7311
  115MOL0     H15845  10.003  11.081   3.760 -2.1088  0.1855 -0.0425
  115MOL0     H15846  10.178  11.025   3.539 -0.1420 -1.3230 -0.9398
  115MOL0     H15847  10.230  10.920   3.667 -1.0804 -0.8772 -0.5039
  115MOL0     H15848  10.185  11.217   3.716 -1.4008 -0.8457  0.4835
  115MOL0     H15849  10.339  11.167   3.652  1.2678 -0.6855  2.4212
  115MOL0     H15850   9.270  10.544   3.602 -0.2389 -0.0276  0.1253
  115MOL0     H15851   9.041  10.470   3.535 -2.0660  1.0164 -1.0154
  115MOL0     H15852   8.670  10.618   3.233  0.1361  0.6513 -0.1650
  115MOL0     H15853   8.432  10.612   3.184  1.0511 -2.0641 -2.7406
  115MOL0     H15854   8.553  10.266   2.236  0.0106  1.1461 -0.7767
  115MOL0     H15855   8.648  10.335   2.011  2.0251  0.9319 -0.2371
  115MOL0     H15856   9.009  10.121   1.715 -1.9113 -2.2451 -0.7610
  115MOL0     H15857   9.169  10.172   1.544 -1.4166 -2.6745 -0.5374
  115MOL0     H15858   9.294  10.360   1.481  2.2067 -0.7445 -0.6589
  115MOL0     H15859   9.295  10.215   1.379 -1.1386 -0.3840 -1.4114
  115MOL0     H15860   9.334  10.393   1.187  1.3372 -0.3266  0.3727
  115MOL0     H15861   9.466  10.356   1.293 -1.1891 -4.8359 -0.2849
  115MOL0     H15862   9.278  10.578   1.348 -1.2424 -1.8867  1.7984
  115MOL0     H15863   9.447  10.552   1.419 -0.2147 -2.5423  0.1498
  115MOL0     H15864   9.571  10.585   1.210 -0.5001 -1.1299  1.2100
  115MOL0     H15865   9.474  10.726   1.261  1.4269  0.5776 -2.3709
  115MOL0     H15866   9.294  10.643   0.890 -1.5719  0.8687  0.5858
  115MOL0     H15867   8.889  10.440   1.357  0.0133 -0.9748  0.7314
  115MOL0     H15868   8.622  10.325   1.464 -2.3693  1.5557  0.6540
  115MOL0     H15869   8.627  10.435   1.603  1.9379  0.0744  1.8914
  115MOL0     H15870   8.688  10.493   1.444  1.4693 -0.4883 -2.3609
  116MOL0     O15871   9.734   0.820   4.871 -0.2818 -0.2738  0.3481
  116MOL0     C15872   9.668   0.753   4.952 -0.2836 -0.3451  0.2709
  116MOL0     O15873   9.716   0.632   5.015  0.0050 -0.6791 -0.0400
  116MOL0     C15874   9.827   0.584   4.960  0.0242 -0.4297  0.4633
  116MOL0     C15875   9.826   0.510   4.844 -0.2463  0.0556  0.9905
  116MOL0     C15876   9.950   0.460   4.791 -0.0078 -0.2826  0.2746
  116MOL0     C15877  10.076   0.481   4.856 -0.3184  0.1480 -0.1951
  116MOL0     O15878  10.199   0.446   4.810 -0.0987  0.8190 -0.0440
  116MOL0     C15879  10.228   0.459   4.668 -0.6957  0.7135  0.3751
  116MOL0     C15880  10.369   0.408   4.625 -0.8247 -0.9246  0.3679
  116MOL0     C15881  10.477   0.491   4.697 -0.2888 -0.8888  1.4871
  116MOL0     C15882  10.604   0.400   4.688 -1.0246  0.1716 -0.0491
  116MOL0     C15883  10.716   0.437   4.785  0.2009 -0.4137  0.2930
  116MOL0     C15884  10.838   0.343   4.767 -0.2256 -0.3617  0.6590
  116MOL0     C15885  10.962   0.372   4.855 -0.8967 -1.2674 -0.2147
  116MOL0     C15886  11.051   0.496   4.814  0.3286 -0.6301 -1.4127
  116MOL0     N15887  11.171   0.512   4.901  0.4210 -0.4115 -0.4493
  116MOL0     C15888  11.178   0.570   5.023  0.9079 -0.6034  0.5939
  116MOL0     C15889  11.302   0.530   5.075  1.0523  0.2924 -0.0906
  116MOL0     C15890  11.347   0.576   5.211  0.0252 -0.1221 -0.2158
  116MOL0     C15891  11.505   0.592   5.217 -0.6075 -0.7640  0.2183
  116MOL0     C15892  11.563   0.610   5.360  0.5501 -0.8816 -0.4197
  116MOL0     C15893  11.693   0.674   5.368  0.3028  0.0274  0.0991
  116MOL0     O15894  11.742   0.670   5.506 -1.0568  0.6173 -0.8951
  116MOL0     C15895  11.863   0.722   5.540  0.0975  0.2770 -0.3540
  116MOL0     C15896  11.957   0.777   5.454 -0.8099  0.0348 -0.6949
  116MOL0     C15897  12.081   0.825   5.506  0.4051 -0.5790  0.6947
  116MOL0     C15898  12.149   0.920   5.403 -0.0477 -0.1080 -0.0326
  116MOL0     C15899  12.110   0.805   5.642 -0.0338  0.0854  0.2420
  116MOL0     C15900  12.232   0.848   5.706  0.1954  0.6612 -0.4062
  116MOL0     O15901  12.241   0.829   5.834 -0.8710  0.3316 -0.9071
  116MOL0     C15902  12.364   0.836   5.900  0.6289  0.0824 -0.0052
  116MOL0     C15903  12.393   0.950   5.977  0.7304  0.3496  0.2559
  116MOL0     C15904  12.509   0.953   6.052  0.7105 -0.2967 -0.1660
  116MOL0     C15905  12.603   0.843   6.051  0.6335 -0.0914 -0.3859
  116MOL0     O15906  12.727   0.841   6.098 -0.5315 -0.2737 -0.5742
  116MOL0     C15907  12.770   0.936   6.200 -0.1807  0.7827 -0.7333
  116MOL0     C15908  12.693   0.908   6.338 -0.7875  0.5100  0.1356
  116MOL0     C15909  12.715   1.015   6.449 -0.9505 -0.1681  0.1087
  116MOL0     C15910  12.861   1.012   6.497 -0.2450 -0.4846  0.3771
  116MOL0     C15911  12.889   1.122   6.597 -0.1469 -0.2604 -0.4887
  116MOL0     C15912  13.040   1.140   6.625  0.0495 -0.4680 -0.7843
  116MOL0     C15913  13.066   1.248   6.740 -0.1174 -0.9993  0.1869
  116MOL0     C15914  13.216   1.264   6.784  0.1318 -0.3503 -0.3920
  116MOL0    Cl15915  13.312   1.346   6.637 -0.0163 -0.0369 -0.2705
  116MOL0     C15916  12.567   0.734   5.973  0.2476 -0.0382 -1.4704
  116MOL0     C15917  12.443   0.718   5.905  0.0994 -0.0633 -0.1034
  116MOL0     O15918  12.322   0.892   5.633 -0.4130  0.3510  0.1881
  116MOL0     C15919  12.020   0.732   5.718  1.3915  1.0442 -0.3071
  116MOL0     C15920  11.896   0.693   5.666 -0.2810 -0.0912  0.1888
  116MOL0     N15921  11.366   0.445   4.982 -0.4025 -0.5576 -0.6297
  116MOL0     N15922  11.288   0.443   4.880 -0.4381 -0.0409 -0.6078
  116MOL0     C15923  10.071   0.550   4.982 -0.0353  0.3753  0.3917
  116MOL0     C15924   9.947   0.599   5.032 -0.4657  0.6639  0.3422
  116MOL0     C15925   9.531   0.799   4.985 -0.2093 -0.1811 -0.5111
  116MOL0     C15926   9.465   0.742   5.098 -1.2120 -0.0473  0.3282
  116MOL0     C15927   9.357   0.801   5.155  0.5892  1.0889 -0.1236
  116MOL0     C15928   9.287   0.911   5.103 -0.1648 -0.3120 -0.1197
  116MOL0     O15929   9.170   0.954   5.162 -0.0089 -0.3529 -0.4427
  116MOL0     C15930   9.131   0.895   5.290 -0.6083 -0.0365 -0.1457
  116MOL0     C15931   9.025   0.987   5.357 -0.0090  0.5825 -0.1617
  116MOL0     C15932   9.012   0.962   5.506 -0.5421 -0.1988 -0.2733
  116MOL0     C15933   8.899   1.061   5.560  0.1618  0.9433  0.0011
  116MOL0     C15934   8.902   1.073   5.703  0.0507 -0.4391 -0.6811
  116MOL0     C15935   8.914   1.081   5.823  0.8594  0.5747  0.4686
  116MOL0     C15936   9.345   0.966   4.991 -0.9380 -1.2164 -0.7113
  116MOL0     C15937   9.466   0.912   4.929 -0.3710 -0.3490 -0.1369
  116MOL0     C15938   9.503   0.966   4.794  1.5937  0.5796  0.9778
  116MOL0     H15939   9.740   0.483   4.784  0.6377 -0.0662 -0.2583
  116MOL0     H15940   9.937   0.400   4.702 -2.5402 -1.3420  1.2735
  116MOL0     H15941  10.219   0.559   4.626 -0.8793 -0.8586 -3.8003
  116MOL0     H15942  10.168   0.394   4.604  0.2470  0.8880 -0.7141
  116MOL0     H15943  10.378   0.301   4.644  1.1184 -0.3555  3.0519
  116MOL0     H15944  10.375   0.421   4.516  0.3998 -1.8901  0.2962
  116MOL0     H15945  10.510   0.589   4.661  2.8642 -2.9590 -1.9713
  116MOL0     H15946  10.438   0.503   4.799  0.8391 -1.4185  2.0087
  116MOL0     H15947  10.586   0.305   4.741  2.1500  0.8465  2.6050
  116MOL0     H15948  10.639   0.385   4.586 -1.6172 -2.3967  0.0351
  116MOL0     H15949  10.675   0.429   4.886 -2.0916  3.2122 -0.1672
  116MOL0     H15950  10.749   0.539   4.764  0.7407 -0.7262 -0.4517
  116MOL0     H15951  10.797   0.242   4.777 -3.8089  0.7359 -1.0989
  116MOL0     H15952  10.875   0.341   4.664 -0.1243  0.8607  0.6594
  116MOL0     H15953  11.027   0.285   4.868  1.5196  0.2202 -1.5763
  116MOL0     H15954  10.933   0.399   4.957  1.6339  0.0933  0.2197
  116MOL0     H15955  11.081   0.489   4.709  2.6749 -4.1725 -0.6751
  116MOL0     H15956  10.990   0.587   4.813  2.7867  1.1284 -0.3868
  116MOL0     H15957  11.111   0.640   5.073  3.1939  2.0639  0.1899
  116MOL0     H15958  11.315   0.512   5.294  2.1056 -1.8345 -0.6489
  116MOL0     H15959  11.308   0.675   5.237 -0.4937 -0.9532  2.5051
  116MOL0     H15960  11.550   0.501   5.175  0.6949  0.1634 -0.4769
  116MOL0     H15961  11.537   0.678   5.158  0.2390 -0.9998  0.3126
  116MOL0     H15962  11.498   0.682   5.412  0.5189  0.0319 -1.6674
  116MOL0     H15963  11.575   0.509   5.400  3.1173 -1.2806 -2.0160
  116MOL0     H15964  11.766   0.621   5.307  1.8709  0.4433  1.5038
  116MOL0     H15965  11.693   0.778   5.332 -1.4809 -0.5924 -1.8850
  116MOL0     H15966  11.927   0.785   5.349  0.8857 -2.1035 -1.4229
  116MOL0     H15967  12.227   0.869   5.346  2.3919  2.0789  1.1587
  116MOL0     H15968  12.187   1.012   5.448 -2.0710  1.1123 -0.6694
  116MOL0     H15969  12.069   0.960   5.341 -0.3557 -0.2661  0.2599
  116MOL0     H15970  12.320   1.030   5.976  1.6771  1.2514  0.9171
  116MOL0     H15971  12.528   1.042   6.112  1.6335 -2.2704  2.6959
  116MOL0     H15972  12.875   0.913   6.218 -0.4592  0.4899  0.6844
  116MOL0     H15973  12.771   1.040   6.166 -2.5790  0.9603 -0.5002
  116MOL0     H15974  12.585   0.907   6.324 -0.5950  0.9721 -1.6042
  116MOL0     H15975  12.724   0.811   6.377 -2.0458 -1.7832 -4.0516
  116MOL0     H15976  12.648   0.996   6.534 -0.6670 -1.7809  0.0084
  116MOL0     H15977  12.686   1.112   6.408 -2.7524 -0.8838 -0.4198
  116MOL0     H15978  12.938   1.013   6.420  2.1146 -0.9032  2.5859
  116MOL0     H15979  12.877   0.919   6.552  2.3217 -1.7613 -2.2979
  116MOL0     H15980  12.860   1.219   6.555  2.1590  0.3575 -0.7781
  116MOL0     H15981  12.835   1.102   6.690 -0.2899 -2.0841 -0.9210
  116MOL0     H15982  13.075   1.180   6.530  0.1316  3.6289  0.7525
  116MOL0     H15983  13.094   1.048   6.647 -1.0010 -1.0703 -0.6997
  116MOL0     H15984  13.016   1.219   6.832  2.1692 -1.0241  1.5000
  116MOL0     H15985  13.033   1.347   6.709 -1.0573 -1.3298  0.1052
  116MOL0     H15986  13.258   1.169   6.818 -3.1182 -1.2336  1.6085
  116MOL0     H15987  13.225   1.313   6.881  0.7997 -2.2755  0.5569
  116MOL0     H15988  12.629   0.646   5.968 -0.7325 -0.6983 -2.5788
  116MOL0     H15989  12.421   0.634   5.840  0.7030  0.0170 -0.4245
  116MOL0     H15990  12.033   0.707   5.823 -1.4347  1.1692  0.1565
  116MOL0     H15991  11.822   0.631   5.716 -2.4988  0.9659 -1.5994
  116MOL0     H15992  10.164   0.550   5.037 -0.5215 -0.2220  1.2435
  116MOL0     H15993   9.957   0.663   5.119  0.0149  0.0598  0.7399
  116MOL0     H15994   9.512   0.657   5.148 -0.8019  1.6067  2.9447
  116MOL0     H15995   9.322   0.749   5.244 -2.9212  3.1429 -0.1129
  116MOL0     H15996   9.101   0.796   5.255  1.7077 -0.3820 -1.2941
  116MOL0     H15997   9.202   0.886   5.372 -1.0571 -1.3397  0.1314
  116MOL0     H15998   8.928   0.966   5.309 -1.5154  0.8267  2.5918
  116MOL0     H15999   9.053   1.092   5.350  0.4149  0.4783 -0.0316
  116MOL0     H16000   8.994   0.854   5.513  0.9777 -0.5628 -1.5074
  116MOL0     H16001   9.108   0.990   5.550 -1.0143 -0.4413  0.9634
  116MOL0     H16002   8.800   1.029   5.528  0.0834  0.5226  0.6528
  116MOL0     H16003   8.920   1.158   5.515  1.4930  1.3277  1.3279
  116MOL0     H16004   8.911   1.095   5.929 -0.3029  1.5438  0.3261
  116MOL0     H16005   9.296   1.049   4.940 -0.6725 -3.1671 -4.4679
  116MOL0     H16006   9.423   1.033   4.761 -1.1670 -0.6236  4.5392
  116MOL0     H16007   9.583   1.040   4.803 -0.1470  2.6325  0.5514
  116MOL0     H16008   9.522   0.878   4.731  0.5013 -0.6868  2.3406
  117MOL0     O16009   7.584  10.620   8.056  0.5631  0.4613 -0.1372
  117MOL0     C16010   7.653  10.627   7.963 -0.2481  0.5633  0.5428
  117MOL0     O16011   7.740  10.532   7.908  0.0446  0.0222 -0.4325
  117MOL0     C16012   7.737  10.403   7.952  0.8731 -0.3160  0.3518
  117MOL0     C16013   7.713  10.317   7.844  0.2532 -0.7261 -0.4390
  117MOL0     C16014   7.718  10.178   7.861  0.3089 -0.7772  0.6325
  117MOL0     C16015   7.737  10.123   7.989 -0.6113  0.3335 -0.1998
  117MOL0     O16016   7.755   9.985   7.994  0.8904 -0.2806 -0.5237
  117MOL0     C16017   7.846   9.935   8.095 -0.2082 -0.3640 -0.0535
  117MOL0     C16018   7.905   9.810   8.036  0.0699 -0.5364 -0.3089
  117MOL0     C16019   7.973   9.816   7.890 -0.1810 -0.1190 -0.7015
  117MOL0     C16020   8.126   9.858   7.907 -0.1817  0.5505 -0.4190
  117MOL0     C16021   8.206   9.862   7.779 -0.1133  0.3545  0.1346
  117MOL0     C16022   8.183   9.763   7.669  0.2836 -0.4352  0.2518
  117MOL0     C16023   8.304   9.757   7.568 -0.8546 -0.7889  0.3445
  117MOL0     C16024   8.366   9.894   7.547  0.0183  0.1676 -0.5942
  117MOL0     N16025   8.463   9.900   7.438  0.4032 -0.2653 -0.4234
  117MOL0     C16026   8.519  10.015   7.390 -0.9539  0.3750  0.0550
  117MOL0     C16027   8.564   9.989   7.265  0.5288  0.1827  0.3996
  117MOL0     C16028   8.643  10.084   7.170 -0.4194  0.5747 -0.3490
  117MOL0     C16029   8.789  10.121   7.224  0.1727 -0.0498  0.5289
  117MOL0     C16030   8.873   9.993   7.220  0.9435  0.1026 -0.5648
  117MOL0     C16031   9.001  10.017   7.291  0.3590  0.0944  0.2132
  117MOL0     O16032   8.968  10.031   7.430 -0.1725 -0.0986 -0.2596
  117MOL0     C16033   9.072  10.057   7.520 -0.3570  0.8221 -1.3970
  117MOL0     C16034   9.043  10.069   7.654  0.1654  0.2529 -0.3997
  117MOL0     C16035   9.146  10.096   7.754  0.3918  0.6009  0.4762
  117MOL0     C16036   9.095  10.118   7.892  0.3934 -0.7075  0.4666
  117MOL0     C16037   9.282  10.090   7.716  0.0710  0.3768 -1.0526
  117MOL0     C16038   9.397  10.115   7.816 -0.0050  0.5924 -0.8938
  117MOL0     O16039   9.375  10.109   7.953 -0.0149  0.2932  0.7932
  117MOL0     C16040   9.473  10.146   8.041  0.3565  0.5782  0.3502
  117MOL0     C16041   9.456  10.261   8.124 -0.5936  0.5432  0.0180
  117MOL0     C16042   9.550  10.301   8.225  0.2163  0.1949  1.1788
  117MOL0     C16043   9.666  10.224   8.244 -0.6499 -0.1463  0.0552
  117MOL0     O16044   9.771  10.250   8.329 -0.2069 -0.3608  0.6377
  117MOL0     C16045   9.783  10.363   8.424  0.3752  0.0936  0.3120
  117MOL0     C16046   9.935  10.401   8.432  0.2754 -0.1508  0.0579
  117MOL0     C16047   9.965  10.512   8.535 -0.2843  0.0772  0.1325
  117MOL0     C16048  10.118  10.534   8.553  0.4240  0.1909  0.2838
  117MOL0     C16049  10.169  10.664   8.483 -0.1910 -1.0873  0.3582
  117MOL0     C16050  10.185  10.638   8.326  0.0897 -0.5726  0.2945
  117MOL0     C16051  10.258  10.758   8.264  0.2696  0.4515  0.1411
  117MOL0     C16052  10.249  10.758   8.109  0.0647 -0.5915  0.0514
  117MOL0    Cl16053  10.297  10.598   8.040 -0.3609 -0.6196  0.1500
  117MOL0     C16054   9.679  10.102   8.166 -0.7213 -0.2743  0.3405
  117MOL0     C16055   9.578  10.067   8.069  0.3089  0.8488 -0.5511
  117MOL0     O16056   9.509  10.113   7.766  0.3050 -0.5710 -0.2343
  117MOL0     C16057   9.302  10.087   7.574  0.2043 -0.5968 -0.7234
  117MOL0     C16058   9.207  10.075   7.477 -0.0288 -0.8653  0.7550
  117MOL0     N16059   8.545   9.853   7.255 -0.3370  0.4719  0.1106
  117MOL0     N16060   8.466   9.807   7.347  0.8019 -0.3220 -0.2824
  117MOL0     C16061   7.753  10.214   8.104 -0.2935 -0.5694  0.4849
  117MOL0     C16062   7.752  10.356   8.082 -0.8141  0.6152 -1.2042
  117MOL0     C16063   7.634  10.754   7.877  1.1292 -0.2227  0.1836
  117MOL0     C16064   7.628  10.735   7.737 -0.4235  0.6264  0.3630
  117MOL0     C16065   7.609  10.839   7.651  0.1841  1.0047  0.7203
  117MOL0     C16066   7.599  10.971   7.693 -0.2543 -0.0527 -0.8467
  117MOL0     O16067   7.569  11.081   7.616 -0.6507 -0.4024 -0.3742
  117MOL0     C16068   7.515  11.056   7.482 -0.2703 -1.4189 -0.1303
  117MOL0     C16069   7.480  11.203   7.431 -0.4157  1.0245  0.7270
  117MOL0     C16070   7.449  11.194   7.280 -0.1706 -0.6147 -0.3332
  117MOL0     C16071   7.447  11.339   7.218  0.6500 -0.3072 -0.0597
  117MOL0     C16072   7.578  11.389   7.212  0.1987 -0.5469 -0.7460
  117MOL0     C16073   7.696  11.435   7.222 -0.8216  0.4123 -0.2760
  117MOL0     C16074   7.601  10.990   7.831  0.3029 -0.1319  0.6831
  117MOL0     C16075   7.617  10.891   7.924  0.3300  0.3808 -0.3472
  117MOL0     C16076   7.610  10.939   8.068  0.3811  0.8895  0.2429
  117MOL0     H16077   7.707  10.362   7.745 -1.7399 -1.8402 -0.8784
  117MOL0     H16078   7.725  10.114   7.773  4.8577 -1.9627  1.6230
  117MOL0     H16079   7.792   9.905   8.185 -2.9881 -0.2313 -1.5919
  117MOL0     H16080   7.933   9.997   8.121  2.2370 -3.0840 -1.0968
  117MOL0     H16081   7.971   9.765   8.109 -0.7491 -0.7954  0.2864
  117MOL0     H16082   7.829   9.731   8.031 -1.5101  0.8504  0.5264
  117MOL0     H16083   7.963   9.716   7.846  0.8182 -2.0502  2.9960
  117MOL0     H16084   7.925   9.887   7.823 -2.5081  0.5692  1.5186
  117MOL0     H16085   8.130   9.958   7.952 -2.9766 -0.5181  2.5571
  117MOL0     H16086   8.170   9.785   7.975  0.1620  1.6745  0.5889
  117MOL0     H16087   8.313   9.853   7.800  1.4605  1.6360 -5.6116
  117MOL0     H16088   8.185   9.960   7.736 -1.0958 -0.3986 -1.1783
  117MOL0     H16089   8.178   9.665   7.719 -0.1051  0.6528  2.4780
  117MOL0     H16090   8.089   9.781   7.615  0.6536  2.6508  0.4894
  117MOL0     H16091   8.265   9.723   7.472 -0.0623  4.8532 -2.4157
  117MOL0     H16092   8.385   9.693   7.604 -1.6939 -0.8300  2.3071
  117MOL0     H16093   8.289   9.969   7.529 -0.4252 -0.0830  0.2041
  117MOL0     H16094   8.417   9.908   7.643 -2.0065 -5.6313  1.7686
  117MOL0     H16095   8.528  10.108   7.445 -2.8839  0.6393  0.0075
  117MOL0     H16096   8.585  10.173   7.145  0.8056  2.3032  2.5352
  117MOL0     H16097   8.664  10.031   7.076  2.8475 -1.9577  1.5871
  117MOL0     H16098   8.847  10.193   7.165  0.0116 -1.7046 -1.7766
  117MOL0     H16099   8.787  10.151   7.330  2.2687 -0.9414  0.8856
  117MOL0     H16100   8.833   9.900   7.263  1.0343  0.6242  0.7139
  117MOL0     H16101   8.889   9.977   7.113  0.6201 -1.8410 -0.3651
  117MOL0     H16102   9.073   9.939   7.267  1.4439  1.8065 -2.5567
  117MOL0     H16103   9.040  10.110   7.249 -1.7912  0.5817 -0.8557
  117MOL0     H16104   8.937  10.060   7.677  0.6607  0.1895  2.1664
  117MOL0     H16105   9.101  10.022   7.945 -1.8793 -2.0874 -1.5089
  117MOL0     H16106   8.989  10.147   7.884  0.2957 -1.3501 -6.3002
  117MOL0     H16107   9.149  10.201   7.936  1.0921  1.7412 -4.3000
  117MOL0     H16108   9.370  10.325   8.106 -0.9894 -0.5588 -2.4314
  117MOL0     H16109   9.531  10.390   8.284  2.1347  2.2028 -1.0312
  117MOL0     H16110   9.720  10.447   8.393  1.1046  0.4536 -0.2277
  117MOL0     H16111   9.750  10.325   8.521 -0.0103 -2.6947 -0.8258
  117MOL0     H16112   9.979  10.305   8.459 -0.9513 -1.4638 -2.3198
  117MOL0     H16113   9.972  10.428   8.333  1.7367  0.3500  0.7044
  117MOL0     H16114   9.927  10.476   8.630  3.5143 -1.6035  1.1753
  117MOL0     H16115   9.918  10.610   8.519  0.6396  0.2405 -1.9041
  117MOL0     H16116  10.167  10.448   8.506 -0.4204  0.5660 -1.3556
  117MOL0     H16117  10.139  10.535   8.660  0.7270 -0.2114  0.2333
  117MOL0     H16118  10.098  10.745   8.502 -2.6817 -2.1573 -3.2127
  117MOL0     H16119  10.257  10.673   8.547 -1.4893 -1.1385  2.2282
  117MOL0     H16120  10.088  10.617   8.280  0.0099  0.2557  0.0706
  117MOL0     H16121  10.247  10.550   8.303  1.3756 -0.2745  2.3764
  117MOL0     H16122  10.364  10.758   8.290  0.3497 -1.4714 -0.0738
  117MOL0     H16123  10.215  10.850   8.305 -0.9000  1.5639 -3.1908
  117MOL0     H16124  10.307  10.839   8.064  0.5628  0.2734  2.1409
  117MOL0     H16125  10.149  10.782   8.069 -0.1590 -1.6419 -0.0446
  117MOL0     H16126   9.771  10.048   8.186 -0.0081  0.8098  0.0729
  117MOL0     H16127   9.585   9.988   7.995  0.2602 -0.5563  0.8973
  117MOL0     H16128   9.401  10.113   7.536  1.2225  0.0588  2.1222
  117MOL0     H16129   9.235  10.063   7.373  1.3205  0.6442  0.9145
  117MOL0     H16130   7.773  10.180   8.205  0.5723 -2.2099 -0.2024
  117MOL0     H16131   7.777  10.418   8.167 -2.2551 -0.5120  0.0992
  117MOL0     H16132   7.637  10.639   7.686  2.1316  0.7362  0.4832
  117MOL0     H16133   7.618  10.828   7.543  0.9339 -0.4838  0.9086
  117MOL0     H16134   7.587  11.010   7.414 -0.3050 -0.7785 -0.6143
  117MOL0     H16135   7.425  10.994   7.495 -0.7852 -0.1138  3.9402
  117MOL0     H16136   7.561  11.273   7.451 -1.6156  2.5291  0.4852
  117MOL0     H16137   7.386  11.237   7.476 -0.9993  1.5043 -0.8174
  117MOL0     H16138   7.523  11.126   7.236 -2.2844 -3.2925 -0.0355
  117MOL0     H16139   7.353  11.147   7.253 -0.3636 -2.7064  3.2987
  117MOL0     H16140   7.377  11.395   7.281 -0.0920 -0.5072 -0.6795
  117MOL0     H16141   7.402  11.324   7.119 -1.1029 -3.5991  1.0988
  117MOL0     H16142   7.798  11.468   7.221 -1.1463  1.4760  0.2308
  117MOL0     H16143   7.578  11.091   7.861 -2.9857  0.1394 -2.0577
  117MOL0     H16144   7.592  11.046   8.086 -0.0388  1.1721 -1.5561
  117MOL0     H16145   7.525  10.899   8.124 -0.9627  1.5306 -1.2373
  117MOL0     H16146   7.705  10.916   8.116 -0.6476 -1.7077  1.2193
  118MOL0     O16147   4.832   2.570  10.922  0.3425 -0.9731 -0.0227
  118MOL0     C16148   4.787   2.460  10.895  0.1209  0.6763 -0.6564
  118MOL0     O16149   4.857   2.353  10.851 -0.3501  0.7516  0.2479
  118MOL0     C16150   4.990   2.337  10.868  0.2900  0.4333 -0.3645
  118MOL0     C16151   5.079   2.426  10.939 -0.1038 -0.2641 -0.2982
  118MOL0     C16152   5.215   2.400  10.940  0.5758 -0.2042 -0.8262
  118MOL0     C16153   5.273   2.285  10.896 -0.4423 -0.6518  0.6096
  118MOL0     O16154   5.411   2.270  10.893 -0.3114  0.1417 -0.1376
  118MOL0     C16155   5.476   2.142  10.878  0.7623  0.4922  0.1888
  118MOL0     C16156   5.626   2.146  10.932 -0.3598 -0.0658  0.3917
  118MOL0     C16157   5.725   2.224  10.839 -0.3744  0.4123 -0.2714
  118MOL0     C16158   5.769   2.141  10.721  0.7335 -0.3587 -0.2673
  118MOL0     C16159   5.896   2.199  10.650 -0.0191 -0.6357 -0.3272
  118MOL0     C16160   5.844   2.325  10.570 -0.9761 -0.9847  0.7266
  118MOL0     C16161   5.962   2.395  10.496  0.2160 -0.2454 -0.4130
  118MOL0     C16162   6.044   2.467  10.601  0.5122 -0.6288  0.9085
  118MOL0     N16163   6.159   2.546  10.552  0.0501  0.4664  0.2480
  118MOL0     C16164   6.207   2.663  10.608  0.5067 -1.3760 -0.0458
  118MOL0     C16165   6.321   2.697  10.537 -0.4520 -0.3251  0.7923
  118MOL0     C16166   6.419   2.807  10.566  0.3163  0.3319 -0.1828
  118MOL0     C16167   6.392   2.935  10.476 -0.6540  0.7323  0.0082
  118MOL0     C16168   6.266   3.007  10.518  0.6591 -0.3270 -0.3294
  118MOL0     C16169   6.242   3.130  10.424 -0.2726  0.5798 -0.4481
  118MOL0     O16170   6.126   3.211  10.470 -0.6139  0.2303  0.9864
  118MOL0     C16171   6.106   3.333  10.420 -0.2085  0.3719  0.1017
  118MOL0     C16172   5.994   3.397  10.470  0.6905  0.9486 -0.3070
  118MOL0     C16173   5.963   3.522  10.419  0.9167  0.5103  0.0172
  118MOL0     C16174   5.838   3.591  10.475  0.0918 -0.4843  0.0590
  118MOL0     C16175   6.039   3.581  10.314  0.1382 -0.1068 -0.8571
  118MOL0     C16176   6.010   3.714  10.262 -0.1166 -1.2240 -0.0420
  118MOL0     O16177   6.016   3.731  10.131 -0.7190 -0.4153  0.0293
  118MOL0     C16178   5.980   3.848  10.082  0.6263 -0.3556  1.0012
  118MOL0     C16179   6.078   3.912  10.013 -0.3402  0.0518 -1.2574
  118MOL0     C16180   6.051   4.032   9.947 -0.5071  0.5782  0.1540
  118MOL0     C16181   5.924   4.094   9.954 -0.2085  0.0269  0.3313
  118MOL0     O16182   5.885   4.216   9.910 -0.2266 -0.3033 -0.4371
  118MOL0     C16183   5.970   4.328   9.951 -0.4769 -0.2468 -0.1337
  118MOL0     C16184   5.878   4.447   9.979  0.3122 -0.3381  0.2026
  118MOL0     C16185   5.786   4.489   9.861 -0.3167  0.1708  0.1111
  118MOL0     C16186   5.653   4.563   9.903 -0.9127 -0.3344 -0.0092
  118MOL0     C16187   5.676   4.695   9.974  0.1305  0.0630 -0.2003
  118MOL0     C16188   5.752   4.790   9.882  0.4056  0.5498  0.8680
  118MOL0     C16189   5.751   4.936   9.941  0.0692 -0.2157  0.1202
  118MOL0     C16190   5.808   5.058   9.842  0.4069  0.1992  0.0172
  118MOL0    Cl16191   5.981   5.070   9.851 -0.4292  0.3100 -0.3151
  118MOL0     C16192   5.823   4.024  10.026 -0.2132 -0.8297 -0.9866
  118MOL0     C16193   5.846   3.904  10.091  0.0957  1.4615  0.2269
  118MOL0     O16194   5.961   3.800  10.330 -0.0658 -0.0552 -0.7578
  118MOL0     C16195   6.139   3.503  10.254  0.0456  0.4180  0.3389
  118MOL0     C16196   6.171   3.377  10.309 -0.0407 -0.2400  0.0534
  118MOL0     N16197   6.335   2.600  10.439  0.7561  0.3501 -0.4283
  118MOL0     N16198   6.233   2.519  10.444  0.7197 -0.3068 -0.3299
  118MOL0     C16199   5.184   2.187  10.845 -0.1150  0.8305  0.4647
  118MOL0     C16200   5.049   2.208  10.833  0.1387 -0.2527 -0.5202
  118MOL0     C16201   4.637   2.450  10.894 -1.0557  0.3840  0.4248
  118MOL0     C16202   4.571   2.566  10.849 -0.3433 -0.3715 -0.3181
  118MOL0     C16203   4.429   2.583  10.855  0.4496 -0.2585  0.5303
  118MOL0     C16204   4.351   2.471  10.880 -0.6890  0.6534 -0.3900
  118MOL0     O16205   4.213   2.491  10.887 -0.1756  0.0052  0.4303
  118MOL0     C16206   4.122   2.376  10.885 -0.7680  0.1416  0.9848
  118MOL0     C16207   3.978   2.419  10.874 -0.0459  0.0812  0.9433
  118MOL0     C16208   3.951   2.561  10.933  0.0517  0.4139 -1.2221
  118MOL0     C16209   3.792   2.589  10.904  0.4721 -0.5159 -0.0766
  118MOL0     C16210   3.750   2.719  10.964 -0.2174 -0.2477 -0.4968
  118MOL0     C16211   3.750   2.830  11.009  0.4595 -1.1070  1.1499
  118MOL0     C16212   4.413   2.355  10.911  0.3386  0.2378  0.2379
  118MOL0     C16213   4.552   2.347  10.921 -0.5278  0.8806 -0.3688
  118MOL0     C16214   4.609   2.217  10.979  0.1216 -1.2363 -0.1428
  118MOL0     H16215   5.046   2.516  10.989  1.4112 -0.2918  0.8177
  118MOL0     H16216   5.286   2.474  10.977 -1.4501 -0.0256  3.3257
  118MOL0     H16217   5.501   2.108  10.777  1.2467 -2.9896  1.3335
  118MOL0     H16218   5.419   2.076  10.944  0.1609  0.6999 -0.1221
  118MOL0     H16219   5.625   2.206  11.023  1.8425 -1.3818  1.3510
  118MOL0     H16220   5.655   2.044  10.957 -2.8573 -0.7412  0.8647
  118MOL0     H16221   5.673   2.313  10.804 -0.1864  1.4176  1.8722
  118MOL0     H16222   5.820   2.249  10.887  0.0580  3.6992 -2.4772
  118MOL0     H16223   5.794   2.041  10.757  1.4541  0.0276  0.3343
  118MOL0     H16224   5.683   2.125  10.654 -1.0423 -1.3847  2.1156
  118MOL0     H16225   5.918   2.131  10.568 -1.2515 -0.4102 -0.8694
  118MOL0     H16226   5.976   2.222  10.720  1.1245  1.4817 -2.1908
  118MOL0     H16227   5.779   2.298  10.486  0.2595  2.8264 -1.6660
  118MOL0     H16228   5.789   2.388  10.640  0.8100 -0.6329  1.8579
  118MOL0     H16229   5.931   2.462  10.415  0.7254 -1.2023 -1.4245
  118MOL0     H16230   6.029   2.325  10.445  0.1767  1.5977 -3.2174
  118MOL0     H16231   5.981   2.543  10.648  1.7679  0.4603  0.8901
  118MOL0     H16232   6.085   2.396  10.674  1.4123 -0.4015  0.6419
  118MOL0     H16233   6.178   2.710  10.701 -0.8743 -1.2632 -0.5111
  118MOL0     H16234   6.513   2.761  10.533 -0.2444  0.6589 -2.3621
  118MOL0     H16235   6.412   2.823  10.675  0.9027 -1.0152  0.0722
  118MOL0     H16236   6.479   3.000  10.490 -0.3030  0.5535 -1.2596
  118MOL0     H16237   6.390   2.904  10.371 -5.4951 -0.6784  0.2891
  118MOL0     H16238   6.187   2.931  10.520 -0.2520  0.6045 -0.3106
  118MOL0     H16239   6.277   3.055  10.616  0.3670 -1.7948  0.4605
  118MOL0     H16240   6.325   3.200  10.417 -2.4761  3.1955 -3.0042
  118MOL0     H16241   6.220   3.106  10.320 -3.1167  1.7501 -0.2275
  118MOL0     H16242   5.937   3.347  10.547  1.4383  0.1081 -0.2888
  118MOL0     H16243   5.794   3.534  10.557  1.6521  1.9548  2.7823
  118MOL0     H16244   5.767   3.612  10.395  0.9629 -1.6802 -1.0832
  118MOL0     H16245   5.873   3.680  10.529  1.7456 -0.0394 -1.6186
  118MOL0     H16246   6.178   3.870  10.020  0.5455  2.0157 -1.5622
  118MOL0     H16247   6.122   4.082   9.882 -0.6023  0.6849  0.1307
  118MOL0     H16248   6.023   4.302  10.043 -0.9779 -2.4684 -0.4203
  118MOL0     H16249   6.053   4.345   9.882  2.1529 -0.3038  2.7993
  118MOL0     H16250   5.822   4.417  10.069  0.3617 -0.0610  0.3249
  118MOL0     H16251   5.951   4.524  10.002  2.7700 -2.2267 -0.8017
  118MOL0     H16252   5.767   4.398   9.805  4.9608 -3.0718  2.7649
  118MOL0     H16253   5.845   4.553   9.795 -2.3482  0.3755 -1.5925
  118MOL0     H16254   5.597   4.501   9.975 -1.0716  1.4574  1.4663
  118MOL0     H16255   5.582   4.574   9.820  1.0420  0.0601 -1.7079
  118MOL0     H16256   5.576   4.734   9.997 -0.7908 -0.5853 -2.8597
  118MOL0     H16257   5.722   4.675  10.072 -1.6114 -0.1259  0.6185
  118MOL0     H16258   5.711   4.785   9.781  2.2344  0.7170  0.0755
  118MOL0     H16259   5.852   4.749   9.867 -0.4160 -1.8313  1.4522
  118MOL0     H16260   5.827   4.930  10.019  0.7382 -0.5242 -0.5417
  118MOL0     H16261   5.660   4.965   9.994  0.5021  1.9098 -0.1997
  118MOL0     H16262   5.757   5.151   9.871 -0.5272 -0.5529  0.8369
  118MOL0     H16263   5.792   5.049   9.735  0.9210  1.4313 -0.1798
  118MOL0     H16264   5.734   4.080  10.053  0.9811  1.4656 -1.5125
  118MOL0     H16265   5.767   3.861  10.151  0.9351 -0.3442  0.1347
  118MOL0     H16266   6.186   3.547  10.167 -1.3201 -0.5337 -0.9551
  118MOL0     H16267   6.260   3.328  10.271 -0.7715  1.1454 -3.9663
  118MOL0     H16268   5.227   2.096  10.806  1.5877  2.1870 -0.9915
  118MOL0     H16269   4.987   2.136  10.781 -0.2573 -1.2523  1.2483
  118MOL0     H16270   4.616   2.657  10.810  2.6151 -0.2809  2.8773
  118MOL0     H16271   4.379   2.671  10.818  1.7263 -0.1815 -1.1285
  118MOL0     H16272   4.149   2.318  10.796 -0.3608 -0.7957  1.7042
  118MOL0     H16273   4.130   2.312  10.973 -2.6753  1.3059  2.0699
  118MOL0     H16274   3.911   2.339  10.908  0.8668 -2.2818 -2.3060
  118MOL0     H16275   3.950   2.437  10.770  0.6086  1.0683  0.9284
  118MOL0     H16276   3.976   2.559  11.040  2.1196 -2.3633 -1.6548
  118MOL0     H16277   4.004   2.647  10.893 -1.5450  1.9290 -0.2480
  118MOL0     H16278   3.738   2.513  10.962 -0.7535 -0.8184 -1.5458
  118MOL0     H16279   3.767   2.575  10.798 -2.4503 -2.4806  0.7340
  118MOL0     H16280   3.738   2.931  11.042 -0.3872 -0.8881  0.2072
  118MOL0     H16281   4.361   2.268  10.951  1.4166  0.0406  1.2627
  118MOL0     H16282   4.537   2.136  10.991 -0.1575 -1.2771 -1.8869
  118MOL0     H16283   4.680   2.169  10.911  0.4374 -2.3885  0.9670
  118MOL0     H16284   4.669   2.253  11.063  2.3081  5.5923 -3.8308
  119MOL0     O16285   9.783   4.915   4.908 -0.3781 -0.2466 -0.2601
  119MOL0     C16286   9.853   4.988   4.847  0.6434 -0.5560 -0.7372
  119MOL0     O16287   9.907   5.105   4.898  0.0467  0.4171  0.3951
  119MOL0     C16288   9.868   5.162   5.016  0.2999 -0.0845  0.1453
  119MOL0     C16289   9.951   5.259   5.067 -0.2240 -0.0250  1.5301
  119MOL0     C16290   9.927   5.341   5.172  0.4757  0.0016  0.1605
  119MOL0     C16291   9.815   5.312   5.254 -0.6484  0.2588 -0.1167
  119MOL0     O16292   9.800   5.396   5.363 -0.2936  0.2641 -0.0549
  119MOL0     C16293   9.721   5.350   5.476 -0.0032 -0.2521  0.1925
  119MOL0     C16294   9.739   5.445   5.592 -0.5064 -0.8820  0.0692
  119MOL0     C16295   9.650   5.569   5.603 -0.9463 -0.2583  0.9672
  119MOL0     C16296   9.502   5.545   5.563  0.5699  0.2040  0.1387
  119MOL0     C16297   9.420   5.459   5.670 -0.1633  0.7298  0.0393
  119MOL0     C16298   9.405   5.529   5.806 -0.8030  0.3560  0.3646
  119MOL0     C16299   9.310   5.455   5.896  0.0837 -0.7927 -0.2729
  119MOL0     C16300   9.395   5.336   5.947  0.6050 -0.2679 -1.3682
  119MOL0     N16301   9.317   5.255   6.044  0.1374  0.8873 -0.3385
  119MOL0     C16302   9.200   5.287   6.105  0.5404  1.1092  0.5040
  119MOL0     C16303   9.144   5.172   6.153  0.7372 -0.5756  0.6069
  119MOL0     C16304   9.022   5.170   6.238 -0.1524  0.4751  0.3067
  119MOL0     C16305   8.956   5.034   6.252 -0.5689  0.5398  0.5490
  119MOL0     C16306   8.850   5.034   6.352 -0.4368  0.7464 -0.2797
  119MOL0     C16307   8.751   4.921   6.319 -0.6918  0.1243 -0.4222
  119MOL0     O16308   8.660   4.918   6.431 -0.0810 -0.0390  0.3092
  119MOL0     C16309   8.591   4.806   6.440  0.8159  0.8792 -0.7466
  119MOL0     C16310   8.563   4.707   6.339 -0.0720  0.1020 -0.1415
  119MOL0     C16311   8.487   4.587   6.363  1.0559  0.3059 -0.6008
  119MOL0     C16312   8.467   4.505   6.243  0.6269  0.3126  0.6146
  119MOL0     C16313   8.444   4.561   6.499  0.2865 -0.2939 -0.2342
  119MOL0     C16314   8.386   4.429   6.542 -0.4686  0.1065  0.2381
  119MOL0     O16315   8.335   4.432   6.669  0.6610 -0.0976 -0.1888
  119MOL0     C16316   8.247   4.341   6.716  0.5792 -0.4116  0.1956
  119MOL0     C16317   8.171   4.395   6.825  0.1161  0.8268  0.2615
  119MOL0     C16318   8.067   4.309   6.888 -0.5503  0.9509  1.1905
  119MOL0     C16319   8.050   4.181   6.841  0.4501 -0.1985  0.3747
  119MOL0     O16320   7.949   4.111   6.902  0.2096  0.0531 -0.7345
  119MOL0     C16321   7.956   3.968   6.915 -0.1604 -0.8859 -0.1120
  119MOL0     C16322   7.830   3.917   6.987 -0.4440 -0.0143  0.2854
  119MOL0     C16323   7.812   3.976   7.135 -0.3313  0.7052 -0.1552
  119MOL0     C16324   7.703   3.898   7.213 -0.4755  0.7501 -0.2759
  119MOL0     C16325   7.676   3.958   7.355 -0.0043 -0.0396 -0.2561
  119MOL0     C16326   7.804   3.962   7.445  0.3858 -0.1174 -0.6328
  119MOL0     C16327   7.783   3.997   7.596  0.0526 -0.6006  0.2585
  119MOL0     C16328   7.910   3.965   7.666  0.3377  0.6975 -0.1593
  119MOL0    Cl16329   7.931   3.788   7.677 -0.1817  0.1589 -0.0750
  119MOL0     C16330   8.136   4.129   6.742 -0.4250 -0.5433 -0.8664
  119MOL0     C16331   8.231   4.208   6.681 -0.5532  0.0169 -0.3155
  119MOL0     O16332   8.402   4.338   6.465  0.4235  0.2152  0.1533
  119MOL0     C16333   8.462   4.669   6.600 -0.2032 -0.0455  0.8363
  119MOL0     C16334   8.528   4.785   6.558  0.2820  0.0738 -0.1273
  119MOL0     N16335   9.239   5.075   6.131 -0.9860 -0.6581 -0.0059
  119MOL0     N16336   9.339   5.124   6.068 -0.2586  0.4639  0.4812
  119MOL0     C16337   9.732   5.203   5.217 -0.3422  0.8453 -0.5513
  119MOL0     C16338   9.770   5.123   5.110 -0.0667  0.2225  0.5374
  119MOL0     C16339   9.878   4.946   4.709  0.0927  0.5493  0.7257
  119MOL0     C16340   9.830   4.820   4.668  0.4982  0.5505 -0.0807
  119MOL0     C16341   9.861   4.764   4.545  0.6162 -0.0715  0.7768
  119MOL0     C16342   9.933   4.835   4.454 -0.2464  0.4842  0.6167
  119MOL0     O16343   9.960   4.781   4.333 -0.0982  0.4181 -0.1925
  119MOL0     C16344  10.099   4.740   4.325 -1.3879  0.7361  0.4397
  119MOL0     C16345  10.179   4.837   4.242 -0.3224  0.0985 -0.0395
  119MOL0     C16346  10.326   4.799   4.194 -0.3475  0.5275  0.2947
  119MOL0     C16347  10.419   4.755   4.298  0.3983  0.1512  0.1222
  119MOL0     C16348  10.528   4.667   4.245 -1.1342  0.2145 -1.0106
  119MOL0     C16349  10.626   4.602   4.222 -0.2308 -0.5915  0.0034
  119MOL0     C16350   9.985   4.961   4.486  0.6584  0.5904  0.1300
  119MOL0     C16351   9.963   5.017   4.614 -0.3895  1.0512  0.1755
  119MOL0     C16352  10.005   5.161   4.632  0.8309 -0.5886 -0.0633
  119MOL0     H16353  10.035   5.278   5.001 -2.2547 -1.2729 -1.6814
  119MOL0     H16354  10.004   5.412   5.201  0.5898 -0.1874  0.3148
  119MOL0     H16355   9.769   5.257   5.510 -0.2666 -0.9126 -1.1511
  119MOL0     H16356   9.615   5.333   5.456 -0.5926  2.5757  0.6199
  119MOL0     H16357   9.719   5.391   5.685  2.0970 -1.4896  0.3729
  119MOL0     H16358   9.841   5.483   5.606 -1.4811  1.5136  1.1911
  119MOL0     H16359   9.660   5.599   5.707  0.6607 -1.2086  1.1228
  119MOL0     H16360   9.692   5.652   5.545 -4.1349  0.8372  0.0134
  119MOL0     H16361   9.449   5.640   5.568  0.2932  0.0310  0.5924
  119MOL0     H16362   9.491   5.497   5.465 -0.5922  0.6462  0.0400
  119MOL0     H16363   9.473   5.363   5.675  0.1844  0.9850  2.8974
  119MOL0     H16364   9.323   5.425   5.633  1.0586 -1.4408 -1.4946
  119MOL0     H16365   9.503   5.533   5.855 -1.7633  5.0171  2.4670
  119MOL0     H16366   9.387   5.635   5.785 -2.2030 -0.0617 -0.6535
  119MOL0     H16367   9.216   5.427   5.846 -0.6472 -1.3283  1.3385
  119MOL0     H16368   9.279   5.513   5.983 -1.2882 -0.4188 -0.9659
  119MOL0     H16369   9.415   5.258   5.873 -1.2044 -2.1959  0.0330
  119MOL0     H16370   9.489   5.360   5.998 -0.1909 -2.7495  1.5428
  119MOL0     H16371   9.153   5.382   6.130 -0.1260  0.7792  0.5490
  119MOL0     H16372   8.943   5.239   6.205  0.4757  1.1638  0.2279
  119MOL0     H16373   9.050   5.201   6.340  3.2619 -0.2399 -0.3205
  119MOL0     H16374   8.920   5.012   6.151  3.7666 -2.2669 -0.6757
  119MOL0     H16375   9.028   4.959   6.286 -2.7330 -2.3688 -0.8200
  119MOL0     H16376   8.881   5.002   6.452 -0.7634 -1.3743 -0.8076
  119MOL0     H16377   8.804   5.133   6.348 -1.6083  0.1791 -2.9123
  119MOL0     H16378   8.706   4.925   6.219 -0.6758 -2.8647 -0.6267
  119MOL0     H16379   8.816   4.834   6.316  2.2600  2.1836 -0.4437
  119MOL0     H16380   8.585   4.729   6.235  1.6144 -0.7751 -0.0015
  119MOL0     H16381   8.365   4.465   6.243  1.3365 -1.5754  0.0389
  119MOL0     H16382   8.539   4.424   6.232  0.5236  0.2682  0.2449
  119MOL0     H16383   8.483   4.560   6.150 -0.0003  1.3320  1.0935
  119MOL0     H16384   8.181   4.500   6.850  0.3563  0.9371 -0.2831
  119MOL0     H16385   8.009   4.330   6.978 -1.3669 -0.9404  1.1725
  119MOL0     H16386   7.958   3.917   6.818  3.3498  1.9765 -1.8365
  119MOL0     H16387   8.041   3.938   6.977 -0.6666  0.1817  1.1445
  119MOL0     H16388   7.744   3.941   6.922  0.1768 -2.2173 -1.4854
  119MOL0     H16389   7.831   3.808   6.996 -0.4218  0.0862  1.7512
  119MOL0     H16390   7.782   4.081   7.141  0.2995  0.8287  4.2180
  119MOL0     H16391   7.910   3.967   7.183 -1.3627 -0.0293  1.9384
  119MOL0     H16392   7.748   3.801   7.235 -1.6415 -0.1248 -1.5719
  119MOL0     H16393   7.620   3.891   7.141  0.2415 -0.6059 -1.0120
  119MOL0     H16394   7.647   4.063   7.348  2.3267  0.6646 -0.0138
  119MOL0     H16395   7.596   3.903   7.407 -1.9928  0.6369 -2.4274
  119MOL0     H16396   7.866   4.037   7.395  1.6161 -0.3398  0.4989
  119MOL0     H16397   7.853   3.865   7.429 -0.2260 -0.6528  0.5810
  119MOL0     H16398   7.699   3.932   7.623 -0.8039  0.0849 -0.7000
  119MOL0     H16399   7.750   4.100   7.612  0.7367  0.1229 -2.4548
  119MOL0     H16400   7.908   4.000   7.770  1.1783 -3.3378  1.3848
  119MOL0     H16401   7.997   4.005   7.613  0.4863 -0.9195 -1.2053
  119MOL0     H16402   8.132   4.023   6.720 -1.5590 -0.2168 -2.3753
  119MOL0     H16403   8.301   4.162   6.612  0.4913 -1.6569  1.7586
  119MOL0     H16404   8.426   4.663   6.702  0.5427 -0.2059  1.1002
  119MOL0     H16405   8.550   4.844   6.646  0.4693  1.2987 -0.9621
  119MOL0     H16406   9.651   5.161   5.275  0.9795 -0.3172  0.5261
  119MOL0     H16407   9.698   5.043   5.093  2.3988 -2.0265  0.0091
  119MOL0     H16408   9.752   4.778   4.730 -1.2495  5.0208  1.1269
  119MOL0     H16409   9.827   4.663   4.528 -0.3630  0.4407 -0.4991
  119MOL0     H16410  10.146   4.726   4.423  0.9656 -3.8820 -1.0609
  119MOL0     H16411  10.113   4.642   4.278 -0.5742 -0.2079  2.5173
  119MOL0     H16412  10.176   4.935   4.289  0.8964 -0.1907  0.6737
  119MOL0     H16413  10.117   4.849   4.153 -3.7000  3.6481  2.4645
  119MOL0     H16414  10.319   4.723   4.116 -2.4231  0.7861  0.1850
  119MOL0     H16415  10.362   4.881   4.132  0.7818  1.3839  2.0072
  119MOL0     H16416  10.379   4.725   4.395  2.6427  1.1226  1.4294
  119MOL0     H16417  10.478   4.844   4.321  2.4879 -0.5411 -2.1902
  119MOL0     H16418  10.711   4.542   4.195  1.1686  2.0272 -1.8623
  119MOL0     H16419  10.044   5.012   4.410  0.2581  2.1971  0.8562
  119MOL0     H16420  10.074   5.197   4.555  2.5571 -1.8825  0.8054
  119MOL0     H16421   9.917   5.225   4.638  1.1518 -0.2956  2.3014
  119MOL0     H16422  10.058   5.180   4.725  0.3294  0.0172  0.1047
  120MOL0     O16423  10.691   9.441   8.633 -0.2114  0.0303 -0.0652
  120MOL0     C16424  10.742   9.357   8.715  0.5568  0.1618 -0.2815
  120MOL0     O16425  10.718   9.217   8.719 -0.6639 -0.1417  0.1677
  120MOL0     C16426  10.587   9.174   8.700 -0.1992 -0.1974  0.4566
  120MOL0     C16427  10.467   9.249   8.702 -0.3569 -0.3343 -0.2881
  120MOL0     C16428  10.345   9.189   8.672 -0.8041  1.5809 -0.1560
  120MOL0     C16429  10.333   9.050   8.659  0.1118  0.8439 -0.3287
  120MOL0     O16430  10.208   9.009   8.626  0.5760  0.9407  0.3946
  120MOL0     C16431  10.184   8.880   8.572 -1.6964  0.3243 -0.2844
  120MOL0     C16432  10.046   8.883   8.526 -0.0164  1.6225  0.0511
  120MOL0     C16433   9.977   8.740   8.535  0.1220 -0.0883 -0.3437
  120MOL0     C16434   9.826   8.781   8.533  0.3244  0.6873  0.6858
  120MOL0     C16435   9.743   8.652   8.525  0.2811 -0.1177 -0.9560
  120MOL0     C16436   9.766   8.551   8.405  0.5774 -0.2389 -0.5047
  120MOL0     C16437   9.690   8.586   8.284  0.0751 -1.0025 -0.2753
  120MOL0     C16438   9.739   8.513   8.167  0.0734  0.4326  0.0477
  120MOL0     N16439   9.700   8.554   8.028 -0.2709 -0.1222 -0.3878
  120MOL0     C16440   9.568   8.582   8.009 -0.3967  0.1122  0.2484
  120MOL0     C16441   9.566   8.651   7.894 -0.1877 -0.8076  0.3866
  120MOL0     C16442   9.439   8.706   7.827 -0.3139 -0.5920 -0.3912
  120MOL0     C16443   9.370   8.617   7.731  0.0581  0.8619  1.4038
  120MOL0     C16444   9.418   8.661   7.589 -0.7150 -0.4324  0.2226
  120MOL0     C16445   9.379   8.561   7.485  0.4346 -0.5391 -0.3362
  120MOL0     O16446   9.453   8.589   7.368 -0.2371 -0.1224 -0.1539
  120MOL0     C16447   9.407   8.660   7.261  0.1847 -0.8019  0.6040
  120MOL0     C16448   9.320   8.774   7.275  0.7290 -0.1761  0.7317
  120MOL0     C16449   9.286   8.857   7.163 -0.1470 -0.1771  0.1129
  120MOL0     C16450   9.182   8.964   7.194  0.6460 -0.4197  0.0091
  120MOL0     C16451   9.339   8.827   7.033  0.7081  0.0784 -0.4212
  120MOL0     C16452   9.319   8.924   6.919 -0.0734  0.9081  0.1000
  120MOL0     O16453   9.317   8.865   6.793  0.5853 -0.3122  1.1022
  120MOL0     C16454   9.318   8.938   6.679  0.2775 -0.7042 -0.8404
  120MOL0     C16455   9.372   9.067   6.664  0.3085 -0.0626 -0.0822
  120MOL0     C16456   9.352   9.134   6.551 -0.8914  0.2818  1.3795
  120MOL0     C16457   9.295   9.071   6.433 -0.3250  0.7031  0.0340
  120MOL0     O16458   9.253   9.143   6.326  0.5647 -0.1651  1.0378
  120MOL0     C16459   9.190   9.085   6.211  0.2180 -0.4199 -0.3824
  120MOL0     C16460   9.122   9.193   6.133 -0.3802  0.3466 -0.0698
  120MOL0     C16461   9.220   9.303   6.074 -0.5090  0.6481  0.0191
  120MOL0     C16462   9.281   9.270   5.933 -0.4753  0.0735 -0.2013
  120MOL0     C16463   9.406   9.349   5.886  0.8847  0.3648  0.1549
  120MOL0     C16464   9.533   9.305   5.960 -0.2724  0.2434 -0.2299
  120MOL0     C16465   9.657   9.358   5.897  1.2068 -0.0139 -0.4076
  120MOL0     C16466   9.789   9.342   5.982 -0.2663  0.2195 -0.4531
  120MOL0    Cl16467   9.816   9.170   6.012 -0.2416  0.1356  0.0034
  120MOL0     C16468   9.244   8.936   6.450 -0.1582  0.0406  0.1532
  120MOL0     C16469   9.260   8.872   6.569 -0.1457  0.6049  0.0105
  120MOL0     O16470   9.316   9.041   6.943  0.5656  0.1940  0.3219
  120MOL0     C16471   9.425   8.724   7.021 -0.5433 -0.0814 -0.1613
  120MOL0     C16472   9.450   8.628   7.127 -0.6390  0.0741  0.1731
  120MOL0     N16473   9.691   8.656   7.844 -0.2661 -0.8051 -0.2250
  120MOL0     N16474   9.780   8.599   7.931  0.4502  0.0025  0.7560
  120MOL0     C16475  10.449   8.972   8.653  0.5986 -0.4951 -0.1314
  120MOL0     C16476  10.572   9.037   8.667 -0.0939 -0.8730  0.0118
  120MOL0     C16477  10.865   9.400   8.790  0.3549 -0.4713  0.1694
  120MOL0     C16478  10.925   9.307   8.874  0.3610  0.5691  1.3305
  120MOL0     C16479  11.052   9.331   8.926  0.5353  0.8855 -1.1897
  120MOL0     C16480  11.123   9.445   8.908  0.3004 -0.3208 -0.5868
  120MOL0     O16481  11.244   9.486   8.973 -0.2296  0.4034  0.2653
  120MOL0     C16482  11.336   9.376   9.003  0.5096 -0.1605 -0.1845
  120MOL0     C16483  11.377   9.395   9.148  0.2212  0.1667 -0.6509
  120MOL0     C16484  11.489   9.293   9.179  0.7349  1.5124  0.0953
  120MOL0     C16485  11.502   9.280   9.334 -0.7151  0.3408  0.2199
  120MOL0     C16486  11.616   9.192   9.369 -0.9173  0.1143  0.1050
  120MOL0     C16487  11.689   9.100   9.404 -0.1005 -0.5934 -0.4980
  120MOL0     C16488  11.063   9.542   8.834 -0.1690  0.2597  0.8380
  120MOL0     C16489  10.935   9.526   8.781  0.2504 -0.0286  0.8993
  120MOL0     C16490  10.878   9.646   8.713  0.6488 -0.1528 -0.3272
  120MOL0     H16491  10.467   9.357   8.700  1.2188 -0.3242 -1.8582
  120MOL0     H16492  10.254   9.246   8.690 -1.1152  1.5389 -1.4780
  120MOL0     H16493  10.209   8.802   8.644  2.5305 -0.1797 -2.0354
  120MOL0     H16494  10.235   8.861   8.477 -0.2889 -2.1744  0.8675
  120MOL0     H16495   9.992   8.949   8.595  0.7238  1.0083  1.2628
  120MOL0     H16496  10.039   8.926   8.426  1.1203  1.3126 -0.1754
  120MOL0     H16497  10.006   8.703   8.436  0.6151  1.0344 -0.6427
  120MOL0     H16498  10.011   8.676   8.616 -0.5861  0.1008  0.1068
  120MOL0     H16499   9.798   8.834   8.625  2.9336 -1.4962  2.9432
  120MOL0     H16500   9.796   8.845   8.450 -1.2608  0.0297  0.7136
  120MOL0     H16501   9.636   8.675   8.522  0.3856  0.3827 -0.9849
  120MOL0     H16502   9.746   8.604   8.623 -1.1933 -2.4138 -1.9383
  120MOL0     H16503   9.873   8.548   8.381  0.3519 -2.1801 -1.5283
  120MOL0     H16504   9.738   8.448   8.430 -0.2575  0.0859 -0.0425
  120MOL0     H16505   9.708   8.690   8.257 -0.8782 -0.4488  1.1482
  120MOL0     H16506   9.584   8.569   8.300 -0.3621  1.6397  0.1332
  120MOL0     H16507   9.848   8.525   8.160  0.1792 -0.9517 -1.1840
  120MOL0     H16508   9.723   8.405   8.174  1.6956 -0.0704 -2.5724
  120MOL0     H16509   9.492   8.553   8.080  1.6738  0.0049  2.5668
  120MOL0     H16510   9.471   8.793   7.769 -1.2422 -0.5492 -0.8624
  120MOL0     H16511   9.363   8.748   7.893  2.0973  4.8823 -0.5018
  120MOL0     H16512   9.400   8.514   7.751  3.4592  1.5582  0.6199
  120MOL0     H16513   9.262   8.635   7.733  0.2790  2.3262  1.3937
  120MOL0     H16514   9.391   8.761   7.555  0.9263 -0.5486 -1.6229
  120MOL0     H16515   9.527   8.651   7.602 -0.4175 -0.0896 -1.6943
  120MOL0     H16516   9.412   8.465   7.527  1.2499  1.0512  2.9694
  120MOL0     H16517   9.273   8.561   7.457  0.3403  0.1426  0.0146
  120MOL0     H16518   9.290   8.805   7.375 -0.8343  2.0864 -0.3451
  120MOL0     H16519   9.120   8.939   7.280 -1.3861  1.8473 -0.6756
  120MOL0     H16520   9.113   8.973   7.109 -1.5873 -1.4623  1.6135
  120MOL0     H16521   9.219   9.063   7.222 -1.6497  0.5263 -0.1133
  120MOL0     H16522   9.413   9.128   6.744 -0.2109  1.7806 -1.1702
  120MOL0     H16523   9.397   9.232   6.554  0.5155 -0.2352 -0.6540
  120MOL0     H16524   9.255   9.031   6.142 -2.1201 -1.1683 -2.1649
  120MOL0     H16525   9.104   9.030   6.251 -0.7262  1.7927  0.7689
  120MOL0     H16526   9.071   9.143   6.050  2.5303 -2.3824 -0.3854
  120MOL0     H16527   9.050   9.237   6.203  0.1019  1.5158 -0.2824
  120MOL0     H16528   9.300   9.314   6.148 -0.5129 -0.3550  0.1887
  120MOL0     H16529   9.170   9.399   6.058 -1.4684  0.0159 -0.9270
  120MOL0     H16530   9.199   9.301   5.868  0.6554 -0.2717 -1.8258
  120MOL0     H16531   9.305   9.163   5.926 -4.0128 -1.0466  1.8564
  120MOL0     H16532   9.415   9.341   5.777 -1.3815 -1.7130  0.0501
  120MOL0     H16533   9.385   9.454   5.910  2.3022  0.5377  0.7569
  120MOL0     H16534   9.543   9.196   5.954  0.3703  0.0697  2.6218
  120MOL0     H16535   9.527   9.327   6.067 -3.7133 -1.0063 -0.0289
  120MOL0     H16536   9.637   9.466   5.896 -0.5523 -0.2956  0.8640
  120MOL0     H16537   9.671   9.322   5.795  0.6364 -0.0824 -0.4634
  120MOL0     H16538   9.780   9.388   6.081  2.6083 -0.8181  0.4032
  120MOL0     H16539   9.873   9.397   5.938  0.6863 -0.4355  0.4840
  120MOL0     H16540   9.196   8.882   6.369  2.6717 -0.9776 -0.9831
  120MOL0     H16541   9.217   8.775   6.588  2.2872 -0.0847  2.7244
  120MOL0     H16542   9.468   8.708   6.923  1.6872 -3.5856  1.1823
  120MOL0     H16543   9.518   8.544   7.128 -1.2870 -0.4669  1.0908
  120MOL0     H16544  10.437   8.867   8.631 -2.3457 -0.2447 -0.1668
  120MOL0     H16545  10.656   8.969   8.656 -1.7821 -2.7253 -2.8290
  120MOL0     H16546  10.879   9.211   8.897 -1.5429  1.5227  1.7502
  120MOL0     H16547  11.091   9.260   8.999 -2.3461 -0.8204 -1.1517
  120MOL0     H16548  11.306   9.274   8.978  0.0549  0.3608 -1.8650
  120MOL0     H16549  11.430   9.394   8.951  2.4576 -1.7778  2.4870
  120MOL0     H16550  11.299   9.389   9.224 -0.1289  4.5613 -0.4193
  120MOL0     H16551  11.424   9.494   9.147 -2.1553  1.3691 -0.9925
  120MOL0     H16552  11.462   9.192   9.147 -0.3237  1.9279 -0.4013
  120MOL0     H16553  11.588   9.321   9.141  0.5925 -0.3105 -1.8094
  120MOL0     H16554  11.414   9.231   9.376  1.4745 -3.2533  1.1091
  120MOL0     H16555  11.521   9.370   9.392  0.4353 -0.1881  0.6971
  120MOL0     H16556  11.764   9.025   9.422  0.2921 -0.3628 -1.1537
  120MOL0     H16557  11.107   9.640   8.819 -1.7870  1.2385  2.1149
  120MOL0     H16558  10.940   9.735   8.731  0.6931  0.0933 -1.5883
  120MOL0     H16559  10.874   9.632   8.605 -2.0425  1.3042 -0.5169
  120MOL0     H16560  10.778   9.673   8.749  0.4123  0.3770 -1.3429
  121MOL0     O16561   8.981   4.274   3.106 -1.4718  0.0295 -0.2597
  121MOL0     C16562   9.012   4.328   2.997 -0.0816 -0.4447  0.6054
  121MOL0     O16563   8.924   4.379   2.910 -0.5944  1.1685 -0.0290
  121MOL0     C16564   8.796   4.348   2.920  0.4067  0.5765  0.8594
  121MOL0     C16565   8.717   4.392   3.026 -0.5843 -0.0760  0.9731
  121MOL0     C16566   8.583   4.356   3.029  1.0162 -0.2732  0.5039
  121MOL0     C16567   8.522   4.296   2.923 -0.4737 -0.2198 -0.0177
  121MOL0     O16568   8.383   4.284   2.943 -0.6124 -0.8885  0.0354
  121MOL0     C16569   8.298   4.310   2.830 -0.5821 -0.3595  0.5980
  121MOL0     C16570   8.160   4.249   2.860  0.4571 -0.5363  0.5247
  121MOL0     C16571   8.159   4.088   2.861 -0.5204 -0.5964 -0.8643
  121MOL0     C16572   8.025   4.023   2.895 -0.1217  0.1905  0.4175
  121MOL0     C16573   8.038   3.900   2.982 -1.0378  0.3585  1.0158
  121MOL0     C16574   7.909   3.846   3.046  0.1678  0.6613 -0.0291
  121MOL0     C16575   7.858   3.936   3.155  0.6517 -0.0886 -0.1845
  121MOL0     C16576   7.741   3.882   3.245  0.6797  1.0874  0.1008
  121MOL0     N16577   7.777   3.801   3.360 -0.2000 -0.9804 -0.7333
  121MOL0     C16578   7.802   3.664   3.345 -0.0040 -0.3405  0.6685
  121MOL0     C16579   7.797   3.619   3.472 -0.3337 -0.1784  0.7018
  121MOL0     C16580   7.844   3.478   3.507  0.1601 -0.6862 -0.9322
  121MOL0     C16581   7.993   3.474   3.467 -0.4745 -0.0287 -0.1818
  121MOL0     C16582   8.049   3.345   3.519  0.5598  0.1243 -0.6432
  121MOL0     C16583   8.204   3.351   3.529  0.0477 -0.2257  0.4288
  121MOL0     O16584   8.265   3.397   3.408  0.1374 -0.3701  0.2211
  121MOL0     C16585   8.394   3.450   3.436 -0.8724  0.4419 -0.5544
  121MOL0     C16586   8.494   3.376   3.500  0.3550 -0.0372 -0.2029
  121MOL0     C16587   8.617   3.435   3.524  0.0667  0.6795 -0.2550
  121MOL0     C16588   8.728   3.352   3.575 -0.3266  0.4385  0.4555
  121MOL0     C16589   8.638   3.574   3.510  0.7093 -0.6843  0.2772
  121MOL0     C16590   8.771   3.653   3.541  0.0617  0.1212  0.9217
  121MOL0     O16591   8.787   3.770   3.477 -0.1077  0.2472 -1.3618
  121MOL0     C16592   8.906   3.835   3.505  1.0617 -0.3873 -0.2030
  121MOL0     C16593   8.918   3.921   3.612 -0.0121  0.2986 -0.5802
  121MOL0     C16594   9.041   3.970   3.649  0.3642  0.2775 -0.4524
  121MOL0     C16595   9.150   3.974   3.558 -0.5853 -0.1615 -0.1724
  121MOL0     O16596   9.264   4.050   3.600 -0.0742  0.6181 -0.7601
  121MOL0     C16597   9.380   4.027   3.527  0.5526  0.1018  0.2572
  121MOL0     C16598   9.469   4.136   3.568  0.8436  0.2338  0.3162
  121MOL0     C16599   9.593   4.153   3.482 -0.6005 -0.0329  0.8221
  121MOL0     C16600   9.689   4.256   3.544  1.3128 -0.1435  0.0746
  121MOL0     C16601   9.804   4.288   3.446 -0.3700 -0.2210 -0.1686
  121MOL0     C16602   9.884   4.412   3.488  0.5289 -0.8163  0.0092
  121MOL0     C16603   9.963   4.460   3.363  0.2012  0.4118  0.9189
  121MOL0     C16604  10.054   4.579   3.380  0.4081  0.0707 -0.3523
  121MOL0    Cl16605   9.948   4.719   3.439  0.0918 -0.2540 -0.1085
  121MOL0     C16606   9.136   3.901   3.442  0.0650 -0.6673  0.3068
  121MOL0     C16607   9.018   3.829   3.420  0.3293  0.5255 -0.4996
  121MOL0     O16608   8.854   3.605   3.611  1.0199  0.8207 -0.5811
  121MOL0     C16609   8.532   3.638   3.447  0.6073  0.2308  0.4115
  121MOL0     C16610   8.414   3.580   3.401 -0.8921  0.3158 -0.6094
  121MOL0     N16611   7.745   3.707   3.558 -0.8240 -0.0863  0.1921
  121MOL0     N16612   7.745   3.820   3.493  0.2868  0.4333  0.4695
  121MOL0     C16613   8.600   4.261   2.806  0.0039 -0.2695  0.4330
  121MOL0     C16614   8.739   4.283   2.816 -0.2398 -0.6275  1.1347
  121MOL0     C16615   9.148   4.359   2.968 -0.5283 -0.3648  0.4077
  121MOL0     C16616   9.243   4.283   3.048  0.3299 -0.0751 -0.3791
  121MOL0     C16617   9.379   4.281   3.011 -1.1010 -0.2856  0.7772
  121MOL0     C16618   9.429   4.359   2.911  0.1285 -0.2237 -0.4279
  121MOL0     O16619   9.561   4.371   2.874 -0.4225  0.5650  0.1109
  121MOL0     C16620   9.662   4.318   2.964  0.1853  0.0940 -0.6438
  121MOL0     C16621   9.783   4.413   2.954  0.1324  1.0456  0.5954
  121MOL0     C16622   9.746   4.557   2.990 -0.9530  0.5831  0.0003
  121MOL0     C16623   9.866   4.639   2.995 -0.6281 -0.2719  0.2315
  121MOL0     C16624   9.841   4.763   3.068  0.5354  0.0385  0.8256
  121MOL0     C16625   9.822   4.870   3.127 -0.7180  0.3784 -0.3441
  121MOL0     C16626   9.338   4.428   2.832  0.6647  0.3473  0.6921
  121MOL0     C16627   9.204   4.430   2.861  0.4372  0.7515  0.2044
  121MOL0     C16628   9.125   4.505   2.765  0.1976 -0.2799 -0.1148
  121MOL0     H16629   8.770   4.433   3.111  2.0441 -1.3222  0.0345
  121MOL0     H16630   8.530   4.388   3.119  0.5557 -1.7216  0.7737
  121MOL0     H16631   8.331   4.261   2.738 -1.5232 -0.4177  0.2761
  121MOL0     H16632   8.289   4.419   2.821  0.7531 -0.1761  1.2882
  121MOL0     H16633   8.135   4.286   2.960  0.4916 -0.2910  0.4410
  121MOL0     H16634   8.095   4.293   2.784  0.8816 -0.1757  0.3688
  121MOL0     H16635   8.194   4.058   2.762  0.5888  2.7819 -1.6076
  121MOL0     H16636   8.237   4.052   2.929 -0.4218  3.0353  1.1789
  121MOL0     H16637   7.954   4.097   2.935  0.4480  2.3163 -2.1829
  121MOL0     H16638   7.987   3.996   2.796  0.1829 -0.9270  0.5975
  121MOL0     H16639   8.111   3.929   3.059 -0.0324  2.6405 -0.6606
  121MOL0     H16640   8.078   3.824   2.914 -1.1785  0.5164  0.7560
  121MOL0     H16641   7.833   3.839   2.967  0.9803 -0.6574 -0.7441
  121MOL0     H16642   7.926   3.747   3.090  2.8064  0.1920 -1.8254
  121MOL0     H16643   7.820   4.025   3.105  0.8377  0.9511  1.4433
  121MOL0     H16644   7.946   3.966   3.213 -0.6628  0.0887  1.8492
  121MOL0     H16645   7.697   3.974   3.285  0.7071  0.7187  1.0105
  121MOL0     H16646   7.661   3.827   3.194  0.0860  2.1099 -0.1102
  121MOL0     H16647   7.827   3.606   3.256 -0.9502  2.6782 -1.7352
  121MOL0     H16648   7.792   3.398   3.454 -3.1093 -0.7927  2.0403
  121MOL0     H16649   7.831   3.455   3.614  1.6500  1.6857 -0.1565
  121MOL0     H16650   8.001   3.476   3.358  0.0743  1.1853 -0.1299
  121MOL0     H16651   8.045   3.560   3.509 -1.0984  1.3787 -2.1243
  121MOL0     H16652   8.027   3.337   3.626  2.5352  2.8487  0.1070
  121MOL0     H16653   8.020   3.253   3.467 -1.6010 -0.2321  1.0511
  121MOL0     H16654   8.223   3.424   3.608  1.6563 -0.3164  0.1674
  121MOL0     H16655   8.249   3.258   3.565 -1.7789 -2.0424 -1.6617
  121MOL0     H16656   8.488   3.270   3.524  0.1040 -0.5945 -2.4598
  121MOL0     H16657   8.813   3.344   3.506 -0.5443  1.5202  0.0372
  121MOL0     H16658   8.692   3.251   3.592  2.3480 -1.1071 -2.0752
  121MOL0     H16659   8.759   3.404   3.666  1.7700 -0.4111  0.2714
  121MOL0     H16660   8.838   3.936   3.684  1.0638  0.7909  0.5666
  121MOL0     H16661   9.043   4.036   3.736  2.3105  0.4812 -0.6053
  121MOL0     H16662   9.411   3.924   3.550 -0.9512 -0.6995 -1.1301
  121MOL0     H16663   9.345   4.027   3.424 -2.2707 -2.7198  1.0562
  121MOL0     H16664   9.423   4.235   3.571  0.1507 -0.1137  1.4471
  121MOL0     H16665   9.518   4.116   3.664 -0.3313 -0.7928  0.7181
  121MOL0     H16666   9.564   4.194   3.385 -0.6455 -1.0861  0.3706
  121MOL0     H16667   9.649   4.060   3.472  0.0504  0.3985  0.4226
  121MOL0     H16668   9.723   4.209   3.636  1.4596  0.1333  0.1625
  121MOL0     H16669   9.642   4.353   3.565  1.5590 -0.1264  0.5780
  121MOL0     H16670   9.884   4.214   3.438  2.1547  2.3713 -0.6886
  121MOL0     H16671   9.765   4.310   3.346  3.5265 -0.4619 -1.9293
  121MOL0     H16672   9.962   4.396   3.564  2.1526  1.5497 -1.0618
  121MOL0     H16673   9.816   4.488   3.526  2.3866  1.7994 -1.6290
  121MOL0     H16674   9.889   4.491   3.288  0.4222  3.9534  1.9618
  121MOL0     H16675  10.029   4.380   3.329  0.7395  1.9381 -2.0012
  121MOL0     H16676  10.098   4.613   3.286 -1.8216 -0.7317 -1.7888
  121MOL0     H16677  10.127   4.554   3.457 -0.1046 -0.8798 -0.1482
  121MOL0     H16678   9.217   3.912   3.371  1.0829  3.1025  1.7719
  121MOL0     H16679   9.040   3.778   3.326  0.2515  0.8240 -0.6819
  121MOL0     H16680   8.551   3.744   3.432  3.4612 -0.1477  0.8244
  121MOL0     H16681   8.328   3.629   3.355 -0.0408  2.2709 -0.2014
  121MOL0     H16682   8.556   4.201   2.727 -0.2821  2.6819 -1.7791
  121MOL0     H16683   8.804   4.259   2.732 -0.7642  3.2438 -0.5884
  121MOL0     H16684   9.209   4.240   3.142 -1.0050  0.0575 -0.7863
  121MOL0     H16685   9.446   4.210   3.057 -0.2117 -0.7495 -1.1419
  121MOL0     H16686   9.630   4.306   3.068 -1.1055 -3.3082 -1.2968
  121MOL0     H16687   9.697   4.220   2.928  2.0678 -0.0254  1.2588
  121MOL0     H16688   9.827   4.416   2.854 -1.3478  1.5748 -0.0669
  121MOL0     H16689   9.867   4.365   3.006  2.2062  0.9497 -2.5644
  121MOL0     H16690   9.679   4.603   2.917 -1.2739  2.7707  1.5745
  121MOL0     H16691   9.701   4.560   3.090 -3.4827  0.2802 -1.0328
  121MOL0     H16692   9.895   4.669   2.894  0.9517 -0.9114  0.4684
  121MOL0     H16693   9.956   4.587   3.030  1.1300  2.5511  0.2387
  121MOL0     H16694   9.793   4.960   3.178 -1.2012 -0.5984  1.1560
  121MOL0     H16695   9.395   4.490   2.764  0.7965  0.8717  1.2647
  121MOL0     H16696   9.065   4.578   2.819 -0.7398 -2.4697  1.9499
  121MOL0     H16697   9.179   4.560   2.687  2.7884 -2.2029  0.1850
  121MOL0     H16698   9.051   4.438   2.721 -0.3734 -0.5705  1.2614
  122MOL0     O16699  10.885   2.845   2.435  0.6417 -0.0815 -0.0346
  122MOL0     C16700  10.859   2.877   2.552  0.5997  0.3376 -0.2196
  122MOL0     O16701  10.734   2.865   2.608 -0.0864 -0.5406  0.3867
  122MOL0     C16702  10.633   2.786   2.553 -0.5079 -0.7609 -0.0525
  122MOL0     C16703  10.503   2.837   2.569  0.6650  0.0188 -0.2512
  122MOL0     C16704  10.396   2.760   2.530 -1.4579  0.9019  0.3173
  122MOL0     C16705  10.424   2.626   2.465 -0.2753 -0.3407  0.0002
  122MOL0     O16706  10.327   2.545   2.424  0.4825 -0.1866 -0.1609
  122MOL0     C16707  10.188   2.582   2.418  0.4401  0.9803  0.6689
  122MOL0     C16708  10.097   2.458   2.407  0.5878  1.1330 -0.1490
  122MOL0     C16709  10.097   2.420   2.258 -0.8182 -0.7040  0.2363
  122MOL0     C16710  10.048   2.526   2.152  0.6759  0.8857 -0.5488
  122MOL0     C16711  10.006   2.457   2.022  0.0332  0.1516  0.2786
  122MOL0     C16712   9.955   2.545   1.907 -0.1599 -0.3170 -0.0801
  122MOL0     C16713   9.903   2.456   1.791  0.1592 -0.1193  0.5819
  122MOL0     C16714   9.870   2.535   1.663  1.2829 -0.3488  0.0567
  122MOL0     N16715   9.972   2.639   1.618 -0.0233  0.5672  0.6905
  122MOL0     C16716  10.094   2.599   1.584 -0.1435  0.5566 -0.4987
  122MOL0     C16717  10.177   2.705   1.599 -0.3551 -0.0509  0.2296
  122MOL0     C16718  10.328   2.708   1.576 -0.6164  0.1795 -0.3800
  122MOL0     C16719  10.369   2.695   1.419  0.9264  0.3718 -1.0417
  122MOL0     C16720  10.518   2.688   1.409  0.6522 -0.7485  0.7340
  122MOL0     C16721  10.574   2.694   1.261  0.1901  0.6791  0.6669
  122MOL0     O16722  10.619   2.566   1.207 -0.2890  0.0090 -0.3358
  122MOL0     C16723  10.759   2.536   1.235 -0.6193 -0.3748 -0.3091
  122MOL0     C16724  10.820   2.422   1.166 -0.7287  0.0713 -0.4670
  122MOL0     C16725  10.956   2.388   1.174 -0.6735  0.7045 -0.0221
  122MOL0     C16726  11.005   2.271   1.075 -0.5820  0.1582 -0.9289
  122MOL0     C16727  11.038   2.460   1.265  0.6110  0.1222  0.2718
  122MOL0     C16728  11.178   2.416   1.288 -0.1103  0.6009 -0.5049
  122MOL0     O16729  11.223   2.446   1.412  0.3339 -0.6598 -0.0071
  122MOL0     C16730  11.360   2.448   1.439 -1.3033  0.0181  0.0055
  122MOL0     C16731  11.396   2.413   1.564 -0.3204 -0.2219 -0.2358
  122MOL0     C16732  11.528   2.424   1.619 -0.2563  0.4212 -0.3685
  122MOL0     C16733  11.627   2.466   1.533  0.2310 -0.1645  0.1890
  122MOL0     O16734  11.760   2.478   1.567 -0.3817  0.2112  0.8815
  122MOL0     C16735  11.812   2.465   1.700  0.0159  0.8884 -0.2714
  122MOL0     C16736  11.859   2.600   1.754 -1.2253 -0.4551 -0.5250
  122MOL0     C16737  11.994   2.657   1.699  0.3922  0.6689  0.8136
  122MOL0     C16738  11.988   2.682   1.549 -0.0432  0.3876  0.6744
  122MOL0     C16739  12.092   2.783   1.511 -0.0696  0.2046  0.0779
  122MOL0     C16740  12.226   2.720   1.528 -0.3880 -0.3605  0.4511
  122MOL0     C16741  12.327   2.774   1.422  0.4141 -0.0174  0.7019
  122MOL0     C16742  12.465   2.790   1.498  0.4037  0.5520  0.5527
  122MOL0    Cl16743  12.531   2.638   1.549  0.1758  0.0105  0.1195
  122MOL0     C16744  11.597   2.505   1.406  0.0332  0.5309 -0.3679
  122MOL0     C16745  11.462   2.495   1.353  0.5631  0.1837  0.2551
  122MOL0     O16746  11.247   2.365   1.197 -1.0361 -0.0994 -0.1024
  122MOL0     C16747  10.979   2.560   1.344 -0.2067 -0.3327 -0.0044
  122MOL0     C16748  10.848   2.606   1.328 -0.1064  0.2159  0.4259
  122MOL0     N16749  10.100   2.812   1.615  0.2814 -0.3198 -0.2223
  122MOL0     N16750   9.974   2.775   1.631  0.2090 -0.5873 -0.4615
  122MOL0     C16751  10.556   2.583   2.448  0.0141  0.8226 -0.3151
  122MOL0     C16752  10.658   2.659   2.491 -0.2435 -0.4880  0.2556
  122MOL0     C16753  10.962   2.936   2.634 -0.2874  0.5508 -0.5210
  122MOL0     C16754  10.932   2.946   2.774 -0.5044  0.3152  0.3031
  122MOL0     C16755  11.033   2.975   2.864 -0.1874 -0.1319 -0.1814
  122MOL0     C16756  11.164   3.009   2.814  0.1607 -0.0136  0.3439
  122MOL0     O16757  11.265   3.036   2.898  0.9586 -0.0518 -1.0491
  122MOL0     C16758  11.388   3.074   2.841 -0.0267  0.2421 -0.1093
  122MOL0     C16759  11.486   3.094   2.960  0.1585 -0.8237 -1.0174
  122MOL0     C16760  11.628   3.141   2.922  0.4388 -0.0273  0.3187
  122MOL0     C16761  11.700   3.061   2.813  0.8784 -0.0494 -0.3749
  122MOL0     C16762  11.826   3.127   2.763  0.4730 -0.9174 -0.0972
  122MOL0     C16763  11.917   3.185   2.717  0.0410 -0.5172 -0.4637
  122MOL0     C16764  11.181   3.015   2.677 -0.5523  0.2642 -0.1757
  122MOL0     C16765  11.084   2.976   2.587  0.2920 -0.1104 -0.1364
  122MOL0     C16766  11.117   3.002   2.445  0.2665 -0.5962  0.6878
  122MOL0     H16767  10.493   2.939   2.605  1.4626 -1.2414  4.1826
  122MOL0     H16768  10.299   2.804   2.552 -1.7758 -0.5032  1.9269
  122MOL0     H16769  10.156   2.651   2.340  2.0426  1.6731  0.5902
  122MOL0     H16770  10.160   2.626   2.515  1.3106  1.9823  0.4835
  122MOL0     H16771  10.135   2.378   2.472 -0.6355 -0.0723 -0.8490
  122MOL0     H16772   9.993   2.471   2.441  1.3309  1.0569  2.3666
  122MOL0     H16773  10.195   2.385   2.223  0.3665  3.9702 -1.8829
  122MOL0     H16774  10.021   2.342   2.252 -1.8496  0.2886  0.1216
  122MOL0     H16775   9.964   2.585   2.188  0.2472  0.6135 -1.0761
  122MOL0     H16776  10.124   2.600   2.126  1.6579  0.3724  0.7464
  122MOL0     H16777   9.927   2.386   2.045  0.0198  0.3441  0.8448
  122MOL0     H16778  10.095   2.400   1.994  0.7409  1.0716  0.5706
  122MOL0     H16779   9.873   2.612   1.937  0.0340 -0.3453  0.5328
  122MOL0     H16780  10.035   2.611   1.874  0.2159  2.9747  5.8741
  122MOL0     H16781   9.809   2.413   1.825  2.1460 -1.4128  5.2077
  122MOL0     H16782   9.970   2.370   1.778 -2.5819 -2.1773 -1.0793
  122MOL0     H16783   9.848   2.462   1.583 -0.0641 -0.1112  0.1906
  122MOL0     H16784   9.786   2.599   1.688  1.0367 -0.2372 -0.9842
  122MOL0     H16785  10.134   2.499   1.571  0.6867  0.8208 -0.0406
  122MOL0     H16786  10.365   2.621   1.630  0.7987 -0.9227 -2.9568
  122MOL0     H16787  10.369   2.805   1.606 -5.2332  2.7146 -1.2098
  122MOL0     H16788  10.339   2.603   1.368  1.7255 -2.8792  3.6843
  122MOL0     H16789  10.333   2.781   1.362  1.4634  1.1572 -0.2227
  122MOL0     H16790  10.551   2.782   1.455 -1.8385  0.3894  0.3227
  122MOL0     H16791  10.561   2.603   1.463  1.8211 -1.6865 -1.5333
  122MOL0     H16792  10.499   2.738   1.195  0.2343  0.9869  0.8185
  122MOL0     H16793  10.653   2.769   1.252  1.0071  0.2343  3.1405
  122MOL0     H16794  10.749   2.358   1.115  1.5330 -2.3390 -0.8073
  122MOL0     H16795  11.076   2.200   1.117 -0.1181 -0.0506 -2.0403
  122MOL0     H16796  11.058   2.313   0.989 -0.4680  0.7820 -0.5622
  122MOL0     H16797  10.926   2.205   1.037 -0.4004 -0.4828 -0.2224
  122MOL0     H16798  11.311   2.378   1.622  1.7102 -2.0647  1.8225
  122MOL0     H16799  11.555   2.410   1.723  0.3480  0.7573 -0.4704
  122MOL0     H16800  11.746   2.419   1.774  0.0438  1.0946 -0.1167
  122MOL0     H16801  11.903   2.407   1.684 -0.7369 -0.8028  1.1487
  122MOL0     H16802  11.779   2.673   1.738 -1.5033 -0.1317  1.8746
  122MOL0     H16803  11.878   2.582   1.860 -0.3322  0.9349 -0.4130
  122MOL0     H16804  12.077   2.590   1.720  0.5544  0.3322 -0.7312
  122MOL0     H16805  12.012   2.752   1.750  2.8333  0.7916 -0.1521
  122MOL0     H16806  11.887   2.711   1.517 -0.3294 -0.9997  0.2815
  122MOL0     H16807  12.013   2.587   1.503  2.9024  1.1103  0.6261
  122MOL0     H16808  12.082   2.811   1.406  4.1277 -0.6150 -0.7407
  122MOL0     H16809  12.093   2.876   1.569 -0.3138  0.6316 -0.5922
  122MOL0     H16810  12.225   2.613   1.506 -1.5674  0.3935 -4.3632
  122MOL0     H16811  12.251   2.727   1.635 -0.9592 -0.2654  0.5790
  122MOL0     H16812  12.293   2.870   1.382 -0.2359 -0.4630  0.1666
  122MOL0     H16813  12.331   2.700   1.341  0.7782 -2.1303  2.5407
  122MOL0     H16814  12.444   2.845   1.591 -1.2056 -0.1320  0.6233
  122MOL0     H16815  12.528   2.848   1.431  2.0105 -1.0416  0.6060
  122MOL0     H16816  11.681   2.534   1.343  0.7968  1.8076  1.1958
  122MOL0     H16817  11.428   2.522   1.253 -0.0360  0.1363  0.4408
  122MOL0     H16818  11.048   2.601   1.417  0.9554  0.4585 -1.4756
  122MOL0     H16819  10.824   2.701   1.374  1.8081  0.4737  0.9908
  122MOL0     H16820  10.574   2.482   2.411  0.4040  0.6679  0.2770
  122MOL0     H16821  10.760   2.627   2.472  0.4141  2.5798 -2.3736
  122MOL0     H16822  10.843   2.912   2.826 -0.4021  1.3135  1.1544
  122MOL0     H16823  11.023   2.974   2.972 -1.3989  0.6782 -0.2691
  122MOL0     H16824  11.428   2.993   2.780  3.5586  0.0455  2.1534
  122MOL0     H16825  11.374   3.169   2.789 -1.0830  0.4965  0.6056
  122MOL0     H16826  11.495   3.003   3.020 -2.1016  0.6347  1.7892
  122MOL0     H16827  11.440   3.161   3.033  0.4250 -1.7900  0.0452
  122MOL0     H16828  11.632   3.245   2.887 -1.3401 -0.0141  0.0538
  122MOL0     H16829  11.682   3.132   3.017 -1.6109 -2.3605  1.3798
  122MOL0     H16830  11.628   3.053   2.731 -3.0012 -1.1907  2.8098
  122MOL0     H16831  11.711   2.963   2.860  0.7814 -1.3277 -2.8706
  122MOL0     H16832  12.000   3.238   2.676  1.5191 -2.9154 -0.8064
  122MOL0     H16833  11.266   3.049   2.619 -1.2906 -0.5314 -1.7846
  122MOL0     H16834  11.031   3.048   2.395  0.2556 -1.9925 -0.6592
  122MOL0     H16835  11.205   3.062   2.419 -2.0834  1.9418 -2.2593
  122MOL0     H16836  11.134   2.904   2.399 -1.4834 -0.0525 -1.2650
  123MOL0     O16837  10.435   7.407   5.035  0.5474  1.4108 -0.6630
  123MOL0     C16838  10.405   7.519   5.082 -0.1752 -0.7048  0.3125
  123MOL0     O16839  10.475   7.583   5.173 -0.0477  0.4498  0.0040
  123MOL0     C16840  10.597   7.530   5.204  0.1278  0.6106 -0.5597
  123MOL0     C16841  10.702   7.492   5.116 -0.4949 -0.1535  0.9589
  123MOL0     C16842  10.822   7.452   5.159  0.2241 -0.3993  0.0592
  123MOL0     C16843  10.850   7.455   5.298  0.6671  0.3601  0.1014
  123MOL0     O16844  10.978   7.430   5.335 -0.2159 -0.0919  0.0933
  123MOL0     C16845  10.997   7.356   5.467 -0.1217 -0.2407  1.2465
  123MOL0     C16846  11.108   7.253   5.447 -0.2333  0.0303 -0.1447
  123MOL0     C16847  11.246   7.325   5.471  0.1268  0.0837 -0.5159
  123MOL0     C16848  11.278   7.336   5.623 -0.9575  0.8160 -0.4173
  123MOL0     C16849  11.410   7.405   5.645 -0.2012  0.5190  0.4166
  123MOL0     C16850  11.447   7.453   5.787  0.8473  0.4797  0.9171
  123MOL0     C16851  11.603   7.470   5.810  0.1058 -0.3324 -0.3864
  123MOL0     C16852  11.657   7.597   5.738 -0.9137  0.6417  0.3031
  123MOL0     N16853  11.797   7.621   5.766 -0.0785 -0.0209  0.2536
  123MOL0     C16854  11.848   7.650   5.887  0.1761  0.2387  0.0156
  123MOL0     C16855  11.980   7.653   5.866  0.6936 -0.0505 -0.7497
  123MOL0     C16856  12.080   7.673   5.972  0.0289 -0.2886  0.6131
  123MOL0     C16857  12.224   7.691   5.920  0.0218 -0.9367  0.3959
  123MOL0     C16858  12.247   7.822   5.841 -0.1949  0.4026  0.4242
  123MOL0     C16859  12.372   7.831   5.757 -0.2060  0.1507 -0.1033
  123MOL0     O16860  12.480   7.842   5.843 -0.0916  0.0928  0.4305
  123MOL0     C16861  12.603   7.836   5.787  0.3355  1.1802  0.0096
  123MOL0     C16862  12.625   7.793   5.648  0.5237  0.0707 -0.9263
  123MOL0     C16863  12.753   7.768   5.610  0.3478 -0.9940  0.7249
  123MOL0     C16864  12.773   7.722   5.474  0.7644  0.0956 -0.1687
  123MOL0     C16865  12.856   7.788   5.705 -0.3220 -0.5519 -1.3120
  123MOL0     C16866  13.002   7.779   5.682 -0.0070  0.4089  0.8706
  123MOL0     O16867  13.086   7.797   5.786 -0.0029 -0.9030 -0.5306
  123MOL0     C16868  13.228   7.795   5.784 -0.0971  1.4686 -0.4664
  123MOL0     C16869  13.317   7.880   5.710  0.4073 -0.9875 -0.4581
  123MOL0     C16870  13.457   7.885   5.740  0.2912 -0.1841  0.6737
  123MOL0     C16871  13.513   7.794   5.834 -0.4968 -0.4034  0.6746
  123MOL0     O16872  13.652   7.797   5.843  0.0452 -0.1819  0.0607
  123MOL0     C16873  13.706   7.709   5.943  0.9029 -1.0955  0.2329
  123MOL0     C16874  13.728   7.568   5.881 -0.0349  0.4387 -0.2153
  123MOL0     C16875  13.788   7.560   5.744  0.2359  0.6597  0.1023
  123MOL0     C16876  13.928   7.500   5.738 -0.4028 -0.5587 -0.5242
  123MOL0     C16877  13.922   7.352   5.698 -0.1105  0.3238 -0.4978
  123MOL0     C16878  14.056   7.277   5.691 -0.9101 -0.0409 -0.0382
  123MOL0     C16879  14.161   7.334   5.792  0.2680  0.3580  0.0890
  123MOL0     C16880  14.137   7.292   5.931 -0.6539 -0.6778 -0.1938
  123MOL0    Cl16881  14.263   7.357   6.029 -0.1355  0.1742  0.2485
  123MOL0     C16882  13.429   7.706   5.901 -0.0031 -0.4866 -0.3461
  123MOL0     C16883  13.292   7.712   5.876 -0.2792 -0.0900 -0.0503
  123MOL0     O16884  13.041   7.743   5.572 -0.2948 -0.7940  0.0315
  123MOL0     C16885  12.827   7.825   5.834 -0.3447  0.0477 -0.7932
  123MOL0     C16886  12.702   7.841   5.882  1.0373 -0.2125 -0.3042
  123MOL0     N16887  12.020   7.628   5.734 -0.2129  0.1427 -0.7704
  123MOL0     N16888  11.901   7.601   5.678 -0.1910 -0.8987 -0.3592
  123MOL0     C16889  10.750   7.503   5.388  0.6549 -0.0253  0.2289
  123MOL0     C16890  10.625   7.547   5.342  0.1405 -0.5892  0.3376
  123MOL0     C16891  10.276   7.580   5.014 -0.6324 -0.4573 -0.4716
  123MOL0     C16892  10.242   7.531   4.890 -0.2586 -0.4436  0.5824
  123MOL0     C16893  10.108   7.563   4.847 -0.9199  0.0725 -0.3738
  123MOL0     C16894  10.030   7.662   4.902 -1.4096 -0.0362 -1.2106
  123MOL0     O16895   9.911   7.701   4.854 -0.1857 -0.0527 -0.9535
  123MOL0     C16896   9.876   7.666   4.720 -0.2074 -0.3444  0.0153
  123MOL0     C16897   9.745   7.580   4.726 -0.0254  0.0774  0.2523
  123MOL0     C16898   9.640   7.638   4.821  0.8190  0.7218  0.2519
  123MOL0     C16899   9.560   7.764   4.770 -0.4808 -0.2344  0.5798
  123MOL0     C16900   9.481   7.736   4.650 -0.6214 -0.0302 -0.3572
  123MOL0     C16901   9.422   7.706   4.554  0.0058  0.3385 -0.5627
  123MOL0     C16902  10.067   7.709   5.030 -0.1087  0.5778  1.7459
  123MOL0     C16903  10.180   7.664   5.086  0.3524  0.1197 -0.0097
  123MOL0     C16904  10.199   7.693   5.239 -0.7536 -0.7935 -0.0737
  123MOL0     H16905  10.692   7.492   5.008  1.1348  0.8429  0.7754
  123MOL0     H16906  10.894   7.419   5.084 -0.9860 -0.9897 -0.8774
  123MOL0     H16907  10.907   7.300   5.494  0.3784  0.5410  5.1455
  123MOL0     H16908  11.010   7.418   5.556 -2.1941  1.8441  0.2065
  123MOL0     H16909  11.105   7.169   5.516 -3.0571  0.4840  0.3840
  123MOL0     H16910  11.096   7.211   5.346 -2.8223 -0.2737  0.2362
  123MOL0     H16911  11.321   7.267   5.417  1.0554  0.2272  0.5891
  123MOL0     H16912  11.241   7.422   5.422  3.2886 -0.5774 -2.4469
  123MOL0     H16913  11.197   7.379   5.682  0.8234  2.6924  0.7947
  123MOL0     H16914  11.282   7.231   5.654 -0.7872  0.7626 -0.6201
  123MOL0     H16915  11.419   7.496   5.586  1.2819 -0.0680 -0.3301
  123MOL0     H16916  11.490   7.342   5.605  1.1740  1.9803  0.7756
  123MOL0     H16917  11.388   7.541   5.814  1.0885  0.5991  1.0584
  123MOL0     H16918  11.415   7.370   5.851  1.1303  0.5077  1.0960
  123MOL0     H16919  11.646   7.374   5.782  0.1077  0.3278 -2.8972
  123MOL0     H16920  11.607   7.493   5.917 -0.9909 -1.8558  0.0047
  123MOL0     H16921  11.641   7.583   5.631 -2.5079  0.1483  0.5702
  123MOL0     H16922  11.599   7.678   5.784 -0.9565  0.1500  1.1393
  123MOL0     H16923  11.798   7.666   5.981  0.7791  0.0290  0.3809
  123MOL0     H16924  12.089   7.583   6.032  2.7481 -1.2572 -1.0291
  123MOL0     H16925  12.072   7.764   6.032  1.3856  1.9174 -2.2418
  123MOL0     H16926  12.293   7.701   6.003 -0.2291  1.4961  0.3936
  123MOL0     H16927  12.252   7.603   5.861  1.3648 -1.1567  1.3352
  123MOL0     H16928  12.167   7.815   5.766  2.0763 -1.9226 -2.0179
  123MOL0     H16929  12.243   7.907   5.910 -0.1684  0.2847  0.5708
  123MOL0     H16930  12.369   7.744   5.691 -2.1022 -0.9165  1.3049
  123MOL0     H16931  12.362   7.932   5.717  0.7379  0.4402  0.3571
  123MOL0     H16932  12.544   7.764   5.583  0.9796  1.5273 -2.1940
  123MOL0     H16933  12.830   7.797   5.418  0.4518  2.0202  1.9193
  123MOL0     H16934  12.677   7.711   5.423  1.7293  0.8288 -2.2488
  123MOL0     H16935  12.823   7.625   5.475 -0.4752 -0.5743  1.5343
  123MOL0     H16936  13.269   7.945   5.637  2.3009  0.0456 -0.8540
  123MOL0     H16937  13.517   7.951   5.678  2.3231  1.5291  4.1915
  123MOL0     H16938  13.807   7.745   5.966  1.8267 -3.8988  0.9685
  123MOL0     H16939  13.651   7.707   6.037  2.0221 -3.0889  0.9040
  123MOL0     H16940  13.794   7.515   5.951 -0.5853 -0.6923 -0.5264
  123MOL0     H16941  13.631   7.518   5.876 -1.9571  4.0073 -2.1697
  123MOL0     H16942  13.806   7.656   5.694 -0.9318 -0.0703 -1.8510
  123MOL0     H16943  13.721   7.510   5.674  1.6323 -0.7609 -0.2828
  123MOL0     H16944  13.966   7.508   5.840 -0.3835  4.1302 -0.6884
  123MOL0     H16945  13.986   7.562   5.670  2.6914 -1.6302  0.9573
  123MOL0     H16946  13.863   7.304   5.776  0.5429 -0.9045 -0.7436
  123MOL0     H16947  13.862   7.340   5.607  1.8259  0.0927 -1.7998
  123MOL0     H16948  14.098   7.309   5.596  2.2969 -5.5570 -0.8781
  123MOL0     H16949  14.043   7.169   5.694 -1.0280 -0.0395 -0.4263
  123MOL0     H16950  14.173   7.441   5.775  0.5796  0.1464 -1.1015
  123MOL0     H16951  14.255   7.292   5.755  0.1395  0.5391 -0.4454
  123MOL0     H16952  14.131   7.184   5.948  0.7502 -0.4054  2.4775
  123MOL0     H16953  14.037   7.335   5.948  1.1504  3.5415  0.9491
  123MOL0     H16954  13.468   7.638   5.975 -0.4019  0.2698  0.5698
  123MOL0     H16955  13.226   7.646   5.931 -0.0700 -0.2874 -0.0343
  123MOL0     H16956  12.907   7.848   5.904 -1.1736  3.7200 -0.8204
  123MOL0     H16957  12.669   7.863   5.983 -0.5140  0.1823 -0.8722
  123MOL0     H16958  10.772   7.521   5.493  1.1467 -2.6904  0.6546
  123MOL0     H16959  10.548   7.596   5.400 -0.2119  0.7037 -1.1533
  123MOL0     H16960  10.297   7.462   4.827 -0.9443 -1.1076  0.7083
  123MOL0     H16961  10.091   7.512   4.753 -0.9769  0.1307 -0.3949
  123MOL0     H16962   9.864   7.765   4.673  0.1401 -0.0415  0.5507
  123MOL0     H16963   9.947   7.615   4.655  1.3995  2.4125 -0.5807
  123MOL0     H16964   9.774   7.478   4.753  0.8139 -0.1123 -1.2731
  123MOL0     H16965   9.698   7.570   4.628 -0.0910 -0.2553  0.3154
  123MOL0     H16966   9.579   7.553   4.851  3.0691 -0.1486  2.7390
  123MOL0     H16967   9.695   7.675   4.909  1.6115 -1.3559  0.6840
  123MOL0     H16968   9.625   7.852   4.759  1.8470 -1.7077  1.8497
  123MOL0     H16969   9.491   7.792   4.849 -0.1233  1.8183  0.2316
  123MOL0     H16970   9.371   7.679   4.463 -2.7265  0.8994  0.7092
  123MOL0     H16971  10.010   7.773   5.096 -1.7104  0.6481  0.3752
  123MOL0     H16972  10.117   7.752   5.282 -1.2302 -0.7627 -0.9902
  123MOL0     H16973  10.204   7.594   5.285 -1.8899  0.3156  2.6972
  123MOL0     H16974  10.292   7.751   5.237 -1.3545  0.1981 -2.0896
  124MOL0     O16975   0.950   0.885   7.567  0.1964 -0.7951  0.1768
  124MOL0     C16976   0.956   0.868   7.688 -1.1155  0.0818  0.3425
  124MOL0     O16977   1.067   0.841   7.763  0.4851  0.3552 -0.7009
  124MOL0     C16978   1.200   0.864   7.724  0.1806 -0.4590  0.9212
  124MOL0     C16979   1.241   0.942   7.618  0.0869  0.1501  0.6067
  124MOL0     C16980   1.379   0.972   7.604  0.0591 -0.6232 -0.1574
  124MOL0     C16981   1.476   0.914   7.691 -0.2543  0.2126  0.0928
  124MOL0     O16982   1.604   0.950   7.673 -0.5960  0.6348  0.2725
  124MOL0     C16983   1.638   1.091   7.684 -0.7175  0.2742  1.1859
  124MOL0     C16984   1.789   1.112   7.661  0.0747  0.8352  0.1934
  124MOL0     C16985   1.819   1.126   7.514 -0.1740  0.2050 -0.5054
  124MOL0     C16986   1.963   1.113   7.490 -0.6254 -0.5848  0.1002
  124MOL0     C16987   2.043   1.242   7.498 -0.5875 -0.1396 -0.1745
  124MOL0     C16988   2.197   1.211   7.482 -0.7182  1.3003 -0.6349
  124MOL0     C16989   2.289   1.321   7.494  0.6273 -0.0552  0.4309
  124MOL0     C16990   2.253   1.404   7.611 -0.1961 -0.0791  0.3189
  124MOL0     N16991   2.352   1.505   7.643  0.4936  0.1848  0.0963
  124MOL0     C16992   2.406   1.600   7.557  0.8566 -0.1166  0.6010
  124MOL0     C16993   2.516   1.638   7.632  0.3732  0.3067  0.5585
  124MOL0     C16994   2.609   1.748   7.588 -0.5916 -0.1414 -0.0281
  124MOL0     C16995   2.739   1.746   7.673  0.0796  0.4003  0.8502
  124MOL0     C16996   2.858   1.836   7.615 -0.2991  0.1208  0.0387
  124MOL0     C16997   2.994   1.806   7.686  0.2315  0.5429 -0.0145
  124MOL0     O16998   3.087   1.911   7.651 -0.5564  0.0828  0.1768
  124MOL0     C16999   3.222   1.894   7.660  0.9871 -0.0655 -0.1137
  124MOL0     C17000   3.310   1.984   7.607  0.5321  0.4183  0.1385
  124MOL0     C17001   3.448   1.978   7.618 -0.3781  0.4851 -0.4727
  124MOL0     C17002   3.532   2.077   7.544 -0.5776 -0.8703 -0.6273
  124MOL0     C17003   3.501   1.871   7.697  0.3400 -0.5330 -0.0246
  124MOL0     C17004   3.650   1.845   7.704  0.0747 -0.7277 -0.2929
  124MOL0     O17005   3.728   1.906   7.610 -0.2080 -0.1914  0.7870
  124MOL0     C17006   3.853   1.937   7.644 -0.8811 -0.7019 -0.5671
  124MOL0     C17007   3.888   1.998   7.767 -0.0970  0.3505  0.3476
  124MOL0     C17008   4.018   2.022   7.794  0.2821  0.3728  0.6486
  124MOL0     C17009   4.124   2.005   7.707  0.0013 -0.1060 -0.2315
  124MOL0     O17010   4.243   2.033   7.761 -0.3742 -0.2128  0.3595
  124MOL0     C17011   4.353   1.977   7.691  0.2772 -0.5582 -0.4474
  124MOL0     C17012   4.481   1.981   7.781 -0.5838 -0.8278 -0.8535
  124MOL0     C17013   4.569   2.103   7.743  1.1967  0.2888  0.1154
  124MOL0     C17014   4.695   2.109   7.827  0.0429  0.2878  1.1404
  124MOL0     C17015   4.790   2.230   7.803 -0.3958  0.9328 -0.2695
  124MOL0     C17016   4.912   2.240   7.896  0.7020  0.6697 -0.0340
  124MOL0     C17017   4.971   2.383   7.869  1.2723  0.5229 -0.2855
  124MOL0     C17018   4.892   2.502   7.928  0.0995  0.1286  0.4434
  124MOL0    Cl17019   4.934   2.652   7.827  0.6678 -0.7049  0.0663
  124MOL0     C17020   4.094   1.944   7.581 -0.2842  0.2977 -0.0818
  124MOL0     C17021   3.962   1.904   7.565 -0.4652  0.3737  0.4025
  124MOL0     O17022   3.683   1.774   7.798 -0.2224  0.0489 -0.0380
  124MOL0     C17023   3.413   1.777   7.758 -0.8363  0.4419 -0.9053
  124MOL0     C17024   3.277   1.786   7.735 -0.6395 -0.4256 -0.2130
  124MOL0     N17025   2.526   1.560   7.750  0.6778  0.5372 -0.2694
  124MOL0     N17026   2.428   1.476   7.749  0.8701  0.5596  0.3244
  124MOL0     C17027   1.435   0.831   7.802 -0.6839 -0.0578  0.2046
  124MOL0     C17028   1.293   0.805   7.811  0.4820  0.8471 -0.4407
  124MOL0     C17029   0.835   0.838   7.760  0.0793  0.1596  0.1154
  124MOL0     C17030   0.836   0.734   7.861  0.5311  0.2061  1.1124
  124MOL0     C17031   0.711   0.690   7.918 -0.5493  0.0672  0.9842
  124MOL0     C17032   0.591   0.750   7.885  0.2185 -0.8080  0.1699
  124MOL0     O17033   0.483   0.685   7.938 -0.3472 -0.1699  0.1824
  124MOL0     C17034   0.355   0.741   7.909 -0.5317  0.2106 -0.3539
  124MOL0     C17035   0.252   0.670   7.981 -0.3438  0.1375 -0.7901
  124MOL0     C17036   0.243   0.705   8.126  0.1581  0.4132  0.2822
  124MOL0     C17037   0.120   0.656   8.199 -0.3584  0.1770 -0.3921
  124MOL0     C17038   0.001   0.679   8.118  0.1194 -0.1038  0.2105
  124MOL0     C17039  -0.100   0.679   8.053 -0.0078 -0.3979  0.6400
  124MOL0     C17040   0.597   0.859   7.792 -0.2315  0.4337 -0.4017
  124MOL0     C17041   0.714   0.902   7.729  0.6395  0.3463  0.1796
  124MOL0     C17042   0.701   1.020   7.637 -0.5014  0.6636 -0.5252
  124MOL0     H17043   1.170   0.991   7.552  0.2647 -0.2006  0.1526
  124MOL0     H17044   1.418   1.033   7.523  1.9371 -0.4103  0.8594
  124MOL0     H17045   1.619   1.131   7.784  3.2053 -0.3432  2.3471
  124MOL0     H17046   1.580   1.149   7.612 -0.5703  1.8667  2.3101
  124MOL0     H17047   1.812   1.201   7.720  0.3624  1.0494 -0.2376
  124MOL0     H17048   1.847   1.029   7.703  2.1893  1.9592 -0.3722
  124MOL0     H17049   1.779   1.048   7.448  1.9328 -0.3213 -1.2557
  124MOL0     H17050   1.782   1.220   7.472  1.5470  0.9901 -0.3690
  124MOL0     H17051   2.016   1.037   7.550  1.8346  1.9162  1.3269
  124MOL0     H17052   1.973   1.072   7.389  0.9859 -3.5621  1.3224
  124MOL0     H17053   2.028   1.300   7.590  4.0556  4.2459 -1.6763
  124MOL0     H17054   2.013   1.313   7.420  0.4535  0.7397  0.1958
  124MOL0     H17055   2.225   1.140   7.560 -3.1215  0.0012 -0.8257
  124MOL0     H17056   2.203   1.160   7.385 -1.7840  1.1480 -0.6403
  124MOL0     H17057   2.284   1.389   7.409 -3.7195  0.8568  1.1623
  124MOL0     H17058   2.387   1.273   7.504  1.0086  0.4749 -0.6802
  124MOL0     H17059   2.164   1.459   7.579  1.8960  2.3173 -1.7926
  124MOL0     H17060   2.238   1.341   7.699  0.6908 -2.9417 -1.4082
  124MOL0     H17061   2.371   1.641   7.463  0.6477 -1.0394  0.2606
  124MOL0     H17062   2.561   1.846   7.589 -0.8707 -0.2781  1.5744
  124MOL0     H17063   2.640   1.736   7.483 -0.8000 -0.7394 -0.0274
  124MOL0     H17064   2.713   1.784   7.772  1.1508 -0.4788  1.4874
  124MOL0     H17065   2.785   1.648   7.688 -2.4626 -1.2153 -1.0712
  124MOL0     H17066   2.874   1.822   7.507  2.8630 -0.9803  0.5652
  124MOL0     H17067   2.835   1.940   7.641 -1.0737 -0.3927  1.5378
  124MOL0     H17068   2.986   1.789   7.793 -2.1597 -1.1097 -0.3791
  124MOL0     H17069   3.032   1.711   7.646  0.5493 -0.0494  1.6426
  124MOL0     H17070   3.268   2.071   7.558 -0.2091  1.6117  2.7029
  124MOL0     H17071   3.486   2.175   7.530  1.7818  0.7192  1.6410
  124MOL0     H17072   3.566   2.036   7.449  2.8892 -0.8676  0.4797
  124MOL0     H17073   3.617   2.109   7.606 -1.1522 -1.2248  0.3725
  124MOL0     H17074   3.821   1.997   7.853 -1.4220 -0.1982 -0.6482
  124MOL0     H17075   4.024   2.050   7.899  0.0392 -1.4110  1.1701
  124MOL0     H17076   4.341   1.868   7.693 -1.2398 -0.4182 -0.9524
  124MOL0     H17077   4.372   2.008   7.588  0.4990 -1.3659 -0.6548
  124MOL0     H17078   4.456   2.000   7.885  3.0344  4.0603 -0.4948
  124MOL0     H17079   4.547   1.894   7.771 -1.2004 -1.5829  1.1309
  124MOL0     H17080   4.511   2.189   7.777  0.6932 -0.0348  0.0728
  124MOL0     H17081   4.595   2.101   7.637  4.3064 -0.7121  0.7731
  124MOL0     H17082   4.736   2.008   7.817 -1.4413 -0.3460  1.1183
  124MOL0     H17083   4.669   2.108   7.933  2.8694 -1.2859  1.9037
  124MOL0     H17084   4.837   2.205   7.707  1.7075  0.9726  0.6905
  124MOL0     H17085   4.727   2.320   7.800 -2.8890 -0.6738  1.0183
  124MOL0     H17086   4.985   2.162   7.872 -0.5420 -0.3425 -0.6463
  124MOL0     H17087   4.886   2.217   8.000 -4.1340 -4.0131 -1.8226
  124MOL0     H17088   4.978   2.397   7.760  2.1188 -1.9080 -0.6069
  124MOL0     H17089   5.073   2.388   7.907  0.6251  1.6752  1.3998
  124MOL0     H17090   4.928   2.529   8.028  1.4668  0.7239 -0.1886
  124MOL0     H17091   4.783   2.496   7.941 -0.0955  2.0600  0.0446
  124MOL0     H17092   4.168   1.925   7.504 -0.4475  2.7702 -0.9560
  124MOL0     H17093   3.926   1.844   7.481  2.9553 -0.3393 -0.7038
  124MOL0     H17094   3.457   1.694   7.813 -0.1291  2.0481  1.0752
  124MOL0     H17095   3.216   1.718   7.793 -0.8214  2.0678  2.8188
  124MOL0     H17096   1.517   0.783   7.855 -0.3775 -1.0512 -1.1112
  124MOL0     H17097   1.240   0.751   7.889 -3.5242 -1.7305 -4.4440
  124MOL0     H17098   0.926   0.681   7.893  1.3790  1.3111  0.6235
  124MOL0     H17099   0.685   0.612   7.988  1.5738 -1.8841 -0.2761
  124MOL0     H17100   0.357   0.848   7.932 -2.6089 -0.1291  1.9168
  124MOL0     H17101   0.332   0.729   7.803 -2.5359 -3.5228  0.3187
  124MOL0     H17102   0.260   0.562   7.968  0.8140 -0.0072  0.8719
  124MOL0     H17103   0.160   0.705   7.934 -2.4360 -2.3801  1.1535
  124MOL0     H17104   0.327   0.659   8.180  0.4508 -0.0277 -0.5332
  124MOL0     H17105   0.254   0.810   8.154 -3.3572  1.1524 -0.6076
  124MOL0     H17106   0.110   0.714   8.292 -3.7113 -0.8118 -0.0136
  124MOL0     H17107   0.113   0.548   8.215 -1.0827  0.2385 -0.2671
  124MOL0     H17108  -0.187   0.679   7.990 -0.2018 -1.0086  0.8938
  124MOL0     H17109   0.505   0.916   7.783  0.2357  1.0240 -1.5648
  124MOL0     H17110   0.604   1.049   7.595  0.1015  3.9033  0.0065
  124MOL0     H17111   0.727   1.104   7.702  0.2830 -0.1696  0.2582
  124MOL0     H17112   0.772   1.026   7.554 -2.8856  0.5500 -2.7048
  125MOL0     O17113   3.496  10.010   3.344  0.3312  0.7922  0.5586
  125MOL0     C17114   3.416   9.946   3.275 -0.3318 -0.6032  0.0115
  125MOL0     O17115   3.451   9.885   3.161 -0.2343  0.2723 -0.3076
  125MOL0     C17116   3.586   9.878   3.129 -0.0540 -0.1814 -0.2946
  125MOL0     C17117   3.627   9.974   3.033  1.0620 -0.2442 -0.6321
  125MOL0     C17118   3.767   9.966   3.005  0.8040 -0.0412 -0.5796
  125MOL0     C17119   3.854   9.861   3.052  1.0259  0.7926 -0.4351
  125MOL0     O17120   3.979   9.868   2.996  0.1156  0.0029 -0.2149
  125MOL0     C17121   4.096   9.812   3.055 -1.1215  0.6820 -0.9544
  125MOL0     C17122   4.203   9.838   2.949  0.7622  0.0930  0.9656
  125MOL0     C17123   4.346   9.791   2.966 -0.2653  0.7646  1.2066
  125MOL0     C17124   4.363   9.644   2.946  0.2561  0.6211  0.4748
  125MOL0     C17125   4.502   9.603   2.908 -0.4322 -0.3990 -0.1509
  125MOL0     C17126   4.521   9.452   2.902  0.4740  0.2124 -0.6104
  125MOL0     C17127   4.663   9.399   2.887 -0.2979  0.3246  0.1407
  125MOL0     C17128   4.735   9.470   2.757 -0.4188  0.2822  0.3805
  125MOL0     N17129   4.867   9.415   2.726 -0.4821 -0.0012  0.3287
  125MOL0     C17130   4.964   9.483   2.656  0.3831 -0.2173  0.0200
  125MOL0     C17131   5.064   9.388   2.641  0.2112 -1.0501 -0.1657
  125MOL0     C17132   5.210   9.415   2.606  0.5087 -0.8333 -0.8028
  125MOL0     C17133   5.288   9.497   2.701 -0.4404  0.3148  0.2350
  125MOL0     C17134   5.431   9.497   2.660  0.5866  0.4392  0.2336
  125MOL0     C17135   5.506   9.599   2.744 -0.7902 -0.0097  0.1462
  125MOL0     O17136   5.646   9.608   2.699  0.0468 -0.2861  0.0561
  125MOL0     C17137   5.736   9.701   2.751 -0.2267  0.8470 -0.9842
  125MOL0     C17138   5.869   9.696   2.712  0.7064  0.4938  0.2042
  125MOL0     C17139   5.958   9.804   2.752 -0.8987  0.5491  1.2609
  125MOL0     C17140   6.094   9.800   2.674 -0.1033 -0.3126  0.1820
  125MOL0     C17141   5.915   9.886   2.852 -0.8101 -0.4444 -0.3351
  125MOL0     C17142   6.005   9.996   2.909  0.8655 -0.0538  0.7465
  125MOL0     O17143   5.949  10.072   3.005 -0.7799 -0.0936 -0.1943
  125MOL0     C17144   6.035  10.121   3.095 -0.3068 -0.6266 -0.4452
  125MOL0     C17145   6.065  10.259   3.092  0.4406 -0.3731 -1.0145
  125MOL0     C17146   6.139  10.310   3.194 -0.2094 -0.1178 -0.0164
  125MOL0     C17147   6.199  10.228   3.293 -0.9933  0.3546  1.0340
  125MOL0     O17148   6.261  10.276   3.402  0.0222 -0.5051 -0.9776
  125MOL0     C17149   6.387  10.343   3.381  0.2494 -0.0962  0.4872
  125MOL0     C17150   6.477  10.327   3.505  0.0262  0.9613  0.3055
  125MOL0     C17151   6.566  10.443   3.526 -0.3896  0.7996 -0.6530
  125MOL0     C17152   6.616  10.435   3.670 -0.2177  0.3978 -0.3925
  125MOL0     C17153   6.715  10.539   3.707  0.5339  0.6827 -0.6674
  125MOL0     C17154   6.850  10.515   3.649 -0.2580 -0.2601  0.0685
  125MOL0     C17155   6.946  10.619   3.709 -0.1979  0.4845  0.6291
  125MOL0     C17156   7.085  10.594   3.647 -0.5375  0.2911 -0.2108
  125MOL0    Cl17157   7.160  10.462   3.731  0.3751 -0.3831  0.1580
  125MOL0     C17158   6.164  10.095   3.301 -0.1404 -0.1542 -0.0338
  125MOL0     C17159   6.087  10.039   3.199 -1.0193  0.5837  0.5418
  125MOL0     O17160   6.116  10.017   2.855 -0.2501  0.7301  1.2950
  125MOL0     C17161   5.790   9.869   2.906 -0.6636 -0.0816 -0.3144
  125MOL0     C17162   5.702   9.785   2.854 -0.5495  1.0885 -0.3361
  125MOL0     N17163   5.021   9.267   2.687  0.2775  0.9319  0.3969
  125MOL0     N17164   4.906   9.285   2.733 -0.0843 -0.2178  0.1288
  125MOL0     C17165   3.807   9.767   3.146  0.5194  0.3499  0.0763
  125MOL0     C17166   3.673   9.779   3.180  0.9590 -0.0245 -0.6076
  125MOL0     C17167   3.273   9.946   3.309  0.4128  0.3294 -0.0842
  125MOL0     C17168   3.178   9.895   3.215  0.5923  0.3065 -0.8009
  125MOL0     C17169   3.041   9.904   3.242 -0.3034  0.5980 -0.5230
  125MOL0     C17170   2.988   9.976   3.348 -0.5564  0.5826  0.0827
  125MOL0     O17171   2.856   9.992   3.367  0.1764 -1.3718 -0.2569
  125MOL0     C17172   2.763   9.986   3.265 -0.4955  0.4300 -0.6552
  125MOL0     C17173   2.715   9.840   3.225 -0.9374 -0.5200  0.4692
  125MOL0     C17174   2.566   9.854   3.189  1.0198 -0.5141  0.5707
  125MOL0     C17175   2.481   9.718   3.161  0.6182 -0.4978 -0.4839
  125MOL0     C17176   2.550   9.619   3.073 -0.5518 -0.2018 -0.3884
  125MOL0     C17177   2.603   9.536   3.002  0.8511  0.2067  0.4417
  125MOL0     C17178   3.082  10.019   3.445  1.0716 -0.3534 -0.4624
  125MOL0     C17179   3.225   9.998   3.433  0.4957  0.1650 -0.0661
  125MOL0     C17180   3.311  10.049   3.543  0.4120  0.4273  0.9813
  125MOL0     H17181   3.549  10.039   2.994 -1.6532 -1.9092  1.6086
  125MOL0     H17182   3.813  10.038   2.938  1.9431  2.2736  2.4709
  125MOL0     H17183   4.088   9.704   3.074  3.2934  0.1237 -1.3162
  125MOL0     H17184   4.127   9.867   3.144  1.7675 -1.0257 -0.7915
  125MOL0     H17185   4.155   9.791   2.863 -0.0536 -2.2931  2.6122
  125MOL0     H17186   4.207   9.945   2.928  3.8958 -0.0617  0.2099
  125MOL0     H17187   4.403   9.837   2.884 -0.6497 -2.5529 -1.1216
  125MOL0     H17188   4.395   9.817   3.060  1.4212 -1.6436  1.0745
  125MOL0     H17189   4.335   9.600   3.043  2.1574 -1.2590  0.2447
  125MOL0     H17190   4.299   9.616   2.862  0.8196  1.6413 -0.3093
  125MOL0     H17191   4.577   9.643   2.977  0.6031  0.0769 -1.5097
  125MOL0     H17192   4.529   9.656   2.816  1.4450  0.7067  0.9768
  125MOL0     H17193   4.467   9.411   2.987  2.0920 -0.9835 -0.0982
  125MOL0     H17194   4.481   9.419   2.805  1.1064 -0.9519 -0.4908
  125MOL0     H17195   4.668   9.290   2.880  0.8537  0.3343  0.6018
  125MOL0     H17196   4.716   9.439   2.974  0.3038  2.0263 -0.9360
  125MOL0     H17197   4.669   9.450   2.672  1.6184  5.3178 -2.8394
  125MOL0     H17198   4.741   9.578   2.769  0.3370  0.3873 -0.7743
  125MOL0     H17199   4.966   9.586   2.622  3.4341 -0.5203 -1.0000
  125MOL0     H17200   5.193   9.468   2.511 -2.2753 -0.7150 -0.3274
  125MOL0     H17201   5.248   9.314   2.593  1.4565 -0.5549 -0.3026
  125MOL0     H17202   5.246   9.598   2.705 -2.8539 -0.6425  0.8453
  125MOL0     H17203   5.281   9.458   2.803  0.3771 -1.4347 -0.3399
  125MOL0     H17204   5.474   9.404   2.697  1.5787  1.8424  2.9151
  125MOL0     H17205   5.451   9.510   2.554  2.6537 -1.2574  0.3580
  125MOL0     H17206   5.454   9.696   2.747 -0.6000  0.1440 -1.0258
  125MOL0     H17207   5.506   9.560   2.846 -2.1046 -3.5644 -1.0675
  125MOL0     H17208   5.885   9.609   2.649  1.5114  0.0217  1.0186
  125MOL0     H17209   6.185   9.821   2.731  1.5787  1.9723 -3.0690
  125MOL0     H17210   6.087   9.862   2.584 -0.0538 -0.0919  0.3307
  125MOL0     H17211   6.100   9.699   2.632 -1.9036 -0.5969  0.5016
  125MOL0     H17212   6.013  10.318   3.017 -0.1036 -1.5292 -1.5766
  125MOL0     H17213   6.157  10.417   3.182 -0.1861 -0.0864  0.2963
  125MOL0     H17214   6.441  10.294   3.299 -0.2746  0.3497 -0.1329
  125MOL0     H17215   6.373  10.451   3.382  2.0085  0.1633  1.7367
  125MOL0     H17216   6.415  10.317   3.594 -1.4921  0.2239 -0.7901
  125MOL0     H17217   6.533  10.233   3.497 -0.3732  0.5512  1.9379
  125MOL0     H17218   6.509  10.533   3.502 -0.1226  1.0294 -0.4430
  125MOL0     H17219   6.653  10.440   3.460  0.6159  1.4870  0.5914
  125MOL0     H17220   6.667  10.338   3.671  1.1831  1.1133 -0.4881
  125MOL0     H17221   6.531  10.451   3.737 -1.8151  2.0890 -2.6671
  125MOL0     H17222   6.678  10.640   3.686 -1.0314 -0.1958 -2.4367
  125MOL0     H17223   6.717  10.527   3.815 -3.6957 -0.5991 -0.5318
  125MOL0     H17224   6.845  10.518   3.540 -0.6022 -0.4890  0.0770
  125MOL0     H17225   6.885  10.415   3.676 -1.0318 -0.4460  0.3988
  125MOL0     H17226   6.956  10.604   3.817 -0.7704 -1.7108  0.4353
  125MOL0     H17227   6.915  10.718   3.676  0.4211  0.0413 -1.3875
  125MOL0     H17228   7.150  10.682   3.653  1.8386 -1.3402 -0.1905
  125MOL0     H17229   7.072  10.572   3.541 -5.0614 -1.2614  0.4567
  125MOL0     H17230   6.201  10.048   3.392  3.3887  2.3790  0.0809
  125MOL0     H17231   6.062   9.934   3.210  0.1961  0.1259 -0.6810
  125MOL0     H17232   5.756   9.936   2.985  0.4796 -0.1001  0.2180
  125MOL0     H17233   5.601   9.785   2.894 -0.5729  2.3465 -0.3506
  125MOL0     H17234   3.879   9.697   3.189  1.4447  1.5229  0.4938
  125MOL0     H17235   3.626   9.701   3.239 -0.1626  1.2407  0.2530
  125MOL0     H17236   3.222   9.845   3.129  2.7698  1.6857 -0.5680
  125MOL0     H17237   2.992   9.862   3.154 -0.0962 -0.0368 -0.3396
  125MOL0     H17238   2.681  10.031   3.322  0.0494 -1.0776  1.4497
  125MOL0     H17239   2.793  10.035   3.172 -2.9393 -0.1409 -1.8401
  125MOL0     H17240   2.718   9.763   3.302  0.3794  1.1631  2.1883
  125MOL0     H17241   2.770   9.807   3.137 -2.0554 -0.4642 -0.2726
  125MOL0     H17242   2.517   9.915   3.265  0.6072 -0.4160  0.2288
  125MOL0     H17243   2.570   9.914   3.098 -0.8215 -0.4257  0.5132
  125MOL0     H17244   2.380   9.744   3.128  0.3655  2.2801  2.0501
  125MOL0     H17245   2.473   9.660   3.253  1.8003 -1.5216 -1.0046
  125MOL0     H17246   2.647   9.471   2.930 -0.5359 -3.4406  2.6130
  125MOL0     H17247   3.044  10.078   3.527 -1.5840 -2.9037  0.2875
  125MOL0     H17248   3.244  10.083   3.623 -2.3400 -2.3660  0.0870
  125MOL0     H17249   3.376   9.981   3.599  2.0930  1.4830  0.3801
  125MOL0     H17250   3.368  10.141   3.527  2.2111 -0.6865  0.6510
  126MOL0     O17251   5.628   6.650   6.692  0.0926 -0.2904 -0.3119
  126MOL0     C17252   5.703   6.572   6.629  0.3345  0.2526  0.3824
  126MOL0     O17253   5.840   6.573   6.640  0.3446  0.1197  0.1394
  126MOL0     C17254   5.888   6.683   6.721  0.3727  0.2671  0.2553
  126MOL0     C17255   5.856   6.711   6.861 -0.3768 -0.0658 -1.0446
  126MOL0     C17256   5.928   6.808   6.941 -1.1020  0.1371  0.7215
  126MOL0     C17257   6.021   6.896   6.873  0.8039 -0.1314  0.2658
  126MOL0     O17258   6.087   7.002   6.936  0.6250  0.6055  0.5606
  126MOL0     C17259   6.160   6.968   7.058 -0.0880  0.4573  0.5843
  126MOL0     C17260   6.253   7.100   7.084  0.1561  0.3350 -0.1186
  126MOL0     C17261   6.352   7.139   6.968 -0.2366 -0.6508 -0.5349
  126MOL0     C17262   6.457   7.033   6.925 -0.5502  0.4187  0.0386
  126MOL0     C17263   6.571   7.065   6.825  0.9022  0.2251  0.0987
  126MOL0     C17264   6.616   6.941   6.753  0.6228 -0.0814 -0.5253
  126MOL0     C17265   6.724   6.975   6.653  0.1775  0.0544  0.8018
  126MOL0     C17266   6.846   7.042   6.717  0.4629 -0.0190 -0.1630
  126MOL0     N17267   6.931   6.944   6.783 -0.6170 -0.3568 -0.3500
  126MOL0     C17268   6.979   6.824   6.738 -0.4583  0.1124 -0.9742
  126MOL0     C17269   7.067   6.785   6.828  0.5489 -0.8354 -1.2524
  126MOL0     C17270   7.138   6.661   6.828  0.9060 -0.4404 -0.4499
  126MOL0     C17271   7.214   6.629   6.699 -0.1050  0.3498 -0.2266
  126MOL0     C17272   7.265   6.487   6.715 -0.1046  0.5199  0.4965
  126MOL0     C17273   7.354   6.450   6.587  0.9109 -0.2393  0.1910
  126MOL0     O17274   7.457   6.554   6.556 -0.7479 -0.1191  0.1781
  126MOL0     C17275   7.563   6.536   6.639 -0.1509 -0.1425 -0.4350
  126MOL0     C17276   7.629   6.421   6.664  0.6138 -0.3769  0.6427
  126MOL0     C17277   7.736   6.403   6.756 -0.0029  0.4229 -0.7327
  126MOL0     C17278   7.812   6.264   6.772 -0.3464 -0.0912  1.4150
  126MOL0     C17279   7.781   6.522   6.823 -0.0830 -0.0052  0.2384
  126MOL0     C17280   7.894   6.530   6.911 -0.3300  0.0209 -1.0232
  126MOL0     O17281   7.965   6.650   6.923  0.7735  0.3150 -1.1078
  126MOL0     C17282   8.022   6.685   7.036 -0.2152  0.9825 -0.7125
  126MOL0     C17283   8.157   6.682   7.053  0.4124 -0.0652  0.9488
  126MOL0     C17284   8.225   6.729   7.169 -0.7267  0.5360  0.9158
  126MOL0     C17285   8.141   6.773   7.273 -0.1856  0.2968 -0.4876
  126MOL0     O17286   8.180   6.807   7.403  0.7578 -0.1466 -0.3806
  126MOL0     C17287   8.248   6.932   7.392  0.0782  0.2227 -0.4873
  126MOL0     C17288   8.265   6.976   7.548  0.1094  1.1852  1.2316
  126MOL0     C17289   8.369   7.088   7.574 -0.6400 -1.1061 -0.2073
  126MOL0     C17290   8.509   7.058   7.527 -0.8159  0.4891 -0.0940
  126MOL0     C17291   8.603   7.140   7.609 -0.2776 -0.4285 -0.3349
  126MOL0     C17292   8.749   7.086   7.587  0.7190 -0.0009 -1.1084
  126MOL0     C17293   8.855   7.178   7.657  0.4840  0.3132 -0.0898
  126MOL0     C17294   8.992   7.115   7.673 -1.0041 -0.0371  0.1783
  126MOL0    Cl17295   9.068   7.109   7.511 -0.1228  0.1201 -0.5461
  126MOL0     C17296   8.004   6.780   7.254 -0.2807 -0.3458  0.3499
  126MOL0     C17297   7.940   6.726   7.144  0.3092 -0.2648 -0.0534
  126MOL0     O17298   7.907   6.432   6.993  0.6030  0.1415  1.0685
  126MOL0     C17299   7.713   6.645   6.802 -0.0722 -0.0551  0.1463
  126MOL0     C17300   7.616   6.651   6.704 -0.0429 -0.5574 -0.1416
  126MOL0     N17301   7.063   6.871   6.930  0.0914  0.4155 -0.0632
  126MOL0     N17302   6.987   6.969   6.905  0.6290  0.2375  0.1166
  126MOL0     C17303   6.033   6.875   6.734  0.2477 -0.2535 -0.6014
  126MOL0     C17304   5.979   6.777   6.658 -0.4253  0.6811 -0.7468
  126MOL0     C17305   5.638   6.473   6.542 -0.0077 -0.7233  0.0512
  126MOL0     C17306   5.525   6.521   6.474 -0.0824  0.4718 -0.0080
  126MOL0     C17307   5.442   6.438   6.396 -0.2111 -0.1580 -0.5210
  126MOL0     C17308   5.479   6.307   6.377  0.0859  0.3098 -0.3292
  126MOL0     O17309   5.401   6.216   6.300 -0.0425 -0.5158  0.2007
  126MOL0     C17310   5.338   6.261   6.172 -0.0929  0.1429  0.0905
  126MOL0     C17311   5.445   6.266   6.055  0.6274 -0.5040  0.0924
  126MOL0     C17312   5.372   6.297   5.917 -1.3182 -0.4936  0.4140
  126MOL0     C17313   5.484   6.324   5.812 -0.2982  0.4534  0.5352
  126MOL0     C17314   5.423   6.362   5.688  0.6503 -1.3037  0.3943
  126MOL0     C17315   5.360   6.390   5.588  0.3951  0.6425 -0.2139
  126MOL0     C17316   5.583   6.252   6.449 -0.2428  0.3617 -0.0412
  126MOL0     C17317   5.660   6.331   6.531 -0.2324 -1.2904 -0.9591
  126MOL0     C17318   5.773   6.269   6.620 -0.0769 -0.7231 -0.0658
  126MOL0     H17319   5.781   6.642   6.899  1.1780 -1.5913 -0.5761
  126MOL0     H17320   5.924   6.815   7.050  2.7397 -1.4584  1.1397
  126MOL0     H17321   6.231   6.886   7.042 -0.2915  0.7232 -2.2460
  126MOL0     H17322   6.104   6.938   7.147  2.8059 -0.0714  2.3787
  126MOL0     H17323   6.193   7.187   7.113 -1.3493 -0.7571  0.1544
  126MOL0     H17324   6.313   7.072   7.171 -1.9310 -0.6143  1.0896
  126MOL0     H17325   6.297   7.174   6.880  0.3407  1.6589 -0.0661
  126MOL0     H17326   6.410   7.226   7.004 -0.2111 -2.6878  5.6077
  126MOL0     H17327   6.500   6.999   7.019 -0.3824  0.0289 -0.1778
  126MOL0     H17328   6.403   6.947   6.885 -0.9615  0.7014 -0.0185
  126MOL0     H17329   6.658   7.108   6.875  0.3630  0.2064  1.0789
  126MOL0     H17330   6.529   7.138   6.755  0.2489  2.0815  2.2888
  126MOL0     H17331   6.655   6.864   6.820  0.7414 -0.5740 -1.1497
  126MOL0     H17332   6.536   6.896   6.694  1.1168  2.2803 -3.2109
  126MOL0     H17333   6.671   7.029   6.574 -1.1886 -0.4491  1.3472
  126MOL0     H17334   6.749   6.880   6.604 -2.6681 -0.9386  1.0979
  126MOL0     H17335   6.900   7.090   6.635 -0.0314  2.8938  1.0749
  126MOL0     H17336   6.821   7.133   6.772 -0.8208  1.9997 -3.7541
  126MOL0     H17337   6.958   6.765   6.650  0.5529 -0.3440 -0.9319
  126MOL0     H17338   7.066   6.579   6.838  0.6670 -0.3951 -1.6415
  126MOL0     H17339   7.215   6.654   6.906  0.4096  2.7984  0.4511
  126MOL0     H17340   7.157   6.634   6.606 -1.1051 -1.0227  0.2784
  126MOL0     H17341   7.292   6.705   6.693 -0.6310  0.9003 -0.1592
  126MOL0     H17342   7.332   6.487   6.802  0.4914 -1.6934  0.1188
  126MOL0     H17343   7.181   6.418   6.725 -1.8084  2.8321  3.7374
  126MOL0     H17344   7.385   6.345   6.590  0.6337 -0.4404 -2.2444
  126MOL0     H17345   7.287   6.445   6.501  0.1004  1.4931  0.6768
  126MOL0     H17346   7.589   6.331   6.618 -0.8030  0.1677  0.7376
  126MOL0     H17347   7.749   6.189   6.723  2.1105  0.3690 -2.9406
  126MOL0     H17348   7.825   6.226   6.874  0.1340  1.1566  1.8341
  126MOL0     H17349   7.907   6.268   6.720 -1.2360 -0.9871 -0.3720
  126MOL0     H17350   8.219   6.647   6.971 -2.0155 -2.4203 -0.0166
  126MOL0     H17351   8.334   6.727   7.164 -0.7572  0.3511 -0.0551
  126MOL0     H17352   8.345   6.923   7.343 -0.1816  1.2302 -1.2163
  126MOL0     H17353   8.195   7.009   7.335  0.5234  0.7045 -0.2514
  126MOL0     H17354   8.162   7.005   7.567 -1.0271 -0.6604 -1.5648
  126MOL0     H17355   8.296   6.889   7.607  1.0694 -0.5574 -1.6188
  126MOL0     H17356   8.351   7.117   7.678  0.3431  0.8516 -0.5303
  126MOL0     H17357   8.337   7.179   7.521  3.5347  1.2830  0.9371
  126MOL0     H17358   8.509   7.072   7.418 -1.7161 -0.3187 -0.2097
  126MOL0     H17359   8.532   6.953   7.549  0.2761  0.1195 -2.6293
  126MOL0     H17360   8.604   7.247   7.585  1.1186 -0.0344  1.3284
  126MOL0     H17361   8.588   7.136   7.717  1.1353  2.6944  0.1153
  126MOL0     H17362   8.752   7.059   7.481  1.0919 -1.3599 -0.7697
  126MOL0     H17363   8.755   6.992   7.643 -0.3789  0.4148 -0.2538
  126MOL0     H17364   8.808   7.203   7.752  0.6271  0.7182 -0.1222
  126MOL0     H17365   8.860   7.260   7.584 -1.8240 -2.3809 -3.6614
  126MOL0     H17366   8.983   7.010   7.705  1.5554 -0.1787  0.6223
  126MOL0     H17367   9.051   7.168   7.748  0.1881 -2.5913  1.1462
  126MOL0     H17368   7.941   6.817   7.333 -3.0983 -0.1680 -1.8399
  126MOL0     H17369   7.834   6.746   7.134  0.4241  0.4141  0.0680
  126MOL0     H17370   7.743   6.738   6.848  1.3891  0.4263 -1.6577
  126MOL0     H17371   7.576   6.750   6.684 -0.3336 -0.0028  2.7645
  126MOL0     H17372   6.089   6.946   6.674  0.6280 -0.8564 -0.9734
  126MOL0     H17373   6.013   6.765   6.556 -1.3896 -4.6134 -0.7246
  126MOL0     H17374   5.503   6.627   6.478  1.4302  0.9514 -2.5431
  126MOL0     H17375   5.352   6.475   6.347 -2.1354 -1.0167  2.1153
  126MOL0     H17376   5.265   6.182   6.150  1.7977 -1.0962 -2.1290
  126MOL0     H17377   5.288   6.358   6.184 -0.4363 -0.1225  0.9164
  126MOL0     H17378   5.490   6.166   6.053  1.3174 -0.1897 -0.8367
  126MOL0     H17379   5.515   6.348   6.069 -1.0022  0.9328  0.0985
  126MOL0     H17380   5.316   6.211   5.879  2.9274 -1.5530 -4.7163
  126MOL0     H17381   5.304   6.382   5.927 -0.7988 -0.0463  0.2472
  126MOL0     H17382   5.542   6.233   5.791  3.1962  1.8691  3.1735
  126MOL0     H17383   5.545   6.402   5.857 -1.0348  1.6009 -0.3847
  126MOL0     H17384   5.303   6.419   5.502 -2.3608 -3.4799 -0.0778
  126MOL0     H17385   5.596   6.144   6.451  2.9786  0.6650  0.7447
  126MOL0     H17386   5.875   6.305   6.600  0.6855 -2.9950 -0.5597
  126MOL0     H17387   5.745   6.300   6.720 -2.4196 -2.0435 -0.2587
  126MOL0     H17388   5.785   6.161   6.613 -3.8405 -1.1461 -2.2645
  127MOL0     O17389   1.449   8.080   1.791  0.1885  0.1950 -0.1327
  127MOL0     C17390   1.391   8.003   1.717  0.1235  0.3578 -0.1616
  127MOL0     O17391   1.405   8.006   1.584  0.3429  0.3453  0.9197
  127MOL0     C17392   1.495   8.102   1.525  0.7616  0.3360 -0.2139
  127MOL0     C17393   1.441   8.222   1.474  0.0478  0.2198 -0.1599
  127MOL0     C17394   1.514   8.311   1.399 -0.9364  0.2746  0.4555
  127MOL0     C17395   1.652   8.288   1.384 -0.4955 -1.1029  0.0722
  127MOL0     O17396   1.734   8.363   1.313 -0.0725 -0.1567  0.5154
  127MOL0     C17397   1.692   8.478   1.236 -1.3121 -0.7292 -0.5465
  127MOL0     C17398   1.816   8.525   1.145 -0.0959  0.0538 -1.0848
  127MOL0     C17399   1.944   8.556   1.226 -0.9489 -0.6171 -0.4215
  127MOL0     C17400   1.917   8.678   1.313 -0.3029 -0.9558 -0.2774
  127MOL0     C17401   2.056   8.731   1.347 -0.3926  0.3872  0.0704
  127MOL0     C17402   2.033   8.846   1.445 -0.0057  0.0815  0.9329
  127MOL0     C17403   1.992   8.827   1.590 -0.7332  0.3057  0.1622
  127MOL0     C17404   2.109   8.800   1.687  0.9714  0.3301  0.7185
  127MOL0     N17405   2.052   8.798   1.826 -0.7364 -0.4009  0.9252
  127MOL0     C17406   2.038   8.691   1.921  0.4210 -0.7277 -0.5929
  127MOL0     C17407   2.026   8.750   2.045  0.3135 -0.8523 -0.0341
  127MOL0     C17408   2.028   8.673   2.170  0.7152  0.0365  0.1538
  127MOL0     C17409   1.890   8.679   2.222  0.7060  0.3142 -0.9930
  127MOL0     C17410   1.860   8.800   2.323  0.0316 -0.3856  1.0484
  127MOL0     C17411   1.724   8.790   2.386  0.1171 -0.1127 -0.0329
  127MOL0     O17412   1.614   8.781   2.293 -0.1741 -0.3255  0.3278
  127MOL0     C17413   1.495   8.814   2.352  0.2879  1.1090 -0.2072
  127MOL0     C17414   1.438   8.737   2.463  0.3373 -0.7325 -0.0404
  127MOL0     C17415   1.320   8.776   2.529  1.1405  1.2535  0.9960
  127MOL0     C17416   1.295   8.718   2.663 -0.5869  0.3770  0.3824
  127MOL0     C17417   1.237   8.872   2.468 -0.3512  0.6990  0.9082
  127MOL0     C17418   1.109   8.905   2.518 -1.1508  0.2948 -0.5319
  127MOL0     O17419   1.097   8.905   2.652 -0.0670 -0.8195 -0.8271
  127MOL0     C17420   0.972   8.899   2.693  0.3420 -0.1096  0.2973
  127MOL0     C17421   0.889   9.012   2.713 -0.4353 -0.8101 -0.7455
  127MOL0     C17422   0.760   8.986   2.768  0.3108 -0.5875 -0.9842
  127MOL0     C17423   0.708   8.856   2.791 -0.0456  0.5083 -1.2956
  127MOL0     O17424   0.574   8.831   2.826  0.4173  0.8198 -0.0995
  127MOL0     C17425   0.517   8.699   2.828 -0.2006  0.3781  0.0358
  127MOL0     C17426   0.371   8.705   2.880 -0.6800  0.3200  0.7778
  127MOL0     C17427   0.395   8.721   3.037  0.0316 -0.1774 -0.0720
  127MOL0     C17428   0.268   8.783   3.101 -0.6184  0.1772 -0.4507
  127MOL0     C17429   0.272   8.793   3.253 -0.6143 -0.9567  0.7310
  127MOL0     C17430   0.226   8.666   3.327 -0.1578 -0.7820  0.2197
  127MOL0     C17431   0.272   8.678   3.470  0.5943  0.3847  0.3900
  127MOL0     C17432   0.211   8.557   3.553 -1.0097 -1.4628  0.7943
  127MOL0    Cl17433   0.034   8.556   3.551 -0.3212 -0.0790 -0.0917
  127MOL0     C17434   0.801   8.754   2.779  0.4653 -0.3141 -0.4114
  127MOL0     C17435   0.927   8.774   2.723  0.8582 -0.3783 -0.0895
  127MOL0     O17436   1.017   8.909   2.436  0.0259  0.5877  0.1053
  127MOL0     C17437   1.288   8.943   2.354 -1.4116  0.7737  0.1646
  127MOL0     C17438   1.414   8.911   2.294 -0.0964 -0.6563  0.1837
  127MOL0     N17439   2.013   8.884   2.029 -0.9284  0.6129  0.4658
  127MOL0     N17440   2.022   8.907   1.900 -0.5330  0.4910 -0.9896
  127MOL0     C17441   1.709   8.168   1.436  0.1133 -0.1278  1.1144
  127MOL0     C17442   1.626   8.071   1.502 -0.2016 -0.6773  0.4698
  127MOL0     C17443   1.322   7.875   1.760 -0.3387  0.1464 -0.1344
  127MOL0     C17444   1.353   7.756   1.701 -0.3366  0.0453  0.3494
  127MOL0     C17445   1.287   7.643   1.735  0.2919  0.1586  0.4108
  127MOL0     C17446   1.178   7.652   1.832  0.2337 -0.4490  0.2345
  127MOL0     O17447   1.129   7.536   1.876 -0.4901  0.2011 -0.4970
  127MOL0     C17448   1.094   7.515   2.015  1.0382  0.6048 -0.0819
  127MOL0     C17449   1.220   7.493   2.090  0.3091  0.6570 -0.0394
  127MOL0     C17450   1.185   7.420   2.222  0.0302 -0.6112 -0.0060
  127MOL0     C17451   1.190   7.270   2.205 -0.0356  0.3329  0.2306
  127MOL0     C17452   1.331   7.223   2.196  0.2020 -0.3898 -1.3696
  127MOL0     C17453   1.437   7.166   2.181 -1.0116 -1.0055 -0.0701
  127MOL0     C17454   1.143   7.777   1.892  0.2338  0.6428 -0.1995
  127MOL0     C17455   1.216   7.888   1.859 -1.0300 -0.1297  0.3426
  127MOL0     C17456   1.181   8.026   1.910 -0.3490 -0.7623 -0.6714
  127MOL0     H17457   1.337   8.253   1.480  0.3886  1.9451 -1.8776
  127MOL0     H17458   1.479   8.405   1.357  1.0265  1.4067  1.2549
  127MOL0     H17459   1.661   8.556   1.306 -1.4840 -0.0431 -1.3746
  127MOL0     H17460   1.615   8.460   1.160 -1.3392  1.3741 -1.0907
  127MOL0     H17461   1.837   8.444   1.075 -0.0205 -0.8586 -0.0433
  127MOL0     H17462   1.778   8.614   1.095 -1.5742  2.5972  3.8563
  127MOL0     H17463   1.986   8.474   1.284  2.6336  1.4334  0.1695
  127MOL0     H17464   2.025   8.582   1.157 -0.4681  2.0894  1.0215
  127MOL0     H17465   1.871   8.755   1.250  1.3971 -0.8350 -1.4138
  127MOL0     H17466   1.851   8.658   1.398 -1.2191 -1.7202 -1.1307
  127MOL0     H17467   2.109   8.772   1.260 -0.1292  3.2793  1.4866
  127MOL0     H17468   2.113   8.652   1.397 -2.0139  0.4903  2.2118
  127MOL0     H17469   2.124   8.907   1.438  0.4560 -0.6180  0.8019
  127MOL0     H17470   1.958   8.916   1.406  0.3034 -0.8740 -1.5373
  127MOL0     H17471   1.927   8.740   1.580  0.7073 -1.0322  1.8447
  127MOL0     H17472   1.940   8.912   1.636 -1.1059  0.2313 -0.1151
  127MOL0     H17473   2.164   8.707   1.666 -0.5266 -0.1728 -1.2856
  127MOL0     H17474   2.182   8.882   1.680  0.0482  1.0122 -2.3545
  127MOL0     H17475   2.052   8.586   1.901  2.1600 -0.6574  0.1037
  127MOL0     H17476   2.100   8.719   2.238  1.1589 -1.9234  1.0964
  127MOL0     H17477   2.054   8.568   2.149  1.7502  0.2565  0.2860
  127MOL0     H17478   1.822   8.682   2.137 -0.1150  0.8918 -0.3370
  127MOL0     H17479   1.879   8.591   2.287  0.2498  0.0993 -1.3524
  127MOL0     H17480   1.942   8.814   2.394  2.9857  1.5421 -2.4247
  127MOL0     H17481   1.855   8.893   2.266  1.8713 -0.6265  0.4426
  127MOL0     H17482   1.723   8.695   2.439 -1.7211 -1.3362 -2.0597
  127MOL0     H17483   1.714   8.869   2.460 -3.2460  1.3523 -1.8122
  127MOL0     H17484   1.482   8.650   2.510 -0.1231  0.7361  3.4343
  127MOL0     H17485   1.198   8.668   2.659 -0.0756 -0.5727 -2.5726
  127MOL0     H17486   1.299   8.808   2.724 -2.6144  2.7378 -2.6683
  127MOL0     H17487   1.372   8.648   2.697  1.6431  2.0266 -0.9825
  127MOL0     H17488   0.927   9.114   2.704 -2.8880  0.3981  1.3046
  127MOL0     H17489   0.697   9.073   2.781 -0.4917 -1.3254  0.2019
  127MOL0     H17490   0.537   8.642   2.737 -0.6165 -0.2598  0.3441
  127MOL0     H17491   0.571   8.643   2.905 -1.2729  1.7505  1.8593
  127MOL0     H17492   0.301   8.779   2.838  0.3922  1.7395  1.4035
  127MOL0     H17493   0.324   8.612   2.845  0.2206  0.2680 -0.3540
  127MOL0     H17494   0.477   8.792   3.046 -0.8069  0.6369  1.7652
  127MOL0     H17495   0.418   8.623   3.080 -3.9267 -1.0164  0.5257
  127MOL0     H17496   0.179   8.723   3.079  0.6011 -2.6235  1.6323
  127MOL0     H17497   0.250   8.883   3.059  0.9575  0.7874  0.2487
  127MOL0     H17498   0.375   8.816   3.283 -0.5329 -0.2603 -0.0559
  127MOL0     H17499   0.211   8.879   3.282 -0.7564 -0.3749 -1.1778
  127MOL0     H17500   0.261   8.580   3.270  0.4625  1.7061 -3.4851
  127MOL0     H17501   0.118   8.653   3.317 -0.2183 -0.2352  0.1049
  127MOL0     H17502   0.253   8.778   3.511  2.8855  0.0954  2.4196
  127MOL0     H17503   0.381   8.668   3.467  0.5027 -0.7939  0.6593
  127MOL0     H17504   0.263   8.552   3.649  0.2676 -1.2282  0.1411
  127MOL0     H17505   0.245   8.469   3.497  1.9404 -0.5460  0.9451
  127MOL0     H17506   0.781   8.651   2.808 -2.9591 -1.0441 -4.3019
  127MOL0     H17507   0.998   8.693   2.715 -2.1240 -3.2785  0.8456
  127MOL0     H17508   1.231   9.017   2.300  0.3765  1.8139 -0.3948
  127MOL0     H17509   1.456   8.961   2.207  0.3870  1.2824  1.4683
  127MOL0     H17510   1.812   8.150   1.408  0.1985 -0.9475  1.9237
  127MOL0     H17511   1.669   7.980   1.542 -0.6950 -0.5063  1.4069
  127MOL0     H17512   1.435   7.749   1.630 -0.2455 -1.6927  0.5822
  127MOL0     H17513   1.334   7.553   1.696  1.7460  1.3698 -0.7601
  127MOL0     H17514   1.027   7.592   2.054  1.2012 -0.5396  2.6349
  127MOL0     H17515   1.035   7.423   2.023 -2.3111  2.7830  3.2491
  127MOL0     H17516   1.272   7.587   2.111 -0.3204  1.4519 -1.8375
  127MOL0     H17517   1.281   7.436   2.020  0.7713  0.9001  0.1605
  127MOL0     H17518   1.261   7.450   2.295 -1.1447  0.8168  0.6740
  127MOL0     H17519   1.085   7.447   2.256  0.6977 -0.8498  2.3158
  127MOL0     H17520   1.128   7.225   2.126 -1.2050 -0.4979  1.5818
  127MOL0     H17521   1.134   7.226   2.288  1.2354 -6.4586 -1.8761
  127MOL0     H17522   1.534   7.126   2.163 -0.9551 -0.4015 -1.1566
  127MOL0     H17523   1.062   7.804   1.959  0.3134 -0.4121  0.3483
  127MOL0     H17524   1.256   8.059   1.983 -2.3314  0.5817  0.8771
  127MOL0     H17525   1.189   8.103   1.832  0.9907 -0.8077 -0.6033
  127MOL0     H17526   1.082   8.027   1.956 -0.2181  0.9731 -0.3579
  128MOL0     O17527   9.061  10.465  10.730  0.0292  0.2820 -0.4990
  128MOL0     C17528   9.047  10.572  10.787 -0.2330 -0.6640 -1.0588
  128MOL0     O17529   9.103  10.610  10.908  0.7377  0.4063 -0.2780
  128MOL0     C17530   9.187  10.529  10.985  0.6556 -0.0012 -0.1645
  128MOL0     C17531   9.289  10.596  11.057 -0.3891 -0.1034  0.5687
  128MOL0     C17532   9.384  10.522  11.134  0.2870  0.1648 -0.1851
  128MOL0     C17533   9.377  10.383  11.137  0.0039 -0.4270 -0.6698
  128MOL0     O17534   9.483  10.308  11.190 -0.2247  0.3900  0.4104
  128MOL0     C17535   9.604  10.360  11.248 -0.5336 -0.3640  0.7751
  128MOL0     C17536   9.698  10.418  11.139  0.6234 -0.0199 -0.1065
  128MOL0     C17537   9.790  10.523  11.205  0.0983  0.5841 -0.1458
  128MOL0     C17538   9.878  10.463  11.317  0.8819 -0.4028  0.3701
  128MOL0     C17539   9.999  10.544  11.353 -0.2353  0.4519 -0.0219
  128MOL0     C17540   9.968  10.686  11.407 -0.4617 -0.4199 -0.1131
  128MOL0     C17541  10.103  10.758  11.441 -0.1173 -0.3916  0.3456
  128MOL0     C17542  10.175  10.804  11.313  0.1289 -0.7041  0.8017
  128MOL0     N17543  10.092  10.891  11.223  0.3820 -0.1294  0.5108
  128MOL0     C17544  10.065  11.026  11.239  0.3836  0.6605  0.2094
  128MOL0     C17545   9.989  11.069  11.139  0.3001 -0.7198 -0.2134
  128MOL0     C17546   9.931  11.201  11.123  0.3679 -0.7303  0.5280
  128MOL0     C17547   9.876  11.267  11.250  0.1307 -0.1589  0.3139
  128MOL0     C17548   9.847  11.417  11.228 -0.1667  0.0999  0.6214
  128MOL0     C17549   9.976  11.495  11.272  0.2997  0.4077  0.3290
  128MOL0     O17550   9.980  11.638  11.255 -0.4118 -0.1718 -0.3739
  128MOL0     C17551  10.090  11.712  11.295 -0.4403  0.7687 -0.9261
  128MOL0     C17552  10.220  11.659  11.315  0.4112  0.1601 -0.4628
  128MOL0     C17553  10.334  11.726  11.353 -0.7423 -0.2482  0.1529
  128MOL0     C17554  10.464  11.646  11.380  0.9191 -0.4140 -1.0157
  128MOL0     C17555  10.325  11.867  11.378  0.2931 -0.0415 -0.4438
  128MOL0     C17556  10.441  11.951  11.401  0.0619  0.8139 -0.6232
  128MOL0     O17557  10.427  12.046  11.500 -0.2017 -0.0180  1.5044
  128MOL0     C17558  10.528  12.135  11.520 -1.0856 -0.3912 -0.3361
  128MOL0     C17559  10.585  12.215  11.423 -0.7307 -0.4621  0.3993
  128MOL0     C17560  10.699  12.296  11.451  0.5953  0.1940 -0.0322
  128MOL0     C17561  10.754  12.291  11.585 -0.2381 -0.4667  0.7095
  128MOL0     O17562  10.887  12.335  11.617 -0.2346  0.1230  0.4049
  128MOL0     C17563  10.954  12.407  11.509 -0.6983  0.2676  0.2367
  128MOL0     C17564  11.069  12.477  11.568 -0.1480 -0.1341  0.2615
  128MOL0     C17565  11.154  12.569  11.475 -0.1915  0.5878 -0.2960
  128MOL0     C17566  11.277  12.618  11.542 -1.0266 -0.1994  0.5826
  128MOL0     C17567  11.345  12.716  11.445  1.1070  0.7881  0.5112
  128MOL0     C17568  11.483  12.746  11.493  0.2371 -0.1475  0.0469
  128MOL0     C17569  11.549  12.833  11.388 -0.5992 -1.5891 -0.4221
  128MOL0     C17570  11.687  12.867  11.429 -0.0909 -0.1637 -0.6414
  128MOL0    Cl17571  11.693  12.997  11.559  0.1051 -0.4419 -0.0323
  128MOL0     C17572  10.697  12.205  11.680 -0.5176 -0.3972  0.6898
  128MOL0     C17573  10.578  12.129  11.655 -0.1103  0.4279 -0.1001
  128MOL0     O17574  10.532  11.934  11.325  0.4724 -0.2069  0.1192
  128MOL0     C17575  10.195  11.924  11.363 -0.4272  0.2350  0.1679
  128MOL0     C17576  10.081  11.849  11.321  0.1760 -0.3810 -0.1960
  128MOL0     N17577   9.959  10.962  11.066  0.1174  0.3085  0.8862
  128MOL0     N17578  10.013  10.853  11.110  0.0192  0.3962  0.0861
  128MOL0     C17579   9.274  10.318  11.070  0.2903 -0.1114  0.0572
  128MOL0     C17580   9.180  10.393  10.992 -0.5335  0.5519 -0.0719
  128MOL0     C17581   8.994  10.679  10.698  0.6428 -0.2745 -0.6616
  128MOL0     C17582   9.043  10.810  10.701  0.8218  0.8163 -0.5026
  128MOL0     C17583   8.995  10.909  10.619  0.3836  0.5332  0.4752
  128MOL0     C17584   8.889  10.883  10.523 -0.1425 -0.5205 -0.1407
  128MOL0     O17585   8.863  10.985  10.425  0.0623  0.8260 -0.1168
  128MOL0     C17586   8.754  10.963  10.334  0.0423  0.4685  0.1816
  128MOL0     C17587   8.749  11.089  10.246 -0.3661  0.3679  0.1292
  128MOL0     C17588   8.654  11.197  10.295 -0.2236 -0.8703 -0.2138
  128MOL0     C17589   8.675  11.339  10.257  0.6224 -0.3412 -0.4135
  128MOL0     C17590   8.619  11.366  10.125 -0.0809  0.7094 -0.0926
  128MOL0     C17591   8.571  11.376  10.012  0.3815 -0.0813 -0.7758
  128MOL0     C17592   8.828  10.750  10.519  0.3509  1.0871 -0.2061
  128MOL0     C17593   8.883  10.656  10.611  0.1215  0.1580  0.0595
  128MOL0     C17594   8.803  10.527  10.609 -1.1146  0.2350  0.8238
  128MOL0     H17595   9.303  10.702  11.041  1.7435 -0.5575 -1.1192
  128MOL0     H17596   9.449  10.573  11.205 -1.4803  2.3518 -0.0508
  128MOL0     H17597   9.658  10.270  11.279 -0.6770  0.4271  3.5739
  128MOL0     H17598   9.584  10.432  11.328  0.2276  1.5078 -0.6389
  128MOL0     H17599   9.762  10.335  11.109  2.4926  0.8002  1.4038
  128MOL0     H17600   9.647  10.473  11.059  0.5129 -0.3431 -0.2583
  128MOL0     H17601   9.852  10.571  11.128  0.0375  1.1106  0.1297
  128MOL0     H17602   9.727  10.601  11.248  1.8026  1.7871  0.3093
  128MOL0     H17603   9.809  10.434  11.396 -0.7145  1.8568 -0.0952
  128MOL0     H17604   9.930  10.375  11.278 -5.1541 -4.3141 -0.0982
  128MOL0     H17605  10.059  10.564  11.264  1.7950  0.2761  1.2296
  128MOL0     H17606  10.056  10.493  11.432  0.0642 -0.5844 -0.8864
  128MOL0     H17607   9.910  10.746  11.336  2.3214 -0.2182 -2.3768
  128MOL0     H17608   9.915  10.671  11.502  0.6545 -1.1209  0.4156
  128MOL0     H17609  10.166  10.689  11.498 -0.9551 -1.4267  0.0523
  128MOL0     H17610  10.081  10.835  11.516  0.6840 -1.6867  1.9712
  128MOL0     H17611  10.267  10.853  11.344 -1.1464  1.1627  1.8078
  128MOL0     H17612  10.206  10.716  11.256 -0.9694  0.1575 -1.2665
  128MOL0     H17613  10.100  11.080  11.327  0.1837  1.9563 -0.4818
  128MOL0     H17614   9.840  11.184  11.063 -0.2420 -1.9493  1.7202
  128MOL0     H17615  10.000  11.265  11.068  2.9893 -2.4895  1.5983
  128MOL0     H17616   9.785  11.217  11.287  1.3451 -1.3399  1.8410
  128MOL0     H17617   9.948  11.275  11.332  0.0035 -0.9074  0.5127
  128MOL0     H17618   9.807  11.439  11.129 -1.7672  0.5468  1.3462
  128MOL0     H17619   9.777  11.446  11.307 -1.5122 -1.8996  0.2475
  128MOL0     H17620   9.993  11.463  11.375 -0.7572  0.2636  0.4667
  128MOL0     H17621  10.049  11.461  11.197  0.5336  1.0049  0.2806
  128MOL0     H17622  10.238  11.552  11.306  0.9223  0.4224 -4.0648
  128MOL0     H17623  10.435  11.541  11.381  1.5480 -0.5926 -0.4943
  128MOL0     H17624  10.494  11.663  11.483 -1.1699  1.2605 -0.6109
  128MOL0     H17625  10.551  11.662  11.316  1.8089  2.7983  0.7570
  128MOL0     H17626  10.535  12.218  11.327 -0.9652 -0.7928  0.5077
  128MOL0     H17627  10.743  12.362  11.377 -3.5499  1.1510 -1.9310
  128MOL0     H17628  10.991  12.340  11.431  3.1517 -0.3897  2.3680
  128MOL0     H17629  10.880  12.479  11.473 -1.6300  1.2979  3.8028
  128MOL0     H17630  11.037  12.533  11.657  2.9744  1.5464  0.4715
  128MOL0     H17631  11.139  12.398  11.598  3.0830  1.6519 -2.0090
  128MOL0     H17632  11.097  12.654  11.434 -0.3140  0.5330 -0.2417
  128MOL0     H17633  11.170  12.510  11.385 -2.4099 -0.2038 -0.2307
  128MOL0     H17634  11.346  12.535  11.561  0.2347  0.9679  1.3581
  128MOL0     H17635  11.260  12.659  11.642  2.0915 -1.5159  1.8139
  128MOL0     H17636  11.352  12.680  11.342  4.6930  0.9502  0.5791
  128MOL0     H17637  11.282  12.805  11.436 -0.7039 -0.5809 -1.1628
  128MOL0     H17638  11.540  12.653  11.505  2.2357  0.9477 -0.5759
  128MOL0     H17639  11.471  12.787  11.594 -0.7181  0.3533 -0.2609
  128MOL0     H17640  11.491  12.922  11.362 -0.4293 -2.6517 -5.4346
  128MOL0     H17641  11.553  12.766  11.302  0.3559 -1.8043 -0.2149
  128MOL0     H17642  11.755  12.899  11.350 -0.9012  0.1548 -1.2300
  128MOL0     H17643  11.729  12.777  11.476 -4.7098 -0.1842  4.6003
  128MOL0     H17644  10.754  12.169  11.765 -0.1580 -0.6772  0.3361
  128MOL0     H17645  10.536  12.063  11.731 -0.1008  0.2431 -0.2570
  128MOL0     H17646  10.188  12.028  11.394  1.4262  0.4052  0.1615
  128MOL0     H17647   9.981  11.884  11.298  0.4789  0.0435 -0.9061
  128MOL0     H17648   9.273  10.210  11.079 -1.7101 -0.1863 -0.5865
  128MOL0     H17649   9.104  10.339  10.937  1.4491  1.8755 -4.5403
  128MOL0     H17650   9.125  10.819  10.771  0.6159  0.7432 -0.2518
  128MOL0     H17651   9.041  11.007  10.622  3.8407 -0.7988 -2.4183
  128MOL0     H17652   8.779  10.878  10.270 -1.7495 -0.8258  1.0950
  128MOL0     H17653   8.667  10.931  10.392  1.5900  2.0693  3.7421
  128MOL0     H17654   8.714  11.061  10.146  1.1886 -0.3059 -0.2613
  128MOL0     H17655   8.846  11.137  10.228 -0.3972 -0.0226 -1.2187
  128MOL0     H17656   8.554  11.165  10.265  0.3518 -1.0862 -2.0404
  128MOL0     H17657   8.660  11.199  10.404  2.8689 -0.4735 -0.2876
  128MOL0     H17658   8.778  11.375  10.265 -1.3576  6.2473  1.0799
  128MOL0     H17659   8.626  11.416  10.317  3.6647  2.0432 -0.7365
  128MOL0     H17660   8.531  11.384   9.913  1.6730 -0.6008 -1.3558
  128MOL0     H17661   8.749  10.713  10.454  0.7160  0.5048 -0.3155
  128MOL0     H17662   8.698  10.543  10.585 -0.9537 -0.7251 -0.6679
  128MOL0     H17663   8.845  10.465  10.529  1.2544  2.8186 -0.1334
  128MOL0     H17664   8.812  10.490  10.711 -1.1247 -0.7949  0.4553
  129MOL0     O17665  10.988   8.713   7.712 -0.0299 -0.0528  0.1303
  129MOL0     C17666  10.866   8.692   7.713 -0.3045 -0.7184  0.4815
  129MOL0     O17667  10.801   8.609   7.626 -0.1771  0.1959  0.6887
  129MOL0     C17668  10.884   8.534   7.550  0.4483  0.7079 -0.0036
  129MOL0     C17669  10.898   8.575   7.412 -0.0171 -0.4756 -0.4860
  129MOL0     C17670  10.974   8.494   7.328 -0.3475  0.9812 -0.1042
  129MOL0     C17671  11.032   8.371   7.380 -0.2089 -1.4973  0.6173
  129MOL0     O17672  11.102   8.280   7.302  0.2096  0.0283  0.3769
  129MOL0     C17673  11.212   8.332   7.220  0.6417  0.2794 -0.0579
  129MOL0     C17674  11.335   8.338   7.311  0.6676  0.8470 -0.1647
  129MOL0     C17675  11.460   8.394   7.252 -0.1214 -0.0972 -0.8113
  129MOL0     C17676  11.555   8.421   7.366  0.1693  0.0438  0.3514
  129MOL0     C17677  11.704   8.429   7.322  0.6531 -0.2920 -0.5661
  129MOL0     C17678  11.728   8.558   7.232  0.2040  0.2991 -0.1786
  129MOL0     C17679  11.870   8.548   7.182 -0.4795 -0.4818  0.3876
  129MOL0     C17680  11.901   8.678   7.113 -0.6173 -0.1710  1.0272
  129MOL0     N17681  12.038   8.679   7.048 -0.8108  0.8085  0.0479
  129MOL0     C17682  12.126   8.786   7.050  0.8084  0.3864  0.0005
  129MOL0     C17683  12.235   8.744   6.999 -0.0969 -0.1471  0.4398
  129MOL0     C17684  12.357   8.827   6.998 -0.1455 -0.3072 -0.2145
  129MOL0     C17685  12.457   8.795   7.113 -0.6967  0.4553  0.5571
  129MOL0     C17686  12.403   8.776   7.260 -1.0711  0.1291 -0.2838
  129MOL0     C17687  12.514   8.775   7.369  0.4037  0.4754 -0.3239
  129MOL0     O17688  12.605   8.885   7.348 -0.1414 -0.4529 -0.4935
  129MOL0     C17689  12.707   8.901   7.440  0.3501 -0.4335  0.7873
  129MOL0     C17690  12.805   8.993   7.407  0.3957 -0.8489 -1.0695
  129MOL0     C17691  12.922   9.016   7.483 -0.2235 -0.7147  0.6327
  129MOL0     C17692  13.024   9.112   7.418  0.5668 -1.4729  0.2292
  129MOL0     C17693  12.944   8.952   7.610 -0.1917 -0.0972  0.1678
  129MOL0     C17694  13.053   8.976   7.715 -0.0373 -0.0607 -0.1495
  129MOL0     O17695  13.154   9.060   7.693  0.0768 -0.3620 -0.3424
  129MOL0     C17696  13.279   9.061   7.751  0.8726 -0.1562  0.0008
  129MOL0     C17697  13.362   9.165   7.724  1.0890  0.2524 -0.5458
  129MOL0     C17698  13.491   9.173   7.784  1.2652  1.0038 -0.1537
  129MOL0     C17699  13.535   9.071   7.871 -0.0263 -0.3059 -0.4034
  129MOL0     O17700  13.669   9.086   7.912  0.0884  1.2873 -0.8155
  129MOL0     C17701  13.684   9.088   8.061 -0.0564 -0.4537 -0.2856
  129MOL0     C17702  13.828   9.058   8.092 -0.4299 -0.0305  0.1550
  129MOL0     C17703  13.865   8.911   8.053  0.2020  0.6003  0.2262
  129MOL0     C17704  14.004   8.867   8.089  0.5533  0.2690 -0.6879
  129MOL0     C17705  14.031   8.854   8.237 -0.4476  0.4496  0.5478
  129MOL0     C17706  14.177   8.789   8.249 -0.2645 -0.4419  0.1399
  129MOL0     C17707  14.209   8.749   8.397  0.1567  0.5955 -0.4875
  129MOL0     C17708  14.328   8.661   8.418  0.3489 -0.4461  0.8900
  129MOL0    Cl17709  14.286   8.493   8.406  0.1718  0.3914 -0.0891
  129MOL0     C17710  13.446   8.966   7.903  0.6179  0.1120 -1.0300
  129MOL0     C17711  13.317   8.968   7.847 -0.5725  0.5225 -0.5588
  129MOL0     O17712  13.037   8.909   7.815  0.3935  0.1356  0.3331
  129MOL0     C17713  12.839   8.865   7.642  0.0157 -0.4240  0.1960
  129MOL0     C17714  12.732   8.836   7.554  0.1970  0.0425 -0.4265
  129MOL0     N17715  12.218   8.622   6.936  0.6948 -0.0742 -0.0405
  129MOL0     N17716  12.098   8.586   6.969  0.2548 -0.0109 -0.5273
  129MOL0     C17717  11.009   8.332   7.512  0.1672  0.4485 -0.9796
  129MOL0     C17718  10.937   8.421   7.591 -0.6799  0.6557 -0.7408
  129MOL0     C17719  10.789   8.779   7.810  0.2379  0.4789 -1.0453
  129MOL0     C17720  10.650   8.759   7.798 -0.0703  0.4335 -0.3975
  129MOL0     C17721  10.561   8.822   7.884 -0.1721 -0.3688  0.5369
  129MOL0     C17722  10.608   8.907   7.986 -0.2459  0.4544  0.9881
  129MOL0     O17723  10.505   8.966   8.066 -0.1680  0.1619  0.0866
  129MOL0     C17724  10.526   9.058   8.172 -0.6296 -0.6460 -0.0350
  129MOL0     C17725  10.395   9.058   8.246  0.3806 -0.3764 -0.0581
  129MOL0     C17726  10.379   9.181   8.333 -0.3828  0.3814 -1.1637
  129MOL0     C17727  10.401   9.328   8.280  0.2608 -0.1096  0.1276
  129MOL0     C17728  10.334   9.348   8.146  0.5521 -0.2821  0.3313
  129MOL0     C17729  10.281   9.332   8.043 -0.5540  0.5010 -0.2394
  129MOL0     C17730  10.752   8.922   7.998  0.3592 -0.0534  0.2498
  129MOL0     C17731  10.840   8.864   7.908  0.0726  1.6436 -0.2223
  129MOL0     C17732  10.983   8.892   7.934  1.1790  0.1274  0.4518
  129MOL0     H17733  10.861   8.669   7.375 -1.8897 -0.4658  1.2613
  129MOL0     H17734  10.995   8.513   7.223  1.1910  0.5233  0.0991
  129MOL0     H17735  11.181   8.426   7.175 -4.1755 -1.0084 -0.0420
  129MOL0     H17736  11.237   8.253   7.149 -0.2346 -1.0853  1.0886
  129MOL0     H17737  11.292   8.399   7.391 -3.0999  1.7290 -2.6272
  129MOL0     H17738  11.355   8.239   7.352  0.0154  0.8865  0.2582
  129MOL0     H17739  11.512   8.332   7.179  0.4961  0.6642 -1.0288
  129MOL0     H17740  11.437   8.485   7.196 -1.4644  2.4162  3.3454
  129MOL0     H17741  11.525   8.508   7.424  2.8136  1.1480  0.1868
  129MOL0     H17742  11.564   8.332   7.430 -0.0924 -4.3244 -4.9152
  129MOL0     H17743  11.735   8.347   7.257  3.9554  1.9448 -2.0858
  129MOL0     H17744  11.766   8.444   7.411  1.7351 -1.6708 -1.0554
  129MOL0     H17745  11.658   8.555   7.147  1.9716 -3.9736 -1.7701
  129MOL0     H17746  11.698   8.651   7.281  1.1674 -0.7183  2.5386
  129MOL0     H17747  11.873   8.479   7.097  2.2452  0.3596 -0.3059
  129MOL0     H17748  11.939   8.525   7.264 -1.5767  2.1493  2.2091
  129MOL0     H17749  11.821   8.696   7.041  0.5968 -0.7513 -0.5275
  129MOL0     H17750  11.892   8.762   7.183  1.6098  1.3159 -0.3266
  129MOL0     H17751  12.128   8.880   7.105 -0.8607  0.6576 -0.3322
  129MOL0     H17752  12.328   8.931   7.014  2.6002  0.7406 -1.4119
  129MOL0     H17753  12.404   8.822   6.900  0.4041  0.7068 -0.0104
  129MOL0     H17754  12.498   8.697   7.089 -2.0974 -0.5878  2.1957
  129MOL0     H17755  12.540   8.863   7.088 -0.6557 -0.3612 -1.8174
  129MOL0     H17756  12.341   8.865   7.271  0.4093  1.4889 -2.2527
  129MOL0     H17757  12.332   8.693   7.272 -0.8379  0.1068  1.0701
  129MOL0     H17758  12.458   8.780   7.462 -1.6964  0.8788 -1.5381
  129MOL0     H17759  12.576   8.685   7.366  0.3630  0.3439  1.6225
  129MOL0     H17760  12.782   9.051   7.319 -2.4794  2.2220  1.4397
  129MOL0     H17761  13.122   9.107   7.468  1.0259 -1.6926 -0.6704
  129MOL0     H17762  13.000   9.218   7.428  1.5841 -1.3671  2.0431
  129MOL0     H17763  13.035   9.102   7.310 -2.1196  1.1613 -0.4342
  129MOL0     H17764  13.340   9.253   7.663 -2.1340  0.8245  1.2045
  129MOL0     H17765  13.564   9.251   7.766  2.0909  0.3000  0.0503
  129MOL0     H17766  13.665   9.187   8.102  1.6368  1.3865 -3.5214
  129MOL0     H17767  13.623   9.012   8.111  1.1814 -1.5984 -0.4881
  129MOL0     H17768  13.891   9.129   8.039  1.3013 -0.2277  1.8528
  129MOL0     H17769  13.858   9.076   8.195  2.2529  2.1703 -0.8835
  129MOL0     H17770  13.850   8.911   7.944 -3.5569  3.1314  0.5303
  129MOL0     H17771  13.797   8.840   8.100  1.7154 -0.9831  0.1004
  129MOL0     H17772  14.078   8.935   8.045 -0.0460  1.2311 -0.2412
  129MOL0     H17773  14.016   8.763   8.056 -3.0282 -0.3275 -0.4927
  129MOL0     H17774  14.042   8.954   8.280  1.9552  0.3100  0.4025
  129MOL0     H17775  13.955   8.796   8.290  0.2666 -0.6215  0.4352
  129MOL0     H17776  14.243   8.863   8.203  0.1322 -0.9526 -0.1163
  129MOL0     H17777  14.173   8.699   8.187  0.0638 -1.6993  1.8751
  129MOL0     H17778  14.116   8.705   8.434  0.8111  1.4945  2.5481
  129MOL0     H17779  14.226   8.843   8.451 -1.0667  0.9230 -0.6602
  129MOL0     H17780  14.366   8.666   8.520 -1.6061 -1.1475  1.6851
  129MOL0     H17781  14.415   8.693   8.359 -1.3148  1.6475 -0.6005
  129MOL0     H17782  13.481   8.887   7.969  0.0593 -0.5873 -1.5530
  129MOL0     H17783  13.261   8.888   7.894  2.0217  0.0286  1.8956
  129MOL0     H17784  12.837   8.815   7.738  0.1614  0.5110  0.6998
  129MOL0     H17785  12.661   8.758   7.581  3.4020 -3.3623 -0.9559
  129MOL0     H17786  11.042   8.234   7.546 -0.3923  0.1297 -1.3448
  129MOL0     H17787  10.910   8.390   7.692  3.8704  0.1623  0.5579
  129MOL0     H17788  10.607   8.687   7.729 -0.5049  1.5435 -1.3238
  129MOL0     H17789  10.453   8.807   7.877  0.0845 -1.4886 -2.1079
  129MOL0     H17790  10.599   9.016   8.241  1.0670  1.8837 -0.1563
  129MOL0     H17791  10.567   9.155   8.141  0.3345 -1.8629 -3.0220
  129MOL0     H17792  10.383   8.973   8.313  1.3933  0.3226  1.0540
  129MOL0     H17793  10.312   9.061   8.174 -0.7149  0.6121  1.1924
  129MOL0     H17794  10.285   9.171   8.388  0.2687  1.1731  0.1462
  129MOL0     H17795  10.456   9.163   8.409 -1.2048 -2.2773 -0.8634
  129MOL0     H17796  10.505   9.358   8.263 -0.2358  1.5119 -0.2767
  129MOL0     H17797  10.355   9.394   8.354  0.0552  0.2476 -0.3070
  129MOL0     H17798  10.231   9.326   7.948  1.5299  1.8986 -1.5020
  129MOL0     H17799  10.796   8.996   8.064 -1.2919 -0.1786  1.5806
  129MOL0     H17800  11.013   8.804   7.992  0.0877  0.3731  1.4340
  129MOL0     H17801  11.045   8.899   7.844 -0.3870  1.3053 -0.5848
  129MOL0     H17802  11.005   8.985   7.988  1.8695 -0.8043  1.8486
  130MOL0     O17803   1.095   2.156   1.494 -0.0790  0.3937 -0.6708
  130MOL0     C17804   0.982   2.176   1.528 -0.2607 -0.4210 -0.2004
  130MOL0     O17805   0.882   2.221   1.444  0.6548  0.3823  0.3771
  130MOL0     C17806   0.908   2.258   1.315  0.1519 -0.7559 -0.5291
  130MOL0     C17807   1.014   2.352   1.288 -0.1576  0.1311 -0.0879
  130MOL0     C17808   1.046   2.387   1.156 -0.0426 -0.5562 -0.5584
  130MOL0     C17809   0.979   2.334   1.054 -0.2661  0.6130 -0.1919
  130MOL0     O17810   1.025   2.363   0.916 -0.3402  0.6532 -0.0968
  130MOL0     C17811   0.930   2.324   0.817 -0.2359 -0.4448 -0.7745
  130MOL0     C17812   0.976   2.350   0.679  0.3900  0.1746  0.5276
  130MOL0     C17813   0.871   2.288   0.572  0.0218  1.0103 -0.9272
  130MOL0     C17814   0.884   2.362   0.431  1.2068  0.4967 -0.5210
  130MOL0     C17815   0.834   2.514   0.431 -0.0557  0.1186  0.6722
  130MOL0     C17816   0.700   2.543   0.502  0.4226  0.3170 -0.4209
  130MOL0     C17817   0.629   2.681   0.505  0.0806 -0.2171 -0.2334
  130MOL0     C17818   0.734   2.782   0.572 -0.7652 -0.7194 -0.0036
  130MOL0     N17819   0.672   2.911   0.594  0.8816  0.3900 -0.0556
  130MOL0     C17820   0.639   3.000   0.494 -0.7432 -0.5659 -0.5082
  130MOL0     C17821   0.573   3.106   0.555 -0.6624 -0.0683  0.4748
  130MOL0     C17822   0.519   3.233   0.490 -0.4803 -0.4847  0.5924
  130MOL0     C17823   0.374   3.267   0.529 -0.8044  0.0423  0.4545
  130MOL0     C17824   0.312   3.392   0.459 -1.2495  1.0542  0.0645
  130MOL0     C17825   0.408   3.508   0.456 -0.4144  0.6743  0.1421
  130MOL0     O17826   0.421   3.557   0.588  0.4583  0.3431 -0.0758
  130MOL0     C17827   0.492   3.669   0.596 -0.6984 -1.2506  0.3705
  130MOL0     C17828   0.566   3.726   0.495  0.1289  0.3624 -0.3365
  130MOL0     C17829   0.640   3.839   0.517  0.5844 -0.0433 -0.3814
  130MOL0     C17830   0.703   3.905   0.399  0.8175  0.0248 -0.4686
  130MOL0     C17831   0.650   3.887   0.646  0.1311 -0.6903  0.5979
  130MOL0     C17832   0.721   4.020   0.675  0.5240 -0.0298 -1.1550
  130MOL0     O17833   0.705   4.126   0.590  0.1596  0.0505  0.1011
  130MOL0     C17834   0.782   4.234   0.574 -0.2400 -0.6199 -0.3584
  130MOL0     C17835   0.726   4.336   0.492 -0.0252 -0.2482 -0.3324
  130MOL0     C17836   0.796   4.464   0.475  0.8417  0.0119 -0.9166
  130MOL0     C17837   0.919   4.491   0.543  0.3293  0.4724  0.3275
  130MOL0     O17838   0.988   4.609   0.525  0.1158 -0.2746 -0.3717
  130MOL0     C17839   1.123   4.601   0.491  0.1814  0.8072  1.4271
  130MOL0     C17840   1.168   4.737   0.429 -0.7234 -0.0342  0.2117
  130MOL0     C17841   1.305   4.717   0.361 -0.9099 -0.2967  1.0943
  130MOL0     C17842   1.316   4.818   0.248 -0.4880  0.3719  0.3015
  130MOL0     C17843   1.442   4.793   0.165  1.0804  0.1591 -0.6156
  130MOL0     C17844   1.465   4.901   0.060 -0.8754 -0.1999 -0.2803
  130MOL0     C17845   1.590   4.892  -0.024 -0.2269  0.3043  0.9388
  130MOL0     C17846   1.588   4.960  -0.162  0.0383 -0.1563  0.3923
  130MOL0    Cl17847   1.738   4.907  -0.246 -0.0428 -0.3110 -0.3687
  130MOL0     C17848   0.958   4.394   0.640 -0.4804 -0.2680  0.2465
  130MOL0     C17849   0.896   4.272   0.645 -0.2670  1.3546 -0.7686
  130MOL0     O17850   0.783   4.014   0.785 -0.2402 -0.4016 -0.2366
  130MOL0     C17851   0.596   3.817   0.752  0.3080 -0.7326 -0.3831
  130MOL0     C17852   0.517   3.706   0.721  0.2101  0.3577  0.2961
  130MOL0     N17853   0.571   3.078   0.691 -0.4701 -0.9125 -0.4128
  130MOL0     N17854   0.627   2.968   0.714 -0.5175  0.7273 -0.5455
  130MOL0     C17855   0.873   2.247   1.086  0.3380 -0.0423  0.7840
  130MOL0     C17856   0.838   2.219   1.216 -0.4475 -0.0244 -0.1338
  130MOL0     C17857   0.938   2.120   1.660  0.8099 -0.8607 -0.0137
  130MOL0     C17858   0.994   1.995   1.695 -0.1779  0.0883 -0.0333
  130MOL0     C17859   0.956   1.927   1.810  0.4560 -0.2069  0.4094
  130MOL0     C17860   0.865   1.981   1.898 -0.1721 -0.6932  0.1653
  130MOL0     O17861   0.842   1.933   2.025  0.5040 -0.3173 -0.6605
  130MOL0     C17862   0.947   1.867   2.103  0.3402  0.7491  0.4822
  130MOL0     C17863   0.908   1.728   2.168  0.1725 -0.0152 -0.2747
  130MOL0     C17864   0.811   1.742   2.277 -0.9153 -0.0824  0.4350
  130MOL0     C17865   0.797   1.605   2.349  0.1830 -0.5708 -0.1402
  130MOL0     C17866   0.680   1.587   2.433 -0.5792 -0.2740  0.0261
  130MOL0     C17867   0.576   1.561   2.489 -0.4418  0.5253  0.3127
  130MOL0     C17868   0.817   2.106   1.869  0.3455 -0.1309  0.4272
  130MOL0     C17869   0.845   2.178   1.753 -0.1230 -0.7035 -0.2502
  130MOL0     C17870   0.783   2.313   1.745  0.8275 -0.3844 -0.7405
  130MOL0     H17871   1.074   2.384   1.373  0.8097 -1.2769 -0.2208
  130MOL0     H17872   1.127   2.458   1.139 -2.5537  3.0638  1.2190
  130MOL0     H17873   0.845   2.389   0.841 -2.0320 -2.8814 -0.1516
  130MOL0     H17874   0.894   2.222   0.835 -2.5951  0.1706 -1.5870
  130MOL0     H17875   0.988   2.458   0.661 -0.8485  0.1554 -0.5544
  130MOL0     H17876   1.073   2.302   0.664  1.1716  1.5668  0.8955
  130MOL0     H17877   0.897   2.182   0.565  1.3244  1.3493 -1.4949
  130MOL0     H17878   0.771   2.283   0.616 -0.4379 -4.9360 -1.7775
  130MOL0     H17879   0.991   2.362   0.410  1.6252  3.0071  1.1396
  130MOL0     H17880   0.830   2.303   0.357  2.5376 -0.1970 -0.9637
  130MOL0     H17881   0.828   2.546   0.327  0.4407 -0.3929  0.4842
  130MOL0     H17882   0.905   2.570   0.493  0.9666  0.7339 -1.0023
  130MOL0     H17883   0.629   2.469   0.464  0.9144  0.0804 -0.8981
  130MOL0     H17884   0.719   2.516   0.606  0.4340 -1.9088 -0.9500
  130MOL0     H17885   0.540   2.676   0.569  0.6955  1.2716  0.8147
  130MOL0     H17886   0.599   2.727   0.411 -3.1906 -0.1918  0.7025
  130MOL0     H17887   0.774   2.743   0.666  0.7852 -1.6815 -1.0175
  130MOL0     H17888   0.824   2.795   0.511  0.1330  1.5122  1.6765
  130MOL0     H17889   0.661   2.998   0.387  2.7852 -2.3741  0.0943
  130MOL0     H17890   0.504   3.217   0.383 -2.0478  4.1905 -0.1284
  130MOL0     H17891   0.590   3.314   0.510 -1.6472  0.0694  2.7999
  130MOL0     H17892   0.316   3.184   0.488 -0.8943 -0.2645  1.1825
  130MOL0     H17893   0.361   3.279   0.637 -0.0228  3.1546  0.3002
  130MOL0     H17894   0.285   3.373   0.354  0.3814  2.1641 -0.6013
  130MOL0     H17895   0.219   3.426   0.506 -1.9487  0.9608 -1.1944
  130MOL0     H17896   0.504   3.474   0.416 -1.6757 -0.8591 -1.7658
  130MOL0     H17897   0.367   3.583   0.388  0.3419 -0.7235 -1.9236
  130MOL0     H17898   0.585   3.686   0.396 -1.8929 -1.1745 -0.1510
  130MOL0     H17899   0.705   3.838   0.313 -3.4451 -2.5501  1.1106
  130MOL0     H17900   0.804   3.938   0.423  0.0203  2.1637  0.1872
  130MOL0     H17901   0.648   3.996   0.372 -0.7274 -0.8240 -0.3271
  130MOL0     H17902   0.640   4.323   0.428  0.5589 -2.5882 -0.7571
  130MOL0     H17903   0.741   4.547   0.433 -2.2390 -0.4882  1.7696
  130MOL0     H17904   1.183   4.586   0.581 -1.6312  0.5295  2.6512
  130MOL0     H17905   1.137   4.516   0.424  2.6798  0.5569  2.1918
  130MOL0     H17906   1.090   4.764   0.357 -0.7385 -1.1932 -0.2293
  130MOL0     H17907   1.189   4.807   0.510 -0.3540  0.3788 -0.2389
  130MOL0     H17908   1.306   4.623   0.304 -1.5986  1.7480 -2.6369
  130MOL0     H17909   1.391   4.723   0.428 -0.0561  1.3375 -0.0641
  130MOL0     H17910   1.323   4.920   0.286  2.4067 -0.7870  3.3788
  130MOL0     H17911   1.229   4.808   0.183  0.9262 -0.2529 -1.5838
  130MOL0     H17912   1.528   4.792   0.232 -0.0702 -0.4341  0.8873
  130MOL0     H17913   1.439   4.698   0.112 -0.6250  0.2989 -0.8265
  130MOL0     H17914   1.483   4.996   0.111  1.5836 -1.4447  1.3826
  130MOL0     H17915   1.380   4.916  -0.006 -0.1223  1.3497 -0.9424
  130MOL0     H17916   1.614   4.786  -0.029  1.6230  0.7329 -0.1253
  130MOL0     H17917   1.675   4.938   0.027  0.6113 -3.1003  2.9155
  130MOL0     H17918   1.586   5.070  -0.159  0.8751 -0.0559 -1.3820
  130MOL0     H17919   1.499   4.924  -0.214  0.3523 -1.1973  0.5721
  130MOL0     H17920   1.039   4.414   0.709  1.4158 -2.2593 -1.2505
  130MOL0     H17921   0.933   4.202   0.719 -0.0107 -0.0888 -2.2045
  130MOL0     H17922   0.609   3.850   0.854 -2.2888  0.6915 -0.4292
  130MOL0     H17923   0.480   3.650   0.806 -2.2649 -0.7385 -1.3867
  130MOL0     H17924   0.809   2.202   1.011 -0.2886 -0.6755  1.6608
  130MOL0     H17925   0.756   2.160   1.255  1.9998 -1.1032  3.9298
  130MOL0     H17926   1.057   1.933   1.632 -3.4878 -0.9345 -2.5932
  130MOL0     H17927   1.008   1.836   1.835  0.9097  0.3524  1.5734
  130MOL0     H17928   1.034   1.846   2.041 -0.9135  2.8959 -2.1950
  130MOL0     H17929   0.978   1.938   2.181 -0.5642  0.4329  1.1548
  130MOL0     H17930   1.002   1.688   2.205  1.6234  1.1473 -2.4789
  130MOL0     H17931   0.867   1.651   2.101 -2.4255  0.0480  1.1150
  130MOL0     H17932   0.845   1.816   2.350  0.5717 -2.3284  2.1706
  130MOL0     H17933   0.716   1.772   2.231 -0.2238  1.3427 -0.1161
  130MOL0     H17934   0.886   1.583   2.409  1.2364  1.8584 -0.6689
  130MOL0     H17935   0.783   1.519   2.284 -3.8672 -0.0094 -0.2177
  130MOL0     H17936   0.480   1.543   2.535 -0.2204  1.5181  1.2255
  130MOL0     H17937   0.763   2.149   1.952  1.0808  3.5087 -0.7688
  130MOL0     H17938   0.701   2.317   1.673 -0.0842 -2.8784  0.0280
  130MOL0     H17939   0.756   2.334   1.849  3.5538 -0.1940 -0.0030
  130MOL0     H17940   0.855   2.395   1.741  0.5073  0.0273  0.9973
  131MOL0     O17941   7.322   8.032   4.162  0.4288  0.3420  0.4206
  131MOL0     C17942   7.437   8.000   4.162  0.3745  0.3369  0.0962
  131MOL0     O17943   7.493   7.919   4.263  0.2166 -0.0582 -0.4447
  131MOL0     C17944   7.405   7.886   4.369 -0.0607 -0.2168  0.8049
  131MOL0     C17945   7.390   7.756   4.388 -0.3688 -0.1148 -0.0004
  131MOL0     C17946   7.298   7.720   4.498  0.1457 -0.7142  0.3750
  131MOL0     C17947   7.241   7.814   4.579  0.2740 -1.0442  0.0204
  131MOL0     O17948   7.158   7.761   4.672 -0.0163  0.0628  0.5658
  131MOL0     C17949   7.081   7.845   4.754  0.6037  0.2470  0.1328
  131MOL0     C17950   6.983   7.753   4.817  0.1857 -0.3922 -0.3365
  131MOL0     C17951   6.903   7.679   4.713 -0.8963 -0.0561  0.1202
  131MOL0     C17952   6.764   7.637   4.749  0.4820 -0.2826  0.0277
  131MOL0     C17953   6.682   7.554   4.645 -0.1373  0.4329  0.2815
  131MOL0     C17954   6.550   7.527   4.719 -0.4702  0.1569 -0.8450
  131MOL0     C17955   6.435   7.462   4.636 -0.0156 -0.1103 -0.0395
  131MOL0     C17956   6.494   7.330   4.578 -0.5502 -0.2191 -0.5213
  131MOL0     N17957   6.545   7.338   4.439 -0.1268 -0.0188 -0.5834
  131MOL0     C17958   6.668   7.297   4.399 -0.1970  0.3266 -0.2647
  131MOL0     C17959   6.653   7.288   4.260  0.4097 -0.1995 -0.0001
  131MOL0     C17960   6.761   7.241   4.167  0.7721 -0.1582 -0.1070
  131MOL0     C17961   6.773   7.332   4.052 -0.1666 -1.6540 -0.0829
  131MOL0     C17962   6.896   7.293   3.954 -0.0506  0.5306  0.1513
  131MOL0     C17963   6.882   7.359   3.808 -0.0538 -0.1418 -0.0622
  131MOL0     O17964   6.753   7.342   3.753  0.1814  0.0917  0.6857
  131MOL0     C17965   6.739   7.238   3.654 -0.8916 -0.1977 -0.0736
  131MOL0     C17966   6.626   7.239   3.572 -0.5206  0.3506  0.0271
  131MOL0     C17967   6.603   7.146   3.470  0.3146 -0.5943 -0.7814
  131MOL0     C17968   6.481   7.162   3.383 -0.2682 -0.1729  0.3896
  131MOL0     C17969   6.693   7.029   3.458 -1.1538 -0.1136 -0.5048
  131MOL0     C17970   6.675   6.924   3.359 -0.2930  0.0082 -0.5949
  131MOL0     O17971   6.555   6.862   3.354 -0.2277  0.5754  0.1204
  131MOL0     C17972   6.536   6.793   3.239 -0.4376 -0.4099  0.2454
  131MOL0     C17973   6.581   6.664   3.220 -1.2823  0.3717 -0.4063
  131MOL0     C17974   6.547   6.599   3.113 -0.2060  0.0475 -0.1043
  131MOL0     C17975   6.455   6.654   3.015  0.2558  0.4435  0.2321
  131MOL0     O17976   6.414   6.574   2.908 -0.1843 -0.9774  0.2413
  131MOL0     C17977   6.415   6.433   2.931  0.1375  0.5394  0.1764
  131MOL0     C17978   6.327   6.356   2.827 -0.8719  0.0256 -0.2931
  131MOL0     C17979   6.290   6.437   2.699 -0.3700 -0.1302  0.6499
  131MOL0     C17980   6.181   6.356   2.637 -0.0786  0.1964  0.6609
  131MOL0     C17981   6.155   6.393   2.489  0.4835 -0.1239 -0.5264
  131MOL0     C17982   6.276   6.388   2.399  0.2078  0.5320 -0.7183
  131MOL0     C17983   6.336   6.245   2.399 -0.1522 -0.2276 -0.1835
  131MOL0     C17984   6.423   6.216   2.280 -0.0648 -0.6221 -0.5570
  131MOL0    Cl17985   6.510   6.069   2.317 -0.3606 -0.0453  0.0379
  131MOL0     C17986   6.413   6.783   3.033 -0.5802 -0.0852  0.8897
  131MOL0     C17987   6.453   6.850   3.153 -0.0327 -0.7313  1.0868
  131MOL0     O17988   6.777   6.888   3.293 -0.2799  0.1427  0.2245
  131MOL0     C17989   6.804   7.026   3.544  0.1388 -1.1002  0.0025
  131MOL0     C17990   6.828   7.126   3.641  0.4886  0.5822 -0.1948
  131MOL0     N17991   6.529   7.350   4.227 -0.0371 -0.3681 -0.4771
  131MOL0     N17992   6.466   7.374   4.335  1.1236 -0.6337  0.2234
  131MOL0     C17993   7.254   7.947   4.546  0.3404  0.0525 -0.4712
  131MOL0     C17994   7.333   7.982   4.445 -0.0523  0.2012  0.2237
  131MOL0     C17995   7.536   8.039   4.056  0.0692 -0.0063 -0.1097
  131MOL0     C17996   7.633   7.944   4.036 -0.2065  0.1957  1.4492
  131MOL0     C17997   7.735   7.963   3.947 -0.1477  0.2248 -0.9474
  131MOL0     C17998   7.732   8.071   3.857 -0.7341 -1.0030  0.3769
  131MOL0     O17999   7.838   8.093   3.767 -0.1840  0.3319 -0.3793
  131MOL0     C18000   7.929   8.199   3.783 -0.0946  0.0466  0.3814
  131MOL0     C18001   7.911   8.297   3.670  0.5621 -0.9171  0.8703
  131MOL0     C18002   8.000   8.429   3.677 -1.0903 -0.2293 -0.1523
  131MOL0     C18003   7.954   8.544   3.585 -0.4504 -0.6540  0.3223
  131MOL0     C18004   7.953   8.509   3.436  0.0999  0.5313  0.2689
  131MOL0     C18005   7.950   8.492   3.316 -0.1662 -0.8176  0.1463
  131MOL0     C18006   7.633   8.170   3.881  0.4932 -0.7524 -0.7200
  131MOL0     C18007   7.531   8.155   3.978  0.7813 -0.7680  0.6946
  131MOL0     C18008   7.434   8.276   3.984 -0.8506 -0.1606 -0.5185
  131MOL0     H18009   7.443   7.682   4.328 -1.8390 -1.5398  0.3877
  131MOL0     H18010   7.282   7.615   4.515 -3.5841 -0.1862  0.8533
  131MOL0     H18011   7.037   7.927   4.696  1.9111  0.8710 -0.0185
  131MOL0     H18012   7.141   7.893   4.831  1.7094 -1.9288  0.6996
  131MOL0     H18013   7.041   7.688   4.885  0.1453  0.0566  0.1355
  131MOL0     H18014   6.909   7.810   4.874 -0.4838  0.4073 -1.9430
  131MOL0     H18015   6.896   7.748   4.629 -1.4551  0.5429  0.6481
  131MOL0     H18016   6.961   7.594   4.675  0.1986 -0.5681  2.7238
  131MOL0     H18017   6.763   7.582   4.844  2.5822 -1.5816 -0.6228
  131MOL0     H18018   6.713   7.732   4.765  2.2855  0.9438 -1.0634
  131MOL0     H18019   6.742   7.464   4.627 -2.0928 -1.2076  1.5423
  131MOL0     H18020   6.678   7.609   4.551  2.1954  0.7877  0.3271
  131MOL0     H18021   6.566   7.478   4.816 -0.9329  1.6158  0.0045
  131MOL0     H18022   6.523   7.633   4.729 -0.1757  0.2422 -0.9433
  131MOL0     H18023   6.399   7.529   4.557 -1.6316 -1.5142 -0.5482
  131MOL0     H18024   6.346   7.427   4.689  1.6571 -1.3796  2.0997
  131MOL0     H18025   6.565   7.289   4.651 -0.4048 -2.2780 -1.7448
  131MOL0     H18026   6.414   7.256   4.571 -2.2234  0.9065  3.5479
  131MOL0     H18027   6.759   7.275   4.455  1.8610  2.2996 -2.6138
  131MOL0     H18028   6.756   7.137   4.134  1.6730 -0.3550  0.3380
  131MOL0     H18029   6.856   7.244   4.222  0.0615  1.0980  1.1148
  131MOL0     H18030   6.682   7.312   3.994  0.5781 -2.0638 -1.1368
  131MOL0     H18031   6.771   7.434   4.091 -1.9345 -0.9671 -1.8260
  131MOL0     H18032   6.987   7.332   4.002  1.8712 -0.7386 -2.2530
  131MOL0     H18033   6.900   7.185   3.942 -1.1083  0.2574  1.9323
  131MOL0     H18034   6.895   7.464   3.837 -2.7467 -0.6911  4.0460
  131MOL0     H18035   6.952   7.314   3.737 -0.3745 -3.8837  1.7818
  131MOL0     H18036   6.558   7.323   3.586 -1.5589 -0.7290  1.6984
  131MOL0     H18037   6.418   7.075   3.404  0.6254 -1.6548 -2.5159
  131MOL0     H18038   6.502   7.145   3.277 -0.8228 -0.5728  0.3383
  131MOL0     H18039   6.428   7.257   3.377 -0.3543 -0.3036 -2.8608
  131MOL0     H18040   6.657   6.631   3.291  0.4757  1.1014 -1.8540
  131MOL0     H18041   6.583   6.497   3.101  0.4625  0.1474  0.9434
  131MOL0     H18042   6.512   6.383   2.940 -0.3580 -1.3229 -3.0648
  131MOL0     H18043   6.366   6.413   3.026  0.0891 -1.4092 -0.2010
  131MOL0     H18044   6.385   6.269   2.795  0.5015  0.4848  0.8586
  131MOL0     H18045   6.233   6.319   2.870  0.1371 -0.4861  1.5979
  131MOL0     H18046   6.381   6.450   2.640 -1.8808  1.6922 -1.4859
  131MOL0     H18047   6.261   6.540   2.722  2.1346  0.5328  1.1718
  131MOL0     H18048   6.091   6.382   2.693 -1.8101  3.9947 -3.3285
  131MOL0     H18049   6.204   6.249   2.638  1.1479  0.4190 -0.6843
  131MOL0     H18050   6.075   6.335   2.441  0.2577 -2.2040  2.1324
  131MOL0     H18051   6.130   6.500   2.493  1.8238  0.2027  3.6398
  131MOL0     H18052   6.355   6.454   2.436  0.8640 -1.9254  2.7525
  131MOL0     H18053   6.248   6.423   2.299  0.4508 -0.2976 -1.0937
  131MOL0     H18054   6.263   6.164   2.393  0.0561 -0.4565  0.2534
  131MOL0     H18055   6.389   6.219   2.491 -0.6485 -1.7070 -0.2883
  131MOL0     H18056   6.491   6.300   2.260  0.2134 -0.0200  2.4664
  131MOL0     H18057   6.368   6.198   2.187 -1.2872  1.0125 -0.1898
  131MOL0     H18058   6.353   6.830   2.956  3.6336  1.7280 -1.6845
  131MOL0     H18059   6.417   6.950   3.178  0.8466 -0.8403  2.9329
  131MOL0     H18060   6.869   6.940   3.534  0.7822 -0.4532 -1.8908
  131MOL0     H18061   6.904   7.102   3.715 -3.0756  0.4394  3.7692
  131MOL0     H18062   7.192   8.022   4.595 -1.6651 -0.4407 -2.1255
  131MOL0     H18063   7.336   8.088   4.422  0.5501 -0.2503 -2.0224
  131MOL0     H18064   7.644   7.853   4.094  2.5980  0.7603  1.9508
  131MOL0     H18065   7.821   7.897   3.945  0.0610  0.5118 -2.6489
  131MOL0     H18066   7.914   8.251   3.878  2.8625  0.1457  0.9123
  131MOL0     H18067   8.033   8.164   3.791  0.0236  0.0398 -1.0147
  131MOL0     H18068   7.810   8.336   3.654  2.9093  4.6221 -5.5705
  131MOL0     H18069   7.941   8.234   3.586  1.9413  0.6216  0.1524
  131MOL0     H18070   7.993   8.448   3.785  0.3331 -1.4453  0.1822
  131MOL0     H18071   8.107   8.412   3.667 -0.9800 -0.9412  1.7379
  131MOL0     H18072   8.034   8.617   3.603 -0.5586  0.2123 -2.2762
  131MOL0     H18073   7.856   8.581   3.613  0.2878  3.0227 -1.4182
  131MOL0     H18074   7.916   8.463   3.219  0.5927  3.5438 -1.6599
  131MOL0     H18075   7.614   8.253   3.815 -0.0422 -1.8378 -1.9611
  131MOL0     H18076   7.500   8.363   3.988 -0.6041 -0.3539 -0.4101
  131MOL0     H18077   7.372   8.257   3.896  1.0474 -5.1552 -1.1223
  131MOL0     H18078   7.363   8.271   4.067 -2.6657 -3.4961 -2.0891
  132MOL0     O18079   2.433   3.604  11.077  0.7002 -0.7634  0.0595
  132MOL0     C18080   2.363   3.509  11.065  0.4105  1.4703  1.2323
  132MOL0     O18081   2.406   3.385  11.038  0.4361  0.3472 -0.2055
  132MOL0     C18082   2.543   3.361  11.040 -0.2972 -0.4264  0.1169
  132MOL0     C18083   2.622   3.408  10.932 -0.8212 -0.6398 -0.0676
  132MOL0     C18084   2.744   3.357  10.906 -0.2331  0.4139  0.2679
  132MOL0     C18085   2.797   3.259  10.994 -0.0449  0.0477  0.1318
  132MOL0     O18086   2.924   3.216  10.961  0.3443  0.4630  0.3415
  132MOL0     C18087   2.980   3.108  11.042 -0.5370 -0.9490  0.1746
  132MOL0     C18088   3.115   3.079  10.977 -0.1970 -0.1707  0.5309
  132MOL0     C18089   3.169   2.964  11.051 -0.3041 -0.0829  0.1698
  132MOL0     C18090   3.302   2.911  10.989  0.3616 -0.3557  1.1518
  132MOL0     C18091   3.282   2.789  10.889  0.5956 -0.3139 -0.5315
  132MOL0     C18092   3.417   2.757  10.819  0.4918 -0.4886  0.0560
  132MOL0     C18093   3.376   2.666  10.705  0.3363 -0.2885  0.1384
  132MOL0     C18094   3.490   2.602  10.622  0.6046  0.1847  0.0284
  132MOL0     N18095   3.513   2.468  10.673  0.1343  0.2734 -0.3518
  132MOL0     C18096   3.516   2.356  10.590  1.0354  0.4402 -0.3400
  132MOL0     C18097   3.530   2.247  10.673 -0.3921 -0.3443 -0.3529
  132MOL0     C18098   3.527   2.109  10.624  0.4825  0.1200 -0.0150
  132MOL0     C18099   3.394   2.040  10.647  0.1574  0.4230 -0.5571
  132MOL0     C18100   3.388   1.888  10.627  0.1057 -0.2721 -0.9685
  132MOL0     C18101   3.276   1.797  10.675 -0.2562  0.6668 -0.1239
  132MOL0     O18102   3.234   1.822  10.805  0.7066  0.6245 -0.0819
  132MOL0     C18103   3.117   1.763  10.838  0.0560 -0.1444  0.1053
  132MOL0     C18104   3.013   1.832  10.891 -0.1198 -0.2270 -0.1183
  132MOL0     C18105   2.894   1.763  10.933  0.0263 -0.3442  0.9423
  132MOL0     C18106   2.790   1.855  10.989 -0.1844  0.5739 -0.2435
  132MOL0     C18107   2.892   1.623  10.940 -0.0783 -0.0846 -0.7021
  132MOL0     C18108   2.775   1.543  10.999  0.1766 -1.2339 -0.3315
  132MOL0     O18109   2.786   1.409  10.984  0.2374  0.7646  0.1083
  132MOL0     C18110   2.698   1.319  11.036  0.1927 -0.0847 -0.4230
  132MOL0     C18111   2.733   1.235  11.146 -0.5630 -0.7594  0.6677
  132MOL0     C18112   2.639   1.153  11.208  0.0198  0.1584  0.3289
  132MOL0     C18113   2.512   1.143  11.153 -0.0074  0.7849 -1.1071
  132MOL0     O18114   2.422   1.049  11.215  0.3690  0.0682  0.0708
  132MOL0     C18115   2.346   0.975  11.120 -0.2842  1.0203 -0.3358
  132MOL0     C18116   2.443   0.890  11.033  0.2395  0.1212 -0.0246
  132MOL0     C18117   2.370   0.782  10.952  0.0350  0.5748  0.1427
  132MOL0     C18118   2.311   0.675  11.043  0.9057  0.3095 -0.1972
  132MOL0     C18119   2.312   0.539  10.971  0.8601  0.8514 -0.5238
  132MOL0     C18120   2.228   0.542  10.846  1.1217  0.2968  0.0004
  132MOL0     C18121   2.189   0.400  10.800 -0.5478  0.2565  0.6249
  132MOL0     C18122   2.137   0.424  10.660 -0.1192  0.3517  0.6537
  132MOL0    Cl18123   2.107   0.261  10.580 -0.4121 -0.0111  0.2481
  132MOL0     C18124   2.483   1.214  11.038 -0.2762 -0.5936 -0.5353
  132MOL0     C18125   2.571   1.311  10.982 -0.1869  0.8343  0.4883
  132MOL0     O18126   2.681   1.605  11.052  1.1825 -0.3454  0.6946
  132MOL0     C18127   3.010   1.561  10.899  0.5329  0.0092 -0.2567
  132MOL0     C18128   3.118   1.627  10.850  0.1883 -0.3204 -0.2997
  132MOL0     N18129   3.560   2.298  10.803  0.4929  0.0122  0.1248
  132MOL0     N18130   3.541   2.429  10.804 -0.6172 -0.6435 -0.6241
  132MOL0     C18131   2.718   3.217  11.100  0.3819  0.6238 -0.4389
  132MOL0     C18132   2.593   3.260  11.125 -0.6882 -0.6022 -0.0602
  132MOL0     C18133   2.227   3.523  11.067  1.0284 -0.0420 -0.4416
  132MOL0     C18134   2.172   3.560  11.194  0.2325 -0.3785 -0.1700
  132MOL0     C18135   2.034   3.548  11.215  0.6902 -0.1585  0.3606
  132MOL0     C18136   1.945   3.532  11.111  0.3569  0.0641 -0.0327
  132MOL0     O18137   1.809   3.555  11.124  0.1238 -0.4850 -0.3000
  132MOL0     C18138   1.751   3.531  11.256 -0.2562 -0.7347  0.5138
  132MOL0     C18139   1.596   3.528  11.220  0.4732 -0.8155  0.8810
  132MOL0     C18140   1.543   3.663  11.180  0.0583 -0.0009  0.6160
  132MOL0     C18141   1.393   3.667  11.167 -0.6569 -0.1585 -0.7148
  132MOL0     C18142   1.353   3.614  11.030  0.0338 -0.7971 -1.0113
  132MOL0     C18143   1.331   3.559  10.928  0.5597 -0.5955 -0.0210
  132MOL0     C18144   1.985   3.513  10.983  0.0921 -0.4986  0.0923
  132MOL0     C18145   2.129   3.491  10.965 -0.3838  0.4333 -0.4574
  132MOL0     C18146   2.178   3.446  10.826  0.5853 -0.9217  0.3400
  132MOL0     H18147   2.566   3.476  10.869 -0.2591 -0.2166 -0.1134
  132MOL0     H18148   2.790   3.385  10.811 -1.3292  2.9253  0.3807
  132MOL0     H18149   2.912   3.023  11.052 -0.7630 -0.5785  2.3942
  132MOL0     H18150   3.004   3.139  11.144 -0.2049 -0.2497 -0.1071
  132MOL0     H18151   3.103   3.064  10.869  0.8457  3.0592 -0.1547
  132MOL0     H18152   3.178   3.167  10.991 -0.8567  0.3680  0.2130
  132MOL0     H18153   3.192   2.998  11.153  0.8652 -1.5339  0.4268
  132MOL0     H18154   3.088   2.890  11.055 -1.1060  0.7368 -0.4482
  132MOL0     H18155   3.343   2.995  10.933 -1.6995  1.0995  1.7026
  132MOL0     H18156   3.372   2.887  11.069 -0.1193 -0.2852  1.5957
  132MOL0     H18157   3.212   2.824  10.813  0.2544  0.7869  0.2699
  132MOL0     H18158   3.250   2.696  10.935  1.1635 -0.2952 -0.0863
  132MOL0     H18159   3.464   2.847  10.777 -1.2682 -0.2361 -1.5270
  132MOL0     H18160   3.487   2.708  10.887 -0.8142 -1.6990  0.5657
  132MOL0     H18161   3.312   2.721  10.635 -3.2426 -0.7877  2.7442
  132MOL0     H18162   3.311   2.586  10.742 -1.9347  1.4586  0.0678
  132MOL0     H18163   3.455   2.608  10.518 -3.2240 -0.7635  1.0757
  132MOL0     H18164   3.576   2.668  10.634  1.1317 -0.8286  2.4215
  132MOL0     H18165   3.520   2.355  10.481 -1.6801  0.8075 -0.5281
  132MOL0     H18166   3.606   2.048  10.668 -0.8022 -0.6284  1.3287
  132MOL0     H18167   3.553   2.117  10.518  0.3260 -0.1842 -0.0745
  132MOL0     H18168   3.367   2.054  10.752  3.1447  2.0847  0.1099
  132MOL0     H18169   3.313   2.083  10.587  1.3122  1.8315 -1.1695
  132MOL0     H18170   3.398   1.869  10.520 -0.0289 -1.5485 -0.7642
  132MOL0     H18171   3.481   1.850  10.670 -1.2119 -1.6583  0.8383
  132MOL0     H18172   3.188   1.797  10.608 -0.6365  2.4280  0.3292
  132MOL0     H18173   3.323   1.698  10.677  2.1727  1.7104 -1.5128
  132MOL0     H18174   3.017   1.940  10.902  3.0635 -0.2263 -0.2771
  132MOL0     H18175   2.767   1.835  11.094 -1.0847  0.4781 -0.4500
  132MOL0     H18176   2.692   1.837  10.944  0.7947 -1.0601 -1.8390
  132MOL0     H18177   2.820   1.960  10.982  0.7617  0.4487  1.3761
  132MOL0     H18178   2.834   1.230  11.185 -0.8078  0.9405  1.6295
  132MOL0     H18179   2.668   1.086  11.289  0.4002  0.8663  0.7827
  132MOL0     H18180   2.283   0.910  11.181  1.1852  1.8664  2.2342
  132MOL0     H18181   2.283   1.049  11.069 -4.0481 -1.9234 -0.3690
  132MOL0     H18182   2.505   0.948  10.963 -0.8426  1.6385  0.2287
  132MOL0     H18183   2.514   0.842  11.101 -0.3049  1.7876  1.7952
  132MOL0     H18184   2.448   0.743  10.886  0.4932 -0.8513  1.4552
  132MOL0     H18185   2.297   0.819  10.880 -0.5251 -0.9416 -0.1011
  132MOL0     H18186   2.207   0.704  11.062  1.1831  0.8417  0.5685
  132MOL0     H18187   2.359   0.666  11.141 -1.3952 -1.0888  0.8928
  132MOL0     H18188   2.415   0.508  10.948  0.9858  1.2632 -0.5179
  132MOL0     H18189   2.273   0.455  11.029  0.4024 -0.4852 -2.6782
  132MOL0     H18190   2.290   0.594  10.772 -1.2052  1.9224 -0.9433
  132MOL0     H18191   2.136   0.600  10.856 -1.2352 -2.8382 -1.6661
  132MOL0     H18192   2.110   0.359  10.863 -4.5890  1.1534 -3.2995
  132MOL0     H18193   2.281   0.340  10.800 -0.4287  0.4257  1.5327
  132MOL0     H18194   2.205   0.483  10.598  0.4908  1.4429  2.2862
  132MOL0     H18195   2.039   0.472  10.650 -0.6920 -0.6165  1.4129
  132MOL0     H18196   2.384   1.217  10.993 -1.2661  3.6199  1.3426
  132MOL0     H18197   2.534   1.373  10.901 -2.1794  1.2423  1.6353
  132MOL0     H18198   3.005   1.454  10.915 -0.4225  0.3251  1.8563
  132MOL0     H18199   3.207   1.567  10.833  0.6350 -1.0852  3.7471
  132MOL0     H18200   2.757   3.140  11.166  0.2060  1.1696  0.3261
  132MOL0     H18201   2.520   3.217  11.192 -0.4852  0.8062  1.1176
  132MOL0     H18202   2.229   3.587  11.283 -1.9319  0.0876  1.1497
  132MOL0     H18203   2.014   3.573  11.319  0.6305  3.6336 -0.4073
  132MOL0     H18204   1.786   3.436  11.296  0.8120 -0.6467 -0.1542
  132MOL0     H18205   1.778   3.616  11.320  4.0622 -1.3392 -0.1902
  132MOL0     H18206   1.542   3.476  11.300 -0.0596  0.6181  1.4725
  132MOL0     H18207   1.579   3.453  11.142  1.0419  0.1040 -0.1495
  132MOL0     H18208   1.575   3.741  11.250 -1.4915  0.3433  0.9815
  132MOL0     H18209   1.587   3.689  11.084  2.6308  1.3708  2.0580
  132MOL0     H18210   1.353   3.768  11.172 -0.0396  0.0219  0.9087
  132MOL0     H18211   1.348   3.604  11.245 -1.7701  0.1174 -1.1161
  132MOL0     H18212   1.286   3.500  10.851 -0.1413 -1.7544  1.2322
  132MOL0     H18213   1.917   3.509  10.898  1.6305  2.2411 -1.4083
  132MOL0     H18214   2.105   3.482  10.752  0.9481  3.9092  1.9613
  132MOL0     H18215   2.276   3.491  10.806  0.7313 -0.7981  1.3023
  132MOL0     H18216   2.198   3.339  10.813  0.7338 -0.7969 -0.5605
  133MOL0     O18217   3.649   5.393   9.368 -0.8525 -0.0333 -0.4638
  133MOL0     C18218   3.585   5.289   9.389 -0.0741  0.5871 -0.2693
  133MOL0     O18219   3.613   5.201   9.489 -0.3279  0.3753  0.2970
  133MOL0     C18220   3.724   5.236   9.561  0.4389 -0.4431 -0.1752
  133MOL0     C18221   3.722   5.330   9.674  0.2393 -0.2436 -0.0297
  133MOL0     C18222   3.845   5.374   9.734  0.3288  0.1288  0.1623
  133MOL0     C18223   3.973   5.325   9.692  0.3891  0.0035 -0.7617
  133MOL0     O18224   4.089   5.369   9.761  0.9994  0.0891  0.3020
  133MOL0     C18225   4.215   5.307   9.745 -0.6866 -0.3485 -0.5749
  133MOL0     C18226   4.314   5.412   9.804 -1.0383  0.1601  0.5915
  133MOL0     C18227   4.337   5.511   9.684  0.6830  0.0236 -0.1561
  133MOL0     C18228   4.447   5.607   9.726 -0.1852 -0.3234  0.5995
  133MOL0     C18229   4.487   5.698   9.614  0.6571  0.0329  0.2196
  133MOL0     C18230   4.583   5.807   9.673  0.2209  1.1665  0.3116
  133MOL0     C18231   4.643   5.897   9.573 -1.0262 -0.3151  0.7347
  133MOL0     C18232   4.692   6.030   9.610 -0.3634 -0.5677 -0.1052
  133MOL0     N18233   4.774   6.009   9.731  0.0054 -0.8198 -0.5797
  133MOL0     C18234   4.729   6.021   9.858 -0.3200  0.0996 -0.3921
  133MOL0     C18235   4.830   5.989   9.938  0.4040 -0.1998  0.5583
  133MOL0     C18236   4.823   6.008  10.086  0.0548  0.0656  0.8099
  133MOL0     C18237   4.764   6.143  10.123 -0.7101 -0.2132  0.1138
  133MOL0     C18238   4.759   6.144  10.290 -0.8408 -0.0089  0.5028
  133MOL0     C18239   4.765   6.284  10.344  0.2998 -0.0231 -0.1035
  133MOL0     O18240   4.656   6.360  10.293  0.3421  0.0708  0.6347
  133MOL0     C18241   4.687   6.496  10.270 -0.2844  0.1559  0.4248
  133MOL0     C18242   4.635   6.550  10.154  0.6236 -0.5202 -0.6760
  133MOL0     C18243   4.668   6.684  10.107  1.1847  0.4395  0.0888
  133MOL0     C18244   4.624   6.719   9.977  1.0600  0.0405  0.1544
  133MOL0     C18245   4.748   6.767  10.188 -0.1700  0.6406  0.3058
  133MOL0     C18246   4.774   6.903  10.150  0.0486 -0.4760  0.2755
  133MOL0     O18247   4.904   6.948  10.147 -0.0602 -0.4373  0.1710
  133MOL0     C18248   4.928   7.089  10.140 -0.3473 -0.4634 -0.7192
  133MOL0     C18249   5.051   7.122  10.081 -0.0284  0.7645  0.4100
  133MOL0     C18250   5.101   7.248  10.089 -0.1945  0.8077  0.2232
  133MOL0     C18251   5.026   7.345  10.151  0.6417  0.0732 -0.8016
  133MOL0     O18252   5.087   7.469  10.162  1.0474  0.3611 -0.1678
  133MOL0     C18253   5.012   7.583  10.103  0.7130  0.2552  1.1980
  133MOL0     C18254   5.113   7.663  10.005 -0.1786  0.8498 -0.2213
  133MOL0     C18255   5.176   7.585   9.885 -0.2484  0.8516 -0.3295
  133MOL0     C18256   5.055   7.537   9.800  0.4628 -0.2098  0.1904
  133MOL0     C18257   5.117   7.457   9.695 -0.4812  0.2526  0.5015
  133MOL0     C18258   5.044   7.466   9.566  0.0469  1.2472 -0.2148
  133MOL0     C18259   5.089   7.342   9.475  0.1561 -0.0848 -0.0627
  133MOL0     C18260   5.036   7.346   9.333 -0.6361  0.3755  0.3127
  133MOL0    Cl18261   4.860   7.362   9.324  0.2142  0.0972  0.3248
  133MOL0     C18262   4.908   7.314  10.228  0.0062 -0.2870  0.3015
  133MOL0     C18263   4.858   7.183  10.225  0.8158 -1.0292  0.2263
  133MOL0     O18264   4.673   6.973  10.125 -0.5628 -0.6817  0.0545
  133MOL0     C18265   4.799   6.715  10.315 -0.5806 -0.3310  1.2579
  133MOL0     C18266   4.777   6.579  10.349  0.3964  0.1446 -0.4521
  133MOL0     N18267   4.932   5.941   9.859  0.2601 -0.0290 -0.1617
  133MOL0     N18268   4.900   5.951   9.734 -0.3007 -1.0484 -0.2698
  133MOL0     C18269   3.965   5.216   9.600 -0.5635 -0.2501 -0.2994
  133MOL0     C18270   3.848   5.181   9.537 -0.4309 -0.5045  0.3899
  133MOL0     C18271   3.461   5.273   9.321 -0.7172  0.9988 -0.9098
  133MOL0     C18272   3.359   5.369   9.339  0.2689  0.2471  0.0619
  133MOL0     C18273   3.234   5.345   9.284 -1.0054  0.2296 -1.0069
  133MOL0     C18274   3.209   5.251   9.186 -0.6151  0.6641 -0.9199
  133MOL0     O18275   3.097   5.237   9.112  0.1875 -0.1724 -0.0839
  133MOL0     C18276   2.986   5.328   9.133 -1.6501 -0.1788 -0.3886
  133MOL0     C18277   2.869   5.286   9.049  0.1787 -0.1410 -0.1361
  133MOL0     C18278   2.796   5.164   9.105  0.2137  0.1310  0.0449
  133MOL0     C18279   2.661   5.155   9.048 -0.7224  0.0336  0.3974
  133MOL0     C18280   2.554   5.195   9.143 -0.5007 -0.7685  0.0782
  133MOL0     C18281   2.457   5.195   9.220  0.0122 -0.0490  0.0266
  133MOL0     C18282   3.313   5.156   9.167  0.4994 -0.1703 -0.4261
  133MOL0     C18283   3.433   5.163   9.241 -0.2852  0.1327  0.4316
  133MOL0     C18284   3.545   5.067   9.215  0.1881  0.5029 -0.2465
  133MOL0     H18285   3.627   5.374   9.704  0.7447  0.3675  0.6836
  133MOL0     H18286   3.843   5.453   9.808 -0.9102  0.3346 -0.0743
  133MOL0     H18287   4.248   5.297   9.641 -0.3051  0.4773 -0.5356
  133MOL0     H18288   4.234   5.213   9.799  1.4759  0.8952  0.9959
  133MOL0     H18289   4.277   5.468   9.891 -2.7179  3.0393 -1.8126
  133MOL0     H18290   4.409   5.363   9.831 -0.1239  1.7004  0.2892
  133MOL0     H18291   4.374   5.453   9.600  1.2192  1.0928 -0.6847
  133MOL0     H18292   4.250   5.572   9.657  0.0925 -1.3000 -1.3567
  133MOL0     H18293   4.396   5.667   9.802 -3.0705 -2.1136  0.2112
  133MOL0     H18294   4.535   5.556   9.769 -0.6531 -0.2844  1.6357
  133MOL0     H18295   4.401   5.735   9.557 -0.5422 -2.5018  0.2549
  133MOL0     H18296   4.536   5.640   9.535 -1.4401 -0.4267 -0.8132
  133MOL0     H18297   4.522   5.868   9.740  1.1455  0.9163  1.4067
  133MOL0     H18298   4.664   5.770   9.736 -1.1844 -1.2762  0.8038
  133MOL0     H18299   4.567   5.921   9.498 -1.8803 -0.1041  1.6593
  133MOL0     H18300   4.720   5.843   9.517 -0.7433  2.7985 -2.2525
  133MOL0     H18301   4.742   6.077   9.524 -1.4925 -0.1151 -0.5410
  133MOL0     H18302   4.601   6.090   9.617 -1.1517 -1.4389 -2.0416
  133MOL0     H18303   4.630   6.056   9.885  0.6130  0.9514  2.1774
  133MOL0     H18304   4.926   6.009  10.121  0.3731 -1.0871 -0.0422
  133MOL0     H18305   4.770   5.924  10.131 -2.9401 -0.3930 -2.9940
  133MOL0     H18306   4.841   6.215  10.093 -1.7425  0.6898 -0.4644
  133MOL0     H18307   4.673   6.165  10.066 -0.9227 -1.5900 -0.1059
  133MOL0     H18308   4.668   6.095  10.325 -0.9333  2.4791  4.4740
  133MOL0     H18309   4.850   6.091  10.320 -0.2738  0.3802 -0.4628
  133MOL0     H18310   4.765   6.275  10.453 -1.3728 -0.3497 -0.1040
  133MOL0     H18311   4.861   6.331  10.321 -0.1963  1.6732  1.0467
  133MOL0     H18312   4.568   6.494  10.090 -0.7408  0.7267 -0.3991
  133MOL0     H18313   4.691   6.789   9.927 -0.1481 -0.2217 -1.9523
  133MOL0     H18314   4.540   6.787   9.995  1.7274  0.4855  1.8721
  133MOL0     H18315   4.597   6.637   9.911 -0.9634  0.4520  0.3939
  133MOL0     H18316   5.114   7.051  10.028 -0.8524 -0.8440  1.4895
  133MOL0     H18317   5.199   7.260  10.045  1.1937  0.4739  3.0148
  133MOL0     H18318   4.919   7.549  10.057  2.4171 -0.6517 -1.7889
  133MOL0     H18319   4.992   7.652  10.186  0.1489  0.7751  0.6413
  133MOL0     H18320   5.061   7.748   9.961  1.5850  1.8632 -0.4264
  133MOL0     H18321   5.204   7.686  10.061 -0.6494 -0.1083  0.9850
  133MOL0     H18322   5.228   7.494   9.915 -1.7251 -0.4752 -1.5880
  133MOL0     H18323   5.247   7.651   9.834  1.6995 -0.7742  0.1486
  133MOL0     H18324   5.001   7.623   9.761  0.5071 -0.8178 -1.2833
  133MOL0     H18325   4.984   7.470   9.850 -1.6930 -1.7593 -4.3747
  133MOL0     H18326   5.220   7.488   9.677 -0.5856  0.0803 -0.4250
  133MOL0     H18327   5.132   7.355   9.733  0.1722  0.2808  0.3192
  133MOL0     H18328   5.077   7.553   9.509 -2.7935  1.3111 -1.9629
  133MOL0     H18329   4.938   7.472   9.591 -0.1032  0.3203 -0.5923
  133MOL0     H18330   5.052   7.249   9.518  0.6419 -2.2429 -3.8372
  133MOL0     H18331   5.197   7.359   9.469 -0.3558  3.7483 -2.9442
  133MOL0     H18332   5.060   7.262   9.267 -2.5468  1.6765 -2.2066
  133MOL0     H18333   5.084   7.429   9.279 -0.8046 -0.5648 -1.3607
  133MOL0     H18334   4.867   7.399  10.281  0.7215  0.2807 -0.0456
  133MOL0     H18335   4.775   7.143  10.283  0.1895  0.2158  0.2212
  133MOL0     H18336   4.860   6.787  10.369 -0.8022  0.3541  0.6095
  133MOL0     H18337   4.835   6.537  10.430  2.1254  1.3479 -1.0160
  133MOL0     H18338   4.052   5.154   9.580 -1.5551 -1.3958 -1.1981
  133MOL0     H18339   3.854   5.103   9.462  0.2200 -0.1683  0.0814
  133MOL0     H18340   3.385   5.455   9.401  1.1272  0.1017 -0.0871
  133MOL0     H18341   3.163   5.420   9.314 -1.0310  1.0678 -2.9811
  133MOL0     H18342   2.956   5.331   9.239  0.3809 -2.1626  0.3328
  133MOL0     H18343   3.017   5.426   9.096  1.9992 -2.2484 -3.5925
  133MOL0     H18344   2.895   5.273   8.944 -2.1844 -2.7457 -0.5259
  133MOL0     H18345   2.807   5.376   9.042  3.8190  2.4556 -2.4981
  133MOL0     H18346   2.868   5.085   9.081  0.0405 -0.6000  1.7498
  133MOL0     H18347   2.793   5.173   9.214  1.2296  0.9287  0.0230
  133MOL0     H18348   2.634   5.051   9.029  0.3310 -0.3956  1.1015
  133MOL0     H18349   2.659   5.220   8.960  4.4688  2.5076  1.7055
  133MOL0     H18350   2.364   5.170   9.267 -1.4342  1.3175 -1.9915
  133MOL0     H18351   3.291   5.085   9.088 -4.2569  1.0043 -0.4696
  133MOL0     H18352   3.584   5.029   9.311 -0.5245  1.4390  0.4346
  133MOL0     H18353   3.511   4.978   9.161 -2.7123  0.5897  1.2501
  133MOL0     H18354   3.629   5.106   9.157  1.9950 -1.2657  1.0283
  134MOL0     O18355   5.405   5.569   5.146  0.7082  0.0289 -0.0258
  134MOL0     C18356   5.459   5.484   5.212  0.0328  0.2644  1.0092
  134MOL0     O18357   5.446   5.464   5.349 -0.2440  0.1438  0.5702
  134MOL0     C18358   5.325   5.487   5.404  0.8656  0.0444  0.4047
  134MOL0     C18359   5.207   5.435   5.357 -0.1007  0.6519 -0.3259
  134MOL0     C18360   5.089   5.451   5.425 -0.3920 -0.1368 -0.1427
  134MOL0     C18361   5.082   5.535   5.541 -0.1452 -0.0504 -0.5851
  134MOL0     O18362   4.959   5.546   5.600  0.4437 -0.5441  0.0056
  134MOL0     C18363   4.940   5.636   5.713 -0.2883  0.7732  0.6538
  134MOL0     C18364   4.963   5.586   5.857  0.0295  0.6973 -0.0612
  134MOL0     C18365   4.858   5.487   5.898  0.4456  0.9319 -0.1167
  134MOL0     C18366   4.914   5.401   6.009 -0.7430  0.3030 -0.3490
  134MOL0     C18367   4.814   5.296   6.052  0.1368  1.3111  0.9952
  134MOL0     C18368   4.883   5.200   6.148  0.5444  0.2660 -0.7086
  134MOL0     C18369   4.817   5.058   6.155  0.4534 -0.0380  0.7058
  134MOL0     C18370   4.896   4.958   6.237 -0.8366  0.1182 -0.0179
  134MOL0     N18371   5.003   4.901   6.156 -0.3599  0.2727  0.5804
  134MOL0     C18372   5.116   4.952   6.100  0.3492  0.0611  0.9410
  134MOL0     C18373   5.170   4.847   6.021  0.1949  0.2224 -0.6322
  134MOL0     C18374   5.282   4.873   5.932 -0.5349 -0.2295  0.0286
  134MOL0     C18375   5.418   4.818   5.982 -1.1669  0.0179  0.5662
  134MOL0     C18376   5.542   4.913   5.938  0.5377  0.5648 -0.2197
  134MOL0     C18377   5.669   4.865   6.026  1.1046 -0.1236 -0.1527
  134MOL0     O18378   5.785   4.880   5.949 -0.4680  0.3710  0.6610
  134MOL0     C18379   5.823   4.776   5.862  0.0119  0.0003  0.1419
  134MOL0     C18380   5.769   4.649   5.853 -0.1515  0.5143 -0.4653
  134MOL0     C18381   5.831   4.552   5.763  0.2790  0.3106  0.3645
  134MOL0     C18382   5.766   4.419   5.750  0.3523  0.3573 -0.1232
  134MOL0     C18383   5.944   4.599   5.682  0.5103 -0.0907 -0.3824
  134MOL0     C18384   6.006   4.522   5.566 -0.6151  0.0145 -0.7264
  134MOL0     O18385   5.954   4.408   5.534 -0.3836  1.4373  0.1641
  134MOL0     C18386   5.998   4.321   5.441 -0.0903 -0.3269  1.0940
  134MOL0     C18387   6.050   4.369   5.316  0.1061  0.6452 -0.3197
  134MOL0     C18388   6.093   4.276   5.214  0.3914 -0.5962 -0.2679
  134MOL0     C18389   6.092   4.135   5.242 -0.0234 -1.0185  0.1152
  134MOL0     O18390   6.108   4.035   5.147  0.7413 -0.6539 -0.2617
  134MOL0     C18391   6.188   4.070   5.037 -0.1009 -0.3431  0.1356
  134MOL0     C18392   6.228   3.956   4.942  0.7518  0.4983 -0.9948
  134MOL0     C18393   6.322   3.856   5.014  0.3103  0.5834 -1.2112
  134MOL0     C18394   6.366   3.741   4.924 -0.2413  0.5228  1.2048
  134MOL0     C18395   6.456   3.640   4.983 -0.5210  0.2121 -0.1439
  134MOL0     C18396   6.600   3.690   4.996 -0.3586 -0.6629  0.3832
  134MOL0     C18397   6.701   3.590   5.052 -0.2042 -0.2910  0.4339
  134MOL0     C18398   6.722   3.467   4.969  0.2753  0.0947  0.6946
  134MOL0    Cl18399   6.802   3.497   4.810 -0.3313 -0.7731 -0.3241
  134MOL0     C18400   6.035   4.097   5.369  0.8383  1.0778 -0.0803
  134MOL0     C18401   5.986   4.182   5.468 -0.6762 -0.1912 -0.0684
  134MOL0     O18402   6.118   4.570   5.531  0.2876 -0.2211 -0.3150
  134MOL0     C18403   5.989   4.731   5.700  0.1994  0.0201 -0.2252
  134MOL0     C18404   5.934   4.814   5.786  0.5257 -0.3543  0.5664
  134MOL0     N18405   5.101   4.727   6.058  0.4058  1.0152 -0.4098
  134MOL0     N18406   5.003   4.765   6.126 -0.1079  0.2520 -0.8377
  134MOL0     C18407   5.203   5.586   5.587 -0.8558  0.2791  0.9251
  134MOL0     C18408   5.324   5.560   5.524 -0.1196 -0.3335  0.1541
  134MOL0     C18409   5.560   5.409   5.142 -0.6158  0.4658  0.1691
  134MOL0     C18410   5.545   5.402   5.005  0.6692  0.0083 -0.0605
  134MOL0     C18411   5.639   5.329   4.931  0.8822 -0.4361 -0.7147
  134MOL0     C18412   5.745   5.264   4.985 -0.6000  0.4322  0.4336
  134MOL0     O18413   5.829   5.173   4.913  0.2973  0.3821 -0.1918
  134MOL0     C18414   5.829   5.195   4.768  1.0222 -0.9819  0.0341
  134MOL0     C18415   5.937   5.119   4.711  0.2278  1.1163 -0.4843
  134MOL0     C18416   5.984   5.148   4.563  0.4236 -0.1151  0.3199
  134MOL0     C18417   5.973   5.014   4.493  0.5895 -0.5326  0.2775
  134MOL0     C18418   6.091   4.928   4.525 -0.2822  0.0682  0.4301
  134MOL0     C18419   6.189   4.854   4.543  0.2659  0.3574 -0.3399
  134MOL0     C18420   5.759   5.275   5.124  0.5510  0.1377  0.2450
  134MOL0     C18421   5.674   5.347   5.200  0.8538 -0.5231 -0.1233
  134MOL0     C18422   5.694   5.332   5.344  0.3036 -0.8478  0.2009
  134MOL0     H18423   5.222   5.377   5.267  2.5972  0.3310  0.2547
  134MOL0     H18424   5.005   5.389   5.394  2.7688 -3.7182 -2.3816
  134MOL0     H18425   4.841   5.682   5.702  0.2926  1.6570 -1.3615
  134MOL0     H18426   4.990   5.731   5.692  3.5655 -1.4343 -1.1410
  134MOL0     H18427   5.063   5.541   5.861 -0.7396 -0.9751  1.7762
  134MOL0     H18428   4.953   5.671   5.925  2.2956 -0.8314  2.3462
  134MOL0     H18429   4.767   5.536   5.934  0.9864 -0.6648  3.9443
  134MOL0     H18430   4.820   5.433   5.811  0.6944 -1.1326  0.9933
  134MOL0     H18431   5.009   5.350   5.993 -0.8912 -0.1622  0.1986
  134MOL0     H18432   4.931   5.473   6.089 -0.3176  1.3604 -1.3638
  134MOL0     H18433   4.791   5.234   5.965 -0.1788  1.2661  1.1116
  134MOL0     H18434   4.717   5.331   6.089  0.0710  1.5947  0.5511
  134MOL0     H18435   4.988   5.188   6.118 -0.1034 -1.7069 -2.4476
  134MOL0     H18436   4.895   5.247   6.246  0.0485 -0.1890 -0.4267
  134MOL0     H18437   4.795   5.008   6.060 -0.4775 -1.8498  1.7981
  134MOL0     H18438   4.721   5.068   6.207  0.8745 -0.7147  1.6530
  134MOL0     H18439   4.940   5.003   6.326  1.0475  1.5776 -1.5962
  134MOL0     H18440   4.836   4.874   6.273 -2.7265  1.2964 -0.2967
  134MOL0     H18441   5.140   5.057   6.086  0.2539 -0.2910 -3.0822
  134MOL0     H18442   5.297   4.981   5.918 -3.2001 -0.0142 -1.9524
  134MOL0     H18443   5.261   4.828   5.834  1.7421 -1.5417  0.0817
  134MOL0     H18444   5.407   4.822   6.091  1.2578  2.2956  0.8249
  134MOL0     H18445   5.430   4.713   5.953 -3.1676  0.0607 -0.6011
  134MOL0     H18446   5.560   4.886   5.834  3.0645  0.5167  0.1698
  134MOL0     H18447   5.521   5.020   5.942 -2.5510  0.1091 -1.4145
  134MOL0     H18448   5.683   4.921   6.120  0.7173 -2.6633  1.5313
  134MOL0     H18449   5.652   4.761   6.053 -0.7452 -0.3361 -1.8842
  134MOL0     H18450   5.679   4.612   5.902 -1.0027  0.7827 -1.7601
  134MOL0     H18451   5.690   4.394   5.825 -2.4340  2.2250 -2.1257
  134MOL0     H18452   5.852   4.352   5.744  0.6551  0.7643 -0.4216
  134MOL0     H18453   5.717   4.422   5.653  0.2120 -3.5833 -0.3267
  134MOL0     H18454   6.065   4.476   5.302 -1.0040  0.8949  0.2455
  134MOL0     H18455   6.139   4.324   5.128 -0.6833  0.4124 -0.3027
  134MOL0     H18456   6.131   4.138   4.973 -1.5233 -0.8409  0.8260
  134MOL0     H18457   6.282   4.112   5.073  0.3436 -0.1916 -1.1359
  134MOL0     H18458   6.139   3.899   4.913  0.7972 -1.2054  1.7900
  134MOL0     H18459   6.280   3.985   4.850  1.2026  2.0127 -0.2955
  134MOL0     H18460   6.273   3.816   5.104 -1.2169  0.5955 -2.0032
  134MOL0     H18461   6.415   3.902   5.049  0.9595 -1.8843  0.6179
  134MOL0     H18462   6.426   3.772   4.838 -2.5911 -0.7150 -1.0405
  134MOL0     H18463   6.277   3.687   4.891 -0.5894  0.9778  1.3802
  134MOL0     H18464   6.418   3.607   5.081 -0.4821 -0.3677 -0.3174
  134MOL0     H18465   6.456   3.550   4.921  1.4702  1.8580 -2.7188
  134MOL0     H18466   6.587   3.776   5.062 -2.8617 -0.3492 -0.4177
  134MOL0     H18467   6.651   3.723   4.905 -1.5296 -0.9306 -0.3871
  134MOL0     H18468   6.680   3.560   5.155 -1.7375 -1.9370 -0.3068
  134MOL0     H18469   6.800   3.639   5.054  0.8806 -2.3003 -0.7323
  134MOL0     H18470   6.630   3.411   4.951  1.3362 -0.9387 -2.0845
  134MOL0     H18471   6.782   3.400   5.031  1.8946  0.6400 -0.2203
  134MOL0     H18472   6.034   3.990   5.387 -2.2798  1.4061  2.8450
  134MOL0     H18473   5.958   4.150   5.567  1.0221  3.2912  1.7037
  134MOL0     H18474   6.061   4.765   5.626  1.0630 -0.4741  0.3710
  134MOL0     H18475   5.976   4.914   5.775  0.7979 -0.5544 -0.2158
  134MOL0     H18476   5.205   5.645   5.679 -1.5615  1.7528  0.0352
  134MOL0     H18477   5.418   5.587   5.570  1.0486 -3.0134 -0.4873
  134MOL0     H18478   5.467   5.452   4.949  1.6823 -2.7397 -4.4723
  134MOL0     H18479   5.621   5.338   4.825 -0.6401  0.7603 -0.3770
  134MOL0     H18480   5.739   5.159   4.716  1.6645  1.3310 -2.9059
  134MOL0     H18481   5.835   5.301   4.741 -0.7536 -0.3794  1.7213
  134MOL0     H18482   5.901   5.016   4.718  3.6247 -0.1272  0.7561
  134MOL0     H18483   6.020   5.129   4.781 -2.1731 -0.4928  2.8749
  134MOL0     H18484   5.902   5.211   4.529 -0.2184 -1.2490 -0.2942
  134MOL0     H18485   6.084   5.191   4.549 -0.3365  1.4400 -0.5996
  134MOL0     H18486   5.980   5.026   4.385  0.5384 -0.6482  0.2617
  134MOL0     H18487   5.885   4.954   4.515 -1.6420  1.3826 -2.6999
  134MOL0     H18488   6.263   4.777   4.552  1.4773  1.6465  1.3042
  134MOL0     H18489   5.836   5.216   5.172  0.8658 -0.5610 -1.0652
  134MOL0     H18490   5.665   5.426   5.393  1.5511 -0.6326  0.5589
  134MOL0     H18491   5.650   5.243   5.389  1.7823 -0.9380  1.5608
  134MOL0     H18492   5.801   5.317   5.360  1.1178  0.4172 -3.2076
  135MOL0     O18493   9.746   7.154   7.835 -0.2878 -0.2659  0.1292
  135MOL0     C18494   9.667   7.170   7.742 -0.1050 -0.2440  1.2387
  135MOL0     O18495   9.640   7.083   7.639  0.5610 -1.0419 -0.4965
  135MOL0     C18496   9.706   6.968   7.622  0.0389  0.1878 -0.1368
  135MOL0     C18497   9.843   6.958   7.593 -0.2335 -0.5796 -0.5689
  135MOL0     C18498   9.902   6.828   7.564  0.4714  0.1953  0.3984
  135MOL0     C18499   9.823   6.716   7.547  0.0329  0.6661 -0.0271
  135MOL0     O18500   9.861   6.586   7.503 -0.0301 -0.8528  0.4526
  135MOL0     C18501   9.999   6.570   7.516 -0.0416  0.6805  0.0983
  135MOL0     C18502  10.025   6.420   7.483  0.2222 -0.3692  0.7139
  135MOL0     C18503   9.954   6.325   7.587 -0.6202  0.5938  0.3752
  135MOL0     C18504   9.980   6.175   7.555  0.3569 -1.5167  0.7765
  135MOL0     C18505   9.888   6.095   7.648 -0.7213  0.5882 -0.1463
  135MOL0     C18506   9.845   5.971   7.571  0.2969 -0.2046  0.3110
  135MOL0     C18507   9.768   5.879   7.660 -0.0744  0.2869  0.0241
  135MOL0     C18508   9.709   5.755   7.587  0.2636 -0.9925  0.8692
  135MOL0     N18509   9.623   5.670   7.666 -0.6513 -0.2579 -0.4751
  135MOL0     C18510   9.670   5.568   7.748 -0.0117  0.9764  0.2010
  135MOL0     C18511   9.561   5.488   7.771 -0.1422  0.3191  0.2808
  135MOL0     C18512   9.541   5.362   7.853 -0.1492  0.0344  0.5775
  135MOL0     C18513   9.671   5.305   7.921 -0.4551 -0.3097 -0.2573
  135MOL0     C18514   9.772   5.252   7.811  0.1966  0.4484 -0.4274
  135MOL0     C18515   9.921   5.258   7.850  0.7385  1.3248 -0.2763
  135MOL0     O18516   9.964   5.387   7.823 -0.8102  0.1938  0.2948
  135MOL0     C18517  10.097   5.397   7.774  0.1107  0.2653 -0.0979
  135MOL0     C18518  10.122   5.519   7.714 -0.3118 -0.2636  0.7737
  135MOL0     C18519  10.253   5.563   7.678  0.6268 -0.6999 -0.5250
  135MOL0     C18520  10.281   5.694   7.612 -0.1008 -0.6710  0.3327
  135MOL0     C18521  10.358   5.464   7.682  0.3603 -1.6285 -0.1239
  135MOL0     C18522  10.497   5.486   7.628 -0.4054  0.0003  0.7082
  135MOL0     O18523  10.557   5.377   7.575  0.2318  0.8220 -1.0910
  135MOL0     C18524  10.687   5.376   7.541  0.0864 -0.7464 -0.5894
  135MOL0     C18525  10.789   5.388   7.638 -0.4189  0.4431  1.0663
  135MOL0     C18526  10.919   5.388   7.589 -0.3669 -0.8754  0.8651
  135MOL0     C18527  10.947   5.380   7.446  0.6649 -0.4453  0.4467
  135MOL0     O18528  11.067   5.416   7.380  0.6978  0.1406  0.0010
  135MOL0     C18529  11.198   5.409   7.450 -0.5958 -0.0699  0.4062
  135MOL0     C18530  11.305   5.385   7.338  0.6735  0.2810  0.0148
  135MOL0     C18531  11.431   5.451   7.373 -0.2921  0.8171  0.0010
  135MOL0     C18532  11.538   5.378   7.293  0.4195 -0.0603  0.2426
  135MOL0     C18533  11.673   5.432   7.336  0.2266 -0.2611 -0.1079
  135MOL0     C18534  11.795   5.369   7.270 -0.4302  0.3278  0.5492
  135MOL0     C18535  11.791   5.376   7.123 -0.5711 -0.6013  0.1179
  135MOL0     C18536  11.884   5.277   7.051 -0.1959  0.0921 -0.2411
  135MOL0    Cl18537  12.059   5.299   7.099 -0.4066  0.4790  0.1119
  135MOL0     C18538  10.838   5.380   7.357  0.4964  0.1330  0.3735
  135MOL0     C18539  10.713   5.357   7.407  0.3320 -0.8808  0.6586
  135MOL0     O18540  10.552   5.597   7.639  0.1121  0.0780 -0.0818
  135MOL0     C18541  10.325   5.339   7.736  0.5792 -0.2590  0.1798
  135MOL0     C18542  10.198   5.299   7.788 -0.6203 -0.5687  0.5004
  135MOL0     N18543   9.459   5.537   7.703  0.5424 -0.3373  0.1926
  135MOL0     N18544   9.498   5.647   7.641 -0.6640  0.5937  0.8062
  135MOL0     C18545   9.685   6.727   7.576  0.2417 -0.8422  0.6161
  135MOL0     C18546   9.630   6.849   7.618 -0.5226  0.1684  0.0300
  135MOL0     C18547   9.592   7.302   7.746  0.2782  0.1786  0.2194
  135MOL0     C18548   9.634   7.410   7.830  0.1418  0.4183 -0.2773
  135MOL0     C18549   9.551   7.521   7.851 -0.5688  0.5439 -0.2301
  135MOL0     C18550   9.422   7.525   7.809 -0.1445 -0.5712  0.4047
  135MOL0     O18551   9.346   7.635   7.838  0.0293  0.5141 -0.0243
  135MOL0     C18552   9.223   7.673   7.769  0.2321 -0.7413  0.8383
  135MOL0     C18553   9.158   7.803   7.819  0.7256  0.4466 -0.0662
  135MOL0     C18554   9.029   7.840   7.740  0.6920  0.1082 -0.5814
  135MOL0     C18555   8.927   7.721   7.748 -0.8585  0.5641  0.9153
  135MOL0     C18556   8.888   7.690   7.881  0.7945 -0.6992  0.0423
  135MOL0     C18557   8.852   7.659   7.991 -0.3275  0.0720 -0.1147
  135MOL0     C18558   9.370   7.423   7.728 -0.2508  0.2123 -0.1350
  135MOL0     C18559   9.455   7.314   7.698 -0.7261  0.5913  0.3055
  135MOL0     C18560   9.391   7.214   7.605  0.9710  0.4572 -0.1326
  135MOL0     H18561   9.912   7.041   7.593  0.3849 -1.0575 -1.9836
  135MOL0     H18562  10.010   6.825   7.552  0.9970  1.6193  3.6009
  135MOL0     H18563  10.029   6.584   7.620 -3.1986 -2.0226  1.5506
  135MOL0     H18564  10.054   6.635   7.447  0.3502  1.6198  1.2466
  135MOL0     H18565   9.987   6.392   7.385 -0.6670 -1.3050  1.3026
  135MOL0     H18566  10.134   6.416   7.470 -0.0487 -0.2547 -2.3626
  135MOL0     H18567   9.983   6.350   7.690  0.3578 -1.4843  0.6469
  135MOL0     H18568   9.847   6.347   7.589 -0.6125  0.7106  2.8505
  135MOL0     H18569   9.962   6.152   7.449 -0.5754 -1.1028  0.8333
  135MOL0     H18570  10.083   6.144   7.577  1.3325 -0.3044 -1.7123
  135MOL0     H18571   9.797   6.154   7.659 -0.4385  1.5594 -2.3355
  135MOL0     H18572   9.935   6.056   7.738 -2.5088 -2.6330 -0.4492
  135MOL0     H18573   9.783   5.997   7.485 -1.5239  0.9818  1.8931
  135MOL0     H18574   9.936   5.932   7.525  0.6470  1.1536 -0.1871
  135MOL0     H18575   9.686   5.945   7.689  0.7929  1.1983  0.5004
  135MOL0     H18576   9.828   5.840   7.744 -1.1611 -0.6213  0.4022
  135MOL0     H18577   9.663   5.787   7.493  1.8767  1.0936  0.7094
  135MOL0     H18578   9.797   5.696   7.557 -0.6279 -0.4121 -3.7007
  135MOL0     H18579   9.770   5.550   7.785  0.2557  0.8265 -0.5742
  135MOL0     H18580   9.508   5.283   7.784  1.2114  1.0422 -1.3246
  135MOL0     H18581   9.459   5.387   7.920  0.0054 -0.5015  0.9752
  135MOL0     H18582   9.730   5.376   7.979  2.3114 -0.0068 -3.1269
  135MOL0     H18583   9.643   5.230   7.995 -0.4306 -0.4878 -0.4247
  135MOL0     H18584   9.736   5.153   7.781 -0.1174  0.3498  0.2639
  135MOL0     H18585   9.758   5.296   7.712 -6.8343 -3.9170 -2.0740
  135MOL0     H18586   9.931   5.233   7.956 -4.8293  0.7502  0.3938
  135MOL0     H18587   9.960   5.174   7.792 -2.8300 -3.1921  3.0631
  135MOL0     H18588  10.039   5.588   7.704  0.9741  1.1773 -0.4164
  135MOL0     H18589  10.188   5.751   7.615 -0.8629 -1.2854 -4.4830
  135MOL0     H18590  10.315   5.684   7.509 -0.5791  0.3243  0.0677
  135MOL0     H18591  10.361   5.754   7.656 -0.3601 -0.6477  0.7759
  135MOL0     H18592  10.771   5.400   7.744  0.7384  2.0473  1.1242
  135MOL0     H18593  11.005   5.407   7.652  0.4660  1.7906 -0.8942
  135MOL0     H18594  11.223   5.496   7.511  0.5525 -0.1972  0.1511
  135MOL0     H18595  11.203   5.320   7.513  0.9646  0.7967  1.5961
  135MOL0     H18596  11.325   5.278   7.335  0.6665  0.3074 -1.4409
  135MOL0     H18597  11.272   5.436   7.248  0.5583 -0.4643 -0.3661
  135MOL0     H18598  11.456   5.427   7.476  1.1855 -1.6616 -0.8423
  135MOL0     H18599  11.431   5.558   7.352  0.7485  1.2601  2.0587
  135MOL0     H18600  11.509   5.402   7.190 -0.1352 -1.0462  0.1625
  135MOL0     H18601  11.537   5.270   7.306  0.4916 -0.1918 -0.8016
  135MOL0     H18602  11.671   5.539   7.312 -2.2951 -0.7619 -2.6148
  135MOL0     H18603  11.683   5.418   7.444 -1.4486 -0.6793  0.0265
  135MOL0     H18604  11.788   5.262   7.289  1.1923 -0.4800 -2.7528
  135MOL0     H18605  11.885   5.422   7.302  0.9378 -2.2290  1.2376
  135MOL0     H18606  11.826   5.478   7.107  1.5180 -1.4650 -1.4468
  135MOL0     H18607  11.692   5.368   7.078 -0.5048 -0.8756  0.0177
  135MOL0     H18608  11.863   5.302   6.946 -1.1860  1.1736  0.1961
  135MOL0     H18609  11.863   5.171   7.070  0.0214 -0.3995 -2.4413
  135MOL0     H18610  10.852   5.388   7.250  0.9618  0.6407  0.4702
  135MOL0     H18611  10.631   5.338   7.338  0.0885 -1.8329  1.1950
  135MOL0     H18612  10.405   5.265   7.740  0.3394 -0.5971 -1.0404
  135MOL0     H18613  10.192   5.201   7.834 -0.3360 -0.3178  1.0720
  135MOL0     H18614   9.620   6.640   7.568 -2.1361  0.9058 -0.7571
  135MOL0     H18615   9.525   6.868   7.638 -0.5097 -0.6078  0.9303
  135MOL0     H18616   9.724   7.406   7.891  0.5039  3.2904 -0.4993
  135MOL0     H18617   9.588   7.594   7.923  3.7069  2.2723 -3.7048
  135MOL0     H18618   9.254   7.698   7.667 -0.6371  0.9118  0.9504
  135MOL0     H18619   9.155   7.587   7.771  1.0011 -1.8429 -4.2434
  135MOL0     H18620   9.232   7.883   7.807  0.9639 -0.1746 -4.5793
  135MOL0     H18621   9.139   7.790   7.926 -1.5609  2.6897 -0.1115
  135MOL0     H18622   8.991   7.934   7.782  1.9014  0.7675 -0.9002
  135MOL0     H18623   9.048   7.861   7.635 -2.0273 -2.7202 -1.7706
  135MOL0     H18624   8.967   7.634   7.696  0.2001  1.9473 -0.6956
  135MOL0     H18625   8.839   7.740   7.685 -0.3131 -3.6586 -1.4954
  135MOL0     H18626   8.809   7.616   8.079 -0.1099 -0.7349 -0.3948
  135MOL0     H18627   9.270   7.423   7.686  0.1509 -1.8687 -1.2152
  135MOL0     H18628   9.363   7.124   7.661  3.4948 -0.2254  0.1235
  135MOL0     H18629   9.298   7.260   7.569  0.6821  0.2386  0.3154
  135MOL0     H18630   9.443   7.195   7.511 -1.6651  3.3799 -2.4054
  136MOL0     O18631  10.560   7.130   0.626 -0.1794 -0.0721  0.1913
  136MOL0     C18632  10.497   7.028   0.634 -0.5025  1.1070  0.1749
  136MOL0     O18633  10.554   6.902   0.618  0.5089 -0.1990 -0.2302
  136MOL0     C18634  10.681   6.880   0.645 -0.5974 -0.5755  0.3841
  136MOL0     C18635  10.772   6.933   0.563  1.1805 -0.4086  0.4523
  136MOL0     C18636  10.903   6.891   0.556 -0.5888  0.5959  0.0132
  136MOL0     C18637  10.944   6.779   0.633 -0.3439 -0.5418  0.1172
  136MOL0     O18638  11.079   6.738   0.628  0.1902 -0.5976 -0.2696
  136MOL0     C18639  11.182   6.835   0.599 -0.0248  0.8608 -0.1503
  136MOL0     C18640  11.317   6.768   0.619 -0.3367  0.7980 -0.7862
  136MOL0     C18641  11.430   6.871   0.614  1.0511 -0.3056  0.1754
  136MOL0     C18642  11.570   6.796   0.647  0.2577  0.0845  0.8331
  136MOL0     C18643  11.688   6.901   0.642  0.0699 -0.3583 -0.7327
  136MOL0     C18644  11.659   7.025   0.734  0.0534  0.1828  0.1935
  136MOL0     C18645  11.779   7.095   0.793  0.3929 -0.7441  0.0855
  136MOL0     C18646  11.740   7.210   0.889 -0.4015  0.5207  0.5390
  136MOL0     N18647  11.859   7.296   0.923  0.4709  0.4194 -0.0772
  136MOL0     C18648  11.937   7.361   0.836 -0.2903 -0.1985 -0.3608
  136MOL0     C18649  12.043   7.414   0.905  1.2546  0.2717  0.0803
  136MOL0     C18650  12.142   7.506   0.852 -0.2647 -0.4067 -0.7763
  136MOL0     C18651  12.093   7.657   0.852  1.2381 -0.1411 -0.4047
  136MOL0     C18652  12.208   7.753   0.832  0.1829 -0.3005  0.0124
  136MOL0     C18653  12.286   7.779   0.956 -0.0166  0.1575 -0.7177
  136MOL0     O18654  12.225   7.867   1.055  0.5922  0.9920  0.3268
  136MOL0     C18655  12.229   8.004   1.038 -0.3432  0.3951 -0.5669
  136MOL0     C18656  12.337   8.078   0.987 -0.1671 -0.3836 -0.0920
  136MOL0     C18657  12.334   8.221   0.964 -0.1357  0.6910  0.5473
  136MOL0     C18658  12.462   8.279   0.913 -0.0861  0.5664  0.6166
  136MOL0     C18659  12.227   8.292   1.012  0.5321 -0.0491  0.6097
  136MOL0     C18660  12.199   8.430   0.999 -0.7004  0.2500  0.1956
  136MOL0     O18661  12.243   8.482   0.884  0.0568  0.1758  0.2935
  136MOL0     C18662  12.220   8.613   0.859 -0.4744 -0.5466 -0.2069
  136MOL0     C18663  12.153   8.709   0.937  0.1330 -1.5430  0.0455
  136MOL0     C18664  12.132   8.841   0.878  0.0643  0.6687 -0.5049
  136MOL0     C18665  12.192   8.871   0.760  0.2570 -0.3682  0.1869
  136MOL0     O18666  12.191   8.998   0.706  0.3228  0.6170  0.5147
  136MOL0     C18667  12.168   9.117   0.779  0.0784 -0.2029  0.5087
  136MOL0     C18668  12.044   9.198   0.731 -0.0413 -0.0981  0.0087
  136MOL0     C18669  11.911   9.152   0.806 -0.0164  0.7046  0.3928
  136MOL0     C18670  11.906   9.160   0.959 -0.0713 -0.5124 -0.5514
  136MOL0     C18671  11.778   9.082   0.995 -0.3972  0.6225  0.2236
  136MOL0     C18672  11.750   9.071   1.145 -0.2379  0.6345  0.2659
  136MOL0     C18673  11.617   9.126   1.181 -0.6695 -0.1576 -0.2653
  136MOL0     C18674  11.602   9.181   1.323 -0.3841  0.4624  0.4705
  136MOL0    Cl18675  11.673   9.342   1.337 -0.5244 -0.0917  0.0375
  136MOL0     C18676  12.283   8.783   0.695 -0.1504  1.0270 -0.3101
  136MOL0     C18677  12.281   8.649   0.735  0.5950  0.2267 -0.2656
  136MOL0     O18678  12.117   8.482   1.082 -0.4969 -0.3720 -0.7779
  136MOL0     C18679  12.113   8.215   1.058 -0.6685 -1.4602 -0.3305
  136MOL0     C18680  12.116   8.079   1.084  0.8057 -0.0077  0.8427
  136MOL0     N18681  12.035   7.375   1.032  0.0345 -0.1628 -0.8321
  136MOL0     N18682  11.919   7.311   1.045  0.1048  0.5686 -0.8511
  136MOL0     C18683  10.846   6.714   0.712 -1.1669 -0.0662 -0.1760
  136MOL0     C18684  10.719   6.759   0.707  0.7512 -0.1034 -0.1334
  136MOL0     C18685  10.346   7.027   0.626 -0.1000  0.2277 -0.6872
  136MOL0     C18686  10.280   6.903   0.606  0.4831  0.0202 -0.3548
  136MOL0     C18687  10.149   6.905   0.575  1.0128 -0.4496  0.7438
  136MOL0     C18688  10.084   7.026   0.559 -0.5384 -0.6814 -0.5403
  136MOL0     O18689   9.950   7.018   0.526  0.4296 -0.4680  0.1798
  136MOL0     C18690   9.869   7.136   0.555  0.5180  0.1202  0.2497
  136MOL0     C18691   9.728   7.118   0.501 -0.1544 -0.2375 -0.4218
  136MOL0     C18692   9.652   7.007   0.569  0.0979  0.0350  0.6358
  136MOL0     C18693   9.536   6.972   0.479  0.2157 -0.2728 -0.9257
  136MOL0     C18694   9.440   6.879   0.554 -0.5908 -0.8796  0.2265
  136MOL0     C18695   9.352   6.811   0.602 -0.2922  0.0937  0.3213
  136MOL0     C18696  10.147   7.142   0.590  0.5297 -1.0258 -0.4067
  136MOL0     C18697  10.269   7.146   0.638 -0.9787  0.5288 -0.0394
  136MOL0     C18698  10.317   7.285   0.692 -0.3483  0.2030 -0.2147
  136MOL0     H18699  10.741   7.003   0.486  1.2049  0.5933  1.3301
  136MOL0     H18700  10.974   6.951   0.500 -0.2405 -0.1035 -0.3130
  136MOL0     H18701  11.171   6.926   0.659 -2.2861  1.4212 -1.3295
  136MOL0     H18702  11.190   6.867   0.495  2.9270  2.2204  0.3719
  136MOL0     H18703  11.321   6.730   0.722  0.2062  3.2488  0.1712
  136MOL0     H18704  11.336   6.686   0.549  1.3414  0.5311 -0.0815
  136MOL0     H18705  11.444   6.925   0.520 -1.5321  0.5397  0.1949
  136MOL0     H18706  11.412   6.944   0.694 -4.8025 -2.5121  1.4313
  136MOL0     H18707  11.553   6.752   0.746 -3.9319  1.5585  0.9684
  136MOL0     H18708  11.581   6.718   0.571  2.2666  1.4191 -0.3317
  136MOL0     H18709  11.692   6.942   0.540 -1.2124 -0.5479 -0.8724
  136MOL0     H18710  11.774   6.844   0.677 -1.0697 -1.3696  0.5136
  136MOL0     H18711  11.610   7.096   0.666 -1.5257  1.1211  2.1992
  136MOL0     H18712  11.597   6.997   0.820 -0.3300  0.7420  0.1065
  136MOL0     H18713  11.839   7.147   0.717 -2.1232  3.7562  0.8461
  136MOL0     H18714  11.852   7.027   0.838  0.6812 -0.8529 -0.5349
  136MOL0     H18715  11.662   7.276   0.849  0.1400 -0.1167 -1.6672
  136MOL0     H18716  11.711   7.157   0.980  0.5898  1.2150  1.2790
  136MOL0     H18717  11.910   7.399   0.738 -1.1641  0.5730  0.1632
  136MOL0     H18718  12.160   7.474   0.749 -1.0989  0.8825 -1.3577
  136MOL0     H18719  12.238   7.502   0.903 -0.8701  1.4248  0.6145
  136MOL0     H18720  12.023   7.661   0.768  0.7491 -3.6316 -0.2792
  136MOL0     H18721  12.035   7.688   0.940 -1.7008 -0.8243 -1.9810
  136MOL0     H18722  12.263   7.719   0.743  0.5476  3.7016 -1.5590
  136MOL0     H18723  12.172   7.849   0.793  1.8163 -0.1981 -1.3961
  136MOL0     H18724  12.307   7.686   1.010 -1.3749 -0.6014 -1.4305
  136MOL0     H18725  12.382   7.823   0.927 -1.9080  6.4711  1.0135
  136MOL0     H18726  12.424   8.026   0.950 -0.6968 -0.6202 -1.0437
  136MOL0     H18727  12.461   8.323   0.813  2.4238 -3.2558 -1.3738
  136MOL0     H18728  12.535   8.197   0.905  0.6062  1.2795 -0.7850
  136MOL0     H18729  12.500   8.356   0.981  1.4836 -2.1253  2.9945
  136MOL0     H18730  12.114   8.709   1.038  0.8766 -1.1141  0.3394
  136MOL0     H18731  12.055   8.906   0.920 -0.0113 -0.0948  0.5992
  136MOL0     H18732  12.152   9.102   0.886 -0.6420  0.5908  0.5228
  136MOL0     H18733  12.259   9.174   0.755  0.1043 -0.3752  0.1927
  136MOL0     H18734  12.067   9.303   0.751  0.1528 -0.1099 -0.1544
  136MOL0     H18735  12.039   9.190   0.622 -0.8130 -1.1918  0.1011
  136MOL0     H18736  11.916   9.046   0.779  1.2321  0.5881  1.0385
  136MOL0     H18737  11.824   9.203   0.763 -0.1464  1.2096  1.2468
  136MOL0     H18738  11.889   9.266   0.980 -1.6921 -0.5215 -1.6895
  136MOL0     H18739  11.990   9.124   1.019 -0.0335  1.6177  0.8044
  136MOL0     H18740  11.702   9.133   0.935  0.4092 -0.6963 -2.0281
  136MOL0     H18741  11.778   8.983   0.949  1.0187  0.2179  1.0330
  136MOL0     H18742  11.832   9.118   1.199 -0.6108  0.2998  1.1362
  136MOL0     H18743  11.747   8.970   1.185  2.1407  1.2115  2.0986
  136MOL0     H18744  11.537   9.059   1.150 -3.1141  3.1502 -1.6819
  136MOL0     H18745  11.598   9.214   1.119  3.0162  1.2017  0.2762
  136MOL0     H18746  11.661   9.116   1.389 -0.5502 -0.8376 -0.6285
  136MOL0     H18747  11.495   9.179   1.346 -0.7415 -0.6059 -1.1492
  136MOL0     H18748  12.344   8.796   0.606 -3.5377  3.5420 -2.5622
  136MOL0     H18749  12.345   8.575   0.688  1.1829  0.9202 -0.5675
  136MOL0     H18750  12.019   8.268   1.068 -0.1740 -0.6093 -0.0743
  136MOL0     H18751  12.032   8.028   1.129 -0.4355 -1.8589 -3.0726
  136MOL0     H18752  10.878   6.623   0.762 -1.8408  0.1796  0.7277
  136MOL0     H18753  10.644   6.715   0.772  0.0876 -1.0830 -1.5338
  136MOL0     H18754  10.333   6.809   0.611  1.5213  0.4979 -1.8828
  136MOL0     H18755  10.090   6.814   0.569  0.5161 -0.4130  3.6587
  136MOL0     H18756   9.854   7.149   0.663 -4.3493 -3.0276  0.2675
  136MOL0     H18757   9.919   7.221   0.508  2.0786 -0.1582  1.3345
  136MOL0     H18758   9.736   7.086   0.397 -4.4840  4.6315 -2.6794
  136MOL0     H18759   9.680   7.216   0.508 -0.9608 -0.7371  3.3310
  136MOL0     H18760   9.720   6.923   0.587  4.2306  2.4947 -1.8002
  136MOL0     H18761   9.623   7.057   0.662  1.9639  1.2376  0.6181
  136MOL0     H18762   9.575   6.918   0.392 -0.1057 -0.3367 -1.0320
  136MOL0     H18763   9.479   7.058   0.443  1.9716  1.3725  0.0943
  136MOL0     H18764   9.284   6.746   0.654  3.2729 -3.4070  1.1234
  136MOL0     H18765  10.092   7.234   0.603 -2.5268 -2.4560 -2.0713
  136MOL0     H18766  10.240   7.362   0.684 -0.5431 -0.1666 -3.5958
  136MOL0     H18767  10.355   7.278   0.794  2.3391  0.5721 -1.0925
  136MOL0     H18768  10.408   7.305   0.634 -0.9500 -4.7916 -3.5246
  137MOL0     O18769  11.309   2.363  10.245  0.0790  0.4454  0.2198
  137MOL0     C18770  11.232   2.268  10.272  0.2586  1.2708 -0.6143
  137MOL0     O18771  11.233   2.148  10.202  0.3994  0.3381  0.4101
  137MOL0     C18772  11.319   2.131  10.094 -0.8189 -1.2461  0.8559
  137MOL0     C18773  11.302   2.175   9.965 -0.0034  0.0278  0.4346
  137MOL0     C18774  11.403   2.151   9.870 -0.4308 -1.5897  0.5822
  137MOL0     C18775  11.524   2.090   9.902 -0.9877 -1.0053 -0.2450
  137MOL0     O18776  11.609   2.079   9.787 -0.0399 -0.2242  0.5802
  137MOL0     C18777  11.709   1.981   9.780  0.5034  0.4975  0.2202
  137MOL0     C18778  11.851   2.019   9.767  0.9864  0.0804 -0.3510
  137MOL0     C18779  11.901   2.093   9.894 -0.4534 -0.4801 -0.0460
  137MOL0     C18780  11.908   2.244   9.882 -0.1837 -1.1473  0.3013
  137MOL0     C18781  11.944   2.314  10.018 -0.1447 -0.2983 -0.5445
  137MOL0     C18782  12.019   2.446   9.999 -0.0756  0.0844 -0.0299
  137MOL0     C18783  11.959   2.569   9.939  0.2201  0.6946 -0.8744
  137MOL0     C18784  11.970   2.574   9.788  0.8482 -0.7115 -0.6768
  137MOL0     N18785  11.919   2.703   9.737  0.5602  0.6439  0.0379
  137MOL0     C18786  11.791   2.722   9.699 -0.1905 -0.2662  0.1783
  137MOL0     C18787  11.776   2.855   9.692  0.0509  1.3832 -0.2880
  137MOL0     C18788  11.656   2.922   9.643 -0.7370  0.0626 -1.0914
  137MOL0     C18789  11.574   2.992   9.755 -0.4011  0.2906  0.6211
  137MOL0     C18790  11.470   3.081   9.693 -0.2393 -0.7354 -1.0676
  137MOL0     C18791  11.377   3.143   9.801  0.2516 -0.4541 -1.1429
  137MOL0     O18792  11.247   3.147   9.740 -0.8507 -0.0152 -0.7538
  137MOL0     C18793  11.145   3.199   9.812  0.3361  0.3880 -0.1478
  137MOL0     C18794  11.023   3.195   9.749  0.7341  0.6717  0.4116
  137MOL0     C18795  10.908   3.255   9.783  0.3811 -0.0480  0.4964
  137MOL0     C18796  10.785   3.250   9.692 -0.5024 -0.1569  0.7346
  137MOL0     C18797  10.905   3.302   9.920 -0.3162  0.7132  0.2241
  137MOL0     C18798  10.795   3.366   9.993  0.3646  0.4347  0.0366
  137MOL0     O18799  10.823   3.406  10.118  0.3507  0.3168  0.2189
  137MOL0     C18800  10.790   3.543  10.143 -0.2774 -0.0294  0.1915
  137MOL0     C18801  10.844   3.636  10.054  0.7039  0.7393 -0.3344
  137MOL0     C18802  10.826   3.779  10.069 -0.6255 -0.5644 -0.0993
  137MOL0     C18803  10.753   3.830  10.180 -1.0142 -1.1456 -0.4848
  137MOL0     O18804  10.728   3.962  10.219  0.4601  0.1286 -0.1425
  137MOL0     C18805  10.832   4.061  10.200 -0.9582 -0.4112 -0.6318
  137MOL0     C18806  10.810   4.169  10.310  0.0061  0.1977  0.4108
  137MOL0     C18807  10.917   4.274  10.277  0.0912 -0.4204 -0.8679
  137MOL0     C18808  10.854   4.417  10.295 -0.0125 -0.1388  1.0906
  137MOL0     C18809  10.938   4.521  10.221 -0.8200 -0.1716 -0.7207
  137MOL0     C18810  11.059   4.565  10.309  0.5594 -0.3874  0.0096
  137MOL0     C18811  11.144   4.668  10.245 -0.4665 -0.1553 -0.4620
  137MOL0     C18812  11.067   4.796  10.241  0.4101 -0.5784 -0.7066
  137MOL0    Cl18813  11.026   4.855  10.406  0.4602  0.3235 -0.1483
  137MOL0     C18814  10.713   3.737  10.273  1.2025  0.3224  1.2326
  137MOL0     C18815  10.727   3.595  10.251  1.2183  0.4480 -0.0552
  137MOL0     O18816  10.691   3.375   9.939  0.2103 -0.7620  0.5536
  137MOL0     C18817  11.030   3.301   9.991  0.2517 -0.7131  0.5113
  137MOL0     C18818  11.145   3.242   9.943  0.0610  0.7508 -0.5515
  137MOL0     N18819  11.897   2.920   9.718 -0.5317  0.1595 -0.6819
  137MOL0     N18820  11.985   2.824   9.742 -0.8312 -0.7219  0.6203
  137MOL0     C18821  11.546   2.048  10.027  0.5833 -1.4020 -1.4341
  137MOL0     C18822  11.442   2.068  10.123  0.2375  0.6227  0.3713
  137MOL0     C18823  11.135   2.284  10.383  0.6250  0.2290 -0.1378
  137MOL0     C18824  11.101   2.176  10.466  0.1103 -0.0331 -0.1677
  137MOL0     C18825  11.004   2.187  10.565 -0.2798  0.7997 -0.3972
  137MOL0     C18826  10.938   2.312  10.586 -0.3483  0.0656 -1.1486
  137MOL0     O18827  10.849   2.338  10.695 -0.5264 -0.3610  1.2079
  137MOL0     C18828  10.913   2.320  10.820  0.0796 -0.5141 -0.0041
  137MOL0     C18829  10.813   2.364  10.927 -1.4396  0.1608 -0.1021
  137MOL0     C18830  10.880   2.372  11.068  0.8362  0.4123  0.0406
  137MOL0     C18831  10.994   2.476  11.075 -0.0992 -0.2423  0.0512
  137MOL0     C18832  10.993   2.543  11.207  1.1020  0.3324 -0.3957
  137MOL0     C18833  10.992   2.604  11.311  0.7464 -0.5005 -0.3021
  137MOL0     C18834  10.953   2.414  10.491  0.2303 -0.9832 -0.0260
  137MOL0     C18835  11.057   2.405  10.395  0.6887 -0.8940  0.1580
  137MOL0     C18836  11.079   2.523  10.308  0.0349 -0.3848 -0.4711
  137MOL0     H18837  11.212   2.227   9.933  0.4279  0.2556 -0.4327
  137MOL0     H18838  11.383   2.171   9.765  3.0052  0.1502  0.1188
  137MOL0     H18839  11.685   1.934   9.685 -4.4094 -0.5261  1.6949
  137MOL0     H18840  11.698   1.911   9.864  0.4022  0.0799 -0.1408
  137MOL0     H18841  11.917   1.934   9.746  1.7674 -0.4285  3.4598
  137MOL0     H18842  11.853   2.083   9.678 -1.1995 -0.0728 -0.5496
  137MOL0     H18843  11.847   2.059   9.983 -0.4546 -0.0580  0.1168
  137MOL0     H18844  12.005   2.063   9.914 -0.2873  0.5851  0.7999
  137MOL0     H18845  11.989   2.255   9.809 -0.6379  0.0375 -0.0400
  137MOL0     H18846  11.820   2.293   9.839  2.0078  3.7339  0.8147
  137MOL0     H18847  12.008   2.251  10.082 -0.6200  0.6464  0.9107
  137MOL0     H18848  11.852   2.324  10.077  1.0044  1.7490  1.0519
  137MOL0     H18849  12.052   2.474  10.099 -0.6646  2.2937 -0.3921
  137MOL0     H18850  12.104   2.411   9.939  1.2369  2.3677  0.3533
  137MOL0     H18851  12.015   2.655   9.977  2.9508 -1.4529  0.4140
  137MOL0     H18852  11.861   2.579   9.987 -0.7306  1.8513 -2.9719
  137MOL0     H18853  12.074   2.569   9.754  0.6309 -0.6079 -1.3654
  137MOL0     H18854  11.918   2.485   9.751  1.9826 -1.2282 -1.1027
  137MOL0     H18855  11.715   2.646   9.681 -1.2636  1.3656 -2.7700
  137MOL0     H18856  11.599   2.833   9.614  0.6444 -1.0582 -0.4519
  137MOL0     H18857  11.686   2.993   9.565 -0.4774  1.3302  0.1296
  137MOL0     H18858  11.529   2.919   9.824 -1.6519  1.7839  1.4570
  137MOL0     H18859  11.636   3.037   9.833 -1.2495  0.5184  1.1863
  137MOL0     H18860  11.518   3.162   9.637  0.5481 -0.5729 -0.1867
  137MOL0     H18861  11.402   3.024   9.629 -2.6185 -0.9527  1.4604
  137MOL0     H18862  11.387   3.087   9.894  0.9049  3.2847  1.2738
  137MOL0     H18863  11.394   3.249   9.824  0.1697 -1.2028  3.3083
  137MOL0     H18864  11.021   3.134   9.659 -1.1040 -0.7692  1.3643
  137MOL0     H18865  10.713   3.181   9.738  1.5215 -2.2495  0.8919
  137MOL0     H18866  10.801   3.203   9.595  0.1199 -2.1395  1.7483
  137MOL0     H18867  10.737   3.349   9.690  0.2081  0.1801 -0.4779
  137MOL0     H18868  10.887   3.608   9.959 -0.5587  1.5951 -1.1993
  137MOL0     H18869  10.868   3.842   9.991  0.5165 -2.9929 -1.5695
  137MOL0     H18870  10.933   4.020  10.212 -0.7290  0.3177  0.0083
  137MOL0     H18871  10.826   4.106  10.101 -0.5927 -0.3755 -0.6377
  137MOL0     H18872  10.706   4.202  10.303 -1.2712 -2.8410  2.6779
  137MOL0     H18873  10.830   4.116  10.404  2.6446 -2.8760 -1.6680
  137MOL0     H18874  10.962   4.273  10.177  0.8100  1.0639 -0.5854
  137MOL0     H18875  10.997   4.261  10.350  1.4429  1.4606 -1.9281
  137MOL0     H18876  10.840   4.432  10.402  0.1937 -2.0595  1.4177
  137MOL0     H18877  10.758   4.415  10.243  0.9078 -3.3225 -0.7479
  137MOL0     H18878  10.983   4.475  10.132 -0.4242 -0.2565 -0.4806
  137MOL0     H18879  10.869   4.601  10.195  2.1633  3.1435  0.7432
  137MOL0     H18880  11.128   4.482  10.329 -0.0931 -0.8174  0.4951
  137MOL0     H18881  11.014   4.593  10.405 -0.5691  0.5396 -0.7556
  137MOL0     H18882  11.164   4.647  10.139  1.2264  2.2562 -0.7170
  137MOL0     H18883  11.241   4.687  10.292 -0.3123 -2.3791  0.2292
  137MOL0     H18884  10.972   4.776  10.191 -0.6103  1.8675  0.1267
  137MOL0     H18885  11.111   4.864  10.168 -1.1210  2.6032  1.1182
  137MOL0     H18886  10.651   3.766  10.358  0.9563 -2.1653  1.9797
  137MOL0     H18887  10.686   3.522  10.320  1.0544  0.9657  0.4018
  137MOL0     H18888  11.042   3.338  10.092  1.0764  0.8682 -0.1288
  137MOL0     H18889  11.233   3.234  10.006  2.0838  2.0933 -3.0184
  137MOL0     H18890  11.639   1.997  10.051  0.6532 -0.2590  1.0891
  137MOL0     H18891  11.468   2.048  10.226 -1.8648  1.1707  1.0767
  137MOL0     H18892  11.153   2.081  10.457  1.1171  0.5048 -0.1644
  137MOL0     H18893  10.980   2.090  10.605  1.4413 -1.3025 -3.9745
  137MOL0     H18894  10.937   2.215  10.837 -2.4348 -1.3887 -1.2642
  137MOL0     H18895  11.006   2.377  10.825  0.0793 -0.6173  1.9085
  137MOL0     H18896  10.724   2.301  10.939 -1.1243  0.0479  2.1705
  137MOL0     H18897  10.777   2.465  10.906 -0.2008  1.5495  3.6098
  137MOL0     H18898  10.800   2.391  11.141 -0.8620 -0.0750 -1.5949
  137MOL0     H18899  10.910   2.274  11.104 -0.1152  0.1738  0.2124
  137MOL0     H18900  10.987   2.560  11.006  0.9486 -0.3268 -0.1832
  137MOL0     H18901  11.094   2.434  11.057 -0.3910 -0.6407 -0.6703
  137MOL0     H18902  10.988   2.633  11.414  0.8950  0.1090 -0.4599
  137MOL0     H18903  10.903   2.509  10.503 -1.1801 -1.4560 -1.8265
  137MOL0     H18904  11.045   2.488  10.210  0.5734 -1.2404 -0.3658
  137MOL0     H18905  11.019   2.610  10.336 -1.4147 -0.9119 -1.7860
  137MOL0     H18906  11.181   2.559  10.290 -0.2778 -0.3430 -2.2954
  138MOL0     O18907  10.179   7.491   1.962  0.0078  0.7411  0.5811
  138MOL0     C18908  10.161   7.595   2.019 -0.6674 -0.2126 -0.1991
  138MOL0     O18909  10.222   7.622   2.143 -0.3272 -0.6007 -0.5222
  138MOL0     C18910  10.334   7.568   2.200  0.6607  0.1805 -0.1488
  138MOL0     C18911  10.395   7.450   2.167  0.4749  0.3486  0.5947
  138MOL0     C18912  10.512   7.399   2.233 -0.3946  0.5500 -0.2135
  138MOL0     C18913  10.570   7.477   2.336  0.0111  0.0055 -0.2654
  138MOL0     O18914  10.687   7.428   2.390  0.0380  0.3877 -0.1458
  138MOL0     C18915  10.737   7.477   2.515  0.9419 -0.4929 -0.0042
  138MOL0     C18916  10.803   7.352   2.580  0.2074 -0.5864  1.6756
  138MOL0     C18917  10.931   7.328   2.498  0.0418 -0.2730 -0.8776
  138MOL0     C18918  11.018   7.212   2.544 -0.0007  0.6380  0.0422
  138MOL0     C18919  11.147   7.187   2.464 -0.1922  0.8218  0.3214
  138MOL0     C18920  11.248   7.296   2.419 -0.1302 -0.8926  0.8169
  138MOL0     C18921  11.348   7.241   2.322 -0.7037  0.6473 -0.1240
  138MOL0     C18922  11.434   7.350   2.254 -0.0113  0.8780 -0.0984
  138MOL0     N18923  11.558   7.384   2.331  0.9526  1.5738  0.2221
  138MOL0     C18924  11.558   7.452   2.446 -1.2142 -0.0751 -0.3154
  138MOL0     C18925  11.691   7.475   2.473 -0.6025  0.1339  0.3712
  138MOL0     C18926  11.763   7.538   2.592 -0.3366  0.7469 -0.0301
  138MOL0     C18927  11.782   7.687   2.569  0.0653 -0.4404  0.0343
  138MOL0     C18928  11.853   7.733   2.444  0.2417 -0.4298 -0.1927
  138MOL0     C18929  11.989   7.678   2.419  0.0024 -0.0861 -0.3282
  138MOL0     O18930  12.070   7.729   2.524  0.8023  0.2334 -0.1513
  138MOL0     C18931  12.205   7.732   2.519 -0.2704  0.5200 -0.4906
  138MOL0     C18932  12.275   7.797   2.619 -0.3438 -0.0377  0.2225
  138MOL0     C18933  12.415   7.794   2.628 -0.5126 -0.9887  0.2958
  138MOL0     C18934  12.486   7.881   2.732 -0.8054 -0.1578 -0.0911
  138MOL0     C18935  12.480   7.716   2.525  1.1502 -0.2726 -0.0185
  138MOL0     C18936  12.634   7.706   2.528  0.6653 -0.0439 -0.8460
  138MOL0     O18937  12.693   7.681   2.410  0.0225  0.1946 -0.3056
  138MOL0     C18938  12.815   7.738   2.380  0.1061 -0.6483 -0.4048
  138MOL0     C18939  12.822   7.789   2.256 -0.2907  0.8921 -1.1212
  138MOL0     C18940  12.939   7.846   2.211 -1.0128  0.0907 -0.2080
  138MOL0     C18941  13.052   7.855   2.302  0.0114  0.2291  0.4029
  138MOL0     O18942  13.165   7.915   2.250  0.2948  0.7372 -0.4107
  138MOL0     C18943  13.273   7.948   2.342  0.1579 -1.0130  0.0715
  138MOL0     C18944  13.369   8.051   2.270  0.9258  1.0029 -0.0054
  138MOL0     C18945  13.460   8.120   2.364  0.6166  0.2049 -0.5618
  138MOL0     C18946  13.565   8.196   2.280  0.0265  0.5845  0.6212
  138MOL0     C18947  13.684   8.222   2.368 -0.1993 -0.3779  0.7523
  138MOL0     C18948  13.802   8.292   2.298 -0.0306 -0.4955  0.6883
  138MOL0     C18949  13.843   8.210   2.179  0.0275 -0.3591 -0.4722
  138MOL0     C18950  13.982   8.253   2.134  0.0016  0.2060  0.5029
  138MOL0    Cl18951  14.101   8.276   2.264  0.3117 -0.1173  0.6840
  138MOL0     C18952  13.029   7.805   2.432 -0.6528  0.4514  0.2513
  138MOL0     C18953  12.919   7.739   2.473  0.2448  0.0172 -0.1193
  138MOL0     O18954  12.696   7.735   2.636 -1.1873 -1.1173  0.7234
  138MOL0     C18955  12.404   7.666   2.414  0.2333  0.5913  0.1474
  138MOL0     C18956  12.267   7.669   2.414  0.9714  0.4804  0.3252
  138MOL0     N18957  11.765   7.413   2.366  0.9459 -0.1658  0.1884
  138MOL0     N18958  11.684   7.353   2.286 -0.0470  0.5164  0.2148
  138MOL0     C18959  10.512   7.605   2.369 -0.3097  0.1154  0.0622
  138MOL0     C18960  10.389   7.646   2.309 -0.2708 -0.0589  0.9771
  138MOL0     C18961  10.063   7.704   1.959  0.7247 -0.1693  0.1854
  138MOL0     C18962  10.109   7.839   1.970 -0.2975  0.3778  0.3184
  138MOL0     C18963  10.024   7.946   1.940 -0.6653 -0.1306 -0.2802
  138MOL0     C18964   9.897   7.921   1.886 -0.4373  0.5951 -0.6385
  138MOL0     O18965   9.820   8.019   1.828 -0.2918  0.7385  0.3136
  138MOL0     C18966   9.872   8.147   1.784 -0.4390  0.3639 -0.8887
  138MOL0     C18967   9.974   8.135   1.667  0.0576 -0.7257  0.2397
  138MOL0     C18968   9.936   8.044   1.552 -0.3255 -0.1630 -0.0661
  138MOL0     C18969  10.035   8.044   1.436 -0.8880 -0.3219 -0.1773
  138MOL0     C18970  10.055   8.182   1.375  0.4573  0.4268 -0.5123
  138MOL0     C18971  10.055   8.292   1.324  1.3010 -1.0804  0.7211
  138MOL0     C18972   9.856   7.793   1.868  0.8374 -0.4862  0.0007
  138MOL0     C18973   9.925   7.683   1.901 -0.2278  0.2269 -0.9328
  138MOL0     C18974   9.888   7.539   1.868 -0.1988  1.0805 -0.4705
  138MOL0     H18975  10.344   7.389   2.093  0.3363  2.1119 -0.8435
  138MOL0     H18976  10.562   7.305   2.211  0.3634  0.0448  3.1630
  138MOL0     H18977  10.657   7.517   2.579  1.4629  0.5080  0.0455
  138MOL0     H18978  10.808   7.559   2.500  0.4118  0.0875  0.5738
  138MOL0     H18979  10.826   7.363   2.686 -1.2470  2.3663  1.7897
  138MOL0     H18980  10.735   7.268   2.563  0.1977 -0.3047  0.1242
  138MOL0     H18981  10.919   7.317   2.390  1.4183  0.2501 -1.1069
  138MOL0     H18982  10.991   7.414   2.528  1.4495 -2.0322  1.8672
  138MOL0     H18983  11.056   7.236   2.644  6.4371  0.6315 -1.9391
  138MOL0     H18984  10.954   7.124   2.536  0.2291  0.4923 -0.2017
  138MOL0     H18985  11.124   7.148   2.365  1.8224  1.3612 -0.4075
  138MOL0     H18986  11.212   7.114   2.511 -0.5864  0.6682  0.6294
  138MOL0     H18987  11.195   7.371   2.360 -1.8403 -0.8594  2.2981
  138MOL0     H18988  11.300   7.346   2.502 -1.4617  1.5193  0.3086
  138MOL0     H18989  11.300   7.188   2.240  0.2656 -0.8386  0.2193
  138MOL0     H18990  11.411   7.170   2.376 -1.6415 -0.7770 -0.8692
  138MOL0     H18991  11.468   7.291   2.168 -0.6008 -0.5133  0.5860
  138MOL0     H18992  11.383   7.441   2.222 -0.7210  1.0218  1.3582
  138MOL0     H18993  11.484   7.493   2.513  0.3904  3.4986 -0.5113
  138MOL0     H18994  11.858   7.487   2.609  0.0786  0.0319 -3.5851
  138MOL0     H18995  11.697   7.525   2.678 -0.9074 -1.6455 -0.7379
  138MOL0     H18996  11.685   7.739   2.573  1.2511  1.8906  0.0790
  138MOL0     H18997  11.841   7.735   2.648 -1.7058  1.2405  0.4300
  138MOL0     H18998  11.790   7.698   2.361 -0.2059  2.0040 -0.9653
  138MOL0     H18999  11.854   7.842   2.440  1.4346 -0.2949  2.2634
  138MOL0     H19000  11.980   7.570   2.425  1.4110 -0.4005 -2.4183
  138MOL0     H19001  12.022   7.700   2.316  0.7257 -4.3516 -1.1831
  138MOL0     H19002  12.227   7.857   2.696 -1.1928 -1.4303  0.8096
  138MOL0     H19003  12.558   7.952   2.689  2.7397 -3.2448  0.2303
  138MOL0     H19004  12.544   7.823   2.804  1.0310 -0.5903 -1.8261
  138MOL0     H19005  12.416   7.929   2.801 -1.0391 -1.1683  0.3845
  138MOL0     H19006  12.738   7.779   2.189  0.4891 -2.6355 -1.7630
  138MOL0     H19007  12.956   7.867   2.106  2.3338 -2.5666 -0.3619
  138MOL0     H19008  13.225   7.999   2.426 -1.8217 -1.8168 -0.5107
  138MOL0     H19009  13.333   7.862   2.371  1.7603  0.2286  0.5761
  138MOL0     H19010  13.414   7.987   2.194 -0.7955 -2.0565  1.3603
  138MOL0     H19011  13.310   8.128   2.219 -1.7824  0.3810  1.9385
  138MOL0     H19012  13.504   8.043   2.427 -1.0344 -0.2682  0.0607
  138MOL0     H19013  13.398   8.179   2.433 -0.7630 -3.4567  1.5904
  138MOL0     H19014  13.521   8.272   2.216  1.7235 -0.9853 -2.6230
  138MOL0     H19015  13.603   8.117   2.215  2.2942  2.6631 -0.7843
  138MOL0     H19016  13.654   8.285   2.452 -3.4721 -2.3480  1.2376
  138MOL0     H19017  13.718   8.127   2.409  1.1081  0.1158  0.8390
  138MOL0     H19018  13.872   8.314   2.379 -1.9810  4.8132  1.3265
  138MOL0     H19019  13.777   8.394   2.267  1.3880 -0.2471  0.3056
  138MOL0     H19020  13.777   8.207   2.092  0.4823 -0.7712 -0.8089
  138MOL0     H19021  13.853   8.106   2.212  0.8517  0.3560  1.7497
  138MOL0     H19022  13.976   8.339   2.067 -1.3342 -0.0361  0.2830
  138MOL0     H19023  14.031   8.178   2.071 -1.3711  1.5906 -2.3697
  138MOL0     H19024  13.110   7.794   2.504 -0.2381  2.2224  0.1149
  138MOL0     H19025  12.925   7.680   2.564  1.7516 -0.9075 -0.7616
  138MOL0     H19026  12.457   7.620   2.331  0.1685  2.8674 -1.2570
  138MOL0     H19027  12.213   7.611   2.340  0.6170 -0.6591  1.4588
  138MOL0     H19028  10.553   7.678   2.437  0.5763 -1.5784  1.4350
  138MOL0     H19029  10.346   7.742   2.335 -0.1454  0.4424 -0.5357
  138MOL0     H19030  10.204   7.859   2.018  1.1701  1.0080 -2.6156
  138MOL0     H19031  10.063   8.046   1.961  1.3922 -0.6544 -1.3214
  138MOL0     H19032   9.785   8.202   1.746 -1.7234 -1.5493 -0.8388
  138MOL0     H19033   9.914   8.204   1.868  1.2161 -0.7266 -0.9344
  138MOL0     H19034  10.073   8.109   1.706 -1.0906 -2.4344  2.1923
  138MOL0     H19035   9.981   8.239   1.632  1.8299 -1.0106 -0.3852
  138MOL0     H19036   9.921   7.947   1.599 -2.5753  0.7772  1.3113
  138MOL0     H19037   9.836   8.065   1.513 -0.5373 -0.3753  0.3621
  138MOL0     H19038   9.995   7.977   1.359 -1.5980  1.3569 -1.3401
  138MOL0     H19039  10.127   8.003   1.479  0.6757 -0.3354 -3.2799
  138MOL0     H19040  10.049   8.396   1.297  1.9842 -0.8946  1.2644
  138MOL0     H19041   9.756   7.777   1.829  0.7027 -0.2123  0.2348
  138MOL0     H19042   9.954   7.496   1.792  0.5212  2.5092 -0.6945
  138MOL0     H19043   9.904   7.473   1.953  0.6125 -1.0937 -2.2133
  138MOL0     H19044   9.788   7.523   1.828 -1.5137  0.0552  2.9156
  139MOL0     O19045   2.608   4.820   9.736  0.0596  0.0326  0.2698
  139MOL0     C19046   2.533   4.910   9.714  0.1732  0.1391 -0.0367
  139MOL0     O19047   2.552   5.039   9.754 -0.2843 -0.7176  0.8189
  139MOL0     C19048   2.653   5.063   9.839  0.0492 -0.5451  0.2432
  139MOL0     C19049   2.748   5.152   9.818 -0.3918 -0.1643  0.7078
  139MOL0     C19050   2.844   5.185   9.909 -0.3894 -0.0157  0.3782
  139MOL0     C19051   2.862   5.109  10.030  0.1552  0.2058  0.2454
  139MOL0     O19052   2.972   5.126  10.111 -0.3328  0.6897 -0.6740
  139MOL0     C19053   3.017   5.014  10.201  0.3016 -0.3495  0.6050
  139MOL0     C19054   3.006   5.070  10.340 -0.4931  0.7109  0.5773
  139MOL0     C19055   2.870   5.106  10.391  0.6229 -0.4285 -0.7453
  139MOL0     C19056   2.875   5.186  10.526  0.0058  0.0837  0.0137
  139MOL0     C19057   2.736   5.202  10.581  0.0947 -0.9105 -0.3983
  139MOL0     C19058   2.631   5.277  10.489  0.1348  0.0428 -0.7380
  139MOL0     C19059   2.676   5.425  10.461 -0.0584 -0.0997 -0.4767
  139MOL0     C19060   2.572   5.510  10.384  0.3877 -0.4817  0.0545
  139MOL0     N19061   2.459   5.534  10.469 -0.3332  0.0284  0.0988
  139MOL0     C19062   2.465   5.624  10.576  0.5798 -0.3627 -0.4138
  139MOL0     C19063   2.346   5.617  10.635  0.0227 -0.3837 -0.0468
  139MOL0     C19064   2.293   5.702  10.753  0.1211  0.1625 -0.1140
  139MOL0     C19065   2.184   5.632  10.826 -0.3975 -0.8367 -0.3866
  139MOL0     C19066   2.127   5.721  10.951  0.0786  0.2925  0.2038
  139MOL0     C19067   1.989   5.664  10.989 -0.6901 -0.1278 -0.3630
  139MOL0     O19068   1.968   5.732  11.114 -0.0889 -0.2482 -0.2540
  139MOL0     C19069   1.834   5.745  11.133 -0.4552 -0.6979  0.3845
  139MOL0     C19070   1.731   5.656  11.101  0.1954  0.7356  0.3538
  139MOL0     C19071   1.591   5.688  11.107 -0.4030 -0.4106 -0.0348
  139MOL0     C19072   1.505   5.581  11.035  1.0843 -0.0611 -0.6423
  139MOL0     C19073   1.555   5.808  11.175 -0.1659 -0.2908 -0.0764
  139MOL0     C19074   1.417   5.838  11.229 -0.0250 -0.4447  0.0347
  139MOL0     O19075   1.394   5.955  11.288 -1.2420 -0.6840  0.0258
  139MOL0     C19076   1.280   5.999  11.342 -0.1391  0.5831  0.0386
  139MOL0     C19077   1.283   6.040  11.469  0.4653 -0.0131  0.3300
  139MOL0     C19078   1.169   6.082  11.525  0.9041  0.2491  0.0470
  139MOL0     C19079   1.042   6.066  11.465 -1.0146  0.3628 -0.2256
  139MOL0     O19080   0.924   6.103  11.533 -0.6035 -0.3370  0.1266
  139MOL0     C19081   0.862   5.995  11.601  0.8405 -0.9025  0.1404
  139MOL0     C19082   0.767   6.058  11.701  0.3828  0.1591  0.0597
  139MOL0     C19083   0.706   5.960  11.799 -1.1973  0.0855 -0.0899
  139MOL0     C19084   0.575   6.021  11.828 -0.6081 -0.6998  0.3815
  139MOL0     C19085   0.501   5.945  11.940 -0.0268  0.3720 -0.4232
  139MOL0     C19086   0.368   6.022  11.960  0.6485 -0.5507 -0.2260
  139MOL0     C19087   0.297   5.989  12.078 -0.7653  0.2107  0.5618
  139MOL0     C19088   0.165   6.055  12.075 -0.6806  0.2357 -0.3053
  139MOL0    Cl19089   0.085   6.046  12.238 -0.0022  0.3016  0.0179
  139MOL0     C19090   1.039   6.009  11.336 -0.2058 -0.3530  0.6466
  139MOL0     C19091   1.160   5.979  11.273 -0.0378 -0.8851 -0.0083
  139MOL0     O19092   1.329   5.756  11.201 -0.4795  0.4345 -0.7394
  139MOL0     C19093   1.658   5.890  11.213 -0.3437  0.3012  0.4258
  139MOL0     C19094   1.793   5.865  11.191 -0.6151 -0.6946  0.5124
  139MOL0     N19095   2.268   5.520  10.572 -0.0498  0.5248  0.0160
  139MOL0     N19096   2.342   5.467  10.479  0.0673 -0.0602  1.2340
  139MOL0     C19097   2.761   5.014  10.058 -0.3129  0.3237 -0.0279
  139MOL0     C19098   2.655   5.000   9.965 -0.1332  0.0815  0.5773
  139MOL0     C19099   2.422   4.885   9.620  0.4484  0.2687  0.2635
  139MOL0     C19100   2.321   4.984   9.611 -0.1103  0.1546  0.0277
  139MOL0     C19101   2.212   4.969   9.531  0.4322 -0.0511 -0.4172
  139MOL0     C19102   2.195   4.853   9.455  0.3012  0.8439 -0.8542
  139MOL0     O19103   2.095   4.832   9.364 -0.1858  0.2785 -0.0171
  139MOL0     C19104   1.978   4.915   9.377  0.1868 -1.1651 -0.7502
  139MOL0     C19105   1.871   4.883   9.270  0.1660 -0.7071 -0.1911
  139MOL0     C19106   1.822   4.740   9.300 -0.1924 -0.2492  0.5728
  139MOL0     C19107   1.710   4.680   9.216  0.6127  0.3048 -0.7496
  139MOL0     C19108   1.745   4.666   9.075 -0.9781 -0.6231  0.0994
  139MOL0     C19109   1.777   4.634   8.958 -0.3114  0.5646 -1.1237
  139MOL0     C19110   2.297   4.758   9.455 -0.2312  0.6784  0.3729
  139MOL0     C19111   2.406   4.763   9.550 -0.0162 -0.7528  0.0610
  139MOL0     C19112   2.510   4.646   9.532  0.1114 -0.1299  1.0154
  139MOL0     H19113   2.746   5.210   9.726 -0.2448 -3.2231 -1.3599
  139MOL0     H19114   2.908   5.270   9.885  0.8227 -1.4381 -1.7379
  139MOL0     H19115   3.123   4.993  10.184 -0.0355 -1.6558 -0.0453
  139MOL0     H19116   2.965   4.920  10.177 -2.4639  1.6129 -1.8324
  139MOL0     H19117   3.060   5.006  10.411  0.5298 -0.4189 -1.1633
  139MOL0     H19118   3.058   5.166  10.350 -2.3865  1.6037  3.2263
  139MOL0     H19119   2.826   5.170  10.313  3.4921  1.9771 -0.5944
  139MOL0     H19120   2.806   5.019  10.409  0.0253  0.4654  1.8487
  139MOL0     H19121   2.935   5.131  10.599  2.6859 -1.2908 -2.9281
  139MOL0     H19122   2.935   5.277  10.518  0.5254 -0.2825 -0.3409
  139MOL0     H19123   2.742   5.263  10.671  0.2263 -1.9499  0.3104
  139MOL0     H19124   2.708   5.100  10.607  2.1609 -1.1083  1.3464
  139MOL0     H19125   2.619   5.215  10.399 -1.5054 -2.6702  1.1785
  139MOL0     H19126   2.536   5.264  10.542  0.0820 -0.5026 -0.9541
  139MOL0     H19127   2.769   5.436  10.406  0.9117  1.0206  1.3225
  139MOL0     H19128   2.704   5.459  10.561  1.7844 -2.2690 -0.1592
  139MOL0     H19129   2.617   5.606  10.356  1.5486 -2.3209 -5.4840
  139MOL0     H19130   2.534   5.463  10.293  2.1883 -0.7346 -0.5986
  139MOL0     H19131   2.546   5.694  10.597 -1.0606  1.7373 -0.7231
  139MOL0     H19132   2.247   5.798  10.732 -4.0746 -1.4608  0.6711
  139MOL0     H19133   2.369   5.716  10.830  0.2520 -0.4389 -0.1246
  139MOL0     H19134   2.106   5.616  10.751 -0.6296 -2.4804  0.1729
  139MOL0     H19135   2.229   5.536  10.852 -1.3885 -1.2707 -0.2082
  139MOL0     H19136   2.193   5.730  11.037 -3.5269  3.4180  3.0002
  139MOL0     H19137   2.130   5.824  10.914  2.9106 -0.2672 -1.4659
  139MOL0     H19138   1.922   5.678  10.904  1.6523  3.2748 -1.8493
  139MOL0     H19139   2.002   5.556  11.001 -1.1919 -0.1459  0.0403
  139MOL0     H19140   1.767   5.557  11.074 -1.8351 -0.3005  1.1949
  139MOL0     H19141   1.426   5.552  11.105  0.6621  0.4421 -0.9046
  139MOL0     H19142   1.566   5.491  11.022 -0.8426 -1.1323 -3.0537
  139MOL0     H19143   1.461   5.609  10.938  1.2301 -1.7097 -1.2117
  139MOL0     H19144   1.378   6.049  11.522  1.6435  2.0166 -1.9270
  139MOL0     H19145   1.168   6.127  11.624 -0.6763  3.1371 -1.1505
  139MOL0     H19146   0.814   5.925  11.532 -0.9267 -0.2102  0.6072
  139MOL0     H19147   0.935   5.935  11.656 -0.7697  0.5849  4.2765
  139MOL0     H19148   0.832   6.133  11.748  1.0308  0.4992 -1.3487
  139MOL0     H19149   0.688   6.109  11.647 -1.0873 -0.1914  1.7662
  139MOL0     H19150   0.765   5.955  11.891  1.7802  0.8547 -1.8220
  139MOL0     H19151   0.702   5.863  11.750 -1.5305  0.7614 -1.4515
  139MOL0     H19152   0.528   6.011  11.730  1.8135 -3.8766 -0.6505
  139MOL0     H19153   0.583   6.126  11.856 -0.6354 -0.2448 -1.2630
  139MOL0     H19154   0.486   5.846  11.896 -0.7433  0.0718  0.4558
  139MOL0     H19155   0.558   5.943  12.033 -1.3019 -2.1205  0.4017
  139MOL0     H19156   0.309   6.004  11.869 -0.4929 -1.9978  0.7413
  139MOL0     H19157   0.384   6.130  11.957  0.5274 -0.3774  2.5537
  139MOL0     H19158   0.345   6.040  12.161 -1.0156 -0.2110  0.9692
  139MOL0     H19159   0.291   5.879  12.077 -0.3336  0.1442  2.2049
  139MOL0     H19160   0.106   6.023  11.989  0.6968 -1.3820 -0.7219
  139MOL0     H19161   0.182   6.160  12.051  3.1786  0.1138  1.2564
  139MOL0     H19162   0.947   6.009  11.278 -1.0032  2.0887  1.7850
  139MOL0     H19163   1.172   5.945  11.171  1.9965  1.4611 -0.6201
  139MOL0     H19164   1.638   5.987  11.255  1.8671  0.0560  2.2380
  139MOL0     H19165   1.871   5.933  11.220 -0.7113  0.0964 -0.9861
  139MOL0     H19166   2.757   4.960  10.152 -0.3108 -1.6211 -1.0942
  139MOL0     H19167   2.567   4.940   9.987 -0.2953 -0.7101 -1.9590
  139MOL0     H19168   2.323   5.069   9.679 -1.4515 -0.7804  1.2979
  139MOL0     H19169   2.137   5.047   9.536 -1.2732 -1.6305 -0.4091
  139MOL0     H19170   1.933   4.908   9.477  1.6491  3.5273  0.5262
  139MOL0     H19171   2.008   5.020   9.370 -2.4026 -0.4389 -1.8281
  139MOL0     H19172   1.914   4.887   9.170  0.2631 -1.8993 -0.2145
  139MOL0     H19173   1.796   4.961   9.281  0.9370  0.0425 -0.0802
  139MOL0     H19174   1.903   4.667   9.289  1.5540  1.5139  1.0488
  139MOL0     H19175   1.792   4.741   9.405 -0.8992  2.4894  0.4154
  139MOL0     H19176   1.617   4.736   9.227 -0.1164 -0.9487 -0.4251
  139MOL0     H19177   1.689   4.580   9.253  0.2795  0.6049 -0.1157
  139MOL0     H19178   1.794   4.620   8.853  3.9151 -0.3827 -0.5016
  139MOL0     H19179   2.290   4.669   9.394  2.8425 -0.7235  1.8112
  139MOL0     H19180   2.584   4.683   9.460 -0.8282 -1.8571 -0.9511
  139MOL0     H19181   2.559   4.614   9.624 -1.8656 -1.7573  1.5882
  139MOL0     H19182   2.468   4.556   9.484 -0.0823 -0.0385  1.0110
  140MOL0     O19183   9.021  10.444   9.184  0.0957 -0.1012 -0.2860
  140MOL0     C19184   9.086  10.526   9.128  0.0845 -0.3313 -0.5982
  140MOL0     O19185   9.114  10.520   8.998 -0.2692 -0.0529  0.0302
  140MOL0     C19186   9.055  10.409   8.926 -0.1843 -0.1643 -1.0076
  140MOL0     C19187   9.113  10.283   8.902 -0.7671  0.3932  1.0759
  140MOL0     C19188   9.048  10.192   8.823 -0.3387 -0.0191 -0.0574
  140MOL0     C19189   8.920  10.221   8.774 -0.0143  0.1968 -0.5816
  140MOL0     O19190   8.865  10.132   8.691 -0.2135 -0.4256 -0.1335
  140MOL0     C19191   8.744  10.069   8.724 -0.5409  0.3696 -0.0914
  140MOL0     C19192   8.763   9.924   8.741  0.6220  0.6421 -0.0314
  140MOL0     C19193   8.630   9.848   8.764 -0.5865 -0.4132  0.6913
  140MOL0     C19194   8.663   9.695   8.767  0.1240 -0.3004  0.1980
  140MOL0     C19195   8.534   9.621   8.800 -0.8967 -0.4928 -0.2331
  140MOL0     C19196   8.565   9.467   8.833 -0.6855 -0.0223 -0.1622
  140MOL0     C19197   8.467   9.400   8.919 -0.4629  0.7426  0.5657
  140MOL0     C19198   8.366   9.314   8.842 -0.1764  0.0251 -0.3788
  140MOL0     N19199   8.280   9.401   8.765  0.3299  0.3131 -0.0997
  140MOL0     C19200   8.297   9.436   8.632 -0.1331  0.3088  0.0918
  140MOL0     C19201   8.185   9.510   8.592 -0.2980  1.2448 -0.9364
  140MOL0     C19202   8.161   9.559   8.453  0.2527  0.3235  0.4867
  140MOL0     C19203   8.095   9.458   8.368  0.0773  0.2713 -0.3004
  140MOL0     C19204   8.064   9.518   8.226 -0.3285 -0.1299  0.1596
  140MOL0     C19205   8.025   9.423   8.123  0.4188 -0.0639  0.1663
  140MOL0     O19206   8.117   9.321   8.094  0.8927  0.0554  0.0199
  140MOL0     C19207   8.179   9.332   7.970 -0.4391  0.2545 -0.0541
  140MOL0     C19208   8.321   9.315   7.975 -0.4607 -0.8306 -0.1102
  140MOL0     C19209   8.382   9.294   7.854 -0.1523  0.1510  0.5378
  140MOL0     C19210   8.528   9.263   7.855  0.5985 -1.2020 -0.1504
  140MOL0     C19211   8.311   9.305   7.728  0.1932 -0.5451  0.2378
  140MOL0     C19212   8.360   9.298   7.587 -0.0673  0.5726 -0.9253
  140MOL0     O19213   8.273   9.341   7.485 -0.0769 -0.0121  0.4839
  140MOL0     C19214   8.324   9.363   7.355  0.7183  0.5850  0.9127
  140MOL0     C19215   8.392   9.480   7.315 -0.4441 -0.1106  0.1387
  140MOL0     C19216   8.448   9.489   7.191  0.9067  0.4123  0.8546
  140MOL0     C19217   8.422   9.391   7.091 -0.7961 -0.2630 -0.2659
  140MOL0     O19218   8.470   9.403   6.961 -0.1645 -1.0799  0.0340
  140MOL0     C19219   8.498   9.532   6.910  0.0078 -1.2228 -0.3636
  140MOL0     C19220   8.367   9.602   6.856  0.0638 -0.1517 -0.4402
  140MOL0     C19221   8.390   9.747   6.801 -0.5782 -0.3793 -0.8537
  140MOL0     C19222   8.471   9.759   6.677  0.4276  0.3794 -0.2400
  140MOL0     C19223   8.529   9.902   6.661 -0.1979 -0.7201  0.0068
  140MOL0     C19224   8.651   9.923   6.745 -0.1663  1.7441 -0.6092
  140MOL0     C19225   8.780   9.960   6.677 -0.4440  0.4364 -0.2968
  140MOL0     C19226   8.767  10.109   6.616 -0.2252  0.1848  0.7027
  140MOL0    Cl19227   8.734  10.236   6.737 -0.1381  0.0485  0.1597
  140MOL0     C19228   8.348   9.282   7.121 -0.3992  0.1103 -0.1805
  140MOL0     C19229   8.303   9.263   7.258  0.0902 -0.4145 -0.9916
  140MOL0     O19230   8.481   9.264   7.568 -0.5184  0.7617 -0.4897
  140MOL0     C19231   8.172   9.328   7.737 -0.3887 -0.1064  0.6490
  140MOL0     C19232   8.106   9.335   7.859  0.8128 -0.0617 -1.2969
  140MOL0     N19233   8.107   9.521   8.707 -0.2214 -0.6736  0.4342
  140MOL0     N19234   8.163   9.459   8.811 -0.2742  0.0206 -0.2807
  140MOL0     C19235   8.850  10.344   8.804 -0.2953 -0.1296 -0.2586
  140MOL0     C19236   8.930  10.438   8.876 -0.0715 -0.3438  0.6541
  140MOL0     C19237   9.135  10.634   9.214  0.3000  0.1594  0.4289
  140MOL0     C19238   9.042  10.696   9.296 -0.5781 -0.9743 -0.0248
  140MOL0     C19239   9.072  10.789   9.394 -0.4003  0.3365 -1.0916
  140MOL0     C19240   9.203  10.838   9.394  0.7251  0.3549 -0.6273
  140MOL0     O19241   9.239  10.933   9.483  0.1678 -1.0376 -0.5338
  140MOL0     C19242   9.380  10.974   9.493 -0.4689 -0.7885  0.4455
  140MOL0     C19243   9.406  11.092   9.402  0.3297 -1.3177  0.9291
  140MOL0     C19244   9.339  11.225   9.457 -0.4524 -0.1224 -0.3300
  140MOL0     C19245   9.350  11.329   9.347  0.0695 -0.3103 -0.0951
  140MOL0     C19246   9.262  11.437   9.364 -0.6211 -0.4480 -0.9033
  140MOL0     C19247   9.207  11.538   9.404 -0.0953 -0.1353 -0.1682
  140MOL0     C19248   9.290  10.799   9.295  0.1121 -0.1416 -0.9398
  140MOL0     C19249   9.257  10.700   9.202 -0.7638  0.0433 -0.4944
  140MOL0     C19250   9.362  10.674   9.099 -0.4858  0.3602  0.6623
  140MOL0     H19251   9.213  10.258   8.936 -0.7621  2.5076  2.8184
  140MOL0     H19252   9.111  10.118   8.776 -0.3719  0.0703 -0.2462
  140MOL0     H19253   8.678  10.084   8.638  1.7965 -0.0859 -2.0477
  140MOL0     H19254   8.696  10.118   8.810  0.4858 -2.6401  2.3968
  140MOL0     H19255   8.820   9.899   8.651  1.0918  0.7101  0.2472
  140MOL0     H19256   8.815   9.905   8.835 -2.7864  1.0862  2.1248
  140MOL0     H19257   8.585   9.877   8.859 -1.5041 -0.3660  0.2483
  140MOL0     H19258   8.567   9.881   8.681 -0.1735 -0.5115  0.3299
  140MOL0     H19259   8.698   9.670   8.666 -2.2556  2.8047 -1.5729
  140MOL0     H19260   8.740   9.681   8.844  1.3994  3.0364 -0.2973
  140MOL0     H19261   8.468   9.613   8.714 -0.8696  0.1051 -0.3128
  140MOL0     H19262   8.474   9.670   8.878  1.9055 -0.2302  1.9481
  140MOL0     H19263   8.573   9.420   8.735 -1.0429  1.4384 -0.9223
  140MOL0     H19264   8.658   9.451   8.888 -0.3478  1.4780 -0.2636
  140MOL0     H19265   8.415   9.466   8.990  1.2156  1.9833  0.7001
  140MOL0     H19266   8.522   9.333   8.986 -3.0706 -1.2604  0.8820
  140MOL0     H19267   8.426   9.246   8.781  3.3763  1.5167  1.1652
  140MOL0     H19268   8.303   9.247   8.901  0.0400 -0.6017 -0.8433
  140MOL0     H19269   8.388   9.407   8.581  0.7243 -2.4567  2.9057
  140MOL0     H19270   8.257   9.574   8.405  0.9112 -0.5314  1.4750
  140MOL0     H19271   8.101   9.650   8.461  1.9836  2.0623 -3.7588
  140MOL0     H19272   8.172   9.382   8.354 -1.3093 -1.5047  1.2743
  140MOL0     H19273   8.011   9.407   8.415  1.6534 -2.4697 -0.2735
  140MOL0     H19274   7.974   9.575   8.251 -1.3795 -1.9797  0.7237
  140MOL0     H19275   8.152   9.575   8.195 -2.3551  2.1622 -1.8514
  140MOL0     H19276   7.928   9.383   8.153 -1.1615  2.9042 -0.6170
  140MOL0     H19277   8.013   9.486   8.034  1.0790 -0.9200 -0.5547
  140MOL0     H19278   8.372   9.307   8.070 -3.3153 -2.9519  1.4173
  140MOL0     H19279   8.557   9.257   7.960 -2.9718 -1.6102  0.9383
  140MOL0     H19280   8.590   9.339   7.806 -1.1445  0.1269 -0.3553
  140MOL0     H19281   8.545   9.161   7.818  1.0342 -0.0490 -3.4154
  140MOL0     H19282   8.403   9.550   7.397  1.8520 -0.8681  0.5355
  140MOL0     H19283   8.515   9.573   7.181 -0.1691  1.0671 -1.6239
  140MOL0     H19284   8.545   9.604   6.977 -1.7298  0.4865 -0.8819
  140MOL0     H19285   8.571   9.514   6.831  0.5270  2.5362 -0.9103
  140MOL0     H19286   8.323   9.544   6.775 -1.5612 -0.9699  0.9549
  140MOL0     H19287   8.289   9.601   6.933  0.4364  1.3068 -0.0144
  140MOL0     H19288   8.436   9.803   6.883 -0.0662 -2.0126  0.0425
  140MOL0     H19289   8.293   9.794   6.783 -0.1582  0.9510  0.2182
  140MOL0     H19290   8.405   9.734   6.593  0.2592 -0.1114  0.0344
  140MOL0     H19291   8.549   9.683   6.676 -0.4730 -0.6110 -2.6968
  140MOL0     H19292   8.545   9.920   6.554  0.5835  0.9172  0.3635
  140MOL0     H19293   8.459   9.986   6.667  0.2346 -0.2780 -0.8733
  140MOL0     H19294   8.684   9.836   6.803  2.6531  1.0400 -2.9798
  140MOL0     H19295   8.631   9.984   6.833  2.2629 -0.7679  1.9075
  140MOL0     H19296   8.805   9.893   6.595  0.0951  2.0432 -1.5126
  140MOL0     H19297   8.863   9.964   6.748 -1.3878  1.3817  0.7849
  140MOL0     H19298   8.679  10.105   6.550 -0.1276 -2.0173  0.6247
  140MOL0     H19299   8.863  10.112   6.564 -0.9817 -0.9003 -0.8650
  140MOL0     H19300   8.344   9.197   7.053  0.9438 -0.7169  0.7400
  140MOL0     H19301   8.254   9.174   7.295 -0.4131  0.8747  1.7141
  140MOL0     H19302   8.118   9.317   7.643  0.5863 -0.5630  0.1250
  140MOL0     H19303   7.998   9.336   7.872  1.0701  1.6303  1.6948
  140MOL0     H19304   8.762  10.378   8.750  1.2810  0.9003 -2.3354
  140MOL0     H19305   8.871  10.527   8.895 -0.3204 -0.2888 -0.3271
  140MOL0     H19306   8.944  10.651   9.312 -0.6399 -0.4280  1.2558
  140MOL0     H19307   9.008  10.825   9.474  0.9861 -1.5583  0.9540
  140MOL0     H19308   9.412  11.017   9.588 -3.6373 -1.3998  1.9271
  140MOL0     H19309   9.451  10.891   9.481 -0.2556 -0.7984  1.7056
  140MOL0     H19310   9.371  11.066   9.301 -0.3461 -1.2620  1.1400
  140MOL0     H19311   9.512  11.110   9.385 -0.2047  1.1897 -0.0855
  140MOL0     H19312   9.233  11.202   9.472 -0.3473  0.2537  1.0778
  140MOL0     H19313   9.392  11.256   9.547  0.1614 -3.2681  0.5234
  140MOL0     H19314   9.326  11.285   9.250 -0.2031 -2.4512  0.8795
  140MOL0     H19315   9.457  11.354   9.338  0.1697 -0.4805  0.5650
  140MOL0     H19316   9.177  11.635   9.438 -0.9000  0.2987 -1.9870
  140MOL0     H19317   9.388  10.843   9.277 -0.2682  0.3070 -2.0284
  140MOL0     H19318   9.373  10.569   9.070  2.0813  0.2316  1.8219
  140MOL0     H19319   9.342  10.729   9.006 -0.7978 -1.2118 -0.2446
  140MOL0     H19320   9.461  10.705   9.133 -0.1869  0.8337 -0.5789
  141MOL0     O19321   2.168  10.794   4.116 -0.5042  0.0027  0.1480
  141MOL0     C19322   2.152  10.684   4.082 -0.2367  0.8729 -0.4668
  141MOL0     O19323   2.252  10.596   4.044  0.4432 -0.0360 -0.2594
  141MOL0     C19324   2.384  10.643   4.056 -0.7829 -0.2145  0.3518
  141MOL0     C19325   2.450  10.687   3.936  0.0619  0.1488 -0.2627
  141MOL0     C19326   2.584  10.717   3.948  0.1611 -0.4149  0.2215
  141MOL0     C19327   2.662  10.698   4.068  0.1360 -1.4190  0.2882
  141MOL0     O19328   2.791  10.743   4.080  1.0843  0.4767  0.2422
  141MOL0     C19329   2.838  10.842   3.993  0.7983  0.2872 -0.2949
  141MOL0     C19330   2.973  10.892   4.043 -0.3458  0.2814  0.0187
  141MOL0     C19331   3.038  11.009   3.953 -0.3188  0.0222  0.2241
  141MOL0     C19332   2.963  11.141   3.986 -0.2035  0.0307 -0.6729
  141MOL0     C19333   3.055  11.263   3.980 -0.6698  0.3349 -0.2539
  141MOL0     C19334   3.084  11.310   3.834  0.4660  0.1652 -0.4970
  141MOL0     C19335   3.194  11.420   3.828 -0.3445 -0.3761 -0.6322
  141MOL0     C19336   3.335  11.389   3.876 -1.2009 -0.1429  0.2138
  141MOL0     N19337   3.355  11.395   4.018 -0.3447  0.0066 -0.5943
  141MOL0     C19338   3.466  11.352   4.099  0.4593  0.3097 -0.2266
  141MOL0     C19339   3.463  11.418   4.216  0.7007 -0.2780 -1.2323
  141MOL0     C19340   3.547  11.390   4.336  1.0624  0.9910  0.0685
  141MOL0     C19341   3.659  11.488   4.356  0.0094  0.3186 -0.5783
  141MOL0     C19342   3.747  11.456   4.480  0.6369 -0.2097 -0.2369
  141MOL0     C19343   3.804  11.325   4.492  0.1316  0.5836 -0.9284
  141MOL0     O19344   3.860  11.286   4.370 -0.3948  0.1341 -0.2021
  141MOL0     C19345   3.961  11.190   4.373 -0.4544  0.3175 -0.1964
  141MOL0     C19346   3.963  11.074   4.292  0.8424  0.8997 -0.1494
  141MOL0     C19347   4.079  10.984   4.292  0.4176  0.2175 -0.7132
  141MOL0     C19348   4.070  10.850   4.224  0.2760  0.0029  0.0233
  141MOL0     C19349   4.181  11.011   4.379  0.2571 -0.0606 -0.2713
  141MOL0     C19350   4.289  10.913   4.411  0.4710  0.5689  0.5082
  141MOL0     O19351   4.302  10.872   4.542  0.2945  0.5945 -0.0358
  141MOL0     C19352   4.415  10.798   4.578 -0.1203  0.3700 -1.6696
  141MOL0     C19353   4.497  10.854   4.673 -0.4657 -0.0017 -0.5029
  141MOL0     C19354   4.605  10.780   4.730 -0.7241  0.1067  0.7196
  141MOL0     C19355   4.631  10.644   4.683 -0.4327  0.6443 -0.3289
  141MOL0     O19356   4.740  10.582   4.740 -0.2653 -0.2125  0.1863
  141MOL0     C19357   4.773  10.449   4.693  0.2758  0.7137  0.0966
  141MOL0     C19358   4.891  10.380   4.765 -0.0518  0.7135 -0.4686
  141MOL0     C19359   5.022  10.415   4.698  0.0783  0.8835 -0.3535
  141MOL0     C19360   5.133  10.345   4.779  0.5607  0.6708  0.2663
  141MOL0     C19361   5.260  10.423   4.755 -0.0494 -0.1526  0.3865
  141MOL0     C19362   5.307  10.407   4.613  0.3979  1.1424 -0.0427
  141MOL0     C19363   5.342  10.266   4.558 -0.2893 -0.1513  0.2726
  141MOL0     C19364   5.408  10.261   4.417  0.1590 -0.1381 -0.6122
  141MOL0    Cl19365   5.471  10.098   4.370 -0.3151  0.1471  0.3753
  141MOL0     C19366   4.541  10.591   4.588  0.3554 -1.1351 -0.0749
  141MOL0     C19367   4.436  10.670   4.534  0.1955  0.3642  0.5523
  141MOL0     O19368   4.363  10.878   4.324 -0.6348 -0.8121 -0.1018
  141MOL0     C19369   4.184  11.132   4.443 -0.7087 -0.3458 -0.2530
  141MOL0     C19370   4.076  11.221   4.437 -1.1518 -0.0648  0.3191
  141MOL0     N19371   3.363  11.515   4.203 -0.4666 -0.0702 -0.6944
  141MOL0     N19372   3.296  11.486   4.098 -0.1991 -0.4569 -0.8248
  141MOL0     C19373   2.599  10.646   4.175 -0.0270 -0.0939  0.1816
  141MOL0     C19374   2.458  10.617   4.173 -0.1123  1.1873  0.2972
  141MOL0     C19375   2.014  10.639   4.074  0.0880 -0.4721 -1.2635
  141MOL0     C19376   1.970  10.551   3.978  0.8390 -0.1834  0.9248
  141MOL0     C19377   1.845  10.489   3.974 -0.5753 -0.2093 -0.2199
  141MOL0     C19378   1.751  10.523   4.069 -0.3549  0.1075 -0.3501
  141MOL0     O19379   1.628  10.471   4.064  1.0515  0.0974 -0.4935
  141MOL0     C19380   1.578  10.429   4.191 -0.3277 -0.0736 -0.0537
  141MOL0     C19381   1.468  10.321   4.192  0.1033 -0.1439  0.3641
  141MOL0     C19382   1.525  10.185   4.151 -0.1586 -0.1382  0.5113
  141MOL0     C19383   1.416  10.079   4.141  0.3384  0.0954  0.4023
  141MOL0     C19384   1.328  10.095   4.021 -0.0876 -0.3698 -0.0114
  141MOL0     C19385   1.275  10.129   3.922 -0.2521 -0.1339 -0.2509
  141MOL0     C19386   1.789  10.614   4.173 -0.3978 -0.2692  0.1552
  141MOL0     C19387   1.908  10.682   4.166 -1.6263 -0.3357 -0.2086
  141MOL0     C19388   1.943  10.752   4.294 -0.4187  0.3432  0.8801
  141MOL0     H19389   2.391  10.689   3.844  0.5161  0.4170 -0.5479
  141MOL0     H19390   2.646  10.753   3.867  2.0111  1.5829  2.3891
  141MOL0     H19391   2.770  10.928   3.994 -0.1721 -0.2153 -4.7501
  141MOL0     H19392   2.837  10.817   3.887  1.7928 -3.1326  0.3796
  141MOL0     H19393   2.966  10.926   4.147  1.2561  0.9308 -0.0515
  141MOL0     H19394   3.042  10.808   4.033  0.5517  1.0211 -0.0683
  141MOL0     H19395   3.144  11.016   3.981 -0.9602 -0.0790  3.0596
  141MOL0     H19396   3.043  10.972   3.850 -0.8133  1.1953 -0.2318
  141MOL0     H19397   2.898  11.162   3.901 -0.5265 -2.5077 -1.1328
  141MOL0     H19398   2.919  11.141   4.086 -0.4711  0.5545 -0.7885
  141MOL0     H19399   3.151  11.235   4.025 -0.2268 -0.1023 -1.4357
  141MOL0     H19400   3.023  11.346   4.043  1.0178 -0.3357  1.6121
  141MOL0     H19401   3.135  11.230   3.778  0.1598 -0.4775  0.1182
  141MOL0     H19402   2.991  11.337   3.784  0.7447  2.6121  0.2182
  141MOL0     H19403   3.154  11.511   3.874 -0.2177  0.9021 -2.8852
  141MOL0     H19404   3.196  11.464   3.728 -2.5855  2.3310  0.3673
  141MOL0     H19405   3.375  11.303   3.822 -2.1229 -1.0190  0.8773
  141MOL0     H19406   3.392  11.477   3.843  1.0277  0.4118  4.7288
  141MOL0     H19407   3.519  11.263   4.067  0.7527 -0.5636  2.5046
  141MOL0     H19408   3.598  11.294   4.322  1.0757  1.1198 -0.8204
  141MOL0     H19409   3.473  11.381   4.416 -0.1170  1.6763 -0.9161
  141MOL0     H19410   3.719  11.494   4.264  0.6774  1.8528 -0.0719
  141MOL0     H19411   3.616  11.586   4.375 -4.2104 -1.5367  0.6884
  141MOL0     H19412   3.831  11.526   4.477  0.1571  0.3609 -0.8163
  141MOL0     H19413   3.693  11.471   4.574  2.0936 -1.2861  0.8001
  141MOL0     H19414   3.876  11.326   4.574 -1.2986 -2.0426  0.4444
  141MOL0     H19415   3.721  11.256   4.505  1.7072 -1.8944 -3.0459
  141MOL0     H19416   3.875  11.044   4.237  0.2604 -1.4505  1.8954
  141MOL0     H19417   3.983  10.849   4.158 -0.5183 -0.4803  1.0447
  141MOL0     H19418   4.058  10.777   4.306 -3.3565  2.0894  1.6266
  141MOL0     H19419   4.156  10.835   4.159 -1.8021 -1.7444 -2.5612
  141MOL0     H19420   4.477  10.959   4.696 -3.1835 -0.7077  0.7012
  141MOL0     H19421   4.688  10.826   4.782  1.8597 -1.0372 -2.0733
  141MOL0     H19422   4.692  10.377   4.711  0.2800  0.2350 -1.6687
  141MOL0     H19423   4.794  10.453   4.586  3.9551 -0.4771  0.6018
  141MOL0     H19424   4.904  10.423   4.865  2.5836  0.1950 -0.5132
  141MOL0     H19425   4.874  10.273   4.752 -0.2751  0.6399  0.3651
  141MOL0     H19426   5.056  10.518   4.697 -0.8846  1.2266  0.4918
  141MOL0     H19427   5.019  10.383   4.593 -0.6363  2.7127 -0.9376
  141MOL0     H19428   5.139  10.237   4.763 -0.6447  0.7487 -0.9112
  141MOL0     H19429   5.113  10.355   4.886  0.2384  2.2338  0.0800
  141MOL0     H19430   5.247  10.529   4.775 -1.0250  0.5007 -3.0970
  141MOL0     H19431   5.331  10.377   4.824 -0.0008 -0.7630 -0.0626
  141MOL0     H19432   5.400  10.465   4.614  0.7805  0.5544  1.8542
  141MOL0     H19433   5.251  10.468   4.542  0.0405  2.4279  1.2853
  141MOL0     H19434   5.254  10.201   4.559 -0.7037  0.3602 -1.1504
  141MOL0     H19435   5.424  10.231   4.622  0.6716  0.6417 -0.4979
  141MOL0     H19436   5.482  10.341   4.403 -2.3737  2.3001 -0.8386
  141MOL0     H19437   5.328  10.293   4.350 -1.7349  1.9894  2.4398
  141MOL0     H19438   4.545  10.488   4.554 -1.4046 -0.4619 -2.6461
  141MOL0     H19439   4.363  10.630   4.464 -1.5554  1.0826  1.8832
  141MOL0     H19440   4.273  11.165   4.496 -0.5717  1.8816 -1.7522
  141MOL0     H19441   4.087  11.309   4.501  1.6197 -1.2547  1.6584
  141MOL0     H19442   2.664  10.623   4.258  1.1458 -0.5368 -0.8396
  141MOL0     H19443   2.399  10.576   4.254  1.5860  0.7044  1.3663
  141MOL0     H19444   2.033  10.533   3.892  0.8594  2.1630  0.3720
  141MOL0     H19445   1.823  10.417   3.896  0.4429  0.0065 -0.7228
  141MOL0     H19446   1.657  10.395   4.258 -0.7906  2.2460  1.8198
  141MOL0     H19447   1.535  10.516   4.242  2.2467 -0.7577  3.6389
  141MOL0     H19448   1.393  10.353   4.118  0.7151  1.8563  0.5477
  141MOL0     H19449   1.429  10.295   4.291 -0.5434 -1.0902 -0.1228
  141MOL0     H19450   1.575  10.192   4.054  1.8667  0.1657  1.5162
  141MOL0     H19451   1.604  10.161   4.223  1.2078  0.4417 -0.7455
  141MOL0     H19452   1.364  10.078   4.238 -0.3738 -1.7157  0.0479
  141MOL0     H19453   1.466   9.984   4.121  3.2579  1.1357  2.1685
  141MOL0     H19454   1.242  10.168   3.828 -1.3150  0.0131  0.1730
  141MOL0     H19455   1.727  10.639   4.259 -0.4604 -0.3611  0.1365
  141MOL0     H19456   1.871  10.725   4.372 -0.3936 -0.4378  0.6402
  141MOL0     H19457   2.044  10.720   4.322 -1.5944 -3.1694  1.5367
  141MOL0     H19458   1.943  10.861   4.286  4.2291  0.4766  0.0444
  142MOL0     O19459   9.655   7.254   1.323 -0.2531 -0.2280 -0.0572
  142MOL0     C19460   9.771   7.238   1.336 -0.7772  0.1719  0.3929
  142MOL0     O19461   9.833   7.115   1.318 -0.0117 -0.5817 -0.4602
  142MOL0     C19462   9.762   7.004   1.349  0.0879  0.5271  0.2872
  142MOL0     C19463   9.777   6.923   1.458  0.0485  0.3288  0.1374
  142MOL0     C19464   9.694   6.811   1.466  1.3444  0.6917  0.1533
  142MOL0     C19465   9.597   6.770   1.375 -0.5221 -0.6336  0.3507
  142MOL0     O19466   9.523   6.665   1.410 -0.7287 -0.1461 -0.2859
  142MOL0     C19467   9.403   6.652   1.340  0.1139 -0.7131  0.6341
  142MOL0     C19468   9.306   6.755   1.393  0.8189  0.4755  0.3956
  142MOL0     C19469   9.190   6.788   1.300 -0.3525  1.4530 -0.2494
  142MOL0     C19470   9.081   6.881   1.360 -0.3978 -0.6503  0.0481
  142MOL0     C19471   8.987   6.944   1.248  0.2072 -0.1707 -0.1396
  142MOL0     C19472   8.893   7.033   1.322 -1.1614  0.2913 -0.0369
  142MOL0     C19473   8.786   7.088   1.222 -1.1759 -0.0103  0.4706
  142MOL0     C19474   8.844   7.187   1.116  0.0295 -0.4596 -0.0846
  142MOL0     N19475   8.916   7.300   1.164  1.1213  0.6314 -0.7770
  142MOL0     C19476   9.036   7.336   1.120 -0.2235  0.5675  0.3055
  142MOL0     C19477   9.069   7.428   1.210  0.8266  0.3423 -0.2739
  142MOL0     C19478   9.192   7.517   1.221 -0.2863 -0.3725  0.1478
  142MOL0     C19479   9.230   7.557   1.364  0.2700  1.2364  0.1554
  142MOL0     C19480   9.247   7.433   1.451 -0.6447  0.2722 -0.2142
  142MOL0     C19481   9.171   7.464   1.587  0.0400 -0.2490  0.0691
  142MOL0     O19482   9.151   7.351   1.661 -0.0161  0.0140  0.3714
  142MOL0     C19483   9.252   7.296   1.730 -0.3489  0.5174  0.5623
  142MOL0     C19484   9.334   7.199   1.684  0.4773 -0.4010 -0.3260
  142MOL0     C19485   9.440   7.139   1.759 -0.2538 -0.2850  0.5649
  142MOL0     C19486   9.520   7.036   1.701  0.0637  0.7843 -0.6524
  142MOL0     C19487   9.462   7.176   1.899 -0.2048 -0.1391 -0.6435
  142MOL0     C19488   9.568   7.135   1.994 -0.0275  1.0374  0.9732
  142MOL0     O19489   9.588   7.217   2.099 -0.6014  0.3423 -0.0137
  142MOL0     C19490   9.654   7.177   2.210 -0.6745  0.5748  0.2778
  142MOL0     C19491   9.635   7.045   2.256 -0.4785 -0.3516  0.3227
  142MOL0     C19492   9.677   7.009   2.378 -0.8510  1.2277  0.7641
  142MOL0     C19493   9.749   7.097   2.463  0.1577  0.6749  0.5390
  142MOL0     O19494   9.797   7.059   2.590 -0.4593 -0.1396 -0.5334
  142MOL0     C19495   9.757   7.146   2.699  0.2089  0.1578 -0.6816
  142MOL0     C19496   9.882   7.219   2.752 -0.4164 -0.0088  0.4358
  142MOL0     C19497   9.973   7.120   2.823  0.0756 -0.2032 -0.3225
  142MOL0     C19498  10.090   7.184   2.893  0.0013 -1.2966  1.1017
  142MOL0     C19499  10.212   7.096   2.894  0.2622  0.1826 -0.3194
  142MOL0     C19500  10.318   7.158   2.980 -0.1083 -0.1292  0.0264
  142MOL0     C19501  10.445   7.073   2.974  0.7567  0.6577  1.0788
  142MOL0     C19502  10.526   7.087   3.103  0.0344 -0.1455 -0.6305
  142MOL0    Cl19503  10.610   7.246   3.106 -0.7673  0.0979 -0.0210
  142MOL0     C19504   9.765   7.231   2.416  0.5169 -0.3360 -0.3132
  142MOL0     C19505   9.702   7.273   2.295 -0.1004  0.1254 -0.2720
  142MOL0     O19506   9.630   7.028   1.970 -0.9756 -0.0739 -0.2165
  142MOL0     C19507   9.369   7.269   1.948  1.0629  0.4625 -0.2360
  142MOL0     C19508   9.268   7.323   1.870 -0.0531  1.2568  0.8161
  142MOL0     N19509   8.961   7.458   1.291  0.0004  0.5087 -0.6189
  142MOL0     N19510   8.867   7.377   1.266  0.9404 -0.4882  0.1716
  142MOL0     C19511   9.590   6.853   1.260  0.3495  0.2914 -0.0116
  142MOL0     C19512   9.678   6.958   1.250 -0.3317  0.4340 -0.0333
  142MOL0     C19513   9.848   7.351   1.390  0.1058 -0.8010  0.4905
  142MOL0     C19514   9.981   7.336   1.407  0.1394  0.0913 -0.2496
  142MOL0     C19515  10.061   7.439   1.455 -0.1870 -0.1803  0.3396
  142MOL0     C19516  10.009   7.569   1.456 -1.1548  0.6540 -0.1799
  142MOL0     O19517  10.087   7.675   1.499 -0.3609 -0.1950 -0.8125
  142MOL0     C19518  10.229   7.658   1.533 -0.6511 -0.3887  0.4408
  142MOL0     C19519  10.250   7.624   1.681  0.5609  0.1632 -0.0257
  142MOL0     C19520  10.395   7.591   1.722 -0.2007  0.5665 -0.5163
  142MOL0     C19521  10.478   7.707   1.774 -0.2977  0.9751 -0.3022
  142MOL0     C19522  10.560   7.775   1.667 -0.7892  0.7401 -0.6405
  142MOL0     C19523  10.612   7.826   1.572  0.3127 -0.2854 -0.5419
  142MOL0     C19524   9.880   7.590   1.420  0.5904 -0.3614  0.6263
  142MOL0     C19525   9.788   7.483   1.389 -0.6337  0.1826 -0.7297
  142MOL0     C19526   9.650   7.532   1.378  0.0125  0.5641 -0.1713
  142MOL0     H19527   9.848   6.954   1.534 -1.2048  1.6223  0.8221
  142MOL0     H19528   9.706   6.742   1.549 -1.7321  1.2655  1.2372
  142MOL0     H19529   9.374   6.547   1.347 -0.1798 -1.0265 -3.0394
  142MOL0     H19530   9.425   6.654   1.232 -3.5873 -2.1305 -0.2914
  142MOL0     H19531   9.261   6.707   1.481  0.2662 -2.4863 -1.3500
  142MOL0     H19532   9.351   6.853   1.411 -0.2748  1.2954 -1.0494
  142MOL0     H19533   9.244   6.838   1.219  0.9238 -0.8283 -0.9250
  142MOL0     H19534   9.141   6.705   1.249 -1.6769  3.6554 -2.8224
  142MOL0     H19535   9.033   6.829   1.444 -2.0505  1.4299  0.4687
  142MOL0     H19536   9.130   6.967   1.404 -1.1978  0.0879 -0.4635
  142MOL0     H19537   8.935   6.862   1.197  0.1151  1.1850 -2.3814
  142MOL0     H19538   9.039   6.997   1.168 -1.1416 -1.2813 -1.8085
  142MOL0     H19539   8.853   6.962   1.395  0.4678  0.7004  1.2888
  142MOL0     H19540   8.941   7.114   1.377  1.8004 -0.1642 -1.7458
  142MOL0     H19541   8.702   7.128   1.280 -2.2527 -2.5916  0.8673
  142MOL0     H19542   8.738   7.015   1.155  1.9842 -0.5852 -1.3917
  142MOL0     H19543   8.907   7.141   1.040 -2.5343 -3.5529 -0.6002
  142MOL0     H19544   8.755   7.217   1.059  0.2494  0.6963  0.1593
  142MOL0     H19545   9.105   7.296   1.046 -1.1745  0.8574 -0.7541
  142MOL0     H19546   9.187   7.607   1.159  0.7430 -0.0600  0.4885
  142MOL0     H19547   9.267   7.449   1.179  0.4173  0.6791 -0.3455
  142MOL0     H19548   9.316   7.624   1.369 -0.6196  2.5992 -1.7012
  142MOL0     H19549   9.149   7.621   1.403  1.7863  3.2604  0.1239
  142MOL0     H19550   9.201   7.342   1.410  0.5238 -1.2878  1.7745
  142MOL0     H19551   9.354   7.420   1.470 -0.9409 -2.0528  0.1231
  142MOL0     H19552   9.228   7.533   1.650  0.3176  0.4320 -0.9029
  142MOL0     H19553   9.071   7.506   1.572 -0.1487 -0.4480  0.7697
  142MOL0     H19554   9.313   7.170   1.582  0.9013  1.0910 -0.8691
  142MOL0     H19555   9.491   7.007   1.600  2.6840 -1.7281 -0.8143
  142MOL0     H19556   9.517   6.938   1.749 -3.1900  0.9164 -0.3780
  142MOL0     H19557   9.624   7.066   1.684  0.3942  0.2551  0.3792
  142MOL0     H19558   9.588   6.961   2.206  0.2502  1.0410 -2.9657
  142MOL0     H19559   9.662   6.908   2.416 -1.6339  0.9601 -0.2320
  142MOL0     H19560   9.681   7.216   2.663  1.0196  1.0120 -0.7567
  142MOL0     H19561   9.715   7.080   2.776  1.9619 -1.6270 -1.1816
  142MOL0     H19562   9.931   7.274   2.670 -1.6298  1.0600  0.3974
  142MOL0     H19563   9.858   7.291   2.830 -0.5810 -0.4575  0.7988
  142MOL0     H19564  10.001   7.047   2.746 -0.5632  0.7594 -1.5082
  142MOL0     H19565   9.924   7.065   2.904 -2.1778  0.7744 -0.9553
  142MOL0     H19566  10.056   7.210   2.993 -0.5341 -1.2925  0.9227
  142MOL0     H19567  10.116   7.273   2.835 -1.3345 -3.2084 -2.8096
  142MOL0     H19568  10.187   6.998   2.937 -0.0502  0.2636 -0.3138
  142MOL0     H19569  10.248   7.072   2.794  2.9715 -1.4714  0.9535
  142MOL0     H19570  10.277   7.182   3.079  2.0831  3.4682  0.2603
  142MOL0     H19571  10.347   7.261   2.954 -2.8264  0.1457 -2.5231
  142MOL0     H19572  10.507   7.100   2.888 -2.1378 -0.9427 -1.7062
  142MOL0     H19573  10.423   6.967   2.957 -2.2940  1.7164 -3.6000
  142MOL0     H19574  10.602   7.010   3.089 -1.3938 -2.4167  2.6322
  142MOL0     H19575  10.477   7.066   3.199  1.6387  1.3348  0.5672
  142MOL0     H19576   9.814   7.301   2.483 -1.9209 -0.4705  1.7785
  142MOL0     H19577   9.702   7.376   2.261  1.7689 -0.2083 -1.4315
  142MOL0     H19578   9.381   7.312   2.047 -1.6334 -3.4645  2.0740
  142MOL0     H19579   9.207   7.404   1.909 -0.3965  1.8325 -0.8459
  142MOL0     H19580   9.514   6.841   1.184 -2.7307 -0.3267  2.8993
  142MOL0     H19581   9.667   7.014   1.157  1.2890 -0.5473 -0.8566
  142MOL0     H19582  10.031   7.241   1.390  0.2583  0.0970  0.0748
  142MOL0     H19583  10.158   7.400   1.484 -0.7019 -2.1545 -0.4414
  142MOL0     H19584  10.281   7.584   1.472 -1.2117 -1.8465  1.6636
  142MOL0     H19585  10.273   7.752   1.500 -0.6797 -0.2715  0.7345
  142MOL0     H19586  10.184   7.543   1.711  1.0042  0.3682  1.6067
  142MOL0     H19587  10.219   7.710   1.742 -2.5014 -1.2615  0.6366
  142MOL0     H19588  10.397   7.520   1.806 -2.0795  1.4480  0.3381
  142MOL0     H19589  10.448   7.559   1.632 -1.0375  1.5752 -1.3943
  142MOL0     H19590  10.554   7.673   1.845 -0.8210 -0.9063 -0.5945
  142MOL0     H19591  10.419   7.780   1.830  2.3149  2.8460  0.1618
  142MOL0     H19592  10.649   7.867   1.480 -1.6533  2.5213 -0.2201
  142MOL0     H19593   9.839   7.690   1.428  1.1554 -0.1811  1.3486
  142MOL0     H19594   9.662   7.631   1.334  1.1493  0.5446  0.0594
  142MOL0     H19595   9.596   7.467   1.309  2.2102 -2.5560  0.7815
  142MOL0     H19596   9.596   7.533   1.473 -0.5730 -2.9291 -0.3034
  143MOL0     O19597   0.588   9.215   6.928  0.3888 -0.4260  0.1740
  143MOL0     C19598   0.530   9.192   7.034 -0.0231 -0.4704  0.1645
  143MOL0     O19599   0.579   9.206   7.166 -0.3120 -0.0400 -0.2683
  143MOL0     C19600   0.699   9.275   7.184 -0.0103  0.8039 -0.4235
  143MOL0     C19601   0.817   9.254   7.117  0.7771 -0.1822  0.3306
  143MOL0     C19602   0.940   9.320   7.161 -0.5951  1.0061 -0.3146
  143MOL0     C19603   0.944   9.401   7.276 -0.5833  0.0748 -0.5538
  143MOL0     O19604   1.073   9.451   7.308 -0.3490  0.2431 -0.1170
  143MOL0     C19605   1.080   9.538   7.419  0.7319  0.4071  0.1830
  143MOL0     C19606   1.226   9.575   7.428  0.2357  0.5716  0.0162
  143MOL0     C19607   1.315   9.465   7.493  0.1111 -0.3807 -0.1465
  143MOL0     C19608   1.462   9.513   7.478  0.5005  0.1879  0.0518
  143MOL0     C19609   1.560   9.456   7.594 -0.3231  0.1544 -0.0735
  143MOL0     C19610   1.691   9.526   7.601 -0.2821 -1.3570 -0.5886
  143MOL0     C19611   1.765   9.552   7.463  0.7917 -0.6067  0.8540
  143MOL0     C19612   1.884   9.654   7.480  0.6274  0.8737  0.3494
  143MOL0     N19613   1.993   9.651   7.377 -0.2009 -0.0517  0.2275
  143MOL0     C19614   1.970   9.678   7.244 -0.4244  0.3180 -0.3432
  143MOL0     C19615   2.094   9.651   7.189  0.0127 -0.0680  0.4325
  143MOL0     C19616   2.114   9.630   7.042 -0.7038 -0.2629 -0.4828
  143MOL0     C19617   2.014   9.539   6.980 -0.0294  0.6057  0.1726
  143MOL0     C19618   2.028   9.503   6.839 -0.5769 -0.4337  0.2673
  143MOL0     C19619   1.913   9.422   6.777  0.0926 -0.9791  0.1756
  143MOL0     O19620   1.800   9.503   6.741 -0.2997  0.2484 -0.2287
  143MOL0     C19621   1.695   9.459   6.674  1.2960 -0.7751 -0.0270
  143MOL0     C19622   1.614   9.555   6.615  0.4153 -0.1641  0.1343
  143MOL0     C19623   1.492   9.521   6.546 -0.8129  0.4486 -0.9247
  143MOL0     C19624   1.413   9.639   6.499  0.0046  0.5345 -0.6665
  143MOL0     C19625   1.455   9.380   6.532  0.3713  0.7377  0.3199
  143MOL0     C19626   1.328   9.332   6.479  0.4144  0.5837 -0.2852
  143MOL0     O19627   1.248   9.426   6.413 -0.4635 -0.4998 -0.5898
  143MOL0     C19628   1.115   9.407   6.387  0.2235  0.3110  0.4302
  143MOL0     C19629   1.050   9.294   6.352 -0.4515 -0.1993  0.0053
  143MOL0     C19630   0.915   9.285   6.323 -0.2898 -0.7493  1.0216
  143MOL0     C19631   0.840   9.402   6.315 -0.7521 -0.9329  0.6545
  143MOL0     O19632   0.709   9.411   6.275  0.2227  0.7237 -0.2706
  143MOL0     C19633   0.647   9.285   6.214  0.3010 -0.2120  0.1207
  143MOL0     C19634   0.503   9.325   6.177 -0.1424 -1.0219 -0.4660
  143MOL0     C19635   0.427   9.205   6.117  0.3701 -0.7738  0.0766
  143MOL0     C19636   0.331   9.247   6.005  0.7987  0.4355  0.1437
  143MOL0     C19637   0.209   9.164   5.994 -0.0576 -0.1476 -0.2942
  143MOL0     C19638   0.250   9.020   5.966 -0.3421 -0.2377  0.1061
  143MOL0     C19639   0.133   8.928   5.947 -0.2015 -0.1080  0.4660
  143MOL0     C19640   0.169   8.777   5.960  0.3319 -0.1067  0.3182
  143MOL0    Cl19641   0.024   8.676   5.909 -0.6646 -0.0365  0.0293
  143MOL0     C19642   0.905   9.527   6.350  0.5574  0.8027  0.6165
  143MOL0     C19643   1.039   9.528   6.394  0.4172  0.6331  1.0368
  143MOL0     O19644   1.297   9.217   6.496  0.2124  0.0393  0.7007
  143MOL0     C19645   1.541   9.289   6.592  0.3498  0.4336 -0.0754
  143MOL0     C19646   1.652   9.324   6.665 -0.3561 -0.0108 -0.3517
  143MOL0     N19647   2.181   9.630   7.291 -0.0310 -0.6730 -1.0581
  143MOL0     N19648   2.124   9.630   7.400 -0.1987 -0.2661 -0.3666
  143MOL0     C19649   0.818   9.426   7.341 -0.1306  0.1343 -0.7431
  143MOL0     C19650   0.704   9.365   7.291  0.9930  0.5040  0.7528
  143MOL0     C19651   0.395   9.140   7.033  1.1472 -0.5018 -1.2694
  143MOL0     C19652   0.314   9.137   7.154  0.3728 -0.6211  0.3184
  143MOL0     C19653   0.178   9.112   7.157 -0.5391 -0.9637 -0.1817
  143MOL0     C19654   0.115   9.059   7.046  0.0858  1.0527  1.2432
  143MOL0     O19655  -0.020   9.014   7.029 -0.2097  0.0503 -1.0109
  143MOL0     C19656  -0.107   9.021   7.141 -0.5042 -0.5240 -0.0539
  143MOL0     C19657  -0.243   8.967   7.116 -0.0794  0.3461 -0.3114
  143MOL0     C19658  -0.267   8.835   7.053 -0.9295 -0.4866  0.7639
  143MOL0     C19659  -0.219   8.725   7.143 -1.0514  0.6208 -0.0893
  143MOL0     C19660  -0.279   8.721   7.280 -0.1237  0.2565 -0.0414
  143MOL0     C19661  -0.315   8.720   7.395  0.1259 -0.1004 -0.3442
  143MOL0     C19662   0.193   9.041   6.927 -0.4734 -0.7334 -1.1025
  143MOL0     C19663   0.325   9.077   6.923  0.2101  0.4298  0.6320
  143MOL0     C19664   0.385   9.069   6.781  0.0843  0.1330 -0.0411
  143MOL0     H19665   0.815   9.205   7.020  0.4193  1.4491 -0.5282
  143MOL0     H19666   1.028   9.302   7.100  0.2487  2.2436  0.5079
  143MOL0     H19667   1.046   9.484   7.508  0.5955  0.7301  0.3293
  143MOL0     H19668   1.025   9.629   7.395 -0.3471 -0.2385  0.1689
  143MOL0     H19669   1.264   9.582   7.326  1.5530 -1.0716  0.3641
  143MOL0     H19670   1.244   9.677   7.465  2.3519 -0.2407  1.4101
  143MOL0     H19671   1.293   9.474   7.600  2.0571 -0.1285  0.2736
  143MOL0     H19672   1.298   9.361   7.465 -1.2077  0.0983 -1.2340
  143MOL0     H19673   1.489   9.487   7.375  2.4586 -0.0137  0.5729
  143MOL0     H19674   1.450   9.621   7.487 -0.9646  0.4112 -3.1345
  143MOL0     H19675   1.581   9.349   7.584  2.4515  0.5450  0.8835
  143MOL0     H19676   1.515   9.468   7.693  0.3746  1.2516  0.1223
  143MOL0     H19677   1.678   9.628   7.638 -2.0567 -1.7671 -0.0039
  143MOL0     H19678   1.756   9.465   7.664 -0.7258 -2.4475 -1.1755
  143MOL0     H19679   1.695   9.594   7.390  1.1659  1.5558  1.6666
  143MOL0     H19680   1.800   9.461   7.412 -3.0009 -0.4859 -2.4246
  143MOL0     H19681   1.843   9.755   7.492 -1.0615  0.0171  2.1018
  143MOL0     H19682   1.936   9.629   7.573  1.2318  0.4147 -0.1027
  143MOL0     H19683   1.876   9.699   7.196 -2.7250  0.4016  3.7708
  143MOL0     H19684   2.219   9.605   7.021 -0.3548  0.8181 -0.0922
  143MOL0     H19685   2.109   9.731   7.001 -0.6508  0.0209  0.1853
  143MOL0     H19686   2.007   9.449   7.042 -0.5813  1.4316  1.3631
  143MOL0     H19687   1.913   9.581   6.989 -0.1850  0.1298  0.7351
  143MOL0     H19688   2.047   9.594   6.782 -0.0444 -0.8245 -0.1991
  143MOL0     H19689   2.115   9.437   6.835 -2.2506 -3.0141  2.4503
  143MOL0     H19690   1.948   9.370   6.687 -1.8033 -2.1320  0.0374
  143MOL0     H19691   1.880   9.341   6.842  0.8539 -2.7325 -1.5082
  143MOL0     H19692   1.640   9.657   6.640  1.9902 -0.5852  0.2710
  143MOL0     H19693   1.324   9.653   6.562  1.3470 -1.1302  1.7808
  143MOL0     H19694   1.391   9.621   6.394  0.6775  0.7228 -0.8441
  143MOL0     H19695   1.482   9.724   6.503 -0.0753  0.5825  2.4945
  143MOL0     H19696   1.114   9.208   6.334  0.6012  1.0011 -2.4592
  143MOL0     H19697   0.879   9.183   6.310  0.3607 -0.9016  0.3088
  143MOL0     H19698   0.696   9.244   6.125 -0.0689 -1.5849  0.5243
  143MOL0     H19699   0.651   9.211   6.295  0.5577  1.2985  1.5460
  143MOL0     H19700   0.458   9.363   6.269 -2.3670  1.6336 -2.4628
  143MOL0     H19701   0.499   9.410   6.108 -1.0862 -0.5342  0.1713
  143MOL0     H19702   0.367   9.160   6.197 -0.4726  0.9981  0.4955
  143MOL0     H19703   0.497   9.127   6.084 -0.9918 -2.0117 -0.0072
  143MOL0     H19704   0.385   9.227   5.912  0.0843  1.2319 -0.4636
  143MOL0     H19705   0.306   9.353   6.003 -0.3979  0.2283 -3.0469
  143MOL0     H19706   0.143   9.182   6.079 -0.6645  1.8721 -1.1451
  143MOL0     H19707   0.166   9.201   5.901  2.6573  1.0404 -1.1844
  143MOL0     H19708   0.311   8.985   6.050 -1.6506  0.0028  1.1793
  143MOL0     H19709   0.315   9.027   5.878 -2.2920  0.7835 -1.3122
  143MOL0     H19710   0.088   8.938   5.848 -1.6087 -0.5117  1.0461
  143MOL0     H19711   0.062   8.957   6.025 -1.4909 -2.5361  0.2661
  143MOL0     H19712   0.190   8.753   6.065 -0.6019  0.0598  0.5516
  143MOL0     H19713   0.254   8.762   5.893 -1.6915 -2.0867 -2.0006
  143MOL0     H19714   0.849   9.619   6.350 -1.2334 -0.1696 -2.2207
  143MOL0     H19715   1.087   9.622   6.416  1.5639  0.0795  0.9609
  143MOL0     H19716   1.504   9.187   6.598 -0.5367  0.6778 -1.1240
  143MOL0     H19717   1.706   9.246   6.719 -1.8791  0.4741  1.9637
  143MOL0     H19718   0.812   9.487   7.431  1.5046 -2.3998  1.2435
  143MOL0     H19719   0.612   9.379   7.347 -1.4244 -0.0710 -2.7966
  143MOL0     H19720   0.354   9.157   7.253  0.1684  0.6231  0.1745
  143MOL0     H19721   0.141   9.128   7.258  0.3978 -0.4433  0.0829
  143MOL0     H19722  -0.066   8.962   7.223 -2.5040  0.0898  1.4724
  143MOL0     H19723  -0.124   9.126   7.169  1.2808 -0.0699 -0.5447
  143MOL0     H19724  -0.301   9.042   7.062 -0.4582  2.2669  2.5602
  143MOL0     H19725  -0.289   8.962   7.215  1.8378  0.8150  0.6445
  143MOL0     H19726  -0.369   8.819   7.016 -0.1300 -2.2927 -0.8075
  143MOL0     H19727  -0.203   8.827   6.964 -1.1004 -2.1014  0.7711
  143MOL0     H19728  -0.111   8.735   7.159 -1.1241  1.0342  0.1717
  143MOL0     H19729  -0.234   8.627   7.099 -5.0578 -0.1763  2.5696
  143MOL0     H19730  -0.349   8.720   7.496 -0.7621  0.5387 -0.6351
  143MOL0     H19731   0.146   8.992   6.842 -0.4392  0.4780 -1.8603
  143MOL0     H19732   0.416   9.169   6.748 -2.9077  0.9366 -0.7020
  143MOL0     H19733   0.464   8.994   6.780  2.3997  2.4365 -0.0221
  143MOL0     H19734   0.303   9.033   6.718  0.8752 -2.3037  0.2562
  144MOL0     O19735   3.664   5.745  11.294 -1.5570 -0.1580 -0.3608
  144MOL0     C19736   3.620   5.665  11.208 -0.4307 -0.2023  1.1742
  144MOL0     O19737   3.672   5.660  11.082 -0.3599  0.7650  0.5066
  144MOL0     C19738   3.770   5.758  11.057  0.4603 -0.7379 -0.5506
  144MOL0     C19739   3.885   5.722  10.997  0.0985 -0.3043  0.0107
  144MOL0     C19740   3.988   5.823  10.971  0.5580 -0.0110  1.1399
  144MOL0     C19741   3.963   5.960  11.002  1.1106 -0.5416  0.2320
  144MOL0     O19742   4.069   6.048  10.991 -0.2073 -0.2982 -0.6201
  144MOL0     C19743   4.039   6.191  10.993  0.4454  0.8898  0.3007
  144MOL0     C19744   3.972   6.232  10.860  0.1368  0.3271  0.1817
  144MOL0     C19745   3.960   6.387  10.876  0.8918 -0.1435 -0.0268
  144MOL0     C19746   3.900   6.436  10.747  0.5476 -1.3532 -0.0427
  144MOL0     C19747   4.012   6.446  10.634 -0.5572  0.4121  0.2554
  144MOL0     C19748   3.951   6.423  10.493  0.4280  0.4949  1.0464
  144MOL0     C19749   4.051   6.394  10.390 -0.4426  0.6382  0.2274
  144MOL0     C19750   4.104   6.248  10.410  0.0364 -0.2604 -0.4215
  144MOL0     N19751   4.168   6.204  10.287 -0.2174 -0.9412  0.1812
  144MOL0     C19752   4.174   6.083  10.241 -0.4588  0.7091 -1.0466
  144MOL0     C19753   4.278   6.084  10.153  0.4425  0.3562 -0.0200
  144MOL0     C19754   4.325   5.954  10.089  0.8307  0.3683  0.0143
  144MOL0     C19755   4.439   5.894  10.159 -0.1819  0.2167 -0.2145
  144MOL0     C19756   4.468   5.767  10.090 -0.0388 -0.1536  0.1309
  144MOL0     C19757   4.545   5.668  10.171  0.4977 -0.9121  0.0308
  144MOL0     O19758   4.598   5.570  10.090 -0.2591  0.3211  0.8098
  144MOL0     C19759   4.699   5.485  10.133 -0.2322 -0.3026  0.4876
  144MOL0     C19760   4.725   5.367  10.060  0.4257  0.2997 -0.5201
  144MOL0     C19761   4.815   5.267  10.108  0.6523 -0.2176  0.8023
  144MOL0     C19762   4.816   5.146  10.014  0.5190  0.1031  0.5757
  144MOL0     C19763   4.876   5.281  10.235  0.7846 -0.5020  1.0882
  144MOL0     C19764   4.965   5.169  10.282  0.1909 -0.4084 -0.5861
  144MOL0     O19765   4.977   5.172  10.422 -0.4017  0.8096 -0.6764
  144MOL0     C19766   5.036   5.065  10.488 -0.3636  0.2217 -0.5910
  144MOL0     C19767   4.952   4.955  10.521  0.1701  0.6531  0.4195
  144MOL0     C19768   5.006   4.844  10.595  0.1175 -0.3149 -0.6060
  144MOL0     C19769   5.133   4.848  10.637 -0.6838 -0.0356  0.1940
  144MOL0     O19770   5.174   4.740  10.714  0.1672  0.4516 -0.2518
  144MOL0     C19771   5.285   4.756  10.801 -0.4368 -0.8714 -0.3032
  144MOL0     C19772   5.312   4.623  10.867  0.0231  0.7390 -0.2346
  144MOL0     C19773   5.352   4.513  10.763  0.1262 -0.2401  0.0426
  144MOL0     C19774   5.500   4.518  10.738 -0.1801 -1.1231  0.3748
  144MOL0     C19775   5.546   4.449  10.613 -0.0590 -0.4511 -0.2936
  144MOL0     C19776   5.683   4.492  10.582  0.2129  0.2469  0.7258
  144MOL0     C19777   5.741   4.434  10.453  0.6921  0.7479 -0.4768
  144MOL0     C19778   5.707   4.287  10.427 -0.8537  0.5417 -0.4573
  144MOL0    Cl19779   5.825   4.210  10.325 -0.3365 -0.0007 -0.2455
  144MOL0     C19780   5.217   4.950  10.599  0.7608 -0.2150 -0.9785
  144MOL0     C19781   5.165   5.056  10.527  0.2630 -0.2253  0.2683
  144MOL0     O19782   5.032   5.102  10.208  0.3439  0.6445  0.3274
  144MOL0     C19783   4.868   5.407  10.291  0.7785  1.2118 -0.2513
  144MOL0     C19784   4.772   5.503  10.253 -0.9955  0.1662  0.3145
  144MOL0     N19785   4.338   6.201  10.163 -0.4212 -0.5539  0.0724
  144MOL0     N19786   4.274   6.269  10.239  0.8764 -0.6580 -0.5819
  144MOL0     C19787   3.830   5.985  11.042 -0.2229 -0.2715  0.0132
  144MOL0     C19788   3.738   5.892  11.070 -0.2034 -0.3051  0.3458
  144MOL0     C19789   3.506   5.581  11.243  0.9738 -1.2693 -0.2211
  144MOL0     C19790   3.510   5.520  11.371 -0.3830 -0.2446  1.0940
  144MOL0     C19791   3.409   5.430  11.402  0.5127  0.2767 -0.2286
  144MOL0     C19792   3.296   5.413  11.334 -0.3847  0.3460  0.1550
  144MOL0     O19793   3.197   5.338  11.387  0.5831  0.3441 -0.7311
  144MOL0     C19794   3.056   5.377  11.366  0.3414 -0.3467 -0.2354
  144MOL0     C19795   2.993   5.342  11.223  0.7952 -0.2222  0.0374
  144MOL0     C19796   2.875   5.250  11.235 -0.3396 -0.0579 -0.5607
  144MOL0     C19797   2.814   5.209  11.091  0.2782 -0.0839  0.4330
  144MOL0     C19798   2.912   5.248  10.979  1.1131  0.6137  0.3784
  144MOL0     C19799   2.985   5.263  10.894 -0.8802 -0.3655  0.9642
  144MOL0     C19800   3.282   5.478  11.215  0.4363  0.2524 -0.0203
  144MOL0     C19801   3.383   5.559  11.166 -0.2607 -0.5791 -0.5273
  144MOL0     C19802   3.367   5.613  11.028  0.0801 -0.2270  0.5328
  144MOL0     H19803   3.897   5.615  10.985 -0.9153 -0.2691 -1.6592
  144MOL0     H19804   4.081   5.784  10.931 -0.3358 -2.1415  0.9919
  144MOL0     H19805   4.132   6.247  11.008 -0.3725  2.4090 -0.0950
  144MOL0     H19806   3.964   6.219  11.068 -3.0387 -0.4782 -2.4099
  144MOL0     H19807   4.045   6.199  10.785 -0.9342 -0.8463 -0.3922
  144MOL0     H19808   3.887   6.166  10.838  2.4057 -2.2627 -1.4916
  144MOL0     H19809   3.892   6.410  10.959  1.0777  0.0172  0.0823
  144MOL0     H19810   4.056   6.431  10.904  1.1357 -0.5896 -0.1389
  144MOL0     H19811   3.827   6.370  10.698  0.4588 -2.0365  0.9943
  144MOL0     H19812   3.860   6.538  10.749 -0.4705 -1.5215 -3.7316
  144MOL0     H19813   4.074   6.357  10.648 -0.0395  0.3915 -1.8920
  144MOL0     H19814   4.073   6.537  10.635 -1.1119  0.7914  1.2886
  144MOL0     H19815   3.877   6.342  10.485  0.3728  0.6268  0.1560
  144MOL0     H19816   3.906   6.514  10.454 -0.1981 -0.8555 -1.6199
  144MOL0     H19817   4.139   6.458  10.402 -0.6784  0.4954  4.0636
  144MOL0     H19818   4.006   6.414  10.293 -1.0048 -0.0737  0.3236
  144MOL0     H19819   4.172   6.240  10.496  1.4917 -0.2999 -1.5487
  144MOL0     H19820   4.010   6.191  10.414  1.0434 -1.9423  0.7089
  144MOL0     H19821   4.106   6.003  10.267  2.4702 -1.2957  1.0027
  144MOL0     H19822   4.356   5.967   9.984 -0.1184  6.6069  0.1617
  144MOL0     H19823   4.241   5.885  10.095 -0.3360  1.8351  1.1806
  144MOL0     H19824   4.526   5.960  10.159 -1.2896  1.7759  0.9144
  144MOL0     H19825   4.411   5.891  10.265  0.7741  1.0834  0.0800
  144MOL0     H19826   4.381   5.717  10.049  0.2154  1.4836 -2.6302
  144MOL0     H19827   4.526   5.796  10.002  1.3556 -0.8870  0.7739
  144MOL0     H19828   4.625   5.724  10.221  0.0997 -1.8787  1.8227
  144MOL0     H19829   4.483   5.633  10.254  0.1657 -0.9218 -0.2235
  144MOL0     H19830   4.678   5.354   9.963 -2.3130 -2.2558  1.0012
  144MOL0     H19831   4.729   5.150   9.949  0.7795 -3.9288 -0.2367
  144MOL0     H19832   4.806   5.053  10.071 -1.1222 -0.7143 -0.9780
  144MOL0     H19833   4.906   5.144   9.952  0.8825  0.1184  1.0869
  144MOL0     H19834   4.852   4.959  10.478  2.0409  2.0792 -4.4359
  144MOL0     H19835   4.949   4.757  10.626 -1.7729  1.8781  2.7906
  144MOL0     H19836   5.374   4.790  10.748  1.0316 -3.9074 -0.0100
  144MOL0     H19837   5.259   4.825  10.881 -0.9700 -1.4288  0.0175
  144MOL0     H19838   5.401   4.636  10.929  2.1523 -0.9957 -2.7031
  144MOL0     H19839   5.226   4.585  10.923  1.6552  0.3225  2.1391
  144MOL0     H19840   5.301   4.519  10.667  2.6855 -3.3287 -1.7214
  144MOL0     H19841   5.326   4.412  10.798  0.2385 -0.4681 -0.5258
  144MOL0     H19842   5.564   4.479  10.818  1.7844 -1.5016 -1.2917
  144MOL0     H19843   5.534   4.622  10.728  2.1817 -1.8000  0.7877
  144MOL0     H19844   5.536   4.340  10.617  1.0303 -0.6985 -2.6776
  144MOL0     H19845   5.481   4.486  10.533 -2.4854  0.4984  1.9644
  144MOL0     H19846   5.747   4.457  10.663  2.7177 -0.0883 -1.2625
  144MOL0     H19847   5.707   4.599  10.582  4.0953 -0.4597  0.2967
  144MOL0     H19848   5.849   4.454  10.455  0.6857  0.7752 -0.3663
  144MOL0     H19849   5.709   4.497  10.370  1.0543  0.1266 -1.1005
  144MOL0     H19850   5.615   4.281  10.369 -1.3760 -1.4673  0.4947
  144MOL0     H19851   5.705   4.234  10.523 -3.4438  1.7638  0.2495
  144MOL0     H19852   5.322   4.943  10.623  0.6965 -3.0044 -1.1690
  144MOL0     H19853   5.220   5.139  10.483 -0.4560 -0.5978 -1.4161
  144MOL0     H19854   4.919   5.421  10.387 -0.6468 -2.0554  1.1022
  144MOL0     H19855   4.759   5.597  10.307  0.2835 -0.7664  2.3824
  144MOL0     H19856   3.810   6.086  11.077 -1.1481 -0.5667  0.3618
  144MOL0     H19857   3.646   5.936  11.107  0.4086  4.2246 -2.7630
  144MOL0     H19858   3.595   5.524  11.438 -0.0050 -2.8598  0.8695
  144MOL0     H19859   3.407   5.367  11.491 -2.4832  0.1025 -0.3041
  144MOL0     H19860   3.014   5.310  11.442  0.3572  0.0188  0.0949
  144MOL0     H19861   3.033   5.474  11.411 -0.7161 -1.3840  1.6083
  144MOL0     H19862   3.076   5.295  11.169  0.2238 -1.1828 -0.0280
  144MOL0     H19863   2.965   5.437  11.176 -1.1669  0.6281  2.6990
  144MOL0     H19864   2.911   5.158  11.282  1.4399  0.0661 -1.5455
  144MOL0     H19865   2.798   5.303  11.290  2.5475  1.7053  2.1277
  144MOL0     H19866   2.728   5.273  11.066  2.2671  1.5987 -2.7458
  144MOL0     H19867   2.785   5.104  11.082  0.1337  0.1172 -2.2438
  144MOL0     H19868   3.047   5.270  10.807 -0.0714  0.5078  1.5925
  144MOL0     H19869   3.200   5.465  11.145 -0.6471  0.5747  1.1579
  144MOL0     H19870   3.264   5.620  10.993  0.6342 -0.4084 -1.2557
  144MOL0     H19871   3.410   5.713  11.033  0.8620 -0.6006  1.8632
  144MOL0     H19872   3.419   5.557  10.950 -0.6477  0.2198 -0.2886
  145MOL0     O19873   6.689   6.297   3.402 -0.1923  0.0498 -0.1652
  145MOL0     C19874   6.573   6.288   3.361 -0.0566  0.8713 -0.4600
  145MOL0     O19875   6.468   6.360   3.405 -0.3927  0.4742  0.2435
  145MOL0     C19876   6.468   6.442   3.511  0.0192 -0.0274 -0.8484
  145MOL0     C19877   6.579   6.494   3.581 -0.0722 -0.8369  0.6446
  145MOL0     C19878   6.551   6.595   3.680  0.4625 -0.2776 -0.2190
  145MOL0     C19879   6.423   6.644   3.709 -0.2240 -0.5167 -0.8935
  145MOL0     O19880   6.413   6.742   3.807  0.2048 -0.0782 -0.1073
  145MOL0     C19881   6.295   6.728   3.889 -0.0498  0.5883  0.4990
  145MOL0     C19882   6.299   6.611   3.983  0.5806  0.0310 -0.3645
  145MOL0     C19883   6.403   6.604   4.089 -0.3676  0.4735 -0.1890
  145MOL0     C19884   6.370   6.488   4.183  0.4813  0.2882  0.1915
  145MOL0     C19885   6.479   6.470   4.303  0.4786  0.1003  0.8124
  145MOL0     C19886   6.464   6.334   4.369  0.2417  0.2654 -0.1156
  145MOL0     C19887   6.586   6.237   4.352 -0.0359 -1.0181 -0.8898
  145MOL0     C19888   6.547   6.094   4.390  0.4368 -0.1461  0.3506
  145MOL0     N19889   6.494   6.041   4.258 -0.2268  0.0575 -0.1024
  145MOL0     C19890   6.559   5.985   4.149  0.1982  0.3729 -0.0350
  145MOL0     C19891   6.459   5.921   4.078  0.7430  0.0852  0.7944
  145MOL0     C19892   6.481   5.834   3.955  0.4444  0.0570  0.6733
  145MOL0     C19893   6.627   5.826   3.905 -0.1709  0.2816  0.0120
  145MOL0     C19894   6.702   5.725   3.982 -1.2329  0.3946  0.0660
  145MOL0     C19895   6.826   5.693   3.905  0.1505 -1.0113  0.1038
  145MOL0     O19896   6.888   5.590   3.984 -0.3835  0.8065 -0.4107
  145MOL0     C19897   7.011   5.538   3.937  0.6819 -0.3475  0.3236
  145MOL0     C19898   7.072   5.578   3.810 -0.8097  0.0018  0.5120
  145MOL0     C19899   7.198   5.526   3.772 -0.2932  0.3391  0.0097
  145MOL0     C19900   7.256   5.588   3.646  0.1944  0.5642  0.1087
  145MOL0     C19901   7.265   5.432   3.858 -0.2284  0.1687  0.3788
  145MOL0     C19902   7.398   5.367   3.833  0.9051  0.8406 -0.4041
  145MOL0     O19903   7.452   5.287   3.934  0.1194  0.2515  0.1330
  145MOL0     C19904   7.558   5.193   3.901 -0.4556  1.2977 -0.2766
  145MOL0     C19905   7.662   5.178   3.997 -0.5792 -0.1362 -0.1977
  145MOL0     C19906   7.776   5.102   3.962 -0.5406 -0.5813  0.5877
  145MOL0     C19907   7.785   5.039   3.838  0.5296 -0.3625 -0.7692
  145MOL0     O19908   7.884   4.956   3.791 -0.0212  0.1961 -0.3378
  145MOL0     C19909   8.011   4.943   3.872 -0.2435 -0.8942 -0.4725
  145MOL0     C19910   8.115   5.057   3.841 -0.2851  0.5822  0.6826
  145MOL0     C19911   8.146   5.061   3.693 -0.4720 -0.4693  0.7751
  145MOL0     C19912   8.244   5.189   3.671 -1.1165 -0.1776 -0.0732
  145MOL0     C19913   8.296   5.201   3.522 -0.1512 -0.3487 -0.1641
  145MOL0     C19914   8.400   5.306   3.500 -0.5390 -0.3095 -0.4359
  145MOL0     C19915   8.437   5.317   3.361 -0.2672 -0.9525  0.1859
  145MOL0     C19916   8.568   5.395   3.331  0.1073  0.9688  0.3601
  145MOL0    Cl19917   8.707   5.278   3.364  0.0474 -0.4603  0.4790
  145MOL0     C19918   7.682   5.066   3.749  0.1325  0.5847  0.1811
  145MOL0     C19919   7.562   5.132   3.776 -0.1481  0.3715  0.6293
  145MOL0     O19920   7.446   5.380   3.724  0.7803 -0.2512  0.0661
  145MOL0     C19921   7.208   5.404   3.982  0.1517 -0.0209 -0.2668
  145MOL0     C19922   7.081   5.454   4.017 -0.0859  0.7933  0.6040
  145MOL0     N19923   6.335   5.960   4.125 -0.1689 -0.2336 -0.2011
  145MOL0     N19924   6.358   6.034   4.229  0.7468 -0.0550  0.2957
  145MOL0     C19925   6.318   6.594   3.628 -0.0272  0.6130  0.6077
  145MOL0     C19926   6.342   6.492   3.539  0.5975  0.3933  0.6784
  145MOL0     C19927   6.546   6.200   3.243  0.1146 -0.3686 -1.5288
  145MOL0     C19928   6.415   6.154   3.224  0.3957 -0.6227 -0.0231
  145MOL0     C19929   6.380   6.078   3.111  0.2085  0.9900 -0.0178
  145MOL0     C19930   6.467   6.052   3.011 -0.8701 -0.3503 -0.2250
  145MOL0     O19931   6.411   6.000   2.904 -0.8517  0.2473 -1.0045
  145MOL0     C19932   6.496   5.973   2.798  0.1466 -0.0210 -0.1431
  145MOL0     C19933   6.430   5.862   2.707  0.8095 -0.7984  0.0657
  145MOL0     C19934   6.301   5.924   2.640  0.8385  0.5894 -0.7287
  145MOL0     C19935   6.200   5.829   2.598  0.5833  1.0708 -0.5140
  145MOL0     C19936   6.181   5.718   2.696 -1.0388 -1.2233 -0.2746
  145MOL0     C19937   6.171   5.619   2.761  0.7335  0.5225  0.4623
  145MOL0     C19938   6.600   6.098   3.032 -0.5610  0.6095  0.2040
  145MOL0     C19939   6.643   6.167   3.145 -0.7995  0.1562 -1.0505
  145MOL0     C19940   6.789   6.209   3.159 -0.1815  0.0144 -0.2368
  145MOL0     H19941   6.682   6.463   3.565  0.2882  0.5109  0.2527
  145MOL0     H19942   6.636   6.636   3.735  0.7825 -1.6564  0.3444
  145MOL0     H19943   6.207   6.743   3.827 -0.7015 -0.4014  1.1721
  145MOL0     H19944   6.297   6.817   3.952  0.7659  0.2141  1.0191
  145MOL0     H19945   6.201   6.619   4.031  1.3447  0.7784  1.1538
  145MOL0     H19946   6.314   6.521   3.924  3.2925 -0.4857  0.9608
  145MOL0     H19947   6.503   6.578   4.054 -0.7477 -2.4610  0.5984
  145MOL0     H19948   6.402   6.699   4.143  0.4069  0.3657  0.0201
  145MOL0     H19949   6.271   6.506   4.226  1.2057  3.2004  0.8617
  145MOL0     H19950   6.365   6.405   4.113 -0.6305  1.6999 -1.4923
  145MOL0     H19951   6.458   6.544   4.382  1.9666 -2.4964  3.8868
  145MOL0     H19952   6.582   6.476   4.270  0.3585 -1.8572 -0.0391
  145MOL0     H19953   6.448   6.333   4.477 -2.9281 -0.6142 -0.5023
  145MOL0     H19954   6.370   6.287   4.339  1.1378 -0.4884 -1.8556
  145MOL0     H19955   6.661   6.261   4.428  1.0206 -2.9498 -1.2488
  145MOL0     H19956   6.642   6.246   4.258 -1.0095  0.3073 -1.3614
  145MOL0     H19957   6.622   6.021   4.423  0.2796 -0.8216 -0.7509
  145MOL0     H19958   6.462   6.097   4.459 -1.3253 -1.5444 -1.6061
  145MOL0     H19959   6.666   5.970   4.141 -0.1663 -1.8196 -1.4047
  145MOL0     H19960   6.432   5.886   3.872 -0.3802 -0.6270  0.7121
  145MOL0     H19961   6.431   5.737   3.953 -2.2052  1.2905 -2.8979
  145MOL0     H19962   6.631   5.790   3.802  1.3995 -2.0115  0.7849
  145MOL0     H19963   6.678   5.922   3.910  0.4329 -0.0926  1.7984
  145MOL0     H19964   6.724   5.771   4.079  1.0070 -2.3952  1.0095
  145MOL0     H19965   6.644   5.633   3.992 -1.4818  0.4563 -0.7113
  145MOL0     H19966   6.799   5.658   3.805  3.4638 -2.9560 -0.2801
  145MOL0     H19967   6.895   5.778   3.902 -1.0678  0.1017  1.7806
  145MOL0     H19968   7.019   5.642   3.739 -0.7664 -0.1351  0.3561
  145MOL0     H19969   7.215   5.687   3.624 -0.4334  0.2390 -0.2230
  145MOL0     H19970   7.233   5.531   3.556 -0.7551  0.3488  0.4714
  145MOL0     H19971   7.365   5.598   3.648  0.2062  1.3464 -2.1998
  145MOL0     H19972   7.642   5.206   4.100 -0.8335  1.9750 -0.7674
  145MOL0     H19973   7.858   5.107   4.033 -0.2315  0.5002  0.1752
  145MOL0     H19974   7.988   4.940   3.979 -2.3303  1.4515 -0.7804
  145MOL0     H19975   8.050   4.845   3.844  1.4199 -1.9120  4.4587
  145MOL0     H19976   8.079   5.147   3.891  0.4098  0.5916  1.1793
  145MOL0     H19977   8.205   5.050   3.902  0.0175 -0.0294  0.1797
  145MOL0     H19978   8.055   5.096   3.643 -0.5609  3.6060  3.2893
  145MOL0     H19979   8.201   4.972   3.665  1.0560 -0.1758  2.6474
  145MOL0     H19980   8.326   5.181   3.743 -0.8242 -1.7568 -0.5457
  145MOL0     H19981   8.187   5.273   3.712 -2.5748 -1.5572  0.8600
  145MOL0     H19982   8.343   5.107   3.492  1.5004  0.2371  0.4765
  145MOL0     H19983   8.209   5.221   3.459  0.5172  2.4796 -0.3276
  145MOL0     H19984   8.494   5.283   3.551 -0.3276 -1.6743 -1.3534
  145MOL0     H19985   8.348   5.390   3.545  0.6912  1.0230 -1.4237
  145MOL0     H19986   8.353   5.376   3.324  0.2352 -0.9790 -1.0513
  145MOL0     H19987   8.428   5.224   3.304  2.9287  0.1470 -2.4464
  145MOL0     H19988   8.580   5.489   3.386  3.2927  1.7611 -1.4242
  145MOL0     H19989   8.576   5.428   3.227  0.2932  1.8798  0.6496
  145MOL0     H19990   7.692   5.038   3.645  0.7077 -0.3322  0.4700
  145MOL0     H19991   7.492   5.140   3.694  1.2126 -1.4559 -0.7868
  145MOL0     H19992   7.271   5.349   4.051  1.9983 -0.4545 -2.1879
  145MOL0     H19993   7.026   5.412   4.101 -1.6784 -0.1617 -0.8380
  145MOL0     H19994   6.217   6.631   3.642 -0.7056 -0.5978 -0.7579
  145MOL0     H19995   6.254   6.465   3.480  0.8324  1.5609 -0.2496
  145MOL0     H19996   6.339   6.156   3.302 -0.5380 -1.8435 -0.8457
  145MOL0     H19997   6.279   6.038   3.106  0.7093 -0.5347  1.2940
  145MOL0     H19998   6.518   6.060   2.737  1.0600 -0.8845 -1.0869
  145MOL0     H19999   6.589   5.934   2.839 -1.2975 -0.7393  2.7360
  145MOL0     H20000   6.411   5.770   2.762 -1.8803 -0.9600 -0.9396
  145MOL0     H20001   6.506   5.847   2.630  0.2580 -0.2974 -0.5997
  145MOL0     H20002   6.259   6.002   2.705 -1.2806 -0.4261 -0.8051
  145MOL0     H20003   6.337   5.986   2.557  1.3650  0.4840 -0.5787
  145MOL0     H20004   6.239   5.774   2.512 -0.0573  1.7070 -1.2236
  145MOL0     H20005   6.107   5.880   2.571  0.2503  0.3049 -0.8576
  145MOL0     H20006   6.152   5.526   2.811 -0.3143  1.1075  1.1844
  145MOL0     H20007   6.677   6.084   2.957  1.7400  0.8253  2.3959
  145MOL0     H20008   6.839   6.156   3.241 -3.4804 -1.1680  1.1563
  145MOL0     H20009   6.836   6.179   3.065 -0.3357  1.5646 -0.8253
  145MOL0     H20010   6.806   6.317   3.167  1.8647 -0.4062  3.4274
  146MOL0     O20011   1.929   9.469   9.249  1.1874  0.5138 -0.4192
  146MOL0     C20012   1.852   9.394   9.313 -0.5272 -0.5370  0.3933
  146MOL0     O20013   1.875   9.365   9.440  0.1063  0.2805 -0.3091
  146MOL0     C20014   2.001   9.368   9.491 -0.5475  0.0771  0.5429
  146MOL0     C20015   2.043   9.482   9.569 -0.2455  1.1628 -0.0284
  146MOL0     C20016   2.172   9.481   9.623 -0.4494 -0.4160 -0.3597
  146MOL0     C20017   2.253   9.369   9.602 -0.5061 -0.6040 -0.0874
  146MOL0     O20018   2.385   9.370   9.632 -0.1516  0.1991 -0.3049
  146MOL0     C20019   2.430   9.428   9.757 -0.4744 -1.1560 -0.3902
  146MOL0     C20020   2.581   9.455   9.765 -0.3491  0.6864 -0.4333
  146MOL0     C20021   2.627   9.494   9.619 -0.5002 -0.1904  0.9405
  146MOL0     C20022   2.770   9.544   9.635  0.0969  0.0622  0.0803
  146MOL0     C20023   2.833   9.595   9.503 -0.5688 -0.0169 -0.0488
  146MOL0     C20024   2.813   9.503   9.383 -0.5007  0.5337  0.3727
  146MOL0     C20025   2.946   9.515   9.310 -0.0097  0.4686  0.5543
  146MOL0     C20026   2.937   9.450   9.166 -0.2278 -0.1524 -0.3599
  146MOL0     N20027   2.952   9.309   9.173 -0.2095  0.0973  0.1495
  146MOL0     C20028   3.076   9.243   9.176  0.2077 -0.2990  0.6008
  146MOL0     C20029   3.043   9.119   9.215 -0.1498 -0.1324  0.2696
  146MOL0     C20030   3.137   9.004   9.256 -0.2243 -0.9921 -0.2110
  146MOL0     C20031   3.258   9.072   9.318 -0.4054 -0.0122  0.4412
  146MOL0     C20032   3.243   9.093   9.467  0.0609 -1.2544 -0.8048
  146MOL0     C20033   3.374   9.147   9.522 -0.3640 -0.0908 -0.9231
  146MOL0     O20034   3.483   9.047   9.538 -0.0666 -0.4605  0.1195
  146MOL0     C20035   3.614   9.087   9.532 -0.0102 -0.5001 -0.4834
  146MOL0     C20036   3.708   8.990   9.505 -0.8991  0.3530  0.2113
  146MOL0     C20037   3.838   9.029   9.465  0.2545 -1.5939  0.3252
  146MOL0     C20038   3.919   8.927   9.388 -0.4121  0.9286  0.3250
  146MOL0     C20039   3.895   9.156   9.504 -0.1905 -1.1301  0.1161
  146MOL0     C20040   4.042   9.180   9.522 -0.3470  0.3489  0.1053
  146MOL0     O20041   4.134   9.079   9.490 -0.4557  0.3493 -0.1511
  146MOL0     C20042   4.261   9.097   9.521  0.3372  0.2143 -0.4232
  146MOL0     C20043   4.333   9.213   9.488 -0.4827 -0.1944  0.1192
  146MOL0     C20044   4.475   9.207   9.499 -0.5596  0.6740  0.1059
  146MOL0     C20045   4.538   9.090   9.531 -0.0454  0.2281 -0.8448
  146MOL0     O20046   4.675   9.088   9.510 -0.2648 -0.1847  0.2408
  146MOL0     C20047   4.761   8.983   9.574  0.1205 -0.1837  0.4796
  146MOL0     C20048   4.898   8.986   9.518 -0.3110  0.5687 -0.7187
  146MOL0     C20049   4.911   9.007   9.369  0.7695  0.5117  1.0417
  146MOL0     C20050   5.054   9.045   9.332  0.5681 -0.0855 -0.1782
  146MOL0     C20051   5.076   9.066   9.184 -0.7719  0.3906  0.3630
  146MOL0     C20052   5.215   9.119   9.145 -0.0009  0.4129 -0.2785
  146MOL0     C20053   5.252   9.104   8.989  0.8769  0.8589 -0.7248
  146MOL0     C20054   5.395   9.127   8.964 -0.2908  0.0440  0.9507
  146MOL0    Cl20055   5.442   9.274   9.039 -0.0612  0.0870 -0.1548
  146MOL0     C20056   4.464   8.979   9.568 -0.1454 -0.5921  0.2059
  146MOL0     C20057   4.322   8.989   9.573  0.0924  1.2308 -0.5481
  146MOL0     O20058   4.068   9.287   9.587  0.1006  0.1052 -0.3912
  146MOL0     C20059   3.801   9.257   9.545  0.4914  0.1875 -0.2037
  146MOL0     C20060   3.663   9.220   9.553 -0.0563 -0.0746  0.3267
  146MOL0     N20061   2.909   9.111   9.218  0.2468 -0.2482 -0.4018
  146MOL0     N20062   2.849   9.220   9.188 -0.1141 -0.3769 -1.5863
  146MOL0     C20063   2.214   9.258   9.522 -0.2503 -0.5775 -0.1826
  146MOL0     C20064   2.080   9.253   9.478 -0.9722  0.0077  0.1382
  146MOL0     C20065   1.729   9.339   9.257 -0.1963 -0.1981 -0.3398
  146MOL0     C20066   1.666   9.239   9.338 -0.5410  0.1079 -0.8007
  146MOL0     C20067   1.537   9.205   9.307 -0.6598 -0.2088 -0.0613
  146MOL0     C20068   1.463   9.268   9.211 -0.4215 -0.2640 -0.3626
  146MOL0     O20069   1.331   9.245   9.180  0.7408  0.5529 -0.2113
  146MOL0     C20070   1.247   9.158   9.261 -0.0729 -0.0571 -0.1134
  146MOL0     C20071   1.257   9.006   9.248  0.8615 -0.0818 -0.2555
  146MOL0     C20072   1.256   8.967   9.106  0.0302 -0.1426  0.4479
  146MOL0     C20073   1.132   9.016   9.019 -0.2291 -0.1460  0.2277
  146MOL0     C20074   1.002   9.004   9.099  0.6711 -0.2665  0.3959
  146MOL0     C20075   0.893   8.997   9.155  0.4384  0.0105  0.7164
  146MOL0     C20076   1.522   9.362   9.131 -0.6144  0.1307  0.3437
  146MOL0     C20077   1.660   9.390   9.143 -0.1443  0.2347 -0.6824
  146MOL0     C20078   1.717   9.497   9.045 -0.1413  0.2932 -0.1691
  146MOL0     H20079   1.967   9.558   9.588  0.0451  1.3243  0.5268
  146MOL0     H20080   2.204   9.569   9.678  2.0630 -0.1897 -2.0504
  146MOL0     H20081   2.397   9.377   9.848 -0.6082  1.3727  1.0982
  146MOL0     H20082   2.388   9.527   9.779  1.2305 -0.6244  0.7265
  146MOL0     H20083   2.598   9.524   9.848 -1.6324  2.7919 -1.8359
  146MOL0     H20084   2.638   9.371   9.806  1.7288  2.3721  0.2957
  146MOL0     H20085   2.630   9.415   9.544  4.1270  1.0126 -0.4418
  146MOL0     H20086   2.563   9.576   9.586  2.3776  2.1893  0.8274
  146MOL0     H20087   2.785   9.628   9.704  0.6451  1.4038 -1.5882
  146MOL0     H20088   2.834   9.467   9.677  0.9638  1.2070  0.9183
  146MOL0     H20089   2.939   9.598   9.529 -0.6411  2.6721  0.2266
  146MOL0     H20090   2.794   9.694   9.479 -1.5346 -0.3191  0.2272
  146MOL0     H20091   2.803   9.401   9.421  0.0215  0.2395 -0.2759
  146MOL0     H20092   2.726   9.544   9.332  1.2433  4.8085  0.4030
  146MOL0     H20093   3.037   9.472   9.354 -0.3309 -0.3653  0.4237
  146MOL0     H20094   2.965   9.623   9.303  0.0925  0.5438  1.7757
  146MOL0     H20095   2.845   9.486   9.118 -1.3592 -0.9888  1.0812
  146MOL0     H20096   3.017   9.488   9.101  2.6395 -0.7717  2.5512
  146MOL0     H20097   3.177   9.279   9.158  0.7853 -2.6451 -1.3192
  146MOL0     H20098   3.159   8.934   9.175 -1.4009 -0.1018 -1.3408
  146MOL0     H20099   3.098   8.940   9.336 -0.0609 -0.7884  0.0313
  146MOL0     H20100   3.351   9.015   9.313  0.4091  1.2892  0.3878
  146MOL0     H20101   3.287   9.168   9.276  0.5287 -0.3181  0.3662
  146MOL0     H20102   3.168   9.169   9.492  1.0929  0.6957 -3.2349
  146MOL0     H20103   3.227   8.994   9.509  1.9888 -2.5602 -2.9091
  146MOL0     H20104   3.405   9.233   9.462 -0.4474  0.0858 -0.7150
  146MOL0     H20105   3.358   9.187   9.623  1.9052 -3.3461  0.9238
  146MOL0     H20106   3.675   8.886   9.503  1.8111 -0.6099 -2.3366
  146MOL0     H20107   3.991   8.871   9.449  1.0056  0.7502 -1.4374
  146MOL0     H20108   3.979   8.974   9.310 -0.6556 -0.2640 -0.5908
  146MOL0     H20109   3.861   8.844   9.348  0.8867  1.4217 -2.8235
  146MOL0     H20110   4.291   9.312   9.472  0.7147  0.3403  0.2215
  146MOL0     H20111   4.543   9.288   9.475 -0.0459 -0.1726 -1.4188
  146MOL0     H20112   4.753   8.998   9.682 -2.9012  0.7472  0.2248
  146MOL0     H20113   4.708   8.889   9.552  3.8517 -2.0237 -1.5902
  146MOL0     H20114   4.943   9.079   9.554 -0.3636 -0.0926  1.1650
  146MOL0     H20115   4.959   8.902   9.554  0.1285  1.6903  1.2928
  146MOL0     H20116   4.842   9.074   9.318  2.4948  1.7297  0.2057
  146MOL0     H20117   4.895   8.905   9.333  1.3552  0.3374  1.2643
  146MOL0     H20118   5.124   8.966   9.361 -0.8445 -1.8884 -1.4648
  146MOL0     H20119   5.070   9.142   9.382 -1.6656  0.3030 -0.1383
  146MOL0     H20120   5.066   8.968   9.136  2.2320  1.3942 -2.7498
  146MOL0     H20121   5.004   9.137   9.141  0.0444  2.9379  2.8827
  146MOL0     H20122   5.289   9.052   9.190 -2.1994 -1.0603  1.3620
  146MOL0     H20123   5.225   9.221   9.181  0.5954  0.1041  0.4532
  146MOL0     H20124   5.176   9.162   8.935 -0.5838  0.4745  0.8506
  146MOL0     H20125   5.236   9.002   8.954 -3.9966  0.1063  2.6292
  146MOL0     H20126   5.420   9.109   8.859  0.5731  0.0170  1.1525
  146MOL0     H20127   5.437   9.045   9.023 -3.3198 -2.0344  0.4238
  146MOL0     H20128   4.503   8.883   9.600 -0.5915  0.3749  4.1078
  146MOL0     H20129   4.267   8.900   9.601 -0.6014  2.2250  1.3979
  146MOL0     H20130   3.834   9.356   9.574 -0.7775  1.0565 -1.5863
  146MOL0     H20131   3.587   9.292   9.581 -0.4567 -0.6367  0.6899
  146MOL0     H20132   2.289   9.181   9.505 -1.4356 -1.7483 -0.2023
  146MOL0     H20133   2.042   9.166   9.425 -0.9732 -0.4834  0.9366
  146MOL0     H20134   1.719   9.185   9.416 -2.7619  0.0533  0.7782
  146MOL0     H20135   1.497   9.131   9.375  4.0414 -0.8404  2.3868
  146MOL0     H20136   1.264   9.187   9.366 -0.4052  0.3187 -0.1610
  146MOL0     H20137   1.141   9.182   9.253 -0.3755 -1.2108  0.2035
  146MOL0     H20138   1.172   8.964   9.303 -2.0838  3.5669 -1.5734
  146MOL0     H20139   1.354   8.977   9.289  2.1134  1.5806 -1.8834
  146MOL0     H20140   1.349   9.003   9.061 -0.8740 -1.3075 -2.6384
  146MOL0     H20141   1.269   8.858   9.111  3.3299  0.1380 -0.0739
  146MOL0     H20142   1.103   8.966   8.926 -2.1959  3.5174 -1.3852
  146MOL0     H20143   1.153   9.123   9.005  0.7337 -0.2807  0.5665
  146MOL0     H20144   0.799   8.992   9.206  0.2773  0.5748  0.4821
  146MOL0     H20145   1.466   9.410   9.051  0.9612 -2.5339 -2.5930
  146MOL0     H20146   1.660   9.495   8.952  2.7800 -2.0829 -2.0924
  146MOL0     H20147   1.706   9.586   9.107  1.2845 -0.0655  0.6329
  146MOL0     H20148   1.820   9.464   9.035 -0.7541 -4.8192  4.7804
  147MOL0     O20149   0.477   7.017  10.702 -0.5130  0.5469 -0.1293
  147MOL0     C20150   0.476   7.084  10.598 -0.7036 -0.5929  0.2025
  147MOL0     O20151   0.378   7.094  10.505  0.2197  0.4335 -0.0994
  147MOL0     C20152   0.258   7.026  10.526 -0.3676 -0.3051  0.8679
  147MOL0     C20153   0.250   6.892  10.487 -0.6944  0.0094  0.4263
  147MOL0     C20154   0.128   6.822  10.501  0.2812  0.5530 -0.4956
  147MOL0     C20155   0.005   6.886  10.542 -0.5252 -0.4501 -0.2439
  147MOL0     O20156  -0.110   6.819  10.556  0.4519 -0.6191 -0.9041
  147MOL0     C20157  -0.100   6.706  10.640 -0.4394 -0.3456 -1.0401
  147MOL0     C20158  -0.237   6.667  10.702  0.1614  0.1067 -1.0324
  147MOL0     C20159  -0.294   6.775  10.803 -0.2838  0.0933 -0.9707
  147MOL0     C20160  -0.390   6.891  10.747 -0.6903 -0.8908  0.1105
  147MOL0     C20161  -0.428   6.992  10.859  0.4347 -0.4202  0.5886
  147MOL0     C20162  -0.327   7.119  10.852  0.2190 -0.3237  0.5358
  147MOL0     C20163  -0.387   7.238  10.927 -0.9165  0.5390 -0.0782
  147MOL0     C20164  -0.281   7.353  10.941 -0.0626  0.5571  0.0483
  147MOL0     N20165  -0.261   7.422  10.817 -0.6647  1.2282  0.2778
  147MOL0     C20166  -0.306   7.543  10.783 -0.1585  0.6684  0.4084
  147MOL0     C20167  -0.237   7.581  10.674 -0.0982  0.3970 -0.0266
  147MOL0     C20168  -0.251   7.702  10.597  0.2094 -0.2873 -0.0451
  147MOL0     C20169  -0.374   7.710  10.509  0.5155  0.1867  0.2364
  147MOL0     C20170  -0.401   7.844  10.440 -0.4731 -0.0635 -0.2889
  147MOL0     C20171  -0.296   7.872  10.338 -0.3501 -0.3677 -0.1470
  147MOL0     O20172  -0.194   7.971  10.378  0.1083  0.4206 -0.1430
  147MOL0     C20173  -0.088   7.957  10.295  0.3005 -0.7873  0.4884
  147MOL0     C20174  -0.088   7.960  10.160  1.1063  0.5032 -0.0406
  147MOL0     C20175   0.030   7.936  10.088  0.0627  0.2438 -0.1555
  147MOL0     C20176   0.014   7.876   9.953  0.1863 -0.7563  0.3897
  147MOL0     C20177   0.162   7.948  10.147 -0.5512 -0.0460  0.5917
  147MOL0     C20178   0.294   7.919  10.085  0.1418  0.5468  0.6292
  147MOL0     O20179   0.402   7.946  10.168 -0.3426 -0.0013 -0.2510
  147MOL0     C20180   0.534   7.923  10.129  0.4460  0.4072 -0.3205
  147MOL0     C20181   0.569   7.808  10.042 -0.4063  0.1902  0.0925
  147MOL0     C20182   0.703   7.792  10.007 -0.6164  0.2773 -0.0681
  147MOL0     C20183   0.805   7.874  10.045 -0.2377  0.4775 -0.4324
  147MOL0     O20184   0.935   7.846  10.006  0.0729  0.1486 -0.0123
  147MOL0     C20185   1.033   7.938  10.034  0.7854 -0.2830  0.3118
  147MOL0     C20186   1.164   7.902   9.977  0.1572  0.8342  0.5107
  147MOL0     C20187   1.220   7.782  10.061 -0.2930 -0.0984  0.8204
  147MOL0     C20188   1.280   7.827  10.198 -0.4377 -0.4556 -0.8289
  147MOL0     C20189   1.359   7.706  10.262  0.1622 -0.3061 -0.3724
  147MOL0     C20190   1.428   7.741  10.393 -1.0939  0.5882  0.5198
  147MOL0     C20191   1.549   7.827  10.375  0.5167  0.6360  0.3793
  147MOL0     C20192   1.613   7.844  10.509 -0.7159 -0.4460 -0.4496
  147MOL0    Cl20193   1.704   7.686  10.531  0.0755 -0.1711  0.1171
  147MOL0     C20194   0.770   7.980  10.127  0.9241  0.2170  0.3085
  147MOL0     C20195   0.637   8.013  10.170  0.2836 -0.2727 -0.3901
  147MOL0     O20196   0.301   7.876   9.968 -0.5927 -0.4033  0.5284
  147MOL0     C20197   0.159   7.942  10.284 -0.5791  0.9031 -0.2092
  147MOL0     C20198   0.042   7.955  10.361  0.3538  1.2570 -0.1609
  147MOL0     N20199  -0.151   7.478  10.640 -0.1068 -0.1492 -0.1922
  147MOL0     N20200  -0.172   7.379  10.724 -0.4369  0.4100  0.1171
  147MOL0     C20201   0.018   7.024  10.575 -1.7892  0.7627 -0.3079
  147MOL0     C20202   0.145   7.090  10.572  0.2891 -0.0675  0.3839
  147MOL0     C20203   0.611   7.128  10.564 -0.8817 -0.3807  0.5334
  147MOL0     C20204   0.719   7.030  10.564 -0.5101 -0.6535 -0.1593
  147MOL0     C20205   0.849   7.058  10.525  0.4298 -0.5135 -0.2131
  147MOL0     C20206   0.888   7.181  10.513  0.2470 -1.2185 -0.2132
  147MOL0     O20207   1.024   7.190  10.494 -0.5779 -0.1906 -0.2268
  147MOL0     C20208   1.091   7.315  10.508 -0.3075  0.2190 -0.5901
  147MOL0     C20209   1.069   7.384  10.643 -0.4498  0.7502  0.5461
  147MOL0     C20210   1.147   7.518  10.650 -0.2735  0.8521  0.7529
  147MOL0     C20211   1.304   7.514  10.644 -0.6711 -0.0556 -0.4672
  147MOL0     C20212   1.351   7.454  10.765 -0.5421  0.2426  0.0161
  147MOL0     C20213   1.405   7.403  10.864  0.2688 -0.0665  0.7382
  147MOL0     C20214   0.793   7.286  10.507  0.1921  0.8512 -0.0940
  147MOL0     C20215   0.657   7.268  10.541  0.4749 -0.2523  0.1665
  147MOL0     C20216   0.557   7.388  10.561  0.6023 -0.0281  1.2247
  147MOL0     H20217   0.340   6.856  10.438  0.0348  0.9775  1.0054
  147MOL0     H20218   0.123   6.718  10.471  1.5490  0.5821 -0.8261
  147MOL0     H20219  -0.038   6.729  10.727 -2.5820 -0.1824  0.5272
  147MOL0     H20220  -0.061   6.619  10.586 -0.3815 -1.9878  1.4803
  147MOL0     H20221  -0.306   6.627  10.627 -0.0471 -0.1420 -0.7110
  147MOL0     H20222  -0.217   6.573  10.755 -3.5961 -0.1966  0.1043
  147MOL0     H20223  -0.335   6.726  10.892  0.0864  2.0702  0.3517
  147MOL0     H20224  -0.213   6.828  10.855  1.5783 -2.4938 -1.0324
  147MOL0     H20225  -0.340   6.938  10.661 -4.3760  0.8127 -1.3024
  147MOL0     H20226  -0.483   6.844  10.715 -1.5893  1.8048 -1.6707
  147MOL0     H20227  -0.415   6.946  10.957  0.7515 -1.9324 -0.1254
  147MOL0     H20228  -0.531   7.030  10.852  1.3041  2.6254  2.6354
  147MOL0     H20229  -0.227   7.086  10.883  0.3421  0.1116  0.6097
  147MOL0     H20230  -0.316   7.157  10.750 -2.6212 -2.0859 -0.5487
  147MOL0     H20231  -0.403   7.202  11.030  2.0701 -0.6739  0.0479
  147MOL0     H20232  -0.479   7.274  10.880 -1.5682  1.8121  2.0268
  147MOL0     H20233  -0.317   7.419  11.020 -0.0777  2.0051 -1.1198
  147MOL0     H20234  -0.181   7.314  10.961 -1.2998 -2.5528  0.8245
  147MOL0     H20235  -0.387   7.600  10.826  1.1871  0.9794  2.6781
  147MOL0     H20236  -0.157   7.714  10.541  0.4456 -1.4463  0.0844
  147MOL0     H20237  -0.243   7.774  10.679  0.2799 -2.1368  1.6091
  147MOL0     H20238  -0.349   7.637  10.432 -3.8444 -0.2450 -1.0636
  147MOL0     H20239  -0.454   7.675  10.575 -1.3469 -0.6778 -2.3132
  147MOL0     H20240  -0.499   7.849  10.390 -0.2450 -2.0110 -1.0401
  147MOL0     H20241  -0.398   7.927  10.511 -0.7567  0.7359 -1.1880
  147MOL0     H20242  -0.255   7.778  10.300  0.9686  0.5151 -1.0225
  147MOL0     H20243  -0.347   7.919  10.252  0.5565  0.4570 -0.2591
  147MOL0     H20244  -0.178   7.951  10.100  0.2311  1.9396  1.0063
  147MOL0     H20245   0.068   7.931   9.876 -0.2381 -0.0150  0.6200
  147MOL0     H20246  -0.088   7.853   9.922 -0.4515  0.5298  1.4408
  147MOL0     H20247   0.072   7.784   9.967  1.7438  0.4561  2.5407
  147MOL0     H20248   0.502   7.734  10.000  2.5717 -3.0755  0.6146
  147MOL0     H20249   0.743   7.706   9.955  1.1621  0.3512  1.0752
  147MOL0     H20250   1.005   8.035   9.991  0.0627 -0.0907  1.1665
  147MOL0     H20251   1.042   7.951  10.142  2.3629 -3.5219  0.7001
  147MOL0     H20252   1.158   7.864   9.875  1.1632 -1.2593  1.1541
  147MOL0     H20253   1.228   7.990   9.979 -2.1468  2.5974  0.0783
  147MOL0     H20254   1.296   7.732  10.000 -2.0536 -1.0913 -0.6616
  147MOL0     H20255   1.129   7.724  10.076 -2.2910  2.7712  0.5956
  147MOL0     H20256   1.202   7.863  10.265 -0.1889 -2.0428  0.3986
  147MOL0     H20257   1.356   7.903  10.178 -0.4372 -0.2715 -0.1382
  147MOL0     H20258   1.287   7.625  10.280  0.1805 -0.7084 -1.9763
  147MOL0     H20259   1.436   7.667  10.194 -0.4988 -0.5221 -1.0101
  147MOL0     H20260   1.461   7.645  10.433  0.6927 -0.8777 -3.9459
  147MOL0     H20261   1.353   7.785  10.459  0.2207  0.8310  1.9221
  147MOL0     H20262   1.521   7.925  10.336  3.3039  0.6676 -1.8217
  147MOL0     H20263   1.616   7.785  10.300  0.5914  0.1631  0.7074
  147MOL0     H20264   1.537   7.851  10.587  0.2561  1.8130  0.3856
  147MOL0     H20265   1.667   7.939  10.519 -3.9221  1.6112 -1.3349
  147MOL0     H20266   0.843   8.053  10.162  1.2553  1.0237 -1.8938
  147MOL0     H20267   0.600   8.096  10.230 -3.1074 -1.3025 -0.8334
  147MOL0     H20268   0.243   7.931  10.352 -1.8700  0.2190  1.3336
  147MOL0     H20269   0.034   7.937  10.468 -3.4795 -2.9976 -0.8231
  147MOL0     H20270  -0.069   7.089  10.582 -1.1143  1.7103 -0.3780
  147MOL0     H20271   0.155   7.195  10.600  3.6797  0.2289 -1.3685
  147MOL0     H20272   0.707   6.923  10.580  0.2055 -0.6745  0.2762
  147MOL0     H20273   0.921   6.979  10.506 -1.7429 -2.3361 -1.4502
  147MOL0     H20274   1.197   7.289  10.500 -0.6834 -1.2751 -0.8954
  147MOL0     H20275   1.076   7.373  10.416 -2.3309 -1.1564 -1.2059
  147MOL0     H20276   1.094   7.331  10.735 -1.0752  0.9358  0.8229
  147MOL0     H20277   0.964   7.414  10.645 -0.5913  0.9243 -2.7969
  147MOL0     H20278   1.111   7.577  10.565 -2.6005  2.6579  2.8336
  147MOL0     H20279   1.117   7.579  10.736 -1.5508 -0.0462  0.9835
  147MOL0     H20280   1.343   7.616  10.644  2.9085 -1.2639  1.5098
  147MOL0     H20281   1.330   7.461  10.551 -0.1212 -1.9428  0.7156
  147MOL0     H20282   1.466   7.373  10.947  0.4109  0.7937  0.9556
  147MOL0     H20283   0.823   7.385  10.476 -1.0855  1.3586  0.2311
  147MOL0     H20284   0.576   7.460  10.481 -0.1909  0.1109  1.1529
  147MOL0     H20285   0.458   7.349  10.537  0.9334  0.7221 -1.8392
  147MOL0     H20286   0.554   7.428  10.663 -0.1108 -0.8313  1.5307
  148MOL0     O20287   1.935   9.002   2.572 -0.2337  0.1216  0.6440
  148MOL0     C20288   2.007   9.083   2.510  0.2635  0.1769 -0.0543
  148MOL0     O20289   1.973   9.209   2.470 -0.3362 -0.1656 -0.0405
  148MOL0     C20290   1.845   9.241   2.484  0.0443  0.7207  0.0330
  148MOL0     C20291   1.781   9.324   2.577  0.1591  0.0426  0.1139
  148MOL0     C20292   1.648   9.328   2.590  0.6505  0.5462  0.9114
  148MOL0     C20293   1.566   9.272   2.491  0.7434 -0.3364  0.3553
  148MOL0     O20294   1.435   9.286   2.503  0.4258  0.0594  0.0468
  148MOL0     C20295   1.374   9.180   2.588 -0.7403 -0.0829 -0.0902
  148MOL0     C20296   1.348   9.234   2.728 -0.0321  0.5750  0.1716
  148MOL0     C20297   1.282   9.123   2.814 -1.2288  0.3443 -0.0854
  148MOL0     C20298   1.249   9.168   2.962  0.2516  0.5256  1.3443
  148MOL0     C20299   1.168   9.063   3.037 -0.6195 -0.6686  0.7206
  148MOL0     C20300   1.107   9.117   3.164 -0.0992 -0.5849  0.0531
  148MOL0     C20301   1.033   8.990   3.229 -0.3495 -0.4409  0.2948
  148MOL0     C20302   0.918   8.952   3.137  0.2285  0.5563  0.1480
  148MOL0     N20303   0.836   8.851   3.201 -0.2601  1.2757 -0.1013
  148MOL0     C20304   0.878   8.768   3.300  0.7993 -1.0061  0.6106
  148MOL0     C20305   0.795   8.663   3.292  0.5406 -0.8644 -0.0035
  148MOL0     C20306   0.792   8.546   3.381 -0.6932  0.4183 -0.4883
  148MOL0     C20307   0.657   8.514   3.443  0.5426  0.7946 -0.3045
  148MOL0     C20308   0.650   8.382   3.524 -0.9438 -0.5733  0.7293
  148MOL0     C20309   0.509   8.362   3.586 -0.0065  1.4802 -0.3342
  148MOL0     O20310   0.417   8.319   3.487 -0.0651 -0.7502  0.1834
  148MOL0     C20311   0.401   8.185   3.455  0.7504 -0.0050 -0.0500
  148MOL0     C20312   0.266   8.150   3.410 -0.8350  0.3715 -0.1271
  148MOL0     C20313   0.231   8.020   3.383 -0.6104  0.1900  0.0109
  148MOL0     C20314   0.087   7.986   3.358  0.8152 -0.8828 -0.2971
  148MOL0     C20315   0.337   7.916   3.394  0.6619  0.0859 -0.0090
  148MOL0     C20316   0.302   7.770   3.383  1.2127  0.2328  0.6975
  148MOL0     O20317   0.352   7.683   3.483 -0.4955 -0.2658  0.8474
  148MOL0     C20318   0.297   7.563   3.510 -0.2529 -0.3595 -0.1526
  148MOL0     C20319   0.290   7.457   3.416 -0.7136 -0.3473 -0.6065
  148MOL0     C20320   0.243   7.332   3.449 -0.0292  0.6123  0.6325
  148MOL0     C20321   0.199   7.313   3.587  0.4922  0.1842  0.6571
  148MOL0     O20322   0.153   7.191   3.631  0.3010  0.4736  0.4664
  148MOL0     C20323   0.135   7.089   3.541  0.8034 -0.1332  0.2348
  148MOL0     C20324   0.092   6.971   3.620  0.4169 -0.4356  0.1588
  148MOL0     C20325  -0.042   6.991   3.691 -0.4184  0.6138 -0.5553
  148MOL0     C20326  -0.152   6.879   3.686  1.3677  1.0145  0.1387
  148MOL0     C20327  -0.271   6.905   3.782 -0.0017  0.0320  0.6107
  148MOL0     C20328  -0.244   6.853   3.921  0.6609 -0.1812 -0.3935
  148MOL0     C20329  -0.227   6.699   3.938 -0.4920  0.9622 -0.7270
  148MOL0     C20330  -0.179   6.655   4.080  0.8374  0.1925  0.4195
  148MOL0    Cl20331  -0.013   6.712   4.115 -0.1491 -0.0887  0.3477
  148MOL0     C20332   0.206   7.413   3.682  0.2825 -0.5658 -0.3818
  148MOL0     C20333   0.252   7.536   3.645 -0.1016 -0.3071 -0.1056
  148MOL0     O20334   0.232   7.738   3.284 -0.2064  0.5670 -0.4658
  148MOL0     C20335   0.463   7.953   3.452 -0.5422 -0.8525 -0.2453
  148MOL0     C20336   0.491   8.083   3.478 -1.0894 -0.1814  0.3496
  148MOL0     N20337   0.702   8.691   3.195 -0.1841 -0.7083  0.3240
  148MOL0     N20338   0.734   8.795   3.131 -0.2842 -0.3244 -0.2974
  148MOL0     C20339   1.620   9.197   2.387 -0.8787 -0.2134 -0.6904
  148MOL0     C20340   1.762   9.180   2.389  0.1340 -0.7948 -0.3613
  148MOL0     C20341   2.128   9.025   2.447 -0.4284  0.0526 -0.9493
  148MOL0     C20342   2.159   9.050   2.311  0.6636 -0.6483  0.0909
  148MOL0     C20343   2.258   8.975   2.241  1.1101 -0.4267 -0.2953
  148MOL0     C20344   2.334   8.883   2.306  0.3954 -0.2068  0.4791
  148MOL0     O20345   2.443   8.813   2.266 -0.1786 -0.0509 -0.3724
  148MOL0     C20346   2.486   8.807   2.128  0.0221  1.3168 -1.1543
  148MOL0     C20347   2.558   8.681   2.091 -0.1480  0.4021 -0.0721
  148MOL0     C20348   2.597   8.676   1.946  0.1491  0.0675  0.1641
  148MOL0     C20349   2.655   8.538   1.914 -0.3747 -0.3478  1.2453
  148MOL0     C20350   2.787   8.499   1.962  0.5182  0.5779  0.4853
  148MOL0     C20351   2.895   8.474   2.010  0.1137 -0.5852  0.1739
  148MOL0     C20352   2.318   8.876   2.443  1.2106  0.7560  0.3315
  148MOL0     C20353   2.211   8.934   2.518  0.8086 -0.4334 -0.1750
  148MOL0     C20354   2.189   8.898   2.659 -0.5914  0.2926 -0.6484
  148MOL0     H20355   1.844   9.361   2.657 -1.6060 -1.5009  2.3540
  148MOL0     H20356   1.597   9.370   2.677 -1.5438 -0.1077  0.0187
  148MOL0     H20357   1.441   9.094   2.600 -2.4769 -1.2009  2.3407
  148MOL0     H20358   1.289   9.133   2.537  0.3736 -2.5352  0.1526
  148MOL0     H20359   1.439   9.270   2.777 -0.1517  0.3677  0.5492
  148MOL0     H20360   1.281   9.320   2.724  0.8268  1.2874  0.5845
  148MOL0     H20361   1.196   9.096   2.752  0.4535  1.2532 -3.0499
  148MOL0     H20362   1.343   9.032   2.815 -0.3281  0.9386  0.5876
  148MOL0     H20363   1.343   9.198   3.010  0.5238 -0.4764  1.4485
  148MOL0     H20364   1.192   9.262   2.954  2.7355  2.1854  1.8717
  148MOL0     H20365   1.240   8.983   3.059  3.8401  1.8211 -3.1052
  148MOL0     H20366   1.089   9.031   2.968 -0.7353  1.0880  0.0086
  148MOL0     H20367   1.170   9.174   3.233 -1.1107  1.0089 -0.2864
  148MOL0     H20368   1.039   9.194   3.128  1.1533 -0.4515 -2.2313
  148MOL0     H20369   0.994   9.023   3.326  0.4399 -0.2143  0.5410
  148MOL0     H20370   1.109   8.912   3.236  1.2695  0.8678 -1.6184
  148MOL0     H20371   0.861   9.042   3.112  0.2103  0.6582  0.5552
  148MOL0     H20372   0.953   8.901   3.047  2.3670  1.2186  0.5623
  148MOL0     H20373   0.960   8.785   3.368  1.1802 -1.1963  0.2021
  148MOL0     H20374   0.860   8.564   3.465 -1.2951  3.0346 -0.4798
  148MOL0     H20375   0.824   8.466   3.313 -3.4468 -0.3273 -0.9986
  148MOL0     H20376   0.631   8.607   3.494 -3.0824 -0.6524  0.7764
  148MOL0     H20377   0.581   8.510   3.365 -1.0492  3.1248  1.0151
  148MOL0     H20378   0.690   8.300   3.464 -0.7059 -2.0616  2.8249
  148MOL0     H20379   0.719   8.392   3.608  0.4287  0.2686 -0.4582
  148MOL0     H20380   0.513   8.287   3.665 -3.9331 -1.5702 -2.6661
  148MOL0     H20381   0.471   8.457   3.626 -0.3772  1.0395  0.3869
  148MOL0     H20382   0.195   8.233   3.408  2.0053  3.1218  2.1779
  148MOL0     H20383   0.058   7.908   3.429  1.1724  1.4293  2.5835
  148MOL0     H20384   0.080   7.940   3.259  0.6432  0.2736 -0.8388
  148MOL0     H20385   0.027   8.077   3.369  0.1810 -1.3532  0.2219
  148MOL0     H20386   0.351   7.466   3.327 -0.1400 -0.0476 -0.1891
  148MOL0     H20387   0.238   7.264   3.364 -0.7472  3.3113 -1.6359
  148MOL0     H20388   0.066   7.127   3.465  0.3739 -0.9569  0.1963
  148MOL0     H20389   0.223   7.065   3.481  0.7258  1.9430 -0.7909
  148MOL0     H20390   0.082   6.886   3.553  0.2915 -0.8323  0.6747
  148MOL0     H20391   0.177   6.956   3.688  0.7059 -0.0200 -0.1045
  148MOL0     H20392  -0.085   7.085   3.652  0.1665  0.8604 -0.6079
  148MOL0     H20393  -0.036   7.006   3.799  0.1140  1.4766 -0.6901
  148MOL0     H20394  -0.103   6.782   3.702  2.0796  1.2321 -0.6583
  148MOL0     H20395  -0.190   6.876   3.583 -0.0244  0.7518  0.6405
  148MOL0     H20396  -0.306   7.008   3.781  0.0594  0.0551 -0.9198
  148MOL0     H20397  -0.349   6.838   3.745  1.1568 -1.2173  0.3205
  148MOL0     H20398  -0.336   6.880   3.974  0.1471  0.7205 -1.6928
  148MOL0     H20399  -0.164   6.908   3.971  0.8112  1.2297 -2.1297
  148MOL0     H20400  -0.152   6.651   3.874  1.1495  1.8005  0.4764
  148MOL0     H20401  -0.322   6.648   3.922  0.1130 -0.9624  1.2375
  148MOL0     H20402  -0.190   6.547   4.078 -1.7410  0.3852 -1.1868
  148MOL0     H20403  -0.239   6.712   4.152  0.9764  3.7508 -2.0195
  148MOL0     H20404   0.175   7.391   3.783  2.2043  0.4738  0.4795
  148MOL0     H20405   0.270   7.606   3.726  1.2994 -0.2935 -0.3984
  148MOL0     H20406   0.541   7.879   3.465  0.4016 -0.2173 -1.9034
  148MOL0     H20407   0.588   8.115   3.514 -0.8974  1.0517 -1.1143
  148MOL0     H20408   1.563   9.146   2.310  0.4015  0.1214 -1.9143
  148MOL0     H20409   1.796   9.113   2.311  0.0442 -0.3225 -0.8079
  148MOL0     H20410   2.091   9.116   2.258 -0.8769 -0.7377  1.8199
  148MOL0     H20411   2.258   8.997   2.135 -1.3110 -2.0444 -0.7109
  148MOL0     H20412   2.401   8.808   2.059 -1.9720 -0.7759  1.0872
  148MOL0     H20413   2.551   8.891   2.104 -0.9141  1.9249 -1.5997
  148MOL0     H20414   2.495   8.592   2.105  1.2464 -0.6391 -0.1932
  148MOL0     H20415   2.646   8.676   2.155 -1.4688  0.8838  1.8821
  148MOL0     H20416   2.514   8.694   1.877 -0.3858 -2.6358 -0.0265
  148MOL0     H20417   2.678   8.748   1.931  2.0486 -1.5976  1.8177
  148MOL0     H20418   2.672   8.550   1.807 -2.1892  3.7097  1.2358
  148MOL0     H20419   2.583   8.458   1.939  1.3803 -1.9991  1.2549
  148MOL0     H20420   2.990   8.449   2.053 -0.6934 -2.4234  0.9958
  148MOL0     H20421   2.387   8.809   2.492 -1.0179  0.7180  3.7615
  148MOL0     H20422   2.107   8.830   2.682  2.4544 -3.3151  0.4285
  148MOL0     H20423   2.281   8.862   2.706 -0.5853  2.1059  0.8558
  148MOL0     H20424   2.186   8.994   2.712 -0.2195  0.3185 -0.6727
  149MOL0     O20425   8.415   6.157   3.691  0.6184 -0.0483  0.4731
  149MOL0     C20426   8.512   6.176   3.620  0.1901 -0.7079  0.3476
  149MOL0     O20427   8.636   6.180   3.664 -0.0730  0.3007 -0.5509
  149MOL0     C20428   8.661   6.201   3.794  0.3270 -0.1718 -0.2586
  149MOL0     C20429   8.710   6.093   3.876  0.1932 -1.5211  0.2281
  149MOL0     C20430   8.704   6.106   4.016 -0.2462 -0.7615  0.2657
  149MOL0     C20431   8.689   6.229   4.076 -0.4926  0.3587  0.6477
  149MOL0     O20432   8.689   6.236   4.212  0.9829  0.6470  0.1439
  149MOL0     C20433   8.699   6.361   4.284 -0.0111  0.0577  0.1023
  149MOL0     C20434   8.682   6.352   4.435 -0.1009  0.0012 -0.1785
  149MOL0     C20435   8.540   6.293   4.459 -0.3211 -0.0806 -0.8030
  149MOL0     C20436   8.487   6.332   4.601 -0.4916 -0.5813  0.3569
  149MOL0     C20437   8.560   6.284   4.721 -0.6296  0.8978  0.0301
  149MOL0     C20438   8.499   6.354   4.851 -1.2131  0.4566 -0.8387
  149MOL0     C20439   8.566   6.305   4.981 -0.0796  0.7628  0.2246
  149MOL0     C20440   8.504   6.357   5.114 -0.9133 -0.1924 -0.0517
  149MOL0     N20441   8.357   6.356   5.118 -1.0792 -0.2204 -0.1242
  149MOL0     C20442   8.267   6.254   5.127 -0.6135  0.0009  0.4448
  149MOL0     C20443   8.141   6.304   5.116 -0.4550  1.0549  0.2526
  149MOL0     C20444   8.006   6.226   5.115 -0.4306 -1.2712 -0.3494
  149MOL0     C20445   7.959   6.214   4.972 -0.4817  0.0878 -1.1061
  149MOL0     C20446   7.852   6.110   4.973  0.3053  0.3616 -0.4855
  149MOL0     C20447   7.910   5.971   4.944  0.0865  1.0197 -0.1712
  149MOL0     O20448   7.823   5.873   4.874  0.4570  0.2922 -0.0946
  149MOL0     C20449   7.722   5.804   4.939  0.0562 -0.6158  0.3783
  149MOL0     C20450   7.644   5.730   4.852 -0.2275  0.2255  0.2384
  149MOL0     C20451   7.544   5.642   4.890  0.3859  0.2234 -0.4267
  149MOL0     C20452   7.466   5.561   4.779  0.0252 -1.2544  0.0946
  149MOL0     C20453   7.513   5.643   5.022  0.5709 -0.7311 -0.5168
  149MOL0     C20454   7.416   5.546   5.075 -0.5905  0.7297  0.9001
  149MOL0     O20455   7.464   5.433   5.142 -0.3490 -0.1951  0.3437
  149MOL0     C20456   7.374   5.340   5.181 -0.2779  0.3749  0.3684
  149MOL0     C20457   7.278   5.298   5.099  0.2875  0.3378  0.3067
  149MOL0     C20458   7.193   5.194   5.141  0.3764 -0.0254 -0.8302
  149MOL0     C20459   7.210   5.124   5.260 -0.3913  0.0975  0.3023
  149MOL0     O20460   7.125   5.016   5.283 -0.5940  0.4914  0.7826
  149MOL0     C20461   7.169   4.881   5.252  1.1196 -0.2262 -1.0776
  149MOL0     C20462   7.082   4.823   5.145 -0.1108  0.2125  0.4346
  149MOL0     C20463   7.137   4.692   5.095  0.3629 -0.1142 -0.2838
  149MOL0     C20464   7.037   4.640   4.998  0.3721  0.4904  0.0269
  149MOL0     C20465   7.082   4.511   4.928 -0.1523  1.1557  0.4780
  149MOL0     C20466   6.983   4.485   4.812 -1.1230 -0.3938 -0.1647
  149MOL0     C20467   7.017   4.352   4.746  0.4888  0.1569  0.5325
  149MOL0     C20468   6.905   4.302   4.649 -0.4369  0.9294 -0.8820
  149MOL0    Cl20469   6.854   4.419   4.512  0.1328 -0.0347 -0.2404
  149MOL0     C20470   7.314   5.168   5.344  0.6106  0.7627  0.5398
  149MOL0     C20471   7.385   5.280   5.301 -0.3802  0.5507  0.7520
  149MOL0     O20472   7.296   5.572   5.058  0.2428  0.2624 -0.8102
  149MOL0     C20473   7.580   5.732   5.114 -0.0036 -0.2157  0.0071
  149MOL0     C20474   7.688   5.810   5.071  0.5545 -0.9954 -0.1040
  149MOL0     N20475   8.164   6.438   5.101  0.4080 -0.0943  0.6540
  149MOL0     N20476   8.285   6.467   5.114 -0.7199 -0.7855  0.3894
  149MOL0     C20477   8.679   6.342   3.995  0.1646 -0.0729  0.2888
  149MOL0     C20478   8.652   6.327   3.853 -0.0082  0.1635 -0.5736
  149MOL0     C20479   8.501   6.162   3.474 -0.2076  0.4204  0.2043
  149MOL0     C20480   8.551   6.268   3.400 -0.5545 -0.9807 -0.0186
  149MOL0     C20481   8.545   6.265   3.263  0.3420  0.2613  0.0581
  149MOL0     C20482   8.502   6.156   3.193 -0.4684  0.6666  0.0655
  149MOL0     O20483   8.499   6.160   3.056  0.2516 -0.3028  0.4943
  149MOL0     C20484   8.386   6.147   2.984 -0.2032 -0.3166  0.3947
  149MOL0     C20485   8.342   6.283   2.922  0.3042 -0.0579 -0.4951
  149MOL0     C20486   8.444   6.353   2.839 -0.4765  0.2919  0.6912
  149MOL0     C20487   8.369   6.462   2.764  0.3079  0.0485  0.0081
  149MOL0     C20488   8.452   6.568   2.719 -0.3345 -0.1532 -0.4263
  149MOL0     C20489   8.511   6.669   2.703  0.6024  0.0955  0.2737
  149MOL0     C20490   8.438   6.054   3.264  0.4059 -0.4569 -0.8565
  149MOL0     C20491   8.443   6.056   3.409  0.7343 -0.6619  1.4723
  149MOL0     C20492   8.368   5.947   3.478 -1.2388  0.3860 -0.4517
  149MOL0     H20493   8.723   5.992   3.840  0.3480 -1.6070  0.5298
  149MOL0     H20494   8.720   6.017   4.076  1.6680 -0.6736 -0.0659
  149MOL0     H20495   8.618   6.420   4.240 -0.9266 -1.2288 -0.0173
  149MOL0     H20496   8.797   6.399   4.253  0.4935 -2.1744 -1.3578
  149MOL0     H20497   8.755   6.294   4.492  3.1272  3.7089 -0.1296
  149MOL0     H20498   8.696   6.450   4.481  2.1525 -1.5632  2.8558
  149MOL0     H20499   8.466   6.319   4.383 -1.7992 -0.9455  0.2941
  149MOL0     H20500   8.558   6.186   4.469 -0.5562  0.0262  1.4789
  149MOL0     H20501   8.503   6.440   4.611  1.5312 -0.8680  0.7273
  149MOL0     H20502   8.383   6.301   4.611 -1.1708  1.5237  0.5033
  149MOL0     H20503   8.666   6.308   4.722 -0.1067 -0.7236 -3.3514
  149MOL0     H20504   8.551   6.175   4.722  0.7549  0.7615  1.3170
  149MOL0     H20505   8.509   6.463   4.845  1.0085  0.4107  0.6940
  149MOL0     H20506   8.391   6.338   4.864 -1.4012  2.8404  1.4733
  149MOL0     H20507   8.674   6.319   4.971  0.4285 -2.2933  0.5396
  149MOL0     H20508   8.552   6.197   4.990  3.5387  0.2517  1.5459
  149MOL0     H20509   8.537   6.289   5.193  0.8056  1.1824  0.4872
  149MOL0     H20510   8.557   6.451   5.133  1.3072 -2.0733  4.6235
  149MOL0     H20511   8.290   6.148   5.121 -1.8479 -0.2614 -0.0185
  149MOL0     H20512   7.941   6.288   5.176 -0.2247 -0.7060 -0.6904
  149MOL0     H20513   8.025   6.129   5.163 -1.2701 -1.2776 -0.0224
  149MOL0     H20514   7.923   6.305   4.923  1.1471  0.7557 -1.1406
  149MOL0     H20515   8.043   6.192   4.905  1.3484  2.5114  0.2118
  149MOL0     H20516   7.786   6.115   5.060 -0.2291  1.1234 -0.9235
  149MOL0     H20517   7.780   6.133   4.893 -1.4192 -1.1320  0.5608
  149MOL0     H20518   7.987   5.978   4.866  1.4600 -0.9749  0.9148
  149MOL0     H20519   7.963   5.931   5.032  1.2130  1.6679 -0.5346
  149MOL0     H20520   7.665   5.744   4.747  2.3367  0.5442  0.7404
  149MOL0     H20521   7.478   5.617   4.686 -0.3914 -1.5940 -0.1671
  149MOL0     H20522   7.362   5.555   4.813 -0.0917  0.0574  0.0127
  149MOL0     H20523   7.515   5.465   4.760  2.2608  0.4196 -3.8174
  149MOL0     H20524   7.263   5.332   4.997  2.5736 -0.2254 -0.2680
  149MOL0     H20525   7.113   5.153   5.081  1.8786 -2.5999 -1.2230
  149MOL0     H20526   7.276   4.886   5.229  0.4994 -0.7702 -4.6695
  149MOL0     H20527   7.175   4.822   5.344 -0.2921 -1.0658 -1.4967
  149MOL0     H20528   6.977   4.816   5.173 -1.2540 -0.7125 -3.5095
  149MOL0     H20529   7.073   4.887   5.057  0.0927 -1.3672 -0.7761
  149MOL0     H20530   7.144   4.622   5.178  3.2911 -1.3035 -1.3915
  149MOL0     H20531   7.238   4.691   5.053  0.8924 -1.9317  0.9449
  149MOL0     H20532   7.003   4.712   4.923 -3.5528 -1.6477 -0.4983
  149MOL0     H20533   6.939   4.628   5.047  0.0959 -0.9827 -0.8425
  149MOL0     H20534   7.184   4.523   4.890  0.5017 -0.0583  1.7825
  149MOL0     H20535   7.084   4.428   4.999  0.1231 -1.2337 -2.1397
  149MOL0     H20536   6.995   4.558   4.732 -0.0016 -1.1088 -0.6618
  149MOL0     H20537   6.884   4.498   4.856 -1.0689  3.5609 -0.8168
  149MOL0     H20538   7.033   4.274   4.821  1.2559  1.4293  1.7398
  149MOL0     H20539   7.107   4.355   4.685  1.7819 -1.7557  2.1710
  149MOL0     H20540   6.809   4.293   4.701 -1.3636  0.9913 -2.4981
  149MOL0     H20541   6.932   4.209   4.599  0.7294  0.4767  0.5177
  149MOL0     H20542   7.330   5.115   5.438  0.8251 -1.7839 -0.8356
  149MOL0     H20543   7.472   5.302   5.362  1.5747 -2.4322 -0.6800
  149MOL0     H20544   7.552   5.720   5.218  2.1861 -0.3926  0.6286
  149MOL0     H20545   7.729   5.875   5.147 -0.7958 -1.5605  1.1667
  149MOL0     H20546   8.667   6.444   4.032 -0.7108 -0.6723  1.7403
  149MOL0     H20547   8.622   6.416   3.798  0.6768  0.3808 -0.6108
  149MOL0     H20548   8.597   6.354   3.448 -1.0188 -0.9049  0.2992
  149MOL0     H20549   8.596   6.349   3.217 -2.2353  1.9075  0.0121
  149MOL0     H20550   8.412   6.080   2.901  2.4129  2.0398 -0.8319
  149MOL0     H20551   8.306   6.094   3.037  1.1947 -3.0242  0.0255
  149MOL0     H20552   8.326   6.335   3.017 -1.9404  0.6500 -1.1812
  149MOL0     H20553   8.243   6.282   2.874 -0.1442  0.1715  0.3996
  149MOL0     H20554   8.522   6.403   2.897  1.2046  0.2718 -1.4322
  149MOL0     H20555   8.495   6.288   2.768 -0.5680  2.9049 -1.9673
  149MOL0     H20556   8.305   6.507   2.840  1.3221 -3.8126  3.5318
  149MOL0     H20557   8.319   6.415   2.678 -0.3583  0.3445  0.2301
  149MOL0     H20558   8.558   6.761   2.673  1.3993 -0.3459  0.1554
  149MOL0     H20559   8.396   5.971   3.208  2.5345 -0.9586 -1.7943
  149MOL0     H20560   8.427   5.869   3.527 -1.0441 -2.2560 -4.4235
  149MOL0     H20561   8.300   5.993   3.551  1.0719  0.9346  1.4784
  149MOL0     H20562   8.317   5.886   3.402  1.6191 -2.2982 -0.4269
  150MOL0     O20563   5.538   6.572   7.771  0.8226 -0.0904 -0.0890
  150MOL0     C20564   5.439   6.648   7.764 -0.3800  0.0024 -0.0553
  150MOL0     O20565   5.439   6.779   7.805  0.3824  0.6006 -0.1297
  150MOL0     C20566   5.563   6.831   7.840  0.7500  1.1888  0.6391
  150MOL0     C20567   5.567   6.918   7.947  0.5621  0.3524 -0.8421
  150MOL0     C20568   5.685   6.971   7.996  0.1360 -0.2927  0.6807
  150MOL0     C20569   5.803   6.937   7.938  0.3423  0.2101 -0.4312
  150MOL0     O20570   5.914   6.988   8.005  0.3905 -0.6708 -0.1387
  150MOL0     C20571   6.034   6.966   7.922 -0.0194  0.3281  0.1253
  150MOL0     C20572   6.176   6.982   7.989  0.1731 -0.1683 -0.3418
  150MOL0     C20573   6.228   7.129   8.011  0.0411  0.0865  0.6812
  150MOL0     C20574   6.361   7.144   8.076  0.7279  0.1141  0.2651
  150MOL0     C20575   6.410   7.287   8.057  0.2536 -0.7490 -0.5077
  150MOL0     C20576   6.525   7.326   8.143 -0.2383  1.0033 -0.2229
  150MOL0     C20577   6.597   7.447   8.097 -0.2175  0.0991 -0.4990
  150MOL0     C20578   6.528   7.563   8.169  0.2180 -0.3573  0.3274
  150MOL0     N20579   6.560   7.692   8.112 -0.0164  0.1989 -0.2553
  150MOL0     C20580   6.689   7.729   8.106 -0.9575  0.3535  0.2927
  150MOL0     C20581   6.664   7.862   8.078  0.7528 -0.3288  0.0681
  150MOL0     C20582   6.755   7.988   8.068  0.5611 -0.3722 -0.0422
  150MOL0     C20583   6.802   8.015   8.213  0.0420  0.8911 -0.1122
  150MOL0     C20584   6.946   7.958   8.237 -0.7189  0.3346 -0.1298
  150MOL0     C20585   6.982   8.003   8.381  0.1798 -0.0164 -0.1844
  150MOL0     O20586   6.896   7.946   8.484  1.1193  0.3284 -0.0423
  150MOL0     C20587   6.857   7.806   8.480 -0.2232 -0.4749 -0.3233
  150MOL0     C20588   6.942   7.703   8.444 -0.0883 -0.2516  0.2556
  150MOL0     C20589   6.901   7.562   8.440 -0.2033 -0.2505 -0.0598
  150MOL0     C20590   6.998   7.452   8.418 -0.7197  0.0973  0.5160
  150MOL0     C20591   6.770   7.533   8.485 -0.2789 -0.3124 -1.0888
  150MOL0     C20592   6.715   7.401   8.484  0.4123  0.2381  0.8491
  150MOL0     O20593   6.805   7.291   8.508  0.3706  0.1312  0.4224
  150MOL0     C20594   6.760   7.163   8.491  0.3096  0.5794 -0.2665
  150MOL0     C20595   6.680   7.114   8.388  0.6017  0.1941  0.1299
  150MOL0     C20596   6.640   6.984   8.387  0.9798  0.5825  0.9130
  150MOL0     C20597   6.679   6.893   8.490  0.0746 -0.4468  0.6021
  150MOL0     O20598   6.634   6.756   8.494 -0.4451 -0.2099 -0.0456
  150MOL0     C20599   6.566   6.701   8.378 -1.1688  0.2223  0.5926
  150MOL0     C20600   6.417   6.709   8.374  0.0055  0.5374 -0.6137
  150MOL0     C20601   6.361   6.646   8.251 -0.3738  0.1630 -0.1729
  150MOL0     C20602   6.215   6.653   8.266 -0.7405 -0.8930  0.0477
  150MOL0     C20603   6.140   6.593   8.147  0.9531 -0.0405 -0.4901
  150MOL0     C20604   5.990   6.594   8.180  0.2204 -0.4584 -0.3444
  150MOL0     C20605   5.911   6.559   8.051  0.1359 -0.3593 -0.3592
  150MOL0     C20606   5.761   6.562   8.070 -0.4133 -0.2833 -0.5999
  150MOL0    Cl20607   5.722   6.395   8.119 -0.4818  0.1459 -0.2483
  150MOL0     C20608   6.764   6.941   8.582 -1.3251 -0.1629 -0.5530
  150MOL0     C20609   6.812   7.072   8.579  0.0069  0.6698  0.4261
  150MOL0     O20610   6.593   7.388   8.460  0.0830  0.4373  0.3640
  150MOL0     C20611   6.684   7.641   8.504  0.0978 -1.2150 -0.3065
  150MOL0     C20612   6.722   7.778   8.510  0.1537  0.8593  0.4314
  150MOL0     N20613   6.528   7.884   8.068  0.2527  0.5418 -0.0380
  150MOL0     N20614   6.467   7.780   8.072  0.0604  0.8861 -0.1157
  150MOL0     C20615   5.797   6.862   7.826 -0.1262  0.6124  0.1244
  150MOL0     C20616   5.680   6.808   7.777  0.1777 -0.0432 -0.1207
  150MOL0     C20617   5.327   6.597   7.688 -0.6306  0.3933  0.0804
  150MOL0     C20618   5.199   6.590   7.757 -0.8660  1.0084 -0.3244
  150MOL0     C20619   5.098   6.520   7.691 -0.5394 -1.4164 -0.5505
  150MOL0     C20620   5.118   6.473   7.564 -0.0437 -0.4725  0.0677
  150MOL0     O20621   5.021   6.422   7.484  0.3880  0.0409 -0.5974
  150MOL0     C20622   4.885   6.444   7.515  0.2074 -0.1227  1.1365
  150MOL0     C20623   4.835   6.552   7.414 -0.2447 -0.3031  0.3810
  150MOL0     C20624   4.840   6.703   7.458  0.0128  0.0929 -1.2698
  150MOL0     C20625   4.780   6.737   7.601  0.4854  0.8780 -0.4534
  150MOL0     C20626   4.775   6.876   7.633  0.1799 -0.9495 -0.1771
  150MOL0     C20627   4.780   6.996   7.653 -0.1026 -1.1049 -0.2612
  150MOL0     C20628   5.231   6.498   7.489  0.0365 -0.8618 -1.0057
  150MOL0     C20629   5.342   6.551   7.552 -0.9882  0.7132  0.5535
  150MOL0     C20630   5.474   6.583   7.480  0.7483  0.0443 -0.0725
  150MOL0     H20631   5.481   6.944   8.008  2.4920  2.7092  1.1053
  150MOL0     H20632   5.694   7.027   8.088  2.6439  1.2467 -0.3792
  150MOL0     H20633   6.036   7.025   7.829  2.4358 -1.0987 -0.8208
  150MOL0     H20634   6.036   6.862   7.888 -4.4825  0.1782 -0.3188
  150MOL0     H20635   6.167   6.944   8.091 -1.9758  5.0924  1.7997
  150MOL0     H20636   6.250   6.931   7.927 -0.5598  0.4005 -1.7216
  150MOL0     H20637   6.232   7.165   7.907 -2.8723  0.0921  0.5074
  150MOL0     H20638   6.149   7.180   8.065  1.9430  0.4843  3.2455
  150MOL0     H20639   6.346   7.133   8.184 -1.7590  0.7690  0.0512
  150MOL0     H20640   6.435   7.072   8.040 -0.1573 -1.1335  0.8471
  150MOL0     H20641   6.324   7.352   8.075 -0.7230 -2.2808  0.5250
  150MOL0     H20642   6.435   7.300   7.952  1.4702 -1.6618 -0.3479
  150MOL0     H20643   6.495   7.322   8.248  2.5333 -3.0225  0.6537
  150MOL0     H20644   6.600   7.247   8.130 -0.0900  0.8795  1.1939
  150MOL0     H20645   6.603   7.471   7.991 -1.9392  0.0053 -0.6425
  150MOL0     H20646   6.698   7.428   8.135 -0.9724 -1.0501  1.0369
  150MOL0     H20647   6.420   7.565   8.156  0.2408  1.2846  0.2134
  150MOL0     H20648   6.555   7.557   8.275  0.8518  2.1543  0.3651
  150MOL0     H20649   6.782   7.674   8.117  0.1318  2.2625  1.0607
  150MOL0     H20650   6.688   8.068   8.037 -1.1742 -1.8155 -0.1851
  150MOL0     H20651   6.839   7.973   8.000  0.7057  0.7130 -0.1202
  150MOL0     H20652   6.794   8.123   8.231  0.1669  0.8007  0.5170
  150MOL0     H20653   6.734   7.965   8.283  0.0764 -1.5329 -1.6938
  150MOL0     H20654   6.925   7.851   8.234 -0.7010  0.3296 -0.0814
  150MOL0     H20655   7.015   7.988   8.157 -0.8336  0.3414 -0.2245
  150MOL0     H20656   7.078   7.955   8.405  2.3751  4.3358  0.8569
  150MOL0     H20657   6.988   8.112   8.384 -1.2095  0.1977 -2.7320
  150MOL0     H20658   7.045   7.731   8.422  0.0047 -0.3645  0.5331
  150MOL0     H20659   7.088   7.495   8.373 -1.1260  1.3350  0.8627
  150MOL0     H20660   6.960   7.381   8.344  0.3128  2.1045 -2.1039
  150MOL0     H20661   7.031   7.394   8.505  1.1565 -2.4998 -1.7342
  150MOL0     H20662   6.664   7.183   8.306 -0.5967  0.4839  0.5859
  150MOL0     H20663   6.583   6.952   8.300  2.5640 -1.6859  0.6278
  150MOL0     H20664   6.608   6.750   8.290 -1.3912 -0.2080  0.2421
  150MOL0     H20665   6.599   6.597   8.373  0.8859  0.8839 -1.7751
  150MOL0     H20666   6.385   6.656   8.464 -0.9591 -1.3889 -2.0240
  150MOL0     H20667   6.394   6.816   8.369  0.9027  0.8619  1.0707
  150MOL0     H20668   6.398   6.543   8.245 -1.8160 -0.2966 -2.6572
  150MOL0     H20669   6.389   6.701   8.161  1.6728  0.7063  0.7455
  150MOL0     H20670   6.188   6.758   8.281 -0.6930 -0.7026 -1.1525
  150MOL0     H20671   6.185   6.605   8.360 -2.3742 -2.6318 -1.2993
  150MOL0     H20672   6.167   6.633   8.049  1.6732 -2.4589 -1.3460
  150MOL0     H20673   6.170   6.488   8.145  0.4811 -0.2772  1.6591
  150MOL0     H20674   5.960   6.692   8.218  1.5087 -1.1539  2.7132
  150MOL0     H20675   5.973   6.512   8.250  2.0456 -0.4048  0.2057
  150MOL0     H20676   5.934   6.459   8.013 -0.9288 -0.5175 -0.6036
  150MOL0     H20677   5.939   6.625   7.968 -2.1513 -1.7391 -2.3326
  150MOL0     H20678   5.713   6.590   7.976  2.6564 -2.6789 -3.0824
  150MOL0     H20679   5.736   6.634   8.149  1.2139  0.4851 -0.7391
  150MOL0     H20680   6.804   6.880   8.663  0.8866 -0.0650 -1.5071
  150MOL0     H20681   6.886   7.108   8.650  0.6141 -2.3840  1.4654
  150MOL0     H20682   6.577   7.624   8.512 -0.0069 -1.2378 -1.5509
  150MOL0     H20683   6.661   7.864   8.536  0.5390  2.0380 -2.1669
  150MOL0     H20684   5.889   6.838   7.774 -0.7015 -2.0417  0.1723
  150MOL0     H20685   5.683   6.749   7.686 -0.6776 -1.1302  0.5276
  150MOL0     H20686   5.193   6.629   7.858 -0.4634  1.0643 -0.3205
  150MOL0     H20687   5.011   6.506   7.754 -0.4316  0.3433  0.0589
  150MOL0     H20688   4.829   6.353   7.495 -0.8954  1.3535 -3.8484
  150MOL0     H20689   4.859   6.473   7.618 -0.9508 -0.8357  1.0572
  150MOL0     H20690   4.727   6.540   7.405 -0.1646  0.2793 -2.2893
  150MOL0     H20691   4.886   6.545   7.317 -0.8869 -0.1156  0.0314
  150MOL0     H20692   4.946   6.731   7.462  0.1962 -0.5484  2.3703
  150MOL0     H20693   4.794   6.767   7.383 -0.5654  1.2217 -0.0058
  150MOL0     H20694   4.836   6.684   7.678 -0.0829 -2.5078 -2.1952
  150MOL0     H20695   4.679   6.694   7.598  0.6120  0.2006  2.5938
  150MOL0     H20696   4.771   7.099   7.680  0.5111 -1.1271  0.0553
  150MOL0     H20697   5.232   6.468   7.385  0.3850 -4.6342 -0.0670
  150MOL0     H20698   5.557   6.524   7.519  0.9609  1.4135  1.6560
  150MOL0     H20699   5.465   6.573   7.371 -2.1570  0.6929  0.0222
  150MOL0     H20700   5.504   6.688   7.489  2.1355 -0.1813 -1.5886
  151MOL0     O20701   8.724  10.787   9.256 -0.0400  0.6598 -0.7421
  151MOL0     C20702   8.718  10.885   9.192  0.8013 -0.0509  0.3132
  151MOL0     O20703   8.754  11.005   9.225  0.5581  0.2356 -0.0086
  151MOL0     C20704   8.783  11.042   9.358 -0.2171 -0.0232 -0.3799
  151MOL0     C20705   8.682  11.058   9.453  0.3124  0.0264 -1.5802
  151MOL0     C20706   8.711  11.117   9.584  0.7054  0.0867  0.0247
  151MOL0     C20707   8.837  11.164   9.617  1.5340 -0.2558 -0.0813
  151MOL0     O20708   8.824  11.234   9.735 -0.5568 -0.9901  0.5383
  151MOL0     C20709   8.898  11.356   9.743 -0.2816 -1.2250  0.5979
  151MOL0     C20710   9.021  11.362   9.819 -0.1137 -0.2607 -0.4792
  151MOL0     C20711   8.988  11.446   9.948 -0.0566  0.5287 -0.0348
  151MOL0     C20712   9.120  11.477  10.015 -0.9470  0.1188 -1.3848
  151MOL0     C20713   9.095  11.531  10.157  0.8748 -0.1773 -1.6690
  151MOL0     C20714   9.219  11.550  10.243  1.3978 -1.2524  0.9230
  151MOL0     C20715   9.257  11.417  10.312  0.1709 -0.6382  0.0887
  151MOL0     C20716   9.375  11.431  10.400 -0.4010 -0.9492 -0.1138
  151MOL0     N20717   9.422  11.297  10.434  0.0545  0.0296  0.2496
  151MOL0     C20718   9.360  11.210  10.514  0.3273 -0.2366 -0.4318
  151MOL0     C20719   9.439  11.095  10.505 -0.5597  0.1995  0.0726
  151MOL0     C20720   9.396  10.954  10.550 -0.2822  0.1256 -0.6238
  151MOL0     C20721   9.299  10.894  10.439  0.5622 -1.1546 -0.0307
  151MOL0     C20722   9.276  10.747  10.443 -0.0435 -0.0937 -0.1658
  151MOL0     C20723   9.145  10.706  10.364 -0.2653  0.0489 -0.0807
  151MOL0     O20724   9.124  10.560  10.378 -0.2203 -0.2392  0.4434
  151MOL0     C20725   9.217  10.481  10.311 -0.7476 -0.2594  0.1500
  151MOL0     C20726   9.228  10.349  10.364  0.3435  0.3976 -0.2719
  151MOL0     C20727   9.294  10.247  10.292 -0.4043  0.2805 -0.5623
  151MOL0     C20728   9.314  10.107  10.354  0.7594 -0.0162 -0.4884
  151MOL0     C20729   9.351  10.277  10.163 -0.5721 -0.0878 -1.0756
  151MOL0     C20730   9.401  10.184  10.071  0.5604  0.2998  0.1767
  151MOL0     O20731   9.514  10.217  10.002 -0.4056  0.1581 -0.1721
  151MOL0     C20732   9.571  10.146   9.905 -0.1348  0.1123 -0.3522
  151MOL0     C20733   9.511  10.063   9.825 -0.2459  0.6369  0.5335
  151MOL0     C20734   9.585   9.983   9.730 -0.5027 -0.6117 -0.2968
  151MOL0     C20735   9.724   9.983   9.729 -0.3832  0.3028 -0.6219
  151MOL0     O20736   9.769   9.890   9.640  1.0815 -0.3596  0.5373
  151MOL0     C20737   9.906   9.899   9.609  0.3802  0.0695 -0.9325
  151MOL0     C20738   9.987   9.799   9.688 -0.5404 -0.1109  0.4735
  151MOL0     C20739   9.947   9.661   9.674  0.5180 -0.3986 -0.9221
  151MOL0     C20740   9.962   9.601   9.535 -0.1275 -0.3097 -0.1737
  151MOL0     C20741   9.924   9.462   9.542  0.0186  0.3500 -0.0816
  151MOL0     C20742   9.956   9.389   9.405  0.6638  0.5062 -0.1213
  151MOL0     C20743   9.903   9.246   9.400 -0.6496 -0.1067  0.2862
  151MOL0     C20744   9.932   9.172   9.268 -0.3145 -0.9262 -0.0585
  151MOL0    Cl20745   9.862   9.255   9.125 -0.1390  0.1966 -0.1093
  151MOL0     C20746   9.785  10.076   9.808 -0.6089  0.2687  0.1771
  151MOL0     C20747   9.709  10.160   9.889 -0.1291 -0.3301  0.0747
  151MOL0     O20748   9.323  10.089  10.042  0.3233  0.1265  0.6468
  151MOL0     C20749   9.339  10.408  10.112 -0.5301 -0.1438 -0.1645
  151MOL0     C20750   9.276  10.509  10.186 -0.1820  0.3742  0.4387
  151MOL0     N20751   9.546  11.120  10.426  0.0095 -0.0141 -0.0915
  151MOL0     N20752   9.535  11.238  10.394  0.0283  0.8701 -0.3680
  151MOL0     C20753   8.940  11.150   9.518  0.2520 -0.2363  0.4241
  151MOL0     C20754   8.915  11.088   9.390  0.4905 -0.3926 -0.3814
  151MOL0     C20755   8.660  10.881   9.054  1.1681 -0.5634 -0.1044
  151MOL0     C20756   8.650  11.000   8.980  0.6298  0.4130  0.2631
  151MOL0     C20757   8.585  11.005   8.859  0.9403  0.4202  0.4716
  151MOL0     C20758   8.508  10.894   8.811 -0.8596  0.3240  0.0860
  151MOL0     O20759   8.427  10.905   8.700 -0.1876  0.1058  0.9354
  151MOL0     C20760   8.299  10.838   8.701 -0.7836  1.0558 -0.2322
  151MOL0     C20761   8.216  10.885   8.576 -0.3445  0.4475 -0.1671
  151MOL0     C20762   8.278  10.883   8.440 -0.0661  0.8849  0.8222
  151MOL0     C20763   8.355  10.753   8.422 -0.3127 -0.4887 -0.0099
  151MOL0     C20764   8.402  10.752   8.291  0.6134  0.0814  0.3534
  151MOL0     C20765   8.445  10.748   8.179  0.6622 -0.4968  0.4062
  151MOL0     C20766   8.511  10.779   8.891 -0.3255 -0.1832  0.8650
  151MOL0     C20767   8.589  10.764   9.006  0.3946  0.2252  0.3108
  151MOL0     C20768   8.600  10.625   9.069  0.0438  0.3692 -0.2823
  151MOL0     H20769   8.578  11.031   9.440 -0.0427  0.2936  0.3890
  151MOL0     H20770   8.634  11.132   9.659  1.1942  1.1080  0.3411
  151MOL0     H20771   8.820  11.419   9.788 -0.1900  1.2234 -2.3107
  151MOL0     H20772   8.921  11.383   9.639  1.8555 -2.2420  0.7534
  151MOL0     H20773   9.047  11.256   9.819  1.8052  0.1135 -3.0450
  151MOL0     H20774   9.090  11.414   9.752 -1.5169  0.9892 -1.0147
  151MOL0     H20775   8.940  11.542   9.931 -0.3278  0.4011  0.0043
  151MOL0     H20776   8.928  11.391  10.022  0.7658 -1.3925 -0.7189
  151MOL0     H20777   9.185  11.389  10.028 -0.5913  0.6746  1.0308
  151MOL0     H20778   9.168  11.548   9.948  0.8023 -0.9479 -1.3286
  151MOL0     H20779   9.015  11.468  10.196  2.5145 -1.4812 -0.2511
  151MOL0     H20780   9.046  11.629  10.149 -2.2169 -0.8946  3.7902
  151MOL0     H20781   9.309  11.589  10.194  0.6377  1.4905  1.5580
  151MOL0     H20782   9.195  11.616  10.327  1.6664 -0.2796  0.2504
  151MOL0     H20783   9.291  11.343  10.239 -0.4992 -1.8635  0.9981
  151MOL0     H20784   9.175  11.378  10.372  0.9767  0.3964  1.9322
  151MOL0     H20785   9.454  11.488  10.350  1.1697 -1.1080  2.0143
  151MOL0     H20786   9.340  11.492  10.484 -0.4371  1.9645 -2.1216
  151MOL0     H20787   9.264  11.229  10.559  0.4965 -0.9098  0.2262
  151MOL0     H20788   9.343  10.960  10.645 -1.2757  3.3109 -1.2401
  151MOL0     H20789   9.477  10.881  10.550 -2.6748 -2.7822  1.3805
  151MOL0     H20790   9.202  10.941  10.458  0.5846 -2.2193  3.4038
  151MOL0     H20791   9.338  10.917  10.339  0.9543 -0.5073  0.2693
  151MOL0     H20792   9.370  10.708  10.403 -0.5094 -1.5706  0.1128
  151MOL0     H20793   9.263  10.692  10.537 -0.0219 -0.9657 -0.6622
  151MOL0     H20794   9.066  10.761  10.415  0.8517 -0.3233  2.2074
  151MOL0     H20795   9.159  10.735  10.260  8.0200 -1.2598 -0.0776
  151MOL0     H20796   9.198  10.317  10.463  1.4499 -1.9251 -0.6079
  151MOL0     H20797   9.225  10.056  10.389  0.4194  0.1255 -1.1313
  151MOL0     H20798   9.399  10.103  10.423  3.1839 -0.1366 -3.2674
  151MOL0     H20799   9.350  10.039  10.276  1.1208  1.2712 -1.4875
  151MOL0     H20800   9.405  10.043   9.818 -0.4146  0.9569  1.9391
  151MOL0     H20801   9.522   9.923   9.665 -1.4807 -0.2752  0.3052
  151MOL0     H20802   9.922   9.877   9.503  0.0976 -1.3752 -0.6955
  151MOL0     H20803   9.945  10.001   9.620 -0.8277  0.4418  0.1298
  151MOL0     H20804  10.094   9.805   9.667 -0.7356 -1.6366 -1.1077
  151MOL0     H20805   9.963   9.829   9.791 -4.8715 -0.4756 -0.2411
  151MOL0     H20806   9.844   9.654   9.711  0.5466  0.9317 -0.5686
  151MOL0     H20807  10.023   9.610   9.733  1.3922  0.0636 -1.6113
  151MOL0     H20808  10.069   9.620   9.517  0.6215 -2.8923  1.1283
  151MOL0     H20809   9.922   9.660   9.452  1.4485  0.0410 -0.7340
  151MOL0     H20810   9.984   9.415   9.620  0.7829  0.6915 -0.4521
  151MOL0     H20811   9.817   9.457   9.563  0.2443  1.2008  1.4715
  151MOL0     H20812  10.064   9.396   9.390  0.8711  1.1859  1.3999
  151MOL0     H20813   9.900   9.441   9.327 -0.8331  2.7482  2.2564
  151MOL0     H20814   9.795   9.255   9.412 -0.8817  0.4085 -1.7485
  151MOL0     H20815   9.962   9.207   9.483  1.6953  0.7924 -0.8588
  151MOL0     H20816   9.894   9.069   9.273 -0.7574 -0.8420 -1.4357
  151MOL0     H20817  10.039   9.161   9.251 -0.3106 -0.4117 -0.3846
  151MOL0     H20818   9.893  10.070   9.815 -0.5998  0.8332  0.5974
  151MOL0     H20819   9.764  10.229   9.952 -0.4746  1.8606 -1.8699
  151MOL0     H20820   9.367  10.438  10.012 -2.1906  1.6583 -0.1632
  151MOL0     H20821   9.296  10.610  10.154  0.9531 -0.8708 -3.3827
  151MOL0     H20822   9.034  11.195   9.547 -0.7083  1.2879  1.3321
  151MOL0     H20823   8.994  11.095   9.317  1.6641  3.2917  0.9938
  151MOL0     H20824   8.701  11.087   9.018  0.6049 -0.2348  1.8734
  151MOL0     H20825   8.569  11.093   8.797 -1.2716 -0.1178  0.1829
  151MOL0     H20826   8.316  10.730   8.697  3.0583  1.5130 -0.3131
  151MOL0     H20827   8.240  10.854   8.791 -2.0649 -2.2050 -0.3561
  151MOL0     H20828   8.195  10.988   8.605  1.3109  1.3385 -1.9058
  151MOL0     H20829   8.122  10.830   8.585 -0.5236  1.0091  2.0139
  151MOL0     H20830   8.194  10.883   8.369  0.0407 -2.2041  0.5608
  151MOL0     H20831   8.342  10.970   8.422  0.4592  0.0256 -2.1382
  151MOL0     H20832   8.290  10.670   8.453 -1.4760  0.0491 -0.9276
  151MOL0     H20833   8.441  10.743   8.489  0.5452 -1.0505 -1.1640
  151MOL0     H20834   8.490  10.745   8.081  1.2857 -1.3699  0.7019
  151MOL0     H20835   8.443  10.699   8.863  0.9979 -0.6720 -1.1547
  151MOL0     H20836   8.695  10.574   9.053 -0.5549 -0.6711 -0.6790
  151MOL0     H20837   8.593  10.616   9.178  1.0840 -0.1127 -0.2388
  151MOL0     H20838   8.522  10.558   9.030 -0.4183  0.3014  0.7278
  152MOL0     O20839   8.291   6.884   9.400 -0.0503 -0.1533  0.5248
  152MOL0     C20840   8.230   6.779   9.366 -0.1849 -0.5155  0.1056
  152MOL0     O20841   8.274   6.678   9.295  0.3372  0.1878 -0.6500
  152MOL0     C20842   8.410   6.664   9.290 -0.2263  0.7074 -0.4728
  152MOL0     C20843   8.476   6.643   9.415 -0.5630  0.8538 -0.1657
  152MOL0     C20844   8.611   6.612   9.414 -0.4441 -0.3104 -0.4243
  152MOL0     C20845   8.678   6.595   9.291 -0.2985 -0.3921  0.4528
  152MOL0     O20846   8.812   6.558   9.295  0.1222 -0.3129 -0.3115
  152MOL0     C20847   8.885   6.533   9.170  0.2145  0.1312  0.0046
  152MOL0     C20848   8.929   6.666   9.108  0.5775  0.3054 -0.5374
  152MOL0     C20849   8.999   6.640   8.966 -0.3532  0.3381 -0.3119
  152MOL0     C20850   9.074   6.765   8.910  0.0841 -0.1094  0.3418
  152MOL0     C20851   9.199   6.726   8.820  0.1692 -0.1688  0.2205
  152MOL0     C20852   9.282   6.854   8.795  0.3296  0.1192 -0.1043
  152MOL0     C20853   9.418   6.819   8.723  0.1852  0.3359 -0.6888
  152MOL0     C20854   9.496   6.941   8.677 -0.0624  0.5157 -0.0974
  152MOL0     N20855   9.519   7.031   8.783 -0.6649  0.1612 -0.7992
  152MOL0     C20856   9.602   6.999   8.894  0.1836  0.1673 -0.3332
  152MOL0     C20857   9.622   7.127   8.936 -0.2229  0.4380 -0.0110
  152MOL0     C20858   9.732   7.157   9.033  0.9292 -0.3671  0.1228
  152MOL0     C20859   9.692   7.150   9.181  0.6102 -0.2391  0.8212
  152MOL0     C20860   9.699   7.004   9.221 -1.0082 -0.0256  0.5475
  152MOL0     C20861   9.656   6.987   9.363  0.0294  0.7036  0.0061
  152MOL0     O20862   9.724   7.079   9.444  0.5662  0.0670  0.1189
  152MOL0     C20863   9.726   7.074   9.582  0.2091 -0.5091 -0.5274
  152MOL0     C20864   9.764   7.183   9.650  0.0012 -1.1560 -0.0070
  152MOL0     C20865   9.774   7.198   9.791 -0.4337 -0.7591  0.2903
  152MOL0     C20866   9.800   7.339   9.844 -0.4358 -0.2365 -0.3044
  152MOL0     C20867   9.747   7.084   9.868  0.4743  0.2496 -0.0691
  152MOL0     C20868   9.762   7.075  10.024 -0.3834  0.1919  0.9216
  152MOL0     O20869   9.819   7.185  10.080 -0.5514  0.3953 -0.6506
  152MOL0     C20870   9.839   7.223  10.208 -0.0338  1.0958  0.5233
  152MOL0     C20871   9.917   7.336  10.214 -0.8015 -0.0842  0.1190
  152MOL0     C20872   9.956   7.383  10.336 -0.4125 -0.8006 -0.2348
  152MOL0     C20873   9.928   7.322  10.460  0.4181 -0.0937 -0.1137
  152MOL0     O20874   9.977   7.376  10.576 -0.7694  0.1970 -0.3769
  152MOL0     C20875   9.929   7.317  10.693 -0.9947  0.5677  0.8547
  152MOL0     C20876   9.964   7.408  10.817  0.3151  0.2497 -0.1995
  152MOL0     C20877  10.109   7.431  10.834  0.1340  0.6989 -0.2322
  152MOL0     C20878  10.152   7.508  10.962 -0.1232 -0.5156 -0.0867
  152MOL0     C20879  10.304   7.511  10.984  0.2615  0.3281 -0.4959
  152MOL0     C20880  10.332   7.603  11.104  0.8841  0.9265  0.7019
  152MOL0     C20881  10.483   7.591  11.121 -0.1677 -0.2037  0.4507
  152MOL0     C20882  10.536   7.636  11.259 -0.3104  0.8935  1.0090
  152MOL0    Cl20883  10.509   7.796  11.311  0.1484 -0.3801  0.2550
  152MOL0     C20884   9.845   7.208  10.449  1.2211 -0.0652  0.2374
  152MOL0     C20885   9.797   7.158  10.325  0.2107 -0.1273 -0.2353
  152MOL0     O20886   9.717   6.972  10.083  0.0386  0.7119 -0.4704
  152MOL0     C20887   9.699   6.972   9.803  0.3035  0.2789 -0.1885
  152MOL0     C20888   9.698   6.959   9.668  0.1778 -0.1731  0.8133
  152MOL0     N20889   9.545   7.224   8.879  0.2044  0.3879  0.2333
  152MOL0     N20890   9.498   7.164   8.778  0.6980 -0.2594 -0.0854
  152MOL0     C20891   8.612   6.608   9.175  0.8555 -0.9430 -0.1941
  152MOL0     C20892   8.484   6.649   9.175 -0.3682 -0.6089 -0.4953
  152MOL0     C20893   8.078   6.770   9.388 -0.9387  0.4632  0.3966
  152MOL0     C20894   7.992   6.700   9.299 -0.1123  0.3757  0.3082
  152MOL0     C20895   7.854   6.690   9.311 -0.2181 -0.0420  0.3860
  152MOL0     C20896   7.789   6.747   9.419 -0.9047  1.0424  0.0330
  152MOL0     O20897   7.657   6.738   9.432 -0.1159  0.0792 -0.1275
  152MOL0     C20898   7.587   6.642   9.353  0.1240 -0.7386  0.3427
  152MOL0     C20899   7.446   6.649   9.399 -0.1195  0.4992 -0.2646
  152MOL0     C20900   7.384   6.780   9.353 -0.3865 -0.5842  0.3137
  152MOL0     C20901   7.327   6.877   9.461 -0.9563  0.5846 -0.4187
  152MOL0     C20902   7.431   6.961   9.517 -0.4742 -0.6466 -0.7717
  152MOL0     C20903   7.509   7.033   9.583 -0.7043 -0.6011  0.0040
  152MOL0     C20904   7.865   6.822   9.511 -0.4814  0.4501 -0.7361
  152MOL0     C20905   8.004   6.834   9.488  0.4696 -0.1201 -0.1648
  152MOL0     C20906   8.078   6.919   9.586  0.0610 -0.3614 -0.0884
  152MOL0     H20907   8.423   6.656   9.509 -5.0503  2.7897 -2.6476
  152MOL0     H20908   8.676   6.609   9.501  2.5005 -1.3009 -2.4937
  152MOL0     H20909   8.828   6.473   9.098 -0.6369  1.6569 -0.6289
  152MOL0     H20910   8.975   6.474   9.191 -1.6573 -2.4395  1.4490
  152MOL0     H20911   8.837   6.725   9.101 -0.6856 -1.4048  0.8381
  152MOL0     H20912   8.988   6.729   9.175 -0.9335  2.5648 -1.1917
  152MOL0     H20913   9.078   6.566   8.984 -1.5991 -0.8192  0.6819
  152MOL0     H20914   8.937   6.598   8.886 -1.3006 -0.4377  0.7896
  152MOL0     H20915   9.013   6.823   8.840  2.5161  1.0281 -0.9953
  152MOL0     H20916   9.118   6.826   8.989 -2.2979  1.6877  0.3791
  152MOL0     H20917   9.158   6.692   8.724 -0.4740 -0.8425  0.7291
  152MOL0     H20918   9.260   6.652   8.871  1.9837  1.7172  0.9460
  152MOL0     H20919   9.219   6.927   8.744  0.9679 -0.3458 -1.6156
  152MOL0     H20920   9.314   6.897   8.890  1.1033 -0.3845 -0.1285
  152MOL0     H20921   9.409   6.747   8.640  0.1511 -0.8968  0.3576
  152MOL0     H20922   9.475   6.770   8.802 -2.6255 -2.1316  0.0025
  152MOL0     H20923   9.593   6.911   8.634 -0.6177  0.6963 -1.5468
  152MOL0     H20924   9.445   6.982   8.589 -1.5110 -1.3651 -0.1933
  152MOL0     H20925   9.660   6.912   8.925 -1.1096  0.7153  4.2066
  152MOL0     H20926   9.767   7.259   9.017 -0.7874 -0.0029 -1.6468
  152MOL0     H20927   9.820   7.096   9.014  1.3369  0.1926  0.1884
  152MOL0     H20928   9.777   7.195   9.235  1.1212  0.2007 -0.3106
  152MOL0     H20929   9.592   7.192   9.192  0.9224  2.2478 -3.3425
  152MOL0     H20930   9.633   6.946   9.155 -0.0212 -1.5325  0.8323
  152MOL0     H20931   9.804   6.974   9.215 -1.0369 -0.2341  1.0291
  152MOL0     H20932   9.548   7.006   9.371 -0.4898  0.2553 -3.9790
  152MOL0     H20933   9.672   6.882   9.388  0.1012  0.5442 -0.6715
  152MOL0     H20934   9.773   7.273   9.591 -2.3149 -0.2639  0.9133
  152MOL0     H20935   9.752   7.366   9.939  0.9303  1.9665 -0.1635
  152MOL0     H20936   9.753   7.413   9.779 -1.2944 -2.1333 -1.9634
  152MOL0     H20937   9.908   7.356   9.849 -0.6688  1.1704  0.5301
  152MOL0     H20938   9.947   7.392  10.126  0.7088 -1.2544 -0.1426
  152MOL0     H20939  10.004   7.480  10.348  0.4589 -1.5228  3.3489
  152MOL0     H20940   9.823   7.290  10.698 -0.2748 -2.5414  1.4496
  152MOL0     H20941   9.984   7.224  10.706 -0.6746  0.7749  1.0105
  152MOL0     H20942   9.922   7.505  10.788 -2.3749 -0.0484  2.2301
  152MOL0     H20943   9.908   7.386  10.908  0.1637  2.7357  0.3854
  152MOL0     H20944  10.158   7.493  10.758  1.1815 -1.3341 -1.2999
  152MOL0     H20945  10.154   7.331  10.839  1.5812  1.2699 -1.0023
  152MOL0     H20946  10.100   7.459  11.045 -0.0812  0.3575  0.4638
  152MOL0     H20947  10.120   7.612  10.955  0.3430 -0.2698  1.1631
  152MOL0     H20948  10.335   7.408  11.006 -0.2796 -0.0670 -1.5265
  152MOL0     H20949  10.362   7.550  10.900  0.0954  1.0591 -0.2771
  152MOL0     H20950  10.279   7.569  11.194 -0.6998 -0.4204 -0.6643
  152MOL0     H20951  10.298   7.706  11.091  0.7036  0.8307  0.4157
  152MOL0     H20952  10.534   7.665  11.059  2.1740 -0.7131  1.6564
  152MOL0     H20953  10.511   7.489  11.093 -5.3688 -1.2522 -2.1088
  152MOL0     H20954  10.642   7.611  11.274 -0.7287 -2.1645 -0.3590
  152MOL0     H20955  10.491   7.567  11.331  2.6225 -0.6868  1.4794
  152MOL0     H20956   9.812   7.155  10.538  0.3661  0.8174  0.4653
  152MOL0     H20957   9.724   7.078  10.321 -0.2910  0.3437 -0.7538
  152MOL0     H20958   9.690   6.884   9.866  3.3891  0.9380  1.4066
  152MOL0     H20959   9.680   6.858   9.632 -2.3466 -0.3572  2.4244
  152MOL0     H20960   8.646   6.564   9.083 -0.8663 -0.2741 -1.2043
  152MOL0     H20961   8.430   6.670   9.084 -2.2198 -0.1482  0.6547
  152MOL0     H20962   8.036   6.657   9.210 -0.6481 -1.4124  0.8571
  152MOL0     H20963   7.801   6.646   9.228  2.2265  1.5378 -2.2112
  152MOL0     H20964   7.600   6.653   9.245 -1.9940 -0.0648  0.1118
  152MOL0     H20965   7.624   6.540   9.367 -0.4547 -0.8630  0.9674
  152MOL0     H20966   7.438   6.648   9.508  1.0004 -0.5540 -0.1684
  152MOL0     H20967   7.392   6.565   9.354 -1.9224 -0.1774  2.8449
  152MOL0     H20968   7.467   6.834   9.306 -0.0943 -0.3029  1.1217
  152MOL0     H20969   7.304   6.783   9.279  1.8614  1.1723 -2.2197
  152MOL0     H20970   7.277   6.816   9.537 -1.0590 -3.1834 -3.2656
  152MOL0     H20971   7.252   6.935   9.408 -3.1684 -0.9735  0.8560
  152MOL0     H20972   7.566   7.095   9.649  0.0606 -1.2025 -0.0796
  152MOL0     H20973   7.825   6.884   9.590  1.1869 -0.6052  1.0479
  152MOL0     H20974   8.024   6.955   9.674  0.5321  0.9737 -0.3217
  152MOL0     H20975   8.150   6.857   9.640  0.3794  1.5230  1.7740
  152MOL0     H20976   8.116   7.011   9.541 -1.4524 -0.1148 -0.9038
  153MOL0     O20977   9.661   3.944   3.788  0.1362  0.5209 -0.1884
  153MOL0     C20978   9.664   3.984   3.905  1.0122 -1.4741 -0.2928
  153MOL0     O20979   9.563   3.957   3.989 -0.0461  0.2447 -0.4417
  153MOL0     C20980   9.482   3.847   3.958  0.2161 -0.5408  0.4666
  153MOL0     C20981   9.363   3.865   3.873  0.3619  0.9619 -0.3187
  153MOL0     C20982   9.301   3.752   3.818  0.1115  0.1625  0.2032
  153MOL0     C20983   9.337   3.622   3.866  0.5876  0.2330 -0.0388
  153MOL0     O20984   9.270   3.504   3.833 -0.0294  0.2906 -1.5488
  153MOL0     C20985   9.142   3.504   3.764 -0.7239  0.3428 -0.3995
  153MOL0     C20986   9.150   3.537   3.622  0.6189 -0.3794 -0.5540
  153MOL0     C20987   9.261   3.473   3.542 -0.5537  0.5635 -0.0573
  153MOL0     C20988   9.228   3.454   3.390  0.4174  0.4979  0.0841
  153MOL0     C20989   9.351   3.408   3.317 -1.0564  0.0966 -0.4865
  153MOL0     C20990   9.425   3.537   3.273 -0.8139 -0.2328 -0.2462
  153MOL0     C20991   9.535   3.512   3.167  0.4859 -0.3734  0.3926
  153MOL0     C20992   9.629   3.386   3.207  1.0561 -0.6615 -0.7862
  153MOL0     N20993   9.749   3.373   3.117  0.0812  0.0600  0.1901
  153MOL0     C20994   9.861   3.450   3.116  0.2617  0.4075  0.9291
  153MOL0     C20995   9.947   3.397   3.027  0.2263 -0.9247  1.0595
  153MOL0     C20996  10.096   3.428   3.003  0.2777  0.2974  0.2416
  153MOL0     C20997  10.118   3.576   2.961 -0.5853  0.1824  0.3032
  153MOL0     C20998  10.272   3.606   2.918 -0.1779  0.3404  0.4885
  153MOL0     C20999  10.375   3.589   3.032  0.1015 -0.1944  0.9730
  153MOL0     O21000  10.504   3.605   2.971  0.1317 -0.2633  0.6475
  153MOL0     C21001  10.616   3.630   3.046 -0.2303 -0.8507  0.7382
  153MOL0     C21002  10.625   3.571   3.175 -0.4101 -0.3418  0.1479
  153MOL0     C21003  10.723   3.592   3.268 -0.5225  0.2785  0.2260
  153MOL0     C21004  10.720   3.508   3.399 -0.0243 -0.5080  0.0797
  153MOL0     C21005  10.831   3.675   3.229 -0.2412  0.3564 -0.8877
  153MOL0     C21006  10.950   3.692   3.317  0.3765  0.3325 -0.2880
  153MOL0     O21007  10.936   3.684   3.449 -0.1147  0.4576 -0.2942
  153MOL0     C21008  11.042   3.722   3.526 -0.3480  0.2964 -0.2726
  153MOL0     C21009  11.124   3.629   3.593  0.2886  0.1220 -0.1076
  153MOL0     C21010  11.226   3.667   3.676  0.1640  0.0598  1.3223
  153MOL0     C21011  11.248   3.801   3.708  0.5076 -0.6253 -0.2258
  153MOL0     O21012  11.333   3.853   3.807 -0.9352 -0.4256  0.5417
  153MOL0     C21013  11.415   3.771   3.890 -0.6178 -0.0850 -0.4986
  153MOL0     C21014  11.508   3.860   3.978  0.6100 -0.0876 -0.2829
  153MOL0     C21015  11.430   3.952   4.069 -0.7903 -0.8359 -0.7338
  153MOL0     C21016  11.503   4.064   4.147 -0.0276  0.3979 -0.3922
  153MOL0     C21017  11.496   4.205   4.083  1.0697 -0.1255  0.7731
  153MOL0     C21018  11.548   4.310   4.189  0.9629 -0.3970  0.3277
  153MOL0     C21019  11.695   4.318   4.226  0.8486  0.4166  0.1781
  153MOL0     C21020  11.795   4.350   4.106 -0.3736 -0.5924 -0.1605
  153MOL0    Cl21021  11.947   4.412   4.181 -0.5867 -0.0765 -0.0102
  153MOL0     C21022  11.179   3.897   3.622 -0.5934 -0.1068  0.4372
  153MOL0     C21023  11.085   3.861   3.527 -0.0929  0.0090 -0.2965
  153MOL0     O21024  11.062   3.707   3.268  0.2462  0.1913 -0.1066
  153MOL0     C21025  10.830   3.742   3.104 -0.3516  0.1195 -0.7272
  153MOL0     C21026  10.721   3.719   3.015  0.0516  0.9942 -0.8900
  153MOL0     N21027   9.882   3.296   2.957 -0.0111 -0.3070 -0.1460
  153MOL0     N21028   9.762   3.275   3.019  0.2520  0.1341  0.4390
  153MOL0     C21029   9.454   3.598   3.942  0.2545 -0.2195  0.2341
  153MOL0     C21030   9.525   3.713   3.982  0.2055  0.3455 -0.3060
  153MOL0     C21031   9.778   4.078   3.965  0.1425  0.2116  0.5646
  153MOL0     C21032   9.761   4.129   4.095 -0.0007 -0.4285  0.3997
  153MOL0     C21033   9.863   4.195   4.170  0.4627 -0.6424 -0.4724
  153MOL0     C21034   9.986   4.219   4.104  0.2883  0.3962 -0.4789
  153MOL0     O21035  10.073   4.302   4.164 -0.6454  0.7220  0.1896
  153MOL0     C21036  10.079   4.303   4.313  0.0035 -0.0382 -0.3343
  153MOL0     C21037  10.224   4.334   4.365  0.7295  0.7684 -0.0457
  153MOL0     C21038  10.243   4.286   4.510  0.5614 -0.6393 -0.7877
  153MOL0     C21039  10.282   4.144   4.526  0.0701  0.5949  0.4711
  153MOL0     C21040  10.335   4.111   4.656 -0.7827 -0.3625  0.3200
  153MOL0     C21041  10.367   4.086   4.768 -0.5071 -0.2502 -0.1580
  153MOL0     C21042   9.998   4.170   3.975 -0.1130 -0.2382 -0.1016
  153MOL0     C21043   9.902   4.095   3.909 -0.6882  1.0629 -0.2624
  153MOL0     C21044   9.942   4.030   3.783 -0.3662 -0.5356 -0.1045
  153MOL0     H21045   9.342   3.969   3.848 -2.3354  0.7536  0.7819
  153MOL0     H21046   9.223   3.776   3.747  0.4528  0.7659  0.0303
  153MOL0     H21047   9.069   3.572   3.809  0.5951  1.9102 -0.5337
  153MOL0     H21048   9.116   3.398   3.774  3.2830 -0.7974 -0.0535
  153MOL0     H21049   9.058   3.499   3.576 -0.9989 -1.8812  3.4875
  153MOL0     H21050   9.145   3.645   3.608  1.7545 -0.3824 -1.0584
  153MOL0     H21051   9.344   3.545   3.547 -1.5458  1.8436 -1.3298
  153MOL0     H21052   9.292   3.378   3.585 -0.5778  0.8181  0.5334
  153MOL0     H21053   9.155   3.372   3.386 -0.5902  1.4149 -1.5153
  153MOL0     H21054   9.185   3.542   3.342 -0.2706 -0.7014 -1.6179
  153MOL0     H21055   9.333   3.339   3.233  1.6645 -0.7374 -0.4935
  153MOL0     H21056   9.409   3.343   3.383  1.8518  2.1435 -0.8323
  153MOL0     H21057   9.355   3.612   3.235 -1.3244 -0.8753 -0.5939
  153MOL0     H21058   9.479   3.580   3.358 -1.0008 -0.3519 -0.0674
  153MOL0     H21059   9.602   3.599   3.170  1.5644 -1.1437 -0.4298
  153MOL0     H21060   9.487   3.501   3.069  0.4348  0.6689  0.2902
  153MOL0     H21061   9.657   3.393   3.312  2.3351  0.0824 -1.1419
  153MOL0     H21062   9.579   3.289   3.209  0.7903 -0.5923  3.2616
  153MOL0     H21063   9.885   3.527   3.189  1.4737  1.0309 -0.0874
  153MOL0     H21064  10.125   3.353   2.929 -0.8524  1.9439 -1.9821
  153MOL0     H21065  10.167   3.413   3.084  0.1062  0.2766  0.3886
  153MOL0     H21066  10.039   3.605   2.891  0.0170 -0.3759 -0.6362
  153MOL0     H21067  10.097   3.654   3.035  3.9996  3.9724 -1.8777
  153MOL0     H21068  10.292   3.538   2.835 -1.1659 -0.1515  0.6358
  153MOL0     H21069  10.293   3.708   2.883  1.0697 -0.9031 -2.6815
  153MOL0     H21070  10.368   3.672   3.103  2.7231  0.0200  1.0610
  153MOL0     H21071  10.362   3.496   3.089  1.0825 -0.9496  0.0010
  153MOL0     H21072  10.552   3.497   3.204 -1.6157  0.6006 -0.4196
  153MOL0     H21073  10.819   3.482   3.438  0.9639  1.6736 -0.7756
  153MOL0     H21074  10.680   3.414   3.359 -0.3008 -0.1359 -0.5358
  153MOL0     H21075  10.657   3.554   3.476 -2.6499  0.6084 -2.5384
  153MOL0     H21076  11.094   3.527   3.575  0.5419  0.0086  0.1083
  153MOL0     H21077  11.285   3.591   3.727  2.2494  0.1837 -0.7369
  153MOL0     H21078  11.351   3.708   3.952 -0.3319  1.1117  1.0709
  153MOL0     H21079  11.482   3.706   3.832 -0.5075 -1.1491  0.7776
  153MOL0     H21080  11.586   3.803   4.028  0.0591  0.8424  1.7324
  153MOL0     H21081  11.575   3.924   3.920  0.8518 -0.9766 -1.0151
  153MOL0     H21082  11.385   3.884   4.143  1.3539 -0.4387  1.0465
  153MOL0     H21083  11.355   4.009   4.014 -1.0562  1.7328  2.0077
  153MOL0     H21084  11.608   4.038   4.164  1.1240  3.5410 -1.8446
  153MOL0     H21085  11.454   4.076   4.244 -2.1665  0.1737 -1.4024
  153MOL0     H21086  11.552   4.214   3.989 -0.7109 -0.7737 -0.4036
  153MOL0     H21087  11.391   4.226   4.060 -0.1563 -4.2797  1.6599
  153MOL0     H21088  11.495   4.303   4.284  1.6718 -0.0188  0.7514
  153MOL0     H21089  11.524   4.408   4.147  0.0001  0.0207  1.8063
  153MOL0     H21090  11.732   4.219   4.254  1.2267  0.6555  0.5468
  153MOL0     H21091  11.707   4.385   4.312 -0.8000  0.5218  0.3545
  153MOL0     H21092  11.764   4.442   4.057  2.7888  2.1716  2.5555
  153MOL0     H21093  11.823   4.265   4.042 -0.2158  0.0105 -0.9040
  153MOL0     H21094  11.209   4.000   3.634 -1.3555 -0.1160  3.3583
  153MOL0     H21095  11.053   3.935   3.455  2.6366  0.7074 -0.9224
  153MOL0     H21096  10.892   3.822   3.066 -1.1089  0.2918 -1.6522
  153MOL0     H21097  10.721   3.797   2.940  0.8040  2.1792  0.3060
  153MOL0     H21098   9.481   3.496   3.970 -0.7975  0.3411  3.8121
  153MOL0     H21099   9.618   3.712   4.037 -1.0083 -0.0497  1.8485
  153MOL0     H21100   9.662   4.119   4.137 -0.3239  0.8110 -0.0217
  153MOL0     H21101   9.820   4.234   4.262 -2.2045 -0.5981 -1.6434
  153MOL0     H21102  10.014   4.382   4.352 -0.1870  0.0585 -0.8457
  153MOL0     H21103  10.046   4.204   4.347  0.4955 -0.3536 -0.7472
  153MOL0     H21104  10.237   4.443   4.365 -4.1710  1.6577  1.8053
  153MOL0     H21105  10.295   4.285   4.299  1.1178 -1.8886  2.1711
  153MOL0     H21106  10.322   4.352   4.546 -1.3754  2.1668 -1.3949
  153MOL0     H21107  10.153   4.307   4.569 -0.1381 -1.7895 -1.4153
  153MOL0     H21108  10.357   4.110   4.454  4.0983 -0.9719  4.8643
  153MOL0     H21109  10.199   4.076   4.510  1.1411 -0.5017 -0.5997
  153MOL0     H21110  10.378   4.066   4.873 -0.6829 -0.1766 -0.1244
  153MOL0     H21111  10.091   4.198   3.928 -0.8543  1.7995 -0.4403
  153MOL0     H21112  10.051   4.028   3.773 -0.2297  0.9406  0.7878
  153MOL0     H21113   9.905   3.927   3.779  0.7525 -1.0430  1.5945
  153MOL0     H21114   9.915   4.094   3.699  1.8888  0.5023 -0.0921
  154MOL0     O21115   2.427   8.352   7.910 -0.1290 -0.2637  0.5506
  154MOL0     C21116   2.492   8.257   7.942  0.1616  0.1252 -0.5615
  154MOL0     O21117   2.628   8.260   7.967  0.0122 -0.3566  0.3321
  154MOL0     C21118   2.697   8.379   7.951 -0.6098 -0.1208  0.9286
  154MOL0     C21119   2.781   8.413   8.051  0.4637 -0.6517 -0.3656
  154MOL0     C21120   2.875   8.518   8.031  0.5976  0.3835  0.3020
  154MOL0     C21121   2.884   8.584   7.914 -0.2377  0.3119 -0.2573
  154MOL0     O21122   2.977   8.682   7.921  0.0994  0.3190 -0.0882
  154MOL0     C21123   2.951   8.808   7.854 -0.6837  0.5700 -0.2539
  154MOL0     C21124   3.040   8.922   7.899  0.0414  0.1613 -0.2338
  154MOL0     C21125   3.029   8.954   8.047  0.8016 -0.0969 -0.0021
  154MOL0     C21126   3.108   9.077   8.089 -0.4863  0.3101  0.1436
  154MOL0     C21127   3.082   9.128   8.235  0.4604 -0.7233  1.4930
  154MOL0     C21128   3.109   9.278   8.253 -1.2647  0.4512 -0.0263
  154MOL0     C21129   3.240   9.327   8.194  0.1037 -0.5635 -0.4743
  154MOL0     C21130   3.268   9.478   8.228 -0.2568 -0.2500 -0.5598
  154MOL0     N21131   3.383   9.482   8.316 -0.5325  0.3114 -0.7327
  154MOL0     C21132   3.382   9.414   8.443 -0.2021  1.1268  1.0746
  154MOL0     C21133   3.499   9.450   8.493  0.2552  0.6485 -0.7241
  154MOL0     C21134   3.525   9.410   8.640  0.1374 -0.8038  0.4149
  154MOL0     C21135   3.664   9.443   8.688  0.3026 -0.0084  0.3125
  154MOL0     C21136   3.688   9.363   8.816 -0.4254  0.1443 -0.4943
  154MOL0     C21137   3.840   9.377   8.853  0.0908 -0.7946  0.0425
  154MOL0     O21138   3.862   9.368   8.997  0.3238 -0.0006  0.7192
  154MOL0     C21139   3.964   9.433   9.058 -0.4735  0.1155  0.3413
  154MOL0     C21140   3.951   9.459   9.195 -0.9125 -0.4975 -0.0648
  154MOL0     C21141   4.053   9.538   9.256 -0.2178 -0.0967 -0.6714
  154MOL0     C21142   4.024   9.546   9.406  0.1009 -0.9269  0.2184
  154MOL0     C21143   4.172   9.588   9.191  0.4676  0.0603  0.5532
  154MOL0     C21144   4.278   9.683   9.252  0.4708 -0.0188  0.5833
  154MOL0     O21145   4.286   9.682   9.389  0.1437 -0.6353  0.3582
  154MOL0     C21146   4.393   9.746   9.445 -0.4933  0.2154 -0.6467
  154MOL0     C21147   4.511   9.671   9.479  0.7749 -0.0301  0.2106
  154MOL0     C21148   4.626   9.728   9.535 -0.1986 -1.0455  0.5190
  154MOL0     C21149   4.626   9.860   9.578  0.7360  0.0683 -1.0904
  154MOL0     O21150   4.734   9.933   9.630  0.6493  0.3659  0.2811
  154MOL0     C21151   4.861   9.876   9.598 -0.3326  0.2859 -0.3975
  154MOL0     C21152   4.969   9.977   9.596 -0.4546  0.8136 -0.1625
  154MOL0     C21153   5.107   9.923   9.545 -0.0664  0.4946  0.5920
  154MOL0     C21154   5.212  10.003   9.613 -0.6766 -0.6947  0.7344
  154MOL0     C21155   5.349   9.983   9.529 -0.0447 -0.1144  0.0258
  154MOL0     C21156   5.453  10.089   9.556  0.4207 -0.1606  0.0747
  154MOL0     C21157   5.524  10.060   9.686 -0.0924 -0.0913  0.2781
  154MOL0     C21158   5.540  10.183   9.786  0.2357 -0.5397  0.5613
  154MOL0    Cl21159   5.641  10.319   9.718  0.4539  0.1227 -0.2064
  154MOL0     C21160   4.507   9.938   9.550  0.1249  0.3748 -0.0768
  154MOL0     C21161   4.394   9.877   9.492 -0.2414  0.1179  0.1983
  154MOL0     O21162   4.346   9.749   9.176  0.4456  0.3960  0.4211
  154MOL0     C21163   4.175   9.556   9.055 -1.1208  0.1969  0.0779
  154MOL0     C21164   4.072   9.487   8.988 -0.6124  0.0271 -0.1168
  154MOL0     N21165   3.580   9.519   8.408 -1.0669  0.2691  0.4975
  154MOL0     N21166   3.509   9.531   8.300 -0.1248 -0.8612 -0.3383
  154MOL0     C21167   2.806   8.544   7.808 -0.6006 -0.3977  0.2570
  154MOL0     C21168   2.713   8.445   7.830 -0.0783 -0.1513  0.6624
  154MOL0     C21169   2.410   8.132   7.944 -1.1944  0.7336 -0.1166
  154MOL0     C21170   2.486   8.015   7.973 -0.1184  0.5804  0.0036
  154MOL0     C21171   2.426   7.888   7.966  0.2299  0.4220  0.0645
  154MOL0     C21172   2.290   7.874   7.953  0.3489  1.1541  0.3527
  154MOL0     O21173   2.230   7.749   7.945 -0.2904  0.6347  0.0923
  154MOL0     C21174   2.120   7.726   7.858  0.4631  0.3981 -0.0890
  154MOL0     C21175   2.167   7.694   7.706  0.3574 -0.2913 -0.2055
  154MOL0     C21176   2.051   7.654   7.612  0.6823 -0.3933  0.3396
  154MOL0     C21177   2.093   7.560   7.497  0.4686 -0.0203  0.3342
  154MOL0     C21178   2.004   7.564   7.379  0.2988 -1.2393 -0.5225
  154MOL0     C21179   1.925   7.582   7.292  0.4007 -0.9686  0.9479
  154MOL0     C21180   2.218   7.992   7.951  0.9348  0.3302 -1.3277
  154MOL0     C21181   2.271   8.121   7.957 -0.9597 -1.3574 -0.8185
  154MOL0     C21182   2.166   8.233   7.956 -0.9469  1.0494  0.2803
  154MOL0     H21183   2.756   8.367   8.146 -1.3120  2.0756  0.6077
  154MOL0     H21184   2.949   8.555   8.101  0.7444 -1.6986  1.3368
  154MOL0     H21185   2.850   8.833   7.887 -1.7011 -0.1989 -2.5585
  154MOL0     H21186   2.944   8.799   7.745 -1.1843  1.9367 -0.3563
  154MOL0     H21187   3.144   8.893   7.880 -0.0598 -0.1733 -0.2783
  154MOL0     H21188   3.020   9.012   7.842 -0.2484  0.8786  0.9584
  154MOL0     H21189   2.924   8.982   8.058  0.9758  1.0777 -1.1612
  154MOL0     H21190   3.069   8.871   8.106  4.4719  1.8003  0.5085
  154MOL0     H21191   3.216   9.063   8.076 -0.5950 -2.0136  1.2045
  154MOL0     H21192   3.099   9.157   8.015  3.9151  0.8253 -0.1526
  154MOL0     H21193   3.137   9.071   8.311  2.5237 -1.1035 -0.1805
  154MOL0     H21194   2.978   9.117   8.267  0.0054  0.6177  0.5704
  154MOL0     H21195   3.030   9.340   8.209 -0.1712  2.0180  0.1142
  154MOL0     H21196   3.124   9.293   8.360  4.5094 -0.2563 -0.4200
  154MOL0     H21197   3.217   9.316   8.088 -0.3159  2.1650 -0.7248
  154MOL0     H21198   3.322   9.255   8.207  1.8622  1.8023  3.2049
  154MOL0     H21199   3.293   9.542   8.143 -0.0907 -0.0900 -0.3924
  154MOL0     H21200   3.179   9.531   8.264  1.5270  2.8985 -0.3791
  154MOL0     H21201   3.290   9.371   8.481 -1.7194  2.0626 -1.2780
  154MOL0     H21202   3.487   9.309   8.656 -0.7394 -0.6330 -0.5096
  154MOL0     H21203   3.464   9.477   8.702  1.0664 -0.6943  1.2430
  154MOL0     H21204   3.740   9.421   8.612  2.2293  0.1780  2.0979
  154MOL0     H21205   3.656   9.549   8.715 -2.0572  0.0196 -0.2699
  154MOL0     H21206   3.629   9.411   8.895 -0.5795 -1.1014  0.1616
  154MOL0     H21207   3.654   9.260   8.809  0.2895 -0.1942  0.8223
  154MOL0     H21208   3.899   9.298   8.805  0.0963 -2.2444  2.2814
  154MOL0     H21209   3.881   9.472   8.816 -2.4593 -0.8403 -3.2987
  154MOL0     H21210   3.869   9.419   9.253  0.6420  0.4817  3.0057
  154MOL0     H21211   4.044   9.646   9.446 -0.8641  0.2313 -2.0442
  154MOL0     H21212   4.090   9.477   9.458 -0.7418 -1.7116  0.2715
  154MOL0     H21213   3.920   9.527   9.434  0.0614 -0.1549  0.6151
  154MOL0     H21214   4.518   9.565   9.458  1.6512  0.0623 -0.0210
  154MOL0     H21215   4.710   9.667   9.565  1.0525  0.9016  1.1945
  154MOL0     H21216   4.881   9.795   9.669 -0.1593  0.2504 -0.4886
  154MOL0     H21217   4.871   9.840   9.495 -1.2064 -0.7252 -0.1502
  154MOL0     H21218   4.932  10.058   9.533 -1.9817 -0.9822 -1.7226
  154MOL0     H21219   4.971  10.012   9.700 -0.7517 -1.4014  0.6603
  154MOL0     H21220   5.116   9.943   9.438  1.6273  1.4443  0.8748
  154MOL0     H21221   5.123   9.817   9.563  0.7269  0.4014 -0.5461
  154MOL0     H21222   5.226   9.990   9.721 -1.7839  3.0493  1.4752
  154MOL0     H21223   5.165  10.101   9.598 -1.1507 -0.8815  0.9660
  154MOL0     H21224   5.388   9.887   9.563 -0.7182  0.8179  3.9033
  154MOL0     H21225   5.335   9.985   9.421  0.8571 -3.2171 -0.2673
  154MOL0     H21226   5.405  10.188   9.553 -1.2223 -0.8536  1.8672
  154MOL0     H21227   5.527  10.100   9.477  0.4424 -0.0323  0.1114
  154MOL0     H21228   5.625  10.031   9.657  0.0016  0.1924  0.3124
  154MOL0     H21229   5.478   9.978   9.741 -0.2608 -0.0490  0.2017
  154MOL0     H21230   5.588  10.142   9.874  1.3839  0.9941  0.6869
  154MOL0     H21231   5.444  10.229   9.811  0.2361  0.4243 -1.0836
  154MOL0     H21232   4.509  10.041   9.583 -3.1868  0.3823  0.4831
  154MOL0     H21233   4.311   9.943   9.472  1.0187  1.3572 -1.2104
  154MOL0     H21234   4.264   9.594   9.004 -3.2662  5.0815 -0.6495
  154MOL0     H21235   4.088   9.465   8.883 -2.5979  1.5016 -0.7969
  154MOL0     H21236   2.830   8.589   7.712 -2.9180 -2.8567 -1.6297
  154MOL0     H21237   2.650   8.419   7.746 -0.4536 -0.5802  1.0704
  154MOL0     H21238   2.594   8.006   7.966 -0.1416 -3.1340  1.7714
  154MOL0     H21239   2.471   7.792   7.991 -0.2134 -0.3411 -1.8818
  154MOL0     H21240   2.057   7.643   7.892  0.2813  0.3447 -0.5450
  154MOL0     H21241   2.057   7.816   7.855  0.6752  0.5280 -2.2398
  154MOL0     H21242   2.234   7.607   7.706  1.4805  0.5479 -0.2110
  154MOL0     H21243   2.216   7.787   7.676 -0.8403  0.8083  1.1026
  154MOL0     H21244   1.972   7.610   7.675  1.3873 -1.6614  0.3826
  154MOL0     H21245   2.008   7.735   7.554  0.4745 -1.3867 -0.9324
  154MOL0     H21246   2.084   7.462   7.545 -2.0347  0.1464  0.3563
  154MOL0     H21247   2.188   7.583   7.448 -1.4869  1.2066 -3.2568
  154MOL0     H21248   1.845   7.622   7.233  1.0708  1.2419  1.4737
  154MOL0     H21249   2.114   7.973   7.972  1.4733 -0.1531  1.3108
  154MOL0     H21250   2.062   8.206   7.972 -1.5563  2.1934 -1.4165
  154MOL0     H21251   2.207   8.314   8.018  1.9095  1.0674 -1.4189
  154MOL0     H21252   2.175   8.276   7.856  1.5602 -0.1579 -0.0793
  155MOL0     O21253  10.388   3.435   5.798 -0.2174 -0.0193  0.4499
  155MOL0     C21254  10.396   3.339   5.872 -0.3899  0.1090 -0.4833
  155MOL0     O21255  10.286   3.263   5.920  0.2044 -0.0096 -0.6064
  155MOL0     C21256  10.152   3.290   5.887 -0.1978  0.3560  0.6155
  155MOL0     C21257  10.113   3.308   5.750  0.4063  0.5251  0.1884
  155MOL0     C21258   9.981   3.350   5.709 -0.0614  0.2568  0.4396
  155MOL0     C21259   9.889   3.367   5.812  0.9197  0.5085  0.0720
  155MOL0     O21260   9.757   3.413   5.792  0.1537  0.8734  0.0740
  155MOL0     C21261   9.692   3.400   5.665  0.0478 -0.0856  0.7489
  155MOL0     C21262   9.544   3.425   5.678 -1.6752  0.5372 -0.2210
  155MOL0     C21263   9.480   3.436   5.539  0.8675 -0.3192  0.4467
  155MOL0     C21264   9.335   3.480   5.542  0.2655 -0.7133 -0.7319
  155MOL0     C21265   9.259   3.485   5.415  0.2521 -0.1235 -0.1606
  155MOL0     C21266   9.113   3.548   5.421  1.3140  0.6806 -0.1381
  155MOL0     C21267   9.086   3.685   5.482 -0.0002  0.1488 -0.4678
  155MOL0     C21268   9.177   3.793   5.431  1.0885 -1.1302 -0.4157
  155MOL0     N21269   9.138   3.925   5.482 -0.0615  0.0008 -0.3378
  155MOL0     C21270   9.046   4.012   5.436  0.1275 -0.6708  0.2617
  155MOL0     C21271   9.053   4.135   5.502 -0.3768  0.3079  0.0238
  155MOL0     C21272   8.989   4.263   5.475  0.0407 -0.7426  0.1434
  155MOL0     C21273   8.943   4.271   5.323 -0.6990 -0.7485  0.3922
  155MOL0     C21274   8.868   4.403   5.295  0.6236  0.3019 -0.4087
  155MOL0     C21275   8.868   4.429   5.150 -0.0068 -0.8271  0.1973
  155MOL0     O21276   8.823   4.565   5.139  0.0138 -0.4238 -0.9677
  155MOL0     C21277   8.801   4.622   5.015  0.1782  0.2350  0.4972
  155MOL0     C21278   8.847   4.756   4.994 -0.8468  0.3634 -0.7065
  155MOL0     C21279   8.829   4.818   4.871  0.2169 -0.1866 -0.3824
  155MOL0     C21280   8.892   4.954   4.858 -0.9842 -0.1187  0.8855
  155MOL0     C21281   8.756   4.764   4.765  0.6379 -0.1530 -0.2061
  155MOL0     C21282   8.707   4.831   4.639  0.0439  0.3105  0.6725
  155MOL0     O21283   8.635   4.741   4.550  0.1350  0.3953 -0.2651
  155MOL0     C21284   8.592   4.798   4.427 -0.0383  0.0089  0.8427
  155MOL0     C21285   8.455   4.813   4.406  0.0661  0.5631  0.0099
  155MOL0     C21286   8.400   4.854   4.284  0.9173  0.9153 -0.9773
  155MOL0     C21287   8.487   4.894   4.180 -0.2072  0.1034  0.4174
  155MOL0     O21288   8.440   4.921   4.050 -0.0209 -0.0020  0.2890
  155MOL0     C21289   8.374   4.812   3.984  0.4555 -0.6747  0.4809
  155MOL0     C21290   8.379   4.816   3.834 -0.0676 -0.9085 -0.2269
  155MOL0     C21291   8.523   4.805   3.783 -0.2681 -0.4848  0.1186
  155MOL0     C21292   8.543   4.873   3.649  0.2478  0.1646  0.1359
  155MOL0     C21293   8.481   4.788   3.533  0.9656 -1.0315 -0.5650
  155MOL0     C21294   8.520   4.827   3.397 -0.4227 -0.1265  0.3626
  155MOL0     C21295   8.428   4.774   3.281  0.0552 -0.0597 -0.5878
  155MOL0     C21296   8.498   4.768   3.139 -0.5511 -0.1892 -0.1039
  155MOL0    Cl21297   8.372   4.720   3.010 -0.3441 -0.4487  0.0411
  155MOL0     C21298   8.622   4.906   4.216 -0.5273  0.8090  0.1424
  155MOL0     C21299   8.677   4.844   4.330  0.2739 -0.4830  0.1124
  155MOL0     O21300   8.747   4.946   4.608  0.2086 -0.2510  0.0772
  155MOL0     C21301   8.708   4.627   4.790  0.2452 -0.6024 -0.6090
  155MOL0     C21302   8.732   4.565   4.914  0.2490 -0.0974  0.0553
  155MOL0     N21303   9.147   4.114   5.601  0.2825  0.1930  0.2860
  155MOL0     N21304   9.205   3.994   5.576  0.8908 -0.2483 -0.2086
  155MOL0     C21305   9.921   3.333   5.944  0.7790  0.0127  0.2957
  155MOL0     C21306  10.049   3.292   5.978  0.4014  0.0190 -0.4053
  155MOL0     C21307  10.521   3.330   5.940 -0.2614 -0.1031  0.5072
  155MOL0     C21308  10.527   3.335   6.081 -0.0543 -0.1693 -0.1988
  155MOL0     C21309  10.643   3.308   6.148  0.6529  0.0114  0.5895
  155MOL0     C21310  10.762   3.278   6.072 -0.0368 -0.4473 -0.2201
  155MOL0     O21311  10.887   3.241   6.130  0.1631 -0.4138 -0.0878
  155MOL0     C21312  10.924   3.279   6.259  0.6084  0.6068 -1.0132
  155MOL0     C21313  11.066   3.232   6.285 -0.3395 -0.0740  0.5887
  155MOL0     C21314  11.174   3.341   6.295 -0.3585 -0.3500  0.2225
  155MOL0     C21315  11.172   3.457   6.194 -0.0071  0.0155  0.4219
  155MOL0     C21316  11.274   3.555   6.221  0.2161  0.3536  0.4437
  155MOL0     C21317  11.364   3.625   6.232 -0.8488  0.0460 -0.4092
  155MOL0     C21318  10.749   3.264   5.936 -0.6901 -0.6714  0.3055
  155MOL0     C21319  10.628   3.282   5.870  0.5253 -0.0215 -0.5612
  155MOL0     C21320  10.629   3.240   5.723 -0.0461 -0.5211 -0.1983
  155MOL0     H21321  10.191   3.282   5.679  1.5813  0.2404  1.5363
  155MOL0     H21322   9.957   3.362   5.604  0.0565  1.2634  0.5162
  155MOL0     H21323   9.704   3.294   5.642 -1.8197  0.0601 -1.2063
  155MOL0     H21324   9.739   3.457   5.584  1.8889 -2.9956 -0.3964
  155MOL0     H21325   9.501   3.332   5.716 -1.2006  0.8001  1.0318
  155MOL0     H21326   9.530   3.520   5.731  0.1554  0.2290  0.9220
  155MOL0     H21327   9.522   3.514   5.475 -1.1883  0.5813  0.1133
  155MOL0     H21328   9.487   3.343   5.482  1.7348  0.9663 -1.6520
  155MOL0     H21329   9.266   3.418   5.599 -2.7987  2.6489 -0.4456
  155MOL0     H21330   9.327   3.572   5.600  1.4020 -1.9983  1.5857
  155MOL0     H21331   9.259   3.384   5.374 -1.8656 -0.1114 -0.3136
  155MOL0     H21332   9.308   3.554   5.346  3.0754 -1.4943  0.3559
  155MOL0     H21333   9.067   3.553   5.322 -1.3353  1.9124  1.0295
  155MOL0     H21334   9.044   3.480   5.471 -2.2320  2.5210 -2.1212
  155MOL0     H21335   9.090   3.674   5.591 -2.0424 -4.3789 -0.6112
  155MOL0     H21336   8.982   3.710   5.458 -0.2815 -1.6738 -1.3274
  155MOL0     H21337   9.280   3.786   5.468  0.6627 -0.3827  0.9765
  155MOL0     H21338   9.182   3.792   5.322  0.4180 -0.8157 -0.4574
  155MOL0     H21339   8.979   3.999   5.352 -0.2533  2.3755 -0.0203
  155MOL0     H21340   9.059   4.336   5.517  0.0602 -1.7114  1.8968
  155MOL0     H21341   8.901   4.281   5.537  2.7791  3.5239  3.3036
  155MOL0     H21342   9.037   4.260   5.269  0.7158  2.2880  2.0017
  155MOL0     H21343   8.883   4.183   5.301  0.4349 -1.3558 -0.3411
  155MOL0     H21344   8.771   4.383   5.341  1.1709  0.3106  0.7895
  155MOL0     H21345   8.936   4.474   5.344  0.9355 -0.0142 -0.3791
  155MOL0     H21346   8.970   4.421   5.112  0.3777 -2.4047  1.4119
  155MOL0     H21347   8.806   4.353   5.101  1.3033  0.9691 -4.8055
  155MOL0     H21348   8.903   4.807   5.072 -0.7177  0.7192 -1.0292
  155MOL0     H21349   8.820   5.033   4.832 -4.0190 -1.3854  4.5438
  155MOL0     H21350   8.971   4.938   4.784 -1.9209  0.5191 -0.2875
  155MOL0     H21351   8.940   4.982   4.952  2.0990 -0.9488 -0.3304
  155MOL0     H21352   8.408   4.775   4.496  1.7277 -1.5852  0.0284
  155MOL0     H21353   8.293   4.867   4.276  0.3362 -0.3793  2.7922
  155MOL0     H21354   8.419   4.717   4.016  1.3910 -0.3983  0.0331
  155MOL0     H21355   8.269   4.806   4.011 -0.2198 -3.6017 -2.1582
  155MOL0     H21356   8.322   4.733   3.791 -0.9669 -0.3470 -0.1469
  155MOL0     H21357   8.335   4.914   3.809 -2.1214 -1.6950  0.1065
  155MOL0     H21358   8.556   4.701   3.778  0.2536 -0.2730 -1.1333
  155MOL0     H21359   8.596   4.848   3.852  1.9452 -1.8747 -1.2631
  155MOL0     H21360   8.651   4.890   3.641  0.8353 -2.3407  1.6939
  155MOL0     H21361   8.491   4.968   3.665  0.3786  0.0927  1.0191
  155MOL0     H21362   8.511   4.685   3.556  0.8102 -1.6529 -2.9295
  155MOL0     H21363   8.372   4.790   3.538  0.8805  2.5975 -1.3409
  155MOL0     H21364   8.625   4.802   3.378 -0.8678 -0.2344 -2.3997
  155MOL0     H21365   8.505   4.935   3.384  2.0663  0.3459  0.9982
  155MOL0     H21366   8.348   4.848   3.285 -1.8068 -1.9149 -1.3691
  155MOL0     H21367   8.381   4.677   3.301  0.1889  0.2435  1.4100
  155MOL0     H21368   8.582   4.698   3.139  0.3802  0.9037 -0.3128
  155MOL0     H21369   8.548   4.862   3.113 -1.1188  0.4972  1.1602
  155MOL0     H21370   8.679   4.959   4.140 -1.3085 -0.2261 -1.2256
  155MOL0     H21371   8.782   4.846   4.355 -0.0990  1.0847  1.7973
  155MOL0     H21372   8.639   4.584   4.719  0.3312  2.5022 -2.7723
  155MOL0     H21373   8.688   4.467   4.927  0.2273 -0.0572  0.3091
  155MOL0     H21374   9.838   3.349   6.012  0.1154  0.0852 -0.5110
  155MOL0     H21375  10.073   3.275   6.082  2.2327 -3.2909 -1.2364
  155MOL0     H21376  10.440   3.367   6.138  0.6839 -0.4156  1.1263
  155MOL0     H21377  10.653   3.319   6.255  0.3810  0.8236  0.5395
  155MOL0     H21378  10.912   3.387   6.273 -1.0666  0.4468 -1.0336
  155MOL0     H21379  10.857   3.220   6.322  0.5718  0.0177 -1.5976
  155MOL0     H21380  11.085   3.149   6.217 -0.5016  0.3523  0.0209
  155MOL0     H21381  11.053   3.178   6.380 -0.3598  1.6397  1.6063
  155MOL0     H21382  11.151   3.388   6.392  3.4552  2.9069 -0.1829
  155MOL0     H21383  11.272   3.294   6.304  0.0360  0.5694  0.9786
  155MOL0     H21384  11.078   3.513   6.192 -1.6323 -2.5701  0.0926
  155MOL0     H21385  11.188   3.410   6.097 -2.4708  1.3359 -0.7070
  155MOL0     H21386  11.440   3.701   6.240 -1.2975  0.7668 -2.3390
  155MOL0     H21387  10.839   3.241   5.880 -0.3184  1.5437 -0.1346
  155MOL0     H21388  10.615   3.132   5.713 -1.3604 -0.3163 -0.7552
  155MOL0     H21389  10.567   3.297   5.653  1.3942 -0.5559 -1.5537
  155MOL0     H21390  10.727   3.259   5.678  0.6343 -0.0018  1.4348
  156MOL0     O21391   3.590   7.598   7.307  0.4544  0.0171  0.4922
  156MOL0     C21392   3.545   7.575   7.424 -0.5819 -0.2927 -0.1412
  156MOL0     O21393   3.610   7.586   7.543 -0.8037  0.0804  0.0807
  156MOL0     C21394   3.741   7.600   7.567 -0.7772 -0.0271 -0.5229
  156MOL0     C21395   3.838   7.625   7.471  0.8016  0.3940 -0.3870
  156MOL0     C21396   3.972   7.641   7.513 -0.8229 -0.2945 -0.1704
  156MOL0     C21397   4.019   7.616   7.641 -0.6358 -0.3524 -0.5294
  156MOL0     O21398   4.158   7.643   7.675  0.1296 -0.6825 -0.4160
  156MOL0     C21399   4.263   7.620   7.579 -0.0881  0.1743 -0.0960
  156MOL0     C21400   4.297   7.762   7.514 -0.1405  1.5633  0.7465
  156MOL0     C21401   4.396   7.757   7.398  0.0129  0.4112 -0.5417
  156MOL0     C21402   4.459   7.894   7.394 -0.4062 -0.8916 -0.4847
  156MOL0     C21403   4.507   7.913   7.245  0.0951  0.5424  0.8847
  156MOL0     C21404   4.584   8.040   7.221  0.0909  1.4248 -0.2114
  156MOL0     C21405   4.631   8.057   7.070 -0.2196 -0.6144 -0.2532
  156MOL0     C21406   4.712   8.184   7.057  0.0230 -0.1422  0.6712
  156MOL0     N21407   4.771   8.206   6.922 -0.0684 -0.0111 -0.3079
  156MOL0     C21408   4.715   8.263   6.806  0.0756 -0.6453 -0.0724
  156MOL0     C21409   4.802   8.254   6.710 -1.3073 -0.2943 -0.3678
  156MOL0     C21410   4.806   8.301   6.563  0.8143  0.9562 -0.3013
  156MOL0     C21411   4.902   8.416   6.541  0.1898  0.3007  0.3329
  156MOL0     C21412   4.924   8.461   6.396 -0.1628  0.4717 -0.1682
  156MOL0     C21413   4.811   8.497   6.309  0.3905 -0.6470  1.0564
  156MOL0     O21414   4.736   8.608   6.363 -0.7577 -0.3570 -0.4862
  156MOL0     C21415   4.617   8.620   6.303  0.6713 -0.3931  0.0965
  156MOL0     C21416   4.506   8.662   6.380 -0.3031 -0.0318  0.1929
  156MOL0     C21417   4.382   8.688   6.330 -0.0366  0.3453 -1.1523
  156MOL0     C21418   4.274   8.733   6.431  0.1253 -0.1998  0.4520
  156MOL0     C21419   4.360   8.672   6.191  0.4471  0.3019  0.5793
  156MOL0     C21420   4.219   8.698   6.141 -0.4318 -0.4962 -0.3402
  156MOL0     O21421   4.170   8.590   6.085 -0.6753 -0.2071  0.0975
  156MOL0     C21422   4.032   8.592   6.076 -0.6112 -0.0359 -0.1455
  156MOL0     C21423   3.979   8.599   5.953 -1.2722 -1.1734  0.1536
  156MOL0     C21424   3.843   8.597   5.931  0.2101  1.1330 -0.9500
  156MOL0     C21425   3.755   8.579   6.042 -0.1069  0.0649 -0.7889
  156MOL0     O21426   3.618   8.555   6.036  0.5131  0.5393  0.7320
  156MOL0     C21427   3.567   8.487   5.918  0.6256 -0.4359  0.9108
  156MOL0     C21428   3.419   8.454   5.927 -0.0356 -0.3647  0.6621
  156MOL0     C21429   3.334   8.583   5.923  0.0326 -0.4376  0.0703
  156MOL0     C21430   3.187   8.549   5.908 -0.0618  0.3675  1.2441
  156MOL0     C21431   3.103   8.666   5.953 -0.1598  0.9543  1.1642
  156MOL0     C21432   2.967   8.673   5.875  0.1147  0.6271  0.2774
  156MOL0     C21433   2.866   8.782   5.930  0.1649  0.7617  0.4587
  156MOL0     C21434   2.736   8.789   5.840  0.1939 -0.2656  0.0327
  156MOL0    Cl21435   2.668   8.632   5.799 -0.2338 -0.1648 -0.5220
  156MOL0     C21436   3.806   8.592   6.166 -0.7863  0.4837 -0.0706
  156MOL0     C21437   3.946   8.596   6.191 -0.6890  0.7212 -0.5026
  156MOL0     O21438   4.155   8.804   6.164 -0.5907 -0.0957  0.6198
  156MOL0     C21439   4.463   8.626   6.110 -0.2526 -0.0352  0.1628
  156MOL0     C21440   4.593   8.602   6.165  0.3330  0.0517  0.3182
  156MOL0     N21441   4.923   8.204   6.765  0.2900 -0.1967  0.2949
  156MOL0     N21442   4.904   8.174   6.893  0.2815 -0.6233  0.0763
  156MOL0     C21443   3.924   7.594   7.737  0.1675 -0.0050 -0.0257
  156MOL0     C21444   3.788   7.587   7.700 -0.1443  0.0670 -0.1072
  156MOL0     C21445   3.400   7.537   7.445  0.3536 -0.3200  0.4118
  156MOL0     C21446   3.360   7.474   7.570  0.2059  0.8498 -0.3570
  156MOL0     C21447   3.221   7.434   7.587 -0.3231 -0.2800 -0.3175
  156MOL0     C21448   3.126   7.454   7.494 -0.4537 -1.4198  0.6745
  156MOL0     O21449   2.993   7.418   7.506  0.0605 -0.3217 -0.1393
  156MOL0     C21450   2.956   7.284   7.567 -0.1965  0.9982  1.2574
  156MOL0     C21451   2.913   7.191   7.453 -0.8522  0.3822 -0.1779
  156MOL0     C21452   2.905   7.043   7.489 -0.2446 -0.0489 -0.5690
  156MOL0     C21453   2.820   6.998   7.595  0.4690  0.9129 -0.3035
  156MOL0     C21454   2.692   7.080   7.603  0.0600  0.6144  0.8294
  156MOL0     C21455   2.595   7.144   7.613 -0.0248  0.0846 -0.4720
  156MOL0     C21456   3.169   7.538   7.379 -0.2656  0.6955  0.0224
  156MOL0     C21457   3.295   7.574   7.353  0.1958  0.4310  0.6017
  156MOL0     C21458   3.320   7.652   7.225  0.2495 -1.1141  0.3715
  156MOL0     H21459   3.808   7.633   7.367  2.0061 -0.8230 -0.8508
  156MOL0     H21460   4.033   7.694   7.440 -0.1102  2.0709  1.9738
  156MOL0     H21461   4.236   7.541   7.509 -0.0216  0.4763 -0.4663
  156MOL0     H21462   4.348   7.588   7.639  0.6324  1.2547 -0.5149
  156MOL0     H21463   4.207   7.818   7.486 -1.7970 -1.2611  0.0545
  156MOL0     H21464   4.342   7.820   7.596  2.7806  0.6671 -0.1017
  156MOL0     H21465   4.477   7.688   7.425 -0.0604  0.8647  0.9217
  156MOL0     H21466   4.336   7.718   7.316  0.6870 -2.2347  0.1107
  156MOL0     H21467   4.388   7.972   7.421  1.8202  1.1879 -0.2257
  156MOL0     H21468   4.535   7.901   7.473  0.3214  0.9664 -1.2817
  156MOL0     H21469   4.430   7.903   7.168  1.1528 -2.0429  0.0689
  156MOL0     H21470   4.574   7.828   7.234 -0.0403  0.5726 -0.2324
  156MOL0     H21471   4.513   8.121   7.236 -1.7552  0.0707 -1.1577
  156MOL0     H21472   4.663   8.040   7.296 -1.0556  0.4048  1.0729
  156MOL0     H21473   4.548   8.054   6.999  0.2216 -0.9014 -0.7629
  156MOL0     H21474   4.702   7.977   7.046  0.2647 -0.6941  1.2805
  156MOL0     H21475   4.651   8.269   7.087  0.4734 -0.1626  1.6754
  156MOL0     H21476   4.801   8.168   7.117  0.6498  1.0417  0.0801
  156MOL0     H21477   4.615   8.302   6.793  1.1821  3.3778  1.7461
  156MOL0     H21478   4.703   8.329   6.537 -1.1924 -5.1284 -0.3908
  156MOL0     H21479   4.830   8.226   6.487 -3.5613 -0.7234 -0.3024
  156MOL0     H21480   4.870   8.501   6.602 -2.7889  0.0424 -0.6836
  156MOL0     H21481   4.998   8.391   6.586  0.2355  0.9806  0.6250
  156MOL0     H21482   4.977   8.556   6.397  0.3470  0.1996  0.8751
  156MOL0     H21483   4.998   8.392   6.354  1.5263  1.3228  1.2642
  156MOL0     H21484   4.855   8.530   6.214 -1.9753  3.0939  1.0672
  156MOL0     H21485   4.743   8.414   6.289 -1.3783  0.9544  0.1328
  156MOL0     H21486   4.513   8.673   6.488  0.9449 -1.3335  0.2764
  156MOL0     H21487   4.274   8.686   6.529  1.0564  0.0989  0.6058
  156MOL0     H21488   4.175   8.710   6.389 -1.5170  2.0323  2.7714
  156MOL0     H21489   4.280   8.842   6.430 -0.4671 -0.0950 -2.4180
  156MOL0     H21490   4.057   8.612   5.878 -0.7427  1.3421  1.0620
  156MOL0     H21491   3.806   8.606   5.830 -1.9391 -2.6103 -0.6884
  156MOL0     H21492   3.584   8.542   5.825  2.4356 -3.5777 -0.8095
  156MOL0     H21493   3.622   8.398   5.884  2.9256  1.6328 -1.2572
  156MOL0     H21494   3.386   8.391   5.844 -0.5902  2.3632 -1.3176
  156MOL0     H21495   3.400   8.388   6.013 -3.0789 -1.2101 -0.5472
  156MOL0     H21496   3.351   8.647   5.836 -0.8615 -0.5875 -0.2273
  156MOL0     H21497   3.349   8.630   6.021  1.9788  1.1775 -0.9194
  156MOL0     H21498   3.162   8.459   5.965  0.6001  0.3076  1.4401
  156MOL0     H21499   3.168   8.527   5.802 -2.7006 -2.3761  2.1334
  156MOL0     H21500   3.077   8.655   6.059 -1.2014  0.9395  0.9120
  156MOL0     H21501   3.159   8.759   5.936 -0.7802  1.1273 -0.0084
  156MOL0     H21502   2.914   8.580   5.898 -0.6311  1.4247  1.9656
  156MOL0     H21503   2.995   8.683   5.770 -0.2850 -1.2986 -0.0643
  156MOL0     H21504   2.914   8.881   5.931  1.3408  0.2753 -1.6032
  156MOL0     H21505   2.836   8.750   6.030  1.1055  1.6222  1.0481
  156MOL0     H21506   2.756   8.842   5.746  0.2883  0.0925  0.2558
  156MOL0     H21507   2.660   8.848   5.893 -0.4523 -0.7208 -0.3621
  156MOL0     H21508   3.748   8.590   6.258  1.9565  0.1247  1.7696
  156MOL0     H21509   3.987   8.617   6.289 -0.9978 -2.1447  0.3408
  156MOL0     H21510   4.450   8.620   6.003  1.9611 -1.8935 -0.0814
  156MOL0     H21511   4.681   8.586   6.103  0.3460  1.1348  0.0409
  156MOL0     H21512   3.951   7.603   7.841 -1.1856  0.1275  0.3311
  156MOL0     H21513   3.716   7.591   7.781  1.2139  1.3696  1.1060
  156MOL0     H21514   3.430   7.447   7.648 -0.5993  1.8478  0.7407
  156MOL0     H21515   3.198   7.395   7.686  3.1787  0.0402  0.7884
  156MOL0     H21516   3.042   7.236   7.615  1.0133 -1.2232 -2.6635
  156MOL0     H21517   2.867   7.298   7.629 -3.3883 -0.2916 -2.6105
  156MOL0     H21518   2.993   7.199   7.379  2.1471 -1.8448  2.5594
  156MOL0     H21519   2.825   7.234   7.402 -2.0378 -2.0129 -0.3044
  156MOL0     H21520   2.873   6.985   7.402 -1.1580 -1.4564  0.6473
  156MOL0     H21521   3.009   7.016   7.510  0.6012  2.2006 -1.6614
  156MOL0     H21522   2.871   7.011   7.691  3.1916  0.8700 -1.6681
  156MOL0     H21523   2.797   6.892   7.586 -3.0368  1.1050  3.2639
  156MOL0     H21524   2.503   7.198   7.624 -0.9236 -1.2484 -1.2345
  156MOL0     H21525   3.099   7.571   7.302  0.1207  0.2821 -0.5084
  156MOL0     H21526   3.379   7.584   7.162  1.2211  0.4999 -0.5430
  156MOL0     H21527   3.237   7.676   7.158 -0.1466 -0.5646  1.0513
  156MOL0     H21528   3.380   7.741   7.249  1.8156 -2.0473  0.0772
  157MOL0     O21529   0.420   5.414   5.872 -0.4756 -0.2421  0.0876
  157MOL0     C21530   0.472   5.472   5.969  0.1183  0.6535  0.0291
  157MOL0     O21531   0.420   5.578   6.034  0.1469 -0.5123 -0.4393
  157MOL0     C21532   0.306   5.631   5.990  0.1407  0.0608  0.4555
  157MOL0     C21533   0.297   5.690   5.858 -0.5512 -0.6360 -0.0116
  157MOL0     C21534   0.174   5.735   5.814  0.3557  0.3228  0.2549
  157MOL0     C21535   0.061   5.732   5.891 -0.3862  0.1781 -0.3424
  157MOL0     O21536  -0.061   5.781   5.854  0.3346  0.3172 -0.4196
  157MOL0     C21537  -0.073   5.852   5.731  0.0494 -0.5767  0.4756
  157MOL0     C21538  -0.092   5.750   5.615  0.1143  0.0237 -0.0880
  157MOL0     C21539  -0.197   5.786   5.509  0.5320 -0.0998  1.4493
  157MOL0     C21540  -0.155   5.737   5.367  0.0372 -0.3184  0.1102
  157MOL0     C21541  -0.037   5.805   5.300 -0.7115 -0.2593 -0.0448
  157MOL0     C21542   0.025   5.709   5.202  0.1438  0.6397 -0.2972
  157MOL0     C21543   0.150   5.770   5.151  0.5175 -0.6206 -0.1821
  157MOL0     C21544   0.208   5.678   5.040 -0.5823  0.0139 -0.3689
  157MOL0     N21545   0.326   5.759   5.002  0.2506  0.3526  1.2754
  157MOL0     C21546   0.337   5.862   4.913  0.1928  0.5154 -0.0006
  157MOL0     C21547   0.459   5.917   4.930  1.4497  0.3284  0.3448
  157MOL0     C21548   0.529   6.022   4.845 -0.1585 -0.3551  0.2119
  157MOL0     C21549   0.560   6.154   4.910  0.4255 -0.5530 -0.2656
  157MOL0     C21550   0.621   6.132   5.041 -0.3616 -0.4175 -0.0982
  157MOL0     C21551   0.687   6.256   5.107  1.0590 -0.2993  0.3892
  157MOL0     O21552   0.811   6.277   5.036  0.1019  0.4159 -1.0452
  157MOL0     C21553   0.891   6.388   5.075 -1.2580  0.5485 -0.2800
  157MOL0     C21554   0.999   6.413   4.999  0.5867 -1.6473  0.4262
  157MOL0     C21555   1.083   6.518   5.021  0.0236  0.6403  0.3395
  157MOL0     C21556   1.196   6.534   4.918 -0.2958  0.0597  0.4024
  157MOL0     C21557   1.058   6.612   5.132  0.6270 -0.2583 -0.7424
  157MOL0     C21558   1.143   6.724   5.183 -0.6286 -0.6188  0.2812
  157MOL0     O21559   1.090   6.802   5.277  0.7395  0.6645  0.0380
  157MOL0     C21560   1.172   6.899   5.338 -0.4271 -0.0875  0.4895
  157MOL0     C21561   1.178   7.025   5.287 -0.6097 -0.6223  0.0886
  157MOL0     C21562   1.260   7.131   5.344 -0.3518 -0.4852 -0.6568
  157MOL0     C21563   1.320   7.108   5.468  0.6393  0.0380  0.5644
  157MOL0     O21564   1.382   7.207   5.540  0.0384  0.0086  0.2229
  157MOL0     C21565   1.457   7.309   5.466 -0.4085 -0.3771 -0.0594
  157MOL0     C21566   1.546   7.381   5.559 -1.2188 -0.4283  0.1692
  157MOL0     C21567   1.617   7.303   5.673 -0.1967  0.9303 -1.1306
  157MOL0     C21568   1.719   7.395   5.749 -0.6673 -0.0942 -0.6919
  157MOL0     C21569   1.791   7.318   5.860 -0.3080  0.5484 -0.5498
  157MOL0     C21570   1.913   7.241   5.813 -0.5242  0.2872 -0.1366
  157MOL0     C21571   2.032   7.223   5.924  0.0472 -0.6899 -0.6974
  157MOL0     C21572   2.159   7.155   5.864 -0.1029  0.3593 -0.3154
  157MOL0    Cl21573   2.129   6.984   5.860 -0.3596 -0.0460  0.6153
  157MOL0     C21574   1.302   6.984   5.527  0.3759  0.4343  0.2473
  157MOL0     C21575   1.246   6.880   5.456  0.4288 -0.0914  0.0073
  157MOL0     O21576   1.247   6.749   5.128 -0.6932  0.1372 -0.1284
  157MOL0     C21577   0.947   6.573   5.218 -0.1134  0.3564 -0.2696
  157MOL0     C21578   0.868   6.463   5.191  0.0001 -0.0704  0.1477
  157MOL0     N21579   0.523   5.847   5.025 -0.8400  0.4233  0.0258
  157MOL0     N21580   0.451   5.753   5.056  0.9778 -0.1019  0.6001
  157MOL0     C21581   0.079   5.679   6.021  0.7124 -1.7221 -0.0794
  157MOL0     C21582   0.195   5.632   6.077 -0.1932  0.3759  0.2668
  157MOL0     C21583   0.601   5.403   6.017  0.1181 -0.5040 -0.1893
  157MOL0     C21584   0.660   5.460   6.130 -0.4991  0.1273 -0.2804
  157MOL0     C21585   0.754   5.393   6.208 -0.5005  0.1364 -0.1397
  157MOL0     C21586   0.792   5.263   6.165 -0.1729 -0.0751 -0.2451
  157MOL0     O21587   0.884   5.183   6.226 -0.2730  0.2970  0.0875
  157MOL0     C21588   1.006   5.247   6.268  0.2064 -0.7817 -0.1416
  157MOL0     C21589   1.122   5.149   6.266  0.1255 -0.1553 -0.4880
  157MOL0     C21590   1.161   5.115   6.116  0.7181 -0.4049  0.4109
  157MOL0     C21591   1.304   5.065   6.116  0.2885 -0.8085  0.1919
  157MOL0     C21592   1.396   5.181   6.116 -0.1130 -0.0217 -0.8671
  157MOL0     C21593   1.490   5.260   6.102  0.2007  0.4333 -1.3273
  157MOL0     C21594   0.757   5.216   6.045 -0.7745 -0.3502  0.7531
  157MOL0     C21595   0.664   5.286   5.976 -0.1206 -0.3636 -0.4363
  157MOL0     C21596   0.621   5.227   5.843 -0.5100 -0.0191 -0.3754
  157MOL0     H21597   0.382   5.694   5.791 -0.3004  0.9547  0.3609
  157MOL0     H21598   0.178   5.781   5.715 -3.3242 -0.8289 -0.5896
  157MOL0     H21599   0.010   5.918   5.703 -0.2788  0.1058  1.0622
  157MOL0     H21600  -0.152   5.928   5.733 -3.3823 -3.8869  0.6526
  157MOL0     H21601   0.001   5.722   5.565  0.2960  0.8799 -0.2505
  157MOL0     H21602  -0.136   5.662   5.662 -2.5345  2.7634  3.1009
  157MOL0     H21603  -0.291   5.736   5.532  1.4597 -1.2704  2.9053
  157MOL0     H21604  -0.215   5.893   5.516 -1.6537 -0.4631  2.0657
  157MOL0     H21605  -0.142   5.629   5.377 -2.1289 -0.6786 -0.4710
  157MOL0     H21606  -0.242   5.750   5.301  1.5030  3.3182 -1.3711
  157MOL0     H21607   0.038   5.831   5.375 -0.8012  2.3673 -0.7554
  157MOL0     H21608  -0.073   5.900   5.259 -2.4532 -1.5203 -1.6103
  157MOL0     H21609   0.047   5.621   5.262  0.9458  0.8947 -0.1995
  157MOL0     H21610  -0.041   5.677   5.121 -0.5168 -0.7536  0.7650
  157MOL0     H21611   0.214   5.785   5.239  3.3658  1.1017 -2.3355
  157MOL0     H21612   0.121   5.868   5.110  1.2489 -0.9659 -1.6157
  157MOL0     H21613   0.224   5.579   5.084 -2.1947  1.1692  3.2002
  157MOL0     H21614   0.160   5.676   4.941 -1.7668  1.2187  0.1489
  157MOL0     H21615   0.269   5.881   4.831  2.0842 -1.3253 -2.1351
  157MOL0     H21616   0.470   6.035   4.754  0.4615  0.0340 -0.1387
  157MOL0     H21617   0.620   5.970   4.815  1.0042  1.4429  0.4826
  157MOL0     H21618   0.632   6.215   4.855 -0.1638  0.9533  0.5575
  157MOL0     H21619   0.468   6.213   4.919  0.0698 -1.0797 -0.4179
  157MOL0     H21620   0.537   6.115   5.109 -2.9209  0.3707 -2.8616
  157MOL0     H21621   0.690   6.047   5.044  0.7519  0.4290 -0.8599
  157MOL0     H21622   0.626   6.347   5.100  0.1543 -0.8033  1.4105
  157MOL0     H21623   0.712   6.240   5.212  0.0646 -0.4890  0.6075
  157MOL0     H21624   1.013   6.356   4.907  1.0932 -1.7038  0.5398
  157MOL0     H21625   1.180   6.634   4.876 -2.3704  0.5419  2.1286
  157MOL0     H21626   1.193   6.456   4.842  1.9693 -2.3875  2.6338
  157MOL0     H21627   1.292   6.530   4.971 -1.3479 -0.2100  2.3965
  157MOL0     H21628   1.147   7.052   5.186  1.2298  0.4512 -0.2416
  157MOL0     H21629   1.263   7.235   5.312 -1.2499 -0.9513 -2.3530
  157MOL0     H21630   1.518   7.265   5.387  2.9281  1.7180  1.1555
  157MOL0     H21631   1.384   7.386   5.437  0.9388  1.6580  1.6746
  157MOL0     H21632   1.629   7.402   5.491 -0.6226 -3.3328 -0.1333
  157MOL0     H21633   1.498   7.476   5.586  1.2979  1.5510 -1.7866
  157MOL0     H21634   1.682   7.228   5.628  1.2420  0.3865  1.6299
  157MOL0     H21635   1.540   7.259   5.737  1.0174 -0.3856 -0.5207
  157MOL0     H21636   1.660   7.483   5.777 -0.4823  0.5136 -2.1067
  157MOL0     H21637   1.791   7.424   5.672  0.9622  0.5809  0.9941
  157MOL0     H21638   1.837   7.387   5.932 -1.1265 -0.0326  0.5449
  157MOL0     H21639   1.726   7.243   5.904 -0.1578 -0.2709 -1.6662
  157MOL0     H21640   1.946   7.296   5.724 -2.9487  2.0075 -0.0639
  157MOL0     H21641   1.878   7.138   5.797 -1.2894  0.0350  2.6087
  157MOL0     H21642   2.005   7.172   6.017  0.5318  1.1571  0.5070
  157MOL0     H21643   2.063   7.323   5.955 -0.8947 -0.0734 -1.6417
  157MOL0     H21644   2.257   7.157   5.913  1.0521  0.3124 -2.4775
  157MOL0     H21645   2.181   7.195   5.764  2.2145 -2.5659 -1.1079
  157MOL0     H21646   1.329   6.971   5.631 -1.0448  0.0775  0.5935
  157MOL0     H21647   1.231   6.776   5.483  1.4329 -1.0673 -2.8207
  157MOL0     H21648   0.922   6.629   5.307 -1.1229 -0.3640 -0.0835
  157MOL0     H21649   0.799   6.427   5.266  0.7449 -0.6118  0.5864
  157MOL0     H21650  -0.003   5.711   6.085  1.2046 -2.0645  0.7380
  157MOL0     H21651   0.223   5.616   6.181  0.6553  1.5512  0.2372
  157MOL0     H21652   0.621   5.554   6.169 -1.2447  0.3235 -1.4466
  157MOL0     H21653   0.793   5.444   6.295  0.7628 -0.6822 -0.2156
  157MOL0     H21654   1.031   5.335   6.208 -0.9563 -0.6175 -0.4197
  157MOL0     H21655   0.985   5.292   6.366 -2.7945 -2.3919  0.0878
  157MOL0     H21656   1.108   5.055   6.321  0.3216  0.5256  0.7594
  157MOL0     H21657   1.211   5.197   6.309 -0.2759  3.4116 -3.1870
  157MOL0     H21658   1.095   5.041   6.070 -0.3918  2.0927 -2.3728
  157MOL0     H21659   1.158   5.199   6.046  1.3461 -2.9975 -2.9676
  157MOL0     H21660   1.323   5.008   6.025  2.0780  0.6744 -0.4339
  157MOL0     H21661   1.319   5.004   6.206 -2.0610 -1.2129  0.3601
  157MOL0     H21662   1.565   5.336   6.107 -0.4818  1.0855  2.6603
  157MOL0     H21663   0.821   5.137   6.008  0.5252  0.0583  2.0587
  157MOL0     H21664   0.618   5.302   5.763 -1.7452  0.8871  0.5023
  157MOL0     H21665   0.701   5.161   5.808  0.9190  2.2881 -1.7801
  157MOL0     H21666   0.523   5.179   5.842  0.0413 -1.2062 -1.6795
  158MOL0     O21667   0.479  10.642   5.645 -0.0953  0.1924 -0.0581
  158MOL0     C21668   0.387  10.595   5.584  0.3366 -0.9594  0.8461
  158MOL0     O21669   0.374  10.458   5.545 -0.4594 -0.5677 -0.1947
  158MOL0     C21670   0.486  10.385   5.577  0.2886  0.5158  0.3342
  158MOL0     C21671   0.588  10.380   5.497 -1.3439 -0.1070 -0.1988
  158MOL0     C21672   0.695  10.297   5.520 -0.2137  0.5437 -0.5406
  158MOL0     C21673   0.710  10.217   5.644  1.0646 -0.6244  0.5063
  158MOL0     O21674   0.795  10.106   5.658  1.1139 -0.4920 -0.4170
  158MOL0     C21675   0.727   9.984   5.682 -1.0664  0.4066  0.5211
  158MOL0     C21676   0.650   9.921   5.561 -0.0788  0.3685 -0.3617
  158MOL0     C21677   0.749   9.855   5.461  0.2987  0.1815 -0.3980
  158MOL0     C21678   0.674   9.748   5.390  0.3749 -0.5502 -0.1395
  158MOL0     C21679   0.749   9.692   5.257  0.5863 -0.0525 -1.0309
  158MOL0     C21680   0.702   9.550   5.206  0.1168  0.0471  0.0730
  158MOL0     C21681   0.810   9.475   5.124 -0.0191  0.1164 -0.9410
  158MOL0     C21682   0.826   9.532   4.983 -0.5657  0.9147  0.7728
  158MOL0     N21683   0.926   9.454   4.908  0.0393 -0.7833  0.3333
  158MOL0     C21684   1.043   9.501   4.853 -0.2120 -0.2559  0.5832
  158MOL0     C21685   1.096   9.389   4.802  0.1635  0.3371 -0.6644
  158MOL0     C21686   1.223   9.383   4.712  0.2356 -0.4464  0.4004
  158MOL0     C21687   1.348   9.327   4.787  0.5065 -0.3570 -0.4900
  158MOL0     C21688   1.386   9.403   4.921  0.2169  0.3720  0.3108
  158MOL0     C21689   1.527   9.370   4.969 -1.2413 -0.1688 -0.1933
  158MOL0     O21690   1.541   9.406   5.103  0.5361  0.0096  0.2721
  158MOL0     C21691   1.667   9.374   5.152 -0.1386  0.0043 -0.2261
  158MOL0     C21692   1.754   9.272   5.109 -0.2762  0.5389  0.0986
  158MOL0     C21693   1.879   9.254   5.163  0.1569  0.0585 -0.4879
  158MOL0     C21694   1.959   9.135   5.108  0.4129  0.0911  0.3122
  158MOL0     C21695   1.923   9.338   5.262 -0.4991  0.1112  0.6893
  158MOL0     C21696   2.057   9.342   5.326 -0.4651  0.3309 -0.5134
  158MOL0     O21697   2.125   9.459   5.302 -0.2547 -0.2196 -0.0409
  158MOL0     C21698   2.221   9.500   5.389 -0.3681 -0.4531 -0.6336
  158MOL0     C21699   2.204   9.548   5.527 -0.4485 -0.5154  0.2013
  158MOL0     C21700   2.312   9.584   5.601  0.1532 -0.1262 -0.0520
  158MOL0     C21701   2.450   9.584   5.548 -0.6455 -0.6139  0.4187
  158MOL0     O21702   2.568   9.600   5.617  0.3226  0.2021  0.2578
  158MOL0     C21703   2.583   9.701   5.711 -0.1811 -0.2914  0.6250
  158MOL0     C21704   2.714   9.693   5.774 -0.3702 -0.1160 -0.0332
  158MOL0     C21705   2.752   9.820   5.837 -0.0136  0.3903  0.2083
  158MOL0     C21706   2.782   9.934   5.734 -0.0248 -0.3084  0.2599
  158MOL0     C21707   2.839  10.057   5.817 -0.1892  0.2444  0.3534
  158MOL0     C21708   2.895  10.160   5.714  0.2724 -0.4652  0.5453
  158MOL0     C21709   2.907  10.301   5.780  0.1711  0.2682 -0.0736
  158MOL0     C21710   3.004  10.297   5.898 -0.0242  0.0810  0.0352
  158MOL0    Cl21711   3.136  10.174   5.885  0.5950 -0.3711 -0.2876
  158MOL0     C21712   2.459   9.552   5.411 -0.0053 -0.2025  0.0928
  158MOL0     C21713   2.357   9.499   5.337  0.1324  0.1111  0.2603
  158MOL0     O21714   2.101   9.248   5.394  0.3650  0.0589  0.1127
  158MOL0     C21715   1.838   9.430   5.321 -0.4263  0.5063  0.0101
  158MOL0     C21716   1.705   9.444   5.266 -0.3466  0.3037 -0.2681
  158MOL0     N21717   1.012   9.282   4.814 -0.2743 -0.3558 -0.0852
  158MOL0     N21718   0.905   9.323   4.873  0.3787 -0.8435  0.0879
  158MOL0     C21719   0.608  10.246   5.738  0.2955 -0.1457  0.4169
  158MOL0     C21720   0.493  10.327   5.706  0.4265 -0.3090 -0.0413
  158MOL0     C21721   0.271  10.673   5.534  0.4962 -0.0918  0.2280
  158MOL0     C21722   0.146  10.606   5.498 -0.2868 -0.4816  0.1888
  158MOL0     C21723   0.041  10.684   5.465  0.5579  0.3790 -0.5053
  158MOL0     C21724   0.044  10.823   5.459  0.4126  0.0138  0.6199
  158MOL0     O21725  -0.077  10.887   5.429 -0.0849 -0.2802 -0.2587
  158MOL0     C21726  -0.078  11.037   5.423  0.3723 -0.2019 -0.0449
  158MOL0     C21727  -0.231  11.084   5.439  0.8914  0.1476  0.1266
  158MOL0     C21728  -0.321  11.019   5.337  0.5763 -0.5624  0.3352
  158MOL0     C21729  -0.460  11.094   5.338  0.3293  0.8622 -0.6293
  158MOL0     C21730  -0.554  11.041   5.234 -0.2747  0.3208  0.0952
  158MOL0     C21731  -0.636  11.006   5.151 -0.3529 -0.1454 -0.5948
  158MOL0     C21732   0.168  10.882   5.473  0.6726  0.0982 -0.0817
  158MOL0     C21733   0.279  10.814   5.509 -0.3435 -0.3028  0.1560
  158MOL0     C21734   0.405  10.892   5.531  0.7205 -0.3731  0.1894
  158MOL0     H21735   0.571  10.424   5.399  0.9245 -0.6514 -0.8937
  158MOL0     H21736   0.765  10.283   5.438  1.5688  3.5157  0.3002
  158MOL0     H21737   0.661   9.977   5.769 -2.4214 -0.9847 -0.5822
  158MOL0     H21738   0.812   9.920   5.708 -1.7708 -0.2003  1.3698
  158MOL0     H21739   0.593   9.839   5.606  0.7028 -0.0422 -0.0775
  158MOL0     H21740   0.577   9.985   5.511 -1.2325  0.1654  0.9999
  158MOL0     H21741   0.799   9.929   5.399  1.9183  0.1121  0.7588
  158MOL0     H21742   0.833   9.819   5.521  1.3155  1.9129 -0.7327
  158MOL0     H21743   0.665   9.667   5.464  1.4481 -0.9364 -0.4078
  158MOL0     H21744   0.575   9.782   5.357  0.4061 -1.3121 -1.0811
  158MOL0     H21745   0.854   9.683   5.285  0.5998  0.7102 -0.8183
  158MOL0     H21746   0.750   9.769   5.179  1.5287  1.8238  0.7355
  158MOL0     H21747   0.686   9.489   5.296  1.7435 -0.9272 -0.2582
  158MOL0     H21748   0.603   9.562   5.161  0.1833  0.2928 -0.0044
  158MOL0     H21749   0.787   9.368   5.118 -2.3443  0.6175 -2.1911
  158MOL0     H21750   0.907   9.468   5.174 -1.1919 -0.2246  1.4047
  158MOL0     H21751   0.730   9.524   4.931  0.8746  0.4627 -2.0059
  158MOL0     H21752   0.847   9.638   4.997 -1.9418  1.1620  1.1472
  158MOL0     H21753   1.078   9.604   4.846  2.7122 -1.2878 -2.7938
  158MOL0     H21754   1.249   9.482   4.673  0.6211 -1.4500 -2.1050
  158MOL0     H21755   1.197   9.331   4.619  0.8127  2.7104 -1.6711
  158MOL0     H21756   1.332   9.219   4.797  0.1147 -0.4461 -1.9131
  158MOL0     H21757   1.433   9.342   4.721  1.2877  2.4364  0.9693
  158MOL0     H21758   1.371   9.509   4.902 -0.3824  0.0750 -0.9958
  158MOL0     H21759   1.318   9.374   5.001 -1.0011 -2.6055 -1.6260
  158MOL0     H21760   1.545   9.263   4.972  0.2504  0.0788  0.6270
  158MOL0     H21761   1.609   9.412   4.910  0.8978  2.8480  4.3246
  158MOL0     H21762   1.742   9.211   5.020  1.9317  0.0002  0.1162
  158MOL0     H21763   1.896   9.073   5.044 -0.6805 -0.0848  1.5189
  158MOL0     H21764   2.005   9.083   5.193  1.5662  0.5924  0.0109
  158MOL0     H21765   2.037   9.176   5.042  1.4867 -0.4583  1.2095
  158MOL0     H21766   2.101   9.547   5.559 -0.5010 -1.9182  0.0564
  158MOL0     H21767   2.294   9.601   5.707 -0.8820  0.5835 -0.3177
  158MOL0     H21768   2.582   9.794   5.653  2.2982 -0.2258  0.5697
  158MOL0     H21769   2.504   9.718   5.785  1.2522 -3.8960  3.3016
  158MOL0     H21770   2.708   9.623   5.857  1.6030  0.1026  0.3259
  158MOL0     H21771   2.784   9.652   5.701 -0.0281 -1.0605  0.8132
  158MOL0     H21772   2.849   9.794   5.879  0.0792  0.6844  0.1838
  158MOL0     H21773   2.695   9.852   5.925 -1.1969 -0.4417 -0.2208
  158MOL0     H21774   2.694   9.958   5.674 -0.5232 -0.6330  0.8448
  158MOL0     H21775   2.850   9.893   5.659 -2.5548  1.6750 -3.4205
  158MOL0     H21776   2.750  10.094   5.869  0.3585  1.2954  0.5830
  158MOL0     H21777   2.911  10.015   5.888  1.0435  2.5632  0.5829
  158MOL0     H21778   2.824  10.175   5.632  1.6318  0.4058 -0.5186
  158MOL0     H21779   2.990  10.134   5.666 -0.0568  2.5335 -2.0941
  158MOL0     H21780   2.810  10.316   5.827 -0.2611 -1.2577 -0.4414
  158MOL0     H21781   2.942  10.374   5.706  2.1460  0.9694  1.4665
  158MOL0     H21782   2.961  10.289   5.998  0.4106  2.7988  0.5278
  158MOL0     H21783   3.053  10.395   5.897  0.0722  0.0340 -0.5822
  158MOL0     H21784   2.548   9.581   5.356 -1.9922  1.5044 -2.4413
  158MOL0     H21785   2.371   9.464   5.235 -0.7845  1.2934 -0.2930
  158MOL0     H21786   1.881   9.485   5.404 -1.5061  0.9826  0.2798
  158MOL0     H21787   1.641   9.524   5.302 -0.3596 -0.7607  2.2382
  158MOL0     H21788   0.608  10.191   5.832 -0.5706 -1.7110 -0.4598
  158MOL0     H21789   0.411  10.333   5.777 -0.0379 -2.6221 -0.3276
  158MOL0     H21790   0.131  10.498   5.507  3.4759 -1.0407  1.7847
  158MOL0     H21791  -0.048  10.623   5.454  0.7411  0.1478 -0.7120
  158MOL0     H21792  -0.013  11.077   5.501 -0.0179  1.5948 -0.6074
  158MOL0     H21793  -0.048  11.068   5.323  2.4297 -2.9583 -0.4106
  158MOL0     H21794  -0.235  11.192   5.426 -0.8894 -0.0456 -1.3806
  158MOL0     H21795  -0.279  11.068   5.537 -2.2598  2.4751 -0.8777
  158MOL0     H21796  -0.280  11.017   5.236  0.8064  2.5000  0.2753
  158MOL0     H21797  -0.347  10.920   5.375 -1.4693  0.0616  0.6962
  158MOL0     H21798  -0.442  11.202   5.331  0.3504  0.9829  0.8645
  158MOL0     H21799  -0.502  11.077   5.438  2.1906 -0.9765 -0.0932
  158MOL0     H21800  -0.713  10.970   5.085  0.6649  1.1662 -2.5832
  158MOL0     H21801   0.167  10.990   5.462 -0.6090  0.1850  0.7444
  158MOL0     H21802   0.486  10.871   5.461  0.6410 -1.1144  0.3192
  158MOL0     H21803   0.391  11.001   5.526 -1.3501 -0.5265  1.6090
  158MOL0     H21804   0.446  10.866   5.630  3.7363 -0.1986 -0.9005
  159MOL0     O21805   6.765   2.394   8.599 -0.3536  0.6856 -0.0319
  159MOL0     C21806   6.754   2.320   8.497 -0.3247  0.5209  0.2349
  159MOL0     O21807   6.762   2.364   8.368 -0.3289  0.0681 -0.3008
  159MOL0     C21808   6.781   2.495   8.338 -0.3527  0.2871 -0.2598
  159MOL0     C21809   6.904   2.568   8.372  0.3997  0.8708  1.0314
  159MOL0     C21810   6.933   2.699   8.319 -0.2350  1.6833  0.3751
  159MOL0     C21811   6.835   2.771   8.246  0.1500  0.2483  0.3209
  159MOL0     O21812   6.843   2.898   8.185  0.4041  0.2001 -0.7345
  159MOL0     C21813   6.947   2.989   8.227  0.7557  0.1361 -0.0254
  159MOL0     C21814   6.907   3.137   8.191 -0.2617  0.6867  0.3278
  159MOL0     C21815   6.915   3.164   8.040  0.3532 -0.1649 -0.3197
  159MOL0     C21816   7.052   3.128   7.979  1.0046 -0.7119  0.2268
  159MOL0     C21817   7.056   3.186   7.833  0.5002  0.2456  0.6826
  159MOL0     C21818   7.207   3.181   7.769  0.5728 -0.4362 -0.6149
  159MOL0     C21819   7.210   3.192   7.618 -0.8143 -0.2640  0.6243
  159MOL0     C21820   7.128   3.296   7.555 -0.2479 -0.2593  0.2727
  159MOL0     N21821   7.132   3.303   7.409  0.0689 -0.0732  0.0648
  159MOL0     C21822   7.074   3.406   7.339  0.7291  0.3319  0.1000
  159MOL0     C21823   7.118   3.370   7.217 -0.3043 -0.3972 -0.0946
  159MOL0     C21824   7.095   3.452   7.092 -0.2633 -0.0618  0.1570
  159MOL0     C21825   6.953   3.486   7.067 -0.3888  0.9363  0.8171
  159MOL0     C21826   6.922   3.573   6.941  0.0533  0.4442  0.0740
  159MOL0     C21827   6.786   3.656   6.949 -0.0058  0.7127 -0.1282
  159MOL0     O21828   6.773   3.753   7.060  0.2114  0.0698  0.3062
  159MOL0     C21829   6.846   3.866   7.066 -0.0401 -0.4914 -0.0955
  159MOL0     C21830   6.807   3.954   7.166  0.0449 -0.7086 -0.0962
  159MOL0     C21831   6.859   4.088   7.178 -0.3793  0.4222 -1.0228
  159MOL0     C21832   6.784   4.175   7.270  0.2220 -0.3580 -0.4611
  159MOL0     C21833   6.969   4.128   7.099  0.0142  0.2952  0.2818
  159MOL0     C21834   7.032   4.262   7.106  0.1344 -0.2221  0.5937
  159MOL0     O21835   7.066   4.312   6.986  0.5377 -0.3481  0.5735
  159MOL0     C21836   7.106   4.442   6.961  0.0343  0.1036  0.7214
  159MOL0     C21837   7.176   4.523   7.059  0.5877  0.4873 -0.0989
  159MOL0     C21838   7.224   4.649   7.033 -0.2844  0.6082  0.0688
  159MOL0     C21839   7.213   4.710   6.902 -0.6614  0.2125 -0.1188
  159MOL0     O21840   7.281   4.823   6.878 -0.2951  0.3314 -0.2043
  159MOL0     C21841   7.281   4.873   6.745  0.3790 -0.3093  0.5844
  159MOL0     C21842   7.362   4.998   6.735 -0.1865 -0.9820 -1.2189
  159MOL0     C21843   7.514   4.975   6.724  0.0077 -0.6064 -0.6691
  159MOL0     C21844   7.602   5.106   6.696  1.0529  0.0086  0.2717
  159MOL0     C21845   7.593   5.206   6.807  0.8317 -0.4807  0.0389
  159MOL0     C21846   7.700   5.319   6.789  0.3484 -0.1898 -0.9012
  159MOL0     C21847   7.685   5.436   6.891 -0.2958 -0.0788 -0.4607
  159MOL0     C21848   7.784   5.556   6.840 -0.6018 -0.2681  0.5469
  159MOL0    Cl21849   7.738   5.622   6.673 -0.4608  0.6181  0.3621
  159MOL0     C21850   7.143   4.630   6.803 -0.0260  0.6302 -0.5113
  159MOL0     C21851   7.098   4.499   6.837  0.5710  0.3037  0.3395
  159MOL0     O21852   7.053   4.312   7.214 -0.1062  0.5164 -0.0543
  159MOL0     C21853   7.001   4.037   7.001 -0.5897  0.0363  0.2481
  159MOL0     C21854   6.941   3.911   6.971 -0.2199  0.3089  0.1995
  159MOL0     N21855   7.194   3.257   7.215  0.7861 -0.3295 -0.5782
  159MOL0     N21856   7.205   3.216   7.333 -0.7108  0.0318  0.0722
  159MOL0     C21857   6.716   2.693   8.225 -0.0904  0.1740  0.5776
  159MOL0     C21858   6.689   2.560   8.260  0.7239 -0.7668  0.6251
  159MOL0     C21859   6.687   2.188   8.525  0.3527 -0.4578  0.6435
  159MOL0     C21860   6.623   2.135   8.410  0.6957  0.3320 -0.2164
  159MOL0     C21861   6.560   2.017   8.434  0.1588 -0.1363 -0.0216
  159MOL0     C21862   6.563   1.940   8.551  0.0685 -0.0862  0.4927
  159MOL0     O21863   6.493   1.821   8.554  0.6257 -0.5188 -0.2421
  159MOL0     C21864   6.376   1.830   8.640  0.5673  1.1414  0.0857
  159MOL0     C21865   6.254   1.902   8.577 -0.7925  0.1446 -0.5431
  159MOL0     C21866   6.124   1.914   8.667 -1.0546  0.7663 -0.8656
  159MOL0     C21867   6.012   1.978   8.593 -0.1655  0.3752 -0.9562
  159MOL0     C21868   5.888   1.959   8.673  1.1352 -0.2696  0.4039
  159MOL0     C21869   5.785   1.951   8.745 -1.1548  0.0006 -0.3193
  159MOL0     C21870   6.644   1.985   8.647  0.0816 -0.5117 -0.7114
  159MOL0     C21871   6.710   2.108   8.639  1.1705 -0.0774 -0.3499
  159MOL0     C21872   6.800   2.146   8.748 -0.6891 -0.4687 -0.5070
  159MOL0     H21873   6.967   2.517   8.444  0.6273 -1.5211 -0.7128
  159MOL0     H21874   7.023   2.751   8.350  0.3829  1.0473 -0.3177
  159MOL0     H21875   7.042   2.968   8.178  0.8715 -0.1607  0.3174
  159MOL0     H21876   6.941   2.991   8.337 -2.6287  1.0437 -0.1164
  159MOL0     H21877   6.802   3.151   8.216 -0.5598 -0.4734 -0.1981
  159MOL0     H21878   6.967   3.203   8.255  0.1081 -0.4237  1.1688
  159MOL0     H21879   6.843   3.106   7.982 -0.1125  1.4993 -1.4536
  159MOL0     H21880   6.897   3.271   8.027 -0.8921 -0.4516 -1.1028
  159MOL0     H21881   7.128   3.178   8.039 -1.7289  0.4175  3.0547
  159MOL0     H21882   7.078   3.021   7.982 -0.6967 -1.1466  1.4445
  159MOL0     H21883   7.035   3.293   7.843  5.1159  1.4635 -0.1427
  159MOL0     H21884   6.981   3.134   7.774 -1.3672  2.5724  0.8670
  159MOL0     H21885   7.264   3.264   7.811  2.6735 -0.3152 -3.3944
  159MOL0     H21886   7.252   3.088   7.808  1.3483  0.8644  1.8194
  159MOL0     H21887   7.177   3.098   7.572 -0.5355 -1.6674  3.1082
  159MOL0     H21888   7.312   3.211   7.584 -0.7631  0.3000  1.0757
  159MOL0     H21889   7.028   3.258   7.579 -0.2489 -0.7434 -0.4614
  159MOL0     H21890   7.151   3.394   7.596  1.7570 -0.6716  0.2199
  159MOL0     H21891   7.007   3.490   7.354 -1.7796 -1.7802  1.6051
  159MOL0     H21892   7.143   3.402   7.008  0.3302  0.6200  0.0755
  159MOL0     H21893   7.151   3.546   7.097  0.2874 -0.2468 -1.8469
  159MOL0     H21894   6.899   3.392   7.060 -0.6393  1.1180  0.2312
  159MOL0     H21895   6.908   3.532   7.156 -2.9747 -0.7367  0.4754
  159MOL0     H21896   7.004   3.646   6.947 -1.9416  2.6907  1.8632
  159MOL0     H21897   6.924   3.518   6.847 -3.5262 -1.8153  1.1428
  159MOL0     H21898   6.772   3.692   6.847 -1.2534 -0.6541 -0.4787
  159MOL0     H21899   6.701   3.590   6.968 -1.0430  2.6490  2.6610
  159MOL0     H21900   6.725   3.918   7.228 -1.7799 -1.7728 -2.9354
  159MOL0     H21901   6.715   4.245   7.223 -1.9944  0.1475  3.1622
  159MOL0     H21902   6.847   4.241   7.330 -0.4689 -0.8181  0.8125
  159MOL0     H21903   6.728   4.111   7.339  0.7233 -1.5143 -1.0935
  159MOL0     H21904   7.193   4.477   7.155  0.2605 -1.3910 -0.8972
  159MOL0     H21905   7.272   4.703   7.114 -0.7812  0.8383  0.2144
  159MOL0     H21906   7.311   4.803   6.667  0.0268  0.1417  0.0389
  159MOL0     H21907   7.177   4.882   6.711  0.9964  0.5198 -1.2009
  159MOL0     H21908   7.342   5.046   6.639  0.2227  1.6217 -0.0869
  159MOL0     H21909   7.353   5.064   6.822  3.3273 -1.5746 -0.2298
  159MOL0     H21910   7.527   4.891   6.656 -4.0102 -1.2592 -0.8795
  159MOL0     H21911   7.544   4.948   6.826 -0.0599 -0.5587 -0.6370
  159MOL0     H21912   7.566   5.165   6.611  1.8918  3.2034  1.9437
  159MOL0     H21913   7.703   5.071   6.674 -0.0505 -1.4883 -3.1905
  159MOL0     H21914   7.499   5.260   6.795  0.8122 -0.8819 -1.9472
  159MOL0     H21915   7.604   5.153   6.902 -1.8106 -0.2921  0.5086
  159MOL0     H21916   7.693   5.366   6.690  1.8828  0.7025 -0.6306
  159MOL0     H21917   7.803   5.282   6.798  0.2240 -1.4455 -3.7463
  159MOL0     H21918   7.721   5.407   6.990  0.5114  1.0155 -0.4091
  159MOL0     H21919   7.587   5.483   6.900  0.5944  2.3230 -2.2172
  159MOL0     H21920   7.889   5.525   6.849 -0.4851 -0.4380 -1.2080
  159MOL0     H21921   7.773   5.639   6.911 -0.0065 -0.0376  0.3765
  159MOL0     H21922   7.143   4.670   6.702  0.4779  0.9220 -0.3966
  159MOL0     H21923   7.047   4.438   6.763 -1.7115  4.1569 -1.5240
  159MOL0     H21924   7.076   4.062   6.927  0.3223 -1.8368  0.4790
  159MOL0     H21925   6.978   3.842   6.895  0.6075 -0.8814  1.6072
  159MOL0     H21926   6.648   2.727   8.147  2.6197 -0.3593 -2.2171
  159MOL0     H21927   6.599   2.509   8.227 -1.3927  0.8812  3.3637
  159MOL0     H21928   6.610   2.185   8.315 -0.8662  2.7010  1.1356
  159MOL0     H21929   6.507   1.969   8.353  1.4984 -1.5406 -0.1127
  159MOL0     H21930   6.343   1.732   8.673 -1.1126  0.5024 -3.0984
  159MOL0     H21931   6.400   1.872   8.738  0.1877 -1.7484  1.5194
  159MOL0     H21932   6.229   1.843   8.488 -1.2266  2.8493 -2.3314
  159MOL0     H21933   6.278   2.001   8.537 -2.5011  0.0247 -1.9962
  159MOL0     H21934   6.095   1.813   8.698 -0.1057  0.5672 -0.5948
  159MOL0     H21935   6.154   1.969   8.757  2.4266 -1.4702 -0.4484
  159MOL0     H21936   5.999   1.916   8.504 -0.7807 -1.4486  0.3334
  159MOL0     H21937   6.033   2.082   8.567 -2.2291  0.5536 -2.1992
  159MOL0     H21938   5.709   1.963   8.820 -0.1552 -2.0291  1.1185
  159MOL0     H21939   6.643   1.936   8.744 -0.2710 -0.9898 -0.9569
  159MOL0     H21940   6.763   2.212   8.826 -0.8992 -2.0791  0.8059
  159MOL0     H21941   6.839   2.059   8.802  0.1193  0.3491  0.2458
  159MOL0     H21942   6.888   2.201   8.714  0.1938 -0.3426  1.8358
  160MOL0     O21943   3.734   4.563   9.150  0.2940 -0.5328 -0.0460
  160MOL0     C21944   3.654   4.476   9.186 -1.3508  0.1767 -0.3847
  160MOL0     O21945   3.675   4.382   9.294 -0.0454 -0.8048  0.0984
  160MOL0     C21946   3.771   4.397   9.388 -0.8335 -0.6517  0.8456
  160MOL0     C21947   3.842   4.517   9.410 -1.1136 -0.6212  0.8297
  160MOL0     C21948   3.963   4.513   9.477  0.1673 -0.0003  0.6725
  160MOL0     C21949   4.006   4.386   9.530 -0.6757 -0.4302 -0.6944
  160MOL0     O21950   4.128   4.359   9.582  0.5300  0.5484  0.0176
  160MOL0     C21951   4.224   4.467   9.588  0.6351  0.3625  0.4693
  160MOL0     C21952   4.341   4.420   9.672  0.0495  0.6639  0.9284
  160MOL0     C21953   4.418   4.534   9.730  0.6098  0.0060 -0.1686
  160MOL0     C21954   4.495   4.622   9.631 -0.1445 -1.3292  1.2620
  160MOL0     C21955   4.639   4.649   9.677 -0.4475  0.4984 -0.1450
  160MOL0     C21956   4.731   4.533   9.693 -0.0157  1.0650  0.2159
  160MOL0     C21957   4.857   4.590   9.751  0.3500  0.6533 -0.5525
  160MOL0     C21958   4.949   4.469   9.763  0.5222  0.3258  0.8396
  160MOL0     N21959   4.926   4.370   9.876  0.5246 -0.4935  0.1695
  160MOL0     C21960   5.000   4.362   9.992 -0.8220 -0.0495 -0.4984
  160MOL0     C21961   4.938   4.273  10.072 -0.3433 -0.0216 -0.3878
  160MOL0     C21962   4.988   4.242  10.216 -0.3631  0.4134  0.0299
  160MOL0     C21963   4.910   4.300  10.328  0.2625 -1.3236  0.2086
  160MOL0     C21964   4.800   4.206  10.379  0.1150  0.6944 -0.5997
  160MOL0     C21965   4.683   4.262  10.462  0.0447 -1.0886  0.4795
  160MOL0     O21966   4.605   4.359  10.384  0.0849 -0.2060 -0.2437
  160MOL0     C21967   4.513   4.311  10.297 -0.5802  0.5841  0.5685
  160MOL0     C21968   4.547   4.259  10.167 -0.4137 -0.0157 -0.3032
  160MOL0     C21969   4.446   4.209  10.078  0.0249  0.1637 -0.3231
  160MOL0     C21970   4.501   4.165   9.942 -0.2863 -0.7464 -0.1025
  160MOL0     C21971   4.317   4.200  10.116 -0.3719 -0.2980 -0.1176
  160MOL0     C21972   4.217   4.137  10.035 -0.3629  0.1316  0.1995
  160MOL0     O21973   4.092   4.189  10.054 -0.0743 -0.0111  0.0020
  160MOL0     C21974   3.989   4.124  10.000 -0.7456  0.2735 -0.4234
  160MOL0     C21975   3.963   4.123   9.862  0.3273 -0.2382 -0.1888
  160MOL0     C21976   3.835   4.081   9.812 -0.2740 -0.0166  0.7254
  160MOL0     C21977   3.742   4.034   9.904  0.0585 -0.1647  0.3289
  160MOL0     O21978   3.624   3.979   9.866  0.2099 -0.4452  0.6562
  160MOL0     C21979   3.527   4.069   9.792 -0.0355  0.3683 -0.4772
  160MOL0     C21980   3.443   4.153   9.885  0.0666 -0.0443  0.7753
  160MOL0     C21981   3.519   4.253   9.972 -0.2650 -0.9287 -0.1223
  160MOL0     C21982   3.578   4.369   9.883 -0.0584  0.5537  0.3503
  160MOL0     C21983   3.589   4.493   9.961  0.3138 -0.4027  0.0533
  160MOL0     C21984   3.666   4.607   9.888  0.3147  0.0850  0.7605
  160MOL0     C21985   3.807   4.616   9.934  0.5618  0.0795  0.1654
  160MOL0     C21986   3.884   4.482   9.905 -0.4410 -1.0052  0.2132
  160MOL0    Cl21987   4.060   4.515   9.932 -0.0442  0.0320 -0.0054
  160MOL0     C21988   3.762   4.025  10.040 -0.3631  0.2207 -0.3772
  160MOL0     C21989   3.892   4.065  10.085  0.4970  0.2056  0.5224
  160MOL0     O21990   4.250   4.029   9.980 -0.2040 -0.6739  0.2473
  160MOL0     C21991   4.287   4.257  10.245 -0.7697 -0.1462 -0.0692
  160MOL0     C21992   4.380   4.314  10.330 -0.7028  0.1030  0.8064
  160MOL0     N21993   4.832   4.227   9.996 -0.2362  0.5778  0.0765
  160MOL0     N21994   4.820   4.283   9.882 -0.2835 -0.3357  0.5092
  160MOL0     C21995   3.920   4.282   9.537  0.4535 -0.5359 -0.8507
  160MOL0     C21996   3.805   4.289   9.456 -0.0505 -0.7378  0.1159
  160MOL0     C21997   3.519   4.476   9.122  0.3984  0.7215  0.0771
  160MOL0     C21998   3.445   4.358   9.133  0.4712 -0.5801 -0.7673
  160MOL0     C21999   3.318   4.347   9.081 -1.0290 -0.0207 -0.1580
  160MOL0     C22000   3.254   4.455   9.010 -0.3518  0.4239 -0.9844
  160MOL0     O22001   3.128   4.451   8.951 -0.2549  0.8074 -0.3111
  160MOL0     C22002   3.074   4.325   8.910 -0.2523  0.3638  0.0298
  160MOL0     C22003   2.919   4.341   8.887 -0.8718  0.7174  0.1284
  160MOL0     C22004   2.877   4.473   8.828 -0.6179 -0.4926 -0.4762
  160MOL0     C22005   2.749   4.454   8.741 -0.0181  0.5893  0.4407
  160MOL0     C22006   2.628   4.411   8.812 -0.3014  0.4318 -0.3284
  160MOL0     C22007   2.529   4.390   8.881 -0.4011  0.2131  0.7803
  160MOL0     C22008   3.331   4.564   9.001  0.6125  0.5693  0.8106
  160MOL0     C22009   3.457   4.581   9.047 -0.6897 -0.3118  1.8320
  160MOL0     C22010   3.530   4.713   9.013  0.0633  0.7076 -0.3599
  160MOL0     H22011   3.805   4.613   9.374  1.0807  0.6658  1.7687
  160MOL0     H22012   4.025   4.600   9.494  0.1572  0.3344 -0.8178
  160MOL0     H22013   4.189   4.559   9.635  2.0548  1.5171 -0.6464
  160MOL0     H22014   4.256   4.498   9.488  0.3261  2.4780  0.9851
  160MOL0     H22015   4.304   4.356   9.752  0.4588 -4.3781 -2.4523
  160MOL0     H22016   4.402   4.362   9.602  1.6356  2.5452  0.6755
  160MOL0     H22017   4.341   4.599   9.773 -2.2256 -1.9916 -1.8304
  160MOL0     H22018   4.482   4.489   9.805 -1.1494  1.3026  2.2395
  160MOL0     H22019   4.496   4.573   9.533 -2.0184  1.4821 -0.3190
  160MOL0     H22020   4.446   4.719   9.617  1.6371 -0.7862 -3.0289
  160MOL0     H22021   4.628   4.690   9.778 -0.2288 -1.9925  0.9649
  160MOL0     H22022   4.681   4.723   9.608  0.6749  2.6358  2.6422
  160MOL0     H22023   4.691   4.461   9.765  0.2856  0.8363  0.1552
  160MOL0     H22024   4.747   4.471   9.604 -1.4220 -4.4588  3.3192
  160MOL0     H22025   4.837   4.647   9.843 -2.0983  0.2635 -0.7626
  160MOL0     H22026   4.912   4.655   9.682  4.9008  1.1294  3.0196
  160MOL0     H22027   4.939   4.403   9.676 -0.2498  0.0870  1.1055
  160MOL0     H22028   5.049   4.510   9.781  1.0859 -1.0347  0.9384
  160MOL0     H22029   5.094   4.413  10.013 -1.0182 -0.7871  2.5654
  160MOL0     H22030   5.091   4.279  10.228 -0.1211 -0.6765  1.6549
  160MOL0     H22031   4.992   4.134  10.228 -1.1372  0.1947 -1.4512
  160MOL0     H22032   4.973   4.324  10.414 -0.4492 -0.7548  0.5796
  160MOL0     H22033   4.857   4.389  10.292  1.1781 -1.4024 -1.4462
  160MOL0     H22034   4.762   4.156  10.290  1.6430  0.3732 -1.1117
  160MOL0     H22035   4.858   4.143  10.447  2.7279 -0.0501 -3.2873
  160MOL0     H22036   4.612   4.190  10.504 -1.7111  1.8341  2.9581
  160MOL0     H22037   4.733   4.319  10.541  1.8939 -1.2445 -0.5376
  160MOL0     H22038   4.649   4.268  10.130 -0.1199  1.0882  0.7063
  160MOL0     H22039   4.535   4.061   9.942 -3.5312 -1.9353 -0.8273
  160MOL0     H22040   4.581   4.234   9.916 -0.2573 -1.3463 -1.7331
  160MOL0     H22041   4.430   4.170   9.859 -1.9768 -3.3688  1.0527
  160MOL0     H22042   4.029   4.159   9.784  0.9306 -0.8582  0.0229
  160MOL0     H22043   3.821   4.082   9.705 -3.0284  3.7956  0.9180
  160MOL0     H22044   3.568   4.134   9.713  1.4852 -0.0947 -0.0995
  160MOL0     H22045   3.464   3.998   9.739  0.1049  0.3121 -0.5698
  160MOL0     H22046   3.382   4.210   9.814  0.7468  1.3093  1.2422
  160MOL0     H22047   3.366   4.089   9.929 -3.4368  2.5633 -1.0431
  160MOL0     H22048   3.582   4.205  10.047 -1.6551 -1.8830  0.4745
  160MOL0     H22049   3.434   4.294  10.029 -0.9984  0.2149 -1.9387
  160MOL0     H22050   3.512   4.393   9.799  0.2299 -4.6693 -1.7648
  160MOL0     H22051   3.671   4.342   9.831 -0.4053  0.3393 -0.1669
  160MOL0     H22052   3.483   4.513   9.977  0.5342 -0.7450  2.2874
  160MOL0     H22053   3.623   4.472  10.063  1.1421 -1.5339 -0.4312
  160MOL0     H22054   3.633   4.706   9.921  0.3523 -0.2444  1.8340
  160MOL0     H22055   3.656   4.607   9.779  0.5230  5.1962  0.5421
  160MOL0     H22056   3.812   4.623  10.043 -2.4742 -1.8624  0.5299
  160MOL0     H22057   3.860   4.702   9.890  3.1337 -0.4516  2.0091
  160MOL0     H22058   3.874   4.435   9.807 -0.8175  1.4377 -0.9924
  160MOL0     H22059   3.855   4.416   9.988 -1.1949  0.0010  0.7634
  160MOL0     H22060   3.692   3.998  10.118  1.5144 -2.1034  0.6353
  160MOL0     H22061   3.930   4.049  10.185  1.8702 -0.8676 -0.1295
  160MOL0     H22062   4.180   4.263  10.262 -0.4110  0.1715  2.5196
  160MOL0     H22063   4.362   4.363  10.425  0.2232 -2.6117  2.5237
  160MOL0     H22064   3.950   4.196   9.597  0.0285  1.1403  1.9068
  160MOL0     H22065   3.743   4.200   9.463  2.4168 -2.6471 -0.6701
  160MOL0     H22066   3.479   4.272   9.190  1.1324  1.1292  1.5682
  160MOL0     H22067   3.285   4.246   9.103  2.7043 -1.2302  0.6724
  160MOL0     H22068   3.123   4.292   8.818  1.8377  0.7812  0.9302
  160MOL0     H22069   3.088   4.240   8.979  1.1012  1.1288  0.7349
  160MOL0     H22070   2.864   4.319   8.979  1.9301  0.9940  1.9988
  160MOL0     H22071   2.895   4.267   8.811  3.3927 -1.0985  0.2877
  160MOL0     H22072   2.860   4.539   8.914 -0.1350 -1.8651  0.7290
  160MOL0     H22073   2.959   4.517   8.771 -0.4475  1.1450  0.9292
  160MOL0     H22074   2.777   4.381   8.665 -0.5309 -2.4818  2.9918
  160MOL0     H22075   2.734   4.550   8.691  2.5313  0.4224 -0.7922
  160MOL0     H22076   2.427   4.390   8.911 -0.8969  0.2171 -0.8062
  160MOL0     H22077   3.276   4.641   8.947 -3.0188 -0.8323  2.1930
  160MOL0     H22078   3.466   4.770   8.946  1.8634 -1.0694 -3.8913
  160MOL0     H22079   3.552   4.764   9.107 -1.0456 -1.3546  1.0934
  160MOL0     H22080   3.616   4.682   8.952 -0.9056  0.7333 -1.8099
  161MOL0     O22081   4.479   6.229  10.965 -0.5486  0.7768  0.0421
  161MOL0     C22082   4.432   6.223  10.848 -1.0116  0.2291 -0.7807
  161MOL0     O22083   4.417   6.115  10.763  0.0778  0.3180 -0.5574
  161MOL0     C22084   4.458   5.997  10.823 -0.4664  0.4330 -0.0146
  161MOL0     C22085   4.368   5.908  10.870  0.6132 -0.0558 -0.0174
  161MOL0     C22086   4.399   5.784  10.930 -0.1037 -0.0266 -0.6281
  161MOL0     C22087   4.542   5.760  10.952  0.4814 -0.3642 -0.2384
  161MOL0     O22088   4.582   5.640  10.997  0.4243  0.2530  0.1844
  161MOL0     C22089   4.587   5.607  11.135  0.4191 -0.0667  0.0521
  161MOL0     C22090   4.692   5.507  11.182 -0.2150 -0.4318  0.3810
  161MOL0     C22091   4.685   5.473  11.331  0.4131  1.5433 -0.0291
  161MOL0     C22092   4.687   5.601  11.420  0.6108 -0.1420  0.0656
  161MOL0     C22093   4.691   5.548  11.568  1.6552  0.6776 -0.4897
  161MOL0     C22094   4.839   5.528  11.608 -0.5859  0.6381  0.2687
  161MOL0     C22095   4.842   5.511  11.761 -0.3220 -0.4357  0.4830
  161MOL0     C22096   4.955   5.419  11.822 -0.1469  0.1166  0.9529
  161MOL0     N22097   4.941   5.400  11.967 -1.0304  0.2254 -0.3816
  161MOL0     C22098   4.835   5.363  12.027  0.9805 -0.6135  0.4663
  161MOL0     C22099   4.869   5.355  12.158  0.1637  0.8210 -0.6547
  161MOL0     C22100   4.785   5.305  12.268 -0.4329  0.4510  0.6330
  161MOL0     C22101   4.715   5.418  12.335 -0.1789  0.3100 -1.4536
  161MOL0     C22102   4.614   5.506  12.263  0.1484  0.5826 -0.4921
  161MOL0     C22103   4.511   5.419  12.186 -0.0771  0.1713 -1.4326
  161MOL0     O22104   4.377   5.463  12.190  0.3619  0.1005  0.7558
  161MOL0     C22105   4.284   5.375  12.134 -0.0958  0.7275  0.1304
  161MOL0     C22106   4.150   5.398  12.160 -0.4801 -0.5245  0.3804
  161MOL0     C22107   4.045   5.312  12.121 -0.0536 -0.3581  0.8950
  161MOL0     C22108   3.907   5.359  12.168  0.0191  0.5164  0.0776
  161MOL0     C22109   4.068   5.201  12.038 -0.2515 -0.0985 -0.6284
  161MOL0     C22110   3.965   5.094  12.008  0.1533 -0.0785 -0.4159
  161MOL0     O22111   4.020   4.982  11.971 -0.2694 -0.4992 -0.6876
  161MOL0     C22112   3.939   4.890  11.927  0.0467  0.4541 -0.1945
  161MOL0     C22113   3.944   4.764  11.983  1.1120  0.4522 -0.6286
  161MOL0     C22114   3.863   4.658  11.932  0.5888  0.7250  0.3656
  161MOL0     C22115   3.785   4.673  11.820 -0.0544 -0.1735  0.2705
  161MOL0     O22116   3.702   4.578  11.775 -0.1522  0.9084  0.1965
  161MOL0     C22117   3.717   4.432  11.807 -1.2873 -0.3280 -0.2498
  161MOL0     C22118   3.848   4.359  11.756  0.9580  0.2425  0.2184
  161MOL0     C22119   3.856   4.372  11.600 -0.1728  0.2141  0.1758
  161MOL0     C22120   3.916   4.246  11.544 -0.0919  0.2965 -0.0848
  161MOL0     C22121   3.963   4.271  11.400 -0.3231  0.1906  0.2209
  161MOL0     C22122   3.843   4.297  11.289 -0.7337  0.1939  0.4630
  161MOL0     C22123   3.896   4.300  11.148  0.8020 -0.2349 -0.2987
  161MOL0     C22124   3.788   4.255  11.053 -0.0666 -1.1165  1.3182
  161MOL0    Cl22125   3.860   4.133  10.940  0.3573  0.0524  0.3485
  161MOL0     C22126   3.793   4.800  11.759 -0.1275  0.0610 -0.3485
  161MOL0     C22127   3.869   4.903  11.809 -0.2721 -0.5684  0.4459
  161MOL0     O22128   3.845   5.111  12.029 -0.1514 -0.4631 -0.2656
  161MOL0     C22129   4.210   5.178  12.007  0.1021 -0.0573  0.5455
  161MOL0     C22130   4.310   5.271  12.049  0.7537  1.4327  1.0992
  161MOL0     N22131   5.000   5.396  12.173 -0.4275 -0.3084  0.4924
  161MOL0     N22132   5.042   5.435  12.056 -0.4664  0.2842  0.4646
  161MOL0     C22133   4.634   5.846  10.899 -0.9738 -0.1814  0.0475
  161MOL0     C22134   4.594   5.959  10.837 -0.2229  0.5486  0.0063
  161MOL0     C22135   4.408   6.358  10.787 -0.2715 -0.6725  0.0110
  161MOL0     C22136   4.421   6.364  10.645  0.3216 -0.6773  0.1470
  161MOL0     C22137   4.397   6.482  10.574 -0.1371 -0.2445 -0.7962
  161MOL0     C22138   4.340   6.593  10.647  0.7178  0.2068  0.1546
  161MOL0     O22139   4.285   6.706  10.591 -0.8083 -0.2670 -0.6243
  161MOL0     C22140   4.291   6.750  10.457 -1.0045  0.1048  0.5390
  161MOL0     C22141   4.430   6.818  10.421 -0.3033  0.0280  0.3680
  161MOL0     C22142   4.435   6.958  10.485 -0.5707 -0.1700  0.3969
  161MOL0     C22143   4.574   7.007  10.449  1.0818  0.3912  0.1239
  161MOL0     C22144   4.674   6.951  10.534 -0.9176  0.0382 -1.0517
  161MOL0     C22145   4.757   6.901  10.609 -0.0196 -0.6473 -0.1998
  161MOL0     C22146   4.319   6.576  10.782  0.2136 -0.0282  1.0780
  161MOL0     C22147   4.358   6.471  10.853 -0.0241  0.5137  0.0522
  161MOL0     C22148   4.342   6.492  10.999  0.1414  0.7197  1.2879
  161MOL0     H22149   4.262   5.928  10.864  1.0603  2.8193  0.4869
  161MOL0     H22150   4.324   5.714  10.965  2.2111 -1.6704  1.4860
  161MOL0     H22151   4.487   5.570  11.159 -1.3363  1.8113 -3.5656
  161MOL0     H22152   4.596   5.698  11.194 -0.8267 -0.1450  0.3933
  161MOL0     H22153   4.678   5.418  11.120 -0.0830 -0.9897  1.1398
  161MOL0     H22154   4.788   5.548  11.148 -0.7494 -0.4834 -1.3248
  161MOL0     H22155   4.590   5.420  11.342 -0.6039  2.6852 -2.5493
  161MOL0     H22156   4.766   5.401  11.346 -0.4024  1.0530  2.5002
  161MOL0     H22157   4.774   5.664  11.400  1.3610 -0.0540  3.0528
  161MOL0     H22158   4.593   5.657  11.417  1.0106  0.9835  3.4652
  161MOL0     H22159   4.639   5.453  11.577 -0.4232  1.9776  3.5117
  161MOL0     H22160   4.645   5.611  11.645  0.2760 -3.4092  2.3258
  161MOL0     H22161   4.875   5.432  11.570 -4.3473 -0.5507 -0.7338
  161MOL0     H22162   4.895   5.619  11.583 -0.5595  0.7463  0.7097
  161MOL0     H22163   4.748   5.459  11.781 -2.7916  2.5848 -2.1071
  161MOL0     H22164   4.843   5.604  11.819 -1.6234  0.5923 -1.0427
  161MOL0     H22165   4.954   5.325  11.766  0.8997 -0.8661  2.5331
  161MOL0     H22166   5.047   5.470  11.793 -1.7723  3.5810  1.4455
  161MOL0     H22167   4.736   5.332  11.995  1.4782 -1.8782  0.0723
  161MOL0     H22168   4.845   5.250  12.341 -1.5866 -0.8907  0.6188
  161MOL0     H22169   4.712   5.231  12.234 -0.8943 -0.1987  2.8874
  161MOL0     H22170   4.670   5.372  12.424  0.5345 -1.4634 -1.9545
  161MOL0     H22171   4.794   5.485  12.371  1.0599 -0.5083 -2.5509
  161MOL0     H22172   4.566   5.568  12.340  1.8836  2.6596 -1.0187
  161MOL0     H22173   4.657   5.579  12.195 -0.6002  0.6322 -0.9308
  161MOL0     H22174   4.534   5.406  12.080 -3.9694 -1.6620 -2.1913
  161MOL0     H22175   4.510   5.321  12.234 -2.0324  1.8806  2.5296
  161MOL0     H22176   4.118   5.490  12.208  1.6648 -0.0043  0.9231
  161MOL0     H22177   3.881   5.302  12.258 -0.5873  0.5782 -0.0498
  161MOL0     H22178   3.830   5.347  12.091  1.2633  4.6314 -2.0750
  161MOL0     H22179   3.913   5.465  12.193 -1.4912  0.3583  1.2390
  161MOL0     H22180   3.989   4.763  12.081 -1.2635  2.4716  0.6062
  161MOL0     H22181   3.843   4.570  11.992 -1.7530  0.0132 -1.2878
  161MOL0     H22182   3.701   4.421  11.914  0.6495  1.6393  0.3239
  161MOL0     H22183   3.630   4.395  11.753  0.9049 -1.9721 -2.9062
  161MOL0     H22184   3.935   4.403  11.806  2.3213 -1.3600 -0.6432
  161MOL0     H22185   3.853   4.253  11.781  0.5272  0.8951  3.5769
  161MOL0     H22186   3.920   4.456  11.570  1.8938 -1.8314 -1.4805
  161MOL0     H22187   3.763   4.397  11.548  1.2330  4.9004 -0.6382
  161MOL0     H22188   3.847   4.163  11.557 -1.2393  1.0522 -1.1790
  161MOL0     H22189   4.004   4.230  11.607 -1.8774 -1.4639  2.1182
  161MOL0     H22190   4.030   4.357  11.393 -2.7476  2.1030 -1.2985
  161MOL0     H22191   4.019   4.183  11.366  0.4461  0.3606  1.0244
  161MOL0     H22192   3.796   4.393  11.310 -0.4101  0.3733  0.3657
  161MOL0     H22193   3.768   4.217  11.293  2.2360 -2.8175 -0.1158
  161MOL0     H22194   3.977   4.227  11.154  0.3332 -0.7553 -0.1583
  161MOL0     H22195   3.943   4.396  11.126  2.3264 -0.8382  0.2229
  161MOL0     H22196   3.745   4.335  10.993 -1.3964 -3.2666 -0.7597
  161MOL0     H22197   3.703   4.206  11.102 -1.2406  0.0689  0.5073
  161MOL0     H22198   3.732   4.815  11.671  0.1460 -0.7527 -0.6870
  161MOL0     H22199   3.860   4.993  11.748  0.0461 -1.9479 -1.7343
  161MOL0     H22200   4.238   5.099  11.937  2.3112  2.5249 -1.7199
  161MOL0     H22201   4.406   5.241  12.007  0.0535  4.1177 -3.0230
  161MOL0     H22202   4.739   5.822  10.905  0.2434  4.1901 -0.0508
  161MOL0     H22203   4.660   6.031  10.789 -0.0571 -0.3761 -1.2147
  161MOL0     H22204   4.460   6.272  10.602  0.2087 -0.6391 -0.0399
  161MOL0     H22205   4.435   6.483  10.472 -1.8326 -2.0354 -1.5037
  161MOL0     H22206   4.269   6.667  10.389  0.2117  0.0187  0.2370
  161MOL0     H22207   4.219   6.832  10.445  0.5705  1.3423 -0.9656
  161MOL0     H22208   4.436   6.826  10.312  3.2391  1.8220  0.5512
  161MOL0     H22209   4.503   6.744  10.454 -0.4590  0.5343  1.9065
  161MOL0     H22210   4.371   7.033  10.438  1.6618 -0.0486 -2.7664
  161MOL0     H22211   4.434   6.965  10.594  2.0881  0.1538  0.4733
  161MOL0     H22212   4.577   7.116  10.459  0.5086  0.3405  1.0496
  161MOL0     H22213   4.593   6.986  10.344  1.3435  2.2942 -0.2402
  161MOL0     H22214   4.831   6.866  10.677  1.4684  2.3112 -0.1032
  161MOL0     H22215   4.264   6.656  10.831  0.5746 -0.6414  2.5420
  161MOL0     H22216   4.441   6.473  11.040 -0.2594 -0.3979  1.7816
  161MOL0     H22217   4.315   6.595  11.025 -1.8855  0.9152 -1.1558
  161MOL0     H22218   4.260   6.429  11.036 -0.8461  0.4258 -1.1845
  162MOL0     O22219   1.763   9.848   5.995 -0.5028  0.2512  0.1795
  162MOL0     C22220   1.709   9.901   6.093  0.2333 -0.4924 -1.0029
  162MOL0     O22221   1.759   9.902   6.221 -0.3814  0.0922 -0.2150
  162MOL0     C22222   1.878   9.835   6.265  0.2079 -0.4913 -0.2735
  162MOL0     C22223   1.997   9.830   6.190 -0.0740  0.0548 -0.1314
  162MOL0     C22224   2.109   9.778   6.260 -0.2745 -0.2182 -0.3150
  162MOL0     C22225   2.110   9.742   6.394 -0.1899 -0.3511 -0.7686
  162MOL0     O22226   2.228   9.699   6.452 -0.1537  0.2342 -0.0708
  162MOL0     C22227   2.236   9.657   6.588  0.7631  0.4526 -0.3782
  162MOL0     C22228   2.374   9.615   6.629 -0.1973 -0.1269  0.2146
  162MOL0     C22229   2.383   9.617   6.783 -0.0580  0.1219  0.1855
  162MOL0     C22230   2.520   9.610   6.846 -0.1269  0.3279  0.2874
  162MOL0     C22231   2.513   9.602   6.993  0.7362  0.0660  0.3393
  162MOL0     C22232   2.642   9.592   7.065  0.5826  0.4330 -0.3998
  162MOL0     C22233   2.638   9.575   7.222 -0.2115 -0.1388  0.4663
  162MOL0     C22234   2.547   9.469   7.282 -0.5136  0.2230 -0.3412
  162MOL0     N22235   2.589   9.325   7.274  0.1165 -0.0615 -0.0433
  162MOL0     C22236   2.568   9.251   7.166  0.2833  0.1597  0.8922
  162MOL0     C22237   2.643   9.144   7.189  0.0359  0.3098  0.2187
  162MOL0     C22238   2.652   9.021   7.100 -0.3657  0.3098  0.6461
  162MOL0     C22239   2.771   9.026   7.004 -0.4129  0.5563  0.7194
  162MOL0     C22240   2.770   9.148   6.908  0.9665  0.6824 -0.2463
  162MOL0     C22241   2.855   9.260   6.968  0.3348 -0.5274  0.3718
  162MOL0     O22242   2.997   9.233   6.977 -0.0446 -0.4938  0.5147
  162MOL0     C22243   3.055   9.336   7.044  0.6314  0.5075 -0.5972
  162MOL0     C22244   3.117   9.435   6.964 -0.1287  1.5128  0.5099
  162MOL0     C22245   3.193   9.546   7.010 -0.2117 -0.9575 -0.2727
  162MOL0     C22246   3.268   9.635   6.907  0.5531 -0.0063  0.0182
  162MOL0     C22247   3.180   9.574   7.150  0.6337 -0.0620  0.7601
  162MOL0     C22248   3.242   9.694   7.203  0.3061 -0.7583  0.4707
  162MOL0     O22249   3.196   9.749   7.315  1.0592  0.6599 -0.1188
  162MOL0     C22250   3.228   9.881   7.339 -0.0080 -0.0114  0.2607
  162MOL0     C22251   3.333   9.928   7.425 -0.3781 -0.7994  0.1159
  162MOL0     C22252   3.340  10.059   7.449 -0.4001 -0.8588  0.4502
  162MOL0     C22253   3.255  10.153   7.390 -0.1922  0.5821 -0.1210
  162MOL0     O22254   3.268  10.277   7.430  0.2208  0.0341  0.6141
  162MOL0     C22255   3.290  10.375   7.328  1.0274 -0.7849  0.5213
  162MOL0     C22256   3.298  10.518   7.380  0.1665  0.5302  0.4563
  162MOL0     C22257   3.427  10.540   7.460  0.3317 -0.0758 -0.6949
  162MOL0     C22258   3.438  10.699   7.478 -0.6145  0.1191  0.6618
  162MOL0     C22259   3.549  10.728   7.585 -0.0585 -0.3734 -0.2195
  162MOL0     C22260   3.557  10.879   7.614 -0.3191  0.1672  1.3072
  162MOL0     C22261   3.597  10.977   7.504  0.1432 -0.0554 -0.0473
  162MOL0     C22262   3.738  10.954   7.447 -0.2344 -1.0550  0.5901
  162MOL0    Cl22263   3.778  11.107   7.339 -0.0772  0.3778  0.4704
  162MOL0     C22264   3.162  10.105   7.299 -0.3012  0.3444  1.4712
  162MOL0     C22265   3.140   9.970   7.278 -0.6878  0.1467 -0.4915
  162MOL0     O22266   3.342   9.744   7.139 -0.1244  0.3732 -0.1152
  162MOL0     C22267   3.120   9.480   7.231  0.0676  0.3276  0.4523
  162MOL0     C22268   3.062   9.353   7.186 -0.6434  0.0304  0.2605
  162MOL0     N22269   2.707   9.150   7.312 -0.1109 -0.0759 -0.1970
  162MOL0     N22270   2.669   9.270   7.361 -0.3928  0.3680  0.1207
  162MOL0     C22271   1.992   9.758   6.461 -0.1892  0.3625 -0.0899
  162MOL0     C22272   1.875   9.796   6.395 -0.4323  0.3369 -0.5484
  162MOL0     C22273   1.580   9.967   6.071  0.4070  0.3134 -0.9157
  162MOL0     C22274   1.490   9.977   6.184  1.1150  0.6462 -0.1073
  162MOL0     C22275   1.367  10.044   6.178 -0.2977 -0.1031 -1.1936
  162MOL0     C22276   1.313  10.073   6.055  0.8158  0.2911 -0.2439
  162MOL0     O22277   1.181  10.127   6.049 -0.2796 -0.4887 -0.2618
  162MOL0     C22278   1.115  10.133   5.923  0.0939 -0.1204  0.0033
  162MOL0     C22279   0.983  10.218   5.927  0.6539  0.5990  0.5186
  162MOL0     C22280   1.009  10.357   5.985  0.5860 -0.6515 -0.2359
  162MOL0     C22281   0.881  10.433   5.990 -0.3715  0.0859  0.4980
  162MOL0     C22282   0.897  10.564   6.048  0.2184  0.2332 -0.5371
  162MOL0     C22283   0.942  10.673   6.080  0.2121 -0.2508  0.2923
  162MOL0     C22284   1.390  10.056   5.935 -1.3627  2.1155 -0.0012
  162MOL0     C22285   1.521  10.009   5.945 -0.0881  0.1419  0.2750
  162MOL0     C22286   1.602   9.993   5.808  0.1873 -0.2943 -0.1745
  162MOL0     H22287   2.005   9.859   6.086 -0.7849 -1.4803 -0.6440
  162MOL0     H22288   2.201   9.771   6.202  1.8507  0.7207  2.6774
  162MOL0     H22289   2.175   9.567   6.599  0.7857  0.1995 -2.1290
  162MOL0     H22290   2.212   9.748   6.645  0.6024  1.1078 -1.4634
  162MOL0     H22291   2.387   9.517   6.584 -1.6840 -0.7083  0.9780
  162MOL0     H22292   2.439   9.684   6.574 -1.6975 -0.4824 -2.1362
  162MOL0     H22293   2.331   9.708   6.815 -0.7040 -0.8281  2.0056
  162MOL0     H22294   2.327   9.533   6.826  0.0875 -1.1587 -1.9787
  162MOL0     H22295   2.570   9.519   6.811  0.7717  1.9181 -2.9056
  162MOL0     H22296   2.579   9.695   6.811  0.2780  0.1314  0.4809
  162MOL0     H22297   2.458   9.508   7.010 -2.6037  2.1616  2.2327
  162MOL0     H22298   2.466   9.689   7.039  0.8007 -0.1814  0.8869
  162MOL0     H22299   2.703   9.514   7.020 -0.1305 -0.9521  0.9391
  162MOL0     H22300   2.692   9.687   7.045 -0.5793  1.6011  1.8197
  162MOL0     H22301   2.626   9.670   7.276  1.6252  0.7541 -0.5979
  162MOL0     H22302   2.744   9.557   7.244  0.1203  2.0193  0.8756
  162MOL0     H22303   2.548   9.496   7.388 -1.2530 -0.3037 -0.1895
  162MOL0     H22304   2.454   9.477   7.225  0.1821 -0.2535 -1.5847
  162MOL0     H22305   2.499   9.258   7.082  0.2128  0.3716  0.9665
  162MOL0     H22306   2.560   9.014   7.041  1.4085  1.1062 -2.4682
  162MOL0     H22307   2.661   8.931   7.161  1.6302  1.5942  2.3870
  162MOL0     H22308   2.860   9.040   7.067  0.2103 -1.2576  0.3083
  162MOL0     H22309   2.786   8.933   6.949  0.5566  0.9460  0.2926
  162MOL0     H22310   2.825   9.118   6.818  0.5617 -2.1835  0.3633
  162MOL0     H22311   2.669   9.185   6.887  0.0643 -0.2352  2.1458
  162MOL0     H22312   2.843   9.335   6.889 -0.6439 -0.2446  0.7648
  162MOL0     H22313   2.811   9.293   7.062 -1.1290  0.7008 -0.6995
  162MOL0     H22314   3.110   9.425   6.856  0.9415 -0.5952  0.5783
  162MOL0     H22315   3.217   9.728   6.878 -0.0555  0.0624  1.2359
  162MOL0     H22316   3.270   9.585   6.810  1.6572 -1.1488  0.6043
  162MOL0     H22317   3.376   9.649   6.918  0.6213 -0.6866  0.2854
  162MOL0     H22318   3.402   9.857   7.469  1.8371  0.3465 -1.3313
  162MOL0     H22319   3.407  10.102   7.523 -0.2303  1.8860 -1.1659
  162MOL0     H22320   3.383  10.357   7.274 -0.0762 -0.9654 -1.4068
  162MOL0     H22321   3.209  10.373   7.255  0.5253  0.1419  1.0336
  162MOL0     H22322   3.301  10.585   7.294  1.4132  0.4486  0.4127
  162MOL0     H22323   3.210  10.520   7.444  0.2131 -2.9314  0.8279
  162MOL0     H22324   3.514  10.493   7.412 -0.5841 -1.9901 -0.6022
  162MOL0     H22325   3.412  10.493   7.558  0.5937 -1.1394 -1.1483
  162MOL0     H22326   3.347  10.750   7.512 -0.6686 -1.2796  2.7877
  162MOL0     H22327   3.472  10.746   7.385  1.0570  2.0986  2.1649
  162MOL0     H22328   3.527  10.680   7.680  1.8235  3.5922  2.4869
  162MOL0     H22329   3.647  10.690   7.551  1.9389  1.9661  2.4799
  162MOL0     H22330   3.629  10.892   7.695  2.9856  3.0012 -1.7334
  162MOL0     H22331   3.465  10.923   7.653 -1.4416 -0.7962 -0.1422
  162MOL0     H22332   3.577  11.080   7.536 -1.9953 -0.7876  1.1157
  162MOL0     H22333   3.540  10.963   7.411  1.4611  0.3616 -0.9546
  162MOL0     H22334   3.734  10.863   7.386 -0.2757  0.0668 -1.1359
  162MOL0     H22335   3.817  10.942   7.522  3.1635 -3.0470 -2.9257
  162MOL0     H22336   3.100  10.170   7.238  1.4290  0.2924 -0.4634
  162MOL0     H22337   3.058   9.936   7.214 -0.8895 -0.9321  0.3315
  162MOL0     H22338   3.100   9.502   7.335 -1.7238 -0.3729  0.2880
  162MOL0     H22339   3.002   9.295   7.255 -1.7548  2.1288  1.1700
  162MOL0     H22340   1.976   9.750   6.568 -1.9096 -2.5712 -0.4453
  162MOL0     H22341   1.790   9.822   6.456 -0.1211 -1.7503  0.8645
  162MOL0     H22342   1.520   9.961   6.287 -1.9624  0.9179  0.9186
  162MOL0     H22343   1.311  10.071   6.267  2.7367  0.1236  0.7927
  162MOL0     H22344   1.190  10.177   5.856 -0.6735  6.5340  2.7290
  162MOL0     H22345   1.092  10.031   5.892  2.7597 -0.3656 -1.4400
  162MOL0     H22346   0.903  10.159   5.972 -1.0981 -1.2466 -4.3482
  162MOL0     H22347   0.951  10.233   5.823  2.4034  0.2377 -0.1103
  162MOL0     H22348   1.039  10.355   6.090  2.3555  3.4675 -0.4542
  162MOL0     H22349   1.089  10.404   5.927  2.0220 -2.3942  0.2258
  162MOL0     H22350   0.808  10.377   6.050 -0.4444 -0.2320  0.1158
  162MOL0     H22351   0.842  10.426   5.888  2.1597 -4.2513 -0.4619
  162MOL0     H22352   0.979  10.772   6.091 -2.5212  0.9912 -0.6919
  162MOL0     H22353   1.351  10.078   5.836 -0.4488  0.2916 -0.8326
  162MOL0     H22354   1.703  10.033   5.817 -0.7917  2.8064 -1.7880
  162MOL0     H22355   1.599   9.887   5.781  0.6141 -1.1377  2.7225
  162MOL0     H22356   1.544  10.054   5.738 -1.5591 -2.0942 -0.3913
  163MOL0     O22357   8.013   5.681  10.272 -0.0892 -0.7876 -0.1051
  163MOL0     C22358   8.136   5.695  10.275  0.1565  0.0581  0.0091
  163MOL0     O22359   8.221   5.641  10.185 -0.1715  0.2573  0.6551
  163MOL0     C22360   8.160   5.561  10.094  0.1201 -0.5437  0.6552
  163MOL0     C22361   8.143   5.425  10.119  0.5553 -0.4324 -0.2223
  163MOL0     C22362   8.085   5.348  10.018  0.2433 -0.7279 -0.4599
  163MOL0     C22363   8.065   5.395   9.889 -0.7278  0.1776  0.1141
  163MOL0     O22364   8.020   5.331   9.780 -0.5240 -0.2270 -0.0681
  163MOL0     C22365   7.929   5.226   9.793  0.2906  0.1279  0.1332
  163MOL0     C22366   7.849   5.188   9.663 -0.2950 -0.5058  0.0388
  163MOL0     C22367   7.950   5.132   9.561  1.2795  0.4156  0.0613
  163MOL0     C22368   7.874   5.082   9.429 -0.0678 -0.3444  0.6708
  163MOL0     C22369   7.975   5.028   9.331  0.1300 -1.0163 -0.0773
  163MOL0     C22370   7.923   5.010   9.194 -0.2936 -0.8221  0.2782
  163MOL0     C22371   8.035   4.948   9.104 -0.3785 -0.2944  0.7914
  163MOL0     C22372   7.970   4.883   8.986  0.1894 -0.2641  0.0327
  163MOL0     N22373   8.060   4.856   8.872  0.3141  0.0434  0.1074
  163MOL0     C22374   8.014   4.780   8.767 -0.2256  0.6194  0.8286
  163MOL0     C22375   8.122   4.780   8.676 -0.9563  1.1545 -0.0691
  163MOL0     C22376   8.139   4.699   8.550 -0.4963 -0.2557 -1.0791
  163MOL0     C22377   8.248   4.588   8.582 -0.8293 -0.9150 -1.1420
  163MOL0     C22378   8.243   4.484   8.483 -0.5771  0.0253 -0.8048
  163MOL0     C22379   8.105   4.410   8.487 -0.7033 -0.5489 -0.2112
  163MOL0     O22380   8.107   4.320   8.373  0.0882  0.4025  0.5685
  163MOL0     C22381   8.194   4.219   8.380 -0.1460 -0.8016 -0.0497
  163MOL0     C22382   8.315   4.221   8.297 -1.0133  0.2184  0.0965
  163MOL0     C22383   8.409   4.123   8.295 -0.3482  0.3901  0.3299
  163MOL0     C22384   8.542   4.156   8.221  0.3616 -0.5546  0.2669
  163MOL0     C22385   8.385   4.001   8.369 -0.7239 -0.4788 -0.5233
  163MOL0     C22386   8.480   3.891   8.376  0.4724  0.7977 -0.7787
  163MOL0     O22387   8.456   3.812   8.489 -0.3473  1.0735  0.5250
  163MOL0     C22388   8.520   3.687   8.501  0.9643 -0.3441 -0.4497
  163MOL0     C22389   8.519   3.634   8.632 -0.0037 -0.5622 -0.0622
  163MOL0     C22390   8.571   3.508   8.647 -0.6988  0.1902  0.3869
  163MOL0     C22391   8.626   3.434   8.545 -0.2446  0.3686  0.3968
  163MOL0     O22392   8.703   3.321   8.578 -0.4772 -0.1513 -0.2077
  163MOL0     C22393   8.788   3.269   8.484 -0.0283  0.2497  0.2647
  163MOL0     C22394   8.897   3.176   8.543  0.9507  0.6182  0.7669
  163MOL0     C22395   8.831   3.039   8.571 -0.3835  0.2451 -0.4209
  163MOL0     C22396   8.833   3.011   8.729 -0.3158 -0.4060  0.0619
  163MOL0     C22397   8.779   2.872   8.766  0.4546  0.1638 -0.6152
  163MOL0     C22398   8.791   2.851   8.917 -0.1987  0.1495 -0.2728
  163MOL0     C22399   8.740   2.710   8.942 -0.3787  0.3835 -0.2395
  163MOL0     C22400   8.718   2.686   9.092 -0.7001  0.0287 -0.4630
  163MOL0    Cl22401   8.553   2.708   9.146  0.0483  0.7688  0.1308
  163MOL0     C22402   8.627   3.484   8.409 -0.2403 -0.1738  0.3362
  163MOL0     C22403   8.578   3.611   8.394  0.7350  0.1063 -1.2691
  163MOL0     O22404   8.574   3.880   8.303  0.2919  0.1544 -0.4052
  163MOL0     C22405   8.267   3.997   8.458 -0.3612 -0.1797 -0.0498
  163MOL0     C22406   8.179   4.104   8.462 -0.1748  0.6794 -0.1725
  163MOL0     N22407   8.222   4.852   8.731 -0.8033 -0.0211  0.1365
  163MOL0     N22408   8.185   4.906   8.849 -0.2383  0.0326  0.2235
  163MOL0     C22409   8.089   5.533   9.861 -0.4256  0.4217  0.1769
  163MOL0     C22410   8.125   5.616   9.960  1.0140 -0.5815  0.1680
  163MOL0     C22411   8.204   5.752  10.395 -0.1038  0.0302  0.0582
  163MOL0     C22412   8.336   5.707  10.422  0.2716 -0.7717 -0.3347
  163MOL0     C22413   8.410   5.775  10.522  0.3426 -0.2997 -0.0900
  163MOL0     C22414   8.365   5.888  10.594 -0.1973 -0.0491  1.0727
  163MOL0     O22415   8.452   5.959  10.677  0.1204  0.2793  0.0298
  163MOL0     C22416   8.396   6.076  10.744  0.4305 -0.4051  0.3863
  163MOL0     C22417   8.502   6.134  10.832 -0.5896 -1.2953 -0.6524
  163MOL0     C22418   8.627   6.184  10.758 -0.8206 -0.1215  0.2921
  163MOL0     C22419   8.697   6.291  10.838  0.0866  0.3424  0.5010
  163MOL0     C22420   8.744   6.231  10.960  0.4723  0.5643 -0.3605
  163MOL0     C22421   8.771   6.201  11.077  0.0106 -0.1112  0.8654
  163MOL0     C22422   8.233   5.922  10.561  0.7261 -0.1555 -0.4804
  163MOL0     C22423   8.153   5.856  10.469  0.0770  0.2502  0.3098
  163MOL0     C22424   8.015   5.915  10.447 -1.1633  0.7258 -0.2765
  163MOL0     H22425   8.166   5.399  10.222 -1.1489  0.4710  0.4332
  163MOL0     H22426   8.067   5.243  10.039  0.2201 -0.8918 -1.2751
  163MOL0     H22427   7.854   5.262   9.865 -0.2518  0.3468 -0.5331
  163MOL0     H22428   7.979   5.138   9.835  0.4582  0.9770  1.7990
  163MOL0     H22429   7.764   5.125   9.690 -0.7642 -0.4983 -1.3389
  163MOL0     H22430   7.798   5.271   9.613 -0.1127  0.8338  1.9807
  163MOL0     H22431   8.010   5.212   9.518  2.4673 -0.0956  0.7226
  163MOL0     H22432   8.007   5.047   9.598  0.9105  0.3006  0.3732
  163MOL0     H22433   7.789   5.017   9.450 -1.5218  2.1576  3.2563
  163MOL0     H22434   7.833   5.169   9.376 -0.5964 -0.3407  1.0819
  163MOL0     H22435   8.008   4.931   9.370  1.7712 -1.1150 -1.6272
  163MOL0     H22436   8.057   5.100   9.332 -0.2328 -0.5835  1.3812
  163MOL0     H22437   7.838   4.942   9.207 -2.4975  1.6200 -0.5393
  163MOL0     H22438   7.877   5.099   9.151 -1.6459 -0.6051  2.0485
  163MOL0     H22439   8.081   4.873   9.169 -0.5677 -0.0179  1.2446
  163MOL0     H22440   8.109   5.022   9.072 -0.0966 -0.9954 -0.2386
  163MOL0     H22441   7.922   4.789   9.017 -1.1107 -0.5412 -2.5579
  163MOL0     H22442   7.881   4.942   8.963  0.5112  0.4007  0.4641
  163MOL0     H22443   7.915   4.739   8.752 -0.6539  2.3731 -1.7879
  163MOL0     H22444   8.164   4.760   8.463 -1.0706 -0.8509 -1.6669
  163MOL0     H22445   8.039   4.660   8.529 -1.6786  2.5954 -1.2247
  163MOL0     H22446   8.349   4.631   8.579 -1.1668  0.3794  2.0817
  163MOL0     H22447   8.230   4.553   8.684  1.5908  3.9877  1.3596
  163MOL0     H22448   8.260   4.524   8.382 -1.3875  1.7743 -0.2849
  163MOL0     H22449   8.320   4.412   8.512 -1.9186 -0.7038  1.1675
  163MOL0     H22450   8.084   4.366   8.585 -0.9544  0.0571  0.0107
  163MOL0     H22451   8.021   4.476   8.462 -0.6412  0.7535  2.5879
  163MOL0     H22452   8.337   4.319   8.255 -0.7257  0.5708  1.0418
  163MOL0     H22453   8.560   4.263   8.207 -1.6704  0.0762  2.0577
  163MOL0     H22454   8.542   4.098   8.128  2.7771  0.2407 -0.3198
  163MOL0     H22455   8.630   4.119   8.274  1.5115  1.6978  0.0762
  163MOL0     H22456   8.475   3.696   8.709  1.6486 -1.5800  1.7717
  163MOL0     H22457   8.577   3.474   8.750 -1.4297  3.1386  1.5135
  163MOL0     H22458   8.737   3.218   8.401  1.2060 -1.2388  0.3733
  163MOL0     H22459   8.857   3.346   8.447  0.4891  0.7694  2.1916
  163MOL0     H22460   8.962   3.155   8.458 -1.0334 -1.9511 -0.2392
  163MOL0     H22461   8.950   3.218   8.630 -0.3904  1.5163  1.1776
  163MOL0     H22462   8.888   2.959   8.522  0.6722  0.6521  0.1092
  163MOL0     H22463   8.727   3.029   8.539 -0.9685  1.8649  0.8126
  163MOL0     H22464   8.769   3.086   8.777 -0.2774  0.1353 -0.7151
  163MOL0     H22465   8.935   3.037   8.760 -0.0088 -0.9538 -0.4638
  163MOL0     H22466   8.673   2.867   8.740  0.1879 -0.8798  0.5597
  163MOL0     H22467   8.832   2.791   8.714  0.7669 -0.6229  0.8566
  163MOL0     H22468   8.729   2.924   8.970 -0.5031  0.5211 -1.1245
  163MOL0     H22469   8.897   2.862   8.941  0.1859  0.7490 -2.0641
  163MOL0     H22470   8.817   2.640   8.909 -1.0385  0.4470 -2.0335
  163MOL0     H22471   8.659   2.667   8.882  1.2954 -1.2018 -1.4538
  163MOL0     H22472   8.800   2.744   9.137  1.7173 -2.1649 -1.7230
  163MOL0     H22473   8.735   2.580   9.112  1.8027  0.3039 -0.8113
  163MOL0     H22474   8.663   3.424   8.326  1.6308  1.2192  0.0652
  163MOL0     H22475   8.568   3.647   8.292 -0.0940  1.4947 -0.7346
  163MOL0     H22476   8.237   3.906   8.510  0.7315  0.0804  1.0658
  163MOL0     H22477   8.085   4.088   8.515  0.7252 -0.0870  1.2861
  163MOL0     H22478   8.051   5.567   9.765 -1.3201  0.0224  0.3718
  163MOL0     H22479   8.116   5.721   9.937 -2.8500 -1.1785 -1.8814
  163MOL0     H22480   8.388   5.631  10.365 -1.9072  0.0058 -3.6174
  163MOL0     H22481   8.515   5.752  10.525  0.5595  0.7036  0.7149
  163MOL0     H22482   8.369   6.151  10.669  2.0057 -1.4670 -1.3479
  163MOL0     H22483   8.305   6.045  10.796  0.1700  1.2930  0.9809
  163MOL0     H22484   8.535   6.060  10.906  1.4657  0.8583  0.7350
  163MOL0     H22485   8.463   6.220  10.887  0.5303  0.9584 -3.1344
  163MOL0     H22486   8.691   6.097  10.742 -1.9791 -1.3907  2.1444
  163MOL0     H22487   8.608   6.231  10.661  4.5431  3.1226  0.4018
  163MOL0     H22488   8.618   6.365  10.851 -2.4691 -1.6186 -2.4614
  163MOL0     H22489   8.783   6.341  10.792  0.7099 -1.7622 -0.7584
  163MOL0     H22490   8.767   6.168  11.179  2.5144 -0.8320  0.7998
  163MOL0     H22491   8.188   5.995  10.627  0.9637 -0.9993  0.6389
  163MOL0     H22492   7.976   5.990  10.518 -2.1646  0.3923 -0.4587
  163MOL0     H22493   7.997   5.963  10.351 -1.5580  1.5104  0.1735
  163MOL0     H22494   7.944   5.835  10.468 -0.7370  0.9416  2.2978
  164MOL0     O22495   5.845   6.063   6.896 -0.4699 -0.1499  0.7010
  164MOL0     C22496   5.964   6.097   6.870  0.1080 -0.7907  0.4513
  164MOL0     O22497   6.017   6.218   6.888 -0.3200 -0.2998 -0.5409
  164MOL0     C22498   5.954   6.322   6.954 -0.4440  0.1282 -0.1507
  164MOL0     C22499   6.034   6.434   6.954  0.6107 -0.3418  0.1645
  164MOL0     C22500   6.023   6.529   7.058  0.1005  0.3398  0.1268
  164MOL0     C22501   5.906   6.537   7.137  0.0457 -0.5480  0.2525
  164MOL0     O22502   5.901   6.624   7.244  0.6585 -0.3531  0.1671
  164MOL0     C22503   5.773   6.647   7.292 -0.2424 -0.4160  0.1618
  164MOL0     C22504   5.780   6.779   7.376  0.5845  0.0765  0.6228
  164MOL0     C22505   5.847   6.904   7.322 -0.2511 -0.1675  0.1200
  164MOL0     C22506   5.787   7.032   7.390 -0.6978 -0.4682 -0.2133
  164MOL0     C22507   5.880   7.087   7.501  0.1749  0.1083  0.3795
  164MOL0     C22508   5.940   7.223   7.469  0.1333  0.2601  0.4590
  164MOL0     C22509   6.028   7.284   7.580 -0.3094 -0.4447 -0.9677
  164MOL0     C22510   6.074   7.424   7.546  0.2955 -1.0472  0.8956
  164MOL0     N22511   6.204   7.435   7.474 -0.6118  0.5621  0.3823
  164MOL0     C22512   6.316   7.513   7.505 -0.2872  0.0556  1.1997
  164MOL0     C22513   6.411   7.498   7.400  0.2214 -0.0165  0.0540
  164MOL0     C22514   6.553   7.564   7.391 -0.0317  0.0353  0.4246
  164MOL0     C22515   6.672   7.463   7.410  0.7648 -0.0850  0.4515
  164MOL0     C22516   6.812   7.528   7.413 -0.0305  0.9033  0.6182
  164MOL0     C22517   6.854   7.567   7.278 -0.5921  0.3965 -0.2102
  164MOL0     O22518   6.982   7.625   7.301 -0.4654 -0.1676 -0.1982
  164MOL0     C22519   7.012   7.719   7.204 -0.3213  0.4935  0.6200
  164MOL0     C22520   6.988   7.701   7.064  0.0365 -0.3699  0.1161
  164MOL0     C22521   7.045   7.783   6.965 -0.2985 -0.0474 -0.9476
  164MOL0     C22522   7.026   7.729   6.822 -0.3823 -0.3502 -0.1053
  164MOL0     C22523   7.119   7.900   7.003 -0.1610  0.6918 -0.5638
  164MOL0     C22524   7.176   7.989   6.900 -0.1115 -0.2708 -0.0425
  164MOL0     O22525   7.164   8.121   6.930  0.4693  0.2643  0.3806
  164MOL0     C22526   7.206   8.231   6.859 -0.4601 -0.3684  0.6443
  164MOL0     C22527   7.263   8.332   6.931  0.8255 -0.2382  0.8195
  164MOL0     C22528   7.314   8.449   6.868  0.8858 -0.3471 -0.6386
  164MOL0     C22529   7.320   8.453   6.728  0.6537 -0.3063  0.1962
  164MOL0     O22530   7.382   8.560   6.675  0.2380  0.0979  0.0153
  164MOL0     C22531   7.402   8.565   6.535 -0.4619 -0.1151 -0.3580
  164MOL0     C22532   7.416   8.715   6.511 -0.1274  0.2993  0.4115
  164MOL0     C22533   7.439   8.733   6.355 -0.6319 -0.4028  0.6830
  164MOL0     C22534   7.483   8.882   6.324  0.7654  1.2200 -0.4692
  164MOL0     C22535   7.624   8.891   6.266 -0.5106  0.2460  0.1256
  164MOL0     C22536   7.747   8.860   6.351 -0.5644 -1.6575 -0.1931
  164MOL0     C22537   7.744   8.951   6.482 -0.2794  0.1051  1.0244
  164MOL0     C22538   7.752   9.101   6.456 -0.5223  0.4379 -0.3592
  164MOL0    Cl22539   7.877   9.162   6.342  0.0700 -0.2589  0.1768
  164MOL0     C22540   7.269   8.349   6.664 -0.4032 -0.4284  0.6275
  164MOL0     C22541   7.204   8.240   6.719  0.3861  0.6612 -0.1307
  164MOL0     O22542   7.238   7.958   6.798 -0.1305  0.2963 -1.0734
  164MOL0     C22543   7.142   7.928   7.140  0.1191  0.7688 -0.1208
  164MOL0     C22544   7.084   7.834   7.236 -0.0306 -0.3508  1.0700
  164MOL0     N22545   6.356   7.406   7.309  0.0931 -0.4252  0.1441
  164MOL0     N22546   6.234   7.378   7.349 -0.1890 -0.6581 -0.7037
  164MOL0     C22547   5.808   6.436   7.116  0.0098  0.1021 -0.7643
  164MOL0     C22548   5.835   6.332   7.025 -0.0386 -0.3175  0.9718
  164MOL0     C22549   6.059   5.985   6.831  0.6081 -0.3957 -0.5324
  164MOL0     C22550   5.999   5.857   6.800 -0.2823 -0.8572  0.6120
  164MOL0     C22551   6.080   5.750   6.760 -0.2057  0.5911 -0.8443
  164MOL0     C22552   6.222   5.767   6.760 -0.2521  0.5890 -0.2024
  164MOL0     O22553   6.310   5.674   6.733 -0.3243  0.1499  0.5788
  164MOL0     C22554   6.290   5.570   6.631 -0.8001 -0.3295  0.0996
  164MOL0     C22555   6.422   5.497   6.613  0.1225 -0.6671 -0.5621
  164MOL0     C22556   6.469   5.453   6.749 -0.2394  0.2744  0.0591
  164MOL0     C22557   6.601   5.377   6.719 -0.5103  0.2114 -0.7323
  164MOL0     C22558   6.575   5.234   6.693  0.9000 -0.0480  0.0857
  164MOL0     C22559   6.554   5.114   6.668  1.0920  0.1316  0.5259
  164MOL0     C22560   6.277   5.882   6.801 -0.2488 -0.4685  0.0319
  164MOL0     C22561   6.202   6.001   6.833  0.1254  0.8605  0.1355
  164MOL0     C22562   6.280   6.126   6.862 -0.2813  0.6473 -1.3903
  164MOL0     H22563   6.121   6.440   6.890 -1.0663  0.5588 -2.1904
  164MOL0     H22564   6.096   6.608   7.071  0.7616 -0.0514 -1.0102
  164MOL0     H22565   5.745   6.558   7.349  0.1902 -0.5613  0.1458
  164MOL0     H22566   5.705   6.659   7.207 -0.7224 -1.9654  0.3057
  164MOL0     H22567   5.676   6.799   7.403  0.5639  2.7419 -1.0603
  164MOL0     H22568   5.822   6.757   7.474 -2.7636 -1.7478  1.8441
  164MOL0     H22569   5.956   6.902   7.326 -0.2833 -0.6285  1.8909
  164MOL0     H22570   5.830   6.910   7.214 -0.2655  2.0035  0.2151
  164MOL0     H22571   5.773   7.109   7.314 -0.0269 -1.0163 -0.9131
  164MOL0     H22572   5.691   7.004   7.434  0.2226 -4.0071 -0.1509
  164MOL0     H22573   5.955   7.018   7.541  0.3101  0.6694  1.1116
  164MOL0     H22574   5.811   7.104   7.584 -1.2594  1.6587 -1.0443
  164MOL0     H22575   6.005   7.203   7.384 -1.2430  1.1260 -0.8565
  164MOL0     H22576   5.864   7.283   7.417  1.2045 -1.6010 -3.7294
  164MOL0     H22577   6.109   7.216   7.608  1.1455  1.5417 -0.0752
  164MOL0     H22578   5.972   7.282   7.674 -0.5125  1.7601 -1.0055
  164MOL0     H22579   5.991   7.480   7.502  1.9047  1.1027  0.4090
  164MOL0     H22580   6.097   7.469   7.643 -0.8035 -1.0536  1.1705
  164MOL0     H22581   6.338   7.572   7.593  1.2480  1.1060  0.1664
  164MOL0     H22582   6.564   7.641   7.467 -1.0247  0.8596 -0.2376
  164MOL0     H22583   6.552   7.625   7.300 -0.1448  0.8229  0.9471
  164MOL0     H22584   6.656   7.423   7.511 -1.6662  1.3572  0.7353
  164MOL0     H22585   6.677   7.377   7.343 -0.9513  0.7319 -0.7959
  164MOL0     H22586   6.818   7.612   7.483 -0.4395  0.8383  0.7348
  164MOL0     H22587   6.879   7.452   7.456 -2.7990 -1.9760  0.1730
  164MOL0     H22588   6.870   7.480   7.213 -0.9125  1.2630 -1.4706
  164MOL0     H22589   6.785   7.637   7.230  2.5841  3.1635 -1.1523
  164MOL0     H22590   6.922   7.622   7.029  0.2261  1.9306 -7.0783
  164MOL0     H22591   6.931   7.764   6.780 -1.0926 -2.2589 -0.1679
  164MOL0     H22592   7.023   7.620   6.819  1.9577 -0.4442 -1.1890
  164MOL0     H22593   7.119   7.756   6.771  1.2754  0.2512  3.0295
  164MOL0     H22594   7.257   8.333   7.039 -3.5534  0.9022  0.7353
  164MOL0     H22595   7.377   8.519   6.922 -0.2359  0.7025 -0.6327
  164MOL0     H22596   7.497   8.516   6.510  0.0794  0.3971  0.6142
  164MOL0     H22597   7.321   8.534   6.470  0.4870  0.1953 -1.7401
  164MOL0     H22598   7.330   8.772   6.545  1.3515  0.4637  4.5259
  164MOL0     H22599   7.490   8.765   6.575  1.5653 -1.8832  0.2771
  164MOL0     H22600   7.353   8.699   6.296  1.6466 -0.7350 -2.7879
  164MOL0     H22601   7.518   8.663   6.323  2.6649  3.2650  0.0141
  164MOL0     H22602   7.472   8.948   6.411  1.6124  2.6384 -1.4071
  164MOL0     H22603   7.407   8.912   6.250 -3.4199 -1.5676  2.2363
  164MOL0     H22604   7.625   8.819   6.184 -0.5382  1.2292 -0.7662
  164MOL0     H22605   7.642   8.991   6.226 -3.9362  1.2368  0.7368
  164MOL0     H22606   7.842   8.875   6.299 -0.2731  1.1404  0.9448
  164MOL0     H22607   7.747   8.753   6.373  1.5885 -2.1065 -2.0022
  164MOL0     H22608   7.815   8.910   6.555  0.3153 -0.3344  0.2076
  164MOL0     H22609   7.645   8.944   6.529 -2.1237  1.8001 -2.2258
  164MOL0     H22610   7.777   9.146   6.553 -2.9934  1.2264 -0.0063
  164MOL0     H22611   7.657   9.147   6.428 -0.0374  0.7205 -1.6278
  164MOL0     H22612   7.288   8.339   6.557 -0.8743 -0.6405  0.5584
  164MOL0     H22613   7.171   8.162   6.650  0.5576 -1.2971  1.8621
  164MOL0     H22614   7.199   8.015   7.173 -1.6910  1.5039  1.3110
  164MOL0     H22615   7.109   7.843   7.341 -0.7242 -0.1227  1.2187
  164MOL0     H22616   5.709   6.433   7.161 -0.6183 -1.9599 -2.1208
  164MOL0     H22617   5.767   6.248   7.012 -0.7465  0.3215  0.5044
  164MOL0     H22618   5.893   5.837   6.805 -0.3176 -0.6291  0.8021
  164MOL0     H22619   6.042   5.653   6.730  0.9735  0.0268 -0.6041
  164MOL0     H22620   6.224   5.491   6.670  0.5677 -1.5241  0.0568
  164MOL0     H22621   6.255   5.614   6.537 -0.3452  0.3852  0.2580
  164MOL0     H22622   6.488   5.566   6.562 -0.2852 -0.9526 -1.5002
  164MOL0     H22623   6.429   5.425   6.531  3.6681  1.4270 -2.3334
  164MOL0     H22624   6.493   5.539   6.812 -0.2124  0.9984 -0.9005
  164MOL0     H22625   6.393   5.395   6.801 -0.6533  0.5129 -0.2733
  164MOL0     H22626   6.671   5.368   6.802  0.0033 -1.3615 -1.3024
  164MOL0     H22627   6.652   5.414   6.629  1.0246 -4.8430 -2.2763
  164MOL0     H22628   6.553   5.010   6.642  1.3677 -0.0415  1.1938
  164MOL0     H22629   6.384   5.892   6.811 -0.0761 -1.3306 -0.8283
  164MOL0     H22630   6.382   6.128   6.821 -0.7705 -0.0594 -2.7187
  164MOL0     H22631   6.237   6.213   6.812  1.1130  3.6096  2.1357
  164MOL0     H22632   6.281   6.149   6.969  2.8340 -0.4416 -1.0816
  165MOL0     O22633   3.991   3.014   3.205  0.3693 -0.0734 -0.2351
  165MOL0     C22634   4.043   3.019   3.321 -0.1039 -0.0681  0.6395
  165MOL0     O22635   4.043   2.921   3.421 -0.3413 -0.2326  1.0057
  165MOL0     C22636   4.062   2.803   3.363 -0.2776  1.0924  0.6926
  165MOL0     C22637   4.193   2.752   3.343  0.5171  0.4929  0.1302
  165MOL0     C22638   4.217   2.613   3.314  0.4670 -0.1522  0.4829
  165MOL0     C22639   4.102   2.522   3.309 -0.0693 -0.5026 -0.7398
  165MOL0     O22640   4.111   2.389   3.280  0.6052  0.5443  0.0534
  165MOL0     C22641   4.241   2.346   3.231 -0.7954  0.9072 -0.6245
  165MOL0     C22642   4.227   2.204   3.172 -0.2711 -0.4291  0.1209
  165MOL0     C22643   4.361   2.144   3.124 -1.6957 -0.8087  0.4664
  165MOL0     C22644   4.433   2.091   3.243 -0.3639  0.2700  0.9974
  165MOL0     C22645   4.588   2.064   3.218  0.1011  0.0974 -0.6797
  165MOL0     C22646   4.668   2.193   3.222 -0.2289 -0.3797  0.0878
  165MOL0     C22647   4.669   2.263   3.361 -1.8631 -0.1759  0.2255
  165MOL0     C22648   4.751   2.396   3.362  0.7048 -0.4201  0.0651
  165MOL0     N22649   4.689   2.487   3.268 -0.4576 -0.0400 -0.2457
  165MOL0     C22650   4.760   2.543   3.165  0.4118 -0.4213  0.0454
  165MOL0     C22651   4.673   2.614   3.087  0.3258  0.5011 -0.2593
  165MOL0     C22652   4.709   2.694   2.970  0.3654 -0.8340 -0.3021
  165MOL0     C22653   4.713   2.850   3.008  0.5362  0.1211 -0.0403
  165MOL0     C22654   4.837   2.864   3.109 -0.0408  0.2632 -0.4148
  165MOL0     C22655   4.854   3.003   3.158  0.1078 -0.1724  0.0981
  165MOL0     O22656   4.844   3.090   3.050 -0.8413 -0.8255  0.4527
  165MOL0     C22657   4.833   3.218   3.104 -0.2653  1.2048 -1.0826
  165MOL0     C22658   4.711   3.275   3.112  0.7342 -0.3567 -0.0202
  165MOL0     C22659   4.692   3.406   3.164  0.1031 -0.5618 -0.4412
  165MOL0     C22660   4.556   3.478   3.147  0.1821  0.1378  0.0565
  165MOL0     C22661   4.808   3.483   3.214  0.7351 -0.4099  0.3994
  165MOL0     C22662   4.815   3.621   3.278  0.0464  0.4280 -0.2285
  165MOL0     O22663   4.933   3.692   3.270 -0.2043  0.8593  0.6106
  165MOL0     C22664   4.945   3.820   3.315 -0.1362 -1.1019  0.9068
  165MOL0     C22665   4.895   3.869   3.438  0.1424 -0.0016 -0.0687
  165MOL0     C22666   4.936   3.996   3.483  0.2353  1.2283  0.5763
  165MOL0     C22667   5.023   4.073   3.400 -0.0775  0.4449  1.0300
  165MOL0     O22668   5.063   4.188   3.450  0.5570  0.1794 -0.1532
  165MOL0     C22669   5.172   4.254   3.380  0.0975  0.5024 -0.6176
  165MOL0     C22670   5.192   4.385   3.456 -0.2447 -0.6670 -0.7958
  165MOL0     C22671   5.314   4.462   3.400 -0.3391 -0.5087 -0.1919
  165MOL0     C22672   5.291   4.541   3.273 -0.5026  0.4849  0.2609
  165MOL0     C22673   5.413   4.625   3.236  0.1796  0.5858  0.2102
  165MOL0     C22674   5.399   4.691   3.103 -0.8652 -0.0335 -0.0536
  165MOL0     C22675   5.269   4.772   3.082  0.1092 -0.8623  0.9641
  165MOL0     C22676   5.297   4.875   2.960 -0.0531  0.8467 -0.9047
  165MOL0    Cl22677   5.390   5.012   3.043  0.3613 -0.1422 -0.1018
  165MOL0     C22678   5.064   4.027   3.271 -0.3354 -0.1261 -0.5702
  165MOL0     C22679   5.024   3.903   3.238 -0.8240  0.3131 -0.6248
  165MOL0     O22680   4.721   3.655   3.350  0.2805  0.8341 -0.1180
  165MOL0     C22681   4.931   3.423   3.189 -0.0129  0.4400 -0.4274
  165MOL0     C22682   4.946   3.296   3.140 -0.2407  0.7783 -0.3805
  165MOL0     N22683   4.543   2.597   3.153  0.0536  0.1091 -0.9153
  165MOL0     N22684   4.558   2.519   3.261  0.0259 -0.0245 -0.7244
  165MOL0     C22685   3.978   2.580   3.326  0.3037  0.1365  0.5766
  165MOL0     C22686   3.954   2.712   3.351 -1.3747 -0.0008 -0.7874
  165MOL0     C22687   4.089   3.152   3.365  0.5068  0.5682 -0.4864
  165MOL0     C22688   4.048   3.194   3.491 -1.3440  0.3360 -0.1522
  165MOL0     C22689   4.070   3.322   3.525 -0.4376 -0.7539  0.0003
  165MOL0     C22690   4.140   3.414   3.455 -0.7042  0.1737  1.0148
  165MOL0     O22691   4.145   3.541   3.497 -0.1515  0.0779 -0.2580
  165MOL0     C22692   4.207   3.639   3.415 -0.3593 -1.1594 -0.3439
  165MOL0     C22693   4.219   3.777   3.492  0.0036 -0.4048 -0.7700
  165MOL0     C22694   4.279   3.777   3.627 -0.2317  0.1784  0.0792
  165MOL0     C22695   4.437   3.808   3.622  1.4094 -0.7128  0.3310
  165MOL0     C22696   4.463   3.810   3.765  0.5727  0.6483  0.0637
  165MOL0     C22697   4.476   3.830   3.881 -1.5191  0.2424  0.6313
  165MOL0     C22698   4.198   3.364   3.338 -0.4586 -0.8261 -0.1100
  165MOL0     C22699   4.167   3.239   3.284 -0.1260 -0.9203 -0.4987
  165MOL0     C22700   4.238   3.192   3.158 -0.2836 -0.0121 -0.3801
  165MOL0     H22701   4.287   2.807   3.342  1.1084 -0.4715  0.3333
  165MOL0     H22702   4.322   2.586   3.303  0.6099  1.0353 -1.7213
  165MOL0     H22703   4.311   2.349   3.315 -0.4289  0.9519 -0.9289
  165MOL0     H22704   4.285   2.408   3.152  0.3496 -1.4360 -1.9631
  165MOL0     H22705   4.179   2.143   3.249 -1.8988  1.5690  0.7691
  165MOL0     H22706   4.158   2.198   3.088  1.4457  0.3184 -1.4113
  165MOL0     H22707   4.332   2.070   3.049  1.2654 -0.0605 -1.6430
  165MOL0     H22708   4.421   2.218   3.069  1.3071 -2.7318  0.8769
  165MOL0     H22709   4.420   2.148   3.336 -3.0764 -0.3273  1.0899
  165MOL0     H22710   4.396   1.989   3.259 -0.1438 -0.9561 -4.4009
  165MOL0     H22711   4.611   2.009   3.126  2.5907 -0.5931  0.2773
  165MOL0     H22712   4.627   2.007   3.302  1.5251 -0.6347 -1.7976
  165MOL0     H22713   4.771   2.163   3.198 -1.3187 -2.8702 -1.8821
  165MOL0     H22714   4.638   2.260   3.141  1.5871  2.0561  1.3130
  165MOL0     H22715   4.716   2.193   3.431 -2.4705  0.9027  1.7580
  165MOL0     H22716   4.567   2.286   3.393 -1.4072 -1.1535  2.5736
  165MOL0     H22717   4.746   2.445   3.460  3.1639  0.4594 -0.1847
  165MOL0     H22718   4.855   2.383   3.333  0.2182 -1.0317 -1.5356
  165MOL0     H22719   4.869   2.540   3.165  0.6245  3.0273  0.6720
  165MOL0     H22720   4.642   2.663   2.889  0.2190  1.5490 -1.1572
  165MOL0     H22721   4.814   2.669   2.950  0.7077 -0.7631  1.3137
  165MOL0     H22722   4.734   2.904   2.915 -0.3232  2.0678  0.8288
  165MOL0     H22723   4.624   2.897   3.051  1.0320 -0.9037  2.2442
  165MOL0     H22724   4.823   2.805   3.199 -2.1760  2.6523  0.9428
  165MOL0     H22725   4.925   2.820   3.060 -2.1457 -3.4429 -1.1880
  165MOL0     H22726   4.770   3.026   3.224 -0.5971 -1.1677 -0.4229
  165MOL0     H22727   4.949   3.005   3.212 -0.0323 -3.5559  0.6894
  165MOL0     H22728   4.626   3.226   3.065 -1.6527  2.2122  1.2950
  165MOL0     H22729   4.491   3.459   3.233  1.0879 -1.3541  0.4419
  165MOL0     H22730   4.500   3.454   3.056 -1.0511 -0.5036  0.9689
  165MOL0     H22731   4.570   3.586   3.135  1.1947 -0.1668 -1.9906
  165MOL0     H22732   4.830   3.807   3.499  0.4190  0.5631  0.8071
  165MOL0     H22733   4.895   4.029   3.578  0.7321 -0.7761  1.5432
  165MOL0     H22734   5.265   4.198   3.366 -0.6594 -0.8732 -0.3430
  165MOL0     H22735   5.137   4.284   3.281 -2.2165 -2.9162 -1.0384
  165MOL0     H22736   5.104   4.450   3.463 -2.0086 -2.7220 -2.4991
  165MOL0     H22737   5.219   4.353   3.557  1.6178 -1.4498 -1.5044
  165MOL0     H22738   5.398   4.391   3.393  1.7588  1.9004 -0.7543
  165MOL0     H22739   5.354   4.527   3.479 -0.5597 -0.4248 -0.1494
  165MOL0     H22740   5.197   4.596   3.261 -0.4910  0.6077  0.7199
  165MOL0     H22741   5.279   4.456   3.206 -2.9801 -0.5007  1.8335
  165MOL0     H22742   5.442   4.700   3.310 -1.3924  2.1950 -0.7265
  165MOL0     H22743   5.491   4.549   3.248  0.5276  1.0937  1.2945
  165MOL0     H22744   5.393   4.611   3.028 -3.2228 -0.2769  0.3229
  165MOL0     H22745   5.477   4.766   3.083 -1.0041  1.4689  4.1552
  165MOL0     H22746   5.221   4.822   3.167 -2.5774 -0.2804 -0.7642
  165MOL0     H22747   5.194   4.702   3.046  0.0425  0.4278 -1.6640
  165MOL0     H22748   5.205   4.924   2.928 -0.7094 -0.5584 -1.2613
  165MOL0     H22749   5.362   4.833   2.882  1.1556  0.9785 -0.0034
  165MOL0     H22750   5.133   4.069   3.199 -1.0967 -0.1258 -1.3088
  165MOL0     H22751   5.067   3.866   3.145 -0.1397 -0.5707  0.0310
  165MOL0     H22752   5.025   3.473   3.209  0.5402  0.3125 -2.4895
  165MOL0     H22753   5.040   3.244   3.124 -1.1959 -0.3913 -2.6203
  165MOL0     H22754   3.888   2.522   3.307 -1.4677  0.7242  5.7432
  165MOL0     H22755   3.853   2.745   3.370 -0.4925  2.1287  0.5515
  165MOL0     H22756   3.985   3.138   3.559  0.2163  0.6013  1.5659
  165MOL0     H22757   4.026   3.365   3.614 -0.4264  1.8220 -1.1592
  165MOL0     H22758   4.306   3.612   3.377  0.0670  0.5807 -0.5770
  165MOL0     H22759   4.146   3.658   3.326  1.0607 -1.2275 -1.3806
  165MOL0     H22760   4.116   3.812   3.493  0.2535  0.3308 -0.5594
  165MOL0     H22761   4.275   3.847   3.429 -0.0163  0.0105 -0.3285
  165MOL0     H22762   4.222   3.838   3.697 -0.2191 -0.0962  0.3371
  165MOL0     H22763   4.263   3.673   3.659 -0.5253 -0.3090 -1.5698
  165MOL0     H22764   4.440   3.911   3.584 -0.0395 -0.0516  1.8513
  165MOL0     H22765   4.494   3.741   3.557 -0.3377 -3.8631  1.8025
  165MOL0     H22766   4.503   3.857   3.981  0.1285 -0.4455  0.4078
  165MOL0     H22767   4.252   3.437   3.279  0.0470  0.9873  2.4474
  165MOL0     H22768   4.322   3.260   3.144  1.4370 -1.9281  0.1353
  165MOL0     H22769   4.278   3.091   3.171  0.2682 -0.0578 -2.1139
  165MOL0     H22770   4.179   3.193   3.066  0.1713  0.1141 -0.6755
  166MOL0     O22771   6.818   0.301   1.123  0.6258 -0.4596  0.1277
  166MOL0     C22772   6.762   0.235   1.032  0.2109  0.0260 -0.7482
  166MOL0     O22773   6.810   0.115   0.978 -0.6585 -0.2923  0.1543
  166MOL0     C22774   6.915   0.057   1.048  0.1491 -0.5466 -0.3697
  166MOL0     C22775   7.018   0.027   0.962 -0.0495 -0.4935  0.3914
  166MOL0     C22776   7.125  -0.041   1.017 -0.7194  0.2918 -0.3200
  166MOL0     C22777   7.151  -0.045   1.157 -0.0594 -0.5049 -0.0789
  166MOL0     O22778   7.262  -0.103   1.207  0.1118  0.4013 -0.3652
  166MOL0     C22779   7.369  -0.144   1.117  0.9296  0.3817  0.0465
  166MOL0     C22780   7.486  -0.221   1.185 -0.3447 -0.7578  0.9864
  166MOL0     C22781   7.570  -0.282   1.079  0.6137  0.0109 -0.4600
  166MOL0     C22782   7.700  -0.215   1.063 -1.4547 -0.1569 -0.0290
  166MOL0     C22783   7.790  -0.280   0.963 -0.5084  0.7169  0.6059
  166MOL0     C22784   7.897  -0.381   1.013 -0.0379  0.6410  0.0482
  166MOL0     C22785   8.020  -0.312   1.070  0.4859 -0.1344  0.2928
  166MOL0     C22786   8.150  -0.394   1.043  0.2388 -0.5132  0.3088
  166MOL0     N22787   8.265  -0.343   1.121 -0.4095 -0.0152  0.5062
  166MOL0     C22788   8.304  -0.210   1.127 -0.5256 -0.8241 -0.4235
  166MOL0     C22789   8.404  -0.208   1.225  1.6446 -0.2184  0.1854
  166MOL0     C22790   8.495  -0.089   1.258 -0.0263  0.7751  0.0258
  166MOL0     C22791   8.434   0.015   1.352 -1.2040 -0.1055 -0.2605
  166MOL0     C22792   8.548   0.119   1.378 -0.2321 -0.3407 -0.6678
  166MOL0     C22793   8.489   0.215   1.472 -0.5883  0.2410  0.2570
  166MOL0     O22794   8.390   0.299   1.404  0.2536 -0.0131 -0.2811
  166MOL0     C22795   8.342   0.396   1.481  0.2463 -0.3601  0.1466
  166MOL0     C22796   8.411   0.513   1.499  0.5421  0.2084  0.5051
  166MOL0     C22797   8.366   0.616   1.586  0.4735 -0.0885 -0.6513
  166MOL0     C22798   8.450   0.741   1.603  0.5131  0.8923  0.5358
  166MOL0     C22799   8.245   0.596   1.658 -0.0014 -0.1509 -0.3176
  166MOL0     C22800   8.181   0.692   1.757 -0.8634 -0.4769  0.2871
  166MOL0     O22801   8.208   0.825   1.742  0.2181 -0.2434 -0.1129
  166MOL0     C22802   8.163   0.924   1.826  0.8790  0.1256 -0.5310
  166MOL0     C22803   8.043   0.990   1.807  0.0912  0.2734 -0.2683
  166MOL0     C22804   7.991   1.078   1.906  1.0714 -0.2024  0.3420
  166MOL0     C22805   8.061   1.092   2.031  0.1874 -0.5357 -0.3233
  166MOL0     O22806   8.024   1.146   2.146  0.1614 -0.3064  0.5022
  166MOL0     C22807   7.914   1.237   2.138 -0.8799  0.0988  0.2710
  166MOL0     C22808   7.856   1.247   2.269  0.2011 -0.0889  1.1432
  166MOL0     C22809   7.955   1.317   2.371  0.1623  0.0888 -0.5707
  166MOL0     C22810   7.916   1.275   2.514 -1.2086 -0.1701 -0.3238
  166MOL0     C22811   7.986   1.369   2.602  0.5554  0.0359 -0.4769
  166MOL0     C22812   7.940   1.349   2.743 -0.8130  0.3654 -0.2064
  166MOL0     C22813   8.006   1.444   2.841  0.0635 -0.3919 -0.0233
  166MOL0     C22814   8.017   1.378   2.974 -1.2769  0.1391  0.3441
  166MOL0    Cl22815   8.182   1.307   2.984  0.2566 -0.1023  0.6591
  166MOL0     C22816   8.189   1.035   2.035 -0.1186 -0.0231 -1.0287
  166MOL0     C22817   8.238   0.947   1.941  0.0642  0.7225  0.1742
  166MOL0     O22818   8.112   0.652   1.855 -0.7204 -0.6023  0.3383
  166MOL0     C22819   8.182   0.469   1.640  0.4919  0.2549  0.3796
  166MOL0     C22820   8.223   0.380   1.549  0.4635  0.3100 -0.0683
  166MOL0     N22821   8.411  -0.339   1.274 -0.6349 -0.2245  0.0096
  166MOL0     N22822   8.341  -0.413   1.203 -0.2046  0.1011 -0.7653
  166MOL0     C22823   7.055   0.001   1.246  0.4409  0.1972  0.3463
  166MOL0     C22824   6.932   0.045   1.185 -0.5115 -0.1819 -0.2080
  166MOL0     C22825   6.621   0.273   0.993 -0.2175 -0.5250 -0.2214
  166MOL0     C22826   6.544   0.350   1.085 -0.9116  0.6511  0.0269
  166MOL0     C22827   6.409   0.390   1.043 -0.6295  0.8919 -0.6036
  166MOL0     C22828   6.345   0.346   0.927 -0.5537 -1.2075  0.9902
  166MOL0     O22829   6.216   0.359   0.881  0.2187 -0.1474 -0.8810
  166MOL0     C22830   6.117   0.419   0.964  0.3682 -0.1515  0.3289
  166MOL0     C22831   6.067   0.527   0.871  0.4383  0.2049 -0.7976
  166MOL0     C22832   5.947   0.597   0.937  0.4051 -1.5154  0.3088
  166MOL0     C22833   5.979   0.726   0.999 -0.7364 -0.2009 -0.6287
  166MOL0     C22834   5.856   0.759   1.071 -0.8871  0.2779  0.6579
  166MOL0     C22835   5.765   0.774   1.140 -0.6100 -0.3676 -0.1429
  166MOL0     C22836   6.423   0.253   0.849 -0.0999  1.2099 -0.4399
  166MOL0     C22837   6.557   0.218   0.874 -0.3600 -0.2524 -0.6842
  166MOL0     C22838   6.612   0.112   0.781 -1.2174 -0.0342  0.5460
  166MOL0     H22839   6.995   0.020   0.856 -0.4917  0.1255  0.4439
  166MOL0     H22840   7.197  -0.091   0.952 -0.5267  2.1904 -1.6266
  166MOL0     H22841   7.401  -0.052   1.067  0.3997  2.6695  3.5600
  166MOL0     H22842   7.331  -0.220   1.048  1.1967 -0.0675  0.3889
  166MOL0     H22843   7.533  -0.148   1.252 -0.2150 -0.1016  0.1907
  166MOL0     H22844   7.450  -0.302   1.249 -2.0829 -0.4965  0.3951
  166MOL0     H22845   7.592  -0.384   1.112 -0.7285  0.1418  0.9731
  166MOL0     H22846   7.513  -0.296   0.987 -3.4224 -1.4355  1.9697
  166MOL0     H22847   7.676  -0.117   1.020  2.4341  1.9117  2.0059
  166MOL0     H22848   7.748  -0.195   1.159  1.2007 -0.7940 -1.1486
  166MOL0     H22849   7.850  -0.206   0.911 -0.1737 -1.1033 -1.7703
  166MOL0     H22850   7.736  -0.324   0.879 -0.0067 -0.8804  1.0832
  166MOL0     H22851   7.855  -0.453   1.084 -3.6071  2.4423 -0.0628
  166MOL0     H22852   7.928  -0.436   0.924  2.0708  2.2989 -0.3230
  166MOL0     H22853   8.018  -0.306   1.179  1.2980  0.1434  0.2994
  166MOL0     H22854   8.029  -0.212   1.027 -0.0032  0.3979  1.4088
  166MOL0     H22855   8.138  -0.499   1.073  1.7090 -0.9570 -0.5541
  166MOL0     H22856   8.170  -0.381   0.936 -2.3618 -0.5282 -0.2531
  166MOL0     H22857   8.263  -0.124   1.076  0.7915 -1.1356 -2.1149
  166MOL0     H22858   8.533  -0.048   1.164 -0.2990  0.6357 -0.1468
  166MOL0     H22859   8.582  -0.123   1.313 -0.7797 -1.8578 -0.2922
  166MOL0     H22860   8.346   0.072   1.319  0.5349  3.0583  0.1657
  166MOL0     H22861   8.395  -0.037   1.440 -0.1647  0.3264  0.4799
  166MOL0     H22862   8.640   0.069   1.412 -0.2659 -0.6290 -0.9982
  166MOL0     H22863   8.567   0.182   1.291 -2.2083  0.3955 -0.6020
  166MOL0     H22864   8.439   0.157   1.550 -1.0170 -0.0379 -0.2120
  166MOL0     H22865   8.559   0.281   1.524 -1.6678 -0.1862  2.3593
  166MOL0     H22866   8.504   0.511   1.444  1.1461 -0.8305  1.5035
  166MOL0     H22867   8.557   0.730   1.588  0.8018  1.0788  2.2228
  166MOL0     H22868   8.442   0.790   1.701  0.8422 -0.9741  1.5353
  166MOL0     H22869   8.408   0.806   1.526 -0.1714 -0.3825 -0.1927
  166MOL0     H22870   7.980   0.981   1.719 -1.2795 -2.7387  0.9034
  166MOL0     H22871   7.899   1.131   1.888 -0.2767 -2.2429  0.9273
  166MOL0     H22872   7.946   1.338   2.112  0.9527 -0.8487 -1.3815
  166MOL0     H22873   7.833   1.201   2.073  0.6007  0.8784 -2.1075
  166MOL0     H22874   7.767   1.309   2.256 -1.3193 -2.1987  0.9523
  166MOL0     H22875   7.829   1.149   2.308 -2.5788  0.3302  0.4720
  166MOL0     H22876   7.945   1.426   2.373 -0.9582 -0.0209  0.9407
  166MOL0     H22877   8.056   1.280   2.350 -0.1732 -1.2695  0.0679
  166MOL0     H22878   7.950   1.175   2.542 -1.1057 -0.6356 -2.0111
  166MOL0     H22879   7.809   1.255   2.526 -0.3609 -5.0378  1.7666
  166MOL0     H22880   8.091   1.342   2.611 -0.0660 -2.4184  0.1889
  166MOL0     H22881   7.968   1.473   2.574 -2.6845 -0.1804  0.4192
  166MOL0     H22882   7.980   1.253   2.776 -1.9569 -1.1994 -3.0234
  166MOL0     H22883   7.831   1.346   2.750 -0.9447  2.0514 -1.0685
  166MOL0     H22884   7.948   1.535   2.853  0.4841 -0.3113  1.5746
  166MOL0     H22885   8.103   1.481   2.806  0.4856 -1.3359  0.1006
  166MOL0     H22886   7.941   1.304   3.000  0.3448 -0.7013  3.1644
  166MOL0     H22887   8.033   1.459   3.046  1.8005  1.3951 -1.5197
  166MOL0     H22888   8.252   1.047   2.122  1.1921  2.7340 -2.2308
  166MOL0     H22889   8.330   0.893   1.962 -0.5403 -0.4320 -0.0246
  166MOL0     H22890   8.089   0.447   1.692  0.7146 -1.7533  0.0274
  166MOL0     H22891   8.160   0.295   1.523  0.0545  0.5380  0.1818
  166MOL0     H22892   7.074   0.002   1.353  1.5818  1.7896  0.1696
  166MOL0     H22893   6.851   0.082   1.247 -0.9348 -2.2174  0.5305
  166MOL0     H22894   6.592   0.396   1.171  0.9080  1.1884 -1.2067
  166MOL0     H22895   6.359   0.461   1.107  1.7460  1.0823  1.1564
  166MOL0     H22896   6.038   0.346   0.985 -0.1937  0.7605  1.5181
  166MOL0     H22897   6.151   0.453   1.062  1.4076  0.7760 -0.3237
  166MOL0     H22898   6.043   0.487   0.772  2.9104  2.6516 -2.5292
  166MOL0     H22899   6.150   0.594   0.847 -0.0896  0.6737 -1.3537
  166MOL0     H22900   5.874   0.613   0.857  2.5594  1.6262 -1.2503
  166MOL0     H22901   5.908   0.529   1.013 -0.1829 -0.3880  1.0495
  166MOL0     H22902   6.009   0.803   0.927 -1.4908  0.6063 -0.1108
  166MOL0     H22903   6.059   0.703   1.069 -2.0923 -2.5669  0.2459
  166MOL0     H22904   5.671   0.793   1.188  0.4561  0.4525  1.6950
  166MOL0     H22905   6.372   0.195   0.772  0.6961 -1.8716  1.2213
  166MOL0     H22906   6.714   0.129   0.746 -0.8948  0.8579  1.8130
  166MOL0     H22907   6.604   0.012   0.823 -0.8415 -0.6896 -0.8899
  166MOL0     H22908   6.550   0.099   0.692  0.9639 -3.0129 -0.6925
  167MOL0     O22909  10.957   9.868  10.348  0.1356  0.5118 -0.3435
  167MOL0     C22910  11.061   9.920  10.373 -0.3943 -0.1572  0.7711
  167MOL0     O22911  11.080  10.017  10.468 -0.1127 -0.3614  0.5286
  167MOL0     C22912  11.208  10.052  10.504  0.3937  0.0340  0.2517
  167MOL0     C22913  11.262  10.176  10.450 -0.1787  0.1644  0.0695
  167MOL0     C22914  11.376  10.223  10.507  0.7146  0.0035  0.1574
  167MOL0     C22915  11.448  10.158  10.611  0.3174 -0.5650 -0.0025
  167MOL0     O22916  11.565  10.213  10.663 -0.2150 -0.0221  0.2288
  167MOL0     C22917  11.644  10.134  10.757  1.0476 -0.6047  0.5987
  167MOL0     C22918  11.777  10.205  10.791 -0.1182 -0.8593  0.0085
  167MOL0     C22919  11.770  10.352  10.823  0.5649 -0.1130  0.0487
  167MOL0     C22920  11.905  10.413  10.801 -0.7725 -0.4903  0.3679
  167MOL0     C22921  11.904  10.569  10.845 -0.1572 -0.1344  0.4937
  167MOL0     C22922  11.821  10.658  10.742  0.3665  0.2483 -0.5515
  167MOL0     C22923  11.827  10.804  10.798 -0.9391 -0.7965 -0.4344
  167MOL0     C22924  11.754  10.896  10.697 -0.4821  0.1428  1.0573
  167MOL0     N22925  11.603  10.885  10.706 -0.7891  0.5155 -0.0774
  167MOL0     C22926  11.507  10.854  10.602  1.0780  0.1754  0.8117
  167MOL0     C22927  11.381  10.892  10.651 -0.3580  0.7392  0.3410
  167MOL0     C22928  11.244  10.887  10.585 -0.7060 -0.6077  0.7865
  167MOL0     C22929  11.192  10.739  10.577 -0.0882  0.4114 -0.2508
  167MOL0     C22930  11.047  10.763  10.515  0.1439  0.2651  0.2156
  167MOL0     C22931  10.976  10.642  10.461  0.2431 -0.0604  0.5058
  167MOL0     O22932  11.066  10.573  10.369 -0.5955 -0.7019 -0.2015
  167MOL0     C22933  11.027  10.460  10.298  1.1742 -0.8043  0.2589
  167MOL0     C22934  10.903  10.397  10.306 -0.2956  0.1820 -0.4144
  167MOL0     C22935  10.866  10.286  10.233  0.5680 -0.6329  0.3873
  167MOL0     C22936  10.731  10.239  10.249  0.3373 -0.3847  0.5725
  167MOL0     C22937  10.957  10.220  10.145  0.8111 -0.1126  0.4754
  167MOL0     C22938  10.939  10.089  10.065 -0.0218 -0.4307  0.4947
  167MOL0     O22939  10.821  10.021  10.083 -0.1715  0.2902  0.0799
  167MOL0     C22940  10.803   9.899  10.024 -0.0505 -0.2789 -0.5599
  167MOL0     C22941  10.889   9.794  10.034  0.0392 -0.4225  0.4552
  167MOL0     C22942  10.860   9.669   9.981 -0.4741 -0.6390 -0.1126
  167MOL0     C22943  10.733   9.641   9.935 -0.5888  0.5225  1.0733
  167MOL0     O22944  10.717   9.513   9.893 -0.0287  0.0914 -0.2973
  167MOL0     C22945  10.678   9.488   9.755 -0.0931  0.1088  0.3537
  167MOL0     C22946  10.738   9.365   9.698  0.3100  0.3714  0.7672
  167MOL0     C22947  10.683   9.234   9.755 -0.5337  0.0985  0.2850
  167MOL0     C22948  10.738   9.113   9.671  0.0655  0.3962 -0.0374
  167MOL0     C22949  10.875   9.073   9.716  0.0909 -0.0051  0.4830
  167MOL0     C22950  10.898   8.934   9.653 -0.5128 -0.8049 -0.4089
  167MOL0     C22951  11.027   8.870   9.695  0.0790 -0.4704 -0.5029
  167MOL0     C22952  11.060   8.734   9.628  0.3063  0.0382  1.2450
  167MOL0    Cl22953  11.208   8.658   9.697 -0.1376 -0.4907  0.3644
  167MOL0     C22954  10.639   9.749   9.933  0.3709  0.7744  1.0572
  167MOL0     C22955  10.676   9.876   9.976  0.2996 -0.2521 -0.9301
  167MOL0     O22956  11.037  10.048   9.999  0.2547  0.6566 -0.5119
  167MOL0     C22957  11.087  10.279  10.147 -0.4567 -0.3617  0.1228
  167MOL0     C22958  11.120  10.397  10.210 -0.3980 -0.6067  0.7516
  167MOL0     N22959  11.404  10.946  10.777  0.5539 -0.1348 -0.6578
  167MOL0     N22960  11.534  10.952  10.803 -0.3936  0.0598  0.7078
  167MOL0     C22961  11.388  10.042  10.662  0.0482  0.0082  0.2018
  167MOL0     C22962  11.265   9.996  10.615 -0.1729  0.7684 -0.6847
  167MOL0     C22963  11.173   9.849  10.295  0.3674  0.0958  0.7106
  167MOL0     C22964  11.251   9.934  10.216 -0.7319  0.2003  0.5024
  167MOL0     C22965  11.361   9.875  10.151  0.2342 -0.9866 -0.2981
  167MOL0     C22966  11.382   9.738  10.144  0.2951 -0.1667  0.4612
  167MOL0     O22967  11.467   9.687  10.052 -0.8996 -0.4292 -0.9253
  167MOL0     C22968  11.408   9.622   9.939 -0.1019 -0.1955  0.5907
  167MOL0     C22969  11.304   9.715   9.871 -0.0194 -0.2676  0.4664
  167MOL0     C22970  11.207   9.630   9.791  0.3419  0.3852 -0.5776
  167MOL0     C22971  11.271   9.544   9.690  0.2101 -0.0916 -0.0313
  167MOL0     C22972  11.180   9.473   9.611 -0.5428 -0.6014 -0.3909
  167MOL0     C22973  11.093   9.423   9.554  1.0663 -0.0434 -0.5409
  167MOL0     C22974  11.290   9.651  10.213 -0.1594  0.5855  0.2446
  167MOL0     C22975  11.195   9.706  10.296 -0.8067  0.6176  0.2723
  167MOL0     C22976  11.127   9.615  10.389  1.5540 -0.8926 -0.6965
  167MOL0     H22977  11.208  10.226  10.371 -3.3546 -0.2147  1.8299
  167MOL0     H22978  11.408  10.318  10.464  2.4196 -1.9767 -3.5009
  167MOL0     H22979  11.666  10.035  10.717  2.3976 -0.2894  0.5141
  167MOL0     H22980  11.592  10.124  10.852  2.6355 -1.2665  1.4329
  167MOL0     H22981  11.823  10.156  10.876  1.8362 -0.5999 -0.8429
  167MOL0     H22982  11.837  10.183  10.702 -1.7722  3.4791 -2.5142
  167MOL0     H22983  11.696  10.402  10.760  0.0968  1.4948  1.8054
  167MOL0     H22984  11.729  10.363  10.923  0.7041 -1.1065  0.2292
  167MOL0     H22985  11.987  10.369  10.858  0.3594  4.4613  3.1404
  167MOL0     H22986  11.935  10.403  10.697  3.2205  0.7776  1.2403
  167MOL0     H22987  12.006  10.607  10.844  0.1657 -0.9548 -0.7803
  167MOL0     H22988  11.876  10.581  10.950  1.3136 -0.7221  0.9721
  167MOL0     H22989  11.865  10.655  10.642  0.6071  3.3890 -0.6526
  167MOL0     H22990  11.719  10.623  10.756  0.9865 -1.1387  0.7627
  167MOL0     H22991  11.935  10.821  10.808 -0.9123 -2.3636  3.8705
  167MOL0     H22992  11.789  10.824  10.899  2.7036 -0.0319  0.9337
  167MOL0     H22993  11.769  11.004  10.709 -0.5833  0.3463 -0.5229
  167MOL0     H22994  11.781  10.860  10.597  0.7192  0.3160  1.3048
  167MOL0     H22995  11.531  10.799  10.512  1.7652  0.0888  1.0411
  167MOL0     H22996  11.251  10.943  10.492 -1.2873 -2.2068 -0.2656
  167MOL0     H22997  11.179  10.943  10.653 -0.3504 -1.4413  1.8472
  167MOL0     H22998  11.258  10.688  10.507 -2.4827  0.1978 -2.5326
  167MOL0     H22999  11.185  10.698  10.678 -0.5090 -2.6279 -1.4182
  167MOL0     H23000  10.977  10.813  10.583  0.1334  1.7083 -0.8308
  167MOL0     H23001  11.052  10.830  10.430  3.2133 -1.8272 -1.4430
  167MOL0     H23002  10.959  10.577  10.547  0.7360  0.7606  1.2453
  167MOL0     H23003  10.878  10.665  10.418  0.8665  0.6903 -0.5607
  167MOL0     H23004  10.826  10.436  10.373 -0.5475 -0.8143 -0.1135
  167MOL0     H23005  10.733  10.147  10.308 -0.4273  2.1625  4.9733
  167MOL0     H23006  10.673  10.212  10.160 -2.1844 -2.5294  2.6765
  167MOL0     H23007  10.669  10.303  10.311 -1.7242 -0.9919 -0.7577
  167MOL0     H23008  10.983   9.809  10.087  0.7938 -0.7830 -0.7371
  167MOL0     H23009  10.937   9.593   9.983  0.6972  0.4472  3.3973
  167MOL0     H23010  10.572   9.462   9.761  0.0452 -0.2502  1.6257
  167MOL0     H23011  10.697   9.571   9.686  0.1304  0.3094  0.6487
  167MOL0     H23012  10.712   9.362   9.592  0.3531  0.2007  0.7604
  167MOL0     H23013  10.847   9.369   9.706  0.3625 -0.8973  0.9228
  167MOL0     H23014  10.574   9.240   9.750 -0.4913  0.7346  0.1295
  167MOL0     H23015  10.705   9.223   9.862 -3.1323 -2.3911  0.7111
  167MOL0     H23016  10.749   9.139   9.565 -1.1236  1.7441  0.1304
  167MOL0     H23017  10.668   9.030   9.686  1.9023 -0.9474  1.5928
  167MOL0     H23018  10.958   9.143   9.701 -0.1772  0.1303 -0.4747
  167MOL0     H23019  10.874   9.065   9.825 -2.9066 -0.7448  0.5014
  167MOL0     H23020  10.896   8.951   9.545  3.0838 -0.2658 -0.5214
  167MOL0     H23021  10.820   8.859   9.669  0.4473 -2.4160 -2.6989
  167MOL0     H23022  11.025   8.868   9.804  2.2443  0.8729 -0.3904
  167MOL0     H23023  11.103   8.943   9.667 -1.2255  1.3791  0.5888
  167MOL0     H23024  11.079   8.746   9.521  0.8618 -1.9310  1.0760
  167MOL0     H23025  10.983   8.656   9.631 -1.3241  1.5785  0.8046
  167MOL0     H23026  10.538   9.737   9.895  1.1983 -1.6458 -0.6089
  167MOL0     H23027  10.618   9.965   9.998  0.8613 -0.5831  2.5174
  167MOL0     H23028  11.161  10.256  10.072 -0.0291  2.9700 -0.6411
  167MOL0     H23029  11.216  10.445  10.191 -0.5559 -0.7937 -0.6091
  167MOL0     H23030  11.430   9.999  10.753  2.5606  3.6952  1.0462
  167MOL0     H23031  11.216   9.917  10.670 -0.3413  1.5701  0.3506
  167MOL0     H23032  11.231  10.040  10.224  1.5463  0.6270  1.3216
  167MOL0     H23033  11.436   9.933  10.099  1.1967  0.0757  2.1287
  167MOL0     H23034  11.488   9.600   9.868  0.8951  0.8965  1.3391
  167MOL0     H23035  11.351   9.533   9.970 -1.1595  0.8073  1.6234
  167MOL0     H23036  11.363   9.777   9.803  1.6091 -2.7802 -0.5389
  167MOL0     H23037  11.247   9.784   9.934 -1.6636 -0.4314 -0.7568
  167MOL0     H23038  11.139   9.582   9.863  3.0316 -1.8354  0.6683
  167MOL0     H23039  11.149   9.702   9.733  0.2284  1.8656  1.2666
  167MOL0     H23040  11.339   9.472   9.737  3.1072  2.0707 -0.6457
  167MOL0     H23041  11.327   9.603   9.616 -0.9617  0.4915 -0.4825
  167MOL0     H23042  10.997   9.389   9.522 -0.4257  0.6341  2.8647
  167MOL0     H23043  11.294   9.543  10.206 -2.6504  0.4118  0.6033
  167MOL0     H23044  11.031   9.577  10.353  1.4302  1.1911 -2.7717
  167MOL0     H23045  11.185   9.524  10.409  1.9032 -0.6134 -0.4274
  167MOL0     H23046  11.120   9.672  10.481  0.8212 -1.1639 -0.5771
  168MOL0     O23047   5.234   9.463  10.839 -0.2039 -0.2440 -0.2261
  168MOL0     C23048   5.250   9.558  10.915 -0.2832  0.5168  0.4576
  168MOL0     O23049   5.351   9.566  11.003 -0.1953 -0.8591 -0.1253
  168MOL0     C23050   5.465   9.484  10.983  0.9083 -0.4896  0.0955
  168MOL0     C23051   5.456   9.345  10.997 -0.6105 -0.3387  0.1411
  168MOL0     C23052   5.570   9.257  10.987  0.2801  0.1160  0.4358
  168MOL0     C23053   5.697   9.319  10.976  1.0459  0.6173  0.2397
  168MOL0     O23054   5.813   9.244  10.972 -0.2298 -0.1013 -0.0932
  168MOL0     C23055   5.825   9.122  11.033 -1.0441  0.1741  0.6229
  168MOL0     C23056   5.978   9.098  11.031 -0.2777  0.3573 -0.0813
  168MOL0     C23057   6.048   9.175  11.139 -0.9245  0.0600  0.3486
  168MOL0     C23058   6.195   9.147  11.162 -0.4348 -0.2312  0.2848
  168MOL0     C23059   6.291   9.176  11.048 -0.1460 -0.1482  0.0913
  168MOL0     C23060   6.433   9.131  11.068 -0.0257  0.2133 -0.2540
  168MOL0     C23061   6.515   9.120  10.937  0.3473  1.1372  0.1236
  168MOL0     C23062   6.662   9.071  10.962  0.3528  0.0362  0.1362
  168MOL0     N23063   6.674   8.960  11.055 -0.1712 -0.1000  0.1924
  168MOL0     C23064   6.611   8.837  11.035  0.3920  0.1476 -0.4701
  168MOL0     C23065   6.659   8.759  11.134  0.4722 -0.4372 -0.4682
  168MOL0     C23066   6.611   8.615  11.162 -0.2093  0.1260 -0.0486
  168MOL0     C23067   6.715   8.535  11.234  0.0251  0.0314 -0.1558
  168MOL0     C23068   6.682   8.386  11.258  0.4614 -0.2673  0.5642
  168MOL0     C23069   6.660   8.302  11.133  0.3171  0.9154 -0.6287
  168MOL0     O23070   6.649   8.163  11.179  0.7539 -0.5421  0.0371
  168MOL0     C23071   6.637   8.059  11.091  0.8743  0.1588  0.0185
  168MOL0     C23072   6.630   7.929  11.138  1.2379  0.3739  0.8128
  168MOL0     C23073   6.602   7.822  11.043 -0.1126 -0.6013  1.0648
  168MOL0     C23074   6.564   7.693  11.110 -0.2254  0.0024 -0.0361
  168MOL0     C23075   6.597   7.842  10.905  0.2722 -0.0693 -0.0361
  168MOL0     C23076   6.586   7.730  10.805 -0.3805 -0.5484 -0.7017
  168MOL0     O23077   6.670   7.729  10.689 -0.6678 -0.1481  0.5088
  168MOL0     C23078   6.651   7.630  10.606  0.3623  0.0629  0.5457
  168MOL0     C23079   6.737   7.523  10.588  0.3479  0.0810 -1.0020
  168MOL0     C23080   6.712   7.406  10.511 -0.8884 -0.7204 -0.2870
  168MOL0     C23081   6.592   7.402  10.430  0.7633  0.5082 -0.4494
  168MOL0     O23082   6.556   7.301  10.340 -0.0185  0.2453 -0.7619
  168MOL0     C23083   6.661   7.229  10.270 -0.6068 -0.1869 -0.9472
  168MOL0     C23084   6.598   7.128  10.176  0.1587  0.6269 -1.2943
  168MOL0     C23085   6.501   7.206  10.085  0.1515  0.1552  0.6385
  168MOL0     C23086   6.496   7.137   9.948  0.4472  0.3210 -0.4417
  168MOL0     C23087   6.616   7.167   9.848  0.4697  0.1374 -0.9460
  168MOL0     C23088   6.632   7.070   9.729 -0.0382 -0.0132  0.2272
  168MOL0     C23089   6.713   6.948   9.767 -0.7985  0.4751 -0.0313
  168MOL0     C23090   6.711   6.833   9.667 -0.0596  0.2579  0.3827
  168MOL0    Cl23091   6.796   6.870   9.518  0.0183 -0.3855  0.0373
  168MOL0     C23092   6.508   7.507  10.443 -0.2357 -1.1708  0.1116
  168MOL0     C23093   6.535   7.625  10.532  0.4059  0.9391 -0.2901
  168MOL0     O23094   6.501   7.639  10.825 -0.3755 -0.8897 -0.0916
  168MOL0     C23095   6.614   7.973  10.855  0.6764 -0.2945  0.3117
  168MOL0     C23096   6.631   8.076  10.950  0.7581  0.1367  0.9225
  168MOL0     N23097   6.756   8.832  11.203  0.4342  0.0479 -0.0007
  168MOL0     N23098   6.764   8.947  11.155 -0.6294 -0.8268 -0.3696
  168MOL0     C23099   5.701   9.461  10.970 -0.2491  0.7473  0.0847
  168MOL0     C23100   5.588   9.537  10.978  0.9956  0.4736  0.9852
  168MOL0     C23101   5.149   9.663  10.928 -0.1015  0.4716  0.2680
  168MOL0     C23102   5.179   9.788  10.980  0.1311  0.0907 -0.3355
  168MOL0     C23103   5.088   9.893  10.992  0.4015  0.1132  0.6304
  168MOL0     C23104   4.959   9.878  10.933 -0.0389  0.1916  0.3933
  168MOL0     O23105   4.861   9.972  10.962 -0.2587 -0.5344 -0.0186
  168MOL0     C23106   4.718   9.955  10.952  0.6886  0.8025 -0.1926
  168MOL0     C23107   4.665   9.979  10.813  0.4440 -0.3011 -0.6305
  168MOL0     C23108   4.687  10.128  10.770 -0.3976 -1.0584  0.2338
  168MOL0     C23109   4.734  10.160  10.629 -0.2320  0.3359  0.1630
  168MOL0     C23110   4.638  10.116  10.533 -0.8032 -0.4386 -0.6731
  168MOL0     C23111   4.568  10.086  10.451  0.0266  0.3405 -0.2440
  168MOL0     C23112   4.929   9.753  10.871  0.2371  0.2905  0.1933
  168MOL0     C23113   5.018   9.650  10.868  0.5588  0.0657 -0.1729
  168MOL0     C23114   4.962   9.522  10.798 -0.9682 -0.1034 -0.2846
  168MOL0     H23115   5.356   9.304  11.013 -0.6652 -0.4155 -0.3945
  168MOL0     H23116   5.558   9.150  11.000  1.2767  0.0507  0.9220
  168MOL0     H23117   5.758   9.046  10.992 -2.2495  1.4158  0.2031
  168MOL0     H23118   5.784   9.131  11.134 -3.1395  0.8069 -0.2168
  168MOL0     H23119   5.993   8.994  11.061  0.3273  1.2242  2.8833
  168MOL0     H23120   6.014   9.106  10.928 -0.8907  1.6241 -0.2117
  168MOL0     H23121   6.032   9.281  11.120  3.0310  0.2139 -3.8316
  168MOL0     H23122   6.004   9.150  11.236  0.0519 -1.5646  0.4280
  168MOL0     H23123   6.225   9.205  11.250  0.2126 -0.1065 -0.0144
  168MOL0     H23124   6.202   9.040  11.182  0.5202 -0.2826 -0.2753
  168MOL0     H23125   6.289   9.285  11.032  0.4635 -0.4547 -2.5830
  168MOL0     H23126   6.240   9.135  10.960 -2.5538  0.1839  1.2386
  168MOL0     H23127   6.486   9.197  11.137  0.2492  0.9898 -1.1874
  168MOL0     H23128   6.433   9.033  11.118 -0.0227 -0.0510 -0.7576
  168MOL0     H23129   6.517   9.221  10.896  1.0047  1.8210  1.7369
  168MOL0     H23130   6.462   9.058  10.865  0.7043  1.5119 -0.4651
  168MOL0     H23131   6.692   9.025  10.868 -0.6093 -0.4612  0.0550
  168MOL0     H23132   6.730   9.148  10.997 -1.7369  0.6279  3.3441
  168MOL0     H23133   6.535   8.803  10.965  1.4990  0.5595 -1.9093
  168MOL0     H23134   6.606   8.568  11.063  2.0747 -1.4514  0.5307
  168MOL0     H23135   6.514   8.639  11.208 -0.6590  2.6626 -2.0550
  168MOL0     H23136   6.797   8.534  11.162  0.5246 -0.0123  0.4034
  168MOL0     H23137   6.741   8.590  11.325 -1.2216  1.8011 -0.8299
  168MOL0     H23138   6.775   8.357  11.307 -0.5147 -1.6608  1.6522
  168MOL0     H23139   6.604   8.365  11.331  0.2137  1.4542  0.8265
  168MOL0     H23140   6.565   8.326  11.085  0.5243  1.9923 -0.5084
  168MOL0     H23141   6.737   8.313  11.056 -0.3246  3.5958 -0.9725
  168MOL0     H23142   6.626   7.909  11.244 -0.9725 -3.0517  0.2494
  168MOL0     H23143   6.645   7.621  11.096 -0.7780 -0.8151  0.8873
  168MOL0     H23144   6.470   7.652  11.072 -0.2513  0.4356 -0.4535
  168MOL0     H23145   6.552   7.697  11.219 -1.7513 -3.1314  0.0140
  168MOL0     H23146   6.835   7.526  10.635  1.0053 -2.3430 -2.0124
  168MOL0     H23147   6.777   7.320  10.510 -1.6273 -1.4323 -4.5925
  168MOL0     H23148   6.718   7.296  10.205  1.8415 -1.1576  0.0873
  168MOL0     H23149   6.739   7.179  10.327 -0.3881 -1.6573 -2.4402
  168MOL0     H23150   6.686   7.100  10.118  2.2132  0.1883  1.8118
  168MOL0     H23151   6.562   7.041  10.232  2.8837  0.6564  0.6711
  168MOL0     H23152   6.529   7.312  10.085  0.1077  0.2473 -2.6461
  168MOL0     H23153   6.400   7.208  10.128  0.3188 -1.7787  1.2087
  168MOL0     H23154   6.401   7.164   9.903  0.1558 -2.9247 -2.0900
  168MOL0     H23155   6.497   7.029   9.967 -2.6557  0.5495  1.6194
  168MOL0     H23156   6.575   7.255   9.798 -2.6610 -1.0827 -0.7488
  168MOL0     H23157   6.707   7.185   9.906 -0.3976  1.7114 -0.0025
  168MOL0     H23158   6.679   7.117   9.642  0.6241  1.1597  1.1944
  168MOL0     H23159   6.536   7.030   9.696 -0.2384 -0.5990  1.4389
  168MOL0     H23160   6.672   6.909   9.861 -1.8449 -1.6341 -1.2975
  168MOL0     H23161   6.817   6.983   9.772 -0.6018 -0.2216  1.2843
  168MOL0     H23162   6.606   6.810   9.647 -0.0153 -0.3039  0.7886
  168MOL0     H23163   6.759   6.743   9.708  0.6804  0.0713 -0.8311
  168MOL0     H23164   6.412   7.499  10.395  0.7002  0.7356 -2.2729
  168MOL0     H23165   6.453   7.696  10.541  2.2545  2.8916  3.0604
  168MOL0     H23166   6.609   7.981  10.747  1.9451 -1.3107  0.1479
  168MOL0     H23167   6.629   8.176  10.908  0.7770  0.8339  2.5045
  168MOL0     H23168   5.798   9.510  10.965  0.2057 -0.2355 -1.4660
  168MOL0     H23169   5.603   9.643  10.964  0.5523  0.6093  1.5257
  168MOL0     H23170   5.279   9.796  11.022 -1.0403  1.2183  2.5655
  168MOL0     H23171   5.115   9.988  11.037 -1.2578  0.1788  1.5982
  168MOL0     H23172   4.695   9.852  10.982  1.2962  0.5000 -0.7299
  168MOL0     H23173   4.664  10.022  11.020 -4.9506 -2.5176 -0.7457
  168MOL0     H23174   4.560   9.952  10.799 -0.4779  2.2422  0.5795
  168MOL0     H23175   4.719   9.907  10.751  0.6409  0.0628 -0.8900
  168MOL0     H23176   4.589  10.174  10.783 -2.0601 -4.6352  1.6162
  168MOL0     H23177   4.747  10.183  10.843 -1.4920 -1.5722  1.5542
  168MOL0     H23178   4.825  10.104  10.606 -0.8174 -2.0750  3.1096
  168MOL0     H23179   4.759  10.267  10.626  2.4821 -0.2447 -0.9986
  168MOL0     H23180   4.483  10.063  10.390 -1.2396 -0.3822  1.6846
  168MOL0     H23181   4.827   9.730  10.842  0.1664 -2.4655  2.1524
  168MOL0     H23182   4.862   9.533  10.755 -1.4191 -1.2371  0.4183
  168MOL0     H23183   5.024   9.494  10.712 -0.4263  0.7985 -0.2001
  168MOL0     H23184   4.960   9.434  10.863 -0.6116 -0.9637 -1.3932
  169MOL0     O23185   0.278   7.316   8.183 -0.0266 -1.1724 -0.0152
  169MOL0     C23186   0.288   7.224   8.272  0.2347 -0.0733 -0.1193
  169MOL0     O23187   0.192   7.167   8.345  0.1652  1.1190 -0.0281
  169MOL0     C23188   0.058   7.187   8.307 -0.7458 -0.3448 -0.0868
  169MOL0     C23189  -0.038   7.091   8.288 -0.4197  0.0620  0.3238
  169MOL0     C23190  -0.168   7.122   8.239 -0.5835 -0.1024  0.4796
  169MOL0     C23191  -0.209   7.254   8.221 -1.2634 -0.3270  0.9627
  169MOL0     O23192  -0.338   7.288   8.187 -0.4238 -0.0536  0.2023
  169MOL0     C23193  -0.451   7.194   8.189  0.6756  0.5732 -0.2737
  169MOL0     C23194  -0.524   7.227   8.318 -0.5005 -0.0178 -0.2726
  169MOL0     C23195  -0.475   7.162   8.442  0.5381  1.3543 -0.7417
  169MOL0     C23196  -0.577   7.176   8.564  0.8720 -0.3849  0.1270
  169MOL0     C23197  -0.545   7.080   8.677  0.7413 -0.0548 -0.7850
  169MOL0     C23198  -0.639   7.103   8.805  0.0926  0.3629  0.1947
  169MOL0     C23199  -0.594   7.227   8.887  0.6072  0.1156  0.6502
  169MOL0     C23200  -0.471   7.210   8.973  0.2693 -0.5251  0.0079
  169MOL0     N23201  -0.475   7.089   9.064  0.0728 -0.5600  0.2078
  169MOL0     C23202  -0.575   7.067   9.151  0.2247  0.0916 -0.4929
  169MOL0     C23203  -0.558   6.938   9.193 -0.0931  0.1375  0.2474
  169MOL0     C23204  -0.650   6.880   9.299  0.6653  0.6917  0.9104
  169MOL0     C23205  -0.584   6.761   9.363  1.1980  0.0781 -0.6542
  169MOL0     C23206  -0.674   6.695   9.462  0.3005  0.4901  0.4739
  169MOL0     C23207  -0.607   6.591   9.551 -0.5693  0.0620 -0.0828
  169MOL0     O23208  -0.512   6.637   9.645  0.2678 -0.7103 -0.2182
  169MOL0     C23209  -0.381   6.604   9.626 -0.6765  0.5074  0.0950
  169MOL0     C23210  -0.289   6.670   9.717 -0.0817 -0.7233  0.3446
  169MOL0     C23211  -0.149   6.651   9.690 -0.3943 -0.3581 -1.2592
  169MOL0     C23212  -0.060   6.714   9.793  0.4478  0.1208  0.3113
  169MOL0     C23213  -0.094   6.558   9.601 -0.1976  0.2387 -0.1633
  169MOL0     C23214   0.046   6.531   9.568  0.3544 -0.2952 -0.7440
  169MOL0     O23215   0.074   6.432   9.486  0.5017  0.4993 -0.5207
  169MOL0     C23216   0.173   6.457   9.393  0.0971  0.2139  0.0163
  169MOL0     C23217   0.282   6.373   9.392  0.0782 -0.4255 -0.5897
  169MOL0     C23218   0.385   6.395   9.308 -0.2409  0.0239  0.3204
  169MOL0     C23219   0.378   6.483   9.202 -0.3682  0.8135 -0.4805
  169MOL0     O23220   0.476   6.499   9.103 -0.7350 -0.4489 -0.7061
  169MOL0     C23221   0.552   6.386   9.064 -0.2322  0.1598  0.5746
  169MOL0     C23222   0.593   6.396   8.914  0.5694  0.6607 -0.7181
  169MOL0     C23223   0.474   6.396   8.828 -1.0459  0.2588 -0.1858
  169MOL0     C23224   0.414   6.252   8.800 -0.2836  0.5172  0.2286
  169MOL0     C23225   0.266   6.258   8.768  0.4274  0.2797  0.4954
  169MOL0     C23226   0.230   6.125   8.692  0.9411 -0.0323 -0.2836
  169MOL0     C23227   0.082   6.092   8.692 -0.0572 -0.2197  0.8566
  169MOL0     C23228   0.027   6.012   8.810  0.3434  0.7938 -0.5406
  169MOL0    Cl23229   0.130   5.872   8.861 -0.2618 -0.1043 -0.0666
  169MOL0     C23230   0.264   6.565   9.186  0.1065 -0.3889 -0.5507
  169MOL0     C23231   0.162   6.551   9.288 -0.4336  0.6390  0.4307
  169MOL0     O23232   0.130   6.607   9.609  0.1558  0.0036 -0.8116
  169MOL0     C23233  -0.193   6.486   9.535 -0.3049  1.1842 -0.0504
  169MOL0     C23234  -0.330   6.504   9.539  0.5637 -0.3268 -0.3718
  169MOL0     N23235  -0.437   6.893   9.139  0.3855  0.7400 -0.3554
  169MOL0     N23236  -0.394   6.986   9.067 -0.0536 -0.4114  0.3649
  169MOL0     C23237  -0.120   7.359   8.236 -0.2489  0.5048  0.0310
  169MOL0     C23238   0.014   7.321   8.288  0.2742 -0.1759 -0.3803
  169MOL0     C23239   0.421   7.171   8.311  0.5870 -0.4045  0.1897
  169MOL0     C23240   0.445   7.128   8.434  0.5057 -0.4031 -1.2630
  169MOL0     C23241   0.571   7.075   8.480  0.2426  0.4190 -0.5149
  169MOL0     C23242   0.680   7.056   8.385 -0.2016  0.0199 -0.1425
  169MOL0     O23243   0.816   7.019   8.412 -0.4354 -0.7552  0.3282
  169MOL0     C23244   0.835   6.946   8.535  0.4139  0.3921 -0.5140
  169MOL0     C23245   0.969   6.990   8.588  1.2135 -0.3639 -0.4482
  169MOL0     C23246   0.944   6.994   8.745 -0.4125  0.3695  0.3084
  169MOL0     C23247   0.961   6.847   8.791 -0.3856 -0.0863  1.2362
  169MOL0     C23248   0.978   6.827   8.939  0.1175 -0.6741  0.6179
  169MOL0     C23249   0.989   6.824   9.061 -0.4193 -0.3339 -0.1237
  169MOL0     C23250   0.649   7.107   8.251  0.3086  0.4949 -0.9583
  169MOL0     C23251   0.528   7.161   8.219  0.7452 -0.8584 -0.2058
  169MOL0     C23252   0.518   7.182   8.072  0.1131 -0.7820 -0.3478
  169MOL0     H23253  -0.003   6.989   8.296  0.5588  0.3795  0.2184
  169MOL0     H23254  -0.234   7.037   8.221  2.0020 -1.7976 -1.8207
  169MOL0     H23255  -0.436   7.087   8.174 -1.1135  0.1835  0.4150
  169MOL0     H23256  -0.519   7.221   8.108 -2.0288  0.1046  1.7107
  169MOL0     H23257  -0.526   7.336   8.330  0.1006  0.3682 -2.9774
  169MOL0     H23258  -0.625   7.191   8.294  0.7233 -3.1426 -1.1678
  169MOL0     H23259  -0.456   7.057   8.417  1.3429  1.4952 -0.7592
  169MOL0     H23260  -0.377   7.204   8.467  1.2987  0.3902 -1.9594
  169MOL0     H23261  -0.554   7.275   8.603  0.1368 -0.8394  1.7755
  169MOL0     H23262  -0.681   7.173   8.531  1.0901 -0.0280 -0.6315
  169MOL0     H23263  -0.440   7.094   8.704  0.9102 -2.5477  0.1110
  169MOL0     H23264  -0.551   6.974   8.652  0.0400 -0.6535  1.5864
  169MOL0     H23265  -0.745   7.122   8.784  0.8290  1.9713 -2.6502
  169MOL0     H23266  -0.640   7.006   8.856  1.6209 -1.4204 -2.8080
  169MOL0     H23267  -0.675   7.248   8.959 -1.2786 -0.2407 -1.2561
  169MOL0     H23268  -0.583   7.311   8.818  2.3983  0.8616  1.7763
  169MOL0     H23269  -0.382   7.209   8.909  0.9920  2.8226  0.7887
  169MOL0     H23270  -0.454   7.303   9.029  1.6667  0.0272 -1.2579
  169MOL0     H23271  -0.652   7.142   9.166  0.9435  1.0657 -1.5050
  169MOL0     H23272  -0.739   6.844   9.248 -0.3310  0.1413  2.9334
  169MOL0     H23273  -0.672   6.950   9.380 -1.8920  0.3663  0.5657
  169MOL0     H23274  -0.560   6.684   9.289 -2.7902  0.3648 -2.4912
  169MOL0     H23275  -0.493   6.789   9.416  0.3892  0.9937  0.3045
  169MOL0     H23276  -0.709   6.768   9.535  1.9045  1.0724  0.7065
  169MOL0     H23277  -0.761   6.654   9.411 -1.6170  2.2024  2.2045
  169MOL0     H23278  -0.683   6.548   9.617  2.6812  2.1429  5.7755
  169MOL0     H23279  -0.577   6.511   9.483  1.4659  1.0119 -0.3748
  169MOL0     H23280  -0.320   6.735   9.798  1.2523  1.1774 -0.5735
  169MOL0     H23281   0.013   6.782   9.748  1.5784 -1.3810 -0.1940
  169MOL0     H23282  -0.003   6.637   9.846 -1.0722 -2.0205 -1.0050
  169MOL0     H23283  -0.109   6.769   9.875  1.7190 -0.9917  1.8824
  169MOL0     H23284   0.293   6.296   9.468  2.2508 -2.3079 -2.6752
  169MOL0     H23285   0.479   6.345   9.328  1.7677  2.6195 -1.8502
  169MOL0     H23286   0.642   6.381   9.126  1.2669  2.7269 -1.2047
  169MOL0     H23287   0.484   6.301   9.075 -0.0126 -0.4044 -1.8308
  169MOL0     H23288   0.659   6.481   8.895  1.3190 -0.4910 -3.8885
  169MOL0     H23289   0.644   6.302   8.891  0.2067  0.0862  0.7507
  169MOL0     H23290   0.496   6.444   8.732 -0.6040 -2.8917 -1.7931
  169MOL0     H23291   0.395   6.465   8.860 -0.9192  0.7881 -0.9611
  169MOL0     H23292   0.425   6.189   8.888  0.3826  0.6766  0.2653
  169MOL0     H23293   0.480   6.199   8.729  2.1515 -1.4293  3.6492
  169MOL0     H23294   0.205   6.270   8.858 -0.8728  2.3129 -0.5816
  169MOL0     H23295   0.236   6.345   8.709 -2.3967  0.7338  2.3923
  169MOL0     H23296   0.290   6.056   8.752  0.1949  0.7096  1.3987
  169MOL0     H23297   0.271   6.119   8.591 -2.2804  0.7421 -1.7439
  169MOL0     H23298   0.071   6.014   8.616 -2.0777  0.0394  0.8241
  169MOL0     H23299   0.015   6.175   8.665 -0.8433 -0.9181  0.6281
  169MOL0     H23300  -0.070   5.964   8.800 -0.0797  1.4539  0.3111
  169MOL0     H23301   0.029   6.078   8.897 -1.1251  0.7038 -0.4277
  169MOL0     H23302   0.255   6.635   9.103  0.2382  1.3513  0.8638
  169MOL0     H23303   0.068   6.605   9.292 -1.0857 -0.4472  0.3257
  169MOL0     H23304  -0.158   6.418   9.458 -2.3540  1.8740 -1.7013
  169MOL0     H23305  -0.392   6.442   9.475  0.1560 -1.1887  0.8192
  169MOL0     H23306  -0.157   7.460   8.225 -0.3943  0.2306 -2.7106
  169MOL0     H23307   0.087   7.398   8.307 -1.0044  1.0862 -0.4676
  169MOL0     H23308   0.372   7.131   8.515 -3.4947 -1.9903 -4.4577
  169MOL0     H23309   0.580   7.051   8.586 -1.1876 -0.4108 -0.5587
  169MOL0     H23310   0.751   6.959   8.603 -0.3974  3.1698 -1.9256
  169MOL0     H23311   0.831   6.837   8.522 -1.4512 -0.1104  3.0273
  169MOL0     H23312   0.994   7.088   8.548 -1.5134 -0.6826 -3.2990
  169MOL0     H23313   1.034   6.907   8.557 -0.8548 -1.8751 -0.9605
  169MOL0     H23314   1.021   7.063   8.780 -0.2797  0.9653 -1.0778
  169MOL0     H23315   0.849   7.036   8.780 -0.3316 -0.5753  1.7490
  169MOL0     H23316   1.046   6.811   8.732 -1.8930 -2.7415  0.4977
  169MOL0     H23317   0.879   6.785   8.754  0.7070 -1.2250  0.6172
  169MOL0     H23318   0.999   6.823   9.167 -2.0871  1.4441  0.1027
  169MOL0     H23319   0.728   7.100   8.177 -0.0858  1.6342 -1.5056
  169MOL0     H23320   0.498   7.284   8.039  0.0330  0.0497  2.0896
  169MOL0     H23321   0.613   7.153   8.025 -0.1736 -2.2168 -0.0893
  169MOL0     H23322   0.447   7.117   8.019  0.5755 -0.3428 -1.5345
  170MOL0     O23323   2.818   4.939   4.444 -0.4706  0.1439  0.2960
  170MOL0     C23324   2.741   5.035   4.448 -0.5358  0.2935  0.0360
  170MOL0     O23325   2.770   5.160   4.495 -0.2043  0.4308  0.2300
  170MOL0     C23326   2.902   5.191   4.513  0.5278 -0.4643  0.2976
  170MOL0     C23327   2.974   5.227   4.395  0.2692 -0.1588  0.1905
  170MOL0     C23328   3.106   5.265   4.399  0.0155 -0.0088 -0.3919
  170MOL0     C23329   3.178   5.283   4.522  0.5636  0.2228 -0.0222
  170MOL0     O23330   3.311   5.328   4.517 -0.4206 -0.0712 -0.5941
  170MOL0     C23331   3.378   5.349   4.641  0.6710 -0.0033  0.5609
  170MOL0     C23332   3.525   5.367   4.622 -0.0276 -1.5365 -0.4411
  170MOL0     C23333   3.596   5.228   4.611  0.0259  0.4639 -0.2411
  170MOL0     C23334   3.753   5.235   4.602  0.6942  0.4668  0.3893
  170MOL0     C23335   3.817   5.101   4.632 -0.2962  0.3979  0.1258
  170MOL0     C23336   3.964   5.111   4.667  0.6214  0.0642 -0.5086
  170MOL0     C23337   4.024   4.975   4.726 -0.2339 -0.0290 -0.0028
  170MOL0     C23338   4.164   5.004   4.765 -0.6219 -0.5570 -1.2712
  170MOL0     N23339   4.220   4.882   4.820 -0.4483 -0.4562 -0.3154
  170MOL0     C23340   4.288   4.788   4.748  0.1497 -0.7704 -0.2259
  170MOL0     C23341   4.310   4.689   4.842 -0.3052 -0.2594  0.1576
  170MOL0     C23342   4.374   4.557   4.831 -0.1718  0.5587 -0.0110
  170MOL0     C23343   4.499   4.569   4.741 -0.5460  0.6556  0.2760
  170MOL0     C23344   4.566   4.437   4.717 -0.1445 -0.2803  0.2493
  170MOL0     C23345   4.705   4.470   4.655 -0.1008 -0.0930  0.4190
  170MOL0     O23346   4.781   4.353   4.628 -0.4163  0.5703  0.5647
  170MOL0     C23347   4.763   4.276   4.519 -0.0457  0.7838  0.5408
  170MOL0     C23348   4.797   4.325   4.388 -0.4529  0.0123 -0.6176
  170MOL0     C23349   4.789   4.247   4.273 -0.1559 -0.6727 -0.6849
  170MOL0     C23350   4.842   4.305   4.146 -1.1457  0.1208 -0.6101
  170MOL0     C23351   4.739   4.115   4.291  0.0126 -0.4543  0.1622
  170MOL0     C23352   4.722   4.012   4.184  1.4441 -1.1179 -0.4444
  170MOL0     O23353   4.825   3.971   4.118  0.1249 -0.1804 -0.2128
  170MOL0     C23354   4.799   3.864   4.034 -0.2501 -0.9682 -0.3796
  170MOL0     C23355   4.744   3.747   4.085 -0.3039  0.9666  0.0491
  170MOL0     C23356   4.749   3.628   4.011  0.8915 -0.3984 -0.7607
  170MOL0     C23357   4.817   3.629   3.881 -0.2470 -0.6598  0.2963
  170MOL0     O23358   4.841   3.507   3.816  0.7017 -0.3824 -0.7167
  170MOL0     C23359   4.729   3.431   3.777 -0.4091  0.8850 -0.0842
  170MOL0     C23360   4.668   3.481   3.648  0.9629 -0.7921  0.4315
  170MOL0     C23361   4.521   3.436   3.643  0.2975  0.5968 -0.4480
  170MOL0     C23362   4.510   3.288   3.594 -0.2982 -0.6428  0.2112
  170MOL0     C23363   4.408   3.208   3.675 -0.5432  0.4312  0.0516
  170MOL0     C23364   4.414   3.071   3.618 -0.0637  0.5162 -0.0848
  170MOL0     C23365   4.362   2.957   3.705 -0.2754  0.5963 -0.4333
  170MOL0     C23366   4.441   2.927   3.832  0.5266  0.3253  0.1554
  170MOL0    Cl23367   4.398   3.046   3.963 -0.1117  0.4537  0.1016
  170MOL0     C23368   4.857   3.753   3.827  0.5565 -0.3709 -0.5614
  170MOL0     C23369   4.860   3.868   3.911 -0.6924 -0.5514 -0.0456
  170MOL0     O23370   4.601   3.990   4.160 -0.7300  0.8531 -0.1179
  170MOL0     C23371   4.710   4.067   4.419  0.2632 -0.6097  0.4792
  170MOL0     C23372   4.711   4.147   4.531 -0.8592 -0.5402 -0.2677
  170MOL0     N23373   4.281   4.735   4.972 -1.0576  0.1165  0.3415
  170MOL0     N23374   4.219   4.851   4.954  0.7094  0.2498 -0.1173
  170MOL0     C23375   3.107   5.243   4.642 -0.6853 -0.1114  0.2933
  170MOL0     C23376   2.973   5.194   4.632 -1.6453  1.5745 -1.3541
  170MOL0     C23377   2.611   5.005   4.391 -0.5435 -0.3883 -0.3881
  170MOL0     C23378   2.549   5.099   4.314  0.2125 -0.3248 -0.1819
  170MOL0     C23379   2.427   5.075   4.247 -0.8473 -0.4497  0.1626
  170MOL0     C23380   2.380   4.945   4.239  0.4770  0.5609  0.3971
  170MOL0     O23381   2.280   4.908   4.158 -0.2527  0.3799  0.0555
  170MOL0     C23382   2.317   4.827   4.049 -0.4970  0.5616  0.4533
  170MOL0     C23383   2.215   4.833   3.934 -0.0018 -0.4657  1.0464
  170MOL0     C23384   2.111   4.720   3.915 -0.1258  0.3281 -0.1490
  170MOL0     C23385   1.989   4.770   3.992 -0.3438 -0.4493  0.2330
  170MOL0     C23386   1.899   4.656   4.011  0.3368  0.8925  0.2024
  170MOL0     C23387   1.824   4.573   4.029  0.0288 -0.1278 -0.3540
  170MOL0     C23388   2.429   4.847   4.331  0.1754  0.6083  0.3761
  170MOL0     C23389   2.533   4.885   4.420  0.1126 -0.6834 -0.3424
  170MOL0     C23390   2.575   4.784   4.524  0.0890  0.3889 -1.1067
  170MOL0     H23391   2.921   5.224   4.300  2.6317 -1.1502 -1.2111
  170MOL0     H23392   3.166   5.300   4.315  2.6452 -0.3592  1.2277
  170MOL0     H23393   3.362   5.265   4.709 -0.4889 -1.9652 -1.9453
  170MOL0     H23394   3.330   5.438   4.682 -1.4115 -0.2740 -1.0856
  170MOL0     H23395   3.533   5.420   4.527 -3.5985 -1.0355 -0.5920
  170MOL0     H23396   3.571   5.420   4.705 -1.4891  1.0743 -1.2007
  170MOL0     H23397   3.582   5.158   4.693  0.0822  1.0123  0.2432
  170MOL0     H23398   3.554   5.192   4.517  3.5750  1.9695 -2.6333
  170MOL0     H23399   3.771   5.273   4.501 -0.3996  1.5604  0.5771
  170MOL0     H23400   3.792   5.308   4.674  0.5106  1.1141 -0.1479
  170MOL0     H23401   3.803   5.043   4.540  1.6975 -0.2036  0.1571
  170MOL0     H23402   3.770   5.051   4.717  0.7498  0.3626  0.6988
  170MOL0     H23403   4.027   5.142   4.583  0.3878  2.1992  0.0511
  170MOL0     H23404   3.971   5.186   4.746  0.7708  0.1285 -0.5820
  170MOL0     H23405   4.022   4.903   4.644  1.6467  2.4953 -2.4412
  170MOL0     H23406   3.975   4.940   4.817 -0.1575  1.3890  0.6251
  170MOL0     H23407   4.221   5.047   4.682 -1.7652  0.2095 -1.6875
  170MOL0     H23408   4.160   5.087   4.837  0.8191  0.7604 -2.6151
  170MOL0     H23409   4.295   4.775   4.641  0.0626 -0.4210 -0.2772
  170MOL0     H23410   4.303   4.482   4.793  0.2893  0.8469 -1.5034
  170MOL0     H23411   4.406   4.529   4.932 -3.1735 -0.4455  0.7780
  170MOL0     H23412   4.472   4.601   4.640  0.5147  1.1580  0.1432
  170MOL0     H23413   4.564   4.643   4.789 -3.3770  2.5463  1.4756
  170MOL0     H23414   4.584   4.377   4.807 -1.1930 -0.8523  0.0855
  170MOL0     H23415   4.509   4.378   4.646  0.4265 -2.4458  1.4933
  170MOL0     H23416   4.679   4.523   4.563  0.6986  0.5482  0.5493
  170MOL0     H23417   4.757   4.542   4.719  2.7200 -0.9164 -0.8148
  170MOL0     H23418   4.827   4.429   4.382 -0.5581  0.0874  0.0581
  170MOL0     H23419   4.768   4.351   4.080 -0.8869 -1.0633 -1.7539
  170MOL0     H23420   4.893   4.230   4.085 -1.6361  1.2165 -2.4229
  170MOL0     H23421   4.921   4.379   4.163 -0.3613 -0.9516  0.6275
  170MOL0     H23422   4.700   3.741   4.184 -0.2783  2.3051  0.1618
  170MOL0     H23423   4.694   3.541   4.046 -1.5061  0.1573 -2.8429
  170MOL0     H23424   4.759   3.325   3.782  2.0399  1.5286 -0.0688
  170MOL0     H23425   4.652   3.433   3.855 -0.6026 -0.0233 -0.2334
  170MOL0     H23426   4.673   3.590   3.642 -0.9623 -0.6473  0.7069
  170MOL0     H23427   4.713   3.445   3.555 -0.0245 -0.8005 -0.0664
  170MOL0     H23428   4.479   3.500   3.564 -1.4412  1.0714  0.8084
  170MOL0     H23429   4.463   3.465   3.731  2.1947  3.4755 -0.0151
  170MOL0     H23430   4.611   3.248   3.607  0.3858  0.2914 -1.7083
  170MOL0     H23431   4.501   3.284   3.485  0.5276  0.7097  0.0587
  170MOL0     H23432   4.434   3.208   3.782 -1.5949  0.1525  0.3171
  170MOL0     H23433   4.306   3.249   3.672 -0.6586  0.1181 -2.6446
  170MOL0     H23434   4.517   3.050   3.587  0.1367 -1.2131  1.5659
  170MOL0     H23435   4.353   3.073   3.527  0.3025 -1.7441 -0.4409
  170MOL0     H23436   4.371   2.860   3.655  2.4344  0.0042  0.9887
  170MOL0     H23437   4.260   2.976   3.738  0.5866  1.4667  1.9125
  170MOL0     H23438   4.549   2.941   3.822  0.4150 -0.2325 -2.5120
  170MOL0     H23439   4.426   2.823   3.863 -0.0777  0.3782  0.0519
  170MOL0     H23440   4.911   3.763   3.733  0.7450 -0.5152 -0.4699
  170MOL0     H23441   4.916   3.957   3.884 -0.5546 -1.2767 -2.4306
  170MOL0     H23442   4.692   3.962   4.436 -0.5223 -1.1372 -2.9656
  170MOL0     H23443   4.687   4.103   4.627  0.9742 -0.5315  0.2410
  170MOL0     H23444   3.153   5.250   4.739 -2.6431  0.2683  1.2494
  170MOL0     H23445   2.931   5.158   4.725  0.8909 -1.2116 -1.1367
  170MOL0     H23446   2.575   5.204   4.313 -1.2818  0.0864  0.5275
  170MOL0     H23447   2.374   5.159   4.203  0.2575  1.9569  3.0681
  170MOL0     H23448   2.411   4.864   4.005  0.3203 -3.7032 -1.9525
  170MOL0     H23449   2.339   4.727   4.086  2.2351  1.2006  0.7689
  170MOL0     H23450   2.277   4.821   3.844 -1.4976 -1.1228  0.0691
  170MOL0     H23451   2.171   4.933   3.927  1.7961  0.2603 -1.6009
  170MOL0     H23452   2.093   4.686   3.813  1.2214 -1.4699  0.1538
  170MOL0     H23453   2.141   4.624   3.958 -0.2916 -1.3676 -3.5121
  170MOL0     H23454   1.940   4.851   3.937 -1.0136 -1.3444 -0.5215
  170MOL0     H23455   2.026   4.807   4.088  1.5230  0.7295 -0.8787
  170MOL0     H23456   1.755   4.493   4.050  0.2538 -0.4746 -0.9189
  170MOL0     H23457   2.392   4.745   4.341  0.8179  0.1300 -1.7146
  170MOL0     H23458   2.630   4.831   4.606 -0.4589 -0.0320 -0.4846
  170MOL0     H23459   2.490   4.733   4.572  0.7905  0.8892  0.7524
  170MOL0     H23460   2.637   4.707   4.479  1.5003  0.1913  1.0536
  171MOL0     O23461   0.200   0.648   3.114 -0.2414  0.2857 -0.7617
  171MOL0     C23462   0.134   0.578   3.039 -0.1897 -0.4861 -0.7247
  171MOL0     O23463   0.167   0.455   3.012  0.5886  0.2193  0.5924
  171MOL0     C23464   0.294   0.421   3.045 -0.8013  0.2670  1.8376
  171MOL0     C23465   0.329   0.378   3.170 -0.4325  0.1771 -0.6598
  171MOL0     C23466   0.460   0.356   3.196  0.0362 -1.1096  0.5218
  171MOL0     C23467   0.565   0.345   3.105 -0.0017 -0.1671  0.2765
  171MOL0     O23468   0.685   0.299   3.138  0.1031  0.2526  0.7245
  171MOL0     C23469   0.798   0.332   3.053 -0.5093 -0.5785  0.0057
  171MOL0     C23470   0.929   0.326   3.135 -0.4556  0.2175  0.3920
  171MOL0     C23471   1.054   0.376   3.065  0.7921  1.3738 -0.2592
  171MOL0     C23472   1.177   0.353   3.156 -0.2360  0.0653  0.7190
  171MOL0     C23473   1.307   0.410   3.108 -0.0329 -0.3935  0.0071
  171MOL0     C23474   1.302   0.562   3.080 -0.0128 -0.5691  1.0802
  171MOL0     C23475   1.442   0.638   3.110 -0.7084  0.1699  0.2748
  171MOL0     C23476   1.569   0.595   3.024  0.0685 -0.5470 -0.1221
  171MOL0     N23477   1.549   0.626   2.887  0.2029  0.2216  0.2010
  171MOL0     C23478   1.486   0.544   2.789  0.3293  0.0605 -0.2607
  171MOL0     C23479   1.463   0.631   2.690  0.0115  0.2417  0.1508
  171MOL0     C23480   1.367   0.601   2.581 -0.6318  0.8390 -0.5682
  171MOL0     C23481   1.417   0.496   2.479  0.0924  0.0380  0.1865
  171MOL0     C23482   1.321   0.482   2.352 -0.1830  0.9281 -0.0265
  171MOL0     C23483   1.356   0.356   2.281 -0.1397  0.7433  0.4002
  171MOL0     O23484   1.494   0.373   2.242  0.0647 -0.9698 -1.0770
  171MOL0     C23485   1.527   0.437   2.119 -0.9576 -1.0597 -0.2993
  171MOL0     C23486   1.439   0.482   2.017 -0.2650 -0.9624  0.4198
  171MOL0     C23487   1.475   0.522   1.888  0.5929  0.5897 -0.9882
  171MOL0     C23488   1.353   0.553   1.802 -0.3861  0.2981 -0.1659
  171MOL0     C23489   1.612   0.516   1.853 -0.3936 -0.5816  0.3021
  171MOL0     C23490   1.664   0.553   1.716 -0.3668 -0.0223  0.9065
  171MOL0     O23491   1.577   0.614   1.621 -0.3858  0.3708  0.3659
  171MOL0     C23492   1.630   0.655   1.504 -0.1927 -0.0372  0.5411
  171MOL0     C23493   1.626   0.786   1.466 -1.3046 -0.7632 -0.3968
  171MOL0     C23494   1.692   0.828   1.356  0.1089  0.1606  0.4166
  171MOL0     C23495   1.756   0.732   1.275 -0.7026  0.5236  0.4810
  171MOL0     O23496   1.833   0.770   1.162 -0.0709  0.3880 -0.2686
  171MOL0     C23497   1.936   0.868   1.178  0.0762 -1.7759  0.5701
  171MOL0     C23498   1.981   0.941   1.042  0.5656 -0.4663  0.0635
  171MOL0     C23499   2.008   0.840   0.921  0.8418  0.7530 -0.0922
  171MOL0     C23500   2.047   0.919   0.794 -0.5130 -0.4857 -0.0499
  171MOL0     C23501   2.052   0.834   0.671  0.7027  0.1908 -0.3869
  171MOL0     C23502   2.082   0.908   0.548  0.6668  0.0315 -0.6099
  171MOL0     C23503   2.113   0.832   0.422  1.1012 -1.1577 -0.4601
  171MOL0     C23504   2.268   0.814   0.392 -0.1861 -0.6463 -0.0532
  171MOL0    Cl23505   2.365   0.968   0.342  0.2718 -0.1396 -0.3005
  171MOL0     C23506   1.752   0.599   1.309 -0.8821 -0.3045 -0.7794
  171MOL0     C23507   1.692   0.559   1.424 -0.3126  0.2282  0.1647
  171MOL0     O23508   1.785   0.529   1.701 -0.7896  0.0351  0.4463
  171MOL0     C23509   1.706   0.466   1.951 -0.2314  0.0825 -0.0524
  171MOL0     C23510   1.662   0.436   2.081 -0.0354 -0.7546  0.3078
  171MOL0     N23511   1.521   0.754   2.710  0.4882  0.3528  0.5953
  171MOL0     N23512   1.566   0.748   2.834  0.6554  0.2344  0.0393
  171MOL0     C23513   0.518   0.383   2.978  0.6359  0.0054 -0.2976
  171MOL0     C23514   0.397   0.422   2.941  0.3067  0.1538  0.7260
  171MOL0     C23515  -0.006   0.617   3.015 -1.1414 -0.3374  0.4604
  171MOL0     C23516  -0.094   0.513   2.988 -0.5697 -0.4104  0.7327
  171MOL0     C23517  -0.229   0.525   2.976 -0.5212 -0.2915 -0.9477
  171MOL0     C23518  -0.277   0.651   2.993  0.5128 -0.4217  0.0729
  171MOL0     O23519  -0.419   0.666   2.984 -0.3506 -0.4540  0.1549
  171MOL0     C23520  -0.467   0.753   3.083  0.1653 -0.2798  0.7203
  171MOL0     C23521  -0.580   0.686   3.159 -0.0748  0.7518  0.7888
  171MOL0     C23522  -0.510   0.575   3.245 -0.4290  0.3168 -0.4622
  171MOL0     C23523  -0.585   0.550   3.370 -0.1087  0.2083 -0.0955
  171MOL0     C23524  -0.573   0.661   3.462 -1.1116 -0.4101  1.3957
  171MOL0     C23525  -0.538   0.756   3.532  0.0005 -0.2414  0.2297
  171MOL0     C23526  -0.194   0.760   3.022 -0.2309 -0.0791 -0.3571
  171MOL0     C23527  -0.056   0.747   3.025  0.1504 -0.1920  0.3544
  171MOL0     C23528   0.018   0.873   3.019  0.1278 -0.9423 -0.4880
  171MOL0     H23529   0.258   0.365   3.251  0.8817  1.8466  0.8699
  171MOL0     H23530   0.479   0.312   3.294 -4.3501 -4.0377  0.3311
  171MOL0     H23531   0.768   0.425   3.003  1.0380  0.4167  0.8451
  171MOL0     H23532   0.824   0.254   2.981 -0.7998 -2.9726  2.3375
  171MOL0     H23533   0.919   0.364   3.237 -1.6468 -3.8800  2.0043
  171MOL0     H23534   0.948   0.219   3.144  0.1219 -0.1681 -3.5372
  171MOL0     H23535   1.062   0.314   2.975 -1.6092 -1.0820  1.0467
  171MOL0     H23536   1.048   0.481   3.036 -0.0406  2.2414  2.7106
  171MOL0     H23537   1.150   0.400   3.251 -1.2391  0.1614  0.3986
  171MOL0     H23538   1.186   0.246   3.179  0.6943  0.7206  4.0282
  171MOL0     H23539   1.343   0.361   3.018  1.4986  3.1805 -1.5118
  171MOL0     H23540   1.374   0.395   3.193  0.8259 -2.1072 -0.9363
  171MOL0     H23541   1.278   0.588   2.977  1.8588 -0.3660  0.6579
  171MOL0     H23542   1.225   0.604   3.146 -2.1960 -2.4848 -0.1125
  171MOL0     H23543   1.475   0.625   3.214 -0.3108  2.1223  0.4433
  171MOL0     H23544   1.436   0.741   3.074  1.8855 -0.3276 -1.9221
  171MOL0     H23545   1.662   0.644   3.053 -2.3301  4.3738  0.2047
  171MOL0     H23546   1.573   0.486   3.038  1.0280 -0.4759  0.2314
  171MOL0     H23547   1.445   0.444   2.798  0.4979 -0.1062 -1.2577
  171MOL0     H23548   1.340   0.696   2.533 -1.0295  1.5580  0.9904
  171MOL0     H23549   1.275   0.560   2.625 -0.4537 -3.1120 -3.3815
  171MOL0     H23550   1.519   0.526   2.453  0.0175 -0.9753 -1.4388
  171MOL0     H23551   1.428   0.400   2.530  0.2310  0.2718  0.6004
  171MOL0     H23552   1.223   0.479   2.401 -0.9496  1.9877 -1.4274
  171MOL0     H23553   1.318   0.570   2.287 -1.1812  1.2181  0.3903
  171MOL0     H23554   1.345   0.273   2.351  1.1567  0.2017 -0.0030
  171MOL0     H23555   1.291   0.335   2.196  0.1891 -1.5230  0.6473
  171MOL0     H23556   1.332   0.479   2.038 -0.0187 -1.6712  1.6473
  171MOL0     H23557   1.360   0.510   1.702  2.9891 -1.9987  0.9039
  171MOL0     H23558   1.339   0.662   1.800 -0.0500  0.3341 -1.0885
  171MOL0     H23559   1.262   0.507   1.841 -0.0635  0.5361  0.9087
  171MOL0     H23560   1.573   0.857   1.529 -0.3696  1.0055 -1.5079
  171MOL0     H23561   1.695   0.936   1.346  2.0053  0.1446  0.4138
  171MOL0     H23562   1.909   0.952   1.242 -0.0871 -0.9005 -0.6154
  171MOL0     H23563   2.022   0.815   1.218  1.4470 -0.7430 -0.8458
  171MOL0     H23564   1.911   1.018   1.011  2.6373  1.4330 -0.1590
  171MOL0     H23565   2.071   1.003   1.052 -1.6537  2.7848  1.5388
  171MOL0     H23566   1.914   0.785   0.913  0.5701  1.2212 -0.1519
  171MOL0     H23567   2.080   0.760   0.940  0.9838  0.8853 -0.0748
  171MOL0     H23568   2.142   0.966   0.821 -1.2103  1.8768 -1.4139
  171MOL0     H23569   1.975   1.001   0.787  1.1744  1.2940  1.9877
  171MOL0     H23570   2.120   0.750   0.686 -0.9946 -1.1764 -0.1473
  171MOL0     H23571   1.952   0.791   0.667  1.3985 -1.5792 -5.3439
  171MOL0     H23572   2.164   0.978   0.564  2.5357 -2.1596 -0.1662
  171MOL0     H23573   1.993   0.970   0.528  0.1045 -0.5828 -0.0718
  171MOL0     H23574   2.081   0.886   0.333  2.6712  0.4289 -0.1371
  171MOL0     H23575   2.066   0.733   0.423 -1.7445  0.0827  0.9593
  171MOL0     H23576   2.268   0.744   0.308  3.4387  0.0959 -0.8211
  171MOL0     H23577   2.323   0.762   0.471 -2.7688 -2.3742  0.7777
  171MOL0     H23578   1.806   0.530   1.245 -1.3612  1.5690 -3.3974
  171MOL0     H23579   1.686   0.454   1.450  2.0026 -0.0581 -0.2588
  171MOL0     H23580   1.813   0.451   1.940  0.2103  3.1913 -0.9095
  171MOL0     H23581   1.730   0.398   2.156 -0.2289 -2.8061 -0.4987
  171MOL0     H23582   0.590   0.365   2.899  1.5399 -0.0279  0.5115
  171MOL0     H23583   0.368   0.443   2.838 -3.1419  3.3404  2.1012
  171MOL0     H23584  -0.052   0.413   2.980  0.2181 -0.0308 -0.0565
  171MOL0     H23585  -0.292   0.441   2.951 -0.1366 -0.9171  0.1109
  171MOL0     H23586  -0.393   0.783   3.158  1.0735 -1.5160  0.3571
  171MOL0     H23587  -0.496   0.838   3.022  1.1748  0.2958  1.0123
  171MOL0     H23588  -0.650   0.647   3.084  1.8601  2.6788 -2.2266
  171MOL0     H23589  -0.635   0.756   3.222 -1.3022  0.8244 -0.3103
  171MOL0     H23590  -0.514   0.480   3.191 -2.5793  0.4746 -0.6532
  171MOL0     H23591  -0.409   0.599   3.280  0.9548 -3.4956 -1.4280
  171MOL0     H23592  -0.552   0.456   3.416 -0.0428 -0.0551 -0.6743
  171MOL0     H23593  -0.691   0.535   3.348  0.0825 -0.9404 -0.3087
  171MOL0     H23594  -0.505   0.834   3.598 -0.5497 -0.1290  0.3766
  171MOL0     H23595  -0.233   0.860   3.039  4.1954  1.4978  2.3659
  171MOL0     H23596   0.119   0.853   2.981  1.2362  1.7760  0.7754
  171MOL0     H23597  -0.032   0.949   2.958  0.2653 -1.5842 -1.4301
  171MOL0     H23598   0.032   0.916   3.118  1.1097  1.6506 -1.6397
  172MOL0     O23599   7.628  10.359   2.258  0.1404  0.1292 -0.5508
  172MOL0     C23600   7.635  10.441   2.170  0.0489 -0.5259 -0.0619
  172MOL0     O23601   7.739  10.461   2.087 -0.7269  0.4111 -0.0495
  172MOL0     C23602   7.858  10.397   2.087 -0.6806  0.7488 -0.3433
  172MOL0     C23603   7.909  10.273   2.142  0.5139  0.0879 -0.2559
  172MOL0     C23604   8.046  10.240   2.135 -0.0235 -0.2232  0.2532
  172MOL0     C23605   8.137  10.317   2.057  0.3878 -0.5141 -0.8430
  172MOL0     O23606   8.265  10.278   2.048  0.2312 -0.5107  0.0910
  172MOL0     C23607   8.321  10.266   1.916  1.4678  0.1352 -0.1808
  172MOL0     C23608   8.291  10.130   1.851  0.3598 -0.0654 -0.6255
  172MOL0     C23609   8.338  10.135   1.708  0.6247  0.2315 -0.2196
  172MOL0     C23610   8.305  10.001   1.641 -0.1535 -0.5627  0.6113
  172MOL0     C23611   8.388   9.996   1.499  0.1823  0.8420  0.1839
  172MOL0     C23612   8.321   9.889   1.409 -0.2596  0.4017  0.1736
  172MOL0     C23613   8.405   9.893   1.277 -0.5847  0.5636  0.8451
  172MOL0     C23614   8.394   9.780   1.181 -0.7776  1.2164  0.0998
  172MOL0     N23615   8.277   9.767   1.099  0.2773 -0.1561  0.6215
  172MOL0     C23616   8.148   9.744   1.144 -0.8114 -0.6676  0.3611
  172MOL0     C23617   8.063   9.757   1.045 -0.5204  0.1177 -0.5871
  172MOL0     C23618   7.914   9.759   1.052  0.6678 -0.0574  0.0051
  172MOL0     C23619   7.857   9.883   0.981  0.0708  0.1710  0.6376
  172MOL0     C23620   7.854   9.882   0.825 -0.6348 -0.6967 -0.1640
  172MOL0     C23621   7.769   9.778   0.752  0.5927  1.3277  0.6669
  172MOL0     O23622   7.714   9.832   0.626 -0.1028 -0.8067 -0.0980
  172MOL0     C23623   7.777   9.812   0.505  0.4800 -0.2048  0.7965
  172MOL0     C23624   7.744   9.891   0.395 -0.2357  0.2526 -1.1440
  172MOL0     C23625   7.795   9.883   0.271  0.3867  0.4680  0.0521
  172MOL0     C23626   7.736   9.964   0.160  0.0587  0.6725 -0.8632
  172MOL0     C23627   7.893   9.784   0.249 -0.8695  0.2882 -0.8258
  172MOL0     C23628   7.963   9.756   0.104 -0.4236 -0.3089 -0.1959
  172MOL0     O23629   7.957   9.856   0.018  0.6344  0.1555  0.0367
  172MOL0     C23630   8.011   9.862  -0.107  0.3692 -0.2762  0.1194
  172MOL0     C23631   8.004   9.989  -0.165  1.2071 -0.3888  0.1735
  172MOL0     C23632   8.032  10.001  -0.301 -0.1069  0.2746  0.2828
  172MOL0     C23633   8.085   9.901  -0.383 -0.3629  0.5768 -1.2365
  172MOL0     O23634   8.088   9.932  -0.515  0.0575  0.2395  0.0506
  172MOL0     C23635   8.170   9.849  -0.595  1.0587 -0.0508  0.3634
  172MOL0     C23636   8.200   9.913  -0.735 -0.5408 -0.1601 -0.4200
  172MOL0     C23637   8.228   9.805  -0.844  0.8823  0.7296  0.4253
  172MOL0     C23638   8.106   9.708  -0.873 -0.0306  0.2894 -0.1291
  172MOL0     C23639   8.110   9.662  -1.022  0.0238  0.9367  0.0056
  172MOL0     C23640   7.995   9.553  -1.039  0.7573 -0.0876  0.4067
  172MOL0     C23641   8.021   9.468  -1.173  0.0679 -0.4328 -0.3785
  172MOL0     C23642   7.919   9.351  -1.182  1.1255  0.2266  0.0629
  172MOL0    Cl23643   7.752   9.407  -1.219  0.0308  0.0257 -0.2994
  172MOL0     C23644   8.120   9.786  -0.319  0.2130 -0.5222  0.0564
  172MOL0     C23645   8.090   9.767  -0.181 -0.3843  0.6383  0.7160
  172MOL0     O23646   8.040   9.662   0.094 -0.1010 -0.5306  0.6998
  172MOL0     C23647   7.943   9.720   0.365 -0.5455  0.4452  0.0559
  172MOL0     C23648   7.892   9.733   0.490  0.1622  0.0039  0.7148
  172MOL0     N23649   8.142   9.798   0.932  0.9476  0.1974 -0.2784
  172MOL0     N23650   8.262   9.791   0.969 -0.3018  0.2133  0.4509
  172MOL0     C23651   8.087  10.435   2.006  0.2076 -0.2973 -0.8196
  172MOL0     C23652   7.952  10.467   2.018 -0.4430 -0.9058 -0.5671
  172MOL0     C23653   7.515  10.527   2.148  0.0327  0.1591 -0.6684
  172MOL0     C23654   7.527  10.631   2.047 -0.6699 -0.2819 -0.3545
  172MOL0     C23655   7.424  10.724   2.049  0.5344 -0.3128 -0.7128
  172MOL0     C23656   7.304  10.725   2.131 -0.1520 -0.0308  0.4540
  172MOL0     O23657   7.199  10.817   2.128 -0.5344 -0.3263 -0.1020
  172MOL0     C23658   7.216  10.929   2.036  0.4661  0.3612 -0.0929
  172MOL0     C23659   7.094  11.021   2.053  0.3347 -1.5121  0.5127
  172MOL0     C23660   7.104  11.142   1.952  0.1698 -0.6797 -0.1833
  172MOL0     C23661   7.213  11.256   1.996  0.2780 -0.0074 -0.8415
  172MOL0     C23662   7.173  11.326   2.117  1.1597 -0.9693  0.1357
  172MOL0     C23663   7.137  11.385   2.218  0.3178  0.7936  0.0608
  172MOL0     C23664   7.286  10.605   2.205  0.2586  0.8137  0.3757
  172MOL0     C23665   7.396  10.511   2.229 -0.2929 -0.7788 -0.5541
  172MOL0     C23666   7.372  10.402   2.330 -0.0393 -0.1937  0.2137
  172MOL0     H23667   7.847  10.199   2.192  0.0086  0.6276 -0.0741
  172MOL0     H23668   8.065  10.150   2.192 -2.5297 -1.2207 -0.3385
  172MOL0     H23669   8.430  10.277   1.924  1.5956 -0.8054 -0.5666
  172MOL0     H23670   8.282  10.352   1.860  1.2752  2.1419  2.8178
  172MOL0     H23671   8.329  10.043   1.905 -1.3290 -1.0125 -0.9137
  172MOL0     H23672   8.187  10.102   1.865  0.7872 -2.1477 -1.3254
  172MOL0     H23673   8.296  10.217   1.648  2.1052  0.0764 -1.5378
  172MOL0     H23674   8.446  10.151   1.698  0.7789 -0.4849  0.2406
  172MOL0     H23675   8.333   9.920   1.709  0.8566  1.5150  2.8152
  172MOL0     H23676   8.198  10.003   1.619 -0.1516 -1.6602  0.4536
  172MOL0     H23677   8.495   9.980   1.517 -0.3124 -0.3563  2.5594
  172MOL0     H23678   8.382  10.097   1.459 -2.1784  1.9992  3.0649
  172MOL0     H23679   8.330   9.793   1.460 -2.9403  0.0796  0.1691
  172MOL0     H23680   8.220   9.920   1.383  0.0314  0.1814 -1.3313
  172MOL0     H23681   8.513   9.888   1.289 -0.1671 -2.0801 -2.5805
  172MOL0     H23682   8.382   9.990   1.231  1.5192  1.5030  1.6386
  172MOL0     H23683   8.485   9.775   1.121  0.4444 -2.0851  1.9330
  172MOL0     H23684   8.379   9.706   1.260 -2.9078  1.3784 -0.0922
  172MOL0     H23685   8.116   9.735   1.247 -3.1623 -0.8517 -0.3421
  172MOL0     H23686   7.887   9.778   1.156 -2.3318  1.7926 -0.9980
  172MOL0     H23687   7.880   9.664   1.009 -0.5692 -1.6044  3.9614
  172MOL0     H23688   7.757   9.908   1.018 -0.1045 -0.3860  0.5602
  172MOL0     H23689   7.916   9.964   1.024 -0.7891 -0.1493  2.5347
  172MOL0     H23690   7.803   9.977   0.812  0.8658  0.0185 -1.0324
  172MOL0     H23691   7.953   9.884   0.779 -0.8570  1.3251 -0.6244
  172MOL0     H23692   7.821   9.683   0.738 -0.8222  0.1809  2.5290
  172MOL0     H23693   7.682   9.749   0.813 -1.2064  3.9837 -0.4438
  172MOL0     H23694   7.660   9.958   0.404 -1.5206 -1.4566  0.5044
  172MOL0     H23695   7.644  10.019   0.183 -2.1563 -1.7448 -3.1555
  172MOL0     H23696   7.713   9.901   0.074  0.6080 -0.6291 -0.0933
  172MOL0     H23697   7.802  10.047   0.133 -2.1250  2.9427  0.3248
  172MOL0     H23698   7.966  10.070  -0.103 -3.0576  0.9058 -3.5853
  172MOL0     H23699   8.002  10.093  -0.350 -0.3366 -0.5330 -1.1725
  172MOL0     H23700   8.265   9.825  -0.546  1.9760  1.0268 -0.8298
  172MOL0     H23701   8.118   9.754  -0.607 -1.2811  1.2735 -0.5029
  172MOL0     H23702   8.120   9.976  -0.775  1.7068  2.6552 -0.8320
  172MOL0     H23703   8.289   9.976  -0.739 -0.3096 -0.5529 -2.0996
  172MOL0     H23704   8.309   9.744  -0.804  1.1280  0.1818 -0.8415
  172MOL0     H23705   8.255   9.853  -0.939 -1.0127  1.7764  0.3695
  172MOL0     H23706   8.014   9.761  -0.845  0.4912  1.4831 -0.6496
  172MOL0     H23707   8.110   9.617  -0.811 -1.1721 -2.9683 -4.3375
  172MOL0     H23708   8.101   9.745  -1.092 -2.8757  1.1451  0.4860
  172MOL0     H23709   8.205   9.611  -1.038 -0.7807  0.1371 -2.8811
  172MOL0     H23710   7.897   9.601  -1.044  1.6281  1.7937 -4.6511
  172MOL0     H23711   7.994   9.476  -0.962  2.3484  2.0526  2.7083
  172MOL0     H23712   8.124   9.433  -1.185  1.6575  3.9933 -1.5271
  172MOL0     H23713   8.019   9.538  -1.256  1.6674  0.0220 -0.0700
  172MOL0     H23714   7.915   9.289  -1.092 -2.7943  0.7248  0.3890
  172MOL0     H23715   7.953   9.294  -1.269  0.5582  2.2073 -1.5318
  172MOL0     H23716   8.172   9.706  -0.371  0.4888 -0.5508  0.3741
  172MOL0     H23717   8.103   9.677  -0.123  1.9241  2.4206  3.2192
  172MOL0     H23718   8.034   9.660   0.357 -0.2601  0.8534  0.2066
  172MOL0     H23719   7.941   9.677   0.569  1.7620 -1.1933 -1.0312
  172MOL0     H23720   8.165  10.491   1.956  0.5826 -2.7663 -3.2125
  172MOL0     H23721   7.935  10.564   1.971  1.2316 -1.6922 -2.9457
  172MOL0     H23722   7.619  10.639   1.990  2.1184 -2.0712  3.4053
  172MOL0     H23723   7.442  10.808   1.981 -1.7424 -0.4681 -1.5695
  172MOL0     H23724   7.305  10.979   2.076  0.3124  0.3955  0.2120
  172MOL0     H23725   7.230  10.900   1.931  1.1056 -1.2844  0.4248
  172MOL0     H23726   7.074  11.059   2.154 -0.4562 -3.2980  1.0778
  172MOL0     H23727   7.009  10.956   2.028  0.6064 -1.4393 -0.6625
  172MOL0     H23728   7.133  11.101   1.855  0.6301  2.6756 -1.5997
  172MOL0     H23729   7.009  11.195   1.942  0.5736 -0.4016 -3.4152
  172MOL0     H23730   7.228  11.325   1.912  1.0103 -4.9492 -5.3080
  172MOL0     H23731   7.316  11.219   1.991 -0.1827 -1.2451 -1.6306
  172MOL0     H23732   7.081  11.427   2.300 -0.6829  0.6699 -0.5339
  172MOL0     H23733   7.191  10.583   2.253 -0.2015 -1.6092 -1.4749
  172MOL0     H23734   7.392  10.302   2.291  2.5125  0.0916  0.6475
  172MOL0     H23735   7.436  10.413   2.418 -1.2754 -0.9762  1.2569
  172MOL0     H23736   7.267  10.415   2.360 -1.2141 -1.5681 -2.9295
  173MOL0     O23737   3.042   0.962  11.186  0.4129  0.5980  0.1681
  173MOL0     C23738   2.954   0.892  11.130 -0.4034 -0.2956 -0.4623
  173MOL0     O23739   2.894   0.927  11.009  0.3821  0.1780  0.6099
  173MOL0     C23740   2.949   1.013  10.921 -0.0867 -0.7224 -0.3250
  173MOL0     C23741   2.862   1.083  10.838 -0.2813 -0.1293  0.5830
  173MOL0     C23742   2.908   1.184  10.749  0.5601 -0.2537 -0.6721
  173MOL0     C23743   3.043   1.194  10.720 -0.4500 -0.9477 -0.7837
  173MOL0     O23744   3.091   1.289  10.625 -0.5511 -0.0155  0.6414
  173MOL0     C23745   2.998   1.393  10.579 -1.4912  0.2668 -0.2108
  173MOL0     C23746   3.064   1.510  10.509  0.1895  0.2745  1.2156
  173MOL0     C23747   2.960   1.606  10.476  0.3635 -0.0517 -0.3814
  173MOL0     C23748   2.928   1.626  10.330  0.1481 -0.1092  0.7579
  173MOL0     C23749   3.023   1.719  10.259 -0.0630 -0.1577  0.4316
  173MOL0     C23750   3.016   1.864  10.307  1.0306  0.1019  0.8599
  173MOL0     C23751   3.103   1.966  10.228  0.6917  0.0855  0.2448
  173MOL0     C23752   3.245   1.915  10.232 -0.5931  0.3950 -0.0274
  173MOL0     N23753   3.338   2.014  10.175 -0.0827 -0.3230  0.5547
  173MOL0     C23754   3.360   2.036  10.041 -0.9318  0.1604 -0.1208
  173MOL0     C23755   3.469   2.121  10.033  0.7809  0.0841 -0.7054
  173MOL0     C23756   3.528   2.172   9.907 -0.8748  0.0288  0.1150
  173MOL0     C23757   3.674   2.224   9.924  0.7329 -0.2003 -0.4873
  173MOL0     C23758   3.716   2.322   9.819 -0.0768  1.6098 -0.5211
  173MOL0     C23759   3.736   2.269   9.675  0.4264 -0.0569 -0.3637
  173MOL0     O23760   3.844   2.174   9.669 -0.7807  0.5696  0.1114
  173MOL0     C23761   3.972   2.210   9.645 -0.8083 -0.4410  0.4150
  173MOL0     C23762   4.000   2.332   9.583  0.1610 -0.2753 -0.9755
  173MOL0     C23763   4.128   2.368   9.537  0.4745 -0.5580  0.1139
  173MOL0     C23764   4.127   2.471   9.444 -0.9399  0.0070  1.3947
  173MOL0     C23765   4.231   2.280   9.553  0.8931  0.4805  0.3425
  173MOL0     C23766   4.368   2.317   9.527  0.3472 -0.7700 -0.2051
  173MOL0     O23767   4.451   2.218   9.489  0.1916 -0.7853  0.0092
  173MOL0     C23768   4.578   2.228   9.519  0.1477  0.3473 -0.5222
  173MOL0     C23769   4.657   2.175   9.425 -0.7572  0.6434 -0.1708
  173MOL0     C23770   4.795   2.187   9.426  0.3600 -0.7146  0.3192
  173MOL0     C23771   4.862   2.251   9.530  0.5143 -1.0774 -0.0299
  173MOL0     O23772   4.997   2.267   9.512 -0.0281 -0.2537  0.3770
  173MOL0     C23773   5.061   2.373   9.593  0.4730  0.1643 -0.3255
  173MOL0     C23774   5.210   2.397   9.564 -0.4107  0.0861 -0.0919
  173MOL0     C23775   5.225   2.438   9.415 -0.0194  0.2198 -0.5412
  173MOL0     C23776   5.368   2.441   9.378  0.3146 -0.4308  0.3332
  173MOL0     C23777   5.391   2.446   9.222  0.1948 -0.4055  0.2321
  173MOL0     C23778   5.311   2.549   9.154  0.2360 -0.4307  0.5652
  173MOL0     C23779   5.371   2.691   9.176  0.7751 -0.5292  0.4257
  173MOL0     C23780   5.297   2.799   9.098  0.9446  0.1913 -0.2544
  173MOL0    Cl23781   5.332   2.948   9.192 -0.0766 -0.1189 -0.1181
  173MOL0     C23782   4.783   2.301   9.644 -1.4033 -0.9814  0.5485
  173MOL0     C23783   4.643   2.288   9.634  0.1405 -0.0494 -0.8801
  173MOL0     O23784   4.400   2.432   9.551  0.2525  0.4184 -0.3268
  173MOL0     C23785   4.204   2.154   9.611  0.0436  0.3667  1.6113
  173MOL0     C23786   4.070   2.123   9.653  0.0052  0.4737 -0.2581
  173MOL0     N23787   3.506   2.157  10.165  0.1242 -0.2271  0.4107
  173MOL0     N23788   3.419   2.098  10.246  0.4939 -1.0028 -0.3320
  173MOL0     C23789   3.129   1.115  10.806  0.1710 -0.5399 -0.0371
  173MOL0     C23790   3.085   1.031  10.903 -0.7828  0.4394 -1.2275
  173MOL0     C23791   2.908   0.761  11.197 -0.1030 -0.0698  0.2752
  173MOL0     C23792   2.810   0.685  11.129  0.4579 -0.1206  0.2637
  173MOL0     C23793   2.765   0.562  11.183  0.0912  0.9734  0.0731
  173MOL0     C23794   2.807   0.516  11.314 -0.1804  0.1619  0.2166
  173MOL0     O23795   2.740   0.408  11.355  0.1907 -0.5143 -0.0729
  173MOL0     C23796   2.766   0.288  11.292 -0.8589  0.3895  1.0943
  173MOL0     C23797   2.745   0.183  11.409 -0.1187  0.0142  1.1691
  173MOL0     C23798   2.848   0.196  11.518 -1.1683  0.8121  0.4052
  173MOL0     C23799   2.995   0.126  11.488 -0.6654 -0.4831  0.9086
  173MOL0     C23800   3.085   0.175  11.591 -0.3361  0.4350  0.3470
  173MOL0     C23801   3.166   0.210  11.674 -0.0892 -0.5994 -0.2034
  173MOL0     C23802   2.893   0.587  11.385 -0.5561 -0.5034  1.0134
  173MOL0     C23803   2.946   0.707  11.327 -0.3532  0.4986  0.2690
  173MOL0     C23804   3.021   0.777  11.438  0.6784 -0.0963  0.6812
  173MOL0     H23805   2.755   1.068  10.849 -0.5814  0.2788 -1.4278
  173MOL0     H23806   2.829   1.250  10.715 -1.2652 -1.8531  0.2992
  173MOL0     H23807   2.956   1.438  10.670  2.0260  2.8302  0.3676
  173MOL0     H23808   2.918   1.360  10.512 -2.3533  1.4641  0.1868
  173MOL0     H23809   3.135   1.555  10.578  2.1819 -0.1823 -0.4437
  173MOL0     H23810   3.110   1.457  10.424 -2.2989 -3.0408  1.7306
  173MOL0     H23811   2.865   1.581  10.523  0.2187  0.2572 -0.5057
  173MOL0     H23812   2.993   1.699  10.524  0.3910  0.2769 -1.0257
  173MOL0     H23813   2.923   1.531  10.277  1.5663  1.7483 -3.0432
  173MOL0     H23814   2.834   1.681  10.332  0.0582  0.1465 -3.1060
  173MOL0     H23815   2.999   1.718  10.153  3.9831  0.4055 -0.6687
  173MOL0     H23816   3.125   1.679  10.267  0.4805  0.3765 -2.6431
  173MOL0     H23817   2.910   1.893  10.304  0.2975 -1.8570  3.6782
  173MOL0     H23818   3.038   1.874  10.414 -2.7032  2.2574  1.6172
  173MOL0     H23819   3.108   2.064  10.276 -0.5669 -0.7162  2.1203
  173MOL0     H23820   3.048   1.987  10.136  1.6372 -0.8948 -0.5731
  173MOL0     H23821   3.275   1.914  10.337  2.3817 -2.0569 -0.7724
  173MOL0     H23822   3.251   1.815  10.190 -0.2567 -0.1213  1.2189
  173MOL0     H23823   3.300   2.006   9.956  0.8029  4.3065 -3.1243
  173MOL0     H23824   3.456   2.246   9.872 -0.6802  1.1293  1.9046
  173MOL0     H23825   3.536   2.089   9.836 -2.0015 -2.0668  2.2776
  173MOL0     H23826   3.680   2.272  10.022 -2.5517 -0.9707  0.1973
  173MOL0     H23827   3.751   2.147   9.928  0.0714 -0.7888  2.0088
  173MOL0     H23828   3.649   2.409   9.817 -1.7169  0.5343  1.8498
  173MOL0     H23829   3.810   2.369   9.849 -0.4921  0.8792  2.2818
  173MOL0     H23830   3.649   2.208   9.652  1.0343 -1.1851  0.2006
  173MOL0     H23831   3.743   2.356   9.611  3.5479  1.5382  1.8765
  173MOL0     H23832   3.929   2.412   9.564  1.3349  0.5924 -1.9042
  173MOL0     H23833   4.083   2.442   9.348 -1.2636  0.3024  1.4537
  173MOL0     H23834   4.229   2.494   9.410 -2.1766  0.7760 -2.2152
  173MOL0     H23835   4.073   2.560   9.478 -2.8538 -1.1333  1.4514
  173MOL0     H23836   4.615   2.118   9.343 -1.4380  0.5187  0.2539
  173MOL0     H23837   4.848   2.142   9.342 -2.4850 -4.9858  0.5204
  173MOL0     H23838   5.014   2.464   9.554  1.7597 -0.4094 -3.4746
  173MOL0     H23839   5.046   2.355   9.700 -0.9906  4.4272  0.3717
  173MOL0     H23840   5.242   2.482   9.625  0.6389 -0.4248  0.0960
  173MOL0     H23841   5.259   2.306   9.599 -0.0057  0.4477  0.2971
  173MOL0     H23842   5.189   2.540   9.399  0.7304  0.7781  1.0972
  173MOL0     H23843   5.172   2.367   9.351 -2.5081  0.9299  0.6241
  173MOL0     H23844   5.402   2.347   9.421 -0.7043 -0.6530  0.6702
  173MOL0     H23845   5.410   2.523   9.437 -0.2491 -0.0429  0.2026
  173MOL0     H23846   5.498   2.465   9.209  0.3241  0.7764  2.4790
  173MOL0     H23847   5.364   2.353   9.171 -2.4429  1.4565 -2.0481
  173MOL0     H23848   5.204   2.537   9.172 -0.6593  1.7786 -2.4186
  173MOL0     H23849   5.320   2.528   9.048  3.2195  2.0980  0.1508
  173MOL0     H23850   5.476   2.688   9.146  0.6152  2.3758 -0.7178
  173MOL0     H23851   5.341   2.718   9.278 -3.5595 -2.2112 -0.2050
  173MOL0     H23852   5.188   2.791   9.110  0.9512  1.9393  1.6831
  173MOL0     H23853   5.318   2.824   8.994  0.0351 -0.9527 -0.7338
  173MOL0     H23854   4.825   2.350   9.731 -0.1152 -2.8891  1.0740
  173MOL0     H23855   4.597   2.338   9.719  2.7884 -0.3406  0.8615
  173MOL0     H23856   4.280   2.080   9.631 -0.1390  0.1679  1.5697
  173MOL0     H23857   4.052   2.029   9.704 -4.2915  0.2380 -1.8507
  173MOL0     H23858   3.234   1.145  10.801  0.8536 -1.2943  4.6192
  173MOL0     H23859   3.161   0.970  10.950  2.3980  3.4665 -2.0145
  173MOL0     H23860   2.763   0.721  11.037  0.9121  1.8962  0.7815
  173MOL0     H23861   2.693   0.504  11.125 -0.3809  1.4146  0.2132
  173MOL0     H23862   2.697   0.271  11.209 -1.5279 -2.3732  2.0978
  173MOL0     H23863   2.864   0.298  11.245 -0.6573  4.7217  2.0204
  173MOL0     H23864   2.744   0.084  11.362 -1.6406  1.2628 -1.7388
  173MOL0     H23865   2.642   0.196  11.443 -2.4497 -1.2207 -4.2591
  173MOL0     H23866   2.875   0.300  11.534  3.4425 -0.0402 -0.3899
  173MOL0     H23867   2.811   0.154  11.612  1.9320  0.7522  1.7143
  173MOL0     H23868   3.039   0.146  11.390 -0.9718 -3.3654  0.0775
  173MOL0     H23869   2.980   0.020  11.510 -1.4685 -0.5015  0.3295
  173MOL0     H23870   3.226   0.238  11.758  0.3900  1.8719 -1.2547
  173MOL0     H23871   2.941   0.554  11.477 -1.9105  0.2876  2.0300
  173MOL0     H23872   3.116   0.726  11.456 -0.0624 -2.4871 -1.5876
  173MOL0     H23873   3.039   0.881  11.408 -0.7661  0.0328  0.1989
  173MOL0     H23874   2.955   0.782  11.525  0.2919  0.1594  0.3769
  174MOL0     O23875   0.442   1.622   3.354 -0.4634 -0.2299  0.4912
  174MOL0     C23876   0.390   1.508   3.368  0.3345 -0.2037 -1.3943
  174MOL0     O23877   0.459   1.394   3.379 -0.0447  0.9454  0.3176
  174MOL0     C23878   0.594   1.367   3.344 -0.6125 -0.9510 -0.7783
  174MOL0     C23879   0.660   1.438   3.243  0.8774 -0.0684 -0.1343
  174MOL0     C23880   0.793   1.407   3.208  0.5703 -0.1755  0.4011
  174MOL0     C23881   0.855   1.297   3.266  0.1057  0.1915  0.3921
  174MOL0     O23882   0.988   1.266   3.237 -0.3596 -0.2993 -0.1785
  174MOL0     C23883   1.016   1.228   3.102 -0.6564 -0.0442 -0.5762
  174MOL0     C23884   1.157   1.279   3.053  0.6587  1.0192 -1.0054
  174MOL0     C23885   1.273   1.202   3.123  0.3921 -0.7583  0.4751
  174MOL0     C23886   1.404   1.250   3.059 -0.3999 -0.4541  0.2253
  174MOL0     C23887   1.524   1.156   3.103  0.5870  0.0324 -0.2661
  174MOL0     C23888   1.537   1.135   3.249 -0.6521  0.5558  0.0393
  174MOL0     C23889   1.671   1.068   3.289 -0.8192  0.5357 -0.3877
  174MOL0     C23890   1.663   1.040   3.437  1.0523 -0.0837 -0.0326
  174MOL0     N23891   1.685   1.176   3.506  0.6141 -0.6552 -0.0067
  174MOL0     C23892   1.627   1.197   3.622 -0.2344  0.6999 -0.0787
  174MOL0     C23893   1.664   1.326   3.649  0.6166  0.5545 -0.6817
  174MOL0     C23894   1.628   1.383   3.790 -0.0404 -0.0067  0.3987
  174MOL0     C23895   1.641   1.303   3.909 -0.1466  0.5381 -1.6344
  174MOL0     C23896   1.510   1.212   3.943  0.6256 -0.5246 -0.0371
  174MOL0     C23897   1.389   1.282   4.000  0.6993 -0.8878  0.5310
  174MOL0     O23898   1.296   1.180   4.037 -0.0709  0.5821  0.0456
  174MOL0     C23899   1.167   1.212   4.055 -0.8013 -0.5786  0.6100
  174MOL0     C23900   1.086   1.105   4.075 -0.1129 -0.2224 -0.0205
  174MOL0     C23901   0.956   1.120   4.138 -0.1842  0.1609  1.0077
  174MOL0     C23902   0.874   0.998   4.158  0.5049  0.4089 -0.3674
  174MOL0     C23903   0.910   1.250   4.149  0.8087 -0.4600 -0.0700
  174MOL0     C23904   0.774   1.273   4.201  0.4153 -0.4987  0.4889
  174MOL0     O23905   0.672   1.189   4.166 -0.9770 -0.8508 -0.3635
  174MOL0     C23906   0.550   1.227   4.206 -0.5707 -0.7285  0.1620
  174MOL0     C23907   0.495   1.158   4.316 -0.1821  0.4745  0.2067
  174MOL0     C23908   0.373   1.195   4.369 -0.4565  0.5999  0.0595
  174MOL0     C23909   0.300   1.301   4.322 -0.3895 -1.0399 -0.1452
  174MOL0     O23910   0.190   1.358   4.385  0.0268  0.0631  0.8942
  174MOL0     C23911   0.111   1.294   4.483  0.3858 -0.0520 -0.3494
  174MOL0     C23912  -0.024   1.363   4.512  0.1211  0.1782  0.1808
  174MOL0     C23913  -0.124   1.293   4.622  0.4376 -0.6037  0.5946
  174MOL0     C23914  -0.254   1.372   4.628 -0.6178 -0.2240 -0.4435
  174MOL0     C23915  -0.371   1.314   4.711 -1.0469  0.4138 -0.0419
  174MOL0     C23916  -0.492   1.408   4.707 -0.2603 -0.2406 -0.4624
  174MOL0     C23917  -0.610   1.368   4.802  0.5263  0.6425  0.6276
  174MOL0     C23918  -0.740   1.441   4.768 -0.0293  1.2498 -0.5284
  174MOL0    Cl23919  -0.772   1.457   4.591 -0.4527  0.0334 -0.1895
  174MOL0     C23920   0.352   1.368   4.213  1.0673  0.2716  0.0358
  174MOL0     C23921   0.475   1.337   4.150  0.1976  0.9857  0.8279
  174MOL0     O23922   0.753   1.367   4.277  0.8301  0.1120  0.0227
  174MOL0     C23923   0.992   1.359   4.107  0.9206  1.1272  0.2933
  174MOL0     C23924   1.121   1.338   4.055  0.2174 -0.7863 -0.2216
  174MOL0     N23925   1.754   1.370   3.552 -0.4351  0.7829 -0.3358
  174MOL0     N23926   1.761   1.279   3.461 -0.1424 -0.5784  0.1250
  174MOL0     C23927   0.790   1.224   3.373 -0.1667  0.2536  0.0742
  174MOL0     C23928   0.655   1.255   3.404  0.4643 -0.3054 -1.0248
  174MOL0     C23929   0.244   1.520   3.387  0.4900  0.0262 -0.1599
  174MOL0     C23930   0.175   1.410   3.405 -0.3254 -0.4458 -0.3237
  174MOL0     C23931   0.037   1.391   3.416  0.3049 -0.7048 -0.0618
  174MOL0     C23932  -0.037   1.507   3.411 -0.3853  0.9101 -0.3527
  174MOL0     O23933  -0.170   1.490   3.433  0.3696  0.6826 -0.1800
  174MOL0     C23934  -0.263   1.590   3.406  1.2565  0.2849 -0.5797
  174MOL0     C23935  -0.417   1.543   3.398  0.0120  0.6002 -0.1383
  174MOL0     C23936  -0.509   1.659   3.373 -0.0729  0.4127  0.3838
  174MOL0     C23937  -0.652   1.619   3.353  0.5133  0.1174  0.3195
  174MOL0     C23938  -0.700   1.573   3.480 -0.5501 -0.7754 -0.5224
  174MOL0     C23939  -0.754   1.532   3.589 -0.4273 -0.2655  1.4305
  174MOL0     C23940   0.021   1.632   3.400  0.1636  0.2880  0.6628
  174MOL0     C23941   0.164   1.639   3.388  0.2624 -0.1725  1.1525
  174MOL0     C23942   0.201   1.775   3.340  0.2001 -0.4183  1.1049
  174MOL0     H23943   0.598   1.506   3.185 -0.5952 -2.3604 -1.4403
  174MOL0     H23944   0.848   1.470   3.139  0.5822  0.1959  0.7436
  174MOL0     H23945   0.938   1.256   3.030 -1.2497 -1.0049 -0.3184
  174MOL0     H23946   1.019   1.120   3.088 -2.2519  0.1087 -2.5876
  174MOL0     H23947   1.154   1.272   2.944 -3.6978  1.4967 -1.1065
  174MOL0     H23948   1.165   1.384   3.085  1.1676  0.5078  0.6145
  174MOL0     H23949   1.285   1.237   3.226  1.0379  0.0081  0.1441
  174MOL0     H23950   1.255   1.094   3.125  0.0134 -0.8108 -2.3781
  174MOL0     H23951   1.385   1.259   2.952 -1.2643  1.5780  0.5031
  174MOL0     H23952   1.435   1.351   3.087 -0.2276 -0.3132 -0.4529
  174MOL0     H23953   1.623   1.181   3.063 -0.1514  4.4739  0.1287
  174MOL0     H23954   1.497   1.059   3.059 -2.5569  0.4100  0.5727
  174MOL0     H23955   1.539   1.239   3.281  0.1647  1.5231 -2.8567
  174MOL0     H23956   1.459   1.082   3.304  1.5315 -1.2681  1.6081
  174MOL0     H23957   1.764   1.123   3.271 -1.1623  1.3814  0.3550
  174MOL0     H23958   1.687   0.975   3.235  1.9694  0.0604  1.0356
  174MOL0     H23959   1.564   1.003   3.467  1.2018 -2.7237 -2.3800
  174MOL0     H23960   1.744   0.969   3.454  1.4906  0.3402 -0.3242
  174MOL0     H23961   1.561   1.133   3.680 -1.2011  0.6407 -1.2212
  174MOL0     H23962   1.525   1.416   3.772  0.3952  0.3684 -1.5784
  174MOL0     H23963   1.689   1.473   3.797  3.3967 -1.8844 -2.4782
  174MOL0     H23964   1.733   1.244   3.913  1.7739  3.3650  0.0101
  174MOL0     H23965   1.650   1.373   3.993 -2.5470 -0.2624 -0.6350
  174MOL0     H23966   1.488   1.139   3.865 -0.4660 -0.2807  0.0244
  174MOL0     H23967   1.547   1.154   4.028 -3.5482 -2.7519  0.4830
  174MOL0     H23968   1.412   1.338   4.091  0.3950  2.1891 -1.1569
  174MOL0     H23969   1.349   1.352   3.926  1.1261 -0.2732  0.8679
  174MOL0     H23970   1.130   1.008   4.051  2.1048  0.2132  1.8513
  174MOL0     H23971   0.826   0.989   4.256  2.4012 -5.2073  0.3785
  174MOL0     H23972   0.935   0.908   4.150 -0.1489 -0.0387 -0.3800
  174MOL0     H23973   0.803   0.986   4.075  1.7948 -4.1379 -1.0448
  174MOL0     H23974   0.564   1.083   4.355 -0.2864  0.9076  1.2588
  174MOL0     H23975   0.323   1.146   4.452 -0.4315  0.2860 -0.1097
  174MOL0     H23976   0.100   1.187   4.463 -1.7778 -0.2322  1.4285
  174MOL0     H23977   0.170   1.312   4.573 -1.6492  4.1710  0.3694
  174MOL0     H23978  -0.012   1.461   4.560 -1.3499 -0.0541  1.0893
  174MOL0     H23979  -0.075   1.373   4.416  2.6458 -0.9235 -1.3642
  174MOL0     H23980  -0.065   1.292   4.715  3.1805 -0.2435 -1.0158
  174MOL0     H23981  -0.126   1.186   4.603  3.8865 -0.7381  0.2821
  174MOL0     H23982  -0.288   1.383   4.525 -1.1721  0.4552 -0.1925
  174MOL0     H23983  -0.237   1.471   4.670 -0.1664 -0.6694  0.4482
  174MOL0     H23984  -0.421   1.223   4.675 -1.1104 -0.4938  2.1793
  174MOL0     H23985  -0.337   1.288   4.812 -0.9448  0.4178 -0.0753
  174MOL0     H23986  -0.525   1.422   4.603 -0.9621  2.0369 -0.0018
  174MOL0     H23987  -0.461   1.510   4.730 -1.3253  0.0532 -0.2687
  174MOL0     H23988  -0.588   1.370   4.909  0.4954  0.5568  0.6352
  174MOL0     H23989  -0.627   1.261   4.791  2.7570  0.2205  0.6832
  174MOL0     H23990  -0.736   1.536   4.823  1.4321 -0.0709  1.8274
  174MOL0     H23991  -0.820   1.386   4.819  0.6756  0.4205 -0.2960
  174MOL0     H23992   0.301   1.450   4.162  1.3994  1.1577  1.0910
  174MOL0     H23993   0.525   1.391   4.070  1.8984 -0.2003  1.0426
  174MOL0     H23994   0.942   1.454   4.124 -1.2121 -0.0041  0.7404
  174MOL0     H23995   1.192   1.420   4.048 -1.3395  0.4644 -3.7723
  174MOL0     H23996   0.838   1.145   3.430  0.2244  0.2344 -0.2786
  174MOL0     H23997   0.612   1.198   3.486  1.8724 -0.2173 -0.1937
  174MOL0     H23998   0.231   1.317   3.408  1.4369  0.5896  0.6725
  174MOL0     H23999  -0.009   1.295   3.438 -0.4016  0.2476  3.0942
  174MOL0     H24000  -0.236   1.673   3.471  0.3562  0.1047  0.0346
  174MOL0     H24001  -0.230   1.602   3.302  1.3015 -1.4277 -0.8022
  174MOL0     H24002  -0.450   1.502   3.494  1.2509  1.8452  0.8646
  174MOL0     H24003  -0.429   1.469   3.318 -0.6719 -2.0901  2.2763
  174MOL0     H24004  -0.502   1.729   3.457  0.4151 -2.0609  2.5355
  174MOL0     H24005  -0.474   1.705   3.280  2.9115 -1.0885  0.6588
  174MOL0     H24006  -0.667   1.535   3.284  3.1947 -0.6444  0.5521
  174MOL0     H24007  -0.708   1.709   3.328  1.4060  0.4155 -0.6855
  174MOL0     H24008  -0.809   1.480   3.665 -2.6933  3.0998  2.2933
  174MOL0     H24009  -0.032   1.723   3.376  1.0545 -0.1004 -3.5809
  174MOL0     H24010   0.299   1.797   3.385  1.1682 -1.8813 -0.1690
  174MOL0     H24011   0.204   1.784   3.231 -1.1662  4.2525  1.2366
  174MOL0     H24012   0.123   1.846   3.369  0.1255  1.5901 -3.2916
  175MOL0     O24013   3.558   0.330   7.197 -0.0022  0.0664  0.5979
  175MOL0     C24014   3.499   0.225   7.210  0.8222 -0.4469 -0.1310
  175MOL0     O24015   3.535   0.112   7.268 -0.4963  0.8990 -0.7429
  175MOL0     C24016   3.660   0.097   7.316 -0.3795  0.7183  0.1344
  175MOL0     C24017   3.718  -0.025   7.294 -0.0384  1.2373  0.0503
  175MOL0     C24018   3.849  -0.050   7.341  0.2366 -0.1743  0.7977
  175MOL0     C24019   3.915   0.049   7.415  0.1841 -0.4050 -0.4055
  175MOL0     O24020   4.041   0.034   7.477 -0.0276  0.1146  0.7762
  175MOL0     C24021   4.074  -0.094   7.533  0.2021 -0.8584 -0.2991
  175MOL0     C24022   4.214  -0.092   7.599  1.4827 -0.3697 -0.3437
  175MOL0     C24023   4.263   0.059   7.638 -0.0433  0.0176  0.6084
  175MOL0     C24024   4.403   0.033   7.694 -0.4082  0.0515 -0.5882
  175MOL0     C24025   4.460   0.169   7.761 -0.1950 -0.5290  0.6279
  175MOL0     C24026   4.496   0.281   7.667  0.5380 -0.0647 -0.1307
  175MOL0     C24027   4.559   0.407   7.737  0.1219 -0.4464  0.4928
  175MOL0     C24028   4.480   0.457   7.865  0.2612  0.1575  0.7595
  175MOL0     N24029   4.525   0.586   7.912 -0.0331 -0.1223  0.5180
  175MOL0     C24030   4.476   0.711   7.888  0.2593  0.5650 -0.2601
  175MOL0     C24031   4.547   0.798   7.963  0.2017  0.7026  0.3962
  175MOL0     C24032   4.535   0.954   7.973 -0.0056 -0.5592  0.0280
  175MOL0     C24033   4.578   1.029   7.847 -0.3088  0.0474  0.1818
  175MOL0     C24034   4.726   1.010   7.807  0.3768  0.0147  0.3407
  175MOL0     C24035   4.749   1.044   7.652  0.4404  0.0137 -0.6788
  175MOL0     O24036   4.728   0.927   7.577  0.5005 -0.0346 -0.1756
  175MOL0     C24037   4.726   0.925   7.438 -0.9877  0.3658  0.2108
  175MOL0     C24038   4.670   0.817   7.369 -0.5507 -0.5106  0.4734
  175MOL0     C24039   4.665   0.813   7.233 -0.3472  0.0414  0.0242
  175MOL0     C24040   4.608   0.684   7.174 -0.3002 -1.0531  0.8985
  175MOL0     C24041   4.734   0.909   7.157 -0.3835 -0.0747 -0.0721
  175MOL0     C24042   4.726   0.919   7.009 -0.1949 -0.0426 -0.5637
  175MOL0     O24043   4.614   0.876   6.950 -0.1572  0.0323  0.0064
  175MOL0     C24044   4.608   0.895   6.818  0.1461  0.1762  0.1402
  175MOL0     C24045   4.626   1.014   6.746  0.4403 -0.2846 -0.7591
  175MOL0     C24046   4.619   1.014   6.612  0.4177  0.9053  0.2478
  175MOL0     C24047   4.601   0.892   6.541 -0.2673 -0.5458 -0.0242
  175MOL0     O24048   4.591   0.891   6.408  0.8729 -0.4508 -0.0300
  175MOL0     C24049   4.503   0.981   6.342  0.4564  0.1878 -0.6770
  175MOL0     C24050   4.490   0.938   6.202 -0.6013 -0.0307  0.2864
  175MOL0     C24051   4.612   0.990   6.120 -0.4723  0.0271 -0.5332
  175MOL0     C24052   4.613   0.942   5.977 -0.8024 -0.3841  0.5208
  175MOL0     C24053   4.749   0.960   5.905 -0.7300  0.4791  0.1425
  175MOL0     C24054   4.771   1.110   5.873 -0.1736  0.7822  0.0058
  175MOL0     C24055   4.911   1.135   5.812  0.6776 -0.4730  0.2901
  175MOL0     C24056   4.908   1.262   5.721  0.3032  0.0108  0.5867
  175MOL0    Cl24057   4.816   1.251   5.557 -0.4193 -0.4305 -0.0496
  175MOL0     C24058   4.567   0.776   6.609 -0.2181 -0.3096  1.0034
  175MOL0     C24059   4.570   0.777   6.748  0.0717 -0.2182  0.2959
  175MOL0     O24060   4.819   0.968   6.951  0.0060 -0.3546  0.4955
  175MOL0     C24061   4.776   1.024   7.229 -0.7106  0.5924 -0.1514
  175MOL0     C24062   4.779   1.037   7.369  0.7976 -0.2638 -0.9033
  175MOL0     N24063   4.633   0.724   8.035  0.1696  0.5580 -0.4607
  175MOL0     N24064   4.626   0.601   8.000  0.0924  0.0488 -0.7958
  175MOL0     C24065   3.847   0.169   7.457 -0.3412  0.4262  0.9562
  175MOL0     C24066   3.723   0.194   7.403 -0.9235  0.3741 -0.3138
  175MOL0     C24067   3.358   0.221   7.150 -0.5500  0.1026  0.9088
  175MOL0     C24068   3.345   0.234   7.006 -0.3325  0.2811 -0.7802
  175MOL0     C24069   3.220   0.241   6.948  1.7366  0.7023  0.5715
  175MOL0     C24070   3.103   0.225   7.025 -0.2517  1.0228  0.4730
  175MOL0     O24071   2.989   0.211   6.962  0.6156  1.1252 -0.1412
  175MOL0     C24072   2.878   0.291   6.989 -0.7409 -1.2118  0.7055
  175MOL0     C24073   2.896   0.435   6.932 -0.3405  1.5437  0.2906
  175MOL0     C24074   2.752   0.489   6.948  0.5514 -0.2933 -0.4246
  175MOL0     C24075   2.745   0.639   6.924  0.7744  0.2252 -0.7299
  175MOL0     C24076   2.609   0.673   6.954 -0.8358 -0.3788  0.0743
  175MOL0     C24077   2.491   0.691   6.983 -0.0122  0.1192  0.3849
  175MOL0     C24078   3.116   0.206   7.168 -0.2594  0.3196 -0.4866
  175MOL0     C24079   3.246   0.213   7.233  0.1738  0.7335  0.1891
  175MOL0     C24080   3.249   0.216   7.386  0.1211 -0.8325 -0.2940
  175MOL0     H24081   3.676  -0.100   7.228  0.5068  1.6015 -0.7344
  175MOL0     H24082   3.907  -0.141   7.333  1.0163  0.2695  1.2938
  175MOL0     H24083   4.075  -0.174   7.459  0.1888  0.5771 -1.9208
  175MOL0     H24084   3.994  -0.120   7.602 -0.0466 -1.3671 -0.7690
  175MOL0     H24085   4.197  -0.137   7.697 -0.7465  0.6277 -0.2044
  175MOL0     H24086   4.284  -0.135   7.526  0.5786 -0.4020 -1.2132
  175MOL0     H24087   4.268   0.114   7.544 -0.1929  5.5277  3.3588
  175MOL0     H24088   4.190   0.118   7.695  0.3382 -0.6078  1.7942
  175MOL0     H24089   4.397  -0.039   7.777  0.0292  1.9512  1.1965
  175MOL0     H24090   4.463   0.000   7.610  1.4241  2.5007 -0.3310
  175MOL0     H24091   4.553   0.142   7.811 -1.0834 -2.1596  1.4922
  175MOL0     H24092   4.390   0.200   7.840  1.1079  0.9462  1.2387
  175MOL0     H24093   4.561   0.239   7.590  0.4892  3.0881 -2.1070
  175MOL0     H24094   4.405   0.311   7.613  0.6635  2.3860  0.8820
  175MOL0     H24095   4.554   0.484   7.660  0.4983 -0.7715  0.1401
  175MOL0     H24096   4.665   0.385   7.753  0.8868  1.1956 -1.8174
  175MOL0     H24097   4.371   0.459   7.853  0.3146 -0.3241  0.1482
  175MOL0     H24098   4.492   0.383   7.944 -0.8223  0.1200  0.9083
  175MOL0     H24099   4.399   0.737   7.817 -0.7464 -1.6773 -0.0679
  175MOL0     H24100   4.590   0.985   8.062  0.1382  0.1473 -0.2997
  175MOL0     H24101   4.433   0.983   7.997  0.0210 -0.3734 -0.0862
  175MOL0     H24102   4.518   0.990   7.764 -3.3202  2.9889  0.7512
  175MOL0     H24103   4.555   1.134   7.869  1.8503 -0.0676  3.7749
  175MOL0     H24104   4.784   1.078   7.870 -0.1062  1.0181 -0.2638
  175MOL0     H24105   4.752   0.908   7.836 -2.0326 -0.2598  1.8814
  175MOL0     H24106   4.691   1.130   7.617  0.7352 -0.2319 -1.8021
  175MOL0     H24107   4.854   1.072   7.638  0.5105 -1.6053 -4.3535
  175MOL0     H24108   4.623   0.747   7.438 -2.4400  1.4118  1.2326
  175MOL0     H24109   4.676   0.624   7.113 -0.1633 -0.7163  0.7145
  175MOL0     H24110   4.522   0.703   7.110  0.6017 -0.6819 -0.2461
  175MOL0     H24111   4.580   0.622   7.259 -1.3837 -1.8735 -0.0277
  175MOL0     H24112   4.648   1.105   6.801 -0.8626 -0.9572  1.0064
  175MOL0     H24113   4.635   1.110   6.565  0.2278  0.5801 -0.4878
  175MOL0     H24114   4.404   0.972   6.389  1.2926 -0.7923  0.9624
  175MOL0     H24115   4.535   1.083   6.364 -0.8664  0.4874 -0.0327
  175MOL0     H24116   4.498   0.830   6.196  0.6436  0.1224 -1.2994
  175MOL0     H24117   4.399   0.975   6.153 -1.9733 -1.5476  1.5471
  175MOL0     H24118   4.705   0.958   6.168 -0.0350  1.5608 -0.2918
  175MOL0     H24119   4.619   1.099   6.128  1.4207 -0.1192  0.6370
  175MOL0     H24120   4.537   1.003   5.927  1.3708  1.1579 -1.1017
  175MOL0     H24121   4.580   0.838   5.971 -2.8082  0.1622  1.2166
  175MOL0     H24122   4.833   0.922   5.963 -1.3291 -1.6089 -0.2681
  175MOL0     H24123   4.765   0.916   5.807  5.8077  2.9693 -0.3682
  175MOL0     H24124   4.771   1.172   5.963 -0.0913 -0.7780  1.1228
  175MOL0     H24125   4.693   1.144   5.804 -0.0959  0.6317 -0.1577
  175MOL0     H24126   4.951   1.053   5.752  2.6531 -0.5145  1.5603
  175MOL0     H24127   4.972   1.146   5.902 -3.3936 -1.7161  3.5201
  175MOL0     H24128   5.012   1.283   5.694 -0.0911 -0.8277 -1.8324
  175MOL0     H24129   4.874   1.350   5.777 -1.8869 -0.6085  0.3354
  175MOL0     H24130   4.538   0.685   6.558 -0.3989  1.6530 -2.6743
  175MOL0     H24131   4.548   0.687   6.804 -0.7618 -0.6131 -0.6473
  175MOL0     H24132   4.800   1.114   7.173  0.8312  0.3520  0.0606
  175MOL0     H24133   4.816   1.129   7.412 -0.9454  0.0648 -0.0050
  175MOL0     H24134   3.905   0.242   7.513  3.2627 -2.9243  2.0937
  175MOL0     H24135   3.660   0.281   7.419  1.5719  2.1419  0.5202
  175MOL0     H24136   3.425   0.235   6.933  0.4185  0.0022  0.0364
  175MOL0     H24137   3.214   0.257   6.840  0.2866 -0.1330  0.5084
  175MOL0     H24138   2.783   0.267   6.939 -1.3725  2.6092 -0.2653
  175MOL0     H24139   2.864   0.299   7.097  2.5414  2.2950  1.0571
  175MOL0     H24140   2.933   0.451   6.831 -0.7894  3.7288  0.4223
  175MOL0     H24141   2.963   0.495   6.995  0.7391 -0.1880  0.8698
  175MOL0     H24142   2.685   0.446   6.873  0.4525  2.5805 -2.1360
  175MOL0     H24143   2.714   0.465   7.048  0.9654 -0.1836 -0.2386
  175MOL0     H24144   2.767   0.664   6.820  0.1301 -3.7558 -1.9968
  175MOL0     H24145   2.806   0.697   6.993  1.0083 -0.0299 -0.7236
  175MOL0     H24146   2.388   0.710   7.005  0.2924  0.9180  1.1932
  175MOL0     H24147   3.028   0.205   7.232  1.0790 -2.6006  1.5179
  175MOL0     H24148   3.349   0.249   7.414  0.4177 -0.8197 -1.3047
  175MOL0     H24149   3.171   0.287   7.415 -0.8085 -0.9073 -2.4070
  175MOL0     H24150   3.225   0.118   7.428  0.4191 -1.5291 -1.6918
  176MOL0     O24151   6.857   2.723   9.616  0.5577 -0.5049 -0.0534
  176MOL0     C24152   6.839   2.686   9.498  0.0735 -0.8970 -0.7541
  176MOL0     O24153   6.938   2.657   9.406 -0.6980  0.1851 -0.9300
  176MOL0     C24154   7.072   2.680   9.417 -0.0614 -0.9106 -0.0088
  176MOL0     C24155   7.115   2.808   9.455  0.2610 -0.3747  0.1435
  176MOL0     C24156   7.254   2.843   9.474  0.2145 -0.5836 -0.8624
  176MOL0     C24157   7.342   2.740   9.441 -0.1465  1.0610  1.0405
  176MOL0     O24158   7.479   2.767   9.442  0.0091  0.8869 -0.5485
  176MOL0     C24159   7.525   2.829   9.565 -1.0501  0.9625 -0.9960
  176MOL0     C24160   7.675   2.823   9.557  0.6286  0.4408 -0.1583
  176MOL0     C24161   7.757   2.897   9.665 -0.8354 -0.2712  0.0520
  176MOL0     C24162   7.911   2.852   9.667  0.5923  0.1339  0.3590
  176MOL0     C24163   8.005   2.966   9.644  0.4521 -0.2954  0.1167
  176MOL0     C24164   7.976   3.045   9.512 -0.0438  0.3685  0.5006
  176MOL0     C24165   8.099   3.127   9.473 -0.8258 -0.6314  0.2303
  176MOL0     C24166   8.077   3.211   9.348 -0.2683  0.4469  0.1739
  176MOL0     N24167   8.195   3.292   9.297  0.4226  0.3718  0.0086
  176MOL0     C24168   8.250   3.396   9.363 -0.2979  0.8878  0.5644
  176MOL0     C24169   8.324   3.460   9.268 -0.0237  0.8765 -0.2935
  176MOL0     C24170   8.395   3.592   9.299  0.4009 -0.7645 -0.2608
  176MOL0     C24171   8.433   3.667   9.164 -0.0865  0.1328 -0.1255
  176MOL0     C24172   8.538   3.771   9.195  0.1332 -0.8493  0.2320
  176MOL0     C24173   8.545   3.872   9.079  0.1402 -0.0844  0.0353
  176MOL0     O24174   8.647   3.968   9.112  0.0925  0.2801 -0.1139
  176MOL0     C24175   8.653   4.070   9.023 -0.1306 -0.7189 -0.5361
  176MOL0     C24176   8.592   4.081   8.901 -0.2065 -0.5834 -0.2776
  176MOL0     C24177   8.600   4.197   8.820  0.0079  0.4043  0.5670
  176MOL0     C24178   8.507   4.189   8.705 -1.2883  0.4210 -0.1385
  176MOL0     C24179   8.678   4.306   8.859  1.2329 -0.4898 -0.6179
  176MOL0     C24180   8.674   4.432   8.786 -0.2811 -0.4660 -0.1435
  176MOL0     O24181   8.728   4.542   8.847 -0.0656 -0.1841 -0.4984
  176MOL0     C24182   8.730   4.662   8.787  0.8226  0.4265 -0.0744
  176MOL0     C24183   8.841   4.731   8.755 -0.1292 -0.1200 -0.4959
  176MOL0     C24184   8.828   4.863   8.709 -0.2856  0.5724  0.7181
  176MOL0     C24185   8.705   4.912   8.673  0.0691  0.7334 -1.2428
  176MOL0     O24186   8.696   5.036   8.609 -0.4636 -0.3920  0.3051
  176MOL0     C24187   8.575   5.092   8.557  0.9768 -0.0829  0.1975
  176MOL0     C24188   8.521   5.017   8.429  0.3942 -0.0483 -0.4838
  176MOL0     C24189   8.384   5.057   8.389 -0.0421 -0.3055  0.9703
  176MOL0     C24190   8.350   4.974   8.262  1.7660 -0.2045  0.0724
  176MOL0     C24191   8.196   4.975   8.241  0.2522 -0.1861 -0.9778
  176MOL0     C24192   8.157   4.867   8.137 -0.3739 -0.9487 -0.1240
  176MOL0     C24193   8.181   4.729   8.174 -1.2978  0.4962  0.2944
  176MOL0     C24194   8.147   4.635   8.054  0.2072  0.8484 -0.7045
  176MOL0    Cl24195   8.262   4.647   7.910 -0.3703 -0.7522  0.2305
  176MOL0     C24196   8.597   4.834   8.695  0.2035  0.4419  0.2002
  176MOL0     C24197   8.608   4.715   8.748 -0.5000  0.2506 -0.6669
  176MOL0     O24198   8.611   4.435   8.680  0.3509 -0.6092 -0.8874
  176MOL0     C24199   8.751   4.290   8.972  0.3853  0.0553 -0.4934
  176MOL0     C24200   8.739   4.177   9.059  0.1856  0.4099 -0.2252
  176MOL0     N24201   8.322   3.380   9.156 -0.7252  0.0291 -0.0573
  176MOL0     N24202   8.249   3.279   9.176  0.1916 -0.4500 -0.2133
  176MOL0     C24203   7.298   2.613   9.399 -0.3941 -0.3558 -0.5465
  176MOL0     C24204   7.165   2.577   9.395  0.1304  0.3501 -0.6637
  176MOL0     C24205   6.699   2.646   9.468  0.8392 -0.4351  0.4165
  176MOL0     C24206   6.677   2.550   9.370 -0.0733  0.0653 -0.1266
  176MOL0     C24207   6.555   2.491   9.343 -0.4140  0.3670  0.2198
  176MOL0     C24208   6.439   2.533   9.403 -0.4833 -0.2429  0.0833
  176MOL0     O24209   6.321   2.479   9.364 -0.5742 -0.6856 -0.9548
  176MOL0     C24210   6.206   2.572   9.346 -0.0559 -0.4262 -1.2579
  176MOL0     C24211   6.197   2.606   9.194  0.7008  0.1900  0.7107
  176MOL0     C24212   6.142   2.480   9.113 -0.6073 -0.4200  0.2631
  176MOL0     C24213   6.091   2.499   8.967 -0.1440 -0.0112  0.5566
  176MOL0     C24214   6.180   2.449   8.863 -0.5495 -0.2996 -0.1826
  176MOL0     C24215   6.244   2.408   8.770 -0.3399  0.4443  0.5596
  176MOL0     C24216   6.454   2.631   9.505 -0.4982 -0.1525 -0.3045
  176MOL0     C24217   6.580   2.693   9.545 -1.5122  0.1982 -0.0755
  176MOL0     C24218   6.585   2.794   9.654  0.5481 -0.3301 -0.5660
  176MOL0     H24219   7.041   2.872   9.501 -1.6683 -2.8328  0.6940
  176MOL0     H24220   7.292   2.936   9.515 -0.1935 -1.0671  0.6603
  176MOL0     H24221   7.504   2.782   9.662  1.5961  1.2858 -0.1981
  176MOL0     H24222   7.490   2.931   9.583  2.4909  1.7896  2.4988
  176MOL0     H24223   7.703   2.719   9.571 -1.5433  0.1227  2.7371
  176MOL0     H24224   7.709   2.848   9.456 -2.3018 -1.3065 -1.7176
  176MOL0     H24225   7.747   3.005   9.649  0.8628 -0.1966 -0.6545
  176MOL0     H24226   7.732   2.877   9.770  1.7984  0.1084  0.8136
  176MOL0     H24227   7.925   2.809   9.767  2.0241  0.6101  0.3816
  176MOL0     H24228   7.928   2.770   9.597 -2.3715  0.6464 -1.1265
  176MOL0     H24229   8.109   2.934   9.633  0.1632 -1.2169  0.0293
  176MOL0     H24230   8.001   3.026   9.736  0.3895 -2.1337  1.3677
  176MOL0     H24231   7.958   2.985   9.422  1.5283  1.4237 -0.5829
  176MOL0     H24232   7.893   3.110   9.542 -2.7067 -2.6344  0.2037
  176MOL0     H24233   8.187   3.071   9.441 -0.5679  0.7308 -1.6446
  176MOL0     H24234   8.130   3.186   9.560  3.4108  0.5882 -1.8490
  176MOL0     H24235   8.032   3.144   9.275 -4.4085  3.2594 -0.2282
  176MOL0     H24236   8.003   3.286   9.378 -0.8562  0.0520 -0.2814
  176MOL0     H24237   8.240   3.421   9.468  1.1699 -1.1666  1.2464
  176MOL0     H24238   8.487   3.572   9.354 -0.8924 -1.1930  1.8403
  176MOL0     H24239   8.342   3.657   9.369  3.2400 -0.1412  1.4637
  176MOL0     H24240   8.479   3.596   9.095  0.4140  0.9564 -0.6597
  176MOL0     H24241   8.348   3.716   9.117 -0.7950  1.5462  2.4322
  176MOL0     H24242   8.524   3.818   9.292 -0.4803 -0.4651 -0.0368
  176MOL0     H24243   8.629   3.710   9.196 -0.8518 -2.5169 -2.2660
  176MOL0     H24244   8.578   3.819   8.989  2.8554 -1.2143  1.5558
  176MOL0     H24245   8.447   3.919   9.068  0.6291  1.0602  0.4125
  176MOL0     H24246   8.533   3.992   8.879  0.9417 -1.8037  1.3387
  176MOL0     H24247   8.563   4.199   8.611  2.0173  1.6759  1.7984
  176MOL0     H24248   8.434   4.270   8.708 -0.4476  1.1871 -0.1918
  176MOL0     H24249   8.448   4.096   8.708 -0.3260 -0.2129 -0.2533
  176MOL0     H24250   8.939   4.689   8.774  1.5659  1.1505 -5.0584
  176MOL0     H24251   8.916   4.921   8.683  0.2404 -1.2193 -1.8388
  176MOL0     H24252   8.497   5.091   8.633  1.4829  1.1740  0.7613
  176MOL0     H24253   8.611   5.190   8.524 -0.6450 -0.6129 -3.7195
  176MOL0     H24254   8.597   5.019   8.350  2.8514 -1.3104  1.6857
  176MOL0     H24255   8.526   4.911   8.454  1.9071  0.3109  0.9099
  176MOL0     H24256   8.385   5.166   8.374 -1.6580 -0.1872  1.5264
  176MOL0     H24257   8.314   5.027   8.468  1.3081 -1.0279  1.9336
  176MOL0     H24258   8.395   4.876   8.251  2.1263 -0.1247  0.8158
  176MOL0     H24259   8.388   5.023   8.171 -0.0286  1.6767  0.2460
  176MOL0     H24260   8.133   4.956   8.329  0.4740 -2.1823 -1.1924
  176MOL0     H24261   8.174   5.076   8.205 -1.6087  0.1515  0.8839
  176MOL0     H24262   8.220   4.884   8.050 -0.5838 -0.2651 -0.1480
  176MOL0     H24263   8.052   4.880   8.108 -0.0186  1.4647 -0.5493
  176MOL0     H24264   8.114   4.706   8.257 -0.4563  0.0635  0.8679
  176MOL0     H24265   8.280   4.710   8.215 -0.8154  1.9532 -0.1077
  176MOL0     H24266   8.043   4.656   8.028 -0.6021 -0.2148  1.4770
  176MOL0     H24267   8.155   4.533   8.093 -0.6571  1.0769  0.0855
  176MOL0     H24268   8.497   4.861   8.663  0.1234 -0.4960 -0.3649
  176MOL0     H24269   8.515   4.662   8.757 -0.2255 -0.2862 -0.9818
  176MOL0     H24270   8.810   4.374   9.008 -1.6547  0.8578  1.2403
  176MOL0     H24271   8.772   4.181   9.163 -3.8677  0.0098  1.2667
  176MOL0     H24272   7.373   2.538   9.377 -1.5293 -1.7150  0.0844
  176MOL0     H24273   7.148   2.472   9.373  0.6180  0.7776 -3.4968
  176MOL0     H24274   6.760   2.525   9.305 -1.2712  0.0412 -1.7183
  176MOL0     H24275   6.537   2.427   9.258  0.3222  0.3023  0.1089
  176MOL0     H24276   6.109   2.541   9.386 -1.3399 -0.0760 -3.8628
  176MOL0     H24277   6.230   2.664   9.399 -5.9959  1.7875 -1.6760
  176MOL0     H24278   6.295   2.631   9.152 -0.2701  0.0402 -1.8259
  176MOL0     H24279   6.131   2.692   9.181 -0.3268 -0.4261  1.6754
  176MOL0     H24280   6.221   2.405   9.112  0.1460  0.3645 -0.1728
  176MOL0     H24281   6.061   2.438   9.174 -0.4873  0.0543  0.7661
  176MOL0     H24282   6.078   2.606   8.948 -1.3565 -0.3724 -0.7934
  176MOL0     H24283   5.991   2.454   8.967 -2.0737  3.7393  3.0980
  176MOL0     H24284   6.310   2.359   8.702  2.8272  0.5514  3.3098
  176MOL0     H24285   6.361   2.654   9.555  0.0398 -1.3559  1.3004
  176MOL0     H24286   6.591   2.748   9.753  0.1356 -1.7231 -1.1751
  176MOL0     H24287   6.659   2.875   9.655 -0.3031  0.5356  2.3391
  176MOL0     H24288   6.483   2.833   9.660  0.3390 -0.9219 -0.2237
  177MOL0     O24289   4.665   2.342   4.973  0.4104  0.5481  0.0383
  177MOL0     C24290   4.683   2.267   5.066  0.3742 -0.1416  0.4701
  177MOL0     O24291   4.805   2.252   5.123 -0.0875 -0.0229 -0.0328
  177MOL0     C24292   4.926   2.310   5.074 -0.1213  0.2478 -0.0589
  177MOL0     C24293   4.972   2.300   4.941 -0.4233 -0.1350  0.2876
  177MOL0     C24294   5.094   2.355   4.904  0.9315  0.3262 -0.0522
  177MOL0     C24295   5.169   2.415   4.997  0.6733  0.2274  0.6069
  177MOL0     O24296   5.278   2.472   4.950 -0.7738 -0.7109 -0.1230
  177MOL0     C24297   5.342   2.580   5.028 -0.1471 -0.4189 -0.0753
  177MOL0     C24298   5.477   2.608   4.959  1.1193 -0.7022  0.2735
  177MOL0     C24299   5.555   2.474   4.925  1.3651 -0.8275 -0.8939
  177MOL0     C24300   5.705   2.480   4.909  0.3697 -1.0569  1.0793
  177MOL0     C24301   5.769   2.350   4.918 -0.2595  0.4852  0.6218
  177MOL0     C24302   5.914   2.366   4.892 -0.8618  0.1028  0.5022
  177MOL0     C24303   5.999   2.243   4.938 -0.0107 -0.4593  0.4747
  177MOL0     C24304   6.146   2.270   4.949 -0.5657  0.4742  0.6357
  177MOL0     N24305   6.170   2.375   5.052 -0.5949  0.0809  1.3950
  177MOL0     C24306   6.237   2.490   5.019  0.1466  0.1191 -0.3329
  177MOL0     C24307   6.311   2.526   5.133  0.8984 -0.1645  0.8740
  177MOL0     C24308   6.389   2.645   5.167  0.0576  0.0462 -0.5910
  177MOL0     C24309   6.380   2.750   5.061  0.3983 -0.3962  0.7990
  177MOL0     C24310   6.448   2.886   5.096  1.0037 -0.3737  0.7917
  177MOL0     C24311   6.596   2.861   5.138 -0.7667  0.2264 -0.5888
  177MOL0     O24312   6.671   2.983   5.144  0.6445  0.0664 -0.8769
  177MOL0     C24313   6.755   3.014   5.038 -0.3414 -0.0149  0.2172
  177MOL0     C24314   6.888   2.983   5.034 -0.2154 -0.0791 -0.0319
  177MOL0     C24315   6.965   3.007   4.918 -0.3079 -0.2406  0.3809
  177MOL0     C24316   7.100   2.942   4.915  0.4828  0.1997  0.2018
  177MOL0     C24317   6.904   3.056   4.797  0.0908  0.0816  0.4361
  177MOL0     C24318   6.979   3.078   4.667 -0.4041 -0.9496 -0.3527
  177MOL0     O24319   6.895   3.127   4.567  0.1426  0.1135  0.2749
  177MOL0     C24320   6.927   3.195   4.450  0.9406 -0.2818 -0.5462
  177MOL0     C24321   7.059   3.247   4.417 -1.2885  0.1290 -0.7678
  177MOL0     C24322   7.077   3.318   4.296 -1.0259  0.0371 -0.0252
  177MOL0     C24323   6.970   3.323   4.210  0.4902 -0.4178  0.4960
  177MOL0     O24324   6.979   3.401   4.097  0.9866  0.5373  0.0608
  177MOL0     C24325   6.947   3.333   3.971 -0.6152 -0.5726 -0.3234
  177MOL0     C24326   6.968   3.425   3.853 -0.1121  0.0270 -0.4053
  177MOL0     C24327   7.120   3.446   3.816  0.1098 -0.5655 -0.1500
  177MOL0     C24328   7.136   3.561   3.716  0.1640  0.1557  0.6967
  177MOL0     C24329   7.278   3.626   3.728  0.7375 -0.1031 -0.3441
  177MOL0     C24330   7.382   3.528   3.705  0.3600  0.3169 -0.1556
  177MOL0     C24331   7.449   3.494   3.836 -0.1167 -0.5567 -0.7356
  177MOL0     C24332   7.589   3.435   3.812 -0.5723  0.1538  0.4129
  177MOL0    Cl24333   7.567   3.282   3.721  0.9968  0.5727 -0.4096
  177MOL0     C24334   6.845   3.268   4.248 -0.1606  0.3133 -0.0688
  177MOL0     C24335   6.822   3.210   4.363  0.1331 -1.0356 -0.2992
  177MOL0     O24336   7.104   3.063   4.662  0.1880 -0.7336 -0.0200
  177MOL0     C24337   6.764   3.079   4.802 -0.4478  0.3119 -0.2009
  177MOL0     C24338   6.695   3.067   4.922 -0.7154  0.3187 -0.1688
  177MOL0     N24339   6.292   2.428   5.224  0.4791  0.0568 -0.1435
  177MOL0     N24340   6.204   2.335   5.182 -0.5000  0.2472  0.3965
  177MOL0     C24341   5.122   2.433   5.131  1.3638  0.4811  0.0135
  177MOL0     C24342   5.003   2.370   5.171  0.2908  0.5198 -0.1064
  177MOL0     C24343   4.567   2.199   5.120  0.2979  0.3761 -0.3818
  177MOL0     C24344   4.581   2.151   5.248 -0.2117 -0.1129 -0.8449
  177MOL0     C24345   4.486   2.069   5.318  0.3706 -0.5118 -0.4408
  177MOL0     C24346   4.361   2.060   5.247 -0.7447 -1.5947 -0.0332
  177MOL0     O24347   4.258   1.990   5.306  0.4550 -0.4979 -0.6905
  177MOL0     C24348   4.122   1.972   5.261 -0.3043  0.6274  0.3486
  177MOL0     C24349   4.099   1.866   5.159  0.2935  0.1445 -0.2169
  177MOL0     C24350   3.951   1.849   5.119  0.0402  0.9061 -0.5691
  177MOL0     C24351   3.936   1.727   5.036 -0.6373  0.7948  0.3937
  177MOL0     C24352   3.809   1.709   4.965  0.4337 -0.0222  0.6027
  177MOL0     C24353   3.720   1.703   4.878  0.1894 -0.5563 -0.4523
  177MOL0     C24354   4.342   2.110   5.127 -0.1821  0.7553  0.3446
  177MOL0     C24355   4.445   2.172   5.055 -0.6457  0.4800  0.5603
  177MOL0     C24356   4.430   2.192   4.905  1.2549  0.5651  0.3603
  177MOL0     H24357   4.906   2.238   4.880  0.3256  0.5894 -1.3371
  177MOL0     H24358   5.125   2.356   4.800 -2.4372  0.7377 -1.1709
  177MOL0     H24359   5.366   2.540   5.127  0.2356 -0.3638 -0.1411
  177MOL0     H24360   5.279   2.669   5.038 -1.9695 -1.5916 -0.6628
  177MOL0     H24361   5.452   2.656   4.864  0.1471  0.5167  1.1076
  177MOL0     H24362   5.541   2.674   5.019  0.7512  0.5365 -0.6583
  177MOL0     H24363   5.528   2.411   5.010 -1.5460  0.6823 -0.5370
  177MOL0     H24364   5.516   2.433   4.831 -0.4194 -0.6156 -0.2834
  177MOL0     H24365   5.720   2.536   4.816 -2.4672  0.1213  1.2279
  177MOL0     H24366   5.750   2.542   4.986 -1.3441  3.2452 -1.0312
  177MOL0     H24367   5.737   2.279   4.841  1.0055 -0.4602  0.9299
  177MOL0     H24368   5.759   2.304   5.016 -2.1822 -1.4358 -0.4072
  177MOL0     H24369   5.921   2.394   4.786 -0.9986  0.8055  0.6790
  177MOL0     H24370   5.958   2.450   4.946 -2.0539  1.5896 -0.7784
  177MOL0     H24371   5.994   2.172   4.855  0.8282 -1.3866  1.1866
  177MOL0     H24372   5.955   2.195   5.026  0.1095 -0.4598  0.5347
  177MOL0     H24373   6.204   2.181   4.978 -0.7067 -0.2540 -1.1828
  177MOL0     H24374   6.181   2.301   4.850 -2.0453 -2.6913 -1.0519
  177MOL0     H24375   6.223   2.533   4.921 -0.6268  0.5130 -0.0597
  177MOL0     H24376   6.486   2.605   5.197  0.7330  3.2518  2.0438
  177MOL0     H24377   6.343   2.680   5.260  0.4552 -2.3250  0.5556
  177MOL0     H24378   6.429   2.715   4.970 -2.5576 -1.3543 -0.5525
  177MOL0     H24379   6.278   2.775   5.029  1.7781  1.8717 -2.4243
  177MOL0     H24380   6.439   2.942   5.002  1.8182 -2.2383 -0.4408
  177MOL0     H24381   6.410   2.950   5.177  0.2796  1.0378 -0.5973
  177MOL0     H24382   6.607   2.816   5.237  0.9434 -2.4535 -1.8676
  177MOL0     H24383   6.631   2.787   5.064 -0.6853 -1.0903  0.7221
  177MOL0     H24384   6.930   2.940   5.124 -1.1396  1.9228  1.4456
  177MOL0     H24385   7.092   2.849   4.859 -1.5895 -0.9402  2.2588
  177MOL0     H24386   7.130   2.906   5.014  0.7116  0.5759  0.2749
  177MOL0     H24387   7.174   3.013   4.877  0.4380  1.0344  1.5921
  177MOL0     H24388   7.136   3.237   4.492 -4.6162 -1.1085  2.7881
  177MOL0     H24389   7.174   3.363   4.273 -0.1869 -3.0181 -3.6475
  177MOL0     H24390   7.007   3.242   3.968 -1.0299 -0.8591 -0.0225
  177MOL0     H24391   6.840   3.310   3.963 -1.0604  0.9867  0.6044
  177MOL0     H24392   6.913   3.392   3.765 -4.0825 -1.1631  2.2829
  177MOL0     H24393   6.924   3.521   3.882 -1.2637 -1.4069  3.1027
  177MOL0     H24394   7.162   3.348   3.789 -0.9962 -1.1739  0.2598
  177MOL0     H24395   7.166   3.476   3.911  0.2144 -2.4112  0.4261
  177MOL0     H24396   7.062   3.640   3.727 -0.7273 -0.5021 -0.4016
  177MOL0     H24397   7.121   3.527   3.613 -0.3650  0.6839  0.5983
  177MOL0     H24398   7.275   3.702   3.649  1.3363  0.1267 -0.1435
  177MOL0     H24399   7.290   3.674   3.825 -2.5017  2.6936 -1.1401
  177MOL0     H24400   7.443   3.577   3.628 -1.7256  4.5102  0.5915
  177MOL0     H24401   7.342   3.437   3.659  0.1021  1.6084 -2.6645
  177MOL0     H24402   7.384   3.416   3.878  0.6204 -0.3534  0.8449
  177MOL0     H24403   7.453   3.581   3.902 -3.6623  0.1814 -1.3103
  177MOL0     H24404   7.639   3.401   3.904 -1.8056 -1.3189  0.5812
  177MOL0     H24405   7.648   3.512   3.761 -0.1234  1.6760  2.9897
  177MOL0     H24406   6.759   3.276   4.183 -0.3836 -0.1872  0.1591
  177MOL0     H24407   6.722   3.168   4.371 -0.9859  1.7869  2.0025
  177MOL0     H24408   6.708   3.123   4.720  0.3571  2.9353  0.5562
  177MOL0     H24409   6.594   3.104   4.934 -1.0690 -1.0242  1.4144
  177MOL0     H24410   5.180   2.480   5.210 -1.2698  4.1095  0.0384
  177MOL0     H24411   4.987   2.367   5.278 -0.1499 -0.7718 -0.1893
  177MOL0     H24412   4.674   2.169   5.300 -0.1825 -1.5736 -0.3294
  177MOL0     H24413   4.486   2.032   5.420 -0.1551 -1.9755 -0.9407
  177MOL0     H24414   4.066   1.951   5.352 -0.7369 -0.1609 -0.0843
  177MOL0     H24415   4.073   2.063   5.224 -2.1163 -0.7867 -0.9753
  177MOL0     H24416   4.129   1.768   5.199  0.1416 -1.0506 -2.8217
  177MOL0     H24417   4.171   1.890   5.080 -0.2314 -0.4015 -0.8770
  177MOL0     H24418   3.887   1.843   5.207  2.0728 -1.6256  0.8739
  177MOL0     H24419   3.925   1.931   5.051  0.6153 -0.2777 -2.2694
  177MOL0     H24420   3.962   1.643   5.101  1.2683  0.6671 -0.4856
  177MOL0     H24421   4.005   1.720   4.952  1.6454  0.5229  2.2118
  177MOL0     H24422   3.638   1.699   4.809  0.1964  2.6162 -0.7725
  177MOL0     H24423   4.248   2.089   5.078 -0.8236  2.2385  0.8851
  177MOL0     H24424   4.349   2.135   4.860 -0.7000  1.3301  2.6521
  177MOL0     H24425   4.405   2.296   4.883 -1.1465  0.0198  0.2242
  177MOL0     H24426   4.517   2.149   4.856  1.8317  1.6497  0.3927
  178MOL0     O24427   1.690   6.044   0.125 -0.3695 -0.5458  0.9652
  178MOL0     C24428   1.699   5.931   0.175  0.1653  0.1397  0.0031
  178MOL0     O24429   1.805   5.845   0.162 -0.1288 -0.3521 -0.8018
  178MOL0     C24430   1.914   5.884   0.093 -0.8272 -0.4482  0.0448
  178MOL0     C24431   1.974   6.012   0.103  0.7355 -0.2350  0.1409
  178MOL0     C24432   2.087   6.043   0.031  0.2459  1.1522  1.0990
  178MOL0     C24433   2.155   5.947  -0.042  0.4212  0.5369 -0.0373
  178MOL0     O24434   2.280   5.969  -0.107  0.0330  0.1896 -0.3944
  178MOL0     C24435   2.339   5.882  -0.204  0.2367 -0.1880  0.0301
  178MOL0     C24436   2.430   5.957  -0.295  0.0316  0.6647  0.1091
  178MOL0     C24437   2.380   6.085  -0.357  0.5074  0.0852  0.3006
  178MOL0     C24438   2.474   6.157  -0.449  1.3799  0.1785 -0.5649
  178MOL0     C24439   2.617   6.165  -0.394 -0.1998  0.3355  0.0132
  178MOL0     C24440   2.691   6.288  -0.451  1.1243 -0.5505 -0.3009
  178MOL0     C24441   2.838   6.283  -0.397  0.8821  0.2739 -0.0015
  178MOL0     C24442   2.928   6.388  -0.461 -0.4133  0.2867  1.3541
  178MOL0     N24443   2.936   6.369  -0.604 -0.1346  0.8162  0.5980
  178MOL0     C24444   2.973   6.263  -0.682  0.6871 -0.3121 -0.4397
  178MOL0     C24445   2.951   6.296  -0.810  0.6656 -0.0022 -1.2952
  178MOL0     C24446   2.979   6.223  -0.931  0.7412 -0.5835 -0.1048
  178MOL0     C24447   2.923   6.083  -0.930 -1.2717  0.3232 -0.1210
  178MOL0     C24448   2.765   6.084  -0.911 -0.0733  0.1740  0.3516
  178MOL0     C24449   2.723   5.949  -0.855  0.0751  0.2636  0.8801
  178MOL0     O24450   2.765   5.850  -0.955  0.3535 -0.3292  0.7787
  178MOL0     C24451   2.848   5.743  -0.943  0.1518  0.5080 -0.1388
  178MOL0     C24452   2.920   5.695  -1.058 -0.3193  0.0642  0.4048
  178MOL0     C24453   3.014   5.594  -1.042  0.1342  0.1218 -0.0371
  178MOL0     C24454   3.075   5.541  -1.173 -0.1672 -0.3548 -0.5875
  178MOL0     C24455   3.048   5.539  -0.917 -0.1965  0.9316 -0.2788
  178MOL0     C24456   3.149   5.438  -0.888 -0.7208 -0.9376 -1.0716
  178MOL0     O24457   3.175   5.350  -0.987  0.2654 -0.0994  0.1944
  178MOL0     C24458   3.280   5.268  -0.966  0.2218  0.5074 -0.2483
  178MOL0     C24459   3.388   5.294  -1.053  0.4919  0.4717  0.5878
  178MOL0     C24460   3.509   5.231  -1.036 -0.0509 -0.8046 -0.0176
  178MOL0     C24461   3.518   5.124  -0.942  0.6148 -0.9340 -0.3797
  178MOL0     O24462   3.631   5.057  -0.918  0.0786  0.5142 -0.5640
  178MOL0     C24463   3.750   5.115  -0.966  0.4234 -0.4197  0.2682
  178MOL0     C24464   3.780   5.046  -1.104 -0.4839  0.6442  0.2108
  178MOL0     C24465   3.853   4.907  -1.086 -0.3306 -0.3262 -0.7996
  178MOL0     C24466   3.891   4.848  -1.222 -0.5948  0.6168 -0.2867
  178MOL0     C24467   3.969   4.709  -1.219 -1.2690  0.5207 -0.0489
  178MOL0     C24468   3.886   4.582  -1.196  0.6382  0.0511  0.8307
  178MOL0     C24469   3.972   4.461  -1.217 -0.0982  0.8762  0.7295
  178MOL0     C24470   3.886   4.337  -1.186  0.6770  0.1741 -0.4091
  178MOL0    Cl24471   3.878   4.331  -1.011  0.4474  0.0416  0.3097
  178MOL0     C24472   3.407   5.086  -0.870 -0.2722 -0.3750  0.8001
  178MOL0     C24473   3.285   5.163  -0.870 -0.2800  0.7994 -0.1725
  178MOL0     O24474   3.204   5.450  -0.776 -0.3508  0.3017  0.0195
  178MOL0     C24475   2.975   5.598  -0.811 -0.8580  0.7149 -0.8700
  178MOL0     C24476   2.876   5.691  -0.828  0.8663 -0.4325 -0.0699
  178MOL0     N24477   2.898   6.420  -0.804 -0.6136  0.4093  0.5950
  178MOL0     N24478   2.899   6.471  -0.687  0.0112 -0.0740  0.2008
  178MOL0     C24479   2.091   5.819  -0.050  0.8349 -0.3180  0.4023
  178MOL0     C24480   1.981   5.787   0.026  0.5954 -0.0511 -0.2111
  178MOL0     C24481   1.590   5.886   0.263 -0.6571 -0.0041  0.7090
  178MOL0     C24482   1.511   5.985   0.308  0.7825 -0.1353 -0.7579
  178MOL0     C24483   1.389   5.966   0.375  0.3615 -0.5224 -0.1762
  178MOL0     C24484   1.350   5.834   0.428 -1.0500 -0.0578  0.5679
  178MOL0     O24485   1.231   5.786   0.475 -0.0427  0.3018 -0.3355
  178MOL0     C24486   1.119   5.874   0.495  0.8060 -0.7164 -0.5147
  178MOL0     C24487   0.995   5.810   0.561  0.3562 -0.2444 -0.8941
  178MOL0     C24488   1.021   5.755   0.703  0.2478  0.3569 -0.8425
  178MOL0     C24489   0.906   5.669   0.758  0.4812 -0.2016  0.9046
  178MOL0     C24490   0.937   5.622   0.892 -0.3193  0.3725 -0.6411
  178MOL0     C24491   0.979   5.596   1.007  0.0731 -1.2521  0.2804
  178MOL0     C24492   1.444   5.736   0.387  0.4917  0.3822  0.5696
  178MOL0     C24493   1.557   5.755   0.305 -0.6192 -0.1905 -0.4587
  178MOL0     C24494   1.637   5.634   0.246  0.6940  0.2268  0.3818
  178MOL0     H24495   1.940   6.088   0.172 -3.0823 -1.1965 -0.4624
  178MOL0     H24496   2.125   6.144   0.030 -1.3323  1.7656  0.8623
  178MOL0     H24497   2.255   5.843  -0.262 -0.5316  0.1685  0.8763
  178MOL0     H24498   2.394   5.805  -0.149  0.6768  0.2621  0.2362
  178MOL0     H24499   2.514   5.973  -0.228  0.6414 -0.7703 -0.2717
  178MOL0     H24500   2.453   5.889  -0.378  2.4353 -0.8219  1.8798
  178MOL0     H24501   2.283   6.056  -0.397 -0.4349  0.0917  2.4604
  178MOL0     H24502   2.366   6.148  -0.269  5.8820 -0.6250  2.0407
  178MOL0     H24503   2.474   6.101  -0.543  0.8102  0.3313 -0.6606
  178MOL0     H24504   2.427   6.251  -0.481 -1.8665 -0.8658  0.8392
  178MOL0     H24505   2.675   6.075  -0.418  0.0863 -0.0879  2.0835
  178MOL0     H24506   2.615   6.175  -0.285 -1.8593  0.8783 -0.0489
  178MOL0     H24507   2.685   6.294  -0.560 -0.5445  4.8544 -0.2153
  178MOL0     H24508   2.646   6.382  -0.419  2.8261  0.2376 -0.0781
  178MOL0     H24509   2.873   6.185  -0.432 -0.4291 -0.1716 -0.1151
  178MOL0     H24510   2.839   6.284  -0.288  1.2724 -4.2309  0.2150
  178MOL0     H24511   2.883   6.485  -0.439 -0.1969  0.8309 -0.4440
  178MOL0     H24512   3.031   6.383  -0.426 -0.5380  1.0217  1.8503
  178MOL0     H24513   3.015   6.180  -0.627  1.6836 -0.2528 -1.1002
  178MOL0     H24514   3.085   6.224  -0.956  1.3450 -1.3862  2.1992
  178MOL0     H24515   2.922   6.278  -1.007  0.2835  0.5837  1.0320
  178MOL0     H24516   2.956   6.036  -1.023  2.4019  0.8616  0.7330
  178MOL0     H24517   2.971   6.027  -0.849  2.7912  2.4788 -0.7751
  178MOL0     H24518   2.729   6.149  -0.831 -0.8088 -2.8574  2.6410
  178MOL0     H24519   2.716   6.105  -1.007  2.4070 -2.6996 -1.7540
  178MOL0     H24520   2.777   5.940  -0.760 -0.8724 -1.0022  1.3294
  178MOL0     H24521   2.616   5.940  -0.836  0.4071 -2.2880  2.1134
  178MOL0     H24522   2.899   5.735  -1.157  3.1417  0.5428 -0.2766
  178MOL0     H24523   3.010   5.459  -1.204 -1.2844  0.3409 -0.1708
  178MOL0     H24524   3.179   5.514  -1.156 -0.0230  0.1256 -0.7091
  178MOL0     H24525   3.086   5.614  -1.253  0.9747 -2.7166 -2.7276
  178MOL0     H24526   3.378   5.379  -1.120 -3.0916  0.7700  1.3010
  178MOL0     H24527   3.589   5.260  -1.103  1.2468  1.8541  2.4544
  178MOL0     H24528   3.746   5.224  -0.972 -0.9300 -0.5323 -1.4195
  178MOL0     H24529   3.835   5.092  -0.901 -1.2055 -2.5378  1.7955
  178MOL0     H24530   3.683   5.030  -1.152  0.8914 -1.3468 -2.0737
  178MOL0     H24531   3.847   5.105  -1.168  2.2325 -2.2867  0.1467
  178MOL0     H24532   3.793   4.837  -1.028  0.4931  0.6630  1.3782
  178MOL0     H24533   3.941   4.932  -1.025 -1.2355  1.8277 -0.2733
  178MOL0     H24534   3.959   4.916  -1.274 -0.8524  2.2601  1.3703
  178MOL0     H24535   3.804   4.845  -1.287 -0.5345  1.5758 -0.4273
  178MOL0     H24536   4.018   4.702  -1.316  0.0206 -1.2478  0.6787
  178MOL0     H24537   4.043   4.717  -1.138 -2.5465  2.3765  1.0044
  178MOL0     H24538   3.801   4.580  -1.264  0.9049  0.5380  0.4712
  178MOL0     H24539   3.850   4.584  -1.093 -1.6789  1.8780  0.0803
  178MOL0     H24540   4.062   4.460  -1.155 -1.6496 -1.2286  3.2136
  178MOL0     H24541   3.986   4.467  -1.325 -0.1523  3.8031  0.7861
  178MOL0     H24542   3.928   4.249  -1.235 -1.1736 -0.6170 -0.6630
  178MOL0     H24543   3.786   4.344  -1.230  1.0432 -1.6562 -1.6870
  178MOL0     H24544   3.414   5.011  -0.792 -1.3282 -0.6759  0.6165
  178MOL0     H24545   3.202   5.140  -0.804  0.2216  0.2450  0.2906
  178MOL0     H24546   3.011   5.568  -0.713  0.2357  2.1464 -0.8009
  178MOL0     H24547   2.816   5.736  -0.750  1.2452  1.2143 -0.6912
  178MOL0     H24548   2.120   5.734  -0.112 -2.0879 -3.9650  3.5246
  178MOL0     H24549   1.949   5.683   0.024  0.9801 -0.2414  1.8722
  178MOL0     H24550   1.530   6.089   0.284 -1.8314 -0.1326 -3.3566
  178MOL0     H24551   1.309   6.038   0.390 -0.2233 -1.3241  0.6986
  178MOL0     H24552   1.145   5.962   0.556 -2.0014 -1.5231  2.1068
  178MOL0     H24553   1.091   5.915   0.398 -1.8067  0.4877  0.6445
  178MOL0     H24554   0.967   5.729   0.493  0.5299 -1.6099  0.6138
  178MOL0     H24555   0.917   5.885   0.579  0.9734 -0.0797  1.3260
  178MOL0     H24556   1.110   5.692   0.710  0.7991  0.8984 -2.4126
  178MOL0     H24557   1.045   5.836   0.772  0.0383  0.1045 -0.4686
  178MOL0     H24558   0.879   5.587   0.690  1.3899  0.5773 -0.4433
  178MOL0     H24559   0.821   5.737   0.765 -0.3410 -0.8849 -1.4018
  178MOL0     H24560   1.017   5.583   1.106 -0.4194 -4.2215  0.1784
  178MOL0     H24561   1.428   5.631   0.412 -1.0727  1.0604  2.7958
  178MOL0     H24562   1.739   5.622   0.284  0.7088  1.5252  0.7878
  178MOL0     H24563   1.590   5.539   0.273 -0.9762  0.4431 -1.5539
  178MOL0     H24564   1.634   5.647   0.137 -0.4370  1.1427  0.5030
  179MOL0     O24565   7.807   8.596   7.040 -0.2701 -0.5593 -0.0050
  179MOL0     C24566   7.765   8.544   6.933  0.5466  0.7860 -0.3894
  179MOL0     O24567   7.730   8.615   6.819 -0.3290  0.4360  0.1755
  179MOL0     C24568   7.725   8.749   6.834  0.8866  0.3206 -0.8178
  179MOL0     C24569   7.833   8.827   6.849 -0.3974  0.4828 -0.9549
  179MOL0     C24570   7.817   8.966   6.867  0.5111  0.2904  0.6087
  179MOL0     C24571   7.698   9.025   6.862  0.1262  1.1537  0.2427
  179MOL0     O24572   7.682   9.158   6.871 -0.0331 -0.0984 -0.3368
  179MOL0     C24573   7.555   9.218   6.837 -0.5812 -0.2677 -0.8369
  179MOL0     C24574   7.572   9.370   6.846 -1.4722 -0.8361 -0.7357
  179MOL0     C24575   7.593   9.403   6.997  0.6038  0.3661  0.5397
  179MOL0     C24576   7.576   9.556   7.022 -0.0995 -0.9671  0.2666
  179MOL0     C24577   7.568   9.594   7.166  0.3672 -0.1181  0.2717
  179MOL0     C24578   7.547   9.743   7.207 -0.1147 -0.2786 -0.5818
  179MOL0     C24579   7.394   9.787   7.200  0.3522  0.7162  1.1431
  179MOL0     C24580   7.300   9.762   7.314  0.6677  0.4475 -0.4815
  179MOL0     N24581   7.263   9.624   7.347 -0.1127 -0.1050 -0.1994
  179MOL0     C24582   7.203   9.534   7.266 -0.7324  0.2494  0.0917
  179MOL0     C24583   7.189   9.425   7.348 -0.2207 -0.5413 -0.1676
  179MOL0     C24584   7.125   9.294   7.316  0.2560  0.3224  0.5012
  179MOL0     C24585   7.221   9.174   7.301 -0.9786 -0.3180 -0.5102
  179MOL0     C24586   7.306   9.196   7.174 -0.1011 -0.0631  0.5940
  179MOL0     C24587   7.407   9.079   7.166 -0.2356  0.2102  0.6734
  179MOL0     O24588   7.336   8.971   7.110 -0.4793 -0.6995  0.3633
  179MOL0     C24589   7.368   8.849   7.167 -0.1866 -0.6655  0.1247
  179MOL0     C24590   7.260   8.766   7.198 -0.0817  1.4915  0.1043
  179MOL0     C24591   7.281   8.635   7.248  0.4053  0.3558 -0.6863
  179MOL0     C24592   7.158   8.546   7.295  0.4530 -0.0298 -0.0269
  179MOL0     C24593   7.411   8.586   7.262 -1.3328  0.0102  0.1786
  179MOL0     C24594   7.459   8.457   7.315 -0.6191  0.7874  0.0974
  179MOL0     O24595   7.545   8.387   7.235 -0.6886 -0.3644 -0.8608
  179MOL0     C24596   7.576   8.257   7.287 -0.3839 -0.0255  0.7504
  179MOL0     C24597   7.689   8.237   7.368  0.2633  0.0583  0.5141
  179MOL0     C24598   7.723   8.111   7.425  0.0758  0.2082  0.3876
  179MOL0     C24599   7.646   8.000   7.378 -0.1487  0.2825 -0.3031
  179MOL0     O24600   7.684   7.870   7.403 -0.0866  0.3906  0.0704
  179MOL0     C24601   7.801   7.822   7.343  0.1086  0.3384  0.4006
  179MOL0     C24602   7.783   7.792   7.193  1.5523 -0.5974 -0.6657
  179MOL0     C24603   7.904   7.733   7.132  0.8949  0.4507  0.8925
  179MOL0     C24604   7.878   7.644   7.005 -0.2833  0.4901 -0.1232
  179MOL0     C24605   7.988   7.528   6.981  0.1120  0.9059  0.4144
  179MOL0     C24606   8.120   7.587   6.933 -0.6431 -0.3796  0.3325
  179MOL0     C24607   8.185   7.468   6.847  0.2275  0.5461 -0.7329
  179MOL0     C24608   8.201   7.489   6.699  0.0315  0.6209  0.3325
  179MOL0    Cl24609   8.230   7.335   6.594 -0.2384  0.3171 -0.2636
  179MOL0     C24610   7.533   8.012   7.302 -0.9509 -0.9079  0.0047
  179MOL0     C24611   7.499   8.142   7.252 -0.3061  0.8789 -0.7629
  179MOL0     O24612   7.433   8.421   7.429 -0.1161  0.3364 -0.0873
  179MOL0     C24613   7.515   8.659   7.203 -0.5742  0.6491 -0.1287
  179MOL0     C24614   7.499   8.798   7.169 -0.8201 -0.0510  0.4304
  179MOL0     N24615   7.230   9.453   7.473  0.1381  0.4085 -0.2768
  179MOL0     N24616   7.283   9.574   7.470  0.5394 -0.6064  0.3572
  179MOL0     C24617   7.586   8.941   6.829  0.3688  0.3332  0.2812
  179MOL0     C24618   7.602   8.808   6.815 -0.0318  0.5819 -0.2665
  179MOL0     C24619   7.741   8.390   6.928  0.8499 -0.3161  1.0500
  179MOL0     C24620   7.648   8.346   6.830 -0.4921  0.6437 -0.4072
  179MOL0     C24621   7.627   8.206   6.805 -0.1226 -0.2075 -0.7279
  179MOL0     C24622   7.679   8.116   6.894 -0.1092 -0.0140 -1.9062
  179MOL0     O24623   7.659   7.977   6.899  0.4309 -0.2312 -0.4704
  179MOL0     C24624   7.577   7.920   6.796 -0.1537  0.5291  0.5234
  179MOL0     C24625   7.533   7.776   6.808 -0.7245 -0.2669  0.5294
  179MOL0     C24626   7.509   7.730   6.668  0.6054  0.1105  0.8758
  179MOL0     C24627   7.441   7.590   6.650  0.0902 -0.5748  0.6603
  179MOL0     C24628   7.454   7.539   6.512  0.5722  0.2018  0.3662
  179MOL0     C24629   7.478   7.493   6.405  0.2085  0.2408 -0.2502
  179MOL0     C24630   7.770   8.163   6.993 -0.5253 -0.1884 -0.7744
  179MOL0     C24631   7.810   8.297   7.009  0.7160  0.1351  0.2386
  179MOL0     C24632   7.911   8.322   7.113 -0.1732 -0.2910 -0.3295
  179MOL0     H24633   7.932   8.785   6.864 -1.2207 -1.8085 -1.6512
  179MOL0     H24634   7.906   9.027   6.874  0.0147  1.2102 -0.6832
  179MOL0     H24635   7.466   9.189   6.892  0.1385  0.3345  0.7088
  179MOL0     H24636   7.530   9.194   6.733 -0.0922  1.4015 -1.3768
  179MOL0     H24637   7.659   9.397   6.785 -0.2637 -4.2991 -0.7911
  179MOL0     H24638   7.487   9.418   6.797  0.2081  0.3222 -2.6812
  179MOL0     H24639   7.524   9.343   7.057 -0.3267  1.4490  0.5973
  179MOL0     H24640   7.688   9.364   7.036 -0.1588 -1.1427  0.9373
  179MOL0     H24641   7.658   9.613   6.978  1.6166 -0.8731  3.2998
  179MOL0     H24642   7.489   9.589   6.966 -0.5850 -1.3915  0.7531
  179MOL0     H24643   7.653   9.547   7.218 -0.9304 -1.7491  1.0133
  179MOL0     H24644   7.477   9.551   7.210 -1.2835  0.7757 -2.0840
  179MOL0     H24645   7.580   9.761   7.310 -2.4342  0.4245  0.1033
  179MOL0     H24646   7.616   9.798   7.142  1.6974  2.1834  3.0251
  179MOL0     H24647   7.363   9.725   7.116  3.1932 -0.9612  1.2166
  179MOL0     H24648   7.394   9.895   7.179  0.9888  0.5446  0.2369
  179MOL0     H24649   7.335   9.809   7.406  2.4577  2.3816 -2.0636
  179MOL0     H24650   7.214   9.824   7.287  0.9254  0.7596 -0.5872
  179MOL0     H24651   7.170   9.556   7.165 -0.4630  2.1348  0.3648
  179MOL0     H24652   7.071   9.308   7.222 -0.7009 -1.8621  0.6766
  179MOL0     H24653   7.053   9.273   7.395  0.8224 -1.9349  0.4912
  179MOL0     H24654   7.300   9.170   7.375  1.0846 -0.7572 -2.6208
  179MOL0     H24655   7.162   9.083   7.287  0.3335 -1.0368 -1.5238
  179MOL0     H24656   7.241   9.198   7.086  2.1625  0.0339 -1.1564
  179MOL0     H24657   7.360   9.291   7.172 -0.3272  0.0788 -1.9572
  179MOL0     H24658   7.485   9.115   7.099 -2.5549  1.0661 -1.7595
  179MOL0     H24659   7.457   9.055   7.261  0.9021  4.0938  1.2546
  179MOL0     H24660   7.157   8.796   7.183 -0.6391 -0.5861 -0.6271
  179MOL0     H24661   7.195   8.477   7.372 -1.0734  1.0171  1.7308
  179MOL0     H24662   7.110   8.489   7.215  2.0212  0.0038 -1.0238
  179MOL0     H24663   7.079   8.612   7.335 -1.0956 -1.5948 -0.3731
  179MOL0     H24664   7.755   8.319   7.395  0.8446  0.5256 -2.0430
  179MOL0     H24665   7.803   8.097   7.498 -0.2555  0.1885  0.7490
  179MOL0     H24666   7.876   7.899   7.361  0.2736  0.1913  0.3520
  179MOL0     H24667   7.846   7.734   7.391  4.7812  0.6532 -2.7598
  179MOL0     H24668   7.690   7.736   7.174  1.6501 -0.7081 -0.8173
  179MOL0     H24669   7.763   7.891   7.152  2.0169  0.3154  1.2138
  179MOL0     H24670   7.953   7.675   7.211  1.3431  1.4443  1.3712
  179MOL0     H24671   7.967   7.813   7.092 -0.5911 -0.0475 -2.8380
  179MOL0     H24672   7.883   7.714   6.921 -1.8103  0.2638 -0.4329
  179MOL0     H24673   7.776   7.606   7.008 -0.7647  1.7596  0.7112
  179MOL0     H24674   7.994   7.459   7.066 -1.9442  0.2850  0.1208
  179MOL0     H24675   7.956   7.475   6.891  0.8472  0.5023  0.3858
  179MOL0     H24676   8.179   7.616   7.021 -0.9797 -0.0351  0.4488
  179MOL0     H24677   8.105   7.668   6.861  1.6750 -0.8733 -0.8063
  179MOL0     H24678   8.132   7.375   6.867 -0.4669  1.0191 -0.3224
  179MOL0     H24679   8.279   7.449   6.898 -1.7355 -0.9037  2.6455
  179MOL0     H24680   8.281   7.557   6.669  0.6363 -0.0850  0.3102
  179MOL0     H24681   8.110   7.536   6.661 -1.1723 -2.0699 -0.3701
  179MOL0     H24682   7.497   7.919   7.259  1.1134 -1.8887  0.2735
  179MOL0     H24683   7.412   8.151   7.188 -2.6717 -3.1960  1.4760
  179MOL0     H24684   7.619   8.628   7.202  0.0930  2.3299  3.0453
  179MOL0     H24685   7.581   8.855   7.126 -3.0031  1.1345 -2.5209
  179MOL0     H24686   7.481   8.967   6.824  0.2165 -0.3574 -0.2603
  179MOL0     H24687   7.518   8.739   6.811  0.1850  0.0637  2.1535
  179MOL0     H24688   7.581   8.414   6.779 -2.3447  0.5665  1.7294
  179MOL0     H24689   7.575   8.179   6.714 -1.8941 -0.5077  0.3420
  179MOL0     H24690   7.494   7.988   6.775 -0.1642  0.1929 -0.5939
  179MOL0     H24691   7.637   7.926   6.705  0.4800  0.0789  0.9093
  179MOL0     H24692   7.447   7.785   6.875  0.2584  3.3703  1.5250
  179MOL0     H24693   7.611   7.714   6.853 -3.1581 -7.3497 -3.4811
  179MOL0     H24694   7.443   7.808   6.629  1.4855  0.5302  0.1754
  179MOL0     H24695   7.600   7.736   6.607  0.8048 -2.4673  0.8275
  179MOL0     H24696   7.332   7.594   6.658 -0.6622 -4.2732 -3.4033
  179MOL0     H24697   7.482   7.513   6.716 -0.7517 -3.1137 -1.5849
  179MOL0     H24698   7.488   7.442   6.310  1.0637 -2.7501  1.3126
  179MOL0     H24699   7.811   8.091   7.062 -0.6383  1.9921  1.7293
  179MOL0     H24700   7.961   8.227   7.130  1.8378  0.3253 -2.2606
  179MOL0     H24701   7.975   8.404   7.080 -1.8980  2.3591  2.3462
  179MOL0     H24702   7.888   8.359   7.213 -0.2170 -0.5411 -0.2460
  180MOL0     O24703   2.709   2.437   0.197  0.1576 -0.2316 -0.8026
  180MOL0     C24704   2.708   2.349   0.279 -0.3454  0.0535 -0.3727
  180MOL0     O24705   2.815   2.275   0.299  0.3322  0.7682  0.1502
  180MOL0     C24706   2.945   2.306   0.260  0.8464 -0.6918  0.1129
  180MOL0     C24707   3.038   2.294   0.361 -1.1059 -0.5455 -0.5617
  180MOL0     C24708   3.171   2.315   0.317 -0.5014  0.6095 -0.3236
  180MOL0     C24709   3.211   2.347   0.188  0.6400  0.1837  0.3713
  180MOL0     O24710   3.339   2.373   0.138  0.9085  0.1329 -0.4865
  180MOL0     C24711   3.457   2.331   0.213  0.0096  0.7636  0.0417
  180MOL0     C24712   3.577   2.358   0.134  0.6403 -1.1406  0.8257
  180MOL0     C24713   3.585   2.256   0.015  0.1774  0.4852  0.3748
  180MOL0     C24714   3.573   2.337  -0.116 -0.6331  1.0509 -0.5292
  180MOL0     C24715   3.553   2.234  -0.229 -0.5634 -0.3326 -0.2211
  180MOL0     C24716   3.491   2.302  -0.351  0.7249  0.2922 -0.5221
  180MOL0     C24717   3.336   2.334  -0.341  0.1632 -0.0927 -0.4722
  180MOL0     C24718   3.289   2.467  -0.407  0.5657 -0.5320 -1.1644
  180MOL0     N24719   3.314   2.576  -0.324  0.7552 -0.2228  0.2656
  180MOL0     C24720   3.428   2.610  -0.266 -1.7343 -0.5732 -0.5881
  180MOL0     C24721   3.403   2.710  -0.179 -0.5127 -0.4928 -0.1900
  180MOL0     C24722   3.516   2.776  -0.110 -0.7155 -0.0340 -0.2694
  180MOL0     C24723   3.477   2.827   0.024  0.6771  0.1572 -0.0113
  180MOL0     C24724   3.441   2.713   0.122 -0.4267 -0.6153  0.3300
  180MOL0     C24725   3.409   2.790   0.252  0.3047 -0.1549 -0.6978
  180MOL0     O24726   3.292   2.874   0.229 -0.5595 -0.2803  0.1240
  180MOL0     C24727   3.181   2.868   0.304 -0.0409 -0.4226  1.1405
  180MOL0     C24728   3.108   2.983   0.338 -0.5655 -0.0660  0.3098
  180MOL0     C24729   2.983   2.981   0.401 -0.0315  0.4111 -0.4041
  180MOL0     C24730   2.931   3.117   0.432  0.0021  0.7244 -0.3325
  180MOL0     C24731   2.930   2.854   0.440 -0.5176  0.2439  0.5180
  180MOL0     C24732   2.811   2.840   0.516 -0.4814 -0.0547 -0.5959
  180MOL0     O24733   2.820   2.739   0.615  0.7789 -0.7287  0.0727
  180MOL0     C24734   2.710   2.711   0.691 -0.0041  0.6303  0.9516
  180MOL0     C24735   2.589   2.674   0.640 -0.2513 -0.2509  1.2167
  180MOL0     C24736   2.492   2.613   0.717  0.3648 -0.6041 -0.1162
  180MOL0     C24737   2.519   2.601   0.849  0.0291  0.6699  0.2817
  180MOL0     O24738   2.413   2.548   0.927  0.1158  0.1816  1.0711
  180MOL0     C24739   2.407   2.563   1.062 -0.1588  0.1524 -0.4220
  180MOL0     C24740   2.268   2.529   1.119  0.3867 -0.6842  0.5287
  180MOL0     C24741   2.169   2.622   1.045 -0.4494  0.8553  0.4851
  180MOL0     C24742   2.057   2.638   1.139 -0.0138  0.0673  0.3030
  180MOL0     C24743   1.950   2.715   1.062  0.3547 -0.4591 -0.8904
  180MOL0     C24744   1.848   2.796   1.155 -0.0270 -0.2232  0.3653
  180MOL0     C24745   1.913   2.917   1.238  0.8438  0.5741 -0.1306
  180MOL0     C24746   1.859   3.054   1.198 -0.0962 -0.4050 -0.2430
  180MOL0    Cl24747   1.900   3.082   1.024 -0.1156 -0.0694  0.3299
  180MOL0     C24748   2.643   2.635   0.908  0.3421  0.3517  0.5306
  180MOL0     C24749   2.734   2.704   0.823  0.7675 -0.4420 -0.3061
  180MOL0     O24750   2.709   2.896   0.479  0.2300  0.7156  0.3000
  180MOL0     C24751   3.010   2.742   0.404 -0.7112  0.1037 -0.0142
  180MOL0     C24752   3.126   2.747   0.329 -1.1054  0.3491 -0.2461
  180MOL0     N24753   3.267   2.737  -0.173 -0.6034  0.1299  0.2414
  180MOL0     N24754   3.223   2.669  -0.274  0.5860 -0.0020 -0.0499
  180MOL0     C24755   3.108   2.370   0.090 -0.9947  0.3387 -0.4101
  180MOL0     C24756   2.976   2.343   0.128 -0.2964  0.1765  0.1173
  180MOL0     C24757   2.577   2.327   0.360 -0.5888  0.1247 -0.2702
  180MOL0     C24758   2.476   2.426   0.358 -0.4340  0.2518  0.0627
  180MOL0     C24759   2.358   2.409   0.424 -0.7122 -0.1049 -0.5141
  180MOL0     C24760   2.331   2.303   0.507 -0.6185  0.4983 -0.0905
  180MOL0     O24761   2.219   2.268   0.574 -0.6511  0.7304 -0.2872
  180MOL0     C24762   2.202   2.358   0.695  0.3003 -0.2684  0.4791
  180MOL0     C24763   2.095   2.301   0.777 -0.8080 -0.0745 -0.0494
  180MOL0     C24764   1.961   2.325   0.713 -0.9595  0.4067  0.5851
  180MOL0     C24765   1.847   2.245   0.770 -1.2178 -0.0501  0.0501
  180MOL0     C24766   1.837   2.270   0.916  0.1642  0.6144 -0.4142
  180MOL0     C24767   1.840   2.300   1.034 -0.0132 -0.6558 -0.6040
  180MOL0     C24768   2.434   2.203   0.510  1.2022 -0.1904  0.5543
  180MOL0     C24769   2.553   2.206   0.438 -0.5894 -0.5592 -0.0754
  180MOL0     C24770   2.642   2.085   0.451  0.2755  0.3012 -0.1723
  180MOL0     H24771   3.015   2.264   0.463  1.2520 -1.2177 -0.1665
  180MOL0     H24772   3.250   2.299   0.390 -1.0446  1.7610  0.5307
  180MOL0     H24773   3.464   2.225   0.236  0.1065  0.5729 -0.8470
  180MOL0     H24774   3.462   2.378   0.312 -0.1840  0.9533 -0.0363
  180MOL0     H24775   3.566   2.462   0.100 -1.2313 -0.5982  2.8291
  180MOL0     H24776   3.667   2.337   0.191  0.0441 -2.0256  1.4614
  180MOL0     H24777   3.679   2.199   0.016 -1.2061 -1.9358  0.2083
  180MOL0     H24778   3.506   2.182   0.029  1.2913 -0.6811  0.7024
  180MOL0     H24779   3.484   2.399  -0.099 -0.0105  2.0000 -0.6284
  180MOL0     H24780   3.653   2.403  -0.151  0.8456 -1.1573 -1.5766
  180MOL0     H24781   3.488   2.153  -0.197  1.3788 -1.6497  0.6069
  180MOL0     H24782   3.651   2.188  -0.244  0.0426  1.1299 -1.0034
  180MOL0     H24783   3.554   2.388  -0.377 -0.2860  1.2996  0.2574
  180MOL0     H24784   3.482   2.245  -0.444 -2.4757  0.3889 -0.3876
  180MOL0     H24785   3.307   2.341  -0.236  1.1217 -0.3345 -0.1823
  180MOL0     H24786   3.281   2.247  -0.378 -2.9849  0.9551  1.3824
  180MOL0     H24787   3.349   2.485  -0.497  1.1891  0.3876 -0.5812
  180MOL0     H24788   3.183   2.458  -0.431 -0.2086 -0.1606  1.8131
  180MOL0     H24789   3.529   2.579  -0.294 -1.1682  1.6813 -1.2959
  180MOL0     H24790   3.554   2.850  -0.182  0.0580  0.6946  0.8486
  180MOL0     H24791   3.603   2.711  -0.098  0.1419  1.2896  0.9841
  180MOL0     H24792   3.564   2.881   0.064  0.5051  1.9466 -1.8829
  180MOL0     H24793   3.393   2.897   0.013  1.0142  0.3402 -1.7519
  180MOL0     H24794   3.359   2.647   0.094 -0.1472  0.2049 -2.6979
  180MOL0     H24795   3.530   2.653   0.142 -0.5700 -1.1846 -0.7205
  180MOL0     H24796   3.397   2.713   0.330  0.2278  0.4930 -0.0615
  180MOL0     H24797   3.493   2.853   0.282  1.1609 -1.9717  1.0281
  180MOL0     H24798   3.153   3.079   0.320  0.6677 -0.5573  0.6758
  180MOL0     H24799   2.942   3.178   0.341 -0.0483  3.6428  1.4956
  180MOL0     H24800   2.987   3.165   0.513 -0.1613 -0.8284  0.7382
  180MOL0     H24801   2.827   3.118   0.464  0.3627 -0.8621  1.0076
  180MOL0     H24802   2.581   2.684   0.532  2.7851  1.1844  1.0277
  180MOL0     H24803   2.395   2.581   0.679  0.4299 -2.0505  0.8274
  180MOL0     H24804   2.479   2.491   1.100  0.6547  2.3001  2.4934
  180MOL0     H24805   2.428   2.665   1.097 -2.5277  1.4347 -2.3875
  180MOL0     H24806   2.242   2.424   1.102 -0.9227 -0.2098 -0.6493
  180MOL0     H24807   2.267   2.550   1.226 -3.6742 -1.4459  0.8336
  180MOL0     H24808   2.143   2.597   0.942 -2.7914  0.0215  1.2118
  180MOL0     H24809   2.217   2.720   1.039  0.5922  0.3121 -0.4329
  180MOL0     H24810   2.080   2.697   1.228 -1.3616  1.7837 -0.4280
  180MOL0     H24811   2.016   2.543   1.176  0.2478  0.4272  1.5649
  180MOL0     H24812   1.999   2.782   0.990  1.9300 -1.0284 -0.3968
  180MOL0     H24813   1.892   2.642   1.005 -0.9844 -1.0142  1.0771
  180MOL0     H24814   1.788   2.732   1.221  0.9221 -1.2494  0.2674
  180MOL0     H24815   1.769   2.835   1.091 -0.2661 -0.1040  0.7309
  180MOL0     H24816   2.022   2.911   1.232  0.8645  2.2316 -2.7715
  180MOL0     H24817   1.882   2.896   1.341 -3.2745  0.8439 -1.1450
  180MOL0     H24818   1.902   3.142   1.246 -1.5484  1.9574 -2.9921
  180MOL0     H24819   1.750   3.063   1.212  0.1650  2.0520  0.8035
  180MOL0     H24820   2.675   2.609   1.008 -1.1616  3.0171  1.8052
  180MOL0     H24821   2.838   2.719   0.850  1.1137 -0.9098 -1.3189
  180MOL0     H24822   2.980   2.646   0.445 -0.5776 -0.2005 -0.6144
  180MOL0     H24823   3.170   2.656   0.289 -2.6182 -1.4258  1.8699
  180MOL0     H24824   3.125   2.418  -0.006  1.6180  5.3394  2.1641
  180MOL0     H24825   2.896   2.356   0.055 -1.2061 -4.0959  0.1236
  180MOL0     H24826   2.501   2.517   0.304 -0.2544 -0.0995 -0.4546
  180MOL0     H24827   2.288   2.492   0.431  1.0401  1.2675  2.4428
  180MOL0     H24828   2.295   2.346   0.752  0.0250 -3.8153  0.3910
  180MOL0     H24829   2.171   2.460   0.671 -0.9639 -0.2135  2.1806
  180MOL0     H24830   2.097   2.348   0.876 -0.7481 -0.5230  0.1638
  180MOL0     H24831   2.105   2.193   0.783 -2.7711 -0.2815  0.4453
  180MOL0     H24832   1.935   2.429   0.733 -0.3564  1.2888 -2.6556
  180MOL0     H24833   1.970   2.307   0.605  3.2512  2.2709  0.4215
  180MOL0     H24834   1.843   2.141   0.736 -1.2919 -0.5244  1.4624
  180MOL0     H24835   1.751   2.289   0.738 -2.4700 -1.5810  1.5360
  180MOL0     H24836   1.839   2.328   1.138  1.9148  1.9001 -1.1683
  180MOL0     H24837   2.420   2.115   0.573 -0.1124 -0.4443 -0.0470
  180MOL0     H24838   2.706   2.066   0.364  0.1817  0.9987 -0.3989
  180MOL0     H24839   2.702   2.083   0.542 -2.6212  0.9126  1.8768
  180MOL0     H24840   2.575   1.999   0.462  2.0622 -0.8268  3.4864
  181MOL0     O24841   0.066   2.560   9.531 -0.1787 -0.1470 -0.6761
  181MOL0     C24842  -0.014   2.493   9.596  0.4830 -0.6429  1.2030
  181MOL0     O24843  -0.032   2.357   9.582 -0.2674  0.3722 -0.2574
  181MOL0     C24844   0.048   2.292   9.499 -1.1237 -0.5065 -0.4188
  181MOL0     C24845   0.184   2.268   9.523 -0.2930 -0.3600  0.6373
  181MOL0     C24846   0.259   2.221   9.420 -0.8678  0.6294  0.4504
  181MOL0     C24847   0.203   2.174   9.294 -0.3784 -0.0131  0.4509
  181MOL0     O24848   0.282   2.109   9.199  0.1280 -0.5550  0.1452
  181MOL0     C24849   0.388   2.193   9.148 -0.0635  0.8977 -0.6188
  181MOL0     C24850   0.416   2.134   9.011 -0.3578 -0.2784  0.3291
  181MOL0     C24851   0.477   1.994   8.997  0.1601  0.4802  0.2567
  181MOL0     C24852   0.617   1.987   9.044 -0.6346  0.2787  0.7859
  181MOL0     C24853   0.680   1.849   9.000  0.6362  0.1163 -0.5738
  181MOL0     C24854   0.818   1.866   8.936  0.2690  0.2791 -0.0501
  181MOL0     C24855   0.880   1.728   8.921 -0.2708 -0.2599  0.1925
  181MOL0     C24856   1.021   1.725   8.865  0.0073 -0.4222 -0.0216
  181MOL0     N24857   1.131   1.763   8.958 -0.0809 -0.4109  0.5768
  181MOL0     C24858   1.189   1.886   8.965 -0.7225 -0.2107 -0.2141
  181MOL0     C24859   1.296   1.861   9.051  0.5099 -0.0050 -0.2703
  181MOL0     C24860   1.412   1.952   9.069 -0.3677  0.1005  0.8178
  181MOL0     C24861   1.542   1.889   9.028 -0.4704  0.9991 -0.2923
  181MOL0     C24862   1.658   1.954   9.099  0.8709 -0.2303  0.6428
  181MOL0     C24863   1.793   1.886   9.054 -0.6606  0.5391 -0.0102
  181MOL0     O24864   1.903   1.911   9.140  0.0580  1.0078  0.3474
  181MOL0     C24865   2.015   1.840   9.100  0.7782 -0.4748  0.6071
  181MOL0     C24866   2.055   1.724   9.155  0.9238 -0.1442  0.0940
  181MOL0     C24867   2.165   1.649   9.111  0.0085 -0.0887 -0.6764
  181MOL0     C24868   2.186   1.512   9.179  0.3854  0.1092 -0.2392
  181MOL0     C24869   2.253   1.703   9.028  0.7792 -0.3156  0.7591
  181MOL0     C24870   2.369   1.637   8.964  0.3133  0.5594  0.0746
  181MOL0     O24871   2.424   1.699   8.852 -0.0789  0.0450  1.0152
  181MOL0     C24872   2.539   1.641   8.797 -0.1829 -0.3326  0.2482
  181MOL0     C24873   2.666   1.668   8.854  0.0372 -0.5534  0.3486
  181MOL0     C24874   2.773   1.608   8.790 -0.6252 -0.4280  0.0871
  181MOL0     C24875   2.773   1.534   8.673 -0.5720 -0.2620  0.2562
  181MOL0     O24876   2.889   1.476   8.636  0.1264 -0.2794  0.1071
  181MOL0     C24877   2.885   1.356   8.558  0.1130  0.2446 -0.3380
  181MOL0     C24878   2.904   1.242   8.659 -0.2891 -0.1347  0.3594
  181MOL0     C24879   2.887   1.100   8.604  0.0417  0.2350  0.3189
  181MOL0     C24880   2.913   0.989   8.704  0.5728 -0.3050 -0.0667
  181MOL0     C24881   2.817   0.981   8.817 -0.8033 -0.4034  0.1260
  181MOL0     C24882   2.835   0.861   8.910  0.8268  0.0565 -0.0639
  181MOL0     C24883   2.978   0.852   8.969  0.3994 -0.0260  0.2708
  181MOL0     C24884   2.986   0.778   9.101  0.0575  0.0978 -0.8595
  181MOL0    Cl24885   3.137   0.811   9.183 -0.3571 -0.2403 -0.0471
  181MOL0     C24886   2.639   1.518   8.616  0.9706 -0.0658  1.0978
  181MOL0     C24887   2.524   1.569   8.679  0.1716  0.0025 -0.5207
  181MOL0     O24888   2.430   1.546   9.021  0.8597  0.3442 -0.1183
  181MOL0     C24889   2.221   1.834   8.972 -0.6269  0.2780  0.3620
  181MOL0     C24890   2.102   1.896   9.000 -0.6042  0.1939 -1.2890
  181MOL0     N24891   1.286   1.731   9.101 -0.1969 -1.4783 -1.1225
  181MOL0     N24892   1.187   1.677   9.048 -0.1829  0.3227  0.2149
  181MOL0     C24893   0.072   2.197   9.278  0.3247 -0.2224 -0.4259
  181MOL0     C24894  -0.006   2.258   9.376 -0.0631 -0.8432  0.3501
  181MOL0     C24895  -0.078   2.570   9.711  0.2816  0.1900  0.0584
  181MOL0     C24896  -0.071   2.524   9.846  0.2913  0.1259 -0.3052
  181MOL0     C24897  -0.138   2.594   9.951 -1.0132 -0.3803  0.5295
  181MOL0     C24898  -0.207   2.710   9.922 -0.6265  0.2603  0.3119
  181MOL0     O24899  -0.256   2.790  10.029 -0.0936  0.1148  0.1398
  181MOL0     C24900  -0.394   2.773  10.067 -0.3556  0.2091 -0.2868
  181MOL0     C24901  -0.470   2.901  10.022  0.2286  0.2206  0.5259
  181MOL0     C24902  -0.591   2.892   9.926  0.3020  0.9703  0.1457
  181MOL0     C24903  -0.550   2.820   9.789  0.2236 -0.2366  0.2315
  181MOL0     C24904  -0.676   2.770   9.728 -0.1453  0.5007  0.4830
  181MOL0     C24905  -0.775   2.710   9.670  0.4180 -0.5441  0.4427
  181MOL0     C24906  -0.221   2.751   9.784 -0.1240 -0.1263 -0.2976
  181MOL0     C24907  -0.163   2.680   9.684  0.6548  0.0124 -0.5394
  181MOL0     C24908  -0.185   2.736   9.543  0.4315  0.0629 -0.7665
  181MOL0     H24909   0.249   2.299   9.604 -1.5743  2.8169  0.5733
  181MOL0     H24910   0.365   2.200   9.427 -1.0646 -0.3666  0.5651
  181MOL0     H24911   0.479   2.171   9.204 -0.3592 -2.5511 -1.2477
  181MOL0     H24912   0.362   2.299   9.152 -1.9727  0.4406  1.3025
  181MOL0     H24913   0.334   2.141   8.939  2.0701 -2.4723 -2.9285
  181MOL0     H24914   0.482   2.209   8.966 -1.1169 -0.3430 -0.9209
  181MOL0     H24915   0.411   1.931   9.057 -0.8472  0.8679 -0.4127
  181MOL0     H24916   0.463   1.968   8.892 -3.5969  1.7061  0.2873
  181MOL0     H24917   0.658   2.078   9.000 -0.8732 -0.9591 -2.2489
  181MOL0     H24918   0.614   2.003   9.152  0.2763 -0.5326  0.9424
  181MOL0     H24919   0.606   1.781   8.958 -0.4126  0.2776  0.9200
  181MOL0     H24920   0.694   1.801   9.098 -0.1360  2.6351  0.8725
  181MOL0     H24921   0.800   1.909   8.838  1.1755  0.3147 -0.1999
  181MOL0     H24922   0.882   1.929   8.998  0.4856 -0.9891  1.0738
  181MOL0     H24923   0.816   1.674   8.851 -0.1609 -2.6643  1.8121
  181MOL0     H24924   0.883   1.667   9.012  0.8119 -1.3503 -0.5381
  181MOL0     H24925   1.046   1.630   8.815  0.4590 -0.3400  0.0434
  181MOL0     H24926   1.028   1.803   8.789 -0.0988 -1.2609 -0.9143
  181MOL0     H24927   1.175   1.975   8.906  1.8094 -0.7765 -1.8190
  181MOL0     H24928   1.428   1.991   9.171  0.1190 -1.5590  1.4133
  181MOL0     H24929   1.399   2.042   9.009 -1.2363 -2.0939 -2.5258
  181MOL0     H24930   1.529   1.789   9.071 -0.4150  0.8081 -0.7225
  181MOL0     H24931   1.559   1.878   8.921 -0.9307 -1.0497 -0.2105
  181MOL0     H24932   1.650   2.060   9.076 -3.0009 -0.5050  0.1335
  181MOL0     H24933   1.645   1.943   9.208 -0.1999 -4.6742  0.2609
  181MOL0     H24934   1.779   1.777   9.048 -0.8132  0.4983  0.9918
  181MOL0     H24935   1.812   1.919   8.951  1.3454 -2.0162 -0.5506
  181MOL0     H24936   1.982   1.679   9.221 -2.5655  0.3168 -3.1007
  181MOL0     H24937   2.184   1.441   9.097 -2.4187  1.6790 -1.6907
  181MOL0     H24938   2.106   1.486   9.250  0.5557 -0.5110 -0.2750
  181MOL0     H24939   2.281   1.504   9.233  1.4435 -1.7842 -2.2480
  181MOL0     H24940   2.676   1.718   8.950  1.2392  1.0234 -0.5533
  181MOL0     H24941   2.862   1.618   8.852 -0.4855 -0.2569 -0.1376
  181MOL0     H24942   2.802   1.353   8.486  0.5616  1.7039 -0.9438
  181MOL0     H24943   2.973   1.350   8.493  0.3271  2.1226 -0.2639
  181MOL0     H24944   3.006   1.254   8.696 -0.0499  0.3728 -0.4431
  181MOL0     H24945   2.834   1.259   8.741 -0.1849 -1.6442  0.7786
  181MOL0     H24946   2.939   1.080   8.511 -1.1022 -1.7311  0.0408
  181MOL0     H24947   2.781   1.086   8.581  0.8393 -0.7613 -3.3342
  181MOL0     H24948   3.013   1.006   8.746  0.5541 -4.2782  2.0681
  181MOL0     H24949   2.896   0.896   8.650  2.1431 -2.8717  3.4329
  181MOL0     H24950   2.828   1.066   8.885  1.6678  1.0355 -1.8588
  181MOL0     H24951   2.712   0.980   8.786 -1.1933 -0.4091  1.4186
  181MOL0     H24952   2.810   0.765   8.864 -3.3942 -0.5751  2.9417
  181MOL0     H24953   2.760   0.865   8.990 -1.1440 -0.3646 -1.8130
  181MOL0     H24954   3.010   0.957   8.978 -1.1552  0.3054  3.7669
  181MOL0     H24955   3.038   0.795   8.898  2.2430  1.0436  0.8961
  181MOL0     H24956   2.970   0.670   9.093 -4.6041  0.6993 -2.3277
  181MOL0     H24957   2.909   0.816   9.169 -0.3340  2.4734 -2.5449
  181MOL0     H24958   2.633   1.463   8.524  1.3560 -1.5392  1.9253
  181MOL0     H24959   2.424   1.555   8.640  0.5877 -1.6761 -1.0840
  181MOL0     H24960   2.288   1.892   8.910 -1.6675  0.3229 -0.7548
  181MOL0     H24961   2.086   1.992   8.953 -1.4661  0.7202  0.0087
  181MOL0     H24962   0.027   2.137   9.199 -1.2462 -1.3332  1.2450
  181MOL0     H24963  -0.112   2.276   9.373 -0.3254 -2.1076  0.9804
  181MOL0     H24964  -0.013   2.435   9.869  0.7299  0.0392 -1.6204
  181MOL0     H24965  -0.127   2.558  10.053  0.3471 -1.1641  0.1387
  181MOL0     H24966  -0.436   2.687  10.013  0.5760  0.4507 -1.4340
  181MOL0     H24967  -0.410   2.755  10.174 -2.8663  0.5458 -0.5316
  181MOL0     H24968  -0.407   2.979   9.978 -0.7259  0.8222  0.1738
  181MOL0     H24969  -0.508   2.942  10.116 -1.0705  0.7470 -0.1901
  181MOL0     H24970  -0.680   2.844   9.966 -0.0007 -0.1200 -1.6665
  181MOL0     H24971  -0.625   2.993   9.904  0.6161  1.4208  1.6704
  181MOL0     H24972  -0.482   2.739   9.819  2.9586  1.3936 -1.1543
  181MOL0     H24973  -0.499   2.883   9.716  1.2302 -2.3187 -0.9686
  181MOL0     H24974  -0.868   2.690   9.621  0.6197 -0.4353  0.0117
  181MOL0     H24975  -0.288   2.835   9.765 -1.8093 -1.3336  0.0910
  181MOL0     H24976  -0.095   2.759   9.485 -1.0506 -0.4909 -3.4430
  181MOL0     H24977  -0.242   2.656   9.495  1.4547 -0.8142 -0.5567
  181MOL0     H24978  -0.252   2.823   9.539 -1.4449 -1.0440  2.4067
  182MOL0     O24979   5.849  11.442   7.602 -0.6931  0.9759  0.4281
  182MOL0     C24980   5.932  11.528   7.580  0.3421  0.0932  0.4775
  182MOL0     O24981   5.903  11.641   7.504  0.0734  0.5668  0.2100
  182MOL0     C24982   5.782  11.672   7.449  0.0688 -0.5511  0.0253
  182MOL0     C24983   5.785  11.782   7.358  0.1621  0.7191  0.0075
  182MOL0     C24984   5.674  11.834   7.293  0.9103 -0.0845 -0.1313
  182MOL0     C24985   5.558  11.777   7.339  0.0853  0.5945  1.0544
  182MOL0     O24986   5.434  11.798   7.281 -0.1977 -0.0019 -0.0355
  182MOL0     C24987   5.402  11.934   7.260 -0.3604  0.0721  0.4585
  182MOL0     C24988   5.257  11.956   7.250  0.1574  0.1506  0.7954
  182MOL0     C24989   5.212  11.920   7.110  0.0800  0.4727 -0.2455
  182MOL0     C24990   5.063  11.900   7.107 -1.1716  0.4984  0.1870
  182MOL0     C24991   5.033  11.864   6.963  0.3168  0.0465 -1.0811
  182MOL0     C24992   4.894  11.818   6.940  0.3218 -0.1919  0.2755
  182MOL0     C24993   4.850  11.827   6.795 -0.2774 -0.6544 -0.4749
  182MOL0     C24994   4.745  11.931   6.753 -0.2676 -0.2137  0.6551
  182MOL0     N24995   4.613  11.911   6.819  0.7009 -0.2501 -0.1718
  182MOL0     C24996   4.506  11.838   6.766 -0.1555 -0.2966  0.4388
  182MOL0     C24997   4.401  11.875   6.845 -0.5911  0.4496  1.0169
  182MOL0     C24998   4.262  11.822   6.832  0.4049 -0.3975 -0.0129
  182MOL0     C24999   4.169  11.895   6.731 -0.2842  0.9143 -0.7715
  182MOL0     C25000   4.035  11.823   6.724  0.7549  0.5252  0.0720
  182MOL0     C25001   3.936  11.862   6.612 -0.1998 -0.2652 -0.3600
  182MOL0     O25002   3.921  12.002   6.574  0.2603  0.1945 -0.3046
  182MOL0     C25003   3.848  12.081   6.663 -0.6710  0.1313  0.4207
  182MOL0     C25004   3.784  12.053   6.780  0.5199  0.9434 -1.2192
  182MOL0     C25005   3.716  12.149   6.861  0.0485 -0.3865  0.6838
  182MOL0     C25006   3.637  12.096   6.983  0.6213  0.0714  0.4848
  182MOL0     C25007   3.716  12.285   6.811  0.2686  0.5407  0.0384
  182MOL0     C25008   3.661  12.393   6.895  0.7337 -1.3590 -0.2211
  182MOL0     O25009   3.648  12.522   6.838 -0.2222  0.0676 -0.0543
  182MOL0     C25010   3.635  12.635   6.919  0.6537 -0.7861 -0.0768
  182MOL0     C25011   3.519  12.674   6.982  0.0460 -0.1349 -0.1382
  182MOL0     C25012   3.506  12.799   7.044 -0.3749  0.5649 -0.2589
  182MOL0     C25013   3.611  12.886   7.051 -0.2351  0.3518  0.3128
  182MOL0     O25014   3.598  12.999   7.118  0.4090  0.9501  0.5402
  182MOL0     C25015   3.659  13.115   7.052 -1.0138  0.6660 -0.2147
  182MOL0     C25016   3.573  13.240   7.069  0.0898 -1.3886  0.3616
  182MOL0     C25017   3.621  13.350   6.981  0.4339  0.0140 -0.1628
  182MOL0     C25018   3.538  13.478   6.973 -0.9409  0.5456 -0.3670
  182MOL0     C25019   3.603  13.561   6.867 -0.5144 -0.5422  0.0541
  182MOL0     C25020   3.551  13.716   6.889  0.4323  0.7263 -0.1133
  182MOL0     C25021   3.604  13.804   6.786  0.2435  0.6426  0.1323
  182MOL0     C25022   3.615  13.960   6.810 -0.3672  1.1463 -0.2870
  182MOL0    Cl25023   3.446  14.021   6.780  0.0928 -0.9331 -0.4728
  182MOL0     C25024   3.729  12.846   6.989  0.7036  0.4177 -1.3801
  182MOL0     C25025   3.747  12.723   6.923  0.2510  0.0014 -0.5357
  182MOL0     O25026   3.646  12.374   7.014  0.9690  0.5358 -0.3210
  182MOL0     C25027   3.768  12.311   6.686  1.0461 -1.0149 -0.3319
  182MOL0     C25028   3.829  12.208   6.619  0.1567 -0.2513 -0.7696
  182MOL0     N25029   4.446  11.970   6.934 -0.0133 -0.6735 -0.0413
  182MOL0     N25030   4.576  11.983   6.927 -0.0200 -0.4785 -0.4515
  182MOL0     C25031   5.551  11.682   7.439 -0.4901 -0.0556 -0.2765
  182MOL0     C25032   5.661  11.631   7.502 -0.0732 -0.0412  1.1638
  182MOL0     C25033   6.063  11.510   7.657  0.4445 -0.7633 -0.3582
  182MOL0     C25034   6.072  11.407   7.757  0.6816 -0.1624  1.3597
  182MOL0     C25035   6.186  11.390   7.837  0.1151 -0.6378  0.3378
  182MOL0     C25036   6.296  11.477   7.829 -0.3707  0.5110 -0.4357
  182MOL0     O25037   6.419  11.475   7.891  0.8107 -0.0236 -0.1263
  182MOL0     C25038   6.428  11.390   8.010  0.8960  0.7938  1.0410
  182MOL0     C25039   6.500  11.264   7.963 -0.6699  0.9354 -0.1390
  182MOL0     C25040   6.529  11.183   8.096 -1.1003  0.5629 -0.3935
  182MOL0     C25041   6.598  11.046   8.091 -0.0713 -0.5295 -0.0372
  182MOL0     C25042   6.646  11.007   8.223 -0.8945 -0.0107 -0.0142
  182MOL0     C25043   6.672  10.977   8.339  0.5888 -0.4489 -0.1114
  182MOL0     C25044   6.283  11.567   7.720 -0.1808  0.8817  0.1228
  182MOL0     C25045   6.178  11.593   7.642  0.1424 -0.4317 -0.2447
  182MOL0     C25046   6.195  11.696   7.538  0.7702  0.2784  0.1113
  182MOL0     H25047   5.882  11.822   7.329  0.9001 -2.1159 -1.9208
  182MOL0     H25048   5.671  11.902   7.208  0.2528 -1.7708 -1.5328
  182MOL0     H25049   5.447  11.973   7.169 -3.2843 -2.4394 -2.2715
  182MOL0     H25050   5.431  11.995   7.347  0.3167  3.0759 -1.7142
  182MOL0     H25051   5.195  11.897   7.318  1.0655 -3.1979 -1.0827
  182MOL0     H25052   5.241  12.064   7.264  0.0693  0.2617 -0.0780
  182MOL0     H25053   5.245  11.995   7.038  1.4310  0.3150  0.1775
  182MOL0     H25054   5.268  11.831   7.079  1.8188  2.0551 -1.9571
  182MOL0     H25055   5.042  11.821   7.180  2.2939  0.9765  1.9305
  182MOL0     H25056   4.994  11.981   7.130  0.4729  1.5774  1.5508
  182MOL0     H25057   5.107  11.796   6.920  1.1255 -0.4764  1.0108
  182MOL0     H25058   5.043  11.960   6.911 -4.6484  1.0259 -0.7036
  182MOL0     H25059   4.883  11.711   6.956 -1.8049 -0.1081 -0.2719
  182MOL0     H25060   4.828  11.875   7.007 -0.0821  0.4537 -0.6579
  182MOL0     H25061   4.801  11.733   6.766 -2.3819  0.5489 -1.0412
  182MOL0     H25062   4.943  11.838   6.739 -0.8918  0.0592 -1.3954
  182MOL0     H25063   4.781  12.026   6.794  0.7971  0.3644 -1.4897
  182MOL0     H25064   4.726  11.942   6.646  2.6901  0.3818  0.1188
  182MOL0     H25065   4.510  11.771   6.681  3.1740  1.1489 -0.7143
  182MOL0     H25066   4.216  11.831   6.931 -0.1786  0.7306 -0.3600
  182MOL0     H25067   4.260  11.718   6.799  0.0508 -0.1037 -0.9383
  182MOL0     H25068   4.149  11.997   6.765 -0.6453 -0.4348  3.7313
  182MOL0     H25069   4.222  11.887   6.635 -0.2438  0.9482 -0.7517
  182MOL0     H25070   4.060  11.719   6.701  1.4110  0.8193 -0.5823
  182MOL0     H25071   3.991  11.829   6.824 -0.9520  1.4474 -0.6994
  182MOL0     H25072   3.978  11.811   6.525 -1.1529  1.4891 -1.9011
  182MOL0     H25073   3.835  11.823   6.625  0.1891 -0.7930  1.4519
  182MOL0     H25074   3.773  11.951   6.815  2.3093  1.2194  0.2526
  182MOL0     H25075   3.532  12.129   6.982  0.8686  0.9496 -1.8131
  182MOL0     H25076   3.685  12.129   7.076  0.2564 -3.6228  2.1516
  182MOL0     H25077   3.650  11.988   6.987 -2.6429 -0.4687 -0.6182
  182MOL0     H25078   3.437  12.605   6.971  1.1463 -1.8378  1.6707
  182MOL0     H25079   3.410  12.825   7.086 -0.2809 -0.8818  0.9232
  182MOL0     H25080   3.758  13.124   7.099 -1.6753  3.1908  0.8939
  182MOL0     H25081   3.689  13.087   6.951 -1.9891 -1.6197  0.0727
  182MOL0     H25082   3.469  13.233   7.036  0.4124  1.7084 -1.7392
  182MOL0     H25083   3.588  13.270   7.174 -1.2012 -3.9503  1.3487
  182MOL0     H25084   3.620  13.313   6.878 -3.2056 -0.0264 -0.2503
  182MOL0     H25085   3.723  13.385   6.999  0.1320  1.1677 -0.6022
  182MOL0     H25086   3.537  13.530   7.069 -3.2453  0.2388 -0.1633
  182MOL0     H25087   3.433  13.453   6.957 -1.3041 -0.2681  2.7530
  182MOL0     H25088   3.711  13.559   6.886 -0.7705  2.5812  2.8379
  182MOL0     H25089   3.574  13.534   6.765  2.8901  3.4669 -2.3387
  182MOL0     H25090   3.587  13.761   6.982 -0.6995  0.2584  0.5895
  182MOL0     H25091   3.442  13.727   6.894  0.2335 -0.7795 -0.4925
  182MOL0     H25092   3.550  13.796   6.691  2.0787 -0.7797 -0.8489
  182MOL0     H25093   3.704  13.769   6.761 -0.4870 -0.4030 -1.5187
  182MOL0     H25094   3.673  14.014   6.736 -1.7169 -2.1426 -4.1139
  182MOL0     H25095   3.644  13.977   6.914 -0.0630 -0.0700 -0.1566
  182MOL0     H25096   3.811  12.915   7.009 -0.5670  1.2027  1.7616
  182MOL0     H25097   3.834  12.690   6.868 -1.0625 -3.2821 -0.8876
  182MOL0     H25098   3.765  12.413   6.649  0.9597 -0.0743  2.0571
  182MOL0     H25099   3.865  12.228   6.519  1.9227 -0.6827 -0.2454
  182MOL0     H25100   5.459  11.652   7.488 -0.7478  0.6581 -0.3210
  182MOL0     H25101   5.652  11.549   7.573 -1.7131 -0.1247  0.8934
  182MOL0     H25102   5.985  11.343   7.766 -0.3986  1.1389  0.5198
  182MOL0     H25103   6.178  11.305   7.904 -1.5726 -2.5285 -2.1053
  182MOL0     H25104   6.492  11.438   8.085 -0.4958  2.3305  1.2979
  182MOL0     H25105   6.332  11.367   8.057  0.8606 -0.8133  0.2269
  182MOL0     H25106   6.598  11.297   7.929  1.5896  0.0055  4.5656
  182MOL0     H25107   6.444  11.208   7.888 -0.6215  1.7114 -0.7601
  182MOL0     H25108   6.591  11.242   8.164  0.5928 -0.3498 -1.0831
  182MOL0     H25109   6.433  11.168   8.147 -1.5520  0.2953 -1.2991
  182MOL0     H25110   6.693  11.059   8.039  0.0351 -0.1939  0.2398
  182MOL0     H25111   6.537  10.973   8.037 -3.2414  0.8942  1.3895
  182MOL0     H25112   6.705  10.952   8.438 -0.8696 -0.3767  0.4252
  182MOL0     H25113   6.364  11.638   7.704 -0.6656  0.8937 -2.7576
  182MOL0     H25114   6.140  11.789   7.559 -1.1494  0.4788 -4.4658
  182MOL0     H25115   6.300  11.722   7.525  0.9422  0.3897  1.5734
  182MOL0     H25116   6.165  11.659   7.439 -0.9203  3.1608 -0.6081
  183MOL0     O25117   5.137   9.459   0.396  0.0107  0.4763  0.3569
  183MOL0     C25118   5.122   9.339   0.363  0.6454  0.8869 -0.0529
  183MOL0     O25119   5.009   9.272   0.348 -0.3952  0.2433 -0.2581
  183MOL0     C25120   4.893   9.325   0.416 -0.2090 -0.2183  0.1777
  183MOL0     C25121   4.768   9.316   0.355 -0.8699  0.9531  0.3295
  183MOL0     C25122   4.650   9.378   0.408 -0.5816  0.2671  0.5319
  183MOL0     C25123   4.659   9.458   0.522 -0.5621  0.3637 -0.6199
  183MOL0     O25124   4.547   9.523   0.568  0.1548 -0.9956  0.5806
  183MOL0     C25125   4.445   9.545   0.467  0.2596 -0.5910  0.2557
  183MOL0     C25126   4.334   9.637   0.520 -0.0537 -0.1720 -0.4048
  183MOL0     C25127   4.282   9.569   0.655  0.0864  0.5850 -0.0088
  183MOL0     C25128   4.155   9.649   0.692  0.1425 -0.0229  1.4441
  183MOL0     C25129   4.107   9.622   0.840  0.6958  0.5850 -0.1180
  183MOL0     C25130   3.956   9.612   0.843 -0.1662 -0.0049  0.7191
  183MOL0     C25131   3.907   9.607   0.983  0.0912 -0.1664 -0.2875
  183MOL0     C25132   3.774   9.538   0.995  0.0385 -0.6789 -0.1136
  183MOL0     N25133   3.786   9.395   0.981  0.2907  0.3779  0.0005
  183MOL0     C25134   3.894   9.308   1.016  0.1392 -0.0153 -0.4856
  183MOL0     C25135   3.856   9.184   0.974 -0.8042  1.2995  1.0810
  183MOL0     C25136   3.935   9.053   0.990  0.0545 -0.1705 -1.1045
  183MOL0     C25137   3.854   8.935   0.936 -0.2208 -0.2504  0.2731
  183MOL0     C25138   3.924   8.799   0.982 -0.4147 -1.0660  0.7284
  183MOL0     C25139   4.048   8.756   0.902  0.7362 -0.4048  0.0106
  183MOL0     O25140   4.118   8.641   0.955 -0.1018  0.0752  0.3337
  183MOL0     C25141   4.235   8.614   0.906  0.1631  0.5268 -0.6232
  183MOL0     C25142   4.286   8.660   0.782  0.5974 -0.1143  0.4895
  183MOL0     C25143   4.420   8.650   0.742  0.8816  0.2725  0.0722
  183MOL0     C25144   4.454   8.726   0.615 -0.7007 -0.2734  0.0520
  183MOL0     C25145   4.507   8.578   0.824 -0.7387 -0.2189 -0.4324
  183MOL0     C25146   4.659   8.564   0.792 -0.0345  0.3173 -0.1720
  183MOL0     O25147   4.727   8.517   0.900 -0.9399 -0.0414 -0.1280
  183MOL0     C25148   4.860   8.488   0.891  0.1449 -0.2190  1.3261
  183MOL0     C25149   4.914   8.367   0.917 -0.7281 -0.0123  0.1891
  183MOL0     C25150   5.053   8.335   0.886  0.0366 -0.0035  0.5881
  183MOL0     C25151   5.142   8.434   0.852 -0.7918 -1.3806 -0.2946
  183MOL0     O25152   5.270   8.402   0.844 -0.5965  0.4664 -0.1414
  183MOL0     C25153   5.366   8.507   0.828  0.4448  1.3540  0.0762
  183MOL0     C25154   5.505   8.445   0.837 -0.3211 -0.0719  0.5416
  183MOL0     C25155   5.547   8.387   0.971  0.0646 -0.6903 -0.0184
  183MOL0     C25156   5.673   8.299   0.953  0.0928 -0.1308 -0.2652
  183MOL0     C25157   5.795   8.369   0.882  0.5951 -0.3037  0.6889
  183MOL0     C25158   5.915   8.288   0.862  0.2277 -0.7191 -0.1799
  183MOL0     C25159   6.001   8.286   0.990 -0.4050 -0.6053 -0.2466
  183MOL0     C25160   6.068   8.416   1.042 -0.5473  0.5542  0.2231
  183MOL0    Cl25161   6.032   8.452   1.215 -0.4012  0.2428 -0.6342
  183MOL0     C25162   5.091   8.565   0.831 -0.0375 -0.5718  0.1492
  183MOL0     C25163   4.955   8.585   0.848  0.1825 -0.7747 -0.0896
  183MOL0     O25164   4.708   8.586   0.679 -0.5814  0.3857 -0.2443
  183MOL0     C25165   4.448   8.521   0.936  0.1649  0.4728  0.5376
  183MOL0     C25166   4.323   8.546   0.982  0.0641 -0.9515 -0.1459
  183MOL0     N25167   3.731   9.192   0.911 -0.2898 -0.6954 -0.0875
  183MOL0     N25168   3.696   9.319   0.918  0.3231 -0.4286 -0.0433
  183MOL0     C25169   4.788   9.463   0.585 -0.8879  0.3526  0.4499
  183MOL0     C25170   4.904   9.388   0.538  0.3658  0.0226  0.4770
  183MOL0     C25171   5.243   9.281   0.320 -0.5086  0.7207 -0.5020
  183MOL0     C25172   5.253   9.198   0.208  0.4588 -0.1364 -0.3136
  183MOL0     C25173   5.374   9.137   0.175 -0.4324  0.3464 -0.6913
  183MOL0     C25174   5.484   9.142   0.259 -0.4230  0.2685  0.2488
  183MOL0     O25175   5.586   9.070   0.218  0.4647  0.0043  0.9386
  183MOL0     C25176   5.707   9.138   0.190 -0.3648  1.4187 -0.2408
  183MOL0     C25177   5.694   9.246   0.080  0.0801 -0.1982 -0.4453
  183MOL0     C25178   5.784   9.215  -0.040  0.0744 -0.0214 -0.3546
  183MOL0     C25179   5.810   9.348  -0.124  0.3581  0.2553  0.0190
  183MOL0     C25180   5.685   9.421  -0.164 -0.4958  0.1205 -0.7369
  183MOL0     C25181   5.584   9.472  -0.210 -0.6158  0.3667 -0.0289
  183MOL0     C25182   5.483   9.223   0.375  0.3436  0.0804 -0.7275
  183MOL0     C25183   5.353   9.280   0.413 -0.1133 -0.2037  0.2768
  183MOL0     C25184   5.334   9.324   0.555  0.4519 -0.1736 -0.1577
  183MOL0     H25185   4.750   9.257   0.266  1.5074  0.0279  0.3866
  183MOL0     H25186   4.562   9.360   0.348 -0.3852  2.3902 -0.4795
  183MOL0     H25187   4.395   9.457   0.426  0.2008  0.4764 -2.1552
  183MOL0     H25188   4.482   9.596   0.378 -1.2319  1.8170  0.9279
  183MOL0     H25189   4.379   9.733   0.544 -0.7864  0.1940 -0.4734
  183MOL0     H25190   4.255   9.657   0.447 -0.4225 -1.0673 -0.2669
  183MOL0     H25191   4.254   9.465   0.635 -1.5437  0.8802  0.5352
  183MOL0     H25192   4.346   9.584   0.742  2.4280 -4.7647 -0.4462
  183MOL0     H25193   4.173   9.757   0.681 -1.8736  0.0712 -3.5031
  183MOL0     H25194   4.075   9.616   0.625 -0.9679  1.6807  1.8674
  183MOL0     H25195   4.134   9.709   0.900 -1.4401  1.6014 -0.5476
  183MOL0     H25196   4.155   9.530   0.875 -0.7337  0.4503  1.6011
  183MOL0     H25197   3.919   9.704   0.796  1.2138  0.4946  0.5600
  183MOL0     H25198   3.914   9.537   0.775  0.8848  1.3398 -1.5667
  183MOL0     H25199   3.895   9.710   1.016 -2.4832 -0.8292  1.0697
  183MOL0     H25200   3.985   9.555   1.040 -0.1672  0.4574  0.6567
  183MOL0     H25201   3.722   9.567   1.086 -0.3577 -1.0405 -0.2201
  183MOL0     H25202   3.701   9.582   0.926 -2.9998  1.3218  3.9355
  183MOL0     H25203   3.992   9.319   1.059  1.1059 -4.6778 -0.8918
  183MOL0     H25204   3.960   9.029   1.094  1.9024 -0.6321 -1.6163
  183MOL0     H25205   4.028   9.059   0.933  0.8679  1.1650  0.2783
  183MOL0     H25206   3.754   8.938   0.980  1.3589  0.0502  4.2668
  183MOL0     H25207   3.838   8.947   0.829 -0.9030  0.4792  0.4510
  183MOL0     H25208   3.943   8.814   1.088 -0.8927  1.4576  0.5058
  183MOL0     H25209   3.851   8.719   0.964 -1.8525  0.5995 -1.2007
  183MOL0     H25210   4.020   8.735   0.798 -0.6000 -2.1674  0.6676
  183MOL0     H25211   4.108   8.847   0.895  0.1796  0.1238  1.7738
  183MOL0     H25212   4.224   8.705   0.706  3.7415  1.2664 -1.4463
  183MOL0     H25213   4.410   8.668   0.534 -3.3543  0.6818  0.7041
  183MOL0     H25214   4.559   8.747   0.591  0.0296 -1.1644  2.1513
  183MOL0     H25215   4.397   8.820   0.613 -3.3467 -1.8055 -1.4352
  183MOL0     H25216   4.855   8.282   0.949 -0.2595 -0.0231  1.0665
  183MOL0     H25217   5.082   8.233   0.907  0.5231  0.5295  2.7730
  183MOL0     H25218   5.362   8.543   0.725 -2.4153 -0.4119 -0.5239
  183MOL0     H25219   5.356   8.594   0.894 -2.2964  0.7596  0.5342
  183MOL0     H25220   5.515   8.367   0.761 -1.3479  0.3261 -0.0264
  183MOL0     H25221   5.569   8.523   0.794 -1.3267 -0.9698 -2.8779
  183MOL0     H25222   5.463   8.331   1.013  0.3516 -0.2818  1.1363
  183MOL0     H25223   5.553   8.471   1.041  0.8660 -1.2475  0.5975
  183MOL0     H25224   5.645   8.211   0.894  0.8619  0.0850 -0.9647
  183MOL0     H25225   5.715   8.264   1.048  2.3893  1.9024 -0.4332
  183MOL0     H25226   5.753   8.392   0.784  1.0013 -1.7758  0.1499
  183MOL0     H25227   5.806   8.466   0.932 -3.4760  1.1493 -0.7881
  183MOL0     H25228   5.974   8.339   0.786  3.0178  1.2685  3.0454
  183MOL0     H25229   5.883   8.191   0.823 -0.3205 -0.4913 -0.3053
  183MOL0     H25230   6.080   8.211   0.978 -0.9737 -0.9575 -2.1111
  183MOL0     H25231   5.931   8.258   1.070  0.9715  0.9381  1.5818
  183MOL0     H25232   6.021   8.502   0.994 -1.1630 -0.4358 -1.0117
  183MOL0     H25233   6.173   8.404   1.014 -0.2406  4.1094 -0.6123
  183MOL0     H25234   5.166   8.634   0.792 -0.0659  0.1221  1.2825
  183MOL0     H25235   4.930   8.683   0.808  4.3362  0.2892 -0.5527
  183MOL0     H25236   4.494   8.449   1.004  1.0206  0.2321 -0.2653
  183MOL0     H25237   4.283   8.514   1.077  1.2010  1.3012  1.2026
  183MOL0     H25238   4.790   9.531   0.670  1.0975  1.1517 -0.1711
  183MOL0     H25239   4.998   9.383   0.591  1.2218 -2.2819 -1.1013
  183MOL0     H25240   5.163   9.183   0.149 -1.1097 -2.2235  2.3475
  183MOL0     H25241   5.379   9.097   0.075 -1.3741  2.3736 -1.5978
  183MOL0     H25242   5.744   9.179   0.285  2.4494  0.2822 -0.7291
  183MOL0     H25243   5.777   9.061   0.157 -0.0249  1.0819  1.1668
  183MOL0     H25244   5.732   9.341   0.118  0.4979  1.2716 -4.1567
  183MOL0     H25245   5.589   9.263   0.055 -0.2660 -1.1488  0.2720
  183MOL0     H25246   5.879   9.166  -0.015  0.5646  0.1741 -1.7762
  183MOL0     H25247   5.723   9.145  -0.098 -1.3788  0.3400  0.6870
  183MOL0     H25248   5.869   9.328  -0.213  1.7427  2.0177  0.4890
  183MOL0     H25249   5.869   9.418  -0.064 -2.5198  0.7962  2.4778
  183MOL0     H25250   5.489   9.509  -0.244  0.1403  1.8338 -0.6709
  183MOL0     H25251   5.575   9.216   0.434  0.9744  0.6779 -1.6144
  183MOL0     H25252   5.410   9.285   0.623 -1.6252 -1.9415  1.2912
  183MOL0     H25253   5.324   9.433   0.558 -0.9799 -0.2497  3.8744
  183MOL0     H25254   5.243   9.270   0.584  0.2796 -1.9362 -3.5140
  184MOL0     O25255  10.480   2.251   6.756  0.3243  0.1454 -0.0541
  184MOL0     C25256  10.581   2.211   6.819  0.4693  0.6181 -0.2186
  184MOL0     O25257  10.590   2.214   6.951 -0.5550  0.3568  0.6272
  184MOL0     C25258  10.495   2.270   7.040 -0.4835 -0.4186 -0.0106
  184MOL0     C25259  10.416   2.394   7.008  0.4678  0.1062  0.5269
  184MOL0     C25260  10.318   2.435   7.088 -0.2588 -0.9169  0.3794
  184MOL0     C25261  10.303   2.371   7.204  0.2655 -0.4338 -0.5368
  184MOL0     O25262  10.204   2.432   7.280 -0.2099 -0.0507 -0.0416
  184MOL0     C25263  10.201   2.414   7.424  0.1312  0.0849 -0.5671
  184MOL0     C25264  10.133   2.283   7.475  0.4289 -0.0095  0.3014
  184MOL0     C25265  10.165   2.284   7.628  0.3041 -0.1453  0.2571
  184MOL0     C25266  10.139   2.156   7.703 -0.2738 -0.5047 -0.1070
  184MOL0     C25267  10.183   2.143   7.843 -0.0705  0.6856 -0.6748
  184MOL0     C25268  10.088   2.062   7.934 -0.4993 -0.2923 -0.4504
  184MOL0     C25269  10.101   2.083   8.087 -0.2892 -0.2593 -0.8922
  184MOL0     C25270  10.245   2.072   8.141  0.6121  0.7926  0.5777
  184MOL0     N25271  10.317   1.961   8.083 -0.1865 -0.2153  0.0126
  184MOL0     C25272  10.332   1.844   8.152  0.0472 -0.7416 -0.2178
  184MOL0     C25273  10.454   1.795   8.115  0.0954 -0.7058 -0.2172
  184MOL0     C25274  10.521   1.676   8.167 -0.5749  1.1547 -0.8970
  184MOL0     C25275  10.559   1.560   8.070  0.5536 -0.3167 -0.8247
  184MOL0     C25276  10.646   1.609   7.959  0.1301 -0.1783  0.5476
  184MOL0     C25277  10.677   1.499   7.863  0.2059  0.5417  0.5632
  184MOL0     O25278  10.755   1.397   7.932  0.4809 -0.0859  0.3163
  184MOL0     C25279  10.780   1.283   7.858 -0.2931 -0.3458 -0.0506
  184MOL0     C25280  10.749   1.267   7.725 -1.2069 -0.5915 -0.2249
  184MOL0     C25281  10.767   1.140   7.667  0.1066  0.5742  0.9261
  184MOL0     C25282  10.725   1.129   7.523 -0.7627  0.4676 -0.4044
  184MOL0     C25283  10.821   1.031   7.732  0.6736  0.6701  0.4292
  184MOL0     C25284  10.866   0.897   7.669  0.0385  0.5242  0.3330
  184MOL0     O25285  10.969   0.828   7.732  0.2385  0.2906  0.5135
  184MOL0     C25286  11.011   0.717   7.658 -1.0380  0.3659  0.8180
  184MOL0     C25287  10.964   0.589   7.701  0.2217  0.7607  0.8684
  184MOL0     C25288  10.989   0.471   7.623 -0.6137  0.2269 -0.0967
  184MOL0     C25289  11.062   0.482   7.500 -0.3824  0.4236 -0.1404
  184MOL0     O25290  11.088   0.362   7.431 -0.0221  0.8198 -1.1384
  184MOL0     C25291  11.185   0.367   7.322 -0.5609  0.3124 -0.7641
  184MOL0     C25292  11.094   0.397   7.199  0.6326  0.5140 -0.0831
  184MOL0     C25293  11.021   0.281   7.144  0.3958 -0.3643  0.1817
  184MOL0     C25294  11.107   0.193   7.052  0.1607 -0.1665 -0.0996
  184MOL0     C25295  11.055   0.050   7.051 -0.0897 -0.2235  0.1352
  184MOL0     C25296  10.916   0.042   6.979  0.1547  0.6828 -0.0792
  184MOL0     C25297  10.873  -0.103   6.995  0.2912  0.1645  0.4805
  184MOL0     C25298  10.905  -0.197   6.879 -0.0026 -0.3227 -0.5544
  184MOL0    Cl25299  10.787  -0.321   6.861 -0.0204 -0.2510 -0.3373
  184MOL0     C25300  11.119   0.611   7.463  0.3559 -0.0947 -0.1806
  184MOL0     C25301  11.093   0.720   7.542  0.3836 -0.3256 -0.1736
  184MOL0     O25302  10.805   0.845   7.572  0.0587  0.6007  0.2208
  184MOL0     C25303  10.850   1.054   7.863 -0.5055 -0.5158  0.2498
  184MOL0     C25304  10.839   1.181   7.925 -0.6265  0.0199  0.5397
  184MOL0     N25305  10.509   1.889   8.022  0.3052  0.3547  0.0636
  184MOL0     N25306  10.425   1.984   8.007  0.4993  0.2051  0.3336
  184MOL0     C25307  10.365   2.253   7.241 -0.0506  0.1083 -0.4161
  184MOL0     C25308  10.468   2.191   7.162  0.8387 -0.5402  0.0655
  184MOL0     C25309  10.675   2.120   6.750  0.3008  0.1983  0.9194
  184MOL0     C25310  10.735   2.007   6.812 -0.4269  0.2708 -0.9352
  184MOL0     C25311  10.825   1.928   6.748 -0.2156  1.0473 -0.2920
  184MOL0     C25312  10.845   1.950   6.608  0.5465 -0.2296 -0.3369
  184MOL0     O25313  10.922   1.864   6.536 -0.2954  0.2314  0.0815
  184MOL0     C25314  10.889   1.728   6.532 -0.0237 -0.1701 -1.5722
  184MOL0     C25315  10.928   1.654   6.405  0.2810 -0.5631 -0.5268
  184MOL0     C25316  10.896   1.730   6.271 -0.1852  1.2322 -0.3163
  184MOL0     C25317  10.887   1.648   6.140 -0.7919 -0.1294  0.3982
  184MOL0     C25318  10.904   1.743   6.028 -0.5268 -0.6652 -0.0927
  184MOL0     C25319  10.908   1.823   5.936  0.6970  0.3044  0.3718
  184MOL0     C25320  10.789   2.066   6.546  0.2936 -0.6875  0.1573
  184MOL0     C25321  10.707   2.155   6.614  0.1303  0.4700  0.9443
  184MOL0     C25322  10.673   2.282   6.547 -0.4001  0.1154  1.0646
  184MOL0     H25323  10.447   2.448   6.919  1.5532 -3.1434 -1.2295
  184MOL0     H25324  10.261   2.524   7.063 -0.0264 -0.7845  0.3153
  184MOL0     H25325  10.145   2.499   7.464 -2.8786 -0.9708 -2.1653
  184MOL0     H25326  10.301   2.410   7.468  0.4480 -1.3423 -1.3576
  184MOL0     H25327  10.028   2.277   7.445  1.6248  0.4413 -4.7577
  184MOL0     H25328  10.175   2.198   7.421 -1.2910  0.1032 -1.2903
  184MOL0     H25329  10.274   2.300   7.628  0.1606  1.0018 -1.0134
  184MOL0     H25330  10.115   2.371   7.670 -2.5334 -1.6325  0.1846
  184MOL0     H25331  10.030   2.144   7.699 -1.0284  3.8235  1.7067
  184MOL0     H25332  10.189   2.071   7.657 -1.0746 -0.0201 -1.9850
  184MOL0     H25333  10.185   2.242   7.890  0.4742  0.9631 -1.2783
  184MOL0     H25334  10.282   2.096   7.844 -0.8718 -1.0661 -0.0280
  184MOL0     H25335   9.986   2.087   7.901 -0.3320 -1.9682 -2.4172
  184MOL0     H25336  10.116   1.958   7.915  0.8196  0.0561 -0.4758
  184MOL0     H25337  10.039   2.016   8.147  0.7367 -1.1279 -0.7764
  184MOL0     H25338  10.069   2.187   8.101 -3.3028 -0.7085 -3.2598
  184MOL0     H25339  10.300   2.162   8.110  0.7955 -0.1800 -2.1027
  184MOL0     H25340  10.238   2.057   8.250 -0.9409 -1.6102  0.2190
  184MOL0     H25341  10.271   1.792   8.225  2.1147 -2.1764  0.5864
  184MOL0     H25342  10.454   1.633   8.242  1.8163 -0.7105  0.3198
  184MOL0     H25343  10.616   1.712   8.208  0.9943 -0.2822 -3.1151
  184MOL0     H25344  10.607   1.474   8.118 -0.5868  0.1030  1.1349
  184MOL0     H25345  10.466   1.518   8.031  0.4445  0.1152 -1.0375
  184MOL0     H25346  10.608   1.691   7.897  2.0184 -0.3186 -0.8868
  184MOL0     H25347  10.740   1.632   8.011 -0.5299 -1.8029  2.5831
  184MOL0     H25348  10.595   1.462   7.802  0.9595  0.8311 -0.6472
  184MOL0     H25349  10.740   1.554   7.792  1.1118 -0.8793  0.2364
  184MOL0     H25350  10.728   1.343   7.651 -0.3391 -4.2024 -4.6340
  184MOL0     H25351  10.818   1.097   7.476 -0.3335  0.7284  0.2511
  184MOL0     H25352  10.687   1.223   7.482 -0.5317  0.9617  0.4830
  184MOL0     H25353  10.646   1.054   7.514  1.9904 -2.5690 -0.9254
  184MOL0     H25354  10.914   0.584   7.797  1.1013  1.1491  1.3600
  184MOL0     H25355  10.951   0.374   7.652  1.1052 -0.3589  0.3392
  184MOL0     H25356  11.258   0.448   7.332  0.6218 -1.0497  4.9346
  184MOL0     H25357  11.227   0.266   7.318  0.3107  0.5574  1.1586
  184MOL0     H25358  11.011   0.462   7.230  0.0283 -1.2842  2.4210
  184MOL0     H25359  11.149   0.446   7.118  1.0488 -0.6782 -0.5489
  184MOL0     H25360  10.936   0.315   7.084 -0.9035 -1.2014  1.4825
  184MOL0     H25361  10.971   0.230   7.227 -0.5332  1.3966  0.7508
  184MOL0     H25362  11.211   0.207   7.081 -0.0673  2.3493 -0.2497
  184MOL0     H25363  11.101   0.237   6.952 -2.7967 -0.5754 -0.2045
  184MOL0     H25364  11.134  -0.004   6.998  1.0296 -1.9354  3.3099
  184MOL0     H25365  11.051   0.026   7.157 -0.1929  0.5208  0.3104
  184MOL0     H25366  10.924   0.063   6.871 -1.7743  0.9776 -0.2008
  184MOL0     H25367  10.844   0.109   7.026  2.5112  0.9841  3.4372
  184MOL0     H25368  10.771  -0.118   7.032 -0.5156 -1.9331 -2.1859
  184MOL0     H25369  10.930  -0.144   7.079 -0.7319  4.1985  3.4085
  184MOL0     H25370  11.004  -0.240   6.900 -0.6743 -1.3646  0.5594
  184MOL0     H25371  10.925  -0.145   6.784  1.0959  0.0755 -0.1231
  184MOL0     H25372  11.179   0.626   7.373  3.4911  0.2836  1.8161
  184MOL0     H25373  11.126   0.819   7.514 -0.3870  0.1219  0.4390
  184MOL0     H25374  10.896   0.980   7.927  1.3709 -2.4681 -3.0365
  184MOL0     H25375  10.864   1.194   8.030  2.3886  1.8208 -0.2964
  184MOL0     H25376  10.337   2.193   7.327 -4.7927 -0.6917 -2.2360
  184MOL0     H25377  10.535   2.107   7.173  2.5970  0.8334  0.3634
  184MOL0     H25378  10.702   1.975   6.910 -0.1402  0.8280 -0.6477
  184MOL0     H25379  10.869   1.838   6.790  3.2420  2.2425 -1.0435
  184MOL0     H25380  10.940   1.678   6.614  0.5240  1.6147 -0.7736
  184MOL0     H25381  10.783   1.727   6.555  0.3873  1.8287  0.8236
  184MOL0     H25382  10.874   1.559   6.409  1.3556 -1.1417  1.2268
  184MOL0     H25383  11.035   1.630   6.410  0.9106  1.8338 -0.9560
  184MOL0     H25384  10.799   1.778   6.283 -0.2870  1.0407 -0.3680
  184MOL0     H25385  10.976   1.802   6.254 -2.4329  3.1813 -4.1036
  184MOL0     H25386  10.790   1.597   6.136 -1.4053  0.9275  1.3896
  184MOL0     H25387  10.960   1.568   6.136  0.6029  0.7471  4.4776
  184MOL0     H25388  10.904   1.897   5.859 -2.1210  0.4558  0.5833
  184MOL0     H25389  10.813   2.085   6.442  0.8062 -1.6636  0.0835
  184MOL0     H25390  10.570   2.278   6.509 -0.3956 -1.2552  1.1267
  184MOL0     H25391  10.681   2.372   6.609 -1.2687 -3.1512  6.5858
  184MOL0     H25392  10.732   2.297   6.457 -1.1088 -1.1860  0.3543
  185MOL0     O25393   6.505  10.430   7.398  0.2845 -0.8578  0.0260
  185MOL0     C25394   6.459  10.426   7.283 -0.0467  0.0752  0.6477
  185MOL0     O25395   6.347  10.492   7.239 -0.8024  0.6068 -0.4976
  185MOL0     C25396   6.273  10.562   7.329 -1.3655 -0.7663 -0.0764
  185MOL0     C25397   6.256  10.699   7.298  0.3153  0.2577  0.6050
  185MOL0     C25398   6.195  10.778   7.392 -0.6236 -0.1290 -0.3507
  185MOL0     C25399   6.152  10.731   7.521  0.9825  0.6993  0.3843
  185MOL0     O25400   6.081  10.803   7.619  0.2155  0.2162 -0.6189
  185MOL0     C25401   6.096  10.943   7.625 -0.2829 -0.4788  0.0418
  185MOL0     C25402   6.047  11.014   7.752  0.6918  0.2539 -1.0143
  185MOL0     C25403   5.914  10.960   7.814 -0.2674  0.1905 -0.2371
  185MOL0     C25404   5.808  11.068   7.802  0.0266 -0.6260 -0.2032
  185MOL0     C25405   5.660  11.023   7.822  0.3117 -0.0004  0.0415
  185MOL0     C25406   5.621  11.015   7.963  0.7610 -0.4734 -0.6241
  185MOL0     C25407   5.571  11.153   8.021  0.3340 -0.3760  0.1858
  185MOL0     C25408   5.491  11.151   8.155  0.1426  0.4570  0.5180
  185MOL0     N25409   5.566  11.100   8.267  0.5078  0.7843 -0.4469
  185MOL0     C25410   5.530  10.996   8.345  0.1586  0.2127 -0.7245
  185MOL0     C25411   5.610  11.008   8.447  0.0395 -0.2648  0.1993
  185MOL0     C25412   5.605  10.933   8.573  0.1952 -0.7178 -0.2817
  185MOL0     C25413   5.563  11.031   8.688  0.2959 -0.9237 -0.0549
  185MOL0     C25414   5.572  10.962   8.834  0.1524 -0.6861 -0.0800
  185MOL0     C25415   5.717  10.909   8.857 -0.1092  1.3046  0.1354
  185MOL0     O25416   5.732  10.836   8.984 -0.1846 -0.2870 -0.1688
  185MOL0     C25417   5.852  10.800   9.043 -0.2486  0.3667  0.6856
  185MOL0     C25418   5.855  10.745   9.174  0.3598  0.0403 -0.1257
  185MOL0     C25419   5.964  10.682   9.219 -0.6958  0.2107 -0.4828
  185MOL0     C25420   5.946  10.602   9.344  0.0060  0.6000  0.1778
  185MOL0     C25421   6.087  10.682   9.152  0.6379 -0.6193 -0.1302
  185MOL0     C25422   6.203  10.599   9.194 -0.1824  0.3354  0.1777
  185MOL0     O25423   6.231  10.593   9.330 -0.3968  0.3636  0.2092
  185MOL0     C25424   6.347  10.532   9.369  0.6313  0.3515 -1.0664
  185MOL0     C25425   6.471  10.551   9.309 -0.8460 -0.2634 -0.1753
  185MOL0     C25426   6.584  10.481   9.348 -0.4480  0.3586  0.4981
  185MOL0     C25427   6.578  10.388   9.455  0.1015 -0.6065  0.7953
  185MOL0     O25428   6.685  10.320   9.512  0.4535 -0.1929  0.7058
  185MOL0     C25429   6.822  10.353   9.483  1.3857  0.0748  1.2097
  185MOL0     C25430   6.919  10.271   9.560  1.4528 -0.5545  0.3641
  185MOL0     C25431   7.065  10.310   9.542 -0.3155  0.1173 -0.2863
  185MOL0     C25432   7.122  10.338   9.692 -0.1792 -0.1133  1.3245
  185MOL0     C25433   7.274  10.372   9.688  0.1376  0.1896  0.1497
  185MOL0     C25434   7.355  10.350   9.818  0.9896 -0.6726 -0.1689
  185MOL0     C25435   7.511  10.368   9.807  0.7216  0.5597 -0.2207
  185MOL0     C25436   7.551  10.477   9.714  0.2588 -0.3877 -0.1068
  185MOL0    Cl25437   7.706  10.547   9.766 -0.3525  0.0489 -0.6993
  185MOL0     C25438   6.450  10.371   9.512  0.4782  0.7860 -0.9431
  185MOL0     C25439   6.331  10.434   9.470 -0.4228  0.9620 -0.0598
  185MOL0     O25440   6.272  10.546   9.103 -0.7588 -1.1843 -0.1049
  185MOL0     C25441   6.089  10.749   9.025 -0.2155 -0.2794  0.0329
  185MOL0     C25442   5.971  10.805   8.974 -0.1359 -0.3035 -0.7733
  185MOL0     N25443   5.717  11.092   8.423 -0.5253  0.1589  0.0552
  185MOL0     N25444   5.682  11.153   8.315  0.4032 -0.2539 -0.2516
  185MOL0     C25445   6.173  10.598   7.547  0.3934 -0.1516  0.7261
  185MOL0     C25446   6.233  10.515   7.451 -0.6026  0.1575 -0.6661
  185MOL0     C25447   6.520  10.323   7.194  0.8059 -0.4639  0.5691
  185MOL0     C25448   6.440  10.248   7.101  0.3257  0.0664 -0.0872
  185MOL0     C25449   6.486  10.136   7.042  0.7164 -0.3503  1.0482
  185MOL0     C25450   6.619  10.101   7.048 -0.3916 -0.5518  0.0936
  185MOL0     O25451   6.688  10.006   6.983  0.4209 -0.1915 -0.2129
  185MOL0     C25452   6.617   9.927   6.893 -0.0603 -0.3480  0.6019
  185MOL0     C25453   6.702   9.815   6.827  1.2486 -0.1434  0.4641
  185MOL0     C25454   6.803   9.847   6.721  0.1390 -0.8292 -0.1363
  185MOL0     C25455   6.764   9.965   6.631 -0.0672  0.1669  0.1473
  185MOL0     C25456   6.871   9.985   6.522  0.4813  0.3341 -0.1419
  185MOL0     C25457   6.959  10.001   6.440  0.0122  0.4279 -0.3497
  185MOL0     C25458   6.702  10.176   7.129  0.1448 -0.2125  0.2361
  185MOL0     C25459   6.654  10.286   7.203 -0.1171 -0.3588  0.2506
  185MOL0     C25460   6.759  10.370   7.273  0.1974 -0.5697 -0.1385
  185MOL0     H25461   6.288  10.738   7.202  2.6077 -0.9827  0.7922
  185MOL0     H25462   6.188  10.886   7.380 -1.2840 -0.2177 -0.8185
  185MOL0     H25463   6.040  10.986   7.541  0.7902 -2.1837 -1.6195
  185MOL0     H25464   6.203  10.957   7.606 -0.1257 -3.2731 -1.7679
  185MOL0     H25465   6.113  10.999   7.838 -2.4534 -2.5049  1.1677
  185MOL0     H25466   6.038  11.121   7.729 -0.8897 -0.0930 -2.1483
  185MOL0     H25467   5.891  10.861   7.774  1.5181  0.3884 -1.9071
  185MOL0     H25468   5.914  10.949   7.923 -1.1949 -0.4197 -0.2943
  185MOL0     H25469   5.831  11.158   7.861  3.7698 -0.0419 -2.2704
  185MOL0     H25470   5.809  11.113   7.702 -1.0455 -2.4627 -1.0914
  185MOL0     H25471   5.656  10.923   7.778 -0.1272  0.6173 -1.3766
  185MOL0     H25472   5.588  11.092   7.778  0.5947  2.5237  3.1266
  185MOL0     H25473   5.540  10.941   7.970 -2.7099  3.0836  0.7926
  185MOL0     H25474   5.701  10.979   8.028  0.2737  2.0290  1.4837
  185MOL0     H25475   5.509  11.208   7.950  2.1656  2.0512  0.3484
  185MOL0     H25476   5.660  11.216   8.026  1.0921 -1.1356 -2.5455
  185MOL0     H25477   5.463  11.254   8.178 -4.9207 -0.7304  0.7443
  185MOL0     H25478   5.404  11.085   8.147  1.6622 -1.6530  0.6206
  185MOL0     H25479   5.443  10.931   8.342 -0.0505  0.2362  2.2539
  185MOL0     H25480   5.706  10.893   8.584  1.9718  2.5492 -2.7320
  185MOL0     H25481   5.541  10.845   8.559 -0.9946  0.1613 -0.5226
  185MOL0     H25482   5.626  11.121   8.685  2.4649 -2.3629 -0.6695
  185MOL0     H25483   5.463  11.064   8.659  0.3812  3.0028  3.3372
  185MOL0     H25484   5.562  11.047   8.903  0.3723  0.9277 -1.9441
  185MOL0     H25485   5.504  10.878   8.847 -0.6213 -0.0895 -0.1926
  185MOL0     H25486   5.715  10.835   8.777  1.1194  0.6076  0.7233
  185MOL0     H25487   5.790  10.988   8.837  1.2779 -0.4197 -2.1612
  185MOL0     H25488   5.755  10.731   9.214  0.8935  0.7631  1.5272
  185MOL0     H25489   6.003  10.509   9.344  2.0831  1.8045  0.3475
  185MOL0     H25490   5.840  10.576   9.352 -0.4255  2.5027  1.3590
  185MOL0     H25491   5.971  10.660   9.434  1.4389  0.2977 -0.0095
  185MOL0     H25492   6.474  10.614   9.221  0.1733 -0.6637 -0.4440
  185MOL0     H25493   6.670  10.493   9.282 -0.8148  1.6533  0.2145
  185MOL0     H25494   6.839  10.335   9.376 -1.3009  1.8816  0.3674
  185MOL0     H25495   6.835  10.459   9.508  1.0048  0.9344 -1.7534
  185MOL0     H25496   6.893  10.252   9.664  0.0966 -1.1517 -0.0664
  185MOL0     H25497   6.907  10.171   9.516  2.0324 -1.1510  1.5239
  185MOL0     H25498   7.065  10.406   9.490  0.5414  0.1960 -0.1391
  185MOL0     H25499   7.128  10.231   9.500  1.8646  0.7076  1.6902
  185MOL0     H25500   7.117  10.249   9.756 -1.0181 -1.1478 -0.1156
  185MOL0     H25501   7.059  10.410   9.745 -2.2581 -0.4086 -0.5752
  185MOL0     H25502   7.324  10.304   9.619  2.5399  1.3556  0.6240
  185MOL0     H25503   7.297  10.475   9.658 -1.0896  1.6541  3.6886
  185MOL0     H25504   7.339  10.253   9.867  2.1894 -0.5807  0.4307
  185MOL0     H25505   7.322  10.422   9.893 -1.4874 -0.1573 -1.6465
  185MOL0     H25506   7.557  10.278   9.767 -0.7385 -0.2672 -0.1120
  185MOL0     H25507   7.549  10.390   9.907 -1.9740 -1.1847  1.3318
  185MOL0     H25508   7.482  10.561   9.725 -1.0581 -1.2809 -1.2833
  185MOL0     H25509   7.563  10.437   9.613 -1.7137  0.0803 -0.5786
  185MOL0     H25510   6.453  10.297   9.592  1.4428  0.9506 -0.8151
  185MOL0     H25511   6.233  10.438   9.517  0.0520 -0.8225  1.1975
  185MOL0     H25512   6.171  10.769   8.956  0.1869  0.7745  0.7863
  185MOL0     H25513   5.974  10.848   8.875 -3.6779  1.1766 -0.3855
  185MOL0     H25514   6.145  10.564   7.646  0.0623 -1.3006  0.2631
  185MOL0     H25515   6.259  10.413   7.478 -4.8060 -0.8990  0.0457
  185MOL0     H25516   6.334  10.270   7.092 -0.2135 -2.1598  0.2898
  185MOL0     H25517   6.425  10.067   6.984 -2.0771  3.0034 -0.3788
  185MOL0     H25518   6.535   9.872   6.939 -0.7152  1.0281  1.1541
  185MOL0     H25519   6.569   9.988   6.815 -2.1730 -2.3823  0.1715
  185MOL0     H25520   6.643   9.737   6.778 -0.1004 -0.0320  1.8483
  185MOL0     H25521   6.751   9.761   6.909 -0.8271 -2.4973  0.2883
  185MOL0     H25522   6.896   9.870   6.775  0.1775 -2.1418  0.3813
  185MOL0     H25523   6.826   9.763   6.656  0.8729  0.3435 -1.4475
  185MOL0     H25524   6.758  10.057   6.690 -1.1904 -0.1962  0.6356
  185MOL0     H25525   6.668   9.939   6.585  0.7129  0.3901 -1.6927
  185MOL0     H25526   7.033  10.017   6.365 -0.2190  0.5955 -0.5429
  185MOL0     H25527   6.808  10.157   7.140  0.4482  0.2400 -1.5629
  185MOL0     H25528   6.738  10.475   7.249  1.8883 -0.1900 -0.0599
  185MOL0     H25529   6.752  10.360   7.381 -0.3971  0.3641 -0.0867
  185MOL0     H25530   6.863  10.351   7.244 -0.1968 -1.0908 -1.2942
  186MOL0     O25531   1.479   5.472   7.034 -0.4031 -0.5684 -0.4575
  186MOL0     C25532   1.501   5.470   6.911 -0.1383  0.2752  0.5929
  186MOL0     O25533   1.428   5.533   6.819  0.1098 -0.2006 -0.2222
  186MOL0     C25534   1.332   5.624   6.860  0.0298  0.5221  0.3951
  186MOL0     C25535   1.200   5.602   6.812 -0.3771 -0.4775  0.5380
  186MOL0     C25536   1.099   5.686   6.871  0.0127  0.1814 -0.6851
  186MOL0     C25537   1.127   5.801   6.955  0.2468 -0.3007  0.5474
  186MOL0     O25538   1.040   5.902   6.987 -0.0833  1.0886  0.5442
  186MOL0     C25539   0.901   5.875   6.969 -0.8968  0.7918 -1.0043
  186MOL0     C25540   0.820   5.980   7.041  0.1667 -0.0330 -0.3474
  186MOL0     C25541   0.850   6.128   7.011 -0.5096 -0.8466  0.1146
  186MOL0     C25542   0.885   6.141   6.865 -0.6857 -1.6626 -0.8413
  186MOL0     C25543   0.847   6.279   6.810 -0.2699 -0.1517  0.3775
  186MOL0     C25544   0.695   6.296   6.789 -0.2383  0.2576 -0.3276
  186MOL0     C25545   0.647   6.438   6.775 -0.0063  0.4023  0.1650
  186MOL0     C25546   0.503   6.454   6.834  0.5244 -0.7409  0.6963
  186MOL0     N25547   0.479   6.598   6.825 -0.1214 -0.9156  0.2722
  186MOL0     C25548   0.557   6.686   6.898 -0.5221 -0.0093  0.0826
  186MOL0     C25549   0.547   6.801   6.823  0.1209  0.0683 -0.9278
  186MOL0     C25550   0.620   6.926   6.859  0.2067  0.0169  0.9693
  186MOL0     C25551   0.714   6.972   6.747  0.0976  0.1858  0.5087
  186MOL0     C25552   0.804   7.085   6.794 -0.0445  0.5535 -0.6505
  186MOL0     C25553   0.907   7.132   6.683  0.4817  0.3692  0.3692
  186MOL0     O25554   0.979   7.024   6.629  0.0894  0.1086  0.0356
  186MOL0     C25555   1.009   7.016   6.501  0.1828  0.0889 -0.3405
  186MOL0     C25556   1.010   7.120   6.409 -0.3548  0.2688  0.2377
  186MOL0     C25557   1.050   7.094   6.281  0.0508  0.5050 -0.1380
  186MOL0     C25558   1.053   7.212   6.180  0.4740  0.4715 -0.2068
  186MOL0     C25559   1.090   6.961   6.239  0.0631  0.6557 -0.7551
  186MOL0     C25560   1.126   6.916   6.102  0.0513 -0.0838  0.0859
  186MOL0     O25561   1.129   6.775   6.079 -0.3231  0.1038 -0.2836
  186MOL0     C25562   1.176   6.734   5.963  1.1356 -0.7218  0.0323
  186MOL0     C25563   1.308   6.712   5.951 -0.8711 -0.4027  0.3841
  186MOL0     C25564   1.355   6.660   5.831 -0.4723  0.3651  0.2184
  186MOL0     C25565   1.280   6.611   5.723  0.3002  0.4117 -0.5237
  186MOL0     O25566   1.342   6.546   5.622 -0.6977 -0.2517  0.1806
  186MOL0     C25567   1.264   6.474   5.528 -0.0755  0.5671  0.0462
  186MOL0     C25568   1.358   6.384   5.443 -0.0532  0.2316 -0.7467
  186MOL0     C25569   1.447   6.471   5.356 -0.4759 -0.7653  0.4584
  186MOL0     C25570   1.509   6.367   5.267 -0.3900  0.8666 -0.0866
  186MOL0     C25571   1.597   6.441   5.156 -1.3069 -0.2895  0.1267
  186MOL0     C25572   1.679   6.347   5.077  0.4696  0.4788 -0.1045
  186MOL0     C25573   1.742   6.413   4.958  0.4604 -0.0466  0.2485
  186MOL0     C25574   1.846   6.511   4.989 -0.3331 -0.1039 -0.0257
  186MOL0    Cl25575   1.978   6.442   5.086  0.5317 -0.0806  0.3158
  186MOL0     C25576   1.142   6.642   5.738  0.3890 -0.7023 -0.2744
  186MOL0     C25577   1.089   6.707   5.853  0.1681 -0.0334 -0.3330
  186MOL0     O25578   1.159   7.006   6.020 -0.0601  0.1140  0.0231
  186MOL0     C25579   1.102   6.860   6.341  0.5668  0.3079 -0.4698
  186MOL0     C25580   1.055   6.894   6.469 -1.5085 -0.0551  0.1297
  186MOL0     N25581   0.467   6.783   6.712  0.7691 -0.3762  0.3598
  186MOL0     N25582   0.424   6.662   6.719  0.1649  0.4210 -0.1235
  186MOL0     C25583   1.259   5.818   6.988 -0.6149  0.1961 -0.9254
  186MOL0     C25584   1.357   5.727   6.951  0.3938  0.3344  0.3499
  186MOL0     C25585   1.598   5.379   6.850  0.4848 -0.2202 -0.3408
  186MOL0     C25586   1.589   5.339   6.710 -0.3029 -0.4620 -0.7111
  186MOL0     C25587   1.679   5.248   6.657 -0.2315 -1.3141 -0.0509
  186MOL0     C25588   1.767   5.176   6.740 -0.1545  0.8449 -0.5814
  186MOL0     O25589   1.860   5.090   6.687  0.3068  0.7143 -0.2193
  186MOL0     C25590   1.817   5.005   6.574 -0.3896 -0.2348 -0.4105
  186MOL0     C25591   1.936   4.892   6.545  0.5683 -0.8263  0.3938
  186MOL0     C25592   2.064   4.962   6.484  0.0885 -0.0063 -0.6007
  186MOL0     C25593   2.125   5.082   6.548  0.3772  0.3208  0.7356
  186MOL0     C25594   2.167   5.046   6.688  0.6433 -0.4811  0.3995
  186MOL0     C25595   2.189   5.022   6.797 -0.8440  1.0024 -0.4740
  186MOL0     C25596   1.786   5.223   6.869  0.7936  0.2345  0.7632
  186MOL0     C25597   1.701   5.316   6.923  0.1337 -0.1405  0.3480
  186MOL0     C25598   1.734   5.349   7.069  0.1507  0.4871  0.4228
  186MOL0     H25599   1.165   5.525   6.744 -2.4510 -0.4330  1.4752
  186MOL0     H25600   1.001   5.675   6.826 -0.8250  2.2779  0.5017
  186MOL0     H25601   0.872   5.776   7.005 -2.3840  0.2897 -3.3799
  186MOL0     H25602   0.884   5.874   6.861 -3.1542  1.2218 -0.6926
  186MOL0     H25603   0.714   5.966   7.019 -0.2481  1.4682  0.5831
  186MOL0     H25604   0.844   5.967   7.147  1.1358 -1.0858 -0.6764
  186MOL0     H25605   0.776   6.202   7.042 -0.4290 -0.8828  0.3936
  186MOL0     H25606   0.929   6.161   7.079 -1.2787 -1.1715  1.2015
  186MOL0     H25607   0.992   6.118   6.862 -0.7845 -1.9852 -3.1352
  186MOL0     H25608   0.834   6.070   6.799 -0.3908  0.7929 -3.9300
  186MOL0     H25609   0.902   6.286   6.716  1.1521  1.6682  1.2790
  186MOL0     H25610   0.881   6.355   6.881 -1.6796  0.3305  0.5639
  186MOL0     H25611   0.667   6.238   6.701  0.4671  1.2495 -1.2411
  186MOL0     H25612   0.643   6.249   6.873 -1.1028 -1.0939 -1.5892
  186MOL0     H25613   0.637   6.464   6.670  1.1427 -2.5705 -0.7967
  186MOL0     H25614   0.716   6.509   6.822  2.3447  0.3141 -2.8176
  186MOL0     H25615   0.423   6.409   6.774 -2.1172  1.0662  2.6511
  186MOL0     H25616   0.492   6.414   6.935 -0.7345  3.2400  2.3263
  186MOL0     H25617   0.625   6.662   6.979  0.2018  0.9598 -0.2227
  186MOL0     H25618   0.693   6.916   6.939  3.7557 -0.6350 -2.0927
  186MOL0     H25619   0.549   7.003   6.893  0.1403  0.0242  0.8163
  186MOL0     H25620   0.762   6.881   6.711 -2.6089 -1.6019  1.1570
  186MOL0     H25621   0.650   7.009   6.666 -0.4410 -3.0631 -0.6741
  186MOL0     H25622   0.741   7.168   6.829 -2.1479 -0.4599 -1.8664
  186MOL0     H25623   0.872   7.058   6.876 -0.6143  0.2063 -0.2806
  186MOL0     H25624   0.853   7.176   6.599  0.2765 -0.7339 -0.0958
  186MOL0     H25625   0.969   7.214   6.720 -1.4163  1.4560  1.2773
  186MOL0     H25626   0.966   7.215   6.438  1.0865  1.0278  0.0500
  186MOL0     H25627   0.988   7.196   6.094  0.6736  0.0627 -0.2818
  186MOL0     H25628   1.154   7.220   6.138  1.3220 -2.3366  1.0286
  186MOL0     H25629   1.015   7.301   6.231 -1.3256  0.1336 -0.8858
  186MOL0     H25630   1.375   6.743   6.031  2.0548  2.1867 -2.7791
  186MOL0     H25631   1.464   6.662   5.823 -0.4795 -0.9716 -0.4418
  186MOL0     H25632   1.199   6.408   5.586  1.1518 -1.2215 -0.5272
  186MOL0     H25633   1.198   6.544   5.474  2.1974  2.9665  0.1973
  186MOL0     H25634   1.420   6.317   5.503  2.3281  2.0009 -1.0748
  186MOL0     H25635   1.309   6.308   5.381 -0.3921  0.3749 -0.6617
  186MOL0     H25636   1.527   6.518   5.415 -1.0422 -0.1987  0.7850
  186MOL0     H25637   1.400   6.547   5.293 -0.0148 -0.4573  0.4779
  186MOL0     H25638   1.428   6.309   5.220 -3.9920  3.1563  2.7098
  186MOL0     H25639   1.572   6.296   5.321 -1.6984 -0.1252  0.1977
  186MOL0     H25640   1.533   6.507   5.097 -3.7686  0.2314  3.1026
  186MOL0     H25641   1.669   6.508   5.205  0.4211 -0.6921 -1.7410
  186MOL0     H25642   1.614   6.271   5.033 -1.1199  0.4618  2.0899
  186MOL0     H25643   1.749   6.289   5.137  0.0259  0.6432  0.5881
  186MOL0     H25644   1.664   6.452   4.891  2.1068  1.4553 -0.8901
  186MOL0     H25645   1.797   6.342   4.896  2.1861  1.2589  0.2373
  186MOL0     H25646   1.802   6.595   5.044 -1.7415 -0.0990 -1.1316
  186MOL0     H25647   1.888   6.540   4.893 -2.0679 -0.3383 -0.8780
  186MOL0     H25648   1.069   6.623   5.660  0.3149 -0.6629 -0.2139
  186MOL0     H25649   0.985   6.734   5.870  0.7783  1.3029  1.5752
  186MOL0     H25650   1.144   6.762   6.323  2.8292  1.5305 -2.4603
  186MOL0     H25651   1.048   6.811   6.539  0.7071 -1.9211 -1.7040
  186MOL0     H25652   1.293   5.899   7.052  3.9692 -0.5270 -2.1064
  186MOL0     H25653   1.450   5.737   7.006  2.3486 -1.5893 -2.3687
  186MOL0     H25654   1.506   5.382   6.655  0.6359  0.2954 -1.5796
  186MOL0     H25655   1.687   5.229   6.551 -1.5996  2.3363 -0.9499
  186MOL0     H25656   1.725   4.948   6.589 -0.5023 -0.2988 -1.3074
  186MOL0     H25657   1.793   5.068   6.488  0.1820  0.3195 -0.1738
  186MOL0     H25658   1.905   4.816   6.473 -0.8242 -3.1727  3.2653
  186MOL0     H25659   1.941   4.841   6.642  1.6447  0.7507  1.2154
  186MOL0     H25660   2.140   4.883   6.488  1.3425  1.1265 -1.1602
  186MOL0     H25661   2.029   4.979   6.382  0.9695  4.8334 -0.3142
  186MOL0     H25662   2.054   5.165   6.540 -1.8509 -1.5729 -0.3116
  186MOL0     H25663   2.209   5.113   6.486 -1.0064  1.3175 -0.7552
  186MOL0     H25664   2.227   5.009   6.896  0.3385  0.1667 -1.0027
  186MOL0     H25665   1.877   5.193   6.920  2.4681  2.3555 -0.7625
  186MOL0     H25666   1.827   5.298   7.095 -1.9767 -3.6611  0.6075
  186MOL0     H25667   1.728   5.458   7.078 -0.5216  0.5406 -0.5638
  186MOL0     H25668   1.661   5.310   7.140 -0.6787 -3.6211 -2.3793
  187MOL0     O25669   7.298   8.586  11.200 -0.1717 -0.2389  0.0642
  187MOL0     C25670   7.210   8.653  11.150 -0.6641 -0.4017 -0.0615
  187MOL0     O25671   7.092   8.609  11.094 -0.9936 -0.0305 -0.1450
  187MOL0     C25672   7.090   8.476  11.082 -0.0084 -0.1759  0.0066
  187MOL0     C25673   7.083   8.388  11.192 -0.7286 -1.1237  0.5659
  187MOL0     C25674   7.065   8.251  11.168  0.2296  0.1643  0.9408
  187MOL0     C25675   7.033   8.202  11.039  0.6789  0.4420 -0.2438
  187MOL0     O25676   6.999   8.075  11.020 -0.0495  0.6853 -0.7474
  187MOL0     C25677   7.073   8.013  10.914 -0.4011  0.6750  0.6399
  187MOL0     C25678   6.987   7.901  10.868  0.2210  0.7681  0.2441
  187MOL0     C25679   7.011   7.775  10.954  0.5143 -0.3720  0.1178
  187MOL0     C25680   7.014   7.654  10.857  0.5529 -0.6057  0.2072
  187MOL0     C25681   7.064   7.526  10.933  0.1784  0.3571  0.3234
  187MOL0     C25682   7.020   7.400  10.864  0.5513 -0.7770 -0.7492
  187MOL0     C25683   7.095   7.371  10.733 -0.4478 -0.0892 -0.0553
  187MOL0     C25684   7.067   7.239  10.667  0.0097  0.0006  0.2704
  187MOL0     N25685   7.175   7.202  10.571  0.3513  0.2866 -0.5981
  187MOL0     C25686   7.286   7.131  10.620  0.8070 -0.8797 -0.1867
  187MOL0     C25687   7.356   7.096  10.515 -0.0370  0.8300  0.7874
  187MOL0     C25688   7.480   7.007  10.532  0.4317 -0.7912 -0.5371
  187MOL0     C25689   7.470   6.866  10.490  0.3773  0.8109  0.3110
  187MOL0     C25690   7.590   6.781  10.522  0.0292 -0.4964 -0.9603
  187MOL0     C25691   7.555   6.633  10.499  0.0708  0.4179 -0.5794
  187MOL0     O25692   7.542   6.626  10.351 -0.1621  1.0912 -0.7118
  187MOL0     C25693   7.495   6.507  10.309  0.3772  0.1260 -0.1895
  187MOL0     C25694   7.371   6.452  10.340  1.1212  0.2845  0.1004
  187MOL0     C25695   7.318   6.333  10.281 -0.2112 -0.5174  0.0754
  187MOL0     C25696   7.178   6.298  10.322  0.6429  0.1842 -0.4160
  187MOL0     C25697   7.392   6.266  10.179 -0.6154  1.0308  0.0135
  187MOL0     C25698   7.346   6.144  10.111  0.3046  0.2135 -0.9216
  187MOL0     O25699   7.424   6.104  10.011  0.2586  0.2490 -0.2829
  187MOL0     C25700   7.376   6.029   9.915 -0.3798 -0.7138  0.0585
  187MOL0     C25701   7.309   6.092   9.812 -0.6574  0.7418 -0.1337
  187MOL0     C25702   7.260   6.007   9.705 -0.6144 -0.1523 -0.0860
  187MOL0     C25703   7.277   5.874   9.704  0.1886  0.0064 -0.0737
  187MOL0     O25704   7.273   5.798   9.581  0.8800  0.1612  0.2363
  187MOL0     C25705   7.224   5.663   9.594 -0.0705 -0.6989  0.8228
  187MOL0     C25706   7.166   5.616   9.453  0.6925  0.5392 -0.4808
  187MOL0     C25707   7.273   5.606   9.348  0.0508  0.1320  0.3141
  187MOL0     C25708   7.200   5.564   9.225  0.2830 -0.2635  0.5809
  187MOL0     C25709   7.291   5.602   9.096  0.9595  0.0718  0.2379
  187MOL0     C25710   7.254   5.524   8.960  0.0473  0.0257  0.1099
  187MOL0     C25711   7.343   5.560   8.838  0.3011  0.2133  0.4418
  187MOL0     C25712   7.340   5.709   8.803  0.6011  0.9099  0.0854
  187MOL0    Cl25713   7.177   5.767   8.766 -0.3771 -0.4018  0.0982
  187MOL0     C25714   7.342   5.819   9.810  0.1319 -0.3331 -0.1638
  187MOL0     C25715   7.388   5.889   9.920 -1.0268 -0.1047 -0.3615
  187MOL0     O25716   7.246   6.083  10.140  0.6626 -0.0236  0.3740
  187MOL0     C25717   7.526   6.316  10.154 -0.1765 -1.2617 -0.2305
  187MOL0     C25718   7.579   6.434  10.220  0.1221 -0.6494 -1.1873
  187MOL0     N25719   7.290   7.130  10.409 -0.1081  0.3442  0.4859
  187MOL0     N25720   7.176   7.189  10.435 -0.1120  0.9822 -0.5222
  187MOL0     C25721   7.018   8.293  10.938 -0.2604  0.2868  0.1383
  187MOL0     C25722   7.063   8.423  10.954 -0.8522  0.7695  0.4886
  187MOL0     C25723   7.232   8.803  11.122 -0.0917  0.1963 -1.0642
  187MOL0     C25724   7.119   8.883  11.128  0.3083 -0.8492  0.1823
  187MOL0     C25725   7.127   9.032  11.118 -0.8046  0.4891  0.1109
  187MOL0     C25726   7.248   9.097  11.100 -0.2980  0.1498  0.0356
  187MOL0     O25727   7.266   9.234  11.077 -0.5778  0.4657  0.6739
  187MOL0     C25728   7.145   9.307  11.072  1.1685  0.7967  1.0666
  187MOL0     C25729   7.172   9.449  11.039  0.2029 -0.0786  1.1857
  187MOL0     C25730   7.271   9.513  11.140 -0.5586  0.7209  0.1961
  187MOL0     C25731   7.293   9.668  11.134  0.0286 -0.5344 -0.1083
  187MOL0     C25732   7.306   9.727  11.004 -0.3418  0.2756  0.5915
  187MOL0     C25733   7.297   9.760  10.884  0.0680 -0.2784  0.3572
  187MOL0     C25734   7.365   9.011  11.100  0.6237 -0.7733 -1.5731
  187MOL0     C25735   7.356   8.872  11.117 -0.0522 -0.9321  0.2253
  187MOL0     C25736   7.491   8.794  11.108  0.3740  0.5645  0.2337
  187MOL0     H25737   7.081   8.433  11.290 -2.5920  0.0604  0.0471
  187MOL0     H25738   7.077   8.179  11.248  0.1410 -0.9873 -0.0499
  187MOL0     H25739   7.170   7.975  10.947 -0.2178  1.3124  0.8507
  187MOL0     H25740   7.077   8.083  10.831 -1.3038  1.1148  0.9516
  187MOL0     H25741   6.884   7.935  10.861 -0.9724 -2.7460 -2.0932
  187MOL0     H25742   7.010   7.872  10.765  1.2183 -2.7117  1.2876
  187MOL0     H25743   7.104   7.789  11.009  0.3151  0.5592  0.2404
  187MOL0     H25744   6.923   7.774  11.018 -2.0034  1.0278 -3.0319
  187MOL0     H25745   6.919   7.646  10.805  0.7309  2.9430 -0.9254
  187MOL0     H25746   7.088   7.680  10.780 -0.7054  3.1565  0.0984
  187MOL0     H25747   7.028   7.522  11.036 -1.3883  1.4009 -0.1436
  187MOL0     H25748   7.173   7.533  10.926  0.5237 -2.2658  1.8900
  187MOL0     H25749   7.041   7.312  10.924 -1.2663  0.5419  2.0474
  187MOL0     H25750   6.915   7.405  10.834  0.0929  2.5881  0.9280
  187MOL0     H25751   7.204   7.382  10.745 -0.3672 -0.6123 -0.2685
  187MOL0     H25752   7.069   7.451  10.662 -1.3343 -2.3395 -2.4299
  187MOL0     H25753   7.056   7.161  10.743 -1.7954  0.3406  0.4019
  187MOL0     H25754   6.967   7.240  10.623 -0.5421  1.5474  1.4452
  187MOL0     H25755   7.316   7.117  10.723  1.4732  5.5298  0.8944
  187MOL0     H25756   7.505   7.005  10.639 -3.3241 -1.6188  0.4811
  187MOL0     H25757   7.564   7.051  10.477  0.3416 -1.5727 -1.3261
  187MOL0     H25758   7.378   6.825  10.535  0.7706 -1.1380 -0.5593
  187MOL0     H25759   7.455   6.862  10.382  2.6876 -3.6906 -0.0624
  187MOL0     H25760   7.683   6.806  10.470  0.5011 -1.1015 -0.4173
  187MOL0     H25761   7.604   6.791  10.630 -2.3646 -0.6648 -0.5660
  187MOL0     H25762   7.637   6.570  10.535 -0.2463 -2.5014 -4.3830
  187MOL0     H25763   7.466   6.612  10.558 -0.2024 -0.2918 -1.2390
  187MOL0     H25764   7.313   6.514  10.408 -1.9442 -1.5243 -0.6582
  187MOL0     H25765   7.125   6.391  10.342  2.3087  1.4435 -1.6091
  187MOL0     H25766   7.175   6.237  10.413  0.9972 -0.6120 -0.9248
  187MOL0     H25767   7.123   6.257  10.237  3.9159 -0.4650 -2.4027
  187MOL0     H25768   7.294   6.200   9.810 -2.1803  0.5470 -0.1983
  187MOL0     H25769   7.200   6.048   9.624 -2.6207  1.1874  1.9645
  187MOL0     H25770   7.308   5.595   9.613 -0.4468 -0.8302  2.1129
  187MOL0     H25771   7.158   5.641   9.678 -0.3729 -4.8824 -0.2740
  187MOL0     H25772   7.112   5.521   9.455 -0.0716  0.9800  0.2606
  187MOL0     H25773   7.094   5.686   9.409 -1.1882 -1.6390 -1.0378
  187MOL0     H25774   7.345   5.527   9.372 -0.5269 -1.0609 -1.5771
  187MOL0     H25775   7.332   5.698   9.348  2.2589 -1.1957 -0.3337
  187MOL0     H25776   7.098   5.600   9.214  0.5012 -0.0173 -0.8465
  187MOL0     H25777   7.201   5.455   9.230  0.8934 -0.2066  4.2516
  187MOL0     H25778   7.277   5.708   9.076  0.3065 -0.5573 -3.2997
  187MOL0     H25779   7.398   5.595   9.118  1.0181 -0.8928 -0.2801
  187MOL0     H25780   7.148   5.539   8.938 -0.5779 -1.4326  1.9320
  187MOL0     H25781   7.258   5.416   8.973  0.7088 -0.3842 -2.8356
  187MOL0     H25782   7.303   5.503   8.754 -0.8800  0.3874  0.8752
  187MOL0     H25783   7.445   5.525   8.857 -0.0681 -0.8909  0.4264
  187MOL0     H25784   7.403   5.713   8.714 -1.3509  4.6524 -1.3486
  187MOL0     H25785   7.382   5.765   8.887  4.8153  0.3199 -1.3933
  187MOL0     H25786   7.356   5.712   9.810 -0.5666 -0.4445  0.7234
  187MOL0     H25787   7.455   5.857  10.000  0.7095  0.1302 -1.6478
  187MOL0     H25788   7.583   6.260  10.080 -0.1008 -1.8263  0.2524
  187MOL0     H25789   7.671   6.483  10.192 -0.4867  2.0274  0.9909
  187MOL0     H25790   6.984   8.263  10.839 -2.1597  0.8361  0.5886
  187MOL0     H25791   7.048   8.481  10.863 -0.2449 -0.8684 -0.7118
  187MOL0     H25792   7.029   8.831  11.156 -2.1719  1.9541 -1.9001
  187MOL0     H25793   7.033   9.087  11.111 -1.0327  0.0674 -0.1824
  187MOL0     H25794   7.077   9.262  10.999  0.8742 -0.0559  1.8396
  187MOL0     H25795   7.085   9.313  11.163 -1.2729  0.1500 -0.3917
  187MOL0     H25796   7.074   9.494  11.022  0.4964 -0.3763 -1.8126
  187MOL0     H25797   7.221   9.440  10.942  1.7400 -4.4301  2.1104
  187MOL0     H25798   7.243   9.482  11.241 -1.5136  0.8304 -0.0282
  187MOL0     H25799   7.366   9.474  11.104 -1.0927 -1.3005  0.8596
  187MOL0     H25800   7.386   9.683  11.189  0.2737  0.3014 -0.7249
  187MOL0     H25801   7.209   9.721  11.180 -1.3351 -1.1815 -1.7523
  187MOL0     H25802   7.277   9.785  10.782  3.7813 -0.3058 -0.5111
  187MOL0     H25803   7.456   9.068  11.083  0.2288  1.4807  2.5700
  187MOL0     H25804   7.537   8.821  11.012 -2.2798 -1.5256 -1.7883
  187MOL0     H25805   7.558   8.811  11.193  5.5859 -1.0919 -3.0360
  187MOL0     H25806   7.479   8.686  11.105 -0.7863  0.6691  0.8600
  188MOL0     O25807  10.703   5.076   2.640 -0.3636  0.1739  0.1264
  188MOL0     C25808  10.662   4.972   2.585 -0.2032  0.2743  0.6465
  188MOL0     O25809  10.739   4.860   2.569 -0.3801 -0.1750 -0.2628
  188MOL0     C25810  10.874   4.872   2.541 -0.2159  0.9317 -0.4876
  188MOL0     C25811  10.931   4.764   2.463 -0.2404  0.0925  0.1681
  188MOL0     C25812  11.069   4.765   2.433 -0.7240  0.8001  0.4268
  188MOL0     C25813  11.149   4.859   2.492  0.3561  0.3328 -0.2345
  188MOL0     O25814  11.287   4.865   2.479 -0.6364 -0.3149 -0.0512
  188MOL0     C25815  11.361   4.744   2.473  0.0350  0.3066 -0.2325
  188MOL0     C25816  11.486   4.760   2.552 -0.0676  0.4644  0.6274
  188MOL0     C25817  11.585   4.848   2.472  0.0114 -0.7460 -0.6038
  188MOL0     C25818  11.721   4.864   2.560 -0.2902 -0.1519  0.0520
  188MOL0     C25819  11.829   4.940   2.484  0.7312  0.1986  0.3446
  188MOL0     C25820  11.974   4.907   2.507 -0.3050  0.4782 -0.7012
  188MOL0     C25821  12.048   5.004   2.416 -0.1379  0.5288  0.8515
  188MOL0     C25822  12.058   4.968   2.255  0.6425  0.2568 -0.7751
  188MOL0     N25823  12.148   4.850   2.239 -0.0792 -0.3982  0.1296
  188MOL0     C25824  12.290   4.848   2.236  0.8868 -0.5632  0.8128
  188MOL0     C25825  12.314   4.717   2.197  0.5181 -0.1862  0.1533
  188MOL0     C25826  12.444   4.658   2.147 -0.0406  0.6712 -0.0718
  188MOL0     C25827  12.552   4.677   2.256 -0.0044 -0.6964  0.5987
  188MOL0     C25828  12.644   4.557   2.255  0.6275 -1.2681  0.2599
  188MOL0     C25829  12.788   4.583   2.277 -0.2053  0.0837 -1.0432
  188MOL0     O25830  12.822   4.686   2.186 -0.3482 -0.3440  0.4909
  188MOL0     C25831  12.907   4.793   2.215 -0.9129  0.2156 -0.0764
  188MOL0     C25832  12.996   4.796   2.329 -0.1091 -0.7421 -0.4750
  188MOL0     C25833  13.096   4.899   2.347  0.1724  0.5861 -0.6183
  188MOL0     C25834  13.182   4.895   2.480  0.0986  0.0986  0.2043
  188MOL0     C25835  13.100   5.001   2.253 -0.8153 -0.1662 -0.1832
  188MOL0     C25836  13.195   5.113   2.257  0.2718  0.2335 -0.4618
  188MOL0     O25837  13.154   5.232   2.211  0.3567 -0.6431 -0.3480
  188MOL0     C25838  13.239   5.336   2.239  0.1278  0.0977  0.7126
  188MOL0     C25839  13.353   5.361   2.158 -0.2507 -0.5734 -0.6338
  188MOL0     C25840  13.429   5.482   2.171 -0.0585  0.0694 -0.4433
  188MOL0     C25841  13.381   5.586   2.257 -0.8775  0.5021  0.5503
  188MOL0     O25842  13.433   5.706   2.285 -1.3822  0.0431  0.2077
  188MOL0     C25843  13.577   5.726   2.301  0.5153  0.1263  0.4698
  188MOL0     C25844  13.595   5.843   2.391 -0.3983  0.1000 -1.5109
  188MOL0     C25845  13.566   5.974   2.314 -0.2486 -0.1046  0.1305
  188MOL0     C25846  13.674   6.077   2.342  0.0043 -0.2668 -0.7065
  188MOL0     C25847  13.663   6.225   2.296  0.1341 -0.3797  0.0831
  188MOL0     C25848  13.773   6.315   2.361  0.4240  0.6314 -0.0558
  188MOL0     C25849  13.760   6.465   2.328  0.9001  0.4310  1.0426
  188MOL0     C25850  13.675   6.540   2.425 -0.0762 -0.0051  0.3948
  188MOL0    Cl25851  13.655   6.700   2.372 -0.3961  0.0362 -0.0806
  188MOL0     C25852  13.279   5.554   2.343 -0.4048 -0.8487 -0.2753
  188MOL0     C25853  13.200   5.438   2.331 -0.5730 -0.1299 -0.2994
  188MOL0     O25854  13.302   5.092   2.313 -0.0165  0.0466  0.4088
  188MOL0     C25855  12.998   5.008   2.149 -1.0563 -0.0304 -0.0909
  188MOL0     C25856  12.898   4.902   2.133  0.1797 -1.2395 -0.0514
  188MOL0     N25857  12.196   4.649   2.182  0.2408  0.1372  0.1038
  188MOL0     N25858  12.096   4.732   2.216  0.0682 -0.1743  0.3374
  188MOL0     C25859  11.099   4.955   2.578  0.2700  0.7812 -0.2400
  188MOL0     C25860  10.959   4.953   2.608  0.6641 -0.3789 -0.6921
  188MOL0     C25861  10.518   4.955   2.536 -0.0828 -1.1505  0.6049
  188MOL0     C25862  10.493   4.865   2.431  1.0698  0.5675 -0.5989
  188MOL0     C25863  10.366   4.853   2.371  0.6353  0.1115  0.5698
  188MOL0     C25864  10.259   4.919   2.431  0.0783  0.9981  0.3474
  188MOL0     O25865  10.130   4.903   2.393  0.4713  0.7421 -0.0609
  188MOL0     C25866  10.090   4.962   2.268 -0.2554 -0.0029  0.7811
  188MOL0     C25867   9.959   5.034   2.273  0.2599 -0.0478  0.4376
  188MOL0     C25868   9.829   4.954   2.294 -0.0686  0.8466  0.6675
  188MOL0     C25869   9.703   5.040   2.316 -0.7290  0.0387 -0.8982
  188MOL0     C25870   9.588   4.952   2.312  0.0792  0.5534  0.2649
  188MOL0     C25871   9.491   4.882   2.296 -0.2312 -0.4220 -0.1879
  188MOL0     C25872  10.284   5.005   2.535 -0.1487  0.2032  0.8457
  188MOL0     C25873  10.410   5.016   2.600  0.3887  0.3236  0.7140
  188MOL0     C25874  10.424   5.105   2.717 -0.1457 -0.4119 -0.7382
  188MOL0     H25875  10.860   4.687   2.435  0.0519 -0.5842  1.2279
  188MOL0     H25876  11.120   4.695   2.368 -2.0757  1.1671 -1.1142
  188MOL0     H25877  11.390   4.735   2.368  1.2492 -0.9894  0.1790
  188MOL0     H25878  11.308   4.659   2.516 -1.8862  1.5189 -0.0674
  188MOL0     H25879  11.469   4.792   2.655 -2.9403  0.0161  0.3819
  188MOL0     H25880  11.532   4.661   2.547  0.9822  0.9652 -3.1127
  188MOL0     H25881  11.615   4.824   2.370 -0.5765  1.8766 -1.4425
  188MOL0     H25882  11.542   4.947   2.458  5.9379  2.3002 -0.6154
  188MOL0     H25883  11.700   4.901   2.660 -0.2685 -2.4142  0.9418
  188MOL0     H25884  11.775   4.771   2.577  1.3126  0.5730 -0.8229
  188MOL0     H25885  11.819   5.047   2.504 -0.3830  0.1653  0.0731
  188MOL0     H25886  11.810   4.921   2.378  0.0389  3.1211 -0.1405
  188MOL0     H25887  11.999   4.921   2.612 -3.9427  0.5810  0.3015
  188MOL0     H25888  11.996   4.803   2.481  0.2721  0.2839  0.5071
  188MOL0     H25889  12.145   5.012   2.465  0.8514 -0.0970 -0.8961
  188MOL0     H25890  12.010   5.106   2.420  0.0439  0.7422 -1.3723
  188MOL0     H25891  11.964   4.952   2.202  2.1783 -0.4386 -3.5160
  188MOL0     H25892  12.092   5.055   2.198  1.0437  0.9778  0.5301
  188MOL0     H25893  12.360   4.929   2.252 -1.5053  1.3782  2.1468
  188MOL0     H25894  12.478   4.708   2.056  0.0636  3.3678  1.3556
  188MOL0     H25895  12.429   4.551   2.126  0.0881  0.3431  1.3464
  188MOL0     H25896  12.588   4.779   2.243  0.9664 -1.4010 -3.8714
  188MOL0     H25897  12.506   4.676   2.355  0.1543  0.7719  0.7007
  188MOL0     H25898  12.601   4.484   2.325 -2.4354  1.7449  1.7927
  188MOL0     H25899  12.648   4.515   2.154  0.9732 -1.5290  0.3806
  188MOL0     H25900  12.800   4.615   2.381  0.5746  0.1247 -1.1351
  188MOL0     H25901  12.842   4.488   2.266 -2.0609 -1.6380  2.8571
  188MOL0     H25902  12.989   4.722   2.408  0.4436  1.0574  1.3563
  188MOL0     H25903  13.222   4.993   2.505  1.1748 -0.2847  0.0351
  188MOL0     H25904  13.265   4.826   2.460 -0.3171 -0.2518 -0.3303
  188MOL0     H25905  13.122   4.853   2.561  2.0509 -3.2233  0.1307
  188MOL0     H25906  13.376   5.294   2.076  0.8250  0.7245 -1.4281
  188MOL0     H25907  13.515   5.491   2.105 -0.6444 -0.7976 -1.3540
  188MOL0     H25908  13.618   5.634   2.345  1.4274  0.8911  1.2548
  188MOL0     H25909  13.624   5.737   2.203  0.5949 -0.1347  0.4777
  188MOL0     H25910  13.540   5.826   2.484  1.8612 -2.0930 -0.4336
  188MOL0     H25911  13.702   5.836   2.412 -0.6859  0.4278  0.2524
  188MOL0     H25912  13.476   6.021   2.353  0.4879  1.2962  0.2051
  188MOL0     H25913  13.555   5.957   2.207  0.5876  0.3110 -0.0319
  188MOL0     H25914  13.758   6.031   2.289 -1.0600 -0.4734 -2.2620
  188MOL0     H25915  13.691   6.077   2.450 -0.3447  2.9683 -0.5275
  188MOL0     H25916  13.652   6.235   2.187  0.6019  0.5546  0.1136
  188MOL0     H25917  13.572   6.271   2.335  1.5572  1.8336  0.9783
  188MOL0     H25918  13.869   6.281   2.322 -1.2625 -0.0418 -4.2519
  188MOL0     H25919  13.766   6.299   2.469  0.5482  0.1649 -0.1182
  188MOL0     H25920  13.747   6.481   2.221 -0.3908  2.5405  1.4697
  188MOL0     H25921  13.856   6.516   2.342  1.3439  0.3540 -1.3219
  188MOL0     H25922  13.710   6.545   2.529  1.3870  0.3999 -0.1009
  188MOL0     H25923  13.574   6.498   2.421  0.3270 -0.8534 -1.9612
  188MOL0     H25924  13.241   5.634   2.406 -1.9035 -1.5692 -0.2292
  188MOL0     H25925  13.116   5.412   2.395  1.6370 -0.4275  2.7204
  188MOL0     H25926  12.999   5.099   2.090 -1.0390  0.2417  0.3192
  188MOL0     H25927  12.815   4.889   2.065 -0.2890  0.4086  0.1600
  188MOL0     H25928  11.160   5.033   2.622 -0.9322  2.7078 -1.8212
  188MOL0     H25929  10.931   5.017   2.691 -1.9490 -1.4373 -0.6456
  188MOL0     H25930  10.568   4.798   2.390 -0.2473  0.6422 -3.3350
  188MOL0     H25931  10.360   4.776   2.294  2.0916 -0.2579  0.8089
  188MOL0     H25932  10.168   5.034   2.241 -0.1935 -0.0239  0.9036
  188MOL0     H25933  10.088   4.887   2.189 -1.3708  4.7405 -4.3116
  188MOL0     H25934   9.963   5.099   2.185  1.7967 -1.1701 -0.3771
  188MOL0     H25935   9.959   5.098   2.362 -0.4846  0.0636  0.3633
  188MOL0     H25936   9.807   4.891   2.207  1.0138 -0.9451  1.6233
  188MOL0     H25937   9.836   4.883   2.377 -2.1694 -0.9782 -0.5904
  188MOL0     H25938   9.711   5.106   2.229  1.5225  0.5122 -0.3879
  188MOL0     H25939   9.710   5.088   2.414 -0.4500 -3.2220  0.8012
  188MOL0     H25940   9.408   4.815   2.290  2.3245 -3.9630  0.7349
  188MOL0     H25941  10.184   5.038   2.557 -1.0389 -1.8730  0.1678
  188MOL0     H25942  10.332   5.124   2.773  1.5464 -1.1791  2.5449
  188MOL0     H25943  10.490   5.068   2.796  1.1647  1.3796 -0.9027
  188MOL0     H25944  10.474   5.194   2.675 -0.2161 -1.0834 -2.3073
  189MOL0     O25945   9.556   3.447  11.156 -0.2916  0.2557  0.1648
  189MOL0     C25946   9.543   3.526  11.248  0.0743  0.7782 -1.0930
  189MOL0     O25947   9.586   3.514  11.379 -0.3058  1.0291  0.2404
  189MOL0     C25948   9.646   3.406  11.433  0.6480 -0.1337 -1.1170
  189MOL0     C25949   9.722   3.421  11.549  0.8759  0.6272 -0.5651
  189MOL0     C25950   9.759   3.319  11.637  0.7892 -0.7587  0.6239
  189MOL0     C25951   9.740   3.187  11.589  0.0425 -0.5970  0.8979
  189MOL0     O25952   9.796   3.089  11.665 -0.8731 -0.4317 -0.3914
  189MOL0     C25953   9.718   2.972  11.680 -0.3991 -0.2773  0.1955
  189MOL0     C25954   9.775   2.861  11.592  0.0815  0.1080 -0.4483
  189MOL0     C25955   9.683   2.748  11.578 -0.5604  0.6013  0.3045
  189MOL0     C25956   9.617   2.703  11.711  0.1178 -0.0969 -0.0126
  189MOL0     C25957   9.548   2.568  11.680  0.0206  0.4572  0.1926
  189MOL0     C25958   9.411   2.571  11.601 -0.5061 -0.6408  0.7491
  189MOL0     C25959   9.308   2.635  11.678 -0.6837 -0.1234 -0.5996
  189MOL0     C25960   9.167   2.586  11.645 -0.3776  0.1011 -0.1401
  189MOL0     N25961   9.133   2.640  11.518  0.1908  0.0766  0.3174
  189MOL0     C25962   9.031   2.726  11.505  0.2862  0.2795  0.3285
  189MOL0     C25963   9.002   2.714  11.373 -0.2075  0.4537  0.5599
  189MOL0     C25964   8.887   2.778  11.301  0.2563  0.2034 -0.8612
  189MOL0     C25965   8.901   2.926  11.261  0.3469  0.0375  0.9638
  189MOL0     C25966   9.009   2.943  11.151  0.0412 -0.3956 -0.1369
  189MOL0     C25967   9.022   3.097  11.119  0.2725  0.4544  0.2558
  189MOL0     O25968   8.898   3.146  11.070  1.0035  0.0115  0.3270
  189MOL0     C25969   8.888   3.282  11.050  0.4059 -0.2346  0.4873
  189MOL0     C25970   8.990   3.377  11.058 -0.0323 -0.3772  0.3041
  189MOL0     C25971   8.958   3.510  11.032 -0.1697  0.2464  0.3288
  189MOL0     C25972   9.071   3.611  11.014  0.2097  0.4329 -0.5198
  189MOL0     C25973   8.829   3.563  11.005  0.1305  0.2556 -0.7464
  189MOL0     C25974   8.790   3.701  10.965 -0.0262 -0.0027  1.3072
  189MOL0     O25975   8.653   3.727  10.980  0.7684 -0.3166  0.3709
  189MOL0     C25976   8.608   3.833  10.910  0.8051  0.1081  0.1262
  189MOL0     C25977   8.515   3.808  10.817 -0.2160  0.5234 -0.1008
  189MOL0     C25978   8.463   3.911  10.739 -0.0583 -0.2747  0.0853
  189MOL0     C25979   8.505   4.051  10.760  0.3739  0.1220 -0.5746
  189MOL0     O25980   8.452   4.160  10.691 -0.6496  0.3299 -0.5557
  189MOL0     C25981   8.301   4.171  10.683 -0.3401 -0.5832  0.4687
  189MOL0     C25982   8.240   4.168  10.824  0.4635 -0.2908  0.1668
  189MOL0     C25983   8.088   4.209  10.812 -0.2880 -0.4778 -0.2962
  189MOL0     C25984   8.018   4.236  10.947  0.3391 -0.3741  0.5516
  189MOL0     C25985   7.867   4.239  10.939  0.1016  0.7033 -0.3635
  189MOL0     C25986   7.794   4.216  11.071 -0.5403 -0.0220  0.0943
  189MOL0     C25987   7.644   4.227  11.043  0.4837 -0.1609 -0.0466
  189MOL0     C25988   7.548   4.211  11.167  0.2521 -0.1351  0.4401
  189MOL0    Cl25989   7.570   4.075  11.279 -0.1716 -0.0772  0.2875
  189MOL0     C25990   8.601   4.075  10.866  0.5012  0.3658  0.8347
  189MOL0     C25991   8.647   3.966  10.942  0.2663 -0.1867  0.3726
  189MOL0     O25992   8.867   3.767  10.903 -0.0061  0.2164 -0.3853
  189MOL0     C25993   8.729   3.469  11.011 -0.0481  0.2053 -0.2052
  189MOL0     C25994   8.761   3.329  11.016  0.7809 -0.1898  0.1962
  189MOL0     N25995   9.096   2.633  11.306  0.1473 -0.8099 -0.0489
  189MOL0     N25996   9.165   2.576  11.400  0.6288  0.2069 -0.4324
  189MOL0     C25997   9.670   3.160  11.467  0.7592 -1.1886  0.0260
  189MOL0     C25998   9.634   3.275  11.387  1.5587 -1.0590 -0.1233
  189MOL0     C25999   9.469   3.651  11.230  0.1596  0.1933 -0.3796
  189MOL0     C26000   9.443   3.736  11.343  0.3797  0.8640 -0.0142
  189MOL0     C26001   9.381   3.852  11.327 -1.2791 -0.1793  0.2619
  189MOL0     C26002   9.316   3.891  11.211 -0.1382  0.0407 -0.5143
  189MOL0     O26003   9.241   4.005  11.211  0.1652  1.2974 -0.4482
  189MOL0     C26004   9.104   3.980  11.184 -0.2222 -0.0721 -0.5169
  189MOL0     C26005   9.036   3.911  11.303  0.2414  0.2041 -0.2670
  189MOL0     C26006   9.008   4.012  11.418 -0.3908 -0.5181 -0.0514
  189MOL0     C26007   9.130   4.085  11.486  0.0998  0.0669 -0.0309
  189MOL0     C26008   9.076   4.177  11.596 -0.4445 -0.7242 -0.5582
  189MOL0     C26009   9.034   4.260  11.680  0.2161  0.4546 -0.1749
  189MOL0     C26010   9.354   3.819  11.095  0.6760 -0.6119  0.1037
  189MOL0     C26011   9.419   3.691  11.100 -0.6807  0.1714 -0.0571
  189MOL0     C26012   9.456   3.626  10.970 -0.0680 -0.7865  0.2038
  189MOL0     H26013   9.737   3.522  11.587  1.2400  0.3604  0.0156
  189MOL0     H26014   9.802   3.327  11.737  0.0234 -1.4679  1.0199
  189MOL0     H26015   9.610   2.982  11.663 -0.6406 -1.3351  1.0292
  189MOL0     H26016   9.725   2.950  11.787 -2.4408 -1.9422  0.0634
  189MOL0     H26017   9.805   2.906  11.497 -0.7773  1.5946 -0.0560
  189MOL0     H26018   9.862   2.830  11.650  0.7935 -0.3358 -1.7306
  189MOL0     H26019   9.616   2.795  11.504  2.2292 -0.0209 -2.8586
  189MOL0     H26020   9.730   2.664  11.525  2.2256  2.8549 -1.0561
  189MOL0     H26021   9.692   2.677  11.787 -2.1733 -2.1869  1.7323
  189MOL0     H26022   9.551   2.777  11.757 -2.3449 -1.7252 -0.7441
  189MOL0     H26023   9.531   2.532  11.781  0.7011 -0.1726  0.0911
  189MOL0     H26024   9.616   2.498  11.631  0.8023  1.4215 -0.1377
  189MOL0     H26025   9.419   2.613  11.501 -0.3586 -1.0386  0.5907
  189MOL0     H26026   9.383   2.467  11.582 -0.5588 -0.4180 -0.4288
  189MOL0     H26027   9.326   2.743  11.667 -1.3241 -0.0674 -1.0863
  189MOL0     H26028   9.324   2.608  11.783  0.4656  1.4920 -0.3099
  189MOL0     H26029   9.154   2.477  11.642  0.0156  0.0459  0.0807
  189MOL0     H26030   9.096   2.627  11.717  0.9427  0.9417  0.7227
  189MOL0     H26031   8.974   2.777  11.582 -3.2314 -3.7270  0.7702
  189MOL0     H26032   8.812   2.776  11.380 -2.8873  6.4263 -3.0159
  189MOL0     H26033   8.855   2.720  11.214  0.6899  1.9332 -2.2318
  189MOL0     H26034   8.801   2.962  11.233  0.2978  0.0342  1.1333
  189MOL0     H26035   8.927   2.976  11.354 -1.8280  0.9980  1.1348
  189MOL0     H26036   9.103   2.896  11.180  0.4426 -0.6179 -1.7438
  189MOL0     H26037   8.962   2.884  11.072  0.4613 -0.2020 -0.5298
  189MOL0     H26038   9.048   3.148  11.212 -0.5373  1.8510 -0.2604
  189MOL0     H26039   9.109   3.118  11.056  0.4833 -0.6924  0.1376
  189MOL0     H26040   9.094   3.353  11.077  0.2617 -0.0506 -0.8034
  189MOL0     H26041   9.052   3.700  11.075  3.2176 -0.2769  1.6672
  189MOL0     H26042   9.097   3.628  10.909 -0.2549  0.0293 -0.7019
  189MOL0     H26043   9.165   3.577  11.059 -1.1127 -0.6040  1.6250
  189MOL0     H26044   8.465   3.714  10.799 -2.8824  1.6486  0.8376
  189MOL0     H26045   8.397   3.889  10.656  0.1472  1.3847 -0.5467
  189MOL0     H26046   8.283   4.269  10.638 -0.6259  0.7079  3.2269
  189MOL0     H26047   8.261   4.096  10.613 -1.3502  1.2199 -0.9589
  189MOL0     H26048   8.239   4.064  10.858  2.3612  0.0415  1.4319
  189MOL0     H26049   8.288   4.239  10.892  4.0000  1.8625 -4.0642
  189MOL0     H26050   8.031   4.130  10.761  1.1196 -0.1108 -2.5392
  189MOL0     H26051   8.078   4.298  10.749 -2.7539  0.2312  0.9533
  189MOL0     H26052   8.060   4.326  10.994 -1.4916  0.7615  0.1257
  189MOL0     H26053   8.062   4.154  11.004  1.6296 -0.0309  0.0865
  189MOL0     H26054   7.843   4.336  10.896  0.4629  2.1909  2.5739
  189MOL0     H26055   7.833   4.164  10.866 -0.7316 -2.1181  2.6670
  189MOL0     H26056   7.824   4.293  11.142 -0.7050  0.1369 -0.0081
  189MOL0     H26057   7.812   4.121  11.122 -1.2401  0.5892  1.5185
  189MOL0     H26058   7.629   4.145  10.973 -2.4552 -0.4339  0.7996
  189MOL0     H26059   7.614   4.320  10.995  2.7405  0.9245  0.4807
  189MOL0     H26060   7.444   4.212  11.134  0.2178 -0.6371  0.5191
  189MOL0     H26061   7.564   4.307  11.216 -2.3019  1.8609 -2.3223
  189MOL0     H26062   8.639   4.171  10.900  0.3530  0.3222  1.1312
  189MOL0     H26063   8.716   3.985  11.023 -1.6954 -2.1966  2.6571
  189MOL0     H26064   8.626   3.486  10.979  0.3878  1.4371 -1.0650
  189MOL0     H26065   8.680   3.258  11.006 -0.6597  1.3957  0.1583
  189MOL0     H26066   9.638   3.058  11.443 -0.9077 -0.7681  0.3063
  189MOL0     H26067   9.578   3.260  11.295  2.6554  0.5907 -1.1135
  189MOL0     H26068   9.492   3.708  11.435  3.4952 -0.1688 -1.8414
  189MOL0     H26069   9.373   3.902  11.423 -0.0454  5.0659 -1.9752
  189MOL0     H26070   9.049   4.066  11.144  0.6087  0.5905 -0.2651
  189MOL0     H26071   9.102   3.910  11.100 -0.9627 -1.6260  0.7478
  189MOL0     H26072   9.094   3.827  11.341  1.1337  1.3700  1.0690
  189MOL0     H26073   8.943   3.885  11.252  0.8872 -0.1577 -1.2872
  189MOL0     H26074   8.942   4.087  11.373 -1.6744  0.3473  3.0649
  189MOL0     H26075   8.945   3.958  11.489 -0.9134 -1.8061 -1.4310
  189MOL0     H26076   9.183   4.148  11.413  0.8614  1.3745  1.5894
  189MOL0     H26077   9.200   4.015  11.532  0.3299  0.5350  0.3396
  189MOL0     H26078   9.004   4.350  11.729 -2.3009  1.0053 -2.5078
  189MOL0     H26079   9.323   3.861  11.000  2.9507 -0.8077 -0.7923
  189MOL0     H26080   9.562   3.644  10.947 -0.6775  1.7713 -0.8992
  189MOL0     H26081   9.441   3.517  10.971  0.4455 -0.8612  0.5359
  189MOL0     H26082   9.399   3.668  10.887  0.2180  2.0125  1.3133
  190MOL0     O26083   4.549   9.273   3.862  0.1914  0.9707 -0.4803
  190MOL0     C26084   4.536   9.199   3.967 -0.2385 -0.5718 -0.2382
  190MOL0     O26085   4.423   9.131   3.989  0.3080  0.2234 -0.2814
  190MOL0     C26086   4.335   9.110   3.886  0.2643 -0.4696 -0.2264
  190MOL0     C26087   4.364   9.079   3.752  0.2239  0.1651  0.1067
  190MOL0     C26088   4.265   9.077   3.654 -0.6351 -0.4974  0.2439
  190MOL0     C26089   4.136   9.104   3.697  0.5268 -0.5904 -0.3361
  190MOL0     O26090   4.023   9.103   3.611 -0.1040  0.0022 -1.2471
  190MOL0     C26091   4.026   9.002   3.512  0.1357 -0.6510  0.4892
  190MOL0     C26092   3.878   8.975   3.462 -0.3299  0.6479 -0.6858
  190MOL0     C26093   3.894   8.864   3.365 -0.0981  0.9401  0.2027
  190MOL0     C26094   3.762   8.779   3.352  0.0806 -0.0557 -0.4917
  190MOL0     C26095   3.784   8.647   3.267  0.1608  0.6394  0.5143
  190MOL0     C26096   3.667   8.545   3.276 -0.3420  0.0840  0.3140
  190MOL0     C26097   3.534   8.612   3.232  0.7821  0.8560 -0.5860
  190MOL0     C26098   3.433   8.521   3.167  0.5270 -0.3578  0.5156
  190MOL0     N26099   3.317   8.599   3.119 -0.0124  0.0989  0.1519
  190MOL0     C26100   3.281   8.620   2.988  0.3437  0.1731 -0.0793
  190MOL0     C26101   3.162   8.686   3.002  0.3668 -0.2924 -0.1556
  190MOL0     C26102   3.084   8.744   2.886  0.1102 -0.1210  0.8216
  190MOL0     C26103   3.132   8.886   2.865 -0.3736  0.4049 -0.0848
  190MOL0     C26104   3.082   8.965   2.740 -0.7005  0.1135 -0.2621
  190MOL0     C26105   3.084   8.884   2.613 -0.1733 -0.7649 -0.4601
  190MOL0     O26106   3.053   8.975   2.504  0.2846  0.0653  0.1652
  190MOL0     C26107   3.139   8.963   2.394  0.0550 -0.1538 -0.5169
  190MOL0     C26108   3.094   8.882   2.287 -0.0775 -0.3431  0.6341
  190MOL0     C26109   3.178   8.820   2.191  0.5643  0.1852  0.1285
  190MOL0     C26110   3.105   8.705   2.105 -1.1893  0.5799  1.0592
  190MOL0     C26111   3.317   8.859   2.202 -0.3084  0.9266 -0.2176
  190MOL0     C26112   3.421   8.813   2.104  0.4340 -0.4058 -0.2324
  190MOL0     O26113   3.518   8.898   2.080  0.6086 -0.5276  0.1507
  190MOL0     C26114   3.631   8.849   2.028  0.1782  0.1144 -0.0719
  190MOL0     C26115   3.654   8.877   1.894 -0.6876 -0.3234  0.1191
  190MOL0     C26116   3.775   8.844   1.833 -0.7856 -0.6506 -0.0732
  190MOL0     C26117   3.883   8.789   1.909  0.4526 -0.1302 -0.2930
  190MOL0     O26118   4.008   8.751   1.860  0.5107  0.3658 -0.0641
  190MOL0     C26119   4.054   8.853   1.772  0.5535 -1.1035 -0.3029
  190MOL0     C26120   4.207   8.841   1.776 -0.0490  0.3139  0.4214
  190MOL0     C26121   4.264   8.923   1.665 -0.7577  0.5841  0.3758
  190MOL0     C26122   4.420   8.920   1.662 -0.0915  1.0905  0.2052
  190MOL0     C26123   4.469   8.991   1.532 -0.4516  0.7189 -0.2664
  190MOL0     C26124   4.620   9.002   1.527 -0.4105 -0.8526 -0.2690
  190MOL0     C26125   4.675   9.057   1.401 -0.0033  0.9660 -0.3259
  190MOL0     C26126   4.624   9.188   1.356 -0.3706  0.0277  0.2642
  190MOL0    Cl26127   4.728   9.316   1.418 -0.4613 -0.1221  0.2066
  190MOL0     C26128   3.853   8.758   2.039 -0.1778 -0.4001  0.0250
  190MOL0     C26129   3.737   8.788   2.100  1.4500 -1.4612 -0.3156
  190MOL0     O26130   3.413   8.714   2.036 -0.8822  0.8814  0.3066
  190MOL0     C26131   3.352   8.956   2.301  0.3851 -0.3851  1.9326
  190MOL0     C26132   3.265   9.010   2.389 -0.0190  0.2774 -0.3212
  190MOL0     N26133   3.134   8.712   3.131  0.1337  0.7367  0.1773
  190MOL0     N26134   3.226   8.659   3.199  1.0110 -0.1998 -0.1238
  190MOL0     C26135   4.106   9.120   3.831 -1.0836 -0.0789  0.4825
  190MOL0     C26136   4.201   9.129   3.929  0.1197 -0.3215  0.5166
  190MOL0     C26137   4.650   9.205   4.061  0.2327 -0.6389  0.1567
  190MOL0     C26138   4.765   9.275   4.032 -0.4215 -0.4298 -0.2601
  190MOL0     C26139   4.871   9.297   4.120 -0.2282 -0.7433 -0.0406
  190MOL0     C26140   4.870   9.247   4.249  0.0576  0.4986 -0.0633
  190MOL0     O26141   4.975   9.287   4.328 -0.1035 -0.3148  0.3932
  190MOL0     C26142   4.961   9.282   4.465  0.0518  0.0314 -0.2829
  190MOL0     C26143   5.081   9.356   4.525  0.0503 -0.6754  0.1825
  190MOL0     C26144   5.217   9.309   4.493 -0.1587 -0.5528  1.1534
  190MOL0     C26145   5.264   9.380   4.365 -1.0756 -0.6837  0.4681
  190MOL0     C26146   5.405   9.334   4.325 -0.1090 -0.3496  0.6645
  190MOL0     C26147   5.504   9.301   4.276 -0.4306 -1.0315  0.0412
  190MOL0     C26148   4.757   9.156   4.276 -0.5413 -0.9880  0.3003
  190MOL0     C26149   4.650   9.135   4.186  0.1248 -0.0455 -0.6418
  190MOL0     C26150   4.539   9.050   4.236  0.5244  0.6979  1.2393
  190MOL0     H26151   4.455   9.031   3.717 -0.7486 -0.7180 -1.3496
  190MOL0     H26152   4.292   9.051   3.552 -0.9088 -0.7623  0.2383
  190MOL0     H26153   4.074   8.913   3.553  0.7740  0.0603  1.3114
  190MOL0     H26154   4.082   9.037   3.424 -1.9516 -0.9669 -1.0607
  190MOL0     H26155   3.829   8.944   3.555  5.2408 -2.5858  1.6792
  190MOL0     H26156   3.830   9.060   3.413 -2.1112  0.9587  1.3938
  190MOL0     H26157   3.915   8.910   3.268 -0.8797  0.6275 -0.1296
  190MOL0     H26158   3.971   8.789   3.382 -0.8794 -0.4777 -2.0635
  190MOL0     H26159   3.744   8.740   3.453 -0.8568 -1.7691 -1.2635
  190MOL0     H26160   3.679   8.837   3.310  1.8658  3.2503  0.1856
  190MOL0     H26161   3.877   8.597   3.295 -0.8725 -1.5146  0.3863
  190MOL0     H26162   3.788   8.686   3.165 -1.3030  1.6475  0.8034
  190MOL0     H26163   3.675   8.453   3.217  0.4379  0.2757  0.1061
  190MOL0     H26164   3.656   8.510   3.379 -1.0959 -0.0468  0.1968
  190MOL0     H26165   3.558   8.685   3.154  0.2067  0.9877 -0.6500
  190MOL0     H26166   3.484   8.664   3.315 -2.6333  0.5037 -2.2484
  190MOL0     H26167   3.476   8.482   3.074 -0.6213 -0.5636  0.0528
  190MOL0     H26168   3.400   8.439   3.231 -0.6838  1.5204  2.4447
  190MOL0     H26169   3.336   8.598   2.896 -0.6139  1.9478 -1.1237
  190MOL0     H26170   2.976   8.751   2.902 -0.1915  0.4172 -1.2612
  190MOL0     H26171   3.108   8.675   2.805  2.4141 -0.9439  2.1195
  190MOL0     H26172   3.109   8.941   2.957 -0.8186 -0.0214  0.0605
  190MOL0     H26173   3.241   8.892   2.861 -0.3854  0.2005 -1.3029
  190MOL0     H26174   2.984   9.010   2.756 -0.4161  0.8891 -0.6649
  190MOL0     H26175   3.164   9.033   2.714  0.9195 -2.1022 -1.4040
  190MOL0     H26176   3.172   8.822   2.590  1.3214  1.6218 -1.5583
  190MOL0     H26177   3.000   8.814   2.613  0.2191 -1.2999 -2.5567
  190MOL0     H26178   2.987   8.861   2.289 -0.7522  2.7007  1.3107
  190MOL0     H26179   3.042   8.753   2.030 -1.2960  0.1430  0.8716
  190MOL0     H26180   3.037   8.645   2.165 -0.2254 -0.8637  0.7540
  190MOL0     H26181   3.177   8.633   2.064 -1.0127 -0.9581  3.8400
  190MOL0     H26182   3.576   8.921   1.832 -1.3997  0.4487  1.5274
  190MOL0     H26183   3.787   8.865   1.727 -0.1219 -0.7481 -0.0228
  190MOL0     H26184   4.005   8.851   1.675 -1.6659  0.9952  0.6618
  190MOL0     H26185   4.024   8.952   1.806  2.3534  0.3807 -2.6945
  190MOL0     H26186   4.242   8.874   1.874  0.8068  1.7900 -0.3561
  190MOL0     H26187   4.235   8.736   1.761  1.2725  0.9811 -2.4141
  190MOL0     H26188   4.233   9.027   1.681  0.5243  1.1894 -0.7777
  190MOL0     H26189   4.231   8.895   1.564 -0.5567 -1.0064  0.7312
  190MOL0     H26190   4.442   8.814   1.649 -3.1701  0.4834 -0.8347
  190MOL0     H26191   4.463   8.961   1.754  1.7961 -1.8900  0.8070
  190MOL0     H26192   4.424   8.945   1.444  2.2155 -0.3505 -1.1773
  190MOL0     H26193   4.443   9.097   1.539 -0.1765  0.7906 -0.3223
  190MOL0     H26194   4.659   8.900   1.537 -2.4614 -1.6271  0.4509
  190MOL0     H26195   4.664   9.061   1.607 -0.1637 -0.2948 -0.8052
  190MOL0     H26196   4.635   8.988   1.325 -1.7939  0.6819  0.8213
  190MOL0     H26197   4.783   9.059   1.418 -0.3372  0.3913  2.1484
  190MOL0     H26198   4.520   9.206   1.384 -0.0699  1.9352  0.2701
  190MOL0     H26199   4.632   9.196   1.247 -0.2825  2.4361  0.3984
  190MOL0     H26200   3.925   8.711   2.106  0.8334  0.3533 -0.4957
  190MOL0     H26201   3.736   8.765   2.206  0.0048  0.7776  0.2327
  190MOL0     H26202   3.457   8.982   2.293 -0.0100  0.7733 -0.8247
  190MOL0     H26203   3.297   9.065   2.477  1.2319  1.5757 -1.5249
  190MOL0     H26204   4.002   9.133   3.861 -1.1539 -1.6089  0.9856
  190MOL0     H26205   4.177   9.150   4.033 -1.2257  1.7896 -0.1652
  190MOL0     H26206   4.765   9.333   3.939  0.9767  0.7614  0.4402
  190MOL0     H26207   4.948   9.372   4.104 -0.6787 -0.2193  0.2207
  190MOL0     H26208   4.872   9.328   4.508 -0.0892  0.5102 -1.0716
  190MOL0     H26209   4.961   9.174   4.485 -1.0760 -0.2282 -1.5192
  190MOL0     H26210   5.069   9.361   4.634 -0.1675  1.5004  0.0929
  190MOL0     H26211   5.080   9.463   4.505  1.0123 -0.5595  0.6691
  190MOL0     H26212   5.281   9.342   4.575  0.0027  0.9062  0.4797
  190MOL0     H26213   5.214   9.201   4.475 -0.3759 -0.2739 -0.7264
  190MOL0     H26214   5.270   9.489   4.376 -0.7124 -0.3464 -2.3259
  190MOL0     H26215   5.200   9.359   4.279  0.4563  1.6983 -1.3974
  190MOL0     H26216   5.594   9.247   4.251 -0.7271 -2.6481  2.1727
  190MOL0     H26217   4.760   9.114   4.376 -1.5386  0.9499  1.1902
  190MOL0     H26218   4.521   8.969   4.164 -0.8056  3.4521 -1.8124
  190MOL0     H26219   4.561   9.004   4.333  1.0720 -0.7088  0.4801
  190MOL0     H26220   4.451   9.114   4.244  0.3924  0.6418  0.3417
  191MOL0     O26221   6.886   1.969   0.629 -0.0416  0.5019  0.0268
  191MOL0     C26222   6.935   1.951   0.733 -0.5139 -0.2729 -0.4061
  191MOL0     O26223   7.054   1.997   0.776 -0.1402  1.0036 -0.3813
  191MOL0     C26224   7.126   2.074   0.689 -0.6766 -0.5669 -0.0705
  191MOL0     C26225   7.128   2.215   0.701 -0.2489  0.5323  0.0057
  191MOL0     C26226   7.223   2.296   0.630  0.3528  0.2952 -0.3779
  191MOL0     C26227   7.310   2.233   0.542  0.4307 -0.7724 -0.6790
  191MOL0     O26228   7.399   2.303   0.462 -0.0909  0.7657 -0.0256
  191MOL0     C26229   7.438   2.434   0.505 -1.1036 -0.2791  1.0824
  191MOL0     C26230   7.515   2.488   0.387 -0.4563  0.0412  0.1028
  191MOL0     C26231   7.654   2.411   0.363 -0.2749 -0.4475  0.7147
  191MOL0     C26232   7.726   2.460   0.236  0.4981  0.0202  0.4216
  191MOL0     C26233   7.857   2.384   0.204  0.8656  0.0200  1.1176
  191MOL0     C26234   7.937   2.425   0.080 -0.6617 -0.0288 -0.5250
  191MOL0     C26235   8.059   2.343   0.049  0.5608 -0.1598 -0.2403
  191MOL0     C26236   8.184   2.435   0.022 -0.7048  0.2036  0.6899
  191MOL0     N26237   8.223   2.517   0.134  0.4539 -0.2837  0.3237
  191MOL0     C26238   8.274   2.478   0.259  0.8414 -0.2101 -0.0662
  191MOL0     C26239   8.316   2.601   0.314 -0.9790  0.1653 -0.0040
  191MOL0     C26240   8.370   2.598   0.458  1.8604  0.1125 -0.1400
  191MOL0     C26241   8.332   2.737   0.523 -0.5730 -1.3450  0.1761
  191MOL0     C26242   8.398   2.752   0.668  0.6618 -0.7582 -0.6152
  191MOL0     C26243   8.551   2.769   0.668  1.1140  0.6353 -0.3917
  191MOL0     O26244   8.595   2.807   0.802  0.3998 -0.2275  0.8982
  191MOL0     C26245   8.709   2.876   0.829 -0.1863  0.3227  1.0077
  191MOL0     C26246   8.758   2.882   0.955  0.2941  0.1520 -0.2852
  191MOL0     C26247   8.872   2.950   0.999 -0.5502 -0.2231  0.4085
  191MOL0     C26248   8.921   2.945   1.137  0.2156 -0.2532  0.4309
  191MOL0     C26249   8.936   3.035   0.909 -0.0686  0.3054 -0.3517
  191MOL0     C26250   9.046   3.136   0.939 -0.3215  0.6312  0.4275
  191MOL0     O26251   9.144   3.103   1.024  0.3474 -0.0062  0.4994
  191MOL0     C26252   9.243   3.189   1.062 -0.3002 -0.8916  0.3351
  191MOL0     C26253   9.214   3.315   1.117 -0.5667 -0.5435  0.5605
  191MOL0     C26254   9.326   3.399   1.143 -0.1548 -0.2898  0.3668
  191MOL0     C26255   9.457   3.346   1.139 -0.4329 -0.0531  0.1650
  191MOL0     O26256   9.567   3.414   1.190 -0.2416  0.3338  0.1691
  191MOL0     C26257   9.549   3.529   1.279 -1.1715 -0.9255  0.1177
  191MOL0     C26258   9.670   3.578   1.363  0.5804 -0.0412 -0.4394
  191MOL0     C26259   9.711   3.473   1.464  0.6187 -0.3947  0.3782
  191MOL0     C26260   9.843   3.518   1.536 -0.0582  0.5823  0.8965
  191MOL0     C26261   9.871   3.427   1.665  0.7350 -0.5285  0.4117
  191MOL0     C26262  10.000   3.451   1.734  0.5490  0.0190 -0.1718
  191MOL0     C26263  10.002   3.584   1.817 -0.2822  0.3896  0.1781
  191MOL0     C26264  10.134   3.607   1.897  1.0052  0.4086  0.8304
  191MOL0    Cl26265  10.270   3.626   1.787  0.2682  0.3107  0.0956
  191MOL0     C26266   9.474   3.214   1.099  0.0940  0.6460 -0.5259
  191MOL0     C26267   9.370   3.134   1.044 -0.3152 -0.5620 -0.6217
  191MOL0     O26268   9.058   3.217   0.846 -0.4757 -0.4797  0.2176
  191MOL0     C26269   8.879   3.033   0.778 -0.2280  0.8073 -0.1927
  191MOL0     C26270   8.780   2.946   0.735  0.0612  1.0428  1.4838
  191MOL0     N26271   8.268   2.705   0.239 -0.5020 -0.4190 -1.1810
  191MOL0     N26272   8.222   2.656   0.135  0.2953 -0.2964 -0.6297
  191MOL0     C26273   7.297   2.095   0.522 -0.3479 -0.2160 -0.1078
  191MOL0     C26274   7.210   2.014   0.598 -0.2571  0.6576  0.3052
  191MOL0     C26275   6.858   1.865   0.824  0.4975 -0.4493 -0.0452
  191MOL0     C26276   6.938   1.778   0.895  0.7860  0.4645 -0.3133
  191MOL0     C26277   6.885   1.693   0.993 -0.2819 -0.2617  0.3566
  191MOL0     C26278   6.749   1.686   1.016  0.7731  0.7271  0.1231
  191MOL0     O26279   6.701   1.627   1.127 -0.7088 -0.1814  0.5133
  191MOL0     C26280   6.714   1.484   1.121  0.7309 -0.6826  0.8670
  191MOL0     C26281   6.814   1.434   1.223  0.4886  0.0267  0.8431
  191MOL0     C26282   6.806   1.279   1.238  0.1472 -0.0431  0.6760
  191MOL0     C26283   6.907   1.202   1.327  0.2202 -0.2712  1.0485
  191MOL0     C26284   7.045   1.235   1.296  0.7271  0.0080  0.5402
  191MOL0     C26285   7.154   1.270   1.265 -0.0778 -0.5636 -0.5120
  191MOL0     C26286   6.654   1.762   0.937  0.3395 -0.1830  0.0592
  191MOL0     C26287   6.712   1.859   0.849  0.0374  0.4784  0.4159
  191MOL0     C26288   6.623   1.935   0.762 -0.4945 -0.5704 -0.3407
  191MOL0     H26289   7.055   2.261   0.767  0.1472  2.1844 -0.6375
  191MOL0     H26290   7.208   2.402   0.650  0.5206  0.5717 -1.6263
  191MOL0     H26291   7.506   2.424   0.590 -0.2543 -3.1032  0.1953
  191MOL0     H26292   7.363   2.509   0.532 -0.8517  0.1417  0.6243
  191MOL0     H26293   7.456   2.478   0.295  0.3839  3.2821 -0.8982
  191MOL0     H26294   7.536   2.595   0.398  2.8487 -0.3847 -1.1099
  191MOL0     H26295   7.715   2.428   0.451  1.4472 -0.9027 -0.3497
  191MOL0     H26296   7.645   2.304   0.343 -0.5873 -0.2858 -0.0873
  191MOL0     H26297   7.663   2.450   0.148  0.1812  0.3531  0.6060
  191MOL0     H26298   7.749   2.567   0.235  1.3157 -0.1053  1.8906
  191MOL0     H26299   7.820   2.284   0.182  0.7208  0.2475  0.2797
  191MOL0     H26300   7.921   2.380   0.292  0.5435 -2.8715  1.3003
  191MOL0     H26301   7.871   2.444  -0.005  1.0937 -0.8201 -2.1408
  191MOL0     H26302   7.971   2.527   0.101  2.1143 -0.7294 -1.1803
  191MOL0     H26303   8.036   2.286  -0.042  2.3301  1.9427 -2.1477
  191MOL0     H26304   8.070   2.283   0.140 -0.0078  0.9771  0.6018
  191MOL0     H26305   8.265   2.366  -0.003 -2.7616 -2.5114  1.1612
  191MOL0     H26306   8.158   2.493  -0.067 -0.5416 -1.2108 -0.2999
  191MOL0     H26307   8.286   2.374   0.291  0.8900 -1.0254 -2.5317
  191MOL0     H26308   8.480   2.595   0.460  1.9309  1.2441  2.6553
  191MOL0     H26309   8.330   2.512   0.512  1.7843 -1.9364 -3.2479
  191MOL0     H26310   8.368   2.826   0.472 -0.9062 -0.3365  1.6497
  191MOL0     H26311   8.225   2.759   0.517 -0.4096 -0.8872 -2.3898
  191MOL0     H26312   8.359   2.845   0.710  0.8845 -1.0417  0.2480
  191MOL0     H26313   8.374   2.664   0.728 -0.7950 -1.0500 -1.5676
  191MOL0     H26314   8.584   2.669   0.638 -0.8068  0.4307 -2.0222
  191MOL0     H26315   8.577   2.845   0.594 -0.3158  0.3076 -1.2480
  191MOL0     H26316   8.705   2.828   1.033  2.2006  1.5433  2.1340
  191MOL0     H26317   9.025   2.912   1.127  0.8335  1.7612 -0.2028
  191MOL0     H26318   8.863   2.879   1.202  1.4582  0.4487  2.3347
  191MOL0     H26319   8.929   3.042   1.186 -0.5457 -1.5568  3.4195
  191MOL0     H26320   9.112   3.348   1.131 -0.3683  0.3343  0.0191
  191MOL0     H26321   9.322   3.503   1.174 -1.9446 -0.6646  1.5909
  191MOL0     H26322   9.519   3.604   1.205 -0.0665 -0.2344  0.3391
  191MOL0     H26323   9.477   3.503   1.357 -1.0401 -3.6054 -0.5479
  191MOL0     H26324   9.759   3.614   1.309  1.3342  4.7948  3.2525
  191MOL0     H26325   9.643   3.667   1.421 -1.9435  0.7220 -2.6134
  191MOL0     H26326   9.733   3.380   1.411 -0.6341 -0.4968  0.0147
  191MOL0     H26327   9.635   3.442   1.537  1.3073  3.9608  3.3059
  191MOL0     H26328   9.840   3.625   1.556 -0.1158  0.3011  2.5691
  191MOL0     H26329   9.913   3.502   1.454 -2.3463  1.2278 -1.3125
  191MOL0     H26330   9.791   3.441   1.739 -0.8720 -0.3708 -1.2585
  191MOL0     H26331   9.860   3.321   1.640 -1.3374 -1.0827  3.2005
  191MOL0     H26332  10.077   3.460   1.657  1.5942  1.5685  1.0007
  191MOL0     H26333  10.017   3.360   1.793  1.4182  0.4761  0.3116
  191MOL0     H26334   9.921   3.576   1.890  1.9820 -0.0068  2.7838
  191MOL0     H26335   9.988   3.673   1.755  0.4283  0.1874 -0.2904
  191MOL0     H26336  10.135   3.526   1.970  0.1505 -0.7219 -0.3621
  191MOL0     H26337  10.111   3.690   1.966 -0.2209 -1.0440  2.2532
  191MOL0     H26338   9.579   3.186   1.097 -0.6895 -2.8616 -3.3012
  191MOL0     H26339   9.393   3.038   0.999 -0.0704  0.1152 -1.9803
  191MOL0     H26340   8.918   3.107   0.709  0.4687  0.9622  0.3512
  191MOL0     H26341   8.754   2.947   0.629  2.7728  3.7135  0.6905
  191MOL0     H26342   7.356   2.038   0.450 -3.8906 -1.2455 -2.4882
  191MOL0     H26343   7.205   1.907   0.586 -4.4585  0.8514 -0.9788
  191MOL0     H26344   7.046   1.783   0.893  0.9671 -1.7750  0.4758
  191MOL0     H26345   6.952   1.634   1.055 -0.1498 -0.4706  0.0254
  191MOL0     H26346   6.611   1.451   1.138 -1.9074  5.4769 -0.2539
  191MOL0     H26347   6.746   1.448   1.023 -2.5268  1.7642 -1.3165
  191MOL0     H26348   6.784   1.473   1.321 -1.4016  0.9228 -0.0313
  191MOL0     H26349   6.915   1.474   1.215  0.7583 -0.3234  2.1687
  191MOL0     H26350   6.710   1.252   1.282 -0.6821 -1.3499 -1.7305
  191MOL0     H26351   6.804   1.234   1.138 -0.7674  1.5345 -0.0515
  191MOL0     H26352   6.891   1.096   1.307 -1.1231 -0.0062  0.6540
  191MOL0     H26353   6.899   1.221   1.434 -0.1519  3.6687  0.4745
  191MOL0     H26354   7.252   1.292   1.227 -0.2131  1.6524  0.3140
  191MOL0     H26355   6.548   1.754   0.959  0.5005  2.5810  2.4489
  191MOL0     H26356   6.644   1.946   0.655 -2.4060  1.0802 -0.6093
  191MOL0     H26357   6.522   1.895   0.759 -1.6750  1.9563  1.4382
  191MOL0     H26358   6.630   2.027   0.822  2.5063 -0.0610 -1.2811
  192MOL0     O26359   2.145   3.841  11.457  0.8585 -0.0511  0.2092
  192MOL0     C26360   2.193   3.807  11.565 -0.5562 -1.1071 -0.0107
  192MOL0     O26361   2.202   3.676  11.610  1.0104  0.6791  0.5812
  192MOL0     C26362   2.085   3.596  11.595  0.6457  0.1430  0.4381
  192MOL0     C26363   1.956   3.645  11.612  1.5340  0.4479 -0.2358
  192MOL0     C26364   1.846   3.556  11.619 -0.1090 -0.1000 -0.5715
  192MOL0     C26365   1.861   3.425  11.599 -0.5028  0.1134 -0.0906
  192MOL0     O26366   1.744   3.350  11.606  0.4165  0.4582  0.0381
  192MOL0     C26367   1.749   3.210  11.586  0.2436 -0.4272 -0.2117
  192MOL0     C26368   1.762   3.186  11.438 -0.3856 -0.1541  0.4422
  192MOL0     C26369   1.629   3.159  11.365 -0.1127  0.0960  0.6456
  192MOL0     C26370   1.633   3.129  11.214 -0.2992 -1.1515 -0.4031
  192MOL0     C26371   1.494   3.133  11.142 -0.0842  0.1443  0.2962
  192MOL0     C26372   1.519   3.093  10.990  0.1181  0.4046  0.2408
  192MOL0     C26373   1.440   3.188  10.891  0.3223 -0.2837 -0.0393
  192MOL0     C26374   1.287   3.158  10.888 -0.6188  0.1699  0.3115
  192MOL0     N26375   1.218   3.239  10.798 -0.3797 -1.0169  0.3811
  192MOL0     C26376   1.240   3.248  10.667 -0.6559  1.5484  1.1861
  192MOL0     C26377   1.150   3.336  10.625 -0.6275  0.8996 -1.2555
  192MOL0     C26378   1.162   3.391  10.487  0.1494  0.4268  0.5965
  192MOL0     C26379   1.067   3.512  10.450 -0.4168  0.1146 -0.1683
  192MOL0     C26380   0.921   3.461  10.420  0.0957 -0.6295  0.2344
  192MOL0     C26381   0.824   3.462  10.541 -0.8784  0.1874 -0.0536
  192MOL0     O26382   0.688   3.464  10.486  0.1059 -0.5208 -0.4001
  192MOL0     C26383   0.587   3.432  10.572  0.2173  0.1940  0.2531
  192MOL0     C26384   0.461   3.399  10.514  0.8067 -0.3850 -0.5614
  192MOL0     C26385   0.354   3.359  10.593 -0.3913 -0.9904 -0.4067
  192MOL0     C26386   0.229   3.318  10.521 -0.6943  0.5177 -0.6095
  192MOL0     C26387   0.355   3.360  10.733  0.1379 -0.5664 -0.5232
  192MOL0     C26388   0.242   3.334  10.826  0.8877  0.5715 -0.1698
  192MOL0     O26389   0.232   3.205  10.866  0.9341 -0.5236 -0.9630
  192MOL0     C26390   0.136   3.162  10.952 -0.0305 -0.6702 -0.0175
  192MOL0     C26391   0.075   3.040  10.921 -0.5605 -0.1094  0.4212
  192MOL0     C26392  -0.004   2.969  11.011 -0.2521  0.1487 -0.5323
  192MOL0     C26393  -0.043   3.033  11.129 -0.5702  0.0335  0.1205
  192MOL0     O26394  -0.148   2.965  11.191  0.2292 -0.4274 -0.5138
  192MOL0     C26395  -0.151   2.992  11.330 -0.2743 -0.4612 -0.1305
  192MOL0     C26396  -0.235   2.891  11.401  0.8770 -0.5736  0.0131
  192MOL0     C26397  -0.248   2.910  11.559 -0.2691  0.5098  0.0077
  192MOL0     C26398  -0.318   2.782  11.624 -1.0041  0.3425  0.1280
  192MOL0     C26399  -0.308   2.799  11.774  0.1586  0.0043 -1.0864
  192MOL0     C26400  -0.361   2.678  11.847 -0.0520  0.8983 -0.1939
  192MOL0     C26401  -0.391   2.700  11.993 -0.4445 -0.2527  0.3499
  192MOL0     C26402  -0.493   2.815  12.029 -0.1035 -1.0098 -0.5431
  192MOL0    Cl26403  -0.644   2.806  11.927 -0.0683  0.3344 -0.1801
  192MOL0     C26404   0.021   3.151  11.161  0.3641 -0.5982 -0.2739
  192MOL0     C26405   0.107   3.217  11.075  0.0385 -0.3023 -0.3803
  192MOL0     O26406   0.175   3.423  10.875 -0.0844 -0.1166 -0.0988
  192MOL0     C26407   0.475   3.408  10.787  0.3770 -0.0557 -0.1207
  192MOL0     C26408   0.590   3.436  10.714  0.0565  0.1767  0.2568
  192MOL0     N26409   1.083   3.392  10.734  0.2897 -0.0904 -0.3750
  192MOL0     N26410   1.121   3.325  10.836  0.1795  0.3227  0.1990
  192MOL0     C26411   1.986   3.377  11.571  0.2308  0.0101  0.3425
  192MOL0     C26412   2.094   3.460  11.579 -0.3991  0.0280  0.6798
  192MOL0     C26413   2.278   3.900  11.651 -1.0292  1.0336 -0.1191
  192MOL0     C26414   2.387   3.837  11.728 -0.5007 -0.9986  0.0843
  192MOL0     C26415   2.484   3.923  11.786  0.1360  0.6823 -1.3975
  192MOL0     C26416   2.472   4.064  11.784 -0.0871 -0.0984  0.4026
  192MOL0     O26417   2.560   4.153  11.846 -0.3543 -0.5006 -0.3362
  192MOL0     C26418   2.662   4.084  11.927  0.7542 -0.7714 -0.4499
  192MOL0     C26419   2.736   4.193  12.007 -0.7570  0.0865 -0.6805
  192MOL0     C26420   2.820   4.286  11.913  0.4414  0.2175 -0.0495
  192MOL0     C26421   2.938   4.338  11.981 -0.6581 -0.1918 -0.8604
  192MOL0     C26422   2.913   4.413  12.107 -0.1270  0.1924  1.4661
  192MOL0     C26423   2.898   4.500  12.196 -0.5606  0.7826 -0.6822
  192MOL0     C26424   2.367   4.119  11.709 -0.0711 -0.5872  0.1952
  192MOL0     C26425   2.265   4.040  11.656 -1.0679 -0.1070  0.1908
  192MOL0     C26426   2.159   4.112  11.590 -0.1449  0.4009 -0.1928
  192MOL0     H26427   1.920   3.746  11.630  0.3179  0.3691 -1.9871
  192MOL0     H26428   1.750   3.587  11.658  0.2360 -0.6877  0.8047
  192MOL0     H26429   1.651   3.183  11.626  0.3137  1.6355  1.5480
  192MOL0     H26430   1.835   3.168  11.640  1.5016  3.6450  1.3700
  192MOL0     H26431   1.822   3.263  11.389  0.5148 -0.6646  0.7192
  192MOL0     H26432   1.813   3.091  11.425 -3.7474 -2.1325  0.6055
  192MOL0     H26433   1.569   3.077  11.406 -2.4480 -0.0555 -2.5916
  192MOL0     H26434   1.569   3.249  11.381  0.7386  0.6067  1.0037
  192MOL0     H26435   1.687   3.210  11.165 -1.3933 -0.9393 -1.3057
  192MOL0     H26436   1.685   3.035  11.191  1.7744 -0.1062 -0.1712
  192MOL0     H26437   1.454   3.234  11.153 -0.6090 -0.3413  3.7370
  192MOL0     H26438   1.427   3.068  11.197 -0.4876 -1.7068 -2.1992
  192MOL0     H26439   1.627   3.101  10.978  0.2649  1.9329  2.0702
  192MOL0     H26440   1.500   2.986  10.981  3.1558 -0.2121  0.1689
  192MOL0     H26441   1.475   3.170  10.789  1.4025  0.1237  0.2477
  192MOL0     H26442   1.451   3.293  10.918 -0.8851 -0.9412  3.7148
  192MOL0     H26443   1.268   3.051  10.872 -1.6152  0.6814 -2.2258
  192MOL0     H26444   1.241   3.195  10.980  1.0938  1.3768  0.7249
  192MOL0     H26445   1.315   3.200  10.605 -1.0630  1.8017  0.4856
  192MOL0     H26446   1.156   3.310  10.414  3.7382  0.8336 -0.3152
  192MOL0     H26447   1.264   3.431  10.482 -0.7078  2.6615 -0.9771
  192MOL0     H26448   1.061   3.592  10.523  1.0193  1.1016 -1.0924
  192MOL0     H26449   1.105   3.559  10.359  0.3559 -0.4825 -0.1634
  192MOL0     H26450   0.874   3.529  10.348  1.6938  0.1929 -0.0628
  192MOL0     H26451   0.929   3.356  10.390  1.2131 -0.4122 -0.2854
  192MOL0     H26452   0.846   3.381  10.611  2.6951  1.2374  0.2367
  192MOL0     H26453   0.840   3.556  10.594 -0.4326  1.6762 -2.6510
  192MOL0     H26454   0.452   3.389  10.406 -0.0308 -0.7317 -0.4681
  192MOL0     H26455   0.191   3.395  10.454  1.8595 -0.4815 -3.4231
  192MOL0     H26456   0.147   3.292  10.588 -1.4876 -1.2460 -2.1782
  192MOL0     H26457   0.253   3.225  10.469 -0.1757  0.1427  0.2664
  192MOL0     H26458   0.098   2.983  10.832  0.5771  0.3953  0.3804
  192MOL0     H26459  -0.058   2.879  10.983 -1.3107 -0.5889  3.2691
  192MOL0     H26460  -0.052   2.971  11.371  1.0036  1.3524 -2.0710
  192MOL0     H26461  -0.166   3.098  11.354  0.1733 -0.6816  1.2373
  192MOL0     H26462  -0.334   2.903  11.357 -0.1647  1.0217  2.5635
  192MOL0     H26463  -0.200   2.793  11.366  0.6202  0.3029 -2.9352
  192MOL0     H26464  -0.291   3.003  11.597 -0.1416 -0.2497  2.1668
  192MOL0     H26465  -0.147   2.919  11.602 -0.5945  0.5336  0.7824
  192MOL0     H26466  -0.271   2.689  11.591 -1.1256 -0.8194  2.9337
  192MOL0     H26467  -0.426   2.773  11.608 -1.3617  0.7516  2.0732
  192MOL0     H26468  -0.202   2.818  11.793 -0.2713  0.6753  0.8591
  192MOL0     H26469  -0.375   2.880  11.803  0.5948  0.2060 -0.6172
  192MOL0     H26470  -0.302   2.587  11.837  0.3074  1.2550 -1.4703
  192MOL0     H26471  -0.455   2.649  11.798 -0.7825  0.2638  1.4998
  192MOL0     H26472  -0.298   2.727  12.044 -0.2599  3.9927 -1.8183
  192MOL0     H26473  -0.418   2.601  12.033  0.2937 -0.3562  0.6138
  192MOL0     H26474  -0.447   2.910  12.001 -0.5482 -0.8726 -0.8275
  192MOL0     H26475  -0.517   2.818  12.136  2.4658  1.1004  0.0756
  192MOL0     H26476   0.001   3.197  11.257 -0.4822 -1.6893  0.0849
  192MOL0     H26477   0.146   3.313  11.106  0.1886 -1.0358  1.8612
  192MOL0     H26478   0.473   3.426  10.893 -1.9578 -0.2924 -0.0858
  192MOL0     H26479   0.685   3.455  10.763  0.4993  0.4525 -0.6830
  192MOL0     H26480   2.004   3.273  11.546  1.9945  0.2457  0.4813
  192MOL0     H26481   2.197   3.432  11.560 -0.3829  0.9200 -0.6617
  192MOL0     H26482   2.400   3.731  11.745  0.2680 -0.5978  2.3789
  192MOL0     H26483   2.564   3.876  11.842 -1.3584 -3.3004 -2.2958
  192MOL0     H26484   2.621   4.006  11.991 -1.1798  0.2808 -0.3127
  192MOL0     H26485   2.744   4.042  11.869  2.6167  3.2828 -1.0873
  192MOL0     H26486   2.799   4.139  12.079 -0.0232  0.0035 -1.3724
  192MOL0     H26487   2.667   4.253  12.067  0.0632 -0.0559  0.4468
  192MOL0     H26488   2.853   4.243  11.818 -1.1751  0.8685 -0.9559
  192MOL0     H26489   2.760   4.374  11.890 -0.2861 -0.7871 -2.2972
  192MOL0     H26490   2.982   4.411  11.913  0.4926  0.1701  0.2455
  192MOL0     H26491   3.006   4.253  11.994 -1.2587 -0.7264 -1.0972
  192MOL0     H26492   2.880   4.576  12.269 -0.2510 -0.3189  0.5993
  192MOL0     H26493   2.365   4.228  11.703  1.7326 -0.5358 -0.0907
  192MOL0     H26494   2.166   4.220  11.605 -0.9910  0.3899  0.3222
  192MOL0     H26495   2.171   4.103  11.481  1.2278  2.0649 -0.2261
  192MOL0     H26496   2.057   4.084  11.616  0.8301 -0.2939  3.4464
  193MOL0     O26497   7.175   2.239   9.509 -0.4807 -0.2380  0.2425
  193MOL0     C26498   7.120   2.290   9.602  0.4967 -0.3642  0.2707
  193MOL0     O26499   7.165   2.396   9.676 -0.2985 -0.2037  0.0481
  193MOL0     C26500   7.306   2.402   9.693 -0.1030  0.2847  0.2723
  193MOL0     C26501   7.351   2.432   9.820 -0.0959 -0.5521 -0.2122
  193MOL0     C26502   7.482   2.452   9.853 -0.3411 -0.1807 -1.1977
  193MOL0     C26503   7.580   2.432   9.760  0.0061  0.3064 -0.8094
  193MOL0     O26504   7.709   2.460   9.796  0.5054  0.2251  0.4741
  193MOL0     C26505   7.811   2.444   9.693  0.4167  0.3296  0.0224
  193MOL0     C26506   7.937   2.406   9.765  0.8862 -0.4099  0.3241
  193MOL0     C26507   7.970   2.530   9.846  0.4391 -1.2704  0.0434
  193MOL0     C26508   8.071   2.496   9.958  0.0117  1.5995 -0.8385
  193MOL0     C26509   8.114   2.627  10.017  0.1184 -0.6090 -0.4751
  193MOL0     C26510   8.200   2.627  10.143 -0.0233  0.5461 -0.0957
  193MOL0     C26511   8.357   2.599  10.111 -0.3921 -0.2563 -0.3652
  193MOL0     C26512   8.435   2.724  10.079  0.3648 -0.4347  0.2767
  193MOL0     N26513   8.571   2.687  10.037  0.2739 -0.3701  0.0289
  193MOL0     C26514   8.662   2.602  10.101  0.0390  0.0650  0.5672
  193MOL0     C26515   8.778   2.624  10.017 -0.1350  0.4337  0.3646
  193MOL0     C26516   8.906   2.551  10.036  0.0596  0.2111 -0.8301
  193MOL0     C26517   9.024   2.644   9.997  0.6765  0.2801  0.0372
  193MOL0     C26518   9.072   2.622   9.853 -0.0769 -0.4421  0.0521
  193MOL0     C26519   9.171   2.735   9.816 -0.2040  0.1180  0.1802
  193MOL0     O26520   9.227   2.720   9.680  0.5338  0.5363 -0.3571
  193MOL0     C26521   9.320   2.812   9.633  0.0971  0.5094 -0.6813
  193MOL0     C26522   9.330   2.949   9.682  0.0246  0.2671  0.0924
  193MOL0     C26523   9.401   3.045   9.608 -0.0356  0.0371  0.5585
  193MOL0     C26524   9.419   3.184   9.662  0.6963  0.3005 -0.1903
  193MOL0     C26525   9.460   3.010   9.487 -0.6033 -0.0477  0.1196
  193MOL0     C26526   9.544   3.096   9.395 -0.0430  0.4968 -0.1296
  193MOL0     O26527   9.561   3.058   9.260 -0.1777 -0.2870 -0.2206
  193MOL0     C26528   9.622   3.123   9.156 -0.1782  0.2043 -0.1598
  193MOL0     C26529   9.671   3.059   9.041 -0.2798 -0.2032 -0.5158
  193MOL0     C26530   9.747   3.123   8.946  0.1035  0.9788  0.6991
  193MOL0     C26531   9.770   3.259   8.955  0.1117 -0.0457  0.8106
  193MOL0     O26532   9.841   3.327   8.856  0.1644 -0.3184  0.0343
  193MOL0     C26533   9.876   3.478   8.872  0.7769  1.2623 -0.0029
  193MOL0     C26534   9.973   3.520   8.764 -0.5233 -1.0775  0.0362
  193MOL0     C26535  10.067   3.414   8.702  0.0248  0.1660 -0.1257
  193MOL0     C26536  10.157   3.376   8.822  0.1487 -0.1871  0.3048
  193MOL0     C26537  10.261   3.263   8.799 -0.0017  0.3515 -0.0114
  193MOL0     C26538  10.216   3.149   8.716  0.2560 -0.4850  0.9106
  193MOL0     C26539  10.334   3.057   8.679 -0.6563 -0.0766 -0.4448
  193MOL0     C26540  10.292   2.923   8.617 -0.4103 -0.1297 -0.1661
  193MOL0    Cl26541  10.184   2.955   8.475  0.0009 -0.2303 -0.0359
  193MOL0     C26542   9.714   3.333   9.065 -0.4439  0.3288  0.2763
  193MOL0     C26543   9.640   3.264   9.160  0.1810  0.3425  1.0730
  193MOL0     O26544   9.606   3.194   9.438  0.9253  0.4539 -0.0627
  193MOL0     C26545   9.457   2.879   9.447 -0.1406  0.1029  0.7496
  193MOL0     C26546   9.382   2.785   9.519  0.3207  0.2018 -0.5934
  193MOL0     N26547   8.742   2.706   9.917 -0.3558  1.0705  0.0902
  193MOL0     N26548   8.626   2.746   9.929  0.2229  0.3568  0.5959
  193MOL0     C26549   7.542   2.402   9.626  0.4929  0.0854 -0.1690
  193MOL0     C26550   7.407   2.397   9.593 -0.1753  0.5410  0.0683
  193MOL0     C26551   6.971   2.271   9.630  0.7319  0.6182 -1.0393
  193MOL0     C26552   6.884   2.380   9.656  1.0499  0.0866 -0.6426
  193MOL0     C26553   6.748   2.348   9.682 -0.9602 -0.0373 -0.2225
  193MOL0     C26554   6.704   2.214   9.685 -0.8535  0.5297 -0.9058
  193MOL0     O26555   6.574   2.202   9.729  0.3041 -0.3812  1.2191
  193MOL0     C26556   6.463   2.245   9.636 -0.5988  0.0435  0.5279
  193MOL0     C26557   6.447   2.124   9.539 -0.0419 -0.2814  0.2342
  193MOL0     C26558   6.343   2.135   9.430 -0.4943  0.4192  0.0590
  193MOL0     C26559   6.211   2.064   9.472  0.1947 -0.1861 -0.3679
  193MOL0     C26560   6.135   2.145   9.569 -0.1140 -0.2376 -0.2180
  193MOL0     C26561   6.076   2.214   9.652 -0.7073  0.0952 -0.8745
  193MOL0     C26562   6.791   2.107   9.670 -0.4332 -0.2626  0.5581
  193MOL0     C26563   6.924   2.139   9.644 -0.3141  0.3398 -0.4618
  193MOL0     C26564   7.011   2.016   9.626 -0.3990  0.4773  0.8209
  193MOL0     H26565   7.277   2.422   9.898 -0.2257  2.6093  0.1744
  193MOL0     H26566   7.510   2.478   9.955 -0.4107  0.3926 -1.3206
  193MOL0     H26567   7.818   2.544   9.649 -0.7462  0.0809 -0.7635
  193MOL0     H26568   7.789   2.362   9.624  1.2144  0.8568 -0.8967
  193MOL0     H26569   7.916   2.320   9.830  2.2920  0.3574  1.8815
  193MOL0     H26570   8.014   2.375   9.694 -0.7459 -0.0083 -1.7303
  193MOL0     H26571   8.027   2.596   9.781 -0.8547  0.0328  0.1738
  193MOL0     H26572   7.883   2.581   9.888  0.4248 -1.0857 -0.2152
  193MOL0     H26573   8.027   2.430  10.033  2.2606  2.6819  1.5610
  193MOL0     H26574   8.153   2.442   9.910 -1.1719  0.0945 -1.2435
  193MOL0     H26575   8.025   2.685  10.040  1.6281  1.6876 -0.0992
  193MOL0     H26576   8.166   2.686   9.942  1.1868  2.2869  2.3039
  193MOL0     H26577   8.191   2.716  10.205 -3.9308 -1.3359  2.4206
  193MOL0     H26578   8.158   2.545  10.202 -1.9536  2.1663  0.8833
  193MOL0     H26579   8.368   2.535  10.023  0.5006 -1.1399  0.3639
  193MOL0     H26580   8.395   2.534  10.191 -0.3819  0.5321  0.2860
  193MOL0     H26581   8.378   2.770   9.998 -1.9169  2.1613  3.1321
  193MOL0     H26582   8.442   2.798  10.160 -0.1150  1.6220 -1.4726
  193MOL0     H26583   8.655   2.532  10.183 -2.7930 -1.7655 -1.0646
  193MOL0     H26584   8.903   2.459   9.978 -0.5655 -0.2248 -0.1248
  193MOL0     H26585   8.934   2.522  10.138  1.3599 -1.1145 -1.5250
  193MOL0     H26586   8.994   2.748  10.010  0.2535 -0.1122  2.5810
  193MOL0     H26587   9.107   2.625  10.066  0.4932 -0.2137  0.1269
  193MOL0     H26588   9.118   2.523   9.849 -0.4980 -0.6090 -0.6442
  193MOL0     H26589   8.992   2.629   9.780 -0.7048  0.1055  0.7793
  193MOL0     H26590   9.114   2.827   9.831  0.5433  0.1522  3.5697
  193MOL0     H26591   9.252   2.747   9.889 -0.7493  2.7849  0.4394
  193MOL0     H26592   9.276   2.994   9.765 -2.4713 -2.8676  0.3600
  193MOL0     H26593   9.347   3.202   9.742  1.2270  1.1768  0.1127
  193MOL0     H26594   9.393   3.252   9.581 -4.0536  0.0324  0.8346
  193MOL0     H26595   9.524   3.206   9.687  0.9935  0.6189 -1.6664
  193MOL0     H26596   9.660   2.952   9.026  1.8665 -0.5434  0.0354
  193MOL0     H26597   9.806   3.069   8.872  2.4198  4.1439  0.0188
  193MOL0     H26598   9.788   3.543   8.868  1.9112  2.8662  0.2815
  193MOL0     H26599   9.925   3.490   8.969 -1.2793  0.8835  1.1400
  193MOL0     H26600   9.918   3.573   8.686 -1.0401 -0.9172  0.5049
  193MOL0     H26601  10.038   3.598   8.804 -1.1919  1.2036 -2.9898
  193MOL0     H26602  10.128   3.463   8.625 -0.4902  0.0744 -0.5980
  193MOL0     H26603  10.012   3.328   8.664  2.6934 -0.2280 -3.5797
  193MOL0     H26604  10.093   3.336   8.901 -1.2178  0.3399 -0.5152
  193MOL0     H26605  10.209   3.467   8.852 -0.6663  0.7671 -1.1086
  193MOL0     H26606  10.348   3.314   8.756  0.3750  2.5142  2.9993
  193MOL0     H26607  10.284   3.225   8.899 -0.5976 -0.7584 -0.2806
  193MOL0     H26608  10.187   3.189   8.618  1.1135  0.4213  1.0136
  193MOL0     H26609  10.137   3.102   8.775  0.2670 -0.3673  1.0189
  193MOL0     H26610  10.389   3.039   8.771  0.4299  1.5587 -0.7409
  193MOL0     H26611  10.403   3.099   8.605  0.1081 -2.6660 -1.3351
  193MOL0     H26612  10.243   2.860   8.693 -0.2347 -0.8326 -0.6228
  193MOL0     H26613  10.380   2.870   8.578 -0.0660  1.2329 -1.2953
  193MOL0     H26614   9.740   3.439   9.068  0.7884  0.2267 -3.1069
  193MOL0     H26615   9.599   3.317   9.245 -0.6346 -1.3181  1.7658
  193MOL0     H26616   9.513   2.842   9.362 -0.5016 -0.9505  0.9622
  193MOL0     H26617   9.373   2.691   9.465 -0.9594  0.2531 -0.5174
  193MOL0     H26618   7.599   2.374   9.538 -0.5086 -2.3247 -0.1300
  193MOL0     H26619   7.388   2.364   9.491 -0.6527  1.4036 -0.1343
  193MOL0     H26620   6.914   2.483   9.673  0.2789 -0.0032  1.6657
  193MOL0     H26621   6.686   2.436   9.694 -0.2199  0.7155 -1.6447
  193MOL0     H26622   6.377   2.263   9.700  0.2254  3.8745  0.7788
  193MOL0     H26623   6.489   2.335   9.581  0.1082 -0.6549 -0.3212
  193MOL0     H26624   6.431   2.034   9.599  0.3615 -0.6810 -0.2529
  193MOL0     H26625   6.545   2.107   9.493 -0.3513 -3.9730  0.6231
  193MOL0     H26626   6.323   2.240   9.403 -1.6179  0.0302 -0.7281
  193MOL0     H26627   6.371   2.087   9.336 -2.2859 -1.5406  0.4449
  193MOL0     H26628   6.219   1.968   9.522 -0.4737 -0.6751 -1.1732
  193MOL0     H26629   6.150   2.048   9.383  0.8908 -1.6833 -0.5984
  193MOL0     H26630   6.025   2.271   9.727 -2.2117 -0.7454 -1.2054
  193MOL0     H26631   6.752   2.007   9.682  1.7098 -1.1132  0.9176
  193MOL0     H26632   6.972   1.925   9.674  2.5873 -1.7043 -0.5533
  193MOL0     H26633   7.026   1.989   9.521  0.6516 -4.7979  2.0372
  193MOL0     H26634   7.109   2.032   9.672  0.7196 -2.3970 -0.3027
  194MOL0     O26635   5.437   8.365   5.638 -0.4263 -0.4581 -0.1808
  194MOL0     C26636   5.391   8.448   5.553  0.4556  0.0138 -0.3915
  194MOL0     O26637   5.459   8.530   5.469 -0.3330 -0.8707 -0.0079
  194MOL0     C26638   5.595   8.566   5.465 -0.6508  0.4091 -0.5961
  194MOL0     C26639   5.642   8.595   5.332 -0.3100  1.0407 -0.3842
  194MOL0     C26640   5.779   8.604   5.313 -0.3574 -0.0821 -0.5316
  194MOL0     C26641   5.858   8.600   5.430  0.2198 -0.3189  0.5831
  194MOL0     O26642   5.992   8.616   5.426  1.1075  0.2668  0.8653
  194MOL0     C26643   6.042   8.722   5.347  0.2387  0.3109  0.1444
  194MOL0     C26644   6.175   8.780   5.391 -0.1086 -0.8885 -0.4780
  194MOL0     C26645   6.180   8.852   5.524  0.6989 -0.4868  0.7546
  194MOL0     C26646   6.212   8.782   5.649  0.0379 -0.0714  0.2904
  194MOL0     C26647   6.366   8.777   5.658  0.8204 -0.1967  0.5822
  194MOL0     C26648   6.409   8.686   5.763 -0.4590  0.8375 -0.0535
  194MOL0     C26649   6.374   8.728   5.903 -0.3119  0.2677 -0.1875
  194MOL0     C26650   6.234   8.667   5.944  0.5957 -0.2469 -0.7447
  194MOL0     N26651   6.190   8.723   6.073 -0.1661  0.4629 -0.0217
  194MOL0     C26652   6.132   8.847   6.094 -0.6271  0.3494 -0.2403
  194MOL0     C26653   6.101   8.854   6.221  0.0223  0.3046  0.3221
  194MOL0     C26654   6.059   8.980   6.281 -0.8225  0.2309 -0.0668
  194MOL0     C26655   6.150   9.030   6.395  0.2391  0.7812 -0.0440
  194MOL0     C26656   6.141   8.939   6.523  0.0292  0.3735  0.0354
  194MOL0     C26657   5.996   8.934   6.583 -0.9023  0.8083 -0.6934
  194MOL0     O26658   5.937   9.061   6.567  0.3158  0.3935 -0.0822
  194MOL0     C26659   5.810   9.084   6.611 -0.1341 -0.1435 -0.4531
  194MOL0     C26660   5.745   9.204   6.581  0.3137 -0.0118 -0.3481
  194MOL0     C26661   5.617   9.234   6.617 -0.7578  0.1208 -0.4661
  194MOL0     C26662   5.561   9.373   6.579 -0.1516 -0.4542 -0.6798
  194MOL0     C26663   5.546   9.135   6.690  0.0359  0.1907  0.0694
  194MOL0     C26664   5.416   9.161   6.746 -0.5630  0.0940  0.6175
  194MOL0     O26665   5.327   9.059   6.751 -1.0283  0.0022  0.4081
  194MOL0     C26666   5.205   9.075   6.803 -0.2691  0.7208  0.1520
  194MOL0     C26667   5.172   9.029   6.929 -0.7489  0.0925  0.4304
  194MOL0     C26668   5.042   9.059   6.980 -0.6702 -0.4865  0.1390
  194MOL0     C26669   4.949   9.123   6.902 -0.3083 -0.3437 -0.1850
  194MOL0     O26670   4.831   9.155   6.968  0.5194  0.4974 -0.5114
  194MOL0     C26671   4.797   9.294   6.963  0.0778 -0.4350  0.4797
  194MOL0     C26672   4.653   9.317   6.982  0.6641  0.2209  0.5994
  194MOL0     C26673   4.558   9.271   6.868 -0.8564  0.4050 -0.1281
  194MOL0     C26674   4.413   9.295   6.917 -0.5132  0.3213  0.3640
  194MOL0     C26675   4.316   9.228   6.810 -0.0046 -0.5629 -0.0714
  194MOL0     C26676   4.273   9.339   6.705  0.3041  0.2093 -0.1840
  194MOL0     C26677   4.144   9.269   6.653 -0.0158 -0.1759 -1.1036
  194MOL0     C26678   4.089   9.353   6.542 -1.1894 -1.0328 -0.0181
  194MOL0    Cl26679   3.920   9.294   6.508  0.2024  0.0506 -0.0027
  194MOL0     C26680   4.981   9.155   6.766 -0.0986 -0.4075  0.0464
  194MOL0     C26681   5.107   9.120   6.717 -0.5159  0.3911 -0.3961
  194MOL0     O26682   5.394   9.275   6.781 -0.1170  0.1627 -0.2180
  194MOL0     C26683   5.610   9.015   6.730 -0.5023  0.0288  0.7201
  194MOL0     C26684   5.742   8.988   6.688  0.5270  1.1288 -0.3530
  194MOL0     N26685   6.114   8.721   6.275 -0.8915 -0.5339  0.1254
  194MOL0     N26686   6.168   8.639   6.186 -0.4249 -0.7860  0.4746
  194MOL0     C26687   5.811   8.590   5.560 -0.6119  0.1881 -0.5642
  194MOL0     C26688   5.675   8.567   5.579  0.6889  0.2204 -0.0054
  194MOL0     C26689   5.241   8.440   5.527 -0.6298 -0.5465 -0.0410
  194MOL0     C26690   5.193   8.520   5.427 -0.4164 -0.2448 -0.3824
  194MOL0     C26691   5.057   8.520   5.395 -0.0483  0.0275  0.3855
  194MOL0     C26692   4.971   8.428   5.446 -1.0457 -0.1611  0.0043
  194MOL0     O26693   4.836   8.407   5.403 -0.2781 -0.4809 -0.1258
  194MOL0     C26694   4.762   8.528   5.394 -0.0122  0.2864  0.2217
  194MOL0     C26695   4.612   8.489   5.403 -0.6481  0.0437 -0.2890
  194MOL0     C26696   4.532   8.620   5.410 -1.2458  0.2179 -0.8351
  194MOL0     C26697   4.396   8.606   5.336  0.1732 -0.2591  0.7431
  194MOL0     C26698   4.299   8.530   5.415 -0.1606  0.0096 -0.6054
  194MOL0     C26699   4.228   8.482   5.495  0.1352 -0.4862 -0.2824
  194MOL0     C26700   5.026   8.342   5.539  0.2586  0.6754 -0.2260
  194MOL0     C26701   5.159   8.351   5.587  1.3686 -0.1281 -0.7759
  194MOL0     C26702   5.192   8.272   5.711 -0.1216  0.7166  0.4560
  194MOL0     H26703   5.571   8.607   5.251 -2.4575  1.9597  1.5282
  194MOL0     H26704   5.831   8.630   5.221  0.3560 -1.9951 -0.7187
  194MOL0     H26705   5.965   8.795   5.322 -2.5739 -2.4165  0.2363
  194MOL0     H26706   6.067   8.678   5.249  0.8029  1.3936 -0.2127
  194MOL0     H26707   6.249   8.700   5.397 -1.9924 -2.7164 -0.4585
  194MOL0     H26708   6.197   8.861   5.321 -4.1184  1.6200  0.8570
  194MOL0     H26709   6.240   8.944   5.518 -0.1873  0.0057 -2.7226
  194MOL0     H26710   6.077   8.887   5.531  0.7340 -0.6378  2.6741
  194MOL0     H26711   6.180   8.848   5.730  0.9719 -0.5724  1.0897
  194MOL0     H26712   6.169   8.682   5.644  1.5349 -0.7338 -3.5436
  194MOL0     H26713   6.396   8.882   5.671 -4.0283  1.8169 -1.7397
  194MOL0     H26714   6.418   8.745   5.568  1.9145 -2.3996  1.9109
  194MOL0     H26715   6.377   8.585   5.736  1.9130  0.1334 -0.4552
  194MOL0     H26716   6.518   8.687   5.752 -0.6176  1.7411 -2.0443
  194MOL0     H26717   6.390   8.835   5.921  0.7386 -0.2747  2.5898
  194MOL0     H26718   6.441   8.674   5.971 -0.8305  0.8980  0.8520
  194MOL0     H26719   6.149   8.682   5.877  0.7619 -6.2122 -2.8422
  194MOL0     H26720   6.245   8.558   5.943  0.1288 -0.3051 -2.3244
  194MOL0     H26721   6.119   8.920   6.014 -2.1014 -2.0711 -2.3851
  194MOL0     H26722   5.957   8.966   6.317 -1.0014 -0.4934 -0.8340
  194MOL0     H26723   6.045   9.066   6.214  2.0931  1.6145  0.9345
  194MOL0     H26724   6.252   9.037   6.358  0.5701  0.2763  0.7522
  194MOL0     H26725   6.127   9.131   6.428 -0.3406 -0.0130  2.1938
  194MOL0     H26726   6.183   8.844   6.492  0.6812  0.8187 -0.4755
  194MOL0     H26727   6.209   8.977   6.601  1.8237 -3.8541  0.7977
  194MOL0     H26728   5.926   8.860   6.544 -2.4590 -0.5898  4.0553
  194MOL0     H26729   5.997   8.905   6.689  3.2194  0.6870 -0.6354
  194MOL0     H26730   5.797   9.288   6.535  1.1937 -0.8142 -0.8409
  194MOL0     H26731   5.602   9.399   6.481  0.6496 -0.3380 -0.3304
  194MOL0     H26732   5.603   9.445   6.650  1.0033 -1.9423  0.2248
  194MOL0     H26733   5.453   9.358   6.579 -0.2095 -0.0679 -1.7256
  194MOL0     H26734   5.239   8.966   6.985 -1.6781 -1.7417 -0.4260
  194MOL0     H26735   5.034   9.024   7.082  3.0178  0.9630  1.0850
  194MOL0     H26736   4.857   9.347   7.037 -2.2973  0.7872  1.6513
  194MOL0     H26737   4.829   9.327   6.865  2.8183 -2.0091  0.7405
  194MOL0     H26738   4.625   9.271   7.077  1.1626  0.4270  0.8481
  194MOL0     H26739   4.637   9.423   7.002  4.3251  0.5162  2.8276
  194MOL0     H26740   4.574   9.165   6.845  1.8201  0.6892  0.1199
  194MOL0     H26741   4.588   9.330   6.781 -0.0307  0.4526  0.1758
  194MOL0     H26742   4.380   9.399   6.927 -3.1300 -0.1834 -1.9079
  194MOL0     H26743   4.395   9.246   7.013  0.5749 -1.1803 -0.1570
  194MOL0     H26744   4.353   9.134   6.767 -0.7749 -0.7924 -0.2452
  194MOL0     H26745   4.223   9.203   6.860 -1.3619  0.6773 -1.8313
  194MOL0     H26746   4.347   9.341   6.624  0.4593 -1.6981 -0.1518
  194MOL0     H26747   4.250   9.435   6.751  2.2876 -0.2115  1.8416
  194MOL0     H26748   4.073   9.279   6.736  0.4570  3.4151 -0.9869
  194MOL0     H26749   4.165   9.166   6.624 -0.1231 -0.5936  0.2148
  194MOL0     H26750   4.151   9.343   6.452 -1.4086  2.1968 -0.6494
  194MOL0     H26751   4.089   9.457   6.575  1.1551 -0.9146 -0.2204
  194MOL0     H26752   4.913   9.213   6.704  2.4263  0.1414 -2.3853
  194MOL0     H26753   5.136   9.144   6.616 -0.4960  0.8317 -0.2881
  194MOL0     H26754   5.562   8.939   6.792  2.1870 -1.6931  0.8274
  194MOL0     H26755   5.771   8.886   6.710  1.3918  1.3278 -0.5359
  194MOL0     H26756   5.878   8.571   5.643 -1.4100 -2.1263 -0.3752
  194MOL0     H26757   5.654   8.532   5.680  1.8383 -0.0598  0.1577
  194MOL0     H26758   5.246   8.596   5.371  0.9522 -1.6051 -1.0134
  194MOL0     H26759   5.015   8.591   5.324 -0.3158 -0.4797  0.0317
  194MOL0     H26760   4.795   8.588   5.480  2.1569 -2.0298  1.1488
  194MOL0     H26761   4.790   8.577   5.300 -1.0543  0.5426  0.0345
  194MOL0     H26762   4.595   8.446   5.502 -3.0731  1.3414 -0.0679
  194MOL0     H26763   4.591   8.421   5.319  0.5793 -2.5376  1.3631
  194MOL0     H26764   4.512   8.642   5.515  0.2064  1.6050 -0.8127
  194MOL0     H26765   4.592   8.705   5.379 -0.6736  1.0449  2.2111
  194MOL0     H26766   4.404   8.563   5.236  2.8816  0.3705  0.6177
  194MOL0     H26767   4.360   8.704   5.305 -0.3932 -1.0199 -1.1012
  194MOL0     H26768   4.154   8.436   5.558 -0.8686  0.7151 -0.5532
  194MOL0     H26769   4.960   8.266   5.579 -1.7143  1.2045 -2.2536
  194MOL0     H26770   5.102   8.245   5.767  0.2442  1.9624  1.7016
  194MOL0     H26771   5.251   8.188   5.676 -1.5092 -0.2610  0.3994
  194MOL0     H26772   5.250   8.316   5.793  3.0255 -0.7437 -0.8285
  195MOL0     O26773   2.288   5.501   7.131 -0.2973  0.1477  0.0437
  195MOL0     C26774   2.309   5.565   7.027  1.3703 -0.5117 -0.4302
  195MOL0     O26775   2.411   5.653   7.006  0.0267  0.3173  0.2390
  195MOL0     C26776   2.518   5.651   7.096  0.6857  0.1467 -0.1226
  195MOL0     C26777   2.511   5.739   7.212 -0.4610 -0.0005 -0.1579
  195MOL0     C26778   2.624   5.748   7.289 -0.4791 -0.2953  0.9688
  195MOL0     C26779   2.749   5.680   7.258  0.8113 -0.2397 -0.5758
  195MOL0     O26780   2.860   5.704   7.331 -0.1281 -0.4800  0.6406
  195MOL0     C26781   2.989   5.631   7.316 -0.7195 -0.5152 -0.8465
  195MOL0     C26782   3.102   5.696   7.396  0.6534  1.1834  0.0134
  195MOL0     C26783   3.059   5.713   7.537  0.3155 -0.4456  0.2511
  195MOL0     C26784   3.171   5.667   7.639 -0.1467  0.3894  0.1128
  195MOL0     C26785   3.123   5.668   7.783  0.3259 -0.5280  0.4178
  195MOL0     C26786   3.241   5.661   7.882 -0.3087 -0.0586  0.2532
  195MOL0     C26787   3.169   5.630   8.014  0.6089 -0.6975 -0.2767
  195MOL0     C26788   3.269   5.655   8.132  0.0604 -0.2024  0.4057
  195MOL0     N26789   3.354   5.541   8.160  0.1702  0.9024 -0.0125
  195MOL0     C26790   3.462   5.509   8.080  0.1399 -0.5746  0.4671
  195MOL0     C26791   3.524   5.405   8.143 -0.4356 -0.5787 -0.3599
  195MOL0     C26792   3.654   5.346   8.102 -0.6608 -0.0597  0.3793
  195MOL0     C26793   3.785   5.429   8.122  0.2611  0.4238 -0.6004
  195MOL0     C26794   3.776   5.581   8.107 -0.0532 -0.0612  0.1361
  195MOL0     C26795   3.906   5.656   8.134 -0.7132 -0.3082 -0.7999
  195MOL0     O26796   3.871   5.800   8.104 -0.2602 -0.0274 -0.1527
  195MOL0     C26797   3.946   5.891   8.173  0.3158  0.1630  0.5140
  195MOL0     C26798   4.065   5.864   8.237 -0.1650  1.0177 -0.6922
  195MOL0     C26799   4.140   5.949   8.315  0.0098 -0.3955 -0.5729
  195MOL0     C26800   4.281   5.914   8.351  0.5074  0.8308  0.8537
  195MOL0     C26801   4.082   6.083   8.324 -0.5169  0.4698 -0.3122
  195MOL0     C26802   4.140   6.190   8.416 -0.4525 -0.0295 -0.2734
  195MOL0     O26803   4.091   6.328   8.404  0.0395 -0.3041 -0.0581
  195MOL0     C26804   4.165   6.421   8.478  0.5755 -0.5633 -0.2701
  195MOL0     C26805   4.086   6.505   8.554  0.2568 -0.5646  0.4611
  195MOL0     C26806   4.150   6.608   8.628  0.2016 -0.0388 -0.3378
  195MOL0     C26807   4.289   6.632   8.627 -0.2455  0.1137  0.1380
  195MOL0     O26808   4.335   6.739   8.704 -0.5493  0.3018  0.2080
  195MOL0     C26809   4.469   6.789   8.662 -0.1097 -0.0934 -0.5771
  195MOL0     C26810   4.491   6.921   8.742 -0.3720 -0.3911  0.2573
  195MOL0     C26811   4.635   6.971   8.701  0.6322 -0.7149 -0.4031
  195MOL0     C26812   4.662   7.110   8.759  0.1392  0.0521 -0.0632
  195MOL0     C26813   4.817   7.144   8.744 -0.3381 -0.1640 -0.5332
  195MOL0     C26814   4.885   7.230   8.851  1.3469  0.7640  0.5218
  195MOL0     C26815   4.845   7.377   8.861 -0.1760  0.0132 -0.0870
  195MOL0     C26816   4.946   7.449   8.776 -1.3884  0.4541 -0.5395
  195MOL0    Cl26817   5.091   7.476   8.870 -0.1452  0.2723 -0.4507
  195MOL0     C26818   4.367   6.544   8.549 -0.3468  0.5212  0.3656
  195MOL0     C26819   4.305   6.446   8.473 -0.3095  0.5173  0.1071
  195MOL0     O26820   4.216   6.151   8.505 -0.6044 -0.0616  0.2098
  195MOL0     C26821   3.966   6.122   8.256  0.5085  0.0092  0.0188
  195MOL0     C26822   3.906   6.026   8.172  0.8100 -0.0481 -0.4234
  195MOL0     N26823   3.456   5.373   8.255 -0.2456  0.2191  0.0845
  195MOL0     N26824   3.347   5.447   8.260 -0.6335 -0.2493 -0.5281
  195MOL0     C26825   2.744   5.584   7.150 -0.6877 -0.4182 -0.0763
  195MOL0     C26826   2.629   5.569   7.076  0.0909  0.1209  0.2341
  195MOL0     C26827   2.209   5.546   6.921 -1.1594 -0.3635 -0.5168
  195MOL0     C26828   2.234   5.437   6.842  0.2199 -0.6710 -0.0801
  195MOL0     C26829   2.142   5.395   6.740  0.2230  0.0287 -0.7222
  195MOL0     C26830   2.044   5.483   6.715  0.8512  0.5563  0.4355
  195MOL0     O26831   1.952   5.435   6.619 -0.1071 -0.4136  0.0196
  195MOL0     C26832   1.950   5.524   6.508 -0.7619 -0.5254  0.2076
  195MOL0     C26833   1.985   5.459   6.385 -0.9399 -0.4370 -0.1388
  195MOL0     C26834   1.885   5.357   6.345 -0.6524 -0.2082  0.1901
  195MOL0     C26835   1.935   5.247   6.244  0.0885 -0.0278 -0.3648
  195MOL0     C26836   1.848   5.122   6.227  0.7037 -0.1459 -0.8334
  195MOL0     C26837   1.765   5.032   6.213 -0.2564 -0.0803 -0.5860
  195MOL0     C26838   2.020   5.590   6.791  1.3148 -1.1860  0.5346
  195MOL0     C26839   2.100   5.622   6.902  0.1312 -0.0749  0.6363
  195MOL0     C26840   2.063   5.746   6.974  0.4106  0.0962  0.3411
  195MOL0     H26841   2.420   5.790   7.241  0.1206  0.5127  0.8283
  195MOL0     H26842   2.631   5.828   7.362 -0.8957  1.0565 -0.4363
  195MOL0     H26843   3.014   5.633   7.209 -0.4464  1.7429 -0.7966
  195MOL0     H26844   2.975   5.527   7.346 -3.9074  0.4039  1.4056
  195MOL0     H26845   3.191   5.635   7.378  0.6532  1.3999 -0.7542
  195MOL0     H26846   3.133   5.794   7.358 -1.6779  1.4086 -1.5262
  195MOL0     H26847   3.037   5.817   7.564 -0.8914 -0.2814 -1.1967
  195MOL0     H26848   2.969   5.654   7.557  0.8934 -1.1769  0.7601
  195MOL0     H26849   3.197   5.563   7.616  0.2765  0.5817 -0.2984
  195MOL0     H26850   3.257   5.733   7.628  1.6173 -1.7691  0.2108
  195MOL0     H26851   3.049   5.588   7.792  0.2782 -0.5418 -0.0544
  195MOL0     H26852   3.077   5.762   7.814  1.3599 -0.8110  3.0540
  195MOL0     H26853   3.315   5.584   7.857  0.1332  0.8157 -1.2202
  195MOL0     H26854   3.291   5.756   7.903 -2.3180  0.3359  4.1797
  195MOL0     H26855   3.141   5.525   8.016  1.1745 -0.8438  0.2655
  195MOL0     H26856   3.082   5.695   8.029 -0.8469 -2.6464  0.1761
  195MOL0     H26857   3.329   5.746   8.118  0.7720 -0.6509  0.5060
  195MOL0     H26858   3.211   5.675   8.222 -0.6929  1.7898 -0.4656
  195MOL0     H26859   3.502   5.564   7.995 -0.7975 -2.0739 -1.0007
  195MOL0     H26860   3.635   5.325   7.996  1.7698  0.5818 -0.2482
  195MOL0     H26861   3.639   5.253   8.158 -2.8728  1.8322  3.1831
  195MOL0     H26862   3.814   5.406   8.225 -1.2132 -2.7515 -0.7776
  195MOL0     H26863   3.857   5.374   8.061 -1.1852 -1.2268 -0.8969
  195MOL0     H26864   3.749   5.601   8.003 -0.5938  0.5768  0.3856
  195MOL0     H26865   3.706   5.629   8.177  1.6025  0.3031  1.5905
  195MOL0     H26866   3.930   5.635   8.238  0.4480 -1.6098 -1.2940
  195MOL0     H26867   3.992   5.623   8.074 -0.1515 -0.6422  0.1792
  195MOL0     H26868   4.104   5.763   8.243 -0.8070  0.8500  1.4602
  195MOL0     H26869   4.349   5.990   8.312  0.0756  1.7276  1.7875
  195MOL0     H26870   4.304   5.818   8.303 -1.6178  0.4561  0.4417
  195MOL0     H26871   4.297   5.910   8.459 -1.0725  2.1839  1.1887
  195MOL0     H26872   3.979   6.489   8.555  0.0013  0.9590  0.6300
  195MOL0     H26873   4.091   6.677   8.688 -3.7581 -2.5074 -1.0639
  195MOL0     H26874   4.552   6.720   8.672  1.2657  1.2693 -1.9938
  195MOL0     H26875   4.449   6.819   8.558 -2.1824  1.0067  0.0703
  195MOL0     H26876   4.415   6.991   8.705  1.5523  1.2590 -0.8096
  195MOL0     H26877   4.485   6.907   8.850  0.9275 -1.1531  0.2534
  195MOL0     H26878   4.635   6.960   8.592 -1.1219  2.3922 -0.8562
  195MOL0     H26879   4.713   6.907   8.744  0.8761 -0.0860  0.1050
  195MOL0     H26880   4.640   7.103   8.866 -1.5588  1.8567 -0.2345
  195MOL0     H26881   4.605   7.190   8.711 -1.4116 -0.5525  0.7125
  195MOL0     H26882   4.875   7.052   8.749 -0.8488 -0.4149  1.4425
  195MOL0     H26883   4.832   7.184   8.643 -2.6461  0.8502 -0.5558
  195MOL0     H26884   4.992   7.219   8.829  1.5761  0.2137  1.8104
  195MOL0     H26885   4.878   7.187   8.952  2.3385  1.7831  1.0560
  195MOL0     H26886   4.838   7.404   8.966  0.0616  0.0333 -0.0754
  195MOL0     H26887   4.751   7.398   8.809  0.7485  0.5224 -1.6464
  195MOL0     H26888   4.914   7.545   8.734  0.3094  0.8964 -0.8957
  195MOL0     H26889   4.962   7.387   8.687  0.3623  1.1002 -0.7245
  195MOL0     H26890   4.475   6.550   8.553 -0.1177 -0.6692 -2.2204
  195MOL0     H26891   4.365   6.375   8.417 -0.0611  1.5307 -0.9303
  195MOL0     H26892   3.939   6.226   8.250 -0.2933 -0.2084 -0.2305
  195MOL0     H26893   3.817   6.062   8.120 -1.5382  2.3133  4.5447
  195MOL0     H26894   2.833   5.533   7.113 -1.4822 -1.2252 -0.9052
  195MOL0     H26895   2.622   5.492   7.000  2.1986 -2.1535  2.1626
  195MOL0     H26896   2.331   5.389   6.840  1.0976  0.3124  4.8491
  195MOL0     H26897   2.153   5.303   6.684  0.5007  1.2540 -2.7864
  195MOL0     H26898   1.847   5.558   6.495 -0.8546 -0.0335  1.9966
  195MOL0     H26899   2.019   5.606   6.527  0.9823 -2.0858  0.8575
  195MOL0     H26900   2.083   5.412   6.402  0.3318  2.5694  1.6788
  195MOL0     H26901   2.004   5.537   6.311 -0.1439 -1.2863 -0.8609
  195MOL0     H26902   1.845   5.309   6.435 -0.5370 -0.7821 -0.0610
  195MOL0     H26903   1.805   5.408   6.290 -1.6585 -1.2807  0.5971
  195MOL0     H26904   2.037   5.222   6.275  1.4449  2.8803 -2.0182
  195MOL0     H26905   1.941   5.293   6.144 -1.3264  1.7230  0.2928
  195MOL0     H26906   1.709   4.950   6.173  0.7688  0.4162 -3.2969
  195MOL0     H26907   1.928   5.648   6.792  1.5759 -0.6819 -1.2564
  195MOL0     H26908   2.061   5.836   6.913  1.6778 -1.5421 -2.3271
  195MOL0     H26909   1.959   5.740   7.006 -1.0736  2.7184 -3.3318
  195MOL0     H26910   2.132   5.768   7.056  3.4154  3.5113 -2.6971
  196MOL0     O26911   2.693   2.727   8.335 -0.2105 -0.3422 -0.5186
  196MOL0     C26912   2.737   2.756   8.447 -0.0860  0.6518  0.7053
  196MOL0     O26913   2.676   2.845   8.532  0.1080 -0.1520 -0.0538
  196MOL0     C26914   2.582   2.939   8.489 -0.6271 -0.8028  0.2406
  196MOL0     C26915   2.477   2.989   8.573 -0.4242  0.2669 -0.0503
  196MOL0     C26916   2.402   3.096   8.527 -0.9649  0.3937  0.2844
  196MOL0     C26917   2.431   3.166   8.410  0.5700  0.1491  0.4321
  196MOL0     O26918   2.368   3.289   8.375  0.4256 -0.0197 -0.7157
  196MOL0     C26919   2.384   3.393   8.476 -0.6839  0.0504 -0.4719
  196MOL0     C26920   2.503   3.480   8.437  0.4658 -1.0323  0.1809
  196MOL0     C26921   2.507   3.609   8.529  0.3183  0.1408 -0.7541
  196MOL0     C26922   2.515   3.572   8.679 -1.1632  0.3285  0.8820
  196MOL0     C26923   2.636   3.496   8.719  0.2337 -0.3604 -0.5984
  196MOL0     C26924   2.655   3.485   8.881  0.9759  0.2671 -1.1121
  196MOL0     C26925   2.782   3.418   8.920 -0.5947 -0.9587 -0.9274
  196MOL0     C26926   2.898   3.515   8.887 -0.2960 -0.1851 -0.4549
  196MOL0     N26927   3.021   3.454   8.948  0.3978 -0.2900  0.1105
  196MOL0     C26928   3.071   3.480   9.072  0.4776  0.2135  0.0786
  196MOL0     C26929   3.183   3.398   9.079  0.1557  0.0107  0.0286
  196MOL0     C26930   3.297   3.395   9.182 -0.5846 -0.2403 -0.8493
  196MOL0     C26931   3.400   3.492   9.149  0.2597  0.0503  0.4865
  196MOL0     C26932   3.535   3.443   9.185 -0.0909 -0.7932 -0.2706
  196MOL0     C26933   3.593   3.344   9.081 -0.7921  0.1121 -0.7924
  196MOL0     O26934   3.676   3.405   8.982 -0.0524 -0.1731 -0.0393
  196MOL0     C26935   3.813   3.411   9.001 -0.0179  0.2885  0.4744
  196MOL0     C26936   3.870   3.376   9.122 -0.5412  1.0611 -0.5550
  196MOL0     C26937   4.005   3.372   9.151  1.1709 -0.4127 -0.3966
  196MOL0     C26938   4.039   3.323   9.291  0.8162 -0.1130 -0.4179
  196MOL0     C26939   4.101   3.405   9.051  0.1413 -0.8351  0.2279
  196MOL0     C26940   4.246   3.399   9.059 -0.0013  0.0575 -0.6266
  196MOL0     O26941   4.309   3.442   8.950  0.2030  0.8308  0.6079
  196MOL0     C26942   4.443   3.419   8.944 -0.4895 -0.9244 -0.5545
  196MOL0     C26943   4.498   3.329   8.845 -0.2426  0.8753  0.1853
  196MOL0     C26944   4.639   3.301   8.836  0.4526 -0.1458 -0.0564
  196MOL0     C26945   4.731   3.378   8.915 -0.0891 -0.1740 -0.3751
  196MOL0     O26946   4.869   3.368   8.916 -0.0345 -0.0168 -0.2513
  196MOL0     C26947   4.926   3.246   8.868 -0.1892  0.1229 -1.0019
  196MOL0     C26948   4.929   3.241   8.711  0.6903  0.0723 -0.5376
  196MOL0     C26949   4.911   3.377   8.648 -1.3895 -0.0941 -0.1142
  196MOL0     C26950   5.037   3.475   8.665  1.1241 -0.4024  1.1869
  196MOL0     C26951   4.988   3.618   8.636 -0.1603 -0.0229  0.4667
  196MOL0     C26952   5.100   3.721   8.628 -0.5751 -0.1693 -0.2338
  196MOL0     C26953   5.168   3.739   8.765  0.2529 -0.2358  0.0279
  196MOL0     C26954   5.068   3.757   8.887 -0.5750  0.2638  0.3984
  196MOL0    Cl26955   5.152   3.802   9.039 -0.3094 -0.0968  0.1285
  196MOL0     C26956   4.673   3.473   9.004  0.6327 -0.2756 -0.2382
  196MOL0     C26957   4.533   3.493   9.024 -0.3011  0.0932  0.2736
  196MOL0     O26958   4.289   3.357   9.171  0.2672 -0.2117 -0.0228
  196MOL0     C26959   4.045   3.451   8.925 -0.0750  0.1151 -0.1001
  196MOL0     C26960   3.908   3.448   8.901  0.8815  0.1732  0.4304
  196MOL0     N26961   3.196   3.317   8.963 -0.7755 -0.3833 -0.7392
  196MOL0     N26962   3.098   3.363   8.884 -0.2931 -0.1443 -0.5734
  196MOL0     C26963   2.533   3.120   8.333 -0.8421 -0.6783 -0.6688
  196MOL0     C26964   2.612   3.012   8.365  0.2159  0.1717  0.2421
  196MOL0     C26965   2.862   2.688   8.485 -0.7901 -0.5201 -0.0222
  196MOL0     C26966   2.901   2.702   8.618  0.2614  0.9199 -0.9345
  196MOL0     C26967   3.013   2.630   8.665  0.5968  0.2842 -1.3105
  196MOL0     C26968   3.098   2.558   8.578  0.2099 -0.9139 -0.3425
  196MOL0     O26969   3.212   2.494   8.612  0.2459  0.4402 -0.0768
  196MOL0     C26970   3.235   2.452   8.747 -0.1481  0.3282  0.7104
  196MOL0     C26971   3.359   2.371   8.771 -0.3705  0.1402 -0.2782
  196MOL0     C26972   3.342   2.244   8.686  0.0196 -0.0173 -0.3020
  196MOL0     C26973   3.430   2.126   8.732 -0.4178 -0.6437 -0.8343
  196MOL0     C26974   3.408   2.091   8.873  0.4628  0.3006 -0.6305
  196MOL0     C26975   3.404   2.061   8.989  0.0832 -0.7507 -0.0698
  196MOL0     C26976   3.067   2.568   8.442  1.0669 -0.0312 -0.1692
  196MOL0     C26977   2.957   2.633   8.387  0.2588 -0.5030  0.3083
  196MOL0     C26978   2.947   2.639   8.238  0.0641  0.4908 -0.2019
  196MOL0     H26979   2.470   2.940   8.670 -0.0587  0.9264  0.3131
  196MOL0     H26980   2.320   3.141   8.582 -1.0213  2.2068 -1.2120
  196MOL0     H26981   2.396   3.349   8.575 -1.1396  1.5960  0.2963
  196MOL0     H26982   2.289   3.446   8.481 -0.9950 -0.6202  2.3718
  196MOL0     H26983   2.602   3.434   8.444 -0.3615 -3.0155 -0.4484
  196MOL0     H26984   2.490   3.523   8.337 -0.2873 -1.7381 -0.0401
  196MOL0     H26985   2.593   3.671   8.502  0.3602  0.4385  0.0341
  196MOL0     H26986   2.418   3.672   8.515  0.2271  1.6368  4.4151
  196MOL0     H26987   2.524   3.667   8.733 -0.0774  0.5885  0.2643
  196MOL0     H26988   2.425   3.517   8.709 -0.5639 -1.9104 -1.1120
  196MOL0     H26989   2.723   3.547   8.677  0.7600 -2.1203 -1.7709
  196MOL0     H26990   2.626   3.396   8.676  0.5088 -0.9369  0.6236
  196MOL0     H26991   2.641   3.586   8.922  0.6305  0.4445 -1.6587
  196MOL0     H26992   2.582   3.423   8.933  0.0145  1.5925 -0.8397
  196MOL0     H26993   2.802   3.326   8.866  2.7061 -1.6835  1.2254
  196MOL0     H26994   2.787   3.393   9.027  0.7832  0.0886 -0.7214
  196MOL0     H26995   2.923   3.531   8.782  1.6292 -1.8307 -0.2986
  196MOL0     H26996   2.879   3.617   8.923 -0.2009 -0.4574  0.3877
  196MOL0     H26997   3.041   3.554   9.145  2.7187  1.6676 -0.3840
  196MOL0     H26998   3.339   3.295   9.198  1.1032  0.8947  3.2318
  196MOL0     H26999   3.260   3.424   9.281  2.0660 -0.4778  0.2948
  196MOL0     H27000   3.395   3.510   9.041 -1.8413 -2.4870  0.0457
  196MOL0     H27001   3.378   3.581   9.208 -1.3843  0.6377 -0.9314
  196MOL0     H27002   3.602   3.530   9.187 -0.9954  0.0511 -2.8248
  196MOL0     H27003   3.532   3.400   9.286  3.3331 -0.1773  0.2058
  196MOL0     H27004   3.646   3.264   9.132  0.2844  0.7780 -0.8339
  196MOL0     H27005   3.510   3.299   9.025 -0.4913 -1.2145 -0.2002
  196MOL0     H27006   3.813   3.344   9.209  1.4716  2.9843  1.6157
  196MOL0     H27007   3.952   3.319   9.358  1.6554  2.1259  0.9304
  196MOL0     H27008   4.106   3.393   9.342  0.0602  0.3826 -0.0765
  196MOL0     H27009   4.090   3.226   9.294  2.3316  0.6334  2.6648
  196MOL0     H27010   4.421   3.274   8.792 -1.1718  1.6978  0.6603
  196MOL0     H27011   4.664   3.221   8.767  1.4308  2.5856 -3.1875
  196MOL0     H27012   5.031   3.258   8.899 -0.5104  2.0850 -0.4826
  196MOL0     H27013   4.891   3.151   8.908 -0.8907 -0.8707 -3.7599
  196MOL0     H27014   5.027   3.203   8.680  2.2454  2.5800  0.9070
  196MOL0     H27015   4.847   3.185   8.665 -0.0278  2.4805 -2.3845
  196MOL0     H27016   4.823   3.433   8.679 -0.8478 -0.8715  3.2202
  196MOL0     H27017   4.898   3.369   8.540 -1.2004 -0.5903 -0.1041
  196MOL0     H27018   5.108   3.454   8.585  0.7676  0.4318  0.6353
  196MOL0     H27019   5.084   3.468   8.763  1.2194  0.1847  1.1873
  196MOL0     H27020   4.955   3.597   8.534 -2.0594  1.0317  0.8259
  196MOL0     H27021   4.909   3.649   8.704  0.5665  0.8044  0.9592
  196MOL0     H27022   5.067   3.822   8.603 -1.5716  0.1768  2.2028
  196MOL0     H27023   5.177   3.689   8.557 -1.2622 -1.3113 -0.5039
  196MOL0     H27024   5.233   3.826   8.775  0.8000 -0.5642 -0.6473
  196MOL0     H27025   5.234   3.655   8.787 -0.0828 -0.3389  0.6692
  196MOL0     H27026   5.010   3.666   8.903  1.0309 -0.5690  1.8799
  196MOL0     H27027   4.998   3.833   8.851 -0.2155 -0.7394 -2.7119
  196MOL0     H27028   4.750   3.522   9.062 -0.1124  2.1642 -1.1978
  196MOL0     H27029   4.510   3.570   9.096 -1.3199 -0.1516  0.2345
  196MOL0     H27030   4.109   3.475   8.840 -3.1433 -0.1271 -2.6744
  196MOL0     H27031   3.863   3.487   8.810 -4.7384 -3.0523  1.3851
  196MOL0     H27032   2.547   3.171   8.239  2.5061 -0.1581  0.0034
  196MOL0     H27033   2.689   2.979   8.295 -0.0692  2.3196 -1.1713
  196MOL0     H27034   2.828   2.753   8.680  0.7075  0.8287 -0.3372
  196MOL0     H27035   3.032   2.631   8.772 -2.1548  2.0165 -0.7157
  196MOL0     H27036   3.255   2.540   8.809  3.3179 -0.8244  1.4319
  196MOL0     H27037   3.149   2.399   8.788 -0.6943  1.1505  0.6656
  196MOL0     H27038   3.369   2.344   8.877 -0.6110  2.5270  0.3989
  196MOL0     H27039   3.447   2.432   8.753  1.5157 -2.4143 -0.2811
  196MOL0     H27040   3.237   2.213   8.696  0.8668 -2.4863  2.4627
  196MOL0     H27041   3.370   2.272   8.584 -2.7204 -5.1110 -2.8053
  196MOL0     H27042   3.533   2.163   8.730 -0.5881 -0.2090 -2.0740
  196MOL0     H27043   3.431   2.043   8.660  0.9263  2.6954 -5.0792
  196MOL0     H27044   3.413   2.051   9.095  0.7612  1.6757  0.1690
  196MOL0     H27045   3.135   2.520   8.372 -1.1880 -2.3585 -0.9261
  196MOL0     H27046   2.929   2.743   8.210  1.7715  0.6391 -0.8113
  196MOL0     H27047   3.034   2.603   8.182 -0.7252  0.6185 -1.5743
  196MOL0     H27048   2.864   2.578   8.200 -0.8679  1.0526  0.8783
  197MOL0     O27049   1.814   1.860   2.946 -0.2628  0.4549 -0.7216
  197MOL0     C27050   1.750   1.897   2.850 -0.1603  0.6070  0.3210
  197MOL0     O27051   1.803   1.969   2.744  0.0799 -0.4188 -0.2325
  197MOL0     C27052   1.941   2.002   2.734 -0.3245 -0.2911 -0.4847
  197MOL0     C27053   2.039   2.007   2.834  0.7262 -0.1501 -0.2420
  197MOL0     C27054   2.168   2.061   2.815  0.6925 -0.2704  0.6731
  197MOL0     C27055   2.210   2.103   2.690 -0.5590  0.6503  0.2747
  197MOL0     O27056   2.330   2.156   2.669 -0.0975 -0.4853  0.0810
  197MOL0     C27057   2.428   2.092   2.576  0.3963  0.7789 -0.4520
  197MOL0     C27058   2.454   1.940   2.613  0.9280  0.1452  0.2582
  197MOL0     C27059   2.540   1.931   2.742 -0.1412 -0.3797  0.5009
  197MOL0     C27060   2.601   1.789   2.762  0.6828  1.0578 -0.2483
  197MOL0     C27061   2.656   1.771   2.903 -0.3313 -0.6190 -0.4500
  197MOL0     C27062   2.702   1.627   2.926 -0.1042  0.1743 -0.3356
  197MOL0     C27063   2.581   1.532   2.930  0.0312 -0.5397  0.3221
  197MOL0     C27064   2.501   1.540   3.059 -0.2842  0.0424 -0.4544
  197MOL0     N27065   2.359   1.560   3.039 -0.2805  0.7201 -1.1232
  197MOL0     C27066   2.251   1.471   3.055  0.3934  0.1096 -0.2506
  197MOL0     C27067   2.135   1.554   3.049 -1.2387 -0.0285 -0.4860
  197MOL0     C27068   1.986   1.521   3.055 -0.1916 -0.3210  0.0596
  197MOL0     C27069   1.938   1.517   3.208 -0.3849 -0.0020  0.3134
  197MOL0     C27070   1.916   1.660   3.258 -0.1294  0.0146 -0.3214
  197MOL0     C27071   1.818   1.662   3.375  0.0841 -0.4749 -1.0878
  197MOL0     O27072   1.681   1.645   3.323  0.6874 -0.5713 -0.0888
  197MOL0     C27073   1.576   1.638   3.409  1.0710 -0.3185  0.7816
  197MOL0     C27074   1.454   1.600   3.352  0.7568  0.0225 -0.3662
  197MOL0     C27075   1.334   1.588   3.431 -1.0369 -0.0305 -0.4405
  197MOL0     C27076   1.215   1.528   3.358 -0.2931  0.8701 -0.0163
  197MOL0     C27077   1.331   1.634   3.566 -0.3802  1.0233 -0.2662
  197MOL0     C27078   1.212   1.650   3.641 -0.0187 -0.4034 -0.8221
  197MOL0     O27079   1.097   1.692   3.571  0.5871 -0.0547 -0.1496
  197MOL0     C27080   0.985   1.720   3.636  0.2785 -0.6480  0.9598
  197MOL0     C27081   0.872   1.698   3.554 -0.6461  0.1903 -0.6494
  197MOL0     C27082   0.747   1.726   3.599  0.6615  0.5992  0.7947
  197MOL0     C27083   0.718   1.770   3.725  0.4696 -1.0059 -0.4043
  197MOL0     O27084   0.591   1.783   3.781 -0.3580  0.2340  0.6915
  197MOL0     C27085   0.473   1.779   3.692 -0.6990 -0.2974 -0.0031
  197MOL0     C27086   0.360   1.855   3.770  0.2638  0.3016 -0.4543
  197MOL0     C27087   0.224   1.854   3.693 -0.3644  0.1213 -0.0444
  197MOL0     C27088   0.101   1.894   3.776 -0.4478  0.0044  0.3038
  197MOL0     C27089  -0.020   1.882   3.692  0.1167 -0.8023 -0.4861
  197MOL0     C27090  -0.130   1.959   3.770 -0.0825 -0.1649 -0.0218
  197MOL0     C27091  -0.185   1.865   3.883  0.4284 -0.7270 -1.0060
  197MOL0     C27092  -0.339   1.875   3.875 -0.0814 -0.1347 -0.6771
  197MOL0    Cl27093  -0.416   1.786   3.741 -0.2652  0.6383  0.1510
  197MOL0     C27094   0.835   1.797   3.809 -0.3137  0.2722  1.2399
  197MOL0     C27095   0.967   1.765   3.763 -0.2671 -0.0373 -0.2280
  197MOL0     O27096   1.224   1.637   3.762  0.3026 -0.3044 -0.1328
  197MOL0     C27097   1.458   1.672   3.623 -0.2316 -0.8676 -0.1587
  197MOL0     C27098   1.578   1.667   3.547 -0.2230  0.1747  0.0232
  197MOL0     N27099   2.182   1.679   3.017  0.1768 -0.0726 -0.3317
  197MOL0     N27100   2.312   1.677   3.007  0.6968 -1.0526  0.1840
  197MOL0     C27101   2.124   2.085   2.583 -0.1947 -0.1562 -0.0709
  197MOL0     C27102   1.992   2.036   2.603  0.5514  0.1054  0.2521
  197MOL0     C27103   1.603   1.861   2.848  0.8522 -0.6473 -0.4454
  197MOL0     C27104   1.519   1.944   2.771  0.0685  0.0702 -0.2479
  197MOL0     C27105   1.377   1.909   2.770  0.1093  0.1243  0.2349
  197MOL0     C27106   1.327   1.802   2.833  0.3891  0.9839 -0.6924
  197MOL0     O27107   1.193   1.796   2.820 -0.1172 -0.4906 -0.4167
  197MOL0     C27108   1.120   1.700   2.909 -0.0939 -0.1541 -0.8623
  197MOL0     C27109   0.978   1.688   2.879 -0.1091 -0.9336  0.1754
  197MOL0     C27110   0.934   1.578   2.778 -0.0670 -0.4748 -0.0500
  197MOL0     C27111   0.820   1.481   2.824  0.4265  0.0164 -0.4555
  197MOL0     C27112   0.704   1.557   2.855 -0.5583  0.0035 -1.0831
  197MOL0     C27113   0.605   1.620   2.872  0.3934  0.1958  0.1930
  197MOL0     C27114   1.410   1.724   2.916 -0.4792 -0.6024 -0.8859
  197MOL0     C27115   1.554   1.751   2.917  0.0798  0.5278  0.1537
  197MOL0     C27116   1.641   1.655   2.995  0.2292  0.4507 -0.8462
  197MOL0     H27117   2.015   1.981   2.936  0.1226 -1.1565 -0.6210
  197MOL0     H27118   2.224   2.075   2.907 -0.9683  1.2255  1.5190
  197MOL0     H27119   2.520   2.150   2.590  1.0024  0.2772 -2.1417
  197MOL0     H27120   2.387   2.099   2.475 -1.0370 -2.1056 -0.1711
  197MOL0     H27121   2.364   1.884   2.639  0.6885  0.8478  0.9846
  197MOL0     H27122   2.501   1.894   2.525  1.3797  0.7751  0.1621
  197MOL0     H27123   2.624   1.999   2.727 -1.2157  0.8447 -0.0342
  197MOL0     H27124   2.480   1.957   2.830 -0.4585  0.2766  0.0896
  197MOL0     H27125   2.513   1.724   2.756  2.5971 -2.0042  1.8359
  197MOL0     H27126   2.681   1.768   2.690  1.8824  2.1236  0.7351
  197MOL0     H27127   2.592   1.822   2.977  1.0086  1.1642 -0.4679
  197MOL0     H27128   2.750   1.826   2.899  0.1795 -0.9949  3.0856
  197MOL0     H27129   2.770   1.603   2.843  3.4243  1.8557  1.8356
  197MOL0     H27130   2.761   1.614   3.017 -0.5662  0.9461  0.0880
  197MOL0     H27131   2.635   1.437   2.929 -0.3631 -0.8167  2.0622
  197MOL0     H27132   2.516   1.530   2.842 -0.0438 -3.1765  0.3509
  197MOL0     H27133   2.529   1.451   3.117 -5.8169 -1.7065  0.1117
  197MOL0     H27134   2.533   1.624   3.121  1.7896 -0.0676 -1.2724
  197MOL0     H27135   2.248   1.364   3.074 -1.9032 -0.0059 -1.0136
  197MOL0     H27136   1.972   1.419   3.019  0.1312 -0.6766  0.9179
  197MOL0     H27137   1.929   1.597   3.000 -0.4866 -1.1329 -0.7765
  197MOL0     H27138   1.840   1.470   3.219  0.4320 -2.3200 -1.5313
  197MOL0     H27139   2.007   1.459   3.270 -0.1875  0.4005  0.4757
  197MOL0     H27140   2.020   1.685   3.280 -0.4995  2.2613 -0.9191
  197MOL0     H27141   1.877   1.716   3.173  0.3755 -1.2869 -1.4567
  197MOL0     H27142   1.846   1.582   3.443 -1.9573  0.6043  1.1736
  197MOL0     H27143   1.823   1.756   3.432 -1.3036 -1.0085 -0.0472
  197MOL0     H27144   1.468   1.574   3.248  1.9416  0.4070 -0.3225
  197MOL0     H27145   1.152   1.607   3.317 -0.2644  1.7704  1.5870
  197MOL0     H27146   1.155   1.457   3.417 -0.3811 -0.3404 -1.5086
  197MOL0     H27147   1.238   1.469   3.270 -1.7523 -2.5124  1.6775
  197MOL0     H27148   0.885   1.651   3.457 -0.3127  0.3851 -0.7015
  197MOL0     H27149   0.662   1.703   3.536  0.7403 -2.0296  1.5560
  197MOL0     H27150   0.480   1.840   3.600 -4.6142  0.3619 -0.0353
  197MOL0     H27151   0.449   1.677   3.663 -1.7127 -1.0274  3.0941
  197MOL0     H27152   0.333   1.800   3.860 -1.0336  2.8111  0.7840
  197MOL0     H27153   0.393   1.955   3.800 -0.2496  0.4924 -0.5219
  197MOL0     H27154   0.210   1.755   3.649  2.4912  1.0475 -3.4681
  197MOL0     H27155   0.237   1.919   3.606 -0.3985 -0.9529 -0.8623
  197MOL0     H27156   0.124   1.992   3.819  0.9992  0.0235 -0.4394
  197MOL0     H27157   0.091   1.831   3.864 -1.1623 -0.1894  0.0957
  197MOL0     H27158   0.011   1.940   3.604  3.2209  2.4401  2.4156
  197MOL0     H27159  -0.036   1.776   3.670 -0.0202 -0.7452 -0.6689
  197MOL0     H27160  -0.204   2.002   3.702  0.2369  1.2459  0.4742
  197MOL0     H27161  -0.082   2.047   3.815 -1.5849  0.1267  1.0684
  197MOL0     H27162  -0.153   1.899   3.982  2.6177 -2.0827 -1.1807
  197MOL0     H27163  -0.156   1.760   3.878  3.9738  0.0389  0.5638
  197MOL0     H27164  -0.372   1.978   3.858 -0.4578 -0.4091 -1.6869
  197MOL0     H27165  -0.378   1.832   3.968 -0.7832  1.2608 -0.3015
  197MOL0     H27166   0.833   1.833   3.911 -0.8161  2.1621  0.6104
  197MOL0     H27167   1.048   1.789   3.831 -0.0028  1.4572 -1.0232
  197MOL0     H27168   1.461   1.704   3.727  1.5778  2.0628 -0.9807
  197MOL0     H27169   1.677   1.691   3.585 -0.9114 -1.2931  3.0623
  197MOL0     H27170   2.164   2.095   2.482  2.3928  0.5086  0.9417
  197MOL0     H27171   1.927   2.020   2.518  2.0301 -2.5021 -0.4945
  197MOL0     H27172   1.554   2.035   2.724 -1.0050  2.0525  2.5340
  197MOL0     H27173   1.310   1.968   2.708  1.3962  1.3290 -0.0696
  197MOL0     H27174   1.166   1.603   2.887  1.0945 -0.3341  2.0188
  197MOL0     H27175   1.130   1.717   3.017 -0.1190  4.4622 -1.3862
  197MOL0     H27176   0.950   1.787   2.843  0.1627 -1.6966 -2.2865
  197MOL0     H27177   0.923   1.673   2.973  2.2185 -1.5800  1.5257
  197MOL0     H27178   0.892   1.633   2.693  1.3729  0.7369 -0.0094
  197MOL0     H27179   1.023   1.524   2.744 -0.4561 -1.6529  0.7293
  197MOL0     H27180   0.847   1.423   2.913 -1.9604  0.7237  0.8060
  197MOL0     H27181   0.811   1.407   2.743  3.6996 -0.9513 -0.0771
  197MOL0     H27182   0.514   1.676   2.870  0.5974  0.5244 -0.0117
  197MOL0     H27183   1.379   1.645   2.984  2.5083  0.1911  1.6517
  197MOL0     H27184   1.583   1.565   3.017  0.1774 -0.2397 -3.5351
  197MOL0     H27185   1.733   1.628   2.943  3.0554  0.8810  3.4078
  197MOL0     H27186   1.667   1.708   3.087 -1.8779 -1.2538  0.8549
  198MOL0     O27187   4.857   6.479   6.931  0.5924  0.0569  1.3412
  198MOL0     C27188   4.762   6.502   7.009 -1.0102 -0.0966 -0.3610
  198MOL0     O27189   4.718   6.625   7.048  0.0397 -0.3932  0.1932
  198MOL0     C27190   4.797   6.725   7.026  0.1080 -0.5205  1.2279
  198MOL0     C27191   4.747   6.842   6.966 -0.7081  0.3329  0.1745
  198MOL0     C27192   4.820   6.953   6.931 -1.1257  0.0615  0.2454
  198MOL0     C27193   4.949   6.962   6.976  0.4142  0.2510 -0.0929
  198MOL0     O27194   5.020   7.080   6.944 -0.1367 -0.3304  0.5190
  198MOL0     C27195   5.155   7.099   6.991  0.3188  0.1371  0.5002
  198MOL0     C27196   5.169   7.243   7.002 -0.5156  1.2663  0.4236
  198MOL0     C27197   5.231   7.322   6.883  0.2929 -0.0380 -0.0602
  198MOL0     C27198   5.261   7.468   6.928  1.0226  0.7906 -0.1919
  198MOL0     C27199   5.348   7.557   6.849  0.5806  0.1575  0.6277
  198MOL0     C27200   5.494   7.507   6.835 -0.2418  0.1043  0.3218
  198MOL0     C27201   5.587   7.621   6.792  0.3243  0.2806  0.2405
  198MOL0     C27202   5.732   7.577   6.751 -0.0910  0.5416 -0.3700
  198MOL0     N27203   5.823   7.683   6.709 -0.4353 -0.0148  0.2509
  198MOL0     C27204   5.858   7.799   6.780  0.1858  0.6496  0.6150
  198MOL0     C27205   5.967   7.841   6.708  0.4486  0.2510 -0.3319
  198MOL0     C27206   6.049   7.959   6.757  0.4338  0.5940 -0.0368
  198MOL0     C27207   6.195   7.935   6.730  0.6965  0.4758  0.2580
  198MOL0     C27208   6.268   8.066   6.712  0.2263  0.2282 -0.6107
  198MOL0     C27209   6.422   8.046   6.723  0.0506  0.5372  0.2505
  198MOL0     O27210   6.474   7.945   6.632  0.2656 -0.3356 -0.2364
  198MOL0     C27211   6.606   7.972   6.590 -0.1249  0.1253  0.5082
  198MOL0     C27212   6.643   8.100   6.535 -0.4021 -0.6743 -0.0640
  198MOL0     C27213   6.776   8.116   6.486 -0.6977  0.5175  0.2358
  198MOL0     C27214   6.805   8.251   6.431  0.2705  0.2977  1.1508
  198MOL0     C27215   6.864   8.004   6.484 -0.4498  0.3549 -0.2273
  198MOL0     C27216   6.999   8.006   6.412  0.9660  0.5420  0.0881
  198MOL0     O27217   7.049   7.885   6.385 -0.3231 -0.5831 -0.3765
  198MOL0     C27218   7.154   7.895   6.303 -0.5689  0.2925 -0.9391
  198MOL0     C27219   7.282   7.886   6.377  1.0372 -0.1044  0.8058
  198MOL0     C27220   7.402   7.891   6.300 -0.7686  0.3249  0.2718
  198MOL0     C27221   7.403   7.927   6.162  0.4999  0.7064  0.0016
  198MOL0     O27222   7.513   7.964   6.095 -0.3649  0.6806  0.4476
  198MOL0     C27223   7.645   7.916   6.129  0.5485  0.6268  0.2432
  198MOL0     C27224   7.729   7.975   6.023  0.2228 -0.1564 -0.8708
  198MOL0     C27225   7.863   7.915   6.012  0.7273  0.5933  0.6733
  198MOL0     C27226   7.930   7.925   5.870 -0.3602 -0.2351  1.0016
  198MOL0     C27227   8.069   7.867   5.858 -0.2965  0.9000 -0.8384
  198MOL0     C27228   8.175   7.936   5.936  0.0762  0.0997 -0.5694
  198MOL0     C27229   8.193   8.085   5.895  0.5482 -0.3071 -0.4233
  198MOL0     C27230   8.313   8.133   5.980  0.0856 -0.1756 -0.5907
  198MOL0    Cl27231   8.310   8.306   5.957  0.1157  0.1826  0.1629
  198MOL0     C27232   7.281   7.932   6.095  0.3444 -0.6282 -0.0829
  198MOL0     C27233   7.153   7.918   6.169  0.0881  0.4112  0.1313
  198MOL0     O27234   7.054   8.114   6.399  0.5406  0.6807  0.4208
  198MOL0     C27235   6.825   7.879   6.542  0.2709  0.4359  0.0358
  198MOL0     C27236   6.696   7.869   6.600 -0.5288 -0.2603  0.1026
  198MOL0     N27237   5.996   7.763   6.595 -0.0098  0.0680 -0.2379
  198MOL0     N27238   5.910   7.670   6.599  0.5351 -0.3118  0.3550
  198MOL0     C27239   4.999   6.849   7.050 -0.5255  0.1948 -0.4034
  198MOL0     C27240   4.924   6.732   7.068  0.2212 -0.4665  0.1987
  198MOL0     C27241   4.689   6.383   7.052 -0.5761  0.4213 -0.5866
  198MOL0     C27242   4.545   6.378   7.036 -1.5002 -0.4723 -0.4158
  198MOL0     C27243   4.471   6.272   7.068 -0.2084  0.0853 -1.1524
  198MOL0     C27244   4.535   6.160   7.130 -0.0321 -0.0328  1.0324
  198MOL0     O27245   4.447   6.061   7.153 -0.0567  0.0403 -0.3344
  198MOL0     C27246   4.496   5.926   7.174  0.3149  1.3850 -0.5416
  198MOL0     C27247   4.368   5.845   7.173 -0.3850 -0.0528  0.3057
  198MOL0     C27248   4.279   5.875   7.292  0.4796 -0.2389  1.3759
  198MOL0     C27249   4.147   5.812   7.281 -0.2223  0.4956  0.7138
  198MOL0     C27250   4.143   5.669   7.316  0.3032  0.1582 -0.1820
  198MOL0     C27251   4.150   5.552   7.337  0.2419  0.8587  1.3379
  198MOL0     C27252   4.674   6.157   7.148 -0.8262  0.0255  0.8058
  198MOL0     C27253   4.750   6.270   7.108  0.3950  0.0654 -0.4245
  198MOL0     C27254   4.898   6.251   7.126 -0.3980 -0.3783  0.2389
  198MOL0     H27255   4.645   6.835   6.930 -0.4503  0.7137 -0.6474
  198MOL0     H27256   4.764   7.028   6.876 -1.1245 -1.0776 -1.3635
  198MOL0     H27257   5.224   7.062   6.915 -1.1396  2.7536 -2.3098
  198MOL0     H27258   5.157   7.052   7.090 -2.9488 -0.7683  0.2571
  198MOL0     H27259   5.078   7.290   7.041 -0.7874 -0.8637  2.5579
  198MOL0     H27260   5.254   7.246   7.071  0.8245  2.9193 -1.2050
  198MOL0     H27261   5.323   7.274   6.847  1.8493  1.8573  1.1528
  198MOL0     H27262   5.162   7.315   6.799 -1.4971 -1.5184  1.4335
  198MOL0     H27263   5.170   7.519   6.959  2.0537  1.0022  2.7678
  198MOL0     H27264   5.324   7.451   7.016  2.4592  0.2565 -1.2792
  198MOL0     H27265   5.364   7.654   6.899  1.1496  0.9630 -1.0404
  198MOL0     H27266   5.300   7.591   6.757  2.7275  2.3769  0.2170
  198MOL0     H27267   5.533   7.461   6.926 -0.0020  0.6855  0.5157
  198MOL0     H27268   5.490   7.427   6.760 -0.0225  1.5928 -1.3428
  198MOL0     H27269   5.600   7.699   6.868 -2.5731  0.8980  0.2186
  198MOL0     H27270   5.538   7.661   6.703  1.7456 -0.4579 -0.9157
  198MOL0     H27271   5.783   7.533   6.837 -0.9256  1.8732  0.8556
  198MOL0     H27272   5.713   7.503   6.673 -0.1324 -0.7975  0.8782
  198MOL0     H27273   5.831   7.838   6.877 -0.0028  1.5869  0.2005
  198MOL0     H27274   6.031   7.989   6.861  1.2940  2.5712 -0.4165
  198MOL0     H27275   6.006   8.030   6.686  0.2557  1.3126  0.7595
  198MOL0     H27276   6.232   7.885   6.820 -0.2136 -0.7509 -0.0247
  198MOL0     H27277   6.218   7.876   6.641  0.9303  0.9043  0.0306
  198MOL0     H27278   6.236   8.103   6.614 -0.7576 -1.0262 -0.7922
  198MOL0     H27279   6.241   8.148   6.778  0.8679  0.7252 -0.9432
  198MOL0     H27280   6.463   8.146   6.703  0.0520  0.7666  1.3546
  198MOL0     H27281   6.451   8.016   6.824  0.8430 -0.3226 -0.2204
  198MOL0     H27282   6.568   8.178   6.530  0.4818  0.2120  0.2470
  198MOL0     H27283   6.706   8.297   6.430 -1.1724 -2.5780 -0.4320
  198MOL0     H27284   6.822   8.261   6.323  1.8914 -0.8254  1.2699
  198MOL0     H27285   6.887   8.293   6.490  0.8861  2.2916 -0.9424
  198MOL0     H27286   7.286   7.878   6.485 -1.8934 -1.7905  0.9156
  198MOL0     H27287   7.495   7.872   6.353 -1.0764 -0.4083  0.5563
  198MOL0     H27288   7.672   7.947   6.231 -2.0556  1.1188  0.8717
  198MOL0     H27289   7.638   7.807   6.124  0.9009  0.5565  1.0357
  198MOL0     H27290   7.674   7.959   5.930 -0.0594 -1.8901 -0.4422
  198MOL0     H27291   7.732   8.082   6.042 -2.0422 -0.1887 -0.0309
  198MOL0     H27292   7.865   7.810   6.042 -1.1793  0.1378 -0.5940
  198MOL0     H27293   7.919   7.956   6.096  1.2255 -0.6501  0.9738
  198MOL0     H27294   7.925   8.025   5.827 -0.7091  0.5257  2.7303
  198MOL0     H27295   7.870   7.865   5.801 -2.4964 -0.8927  3.2854
  198MOL0     H27296   8.065   7.762   5.889 -0.5913  0.5823 -1.9301
  198MOL0     H27297   8.106   7.865   5.755 -1.9630  0.2217 -1.4444
  198MOL0     H27298   8.270   7.886   5.920  1.1705  2.0402 -0.4809
  198MOL0     H27299   8.166   7.940   6.045  0.5013 -1.5127 -0.4577
  198MOL0     H27300   8.110   8.155   5.913  0.8681 -0.5175  2.3516
  198MOL0     H27301   8.224   8.095   5.791 -1.0560  0.3258 -0.8764
  198MOL0     H27302   8.407   8.089   5.947 -0.5712  0.8046 -4.1819
  198MOL0     H27303   8.293   8.106   6.084 -1.1249 -0.7984 -0.9680
  198MOL0     H27304   7.272   7.952   5.988  0.9569 -2.2480 -0.4649
  198MOL0     H27305   7.056   7.898   6.125  0.0996  0.3560  0.1303
  198MOL0     H27306   6.887   7.791   6.559 -0.2248  0.4219  2.0537
  198MOL0     H27307   6.661   7.774   6.639 -0.2685 -1.0286 -1.4576
  198MOL0     H27308   5.094   6.867   7.099  0.1668  0.7044 -1.8634
  198MOL0     H27309   4.968   6.650   7.124  0.8756  0.9475  1.8566
  198MOL0     H27310   4.502   6.466   6.990 -1.6899 -0.5932 -0.4741
  198MOL0     H27311   4.363   6.265   7.058 -0.5054 -3.6517  2.1829
  198MOL0     H27312   4.565   5.883   7.101  0.6109 -1.1299  1.0925
  198MOL0     H27313   4.554   5.925   7.267  0.2140  0.3378 -0.4853
  198MOL0     H27314   4.392   5.740   7.192  2.4764  0.6681  1.2236
  198MOL0     H27315   4.317   5.857   7.077  1.0602 -1.0222 -0.6310
  198MOL0     H27316   4.320   5.859   7.392  3.3507 -0.1742  0.3342
  198MOL0     H27317   4.260   5.982   7.307  3.5860  0.2048  2.9718
  198MOL0     H27318   4.112   5.822   7.178 -1.0760 -0.5360  0.8799
  198MOL0     H27319   4.077   5.871   7.341 -0.5202 -0.2413  1.1135
  198MOL0     H27320   4.174   5.450   7.357  1.8035  0.9366 -0.0070
  198MOL0     H27321   4.710   6.063   7.189 -1.4524 -0.2872  0.6590
  198MOL0     H27322   4.928   6.176   7.051 -1.4729 -0.6813  0.0867
  198MOL0     H27323   4.965   6.337   7.124 -1.5683  0.6088  1.6539
  198MOL0     H27324   4.913   6.200   7.221 -1.4700 -3.5927 -1.1674
  199MOL0     O27325   6.094   7.622   1.494 -0.4066  0.4394  0.1796
  199MOL0     C27326   6.152   7.706   1.554  0.3732 -0.4450 -0.3546
  199MOL0     O27327   6.175   7.838   1.508 -0.3631  0.4358 -0.1454
  199MOL0     C27328   6.112   7.873   1.388  0.3097  0.5606 -0.7913
  199MOL0     C27329   6.186   7.890   1.270 -0.0315 -0.2815  0.7549
  199MOL0     C27330   6.118   7.904   1.145  0.9851  0.1461 -0.1280
  199MOL0     C27331   5.976   7.896   1.134  1.3683 -0.7159  0.6426
  199MOL0     O27332   5.906   7.906   1.022  0.3410 -0.1213  0.2665
  199MOL0     C27333   5.971   7.892   0.902  0.3208 -0.3988 -0.4992
  199MOL0     C27334   6.010   7.748   0.871 -0.3779 -1.0054  0.7249
  199MOL0     C27335   6.078   7.750   0.737  0.6168  0.0518  0.0267
  199MOL0     C27336   6.230   7.770   0.744  0.3325 -0.5724  0.7148
  199MOL0     C27337   6.310   7.654   0.788 -0.2689 -0.2540 -0.6081
  199MOL0     C27338   6.461   7.674   0.782  0.6667 -0.9995 -0.9730
  199MOL0     C27339   6.531   7.546   0.758  0.2920  0.4704  0.0145
  199MOL0     C27340   6.678   7.582   0.792  0.4794 -0.4479  0.1975
  199MOL0     N27341   6.745   7.642   0.674 -0.5194  0.1748 -0.3195
  199MOL0     C27342   6.851   7.570   0.613  0.2573 -0.5080 -0.7142
  199MOL0     C27343   6.915   7.668   0.549  0.5830  0.6683  0.6768
  199MOL0     C27344   7.036   7.660   0.456  0.0319  0.2905 -0.0345
  199MOL0     C27345   7.160   7.589   0.515  0.9522 -0.7430  0.7494
  199MOL0     C27346   7.279   7.575   0.414  0.4734 -0.0558  0.3641
  199MOL0     C27347   7.238   7.476   0.301 -0.1318  1.0151  0.0282
  199MOL0     O27348   7.360   7.443   0.226 -0.2484 -0.0977 -0.5653
  199MOL0     C27349   7.393   7.515   0.114 -0.6723  0.2910 -0.5378
  199MOL0     C27350   7.498   7.475   0.032 -0.5964  0.5711  0.1270
  199MOL0     C27351   7.551   7.549  -0.083  1.1199  0.2108 -1.0860
  199MOL0     C27352   7.665   7.493  -0.165 -0.0805  0.7005  0.3330
  199MOL0     C27353   7.479   7.671  -0.119  0.5188 -0.5174 -0.3195
  199MOL0     C27354   7.511   7.763  -0.242 -0.2914  0.6799 -0.0565
  199MOL0     O27355   7.409   7.842  -0.285 -0.4735  0.5603  0.2950
  199MOL0     C27356   7.438   7.925  -0.383  0.3520  0.0679  0.4973
  199MOL0     C27357   7.423   8.060  -0.352 -0.6622 -0.4752  1.0848
  199MOL0     C27358   7.424   8.156  -0.450  0.2646  0.3259  0.3412
  199MOL0     C27359   7.462   8.120  -0.580 -1.0319 -1.2951  0.3750
  199MOL0     O27360   7.479   8.215  -0.681  0.2422 -0.0401 -0.1665
  199MOL0     C27361   7.398   8.334  -0.678 -0.5389 -0.2028  0.0068
  199MOL0     C27362   7.418   8.395  -0.820  0.2547  0.2259 -0.0314
  199MOL0     C27363   7.334   8.518  -0.838  0.6699  0.2483 -0.7544
  199MOL0     C27364   7.367   8.633  -0.737  0.5718 -0.5541  0.6219
  199MOL0     C27365   7.281   8.757  -0.766  0.6272  0.0994  0.5085
  199MOL0     C27366   7.330   8.827  -0.893 -0.1609 -0.5573  0.1434
  199MOL0     C27367   7.470   8.891  -0.875 -0.7267  0.3151 -0.0328
  199MOL0     C27368   7.510   8.961  -1.008  0.0713 -0.3140  0.6281
  199MOL0    Cl27369   7.410   9.104  -1.031 -0.0177  0.1308  0.4665
  199MOL0     C27370   7.504   7.995  -0.602 -0.9035  0.6737  0.8760
  199MOL0     C27371   7.490   7.891  -0.508 -0.1709  1.2648 -0.7745
  199MOL0     O27372   7.628   7.747  -0.285  0.5025  0.3277  0.1269
  199MOL0     C27373   7.367   7.697  -0.038 -0.1878  0.1015  0.3302
  199MOL0     C27374   7.330   7.624   0.074 -0.2710 -0.9819  0.0333
  199MOL0     N27375   6.855   7.791   0.564  0.2794  0.1071  0.6308
  199MOL0     N27376   6.753   7.775   0.641  0.1568 -0.4438  0.0870
  199MOL0     C27377   5.894   7.894   1.250 -0.2239 -0.3173  0.2666
  199MOL0     C27378   5.969   7.883   1.366  0.8088  1.0220 -1.0709
  199MOL0     C27379   6.200   7.674   1.689 -0.4715  0.5289 -0.8363
  199MOL0     C27380   6.251   7.544   1.715  0.5700  0.1338  0.0368
  199MOL0     C27381   6.313   7.520   1.837 -0.1891  0.3003 -0.4412
  199MOL0     C27382   6.307   7.599   1.948  0.5521  0.1933  0.0449
  199MOL0     O27383   6.365   7.569   2.066  0.8229 -0.0955  0.0598
  199MOL0     C27384   6.270   7.512   2.163 -0.1824 -0.2009 -0.0696
  199MOL0     C27385   6.343   7.425   2.266 -0.5025  0.0331  0.9227
  199MOL0     C27386   6.375   7.293   2.204 -0.0145 -0.1300 -0.3105
  199MOL0     C27387   6.439   7.197   2.318  1.1305 -0.9362  0.2070
  199MOL0     C27388   6.562   7.255   2.364  0.5892  0.6289 -0.0943
  199MOL0     C27389   6.658   7.320   2.402  0.6772  0.2333  0.5999
  199MOL0     C27390   6.261   7.728   1.917 -0.3264  0.5173 -0.2057
  199MOL0     C27391   6.224   7.767   1.792 -0.2306 -0.8187 -0.4310
  199MOL0     C27392   6.183   7.913   1.780  0.4326  1.1811 -0.3272
  199MOL0     H27393   6.293   7.879   1.282 -0.4049 -1.8232  3.4192
  199MOL0     H27394   6.184   7.924   1.061 -0.0583  1.2833 -0.7246
  199MOL0     H27395   6.054   7.963   0.903 -0.4752  0.5922 -1.7381
  199MOL0     H27396   5.909   7.929   0.820  2.1059  1.8903 -0.9206
  199MOL0     H27397   6.066   7.701   0.952 -3.0994 -3.1329  1.5466
  199MOL0     H27398   5.918   7.692   0.851 -0.8509  0.2195 -0.6375
  199MOL0     H27399   6.059   7.653   0.690  2.1347 -1.8421  3.0242
  199MOL0     H27400   6.031   7.821   0.668  0.8353  0.7466  0.5722
  199MOL0     H27401   6.262   7.799   0.644  2.0026 -0.9016  1.1276
  199MOL0     H27402   6.246   7.854   0.812 -0.5262  1.8620 -1.9307
  199MOL0     H27403   6.286   7.559   0.739  0.3454 -0.5105 -0.4253
  199MOL0     H27404   6.274   7.636   0.889 -1.7743  0.7400 -0.9295
  199MOL0     H27405   6.481   7.748   0.704  0.9467 -0.4965 -0.4389
  199MOL0     H27406   6.488   7.715   0.880  2.1301 -1.8364 -1.0026
  199MOL0     H27407   6.504   7.528   0.653 -2.1381  0.9228  0.5058
  199MOL0     H27408   6.489   7.467   0.821 -1.1134  1.7179  0.7064
  199MOL0     H27409   6.682   7.643   0.883 -0.6119  0.0444 -0.0565
  199MOL0     H27410   6.721   7.485   0.818 -3.0038 -1.2229  4.1759
  199MOL0     H27411   6.886   7.469   0.626  1.3503 -0.1225 -0.5625
  199MOL0     H27412   7.068   7.762   0.432 -1.0020  0.3323 -1.3197
  199MOL0     H27413   6.996   7.610   0.368 -1.1887  3.0030 -1.1456
  199MOL0     H27414   7.198   7.648   0.599  2.0583  0.0373 -0.2622
  199MOL0     H27415   7.121   7.493   0.549  0.0262 -0.5472  0.2571
  199MOL0     H27416   7.293   7.678   0.381 -1.7404  0.7850  1.8422
  199MOL0     H27417   7.370   7.544   0.467  2.3514 -0.9922 -3.1002
  199MOL0     H27418   7.202   7.379   0.337 -0.9647  0.6935 -1.5666
  199MOL0     H27419   7.149   7.513   0.248 -0.7289 -1.8897 -1.2000
  199MOL0     H27420   7.551   7.385   0.061 -1.6742  0.3156  1.3787
  199MOL0     H27421   7.741   7.570  -0.177 -0.5552  1.3579  1.4169
  199MOL0     H27422   7.647   7.457  -0.267  0.2310  1.2299  0.0838
  199MOL0     H27423   7.701   7.418  -0.094  2.3817  1.7758  0.2952
  199MOL0     H27424   7.399   8.087  -0.250 -1.6265  2.7745  0.1024
  199MOL0     H27425   7.406   8.258  -0.416  0.8035  0.4175  0.3562
  199MOL0     H27426   7.298   8.292  -0.663 -0.7488  0.9144  2.0554
  199MOL0     H27427   7.430   8.403  -0.600 -1.1635  1.0511 -0.8130
  199MOL0     H27428   7.524   8.423  -0.828 -0.1267  1.9834  0.7204
  199MOL0     H27429   7.389   8.329  -0.902 -2.6798  0.2488  0.8959
  199MOL0     H27430   7.231   8.493  -0.811  1.6636 -2.3016  1.0858
  199MOL0     H27431   7.346   8.553  -0.941  2.9984  2.4708  0.1677
  199MOL0     H27432   7.473   8.649  -0.759  0.7505 -3.2586 -0.9424
  199MOL0     H27433   7.352   8.603  -0.633 -0.5912 -0.3155  0.5384
  199MOL0     H27434   7.176   8.735  -0.788 -0.4368  2.7920  2.3765
  199MOL0     H27435   7.279   8.829  -0.684 -1.1963  1.0692 -0.3159
  199MOL0     H27436   7.261   8.908  -0.919  1.2789  0.7041  0.1083
  199MOL0     H27437   7.322   8.763  -0.981 -2.8903  0.4921 -0.4543
  199MOL0     H27438   7.552   8.820  -0.856  0.9716  1.3535 -2.7612
  199MOL0     H27439   7.470   8.972  -0.802  0.2000 -0.4598  0.8646
  199MOL0     H27440   7.502   8.889  -1.090  2.4527 -0.2723  0.2983
  199MOL0     H27441   7.612   8.998  -1.006  0.5678 -1.5256  3.8690
  199MOL0     H27442   7.552   7.977  -0.698  0.6264 -0.5165  1.8142
  199MOL0     H27443   7.531   7.791  -0.525  0.4478  1.3005  0.4549
  199MOL0     H27444   7.303   7.781  -0.060 -1.5850 -1.4359 -1.8336
  199MOL0     H27445   7.240   7.656   0.124  0.5748  1.7068  0.0192
  199MOL0     H27446   5.785   7.898   1.242 -0.2848 -1.4984  0.3677
  199MOL0     H27447   5.914   7.894   1.459  1.8094  2.4538 -0.6049
  199MOL0     H27448   6.244   7.469   1.637 -0.7131 -1.0222  1.2011
  199MOL0     H27449   6.367   7.427   1.853  0.4419  0.4488 -1.5606
  199MOL0     H27450   6.218   7.589   2.222 -0.7298  0.4827 -1.4026
  199MOL0     H27451   6.190   7.454   2.115 -0.8384  0.8014 -0.2250
  199MOL0     H27452   6.272   7.395   2.344 -1.6493  1.1651  0.3617
  199MOL0     H27453   6.431   7.477   2.306  0.1701 -1.0712  0.9059
  199MOL0     H27454   6.287   7.241   2.163 -0.3870  0.5227 -0.3411
  199MOL0     H27455   6.444   7.303   2.120  1.2993  2.3624  0.9729
  199MOL0     H27456   6.458   7.100   2.271 -2.1197 -1.2957 -0.5800
  199MOL0     H27457   6.369   7.179   2.400 -0.9773 -0.6737 -1.4545
  199MOL0     H27458   6.736   7.384   2.437  1.1258  0.9595 -1.5456
  199MOL0     H27459   6.264   7.804   1.994 -2.7901  1.2178 -0.6982
  199MOL0     H27460   6.092   7.927   1.721 -0.2345  1.0516  0.6443
  199MOL0     H27461   6.168   7.945   1.884  0.4912 -0.9877  0.4161
  199MOL0     H27462   6.268   7.966   1.736  0.4544  1.4419  0.0190
  200MOL0     O27463   0.997   7.336   8.621 -0.5097 -0.5156 -0.3587
  200MOL0     C27464   0.924   7.346   8.715  0.0326 -0.1010 -1.1169
  200MOL0     O27465   0.957   7.324   8.846 -0.5874 -0.2173  0.8461
  200MOL0     C27466   1.083   7.309   8.888 -1.8950 -0.5531  0.2005
  200MOL0     C27467   1.098   7.231   9.008  0.7436 -0.0459  0.3864
  200MOL0     C27468   1.225   7.211   9.067  0.4845  0.5016 -0.0822
  200MOL0     C27469   1.343   7.270   9.011 -0.1418  0.5234 -0.1734
  200MOL0     O27470   1.454   7.223   9.072  0.0347 -0.4756 -0.7856
  200MOL0     C27471   1.578   7.249   9.011  0.6339  0.2351  0.5299
  200MOL0     C27472   1.680   7.178   9.090  0.7200  0.3683 -0.1143
  200MOL0     C27473   1.821   7.193   9.039  0.5152 -0.1042  0.2106
  200MOL0     C27474   1.857   7.079   8.934 -0.3141 -0.0251 -0.8372
  200MOL0     C27475   1.996   7.116   8.856  0.8742  0.1119  0.5389
  200MOL0     C27476   2.119   7.041   8.910  0.3857  0.5384 -0.2577
  200MOL0     C27477   2.249   7.089   8.846 -0.2955  0.2135  0.2646
  200MOL0     C27478   2.279   7.013   8.711 -0.7714  0.7066  0.5447
  200MOL0     N27479   2.391   7.080   8.647  0.3737 -0.1913  0.7723
  200MOL0     C27480   2.525   7.047   8.662  0.5612 -0.6889  0.6454
  200MOL0     C27481   2.594   7.160   8.633 -0.3195  0.4016  0.3618
  200MOL0     C27482   2.746   7.176   8.659 -0.7217 -0.2528  0.3604
  200MOL0     C27483   2.822   7.198   8.525 -0.9754 -1.2688 -0.1284
  200MOL0     C27484   2.953   7.283   8.549 -0.1097  0.7236 -0.9687
  200MOL0     C27485   3.053   7.284   8.441  0.0709  0.6950  0.2527
  200MOL0     O27486   3.185   7.302   8.509 -0.0076 -0.3018 -1.2337
  200MOL0     C27487   3.234   7.435   8.516 -0.0236 -0.3495 -0.4022
  200MOL0     C27488   3.159   7.558   8.509  1.1210 -0.1944 -0.2309
  200MOL0     C27489   3.239   7.672   8.518  0.0538  0.0221 -0.3488
  200MOL0     C27490   3.165   7.802   8.490 -0.4900  0.2445 -0.9898
  200MOL0     C27491   3.388   7.666   8.530  0.7271  0.5148  0.9665
  200MOL0     C27492   3.480   7.781   8.528 -1.3433  0.7065 -0.0776
  200MOL0     O27493   3.433   7.902   8.521  0.5719 -0.6021  0.0154
  200MOL0     C27494   3.503   8.007   8.461  0.4349 -0.0025 -0.2848
  200MOL0     C27495   3.458   8.034   8.329 -0.4393  0.2497 -0.1849
  200MOL0     C27496   3.529   8.133   8.254  0.4781 -0.3671 -0.3424
  200MOL0     C27497   3.640   8.192   8.310 -1.1066 -0.3277 -0.1738
  200MOL0     O27498   3.698   8.284   8.222 -0.1986  0.0143  0.0455
  200MOL0     C27499   3.825   8.353   8.265 -0.0630 -0.0077  0.6759
  200MOL0     C27500   3.952   8.278   8.220  0.2664  0.0854  0.1039
  200MOL0     C27501   4.078   8.359   8.231 -0.8034  0.2316  0.5119
  200MOL0     C27502   4.105   8.450   8.117  0.2849 -0.7007 -0.2668
  200MOL0     C27503   4.242   8.508   8.125  0.7456  0.1841  0.6707
  200MOL0     C27504   4.267   8.598   8.011 -0.3419  0.2464 -0.5721
  200MOL0     C27505   4.279   8.747   8.066 -0.0065  0.8756 -0.3154
  200MOL0     C27506   4.271   8.858   7.952  0.3395 -0.4599  0.3917
  200MOL0    Cl27507   4.108   8.845   7.875  0.0301 -0.2747 -0.3765
  200MOL0     C27508   3.681   8.165   8.441  0.1766 -0.1590  0.2566
  200MOL0     C27509   3.610   8.071   8.516  0.6979 -0.0437  0.0348
  200MOL0     O27510   3.597   7.749   8.527  0.4725 -0.7735 -0.2037
  200MOL0     C27511   3.451   7.542   8.541  0.4273 -0.8217 -0.2171
  200MOL0     C27512   3.375   7.433   8.526  0.6823  0.6876  1.3974
  200MOL0     N27513   2.507   7.264   8.593 -0.4992  0.0789  0.3545
  200MOL0     N27514   2.391   7.207   8.594  0.1371 -0.4456  0.0345
  200MOL0     C27515   1.326   7.366   8.905  0.4019  0.8546  0.0290
  200MOL0     C27516   1.198   7.377   8.843  0.5280 -0.0846  1.2582
  200MOL0     C27517   0.780   7.367   8.694  0.8614 -0.0940  0.4868
  200MOL0     C27518   0.688   7.303   8.781  0.8047  0.5275  0.1919
  200MOL0     C27519   0.548   7.305   8.752 -0.0790  0.2294 -0.6791
  200MOL0     C27520   0.499   7.373   8.644  0.6663  0.7894  0.8403
  200MOL0     O27521   0.360   7.390   8.620 -0.2141  0.4622 -0.1381
  200MOL0     C27522   0.319   7.469   8.507 -0.2083  0.5295 -0.2351
  200MOL0     C27523   0.315   7.615   8.514  0.5391 -0.1137 -0.4808
  200MOL0     C27524   0.240   7.659   8.640  0.1257 -0.7184 -0.2767
  200MOL0     C27525   0.094   7.639   8.628 -0.5520 -0.6960 -0.4937
  200MOL0     C27526   0.034   7.678   8.500  0.9217  1.0745  0.6105
  200MOL0     C27527  -0.011   7.695   8.385  1.0961  0.4105 -0.4781
  200MOL0     C27528   0.601   7.435   8.558 -1.0301  0.6578 -0.2526
  200MOL0     C27529   0.732   7.434   8.583  0.0974  0.3031  0.3770
  200MOL0     C27530   0.822   7.525   8.502 -1.0440 -0.3289 -0.4837
  200MOL0     H27531   1.006   7.186   9.043  0.6955 -0.8546 -0.7127
  200MOL0     H27532   1.234   7.133   9.141 -2.8598  0.8788  0.8982
  200MOL0     H27533   1.595   7.357   9.001  1.2376  0.2040  1.0949
  200MOL0     H27534   1.570   7.212   8.908 -2.5564  0.0294  0.7508
  200MOL0     H27535   1.659   7.206   9.193  2.2672  0.3919  0.2237
  200MOL0     H27536   1.662   7.070   9.085 -2.1991  0.7146  1.2327
  200MOL0     H27537   1.825   7.289   8.986  1.0953 -1.0734 -1.5979
  200MOL0     H27538   1.886   7.206   9.126 -0.2237  1.2098  0.6092
  200MOL0     H27539   1.862   6.980   8.981 -0.1392  0.5178  0.3195
  200MOL0     H27540   1.771   7.056   8.870 -1.8782 -1.9596  1.7637
  200MOL0     H27541   2.013   7.224   8.858  0.3613  0.1961  0.7197
  200MOL0     H27542   1.973   7.089   8.752 -0.1632 -2.7853  1.4352
  200MOL0     H27543   2.115   7.063   9.017 -1.9305  1.8204 -0.5415
  200MOL0     H27544   2.121   6.934   8.893  2.9607  0.1538  1.7631
  200MOL0     H27545   2.333   7.076   8.914 -1.3050  0.0540  1.5188
  200MOL0     H27546   2.240   7.196   8.828 -0.3518 -0.0541 -1.4884
  200MOL0     H27547   2.301   6.907   8.725 -1.8114 -0.1668 -3.2950
  200MOL0     H27548   2.196   7.014   8.640 -1.1409 -0.5875  0.9476
  200MOL0     H27549   2.555   6.958   8.716  0.6881 -0.5945  0.7338
  200MOL0     H27550   2.797   7.090   8.702 -0.3991 -1.7200 -2.7098
  200MOL0     H27551   2.762   7.253   8.736  2.3424  0.1085 -0.4847
  200MOL0     H27552   2.845   7.104   8.475  2.1450 -0.2981 -0.7557
  200MOL0     H27553   2.761   7.264   8.461 -0.9170 -0.9192  0.1777
  200MOL0     H27554   2.920   7.385   8.570  0.4956  0.7155  0.0972
  200MOL0     H27555   2.992   7.241   8.643 -0.5606 -2.6323 -2.1383
  200MOL0     H27556   3.060   7.186   8.394  2.6103 -0.8477  3.4540
  200MOL0     H27557   3.033   7.365   8.369 -0.8883  0.3815  0.1585
  200MOL0     H27558   3.051   7.555   8.504  0.9542  2.9693 -0.5945
  200MOL0     H27559   3.212   7.846   8.401  2.3818  1.9418  1.1951
  200MOL0     H27560   3.176   7.872   8.572 -0.9158  1.9539 -2.3401
  200MOL0     H27561   3.060   7.780   8.468 -0.6445  1.6605 -1.7684
  200MOL0     H27562   3.388   7.965   8.284 -0.0742 -1.2954  1.4893
  200MOL0     H27563   3.519   8.149   8.147  1.0821 -0.0184 -0.3502
  200MOL0     H27564   3.818   8.451   8.217 -1.2684 -0.9210 -1.1187
  200MOL0     H27565   3.838   8.373   8.372  0.0308 -1.8048  1.0268
  200MOL0     H27566   3.970   8.191   8.284  0.0563 -0.5190 -0.6456
  200MOL0     H27567   3.929   8.234   8.122 -1.5270 -2.7531  1.6356
  200MOL0     H27568   4.161   8.289   8.248 -1.0267  0.0591  0.9104
  200MOL0     H27569   4.076   8.413   8.326  2.1002 -1.1703  1.4684
  200MOL0     H27570   4.024   8.524   8.117 -0.7677 -1.8222  0.7751
  200MOL0     H27571   4.094   8.393   8.024 -1.0338  4.1363 -3.5180
  200MOL0     H27572   4.248   8.567   8.217 -0.3134  2.9534 -0.8956
  200MOL0     H27573   4.302   8.418   8.141 -0.4509 -0.4495  1.7423
  200MOL0     H27574   4.198   8.582   7.927 -1.8390  2.4520  0.1361
  200MOL0     H27575   4.370   8.570   7.989 -0.1023 -0.9966  1.8178
  200MOL0     H27576   4.366   8.758   8.131  1.2247  0.2468 -1.7958
  200MOL0     H27577   4.202   8.769   8.141  1.5682  1.6210  1.1673
  200MOL0     H27578   4.350   8.851   7.876 -0.6700 -1.1750 -0.6099
  200MOL0     H27579   4.273   8.958   7.997  0.1968 -0.5718  0.6507
  200MOL0     H27580   3.770   8.213   8.480  1.3027 -3.1497  1.6635
  200MOL0     H27581   3.650   8.043   8.613 -1.3950  0.1539  0.9948
  200MOL0     H27582   3.558   7.530   8.554  0.8309  1.7657 -0.4745
  200MOL0     H27583   3.418   7.334   8.533 -0.6250 -0.1104 -0.6999
  200MOL0     H27584   1.410   7.422   8.864  2.1288 -3.2025 -2.6650
  200MOL0     H27585   1.199   7.447   8.760  2.7334 -2.0505 -0.5286
  200MOL0     H27586   0.719   7.243   8.866 -2.0862  0.2957  1.2298
  200MOL0     H27587   0.471   7.262   8.816  0.7092 -2.3082 -1.3130
  200MOL0     H27588   0.376   7.455   8.414 -0.0428  1.3379 -0.2711
  200MOL0     H27589   0.219   7.438   8.475 -1.0304  1.2027  1.5360
  200MOL0     H27590   0.286   7.666   8.421  2.0565  1.8488  0.0579
  200MOL0     H27591   0.418   7.649   8.526  0.7792 -0.7706 -0.5967
  200MOL0     H27592   0.267   7.596   8.725 -2.6807  0.0778  1.3255
  200MOL0     H27593   0.264   7.765   8.653  0.8399 -0.6254 -2.0032
  200MOL0     H27594   0.055   7.694   8.715 -2.1178  0.1064 -1.6478
  200MOL0     H27595   0.069   7.534   8.647 -1.4020 -1.0749 -3.2085
  200MOL0     H27596  -0.055   7.711   8.289  0.9338  2.8097 -0.0630
  200MOL0     H27597   0.579   7.494   8.470  0.9938  1.3870 -0.3312
  200MOL0     H27598   0.886   7.574   8.576 -1.5294 -1.1939  0.5319
  200MOL0     H27599   0.889   7.467   8.437  2.6075  1.7355  1.1604
  200MOL0     H27600   0.764   7.599   8.447 -1.2730 -0.7055 -0.7584
  201MOL0     O27601   0.598   5.437   9.019  0.4708  0.0929 -0.3185
  201MOL0     C27602   0.536   5.389   9.112  0.1720  0.3257 -0.6744
  201MOL0     O27603   0.591   5.306   9.203  0.1681 -0.9410  0.7154
  201MOL0     C27604   0.699   5.242   9.163 -0.3399 -0.2159  0.8924
  201MOL0     C27605   0.788   5.203   9.257  0.0796 -0.1487 -0.6624
  201MOL0     C27606   0.899   5.123   9.242  0.4026  0.3137 -0.5444
  201MOL0     C27607   0.942   5.087   9.108  0.3030  0.4872 -0.0953
  201MOL0     O27608   1.056   5.016   9.089 -0.4219  0.0208 -0.2612
  201MOL0     C27609   1.138   5.052   8.975 -0.6387 -0.3389 -0.8453
  201MOL0     C27610   1.279   5.031   9.017  0.3331 -0.0316  0.7533
  201MOL0     C27611   1.387   5.056   8.915 -0.9230  0.0401  0.5409
  201MOL0     C27612   1.520   5.019   8.969  0.4282 -0.4456 -0.8978
  201MOL0     C27613   1.621   5.071   8.872 -0.5942  0.4658  0.2695
  201MOL0     C27614   1.769   5.059   8.931 -0.1352 -0.6009 -0.0338
  201MOL0     C27615   1.888   5.075   8.835  0.0616 -0.6908  0.2951
  201MOL0     C27616   2.020   5.047   8.895 -0.6101  0.9131 -0.6885
  201MOL0     N27617   2.080   5.158   8.974  0.0306 -0.3782 -0.7962
  201MOL0     C27618   2.133   5.281   8.937  0.0168 -0.7122  0.1686
  201MOL0     C27619   2.163   5.351   9.047  0.0348  0.2383  0.1489
  201MOL0     C27620   2.213   5.497   9.045  0.4143 -0.1715  0.1636
  201MOL0     C27621   2.368   5.496   9.056  0.3814 -0.3180  0.2305
  201MOL0     C27622   2.422   5.634   9.042 -0.2466 -0.2355 -0.8667
  201MOL0     C27623   2.577   5.619   9.072  0.7534 -0.4230 -0.6162
  201MOL0     O27624   2.592   5.565   9.210  0.3657  0.0105 -0.1466
  201MOL0     C27625   2.723   5.572   9.264  0.3566  0.5013  0.9220
  201MOL0     C27626   2.761   5.471   9.346 -0.6881  0.7260  0.0626
  201MOL0     C27627   2.872   5.477   9.429 -0.6543  0.4508  0.3381
  201MOL0     C27628   2.910   5.358   9.511 -0.4482 -0.1622 -0.4156
  201MOL0     C27629   2.952   5.592   9.428 -0.0924  0.4630  0.4815
  201MOL0     C27630   3.078   5.605   9.512 -0.8768  0.0225 -0.3055
  201MOL0     O27631   3.172   5.693   9.462 -0.6662 -0.3182 -0.0468
  201MOL0     C27632   3.303   5.709   9.503  0.0757  0.4758 -0.3323
  201MOL0     C27633   3.375   5.816   9.447 -0.1497 -0.4568  0.5849
  201MOL0     C27634   3.507   5.838   9.487  0.4020  0.2420 -0.8981
  201MOL0     C27635   3.579   5.759   9.577  0.9308 -0.2395  0.1986
  201MOL0     O27636   3.712   5.790   9.605 -0.0937 -0.3012 -0.0351
  201MOL0     C27637   3.798   5.687   9.651 -0.0198  1.0225  0.6702
  201MOL0     C27638   3.925   5.755   9.685 -0.1387  0.0231 -0.4461
  201MOL0     C27639   3.904   5.854   9.803 -0.3974 -0.6340 -0.5784
  201MOL0     C27640   4.027   5.931   9.853 -0.0341 -1.2539 -0.0818
  201MOL0     C27641   4.007   6.050   9.956 -0.9567 -0.5487  0.4421
  201MOL0     C27642   3.892   6.145   9.910 -0.3172 -0.2917 -0.3625
  201MOL0     C27643   3.892   6.279   9.987  0.3941  0.4555  0.8751
  201MOL0     C27644   3.792   6.275  10.103 -0.2856  0.3641  0.2221
  201MOL0    Cl27645   3.764   6.434  10.166  0.6873  0.3076  0.3413
  201MOL0     C27646   3.509   5.659   9.641 -0.3610  0.3284 -0.7730
  201MOL0     C27647   3.370   5.640   9.613  0.5586 -0.7898  0.5219
  201MOL0     O27648   3.099   5.533   9.611 -0.0793  0.0804 -0.0800
  201MOL0     C27649   2.914   5.699   9.349  0.6247  0.1216 -0.5774
  201MOL0     C27650   2.794   5.691   9.267 -0.6344  1.1200  0.5236
  201MOL0     N27651   2.138   5.271   9.156  0.5247  0.3410 -0.0756
  201MOL0     N27652   2.082   5.164   9.113 -0.1134 -0.3203 -0.5192
  201MOL0     C27653   0.858   5.121   9.006 -0.3036  0.2940  0.1117
  201MOL0     C27654   0.740   5.191   9.027  0.4346 -0.6502 -0.1148
  201MOL0     C27655   0.395   5.415   9.141 -0.0516 -0.1376 -0.0465
  201MOL0     C27656   0.324   5.367   9.257 -0.3840  0.7673  0.2399
  201MOL0     C27657   0.193   5.400   9.282 -0.2115  0.1785  0.2460
  201MOL0     C27658   0.124   5.483   9.195 -0.0071  0.4953  1.0325
  201MOL0     O27659  -0.008   5.513   9.196  0.8943 -0.0493 -0.1141
  201MOL0     C27660  -0.023   5.631   9.282  0.1087  0.1761  0.4782
  201MOL0     C27661  -0.163   5.671   9.315  0.6462  0.0939  0.2363
  201MOL0     C27662  -0.236   5.733   9.196  0.6612  0.3756 -0.9280
  201MOL0     C27663  -0.384   5.715   9.207  0.1872  0.3008 -0.5483
  201MOL0     C27664  -0.432   5.586   9.150 -0.1255 -0.2104  0.1887
  201MOL0     C27665  -0.469   5.488   9.091 -0.0624 -0.9632  0.0660
  201MOL0     C27666   0.196   5.544   9.095  0.3931 -0.1978  0.0157
  201MOL0     C27667   0.326   5.504   9.058 -0.0484  0.1453 -0.6499
  201MOL0     C27668   0.373   5.561   8.928  0.3421 -0.5037  0.3468
  201MOL0     H27669   0.762   5.230   9.359 -0.5817  0.7518 -1.0516
  201MOL0     H27670   0.947   5.088   9.332 -2.2083  1.4408  1.4081
  201MOL0     H27671   1.119   5.157   8.949  0.6712 -0.1224 -1.0102
  201MOL0     H27672   1.111   4.993   8.887  2.9320  0.4353 -2.6781
  201MOL0     H27673   1.295   5.070   9.118 -1.4496 -0.1791  1.1260
  201MOL0     H27674   1.281   4.924   9.040 -5.6829 -0.5245  0.6704
  201MOL0     H27675   1.356   4.979   8.844 -0.9191  1.2371 -0.7842
  201MOL0     H27676   1.371   5.151   8.865  1.1899  0.1494 -0.0212
  201MOL0     H27677   1.533   5.075   9.062 -0.5759  0.9292 -1.5371
  201MOL0     H27678   1.516   4.915   9.003 -3.6002 -0.6833 -1.5025
  201MOL0     H27679   1.599   5.173   8.842  0.2568 -0.0542 -2.4180
  201MOL0     H27680   1.626   5.015   8.778  0.1778 -0.0664  0.6127
  201MOL0     H27681   1.773   5.139   9.006 -2.2674 -0.7690  0.3250
  201MOL0     H27682   1.786   4.960   8.973  2.0575  0.5282  2.0332
  201MOL0     H27683   1.880   5.182   8.812  0.1588 -0.7580 -0.0549
  201MOL0     H27684   1.872   5.016   8.745  4.2405 -0.9861 -0.4460
  201MOL0     H27685   1.998   4.964   8.962 -0.5182 -0.2655 -2.0569
  201MOL0     H27686   2.095   5.019   8.821 -1.3308 -0.5197 -0.9144
  201MOL0     H27687   2.123   5.327   8.839 -5.1220 -0.5248  0.5229
  201MOL0     H27688   2.167   5.546   9.132  0.5359  1.7973 -0.8289
  201MOL0     H27689   2.175   5.553   8.959  3.4666  2.0992  0.1326
  201MOL0     H27690   2.390   5.460   9.157  1.0335 -1.8953 -0.4346
  201MOL0     H27691   2.400   5.425   8.979 -1.3848  0.9011 -1.7099
  201MOL0     H27692   2.417   5.680   8.943  0.8860 -0.3513 -0.9990
  201MOL0     H27693   2.380   5.704   9.115 -1.8247 -2.8724  0.9220
  201MOL0     H27694   2.614   5.540   9.006 -1.7720 -0.7813 -1.6939
  201MOL0     H27695   2.639   5.708   9.057  3.2054 -2.2193 -1.9013
  201MOL0     H27696   2.693   5.387   9.343 -0.6221  0.6523 -2.9713
  201MOL0     H27697   3.018   5.346   9.506 -0.1809  1.0013  1.4428
  201MOL0     H27698   2.855   5.267   9.485 -0.8986  0.6713 -2.5817
  201MOL0     H27699   2.894   5.377   9.617  0.1971  0.3404 -0.4063
  201MOL0     H27700   3.330   5.881   9.373  0.3081 -1.6913 -0.8171
  201MOL0     H27701   3.569   5.919   9.451 -0.6071  0.8361 -1.3420
  201MOL0     H27702   3.761   5.630   9.736  2.9185  1.0048  2.0628
  201MOL0     H27703   3.823   5.614   9.572  0.9382  0.9824  0.9901
  201MOL0     H27704   3.996   5.676   9.710  0.7899 -0.2342 -3.4764
  201MOL0     H27705   3.969   5.799   9.595 -2.6666  2.8767 -0.4548
  201MOL0     H27706   3.868   5.807   9.894 -3.5290  2.3092 -0.0908
  201MOL0     H27707   3.822   5.923   9.780  0.0245  0.0478 -0.0790
  201MOL0     H27708   4.070   5.979   9.765  2.1595 -3.1182 -0.1247
  201MOL0     H27709   4.097   5.860   9.900  1.8065 -0.3292 -1.3163
  201MOL0     H27710   3.977   5.999  10.048  0.8650 -0.4289  1.1289
  201MOL0     H27711   4.095   6.113   9.973 -0.7651 -0.6585 -0.1252
  201MOL0     H27712   3.795   6.093   9.916  0.1709 -1.0919  1.0284
  201MOL0     H27713   3.915   6.171   9.807 -1.6076 -0.3280 -0.6795
  201MOL0     H27714   3.851   6.355   9.919  2.9909 -0.1058 -1.5334
  201MOL0     H27715   3.991   6.312  10.018  0.1829  2.4265 -0.3955
  201MOL0     H27716   3.799   6.193  10.175 -1.3316  1.0697  1.1601
  201MOL0     H27717   3.696   6.232  10.075 -1.2415  1.0663  2.2767
  201MOL0     H27718   3.555   5.604   9.722  1.1479  0.0480 -1.7691
  201MOL0     H27719   3.318   5.564   9.671 -0.0490 -0.5386  0.3117
  201MOL0     H27720   2.965   5.794   9.341 -0.7984  0.8540 -1.2282
  201MOL0     H27721   2.758   5.768   9.200 -1.3175 -0.0990 -0.5436
  201MOL0     H27722   0.886   5.086   8.907 -0.9576 -2.4703  0.8005
  201MOL0     H27723   0.686   5.217   8.936 -1.5313  0.2632  1.2634
  201MOL0     H27724   0.371   5.298   9.326  1.2479 -1.3251 -2.7513
  201MOL0     H27725   0.136   5.367   9.369  0.2859 -2.9356 -0.4737
  201MOL0     H27726   0.033   5.624   9.376  1.7650  1.0402 -0.4127
  201MOL0     H27727   0.017   5.716   9.227 -1.5764  0.4951 -0.2923
  201MOL0     H27728  -0.169   5.735   9.404 -0.5034 -1.6856  1.4948
  201MOL0     H27729  -0.223   5.584   9.341 -0.5707  1.4648  2.3742
  201MOL0     H27730  -0.224   5.839   9.173 -0.2175  0.2310 -2.1493
  201MOL0     H27731  -0.200   5.676   9.110 -0.7748 -0.4745 -0.9969
  201MOL0     H27732  -0.431   5.802   9.162 -0.4459 -1.5131 -3.7035
  201MOL0     H27733  -0.414   5.717   9.312 -0.3522 -0.8935 -0.6598
  201MOL0     H27734  -0.515   5.398   9.056  0.0100 -0.6898 -0.7349
  201MOL0     H27735   0.143   5.624   9.044 -0.5664 -1.0856 -0.4249
  201MOL0     H27736   0.469   5.610   8.945  0.6861 -1.7447  2.3910
  201MOL0     H27737   0.394   5.487   8.850 -0.4874 -1.1906  0.7562
  201MOL0     H27738   0.300   5.631   8.888 -0.9876 -1.5780  0.8395
  202MOL0     O27739   4.624   2.088   0.794  1.4191 -0.1859 -0.0520
  202MOL0     C27740   4.633   2.159   0.694  0.0686  1.2474 -0.2960
  202MOL0     O27741   4.612   2.120   0.561 -0.2370 -1.0436  0.1995
  202MOL0     C27742   4.614   1.979   0.544 -0.8358 -0.0500  0.4754
  202MOL0     C27743   4.489   1.920   0.501 -0.4213 -0.0604  0.2598
  202MOL0     C27744   4.481   1.788   0.466 -0.7220  0.1838  0.1947
  202MOL0     C27745   4.595   1.705   0.461 -0.2146  0.0003 -0.4684
  202MOL0     O27746   4.587   1.579   0.418 -0.3067 -0.5497 -0.4584
  202MOL0     C27747   4.648   1.559   0.287  0.3536  0.2136  0.1456
  202MOL0     C27748   4.802   1.533   0.284  0.6350 -0.1464 -0.0149
  202MOL0     C27749   4.873   1.505   0.151 -1.0165  0.3466  0.2524
  202MOL0     C27750   4.838   1.371   0.082  0.1175  0.0672  0.7163
  202MOL0     C27751   4.945   1.321  -0.017  0.2666  0.0990  0.6387
  202MOL0     C27752   4.966   1.413  -0.133 -0.2745  0.1300 -0.1057
  202MOL0     C27753   5.062   1.355  -0.242 -0.3500 -0.3237 -0.6076
  202MOL0     C27754   5.013   1.221  -0.307  0.1911  0.2676 -0.4694
  202MOL0     N27755   5.094   1.198  -0.433  0.2362 -0.3641  0.8751
  202MOL0     C27756   5.176   1.092  -0.454  0.0320  0.6816 -0.7172
  202MOL0     C27757   5.194   1.087  -0.587  0.1955  0.2431 -0.2119
  202MOL0     C27758   5.281   0.995  -0.676 -0.4484  0.4541  0.3943
  202MOL0     C27759   5.428   1.049  -0.675 -0.2805 -0.6939  1.0126
  202MOL0     C27760   5.537   0.957  -0.715  0.5591  0.1880 -0.0585
  202MOL0     C27761   5.539   0.916  -0.858 -0.3582  0.2069  0.0674
  202MOL0     O27762   5.582   1.024  -0.945 -0.0607  0.7327 -0.9356
  202MOL0     C27763   5.543   1.008  -1.075  0.1422 -0.4463 -1.1344
  202MOL0     C27764   5.421   0.974  -1.121 -0.2351  0.7489  0.2711
  202MOL0     C27765   5.392   0.970  -1.261 -0.6733  0.0116  0.1760
  202MOL0     C27766   5.250   0.934  -1.292  0.8479 -0.2001  0.0936
  202MOL0     C27767   5.491   1.017  -1.350 -0.1832 -0.5065 -0.5691
  202MOL0     C27768   5.480   1.020  -1.490  0.7189  0.8910 -0.6880
  202MOL0     O27769   5.389   0.932  -1.541  0.5101  0.4934  0.1343
  202MOL0     C27770   5.318   0.965  -1.653 -0.2335 -0.1035 -0.2398
  202MOL0     C27771   5.287   0.864  -1.749  1.3178 -0.5165 -1.3449
  202MOL0     C27772   5.210   0.885  -1.861  0.1953 -0.0139  0.5898
  202MOL0     C27773   5.169   1.008  -1.896 -0.5561  0.2256 -0.7673
  202MOL0     O27774   5.101   1.021  -2.013  0.0737  0.4917  0.0725
  202MOL0     C27775   5.051   1.146  -2.068 -0.3772 -0.9930 -0.1257
  202MOL0     C27776   5.159   1.224  -2.140  0.1741 -0.6538 -0.4584
  202MOL0     C27777   5.104   1.327  -2.238 -0.2482 -0.6372 -0.7166
  202MOL0     C27778   5.224   1.427  -2.276  1.0012 -0.4512 -0.4335
  202MOL0     C27779   5.211   1.495  -2.407 -0.1359 -0.7088  0.3540
  202MOL0     C27780   5.318   1.591  -2.409  0.0546  0.3049 -0.4847
  202MOL0     C27781   5.318   1.646  -2.553 -0.5494  0.1952 -0.4208
  202MOL0     C27782   5.461   1.674  -2.608  0.6792 -0.1074  0.0627
  202MOL0    Cl27783   5.535   1.820  -2.534 -0.0503 -0.0937 -0.4322
  202MOL0     C27784   5.193   1.115  -1.808 -0.3631 -0.3188  0.1552
  202MOL0     C27785   5.279   1.093  -1.689 -0.2886  0.4312  0.4607
  202MOL0     O27786   5.547   1.087  -1.562 -0.0801 -0.9577  0.4181
  202MOL0     C27787   5.611   1.066  -1.300 -1.1149  0.3654  0.4534
  202MOL0     C27788   5.633   1.066  -1.162 -0.2284  0.2390  0.2691
  202MOL0     N27789   5.098   1.167  -0.650 -0.2814 -0.3181 -0.4216
  202MOL0     N27790   5.046   1.231  -0.554 -0.3940 -0.5285 -0.3729
  202MOL0     C27791   4.717   1.761   0.501 -0.7977 -0.0691 -0.0755
  202MOL0     C27792   4.728   1.898   0.546  0.6549 -0.0553  0.3481
  202MOL0     C27793   4.656   2.299   0.712  0.4209  0.0939 -0.4712
  202MOL0     C27794   4.577   2.389   0.638 -0.0831  0.5238 -0.2776
  202MOL0     C27795   4.588   2.520   0.660 -0.1187 -0.0380  0.2682
  202MOL0     C27796   4.663   2.575   0.758 -1.0287  0.2354 -0.2578
  202MOL0     O27797   4.644   2.715   0.764  0.2096 -0.6398  0.3695
  202MOL0     C27798   4.739   2.798   0.839 -0.6656  0.8123 -0.2736
  202MOL0     C27799   4.715   2.779   0.993 -0.1113  0.1960 -0.5863
  202MOL0     C27800   4.780   2.908   1.052  0.2341 -0.3538  0.4271
  202MOL0     C27801   4.863   2.881   1.176  0.4012  0.6910  0.7236
  202MOL0     C27802   4.788   2.789   1.268 -0.3083 -0.0807  0.2700
  202MOL0     C27803   4.722   2.723   1.347  0.3039 -0.0640  0.4439
  202MOL0     C27804   4.756   2.493   0.827 -0.1612  0.8302  0.2045
  202MOL0     C27805   4.754   2.348   0.800  0.8339 -1.0286 -0.0616
  202MOL0     C27806   4.857   2.263   0.874  0.3500  0.7455 -0.7609
  202MOL0     H27807   4.413   1.997   0.496  0.5417  1.2646  3.2752
  202MOL0     H27808   4.388   1.744   0.431 -0.1606 -2.3777  1.6754
  202MOL0     H27809   4.621   1.639   0.217  0.6992 -0.3141 -0.6024
  202MOL0     H27810   4.607   1.467   0.246 -1.8538 -0.6818  3.9134
  202MOL0     H27811   4.846   1.630   0.309  1.6266 -0.7622  0.6921
  202MOL0     H27812   4.834   1.458   0.357  2.7563  0.6850 -0.0328
  202MOL0     H27813   4.855   1.588   0.082 -0.1705  1.6015  1.4907
  202MOL0     H27814   4.982   1.507   0.164 -0.8926 -0.6723 -0.4811
  202MOL0     H27815   4.822   1.287   0.150 -1.4019  0.2628  0.6363
  202MOL0     H27816   4.747   1.384   0.023  1.0788 -0.0048 -0.8333
  202MOL0     H27817   4.904   1.226  -0.054 -1.1571  1.8883 -2.8741
  202MOL0     H27818   5.037   1.305   0.039 -0.3240  2.5129  2.4704
  202MOL0     H27819   4.868   1.428  -0.179 -1.7865 -1.4590  2.3645
  202MOL0     H27820   5.018   1.507  -0.111 -0.1531  0.5209 -1.9177
  202MOL0     H27821   5.154   1.329  -0.189 -0.9011 -3.0631 -0.8608
  202MOL0     H27822   5.073   1.432  -0.319 -2.3961  1.0421  0.3781
  202MOL0     H27823   5.018   1.134  -0.241 -1.5576 -1.2380 -2.2235
  202MOL0     H27824   4.906   1.231  -0.326  0.1258  2.2350  0.6448
  202MOL0     H27825   5.227   1.035  -0.377  0.1498  1.7251  0.0038
  202MOL0     H27826   5.251   0.992  -0.781 -0.7949 -0.1385  0.5023
  202MOL0     H27827   5.289   0.894  -0.635  2.9419  0.4976  0.1331
  202MOL0     H27828   5.435   1.139  -0.736 -1.6494  0.1497  2.0580
  202MOL0     H27829   5.449   1.071  -0.570 -0.0450 -1.1939  1.0720
  202MOL0     H27830   5.636   0.999  -0.692  1.6914 -0.4355 -3.1917
  202MOL0     H27831   5.520   0.864  -0.661 -3.5759  1.6770  1.5901
  202MOL0     H27832   5.598   0.824  -0.867 -3.5330 -2.1136  0.9974
  202MOL0     H27833   5.441   0.881  -0.892  0.5121  0.1627 -2.6456
  202MOL0     H27834   5.341   0.942  -1.055 -0.3390  0.4422  0.0012
  202MOL0     H27835   5.198   0.889  -1.207  1.7656 -0.4073  0.5499
  202MOL0     H27836   5.244   0.848  -1.360 -0.7259 -1.2604  1.4900
  202MOL0     H27837   5.188   1.005  -1.347  0.0897 -2.3353 -1.9844
  202MOL0     H27838   5.320   0.769  -1.708  0.0391 -1.3110 -2.0955
  202MOL0     H27839   5.180   0.798  -1.918  0.0153  0.7266 -0.4615
  202MOL0     H27840   4.968   1.130  -2.137  1.6655 -2.3312 -2.4743
  202MOL0     H27841   5.022   1.217  -1.989  0.7232  0.9461 -1.3758
  202MOL0     H27842   5.224   1.276  -2.069  0.6939  3.2605 -3.4254
  202MOL0     H27843   5.230   1.158  -2.192  1.8770 -0.6814  1.7541
  202MOL0     H27844   5.038   1.392  -2.181  0.2457 -1.8662  1.3845
  202MOL0     H27845   5.053   1.271  -2.318 -2.8281 -1.1262  1.1707
  202MOL0     H27846   5.322   1.378  -2.281  0.4017 -1.6764 -0.6658
  202MOL0     H27847   5.228   1.491  -2.188  1.4144 -1.0972  0.0250
  202MOL0     H27848   5.232   1.419  -2.483  2.6348  2.7525 -2.6802
  202MOL0     H27849   5.108   1.526  -2.429 -0.3642 -1.9029 -0.3893
  202MOL0     H27850   5.416   1.542  -2.406  0.1742  0.5689  0.0434
  202MOL0     H27851   5.313   1.662  -2.326 -1.8137 -0.9290  0.5261
  202MOL0     H27852   5.267   1.741  -2.570 -0.7245 -0.3461 -3.4900
  202MOL0     H27853   5.261   1.581  -2.620 -4.5435  2.0237  0.8724
  202MOL0     H27854   5.436   1.685  -2.714 -2.7027 -0.2867  0.7277
  202MOL0     H27855   5.528   1.590  -2.589  0.3025 -0.6939 -1.0791
  202MOL0     H27856   5.154   1.216  -1.819 -1.1721 -0.5184  1.0686
  202MOL0     H27857   5.308   1.185  -1.638 -0.1655  0.2387  0.7410
  202MOL0     H27858   5.689   1.098  -1.369 -0.2581 -1.5336  0.4668
  202MOL0     H27859   5.715   1.123  -1.120  0.4043  1.2865 -2.2198
  202MOL0     H27860   4.812   1.709   0.513  0.6564  2.7763  1.7069
  202MOL0     H27861   4.827   1.932   0.572  0.8100 -0.8437  0.8274
  202MOL0     H27862   4.514   2.361   0.555 -3.4436  1.9182  1.5920
  202MOL0     H27863   4.527   2.584   0.598  1.3876  0.1118 -1.1336
  202MOL0     H27864   4.843   2.775   0.815 -0.7213  2.2635 -2.1403
  202MOL0     H27865   4.723   2.900   0.802 -1.6276  0.9376  0.4533
  202MOL0     H27866   4.755   2.682   1.027 -4.0109 -0.8153  1.6946
  202MOL0     H27867   4.611   2.791   1.022  0.8308  2.7076  2.2222
  202MOL0     H27868   4.849   2.951   0.979 -0.4108 -2.5026 -1.5942
  202MOL0     H27869   4.709   2.990   1.065  1.3731  0.7856 -0.2692
  202MOL0     H27870   4.888   2.980   1.214  1.4328  1.1020 -0.9297
  202MOL0     H27871   4.956   2.835   1.139 -0.0874  1.7307 -2.0702
  202MOL0     H27872   4.667   2.667   1.420  0.3383 -0.8972 -0.1640
  202MOL0     H27873   4.831   2.533   0.895 -1.4180  0.7411  1.6839
  202MOL0     H27874   4.939   2.326   0.911 -0.3669  1.0457  0.3770
  202MOL0     H27875   4.809   2.214   0.959  1.9372 -1.2558 -0.9594
  202MOL0     H27876   4.909   2.191   0.811  2.3154  2.1818 -0.8858
  203MOL0     O27877   9.969   8.086   2.792 -0.0814 -0.8344  0.5125
  203MOL0     C27878   9.869   8.039   2.745 -0.4735  0.3817  0.1332
  203MOL0     O27879   9.852   7.986   2.620 -0.0211  0.3264 -0.2731
  203MOL0     C27880   9.941   8.004   2.519 -0.1266 -1.0356 -0.1177
  203MOL0     C27881   9.954   7.903   2.427 -0.2396 -0.4965  0.5807
  203MOL0     C27882  10.043   7.928   2.322 -0.5601 -0.7081  0.1983
  203MOL0     C27883  10.124   8.051   2.313  0.2129  0.5500 -0.8996
  203MOL0     O27884  10.222   8.051   2.216 -0.2731  0.2946  0.5212
  203MOL0     C27885  10.342   8.138   2.224 -0.2184 -0.3590 -1.1839
  203MOL0     C27886  10.438   8.098   2.113 -0.9771  0.4411 -0.6658
  203MOL0     C27887  10.400   8.156   1.982  0.4620 -0.8291  0.1842
  203MOL0     C27888  10.490   8.111   1.864 -0.2970  0.1958 -0.0783
  203MOL0     C27889  10.432   8.164   1.728 -0.6146  1.3273 -0.3933
  203MOL0     C27890  10.413   8.319   1.727 -0.1843  0.2146  1.0386
  203MOL0     C27891  10.393   8.364   1.573  0.0760 -0.7334 -0.2085
  203MOL0     C27892  10.384   8.522   1.564  0.1805 -0.0555  0.3675
  203MOL0     N27893  10.514   8.572   1.609 -0.6352 -0.0769  0.4879
  203MOL0     C27894  10.638   8.534   1.572  0.6913  0.6871 -0.0112
  203MOL0     C27895  10.727   8.587   1.669 -0.3649 -0.6832 -0.4363
  203MOL0     C27896  10.878   8.561   1.664  0.5512  0.2880  0.9886
  203MOL0     C27897  10.913   8.415   1.687  0.0798 -0.2645 -0.1283
  203MOL0     C27898  10.877   8.369   1.827  0.2312  0.6958  0.0512
  203MOL0     C27899  10.941   8.448   1.940 -0.6642 -0.5299  0.5084
  203MOL0     O27900  10.904   8.383   2.060  0.1077  0.3485 -0.6442
  203MOL0     C27901  10.790   8.410   2.134 -0.7285  0.2728 -0.8514
  203MOL0     C27902  10.691   8.502   2.109  0.4974 -0.0094 -0.3016
  203MOL0     C27903  10.578   8.537   2.190  0.1763 -0.2211 -0.0721
  203MOL0     C27904  10.496   8.660   2.146  0.0940  0.4508 -0.2277
  203MOL0     C27905  10.569   8.468   2.314 -0.2358 -0.2138  0.3304
  203MOL0     C27906  10.454   8.484   2.408 -0.5398 -0.4883  0.0797
  203MOL0     O27907  10.466   8.436   2.530  0.1596 -1.2074  0.4651
  203MOL0     C27908  10.366   8.454   2.616  0.2643 -0.4106  0.1651
  203MOL0     C27909  10.266   8.361   2.627 -0.7790  0.2929  0.3656
  203MOL0     C27910  10.160   8.381   2.717  0.0185  0.5253 -1.4594
  203MOL0     C27911  10.143   8.489   2.790 -0.7173 -0.5716  0.1270
  203MOL0     O27912  10.062   8.507   2.896  0.4093  0.6197  0.3034
  203MOL0     C27913  10.001   8.399   2.964 -0.1157  0.7696  0.0213
  203MOL0     C27914   9.969   8.438   3.113  0.1690  0.0838 -0.0902
  203MOL0     C27915   9.937   8.317   3.185  0.3536 -0.1988  0.3894
  203MOL0     C27916   9.852   8.326   3.324  0.3807  0.2410  0.6845
  203MOL0     C27917   9.854   8.184   3.389  0.4928  0.4827 -0.0765
  203MOL0     C27918   9.718   8.148   3.449  0.4053 -0.1066  0.8786
  203MOL0     C27919   9.700   8.020   3.516 -0.4471 -0.0180 -0.7061
  203MOL0     C27920   9.588   8.020   3.616  0.6816  0.1246 -0.6010
  203MOL0    Cl27921   9.644   8.116   3.759  0.1314 -0.1813 -0.4460
  203MOL0     C27922  10.234   8.594   2.767  0.0119 -0.5780 -0.8615
  203MOL0     C27923  10.353   8.577   2.690  0.0188 -0.0204 -1.1662
  203MOL0     O27924  10.350   8.536   2.359  0.6938 -0.5392 -0.5057
  203MOL0     C27925  10.670   8.375   2.342  0.3326 -0.3806  0.7606
  203MOL0     C27926  10.775   8.342   2.251  0.9181 -0.0026  0.4997
  203MOL0     N27927  10.656   8.650   1.768  0.7687  0.3859  0.7446
  203MOL0     N27928  10.528   8.642   1.730  0.3514  0.0848 -0.3301
  203MOL0     C27929  10.098   8.149   2.396 -0.0045  0.9165  1.2467
  203MOL0     C27930   9.997   8.130   2.495 -0.5131 -0.1335 -0.6475
  203MOL0     C27931   9.760   8.025   2.845  0.1628  0.6497 -0.0893
  203MOL0     C27932   9.801   7.983   2.979 -0.1478  0.1729  0.1912
  203MOL0     C27933   9.711   7.992   3.084 -1.4226  0.1368  0.2607
  203MOL0     C27934   9.583   8.034   3.067 -0.2234  0.5997 -0.1105
  203MOL0     O27935   9.487   8.017   3.160 -0.1481 -0.2362  0.0319
  203MOL0     C27936   9.353   8.047   3.140 -1.0611 -1.0053 -0.7885
  203MOL0     C27937   9.271   8.034   3.277 -0.0003 -0.0777 -0.4711
  203MOL0     C27938   9.281   8.161   3.366 -0.2422 -0.1977 -0.5676
  203MOL0     C27939   9.219   8.118   3.491  0.7012 -0.3705 -0.9501
  203MOL0     C27940   9.198   8.213   3.597  0.5244 -0.6047  0.4715
  203MOL0     C27941   9.186   8.282   3.694  0.3250  0.1860  0.4377
  203MOL0     C27942   9.543   8.061   2.941 -0.0864  0.2334  0.1951
  203MOL0     C27943   9.624   8.067   2.832 -0.0037  0.0222  0.0005
  203MOL0     C27944   9.577   8.136   2.706 -0.4706  1.1265 -1.0858
  203MOL0     H27945   9.913   7.802   2.420  0.0813 -0.5234 -1.3365
  203MOL0     H27946  10.047   7.852   2.244 -0.3778 -2.4245  1.8168
  203MOL0     H27947  10.393   8.121   2.319  0.8675 -1.4579 -1.9318
  203MOL0     H27948  10.318   8.245   2.226 -2.5046 -0.8130  0.8077
  203MOL0     H27949  10.539   8.128   2.141 -2.1389  0.4200  4.5127
  203MOL0     H27950  10.455   7.991   2.093  1.0818  1.0808 -2.8891
  203MOL0     H27951  10.297   8.143   1.949  0.4875  0.5361 -0.5113
  203MOL0     H27952  10.403   8.265   1.992 -2.0191 -0.7273  0.4357
  203MOL0     H27953  10.594   8.134   1.886 -0.4568  0.1681  0.7416
  203MOL0     H27954  10.509   8.004   1.856  2.0375  0.6835 -2.9006
  203MOL0     H27955  10.336   8.113   1.718 -0.0845 -1.1944  4.4089
  203MOL0     H27956  10.502   8.140   1.646 -1.0967  1.2624 -0.7904
  203MOL0     H27957  10.328   8.353   1.787  0.6767  1.4073  1.6067
  203MOL0     H27958  10.499   8.369   1.772  0.9058 -1.8792  1.4236
  203MOL0     H27959  10.303   8.328   1.521  0.7569  0.2580 -2.1926
  203MOL0     H27960  10.478   8.330   1.514  1.9782  0.0133  1.9654
  203MOL0     H27961  10.366   8.553   1.461  1.5879  1.3138  0.5068
  203MOL0     H27962  10.301   8.557   1.626 -0.8211  1.0670 -1.5125
  203MOL0     H27963  10.671   8.463   1.498  1.3830  1.6725 -0.6688
  203MOL0     H27964  10.922   8.633   1.734 -1.2395 -0.1780  2.6861
  203MOL0     H27965  10.895   8.576   1.557 -3.0506 -0.8541  0.0943
  203MOL0     H27966  10.860   8.354   1.613 -1.3181  0.8529 -0.0864
  203MOL0     H27967  11.022   8.408   1.676  0.3279  0.6993  1.3259
  203MOL0     H27968  10.769   8.382   1.843  0.1147 -0.8368  0.7727
  203MOL0     H27969  10.900   8.264   1.850  0.6126  1.1481  1.9755
  203MOL0     H27970  11.050   8.439   1.929 -0.8193 -2.9371  0.5158
  203MOL0     H27971  10.913   8.554   1.942 -1.9609 -0.8275 -0.5111
  203MOL0     H27972  10.711   8.557   2.018 -1.8319  0.2884 -0.6874
  203MOL0     H27973  10.398   8.637   2.104  0.1994  1.7459 -1.2597
  203MOL0     H27974  10.558   8.718   2.077  2.6181  0.1299  1.6555
  203MOL0     H27975  10.466   8.717   2.234  3.4515 -0.7060  1.8430
  203MOL0     H27976  10.269   8.270   2.569  0.7117 -0.3122  1.3286
  203MOL0     H27977  10.113   8.284   2.729  2.5230 -0.6220 -0.0139
  203MOL0     H27978   9.918   8.364   2.902  0.7748 -2.3850  0.4085
  203MOL0     H27979  10.069   8.313   2.972  0.0998  0.8929 -0.4709
  203MOL0     H27980  10.049   8.496   3.159 -0.5697  2.3594 -1.5583
  203MOL0     H27981   9.884   8.506   3.125 -0.6390 -0.7782 -0.7965
  203MOL0     H27982  10.034   8.275   3.216  0.7961  2.6399  3.3113
  203MOL0     H27983   9.871   8.261   3.119 -1.1246 -0.2506  1.8563
  203MOL0     H27984   9.752   8.359   3.296  0.8564  1.7915  0.6851
  203MOL0     H27985   9.893   8.400   3.394  0.9095  0.7464 -0.1282
  203MOL0     H27986   9.889   8.104   3.324 -1.0978  0.6602 -1.2094
  203MOL0     H27987   9.923   8.183   3.474 -0.6052 -0.7118  0.8525
  203MOL0     H27988   9.646   8.153   3.367 -1.1697  3.1253  2.2704
  203MOL0     H27989   9.695   8.228   3.520 -0.7781  1.7426 -1.4452
  203MOL0     H27990   9.797   8.004   3.564 -0.2207  0.5695 -0.9537
  203MOL0     H27991   9.687   7.940   3.443  1.4034  0.7778 -1.9745
  203MOL0     H27992   9.567   7.916   3.643 -1.9039  1.2014  1.9081
  203MOL0     H27993   9.500   8.068   3.573 -0.8176  0.6736  2.7884
  203MOL0     H27994  10.227   8.693   2.811  0.0856  0.2985 -2.7436
  203MOL0     H27995  10.428   8.654   2.680  1.9117 -1.3740  1.3758
  203MOL0     H27996  10.670   8.305   2.426  1.9524 -0.5418  0.6442
  203MOL0     H27997  10.838   8.255   2.269 -1.7961 -2.1858  0.0773
  203MOL0     H27998  10.160   8.238   2.388 -1.0610  1.5761  0.1603
  203MOL0     H27999   9.969   8.208   2.566 -1.2911 -4.2613  4.1750
  203MOL0     H28000   9.897   7.942   3.008 -0.0107 -0.4487 -1.0730
  203MOL0     H28001   9.750   7.955   3.178 -0.0154 -0.0020 -0.3468
  203MOL0     H28002   9.346   8.149   3.101  3.0588 -0.8837 -1.6471
  203MOL0     H28003   9.313   7.984   3.060 -1.5392 -1.2274 -0.3802
  203MOL0     H28004   9.291   7.942   3.333 -0.5767  1.0596  1.7114
  203MOL0     H28005   9.164   8.023   3.257 -0.5507  1.4512  1.3530
  203MOL0     H28006   9.382   8.197   3.388 -0.7255  0.6178  0.4280
  203MOL0     H28007   9.226   8.248   3.327 -0.4124 -0.1518 -0.2302
  203MOL0     H28008   9.281   8.041   3.537  1.2496  1.2087  1.1119
  203MOL0     H28009   9.125   8.067   3.469  0.3957 -0.8215  1.1821
  203MOL0     H28010   9.167   8.355   3.770 -1.4860  3.0375 -2.4972
  203MOL0     H28011   9.439   8.075   2.913 -0.1485 -3.6832 -2.2318
  203MOL0     H28012   9.646   8.215   2.674 -0.6806  1.0474 -1.7557
  203MOL0     H28013   9.574   8.063   2.625 -1.4516  0.3298 -0.3556
  203MOL0     H28014   9.489   8.201   2.718  0.9697  3.4561 -2.3379
  204MOL0     O28015   0.242   8.132   4.550  0.0440 -0.4914  1.0621
  204MOL0     C28016   0.162   8.071   4.624  0.3471 -0.1136  0.6765
  204MOL0     O28017   0.089   7.961   4.592  0.0317  0.6669  0.0364
  204MOL0     C28018   0.109   7.901   4.467 -0.4323 -0.8125  0.6898
  204MOL0     C28019   0.160   7.774   4.452  0.5794 -0.3121  0.1033
  204MOL0     C28020   0.185   7.718   4.326  0.1793 -0.0190  0.0281
  204MOL0     C28021   0.131   7.775   4.209 -0.3654 -0.7380 -0.6137
  204MOL0     O28022   0.147   7.718   4.085 -1.2220  0.3181 -0.4613
  204MOL0     C28023   0.038   7.726   3.999  1.2072 -0.4895 -0.1921
  204MOL0     C28024  -0.075   7.630   4.022  0.0500  0.2159  0.7408
  204MOL0     C28025  -0.161   7.678   4.132  0.7096  0.3231 -0.2964
  204MOL0     C28026  -0.248   7.802   4.102 -0.7374 -0.1970  0.9505
  204MOL0     C28027  -0.332   7.840   4.224 -0.8465  1.0530 -0.1765
  204MOL0     C28028  -0.381   7.987   4.235 -0.0206  0.3716  0.1700
  204MOL0     C28029  -0.268   8.081   4.282 -0.3951  0.1759 -0.1895
  204MOL0     C28030  -0.312   8.232   4.286 -0.6814 -0.2880 -0.3314
  204MOL0     N28031  -0.187   8.312   4.300 -0.1490 -0.3312 -0.9222
  204MOL0     C28032  -0.085   8.345   4.210  0.3849  0.8846  0.0566
  204MOL0     C28033   0.013   8.391   4.288 -0.0570 -0.4925 -0.5082
  204MOL0     C28034   0.147   8.432   4.235 -0.9415  1.0582  0.8502
  204MOL0     C28035   0.253   8.469   4.335 -0.5185  0.1910  0.2800
  204MOL0     C28036   0.390   8.500   4.290 -0.4297  0.0141  0.1261
  204MOL0     C28037   0.479   8.513   4.408 -0.2754  0.1986 -0.6607
  204MOL0     O28038   0.619   8.508   4.371  0.4965  0.2491 -0.2371
  204MOL0     C28039   0.682   8.611   4.303  1.0954  0.4537  0.3070
  204MOL0     C28040   0.807   8.580   4.253  0.3040  0.3573 -0.8971
  204MOL0     C28041   0.882   8.675   4.180  0.7550 -0.9462 -1.0772
  204MOL0     C28042   1.016   8.635   4.120 -0.9946  1.2245 -0.5555
  204MOL0     C28043   0.826   8.812   4.158 -1.2392 -0.4131 -0.9993
  204MOL0     C28044   0.881   8.910   4.057  0.5036 -0.1302  0.0001
  204MOL0     O28045   0.818   9.034   4.034 -0.2084  0.2597  0.9047
  204MOL0     C28046   0.861   9.101   3.920 -0.2418  0.4847 -0.0349
  204MOL0     C28047   0.966   9.193   3.926 -0.0155  0.3278 -0.4974
  204MOL0     C28048   0.996   9.280   3.816  0.4961  1.1096  0.0776
  204MOL0     C28049   0.922   9.252   3.695 -1.4053  0.0202  0.0581
  204MOL0     O28050   0.942   9.307   3.564 -0.5315 -0.6057 -0.2798
  204MOL0     C28051   0.913   9.449   3.550  0.6530  0.5690  0.0204
  204MOL0     C28052   0.953   9.501   3.418 -1.2284  0.7935  0.1821
  204MOL0     C28053   1.112   9.488   3.394 -0.2432  0.3819 -0.5296
  204MOL0     C28054   1.143   9.564   3.266  0.4930 -0.4355 -0.1034
  204MOL0     C28055   1.288   9.610   3.260  0.6378 -0.2068 -0.3853
  204MOL0     C28056   1.370   9.521   3.161 -0.0094  0.2052 -0.3755
  204MOL0     C28057   1.527   9.514   3.202  0.7404 -0.0477  0.2909
  204MOL0     C28058   1.612   9.433   3.102  0.2221 -0.2352  0.2436
  204MOL0    Cl28059   1.771   9.423   3.168 -0.0124 -0.4729  0.0278
  204MOL0     C28060   0.832   9.145   3.687  0.4778 -0.6200  0.9087
  204MOL0     C28061   0.795   9.078   3.800  0.1971 -0.5902  0.0770
  204MOL0     O28062   0.993   8.893   4.011 -0.4594 -0.1144 -0.3575
  204MOL0     C28063   0.705   8.840   4.217  0.9534 -0.2921 -0.1349
  204MOL0     C28064   0.627   8.740   4.291 -0.6730  0.0134  0.3995
  204MOL0     N28065  -0.024   8.398   4.418  0.1020 -0.4112 -0.2716
  204MOL0     N28066  -0.146   8.355   4.427  0.1476 -0.3879  0.2853
  204MOL0     C28067   0.076   7.911   4.221 -0.3315 -0.4879  0.2874
  204MOL0     C28068   0.062   7.968   4.354 -0.9014  0.7844 -0.4309
  204MOL0     C28069   0.119   8.147   4.743 -0.0475  0.3839 -1.0785
  204MOL0     C28070   0.073   8.276   4.732  0.3571  0.5727  0.7781
  204MOL0     C28071   0.022   8.351   4.834 -0.2131  0.0402  0.4115
  204MOL0     C28072   0.021   8.295   4.960 -0.1759 -0.1898 -0.4387
  204MOL0     O28073  -0.028   8.385   5.051  0.0795 -0.2770  0.0497
  204MOL0     C28074  -0.034   8.361   5.193 -0.5337  0.6608  0.7596
  204MOL0     C28075  -0.148   8.452   5.255 -0.0643  0.0200  0.3945
  204MOL0     C28076  -0.094   8.562   5.348  0.6176  0.2030  0.1897
  204MOL0     C28077  -0.218   8.620   5.425 -0.4487  0.9687  0.5235
  204MOL0     C28078  -0.170   8.711   5.534  0.0767  0.1682  0.2716
  204MOL0     C28079  -0.129   8.800   5.609  0.8491 -0.3129  0.0621
  204MOL0     C28080   0.070   8.162   4.987 -0.3414 -0.3833  0.0666
  204MOL0     C28081   0.122   8.095   4.874  1.1967 -0.0071  0.8307
  204MOL0     C28082   0.189   7.958   4.901  0.1026 -0.5983  0.1319
  204MOL0     H28083   0.194   7.733   4.547  2.4925  1.1820  0.1133
  204MOL0     H28084   0.228   7.618   4.321  0.1335  0.0389 -2.1658
  204MOL0     H28085   0.096   7.702   3.909  1.4246  1.5043 -0.6140
  204MOL0     H28086  -0.004   7.825   3.984  1.3365 -0.6794 -2.0472
  204MOL0     H28087  -0.129   7.636   3.928  1.6630 -2.1039 -0.4258
  204MOL0     H28088  -0.044   7.525   4.029 -1.3175 -0.2914 -0.3958
  204MOL0     H28089  -0.229   7.596   4.159  1.2121 -0.4798 -1.3703
  204MOL0     H28090  -0.098   7.707   4.217  2.4657  0.4371 -1.5732
  204MOL0     H28091  -0.182   7.883   4.070 -0.7485 -1.1604 -1.8398
  204MOL0     H28092  -0.309   7.777   4.015 -0.0622  3.0273 -0.6097
  204MOL0     H28093  -0.265   7.826   4.310 -1.1076  0.5004 -0.0603
  204MOL0     H28094  -0.408   7.762   4.234  0.9351 -0.7180  0.4046
  204MOL0     H28095  -0.391   8.016   4.130  2.3698  3.1573  0.5768
  204MOL0     H28096  -0.476   8.007   4.285  1.2009  6.1098  0.9416
  204MOL0     H28097  -0.179   8.051   4.225  3.6518  1.1798  4.8320
  204MOL0     H28098  -0.239   8.057   4.385 -2.2747 -5.1971 -0.6229
  204MOL0     H28099  -0.365   8.264   4.195  0.2164  1.3405 -0.3281
  204MOL0     H28100  -0.381   8.244   4.370 -0.1673  2.4199 -0.2029
  204MOL0     H28101  -0.084   8.323   4.104  2.0530 -1.5295  0.4944
  204MOL0     H28102   0.141   8.524   4.176  2.0556  0.7142 -0.1349
  204MOL0     H28103   0.188   8.353   4.172  2.4782  1.4827  2.3611
  204MOL0     H28104   0.216   8.550   4.397 -1.8550  0.3208 -0.6394
  204MOL0     H28105   0.267   8.376   4.392 -1.1509  0.9798  1.7716
  204MOL0     H28106   0.435   8.426   4.224  0.9100  0.0244  0.9862
  204MOL0     H28107   0.384   8.601   4.247 -3.1748 -0.5804 -1.0856
  204MOL0     H28108   0.439   8.600   4.460 -2.7966 -1.7394  0.9086
  204MOL0     H28109   0.463   8.425   4.472  1.7175  0.3187  0.0802
  204MOL0     H28110   0.842   8.478   4.264 -1.3078 -0.1855 -0.5491
  204MOL0     H28111   1.050   8.532   4.132 -0.8279  1.4210  0.7821
  204MOL0     H28112   1.097   8.704   4.146  1.6020  0.0049 -4.4553
  204MOL0     H28113   1.011   8.639   4.011  0.8428 -0.4594 -0.7640
  204MOL0     H28114   1.013   9.208   4.023  0.9899 -2.1964 -0.5004
  204MOL0     H28115   1.069   9.361   3.813  1.6942  0.0465 -2.1647
  204MOL0     H28116   0.806   9.468   3.556  0.3972 -0.0233 -1.9078
  204MOL0     H28117   0.972   9.497   3.629  1.3024 -3.8096  2.5904
  204MOL0     H28118   0.901   9.457   3.332 -1.4326  2.9927 -0.9191
  204MOL0     H28119   0.925   9.607   3.430 -0.8304  0.6442  3.1834
  204MOL0     H28120   1.145   9.386   3.375  0.4929  0.8364 -1.8663
  204MOL0     H28121   1.160   9.544   3.475 -1.2311  2.9943 -1.6335
  204MOL0     H28122   1.087   9.659   3.260  1.1689 -0.1169 -2.1363
  204MOL0     H28123   1.103   9.505   3.183 -0.1625  0.6979 -0.6192
  204MOL0     H28124   1.295   9.713   3.223 -0.1358 -1.0964 -3.1748
  204MOL0     H28125   1.329   9.621   3.361 -0.6166  1.0150  0.0277
  204MOL0     H28126   1.361   9.563   3.060 -1.2060 -1.2209 -0.8917
  204MOL0     H28127   1.333   9.419   3.151 -1.1489  0.6021 -0.2819
  204MOL0     H28128   1.549   9.477   3.303  3.1204  1.2963  0.3381
  204MOL0     H28129   1.570   9.614   3.197  0.4338  0.0822  0.1913
  204MOL0     H28130   1.611   9.479   3.002 -0.2903 -0.3315  0.1994
  204MOL0     H28131   1.570   9.333   3.087 -0.2508  0.1957 -1.5708
  204MOL0     H28132   0.796   9.127   3.587  1.3050  4.7895 -0.7100
  204MOL0     H28133   0.724   8.996   3.797  2.5197 -2.7669  0.9797
  204MOL0     H28134   0.661   8.939   4.209 -1.0304 -1.0301  0.9006
  204MOL0     H28135   0.524   8.759   4.321 -1.5416  1.0281 -2.7829
  204MOL0     H28136   0.041   7.970   4.137  0.7687  1.2252  0.9778
  204MOL0     H28137   0.031   8.071   4.368  0.2462  1.3832 -2.0578
  204MOL0     H28138   0.068   8.312   4.630 -0.3977 -2.1975 -0.2680
  204MOL0     H28139  -0.026   8.446   4.812 -0.6632 -0.0656  0.9087
  204MOL0     H28140  -0.057   8.257   5.218 -2.2277  1.0931  1.1171
  204MOL0     H28141   0.060   8.393   5.238 -0.6990 -0.2289  1.7707
  204MOL0     H28142  -0.214   8.380   5.306 -1.2826 -2.0760 -3.7490
  204MOL0     H28143  -0.202   8.510   5.180 -1.0989 -1.5931 -0.1654
  204MOL0     H28144  -0.036   8.522   5.432  0.3311 -0.9198 -0.1306
  204MOL0     H28145  -0.026   8.633   5.299  0.4562  0.4143  0.2721
  204MOL0     H28146  -0.272   8.530   5.456 -0.5640 -0.8579 -4.2537
  204MOL0     H28147  -0.280   8.677   5.356  1.8781  0.2064 -2.4305
  204MOL0     H28148  -0.089   8.866   5.683  0.2776 -2.0065  1.9747
  204MOL0     H28149   0.069   8.121   5.087 -0.4739  1.7597  0.9941
  204MOL0     H28150   0.137   7.884   4.840  0.1931  0.6703 -1.5724
  204MOL0     H28151   0.296   7.961   4.880 -0.1962 -0.9643 -1.6354
  204MOL0     H28152   0.175   7.950   5.009 -0.8826 -2.6293 -0.1114
  205MOL0     O28153   0.028  10.531   7.188 -0.2261  0.2129  0.3281
  205MOL0     C28154   0.014  10.550   7.069 -0.4581  0.5367  0.0434
  205MOL0     O28155  -0.100  10.593   7.017  0.9092  0.0744  0.6450
  205MOL0     C28156  -0.220  10.595   7.099 -0.6437 -0.0787  0.9546
  205MOL0     C28157  -0.253  10.705   7.181  0.0136  0.0059 -0.1528
  205MOL0     C28158  -0.376  10.705   7.256 -0.1073  0.5759  0.2026
  205MOL0     C28159  -0.457  10.594   7.252 -0.2896  0.6330 -0.3780
  205MOL0     O28160  -0.581  10.585   7.315  0.2441  0.1464  0.1798
  205MOL0     C28161  -0.684  10.650   7.237  0.7535  0.1669 -0.3290
  205MOL0     C28162  -0.819  10.590   7.294  0.5827 -0.3256  0.5742
  205MOL0     C28163  -0.855  10.452   7.245  0.9740  1.2492 -0.2069
  205MOL0     C28164  -0.915  10.364   7.360 -1.0245  0.1466  0.2526
  205MOL0     C28165  -0.947  10.239   7.283 -0.0149  0.0305 -0.2142
  205MOL0     C28166  -1.091  10.239   7.232 -0.3389 -0.1040 -0.6396
  205MOL0     C28167  -1.114  10.104   7.154  0.2205 -1.2460 -0.4388
  205MOL0     C28168  -1.262  10.116   7.099  0.0107 -0.4369 -0.7314
  205MOL0     N28169  -1.296   9.993   7.023  0.2147 -0.7090  0.0100
  205MOL0     C28170  -1.418   9.936   7.008  0.5203  1.0641  1.0442
  205MOL0     C28171  -1.391   9.830   6.922 -0.8120  0.2830  0.1767
  205MOL0     C28172  -1.489   9.748   6.841  0.3334  0.0745 -0.6479
  205MOL0     C28173  -1.509   9.598   6.897 -0.0901  0.6310  0.9754
  205MOL0     C28174  -1.568   9.591   7.034 -0.2961  0.7412 -0.6417
  205MOL0     C28175  -1.537   9.458   7.098 -0.3497 -1.3505 -1.1663
  205MOL0     O28176  -1.586   9.352   7.009  0.1290  0.3412  0.1718
  205MOL0     C28177  -1.509   9.236   7.000 -0.5928 -0.5634 -0.1683
  205MOL0     C28178  -1.427   9.195   7.095 -0.2550  0.1720  1.1400
  205MOL0     C28179  -1.376   9.069   7.105  0.1942 -0.1876  0.4937
  205MOL0     C28180  -1.292   9.049   7.238 -0.7483 -0.4631  0.2255
  205MOL0     C28181  -1.382   8.981   6.999  0.7809  1.0007  0.2021
  205MOL0     C28182  -1.321   8.844   6.995  0.6062  0.2119 -0.4675
  205MOL0     O28183  -1.319   8.787   6.870  0.3941 -0.6912 -0.2925
  205MOL0     C28184  -1.253   8.662   6.850  0.3823  0.5922 -0.0388
  205MOL0     C28185  -1.154   8.666   6.755 -0.3499  0.4538  0.4293
  205MOL0     C28186  -1.086   8.550   6.712 -0.2245 -0.0196  0.9226
  205MOL0     C28187  -1.123   8.424   6.761  0.9110 -0.8642  0.4193
  205MOL0     O28188  -1.062   8.308   6.716 -0.8697 -0.0529  1.1358
  205MOL0     C28189  -1.119   8.185   6.743 -0.2841 -0.0592 -0.6372
  205MOL0     C28190  -1.025   8.070   6.685  0.3894  0.4039  0.2692
  205MOL0     C28191  -0.899   8.043   6.762  0.6730  0.4379 -0.3596
  205MOL0     C28192  -0.812   7.943   6.689 -0.6982  0.5185 -0.6704
  205MOL0     C28193  -0.668   7.926   6.776  0.1538  0.9694 -0.3404
  205MOL0     C28194  -0.576   8.039   6.740 -0.4687 -0.3294  0.2696
  205MOL0     C28195  -0.437   8.012   6.795 -0.0471 -0.8700  0.7109
  205MOL0     C28196  -0.329   8.120   6.752 -0.1380  0.1194 -0.0921
  205MOL0    Cl28197  -0.325   8.271   6.850  0.4814 -0.2464 -0.0356
  205MOL0     C28198  -1.236   8.426   6.850 -0.0705  0.2610 -0.0345
  205MOL0     C28199  -1.291   8.539   6.899  0.6487  0.4406  0.5801
  205MOL0     O28200  -1.288   8.787   7.099  0.6359 -0.7827 -0.7828
  205MOL0     C28201  -1.456   9.028   6.881 -0.6813  0.1935  0.1782
  205MOL0     C28202  -1.533   9.146   6.889  0.9228 -0.6186 -1.0354
  205MOL0     N28203  -1.256   9.827   6.893 -0.8423  0.0093  0.6239
  205MOL0     N28204  -1.207   9.908   6.968 -0.0385 -0.1855  0.4619
  205MOL0     C28205  -0.421  10.490   7.166  0.3956 -0.2563 -0.0972
  205MOL0     C28206  -0.300  10.487   7.096  0.0271  0.5824  0.7553
  205MOL0     C28207   0.125  10.537   6.977 -0.6016 -0.2729 -0.3681
  205MOL0     C28208   0.252  10.504   7.029  0.2283  0.7321  0.8595
  205MOL0     C28209   0.359  10.473   6.943  0.4855 -0.6148 -0.0353
  205MOL0     C28210   0.354  10.505   6.812 -0.8666 -0.2967  0.5931
  205MOL0     O28211   0.441  10.475   6.719 -0.3993 -0.2201  0.0752
  205MOL0     C28212   0.558  10.391   6.734 -0.2855  0.3723  0.2942
  205MOL0     C28213   0.665  10.467   6.800  0.5579 -0.1980 -0.6252
  205MOL0     C28214   0.774  10.378   6.861  0.1140  0.1206  1.0459
  205MOL0     C28215   0.884  10.460   6.924 -0.4937 -1.2306  0.1365
  205MOL0     C28216   1.002  10.380   6.951 -0.2930  1.4140  0.1191
  205MOL0     C28217   1.098  10.316   6.955 -0.0259  0.5438 -0.2420
  205MOL0     C28218   0.230  10.533   6.756 -0.2074 -0.1919 -0.0103
  205MOL0     C28219   0.113  10.538   6.830  0.1528 -0.7664 -0.5105
  205MOL0     C28220  -0.020  10.562   6.751 -0.3218 -0.3292 -1.1453
  205MOL0     H28221  -0.210  10.804   7.190 -0.3579 -0.0121  3.3251
  205MOL0     H28222  -0.411  10.785   7.320  0.5049  0.8328  0.2217
  205MOL0     H28223  -0.674  10.629   7.130  0.9476  0.0518 -0.2877
  205MOL0     H28224  -0.677  10.758   7.257  4.5752 -0.4413  2.7240
  205MOL0     H28225  -0.817  10.592   7.403 -1.0088 -1.2030  0.6415
  205MOL0     H28226  -0.899  10.652   7.253 -0.2381 -1.9836 -0.4613
  205MOL0     H28227  -0.921  10.470   7.160 -0.6615  2.0104  1.1691
  205MOL0     H28228  -0.753  10.417   7.227  0.5855 -0.1077  0.1106
  205MOL0     H28229  -0.845  10.348   7.443  1.1666 -0.2521 -1.5461
  205MOL0     H28230  -0.998  10.422   7.400  0.1397  1.4566  0.8842
  205MOL0     H28231  -0.945  10.150   7.346  0.9764 -0.7108 -1.2469
  205MOL0     H28232  -0.876  10.218   7.202  1.9272 -1.8039  1.8321
  205MOL0     H28233  -1.161  10.252   7.315  0.3954  0.2043 -0.0553
  205MOL0     H28234  -1.107  10.330   7.174 -1.0452  2.6812  3.4987
  205MOL0     H28235  -1.100  10.021   7.224 -0.6078 -1.6491 -0.7443
  205MOL0     H28236  -1.054  10.096   7.063 -1.2569  2.0899 -1.8810
  205MOL0     H28237  -1.325  10.109   7.188  1.8426 -2.4425  0.5228
  205MOL0     H28238  -1.276  10.211   7.047 -0.3901 -0.4817 -0.7048
  205MOL0     H28239  -1.512   9.981   7.038 -1.4182 -0.7700 -1.7845
  205MOL0     H28240  -1.444   9.734   6.743 -0.2371 -3.9756 -0.5053
  205MOL0     H28241  -1.583   9.804   6.834 -1.0839 -1.8792  1.0649
  205MOL0     H28242  -1.565   9.543   6.820  1.1990 -0.8078  0.9964
  205MOL0     H28243  -1.417   9.538   6.895 -2.4053 -3.2721  1.0811
  205MOL0     H28244  -1.532   9.670   7.101  4.2320  0.0271 -1.8622
  205MOL0     H28245  -1.676   9.600   7.022 -0.6296 -1.7086 -0.0595
  205MOL0     H28246  -1.430   9.454   7.120 -0.7088 -0.8561  0.8385
  205MOL0     H28247  -1.572   9.460   7.202  0.9506 -1.4557 -0.7027
  205MOL0     H28248  -1.415   9.259   7.182 -0.6339  1.4074  0.3170
  205MOL0     H28249  -1.248   8.950   7.250  0.0238 -0.2275 -0.6021
  205MOL0     H28250  -1.347   9.062   7.332 -0.4495 -1.1752  0.5042
  205MOL0     H28251  -1.207   9.117   7.231  2.5184 -4.2712 -0.1433
  205MOL0     H28252  -1.120   8.766   6.729  3.1696 -0.1630  1.9535
  205MOL0     H28253  -0.993   8.552   6.656  2.2138 -0.4621  4.5890
  205MOL0     H28254  -1.116   8.167   6.851  4.3394  0.9894 -0.3606
  205MOL0     H28255  -1.216   8.168   6.696 -1.5177  3.2666  0.3928
  205MOL0     H28256  -1.082   7.977   6.684 -0.2270  0.6974  2.5552
  205MOL0     H28257  -1.004   8.101   6.582  0.5953 -0.4088  0.0613
  205MOL0     H28258  -0.914   8.007   6.864  2.0615  1.8468  0.3831
  205MOL0     H28259  -0.850   8.141   6.768 -3.1549  2.4743  4.0126
  205MOL0     H28260  -0.792   7.974   6.586 -1.2922  0.0478 -0.9324
  205MOL0     H28261  -0.867   7.848   6.691 -0.1561  0.2057  0.2442
  205MOL0     H28262  -0.684   7.922   6.884 -0.9338  1.0847 -0.4838
  205MOL0     H28263  -0.627   7.830   6.745 -0.4711  0.3723  0.6283
  205MOL0     H28264  -0.614   8.137   6.771  0.4455 -0.1592  0.8732
  205MOL0     H28265  -0.574   8.040   6.631 -0.2552  1.1986  0.2656
  205MOL0     H28266  -0.411   7.913   6.757 -1.5828 -1.3156  0.7572
  205MOL0     H28267  -0.438   7.995   6.903 -3.0667 -2.0475  0.6198
  205MOL0     H28268  -0.351   8.163   6.653 -0.6031 -0.9472 -0.4648
  205MOL0     H28269  -0.229   8.076   6.757  1.2803  3.0989  0.3667
  205MOL0     H28270  -1.268   8.327   6.878  0.9465 -0.5059 -1.4486
  205MOL0     H28271  -1.377   8.531   6.964  2.1484 -0.0902  2.5993
  205MOL0     H28272  -1.454   8.977   6.785 -1.1783  1.7815 -0.7088
  205MOL0     H28273  -1.601   9.174   6.809  0.5643  0.8393 -0.2549
  205MOL0     H28274  -0.489  10.405   7.170  0.3579 -0.1918  0.8685
  205MOL0     H28275  -0.272  10.409   7.026  0.9253  2.7777 -1.4712
  205MOL0     H28276   0.257  10.460   7.128 -2.9396 -2.8041 -0.3143
  205MOL0     H28277   0.448  10.446   6.999  0.4049  1.7248  1.3564
  205MOL0     H28278   0.525  10.304   6.792 -2.1896  1.2685  0.6551
  205MOL0     H28279   0.598  10.360   6.637 -0.0097  0.1523  0.4779
  205MOL0     H28280   0.617  10.524   6.880 -0.0108 -0.7009 -0.5991
  205MOL0     H28281   0.704  10.535   6.724  1.0961 -1.3968 -1.4566
  205MOL0     H28282   0.738  10.319   6.945 -0.0987 -0.5702  0.4828
  205MOL0     H28283   0.803  10.307   6.783 -1.8501 -1.2605  1.5041
  205MOL0     H28284   0.852  10.519   7.010  0.4985  0.5488 -0.6532
  205MOL0     H28285   0.913  10.529   6.844  2.2436 -3.4487 -0.9562
  205MOL0     H28286   1.178  10.244   6.950  1.9798  2.7307 -2.3138
  205MOL0     H28287   0.224  10.548   6.648 -1.3717  0.0280  0.0726
  205MOL0     H28288  -0.108  10.507   6.785  0.3432 -1.1074 -0.6052
  205MOL0     H28289  -0.036  10.670   6.753  2.6268  0.3626  3.7993
  205MOL0     H28290   0.002  10.520   6.652  3.3022  0.9702 -1.0441
  206MOL0     O28291  10.262  10.047   4.734 -0.0674 -0.0646 -0.2128
  206MOL0     C28292  10.218   9.939   4.687 -0.0767  0.1929 -0.1462
  206MOL0     O28293  10.221   9.819   4.750  0.1465 -0.3118  0.0873
  206MOL0     C28294  10.243   9.819   4.882  0.1103 -0.1902 -0.2282
  206MOL0     C28295  10.154   9.870   4.975 -0.7744 -0.8118  0.4160
  206MOL0     C28296  10.184   9.874   5.117 -0.3188 -0.4635 -0.0106
  206MOL0     C28297  10.310   9.837   5.168 -0.3650 -0.4080 -0.4253
  206MOL0     O28298  10.341   9.851   5.299  0.5694 -0.6091  0.1158
  206MOL0     C28299  10.266   9.947   5.365 -0.3015 -1.1197 -1.0865
  206MOL0     C28300  10.351   9.976   5.491 -0.1447 -0.5896  1.2168
  206MOL0     C28301  10.490  10.037   5.452  0.5784 -1.2201 -0.7588
  206MOL0     C28302  10.564  10.096   5.584  0.0923  0.5939  0.0102
  206MOL0     C28303  10.570  10.014   5.713  0.3187  0.1531 -0.2372
  206MOL0     C28304  10.671  10.065   5.815 -0.6070  0.7022 -0.3228
  206MOL0     C28305  10.661   9.968   5.939 -0.5092 -0.4090 -0.4038
  206MOL0     C28306  10.782   9.976   6.035  0.3455  0.3165 -0.4225
  206MOL0     N28307  10.731   9.900   6.153 -0.4121  0.0582  0.2103
  206MOL0     C28308  10.740   9.767   6.184  0.4315  0.6433  0.1274
  206MOL0     C28309  10.679   9.750   6.306  0.8508 -0.2311  0.8971
  206MOL0     C28310  10.650   9.622   6.385  1.0020 -0.6534 -0.5834
  206MOL0     C28311  10.773   9.554   6.444  0.7419 -0.0001 -0.6284
  206MOL0     C28312  10.878   9.485   6.350  0.2422 -0.1765  0.8292
  206MOL0     C28313  10.985   9.403   6.421  0.4995 -0.3003 -0.9824
  206MOL0     O28314  11.060   9.474   6.513  0.0416 -0.4365  0.7206
  206MOL0     C28315  11.194   9.467   6.519 -0.0432  0.7525 -0.1383
  206MOL0     C28316  11.287   9.414   6.424  1.3798  0.4020  0.6494
  206MOL0     C28317  11.419   9.453   6.431  0.4401  0.0295 -0.0573
  206MOL0     C28318  11.496   9.433   6.304 -0.7125 -0.2698 -0.1715
  206MOL0     C28319  11.466   9.512   6.546  0.1669  0.1303 -0.2934
  206MOL0     C28320  11.608   9.544   6.574 -0.2544 -0.5255  1.0685
  206MOL0     O28321  11.702   9.465   6.512  0.5468  0.1558 -0.0414
  206MOL0     C28322  11.833   9.498   6.547 -0.0838  0.3973 -0.2687
  206MOL0     C28323  11.919   9.578   6.468 -0.2712  0.0030 -0.7424
  206MOL0     C28324  12.057   9.594   6.505 -0.0424 -0.1540  0.0231
  206MOL0     C28325  12.105   9.533   6.621 -0.2929  0.6026 -0.4342
  206MOL0     O28326  12.245   9.554   6.645 -0.1431 -0.0728 -0.6516
  206MOL0     C28327  12.311   9.427   6.670 -0.1162 -0.8942 -0.5545
  206MOL0     C28328  12.380   9.408   6.809  0.3732  0.2074  0.0988
  206MOL0     C28329  12.498   9.501   6.812  0.3198 -0.5994  0.5345
  206MOL0     C28330  12.621   9.437   6.747 -1.2516 -0.0371  0.0376
  206MOL0     C28331  12.730   9.380   6.837 -0.8351  0.5215  0.4718
  206MOL0     C28332  12.818   9.477   6.914  0.0152 -1.1492 -0.0921
  206MOL0     C28333  12.931   9.412   6.987  0.7052 -0.2649 -1.2191
  206MOL0     C28334  13.014   9.517   7.057 -0.3343  0.8225  0.7700
  206MOL0    Cl28335  13.163   9.432   7.078 -0.1791  0.0308  0.0049
  206MOL0     C28336  12.023   9.450   6.700 -0.1113 -0.0218 -0.2599
  206MOL0     C28337  11.885   9.437   6.664 -0.8430 -0.5721 -0.1620
  206MOL0     O28338  11.638   9.640   6.646  0.3578 -0.5393 -0.6203
  206MOL0     C28339  11.374   9.559   6.641  0.4138 -0.7669 -0.0753
  206MOL0     C28340  11.239   9.537   6.630 -0.8370 -1.0294 -0.5974
  206MOL0     N28341  10.631   9.875   6.346 -0.6351  0.2126  0.6989
  206MOL0     N28342  10.658   9.960   6.254 -0.6804  0.6025 -0.3475
  206MOL0     C28343  10.397   9.782   5.070  0.7285  0.5630 -0.8244
  206MOL0     C28344  10.363   9.766   4.935  0.4075 -0.0827  0.1974
  206MOL0     C28345  10.184   9.954   4.542  0.6911 -0.0373 -0.5291
  206MOL0     C28346  10.167  10.088   4.489 -0.6066 -0.2353 -0.8345
  206MOL0     C28347  10.116  10.101   4.361 -0.2344  0.1026  0.3189
  206MOL0     C28348  10.084   9.992   4.279 -1.6571 -0.1562 -0.2645
  206MOL0     O28349  10.044  10.015   4.153  0.1783  0.2048 -0.7396
  206MOL0     C28350  10.116   9.946   4.050 -0.5231 -0.0555 -0.1811
  206MOL0     C28351  10.082  10.017   3.921  0.3856 -1.8037 -0.4224
  206MOL0     C28352   9.940   9.990   3.873 -0.2430 -0.4556  0.0459
  206MOL0     C28353   9.937   9.865   3.785 -0.6831  0.5907 -0.0256
  206MOL0     C28354   9.972   9.903   3.650  0.0755  0.0173  0.3612
  206MOL0     C28355  10.016   9.944   3.547  0.1609  0.4891  0.2716
  206MOL0     C28356  10.092   9.865   4.336 -0.1205  0.4855  0.4540
  206MOL0     C28357  10.146   9.848   4.466 -0.5966  0.1403 -0.5074
  206MOL0     C28358  10.168   9.703   4.512  0.0825  0.3313 -0.5076
  206MOL0     H28359  10.076   9.941   4.947  0.0075  0.0903  0.4858
  206MOL0     H28360  10.101   9.906   5.178  1.2475  2.5351  0.7627
  206MOL0     H28361  10.167   9.909   5.392  0.1713 -0.9108  1.1869
  206MOL0     H28362  10.257  10.042   5.311  1.0332 -0.0995  0.4081
  206MOL0     H28363  10.299  10.053   5.549  1.1260  0.6417  0.7668
  206MOL0     H28364  10.357   9.895   5.565 -1.6044 -1.9376 -0.0526
  206MOL0     H28365  10.537   9.960   5.391 -2.0053 -0.7213 -3.6218
  206MOL0     H28366  10.476  10.132   5.400  1.1964  1.1972  3.0602
  206MOL0     H28367  10.668  10.114   5.556 -0.8048  1.1041 -3.4507
  206MOL0     H28368  10.518  10.191   5.611 -1.1304 -0.1423  0.5833
  206MOL0     H28369  10.593   9.909   5.696  1.4979  0.5704 -1.4008
  206MOL0     H28370  10.469  10.011   5.755  0.2376  1.5714 -0.2804
  206MOL0     H28371  10.772  10.070   5.774 -1.1294  2.7945 -1.5452
  206MOL0     H28372  10.655  10.168   5.849  2.5049  1.1435  0.0854
  206MOL0     H28373  10.644   9.870   5.894 -1.6983  0.3045 -1.6082
  206MOL0     H28374  10.582   9.997   6.009  1.1381  0.6679  1.0845
  206MOL0     H28375  10.874   9.937   5.993  1.0347  3.2591 -1.9030
  206MOL0     H28376  10.798  10.079   6.068  0.6756  1.1253 -2.9636
  206MOL0     H28377  10.783   9.691   6.121  0.6948  0.8666  0.0364
  206MOL0     H28378  10.601   9.555   6.314 -0.8822  2.1088 -2.0667
  206MOL0     H28379  10.575   9.648   6.459  1.8095  0.3893 -0.1089
  206MOL0     H28380  10.824   9.633   6.500  1.2632 -0.6934 -0.1160
  206MOL0     H28381  10.738   9.481   6.518 -0.0472 -0.5546 -1.5302
  206MOL0     H28382  10.829   9.424   6.273 -0.2606  0.4531  0.6439
  206MOL0     H28383  10.924   9.568   6.296 -1.8688  0.9332  0.5974
  206MOL0     H28384  10.935   9.326   6.480 -0.3982  0.4871 -0.6916
  206MOL0     H28385  11.028   9.345   6.339  0.2424 -2.7557  0.5214
  206MOL0     H28386  11.253   9.358   6.337  1.8932 -1.8056  1.8169
  206MOL0     H28387  11.430   9.458   6.221 -0.0246 -1.9715 -1.2855
  206MOL0     H28388  11.541   9.334   6.296 -0.6070 -0.4995  2.4381
  206MOL0     H28389  11.574   9.510   6.302 -0.9835 -0.0131 -1.1311
  206MOL0     H28390  11.883   9.620   6.374 -1.6197  0.9665  0.1712
  206MOL0     H28391  12.136   9.633   6.442  0.9704 -3.9166 -1.3283
  206MOL0     H28392  12.250   9.337   6.655  2.3205 -2.4666 -1.5520
  206MOL0     H28393  12.387   9.410   6.593 -0.3490 -1.1971 -0.7218
  206MOL0     H28394  12.310   9.436   6.888  0.7518 -2.2802  1.4245
  206MOL0     H28395  12.413   9.304   6.819  1.9582  0.6985  0.2939
  206MOL0     H28396  12.522   9.518   6.917  4.8430 -0.6673 -0.3117
  206MOL0     H28397  12.469   9.599   6.773  0.6542 -0.5437  0.4257
  206MOL0     H28398  12.669   9.513   6.684  2.9877 -2.1517  0.3569
  206MOL0     H28399  12.604   9.348   6.686  1.2945 -1.3072  1.0470
  206MOL0     H28400  12.695   9.309   6.913  2.1773 -3.4793 -1.4744
  206MOL0     H28401  12.794   9.314   6.777  1.6376  1.9271  1.4322
  206MOL0     H28402  12.764   9.555   6.969  1.3248  2.6356 -3.6314
  206MOL0     H28403  12.859   9.554   6.848  2.9766 -0.8501  1.9076
  206MOL0     H28404  12.989   9.348   6.920  2.6383 -1.3647  1.3548
  206MOL0     H28405  12.883   9.343   7.057 -0.2168  1.1526 -0.4180
  206MOL0     H28406  12.971   9.548   7.153  1.5661 -0.1524  1.9949
  206MOL0     H28407  13.028   9.595   6.981 -0.3219 -0.9071 -1.0937
  206MOL0     H28408  12.061   9.411   6.793 -1.2121 -1.1422 -0.2576
  206MOL0     H28409  11.816   9.390   6.733 -0.9120  1.6212  1.3323
  206MOL0     H28410  11.404   9.606   6.734 -1.1408 -1.9195  1.0545
  206MOL0     H28411  11.166   9.586   6.694 -1.9332 -0.4452 -2.2357
  206MOL0     H28412  10.482   9.724   5.105  0.0673 -0.3388 -0.6811
  206MOL0     H28413  10.429   9.720   4.862 -0.8666 -0.3835 -0.8131
  206MOL0     H28414  10.187  10.176   4.550  0.9057  0.2565 -1.9999
  206MOL0     H28415  10.120  10.201   4.319  1.9773 -0.7983 -1.8425
  206MOL0     H28416  10.223   9.935   4.071 -0.3669 -1.3875 -1.4944
  206MOL0     H28417  10.094   9.839   4.046 -0.6689 -0.0163 -0.5093
  206MOL0     H28418  10.152  10.002   3.839 -1.0680 -0.7526 -1.9127
  206MOL0     H28419  10.091  10.125   3.939 -3.3018 -1.2127 -1.2555
  206MOL0     H28420   9.869   9.977   3.956 -0.7662 -1.0927 -0.4970
  206MOL0     H28421   9.901  10.072   3.812 -1.7732 -0.6909  0.6483
  206MOL0     H28422   9.841   9.813   3.784  0.6133 -1.9775 -1.5970
  206MOL0     H28423  10.014   9.795   3.819 -1.3860  0.4652  1.3710
  206MOL0     H28424  10.067   9.980   3.460 -1.0337  2.8498  0.4660
  206MOL0     H28425  10.063   9.784   4.271 -1.2053  1.7150 -0.6625
  206MOL0     H28426  10.270   9.701   4.551  0.4821  2.0680 -1.3681
  206MOL0     H28427  10.099   9.675   4.591 -0.3504  0.5291 -0.8106
  206MOL0     H28428  10.153   9.624   4.437 -0.1438  1.0156 -1.2042
  207MOL0     O28429   4.677   6.445   8.954  0.7336 -0.0860 -0.7208
  207MOL0     C28430   4.627   6.403   8.854 -0.6174  0.1319  0.0935
  207MOL0     O28431   4.673   6.429   8.729 -0.7783  0.1161  0.0285
  207MOL0     C28432   4.797   6.485   8.698 -0.5823  0.0823  0.4668
  207MOL0     C28433   4.813   6.605   8.616 -0.4772 -0.0894 -0.3805
  207MOL0     C28434   4.938   6.657   8.598  0.0062 -0.4922  1.5802
  207MOL0     C28435   5.051   6.585   8.625  0.0167 -0.2903 -0.4977
  207MOL0     O28436   5.184   6.624   8.610  0.4851 -0.1561  0.9181
  207MOL0     C28437   5.213   6.763   8.585 -0.5626  0.2174  0.8263
  207MOL0     C28438   5.228   6.856   8.705 -0.9620  0.1888 -0.4387
  207MOL0     C28439   5.283   6.994   8.673  0.7257 -0.1899  0.7266
  207MOL0     C28440   5.185   7.079   8.572 -0.3180 -0.1412 -0.4428
  207MOL0     C28441   5.241   7.223   8.552  0.4872  0.4111  0.0498
  207MOL0     C28442   5.371   7.217   8.472  0.1828 -0.0866  0.6427
  207MOL0     C28443   5.400   7.359   8.410 -0.2602  0.4880 -0.6481
  207MOL0     C28444   5.553   7.373   8.385  0.1805  1.1303 -0.2410
  207MOL0     N28445   5.574   7.510   8.330 -0.4008  0.4556  0.1780
  207MOL0     C28446   5.603   7.627   8.401 -0.6528 -0.0227  0.0123
  207MOL0     C28447   5.627   7.718   8.303  1.3462 -0.2742 -0.3271
  207MOL0     C28448   5.673   7.859   8.328 -0.1649  0.3302  0.4024
  207MOL0     C28449   5.818   7.869   8.289  0.0243 -0.0989 -1.1695
  207MOL0     C28450   5.836   7.929   8.155 -0.2274 -0.2344  0.6525
  207MOL0     C28451   5.982   7.956   8.103 -0.3837  0.1187  0.6228
  207MOL0     O28452   6.021   8.082   8.156 -0.2950 -0.1009  0.8349
  207MOL0     C28453   6.113   8.152   8.079  0.4310 -0.6154  0.4281
  207MOL0     C28454   6.151   8.276   8.132 -0.9772 -0.1381 -1.1559
  207MOL0     C28455   6.236   8.373   8.059  1.1203  0.3450 -0.5629
  207MOL0     C28456   6.271   8.494   8.138 -0.2369 -0.2290  0.8286
  207MOL0     C28457   6.282   8.341   7.933  0.5772  0.6329 -0.4491
  207MOL0     C28458   6.362   8.422   7.838  0.5260 -1.1677  0.4787
  207MOL0     O28459   6.378   8.369   7.714  0.3683 -0.2101 -0.2113
  207MOL0     C28460   6.444   8.448   7.622 -0.0614 -0.5197 -1.0488
  207MOL0     C28461   6.378   8.543   7.550  0.6466 -0.2847 -0.1009
  207MOL0     C28462   6.446   8.630   7.464 -0.5494  0.1970  0.7096
  207MOL0     C28463   6.588   8.629   7.465  0.5214 -0.1304  1.3445
  207MOL0     O28464   6.666   8.718   7.395 -0.3508  0.2042  0.1209
  207MOL0     C28465   6.600   8.842   7.370 -0.7939 -0.4948 -1.0005
  207MOL0     C28466   6.714   8.929   7.313  0.3257  0.3091  0.5024
  207MOL0     C28467   6.773   8.865   7.180  0.8962 -0.3443  0.1407
  207MOL0     C28468   6.842   8.982   7.107  0.1133 -0.2169 -0.0612
  207MOL0     C28469   6.869   8.938   6.964  0.1170 -0.3232  0.1587
  207MOL0     C28470   6.982   9.018   6.897 -0.5785 -0.8018  0.8531
  207MOL0     C28471   7.021   8.960   6.756  0.3176 -0.6023  0.6407
  207MOL0     C28472   7.177   8.958   6.755  0.6577  0.1073  0.0433
  207MOL0    Cl28473   7.245   9.116   6.698  0.1254  0.2456  0.0603
  207MOL0     C28474   6.655   8.526   7.535  0.3481 -0.0217  0.1366
  207MOL0     C28475   6.582   8.436   7.619 -0.9735  0.4725 -0.8425
  207MOL0     O28476   6.414   8.525   7.875 -0.0322  0.1478 -0.6433
  207MOL0     C28477   6.233   8.222   7.879  0.6016 -0.0375  0.4856
  207MOL0     C28478   6.159   8.125   7.944  0.5826 -0.3613 -0.2472
  207MOL0     N28479   5.591   7.659   8.177 -0.1578 -0.2457 -0.0311
  207MOL0     N28480   5.566   7.534   8.203  0.1067  0.5358 -0.2365
  207MOL0     C28481   5.035   6.473   8.706  0.9065 -0.4035  0.0105
  207MOL0     C28482   4.914   6.422   8.743  0.7877  0.5557 -0.4486
  207MOL0     C28483   4.504   6.335   8.876  1.8060  0.8188 -0.6102
  207MOL0     C28484   4.396   6.399   8.952 -0.5227 -0.5203 -0.9415
  207MOL0     C28485   4.284   6.339   8.986 -0.1901 -0.6272 -0.8416
  207MOL0     C28486   4.267   6.212   8.940 -0.3921 -0.6105  0.4233
  207MOL0     O28487   4.153   6.154   8.985  0.4380  0.0807  0.3634
  207MOL0     C28488   4.076   6.074   8.891  0.8079 -0.5689 -0.4634
  207MOL0     C28489   3.998   6.155   8.784 -0.4905 -0.5035 -0.5954
  207MOL0     C28490   3.940   6.057   8.679  0.4010  0.1213 -0.4259
  207MOL0     C28491   3.828   6.125   8.597 -0.1809 -0.1114  0.6321
  207MOL0     C28492   3.712   6.135   8.691  0.2503  0.9460  0.7497
  207MOL0     C28493   3.616   6.129   8.773  0.4701 -0.5810  0.6820
  207MOL0     C28494   4.360   6.140   8.871 -0.5899 -0.7808  0.4220
  207MOL0     C28495   4.483   6.201   8.833  0.2600  0.7137 -0.1039
  207MOL0     C28496   4.578   6.127   8.746 -0.2220 -0.4053  0.3380
  207MOL0     H28497   4.728   6.648   8.563 -0.2694  0.8186  0.0007
  207MOL0     H28498   4.937   6.753   8.547 -1.7918 -2.4940 -2.5897
  207MOL0     H28499   5.140   6.817   8.525  3.1617  4.4228 -0.3923
  207MOL0     H28500   5.298   6.765   8.516 -1.6638 -0.0219 -0.5696
  207MOL0     H28501   5.130   6.872   8.750 -0.7069  0.7593 -0.0579
  207MOL0     H28502   5.296   6.803   8.773  1.6852 -0.6713 -3.4961
  207MOL0     H28503   5.302   7.046   8.768 -1.5064  2.8900 -0.3424
  207MOL0     H28504   5.382   6.978   8.629  0.7501 -0.5561  0.9182
  207MOL0     H28505   5.168   7.035   8.474  0.7929  2.9957 -2.1715
  207MOL0     H28506   5.087   7.087   8.621  0.3094  1.8063  0.6316
  207MOL0     H28507   5.269   7.271   8.646  0.3731  0.1431  0.2221
  207MOL0     H28508   5.158   7.270   8.498  0.1490  0.9789  1.0496
  207MOL0     H28509   5.455   7.177   8.529 -1.8302  0.9124  4.7509
  207MOL0     H28510   5.354   7.149   8.388 -3.3335 -0.0788  1.2140
  207MOL0     H28511   5.361   7.434   8.480 -0.5756  1.6533 -2.0309
  207MOL0     H28512   5.347   7.364   8.314  2.0565  1.3123 -1.9575
  207MOL0     H28513   5.622   7.353   8.468  1.5200 -0.7509 -1.7125
  207MOL0     H28514   5.579   7.293   8.315 -0.9281  0.4209  0.1313
  207MOL0     H28515   5.627   7.654   8.503  1.7446  1.1966 -0.7942
  207MOL0     H28516   5.673   7.868   8.437  1.9588 -1.7147  0.6465
  207MOL0     H28517   5.609   7.931   8.277 -2.0780 -0.3777  1.6814
  207MOL0     H28518   5.875   7.937   8.354 -1.9093  2.1243 -1.6904
  207MOL0     H28519   5.854   7.766   8.289 -2.5328 -1.0564 -0.6980
  207MOL0     H28520   5.789   7.854   8.091  2.4016 -0.8798 -0.6541
  207MOL0     H28521   5.782   8.024   8.156  0.6363  0.3022 -0.8228
  207MOL0     H28522   6.041   7.871   8.137  0.5780  0.6548  0.3203
  207MOL0     H28523   5.989   7.945   7.995 -0.7786 -0.0652  0.6131
  207MOL0     H28524   6.116   8.300   8.231  1.0284 -0.7309 -0.2625
  207MOL0     H28525   6.379   8.497   8.155  0.1526 -0.6776 -1.2998
  207MOL0     H28526   6.219   8.491   8.234 -1.1786 -1.0548  0.3096
  207MOL0     H28527   6.232   8.585   8.091  2.0124  1.2790  1.6971
  207MOL0     H28528   6.270   8.548   7.548  0.6599  0.3439  0.4794
  207MOL0     H28529   6.392   8.705   7.406 -0.1468 -0.6500 -0.8136
  207MOL0     H28530   6.522   8.844   7.293 -0.2274  2.3896 -1.6083
  207MOL0     H28531   6.557   8.889   7.459  1.5800 -0.8432  0.3969
  207MOL0     H28532   6.665   9.026   7.303  0.9218  0.4851 -0.9109
  207MOL0     H28533   6.798   8.950   7.380 -0.4624  2.8122  0.7734
  207MOL0     H28534   6.688   8.830   7.121 -2.1942  3.1579  2.0779
  207MOL0     H28535   6.837   8.781   7.208  1.1976 -0.9599 -2.1977
  207MOL0     H28536   6.935   8.997   7.162  0.6558  1.9426 -1.4614
  207MOL0     H28537   6.783   9.074   7.106  0.5369  0.0734 -1.9746
  207MOL0     H28538   6.878   8.831   6.944 -3.3753 -0.3522 -2.0621
  207MOL0     H28539   6.776   8.952   6.910  1.2025  1.2571 -1.4122
  207MOL0     H28540   7.068   9.024   6.964 -0.2887  0.8799  0.3891
  207MOL0     H28541   6.947   9.122   6.890  1.8441 -0.0136 -0.6043
  207MOL0     H28542   6.983   9.022   6.674 -0.5367 -2.7793 -0.7235
  207MOL0     H28543   6.974   8.861   6.747 -0.8609 -0.0814  0.8272
  207MOL0     H28544   7.206   8.876   6.689 -1.6396  0.8610 -2.0726
  207MOL0     H28545   7.222   8.923   6.848  0.0751 -1.6259 -0.2887
  207MOL0     H28546   6.762   8.515   7.525  0.2857  0.0172 -0.5994
  207MOL0     H28547   6.636   8.357   7.669  0.7089  1.5324 -0.9190
  207MOL0     H28548   6.250   8.210   7.773 -1.1081  2.0570 -0.0910
  207MOL0     H28549   6.124   8.050   7.874  0.6322 -0.5966 -0.0247
  207MOL0     H28550   5.123   6.422   8.745  1.5577 -0.3703 -1.3745
  207MOL0     H28551   4.898   6.340   8.812  1.7985 -0.7136 -1.6430
  207MOL0     H28552   4.418   6.498   8.990 -0.2696 -0.7123 -0.5862
  207MOL0     H28553   4.203   6.384   9.044 -1.2146 -3.0944 -0.2078
  207MOL0     H28554   4.129   5.991   8.846  1.0124 -0.8594  0.3038
  207MOL0     H28555   3.999   6.036   8.959  1.3875  0.5027  0.8319
  207MOL0     H28556   4.058   6.235   8.740  0.1575  0.2772  1.5786
  207MOL0     H28557   3.924   6.206   8.847  1.8086 -1.4312  3.1497
  207MOL0     H28558   4.020   6.023   8.612  0.2167  0.0986 -0.6364
  207MOL0     H28559   3.897   5.965   8.720 -0.5418 -0.2127 -2.0652
  207MOL0     H28560   3.807   6.064   8.508  2.0614 -2.0722  1.3512
  207MOL0     H28561   3.858   6.226   8.568 -2.1463 -0.0998 -1.7820
  207MOL0     H28562   3.531   6.124   8.838 -1.0226  2.3217 -0.8367
  207MOL0     H28563   4.351   6.033   8.856  1.0025 -1.2329  2.3384
  207MOL0     H28564   4.679   6.133   8.787  0.7678 -3.0302 -1.4651
  207MOL0     H28565   4.552   6.021   8.746  0.8967 -0.6924  0.9013
  207MOL0     H28566   4.583   6.160   8.642  3.4369 -0.5103  0.3632
  208MOL0     O28567   0.957   7.356   7.882  0.2631 -0.4694  1.0959
  208MOL0     C28568   1.026   7.355   7.983 -0.1569 -0.6876 -0.9193
  208MOL0     O28569   0.995   7.409   8.112  0.1988  0.5751  0.1688
  208MOL0     C28570   0.893   7.500   8.117  0.0366  0.3709  0.4051
  208MOL0     C28571   0.766   7.446   8.142  1.1957 -0.5640  0.3128
  208MOL0     C28572   0.654   7.532   8.133 -0.0747 -0.7428 -0.2929
  208MOL0     C28573   0.668   7.670   8.097  0.0585  1.0187  0.8040
  208MOL0     O28574   0.557   7.748   8.084 -0.0842 -0.3657  0.4015
  208MOL0     C28575   0.477   7.725   7.974 -0.2450  0.3388  0.2586
  208MOL0     C28576   0.362   7.635   7.990  0.9976 -0.0913 -0.2289
  208MOL0     C28577   0.263   7.682   8.103  0.3284 -0.7215 -0.2560
  208MOL0     C28578   0.127   7.749   8.051  0.7928 -0.3642  0.3085
  208MOL0     C28579   0.035   7.658   7.977  0.6784  0.2458 -0.7827
  208MOL0     C28580  -0.093   7.737   7.955  0.6788 -0.0856 -1.1053
  208MOL0     C28581  -0.205   7.663   7.881  0.7466 -0.8717 -0.3313
  208MOL0     C28582  -0.325   7.754   7.879  0.2040 -0.1398  0.6407
  208MOL0     N28583  -0.383   7.766   8.015  0.3342 -0.1300 -0.2208
  208MOL0     C28584  -0.410   7.669   8.099 -0.0296 -0.4983 -0.3803
  208MOL0     C28585  -0.431   7.735   8.224  0.1348 -0.0001  0.4776
  208MOL0     C28586  -0.494   7.677   8.345  0.2290 -0.4730 -0.0930
  208MOL0     C28587  -0.391   7.618   8.443 -0.8852 -0.1024  0.9377
  208MOL0     C28588  -0.465   7.587   8.577  0.1649  0.3269 -0.0992
  208MOL0     C28589  -0.362   7.540   8.689  0.3324 -0.0523  0.0660
  208MOL0     O28590  -0.276   7.430   8.647 -0.3197 -0.1518  0.9939
  208MOL0     C28591  -0.176   7.392   8.729 -0.1275  0.0930  0.1936
  208MOL0     C28592  -0.086   7.302   8.678  0.0429  0.6254  0.4343
  208MOL0     C28593   0.017   7.248   8.754  0.0450  0.1642 -0.3588
  208MOL0     C28594   0.115   7.148   8.689  0.7103 -0.2958  0.8105
  208MOL0     C28595   0.028   7.282   8.892 -0.5049 -0.1278 -0.1347
  208MOL0     C28596   0.131   7.240   8.983 -0.0017  0.4776  0.3092
  208MOL0     O28597   0.117   7.285   9.111  0.3902 -0.7958  0.0830
  208MOL0     C28598   0.234   7.320   9.175  0.1690 -0.9529 -0.5541
  208MOL0     C28599   0.214   7.367   9.312  0.2618 -0.0860 -0.3043
  208MOL0     C28600   0.322   7.401   9.395 -0.1344 -0.4939  0.5622
  208MOL0     C28601   0.450   7.395   9.343 -0.5937  0.0203 -0.1309
  208MOL0     O28602   0.548   7.417   9.438 -0.2419 -0.2429 -0.2755
  208MOL0     C28603   0.692   7.432   9.420  1.1700  0.1804  0.7977
  208MOL0     C28604   0.723   7.584   9.419 -0.5152 -0.8219  0.1108
  208MOL0     C28605   0.709   7.629   9.563 -0.7249  0.0152 -0.5929
  208MOL0     C28606   0.736   7.779   9.581 -0.1336 -0.0488  0.0489
  208MOL0     C28607   0.881   7.814   9.551  0.2077 -0.1484 -0.3314
  208MOL0     C28608   0.916   7.964   9.590  0.3115  0.1056 -0.2304
  208MOL0     C28609   1.067   7.988   9.556  0.3912 -0.7860  0.8879
  208MOL0     C28610   1.111   8.141   9.547  0.2757  0.9743 -0.3035
  208MOL0    Cl28611   1.115   8.215   9.713  0.0215 -0.0373  0.3600
  208MOL0     C28612   0.473   7.362   9.202 -0.1321 -1.2458  0.4271
  208MOL0     C28613   0.364   7.333   9.124 -0.2040  0.4613 -0.0732
  208MOL0     O28614   0.225   7.181   8.944 -0.1611  0.4237  0.4288
  208MOL0     C28615  -0.071   7.366   8.947  0.0874 -0.3397  0.2968
  208MOL0     C28616  -0.166   7.423   8.869  0.2621  0.2205  1.4413
  208MOL0     N28617  -0.406   7.868   8.208  0.8339 -1.0952 -0.0135
  208MOL0     N28618  -0.371   7.886   8.080  0.2362 -0.5325  0.7717
  208MOL0     C28619   0.800   7.711   8.057  0.6041 -0.6517 -0.2605
  208MOL0     C28620   0.907   7.632   8.068 -1.2605 -0.1675 -0.9356
  208MOL0     C28621   1.161   7.302   7.992  0.5655 -0.9395  0.8273
  208MOL0     C28622   1.179   7.199   8.085  0.4867 -0.3396  0.5038
  208MOL0     C28623   1.303   7.147   8.104  0.3256 -0.0556 -0.2026
  208MOL0     C28624   1.413   7.205   8.043  0.6695 -0.4266  0.5878
  208MOL0     O28625   1.544   7.152   8.052  0.0236 -0.3319 -0.4543
  208MOL0     C28626   1.556   7.026   8.118 -0.5638 -0.2332  0.6957
  208MOL0     C28627   1.696   6.972   8.122 -0.2950  0.6367  0.5563
  208MOL0     C28628   1.785   7.059   8.208  0.3125  0.0082  0.2633
  208MOL0     C28629   1.929   7.016   8.189  0.1714  0.4989 -0.2262
  208MOL0     C28630   2.006   7.093   8.286 -0.0410 -0.4165  0.1123
  208MOL0     C28631   2.069   7.157   8.370 -0.1355  0.4716 -0.3982
  208MOL0     C28632   1.395   7.309   7.957  0.2309  0.2907  0.2915
  208MOL0     C28633   1.269   7.351   7.918  0.3368  0.3933 -0.7587
  208MOL0     C28634   1.246   7.459   7.809 -0.0561 -0.2523  0.2325
  208MOL0     H28635   0.761   7.339   8.163  0.7615 -0.4600  0.7521
  208MOL0     H28636   0.556   7.507   8.173  0.1054 -0.2202  0.5114
  208MOL0     H28637   0.537   7.693   7.889 -0.9009  1.2346 -0.5567
  208MOL0     H28638   0.447   7.824   7.938  2.2988  1.1927  0.3099
  208MOL0     H28639   0.304   7.635   7.898  1.3295 -3.6738 -0.5707
  208MOL0     H28640   0.406   7.537   8.013 -0.0926 -0.1325  1.9098
  208MOL0     H28641   0.228   7.593   8.156 -2.8062  0.2866 -0.4755
  208MOL0     H28642   0.313   7.743   8.180 -0.3030  0.0019 -0.4065
  208MOL0     H28643   0.068   7.797   8.129  1.4704  0.3034  0.4251
  208MOL0     H28644   0.157   7.831   7.986 -0.0932 -0.6166 -0.4340
  208MOL0     H28645   0.024   7.565   8.033  1.6477  0.2810 -0.5107
  208MOL0     H28646   0.069   7.628   7.877 -1.9776 -2.4265 -1.0137
  208MOL0     H28647  -0.129   7.765   8.054  0.2123  0.0469 -1.3061
  208MOL0     H28648  -0.075   7.829   7.897 -1.4312 -0.1129 -1.9220
  208MOL0     H28649  -0.236   7.569   7.928 -2.1297 -0.8296 -1.8615
  208MOL0     H28650  -0.179   7.634   7.779 -2.6087 -3.0040 -0.7475
  208MOL0     H28651  -0.309   7.849   7.829 -0.5609 -1.1355 -1.6063
  208MOL0     H28652  -0.403   7.701   7.824  1.2473 -0.1900 -0.8247
  208MOL0     H28653  -0.407   7.562   8.080 -1.7493 -1.2850  3.0538
  208MOL0     H28654  -0.571   7.604   8.320  0.4377 -0.7060 -0.0647
  208MOL0     H28655  -0.539   7.762   8.397 -1.5040 -1.5406  0.2220
  208MOL0     H28656  -0.336   7.534   8.400 -0.3030  1.8308 -2.5033
  208MOL0     H28657  -0.315   7.696   8.455 -0.6329 -0.3302  0.8274
  208MOL0     H28658  -0.510   7.679   8.617 -1.2932 -0.2843 -0.3021
  208MOL0     H28659  -0.552   7.523   8.565 -0.3000  1.1890 -1.5358
  208MOL0     H28660  -0.298   7.622   8.724 -1.7277  0.2618  3.4989
  208MOL0     H28661  -0.418   7.510   8.778  2.0234  0.4557  1.3709
  208MOL0     H28662  -0.093   7.271   8.574  0.8076 -0.7187  0.7551
  208MOL0     H28663   0.115   7.059   8.752 -3.6087 -0.3442  1.0366
  208MOL0     H28664   0.217   7.187   8.683  0.6821 -0.3571 -0.4485
  208MOL0     H28665   0.090   7.101   8.593 -1.7694 -0.3762  1.4383
  208MOL0     H28666   0.116   7.375   9.358  0.9531 -0.2248  1.2820
  208MOL0     H28667   0.313   7.422   9.501  0.6537 -2.0629  0.9723
  208MOL0     H28668   0.748   7.373   9.493  1.1985 -2.4986 -1.2743
  208MOL0     H28669   0.723   7.390   9.324 -1.7461  0.6784 -0.4704
  208MOL0     H28670   0.829   7.594   9.393 -0.0593  0.3459  2.1898
  208MOL0     H28671   0.664   7.645   9.351 -0.0050 -3.3356 -2.8316
  208MOL0     H28672   0.787   7.577   9.620 -0.7063 -3.0614 -3.1781
  208MOL0     H28673   0.607   7.605   9.592 -0.7798  1.1811  0.2821
  208MOL0     H28674   0.723   7.812   9.685 -1.8288  3.8079 -1.1827
  208MOL0     H28675   0.668   7.837   9.518 -2.0460 -0.6446  1.4737
  208MOL0     H28676   0.950   7.741   9.595  0.6529  0.1248 -0.5630
  208MOL0     H28677   0.894   7.802   9.443  0.8073 -3.0632 -0.0082
  208MOL0     H28678   0.904   7.968   9.699 -2.6429  1.1470 -0.4834
  208MOL0     H28679   0.846   8.039   9.551  0.1571 -1.1484 -2.5173
  208MOL0     H28680   1.099   7.942   9.462  2.6235 -1.1914  1.7795
  208MOL0     H28681   1.139   7.940   9.623  2.5679 -2.6828 -2.4846
  208MOL0     H28682   1.043   8.194   9.479  1.2137  1.3428 -0.9802
  208MOL0     H28683   1.215   8.146   9.512  1.4123  0.6415  2.7549
  208MOL0     H28684   0.577   7.357   9.171 -0.5419  2.3575 -2.1249
  208MOL0     H28685   0.408   7.303   9.029  1.6176  1.2657  0.4672
  208MOL0     H28686  -0.079   7.385   9.053 -0.1320  1.4231 -0.0002
  208MOL0     H28687  -0.247   7.488   8.901 -1.4218 -0.7553 -0.6674
  208MOL0     H28688   0.806   7.815   8.027 -0.9120  0.0825  1.8141
  208MOL0     H28689   1.009   7.667   8.058 -0.6687 -1.2768  0.7133
  208MOL0     H28690   1.096   7.157   8.141  0.2319  0.0090  0.3942
  208MOL0     H28691   1.304   7.065   8.175  1.5183  1.3400  1.4801
  208MOL0     H28692   1.530   7.023   8.224 -1.1778  1.8302  0.6490
  208MOL0     H28693   1.497   6.950   8.066  0.6460  1.3920 -3.3972
  208MOL0     H28694   1.722   6.956   8.017 -1.2907  0.3151  0.3496
  208MOL0     H28695   1.696   6.874   8.169  1.2834 -0.3208 -1.2994
  208MOL0     H28696   1.766   7.160   8.170  0.1103 -0.1777 -0.1367
  208MOL0     H28697   1.763   7.037   8.313  1.7609 -0.5466  0.4798
  208MOL0     H28698   1.956   7.023   8.083  0.0666 -3.9855 -0.7670
  208MOL0     H28699   1.928   6.908   8.209 -4.4658  0.5038  0.7800
  208MOL0     H28700   2.119   7.200   8.454 -0.3004 -0.7609  0.3464
  208MOL0     H28701   1.482   7.353   7.908  0.8415 -1.7118 -0.5157
  208MOL0     H28702   1.339   7.462   7.751 -0.7032  0.0284 -0.8091
  208MOL0     H28703   1.171   7.430   7.735  1.3568 -0.0720 -1.3271
  208MOL0     H28704   1.218   7.555   7.854  2.3402  1.1023 -0.9809
  209MOL0     O28705   8.779   5.065   1.898  0.7332 -0.1767 -0.8908
  209MOL0     C28706   8.783   4.944   1.936 -0.3384 -0.5382 -0.1040
  209MOL0     O28707   8.680   4.862   1.963  0.5636 -0.8078 -0.5029
  209MOL0     C28708   8.551   4.899   1.951 -0.4751 -0.3733 -0.4592
  209MOL0     C28709   8.507   5.000   1.862 -0.2081 -0.4639 -0.4653
  209MOL0     C28710   8.366   5.021   1.854 -0.6900 -0.0464 -0.2884
  209MOL0     C28711   8.271   4.946   1.924  1.4084  0.4581 -0.3460
  209MOL0     O28712   8.133   4.989   1.918 -0.5564  0.5210 -0.2897
  209MOL0     C28713   8.040   4.880   1.930  0.1080  0.0590 -0.8108
  209MOL0     C28714   7.897   4.925   1.876 -0.0173  0.1876 -0.7577
  209MOL0     C28715   7.907   4.963   1.733  0.0139 -0.5149  0.3143
  209MOL0     C28716   7.931   4.854   1.645  0.1337  0.7681 -0.2922
  209MOL0     C28717   7.898   4.897   1.496 -1.0825 -0.5546 -0.2631
  209MOL0     C28718   7.906   4.780   1.400  0.4551  0.2162  0.3544
  209MOL0     C28719   7.859   4.831   1.260 -0.6074  0.4923  0.2943
  209MOL0     C28720   7.950   4.944   1.209  0.6243  0.0412  0.0182
  209MOL0     N28721   7.925   4.949   1.063  0.3623 -0.2797 -0.6429
  209MOL0     C28722   7.828   5.030   1.002  0.1749 -0.0623 -0.3102
  209MOL0     C28723   7.863   5.021   0.870  0.6955  0.5385  0.6739
  209MOL0     C28724   7.793   5.087   0.760 -0.5129  0.0855 -0.8534
  209MOL0     C28725   7.806   5.025   0.622 -0.3160 -0.2900  0.5711
  209MOL0     C28726   7.767   5.130   0.513 -1.0231  0.4596 -0.0452
  209MOL0     C28727   7.900   5.211   0.469  0.8877 -0.1843  0.2682
  209MOL0     O28728   7.950   5.311   0.564 -0.5592  0.4694 -0.1361
  209MOL0     C28729   7.864   5.417   0.591 -0.4202 -1.4207  0.5877
  209MOL0     C28730   7.785   5.477   0.500 -0.2782 -0.4086  1.0143
  209MOL0     C28731   7.702   5.591   0.533 -1.0650  0.5197 -0.1168
  209MOL0     C28732   7.620   5.651   0.418 -0.1586  0.0789 -1.0639
  209MOL0     C28733   7.702   5.630   0.669 -0.2066 -0.6177  0.8911
  209MOL0     C28734   7.613   5.746   0.717 -0.8090  1.1686  0.4630
  209MOL0     O28735   7.536   5.801   0.626 -0.2159  0.2101  0.1217
  209MOL0     C28736   7.444   5.900   0.653  0.2472  0.8918 -0.3838
  209MOL0     C28737   7.312   5.878   0.613 -0.5022 -0.0026 -0.9262
  209MOL0     C28738   7.206   5.972   0.643  0.7083  0.0057  0.5821
  209MOL0     C28739   7.241   6.097   0.691 -0.3161  0.0658  0.1975
  209MOL0     O28740   7.151   6.204   0.690 -0.6481  0.1655 -0.3541
  209MOL0     C28741   7.179   6.337   0.741 -0.2654 -0.4326  0.3174
  209MOL0     C28742   7.164   6.361   0.892 -0.1167 -0.0042  0.0407
  209MOL0     C28743   7.031   6.305   0.937  0.0068 -0.2312 -0.4172
  209MOL0     C28744   6.951   6.401   1.023  0.1164 -0.4146 -0.2324
  209MOL0     C28745   6.833   6.329   1.090  0.2521 -0.1102 -0.6150
  209MOL0     C28746   6.763   6.436   1.166  0.2666 -0.0547 -0.1753
  209MOL0     C28747   6.648   6.372   1.244  0.3323  0.3569  0.1594
  209MOL0     C28748   6.602   6.484   1.341 -0.4701 -0.3272 -0.0068
  209MOL0    Cl28749   6.463   6.446   1.438 -0.1055  0.1162  0.0294
  209MOL0     C28750   7.375   6.112   0.733 -0.0733  0.0222  0.6095
  209MOL0     C28751   7.472   6.017   0.714  0.2259 -0.1334 -0.7505
  209MOL0     O28752   7.611   5.765   0.842 -0.4727 -0.4927  0.6377
  209MOL0     C28753   7.794   5.572   0.755 -0.2153 -0.3651  0.2024
  209MOL0     C28754   7.872   5.469   0.720 -1.0415 -0.5221 -0.9375
  209MOL0     N28755   7.967   4.932   0.859 -0.0702  0.1876  0.3785
  209MOL0     N28756   8.006   4.893   0.972 -0.1128  0.1251  0.0585
  209MOL0     C28757   8.324   4.845   2.005  0.7366  0.5208  0.3145
  209MOL0     C28758   8.461   4.826   2.024 -0.2046  0.5220  0.0053
  209MOL0     C28759   8.911   4.876   1.946 -0.7132  0.5028  0.1777
  209MOL0     C28760   8.918   4.737   1.914 -0.8936 -0.0681  0.1353
  209MOL0     C28761   9.044   4.671   1.912 -0.0605  0.1911 -0.0788
  209MOL0     C28762   9.165   4.737   1.943  1.2830  1.1047 -0.7125
  209MOL0     O28763   9.276   4.663   1.939 -0.0559  0.4379  0.3577
  209MOL0     C28764   9.363   4.654   1.823  0.2525 -0.0025  0.4000
  209MOL0     C28765   9.464   4.773   1.819 -0.3771 -1.2021 -0.7340
  209MOL0     C28766   9.575   4.757   1.931 -0.1315 -0.4722 -0.0773
  209MOL0     C28767   9.699   4.828   1.907  1.1719  0.1052  0.3288
  209MOL0     C28768   9.690   4.965   1.861 -0.3324 -0.6801 -0.3425
  209MOL0     C28769   9.686   5.088   1.829  0.0306  0.1361  0.1099
  209MOL0     C28770   9.151   4.870   1.975  0.0504 -0.8101  0.2623
  209MOL0     C28771   9.035   4.943   1.980  0.5036  0.1588  0.6532
  209MOL0     C28772   9.043   5.091   2.016 -0.6459 -0.9431 -0.0713
  209MOL0     H28773   8.567   5.053   1.790  0.2680 -0.6498 -0.2105
  209MOL0     H28774   8.321   5.083   1.777 -3.0977 -0.8629  0.3891
  209MOL0     H28775   8.028   4.844   2.033 -1.8427 -0.3504 -1.1426
  209MOL0     H28776   8.076   4.789   1.882  0.9397  0.0460 -0.1917
  209MOL0     H28777   7.828   4.843   1.896  2.2379 -1.5882  0.2944
  209MOL0     H28778   7.856   5.016   1.920  1.4299  0.0381  1.0179
  209MOL0     H28779   7.817   5.017   1.703  0.7448  0.9379  0.6573
  209MOL0     H28780   7.985   5.038   1.720 -0.8251  0.9586  2.9741
  209MOL0     H28781   8.034   4.821   1.654 -0.0063 -0.0404 -1.3854
  209MOL0     H28782   7.871   4.766   1.669 -0.8976  1.2493 -0.9863
  209MOL0     H28783   7.974   4.971   1.469  0.3716 -0.7338  2.9027
  209MOL0     H28784   7.796   4.936   1.506 -1.5500 -1.1525 -2.1633
  209MOL0     H28785   8.012   4.755   1.383  0.2372 -0.5689  0.1320
  209MOL0     H28786   7.838   4.699   1.426 -0.5125  1.3656  1.4831
  209MOL0     H28787   7.760   4.869   1.234  0.5744  1.3934 -3.5494
  209MOL0     H28788   7.872   4.741   1.200 -4.3497 -1.2673  1.8358
  209MOL0     H28789   7.935   5.043   1.252  1.8233  0.5989 -0.7747
  209MOL0     H28790   8.050   4.916   1.243  0.0131  1.3053  3.1978
  209MOL0     H28791   7.746   5.092   1.036 -0.7706  0.0593 -2.6645
  209MOL0     H28792   7.834   5.189   0.760  1.4523 -0.6100  1.1083
  209MOL0     H28793   7.686   5.078   0.779 -0.0793 -1.2240  1.2625
  209MOL0     H28794   7.906   4.983   0.608 -1.2218 -3.2000  2.2037
  209MOL0     H28795   7.727   4.951   0.610 -1.0675  0.3667  1.3070
  209MOL0     H28796   7.742   5.082   0.418  1.3290 -2.0404  0.4768
  209MOL0     H28797   7.684   5.196   0.539  0.6889  2.9071 -0.4386
  209MOL0     H28798   7.985   5.143   0.458  1.7363  0.8655  0.1229
  209MOL0     H28799   7.875   5.250   0.371 -0.2798  2.5423  1.5480
  209MOL0     H28800   7.775   5.447   0.396  1.8746  0.8132  0.3771
  209MOL0     H28801   7.648   5.611   0.320 -1.5775 -4.8205  0.2587
  209MOL0     H28802   7.642   5.758   0.416  1.3529  0.0018  2.9378
  209MOL0     H28803   7.515   5.631   0.442 -0.3006 -0.5115 -2.0969
  209MOL0     H28804   7.297   5.786   0.558  4.1259 -0.9215 -1.0250
  209MOL0     H28805   7.103   5.947   0.619  1.4191 -1.8341 -0.8134
  209MOL0     H28806   7.279   6.370   0.710 -1.1305  1.4604 -0.6072
  209MOL0     H28807   7.117   6.397   0.675 -1.0795 -1.5256  0.0608
  209MOL0     H28808   7.245   6.319   0.952 -0.3466  0.7573  0.9189
  209MOL0     H28809   7.178   6.468   0.913  1.8355  0.1050 -1.4959
  209MOL0     H28810   7.047   6.214   0.995  1.2303  1.2742  1.7602
  209MOL0     H28811   6.971   6.272   0.852  4.2843 -2.3380 -2.9917
  209MOL0     H28812   6.911   6.491   0.975 -3.2892 -0.9437  1.3337
  209MOL0     H28813   7.019   6.443   1.098 -1.0250 -1.4535  1.4358
  209MOL0     H28814   6.767   6.281   1.017 -1.0728  0.2784  0.2834
  209MOL0     H28815   6.872   6.247   1.152 -1.0328  0.7696  1.4887
  209MOL0     H28816   6.730   6.526   1.114 -0.9111 -1.1512 -1.4109
  209MOL0     H28817   6.830   6.480   1.241  0.6802  2.1304 -1.7437
  209MOL0     H28818   6.670   6.284   1.305 -2.6268 -0.6340 -0.0698
  209MOL0     H28819   6.575   6.351   1.165 -1.2778  5.1532  0.0869
  209MOL0     H28820   6.586   6.576   1.285  0.5775 -0.4777 -0.5770
  209MOL0     H28821   6.681   6.509   1.413 -0.6337  3.0645 -0.8654
  209MOL0     H28822   7.414   6.206   0.772 -1.3637 -0.2721  2.7142
  209MOL0     H28823   7.567   6.036   0.764 -0.4600  3.7305 -0.5900
  209MOL0     H28824   7.794   5.607   0.858 -1.6416 -0.3601  0.2180
  209MOL0     H28825   7.941   5.413   0.783  0.0959  0.0970 -1.5951
  209MOL0     H28826   8.260   4.772   2.054  0.8516 -0.0556 -0.3738
  209MOL0     H28827   8.482   4.736   2.082  1.6159  0.4772 -0.6322
  209MOL0     H28828   8.833   4.686   1.868 -2.8430  3.5350 -0.6088
  209MOL0     H28829   9.053   4.567   1.884 -1.1095 -0.0062  0.2863
  209MOL0     H28830   9.416   4.559   1.820 -1.6870 -1.1703  1.3057
  209MOL0     H28831   9.299   4.650   1.735  1.4970 -0.1185 -0.5137
  209MOL0     H28832   9.428   4.876   1.821 -0.2480 -1.1665  0.0084
  209MOL0     H28833   9.525   4.761   1.729  0.9149 -2.1519  0.2143
  209MOL0     H28834   9.534   4.800   2.023  0.0117 -0.4790 -0.0113
  209MOL0     H28835   9.595   4.651   1.948  3.7576  0.0979 -0.1929
  209MOL0     H28836   9.746   4.767   1.829 -2.2454 -0.7139 -1.2956
  209MOL0     H28837   9.764   4.826   1.996  1.7033  0.5968 -0.0420
  209MOL0     H28838   9.690   5.194   1.811  0.7688  0.1027  0.0319
  209MOL0     H28839   9.245   4.921   1.997 -0.2401  0.1683 -0.6615
  209MOL0     H28840   9.136   5.116   2.068  0.5403 -2.4983 -1.2912
  209MOL0     H28841   9.024   5.148   1.925  4.8695 -0.7672 -1.4852
  209MOL0     H28842   8.966   5.122   2.087 -0.0614 -0.3833  0.3229
  210MOL0     O28843   0.539   9.654   5.889  0.3260 -0.1569  1.0052
  210MOL0     C28844   0.524   9.746   5.965 -0.6903  1.0163 -0.9367
  210MOL0     O28845   0.627   9.825   5.999 -0.0071  0.2552 -0.2095
  210MOL0     C28846   0.764   9.797   5.999 -0.1595 -0.3764 -0.0895
  210MOL0     C28847   0.837   9.712   5.908  0.3271 -0.3685  0.3144
  210MOL0     C28848   0.975   9.679   5.932 -0.2994  0.7083  0.1376
  210MOL0     C28849   1.048   9.736   6.032  0.1401  0.0049 -0.5215
  210MOL0     O28850   1.185   9.724   6.055  0.3463 -0.1509 -0.0513
  210MOL0     C28851   1.248   9.602   6.022 -0.0911 -0.3084 -0.3564
  210MOL0     C28852   1.395   9.625   6.063 -0.5129  0.6989 -0.9888
  210MOL0     C28853   1.478   9.506   6.029 -1.1927 -0.5189  0.7217
  210MOL0     C28854   1.623   9.532   6.086  0.3265 -0.1700 -0.0865
  210MOL0     C28855   1.711   9.412   6.079  0.1838  0.5318  0.3685
  210MOL0     C28856   1.827   9.436   6.178  0.8233  1.3896  1.1164
  210MOL0     C28857   1.920   9.316   6.185  1.4323 -0.1344  0.4994
  210MOL0     C28858   2.005   9.319   6.315  0.7488 -0.4859 -0.1368
  210MOL0     N28859   2.084   9.194   6.321 -1.0078  0.0646  0.2702
  210MOL0     C28860   2.204   9.177   6.266  0.0658  0.4376  0.0160
  210MOL0     C28861   2.250   9.050   6.284 -0.1803  0.4421  0.4271
  210MOL0     C28862   2.374   8.973   6.224  0.1567 -0.4222 -0.1937
  210MOL0     C28863   2.432   8.865   6.323  0.0317 -0.0484 -0.6170
  210MOL0     C28864   2.551   8.799   6.247 -0.3819 -0.0460 -0.1220
  210MOL0     C28865   2.683   8.884   6.261 -0.3957  0.6196  0.0892
  210MOL0     O28866   2.689   8.985   6.159 -0.3083  0.1462  0.4742
  210MOL0     C28867   2.797   9.066   6.149 -0.7463  0.1744 -0.5231
  210MOL0     C28868   2.928   9.043   6.205  0.6877 -0.2355 -0.1755
  210MOL0     C28869   3.033   9.134   6.188  0.2209  0.8595  0.2186
  210MOL0     C28870   3.162   9.082   6.260  0.2992  0.2410  0.7636
  210MOL0     C28871   3.018   9.250   6.106 -0.0100  0.8476 -0.4186
  210MOL0     C28872   3.130   9.356   6.087 -0.3380  0.1718 -0.2753
  210MOL0     O28873   3.239   9.350   6.178 -0.6032  0.7449 -0.3694
  210MOL0     C28874   3.343   9.437   6.161  0.4436 -0.1790 -0.4520
  210MOL0     C28875   3.465   9.401   6.094 -0.2776 -0.6565  0.2820
  210MOL0     C28876   3.574   9.492   6.096 -0.8504  0.1853 -0.7907
  210MOL0     C28877   3.560   9.619   6.151  0.4116 -0.2906  0.1304
  210MOL0     O28878   3.658   9.719   6.155  0.1336 -0.5094  0.4178
  210MOL0     C28879   3.714   9.736   6.285 -0.4887  0.0018  0.3938
  210MOL0     C28880   3.870   9.710   6.276  0.4310  0.1380  0.5115
  210MOL0     C28881   3.949   9.789   6.385  0.4553  0.5859  0.5786
  210MOL0     C28882   3.943   9.740   6.531  1.3043 -0.3898 -0.4888
  210MOL0     C28883   4.049   9.808   6.616  0.6122 -0.1521 -0.4453
  210MOL0     C28884   4.046   9.740   6.754 -0.3565  0.0961  0.1607
  210MOL0     C28885   3.907   9.740   6.824 -0.0535 -0.6964  0.5709
  210MOL0     C28886   3.833   9.868   6.835  0.2109 -0.8110  0.0916
  210MOL0    Cl28887   3.932   9.997   6.899 -0.1582 -0.1210  0.5597
  210MOL0     C28888   3.438   9.661   6.217  0.6163  0.4195 -0.1007
  210MOL0     C28889   3.335   9.567   6.217 -0.2501 -0.3975 -0.4165
  210MOL0     O28890   3.117   9.432   5.994 -0.1595 -0.0406 -0.4082
  210MOL0     C28891   2.885   9.287   6.064  0.1623 -0.6109  0.2608
  210MOL0     C28892   2.784   9.187   6.077 -0.1060 -0.2284 -0.5929
  210MOL0     N28893   2.137   8.991   6.347  0.1095  1.2303 -0.2130
  210MOL0     N28894   2.042   9.081   6.378 -0.5521  0.0654  0.3136
  210MOL0     C28895   0.982   9.834   6.111  0.6087 -0.1534  0.4347
  210MOL0     C28896   0.840   9.861   6.100  0.0013  0.3730 -0.0646
  210MOL0     C28897   0.401   9.776   6.033  0.2264 -0.2504 -0.1773
  210MOL0     C28898   0.410   9.831   6.161 -0.4039 -0.1052  0.1664
  210MOL0     C28899   0.297   9.865   6.234  0.6680  0.1611  0.1843
  210MOL0     C28900   0.173   9.826   6.185 -0.6863 -0.6543  1.1934
  210MOL0     O28901   0.070   9.867   6.264  0.3174 -0.1838  0.1360
  210MOL0     C28902  -0.063   9.821   6.227  0.3626  0.1564 -0.8353
  210MOL0     C28903  -0.172   9.897   6.302 -0.4010  0.7844 -0.0654
  210MOL0     C28904  -0.304   9.813   6.319  0.5541 -0.3594  0.0420
  210MOL0     C28905  -0.386   9.893   6.422  0.5546 -0.5779  0.7223
  210MOL0     C28906  -0.433  10.025   6.376  0.5059 -0.6052  0.3730
  210MOL0     C28907  -0.472  10.134   6.339 -0.5792 -0.1729 -0.3999
  210MOL0     C28908   0.162   9.774   6.059  0.4499 -0.7755  0.2836
  210MOL0     C28909   0.271   9.745   5.982 -0.0725  0.6510  0.8419
  210MOL0     C28910   0.238   9.686   5.844 -0.4964  0.2141 -0.0823
  210MOL0     H28911   0.780   9.665   5.829  0.5531  0.5615 -0.4235
  210MOL0     H28912   1.022   9.610   5.862 -3.0201 -1.0660 -0.0940
  210MOL0     H28913   1.239   9.591   5.914 -3.8468  1.1989 -0.3610
  210MOL0     H28914   1.203   9.522   6.082 -0.9645  0.2939 -0.1755
  210MOL0     H28915   1.427   9.721   6.022  2.9200  1.1793  2.3406
  210MOL0     H28916   1.391   9.640   6.171 -2.3097 -0.1679 -0.8952
  210MOL0     H28917   1.446   9.408   6.065  1.7323 -1.1003  2.0847
  210MOL0     H28918   1.479   9.497   5.920 -2.0317  2.5126  0.3621
  210MOL0     H28919   1.686   9.607   6.038 -0.2228  1.8494  2.1609
  210MOL0     H28920   1.612   9.564   6.190  0.0940 -2.1753  0.5492
  210MOL0     H28921   1.756   9.390   5.982 -1.8154 -2.1117 -0.0588
  210MOL0     H28922   1.663   9.318   6.107  3.5162 -0.4633  3.5559
  210MOL0     H28923   1.876   9.526   6.139 -1.4189  1.4342 -1.9514
  210MOL0     H28924   1.772   9.447   6.272 -0.8754 -3.0898  0.8737
  210MOL0     H28925   1.992   9.325   6.103  1.6744  1.1270  0.8268
  210MOL0     H28926   1.855   9.229   6.169 -2.5098  2.9076 -2.1577
  210MOL0     H28927   2.073   9.404   6.308 -1.1635  1.0858 -0.7968
  210MOL0     H28928   1.946   9.326   6.407  0.6030 -3.2096  0.0591
  210MOL0     H28929   2.268   9.252   6.219  3.9728 -1.0274  2.5003
  210MOL0     H28930   2.442   9.057   6.206 -2.1956  2.2885  2.4770
  210MOL0     H28931   2.350   8.935   6.125 -1.8606  0.4076 -0.0568
  210MOL0     H28932   2.475   8.916   6.409  2.1531 -0.4544 -1.3697
  210MOL0     H28933   2.354   8.796   6.355 -0.7293  1.5757  1.2200
  210MOL0     H28934   2.547   8.699   6.291 -0.4763  0.5974  1.4029
  210MOL0     H28935   2.517   8.792   6.144 -1.4203 -2.2115  0.2985
  210MOL0     H28936   2.688   8.927   6.362 -1.6159 -0.5335  0.6705
  210MOL0     H28937   2.770   8.818   6.256 -0.3207  0.6416  1.0013
  210MOL0     H28938   2.948   8.949   6.256 -0.8472  0.3326  1.6263
  210MOL0     H28939   3.164   8.973   6.271  0.0684 -0.0364 -1.4166
  210MOL0     H28940   3.182   9.130   6.356  2.5378  0.9360  0.0302
  210MOL0     H28941   3.250   9.088   6.194  0.6574  0.3943  1.2496
  210MOL0     H28942   3.499   9.300   6.074  2.2160 -0.0263  0.9863
  210MOL0     H28943   3.666   9.446   6.059 -0.1766 -2.2060  3.2613
  210MOL0     H28944   3.712   9.843   6.306  1.6802  0.6562 -2.1563
  210MOL0     H28945   3.657   9.690   6.366 -1.9035 -0.9966 -1.0981
  210MOL0     H28946   3.878   9.602   6.287 -1.5056  0.1223  2.2666
  210MOL0     H28947   3.908   9.730   6.175  0.4417 -3.1833 -0.2485
  210MOL0     H28948   3.914   9.892   6.374 -0.1032  0.3398 -0.0489
  210MOL0     H28949   4.053   9.776   6.351 -0.0090 -0.1312 -0.6304
  210MOL0     H28950   3.955   9.632   6.540  3.7982  0.0284  3.6677
  210MOL0     H28951   3.842   9.762   6.566  0.6582 -3.0557 -0.4674
  210MOL0     H28952   4.145   9.798   6.565  0.8786 -0.0813  0.0401
  210MOL0     H28953   4.035   9.916   6.629 -0.5039 -0.2313 -0.8607
  210MOL0     H28954   4.117   9.791   6.820  0.1226 -0.3172 -0.0325
  210MOL0     H28955   4.075   9.636   6.739 -1.7112 -0.0822 -1.4813
  210MOL0     H28956   3.918   9.721   6.931 -2.8779 -0.0119  1.0539
  210MOL0     H28957   3.842   9.669   6.772 -1.2053  1.3448 -0.8985
  210MOL0     H28958   3.741   9.862   6.893  1.7394 -0.6461  2.7026
  210MOL0     H28959   3.813   9.898   6.732  1.2259  1.5742  0.5015
  210MOL0     H28960   3.437   9.750   6.279  0.9846  0.4276 -0.1049
  210MOL0     H28961   3.245   9.576   6.277  0.3564  0.9409  0.3362
  210MOL0     H28962   2.870   9.378   6.006  1.2050 -0.9960 -0.6635
  210MOL0     H28963   2.686   9.214   6.039 -0.3249  0.9314  0.6757
  210MOL0     H28964   1.052   9.880   6.180  1.6776  0.0083 -0.7099
  210MOL0     H28965   0.789   9.939   6.156 -0.1465  0.5460 -0.4378
  210MOL0     H28966   0.506   9.853   6.206  0.0506  0.2122 -0.9248
  210MOL0     H28967   0.297   9.916   6.330 -2.6477 -0.9503  0.8890
  210MOL0     H28968  -0.086   9.838   6.122  1.4806 -2.2946 -1.5472
  210MOL0     H28969  -0.076   9.714   6.248  1.7910  0.1239 -0.0259
  210MOL0     H28970  -0.185   9.998   6.261 -2.0475 -0.6499 -3.5390
  210MOL0     H28971  -0.128   9.920   6.399  0.6509  0.6130 -0.4886
  210MOL0     H28972  -0.353   9.807   6.222 -1.7652  1.3614  0.9973
  210MOL0     H28973  -0.280   9.711   6.351 -0.0732 -1.3678 -2.4535
  210MOL0     H28974  -0.335   9.927   6.513  0.7236  2.6512 -0.4396
  210MOL0     H28975  -0.473   9.832   6.450 -0.0845  1.6379  4.2436
  210MOL0     H28976  -0.500  10.227   6.294 -0.0051  0.0459 -0.3131
  210MOL0     H28977   0.073   9.759   5.999 -0.0871  0.8169  0.6257
  210MOL0     H28978   0.312   9.695   5.764 -0.3979 -0.9291 -0.1316
  210MOL0     H28979   0.234   9.577   5.852 -2.2014  0.1369 -1.5300
  210MOL0     H28980   0.139   9.719   5.814  0.3129  1.0126 -2.0120
  211MOL0     O28981  10.309   9.821   0.040  0.2220 -0.3749  0.3347
  211MOL0     C28982  10.373   9.826  -0.062 -0.2527  0.0802  0.0327
  211MOL0     O28983  10.489   9.899  -0.086  0.0464  0.7479 -0.1702
  211MOL0     C28984  10.556   9.956   0.019 -0.2919 -0.8692  0.4918
  211MOL0     C28985  10.630   9.878   0.114 -0.4106  0.6814  0.1675
  211MOL0     C28986  10.709   9.942   0.207 -0.4181 -0.9180  0.8508
  211MOL0     C28987  10.709  10.093   0.205 -0.4429 -0.5544  0.2017
  211MOL0     O28988  10.787  10.178   0.276 -0.3847  0.0075 -0.7265
  211MOL0     C28989  10.855  10.131   0.389 -0.1445  0.0966 -0.5098
  211MOL0     C28990  10.997  10.122   0.359 -0.3079 -0.3088  0.2164
  211MOL0     C28991  11.061  10.256   0.315  0.4047 -0.1123 -1.0279
  211MOL0     C28992  11.212  10.224   0.293 -0.6734  0.1880 -0.3387
  211MOL0     C28993  11.278  10.336   0.215 -0.0326  0.6390 -0.3775
  211MOL0     C28994  11.430  10.333   0.230  0.4109 -0.0697 -0.7137
  211MOL0     C28995  11.496  10.389   0.103 -0.3357  0.3175  0.5595
  211MOL0     C28996  11.528  10.536   0.105  0.1926  0.4278  0.8661
  211MOL0     N28997  11.404  10.610   0.113  0.3966 -0.7343 -0.3331
  211MOL0     C28998  11.313  10.636   0.007 -0.2895 -0.0574  0.2472
  211MOL0     C28999  11.213  10.707   0.074  0.2707 -0.4346  0.0932
  211MOL0     C29000  11.091  10.761   0.020  0.9224  0.1271  0.3783
  211MOL0     C29001  10.959  10.740   0.109  1.1470  0.6825 -0.1733
  211MOL0     C29002  10.934  10.589   0.142 -0.1090 -0.4763 -0.5164
  211MOL0     C29003  10.879  10.520   0.016  0.2767 -0.7431  0.1881
  211MOL0     O29004  10.994  10.489  -0.070  0.3925 -1.0489 -0.7320
  211MOL0     C29005  10.974  10.393  -0.165  0.2049 -0.9926  0.5550
  211MOL0     C29006  10.853  10.329  -0.184  0.7965  0.7684 -1.0034
  211MOL0     C29007  10.840  10.226  -0.278 -0.5605 -0.2335 -0.1861
  211MOL0     C29008  10.700  10.174  -0.297  0.3316  0.7327 -0.4985
  211MOL0     C29009  10.955  10.176  -0.340  0.6410 -0.7525 -0.4644
  211MOL0     C29010  10.962  10.055  -0.420 -0.4189 -0.3809 -0.3672
  211MOL0     O29011  11.074  10.031  -0.497 -0.1038 -0.1046 -0.6739
  211MOL0     C29012  11.090   9.904  -0.559 -0.7831  0.6545  0.0178
  211MOL0     C29013  11.177   9.812  -0.505  0.0088 -0.0815 -0.5281
  211MOL0     C29014  11.178   9.681  -0.557  0.2391  0.9184  0.9537
  211MOL0     C29015  11.101   9.644  -0.664  0.8730 -0.8379  1.5335
  211MOL0     O29016  11.117   9.526  -0.730  0.4655 -0.0721 -0.5131
  211MOL0     C29017  11.033   9.424  -0.676  0.4416  0.0365  0.0490
  211MOL0     C29018  11.099   9.283  -0.690  0.0514 -0.7887 -0.4643
  211MOL0     C29019  11.154   9.250  -0.832 -0.3077  0.2988 -0.2277
  211MOL0     C29020  11.036   9.216  -0.934 -0.6296  0.3886 -0.3926
  211MOL0     C29021  11.095   9.182  -1.077 -0.2341 -0.5948  0.3363
  211MOL0     C29022  10.985   9.149  -1.178  0.1882 -0.0308 -0.4379
  211MOL0     C29023  11.050   9.085  -1.294 -0.3011  0.0607  0.4525
  211MOL0     C29024  10.986   9.122  -1.421 -0.2250 -0.4118  0.1832
  211MOL0    Cl29025  11.039   9.281  -1.485  0.4392  0.1284  0.4303
  211MOL0     C29026  11.017   9.743  -0.723 -1.7125  0.2669  0.2814
  211MOL0     C29027  11.009   9.870  -0.668  0.2953 -0.8216  0.5156
  211MOL0     O29028  10.872   9.972  -0.404 -0.2269 -0.2333  0.1302
  211MOL0     C29029  11.080  10.238  -0.315 -0.4665  0.7823  0.4548
  211MOL0     C29030  11.090  10.349  -0.236  0.5422  1.0289 -0.1048
  211MOL0     N29031  11.249  10.733   0.206  0.0371  0.0600  0.2159
  211MOL0     N29032  11.362  10.672   0.222 -0.7367  0.0960  0.4485
  211MOL0     C29033  10.620  10.162   0.127 -0.0077 -0.1179 -0.6566
  211MOL0     C29034  10.549  10.097   0.026  0.4884  0.5164 -0.0280
  211MOL0     C29035  10.316   9.752  -0.173  0.5098  0.8337  0.4314
  211MOL0     C29036  10.269   9.622  -0.158 -0.0316  0.1583 -0.1210
  211MOL0     C29037  10.216   9.556  -0.270  0.3578  0.9438 -0.4596
  211MOL0     C29038  10.228   9.609  -0.397  0.3690 -0.1552  0.0729
  211MOL0     O29039  10.212   9.539  -0.512  0.0513  0.3675 -0.0090
  211MOL0     C29040  10.151   9.410  -0.500 -0.3465 -0.1347  0.1525
  211MOL0     C29041  10.147   9.324  -0.631 -0.1104 -0.0669  0.7757
  211MOL0     C29042  10.268   9.346  -0.723 -0.3730  0.1382  0.3622
  211MOL0     C29043  10.293   9.231  -0.820 -0.7621 -0.6049 -0.1727
  211MOL0     C29044  10.413   9.261  -0.898  0.0930  0.5495  0.7323
  211MOL0     C29045  10.523   9.269  -0.955 -0.2218 -0.6005 -0.1615
  211MOL0     C29046  10.273   9.742  -0.417  0.0820  0.2253 -0.5225
  211MOL0     C29047  10.314   9.817  -0.305  0.5324 -0.4511  0.2425
  211MOL0     C29048  10.353   9.965  -0.337  0.2948  0.1434  0.1366
  211MOL0     H29049  10.629   9.771   0.095  0.5848  0.6918  0.0168
  211MOL0     H29050  10.772   9.876   0.267 -0.1387 -1.8897 -0.4699
  211MOL0     H29051  10.818  10.036   0.428  1.6790 -0.5708 -0.3029
  211MOL0     H29052  10.828  10.198   0.472  0.9632 -3.1168  2.7366
  211MOL0     H29053  11.063  10.072   0.431  0.3637 -0.1931 -0.3079
  211MOL0     H29054  11.005  10.053   0.275 -2.6081  0.9643 -1.1692
  211MOL0     H29055  11.013  10.297   0.225 -1.0601 -0.7145 -0.5542
  211MOL0     H29056  11.046  10.332   0.393 -1.8152 -3.1256  1.7182
  211MOL0     H29057  11.250  10.213   0.395 -1.1154  2.4449  0.1182
  211MOL0     H29058  11.227  10.128   0.242  2.0307  0.9456 -1.1712
  211MOL0     H29059  11.240  10.436   0.237 -0.8902  1.0271 -3.2435
  211MOL0     H29060  11.243  10.340   0.112 -3.4583  0.8908  0.6687
  211MOL0     H29061  11.458  10.393   0.317  2.3713  0.9659 -1.9722
  211MOL0     H29062  11.465  10.233   0.255  0.8683  0.4196  0.6703
  211MOL0     H29063  11.432  10.362   0.018  0.8903 -2.0093  0.2786
  211MOL0     H29064  11.592  10.339   0.088 -0.9041  0.1211 -3.6851
  211MOL0     H29065  11.584  10.568   0.193 -1.7945  2.1712  1.5952
  211MOL0     H29066  11.592  10.566   0.021 -2.8284  2.8003 -0.8069
  211MOL0     H29067  11.329  10.613  -0.098 -1.8480 -0.3849  0.0463
  211MOL0     H29068  11.067  10.710  -0.073 -0.4407  0.8129  0.3287
  211MOL0     H29069  11.109  10.868   0.006 -0.8508  0.1891 -1.9144
  211MOL0     H29070  10.973  10.789   0.206 -4.1924  1.1609  0.6412
  211MOL0     H29071  10.873  10.788   0.061  0.3880 -0.4993 -0.0318
  211MOL0     H29072  11.023  10.538   0.180 -0.7107 -0.3885  1.1066
  211MOL0     H29073  10.867  10.587   0.229  1.9780  0.8892  1.2400
  211MOL0     H29074  10.819  10.441   0.062  2.7206 -1.1914  2.9218
  211MOL0     H29075  10.820  10.595  -0.037  1.4396  1.4651  1.8331
  211MOL0     H29076  10.758  10.353  -0.138 -0.0664 -2.1571 -1.0759
  211MOL0     H29077  10.684  10.135  -0.398  0.3336  0.4424 -0.3876
  211MOL0     H29078  10.623  10.250  -0.281  0.5656  0.9723 -0.4946
  211MOL0     H29079  10.681  10.091  -0.228 -1.4193 -0.1536 -1.9366
  211MOL0     H29080  11.239   9.844  -0.422 -2.8966  4.9128  0.1122
  211MOL0     H29081  11.246   9.614  -0.506  1.0502 -0.5744 -1.8439
  211MOL0     H29082  11.011   9.451  -0.573  2.3059  0.5582  0.3510
  211MOL0     H29083  10.931   9.424  -0.715 -1.2457 -0.3650  4.0509
  211MOL0     H29084  11.189   9.281  -0.628 -0.4212 -1.1090  0.2207
  211MOL0     H29085  11.035   9.208  -0.644 -0.4454 -0.9223 -1.3484
  211MOL0     H29086  11.226   9.168  -0.820 -0.7594 -0.1414 -0.4738
  211MOL0     H29087  11.217   9.331  -0.870 -1.8114  1.2885 -0.6774
  211MOL0     H29088  10.961   9.295  -0.939 -2.8222 -1.6157 -1.0858
  211MOL0     H29089  10.973   9.132  -0.904 -0.4460  0.0162 -1.0275
  211MOL0     H29090  11.154   9.268  -1.109  1.0116 -1.3649  0.5019
  211MOL0     H29091  11.169   9.102  -1.073 -0.7951 -1.2039 -0.9771
  211MOL0     H29092  10.926   9.239  -1.198  0.9552  1.1673  2.1599
  211MOL0     H29093  10.911   9.084  -1.129 -1.0689  0.7909 -1.1898
  211MOL0     H29094  11.048   8.976  -1.286  3.3600 -0.0168  1.9816
  211MOL0     H29095  11.157   9.102  -1.305  0.4275 -4.3308 -1.8991
  211MOL0     H29096  10.878   9.116  -1.408 -0.6801  0.4021 -2.5821
  211MOL0     H29097  11.016   9.048  -1.496 -0.2379  1.6575 -1.9757
  211MOL0     H29098  10.950   9.716  -0.804  1.7220 -1.3561 -2.2476
  211MOL0     H29099  10.940   9.937  -0.718  1.7434 -1.1635 -2.1198
  211MOL0     H29100  11.172  10.197  -0.355 -0.0241 -0.2892  2.4460
  211MOL0     H29101  11.185  10.389  -0.204  0.9121 -0.9148  1.4859
  211MOL0     H29102  10.615  10.269   0.143  0.4306  0.1303 -2.0304
  211MOL0     H29103  10.492  10.157  -0.044  1.1028 -1.7717 -2.6881
  211MOL0     H29104  10.271   9.582  -0.057 -0.0223  1.2105  0.3100
  211MOL0     H29105  10.170   9.459  -0.255  2.2958  0.2638  1.6287
  211MOL0     H29106  10.203   9.340  -0.434  1.1834  0.7042 -0.1363
  211MOL0     H29107  10.053   9.422  -0.453 -1.0066  1.7634 -1.5478
  211MOL0     H29108  10.063   9.342  -0.699  0.7714 -0.8262 -0.5856
  211MOL0     H29109  10.139   9.217  -0.611 -4.6505  0.3020  1.9735
  211MOL0     H29110  10.255   9.440  -0.776  1.4094 -0.2883 -0.8912
  211MOL0     H29111  10.357   9.364  -0.662  1.2276 -1.9036 -1.2263
  211MOL0     H29112  10.211   9.209  -0.889 -1.2483  0.0866  0.1786
  211MOL0     H29113  10.309   9.140  -0.760 -0.1347 -1.9070 -2.1967
  211MOL0     H29114  10.609   9.276  -1.020  1.5790  0.8987  2.2066
  211MOL0     H29115  10.283   9.784  -0.517  2.0677  0.3313 -0.3209
  211MOL0     H29116  10.290  10.001  -0.419 -0.6542  0.3845  0.9497
  211MOL0     H29117  10.349  10.033  -0.252 -2.2321  0.8947 -0.4864
  211MOL0     H29118  10.456   9.968  -0.374 -1.2271  0.2346 -4.9534
  212MOL0     O29119   1.270   3.588   6.540 -0.1177  0.3717 -0.4447
  212MOL0     C29120   1.205   3.674   6.590  0.6585  0.9901  0.3151
  212MOL0     O29121   1.221   3.728   6.712 -0.2315 -0.3887  0.0138
  212MOL0     C29122   1.330   3.679   6.776  0.8606 -0.3465  0.0921
  212MOL0     C29123   1.455   3.737   6.774  0.4368 -0.4006 -0.3525
  212MOL0     C29124   1.566   3.699   6.857 -0.4016  0.1003  0.9934
  212MOL0     C29125   1.540   3.596   6.952  0.0255 -0.7079  0.1654
  212MOL0     O29126   1.631   3.565   7.050  0.6034  0.8827 -0.9560
  212MOL0     C29127   1.767   3.613   7.048  0.9093 -0.0292 -0.0152
  212MOL0     C29128   1.846   3.567   7.174 -0.0552  0.0188  0.3214
  212MOL0     C29129   1.978   3.634   7.201 -0.4276 -0.6790 -0.4829
  212MOL0     C29130   1.965   3.778   7.261 -0.5859  0.4259  0.3570
  212MOL0     C29131   2.109   3.839   7.267  1.3258  0.9161  0.0198
  212MOL0     C29132   2.118   3.971   7.339 -0.6580  0.0411 -1.0652
  212MOL0     C29133   2.261   4.036   7.343 -0.3160  0.2048  0.5994
  212MOL0     C29134   2.269   4.165   7.419  0.2116 -1.0713  0.9721
  212MOL0     N29135   2.191   4.154   7.544  0.0478  0.0689  0.3134
  212MOL0     C29136   2.078   4.230   7.581  0.3710  0.4099 -0.0399
  212MOL0     C29137   2.050   4.180   7.711  0.4780 -0.5832  0.0023
  212MOL0     C29138   1.955   4.246   7.813 -0.0486 -1.0401  0.2977
  212MOL0     C29139   1.900   4.134   7.910 -0.8386  0.5489  0.0516
  212MOL0     C29140   1.990   4.110   8.030 -1.0099  0.1801 -1.0274
  212MOL0     C29141   1.983   4.223   8.142 -0.1537 -0.9662  0.7992
  212MOL0     O29142   2.091   4.216   8.234 -0.1942 -0.2221  0.9432
  212MOL0     C29143   2.192   4.311   8.240  0.2074 -0.0930 -0.2865
  212MOL0     C29144   2.192   4.439   8.186 -0.1302  0.2721  0.7701
  212MOL0     C29145   2.307   4.521   8.182  0.3092 -0.1882  0.3545
  212MOL0     C29146   2.300   4.643   8.101  1.2058 -0.8822 -0.5321
  212MOL0     C29147   2.420   4.476   8.244 -1.2525 -0.0934  0.2751
  212MOL0     C29148   2.544   4.562   8.254 -0.2337 -0.6692  1.0522
  212MOL0     O29149   2.610   4.574   8.381  0.1636 -0.7445  0.0020
  212MOL0     C29150   2.742   4.620   8.388 -0.2998  0.0819  0.8744
  212MOL0     C29151   2.782   4.753   8.379  0.1827  0.3553  0.0973
  212MOL0     C29152   2.920   4.784   8.388 -0.5126  1.4195 -0.4777
  212MOL0     C29153   3.012   4.682   8.415  0.2383  0.0013  0.0796
  212MOL0     O29154   3.139   4.720   8.453 -0.6332  0.3392  0.1561
  212MOL0     C29155   3.232   4.611   8.495  0.8314  0.2413  0.4158
  212MOL0     C29156   3.382   4.646   8.530  0.9127 -0.4651 -0.7487
  212MOL0     C29157   3.423   4.594   8.669 -0.0924 -0.4091 -0.0011
  212MOL0     C29158   3.535   4.492   8.667 -0.7737 -0.2782  0.6995
  212MOL0     C29159   3.512   4.351   8.599 -0.4168 -0.4740  0.0531
  212MOL0     C29160   3.389   4.268   8.646 -0.6755 -0.1953 -0.8486
  212MOL0     C29161   3.356   4.160   8.549  0.8218 -0.0013  0.4357
  212MOL0     C29162   3.239   4.193   8.455 -0.8324  0.9118 -0.2673
  212MOL0    Cl29163   3.093   4.243   8.555 -0.1527  0.4025 -0.0440
  212MOL0     C29164   2.965   4.548   8.424 -0.1627  1.2794 -0.2505
  212MOL0     C29165   2.831   4.516   8.408 -0.9428  0.1109 -0.1493
  212MOL0     O29166   2.583   4.611   8.150  0.2658  0.9889 -0.3969
  212MOL0     C29167   2.430   4.353   8.313  0.2486  0.3779 -0.6501
  212MOL0     C29168   2.310   4.271   8.313 -0.9101 -0.5422  0.6201
  212MOL0     N29169   2.141   4.081   7.747  0.3249 -0.2090 -0.5338
  212MOL0     N29170   2.226   4.069   7.653 -0.5583 -0.0980 -0.2734
  212MOL0     C29171   1.411   3.539   6.966 -0.0752 -0.4731 -0.0464
  212MOL0     C29172   1.309   3.582   6.877 -0.4230 -0.3872  0.5008
  212MOL0     C29173   1.074   3.693   6.544  0.0155  0.9920  0.0865
  212MOL0     C29174   0.973   3.581   6.553 -0.1474 -0.5958  0.1470
  212MOL0     C29175   0.837   3.600   6.507 -0.5805  0.7657 -1.3307
  212MOL0     C29176   0.801   3.724   6.440 -0.3469  0.0618  0.3021
  212MOL0     O29177   0.666   3.736   6.405 -0.3643 -0.2942  0.3122
  212MOL0     C29178   0.619   3.854   6.340 -0.2318  0.2076 -0.5100
  212MOL0     C29179   0.642   3.855   6.185 -0.0028  0.2734  0.2470
  212MOL0     C29180   0.572   3.973   6.112  0.2600  0.2563  0.4927
  212MOL0     C29181   0.556   3.957   5.963 -0.0211 -0.4682 -0.4694
  212MOL0     C29182   0.452   4.056   5.914 -1.3601  0.2521  0.2118
  212MOL0     C29183   0.351   4.111   5.868  0.0560  0.8788 -0.1496
  212MOL0     C29184   0.899   3.824   6.429 -0.7706 -0.1097  0.0579
  212MOL0     C29185   1.036   3.810   6.477 -0.7224  0.0066  0.1549
  212MOL0     C29186   1.139   3.920   6.464  0.6394 -0.3759  0.7037
  212MOL0     H29187   1.459   3.814   6.697  2.7552 -2.8207 -2.8735
  212MOL0     H29188   1.666   3.741   6.857  0.4497 -1.8170  1.2378
  212MOL0     H29189   1.773   3.722   7.062  0.2642 -0.0205  0.2525
  212MOL0     H29190   1.814   3.579   6.956  1.0309  0.1697 -0.0284
  212MOL0     H29191   1.788   3.585   7.264 -0.2201  2.9222 -0.2537
  212MOL0     H29192   1.859   3.459   7.167  0.0002 -0.0305  1.1849
  212MOL0     H29193   2.022   3.573   7.280 -1.4000 -0.8311 -0.0393
  212MOL0     H29194   2.035   3.631   7.108 -0.7299 -1.6614 -0.6429
  212MOL0     H29195   1.910   3.833   7.185  0.4358  0.5352 -0.3332
  212MOL0     H29196   1.925   3.767   7.362  1.6534 -2.3452  1.0782
  212MOL0     H29197   2.139   3.852   7.163  0.6078 -0.2709 -0.3462
  212MOL0     H29198   2.176   3.762   7.305 -0.6394 -0.6594  0.4107
  212MOL0     H29199   2.037   4.036   7.305 -0.0024  0.6357 -1.5154
  212MOL0     H29200   2.095   3.946   7.443  0.9045 -0.8136 -0.8869
  212MOL0     H29201   2.286   4.055   7.238 -1.2662 -1.0956  0.0954
  212MOL0     H29202   2.339   3.967   7.376 -1.8195 -1.3426  1.1092
  212MOL0     H29203   2.374   4.192   7.437 -0.6309  1.4724  2.6981
  212MOL0     H29204   2.231   4.243   7.353  0.7948  0.1322  2.0093
  212MOL0     H29205   2.036   4.321   7.539  1.1451  0.7417 -0.1089
  212MOL0     H29206   1.872   4.295   7.763 -1.4545 -2.8467  0.7710
  212MOL0     H29207   2.018   4.327   7.852 -1.8013  2.2050 -3.0243
  212MOL0     H29208   1.808   4.164   7.961 -0.5552 -0.2913  1.0820
  212MOL0     H29209   1.904   4.049   7.842  1.3452  1.2839 -0.8408
  212MOL0     H29210   1.948   4.018   8.072  0.6431 -1.6850 -3.1984
  212MOL0     H29211   2.093   4.098   7.996 -0.6724  1.3630 -0.4811
  212MOL0     H29212   1.978   4.319   8.091  0.8393 -1.4227 -0.2037
  212MOL0     H29213   1.895   4.211   8.206 -0.1373 -1.6238  0.7089
  212MOL0     H29214   2.101   4.487   8.154  0.3788  0.6369 -0.1487
  212MOL0     H29215   2.360   4.720   8.151  0.0935  1.7066 -2.9064
  212MOL0     H29216   2.198   4.680   8.096  1.2349 -0.9965 -3.6682
  212MOL0     H29217   2.339   4.616   8.002  0.5667  0.7512 -1.2541
  212MOL0     H29218   2.710   4.835   8.379 -0.6031 -0.3205  0.6345
  212MOL0     H29219   2.948   4.887   8.374  1.1863  0.7256 -2.8602
  212MOL0     H29220   3.188   4.567   8.585  1.1120 -1.9701 -0.4732
  212MOL0     H29221   3.226   4.541   8.411 -1.8383  0.8537  0.0161
  212MOL0     H29222   3.454   4.607   8.457  2.4660 -0.5976  0.7816
  212MOL0     H29223   3.379   4.756   8.531 -0.8378 -0.4878 -0.7048
  212MOL0     H29224   3.340   4.544   8.720 -1.6427  0.7212 -1.3304
  212MOL0     H29225   3.452   4.682   8.726  0.1775 -0.7354  0.3689
  212MOL0     H29226   3.571   4.463   8.766  3.4754  1.7205  0.0010
  212MOL0     H29227   3.627   4.531   8.623 -2.4157  1.9067 -1.0182
  212MOL0     H29228   3.507   4.372   8.492  3.0894  0.6027 -0.0062
  212MOL0     H29229   3.595   4.282   8.614 -2.1528 -2.5654  0.7108
  212MOL0     H29230   3.304   4.333   8.671 -1.4580 -1.5305  0.0866
  212MOL0     H29231   3.416   4.223   8.742 -0.4683  1.8074  0.1009
  212MOL0     H29232   3.316   4.080   8.613  2.3550 -1.4075 -0.2528
  212MOL0     H29233   3.447   4.132   8.494  0.1770  0.3827 -0.8606
  212MOL0     H29234   3.208   4.117   8.382  0.1771  1.0382 -0.8553
  212MOL0     H29235   3.263   4.275   8.386 -0.9628  0.6142 -0.6675
  212MOL0     H29236   3.031   4.463   8.433 -3.7941 -1.5831  2.2160
  212MOL0     H29237   2.796   4.414   8.394 -2.5673  0.8572 -1.9386
  212MOL0     H29238   2.517   4.312   8.363 -0.9827 -0.1696  1.1511
  212MOL0     H29239   2.313   4.180   8.373 -0.4937  0.8033  2.7517
  212MOL0     H29240   1.379   3.481   7.052 -0.6288 -1.9340 -1.1788
  212MOL0     H29241   1.214   3.532   6.890 -0.3842 -0.8576 -0.8414
  212MOL0     H29242   1.010   3.499   6.614  2.3529  1.9082  2.2568
  212MOL0     H29243   0.767   3.521   6.532 -2.7190  1.6902 -3.9617
  212MOL0     H29244   0.511   3.861   6.353 -0.2440 -1.2089  0.3857
  212MOL0     H29245   0.659   3.947   6.383 -3.1461  1.6618 -0.6564
  212MOL0     H29246   0.606   3.762   6.140  0.8828 -0.5899  1.2800
  212MOL0     H29247   0.749   3.847   6.163 -0.3002  0.6808 -1.4960
  212MOL0     H29248   0.468   3.980   6.148 -0.0019 -1.6676  0.2016
  212MOL0     H29249   0.624   4.060   6.153  0.1851 -0.5126  2.3061
  212MOL0     H29250   0.525   3.853   5.955  0.1665 -0.8680  2.6170
  212MOL0     H29251   0.649   3.982   5.911  0.5893  1.5712  1.4325
  212MOL0     H29252   0.277   4.162   5.810  0.0217  0.4428 -0.4964
  212MOL0     H29253   0.886   3.922   6.385  1.7044  2.0771  3.6605
  212MOL0     H29254   1.231   3.876   6.424 -0.0546  0.1119 -1.5775
  212MOL0     H29255   1.108   3.991   6.387 -1.2272  0.6617  2.3136
  212MOL0     H29256   1.142   3.949   6.569  1.9379  0.0546  0.5637
  213MOL0     O29257   7.225   7.158   7.512  0.1058 -0.7473 -0.6628
  213MOL0     C29258   7.162   7.050   7.520  0.1379  0.4783 -0.2905
  213MOL0     O29259   7.205   6.944   7.597  0.0104  0.3263  0.3288
  213MOL0     C29260   7.283   6.952   7.707 -0.0887 -0.1976  0.2000
  213MOL0     C29261   7.302   7.063   7.785 -0.4563  0.2102 -1.3313
  213MOL0     C29262   7.387   7.064   7.896  0.3452  0.1862 -0.6009
  213MOL0     C29263   7.463   6.941   7.932  0.5934 -0.7296  0.2430
  213MOL0     O29264   7.568   6.950   8.019  0.3373 -0.9522 -0.2107
  213MOL0     C29265   7.608   6.832   8.087  0.4564  0.0679 -0.2918
  213MOL0     C29266   7.684   6.857   8.213 -0.4744  0.8283  0.2262
  213MOL0     C29267   7.586   6.899   8.315  0.0907 -0.1194 -1.0729
  213MOL0     C29268   7.647   6.895   8.465  0.1172  0.4712 -0.1513
  213MOL0     C29269   7.536   6.932   8.568  0.2157  0.3291 -0.2833
  213MOL0     C29270   7.587   6.930   8.709 -0.0554 -0.0050  0.3068
  213MOL0     C29271   7.467   6.896   8.796  0.7515 -0.8340  0.0014
  213MOL0     C29272   7.514   6.849   8.931 -0.3235  0.0280  0.6736
  213MOL0     N29273   7.566   6.713   8.932 -0.5986  0.2063  0.2074
  213MOL0     C29274   7.692   6.680   8.917  0.0752 -0.5369  0.2192
  213MOL0     C29275   7.707   6.553   8.938 -0.1815  1.2922 -0.0931
  213MOL0     C29276   7.826   6.464   8.959  0.4908 -1.2495  0.1016
  213MOL0     C29277   7.942   6.497   8.862 -0.1752 -0.0083  0.3175
  213MOL0     C29278   8.054   6.391   8.878 -0.6607  0.3014  0.8808
  213MOL0     C29279   8.190   6.425   8.818  0.3971  0.8678  0.2260
  213MOL0     O29280   8.282   6.344   8.889  0.1491  0.5133 -0.1407
  213MOL0     C29281   8.412   6.339   8.856  1.4788 -0.7076 -0.0734
  213MOL0     C29282   8.470   6.425   8.763 -0.4941  0.3225  0.1166
  213MOL0     C29283   8.611   6.421   8.734  0.6777 -0.0764 -1.2195
  213MOL0     C29284   8.662   6.522   8.636  1.0882 -0.5574 -0.5922
  213MOL0     C29285   8.689   6.324   8.801  0.2527  1.5699  0.6017
  213MOL0     C29286   8.838   6.325   8.795  0.8130  0.3139  0.4803
  213MOL0     O29287   8.905   6.354   8.674 -0.0198 -0.3685 -0.1410
  213MOL0     C29288   9.041   6.359   8.658 -0.1421 -0.3313 -0.0815
  213MOL0     C29289   9.124   6.256   8.694 -0.1971  0.7282 -0.6681
  213MOL0     C29290   9.265   6.268   8.674 -0.0536 -0.0666 -0.1160
  213MOL0     C29291   9.313   6.374   8.599 -0.2642  0.1367 -0.5097
  213MOL0     O29292   9.445   6.389   8.601 -0.3717  1.5208  0.7542
  213MOL0     C29293   9.504   6.368   8.469 -0.4723 -0.3972  0.3840
  213MOL0     C29294   9.659   6.395   8.475  1.0297  0.2374  0.0996
  213MOL0     C29295   9.734   6.295   8.557 -0.1655 -0.5951 -0.2611
  213MOL0     C29296   9.754   6.152   8.494  0.1889  0.1392 -0.0291
  213MOL0     C29297   9.875   6.095   8.573 -0.5389 -0.6101 -0.7369
  213MOL0     C29298   9.891   5.952   8.544  0.2651 -0.9105  0.5453
  213MOL0     C29299  10.020   5.898   8.599 -1.3239  0.1233  0.5901
  213MOL0     C29300  10.005   5.874   8.753  0.2233 -0.2905 -0.6609
  213MOL0    Cl29301  10.153   5.800   8.824 -0.2448 -0.7655 -0.2224
  213MOL0     C29302   9.226   6.477   8.561 -0.8538 -0.6316  0.6190
  213MOL0     C29303   9.084   6.467   8.582  0.2543 -0.3084  0.0663
  213MOL0     O29304   8.894   6.298   8.900  0.4629  0.2977 -0.0671
  213MOL0     C29305   8.627   6.241   8.901  0.3174  0.1601  0.4563
  213MOL0     C29306   8.490   6.256   8.931  0.1941  0.4496 -0.5840
  213MOL0     N29307   7.582   6.497   8.961 -0.3106 -0.3413  0.0294
  213MOL0     N29308   7.496   6.598   8.951  0.5765  0.3899 -0.2111
  213MOL0     C29309   7.421   6.825   7.866  0.6148 -1.3446 -0.6262
  213MOL0     C29310   7.340   6.835   7.750 -0.4612  0.7913 -0.3806
  213MOL0     C29311   7.038   7.024   7.444 -0.2753 -0.5347 -0.0695
  213MOL0     C29312   6.951   6.929   7.498 -0.4161 -0.5894  0.2984
  213MOL0     C29313   6.823   6.909   7.448 -0.1711  0.0247 -0.2907
  213MOL0     C29314   6.774   6.982   7.348 -0.2328  0.0947  0.5289
  213MOL0     O29315   6.646   6.972   7.289  0.1001 -0.2483  0.2746
  213MOL0     C29316   6.542   6.894   7.358  0.1825  0.2370  0.0724
  213MOL0     C29317   6.575   6.747   7.320 -0.1028 -0.0459 -0.6909
  213MOL0     C29318   6.495   6.662   7.418  0.0420  0.0499  0.7257
  213MOL0     C29319   6.497   6.511   7.394  0.1904 -0.1339  0.0628
  213MOL0     C29320   6.432   6.484   7.266 -0.1171 -0.3140  0.0079
  213MOL0     C29321   6.368   6.459   7.162 -0.3695 -0.2846 -0.3853
  213MOL0     C29322   6.855   7.075   7.293 -0.3930 -0.7440  0.2568
  213MOL0     C29323   6.989   7.096   7.341 -0.6140  0.0149  0.6373
  213MOL0     C29324   7.077   7.209   7.284  0.3682  0.5099 -0.0566
  213MOL0     H29325   7.250   7.155   7.759 -0.0849  0.1733 -2.2385
  213MOL0     H29326   7.403   7.146   7.965  3.8454  0.5232 -1.6282
  213MOL0     H29327   7.682   6.771   8.034  0.6963  1.5064 -1.7104
  213MOL0     H29328   7.522   6.765   8.098  0.4598 -0.1343 -1.3406
  213MOL0     H29329   7.738   6.767   8.244 -1.5596  0.2741  0.5754
  213MOL0     H29330   7.760   6.934   8.200 -1.2418  1.3726 -1.3630
  213MOL0     H29331   7.546   6.996   8.283  0.8187 -0.4912 -3.2791
  213MOL0     H29332   7.499   6.833   8.313 -0.4286  0.5673 -1.8172
  213MOL0     H29333   7.682   6.793   8.480 -2.9303 -0.8470 -1.2686
  213MOL0     H29334   7.725   6.972   8.473  0.6555 -0.1506  0.7759
  213MOL0     H29335   7.452   6.864   8.553 -1.9649  2.8402 -0.1590
  213MOL0     H29336   7.503   7.035   8.549  1.5981  1.0249  0.8408
  213MOL0     H29337   7.661   6.850   8.718 -0.5519 -0.4202  0.8146
  213MOL0     H29338   7.638   7.026   8.721 -0.0145  0.1358 -0.9164
  213MOL0     H29339   7.394   6.829   8.751 -0.3830  0.5896 -0.3594
  213MOL0     H29340   7.414   6.991   8.802  0.7961 -0.5422 -3.0154
  213MOL0     H29341   7.590   6.916   8.972  0.7099  0.2728 -1.4934
  213MOL0     H29342   7.427   6.845   8.996 -1.7550  0.8570 -1.1220
  213MOL0     H29343   7.772   6.752   8.900 -1.0133  0.4814 -0.7691
  213MOL0     H29344   7.804   6.357   8.952  2.7146 -1.6713 -1.3862
  213MOL0     H29345   7.852   6.486   9.063 -1.9540 -2.7958  1.1356
  213MOL0     H29346   7.904   6.486   8.760  2.0683  2.3066 -0.8698
  213MOL0     H29347   7.971   6.602   8.874 -0.9733  0.2493  0.0571
  213MOL0     H29348   8.066   6.383   8.987 -2.1158  0.4739  1.0689
  213MOL0     H29349   8.014   6.293   8.851 -2.0113  0.8742  0.7407
  213MOL0     H29350   8.201   6.405   8.711  0.1219  1.2518  0.1223
  213MOL0     H29351   8.216   6.529   8.840 -0.5392  0.9428  1.0038
  213MOL0     H29352   8.412   6.487   8.695 -2.0442 -0.0743  1.0472
  213MOL0     H29353   8.578   6.585   8.607  1.2754  0.7510  1.5108
  213MOL0     H29354   8.704   6.464   8.553  0.4353 -2.6312  0.4560
  213MOL0     H29355   8.735   6.586   8.686 -0.4743  1.3520 -0.6678
  213MOL0     H29356   9.082   6.168   8.743 -2.2901  3.5548  3.1921
  213MOL0     H29357   9.328   6.180   8.691 -0.8662 -0.3391  1.6388
  213MOL0     H29358   9.485   6.268   8.427  0.0785  0.0287 -0.9356
  213MOL0     H29359   9.459   6.437   8.398 -3.4531 -1.6925  0.8687
  213MOL0     H29360   9.686   6.397   8.369 -1.2021  2.4689 -0.5279
  213MOL0     H29361   9.670   6.495   8.518 -2.2709 -0.3729  2.7957
  213MOL0     H29362   9.674   6.285   8.648  0.2910  1.3754  0.3094
  213MOL0     H29363   9.832   6.341   8.577  0.3415 -1.5871 -0.4061
  213MOL0     H29364   9.777   6.140   8.388  1.1047 -2.3736  0.3946
  213MOL0     H29365   9.657   6.105   8.509 -0.2327  0.0513 -2.7069
  213MOL0     H29366   9.962   6.152   8.540  1.4562 -1.2428  2.9019
  213MOL0     H29367   9.874   6.098   8.682  0.7643  0.5238 -0.7215
  213MOL0     H29368   9.880   5.943   8.435  0.2381  0.7897  0.3789
  213MOL0     H29369   9.807   5.898   8.590  1.5960 -3.6132  0.0031
  213MOL0     H29370  10.102   5.956   8.555 -0.5892  0.3240  2.1702
  213MOL0     H29371  10.031   5.797   8.559  0.2750  1.8097 -3.8065
  213MOL0     H29372   9.918   5.812   8.777 -0.1593  0.9136  1.2390
  213MOL0     H29373   9.989   5.970   8.803  0.5990  0.6899 -2.3386
  213MOL0     H29374   9.275   6.565   8.522 -1.7013  0.2845  1.5668
  213MOL0     H29375   9.015   6.541   8.543  0.1543 -1.6392 -2.4936
  213MOL0     H29376   8.683   6.162   8.949  0.0459 -2.1162 -2.6617
  213MOL0     H29377   8.434   6.183   8.989 -1.8946  2.9370  0.7788
  213MOL0     H29378   7.460   6.726   7.890 -0.5293 -1.2269  2.1094
  213MOL0     H29379   7.325   6.731   7.721 -0.4097 -0.1783  2.6672
  213MOL0     H29380   6.975   6.872   7.587 -3.1476 -1.2307  0.7240
  213MOL0     H29381   6.757   6.851   7.512  0.9585 -0.6673  0.2771
  213MOL0     H29382   6.545   6.917   7.465  1.9014 -1.3370  0.4111
  213MOL0     H29383   6.442   6.917   7.321 -0.0350 -0.6177  0.1099
  213MOL0     H29384   6.682   6.725   7.320 -0.4158 -1.7354 -1.7087
  213MOL0     H29385   6.544   6.730   7.217 -1.4316 -0.8003 -0.1900
  213MOL0     H29386   6.532   6.685   7.518  0.4022 -2.3832  1.2099
  213MOL0     H29387   6.391   6.697   7.415  0.4127  1.3082  1.7677
  213MOL0     H29388   6.436   6.462   7.470 -0.3563  1.9522  1.0333
  213MOL0     H29389   6.600   6.475   7.407  0.5265 -0.6561 -3.2002
  213MOL0     H29390   6.311   6.457   7.072  1.7149 -1.2823 -1.7579
  213MOL0     H29391   6.803   7.130   7.215 -1.3049 -0.7658  0.8270
  213MOL0     H29392   7.175   7.175   7.249  1.6504  0.6131  3.1182
  213MOL0     H29393   7.020   7.244   7.197  0.5244 -0.0244 -0.3771
  213MOL0     H29394   7.077   7.301   7.343 -1.4050 -0.7492  2.1135
  214MOL0     O29395   5.887   5.225   8.973  0.0876  0.0414  0.4051
  214MOL0     C29396   5.770   5.254   9.011 -0.4180  0.0079  0.0946
  214MOL0     O29397   5.692   5.341   8.945 -0.1578  0.0527  0.1941
  214MOL0     C29398   5.741   5.393   8.830  0.6436  0.5173 -0.1196
  214MOL0     C29399   5.792   5.312   8.721  0.1981  0.4388 -0.0313
  214MOL0     C29400   5.856   5.372   8.611 -0.5645 -0.3293  0.1158
  214MOL0     C29401   5.865   5.511   8.598  0.4285 -0.4697 -0.2314
  214MOL0     O29402   5.913   5.579   8.495 -0.2531  0.2366  0.1018
  214MOL0     C29403   6.042   5.624   8.532 -0.1088  0.2997 -0.0518
  214MOL0     C29404   6.100   5.706   8.423 -0.0908 -0.0643  0.3237
  214MOL0     C29405   6.011   5.827   8.397 -0.1860 -0.5446 -0.0554
  214MOL0     C29406   6.093   5.930   8.310 -0.0048 -0.3741 -0.0597
  214MOL0     C29407   6.155   6.046   8.384  0.4439 -0.4530  0.4796
  214MOL0     C29408   6.199   6.148   8.278  0.6269 -0.1650 -0.5511
  214MOL0     C29409   6.296   6.242   8.351  0.4124  0.4888  0.2153
  214MOL0     C29410   6.442   6.188   8.328 -0.0845 -1.0363 -1.0184
  214MOL0     N29411   6.535   6.281   8.412 -0.2398 -0.3813  0.6767
  214MOL0     C29412   6.515   6.327   8.540 -0.2802 -0.6276 -0.0320
  214MOL0     C29413   6.641   6.371   8.578  0.3717  0.1618  0.2724
  214MOL0     C29414   6.697   6.438   8.699  0.3652  0.2432 -1.2135
  214MOL0     C29415   6.603   6.544   8.759  0.7521 -0.0349 -0.2452
  214MOL0     C29416   6.676   6.629   8.860 -0.1377 -0.1214  0.4057
  214MOL0     C29417   6.599   6.743   8.932 -0.2174 -0.0091  0.1377
  214MOL0     O29418   6.470   6.691   8.983 -1.1791 -0.4142  0.3606
  214MOL0     C29419   6.475   6.640   9.107 -0.0722  0.1012  0.3984
  214MOL0     C29420   6.438   6.509   9.129  0.8552 -0.0276 -0.2753
  214MOL0     C29421   6.429   6.450   9.247 -0.2596  0.8325 -0.2985
  214MOL0     C29422   6.385   6.311   9.255  0.4699 -0.1640  0.0321
  214MOL0     C29423   6.473   6.523   9.362 -0.2417  0.7002  0.1098
  214MOL0     C29424   6.470   6.463   9.498 -0.4998  0.0398  0.2763
  214MOL0     O29425   6.483   6.330   9.522 -0.5757  0.4521  0.3435
  214MOL0     C29426   6.426   6.265   9.626 -1.1497 -0.7351  0.0144
  214MOL0     C29427   6.522   6.188   9.699  0.2891  0.1578 -0.8322
  214MOL0     C29428   6.469   6.126   9.820 -0.9373  0.4687 -0.7950
  214MOL0     C29429   6.341   6.152   9.869  1.1267  0.9743 -0.7389
  214MOL0     O29430   6.299   6.099   9.991  0.0466  0.0835 -0.1424
  214MOL0     C29431   6.170   6.037   9.998  0.6456 -0.1181 -0.2359
  214MOL0     C29432   6.172   5.903   9.912  0.1018  0.2192 -0.7452
  214MOL0     C29433   6.282   5.816   9.983 -0.7080 -0.5014 -1.2912
  214MOL0     C29434   6.320   5.702   9.891  0.0623  0.8516 -0.6927
  214MOL0     C29435   6.419   5.609   9.939  0.0551 -0.2629 -0.2020
  214MOL0     C29436   6.451   5.501   9.845 -0.0434 -0.5262 -0.6210
  214MOL0     C29437   6.544   5.397   9.914  0.0421 -0.1861  0.4871
  214MOL0     C29438   6.691   5.436   9.891 -0.4055 -0.0168  0.6357
  214MOL0    Cl29439   6.805   5.299   9.944  0.2448  0.2448  0.2103
  214MOL0     C29440   6.261   6.239   9.799  0.7076 -0.0153  1.1299
  214MOL0     C29441   6.307   6.292   9.674  0.0553  0.3294 -0.5982
  214MOL0     O29442   6.475   6.548   9.582  0.4121 -0.0121  0.8680
  214MOL0     C29443   6.528   6.647   9.347 -0.4332 -0.9083  0.3798
  214MOL0     C29444   6.530   6.711   9.220  0.6831  0.3320  0.4159
  214MOL0     N29445   6.724   6.355   8.469 -0.6041 -0.8707 -0.2025
  214MOL0     N29446   6.665   6.301   8.376  0.8849 -0.2144  0.4809
  214MOL0     C29447   5.816   5.586   8.702 -0.0100  0.1607 -0.2544
  214MOL0     C29448   5.756   5.534   8.815  0.5971 -0.2432  0.1801
  214MOL0     C29449   5.709   5.188   9.125 -0.1850  0.0565 -0.6273
  214MOL0     C29450   5.572   5.172   9.130 -0.7368 -0.2212  0.3779
  214MOL0     C29451   5.508   5.098   9.230 -0.5806 -0.1161  0.0920
  214MOL0     C29452   5.583   5.068   9.344  0.6848  0.0902  0.3595
  214MOL0     O29453   5.504   5.006   9.441 -0.8673 -0.3730 -0.8936
  214MOL0     C29454   5.560   4.981   9.575  0.4453  0.1606  0.0740
  214MOL0     C29455   5.462   4.886   9.644  0.8732  0.5652 -0.1846
  214MOL0     C29456   5.312   4.932   9.642  0.3931 -0.6611  1.1045
  214MOL0     C29457   5.239   4.848   9.740 -0.1441 -0.3559 -0.3055
  214MOL0     C29458   5.102   4.906   9.742  0.0617 -0.3755  0.4144
  214MOL0     C29459   4.989   4.944   9.750  0.4816 -0.3847 -0.0416
  214MOL0     C29460   5.717   5.098   9.346 -0.7473 -0.6666  0.5505
  214MOL0     C29461   5.783   5.148   9.240 -0.8753 -0.0706 -0.6932
  214MOL0     C29462   5.936   5.171   9.254  0.6117  1.0812  0.1605
  214MOL0     H29463   5.794   5.203   8.717  3.2387  0.3482  1.0965
  214MOL0     H29464   5.898   5.312   8.530 -3.6686 -1.4315 -0.8260
  214MOL0     H29465   6.110   5.538   8.538 -1.1415 -0.5532 -0.1223
  214MOL0     H29466   6.055   5.686   8.621  1.1494  0.2304 -0.1750
  214MOL0     H29467   6.200   5.730   8.458 -0.0792  0.2463  0.0821
  214MOL0     H29468   6.119   5.652   8.330 -3.4244  3.9853 -3.1091
  214MOL0     H29469   5.923   5.797   8.339 -0.3043 -0.8395  0.2739
  214MOL0     H29470   5.969   5.868   8.489 -0.7645 -0.7361 -0.2297
  214MOL0     H29471   6.174   5.876   8.259  2.4545  3.0898 -0.1654
  214MOL0     H29472   6.021   5.975   8.241  0.0837  1.0650  0.7565
  214MOL0     H29473   6.246   6.025   8.441  2.3768  2.5427 -1.2320
  214MOL0     H29474   6.076   6.082   8.452  0.5839  1.1014 -0.1242
  214MOL0     H29475   6.261   6.103   8.200  1.5476 -1.9872  1.1569
  214MOL0     H29476   6.114   6.184   8.219  1.3613  0.1672 -1.4503
  214MOL0     H29477   6.274   6.248   8.458  2.1391 -2.0116  0.7992
  214MOL0     H29478   6.290   6.344   8.310  0.9491 -0.8994 -3.7727
  214MOL0     H29479   6.467   6.085   8.357 -3.5835 -2.1001 -1.2415
  214MOL0     H29480   6.470   6.193   8.223 -2.1091  0.8833 -1.5425
  214MOL0     H29481   6.423   6.340   8.595  0.8795  1.3452  1.5757
  214MOL0     H29482   6.792   6.482   8.668  1.1859 -0.1627  0.5902
  214MOL0     H29483   6.723   6.362   8.774  4.3442  2.0829 -0.4187
  214MOL0     H29484   6.557   6.601   8.677 -2.6279 -1.9139  0.1626
  214MOL0     H29485   6.521   6.490   8.808 -1.4223  1.5102 -1.9860
  214MOL0     H29486   6.704   6.559   8.939  1.2816  2.5021  2.3623
  214MOL0     H29487   6.762   6.678   8.815 -1.3053  2.3935  0.7408
  214MOL0     H29488   6.667   6.784   9.007 -0.7126  1.8073 -0.3678
  214MOL0     H29489   6.586   6.831   8.869  3.1997  1.9023  1.8272
  214MOL0     H29490   6.394   6.457   9.044 -1.4939 -1.5914  1.7623
  214MOL0     H29491   6.288   6.304   9.306 -0.3579 -0.3235 -1.5156
  214MOL0     H29492   6.462   6.244   9.295  0.9678  1.8228  2.6779
  214MOL0     H29493   6.379   6.268   9.154  2.8007  1.5920 -0.9366
  214MOL0     H29494   6.622   6.171   9.661 -0.4123 -2.9579 -1.5500
  214MOL0     H29495   6.535   6.060   9.875 -1.3166 -0.2689 -1.2116
  214MOL0     H29496   6.149   6.012  10.102 -1.5560  0.2389 -0.5439
  214MOL0     H29497   6.101   6.118   9.971 -0.6994 -0.6749  1.3636
  214MOL0     H29498   6.080   5.843   9.913  1.5647 -2.1610 -1.9096
  214MOL0     H29499   6.197   5.913   9.806  2.4130 -2.6679 -0.6050
  214MOL0     H29500   6.246   5.795  10.084 -1.6743  2.2823 -0.9672
  214MOL0     H29501   6.379   5.863   9.998  1.1200 -3.6390 -2.2182
  214MOL0     H29502   6.365   5.756   9.809  3.3844  0.1708  0.5187
  214MOL0     H29503   6.237   5.642   9.853  0.7227 -0.2619 -0.4265
  214MOL0     H29504   6.506   5.673   9.962 -0.6276  0.5001  0.3227
  214MOL0     H29505   6.381   5.566  10.032 -2.2654  0.6327 -0.6591
  214MOL0     H29506   6.496   5.539   9.752 -1.2768 -0.0467 -1.0354
  214MOL0     H29507   6.366   5.437   9.818  0.6315 -1.4666 -0.5838
  214MOL0     H29508   6.522   5.293   9.889 -1.0523 -0.0684  0.9168
  214MOL0     H29509   6.518   5.401  10.020 -0.8171 -2.5606  0.4198
  214MOL0     H29510   6.732   5.531   9.928  0.2648  0.2884 -0.8171
  214MOL0     H29511   6.702   5.454   9.784 -1.7532 -0.6614  0.3767
  214MOL0     H29512   6.170   6.289   9.832 -0.1638  0.2260 -1.4561
  214MOL0     H29513   6.246   6.358   9.612 -1.4433 -1.2325 -0.8402
  214MOL0     H29514   6.569   6.710   9.425  2.2651 -1.7378 -0.2596
  214MOL0     H29515   6.553   6.817   9.216  4.2136 -0.3257  0.3983
  214MOL0     H29516   5.816   5.693   8.683 -0.9919  0.0181 -1.1682
  214MOL0     H29517   5.724   5.599   8.895  1.6829 -0.0877  0.5021
  214MOL0     H29518   5.517   5.196   9.040 -1.0368 -0.5967  0.4567
  214MOL0     H29519   5.400   5.086   9.239 -0.4314  0.3985  3.6814
  214MOL0     H29520   5.659   4.935   9.576 -0.1887 -1.2286  1.2856
  214MOL0     H29521   5.564   5.071   9.637 -3.5544 -2.0712  4.1182
  214MOL0     H29522   5.494   4.886   9.748 -0.9838 -2.7907  0.5421
  214MOL0     H29523   5.467   4.781   9.613  0.9990 -0.3839  2.7574
  214MOL0     H29524   5.302   5.038   9.668 -0.4222  0.2672 -2.4765
  214MOL0     H29525   5.274   4.916   9.541  0.0898 -3.2557  1.5582
  214MOL0     H29526   5.287   4.859   9.837 -2.1004 -0.0170  0.6827
  214MOL0     H29527   5.235   4.743   9.710 -1.4393 -0.4029 -0.0372
  214MOL0     H29528   4.891   4.989   9.756  1.3690  2.1419 -2.3426
  214MOL0     H29529   5.774   5.082   9.436 -0.2306  1.2292  0.5881
  214MOL0     H29530   5.958   5.273   9.223  0.9120  1.2469  0.8895
  214MOL0     H29531   5.980   5.168   9.354 -1.3913 -0.6764  1.0857
  214MOL0     H29532   5.985   5.092   9.196 -3.1109 -1.1725 -0.2767
  215MOL0     O29533   3.651   2.991   1.859  0.0809  0.0240 -0.6620
  215MOL0     C29534   3.592   2.901   1.915 -0.7131  0.1368 -0.7225
  215MOL0     O29535   3.645   2.772   1.913  0.4877 -0.8178 -0.0652
  215MOL0     C29536   3.773   2.757   1.874 -1.0417  0.5220  0.2576
  215MOL0     C29537   3.808   2.758   1.740  0.1292  0.0471 -0.2741
  215MOL0     C29538   3.945   2.758   1.701 -0.1804  0.7397 -0.7156
  215MOL0     C29539   4.051   2.732   1.795 -0.0746  0.7967  0.4740
  215MOL0     O29540   4.180   2.737   1.769 -0.4676  0.5552 -0.4452
  215MOL0     C29541   4.227   2.750   1.632 -0.2318  0.4204  0.0158
  215MOL0     C29542   4.367   2.700   1.625  0.8033 -0.6832  0.4158
  215MOL0     C29543   4.471   2.795   1.687  0.4531 -0.5699  0.4093
  215MOL0     C29544   4.570   2.696   1.750 -0.5249 -1.4767  0.0879
  215MOL0     C29545   4.695   2.757   1.814 -0.1720  0.3484 -0.5387
  215MOL0     C29546   4.809   2.776   1.716  0.3265 -0.7601 -0.2631
  215MOL0     C29547   4.951   2.814   1.766 -0.3492  0.4916 -0.6619
  215MOL0     C29548   5.060   2.819   1.664 -0.0839  0.0503 -0.2725
  215MOL0     N29549   5.080   2.683   1.603 -0.4147 -1.2605 -1.0512
  215MOL0     C29550   5.085   2.653   1.471 -0.0074 -0.3120 -0.0362
  215MOL0     C29551   5.159   2.540   1.470  0.3216  0.8026 -0.0447
  215MOL0     C29552   5.179   2.463   1.352  0.1705 -0.4299  0.6175
  215MOL0     C29553   5.051   2.410   1.287 -1.1242 -0.4834 -0.5020
  215MOL0     C29554   4.976   2.320   1.385 -0.6372 -0.4943  0.3602
  215MOL0     C29555   4.848   2.252   1.339 -0.1516  0.6306  0.3614
  215MOL0     O29556   4.749   2.349   1.303 -0.2903  0.5500  0.5977
  215MOL0     C29557   4.651   2.329   1.216 -0.5359  0.0344 -0.1898
  215MOL0     C29558   4.566   2.430   1.180 -0.5102 -0.4406 -0.2002
  215MOL0     C29559   4.459   2.408   1.087  1.0130  0.3284  0.4562
  215MOL0     C29560   4.369   2.525   1.052 -0.1227 -0.2519 -0.3506
  215MOL0     C29561   4.441   2.281   1.036  0.2613 -0.0653  0.6185
  215MOL0     C29562   4.345   2.246   0.928 -0.0475 -0.7713  0.2999
  215MOL0     O29563   4.291   2.120   0.929 -0.2879 -0.0774  0.6909
  215MOL0     C29564   4.204   2.072   0.837 -0.6433  0.9970 -0.3374
  215MOL0     C29565   4.234   2.078   0.706 -0.3857 -0.6280 -0.3806
  215MOL0     C29566   4.166   2.010   0.608 -0.7043 -0.0339  0.3561
  215MOL0     C29567   4.065   1.923   0.653  0.1808  0.0194 -0.2064
  215MOL0     O29568   3.989   1.845   0.566 -0.1400 -0.1287 -0.7053
  215MOL0     C29569   4.063   1.766   0.477 -0.4611 -0.0602 -0.6218
  215MOL0     C29570   3.983   1.675   0.384  0.9511  0.0513  0.6490
  215MOL0     C29571   3.852   1.624   0.447 -0.0115 -0.6350  0.1261
  215MOL0     C29572   3.764   1.529   0.351  0.2941  0.1055 -0.6978
  215MOL0     C29573   3.639   1.480   0.420 -0.2013  0.5287 -0.3562
  215MOL0     C29574   3.540   1.417   0.329 -0.1730  0.2758 -0.6774
  215MOL0     C29575   3.401   1.401   0.385  1.1874 -0.2280  0.9522
  215MOL0     C29576   3.317   1.523   0.380  0.4395  0.3215  0.2787
  215MOL0    Cl29577   3.156   1.473   0.451 -0.4709 -0.0361 -0.3539
  215MOL0     C29578   4.024   1.921   0.784  0.0276 -0.3461 -0.4635
  215MOL0     C29579   4.095   2.001   0.881 -0.1586 -0.1577 -0.3125
  215MOL0     O29580   4.301   2.334   0.851  0.6873 -0.6450 -0.1971
  215MOL0     C29581   4.521   2.177   1.090 -0.3768  0.3483  0.2956
  215MOL0     C29582   4.624   2.200   1.180  0.0387  0.2314 -0.0963
  215MOL0     N29583   5.187   2.494   1.592 -0.2312 -0.0781 -0.4158
  215MOL0     N29584   5.143   2.588   1.677 -0.8622  0.4872  1.1691
  215MOL0     C29585   4.014   2.708   1.925 -0.0774  0.2860 -0.9808
  215MOL0     C29586   3.880   2.728   1.965 -0.4902  0.7178 -0.8317
  215MOL0     C29587   3.473   2.933   1.993 -0.1476  1.3439 -0.4268
  215MOL0     C29588   3.438   2.841   2.097  0.2054 -0.7599 -0.0801
  215MOL0     C29589   3.312   2.839   2.152 -0.2914 -0.1277  0.1983
  215MOL0     C29590   3.215   2.934   2.128 -1.5179  0.4239  0.0028
  215MOL0     O29591   3.103   2.945   2.199  0.0118 -0.1195 -0.6720
  215MOL0     C29592   3.009   2.839   2.175 -0.9331 -0.3518  0.2797
  215MOL0     C29593   2.951   2.830   2.035  0.7085  0.3129 -0.1546
  215MOL0     C29594   2.864   2.951   1.996 -0.1221 -0.0393  0.5240
  215MOL0     C29595   2.795   2.939   1.861 -0.5746 -0.6545 -0.2235
  215MOL0     C29596   2.660   2.897   1.882  0.1629  0.3456 -0.4481
  215MOL0     C29597   2.539   2.868   1.890  0.0647 -0.1465  0.5392
  215MOL0     C29598   3.256   3.031   2.036  0.1367  0.3365 -1.2648
  215MOL0     C29599   3.384   3.039   1.979 -0.0441  0.0496  0.4146
  215MOL0     C29600   3.414   3.153   1.888 -0.7849  0.2192 -0.6203
  215MOL0     H29601   3.731   2.787   1.669  0.0897  0.6408  0.0033
  215MOL0     H29602   3.978   2.775   1.599 -0.2630  0.9840 -0.7007
  215MOL0     H29603   4.217   2.856   1.606 -3.9885  0.0427 -0.7162
  215MOL0     H29604   4.159   2.694   1.567 -1.5651  1.9625  0.0152
  215MOL0     H29605   4.375   2.599   1.667  1.4860  0.0229  2.0366
  215MOL0     H29606   4.397   2.685   1.521 -2.4845 -0.2181 -0.7350
  215MOL0     H29607   4.510   2.855   1.605  0.2159 -1.4544 -0.3591
  215MOL0     H29608   4.425   2.869   1.753 -0.0885 -0.5383  0.0054
  215MOL0     H29609   4.509   2.644   1.824 -1.4493 -0.0322  0.3901
  215MOL0     H29610   4.596   2.616   1.680 -1.2549  0.7709 -2.9546
  215MOL0     H29611   4.719   2.694   1.900  1.1113  0.1138 -1.0374
  215MOL0     H29612   4.667   2.855   1.854 -0.2358 -0.4271  1.4082
  215MOL0     H29613   4.813   2.697   1.641 -1.3978 -0.9347 -0.2095
  215MOL0     H29614   4.782   2.872   1.670 -3.2484 -0.7895  1.4422
  215MOL0     H29615   4.983   2.755   1.853 -1.5952 -1.0527 -1.1930
  215MOL0     H29616   4.940   2.915   1.806 -1.2114  0.3074 -0.4073
  215MOL0     H29617   5.020   2.889   1.590 -0.6078 -0.2030 -0.2382
  215MOL0     H29618   5.156   2.861   1.695  0.2011  1.3140 -2.6319
  215MOL0     H29619   5.055   2.710   1.383 -3.2961 -0.0978  1.0929
  215MOL0     H29620   5.250   2.384   1.378 -0.0485 -0.3886  1.3629
  215MOL0     H29621   5.240   2.523   1.283  0.7953 -1.1257  0.5535
  215MOL0     H29622   4.993   2.500   1.270  1.4104  0.7940 -3.1636
  215MOL0     H29623   5.067   2.366   1.188  2.2472  2.6001 -1.5412
  215MOL0     H29624   5.046   2.242   1.418 -0.5451  0.7614  3.4417
  215MOL0     H29625   4.949   2.368   1.480 -2.1403  0.5468 -0.5576
  215MOL0     H29626   4.872   2.190   1.253 -0.9440  0.3652  0.3287
  215MOL0     H29627   4.800   2.188   1.414 -0.8880 -1.6959 -1.9800
  215MOL0     H29628   4.578   2.527   1.226  0.6354 -0.0656 -1.2119
  215MOL0     H29629   4.273   2.499   1.097  0.1272 -2.4094 -0.9515
  215MOL0     H29630   4.360   2.535   0.943 -2.0972  0.9271 -0.1374
  215MOL0     H29631   4.403   2.621   1.091 -0.8873  0.0824 -0.4826
  215MOL0     H29632   4.309   2.147   0.667 -2.1060  1.7200  0.2263
  215MOL0     H29633   4.196   2.020   0.504  1.3068  0.9087  0.9822
  215MOL0     H29634   4.120   1.835   0.415  0.7144 -1.8507 -1.6261
  215MOL0     H29635   4.133   1.716   0.545  1.5773  3.5985  0.1764
  215MOL0     H29636   3.967   1.735   0.294  3.6535 -0.2640 -0.1328
  215MOL0     H29637   4.043   1.592   0.346 -1.0877 -1.7841  1.1897
  215MOL0     H29638   3.789   1.709   0.477  0.8488  0.3939 -0.8864
  215MOL0     H29639   3.881   1.566   0.535  1.4562  0.5339  0.4651
  215MOL0     H29640   3.808   1.440   0.304 -0.5773  0.0371 -1.4058
  215MOL0     H29641   3.726   1.587   0.267 -0.2752  0.1206 -0.4333
  215MOL0     H29642   3.668   1.414   0.503  1.8838  0.8446 -0.7815
  215MOL0     H29643   3.591   1.566   0.467  3.2184  2.5427 -0.1892
  215MOL0     H29644   3.567   1.312   0.320 -2.3874 -0.6605  1.9299
  215MOL0     H29645   3.536   1.453   0.226  0.5196 -2.0522 -1.5742
  215MOL0     H29646   3.402   1.357   0.485  1.8354 -1.4144  0.4496
  215MOL0     H29647   3.339   1.331   0.328  0.7039  0.6836  0.3251
  215MOL0     H29648   3.300   1.570   0.283 -1.6657 -1.5230 -0.3598
  215MOL0     H29649   3.357   1.598   0.448 -2.2280  2.0442  0.1005
  215MOL0     H29650   3.933   1.875   0.822 -0.9201  0.7636 -1.3411
  215MOL0     H29651   4.073   1.992   0.987 -0.1257 -0.2080 -0.3096
  215MOL0     H29652   4.504   2.077   1.051  1.1785  0.6333 -1.2545
  215MOL0     H29653   4.677   2.110   1.208 -0.6792 -0.3647 -0.5988
  215MOL0     H29654   4.097   2.698   1.994 -1.0975 -1.9000  0.0117
  215MOL0     H29655   3.865   2.717   2.072 -1.8883 -3.6003 -1.2878
  215MOL0     H29656   3.509   2.768   2.134 -1.3996 -2.1178  0.4416
  215MOL0     H29657   3.286   2.764   2.226 -1.5668 -2.3759 -2.3590
  215MOL0     H29658   3.048   2.741   2.201  0.8223 -0.4813 -2.3995
  215MOL0     H29659   2.927   2.851   2.246 -0.8844 -0.4918  0.3589
  215MOL0     H29660   2.892   2.738   2.033  2.2341 -0.8030  2.1538
  215MOL0     H29661   3.038   2.812   1.971  1.5233  0.5876  0.8471
  215MOL0     H29662   2.786   2.963   2.072  1.4202 -2.1107  2.6044
  215MOL0     H29663   2.930   3.037   1.988  1.1823 -0.9695  0.8115
  215MOL0     H29664   2.850   2.872   1.794 -0.5103 -0.4211 -0.4036
  215MOL0     H29665   2.796   3.041   1.823 -0.4069  0.4728  2.6115
  215MOL0     H29666   2.435   2.843   1.891 -0.1314  0.6448  0.3525
  215MOL0     H29667   3.177   3.101   2.011 -0.5955 -0.0491 -0.0991
  215MOL0     H29668   3.510   3.200   1.913  1.7886 -3.4292 -2.5060
  215MOL0     H29669   3.422   3.112   1.787 -1.4205  0.8601 -0.9340
  215MOL0     H29670   3.348   3.239   1.884 -2.1232 -0.7664 -0.3352
  216MOL0     O29671   0.772  10.608   2.355 -0.6714  0.1389 -0.1219
  216MOL0     C29672   0.745  10.699   2.442 -0.2122  0.1419 -0.0321
  216MOL0     O29673   0.835  10.799   2.493 -0.0172 -0.6871 -0.0571
  216MOL0     C29674   0.955  10.800   2.428  0.1232  0.3039  0.5843
  216MOL0     C29675   1.037  10.680   2.409  1.6322  0.4583 -0.3295
  216MOL0     C29676   1.151  10.691   2.325 -0.1190  0.4952  0.3711
  216MOL0     C29677   1.196  10.812   2.274 -0.0060 -0.2160 -0.4997
  216MOL0     O29678   1.312  10.822   2.199 -0.5326  0.5626  0.4416
  216MOL0     C29679   1.349  10.705   2.122  0.4863  0.6501 -0.0177
  216MOL0     C29680   1.450  10.741   2.022  0.1593 -0.1546  0.2069
  216MOL0     C29681   1.386  10.833   1.918 -0.0436 -0.0815  0.1140
  216MOL0     C29682   1.455  10.856   1.786  0.1900 -0.3255  0.1942
  216MOL0     C29683   1.370  10.925   1.683  0.4277  0.2502 -1.4079
  216MOL0     C29684   1.351  11.078   1.703  0.1924  0.1108 -0.5669
  216MOL0     C29685   1.261  11.144   1.608 -0.2178  0.6737  0.0970
  216MOL0     C29686   1.236  11.296   1.634 -0.1235 -0.2418  0.3010
  216MOL0     N29687   1.163  11.371   1.539 -0.2856 -0.8085  0.2558
  216MOL0     C29688   1.032  11.344   1.510 -0.0203 -0.7566 -1.2241
  216MOL0     C29689   1.011  11.448   1.429  0.3992  0.2022 -0.1937
  216MOL0     C29690   0.868  11.473   1.378 -1.8281  0.0474  0.3614
  216MOL0     C29691   0.821  11.603   1.426 -0.4047 -0.1116  0.1316
  216MOL0     C29692   0.682  11.628   1.379 -0.1345 -0.1196  0.5990
  216MOL0     C29693   0.634  11.747   1.445 -0.1004 -0.1176 -0.1188
  216MOL0     O29694   0.609  11.719   1.584 -0.7935 -0.5402 -0.6459
  216MOL0     C29695   0.495  11.655   1.620  0.2085  0.7977  0.1324
  216MOL0     C29696   0.468  11.640   1.753  0.2424  0.4342 -1.1840
  216MOL0     C29697   0.342  11.604   1.796  0.9755  0.3798 -0.4921
  216MOL0     C29698   0.331  11.618   1.946  0.9535 -0.2754  0.5351
  216MOL0     C29699   0.232  11.574   1.707  1.3463 -1.0360 -0.0275
  216MOL0     C29700   0.088  11.566   1.747  0.2551  0.4594  0.2295
  216MOL0     O29701  -0.011  11.616   1.663  0.0272 -0.9174  0.0503
  216MOL0     C29702  -0.144  11.591   1.693 -0.1978  0.5771  0.7823
  216MOL0     C29703  -0.194  11.460   1.704 -1.0134  0.9545  0.1808
  216MOL0     C29704  -0.329  11.429   1.691 -0.2902  1.0662 -0.3592
  216MOL0     C29705  -0.413  11.538   1.683 -1.3377 -0.1404 -0.0014
  216MOL0     O29706  -0.542  11.508   1.664 -0.1475 -0.1731  1.2053
  216MOL0     C29707  -0.619  11.608   1.598 -0.0061  0.3092 -0.0743
  216MOL0     C29708  -0.760  11.566   1.575 -0.1711  0.6292 -1.4713
  216MOL0     C29709  -0.821  11.490   1.692 -0.1133 -0.1086  0.6029
  216MOL0     C29710  -0.831  11.582   1.823 -0.4293 -0.5363  0.4180
  216MOL0     C29711  -0.709  11.587   1.916  0.3471 -0.2480  0.3005
  216MOL0     C29712  -0.756  11.650   2.045  0.2544 -0.1623 -0.0318
  216MOL0     C29713  -0.636  11.679   2.140  0.0839 -0.7968 -0.4996
  216MOL0     C29714  -0.683  11.689   2.295 -0.3844 -0.1306  0.8881
  216MOL0    Cl29715  -0.802  11.811   2.313 -0.1587 -0.1043  0.5795
  216MOL0     C29716  -0.365  11.664   1.698  1.0592  0.2145 -0.2934
  216MOL0     C29717  -0.230  11.693   1.696 -0.5349  0.0224 -0.1384
  216MOL0     O29718   0.059  11.500   1.851  0.0645  0.3728  0.8731
  216MOL0     C29719   0.263  11.572   1.568  0.1385 -0.1052  0.2687
  216MOL0     C29720   0.391  11.617   1.530  0.2922  0.5505  0.4166
  216MOL0     N29721   1.124  11.525   1.391  0.0508 -0.0033 -0.4477
  216MOL0     N29722   1.216  11.473   1.460  0.1525  0.2664 -0.6813
  216MOL0     C29723   1.139  10.931   2.329  0.3046  0.5426 -0.1324
  216MOL0     C29724   1.018  10.929   2.398 -0.7285  0.7289  0.0098
  216MOL0     C29725   0.602  10.696   2.497  0.7394 -0.4034 -0.7619
  216MOL0     C29726   0.548  10.567   2.523  0.1823 -0.2028  0.5587
  216MOL0     C29727   0.413  10.561   2.558 -0.8032  0.3289  0.4624
  216MOL0     C29728   0.344  10.676   2.587 -0.1439 -0.3351  0.5351
  216MOL0     O29729   0.214  10.673   2.642  0.3916  0.7868 -0.1192
  216MOL0     C29730   0.160  10.777   2.722  0.7669  0.3452  0.0204
  216MOL0     C29731   0.025  10.731   2.775  0.2668 -0.2452 -0.2023
  216MOL0     C29732  -0.041  10.821   2.881 -0.3176  0.4341 -0.2751
  216MOL0     C29733  -0.029  10.756   3.029  0.3982  0.9214  0.8445
  216MOL0     C29734   0.097  10.754   3.098 -0.5677 -1.6106  0.6285
  216MOL0     C29735   0.208  10.756   3.147 -0.6513 -0.4068  0.2802
  216MOL0     C29736   0.397  10.803   2.559  0.5954 -0.1228  0.4873
  216MOL0     C29737   0.526  10.810   2.516 -0.2139  0.6400 -0.5777
  216MOL0     C29738   0.587  10.942   2.487  0.5458 -0.4610 -0.6582
  216MOL0     H29739   1.007  10.581   2.444  1.3147  0.4824 -0.5257
  216MOL0     H29740   1.209  10.602   2.305  1.6882  1.5434  0.7264
  216MOL0     H29741   1.264  10.675   2.062  0.3509  3.0865 -1.1488
  216MOL0     H29742   1.393  10.621   2.178  1.2623  1.6538  0.9208
  216MOL0     H29743   1.524  10.792   2.085 -0.2855  0.0365  0.5820
  216MOL0     H29744   1.500  10.656   1.975 -1.2264  0.2058 -2.0136
  216MOL0     H29745   1.283  10.806   1.894 -0.0413 -0.7728  0.8634
  216MOL0     H29746   1.385  10.931   1.967  0.4182 -0.0715  0.1074
  216MOL0     H29747   1.535  10.930   1.800  0.2161 -0.4628  0.7667
  216MOL0     H29748   1.492  10.765   1.739  0.5295  0.4510 -1.0982
  216MOL0     H29749   1.270  10.882   1.694  1.1892 -1.1614  0.6867
  216MOL0     H29750   1.408  10.912   1.581  0.8953  3.3931 -1.7370
  216MOL0     H29751   1.316  11.086   1.807 -0.8530 -2.5285 -0.6290
  216MOL0     H29752   1.441  11.139   1.698  0.5217 -0.0356  1.9764
  216MOL0     H29753   1.162  11.098   1.604 -0.1033  0.5355 -2.1911
  216MOL0     H29754   1.307  11.126   1.511  0.4423  0.3317  0.4682
  216MOL0     H29755   1.204  11.320   1.735  1.1818  1.2212  0.4050
  216MOL0     H29756   1.336  11.342   1.628 -0.8313  1.2462 -0.7361
  216MOL0     H29757   0.966  11.271   1.555 -1.3333  0.2014 -1.5227
  216MOL0     H29758   0.799  11.393   1.407 -0.0546 -1.1560  1.4996
  216MOL0     H29759   0.867  11.473   1.268 -0.8551  0.6340  0.3384
  216MOL0     H29760   0.832  11.605   1.535 -5.6994  1.9722  0.9556
  216MOL0     H29761   0.889  11.683   1.399  0.7747 -0.5136  1.7425
  216MOL0     H29762   0.673  11.647   1.272  3.2353 -2.6944 -0.3125
  216MOL0     H29763   0.617  11.540   1.392 -0.2184 -0.1911 -0.2578
  216MOL0     H29764   0.703  11.832   1.436 -0.3163  0.2412  1.2882
  216MOL0     H29765   0.541  11.783   1.400 -1.0981 -2.0881  0.2821
  216MOL0     H29766   0.548  11.662   1.823 -0.6369 -1.9216  0.7202
  216MOL0     H29767   0.406  11.553   1.992  0.4181 -1.0865  0.2833
  216MOL0     H29768   0.233  11.610   1.994  0.9728  2.5046  1.2557
  216MOL0     H29769   0.370  11.718   1.968 -0.5833  1.6264 -4.1158
  216MOL0     H29770  -0.133  11.370   1.709 -2.9739 -0.4342  0.1703
  216MOL0     H29771  -0.386  11.337   1.685 -0.4000  0.8775  2.4024
  216MOL0     H29772  -0.631  11.689   1.670  1.5155  0.0467  0.5051
  216MOL0     H29773  -0.565  11.649   1.512  1.0686 -0.3391  0.2664
  216MOL0     H29774  -0.824  11.654   1.569 -0.4456  0.4851 -0.7968
  216MOL0     H29775  -0.774  11.497   1.491  1.4710 -0.1676 -1.1234
  216MOL0     H29776  -0.776  11.394   1.720 -1.6274 -0.4911  1.8789
  216MOL0     H29777  -0.923  11.459   1.667 -0.1508 -1.2139  1.9699
  216MOL0     H29778  -0.920  11.544   1.874 -2.0334  2.1581 -0.1906
  216MOL0     H29779  -0.860  11.686   1.806  1.1256  0.5807  3.6418
  216MOL0     H29780  -0.681  11.481   1.926 -1.7336 -0.6948  2.3545
  216MOL0     H29781  -0.624  11.644   1.879  1.9373 -1.2742  2.1724
  216MOL0     H29782  -0.822  11.577   2.094  0.4351 -0.5139 -0.3098
  216MOL0     H29783  -0.818  11.734   2.013 -3.2515 -3.3194 -2.3198
  216MOL0     H29784  -0.593  11.774   2.107 -0.2899 -0.2965  0.4046
  216MOL0     H29785  -0.567  11.594   2.136  2.7646  1.0790  1.6688
  216MOL0     H29786  -0.597  11.722   2.354 -1.3116  3.9079  0.2740
  216MOL0     H29787  -0.721  11.593   2.329  2.1930 -0.4534  3.1946
  216MOL0     H29788  -0.436  11.746   1.703  0.6661 -0.1855  0.9709
  216MOL0     H29789  -0.193  11.794   1.686  2.6260 -0.9384  0.6664
  216MOL0     H29790   0.191  11.551   1.490  1.3373  1.6124 -1.3654
  216MOL0     H29791   0.400  11.630   1.423 -1.1309  0.4633  0.2612
  216MOL0     H29792   1.189  11.027   2.318  1.9444 -0.2951 -0.3566
  216MOL0     H29793   0.963  11.018   2.428 -2.7179  0.2504 -1.9747
  216MOL0     H29794   0.603  10.475   2.507 -1.9081 -1.4750  0.3627
  216MOL0     H29795   0.363  10.465   2.568 -1.0812 -0.0248 -3.1121
  216MOL0     H29796   0.236  10.822   2.787  2.2078  2.4907 -2.9225
  216MOL0     H29797   0.151  10.866   2.658  1.7060  0.2578 -0.2456
  216MOL0     H29798   0.048  10.633   2.820 -1.1806 -1.3250 -1.7009
  216MOL0     H29799  -0.040  10.712   2.689  0.2796 -1.7018  0.0817
  216MOL0     H29800  -0.007  10.925   2.877 -0.8126  0.6874  1.2429
  216MOL0     H29801  -0.148  10.829   2.859 -0.7435  2.2663  1.9781
  216MOL0     H29802  -0.072  10.656   3.031 -1.2503  1.6035  2.3945
  216MOL0     H29803  -0.100  10.815   3.087 -1.3379 -0.8312  0.5993
  216MOL0     H29804   0.296  10.772   3.206 -2.2244  0.4231  2.5269
  216MOL0     H29805   0.347  10.895   2.587  2.5233  1.7649 -1.7716
  216MOL0     H29806   0.514  11.022   2.505  0.1571 -0.6455 -1.3548
  216MOL0     H29807   0.666  10.970   2.557 -0.2680  1.2311 -0.3711
  216MOL0     H29808   0.628  10.957   2.386 -0.1206  0.8506 -0.7539
  217MOL0     O29809   2.733   3.733   1.001 -0.0744  0.1269  0.0716
  217MOL0     C29810   2.819   3.769   1.076  0.3134 -0.0449 -0.4562
  217MOL0     O29811   2.878   3.688   1.173 -0.0357  0.0096 -0.3137
  217MOL0     C29812   2.824   3.569   1.214 -0.0081 -0.6369  0.4074
  217MOL0     C29813   2.863   3.537   1.344  0.7429 -0.1296  0.0665
  217MOL0     C29814   2.810   3.425   1.413  0.4918  0.2629  0.4890
  217MOL0     C29815   2.719   3.340   1.342  0.2197  0.3667 -1.4164
  217MOL0     O29816   2.668   3.216   1.388 -0.6263 -0.2884 -0.2534
  217MOL0     C29817   2.715   3.152   1.507  1.0447  0.5836 -0.3337
  217MOL0     C29818   2.689   3.007   1.495 -0.6375  0.2217 -0.5278
  217MOL0     C29819   2.788   2.957   1.379  0.4068 -0.6008 -0.2191
  217MOL0     C29820   2.832   2.814   1.393 -0.2651 -0.1510  0.2563
  217MOL0     C29821   2.899   2.781   1.260 -1.1774 -0.0410  0.0776
  217MOL0     C29822   2.907   2.623   1.259  0.5421  0.0972  0.2658
  217MOL0     C29823   2.977   2.568   1.135 -0.1884  0.0570 -0.2295
  217MOL0     C29824   2.986   2.413   1.127 -0.1726 -0.5438  0.7811
  217MOL0     N29825   3.084   2.352   1.216  0.9449 -0.5641  0.9018
  217MOL0     C29826   3.072   2.350   1.351  0.2051 -0.4850 -0.1021
  217MOL0     C29827   3.188   2.290   1.398  1.0524 -0.1300 -0.0735
  217MOL0     C29828   3.242   2.282   1.536  0.7344 -0.3021 -0.5253
  217MOL0     C29829   3.144   2.180   1.608  1.4440  0.2949 -1.1438
  217MOL0     C29830   3.152   2.033   1.556  0.2596 -0.8771 -0.3227
  217MOL0     C29831   3.042   1.952   1.621 -0.4816 -0.1881  0.4639
  217MOL0     O29832   3.023   1.819   1.579  0.2877  1.1299  0.7878
  217MOL0     C29833   2.928   1.741   1.642 -1.0697 -0.6084  0.1352
  217MOL0     C29834   2.865   1.778   1.764  0.5158  0.1789 -0.7981
  217MOL0     C29835   2.774   1.692   1.836 -0.5552 -0.8459 -1.2692
  217MOL0     C29836   2.723   1.748   1.966  0.5455 -1.0690 -0.0853
  217MOL0     C29837   2.747   1.562   1.780 -0.0990 -0.3064 -0.4634
  217MOL0     C29838   2.660   1.463   1.852 -0.1780  0.0821  0.4881
  217MOL0     O29839   2.585   1.511   1.953  0.0806 -0.1257 -0.9625
  217MOL0     C29840   2.458   1.449   1.966  0.2630 -0.4572  0.0572
  217MOL0     C29841   2.412   1.424   2.096  0.6903  0.6188 -0.8799
  217MOL0     C29842   2.277   1.382   2.120  0.0731  0.4789  0.2294
  217MOL0     C29843   2.186   1.373   2.015  0.0841 -0.4371 -0.1127
  217MOL0     O29844   2.057   1.331   2.034  0.2766 -0.0492 -0.5561
  217MOL0     C29845   2.032   1.196   2.074 -0.0500 -0.7205 -0.5830
  217MOL0     C29846   1.884   1.185   2.122 -0.0712  0.1467 -0.1435
  217MOL0     C29847   1.869   1.271   2.248 -0.5150 -0.4109  0.5620
  217MOL0     C29848   1.750   1.230   2.332 -0.3459 -0.0146  0.2421
  217MOL0     C29849   1.723   1.308   2.464  0.1263 -0.5178 -0.1957
  217MOL0     C29850   1.829   1.265   2.577 -0.1508  0.4592  0.2023
  217MOL0     C29851   1.825   1.346   2.709  0.2668  0.2146 -0.9103
  217MOL0     C29852   1.813   1.498   2.700 -0.2402 -0.3771  0.8285
  217MOL0    Cl29853   1.651   1.559   2.670  0.2482  0.4345 -0.4241
  217MOL0     C29854   2.229   1.391   1.881 -0.2944  0.0631  0.0498
  217MOL0     C29855   2.362   1.426   1.857 -0.8903  0.7197  0.6665
  217MOL0     O29856   2.652   1.349   1.808 -0.5048  0.6922  0.1163
  217MOL0     C29857   2.810   1.530   1.655 -0.1933 -0.2741  0.0406
  217MOL0     C29858   2.904   1.618   1.589 -0.2596  0.3340 -0.7630
  217MOL0     N29859   3.257   2.256   1.290  0.5146  0.2487  0.3008
  217MOL0     N29860   3.195   2.292   1.178 -0.1555  0.2983 -0.6377
  217MOL0     C29861   2.683   3.372   1.216  0.5682 -0.1045  0.9951
  217MOL0     C29862   2.728   3.490   1.149 -1.4827  0.7917  0.1320
  217MOL0     C29863   2.886   3.902   1.061  0.6339  0.4797 -0.3072
  217MOL0     C29864   2.961   3.941   1.171 -0.0317 -0.1843  0.0329
  217MOL0     C29865   3.031   4.057   1.174 -0.2038 -0.0492  0.6246
  217MOL0     C29866   3.040   4.137   1.064  0.4686 -0.3492 -0.0271
  217MOL0     O29867   3.113   4.250   1.083  0.6083 -0.2089  0.0015
  217MOL0     C29868   3.105   4.360   0.989 -0.0482  0.5720  0.5583
  217MOL0     C29869   3.189   4.480   1.024  0.2235 -0.1482 -0.7876
  217MOL0     C29870   3.164   4.595   0.911 -0.5532 -0.1237  0.3675
  217MOL0     C29871   3.280   4.690   0.916 -0.1074  0.5620  0.0743
  217MOL0     C29872   3.271   4.767   1.037 -0.2394  0.0123  0.2161
  217MOL0     C29873   3.270   4.808   1.148 -0.2183 -1.4592 -0.6613
  217MOL0     C29874   2.976   4.091   0.947  0.0551  1.3451  0.0006
  217MOL0     C29875   2.888   3.984   0.948 -0.3495 -0.2759 -0.1012
  217MOL0     C29876   2.814   3.957   0.819  0.9275  0.7878  0.1266
  217MOL0     H29877   2.926   3.606   1.400 -0.3165  0.3091  0.7695
  217MOL0     H29878   2.844   3.398   1.513 -1.7658  1.3010  1.6159
  217MOL0     H29879   2.661   3.186   1.596  1.2345 -0.0036  0.0085
  217MOL0     H29880   2.824   3.156   1.513  1.2522 -2.3605 -0.4208
  217MOL0     H29881   2.711   2.956   1.589  2.6130  1.5352 -0.4519
  217MOL0     H29882   2.584   2.991   1.470 -0.4554 -2.6574  0.1760
  217MOL0     H29883   2.735   2.975   1.286 -0.9122  1.7484  0.8991
  217MOL0     H29884   2.879   3.018   1.378  0.9887 -1.3373  1.7190
  217MOL0     H29885   2.907   2.802   1.472 -0.3903 -1.0247  0.2438
  217MOL0     H29886   2.741   2.754   1.403 -1.4221  0.9165 -2.6884
  217MOL0     H29887   2.989   2.831   1.223 -0.0138 -4.0260 -3.1587
  217MOL0     H29888   2.823   2.795   1.182 -1.5303  1.6883  0.6790
  217MOL0     H29889   2.965   2.588   1.345  0.3891 -1.8807 -0.3720
  217MOL0     H29890   2.805   2.583   1.270  0.1673  1.2282  1.0667
  217MOL0     H29891   3.083   2.593   1.134 -0.0097 -0.5161 -2.5249
  217MOL0     H29892   2.928   2.610   1.047 -2.4645  1.4193  1.5826
  217MOL0     H29893   2.891   2.385   1.173 -2.0482  2.7850 -0.6964
  217MOL0     H29894   2.993   2.380   1.023 -0.7409  3.3394 -0.6848
  217MOL0     H29895   2.996   2.399   1.410 -1.5775 -0.2397 -2.4867
  217MOL0     H29896   3.240   2.380   1.584 -1.0752 -0.0064 -1.1331
  217MOL0     H29897   3.343   2.239   1.535  1.4442  1.0224 -4.7098
  217MOL0     H29898   3.173   2.178   1.713 -0.1725 -1.4227 -0.6882
  217MOL0     H29899   3.040   2.214   1.607  1.3110 -0.0893 -0.6757
  217MOL0     H29900   3.136   2.024   1.448 -1.2849 -2.3887 -0.0145
  217MOL0     H29901   3.252   1.991   1.571  1.0709  0.0957 -2.5308
  217MOL0     H29902   3.045   1.942   1.730 -0.4543 -1.8425  0.3418
  217MOL0     H29903   2.948   2.005   1.600 -0.2768  0.2687  0.6808
  217MOL0     H29904   2.887   1.869   1.818  3.7177 -0.4396 -0.8312
  217MOL0     H29905   2.736   1.680   2.051 -6.4005 -1.4298  1.2735
  217MOL0     H29906   2.619   1.779   1.971  0.0889 -2.6883  1.5943
  217MOL0     H29907   2.785   1.835   1.989 -1.6170  0.7519 -0.8745
  217MOL0     H29908   2.482   1.440   2.178 -1.8985  3.2945  1.0579
  217MOL0     H29909   2.241   1.371   2.222  2.6732  1.3905  1.3402
  217MOL0     H29910   2.048   1.128   1.990  0.4404  4.0357 -4.8057
  217MOL0     H29911   2.097   1.170   2.158 -1.7728  1.4670  1.5842
  217MOL0     H29912   1.808   1.206   2.046 -1.6716 -0.1812  1.2964
  217MOL0     H29913   1.869   1.080   2.148  0.9533  0.2983  1.1528
  217MOL0     H29914   1.844   1.371   2.212 -3.2485  0.3054  3.8685
  217MOL0     H29915   1.960   1.275   2.310  1.8298  0.1760 -2.6617
  217MOL0     H29916   1.760   1.124   2.355 -0.3544 -0.3135 -1.0394
  217MOL0     H29917   1.664   1.240   2.266 -1.7965 -0.7916  1.9488
  217MOL0     H29918   1.726   1.416   2.453 -0.2001 -0.7147 -2.5772
  217MOL0     H29919   1.624   1.280   2.501  0.3515 -2.2389 -0.8121
  217MOL0     H29920   1.928   1.284   2.536 -0.5087 -0.2553 -1.0421
  217MOL0     H29921   1.816   1.160   2.605 -0.1089  0.8264  1.7221
  217MOL0     H29922   1.921   1.330   2.759 -0.3090 -0.4850  0.0058
  217MOL0     H29923   1.752   1.308   2.781  0.4298  1.2050 -0.2106
  217MOL0     H29924   1.881   1.538   2.624  0.8414 -1.1593  1.3517
  217MOL0     H29925   1.847   1.535   2.797 -0.3885 -0.6085  0.9710
  217MOL0     H29926   2.163   1.363   1.800  0.6927 -2.0283 -0.1005
  217MOL0     H29927   2.410   1.433   1.759 -0.1725 -4.1536  0.4268
  217MOL0     H29928   2.805   1.432   1.609  2.8643 -0.5265  0.0223
  217MOL0     H29929   2.954   1.565   1.510 -0.4658 -1.8612  0.5114
  217MOL0     H29930   2.619   3.308   1.155  2.6041  1.1431 -2.7515
  217MOL0     H29931   2.705   3.503   1.044  0.2075  0.5363 -0.3046
  217MOL0     H29932   2.954   3.887   1.265  1.8316  0.5079  0.6138
  217MOL0     H29933   3.096   4.089   1.254  1.3747 -4.1759  1.2336
  217MOL0     H29934   3.128   4.325   0.888 -1.7961 -2.3105  1.0539
  217MOL0     H29935   3.001   4.392   0.983 -0.4377 -0.2898  2.1859
  217MOL0     H29936   3.292   4.443   1.033 -0.4472 -1.5365  1.9589
  217MOL0     H29937   3.164   4.519   1.123  0.7399 -1.7789  0.0218
  217MOL0     H29938   3.164   4.554   0.810 -2.1704  2.3986 -0.7537
  217MOL0     H29939   3.065   4.638   0.931 -1.8905 -2.2264 -1.2464
  217MOL0     H29940   3.287   4.754   0.827 -0.3082  1.1025  0.4400
  217MOL0     H29941   3.372   4.631   0.916 -1.5613 -1.8796 -1.6221
  217MOL0     H29942   3.265   4.853   1.245  2.1154 -3.1359  0.3283
  217MOL0     H29943   2.986   4.143   0.852 -0.5375 -3.1753 -2.8409
  217MOL0     H29944   2.884   3.907   0.751 -0.9340 -1.6737 -0.0997
  217MOL0     H29945   2.726   3.893   0.820 -0.6779  2.8247 -1.3105
  217MOL0     H29946   2.793   4.061   0.790 -3.1856  0.2883  0.7196
  218MOL0     O29947   7.325   0.559  11.451  0.4983 -0.2056  0.0500
  218MOL0     C29948   7.278   0.443  11.415  0.0679  0.0562  0.3295
  218MOL0     O29949   7.222   0.352  11.501  0.1711  0.4722 -0.2612
  218MOL0     C29950   7.254   0.360  11.633  0.3585 -0.5891 -1.2539
  218MOL0     C29951   7.332   0.263  11.693  0.5840  0.5816 -0.0209
  218MOL0     C29952   7.376   0.285  11.831  0.4535 -0.2371 -0.2839
  218MOL0     C29953   7.334   0.397  11.914  1.3778 -1.4575 -0.1242
  218MOL0     O29954   7.379   0.412  12.043  0.7217 -0.1203 -0.1317
  218MOL0     C29955   7.375   0.534  12.119  0.6284 -0.6626 -0.4977
  218MOL0     C29956   7.414   0.504  12.266 -0.4397  0.3406 -1.2634
  218MOL0     C29957   7.433   0.633  12.355 -0.2106 -0.2341 -1.3456
  218MOL0     C29958   7.504   0.609  12.494 -0.8397 -0.2327 -0.4979
  218MOL0     C29959   7.538   0.750  12.557  0.6995  0.9223 -0.2295
  218MOL0     C29960   7.638   0.740  12.663 -0.1517  0.3194  0.4474
  218MOL0     C29961   7.721   0.865  12.699 -0.3437 -0.9855  0.8226
  218MOL0     C29962   7.814   0.830  12.820 -0.6152  0.2577  0.0205
  218MOL0     N29963   7.874   0.956  12.858  0.8066 -0.0421  0.3435
  218MOL0     C29964   8.003   0.988  12.824 -0.4166 -0.0839  0.1297
  218MOL0     C29965   8.039   1.099  12.893  0.4045  0.9853 -0.0012
  218MOL0     C29966   8.176   1.168  12.888  0.2676  1.0821  0.8340
  218MOL0     C29967   8.159   1.320  12.931 -0.2582 -0.5213  0.6536
  218MOL0     C29968   8.199   1.342  13.080  0.6978  0.2762  0.5954
  218MOL0     C29969   8.168   1.483  13.127  0.4081 -0.0240 -0.3753
  218MOL0     O29970   8.025   1.498  13.116 -0.9415 -0.3331 -0.2520
  218MOL0     C29971   7.947   1.527  13.223 -0.2855  0.3815  0.0249
  218MOL0     C29972   7.857   1.433  13.260 -0.8544 -0.5103 -0.4539
  218MOL0     C29973   7.761   1.463  13.369 -0.4235  0.2831  0.3892
  218MOL0     C29974   7.667   1.350  13.403  0.3244  0.0930  0.2852
  218MOL0     C29975   7.768   1.591  13.435  1.9381 -0.4426 -0.7339
  218MOL0     C29976   7.687   1.629  13.549 -0.8285 -0.1406 -0.8091
  218MOL0     O29977   7.696   1.752  13.602 -0.1995 -0.4399 -0.5817
  218MOL0     C29978   7.618   1.781  13.719  0.1209 -0.1236  0.2403
  218MOL0     C29979   7.484   1.825  13.699  0.0270 -0.5437  0.2967
  218MOL0     C29980   7.393   1.835  13.806 -0.0589  0.6971 -0.8792
  218MOL0     C29981   7.431   1.796  13.936 -0.2068  1.0765  0.1655
  218MOL0     O29982   7.337   1.771  14.033  0.1495 -0.9649 -0.1354
  218MOL0     C29983   7.374   1.825  14.161  0.4211 -0.3321 -0.3071
  218MOL0     C29984   7.253   1.817  14.245 -0.0495 -0.1052 -0.3810
  218MOL0     C29985   7.196   1.674  14.276  0.3711  0.0191  1.0786
  218MOL0     C29986   7.051   1.667  14.319  0.4135  0.2858  0.5238
  218MOL0     C29987   6.997   1.524  14.330  0.4087 -0.7424  0.0593
  218MOL0     C29988   6.851   1.524  14.385 -0.2077  0.5700  0.0643
  218MOL0     C29989   6.787   1.377  14.352  0.2669 -0.0693  0.0855
  218MOL0     C29990   6.835   1.262  14.435 -0.4459 -0.0874 -0.4600
  218MOL0    Cl29991   6.803   1.108  14.351  0.3589 -0.1324 -0.6028
  218MOL0     C29992   7.571   1.762  13.952 -0.2281  0.0497  0.2428
  218MOL0     C29993   7.662   1.757  13.850  0.7401  0.2337 -0.2654
  218MOL0     O29994   7.620   1.539  13.601  0.7837 -1.0095  0.3245
  218MOL0     C29995   7.860   1.695  13.383  0.3703  0.8226  0.4690
  218MOL0     C29996   7.949   1.653  13.275  0.2631  0.3270 -0.5471
  218MOL0     N29997   7.929   1.121  12.979 -0.5053 -0.0851  0.4502
  218MOL0     N29998   7.831   1.037  12.961 -0.1839 -0.1375 -0.7659
  218MOL0     C29999   7.259   0.489  11.846  0.6510  0.2177  0.1765
  218MOL0     C30000   7.223   0.476  11.712 -0.7816  0.1302  0.4077
  218MOL0     C30001   7.280   0.412  11.263 -0.1081  0.2204 -0.1382
  218MOL0     C30002   7.329   0.509  11.182  0.8733  0.5164  0.8963
  218MOL0     C30003   7.327   0.493  11.044  0.7281 -1.0398 -0.5071
  218MOL0     C30004   7.289   0.376  10.984  0.3117 -0.3494 -0.5716
  218MOL0     O30005   7.289   0.356  10.848  0.3579  0.0205  0.2767
  218MOL0     C30006   7.161   0.321  10.797  1.1794 -1.4382  0.5677
  218MOL0     C30007   7.041   0.409  10.860  0.2073  0.5653  1.2279
  218MOL0     C30008   6.910   0.409  10.775 -0.9656 -0.6917 -0.4949
  218MOL0     C30009   6.807   0.514  10.820 -0.6818  0.6001 -0.2018
  218MOL0     C30010   6.722   0.463  10.933  0.9609  1.1500  0.6530
  218MOL0     C30011   6.633   0.436  11.017  0.1977  0.1428 -1.4879
  218MOL0     C30012   7.251   0.271  11.071 -0.1965  0.1252  0.3417
  218MOL0     C30013   7.253   0.277  11.209 -0.4281 -0.3054 -0.9525
  218MOL0     C30014   7.208   0.161  11.284  0.1911 -0.5868  0.5302
  218MOL0     H30015   7.340   0.165  11.648 -1.6480 -0.3301  1.3687
  218MOL0     H30016   7.434   0.199  11.863 -0.4537 -1.1819 -1.1020
  218MOL0     H30017   7.286   0.596  12.106 -0.2842 -1.1146  2.7483
  218MOL0     H30018   7.453   0.600  12.080  1.1163 -1.5732 -1.1236
  218MOL0     H30019   7.347   0.435  12.318  0.6513  1.0673  1.2727
  218MOL0     H30020   7.511   0.455  12.266 -0.8407 -0.5291  0.1400
  218MOL0     H30021   7.499   0.702  12.302  0.0829  0.1466 -0.4977
  218MOL0     H30022   7.335   0.676  12.377  0.1446 -0.6141  1.3445
  218MOL0     H30023   7.437   0.551  12.559 -1.2584 -1.1479 -1.7188
  218MOL0     H30024   7.593   0.549  12.470 -0.5727  0.7378 -2.0623
  218MOL0     H30025   7.451   0.791  12.608  2.2351 -0.4727  3.8659
  218MOL0     H30026   7.569   0.817  12.476 -0.3920  1.0714 -0.5350
  218MOL0     H30027   7.609   0.691  12.756  2.4012 -0.8568  0.7396
  218MOL0     H30028   7.709   0.676  12.608 -1.4575 -0.1257 -0.7769
  218MOL0     H30029   7.645   0.939  12.727 -0.6824 -1.1418  0.3427
  218MOL0     H30030   7.768   0.906  12.609 -0.2655 -2.0277  0.3700
  218MOL0     H30031   7.755   0.785  12.901 -1.9019 -0.5241 -1.2959
  218MOL0     H30032   7.892   0.758  12.791 -2.5482 -1.4815 -1.1364
  218MOL0     H30033   8.063   0.946  12.744 -0.2933  1.1685 -0.4624
  218MOL0     H30034   8.200   1.180  12.782 -0.8184  1.6134  0.6333
  218MOL0     H30035   8.257   1.116  12.940  1.1459  3.3024  1.7916
  218MOL0     H30036   8.220   1.391  12.876 -3.4894  1.8643 -0.1482
  218MOL0     H30037   8.056   1.355  12.920  0.0441 -0.3226 -2.1496
  218MOL0     H30038   8.138   1.272  13.138 -2.4355  1.2551 -1.2906
  218MOL0     H30039   8.306   1.322  13.089  0.8964  0.0880 -1.6170
  218MOL0     H30040   8.190   1.492  13.234 -3.0822  0.7730  0.3811
  218MOL0     H30041   8.231   1.550  13.069  2.1961 -0.0112  1.4601
  218MOL0     H30042   7.857   1.333  13.218  1.7854 -1.6077  1.8209
  218MOL0     H30043   7.696   1.326  13.506  1.5735  0.0817 -0.0541
  218MOL0     H30044   7.686   1.263  13.339  1.8364 -0.1382  1.0112
  218MOL0     H30045   7.561   1.375  13.390  0.5252 -0.3361 -2.9600
  218MOL0     H30046   7.440   1.851  13.604 -3.8979  0.8628  2.2714
  218MOL0     H30047   7.288   1.859  13.790  0.1734  0.3449 -3.2263
  218MOL0     H30048   7.460   1.768  14.199  0.8243 -2.6806 -4.1902
  218MOL0     H30049   7.396   1.932  14.148  0.1497 -0.4335 -1.7856
  218MOL0     H30050   7.278   1.852  14.346 -1.9017 -5.5557  2.3802
  218MOL0     H30051   7.168   1.874  14.205  0.0543 -0.2860 -0.8688
  218MOL0     H30052   7.241   1.629  14.365 -1.0002  1.5400  2.6315
  218MOL0     H30053   7.213   1.608  14.190 -0.8881  1.0302  0.0006
  218MOL0     H30054   6.982   1.713  14.247  0.5775 -0.5476 -0.1818
  218MOL0     H30055   7.032   1.709  14.418  0.5826  1.4087  0.0985
  218MOL0     H30056   7.000   1.476  14.232  4.4677 -3.1133  1.0845
  218MOL0     H30057   7.064   1.469  14.397 -1.2309 -2.1372  0.6190
  218MOL0     H30058   6.801   1.604  14.330  0.7934 -0.0537 -1.8465
  218MOL0     H30059   6.848   1.562  14.487 -1.9516 -1.5177  0.8554
  218MOL0     H30060   6.800   1.360  14.245  2.3015  0.7641  0.1451
  218MOL0     H30061   6.681   1.391  14.373  0.3235 -0.5511  0.7491
  218MOL0     H30062   6.792   1.269  14.536  1.0970 -2.0099  0.3906
  218MOL0     H30063   6.944   1.272  14.444 -0.4396 -0.5907  0.0624
  218MOL0     H30064   7.612   1.739  14.049  1.0664 -1.1665 -0.5538
  218MOL0     H30065   7.754   1.707  13.880  0.3433 -0.5414 -0.3190
  218MOL0     H30066   7.840   1.800  13.403 -3.2377  0.9001 -2.3305
  218MOL0     H30067   8.009   1.731  13.229  0.1196 -0.4082 -2.0207
  218MOL0     H30068   7.232   0.576  11.905  1.4367 -0.4019  1.5168
  218MOL0     H30069   7.171   0.556  11.660 -3.2612 -1.2352  0.5735
  218MOL0     H30070   7.368   0.607  11.209  1.8097  0.2373  0.5970
  218MOL0     H30071   7.358   0.572  10.976  2.0863 -4.7677 -4.6775
  218MOL0     H30072   7.168   0.339  10.689 -0.5382 -0.0477  0.6253
  218MOL0     H30073   7.130   0.218  10.814 -0.3124 -1.4901 -1.9330
  218MOL0     H30074   7.070   0.514  10.856 -3.4876  1.7692 -3.8460
  218MOL0     H30075   7.016   0.377  10.962 -1.7812 -4.4406 -0.4820
  218MOL0     H30076   6.936   0.440  10.674  2.4831  0.3131  0.5538
  218MOL0     H30077   6.859   0.312  10.772  0.1819 -1.2948 -3.4172
  218MOL0     H30078   6.751   0.542  10.731  1.9697 -3.0728 -3.3439
  218MOL0     H30079   6.871   0.595  10.859  1.8042 -1.9496  1.4534
  218MOL0     H30080   6.558   0.417  11.091  1.5030 -1.2587 -0.4734
  218MOL0     H30081   7.231   0.178  11.019  1.0820  0.3822 -0.6612
  218MOL0     H30082   7.206   0.071  11.223  0.9016 -0.3034  0.0781
  218MOL0     H30083   7.278   0.144  11.366 -2.1381 -2.4752  2.2672
  218MOL0     H30084   7.108   0.174  11.327  0.0727 -1.8520  0.6709
  219MOL0     O30085   0.559   1.601   1.418 -0.2888 -0.4110 -0.2848
  219MOL0     C30086   0.672   1.547   1.414  0.2158 -0.3309 -0.7491
  219MOL0     O30087   0.691   1.413   1.449  0.7089 -0.3988  0.3135
  219MOL0     C30088   0.592   1.335   1.497  0.0220  1.1596 -0.7334
  219MOL0     C30089   0.624   1.229   1.594 -0.6518  0.6894  0.4935
  219MOL0     C30090   0.524   1.146   1.634  0.2758  0.1743 -0.0546
  219MOL0     C30091   0.391   1.163   1.601  0.8962  0.4524  1.0133
  219MOL0     O30092   0.300   1.073   1.651 -0.7529  0.1164 -0.5234
  219MOL0     C30093   0.189   1.134   1.724 -1.3975  0.2858  1.6818
  219MOL0     C30094   0.082   1.031   1.754  0.3476  0.0419  0.6256
  219MOL0     C30095   0.127   0.913   1.843  0.7691 -0.3587 -0.1758
  219MOL0     C30096   0.008   0.815   1.864 -0.7966 -0.0268  0.9939
  219MOL0     C30097  -0.049   0.738   1.735 -0.2130 -0.6975 -0.2886
  219MOL0     C30098   0.047   0.640   1.671 -0.4559  0.3623  0.2108
  219MOL0     C30099  -0.025   0.544   1.571  0.4825  0.9164 -0.0960
  219MOL0     C30100   0.062   0.435   1.515 -0.3409 -0.0291 -1.1297
  219MOL0     N30101   0.182   0.484   1.458  0.1018 -0.4509  0.0964
  219MOL0     C30102   0.192   0.596   1.390  0.8227 -0.3397  0.7029
  219MOL0     C30103   0.316   0.613   1.344  0.1199  0.1494  0.3491
  219MOL0     C30104   0.375   0.703   1.244 -0.0001 -0.2765 -0.0062
  219MOL0     C30105   0.490   0.781   1.315  1.1508 -0.1671 -0.6379
  219MOL0     C30106   0.574   0.859   1.224 -1.1691  0.0690  1.2215
  219MOL0     C30107   0.683   0.930   1.299  1.1932 -0.1713  0.7176
  219MOL0     O30108   0.790   0.941   1.212  0.1912 -0.8090  0.7624
  219MOL0     C30109   0.895   1.025   1.238 -1.0995 -0.1368  0.0581
  219MOL0     C30110   0.913   1.089   1.361 -0.2719  0.2910 -0.3559
  219MOL0     C30111   1.007   1.189   1.382  0.3045 -0.7756 -0.5062
  219MOL0     C30112   0.996   1.250   1.514 -0.0716 -0.4567 -0.0956
  219MOL0     C30113   1.110   1.214   1.276 -0.1365 -0.0197 -0.6371
  219MOL0     C30114   1.209   1.324   1.273 -0.5609  0.2296 -0.1819
  219MOL0     O30115   1.245   1.367   1.152 -0.0582 -0.0560 -0.7598
  219MOL0     C30116   1.345   1.462   1.140 -0.3033  0.7985  0.2603
  219MOL0     C30117   1.454   1.467   1.218 -0.8121 -0.7444 -0.8568
  219MOL0     C30118   1.543   1.573   1.194 -0.2701  0.0869 -0.3680
  219MOL0     C30119   1.521   1.665   1.093 -0.9884  0.3545  0.1344
  219MOL0     O30120   1.618   1.755   1.059  0.1009 -0.4598 -0.3494
  219MOL0     C30121   1.612   1.830   0.932 -0.1141  0.5591  0.0107
  219MOL0     C30122   1.763   1.869   0.904  0.0961 -0.1233 -0.1212
  219MOL0     C30123   1.852   1.754   0.888 -0.2264 -0.3162  0.1318
  219MOL0     C30124   1.990   1.781   0.829 -0.7904 -0.0560  0.3467
  219MOL0     C30125   2.018   1.803   0.677  1.3284 -0.5876 -0.1476
  219MOL0     C30126   2.134   1.901   0.644 -0.1686 -0.6310  0.9631
  219MOL0     C30127   2.262   1.865   0.720  0.2085 -1.0055  0.0003
  219MOL0     C30128   2.328   1.725   0.699  0.0474 -0.5616 -0.4169
  219MOL0    Cl30129   2.408   1.718   0.543 -0.1413 -0.0279 -0.2964
  219MOL0     C30130   1.411   1.657   1.014 -1.3221  0.3519  0.3857
  219MOL0     C30131   1.330   1.543   1.033 -0.4839 -0.3680 -0.1989
  219MOL0     O30132   1.246   1.369   1.379 -0.2998 -0.0022 -0.3706
  219MOL0     C30133   1.108   1.132   1.155 -0.0684 -0.2424  0.2591
  219MOL0     C30134   0.987   1.050   1.130  0.6322  0.3427 -0.3558
  219MOL0     N30135   0.377   0.499   1.374 -0.2815  0.5272  0.7914
  219MOL0     N30136   0.299   0.420   1.446 -0.5921  0.2506 -0.5450
  219MOL0     C30137   0.352   1.258   1.507  0.0869 -0.5457  0.6136
  219MOL0     C30138   0.454   1.339   1.455  0.8773 -0.3244 -0.9385
  219MOL0     C30139   0.794   1.616   1.369  0.3888 -0.6197 -0.2777
  219MOL0     C30140   0.879   1.545   1.288 -0.4968 -0.2319  0.0794
  219MOL0     C30141   0.977   1.598   1.206 -0.1280 -0.4961  0.2432
  219MOL0     C30142   0.991   1.739   1.215  0.4502  0.9456  0.4232
  219MOL0     O30143   1.086   1.801   1.141  0.6027  0.4179 -1.0561
  219MOL0     C30144   1.045   1.939   1.103  0.3164 -0.3065 -1.1430
  219MOL0     C30145   1.116   1.998   0.985  1.0391  0.0288 -0.1843
  219MOL0     C30146   1.114   1.905   0.869 -0.5256  0.1440  0.4406
  219MOL0     C30147   1.233   1.934   0.776 -0.5031  0.2813  0.4420
  219MOL0     C30148   1.197   1.894   0.643  0.2856 -0.3077 -0.3927
  219MOL0     C30149   1.167   1.878   0.528  0.4721 -1.0438  0.3938
  219MOL0     C30150   0.925   1.806   1.312  0.3379  0.0945  0.1705
  219MOL0     C30151   0.816   1.754   1.381  0.3240 -0.0660 -0.7866
  219MOL0     C30152   0.741   1.843   1.480  0.1812  0.2902  0.9271
  219MOL0     H30153   0.725   1.202   1.623  0.3377 -1.2010 -3.8837
  219MOL0     H30154   0.549   1.079   1.715  3.0015  0.6888 -0.3827
  219MOL0     H30155   0.150   1.222   1.670  0.1697 -0.6098 -1.1460
  219MOL0     H30156   0.229   1.161   1.822  1.3125 -2.3506  1.4233
  219MOL0     H30157   0.000   1.076   1.811  0.6754 -0.0330  1.1670
  219MOL0     H30158   0.043   0.994   1.660 -1.5537 -0.3625  1.5352
  219MOL0     H30159   0.215   0.861   1.804 -0.3332 -4.3222  2.0707
  219MOL0     H30160   0.142   0.948   1.945 -1.2913  1.5955 -0.4715
  219MOL0     H30161   0.025   0.742   1.943 -0.9870  0.5319  1.5544
  219MOL0     H30162  -0.069   0.885   1.898 -2.6905 -0.9753 -1.1195
  219MOL0     H30163  -0.066   0.812   1.657  3.8374  2.2572  1.2751
  219MOL0     H30164  -0.142   0.691   1.766 -0.7100  0.1906 -0.3982
  219MOL0     H30165   0.126   0.692   1.617 -0.0593 -0.0667  0.3781
  219MOL0     H30166   0.099   0.581   1.747 -0.2478 -2.8481 -2.1883
  219MOL0     H30167  -0.070   0.606   1.492 -0.3909 -0.0249 -0.3522
  219MOL0     H30168  -0.110   0.488   1.612 -0.4126  1.4927 -1.1008
  219MOL0     H30169   0.087   0.371   1.600 -1.7351 -0.4560 -1.0252
  219MOL0     H30170   0.004   0.373   1.447 -2.5426 -0.4930  1.0605
  219MOL0     H30171   0.115   0.671   1.373  2.5386  0.7795 -3.2599
  219MOL0     H30172   0.299   0.775   1.212  0.6165  1.1462  1.5788
  219MOL0     H30173   0.406   0.651   1.152  0.0078  2.4922 -1.6722
  219MOL0     H30174   0.454   0.845   1.395  3.4157 -0.7598  0.9581
  219MOL0     H30175   0.543   0.702   1.370  0.3642 -0.3339 -0.1052
  219MOL0     H30176   0.626   0.791   1.155 -4.1484 -0.5602 -0.6080
  219MOL0     H30177   0.512   0.926   1.162  1.4014  0.2539 -1.3984
  219MOL0     H30178   0.641   1.025   1.335 -0.2948 -0.6118  0.2015
  219MOL0     H30179   0.707   0.877   1.392 -1.0482  1.7182  2.5198
  219MOL0     H30180   0.843   1.071   1.442 -0.2879  0.5367 -0.3162
  219MOL0     H30181   0.953   1.350   1.506 -1.2430 -0.9425 -0.1235
  219MOL0     H30182   1.097   1.263   1.554  0.9012 -0.7058 -2.3234
  219MOL0     H30183   0.939   1.190   1.587 -0.2836 -0.7766 -0.5158
  219MOL0     H30184   1.483   1.384   1.282 -0.3110 -1.9162 -2.5393
  219MOL0     H30185   1.632   1.578   1.257  0.2827 -2.4686 -0.8582
  219MOL0     H30186   1.572   1.767   0.852  0.6171  0.5305 -0.3405
  219MOL0     H30187   1.553   1.922   0.936  0.4503  0.9331 -0.1528
  219MOL0     H30188   1.768   1.934   0.815 -0.0492  0.4622  0.2920
  219MOL0     H30189   1.789   1.920   0.997  2.7256 -1.2849 -0.1474
  219MOL0     H30190   1.806   1.687   0.814 -0.1099  2.3931 -2.6047
  219MOL0     H30191   1.863   1.698   0.981  2.5776  1.7541  1.1903
  219MOL0     H30192   2.053   1.698   0.863 -1.0725 -1.1058 -1.5864
  219MOL0     H30193   2.020   1.877   0.873 -2.4337  0.8535 -0.4425
  219MOL0     H30194   2.033   1.713   0.616  0.4595  0.0384 -1.3140
  219MOL0     H30195   1.936   1.858   0.630  0.5574  1.0445  2.8598
  219MOL0     H30196   2.081   1.991   0.678 -1.5304 -0.4956 -1.3168
  219MOL0     H30197   2.151   1.911   0.537 -1.8283  1.2437  0.8111
  219MOL0     H30198   2.259   1.904   0.822  1.3282 -1.0386  0.0645
  219MOL0     H30199   2.340   1.933   0.685  2.3079  0.0693  5.6065
  219MOL0     H30200   2.247   1.652   0.695 -1.6272  1.2228 -0.3839
  219MOL0     H30201   2.405   1.700   0.773  2.8735  2.2141 -2.1790
  219MOL0     H30202   1.389   1.719   0.928 -1.0621 -2.1003 -1.5363
  219MOL0     H30203   1.249   1.533   0.962 -1.2841  1.6200  0.3829
  219MOL0     H30204   1.183   1.152   1.078  0.1187 -0.6142  0.3409
  219MOL0     H30205   0.982   0.998   1.035 -1.3114 -0.2424  0.0358
  219MOL0     H30206   0.250   1.268   1.473  1.0460 -0.7614 -2.6244
  219MOL0     H30207   0.401   1.415   1.399 -1.9342 -1.3818  0.1158
  219MOL0     H30208   0.875   1.437   1.284  3.8845 -0.7362  2.4322
  219MOL0     H30209   1.048   1.544   1.145  2.7302 -0.7048  3.4418
  219MOL0     H30210   0.936   1.943   1.100  0.3596  1.7241 -1.3289
  219MOL0     H30211   1.084   1.998   1.186 -1.2658  1.5281 -1.6449
  219MOL0     H30212   1.214   2.032   1.020  0.8320 -0.6398  1.1155
  219MOL0     H30213   1.066   2.089   0.951  2.1802  0.9252  0.4620
  219MOL0     H30214   1.114   1.800   0.900  0.2216  0.1871  0.5855
  219MOL0     H30215   1.019   1.926   0.819 -1.1044 -0.6409  1.1735
  219MOL0     H30216   1.323   1.880   0.809  0.9780  2.7454  0.7322
  219MOL0     H30217   1.257   2.041   0.775  1.5191  0.0009  3.3267
  219MOL0     H30218   1.137   1.869   0.425 -0.9690 -1.7413  0.8509
  219MOL0     H30219   0.955   1.909   1.333 -0.8673  0.7733 -1.2718
  219MOL0     H30220   0.807   1.914   1.530  0.6342  0.6275 -0.1178
  219MOL0     H30221   0.658   1.895   1.432 -0.7650 -1.7586  0.2234
  219MOL0     H30222   0.688   1.786   1.557 -2.0580  2.2641  0.9472
  220MOL0     O30223   1.782   8.278   9.993 -0.0779 -0.5745 -0.0577
  220MOL0     C30224   1.803   8.232  10.107  0.4939 -0.5960  0.2139
  220MOL0     O30225   1.807   8.098  10.138  0.4353 -0.3444 -0.2450
  220MOL0     C30226   1.842   8.022  10.031 -0.1388 -0.6517 -0.0106
  220MOL0     C30227   1.980   8.005  10.001  0.0911 -0.2212  0.2648
  220MOL0     C30228   2.020   7.898   9.916  0.0665  0.2934  0.1983
  220MOL0     C30229   1.925   7.816   9.849  0.3270  0.0814  0.3458
  220MOL0     O30230   1.964   7.713   9.776  0.2335  0.3380 -0.0771
  220MOL0     C30231   1.875   7.610   9.727  0.3004  0.1268 -0.3942
  220MOL0     C30232   1.944   7.482   9.681  0.9520 -0.0602 -0.3630
  220MOL0     C30233   2.080   7.515   9.605  0.4941 -0.1315 -0.5276
  220MOL0     C30234   2.156   7.399   9.535 -0.0301  0.7223  0.6189
  220MOL0     C30235   2.200   7.280   9.621  0.0465  0.2274  0.4801
  220MOL0     C30236   2.311   7.344   9.708  0.1622  0.2752  0.0025
  220MOL0     C30237   2.381   7.251   9.808  1.0004  0.0981 -0.2112
  220MOL0     C30238   2.302   7.205   9.925  0.3160  0.4015  0.1136
  220MOL0     N30239   2.387   7.130  10.020 -0.8744  0.3546 -0.5385
  220MOL0     C30240   2.460   7.019   9.986 -0.2391  0.0039  0.6451
  220MOL0     C30241   2.535   7.005  10.094 -0.1249 -0.2270  0.4138
  220MOL0     C30242   2.652   6.912  10.116 -1.0130 -0.5646  0.5897
  220MOL0     C30243   2.772   6.985  10.054 -0.0070  0.3684 -0.6639
  220MOL0     C30244   2.894   7.011  10.150 -0.1910  0.4792  0.5984
  220MOL0     C30245   3.000   7.107  10.073  0.3064 -0.3791 -0.3931
  220MOL0     O30246   3.111   7.140  10.156  0.4419 -0.1410 -0.2299
  220MOL0     C30247   3.233   7.087  10.125  0.3299  0.1367 -0.2385
  220MOL0     C30248   3.313   7.044  10.227 -0.3537 -0.7195  0.6179
  220MOL0     C30249   3.437   6.994  10.189 -0.2575 -0.2472 -0.5298
  220MOL0     C30250   3.521   6.938  10.301  0.6862  0.4016  0.0805
  220MOL0     C30251   3.485   6.988  10.052 -0.6087 -0.9243 -0.0023
  220MOL0     C30252   3.622   6.953  10.014 -0.4367  0.5703 -0.2650
  220MOL0     O30253   3.722   6.984  10.096 -0.1693  0.7338  0.0503
  220MOL0     C30254   3.836   6.917  10.077 -0.3869 -0.1812  0.3210
  220MOL0     C30255   3.934   6.965   9.992  0.5117  1.8540  0.4971
  220MOL0     C30256   4.053   6.892   9.970 -0.2565  0.1425  0.1206
  220MOL0     C30257   4.064   6.769  10.031 -0.4659  0.2126  0.2183
  220MOL0     O30258   4.188   6.713  10.007 -0.2370  0.8625 -0.1378
  220MOL0     C30259   4.235   6.586  10.053 -0.2294 -0.4155  0.3864
  220MOL0     C30260   4.291   6.504   9.939  0.2229 -0.3242 -1.3586
  220MOL0     C30261   4.193   6.460   9.838 -0.2868  0.1204 -0.4700
  220MOL0     C30262   4.265   6.439   9.712 -0.0478  0.9149 -0.0508
  220MOL0     C30263   4.180   6.368   9.602 -0.8607  0.3677  0.2725
  220MOL0     C30264   4.276   6.307   9.500 -0.0820 -0.1823  1.2852
  220MOL0     C30265   4.225   6.167   9.452 -0.4016  0.3558 -0.3523
  220MOL0     C30266   4.108   6.169   9.357 -0.6605  0.4652 -0.5241
  220MOL0    Cl30267   3.959   6.173   9.450  0.3842  0.1646 -0.0827
  220MOL0     C30268   3.975   6.716  10.115  0.1972  0.6557 -0.1450
  220MOL0     C30269   3.859   6.797  10.137  0.8508 -0.6088 -0.6902
  220MOL0     O30270   3.635   6.901   9.905  0.0975  0.5390  0.5733
  220MOL0     C30271   3.403   7.042   9.952  0.2187 -0.2627 -0.0602
  220MOL0     C30272   3.283   7.095   9.996 -0.8419 -0.5319  0.0450
  220MOL0     N30273   2.504   7.100  10.191 -0.3609 -0.2656  0.5483
  220MOL0     N30274   2.425   7.183  10.144 -0.5850 -0.9402  0.4899
  220MOL0     C30275   1.790   7.831   9.889 -0.1818  0.0322  0.1999
  220MOL0     C30276   1.755   7.935   9.973 -0.0197 -0.5583 -0.4807
  220MOL0     C30277   1.814   8.333  10.210 -0.2619 -0.1845 -0.4873
  220MOL0     C30278   1.863   8.462  10.175  0.1802 -0.8705  0.5036
  220MOL0     C30279   1.856   8.563  10.261 -0.2663 -0.3042 -0.2301
  220MOL0     C30280   1.814   8.552  10.398 -0.4093  0.8379  0.4025
  220MOL0     O30281   1.817   8.637  10.497 -0.1138 -0.5449 -0.0873
  220MOL0     C30282   1.842   8.777  10.479  0.6176  0.2394 -0.1459
  220MOL0     C30283   1.912   8.835  10.600  0.5843  0.5919 -0.1939
  220MOL0     C30284   1.819   8.861  10.724 -0.5938 -0.4855  0.0196
  220MOL0     C30285   1.909   8.915  10.842 -0.4188  0.1615 -0.5789
  220MOL0     C30286   1.823   8.948  10.955  0.4741  0.5405  0.7314
  220MOL0     C30287   1.732   8.969  11.030  0.6935 -0.5421  1.3332
  220MOL0     C30288   1.756   8.430  10.428 -0.2637  0.1877  0.1329
  220MOL0     C30289   1.750   8.320  10.341  1.3026  0.0365 -0.0432
  220MOL0     C30290   1.676   8.194  10.379 -0.9333 -0.0170  0.3727
  220MOL0     H30291   2.046   8.071  10.057  0.0683 -1.0094  1.2497
  220MOL0     H30292   2.123   7.884   9.885  0.0313  1.9677 -0.7628
  220MOL0     H30293   1.835   7.651   9.633  0.5226  0.4329 -0.3581
  220MOL0     H30294   1.797   7.574   9.794  0.7652 -2.0757 -0.9609
  220MOL0     H30295   1.967   7.415   9.765 -0.0047 -0.6206 -0.5302
  220MOL0     H30296   1.880   7.416   9.621  0.9524 -1.3672  1.0031
  220MOL0     H30297   2.039   7.583   9.530 -2.7711  0.9359  2.0119
  220MOL0     H30298   2.138   7.578   9.673  0.8766 -2.6179  1.6236
  220MOL0     H30299   2.098   7.349   9.457  1.5183  0.3681 -0.3479
  220MOL0     H30300   2.245   7.435   9.482 -0.6212  0.2119 -0.7766
  220MOL0     H30301   2.229   7.192   9.564 -0.6556  0.8473 -0.8710
  220MOL0     H30302   2.112   7.259   9.683 -0.2678  0.4924  0.1279
  220MOL0     H30303   2.394   7.389   9.652  1.1703  1.4345  2.2869
  220MOL0     H30304   2.262   7.431   9.753  0.6170  1.1018 -1.0338
  220MOL0     H30305   2.461   7.300   9.865 -1.5096  1.9897  1.9129
  220MOL0     H30306   2.418   7.166   9.750 -0.8157  0.3994 -1.8905
  220MOL0     H30307   2.250   7.287   9.974  0.5237  0.6531 -0.0798
  220MOL0     H30308   2.221   7.141   9.890 -0.1570  1.7814 -1.4505
  220MOL0     H30309   2.457   6.967   9.891 -3.2163  1.6454 -0.2852
  220MOL0     H30310   2.622   6.826  10.056 -1.8657  0.5365 -0.6017
  220MOL0     H30311   2.670   6.883  10.220  0.4185  1.3207  0.9320
  220MOL0     H30312   2.801   6.948   9.955 -3.2455  3.5347 -3.0532
  220MOL0     H30313   2.740   7.088  10.040 -4.3510  0.1027  4.3873
  220MOL0     H30314   2.865   7.063  10.242 -2.7651 -0.1193  0.1935
  220MOL0     H30315   2.933   6.920  10.195 -1.8106  0.3244  1.7522
  220MOL0     H30316   3.039   7.062   9.982 -0.1528  2.4425 -2.1168
  220MOL0     H30317   2.950   7.202  10.048 -0.6199 -0.7306  0.0619
  220MOL0     H30318   3.280   7.044  10.330 -2.4060  1.7154  0.0578
  220MOL0     H30319   3.616   6.992  10.310 -0.7198  2.8145  1.4692
  220MOL0     H30320   3.565   6.845  10.264  1.0928  0.3080  0.7710
  220MOL0     H30321   3.466   6.921  10.394  1.7033  0.2021  0.6666
  220MOL0     H30322   3.906   7.058   9.943 -2.0003  1.8956  1.8823
  220MOL0     H30323   4.135   6.928   9.909  2.2742 -3.5726  0.9620
  220MOL0     H30324   4.293   6.612  10.142 -0.5544 -3.1818  1.5019
  220MOL0     H30325   4.154   6.524  10.093  0.2060 -0.3501  1.4011
  220MOL0     H30326   4.368   6.572   9.903  4.0929 -2.4363  2.1364
  220MOL0     H30327   4.349   6.426   9.989 -0.5241  0.4587  0.8916
  220MOL0     H30328   4.106   6.526   9.829  0.5499  1.2901 -0.2601
  220MOL0     H30329   4.167   6.361   9.876 -0.7178  0.7201  0.8413
  220MOL0     H30330   4.358   6.388   9.742  1.8709  3.3053 -1.5833
  220MOL0     H30331   4.300   6.540   9.690  0.3179  0.9323  0.5885
  220MOL0     H30332   4.111   6.295   9.643 -2.3245  0.8440 -1.2409
  220MOL0     H30333   4.118   6.440   9.547  1.3386 -0.1469 -3.2465
  220MOL0     H30334   4.381   6.294   9.528 -0.0892 -0.6033  1.1210
  220MOL0     H30335   4.270   6.370   9.410 -0.0680  0.4407  1.7088
  220MOL0     H30336   4.198   6.101   9.535 -1.5796 -0.4142 -1.3200
  220MOL0     H30337   4.306   6.112   9.402  0.7805 -0.5190  2.3361
  220MOL0     H30338   4.108   6.070   9.310 -4.1933  0.5221 -0.9571
  220MOL0     H30339   4.122   6.252   9.288 -1.5903  1.3401  0.2978
  220MOL0     H30340   3.982   6.625  10.173  0.7199  0.0175 -1.1790
  220MOL0     H30341   3.787   6.772  10.215  2.3574  1.6321  1.5958
  220MOL0     H30342   3.446   7.045   9.852  1.6963  1.8676  0.5490
  220MOL0     H30343   3.217   7.146   9.927  0.1682 -0.2213 -0.7076
  220MOL0     H30344   1.712   7.768   9.850 -0.6827 -0.4571  1.9057
  220MOL0     H30345   1.650   7.942  10.002 -0.3462 -1.1349 -1.4627
  220MOL0     H30346   1.903   8.488  10.078 -0.0798  1.1594  0.8939
  220MOL0     H30347   1.891   8.659  10.225 -2.1190  0.4364 -0.1763
  220MOL0     H30348   1.900   8.785  10.386  0.1154  0.7740 -0.4211
  220MOL0     H30349   1.748   8.826  10.452  1.5402  2.6729  0.8095
  220MOL0     H30350   1.950   8.931  10.563 -5.1474  3.1410 -0.4327
  220MOL0     H30351   1.975   8.751  10.631 -0.7679 -0.3317  0.0819
  220MOL0     H30352   1.747   8.940  10.702  0.2107 -0.0750 -1.3431
  220MOL0     H30353   1.761   8.772  10.750 -1.6713 -0.2448 -1.4343
  220MOL0     H30354   1.958   9.007  10.810  1.0047 -0.8960 -1.6142
  220MOL0     H30355   1.985   8.840  10.868 -2.4609 -2.7079 -2.1807
  220MOL0     H30356   1.649   8.994  11.094 -0.2628 -1.5741  0.5520
  220MOL0     H30357   1.716   8.420  10.528 -0.3795  0.5430  0.1263
  220MOL0     H30358   1.647   8.208  10.484  0.7394 -0.1126  0.8718
  220MOL0     H30359   1.594   8.171  10.310 -1.8761 -0.8721  1.7290
  220MOL0     H30360   1.755   8.118  10.382  0.8931  1.7629 -0.2252
  221MOL0     O30361   1.905   3.125   1.593 -0.3446  0.0746  0.8185
  221MOL0     C30362   1.874   3.166   1.703 -0.6282 -0.3691 -0.5190
  221MOL0     O30363   1.936   3.268   1.767  0.3597  0.0884 -0.4043
  221MOL0     C30364   2.046   3.322   1.703 -0.1293 -0.0955  0.2537
  221MOL0     C30365   2.032   3.456   1.659 -0.5479  0.0280 -0.3445
  221MOL0     C30366   2.149   3.511   1.600  0.5275  0.8978 -0.1021
  221MOL0     C30367   2.279   3.439   1.593 -0.4330 -0.4636 -0.4995
  221MOL0     O30368   2.397   3.477   1.532  0.7813  0.1874  0.4003
  221MOL0     C30369   2.405   3.611   1.479 -0.4140 -0.5770 -0.0687
  221MOL0     C30370   2.537   3.642   1.407 -0.2436 -0.0408 -0.2023
  221MOL0     C30371   2.537   3.787   1.350  0.8145  0.0250  0.4255
  221MOL0     C30372   2.465   3.805   1.214 -0.7722 -0.7472 -0.4205
  221MOL0     C30373   2.317   3.859   1.233 -0.3076  0.4214 -0.0750
  221MOL0     C30374   2.269   3.905   1.096  0.7220 -0.1232 -0.0788
  221MOL0     C30375   2.137   3.994   1.105  0.2636 -0.7583 -0.1209
  221MOL0     C30376   2.014   3.910   1.129  0.3723  0.6396  0.9533
  221MOL0     N30377   1.885   3.980   1.134 -0.1780  0.1109  0.7728
  221MOL0     C30378   1.861   4.064   1.243  0.0797 -0.8067  0.5027
  221MOL0     C30379   1.729   4.102   1.224  0.8281 -0.5155  0.1534
  221MOL0     C30380   1.644   4.192   1.312  0.5099 -0.1664 -0.4468
  221MOL0     C30381   1.560   4.124   1.415  0.3927  0.5627  0.7504
  221MOL0     C30382   1.423   4.091   1.348  0.3959 -0.6691 -0.2277
  221MOL0     C30383   1.339   4.008   1.446  0.6190  0.1323 -0.6477
  221MOL0     O30384   1.200   4.013   1.408  0.1059 -0.7210 -0.2374
  221MOL0     C30385   1.104   3.949   1.491  1.2032  1.2262  0.6258
  221MOL0     C30386   0.968   3.982   1.477  0.1195  0.0751 -1.3284
  221MOL0     C30387   0.858   3.939   1.566 -0.5433  0.0139  0.1254
  221MOL0     C30388   0.719   4.000   1.564  0.0221  0.5377  0.3123
  221MOL0     C30389   0.904   3.858   1.674 -0.4440  0.6010 -0.8760
  221MOL0     C30390   0.808   3.799   1.780 -1.3267 -0.0124  0.5729
  221MOL0     O30391   0.856   3.691   1.846  0.2996  0.0076  0.1080
  221MOL0     C30392   0.798   3.635   1.960 -0.1782 -0.9641 -1.3405
  221MOL0     C30393   0.846   3.695   2.082  0.3635  0.6994 -0.3749
  221MOL0     C30394   0.781   3.651   2.204 -0.7463 -0.6368 -0.1569
  221MOL0     C30395   0.687   3.545   2.203  0.1387  0.1146 -0.8368
  221MOL0     O30396   0.619   3.532   2.318  0.7012  0.1903  0.5634
  221MOL0     C30397   0.490   3.482   2.311  0.6201  0.5352  0.9332
  221MOL0     C30398   0.446   3.444   2.457  0.2576 -0.0099  0.6555
  221MOL0     C30399   0.292   3.428   2.463  0.3597 -0.2699 -0.2132
  221MOL0     C30400   0.229   3.523   2.568  0.4800  0.0011  0.7726
  221MOL0     C30401   0.095   3.465   2.617 -0.4237 -0.6822 -0.5164
  221MOL0     C30402  -0.018   3.482   2.514 -0.9645 -0.2086 -0.6409
  221MOL0     C30403  -0.147   3.425   2.562  0.1727 -0.0512 -0.0116
  221MOL0     C30404  -0.261   3.445   2.464  0.4140  0.0331 -0.8629
  221MOL0    Cl30405  -0.288   3.620   2.467  0.4711 -0.2854  0.0242
  221MOL0     C30406   0.660   3.488   2.083  0.3397  0.0139 -0.5811
  221MOL0     C30407   0.705   3.533   1.962  0.2937  0.0269  0.6128
  221MOL0     O30408   0.704   3.861   1.805 -0.6175  0.5238 -0.1596
  221MOL0     C30409   1.043   3.822   1.692 -0.1601 -0.3581  0.4227
  221MOL0     C30410   1.138   3.865   1.601 -0.2487  0.0574 -0.5199
  221MOL0     N30411   1.678   4.055   1.109  0.5399 -0.2802 -0.4898
  221MOL0     N30412   1.768   3.986   1.049  0.2309 -0.8054  0.1936
  221MOL0     C30413   2.281   3.308   1.646  0.4528  0.1576 -0.6907
  221MOL0     C30414   2.168   3.255   1.711  0.5657  0.8024 -0.5450
  221MOL0     C30415   1.742   3.105   1.757  0.7802  0.4508 -0.7086
  221MOL0     C30416   1.676   3.170   1.867  1.2288 -1.1220  0.2237
  221MOL0     C30417   1.554   3.128   1.906 -0.2472 -0.1906 -0.4471
  221MOL0     C30418   1.490   3.018   1.853  0.2468  1.5366 -0.1798
  221MOL0     O30419   1.368   2.968   1.913 -0.5463  0.8671  0.0915
  221MOL0     C30420   1.331   2.832   1.901  0.0273 -0.2644 -0.1518
  221MOL0     C30421   1.215   2.794   1.994  0.0254  0.6028 -0.6264
  221MOL0     C30422   1.150   2.652   1.981 -0.1576 -0.8073 -0.8078
  221MOL0     C30423   1.212   2.570   2.088  0.1781  0.1402 -1.0683
  221MOL0     C30424   1.167   2.423   2.080  0.0929  0.6182 -0.4173
  221MOL0     C30425   1.122   2.311   2.065 -0.2786  0.4265 -0.0982
  221MOL0     C30426   1.541   2.955   1.738  0.2848  0.5147  0.1580
  221MOL0     C30427   1.668   2.993   1.699 -0.0548  0.1273  0.1427
  221MOL0     C30428   1.718   2.927   1.576  0.1438 -0.5960 -0.3557
  221MOL0     H30429   1.937   3.508   1.657  1.4022  3.9370 -0.4161
  221MOL0     H30430   2.125   3.600   1.543 -1.8164  0.7209  0.5271
  221MOL0     H30431   2.374   3.680   1.557 -0.5664  0.4407 -1.0033
  221MOL0     H30432   2.334   3.626   1.397  0.5509  1.4994 -0.5857
  221MOL0     H30433   2.626   3.652   1.470  1.1558  0.1295 -2.1433
  221MOL0     H30434   2.563   3.569   1.330  2.6298 -2.1309  2.4982
  221MOL0     H30435   2.497   3.862   1.418  0.2135 -0.7934  1.0020
  221MOL0     H30436   2.640   3.815   1.326 -0.0034  0.6618 -2.9666
  221MOL0     H30437   2.525   3.881   1.164 -0.2412 -0.5109  0.5610
  221MOL0     H30438   2.462   3.714   1.154 -5.2458 -1.0755 -0.0878
  221MOL0     H30439   2.309   3.946   1.299 -2.1149 -1.9643  3.1858
  221MOL0     H30440   2.249   3.786   1.278 -0.9521  2.3944  2.3965
  221MOL0     H30441   2.339   3.974   1.047 -1.3208  2.0732 -0.1207
  221MOL0     H30442   2.251   3.821   1.029  2.2724 -0.4966 -0.0732
  221MOL0     H30443   2.125   4.049   1.011  0.9556 -2.4335 -1.2412
  221MOL0     H30444   2.145   4.058   1.193  0.2859 -3.5328  2.0149
  221MOL0     H30445   2.005   3.827   1.059  2.0022  0.1994  1.2420
  221MOL0     H30446   2.029   3.876   1.232  1.6592  2.3148  1.3579
  221MOL0     H30447   1.924   4.091   1.327 -1.6318  1.2047  1.2006
  221MOL0     H30448   1.575   4.246   1.246  1.5638  3.4608  1.1697
  221MOL0     H30449   1.699   4.273   1.360  0.2261 -1.7481  2.8517
  221MOL0     H30450   1.615   4.035   1.445  1.5438  0.5196 -1.2468
  221MOL0     H30451   1.549   4.187   1.504  3.5472  1.3911  0.6553
  221MOL0     H30452   1.367   4.183   1.328  1.1152  0.5731  2.8889
  221MOL0     H30453   1.444   4.039   1.254 -0.6916  2.4315 -2.3520
  221MOL0     H30454   1.364   3.902   1.456  1.6267  0.4471  0.4052
  221MOL0     H30455   1.341   4.049   1.547 -3.6547 -0.5723 -0.0870
  221MOL0     H30456   0.938   4.018   1.378 -1.8961 -1.7256 -1.4376
  221MOL0     H30457   0.696   4.041   1.663 -0.3217 -0.4804  0.6689
  221MOL0     H30458   0.638   3.928   1.548  1.4303 -0.6121 -2.2740
  221MOL0     H30459   0.706   4.078   1.489  2.4537 -0.0623 -0.8279
  221MOL0     H30460   0.912   3.781   2.076 -0.0232  0.8819 -3.1020
  221MOL0     H30461   0.803   3.695   2.301 -1.6907  1.5346 -0.8803
  221MOL0     H30462   0.420   3.554   2.268  0.9098  0.1691 -0.1814
  221MOL0     H30463   0.476   3.396   2.244 -0.5923 -0.8707  2.8766
  221MOL0     H30464   0.498   3.350   2.479  1.1976 -1.2276 -5.0594
  221MOL0     H30465   0.484   3.530   2.513 -2.8046  2.4261 -0.7264
  221MOL0     H30466   0.281   3.321   2.482  1.1229 -0.4946 -0.9599
  221MOL0     H30467   0.244   3.448   2.367 -1.8470  0.9743  1.0677
  221MOL0     H30468   0.202   3.620   2.524  2.0874  0.8534  1.5422
  221MOL0     H30469   0.300   3.550   2.647 -0.0986  2.4752  0.5409
  221MOL0     H30470   0.098   3.362   2.653  1.8531  0.2127  2.2477
  221MOL0     H30471   0.073   3.526   2.706  0.3057  5.3445 -3.9201
  221MOL0     H30472   0.024   3.435   2.425  2.3418  2.3256 -0.6107
  221MOL0     H30473  -0.033   3.587   2.487 -1.0115 -0.5740 -2.0838
  221MOL0     H30474  -0.172   3.488   2.647 -0.7180  0.6868 -0.7915
  221MOL0     H30475  -0.136   3.318   2.581  0.1624 -0.7531 -3.2461
  221MOL0     H30476  -0.353   3.395   2.496  0.7284  1.9301  3.9481
  221MOL0     H30477  -0.236   3.415   2.362 -2.1908  0.9516 -1.8257
  221MOL0     H30478   0.598   3.400   2.071  2.0293 -1.0187 -2.1632
  221MOL0     H30479   0.673   3.492   1.867  0.0219 -0.9239  1.0992
  221MOL0     H30480   1.074   3.770   1.782  1.7445  0.9157  0.5652
  221MOL0     H30481   1.238   3.829   1.619 -1.0509 -1.5402  1.1584
  221MOL0     H30482   2.378   3.258   1.637  1.7459  2.7042 -1.8259
  221MOL0     H30483   2.183   3.161   1.763 -1.5686 -0.2661 -1.7270
  221MOL0     H30484   1.714   3.257   1.918 -0.7712 -0.9035  1.4224
  221MOL0     H30485   1.516   3.173   1.997 -0.0575  0.3668 -0.6387
  221MOL0     H30486   1.303   2.812   1.797 -0.7114 -1.2119  0.2144
  221MOL0     H30487   1.416   2.770   1.930  0.6501  0.3603 -0.6152
  221MOL0     H30488   1.136   2.868   1.980 -0.4267  0.1096 -0.7284
  221MOL0     H30489   1.261   2.801   2.093  0.3206 -1.6522 -0.5596
  221MOL0     H30490   1.041   2.648   1.994  0.0073 -1.1231  0.6821
  221MOL0     H30491   1.186   2.615   1.884 -0.7516  2.2330 -2.3160
  221MOL0     H30492   1.184   2.607   2.187  2.2680  0.0970 -0.4222
  221MOL0     H30493   1.320   2.587   2.083  0.5700 -0.4343  2.7453
  221MOL0     H30494   1.066   2.220   2.052 -0.3058  0.0238  2.3526
  221MOL0     H30495   1.491   2.872   1.689  1.1851 -0.3899  0.7162
  221MOL0     H30496   1.658   2.844   1.539  2.4448 -2.6364  0.1487
  221MOL0     H30497   1.708   3.003   1.499 -2.1225 -0.0726  0.3766
  221MOL0     H30498   1.822   2.898   1.599  0.4310  0.5978 -0.0889
  222MOL0     O30499   6.839   3.123   0.015  0.1783  0.6650  0.1321
  222MOL0     C30500   6.869   3.186   0.114  0.2973  0.7005  0.9089
  222MOL0     O30501   6.990   3.258   0.121 -0.2108 -0.0112 -0.3393
  222MOL0     C30502   7.092   3.207   0.045 -0.0022  0.1022 -0.3510
  222MOL0     C30503   7.127   3.261  -0.085 -0.1236  0.0683 -0.5668
  222MOL0     C30504   7.244   3.211  -0.154 -0.5315  0.0688  0.4706
  222MOL0     C30505   7.329   3.122  -0.091 -0.1023  0.2358 -0.3294
  222MOL0     O30506   7.449   3.096  -0.145 -0.1483 -0.0480 -0.3376
  222MOL0     C30507   7.529   2.981  -0.115  0.2077  0.0016  0.2024
  222MOL0     C30508   7.605   2.933  -0.240 -0.0968  0.0959  0.7088
  222MOL0     C30509   7.744   2.994  -0.262  0.2126 -0.0963  0.5508
  222MOL0     C30510   7.846   2.916  -0.172 -0.4420 -0.1663 -0.1808
  222MOL0     C30511   7.987   2.974  -0.204 -0.1202  0.8813  0.2500
  222MOL0     C30512   8.090   2.925  -0.101  0.1758 -0.8898  0.1260
  222MOL0     C30513   8.179   3.033  -0.055  0.1003 -0.3317  0.0400
  222MOL0     C30514   8.278   3.080  -0.162 -0.0277  0.1331  0.0943
  222MOL0     N30515   8.363   2.979  -0.211 -1.1626  0.6537 -0.3348
  222MOL0     C30516   8.378   2.933  -0.336  0.2167 -1.0450 -0.3154
  222MOL0     C30517   8.489   2.856  -0.334  0.6670 -0.0399 -0.1330
  222MOL0     C30518   8.542   2.749  -0.431  0.2576 -0.3047 -0.3826
  222MOL0     C30519   8.457   2.613  -0.426 -0.2541 -0.9576  0.1309
  222MOL0     C30520   8.485   2.518  -0.545 -0.0207  0.5474  0.1515
  222MOL0     C30521   8.623   2.450  -0.517 -0.2141  0.0685  0.5092
  222MOL0     O30522   8.598   2.350  -0.422 -0.4289 -0.0142 -0.3268
  222MOL0     C30523   8.716   2.322  -0.353 -0.5963  0.0599 -0.9958
  222MOL0     C30524   8.777   2.204  -0.381  0.1137  0.0269 -0.1661
  222MOL0     C30525   8.904   2.178  -0.329  0.5810 -0.6396 -0.3137
  222MOL0     C30526   8.967   2.051  -0.366  0.3470  0.6491 -0.3934
  222MOL0     C30527   8.964   2.269  -0.228  0.1817 -0.1630 -0.5412
  222MOL0     C30528   9.092   2.246  -0.173  0.0595  0.0128 -0.3144
  222MOL0     O30529   9.191   2.215  -0.255 -0.8949  0.0665  0.4559
  222MOL0     C30530   9.318   2.211  -0.214  0.1653  0.0993 -0.4404
  222MOL0     C30531   9.379   2.078  -0.206 -0.2512  0.7748  0.2853
  222MOL0     C30532   9.515   2.073  -0.162  0.5876  0.6731  0.6122
  222MOL0     C30533   9.587   2.190  -0.120 -0.2470  0.3622  0.9405
  222MOL0     O30534   9.715   2.176  -0.066 -0.2321  0.7538 -0.2794
  222MOL0     C30535   9.718   2.156   0.082 -0.2141 -0.2080  0.1947
  222MOL0     C30536   9.858   2.114   0.135  0.7434  0.9710  0.5446
  222MOL0     C30537   9.893   2.186   0.263  0.2922  0.5981 -0.8492
  222MOL0     C30538   9.923   2.335   0.239 -0.3929  0.2161  0.4273
  222MOL0     C30539   9.953   2.410   0.364  0.2467 -0.1699 -0.5026
  222MOL0     C30540   9.978   2.555   0.343  0.6238 -0.5063  0.6676
  222MOL0     C30541   9.971   2.628   0.478  0.6421  1.2484 -0.2515
  222MOL0     C30542  10.038   2.767   0.460 -0.1743  0.7964  0.5737
  222MOL0    Cl30543  10.012   2.865   0.596  0.3253  0.1222  0.1978
  222MOL0     C30544   9.523   2.314  -0.140  0.2303  0.4405  0.0196
  222MOL0     C30545   9.385   2.327  -0.176 -0.0520 -0.1510  0.8638
  222MOL0     O30546   9.102   2.257  -0.055  0.3278  0.0723  0.3593
  222MOL0     C30547   8.888   2.386  -0.195  0.2974 -0.2988  0.0429
  222MOL0     C30548   8.764   2.412  -0.262 -0.9146  0.6761 -0.5748
  222MOL0     N30549   8.537   2.854  -0.202 -0.1851  0.6068  0.2678
  222MOL0     N30550   8.466   2.940  -0.139 -0.1806  0.2174 -0.8197
  222MOL0     C30551   7.275   3.061   0.024 -0.3333  0.5202  0.0360
  222MOL0     C30552   7.164   3.099   0.087  0.6352 -0.9727  0.0340
  222MOL0     C30553   6.774   3.199   0.231  0.3575  0.1385  0.1029
  222MOL0     C30554   6.823   3.265   0.347  0.6831  1.5529  0.4982
  222MOL0     C30555   6.745   3.300   0.453 -0.2383  0.1223 -0.8534
  222MOL0     C30556   6.611   3.286   0.436 -0.9903 -0.9326 -0.4030
  222MOL0     O30557   6.548   3.344   0.545  0.0227  0.4509  0.1966
  222MOL0     C30558   6.419   3.393   0.524  1.1959 -0.1939 -0.1622
  222MOL0     C30559   6.432   3.526   0.438 -0.3954 -0.5641  0.6994
  222MOL0     C30560   6.569   3.607   0.450 -0.1530 -0.2495 -0.0661
  222MOL0     C30561   6.539   3.756   0.419  0.6207 -0.4478 -0.4531
  222MOL0     C30562   6.671   3.816   0.379  0.2375  0.1109 -0.3893
  222MOL0     C30563   6.772   3.879   0.354 -0.4894  0.2020  0.4425
  222MOL0     C30564   6.557   3.209   0.331  0.5550  0.7505 -0.0123
  222MOL0     C30565   6.634   3.175   0.219  0.7639  0.0893  0.1318
  222MOL0     C30566   6.565   3.123   0.095  0.0552 -0.2160 -0.1434
  222MOL0     H30567   7.063   3.338  -0.127  5.2863  3.9924 -2.7870
  222MOL0     H30568   7.278   3.261  -0.245 -0.4171  3.1089  2.0561
  222MOL0     H30569   7.455   2.904  -0.091  1.3267 -0.2021  3.4469
  222MOL0     H30570   7.592   2.990  -0.026  2.0095 -0.8575 -0.9242
  222MOL0     H30571   7.616   2.825  -0.252  3.3703  0.1814  2.0576
  222MOL0     H30572   7.541   2.974  -0.319  1.0445  2.1723  0.7942
  222MOL0     H30573   7.765   2.998  -0.369 -1.2688 -1.7914  0.1658
  222MOL0     H30574   7.732   3.099  -0.233 -1.8058 -0.8438  2.6682
  222MOL0     H30575   7.824   2.926  -0.065  3.8657 -2.2465  1.1133
  222MOL0     H30576   7.853   2.811  -0.201  1.6602  0.0049 -0.4907
  222MOL0     H30577   7.973   3.082  -0.201 -1.3696  0.7346  0.4135
  222MOL0     H30578   8.026   2.948  -0.303 -1.7979  1.0997 -0.5039
  222MOL0     H30579   8.055   2.878  -0.009  0.9268 -1.7447 -0.0161
  222MOL0     H30580   8.150   2.849  -0.151 -2.3570 -0.6238 -3.6482
  222MOL0     H30581   8.229   2.983   0.029  0.0170  0.5175  0.6113
  222MOL0     H30582   8.124   3.122  -0.021 -2.3339 -1.0954 -1.6506
  222MOL0     H30583   8.224   3.127  -0.244  1.5556 -1.6866 -2.1553
  222MOL0     H30584   8.336   3.160  -0.116 -0.3183  0.8075 -0.6836
  222MOL0     H30585   8.317   2.962  -0.421 -0.8104 -0.5281  0.5711
  222MOL0     H30586   8.647   2.725  -0.410 -0.7839 -2.5863  2.9371
  222MOL0     H30587   8.537   2.786  -0.534  2.3117  0.7352 -0.1668
  222MOL0     H30588   8.475   2.558  -0.333 -2.2979  0.8095  1.6785
  222MOL0     H30589   8.349   2.630  -0.422 -0.3168 -1.1450 -0.6483
  222MOL0     H30590   8.395   2.458  -0.560 -0.5520  1.7998 -2.0486
  222MOL0     H30591   8.494   2.583  -0.633  2.1404  0.8587  0.5398
  222MOL0     H30592   8.650   2.406  -0.613 -2.2611  2.4176 -1.2660
  222MOL0     H30593   8.699   2.525  -0.492 -0.0404  0.3206 -0.7476
  222MOL0     H30594   8.742   2.125  -0.446  1.5313  0.5547 -1.6655
  222MOL0     H30595   9.047   2.066  -0.439  2.9985 -2.9642  1.4705
  222MOL0     H30596   8.888   1.980  -0.391 -0.9926  0.4405  3.6214
  222MOL0     H30597   9.021   2.003  -0.284  1.3360 -2.1282 -2.4909
  222MOL0     H30598   9.343   1.981  -0.237  3.3013 -1.2216  1.8384
  222MOL0     H30599   9.564   1.976  -0.160 -2.7832 -1.1630  1.4257
  222MOL0     H30600   9.681   2.246   0.131  1.9048  0.3698  0.8269
  222MOL0     H30601   9.643   2.083   0.113 -1.0079  0.7915  0.6816
  222MOL0     H30602   9.844   2.006   0.151 -0.8836  0.7293 -1.9333
  222MOL0     H30603   9.933   2.127   0.056  2.6696  0.7778  2.2632
  222MOL0     H30604   9.984   2.147   0.309 -0.8905  0.8551  1.8725
  222MOL0     H30605   9.822   2.167   0.344  1.2535  0.1069 -0.1002
  222MOL0     H30606   9.843   2.383   0.181 -0.3458  1.1097  1.0867
  222MOL0     H30607  10.012   2.346   0.176  0.7443 -0.7150  1.8112
  222MOL0     H30608   9.854   2.396   0.409  0.9000  1.3840  1.6191
  222MOL0     H30609  10.041   2.368   0.413  2.1256  2.6180 -1.1945
  222MOL0     H30610   9.908   2.599   0.271  2.9742  0.7692 -0.9617
  222MOL0     H30611  10.066   2.567   0.279 -0.9560 -4.3165 -2.6078
  222MOL0     H30612  10.010   2.573   0.564 -2.7903  1.0264  1.3295
  222MOL0     H30613   9.865   2.643   0.501  1.2578  2.5644  2.1701
  222MOL0     H30614   9.992   2.819   0.374  0.8112  1.5148  0.4637
  222MOL0     H30615  10.144   2.756   0.436 -0.6480  2.2862 -2.8351
  222MOL0     H30616   9.585   2.400  -0.119  0.2733  0.9896 -2.1232
  222MOL0     H30617   9.338   2.425  -0.173 -0.1279 -0.2048  1.6354
  222MOL0     H30618   8.930   2.451  -0.118  0.6074  2.0658 -1.9873
  222MOL0     H30619   8.711   2.501  -0.231 -0.7343 -0.1908  2.5503
  222MOL0     H30620   7.333   2.977   0.059 -0.4296  0.3473 -0.2204
  222MOL0     H30621   7.138   3.052   0.181 -1.3991  0.7416  0.4002
  222MOL0     H30622   6.930   3.283   0.344  0.9378  0.1656 -2.0247
  222MOL0     H30623   6.792   3.344   0.540  1.0941  0.2701 -1.6322
  222MOL0     H30624   6.359   3.316   0.474  0.2359 -1.1370  2.2538
  222MOL0     H30625   6.353   3.416   0.608  0.1251  0.1793 -1.0766
  222MOL0     H30626   6.346   3.592   0.453 -2.4111 -2.8880 -0.0027
  222MOL0     H30627   6.434   3.508   0.330  2.6550  5.1181 -0.6399
  222MOL0     H30628   6.601   3.600   0.554 -1.4539  1.2727  0.4880
  222MOL0     H30629   6.642   3.571   0.377  2.2409  4.1773 -0.2158
  222MOL0     H30630   6.498   3.815   0.500 -1.3696  0.6362 -2.1569
  222MOL0     H30631   6.464   3.775   0.342 -1.2925 -2.6315  0.7442
  222MOL0     H30632   6.864   3.933   0.344 -0.0894 -0.6583 -0.7531
  222MOL0     H30633   6.451   3.189   0.325  0.1175  2.1294  2.0726
  222MOL0     H30634   6.621   3.034   0.066  0.5700  0.1695 -0.3428
  222MOL0     H30635   6.460   3.097   0.111  0.0783 -2.4774 -2.8148
  222MOL0     H30636   6.563   3.196   0.014 -0.5484 -0.5048 -0.3931
  223MOL0     O30637   6.994   0.889  11.319 -0.0969  0.9216  0.0423
  223MOL0     C30638   7.018   0.777  11.283 -0.6295  0.5033 -0.8287
  223MOL0     O30639   7.091   0.740  11.165  0.7135  0.2834 -0.8517
  223MOL0     C30640   7.202   0.818  11.138  0.3453  0.9398 -0.3100
  223MOL0     C30641   7.274   0.887  11.231 -0.1070 -0.9877  0.0707
  223MOL0     C30642   7.397   0.952  11.188  0.5631  0.0073  0.2284
  223MOL0     C30643   7.442   0.936  11.051 -0.1139 -0.2266  0.0238
  223MOL0     O30644   7.565   0.980  11.012 -0.7001  0.6253 -0.0444
  223MOL0     C30645   7.575   1.065  10.896 -0.0296 -0.0187  0.3640
  223MOL0     C30646   7.711   1.144  10.888  0.4232 -0.5515 -0.0568
  223MOL0     C30647   7.737   1.211  11.024  0.7132 -0.0211 -0.2616
  223MOL0     C30648   7.837   1.328  11.016  0.8846  0.7940 -1.0769
  223MOL0     C30649   7.986   1.277  10.988  0.1522 -0.4636  0.0389
  223MOL0     C30650   8.090   1.365  11.071  0.7182  0.3771 -0.2548
  223MOL0     C30651   8.232   1.298  11.079  0.5891 -1.0429  0.6730
  223MOL0     C30652   8.270   1.288  10.927 -0.4223 -0.2422  0.7802
  223MOL0     N30653   8.239   1.158  10.864 -0.0021  0.3592  0.4132
  223MOL0     C30654   8.190   1.152  10.734  0.5740  0.2552  0.2592
  223MOL0     C30655   8.196   1.016  10.697  0.4845  0.7007 -0.3158
  223MOL0     C30656   8.145   0.950  10.575  1.3506 -0.0897 -0.8569
  223MOL0     C30657   8.165   1.034  10.448  0.0355 -0.0099 -0.3501
  223MOL0     C30658   8.134   0.963  10.310 -0.9899 -1.1405 -0.2374
  223MOL0     C30659   7.988   0.911  10.297  0.0150  0.6310 -0.4276
  223MOL0     O30660   7.899   1.014  10.320 -0.3717  0.3299 -0.1671
  223MOL0     C30661   7.766   0.989  10.303 -0.2250  0.8345 -1.8293
  223MOL0     C30662   7.676   1.040  10.398  0.4054  0.2043 -0.1626
  223MOL0     C30663   7.536   1.038  10.387 -0.4743  1.0024  0.0216
  223MOL0     C30664   7.445   1.097  10.498  0.8412 -0.2504 -0.7623
  223MOL0     C30665   7.480   0.953  10.282  0.1337 -1.1108 -0.3601
  223MOL0     C30666   7.335   0.936  10.262 -0.0940  0.0863  0.4847
  223MOL0     O30667   7.267   1.058  10.266  1.1655 -0.2607 -0.7317
  223MOL0     C30668   7.126   1.076  10.242 -0.4540 -0.0733  1.3340
  223MOL0     C30669   7.077   1.207  10.218  0.4672  0.0284  0.3976
  223MOL0     C30670   6.938   1.230  10.200 -0.8658 -0.4286 -0.2004
  223MOL0     C30671   6.848   1.125  10.197  0.2008  0.4394  0.3093
  223MOL0     O30672   6.712   1.134  10.166  0.2187  0.3529  0.2548
  223MOL0     C30673   6.665   1.256  10.108 -0.5394  0.4944  0.4559
  223MOL0     C30674   6.537   1.231  10.032 -0.4377 -0.7768  0.3821
  223MOL0     C30675   6.433   1.190  10.129 -0.2139  0.1915  0.7419
  223MOL0     C30676   6.317   1.111  10.053 -0.5499  0.0879 -0.8961
  223MOL0     C30677   6.218   1.051  10.149 -0.0013 -0.1787  0.0451
  223MOL0     C30678   6.152   1.141  10.249  0.4302  0.0683  0.1891
  223MOL0     C30679   6.078   1.048  10.348 -0.5121 -0.0253  0.2520
  223MOL0     C30680   5.972   1.113  10.446 -1.2480 -0.2248  0.1966
  223MOL0    Cl30681   6.072   1.192  10.574 -0.2072  0.1272  0.2857
  223MOL0     C30682   6.907   1.002  10.216  0.3472  0.0362  0.1254
  223MOL0     C30683   7.037   0.977  10.233 -0.2499  0.5911 -0.4411
  223MOL0     O30684   7.289   0.821  10.242 -0.0387 -0.4727 -0.2690
  223MOL0     C30685   7.566   0.887  10.197  0.0228  0.0490 -0.1801
  223MOL0     C30686   7.706   0.900  10.205 -0.1660 -0.2066  0.5356
  223MOL0     N30687   8.253   0.953  10.808  0.5082  0.7729 -0.3394
  223MOL0     N30688   8.275   1.031  10.906 -0.0599 -0.0052  0.1667
  223MOL0     C30689   7.368   0.863  10.961 -0.3221 -0.2360 -0.7099
  223MOL0     C30690   7.247   0.812  11.006 -0.1955  0.4481  0.1438
  223MOL0     C30691   6.939   0.667  11.352 -0.1125 -0.4931 -1.1356
  223MOL0     C30692   6.914   0.543  11.286 -0.1162 -0.5655 -0.1683
  223MOL0     C30693   6.842   0.435  11.353 -0.4887 -0.8181  0.0741
  223MOL0     C30694   6.801   0.439  11.485 -0.0662 -0.1368  0.4952
  223MOL0     O30695   6.738   0.332  11.542 -0.0331  0.2839  0.3085
  223MOL0     C30696   6.822   0.213  11.551  0.0262  0.4294 -0.1555
  223MOL0     C30697   6.742   0.093  11.497 -0.4499  0.1209  0.5367
  223MOL0     C30698   6.649   0.045  11.608 -0.2623 -0.9547  0.4929
  223MOL0     C30699   6.587  -0.098  11.576 -0.3880 -0.1209 -0.3930
  223MOL0     C30700   6.587  -0.191  11.686  0.5175 -0.2742  0.6901
  223MOL0     C30701   6.608  -0.277  11.771  0.0181  0.0984  0.1550
  223MOL0     C30702   6.821   0.564  11.549 -0.9057  0.2633  0.1944
  223MOL0     C30703   6.890   0.674  11.495 -0.3999 -1.0837 -0.3744
  223MOL0     C30704   6.903   0.803  11.580 -0.1033  0.7583 -0.3683
  223MOL0     H30705   7.244   0.888  11.336  1.4667 -1.4951  0.5537
  223MOL0     H30706   7.462   1.009  11.253 -0.2906  2.5063 -0.9594
  223MOL0     H30707   7.490   1.132  10.886 -0.2599 -0.6821 -4.0403
  223MOL0     H30708   7.570   1.015  10.799 -1.4971  2.2689 -0.8095
  223MOL0     H30709   7.794   1.076  10.865  3.9893  2.8387  1.5154
  223MOL0     H30710   7.691   1.220  10.811  2.7711  1.3886  1.0886
  223MOL0     H30711   7.647   1.261  11.062  0.7298 -0.3407  0.1994
  223MOL0     H30712   7.755   1.132  11.097 -0.7571 -0.1013  0.0482
  223MOL0     H30713   7.807   1.405  10.944 -4.0113  0.8026  0.5663
  223MOL0     H30714   7.833   1.377  11.114 -2.1897 -1.3618  0.0334
  223MOL0     H30715   7.995   1.290  10.880 -1.7950 -2.5132 -0.4483
  223MOL0     H30716   7.988   1.169  11.007  1.2222 -0.2360  1.3317
  223MOL0     H30717   8.099   1.467  11.032  0.3542  0.7858  0.6910
  223MOL0     H30718   8.069   1.391  11.176 -2.4506 -0.0234 -0.6959
  223MOL0     H30719   8.244   1.206  11.136 -0.5507 -2.1744 -0.8103
  223MOL0     H30720   8.294   1.371  11.132 -0.3029  1.2709 -1.2850
  223MOL0     H30721   8.218   1.368  10.873 -1.3164 -0.8107  0.7670
  223MOL0     H30722   8.376   1.314  10.920 -0.4553 -0.5025 -2.3019
  223MOL0     H30723   8.142   1.231  10.678 -1.2411 -1.2315 -0.3775
  223MOL0     H30724   8.044   0.913  10.595 -0.0033  0.9122 -4.8707
  223MOL0     H30725   8.205   0.859  10.568  0.1913 -1.0606  1.0275
  223MOL0     H30726   8.088   1.112  10.453 -0.6470 -0.7272  0.6674
  223MOL0     H30727   8.261   1.087  10.450 -0.5462  1.0592  0.3689
  223MOL0     H30728   8.155   1.031  10.227  2.9003 -2.8916 -0.9143
  223MOL0     H30729   8.205   0.881  10.293  4.2712  2.7094  0.8196
  223MOL0     H30730   7.968   0.870  10.198 -1.2221 -0.4817  0.2580
  223MOL0     H30731   7.969   0.839  10.376 -0.5929  1.1047 -0.1364
  223MOL0     H30732   7.723   1.109  10.468 -0.7710  0.0118  0.8572
  223MOL0     H30733   7.341   1.066  10.487  0.0795  1.4228  1.0820
  223MOL0     H30734   7.436   1.206  10.496 -0.5331 -0.3595 -1.6410
  223MOL0     H30735   7.468   1.062  10.599  2.1270 -0.0116 -0.9607
  223MOL0     H30736   7.147   1.290  10.220  0.9041 -0.2591 -1.0776
  223MOL0     H30737   6.896   1.329  10.188  0.5547  0.4607  1.5165
  223MOL0     H30738   6.654   1.322  10.194  1.2269 -2.0561  2.8242
  223MOL0     H30739   6.748   1.292  10.045 -1.4926  0.3643 -0.9252
  223MOL0     H30740   6.507   1.324   9.982  0.5360 -0.7085 -0.1171
  223MOL0     H30741   6.550   1.151   9.958 -1.3788 -1.4196  0.8959
  223MOL0     H30742   6.379   1.271  10.180 -0.7583 -1.3394  2.7397
  223MOL0     H30743   6.477   1.132  10.211  0.7193 -1.6474 -0.9848
  223MOL0     H30744   6.363   1.045   9.978  0.0207  2.0072 -2.3339
  223MOL0     H30745   6.273   1.183   9.984  3.0165  1.4804 -1.9249
  223MOL0     H30746   6.138   1.008  10.088  0.3729  0.2464 -0.7646
  223MOL0     H30747   6.272   0.969  10.197 -0.9570 -0.8068  0.0702
  223MOL0     H30748   6.072   1.192  10.194  0.4963  0.1428  0.1620
  223MOL0     H30749   6.219   1.207  10.304  0.8564 -0.7535  0.6759
  223MOL0     H30750   6.152   0.996  10.410 -0.3684 -0.9309 -0.6555
  223MOL0     H30751   6.016   0.971  10.302 -2.6337 -0.0488  2.8657
  223MOL0     H30752   5.905   1.042  10.496  1.5933 -1.4813  2.5280
  223MOL0     H30753   5.899   1.180  10.400 -4.1126  0.7154  5.3488
  223MOL0     H30754   6.843   0.914  10.208  0.2682  0.1394 -0.4345
  223MOL0     H30755   7.074   0.878  10.260 -2.5591 -0.3877 -0.6923
  223MOL0     H30756   7.525   0.828  10.116 -0.8045 -0.4971  0.6223
  223MOL0     H30757   7.764   0.859  10.123  0.0318  1.0515  0.0194
  223MOL0     H30758   7.401   0.825  10.864 -0.0989 -0.9688 -0.3501
  223MOL0     H30759   7.187   0.752  10.939  0.3081  0.1643 -0.0569
  223MOL0     H30760   6.945   0.521  11.185  3.1416 -2.1020  1.0311
  223MOL0     H30761   6.849   0.341  11.300 -0.0177 -0.1452 -1.1063
  223MOL0     H30762   6.920   0.224  11.504  0.5753  3.1049  1.4219
  223MOL0     H30763   6.838   0.206  11.659 -2.6939 -0.3177  0.2697
  223MOL0     H30764   6.804   0.008  11.466 -2.0359 -0.5991 -0.8245
  223MOL0     H30765   6.671   0.119  11.418 -0.3778  1.0064  0.7504
  223MOL0     H30766   6.706   0.039  11.701 -0.3439 -1.5226  0.5139
  223MOL0     H30767   6.563   0.112  11.614  0.0940 -0.1030 -2.5320
  223MOL0     H30768   6.639  -0.148  11.494  0.0487 -0.2381 -0.0491
  223MOL0     H30769   6.484  -0.092  11.538  0.6934 -1.7379 -3.9947
  223MOL0     H30770   6.623  -0.364  11.832  1.6229  0.9900  1.0944
  223MOL0     H30771   6.767   0.563  11.644  1.3354 -2.1387  1.6173
  223MOL0     H30772   6.839   0.886  11.547 -1.8393 -0.8280 -1.1727
  223MOL0     H30773   6.865   0.776  11.679 -1.0142  0.7017 -0.7219
  223MOL0     H30774   7.009   0.823  11.597 -0.0275 -0.7640  1.1924
  224MOL0     O30775   3.087   3.182  10.032  0.1484  0.8364  0.1230
  224MOL0     C30776   2.994   3.103  10.020 -0.0504  0.0215  0.4577
  224MOL0     O30777   2.901   3.112   9.920  1.0104 -0.5322  0.1188
  224MOL0     C30778   2.852   3.230   9.870 -0.2964  0.3264  0.1048
  224MOL0     C30779   2.752   3.220   9.772  0.1540  0.1401  0.6527
  224MOL0     C30780   2.702   3.346   9.720  0.6068  1.1668  0.1964
  224MOL0     C30781   2.733   3.475   9.775 -0.7205 -0.1247  0.1542
  224MOL0     O30782   2.657   3.584   9.745  0.2597  0.2659  0.9992
  224MOL0     C30783   2.729   3.712   9.735 -0.4540 -1.2995  0.2595
  224MOL0     C30784   2.835   3.715   9.625  0.1615 -0.1576  0.0818
  224MOL0     C30785   2.928   3.831   9.624 -0.9181  0.6653 -1.9090
  224MOL0     C30786   3.022   3.819   9.504  0.1032  0.6660  0.3135
  224MOL0     C30787   3.126   3.706   9.506  0.3568  0.3036  0.8287
  224MOL0     C30788   3.251   3.719   9.583 -0.5324  0.6525 -0.0672
  224MOL0     C30789   3.365   3.630   9.531 -0.3233  0.3024  0.2575
  224MOL0     C30790   3.498   3.684   9.579  0.1701  0.6588  0.1800
  224MOL0     N30791   3.540   3.804   9.513  1.1454  0.2090 -0.2083
  224MOL0     C30792   3.547   3.808   9.372 -0.3158 -0.2607 -0.1829
  224MOL0     C30793   3.650   3.898   9.355 -0.0985  0.1705  0.2795
  224MOL0     C30794   3.715   3.947   9.232  0.1714 -0.6936  0.8546
  224MOL0     C30795   3.823   3.853   9.200  0.3487 -0.9321  0.8366
  224MOL0     C30796   3.932   3.905   9.098 -0.4615 -0.1950 -0.0584
  224MOL0     C30797   4.025   3.795   9.056  0.4258 -0.2534 -0.5894
  224MOL0     O30798   4.104   3.836   8.940  0.8678  0.0063 -1.0267
  224MOL0     C30799   4.224   3.889   8.968  0.0269  0.5453  0.4263
  224MOL0     C30800   4.258   3.988   8.873 -0.3931 -1.0080  0.0283
  224MOL0     C30801   4.371   4.075   8.897  0.7187  1.0788 -0.9768
  224MOL0     C30802   4.370   4.204   8.819 -0.1537  0.1126  0.1142
  224MOL0     C30803   4.449   4.056   9.017  0.4615 -0.1451  0.6575
  224MOL0     C30804   4.567   4.131   9.038 -0.3139 -0.5205  0.0800
  224MOL0     O30805   4.590   4.171   9.170 -0.5570  0.6174 -0.3478
  224MOL0     C30806   4.689   4.257   9.209 -0.1360 -0.3151  0.2705
  224MOL0     C30807   4.654   4.379   9.254  0.5342 -0.6451 -0.3265
  224MOL0     C30808   4.742   4.470   9.304  1.1113  0.5101  0.1658
  224MOL0     C30809   4.875   4.429   9.312 -0.0759 -0.1772  0.3602
  224MOL0     O30810   4.955   4.504   9.388  0.1038 -0.2307 -0.4962
  224MOL0     C30811   4.969   4.653   9.383  0.6467  0.4397 -0.3179
  224MOL0     C30812   5.099   4.700   9.447 -0.1681 -0.5171  0.1310
  224MOL0     C30813   5.219   4.674   9.355 -0.2922  0.2360  0.0189
  224MOL0     C30814   5.235   4.774   9.243  0.2729 -0.2972  0.5912
  224MOL0     C30815   5.370   4.737   9.173  0.1643 -0.0118  0.0256
  224MOL0     C30816   5.405   4.819   9.044  0.7691 -0.4127  0.3907
  224MOL0     C30817   5.550   4.815   8.995 -0.9453  0.3283 -0.4303
  224MOL0     C30818   5.579   4.902   8.869 -0.2250  0.6174  0.4115
  224MOL0    Cl30819   5.751   4.917   8.853  0.0088  0.1653 -0.4687
  224MOL0     C30820   4.922   4.300   9.272 -0.0294 -0.7004  0.0250
  224MOL0     C30821   4.819   4.218   9.221  0.1931  0.3668 -0.3374
  224MOL0     O30822   4.643   4.147   8.941 -0.1752  0.7564  0.1696
  224MOL0     C30823   4.420   3.953   9.105  0.1925  0.1382  0.2926
  224MOL0     C30824   4.302   3.878   9.091 -0.1556 -0.2094 -0.8852
  224MOL0     N30825   3.712   3.931   9.475  0.4848  1.0662 -0.1857
  224MOL0     N30826   3.637   3.887   9.567 -0.0076  0.7282  0.5297
  224MOL0     C30827   2.815   3.474   9.885 -1.0066  0.6279  0.1874
  224MOL0     C30828   2.886   3.354   9.931 -0.2130 -0.4282 -0.3861
  224MOL0     C30829   2.987   2.986  10.119  0.1768  0.2333  1.0578
  224MOL0     C30830   2.972   2.859  10.074 -0.0151 -0.1576  0.0296
  224MOL0     C30831   2.969   2.749  10.169  0.3031  0.4623 -0.0774
  224MOL0     C30832   2.982   2.772  10.307 -0.0394  0.0976  0.6630
  224MOL0     O30833   3.005   2.667  10.398  0.0708  0.1399  0.6383
  224MOL0     C30834   2.991   2.686  10.535 -1.0419 -0.2287 -0.5963
  224MOL0     C30835   2.940   2.561  10.608 -0.2690  0.2416 -0.1956
  224MOL0     C30836   2.954   2.554  10.762 -0.1615 -0.5613 -0.0619
  224MOL0     C30837   2.924   2.413  10.801  0.2335 -0.4919  0.5415
  224MOL0     C30838   3.038   2.335  10.833 -0.0943  0.6808  0.4773
  224MOL0     C30839   3.130   2.253  10.848  0.1263  0.0615  0.1574
  224MOL0     C30840   2.992   2.902  10.344  0.7740  0.7694 -0.6191
  224MOL0     C30841   2.997   3.011  10.257 -0.8024 -0.0646  0.3561
  224MOL0     C30842   3.031   3.139  10.321 -0.5551 -0.3047 -0.3171
  224MOL0     H30843   2.716   3.122   9.741  1.3974 -0.8962  2.3567
  224MOL0     H30844   2.617   3.340   9.653  0.4566 -0.6445  0.4760
  224MOL0     H30845   2.771   3.742   9.832 -1.3067  0.0378  0.2436
  224MOL0     H30846   2.648   3.785   9.722 -1.5715 -2.1686  1.9473
  224MOL0     H30847   2.903   3.631   9.640  1.1223  0.1249 -2.3195
  224MOL0     H30848   2.795   3.706   9.524  1.2734  0.9828 -0.4804
  224MOL0     H30849   2.884   3.931   9.629  0.0300  1.0412 -0.8149
  224MOL0     H30850   2.983   3.826   9.718 -1.1172  0.0344 -1.8216
  224MOL0     H30851   2.972   3.796   9.410  1.6232  3.1968 -1.2222
  224MOL0     H30852   3.091   3.904   9.501  2.5322 -1.2047 -0.6348
  224MOL0     H30853   3.148   3.694   9.400  0.1867 -0.5916  0.8864
  224MOL0     H30854   3.081   3.611   9.536 -1.1215  1.1213  1.3108
  224MOL0     H30855   3.284   3.820   9.557 -1.0442  0.8283 -0.0428
  224MOL0     H30856   3.227   3.714   9.689  0.9641  3.1699  0.4625
  224MOL0     H30857   3.361   3.635   9.422 -0.3962  0.5952  0.2716
  224MOL0     H30858   3.348   3.527   9.563 -0.2442 -0.1117 -0.9916
  224MOL0     H30859   3.483   3.694   9.687 -0.1404  3.5482 -0.0473
  224MOL0     H30860   3.574   3.607   9.561  0.5431  1.3418 -1.3854
  224MOL0     H30861   3.494   3.752   9.295  2.1573 -0.3098 -1.9853
  224MOL0     H30862   3.755   4.048   9.244 -4.6991  1.6649  0.0999
  224MOL0     H30863   3.641   3.974   9.156 -0.2232 -3.6893  0.0591
  224MOL0     H30864   3.872   3.819   9.291  1.2003 -0.9514  0.3766
  224MOL0     H30865   3.781   3.759   9.160 -0.4304 -0.1312 -0.3069
  224MOL0     H30866   3.876   3.937   9.009  2.2820  1.3131 -1.3840
  224MOL0     H30867   3.988   3.989   9.142  2.1975 -1.6897 -0.3955
  224MOL0     H30868   4.082   3.776   9.148 -2.6112 -2.6929  0.9508
  224MOL0     H30869   3.978   3.699   9.038  1.7990 -1.4033  1.4835
  224MOL0     H30870   4.200   4.022   8.787 -0.1432 -2.5562 -0.7973
  224MOL0     H30871   4.271   4.219   8.775  0.9457 -0.3334 -2.7180
  224MOL0     H30872   4.441   4.192   8.737 -1.2760  1.0182 -1.0352
  224MOL0     H30873   4.401   4.292   8.875  0.6366 -0.6811  0.9710
  224MOL0     H30874   4.551   4.409   9.267  1.4978  2.4400  1.1718
  224MOL0     H30875   4.705   4.563   9.347  1.1295  0.3030  0.6382
  224MOL0     H30876   4.978   4.679   9.277  1.4174 -0.8688 -0.6039
  224MOL0     H30877   4.880   4.698   9.426  0.8882  1.8689 -1.2529
  224MOL0     H30878   5.081   4.808   9.457 -5.1118 -0.9927 -1.1101
  224MOL0     H30879   5.128   4.653   9.542  0.7355  2.6140  1.5459
  224MOL0     H30880   5.218   4.568   9.329 -1.3612  0.2305  0.0332
  224MOL0     H30881   5.312   4.692   9.411  1.9226 -2.0615 -2.6028
  224MOL0     H30882   5.249   4.876   9.279 -1.5763 -0.5677  2.2318
  224MOL0     H30883   5.145   4.775   9.181  0.1099 -2.4818  0.7154
  224MOL0     H30884   5.451   4.757   9.243 -1.2707 -0.0703  1.8002
  224MOL0     H30885   5.361   4.632   9.142  0.8797 -0.2137  0.4938
  224MOL0     H30886   5.382   4.925   9.057 -1.2287 -0.0008 -4.3415
  224MOL0     H30887   5.353   4.783   8.955 -2.1395  1.6117  1.1256
  224MOL0     H30888   5.578   4.709   8.994 -1.5547  0.1347  0.7772
  224MOL0     H30889   5.589   4.853   9.090 -1.0129 -1.4104  0.3305
  224MOL0     H30890   5.526   4.998   8.880 -2.6546 -0.7401  1.3705
  224MOL0     H30891   5.537   4.852   8.782  0.5745  0.5238  0.0727
  224MOL0     H30892   5.024   4.263   9.266 -1.0606 -3.6058 -1.3710
  224MOL0     H30893   4.846   4.120   9.185  0.4051  0.4730 -0.4712
  224MOL0     H30894   4.486   3.931   9.189 -0.9357 -0.2465  1.1106
  224MOL0     H30895   4.275   3.807   9.168 -0.8389  3.3984  2.5019
  224MOL0     H30896   2.833   3.567   9.937 -1.3162 -1.2674  4.0970
  224MOL0     H30897   2.963   3.368  10.007 -0.1303 -1.1820 -0.3284
  224MOL0     H30898   2.964   2.828   9.970  0.3659  1.5369 -0.5215
  224MOL0     H30899   2.963   2.647  10.133  0.8567  0.1759  0.6323
  224MOL0     H30900   3.085   2.721  10.580 -1.2385 -1.7391  1.0535
  224MOL0     H30901   2.919   2.766  10.555 -0.5134  0.2948 -0.7340
  224MOL0     H30902   2.988   2.473  10.564  2.0915  2.0704 -1.5264
  224MOL0     H30903   2.835   2.544  10.581 -0.5490  0.1123  0.9247
  224MOL0     H30904   3.055   2.580  10.793  0.1872 -1.0909 -0.7298
  224MOL0     H30905   2.885   2.620  10.816  1.6744 -0.3079  2.1109
  224MOL0     H30906   2.871   2.356  10.724 -1.6993  0.1619  1.3421
  224MOL0     H30907   2.859   2.420  10.889  1.7743 -1.5283  1.8201
  224MOL0     H30908   3.214   2.196  10.882 -0.6962 -0.6549  1.0571
  224MOL0     H30909   3.011   2.934  10.446  2.1661 -1.3909 -0.1395
  224MOL0     H30910   2.968   3.137  10.410 -1.3005  2.6255 -0.6837
  224MOL0     H30911   3.133   3.152  10.358 -0.0209 -0.3590 -1.7258
  224MOL0     H30912   3.001   3.225  10.260 -2.8894 -0.8499 -0.0413
  225MOL0     O30913   1.806   1.541  10.946 -0.7622  0.1234 -0.0487
  225MOL0     C30914   1.758   1.513  11.057  0.2380 -0.6375 -0.4410
  225MOL0     O30915   1.786   1.583  11.174  0.2505  0.2381 -0.0138
  225MOL0     C30916   1.843   1.705  11.170  0.3205  0.6798 -0.0605
  225MOL0     C30917   1.963   1.721  11.238 -0.0027  0.1020  0.6774
  225MOL0     C30918   2.014   1.855  11.255 -0.0562  0.2826  0.5146
  225MOL0     C30919   1.944   1.963  11.202 -0.4756 -0.2049 -1.1886
  225MOL0     O30920   1.970   2.097  11.216  0.4470 -0.1516  0.1100
  225MOL0     C30921   2.109   2.126  11.207  0.6230 -0.1770 -0.1450
  225MOL0     C30922   2.106   2.274  11.178 -0.2491 -0.3565 -0.1035
  225MOL0     C30923   2.034   2.313  11.048 -0.2715  0.2062  0.6672
  225MOL0     C30924   2.052   2.454  10.999  0.3448  0.1179  0.1455
  225MOL0     C30925   2.010   2.469  10.856  0.1448  0.2287  0.7747
  225MOL0     C30926   2.016   2.618  10.806  0.4197  0.9716  0.5778
  225MOL0     C30927   1.989   2.624  10.657  0.5180  0.3565 -0.6409
  225MOL0     C30928   1.839   2.625  10.630  0.0593  1.2229 -0.4145
  225MOL0     N30929   1.814   2.687  10.495 -0.0877  0.0166 -0.1730
  225MOL0     C30930   1.818   2.626  10.375  0.2897 -0.1298 -0.0892
  225MOL0     C30931   1.832   2.719  10.278 -0.7546  0.4489 -0.5851
  225MOL0     C30932   1.840   2.695  10.134  0.3133 -0.2671  0.5024
  225MOL0     C30933   1.900   2.817  10.052 -0.6602 -0.1115 -0.8758
  225MOL0     C30934   2.052   2.844  10.098  0.8902  0.3081  0.9614
  225MOL0     C30935   2.120   2.966  10.027 -0.8427  0.5506  0.3639
  225MOL0     O30936   2.153   2.936   9.889  0.6528 -0.3565  0.1985
  225MOL0     C30937   2.277   2.886   9.848 -0.0488 -0.0178 -0.2373
  225MOL0     C30938   2.284   2.837   9.719  0.6205  0.4382 -0.2388
  225MOL0     C30939   2.408   2.786   9.667 -0.0973 -0.2586 -0.7132
  225MOL0     C30940   2.399   2.731   9.530  0.3894  0.3203  0.1917
  225MOL0     C30941   2.526   2.796   9.745 -0.8830 -0.3489  0.5633
  225MOL0     C30942   2.656   2.757   9.686  0.0233 -0.1606  0.6863
  225MOL0     O30943   2.764   2.820   9.744  0.9141  0.4720 -0.0303
  225MOL0     C30944   2.895   2.782   9.721 -0.1311 -0.1350 -0.2743
  225MOL0     C30945   2.978   2.878   9.678 -0.1206 -0.3415 -0.3682
  225MOL0     C30946   3.114   2.857   9.665 -0.6153 -0.3859  0.5931
  225MOL0     C30947   3.172   2.726   9.692 -0.7305 -0.1434 -0.1912
  225MOL0     O30948   3.308   2.716   9.670 -0.5287 -0.2114  0.6409
  225MOL0     C30949   3.364   2.586   9.628  0.3779  0.3310  0.2525
  225MOL0     C30950   3.512   2.590   9.610 -0.0261  0.2179 -0.0486
  225MOL0     C30951   3.573   2.652   9.484  0.3038  0.2242  0.2007
  225MOL0     C30952   3.714   2.604   9.478 -1.0165 -0.2219  0.4777
  225MOL0     C30953   3.781   2.654   9.351 -0.1981  0.3139  0.0617
  225MOL0     C30954   3.757   2.806   9.313 -0.7551  0.9088 -0.6799
  225MOL0     C30955   3.820   2.904   9.411 -0.5116 -0.5201  0.5443
  225MOL0     C30956   3.776   3.044   9.367  0.2667  0.6243 -0.5998
  225MOL0    Cl30957   3.791   3.163   9.490  0.2498  0.4429  0.1373
  225MOL0     C30958   3.086   2.627   9.733 -0.2127 -0.6326 -0.3215
  225MOL0     C30959   2.955   2.652   9.747  0.1311 -0.5234  0.1356
  225MOL0     O30960   2.667   2.656   9.623  0.4498 -0.3921  0.1441
  225MOL0     C30961   2.508   2.845   9.872  0.0631  0.1162 -0.4196
  225MOL0     C30962   2.385   2.882   9.932 -0.0402  0.2561 -0.2233
  225MOL0     N30963   1.853   2.841  10.341 -0.3230 -0.0990  0.5585
  225MOL0     N30964   1.835   2.826  10.468 -0.5326 -0.5336 -0.4484
  225MOL0     C30965   1.829   1.937  11.123 -0.7052 -1.1137 -0.3887
  225MOL0     C30966   1.774   1.809  11.114 -0.0050 -0.3288 -0.1289
  225MOL0     C30967   1.681   1.391  11.072 -0.3014 -0.0396 -0.5128
  225MOL0     C30968   1.702   1.286  10.972  0.0780 -0.2688 -0.7375
  225MOL0     C30969   1.630   1.167  10.979 -0.7718  0.6003 -0.3462
  225MOL0     C30970   1.530   1.149  11.078  0.0384  0.1433 -0.5908
  225MOL0     O30971   1.464   1.032  11.064 -0.1778  0.3425  0.2577
  225MOL0     C30972   1.418   0.966  11.184 -0.8620  0.4397 -0.4844
  225MOL0     C30973   1.427   0.809  11.188 -1.2315 -0.6231 -0.0418
  225MOL0     C30974   1.309   0.743  11.122  0.0173 -0.0060  0.6928
  225MOL0     C30975   1.319   0.589  11.130  0.3884  0.4643 -0.9025
  225MOL0     C30976   1.189   0.535  11.112 -0.7074 -0.2529  0.1339
  225MOL0     C30977   1.082   0.487  11.091  0.2111  0.3493  0.1940
  225MOL0     C30978   1.506   1.250  11.170 -0.3670 -0.3041 -0.5205
  225MOL0     C30979   1.577   1.368  11.169 -0.7751 -0.3418  0.3573
  225MOL0     C30980   1.540   1.466  11.276 -0.0043  0.6861  0.0021
  225MOL0     H30981   2.029   1.646  11.282  1.1636  1.2843  1.0003
  225MOL0     H30982   2.093   1.870  11.328  0.7090 -1.5466  0.1126
  225MOL0     H30983   2.147   2.064  11.125  1.7584  0.4675 -0.1159
  225MOL0     H30984   2.168   2.106  11.297 -2.0550  0.2642  1.8404
  225MOL0     H30985   2.081   2.334  11.266  0.4624 -1.3192  0.7744
  225MOL0     H30986   2.210   2.292  11.150 -1.0865  1.7447 -2.2166
  225MOL0     H30987   2.076   2.249  10.970 -1.9427 -0.3494  0.1847
  225MOL0     H30988   1.927   2.292  11.046  0.0001 -1.1735 -1.4257
  225MOL0     H30989   1.985   2.520  11.055 -1.8937 -0.5337 -1.6498
  225MOL0     H30990   2.154   2.494  11.006 -0.2563  1.6076  0.8201
  225MOL0     H30991   1.905   2.440  10.850  0.5064 -0.9574 -0.3210
  225MOL0     H30992   2.068   2.410  10.784 -0.0078  1.7437 -0.6470
  225MOL0     H30993   1.967   2.703  10.855  1.0284  1.1190  0.9512
  225MOL0     H30994   2.119   2.656  10.813  1.6585 -1.5279 -2.1178
  225MOL0     H30995   2.026   2.542  10.594 -0.1173 -0.1678 -0.3372
  225MOL0     H30996   2.018   2.720  10.613 -2.0416  0.0578 -3.2201
  225MOL0     H30997   1.790   2.527  10.630 -2.3226  2.3427  0.1341
  225MOL0     H30998   1.788   2.686  10.706  0.7466 -0.4966  1.5218
  225MOL0     H30999   1.816   2.521  10.348  2.9918  0.0917 -1.4627
  225MOL0     H31000   1.736   2.676  10.106  0.1219 -2.1997  2.2733
  225MOL0     H31001   1.887   2.602  10.100 -2.2627 -0.5942 -2.5976
  225MOL0     H31002   1.888   2.791   9.946 -3.3377  1.5378 -1.0593
  225MOL0     H31003   1.847   2.911  10.072 -0.6335  0.2674 -2.4621
  225MOL0     H31004   2.043   2.885  10.199 -1.0684  1.4387  0.3810
  225MOL0     H31005   2.108   2.751  10.082  1.0428  0.5933 -0.2189
  225MOL0     H31006   2.057   3.056  10.026  0.8338  1.7653 -1.1740
  225MOL0     H31007   2.213   2.995  10.075 -0.1741 -0.6055 -0.1942
  225MOL0     H31008   2.198   2.829   9.653  2.1255  0.1188 -2.2708
  225MOL0     H31009   2.300   2.740   9.485  0.3972 -2.6993 -0.6272
  225MOL0     H31010   2.419   2.625   9.547 -0.0463  0.2312  0.1633
  225MOL0     H31011   2.476   2.774   9.465 -0.3549 -0.5176 -1.3066
  225MOL0     H31012   2.929   2.971   9.648  0.2472  1.2713  3.3984
  225MOL0     H31013   3.169   2.947   9.638 -2.7537  0.2762 -2.0079
  225MOL0     H31014   3.346   2.506   9.702  4.0713 -0.8058  0.1529
  225MOL0     H31015   3.313   2.555   9.537 -0.2070  1.3151  0.2409
  225MOL0     H31016   3.552   2.645   9.696 -1.3483  3.7717 -1.5213
  225MOL0     H31017   3.550   2.489   9.624  0.6790  0.4748 -0.0609
  225MOL0     H31018   3.553   2.759   9.495  1.8663  0.4205  1.3620
  225MOL0     H31019   3.518   2.611   9.398  1.2275 -5.3712  1.8743
  225MOL0     H31020   3.712   2.495   9.481 -0.5244 -0.2449  0.0486
  225MOL0     H31021   3.773   2.638   9.564  2.3381 -1.9855 -0.9600
  225MOL0     H31022   3.885   2.624   9.361 -0.3177  0.2357  1.2108
  225MOL0     H31023   3.754   2.600   9.260  3.7993  0.6323 -1.5203
  225MOL0     H31024   3.652   2.835   9.307 -1.2264 -0.8155 -1.5326
  225MOL0     H31025   3.802   2.819   9.215 -1.4176  4.7168 -0.6248
  225MOL0     H31026   3.929   2.901   9.410 -0.4395  0.7930 -1.7512
  225MOL0     H31027   3.794   2.893   9.517 -1.8319  1.4638  0.4640
  225MOL0     H31028   3.674   3.052   9.328  0.3035  4.4653 -0.2303
  225MOL0     H31029   3.848   3.062   9.287  2.4277  0.6146  1.2404
  225MOL0     H31030   3.123   2.529   9.763 -1.0478 -0.3672  1.7058
  225MOL0     H31031   2.883   2.576   9.773 -1.4850 -0.4502 -3.4461
  225MOL0     H31032   2.598   2.852   9.932 -0.4998 -0.7107  0.5791
  225MOL0     H31033   2.383   2.922  10.033 -3.7491  0.2195 -0.1377
  225MOL0     H31034   1.777   2.025  11.087  0.7405 -1.1995 -2.9525
  225MOL0     H31035   1.674   1.800  11.073 -0.4442  0.7832  0.6775
  225MOL0     H31036   1.767   1.301  10.887  2.8904 -1.1653  1.1223
  225MOL0     H31037   1.633   1.092  10.900  0.0425  0.4733 -0.1965
  225MOL0     H31038   1.477   1.002  11.269 -0.6629 -0.5356 -0.1893
  225MOL0     H31039   1.316   0.992  11.216  0.0620 -0.0646  3.4875
  225MOL0     H31040   1.421   0.789  11.296 -3.1945  0.9035  0.1939
  225MOL0     H31041   1.519   0.760  11.156  0.1215 -0.2594  2.9562
  225MOL0     H31042   1.212   0.775  11.160 -0.3922 -0.8046  0.3241
  225MOL0     H31043   1.327   0.769  11.017  1.1732  2.3482  1.3859
  225MOL0     H31044   1.358   0.552  11.226  1.0674 -0.6460 -1.5905
  225MOL0     H31045   1.387   0.538  11.061  0.6467  0.9899 -1.0463
  225MOL0     H31046   0.984   0.450  11.068 -0.3659 -0.9543  4.0220
  225MOL0     H31047   1.423   1.234  11.238 -0.9039  1.4955 -0.7014
  225MOL0     H31048   1.436   1.455  11.308 -0.0384  0.8523 -0.0486
  225MOL0     H31049   1.603   1.441  11.361  1.4474  0.9145 -0.9552
  225MOL0     H31050   1.542   1.572  11.247  0.7977  0.0650 -2.4919
  226MOL0     O31051   7.688   3.389  10.684 -0.7136 -0.3545 -0.5661
  226MOL0     C31052   7.666   3.475  10.768 -0.2237 -0.1439  0.7844
  226MOL0     O31053   7.756   3.577  10.799  0.1362 -0.0356 -0.8592
  226MOL0     C31054   7.884   3.574  10.764 -0.8147 -0.2108 -0.3146
  226MOL0     C31055   7.984   3.549  10.855  0.5596 -0.2377 -0.6309
  226MOL0     C31056   8.115   3.536  10.818  0.0712 -0.4951  0.3613
  226MOL0     C31057   8.158   3.525  10.682 -0.4624 -0.3913 -0.5299
  226MOL0     O31058   8.289   3.517  10.666 -0.2325  0.2317 -0.9358
  226MOL0     C31059   8.317   3.398  10.582  0.3679  0.5039  0.5341
  226MOL0     C31060   8.463   3.347  10.606  0.5048 -0.1974  0.3884
  226MOL0     C31061   8.579   3.437  10.547  1.0461  0.3081 -0.0413
  226MOL0     C31062   8.723   3.409  10.601  0.0963  0.1047  0.4400
  226MOL0     C31063   8.825   3.485  10.513 -0.0160 -0.8031 -0.4074
  226MOL0     C31064   8.820   3.633  10.509  0.6891 -0.7007 -0.5826
  226MOL0     C31065   8.954   3.705  10.480 -0.7280  0.2769 -0.1705
  226MOL0     C31066   9.003   3.698  10.331 -0.2272  0.2238  0.2385
  226MOL0     N31067   9.143   3.665  10.318  0.1379 -0.0792 -0.2716
  226MOL0     C31068   9.237   3.738  10.387  0.7843  0.1859  0.5063
  226MOL0     C31069   9.348   3.665  10.382  0.5450  0.0421 -0.6794
  226MOL0     C31070   9.474   3.707  10.449 -0.7217 -0.0223 -0.0778
  226MOL0     C31071   9.574   3.785  10.354 -0.3490  0.7868 -0.8914
  226MOL0     C31072   9.521   3.928  10.319  0.4426  0.1351 -0.6479
  226MOL0     C31073   9.640   4.007  10.268  0.3014 -0.1257  0.7896
  226MOL0     O31074   9.620   4.090  10.153 -0.3823  0.1710  0.6015
  226MOL0     C31075   9.615   4.035  10.026 -0.2499  0.8004 -0.7912
  226MOL0     C31076   9.694   3.923   9.976  0.1561  0.0288 -0.2183
  226MOL0     C31077   9.707   3.903   9.841  0.2814  0.3464  0.2793
  226MOL0     C31078   9.803   3.796   9.807  0.0940 -0.0859 -0.4548
  226MOL0     C31079   9.619   3.971   9.752 -0.2047 -0.6983 -0.5678
  226MOL0     C31080   9.608   3.948   9.607  0.1292 -0.1525  0.2476
  226MOL0     O31081   9.728   3.920   9.541  0.0148  0.0418  0.3807
  226MOL0     C31082   9.713   3.909   9.406  0.2077  0.1816  0.1350
  226MOL0     C31083   9.734   4.021   9.326  0.2726 -0.6559 -0.6745
  226MOL0     C31084   9.733   4.011   9.186 -0.1650  0.2539  0.8106
  226MOL0     C31085   9.714   3.886   9.126  0.3382  0.1292  0.2634
  226MOL0     O31086   9.695   3.874   8.993  0.2357 -0.0950  0.2396
  226MOL0     C31087   9.597   3.787   8.943 -0.8309  0.3541 -0.0263
  226MOL0     C31088   9.557   3.846   8.804 -0.0256  0.1049  0.3224
  226MOL0     C31089   9.408   3.813   8.772 -0.5143 -0.0004 -0.3012
  226MOL0     C31090   9.376   3.850   8.637  1.3181 -0.1237  0.3909
  226MOL0     C31091   9.227   3.857   8.618 -0.2450  0.0738  0.0371
  226MOL0     C31092   9.176   3.845   8.466  0.0071  0.4470  0.6906
  226MOL0     C31093   9.198   3.711   8.402 -0.7019  0.4213  0.2915
  226MOL0     C31094   9.132   3.584   8.474  0.0721 -0.6203 -1.1252
  226MOL0    Cl31095   9.126   3.442   8.374  0.2051 -0.1024  0.0918
  226MOL0     C31096   9.698   3.776   9.204 -0.2194  0.3493  1.1043
  226MOL0     C31097   9.698   3.787   9.343 -0.3195  0.0993 -0.3646
  226MOL0     O31098   9.498   3.958   9.551 -0.3779  0.7306  0.0138
  226MOL0     C31099   9.523   4.058   9.806 -0.0493  0.5963  1.1480
  226MOL0     C31100   9.536   4.094   9.937  0.4272  0.6144 -0.1996
  226MOL0     N31101   9.324   3.545  10.314  0.1733  0.6972 -0.1535
  226MOL0     N31102   9.201   3.550  10.276  0.6130 -0.4711  0.1743
  226MOL0     C31103   8.052   3.532  10.596 -0.3382  1.0756 -0.0154
  226MOL0     C31104   7.915   3.552  10.634 -0.6028  0.7695  0.1894
  226MOL0     C31105   7.544   3.474  10.847  0.8648 -0.0361  1.2864
  226MOL0     C31106   7.449   3.577  10.820  0.4462  0.3073 -0.1144
  226MOL0     C31107   7.338   3.586  10.896 -0.3956 -0.1587 -0.3068
  226MOL0     C31108   7.308   3.495  10.995  0.6897  0.3792  0.3753
  226MOL0     O31109   7.198   3.497  11.078  0.4398  0.3642  0.0485
  226MOL0     C31110   7.086   3.595  11.074  0.2749 -1.5392  0.5823
  226MOL0     C31111   6.947   3.524  11.091 -0.1704 -0.5606  0.4564
  226MOL0     C31112   6.891   3.458  10.963 -0.9518 -0.5493 -0.3345
  226MOL0     C31113   6.745   3.409  10.998 -0.7300 -0.9683 -0.3113
  226MOL0     C31114   6.741   3.298  11.098 -0.1159 -0.2386 -0.4116
  226MOL0     C31115   6.762   3.216  11.191  0.0044  0.7559  0.3652
  226MOL0     C31116   7.400   3.394  11.021  0.1353  0.3475  0.4458
  226MOL0     C31117   7.516   3.385  10.944 -0.0064  0.2632 -0.0203
  226MOL0     C31118   7.612   3.266  10.965  0.3430 -0.1135 -0.0628
  226MOL0     H31119   7.970   3.548  10.963  2.3057  1.4109 -0.3352
  226MOL0     H31120   8.184   3.537  10.902 -0.6838  1.3657  1.0136
  226MOL0     H31121   8.298   3.429  10.479 -0.2782  1.8997  1.0440
  226MOL0     H31122   8.251   3.314  10.606  1.1755 -0.5658 -0.8729
  226MOL0     H31123   8.468   3.344  10.715 -1.9941 -1.3374  0.5369
  226MOL0     H31124   8.477   3.244  10.571  0.3370 -0.6696  1.6821
  226MOL0     H31125   8.572   3.418  10.440  0.3705  1.2052 -0.1634
  226MOL0     H31126   8.559   3.542  10.570  1.3041  0.2668  0.3734
  226MOL0     H31127   8.736   3.428  10.708  0.3828 -2.7633  0.9942
  226MOL0     H31128   8.740   3.301  10.594 -0.0669  0.0294  1.1207
  226MOL0     H31129   8.815   3.444  10.412  1.7512  0.1022 -1.0009
  226MOL0     H31130   8.928   3.465  10.546  0.4055  1.7921  0.0925
  226MOL0     H31131   8.760   3.665  10.424 -1.7838 -0.4478  1.1371
  226MOL0     H31132   8.782   3.676  10.602 -1.4518 -4.2566  0.3870
  226MOL0     H31133   9.020   3.646  10.544 -3.6607 -3.5322 -0.2789
  226MOL0     H31134   8.963   3.807  10.516  0.4315  0.1172  0.0302
  226MOL0     H31135   8.955   3.619  10.273  1.9874  1.8268 -4.2284
  226MOL0     H31136   8.984   3.798  10.291 -2.0951  0.2985  1.1899
  226MOL0     H31137   9.225   3.822  10.455 -1.2186  0.1447  0.2457
  226MOL0     H31138   9.513   3.611  10.483 -4.7414 -1.1635  2.0012
  226MOL0     H31139   9.448   3.771  10.534 -0.1067  1.6562 -1.1081
  226MOL0     H31140   9.667   3.800  10.410 -0.8482  0.6680 -0.0179
  226MOL0     H31141   9.587   3.713  10.273 -0.2900  0.6506 -0.7615
  226MOL0     H31142   9.436   3.912  10.252 -0.7390  0.0145  0.8385
  226MOL0     H31143   9.470   3.975  10.403 -2.9405 -0.6148 -2.1254
  226MOL0     H31144   9.665   4.069  10.355 -0.1376 -3.4939  3.5091
  226MOL0     H31145   9.732   3.950  10.254  0.7559  1.0583 -1.6606
  226MOL0     H31146   9.780   3.897  10.037  0.6531 -1.1194 -1.3533
  226MOL0     H31147   9.758   3.725   9.737 -2.6907 -0.0195  1.1064
  226MOL0     H31148   9.814   3.729   9.892 -1.0984  1.2202  0.7957
  226MOL0     H31149   9.893   3.843   9.766  0.4066  0.0873  0.4049
  226MOL0     H31150   9.752   4.127   9.344 -2.3478 -0.2627 -0.0513
  226MOL0     H31151   9.734   4.096   9.118  1.0972 -0.7052 -0.4317
  226MOL0     H31152   9.637   3.686   8.926 -2.0912  0.3659 -4.3836
  226MOL0     H31153   9.507   3.773   9.002  0.8925  0.1944  2.7541
  226MOL0     H31154   9.560   3.955   8.800 -1.3583  0.1088 -1.4422
  226MOL0     H31155   9.622   3.820   8.720  0.8970  1.3473  0.6158
  226MOL0     H31156   9.340   3.857   8.846 -1.0943 -0.9651 -0.2351
  226MOL0     H31157   9.394   3.704   8.779  0.1162 -0.0864 -0.3213
  226MOL0     H31158   9.413   3.775   8.568  0.6930  0.8801 -1.0872
  226MOL0     H31159   9.415   3.948   8.608  0.8938 -0.2496 -0.6453
  226MOL0     H31160   9.183   3.770   8.668  0.0933 -0.3861 -0.4572
  226MOL0     H31161   9.201   3.951   8.668  0.0700  0.1226  0.1078
  226MOL0     H31162   9.230   3.919   8.406 -3.0831  3.4676  1.3593
  226MOL0     H31163   9.071   3.873   8.454  0.4817  1.4097 -1.8174
  226MOL0     H31164   9.303   3.683   8.394 -1.2922 -2.2983  0.9105
  226MOL0     H31165   9.153   3.715   8.302 -0.2572  1.4054  0.1197
  226MOL0     H31166   9.028   3.606   8.498  0.2767 -0.6043 -0.2034
  226MOL0     H31167   9.185   3.564   8.568 -1.8905  1.7221  0.5941
  226MOL0     H31168   9.670   3.677   9.168 -1.9241  1.6196 -1.4547
  226MOL0     H31169   9.692   3.693   9.396 -1.2933 -1.5869 -3.2056
  226MOL0     H31170   9.444   4.103   9.746  0.0533 -2.4670 -1.5699
  226MOL0     H31171   9.468   4.167   9.980 -0.0987 -0.1502  0.2776
  226MOL0     H31172   8.072   3.512  10.491  1.3216 -2.6754  0.8533
  226MOL0     H31173   7.834   3.556  10.562  0.8017 -0.8154 -1.5968
  226MOL0     H31174   7.464   3.633  10.728  1.3194 -1.4622 -1.1062
  226MOL0     H31175   7.265   3.657  10.858  0.6477  1.3635  0.4428
  226MOL0     H31176   7.111   3.664  11.154 -2.4605 -0.3443  0.5142
  226MOL0     H31177   7.080   3.650  10.979 -0.3027 -3.0053 -0.2726
  226MOL0     H31178   6.870   3.592  11.130 -0.1180  0.0736 -0.5214
  226MOL0     H31179   6.961   3.443  11.163  0.8415 -2.9092 -2.1858
  226MOL0     H31180   6.896   3.530  10.881  0.6203  0.5886  0.7007
  226MOL0     H31181   6.941   3.371  10.920 -0.5776 -0.4628 -0.0820
  226MOL0     H31182   6.691   3.379  10.908 -0.3624  1.9511 -1.6127
  226MOL0     H31183   6.687   3.487  11.047  2.5092 -0.1314  2.5544
  226MOL0     H31184   6.789   3.149  11.270  2.6676 -4.0760 -4.0145
  226MOL0     H31185   7.373   3.325  11.100 -1.0886 -2.4431 -2.1685
  226MOL0     H31186   7.614   3.244  11.072  2.4968  2.7674  0.5810
  226MOL0     H31187   7.586   3.176  10.907  3.5235 -1.1959  0.0123
  226MOL0     H31188   7.712   3.295  10.932  1.3973  0.7203  3.4200
  227MOL0     O31189   9.156   8.700   0.158 -0.6645 -0.0472 -0.3744
  227MOL0     C31190   9.073   8.785   0.179 -0.6927 -0.4126  0.3164
  227MOL0     O31191   9.098   8.907   0.234  0.0698  0.2156  0.4334
  227MOL0     C31192   9.223   8.965   0.263 -1.0430  0.2037  0.2112
  227MOL0     C31193   9.341   8.890   0.269  0.4591 -0.0969 -0.3420
  227MOL0     C31194   9.468   8.953   0.272  0.4442 -0.0358 -0.5869
  227MOL0     C31195   9.475   9.099   0.279  0.3336  0.3788 -1.1520
  227MOL0     O31196   9.584   9.177   0.291  0.2383 -0.6766 -0.2808
  227MOL0     C31197   9.707   9.132   0.246 -0.9436 -0.0414 -0.6608
  227MOL0     C31198   9.821   9.205   0.324  0.3793  0.2426 -0.9222
  227MOL0     C31199   9.838   9.140   0.464  0.2351 -0.1749 -0.7088
  227MOL0     C31200   9.936   9.225   0.547 -0.3251  0.7039 -0.7933
  227MOL0     C31201   9.997   9.138   0.644 -0.0032  0.3253 -0.3151
  227MOL0     C31202  10.094   9.209   0.748 -0.1059 -0.0411 -0.5036
  227MOL0     C31203  10.174   9.126   0.847 -0.0318 -0.0473 -0.8764
  227MOL0     C31204  10.093   9.056   0.956 -0.5925 -1.0668 -0.7734
  227MOL0     N31205  10.193   8.999   1.043 -0.2428 -0.3076 -0.0469
  227MOL0     C31206  10.228   9.053   1.169 -0.1297 -0.7725 -0.2106
  227MOL0     C31207  10.283   8.952   1.241  0.5940  0.3178 -0.3659
  227MOL0     C31208  10.355   8.965   1.369  0.3017  1.0606  0.1652
  227MOL0     C31209  10.272   8.937   1.492  0.7965 -0.7742  0.0465
  227MOL0     C31210  10.343   8.975   1.619 -0.3254  0.1970 -1.1434
  227MOL0     C31211  10.276   8.924   1.738  0.4122  0.2566  0.2021
  227MOL0     O31212  10.134   8.936   1.714  0.5043 -0.3766  0.8476
  227MOL0     C31213  10.053   8.929   1.821  0.1706  1.1831 -0.0799
  227MOL0     C31214   9.920   8.963   1.792 -1.1931 -0.1274 -0.6032
  227MOL0     C31215   9.822   8.966   1.892  0.2759  0.1807  0.2697
  227MOL0     C31216   9.686   9.016   1.864  0.7547 -0.1422  0.3625
  227MOL0     C31217   9.851   8.913   2.022  0.6642 -0.2564  2.1105
  227MOL0     C31218   9.756   8.903   2.132 -0.1930  0.0156 -0.1901
  227MOL0     O31219   9.629   8.943   2.120  0.1125  0.7429 -0.6255
  227MOL0     C31220   9.540   8.851   2.176  0.3495  0.2490  0.8412
  227MOL0     C31221   9.544   8.820   2.315 -0.5500  0.0352 -1.0872
  227MOL0     C31222   9.464   8.722   2.381  0.5241 -0.2607  0.1886
  227MOL0     C31223   9.378   8.653   2.300  0.5891  0.2711 -0.5519
  227MOL0     O31224   9.303   8.560   2.367  0.9323  0.4291 -0.4180
  227MOL0     C31225   9.303   8.424   2.323 -0.2446 -0.3374 -0.2551
  227MOL0     C31226   9.440   8.377   2.317 -0.4181 -0.5938  0.0726
  227MOL0     C31227   9.461   8.233   2.275 -0.3675 -0.7891  0.3566
  227MOL0     C31228   9.610   8.198   2.262 -0.3840 -0.3096 -0.1302
  227MOL0     C31229   9.625   8.064   2.176  0.3762  0.5179 -0.3557
  227MOL0     C31230   9.570   7.947   2.242  0.4114  0.4219  0.2941
  227MOL0     C31231   9.573   7.829   2.137  0.2998 -0.2945 -0.7745
  227MOL0     C31232   9.583   7.704   2.207 -1.0081 -0.4885 -0.2949
  227MOL0    Cl31233   9.586   7.565   2.103  0.2822 -0.9221  0.4142
  227MOL0     C31234   9.371   8.678   2.160 -1.3811 -0.4714  0.1787
  227MOL0     C31235   9.455   8.775   2.093  0.3774  0.0978  0.5033
  227MOL0     O31236   9.808   8.868   2.233 -0.2420  1.1641 -0.4858
  227MOL0     C31237   9.986   8.888   2.048  1.1895  0.0756 -0.8639
  227MOL0     C31238  10.083   8.893   1.946 -0.0441  0.4683 -0.3321
  227MOL0     N31239  10.265   8.835   1.164  0.5940  0.6526  0.4921
  227MOL0     N31240  10.215   8.864   1.046  0.0437  0.3905 -0.3867
  227MOL0     C31241   9.348   9.167   0.285 -0.5796 -0.1060 -0.6019
  227MOL0     C31242   9.228   9.103   0.267  0.1365 -1.4110  0.4753
  227MOL0     C31243   8.933   8.745   0.151  0.6109 -0.5767 -0.5107
  227MOL0     C31244   8.907   8.673   0.030  0.0020 -0.7167  0.1555
  227MOL0     C31245   8.779   8.639  -0.003  0.1030  0.0366  0.2821
  227MOL0     C31246   8.666   8.665   0.071 -0.0363 -0.2217 -0.7278
  227MOL0     O31247   8.544   8.624   0.030  0.3149 -0.2314 -0.8025
  227MOL0     C31248   8.427   8.656   0.096  1.7022 -0.1183 -0.0558
  227MOL0     C31249   8.397   8.808   0.104 -0.0454 -0.2727  0.0783
  227MOL0     C31250   8.248   8.829   0.072 -0.6359  0.8153 -0.2069
  227MOL0     C31251   8.203   8.817  -0.068 -0.1201 -0.2130  0.6629
  227MOL0     C31252   8.274   8.907  -0.157  0.2438  0.1255 -0.7282
  227MOL0     C31253   8.352   8.975  -0.227 -0.2677 -0.2325 -0.3488
  227MOL0     C31254   8.694   8.737   0.191 -0.4888 -0.1984 -0.2121
  227MOL0     C31255   8.825   8.774   0.235  0.3696 -0.0982 -0.1606
  227MOL0     C31256   8.840   8.869   0.348 -0.8707  0.2479  0.4791
  227MOL0     H31257   9.356   8.783   0.273  3.3299  0.2397  2.0081
  227MOL0     H31258   9.558   8.893   0.274  1.9093  1.9063 -2.7355
  227MOL0     H31259   9.709   9.157   0.140  1.6823  0.3181 -0.5894
  227MOL0     H31260   9.722   9.024   0.255  1.1028  0.1869 -0.8662
  227MOL0     H31261   9.915   9.202   0.269 -0.3453  3.3942 -2.5682
  227MOL0     H31262   9.792   9.311   0.330  0.9327  0.4537 -1.7604
  227MOL0     H31263   9.747   9.127   0.524  0.9988 -2.5436  0.0568
  227MOL0     H31264   9.893   9.047   0.444  1.2077  0.3938 -0.7295
  227MOL0     H31265  10.020   9.257   0.485 -0.1842  1.5797 -0.1518
  227MOL0     H31266   9.884   9.307   0.597 -1.3409 -0.1636 -0.3820
  227MOL0     H31267  10.053   9.065   0.585 -0.1170  0.7976 -1.0179
  227MOL0     H31268   9.915   9.097   0.704 -0.2511  1.6927  0.3378
  227MOL0     H31269  10.166   9.261   0.684 -1.3621  2.6014  0.0627
  227MOL0     H31270  10.035   9.281   0.806  0.2608  1.6009 -2.0807
  227MOL0     H31271  10.227   9.200   0.908  0.8481 -1.5168  0.1986
  227MOL0     H31272  10.247   9.065   0.793  2.7999  2.2909  0.0422
  227MOL0     H31273  10.042   9.133   1.014 -0.3856  0.8085 -2.9363
  227MOL0     H31274  10.038   8.976   0.904  1.6617 -1.9872 -1.8714
  227MOL0     H31275  10.219   9.155   1.205 -0.0512 -0.6200 -0.6102
  227MOL0     H31276  10.409   9.060   1.374  1.5289  0.3317  1.2268
  227MOL0     H31277  10.424   8.880   1.367  1.3304  1.8137 -3.0122
  227MOL0     H31278  10.178   8.993   1.484  0.5913 -1.3173 -1.9123
  227MOL0     H31279  10.246   8.831   1.506 -0.9455 -0.0456  3.5073
  227MOL0     H31280  10.447   8.944   1.611 -0.1021  0.7919 -0.6511
  227MOL0     H31281  10.334   9.084   1.631 -1.2535 -0.0070  0.3617
  227MOL0     H31282  10.291   8.815   1.743  0.2834  0.1212 -1.5810
  227MOL0     H31283  10.299   8.981   1.828 -0.4655 -0.1892  0.7272
  227MOL0     H31284   9.906   9.002   1.692  1.2505 -0.5378 -1.1697
  227MOL0     H31285   9.663   9.089   1.942 -1.1874  1.4631 -1.5890
  227MOL0     H31286   9.627   8.925   1.868 -1.2362  1.0449 -0.4813
  227MOL0     H31287   9.669   9.053   1.763 -1.8305 -1.4536  0.2503
  227MOL0     H31288   9.607   8.879   2.381 -2.3399 -1.4913  2.2146
  227MOL0     H31289   9.458   8.710   2.488 -4.2782  0.9965  0.2795
  227MOL0     H31290   9.247   8.357   2.389 -2.0279  0.0162 -1.3219
  227MOL0     H31291   9.267   8.412   2.220 -0.7324  2.3011 -0.4465
  227MOL0     H31292   9.483   8.430   2.232  0.0138 -1.9400 -0.5784
  227MOL0     H31293   9.488   8.401   2.412  2.6708 -0.4172 -1.4085
  227MOL0     H31294   9.396   8.208   2.190 -0.3880 -1.6441  0.6124
  227MOL0     H31295   9.432   8.176   2.363 -2.9116  1.6798  1.2442
  227MOL0     H31296   9.636   8.177   2.366 -0.2494  0.6865  0.0450
  227MOL0     H31297   9.673   8.278   2.224 -0.4416  0.3564  1.1298
  227MOL0     H31298   9.585   8.087   2.077  0.5134  1.0171 -0.2952
  227MOL0     H31299   9.733   8.047   2.174  0.0511 -3.0184  2.3108
  227MOL0     H31300   9.469   7.951   2.285  0.1444 -1.0415 -0.1466
  227MOL0     H31301   9.633   7.916   2.326  2.9477  2.1876 -0.8223
  227MOL0     H31302   9.662   7.831   2.074  0.1222 -2.8423 -1.2318
  227MOL0     H31303   9.486   7.824   2.070  1.3335 -0.5473 -2.1520
  227MOL0     H31304   9.489   7.689   2.261 -2.2252  1.3529 -1.7559
  227MOL0     H31305   9.672   7.712   2.271 -1.2074 -0.7264  0.0152
  227MOL0     H31306   9.300   8.617   2.105 -0.6176 -0.1197 -1.2605
  227MOL0     H31307   9.464   8.798   1.988 -1.8385 -0.9104  0.0374
  227MOL0     H31308  10.014   8.843   2.143 -0.3910 -2.5155 -1.5249
  227MOL0     H31309  10.179   8.858   1.982 -1.4126 -1.9177  1.2664
  227MOL0     H31310   9.360   9.275   0.278 -0.1468 -0.1156 -0.1168
  227MOL0     H31311   9.141   9.164   0.242  0.8846 -0.4732  0.0717
  227MOL0     H31312   8.990   8.648  -0.034 -1.1600 -0.9015 -1.3544
  227MOL0     H31313   8.760   8.589  -0.097 -0.2055  1.5375 -0.4896
  227MOL0     H31314   8.346   8.606   0.043 -1.3787  1.2383  3.0071
  227MOL0     H31315   8.428   8.622   0.200 -1.5399 -3.3856 -0.8973
  227MOL0     H31316   8.458   8.867   0.035  1.3893  0.3038  1.7630
  227MOL0     H31317   8.422   8.845   0.205  0.6395  1.7268 -0.7723
  227MOL0     H31318   8.187   8.770   0.140  0.3868  0.0059  0.0328
  227MOL0     H31319   8.230   8.934   0.098 -0.9214 -0.0803  3.6783
  227MOL0     H31320   8.098   8.848  -0.060  0.4751  1.4126  3.2661
  227MOL0     H31321   8.217   8.717  -0.110  0.2709  0.0194  0.2288
  227MOL0     H31322   8.417   9.033  -0.289 -0.4035  0.5098  0.1777
  227MOL0     H31323   8.618   8.755   0.265  2.9821 -2.0509  4.2748
  227MOL0     H31324   8.752   8.883   0.411 -1.7633  0.5516 -0.8083
  227MOL0     H31325   8.924   8.840   0.412 -0.0479  2.6452  0.5946
  227MOL0     H31326   8.880   8.963   0.308  0.2739 -0.1479  0.6365
  228MOL0     O31327   5.825   3.221   3.496  0.5164 -0.2502  0.0488
  228MOL0     C31328   5.710   3.260   3.468 -0.4213  0.1372 -0.4526
  228MOL0     O31329   5.657   3.382   3.487 -0.1254 -0.2150 -0.0430
  228MOL0     C31330   5.726   3.490   3.555  0.1942  0.9160 -0.4244
  228MOL0     C31331   5.817   3.469   3.665  0.1600  0.4668 -0.2968
  228MOL0     C31332   5.892   3.575   3.703  0.3885  0.1140  0.6660
  228MOL0     C31333   5.887   3.699   3.638  0.4334 -0.2693 -0.4113
  228MOL0     O31334   5.951   3.815   3.676  0.0861 -0.0125 -0.3748
  228MOL0     C31335   6.078   3.789   3.740 -0.1336 -0.4952 -0.5909
  228MOL0     C31336   6.141   3.923   3.758 -0.1470 -0.3073  0.1847
  228MOL0     C31337   6.292   3.899   3.775  0.6386  0.6069 -0.7025
  228MOL0     C31338   6.360   4.031   3.754 -0.9211 -0.5675  0.4615
  228MOL0     C31339   6.506   4.053   3.801  0.0973 -0.8568 -0.1458
  228MOL0     C31340   6.605   3.950   3.763 -0.0761  0.2556  0.8077
  228MOL0     C31341   6.747   3.987   3.804  0.4061 -0.6790 -0.0664
  228MOL0     C31342   6.863   3.896   3.747  0.1058 -0.4087 -0.3112
  228MOL0     N31343   6.994   3.936   3.795 -0.1468 -0.4693  0.7204
  228MOL0     C31344   7.044   3.928   3.921  0.2059  0.7778 -1.0163
  228MOL0     C31345   7.172   3.972   3.912  0.6250  0.3588  0.0555
  228MOL0     C31346   7.272   3.978   4.026 -0.6944  0.3290 -0.5686
  228MOL0     C31347   7.360   3.846   4.035 -0.6485  0.1857 -1.2595
  228MOL0     C31348   7.414   3.834   4.177 -0.5030  0.6625  0.1311
  228MOL0     C31349   7.505   3.710   4.205 -0.5228 -0.3424  0.2688
  228MOL0     O31350   7.618   3.729   4.117 -0.7568  0.3092  0.2349
  228MOL0     C31351   7.719   3.633   4.099 -0.3678  1.0815  0.2932
  228MOL0     C31352   7.742   3.521   4.174  0.2859  0.5942  0.5152
  228MOL0     C31353   7.858   3.438   4.175 -0.5642  0.1372 -0.0563
  228MOL0     C31354   7.857   3.330   4.278 -0.1335  0.0156  0.5733
  228MOL0     C31355   7.950   3.472   4.070  0.1685  0.3020 -0.9684
  228MOL0     C31356   8.074   3.392   4.053 -0.2328  0.2588  0.1058
  228MOL0     O31357   8.141   3.410   3.940 -0.8142 -1.0054  0.2287
  228MOL0     C31358   8.265   3.342   3.927 -0.0985 -0.2605 -0.1282
  228MOL0     C31359   8.267   3.216   3.859 -0.4320  0.0031  0.3233
  228MOL0     C31360   8.393   3.147   3.847 -0.1560 -0.1701  0.7224
  228MOL0     C31361   8.519   3.205   3.881 -0.8654  0.1261  0.4676
  228MOL0     O31362   8.642   3.141   3.873 -0.5905 -0.0128  0.4212
  228MOL0     C31363   8.642   3.000   3.825 -0.4163 -0.8413 -0.5758
  228MOL0     C31364   8.779   2.954   3.817 -0.0028 -0.3676  0.2320
  228MOL0     C31365   8.798   2.820   3.739  0.6551  0.7254  0.7272
  228MOL0     C31366   8.946   2.780   3.761  0.2361 -0.0928 -0.4393
  228MOL0     C31367   8.979   2.659   3.675 -0.5275  0.6075  0.8838
  228MOL0     C31368   9.126   2.606   3.692  0.7163  0.1858  0.1840
  228MOL0     C31369   9.157   2.547   3.830  0.8750 -0.8257  0.8468
  228MOL0     C31370   9.298   2.497   3.832 -0.3978  1.1358 -0.3454
  228MOL0    Cl31371   9.324   2.356   3.733 -0.3124 -0.0813 -0.0226
  228MOL0     C31372   8.517   3.334   3.944  0.1919  0.2109  0.3914
  228MOL0     C31373   8.393   3.393   3.975 -0.8420 -0.1340  0.4890
  228MOL0     O31374   8.100   3.310   4.137 -0.0718  0.4011 -0.0687
  228MOL0     C31375   7.925   3.581   3.984 -0.8978 -0.6470 -0.2154
  228MOL0     C31376   7.808   3.662   4.002  0.2670 -0.1656  0.2403
  228MOL0     N31377   7.196   4.019   3.784 -0.4909 -0.1665 -0.4147
  228MOL0     N31378   7.084   3.999   3.721  0.2594 -0.1695  0.7722
  228MOL0     C31379   5.784   3.715   3.543  0.3072 -0.1551  1.0808
  228MOL0     C31380   5.710   3.608   3.490 -0.4872  0.0403 -0.2966
  228MOL0     C31381   5.629   3.185   3.368  0.6848  0.2847  0.0374
  228MOL0     C31382   5.545   3.257   3.279  0.0250  0.2987  0.1524
  228MOL0     C31383   5.454   3.187   3.201 -0.1916  0.1845 -0.3128
  228MOL0     C31384   5.453   3.052   3.195  0.9604  1.4044 -0.0718
  228MOL0     O31385   5.368   2.973   3.120  0.1453 -0.0461  0.1273
  228MOL0     C31386   5.262   3.027   3.039  0.8132 -0.1608  0.5716
  228MOL0     C31387   5.236   2.922   2.937  0.6152 -0.2704  0.2977
  228MOL0     C31388   5.132   2.982   2.846 -0.6472 -0.3792 -0.8009
  228MOL0     C31389   5.103   2.896   2.722 -0.5022  0.6623 -0.7128
  228MOL0     C31390   5.093   2.746   2.764  0.4432 -0.3692  0.8966
  228MOL0     C31391   5.070   2.634   2.800 -0.2358 -0.8526 -1.0294
  228MOL0     C31392   5.543   2.974   3.270  0.3674 -0.4572  0.9921
  228MOL0     C31393   5.636   3.038   3.354  0.1480 -0.0448 -0.1050
  228MOL0     C31394   5.720   2.948   3.437  0.4398  0.0484  0.4133
  228MOL0     H31395   5.834   3.366   3.695 -3.4033 -0.2895 -0.4442
  228MOL0     H31396   5.960   3.565   3.787 -1.2091  1.1570  2.1546
  228MOL0     H31397   6.132   3.721   3.673  1.1877  0.5257 -0.6027
  228MOL0     H31398   6.061   3.746   3.839  2.2343 -1.4785 -0.5455
  228MOL0     H31399   6.113   3.990   3.676 -0.5023 -0.4782  0.1646
  228MOL0     H31400   6.103   3.969   3.849 -1.6791 -0.6574 -0.2609
  228MOL0     H31401   6.323   3.850   3.867 -0.9883  0.9715  0.0724
  228MOL0     H31402   6.316   3.825   3.697 -1.5491 -0.5276 -0.3844
  228MOL0     H31403   6.367   4.045   3.646  1.9832  1.0482  0.7355
  228MOL0     H31404   6.297   4.115   3.783  0.7757  0.5235  1.1511
  228MOL0     H31405   6.512   4.080   3.906 -2.1977 -1.2723  0.1454
  228MOL0     H31406   6.538   4.149   3.759 -1.1999 -0.2434  0.1933
  228MOL0     H31407   6.584   3.851   3.804  0.9996 -1.2959 -2.0497
  228MOL0     H31408   6.595   3.937   3.655  0.2051  1.0481  0.6814
  228MOL0     H31409   6.755   3.983   3.913 -2.8177  1.5088  0.3671
  228MOL0     H31410   6.779   4.088   3.774 -1.5415  0.9313  2.7726
  228MOL0     H31411   6.842   3.789   3.762 -3.0908 -0.0921 -1.5473
  228MOL0     H31412   6.858   3.922   3.641  0.7821  3.6205  0.4904
  228MOL0     H31413   7.001   3.895   4.015 -0.8517  0.2348 -1.6763
  228MOL0     H31414   7.217   3.985   4.120 -1.1610 -0.9253 -0.7265
  228MOL0     H31415   7.333   4.067   4.006  1.7613 -0.7950  1.4426
  228MOL0     H31416   7.292   3.765   4.008 -2.4218  1.6828 -1.5044
  228MOL0     H31417   7.438   3.870   3.963  1.2442  0.0324  0.6353
  228MOL0     H31418   7.471   3.922   4.207  0.3063  0.0844  0.3129
  228MOL0     H31419   7.332   3.826   4.249 -1.9001 -0.0994 -1.4695
  228MOL0     H31420   7.534   3.698   4.310 -2.1097  1.1600  0.9198
  228MOL0     H31421   7.451   3.621   4.172  2.4657 -1.9234 -0.7176
  228MOL0     H31422   7.672   3.503   4.255 -1.3451  0.4274 -0.8744
  228MOL0     H31423   7.764   3.323   4.334 -0.0140  0.4704  0.8353
  228MOL0     H31424   7.933   3.342   4.356  2.2198 -0.5645 -1.4825
  228MOL0     H31425   7.880   3.233   4.233 -1.4573  0.9323 -2.3068
  228MOL0     H31426   8.177   3.165   3.828  0.3091 -1.5635  0.6505
  228MOL0     H31427   8.380   3.055   3.790  1.3372  2.3720 -4.3247
  228MOL0     H31428   8.575   2.943   3.890 -0.2564  0.3416  0.6800
  228MOL0     H31429   8.619   2.992   3.718 -0.9585  1.1161 -0.6574
  228MOL0     H31430   8.846   3.029   3.773 -1.3747  1.1910  0.6822
  228MOL0     H31431   8.800   2.946   3.924 -0.6156  1.5676  0.5444
  228MOL0     H31432   8.782   2.841   3.633  1.6410  0.7607  0.5719
  228MOL0     H31433   8.717   2.750   3.761 -0.0310  0.4573 -2.3217
  228MOL0     H31434   8.962   2.749   3.865 -0.6619  1.7211  0.2828
  228MOL0     H31435   9.007   2.866   3.736  2.1344 -2.2633 -4.1354
  228MOL0     H31436   8.908   2.584   3.708 -3.1087  2.6046  0.2047
  228MOL0     H31437   8.960   2.709   3.579 -0.7442  1.0367  1.1476
  228MOL0     H31438   9.187   2.690   3.656 -0.2760  0.0041 -2.1078
  228MOL0     H31439   9.124   2.529   3.615 -0.0257  2.0803 -1.8134
  228MOL0     H31440   9.089   2.464   3.849 -1.3979 -0.1189 -3.1369
  228MOL0     H31441   9.150   2.629   3.902  0.6261 -2.1388  2.3760
  228MOL0     H31442   9.317   2.472   3.936  0.8529 -0.9607 -1.0056
  228MOL0     H31443   9.377   2.570   3.813  2.1467 -1.4852 -0.5731
  228MOL0     H31444   8.619   3.359   3.972  1.4822 -3.2846 -0.6434
  228MOL0     H31445   8.386   3.490   4.024 -1.7550  0.1677 -0.2050
  228MOL0     H31446   7.997   3.608   3.908  0.3805  1.8112  1.6973
  228MOL0     H31447   7.792   3.747   3.937  1.2704 -1.2536 -1.5081
  228MOL0     H31448   5.776   3.812   3.495  1.2183 -0.9255 -0.7175
  228MOL0     H31449   5.653   3.616   3.398 -0.2320 -2.4086 -0.7256
  228MOL0     H31450   5.564   3.361   3.256  0.2322  0.1526 -0.3411
  228MOL0     H31451   5.371   3.241   3.156  1.0326  1.4407 -1.1270
  228MOL0     H31452   5.171   3.018   3.098 -0.7244  0.0119 -1.6537
  228MOL0     H31453   5.276   3.130   3.003  1.4452 -0.2552  0.5276
  228MOL0     H31454   5.200   2.834   2.991  0.0904  1.0568  2.2429
  228MOL0     H31455   5.321   2.902   2.872 -1.4212  1.0941 -3.0572
  228MOL0     H31456   5.046   3.010   2.907  1.4875 -0.7577  2.6312
  228MOL0     H31457   5.166   3.080   2.811 -1.7731  1.5079  2.8992
  228MOL0     H31458   5.183   2.908   2.648  2.8304  1.9070  2.7473
  228MOL0     H31459   5.008   2.921   2.674  0.4285  1.5623 -2.1700
  228MOL0     H31460   5.047   2.539   2.844  0.1842 -1.9302 -3.0340
  228MOL0     H31461   5.534   2.868   3.253 -1.4298  0.1148 -2.7807
  228MOL0     H31462   5.735   2.976   3.542  1.8426  1.4033 -0.1032
  228MOL0     H31463   5.677   2.848   3.448  0.9482 -0.7123 -3.3285
  228MOL0     H31464   5.826   2.947   3.412  0.2643 -0.4410 -0.3229
  229MOL0     O31465   6.702   2.416   1.525 -0.2964  0.9464 -0.1718
  229MOL0     C31466   6.708   2.289   1.529 -0.6724 -0.5155  0.2386
  229MOL0     O31467   6.728   2.209   1.423 -0.0201  0.5030 -0.4706
  229MOL0     C31468   6.701   2.241   1.295  0.5637 -0.1282  0.6072
  229MOL0     C31469   6.604   2.331   1.243 -0.0315  0.1506  0.3431
  229MOL0     C31470   6.577   2.349   1.113  0.6399 -0.3150  0.2058
  229MOL0     C31471   6.656   2.273   1.022  0.9810  0.0396  0.9698
  229MOL0     O31472   6.632   2.285   0.888  0.4457 -0.0453  0.2527
  229MOL0     C31473   6.571   2.403   0.838 -0.7418 -0.0957 -0.0257
  229MOL0     C31474   6.535   2.387   0.684 -1.2143 -0.5340  0.3918
  229MOL0     C31475   6.649   2.320   0.599 -0.0722 -0.0826 -0.2349
  229MOL0     C31476   6.782   2.376   0.618 -0.2747 -0.8113 -0.4289
  229MOL0     C31477   6.871   2.386   0.501 -0.4221  0.1792 -0.5268
  229MOL0     C31478   6.872   2.258   0.420 -0.0850  0.2172  0.6144
  229MOL0     C31479   6.974   2.279   0.303 -0.2472 -0.6511 -0.0620
  229MOL0     C31480   6.981   2.143   0.231  0.3837  0.0182 -0.1401
  229MOL0     N31481   7.096   2.134   0.136 -0.8123 -0.4542 -0.0963
  229MOL0     C31482   7.221   2.181   0.172 -0.7352  0.8211  0.3652
  229MOL0     C31483   7.299   2.148   0.070 -0.2223  0.3592  0.5699
  229MOL0     C31484   7.454   2.181   0.072  0.3262 -0.7057  1.3310
  229MOL0     C31485   7.506   2.239  -0.067 -0.4948  0.8639 -0.3097
  229MOL0     C31486   7.436   2.376  -0.096  0.3818 -0.1135 -0.1290
  229MOL0     C31487   7.491   2.456  -0.217 -0.2100 -0.3738 -0.1378
  229MOL0     O31488   7.632   2.479  -0.204 -0.4455  0.4285  0.5676
  229MOL0     C31489   7.708   2.531  -0.311  0.5856  0.0125 -0.2182
  229MOL0     C31490   7.845   2.552  -0.301 -0.4399 -0.5317 -0.3806
  229MOL0     C31491   7.922   2.610  -0.414 -0.2427 -0.0065 -0.2652
  229MOL0     C31492   8.067   2.603  -0.381  0.4894 -0.4438  0.7670
  229MOL0     C31493   7.857   2.664  -0.527 -0.0131 -0.4718  0.0157
  229MOL0     C31494   7.916   2.747  -0.635  0.4005  0.0912 -0.5037
  229MOL0     O31495   7.823   2.800  -0.716 -0.2019 -0.2934  0.4204
  229MOL0     C31496   7.872   2.865  -0.839  0.3315  0.2400  0.0352
  229MOL0     C31497   7.915   2.783  -0.941 -0.1702 -0.3122 -0.2674
  229MOL0     C31498   7.960   2.830  -1.059  0.3851 -0.7071  0.2318
  229MOL0     C31499   7.954   2.973  -1.080  0.4582  0.3933  0.0062
  229MOL0     O31500   8.009   3.021  -1.197  0.2076  0.1299  0.4769
  229MOL0     C31501   7.966   2.961  -1.326 -0.2391 -0.3125 -0.8366
  229MOL0     C31502   8.017   3.038  -1.447 -0.1324  0.2607  0.0695
  229MOL0     C31503   8.167   3.025  -1.456  0.5450  0.4768  0.0306
  229MOL0     C31504   8.218   3.031  -1.603 -0.8111  0.5389  0.7007
  229MOL0     C31505   8.366   3.080  -1.611  0.5627  0.8095 -0.8543
  229MOL0     C31506   8.426   3.045  -1.747  0.6628 -0.5504  0.5557
  229MOL0     C31507   8.570   3.103  -1.758 -1.2137  0.2300  0.8359
  229MOL0     C31508   8.626   3.089  -1.901  1.2722  0.5249 -0.2923
  229MOL0    Cl31509   8.552   3.213  -2.004  0.4335 -0.2853  0.3774
  229MOL0     C31510   7.907   3.056  -0.981  0.2742  0.3414  0.1160
  229MOL0     C31511   7.870   3.005  -0.856  0.0298 -0.0218 -0.0988
  229MOL0     O31512   8.033   2.773  -0.642  0.0718  0.3486  0.0474
  229MOL0     C31513   7.716   2.641  -0.530 -0.4555 -0.0945  0.3141
  229MOL0     C31514   7.646   2.584  -0.426  0.4233  0.7671  0.4063
  229MOL0     N31515   7.227   2.081  -0.031  1.0619 -0.3152 -0.4761
  229MOL0     N31516   7.106   2.089   0.011 -0.7323  0.7406  0.3633
  229MOL0     C31517   6.755   2.191   1.066  0.4778 -0.1524  0.4703
  229MOL0     C31518   6.779   2.182   1.204 -1.3663 -0.6927  0.1325
  229MOL0     C31519   6.691   2.228   1.670 -0.4488  0.3417  0.0709
  229MOL0     C31520   6.623   2.303   1.766 -0.1382 -0.2543 -0.1738
  229MOL0     C31521   6.617   2.249   1.896 -0.7796 -0.5170  0.2480
  229MOL0     C31522   6.670   2.131   1.932  0.0275  0.4822  0.4245
  229MOL0     O31523   6.655   2.103   2.066  0.3285 -0.3143  0.4962
  229MOL0     C31524   6.749   2.012   2.117  0.0733  0.2901  0.7167
  229MOL0     C31525   6.718   1.988   2.263  0.2727  0.3499  0.5822
  229MOL0     C31526   6.807   1.882   2.313 -0.7344 -0.0215 -0.0039
  229MOL0     C31527   6.774   1.857   2.463  0.1722 -0.3769  0.0774
  229MOL0     C31528   6.788   1.712   2.481 -0.6604  0.4177 -0.6323
  229MOL0     C31529   6.808   1.594   2.490 -0.0237  0.0205 -0.0242
  229MOL0     C31530   6.749   2.056   1.838 -0.2847 -0.4455  0.7405
  229MOL0     C31531   6.749   2.102   1.702  0.0767 -0.1149  0.5158
  229MOL0     C31532   6.845   2.033   1.611 -0.2010  0.6650  0.8206
  229MOL0     H31533   6.531   2.363   1.317 -1.2153 -0.5612 -0.4739
  229MOL0     H31534   6.509   2.428   1.083  1.5527 -0.2315 -1.8079
  229MOL0     H31535   6.639   2.485   0.861  1.1726 -1.3032 -1.1273
  229MOL0     H31536   6.472   2.420   0.883  0.6023  3.2031  2.0534
  229MOL0     H31537   6.440   2.333   0.677 -1.2031 -0.4971 -0.1210
  229MOL0     H31538   6.503   2.486   0.650  0.0776  0.3064  1.5316
  229MOL0     H31539   6.654   2.214   0.629  0.1314 -0.4481 -1.5047
  229MOL0     H31540   6.625   2.314   0.493 -1.8242 -2.5390  0.2148
  229MOL0     H31541   6.786   2.476   0.662  3.2324 -1.1711  0.4144
  229MOL0     H31542   6.828   2.306   0.689 -2.8572 -0.4324  1.7898
  229MOL0     H31543   6.965   2.421   0.545 -2.2446 -0.3465  4.5025
  229MOL0     H31544   6.831   2.460   0.432 -4.1287 -0.3534  0.8146
  229MOL0     H31545   6.894   2.167   0.475  3.4005  1.4120  1.4827
  229MOL0     H31546   6.773   2.238   0.376 -0.3783  2.7335 -0.0365
  229MOL0     H31547   7.072   2.311   0.341 -0.1861 -1.9897  0.9528
  229MOL0     H31548   6.947   2.362   0.236 -0.6324  2.2428  3.3627
  229MOL0     H31549   6.971   2.055   0.296  0.7960 -0.7618 -1.0999
  229MOL0     H31550   6.892   2.127   0.170  0.4429 -5.2454  0.6706
  229MOL0     H31551   7.255   2.222   0.267 -1.0831 -0.8352  1.2370
  229MOL0     H31552   7.517   2.097   0.104  1.2056  0.5366  3.0196
  229MOL0     H31553   7.470   2.250   0.155 -1.0368 -0.0275  1.0596
  229MOL0     H31554   7.613   2.253  -0.087  0.1104 -2.7420 -0.2840
  229MOL0     H31555   7.476   2.159  -0.135  0.2092 -1.7295  2.2623
  229MOL0     H31556   7.331   2.361  -0.120  0.1166  1.7927 -0.3282
  229MOL0     H31557   7.441   2.444  -0.010  2.5766 -0.6151  0.2147
  229MOL0     H31558   7.481   2.393  -0.306  0.4561 -0.8907  0.1448
  229MOL0     H31559   7.432   2.548  -0.225 -0.2792 -0.4203 -0.1673
  229MOL0     H31560   7.894   2.510  -0.213 -0.2628 -0.2131 -0.3235
  229MOL0     H31561   8.087   2.701  -0.339 -0.8782 -0.2510  1.0011
  229MOL0     H31562   8.133   2.594  -0.468 -1.3591  0.3217 -0.7812
  229MOL0     H31563   8.104   2.531  -0.308 -0.6424  0.3548  2.1626
  229MOL0     H31564   7.930   2.676  -0.932 -1.1655 -0.5432 -1.1205
  229MOL0     H31565   7.984   2.751  -1.130  2.2195 -0.7731  0.8742
  229MOL0     H31566   8.009   2.861  -1.314 -1.2638 -0.4907  2.3230
  229MOL0     H31567   7.857   2.954  -1.336 -0.6633  1.3517  1.6411
  229MOL0     H31568   7.986   2.984  -1.537  2.7021  0.4354 -1.1172
  229MOL0     H31569   7.991   3.143  -1.462  4.2395  1.5002 -0.3581
  229MOL0     H31570   8.186   2.929  -1.407 -3.2704  1.0171  3.0541
  229MOL0     H31571   8.202   3.111  -1.397  1.8938 -0.0864  0.0939
  229MOL0     H31572   8.166   3.114  -1.652 -2.3291 -1.1230 -0.7013
  229MOL0     H31573   8.207   2.936  -1.656  0.0155  0.3810  0.7987
  229MOL0     H31574   8.365   3.187  -1.589 -2.2580  0.5007  0.9377
  229MOL0     H31575   8.439   3.043  -1.538  2.4949  0.4971 -2.8292
  229MOL0     H31576   8.366   3.083  -1.831  0.7535 -3.5314 -1.0126
  229MOL0     H31577   8.435   2.936  -1.751  0.1647 -0.5685 -0.5593
  229MOL0     H31578   8.630   3.040  -1.692 -0.6534 -0.3906 -0.2467
  229MOL0     H31579   8.593   3.207  -1.733  1.8495  0.2516 -1.5120
  229MOL0     H31580   8.610   2.990  -1.946 -0.4096  1.3645 -1.6274
  229MOL0     H31581   8.735   3.099  -1.895  1.5348 -2.1320  0.8924
  229MOL0     H31582   7.899   3.164  -0.990 -1.2565  0.1613 -0.9960
  229MOL0     H31583   7.840   3.058  -0.766  0.1864  1.6433 -0.9825
  229MOL0     H31584   7.655   2.663  -0.618  2.5588 -1.2713 -2.2638
  229MOL0     H31585   7.539   2.567  -0.433  0.5147  0.6104 -0.9425
  229MOL0     H31586   6.816   2.124   1.006  0.8088  1.6259 -1.2968
  229MOL0     H31587   6.851   2.115   1.251  1.5989  2.1435  0.0294
  229MOL0     H31588   6.565   2.393   1.746 -0.8127 -0.7588 -0.5309
  229MOL0     H31589   6.559   2.302   1.971 -0.0589  1.4716 -0.5444
  229MOL0     H31590   6.741   1.910   2.078 -0.4243 -0.5689  2.8799
  229MOL0     H31591   6.849   2.052   2.098 -0.2558  1.5602  1.5118
  229MOL0     H31592   6.614   1.954   2.266  1.2059 -3.1796 -1.2663
  229MOL0     H31593   6.729   2.079   2.322  0.4649  0.8842 -0.2633
  229MOL0     H31594   6.791   1.786   2.263  1.9464 -3.0523  4.3378
  229MOL0     H31595   6.912   1.904   2.295 -0.6823 -1.8783 -2.6668
  229MOL0     H31596   6.670   1.882   2.486  0.5276  1.0768  0.2340
  229MOL0     H31597   6.848   1.914   2.519  0.0017  0.0309 -0.1048
  229MOL0     H31598   6.834   1.490   2.487  0.3088  0.0659  0.8626
  229MOL0     H31599   6.810   1.967   1.854  0.2475 -0.5795 -1.6669
  229MOL0     H31600   6.894   1.947   1.656 -0.3163  1.2958  2.2280
  229MOL0     H31601   6.794   1.996   1.522 -0.5729 -0.6705  1.5606
  229MOL0     H31602   6.934   2.088   1.580  0.7244 -0.5480  1.2543
  230MOL0     O31603   9.856   0.772   2.662 -0.3363  0.4210 -0.4513
  230MOL0     C31604   9.910   0.719   2.558  0.7110  0.5116  0.5664
  230MOL0     O31605  10.006   0.614   2.552 -0.2990  0.0826 -0.6711
  230MOL0     C31606  10.039   0.552   2.667  0.4857  0.5942 -0.3276
  230MOL0     C31607   9.999   0.418   2.678  0.0655  0.6321 -0.3600
  230MOL0     C31608  10.017   0.351   2.805 -0.0577  0.0227  0.1274
  230MOL0     C31609  10.078   0.424   2.909  0.1330 -0.3803  0.0454
  230MOL0     O31610  10.110   0.374   3.032 -0.1005  0.8747 -0.5543
  230MOL0     C31611  10.098   0.233   3.062 -0.6049 -0.8625  1.0587
  230MOL0     C31612  10.204   0.150   2.998  0.2858  0.5750 -0.3162
  230MOL0     C31613  10.188   0.005   3.045 -0.1749 -0.2397 -0.5401
  230MOL0     C31614  10.284  -0.091   2.976  0.4486 -0.4443  0.3295
  230MOL0     C31615  10.252  -0.236   3.022  0.2798 -0.1181  0.3490
  230MOL0     C31616  10.359  -0.340   2.972  0.4868  0.5914 -1.1765
  230MOL0     C31617  10.488  -0.357   3.054  0.5253 -0.1508  0.1474
  230MOL0     C31618  10.585  -0.440   2.969 -0.0431 -0.4692  0.1924
  230MOL0     N31619  10.681  -0.492   3.065  0.1305  0.1403 -0.5938
  230MOL0     C31620  10.809  -0.438   3.096  0.5122  0.6057  0.8614
  230MOL0     C31621  10.861  -0.520   3.182 -0.9985  0.3802 -0.5873
  230MOL0     C31622  11.000  -0.480   3.234  0.4223  0.3357 -0.2687
  230MOL0     C31623  11.097  -0.427   3.133 -0.4309 -0.1178 -0.2065
  230MOL0     C31624  11.243  -0.416   3.194  0.3401 -0.6709 -0.0832
  230MOL0     C31625  11.344  -0.355   3.088 -0.2109 -0.0949 -0.5161
  230MOL0     O31626  11.470  -0.337   3.162 -0.4663  0.3633  0.2390
  230MOL0     C31627  11.593  -0.345   3.100 -0.9267 -0.1765 -0.1749
  230MOL0     C31628  11.612  -0.312   2.967  0.1260  0.1571  0.8519
  230MOL0     C31629  11.734  -0.333   2.893  0.3566 -0.1014 -0.8419
  230MOL0     C31630  11.725  -0.313   2.741 -0.2000  0.4581 -0.1169
  230MOL0     C31631  11.841  -0.394   2.964  0.4875 -0.5094 -0.3679
  230MOL0     C31632  11.962  -0.453   2.901 -0.7830  0.0571  0.9923
  230MOL0     O31633  12.063  -0.496   2.980 -0.0267  0.5864  0.1835
  230MOL0     C31634  12.172  -0.574   2.931 -0.5647  0.2218  0.0225
  230MOL0     C31635  12.298  -0.516   2.946 -0.0571  0.0405 -0.5401
  230MOL0     C31636  12.415  -0.585   2.904 -0.1527 -0.3334  0.4187
  230MOL0     C31637  12.401  -0.715   2.855  0.1368  0.1417  0.0869
  230MOL0     O31638  12.516  -0.799   2.837 -0.4361 -0.2384 -0.1179
  230MOL0     C31639  12.500  -0.939   2.854 -0.0875 -0.0023 -0.4576
  230MOL0     C31640  12.629  -1.020   2.850 -0.7024 -0.2588 -0.5777
  230MOL0     C31641  12.613  -1.175   2.834 -0.5147  0.5554  0.0333
  230MOL0     C31642  12.626  -1.222   2.686 -0.3446 -0.3586  0.3796
  230MOL0     C31643  12.779  -1.224   2.645  0.6126  0.3112 -0.2037
  230MOL0     C31644  12.816  -1.248   2.489 -0.8628 -0.8818  0.2047
  230MOL0     C31645  12.786  -1.385   2.439  0.4597 -0.6976 -0.0227
  230MOL0     C31646  12.848  -1.386   2.305 -0.7948 -0.6041 -0.3017
  230MOL0    Cl31647  12.770  -1.249   2.194  0.2560  0.3144  0.3266
  230MOL0     C31648  12.275  -0.766   2.834  0.0757  0.1832 -0.1433
  230MOL0     C31649  12.164  -0.705   2.884 -0.4037  0.5518 -0.2575
  230MOL0     O31650  11.956  -0.475   2.775  0.1237 -0.3167 -0.0116
  230MOL0     C31651  11.823  -0.406   3.103 -0.2504  0.3619  0.2111
  230MOL0     C31652  11.705  -0.384   3.172 -0.2143  0.8052  0.4105
  230MOL0     N31653  10.770  -0.619   3.214  1.0936 -0.5284  0.0876
  230MOL0     N31654  10.662  -0.609   3.142  0.2175 -0.6579  0.7070
  230MOL0     C31655  10.122   0.556   2.886 -0.0465  0.3231 -0.7020
  230MOL0     C31656  10.107   0.620   2.766 -0.8652 -0.4399  0.4477
  230MOL0     C31657   9.868   0.785   2.433  0.3149  0.9912 -0.2672
  230MOL0     C31658   9.835   0.925   2.448 -0.0647  0.4369 -0.3676
  230MOL0     C31659   9.774   0.998   2.344 -0.0359 -0.3404 -0.0801
  230MOL0     C31660   9.745   0.934   2.220  0.2015  0.4634  0.1254
  230MOL0     O31661   9.679   1.012   2.125 -0.4094  0.7343 -0.2485
  230MOL0     C31662   9.760   1.097   2.044  0.2125  0.6510 -0.9556
  230MOL0     C31663   9.760   1.060   1.895 -0.1744  0.4037 -0.2099
  230MOL0     C31664   9.827   1.163   1.808 -0.4834 -0.0017 -0.1975
  230MOL0     C31665   9.831   1.110   1.659 -0.0036 -0.5009  0.3855
  230MOL0     C31666   9.709   1.068   1.594  0.2475 -0.0686  0.3382
  230MOL0     C31667   9.609   1.038   1.533 -0.3446 -0.0460 -0.3529
  230MOL0     C31668   9.792   0.806   2.198 -0.7436 -0.0033  0.2674
  230MOL0     C31669   9.854   0.731   2.303  0.4180  0.3897  0.0897
  230MOL0     C31670   9.889   0.579   2.280 -0.6412  0.6839 -0.1409
  230MOL0     H31671   9.955   0.365   2.594 -0.7428  2.1915 -0.9456
  230MOL0     H31672  10.001   0.244   2.806  1.2723 -0.2116 -0.6371
  230MOL0     H31673   9.997   0.205   3.032 -0.5068 -0.0680 -0.0573
  230MOL0     H31674  10.117   0.219   3.169 -1.3082 -1.6417  1.0887
  230MOL0     H31675  10.198   0.161   2.890  2.3891 -0.3919 -0.5900
  230MOL0     H31676  10.303   0.191   3.023 -1.0192  2.3314  2.5289
  230MOL0     H31677  10.213  -0.005   3.151  0.8607  2.0279 -0.5070
  230MOL0     H31678  10.086  -0.031   3.037  0.0375 -2.3585  3.6247
  230MOL0     H31679  10.289  -0.082   2.867 -3.4086 -1.2941 -0.0539
  230MOL0     H31680  10.387  -0.080   3.012  1.2974  1.5036 -2.3547
  230MOL0     H31681  10.159  -0.275   2.978 -0.5604 -2.2927  3.6919
  230MOL0     H31682  10.249  -0.239   3.131  0.6241 -0.2937  0.3524
  230MOL0     H31683  10.311  -0.438   2.967  3.0490 -0.7995  0.0709
  230MOL0     H31684  10.377  -0.312   2.867 -2.1256  1.0979 -1.5777
  230MOL0     H31685  10.453  -0.406   3.145  1.9823 -2.7712 -0.5962
  230MOL0     H31686  10.527  -0.257   3.077  1.1855 -1.0504  3.3513
  230MOL0     H31687  10.527  -0.512   2.911 -1.4921 -0.0985  1.1234
  230MOL0     H31688  10.640  -0.377   2.899  1.5584 -0.9960  0.9285
  230MOL0     H31689  10.852  -0.354   3.043 -0.7146  0.4884 -0.3775
  230MOL0     H31690  11.041  -0.566   3.288 -0.3039 -0.7887 -1.4435
  230MOL0     H31691  10.984  -0.401   3.307 -0.0735 -0.2318  0.2467
  230MOL0     H31692  11.096  -0.486   3.041 -1.1982  1.8886 -1.5470
  230MOL0     H31693  11.063  -0.326   3.108  0.6848  0.5974  1.0252
  230MOL0     H31694  11.231  -0.345   3.276 -1.7218 -0.6951 -0.3154
  230MOL0     H31695  11.262  -0.518   3.229 -0.5130  0.0171  2.6480
  230MOL0     H31696  11.357  -0.438   3.018  1.2556 -1.2597  1.0442
  230MOL0     H31697  11.300  -0.263   3.050 -0.4591  0.3592  0.8099
  230MOL0     H31698  11.527  -0.279   2.909  1.4273 -0.4860 -1.5540
  230MOL0     H31699  11.806  -0.245   2.717 -0.9388  2.1337  1.8491
  230MOL0     H31700  11.635  -0.256   2.715 -1.4734 -1.9827 -1.4008
  230MOL0     H31701  11.727  -0.413   2.696 -2.9009 -0.0792  0.7351
  230MOL0     H31702  12.307  -0.421   2.997 -0.7256  0.9960 -2.1366
  230MOL0     H31703  12.513  -0.539   2.917 -0.0532 -0.9534  2.1133
  230MOL0     H31704  12.459  -0.954   2.954 -1.6785 -1.7885 -1.3239
  230MOL0     H31705  12.435  -0.989   2.783  2.2296 -0.4740 -2.3922
  230MOL0     H31706  12.700  -0.990   2.773  0.4049 -2.6630 -0.5994
  230MOL0     H31707  12.681  -1.004   2.945  2.6103 -1.2015 -2.0907
  230MOL0     H31708  12.507  -1.186   2.860  0.1233  0.6061  3.0537
  230MOL0     H31709  12.690  -1.224   2.894  0.1081  0.3878 -0.8898
  230MOL0     H31710  12.578  -1.147   2.623  0.5198 -0.4145 -0.3756
  230MOL0     H31711  12.583  -1.322   2.676  0.7844 -0.9096  0.8183
  230MOL0     H31712  12.843  -1.144   2.683  1.6318 -0.9199  0.7691
  230MOL0     H31713  12.807  -1.319   2.692 -0.7141 -2.2942 -4.1474
  230MOL0     H31714  12.923  -1.229   2.479 -1.2437  1.3965 -0.0413
  230MOL0     H31715  12.767  -1.168   2.433  0.2527 -1.2060 -1.3072
  230MOL0     H31716  12.678  -1.399   2.445  0.0985  1.6946  0.0225
  230MOL0     H31717  12.836  -1.459   2.502 -2.7984  0.4721  4.4721
  230MOL0     H31718  12.840  -1.487   2.262  0.9620 -0.5570 -0.8042
  230MOL0     H31719  12.955  -1.365   2.309  0.0366 -3.2359 -3.8003
  230MOL0     H31720  12.264  -0.860   2.780 -1.7227  1.3999 -2.0764
  230MOL0     H31721  12.069  -0.756   2.871 -0.4540 -0.4201  2.9431
  230MOL0     H31722  11.904  -0.464   3.147  1.8570 -0.9929 -4.7744
  230MOL0     H31723  11.685  -0.413   3.275 -0.1099  0.7161  0.4060
  230MOL0     H31724  10.160   0.609   2.973 -2.0609  1.6323 -0.5453
  230MOL0     H31725  10.137   0.719   2.732  0.1841 -1.8798 -3.3893
  230MOL0     H31726   9.859   0.970   2.544  1.8633  0.4974 -0.8297
  230MOL0     H31727   9.733   1.098   2.358 -1.4266 -0.0859 -4.4238
  230MOL0     H31728   9.730   1.201   2.059  4.3968  1.8349  0.9404
  230MOL0     H31729   9.866   1.090   2.073 -0.4884 -3.3394  1.3540
  230MOL0     H31730   9.658   1.046   1.859 -1.4195  1.3862  2.6293
  230MOL0     H31731   9.819   0.969   1.889  2.6167  1.8435  2.6204
  230MOL0     H31732   9.775   1.259   1.812 -1.3686 -0.4427 -0.6865
  230MOL0     H31733   9.930   1.182   1.839 -0.4477 -1.6532  0.8235
  230MOL0     H31734   9.904   1.028   1.652  0.1455 -0.6871  3.0071
  230MOL0     H31735   9.873   1.193   1.602 -0.2272  0.0413  0.9963
  230MOL0     H31736   9.516   1.013   1.486  0.2828 -0.1847 -1.5698
  230MOL0     H31737   9.778   0.759   2.102  2.3759 -0.1957 -0.2193
  230MOL0     H31738   9.859   0.543   2.181  1.8549  1.6315 -1.3140
  230MOL0     H31739   9.998   0.572   2.276 -0.6957  0.3659 -2.1271
  230MOL0     H31740   9.856   0.506   2.354  4.6983 -0.4257  1.5836
  231MOL0     O31741   2.225   2.140   7.110 -0.0704  0.6423 -0.2048
  231MOL0     C31742   2.198   2.227   7.197 -0.0272 -0.3949 -0.1262
  231MOL0     O31743   2.281   2.330   7.230 -0.3962  0.0669  0.8465
  231MOL0     C31744   2.396   2.344   7.167  0.4040  0.3700 -0.5041
  231MOL0     C31745   2.516   2.319   7.236 -0.5395 -0.2758  0.7867
  231MOL0     C31746   2.637   2.345   7.166  0.5765 -0.4193 -1.0031
  231MOL0     C31747   2.642   2.383   7.030  0.0141  0.2025 -0.1908
  231MOL0     O31748   2.762   2.369   6.960  1.4634 -0.0879  0.5366
  231MOL0     C31749   2.751   2.332   6.821 -0.1765  0.2913  0.9487
  231MOL0     C31750   2.858   2.235   6.789  0.1449 -0.8453  0.1183
  231MOL0     C31751   3.007   2.285   6.825 -1.0561 -0.9577  0.9879
  231MOL0     C31752   3.069   2.413   6.760 -0.0333 -1.1085  1.2285
  231MOL0     C31753   3.117   2.382   6.620  0.5494  0.5145 -0.2839
  231MOL0     C31754   3.179   2.507   6.548 -0.3936 -0.8168 -0.2599
  231MOL0     C31755   3.080   2.559   6.439  0.6364 -0.2519 -0.0461
  231MOL0     C31756   3.094   2.482   6.306  0.2012 -0.2346  0.4176
  231MOL0     N31757   3.208   2.530   6.229  0.9553  0.0881 -0.2636
  231MOL0     C31758   3.231   2.666   6.196  0.7319 -0.0953  0.1656
  231MOL0     C31759   3.365   2.675   6.173 -1.0139  0.1160 -0.5334
  231MOL0     C31760   3.430   2.801   6.138 -0.0763 -0.2126 -0.5157
  231MOL0     C31761   3.581   2.792   6.150  0.3887  0.3728  1.0195
  231MOL0     C31762   3.663   2.909   6.092  0.3902 -0.1630  0.2435
  231MOL0     C31763   3.645   2.952   5.942  0.9743 -0.6451  0.5056
  231MOL0     O31764   3.656   2.840   5.856 -0.0755 -0.5233 -0.0369
  231MOL0     C31765   3.657   2.875   5.722  0.5568  0.1352  0.1434
  231MOL0     C31766   3.590   2.980   5.653 -0.9064 -0.6742 -0.1216
  231MOL0     C31767   3.602   3.007   5.521  1.2539  0.3837 -1.0235
  231MOL0     C31768   3.508   3.107   5.461  0.1423 -0.4233 -0.0042
  231MOL0     C31769   3.691   2.914   5.444 -0.2769 -0.3501 -0.0093
  231MOL0     C31770   3.721   2.941   5.306  0.4419  0.3944  0.2454
  231MOL0     O31771   3.757   2.830   5.233  0.4392  0.9574  0.2366
  231MOL0     C31772   3.787   2.838   5.103 -1.0237  0.0063  0.0052
  231MOL0     C31773   3.788   2.709   5.040 -0.5860 -0.4983 -0.2787
  231MOL0     C31774   3.839   2.697   4.913 -0.3755 -0.0326 -0.2524
  231MOL0     C31775   3.897   2.800   4.841  0.1555 -0.3506 -0.0193
  231MOL0     O31776   3.944   2.767   4.715 -0.2645  0.2416  0.4687
  231MOL0     C31777   3.878   2.682   4.621  0.3468  0.1358 -0.2797
  231MOL0     C31778   3.980   2.560   4.614  0.0681 -0.4516 -0.1090
  231MOL0     C31779   3.931   2.459   4.517  0.1755 -1.1552  0.3578
  231MOL0     C31780   4.049   2.366   4.497 -0.8627 -0.2898 -0.4534
  231MOL0     C31781   4.001   2.251   4.416 -0.1128 -0.7214 -0.5382
  231MOL0     C31782   4.110   2.180   4.342 -0.5541 -0.0569 -0.1289
  231MOL0     C31783   4.042   2.075   4.253  0.3331  0.4812 -0.2012
  231MOL0     C31784   4.142   1.964   4.207 -0.6423  0.0390 -0.2166
  231MOL0    Cl31785   4.285   2.037   4.115 -0.1090 -0.3298 -0.2146
  231MOL0     C31786   3.902   2.929   4.900  0.1450  0.0766 -0.2416
  231MOL0     C31787   3.852   2.942   5.038  0.0004  0.0311  0.5543
  231MOL0     O31788   3.714   3.050   5.268 -0.9701 -0.5096  1.4462
  231MOL0     C31789   3.772   2.813   5.516  0.5048  0.3653  0.3496
  231MOL0     C31790   3.743   2.793   5.653 -0.3583  0.8721  0.5691
  231MOL0     N31791   3.416   2.550   6.190  1.4761  0.3441 -0.0093
  231MOL0     N31792   3.329   2.464   6.225 -0.4515  0.8886 -0.3852
  231MOL0     C31793   2.518   2.410   6.968 -0.2122  0.0271 -1.0515
  231MOL0     C31794   2.395   2.395   7.039 -0.3265  0.3107  0.1794
  231MOL0     C31795   2.065   2.206   7.269  1.0678 -0.8893 -0.7579
  231MOL0     C31796   2.030   2.297   7.370  0.1852  0.4969 -0.3699
  231MOL0     C31797   1.913   2.284   7.448 -0.1559  0.2006  0.4393
  231MOL0     C31798   1.813   2.191   7.411  0.5292  0.7044  0.6550
  231MOL0     O31799   1.715   2.161   7.498  0.8568  0.9786  0.4153
  231MOL0     C31800   1.666   2.255   7.599 -0.1650 -0.0337 -0.1217
  231MOL0     C31801   1.560   2.195   7.692 -0.6642  0.1251  0.1797
  231MOL0     C31802   1.596   2.058   7.735  0.1857  0.8848  0.1621
  231MOL0     C31803   1.724   2.058   7.817 -0.1837  0.1910  0.6874
  231MOL0     C31804   1.734   1.933   7.887 -0.0089 -1.1803 -0.5979
  231MOL0     C31805   1.748   1.842   7.962 -0.1755 -0.5716 -0.9749
  231MOL0     C31806   1.850   2.094   7.314  0.4981 -0.1027 -0.5638
  231MOL0     C31807   1.971   2.098   7.248  0.0770  0.0992  0.8478
  231MOL0     C31808   1.987   1.991   7.146 -0.4405  0.6387 -0.1939
  231MOL0     H31809   2.519   2.274   7.335 -2.7723 -3.4686 -0.4226
  231MOL0     H31810   2.729   2.333   7.221  2.2803 -0.3292 -3.6719
  231MOL0     H31811   2.769   2.418   6.755  3.2541 -0.9563  0.0479
  231MOL0     H31812   2.662   2.275   6.792 -0.5649  0.7228  1.2720
  231MOL0     H31813   2.841   2.146   6.851 -0.4440 -1.1733 -0.5025
  231MOL0     H31814   2.842   2.204   6.686 -0.0196 -0.3601 -0.0028
  231MOL0     H31815   3.008   2.304   6.933  1.1682  0.7940  0.7231
  231MOL0     H31816   3.084   2.207   6.819 -0.5715 -0.4867  1.0507
  231MOL0     H31817   2.992   2.490   6.764 -0.0729 -1.1901  3.9323
  231MOL0     H31818   3.147   2.448   6.828 -0.8750  2.3852  0.6166
  231MOL0     H31819   3.025   2.352   6.568 -0.6149 -0.1148  2.0206
  231MOL0     H31820   3.193   2.305   6.633 -0.1563 -0.1813 -0.1820
  231MOL0     H31821   3.189   2.582   6.627  1.9016  1.4633 -2.5416
  231MOL0     H31822   3.273   2.476   6.502  0.2786  0.4262  0.2175
  231MOL0     H31823   3.098   2.664   6.417  0.1410 -0.8041 -3.5598
  231MOL0     H31824   2.979   2.548   6.479  1.1212 -1.6814  0.8792
  231MOL0     H31825   3.107   2.375   6.321  0.8967 -0.1991  0.1000
  231MOL0     H31826   3.001   2.505   6.253  0.1072  2.0438  1.4109
  231MOL0     H31827   3.153   2.742   6.184 -1.0861 -1.7845  0.7236
  231MOL0     H31828   3.399   2.882   6.204 -0.3485 -0.4454 -0.3526
  231MOL0     H31829   3.406   2.825   6.034  0.6262 -3.2896 -1.4956
  231MOL0     H31830   3.593   2.782   6.258 -0.0306  1.7538  1.2168
  231MOL0     H31831   3.625   2.707   6.096  0.9915  1.4054 -0.1869
  231MOL0     H31832   3.634   2.994   6.154  0.2795 -0.2499  0.3092
  231MOL0     H31833   3.769   2.885   6.109  0.3930  0.2609  0.8541
  231MOL0     H31834   3.545   2.994   5.927  0.3371 -2.5289 -0.7875
  231MOL0     H31835   3.719   3.027   5.911 -0.0518 -0.7145 -2.3757
  231MOL0     H31836   3.525   3.049   5.707  0.7240 -0.8733  2.2851
  231MOL0     H31837   3.462   3.077   5.367 -1.1178  1.3539  0.0013
  231MOL0     H31838   3.574   3.189   5.434 -0.9027  0.0671 -1.1471
  231MOL0     H31839   3.433   3.145   5.531  0.2936  2.0951 -1.0952
  231MOL0     H31840   3.738   2.624   5.085 -0.8784  0.3159  0.9904
  231MOL0     H31841   3.824   2.603   4.860  1.5092 -1.1099  1.0093
  231MOL0     H31842   3.777   2.650   4.649  1.4043 -2.1953  1.1843
  231MOL0     H31843   3.884   2.738   4.527  2.4451  2.4393  1.1034
  231MOL0     H31844   4.068   2.615   4.580 -1.2077  0.9445 -1.3134
  231MOL0     H31845   4.002   2.504   4.705 -0.2335 -2.6710 -1.3552
  231MOL0     H31846   3.904   2.501   4.419 -0.2563  0.5508  1.1744
  231MOL0     H31847   3.853   2.395   4.558  1.5641 -1.4837  2.6701
  231MOL0     H31848   4.094   2.331   4.591 -0.4414  1.3991  0.0154
  231MOL0     H31849   4.128   2.412   4.436  0.9913 -2.6408  0.0176
  231MOL0     H31850   3.950   2.176   4.477 -1.2786  0.4585 -0.0258
  231MOL0     H31851   3.923   2.291   4.350 -2.1740 -1.2236  1.4514
  231MOL0     H31852   4.166   2.126   4.419  0.6172  0.5011 -0.5773
  231MOL0     H31853   4.175   2.240   4.278 -1.4723 -0.4081 -1.4260
  231MOL0     H31854   3.998   2.126   4.167  1.5589  0.4637 -0.8644
  231MOL0     H31855   3.962   2.034   4.316  1.1107 -0.3509  0.2701
  231MOL0     H31856   4.092   1.880   4.159  1.6359 -1.9291  0.6794
  231MOL0     H31857   4.188   1.909   4.288  2.2988  3.1319  0.4486
  231MOL0     H31858   3.939   3.006   4.833 -1.1885  1.2443  0.3155
  231MOL0     H31859   3.875   3.030   5.097  1.3215  0.2984 -0.3251
  231MOL0     H31860   3.840   2.754   5.455  1.0573  0.9910  0.3486
  231MOL0     H31861   3.797   2.714   5.704 -2.1638 -1.1092 -0.4347
  231MOL0     H31862   2.515   2.432   6.862 -0.0363 -2.5274 -1.6676
  231MOL0     H31863   2.307   2.416   6.979 -1.2113  2.5685  2.1252
  231MOL0     H31864   2.100   2.378   7.387  0.4142  0.1640  0.3262
  231MOL0     H31865   1.908   2.346   7.537 -1.6645 -1.0804  1.3016
  231MOL0     H31866   1.747   2.291   7.664 -2.6624  3.9505  1.1148
  231MOL0     H31867   1.633   2.343   7.543  0.6679  1.1386  1.1529
  231MOL0     H31868   1.458   2.191   7.655 -0.9544  0.3672  0.9306
  231MOL0     H31869   1.541   2.253   7.783 -0.7045  0.3551  0.0235
  231MOL0     H31870   1.516   2.021   7.799  2.4414 -3.5984  0.7994
  231MOL0     H31871   1.606   1.985   7.654  2.0535  1.5873 -0.3087
  231MOL0     H31872   1.713   2.137   7.892 -0.4560 -0.5524  1.4471
  231MOL0     H31873   1.810   2.080   7.753 -0.6073 -0.8984 -0.3032
  231MOL0     H31874   1.753   1.759   8.030 -0.3437 -0.2376 -0.5499
  231MOL0     H31875   1.784   2.010   7.295 -3.1259  2.3939  0.0518
  231MOL0     H31876   2.087   1.946   7.150 -0.7157 -0.1137 -1.3068
  231MOL0     H31877   1.906   1.918   7.158  0.3137 -0.0460  0.8702
  231MOL0     H31878   1.981   2.027   7.043  2.2275 -1.8887 -1.3931
  232MOL0     O31879   9.208   8.238   0.816  0.4938 -0.2251 -0.2730
  232MOL0     C31880   9.171   8.342   0.868  0.6377  0.6850  0.0381
  232MOL0     O31881   9.257   8.440   0.923 -0.0480 -0.5270 -0.1584
  232MOL0     C31882   9.388   8.408   0.922 -0.3906 -0.8489 -0.8047
  232MOL0     C31883   9.451   8.320   1.009 -0.3256  0.1466 -0.8765
  232MOL0     C31884   9.585   8.293   0.998  0.4784 -0.7326  0.8659
  232MOL0     C31885   9.668   8.355   0.900 -0.0925 -0.3663  0.0353
  232MOL0     O31886   9.798   8.341   0.879  0.2169  0.0605 -0.1226
  232MOL0     C31887   9.867   8.268   0.980 -0.0421 -0.2743  0.1741
  232MOL0     C31888  10.016   8.309   0.974 -0.1482  0.5967  0.3373
  232MOL0     C31889  10.063   8.299   0.829  0.6408  0.1537  0.2929
  232MOL0     C31890  10.216   8.325   0.811 -0.9520 -0.6326  0.3973
  232MOL0     C31891  10.240   8.477   0.831  0.9916 -0.0894 -0.7053
  232MOL0     C31892  10.385   8.516   0.809  0.3834  0.5188 -0.1935
  232MOL0     C31893  10.487   8.428   0.892  0.3508  0.0150 -0.6677
  232MOL0     C31894  10.471   8.430   1.046  0.2971  0.3464 -0.5403
  232MOL0     N31895  10.574   8.371   1.130 -0.8712 -0.3359 -0.2522
  232MOL0     C31896  10.702   8.335   1.089 -0.5022 -0.1794  0.4349
  232MOL0     C31897  10.768   8.300   1.198  0.1797  0.2395 -0.0790
  232MOL0     C31898  10.914   8.262   1.221  0.1018 -0.4371  0.1147
  232MOL0     C31899  11.001   8.287   1.100  0.1795 -0.5385  0.5083
  232MOL0     C31900  11.147   8.253   1.124  0.7054  0.1529 -0.0971
  232MOL0     C31901  11.235   8.323   1.016  0.9709  0.4731 -0.1067
  232MOL0     O31902  11.210   8.239   0.901 -0.3668  0.5120 -0.0383
  232MOL0     C31903  11.296   8.251   0.792 -0.9244  0.2718  0.3319
  232MOL0     C31904  11.302   8.133   0.705 -0.1522  0.2948  0.2656
  232MOL0     C31905  11.389   8.131   0.597 -0.4213 -0.0368  0.6004
  232MOL0     C31906  11.422   7.993   0.538  0.9398 -0.5993  0.4729
  232MOL0     C31907  11.471   8.245   0.566  0.4270 -0.9290  0.6206
  232MOL0     C31908  11.548   8.255   0.434  0.5696  0.0041 -0.9131
  232MOL0     O31909  11.652   8.345   0.445 -0.1267 -0.4184  0.1363
  232MOL0     C31910  11.725   8.384   0.325  0.2971  0.2041  0.4566
  232MOL0     C31911  11.712   8.513   0.276  0.1695 -0.2414  0.7472
  232MOL0     C31912  11.794   8.554   0.171  0.4979 -0.2970 -0.3164
  232MOL0     C31913  11.887   8.460   0.112 -0.5256 -0.8352 -1.4513
  232MOL0     O31914  11.975   8.496   0.010 -0.1425  0.1284 -0.3046
  232MOL0     C31915  12.042   8.617   0.015  0.2118 -0.7018 -0.2654
  232MOL0     C31916  12.150   8.606  -0.089  0.5587  0.0735  0.2177
  232MOL0     C31917  12.237   8.723  -0.094  0.7309 -0.1698  1.0112
  232MOL0     C31918  12.342   8.699  -0.205 -1.4297 -0.6564  0.4474
  232MOL0     C31919  12.467   8.784  -0.182  0.7608 -0.5244 -0.0933
  232MOL0     C31920  12.469   8.935  -0.196 -0.1248  0.1970 -0.4660
  232MOL0     C31921  12.347   9.007  -0.132 -0.3026  0.1688  0.1878
  232MOL0     C31922  12.377   9.160  -0.114 -1.1288 -0.5051  0.9541
  232MOL0    Cl31923  12.365   9.244  -0.269  0.3894 -0.0133 -0.0527
  232MOL0     C31924  11.894   8.327   0.159  0.4287 -0.3331  0.0767
  232MOL0     C31925  11.808   8.284   0.262  0.2635  0.3218 -0.1312
  232MOL0     O31926  11.511   8.199   0.329 -0.0678 -0.2357  0.0702
  232MOL0     C31927  11.458   8.360   0.641  0.0337  0.1516 -0.5345
  232MOL0     C31928  11.376   8.363   0.756 -0.8317  0.6180 -0.0806
  232MOL0     N31929  10.683   8.313   1.305 -0.3314  0.3271 -0.5554
  232MOL0     N31930  10.565   8.343   1.262 -0.3998  0.1067  0.2923
  232MOL0     C31931   9.602   8.416   0.803 -0.6025 -0.4758  0.2978
  232MOL0     C31932   9.469   8.448   0.814 -0.4514  0.8220  0.1434
  232MOL0     C31933   9.023   8.375   0.868  0.8833  1.2055  0.4756
  232MOL0     C31934   8.983   8.475   0.958 -0.3502  0.3500 -1.0642
  232MOL0     C31935   8.860   8.536   0.951  0.8586 -0.4935  0.7151
  232MOL0     C31936   8.756   8.476   0.867 -0.3499 -0.3699  0.4754
  232MOL0     O31937   8.630   8.522   0.866  0.2100 -0.5016  0.3048
  232MOL0     C31938   8.559   8.563   0.976 -0.2864  0.0638 -1.0665
  232MOL0     C31939   8.489   8.697   0.939  0.0425  0.4550  0.5748
  232MOL0     C31940   8.452   8.769   1.067 -0.2879  0.3099  0.7772
  232MOL0     C31941   8.401   8.911   1.051 -0.2575 -0.0028 -0.3844
  232MOL0     C31942   8.270   8.912   0.991  1.4894  0.1164 -0.2191
  232MOL0     C31943   8.156   8.922   0.945 -0.1778  0.1028 -0.0381
  232MOL0     C31944   8.790   8.362   0.792  0.8439  0.1372  0.4150
  232MOL0     C31945   8.920   8.312   0.791 -0.1771  0.8726  0.9783
  232MOL0     C31946   8.931   8.192   0.703  0.4816  0.5027 -1.0047
  232MOL0     H31947   9.396   8.269   1.087 -1.0614 -1.8465 -2.6039
  232MOL0     H31948   9.621   8.220   1.069  0.8079 -1.7291 -0.2805
  232MOL0     H31949   9.856   8.160   0.964 -2.3281 -0.0727  0.0064
  232MOL0     H31950   9.831   8.294   1.080 -1.7559  3.0675 -1.1554
  232MOL0     H31951  10.034   8.410   1.012  0.9496  1.3275 -1.9644
  232MOL0     H31952  10.075   8.237   1.031  0.7785 -0.4963 -1.8718
  232MOL0     H31953  10.030   8.201   0.793  3.5553 -0.7580 -0.1786
  232MOL0     H31954  10.015   8.379   0.772  2.8368  0.9161 -0.5978
  232MOL0     H31955  10.266   8.260   0.883  1.6750 -0.3266 -1.0360
  232MOL0     H31956  10.237   8.296   0.708 -1.5204 -0.3767  0.2022
  232MOL0     H31957  10.210   8.492   0.935 -1.2986  0.8513 -1.4356
  232MOL0     H31958  10.165   8.531   0.772 -0.6818  1.3817  2.5331
  232MOL0     H31959  10.400   8.504   0.701  0.3236  2.2878 -0.4263
  232MOL0     H31960  10.410   8.621   0.827  1.3195  0.2388  0.1788
  232MOL0     H31961  10.586   8.471   0.880  0.4630 -0.7140 -2.6200
  232MOL0     H31962  10.479   8.321   0.873  2.1248 -0.5874  1.5472
  232MOL0     H31963  10.463   8.534   1.078 -3.9776 -0.1914  0.7301
  232MOL0     H31964  10.373   8.382   1.057  0.1942  0.4054 -1.1411
  232MOL0     H31965  10.756   8.340   0.995  0.7795  0.1680  1.1635
  232MOL0     H31966  10.930   8.159   1.252 -0.7334 -0.3496  0.9037
  232MOL0     H31967  10.953   8.316   1.308 -1.8543  2.2315 -0.5436
  232MOL0     H31968  10.966   8.243   1.006  1.1676  0.2359 -0.2422
  232MOL0     H31969  10.989   8.396   1.091 -1.7285 -0.8288 -1.0244
  232MOL0     H31970  11.174   8.302   1.218  1.4426  2.7867 -1.6084
  232MOL0     H31971  11.168   8.146   1.139 -2.1802 -0.4878  0.0060
  232MOL0     H31972  11.203   8.427   1.005 -1.1859  0.4440  3.9835
  232MOL0     H31973  11.340   8.325   1.046  1.3523  1.5026 -1.4021
  232MOL0     H31974  11.234   8.050   0.715 -0.4747  0.6323  1.0294
  232MOL0     H31975  11.394   7.908   0.600  3.8263 -1.6607  0.4749
  232MOL0     H31976  11.531   7.993   0.532  0.9139 -0.2753 -0.0667
  232MOL0     H31977  11.376   7.985   0.440 -1.3424  1.5156  1.2501
  232MOL0     H31978  11.643   8.577   0.329 -0.1339  0.5195 -0.5111
  232MOL0     H31979  11.795   8.655   0.132  1.6065 -0.4863 -0.8172
  232MOL0     H31980  11.978   8.705   0.009 -0.6050 -1.1713  0.9758
  232MOL0     H31981  12.090   8.620   0.113 -1.5446  2.2292  0.6052
  232MOL0     H31982  12.211   8.521  -0.058 -2.3833 -1.1453  3.3477
  232MOL0     H31983  12.100   8.588  -0.185  0.8117 -1.0386  0.2812
  232MOL0     H31984  12.272   8.727   0.010  1.5574 -0.2057  0.7462
  232MOL0     H31985  12.170   8.805  -0.121 -1.7155 -2.0232  1.1243
  232MOL0     H31986  12.307   8.715  -0.308  3.7121 -1.6463 -1.7652
  232MOL0     H31987  12.388   8.600  -0.212  0.6007  0.3269 -1.5673
  232MOL0     H31988  12.502   8.764  -0.080  1.1784  1.0050  0.0746
  232MOL0     H31989  12.543   8.751  -0.253 -0.9425 -1.1524 -1.6950
  232MOL0     H31990  12.472   8.964  -0.302  1.6466  1.3469 -0.1336
  232MOL0     H31991  12.562   8.977  -0.160 -0.6180  1.8774 -1.0527
  232MOL0     H31992  12.343   8.966  -0.031  3.3752 -0.0289  0.3700
  232MOL0     H31993  12.255   8.991  -0.189  0.2875 -3.0997 -0.0382
  232MOL0     H31994  12.480   9.166  -0.078  0.2434  1.1735 -2.7752
  232MOL0     H31995  12.304   9.205  -0.046 -2.0982  1.3807 -1.1974
  232MOL0     H31996  11.968   8.259   0.118 -1.4682 -2.0458 -0.6671
  232MOL0     H31997  11.823   8.183   0.299  3.7221  1.8002  3.2476
  232MOL0     H31998  11.518   8.448   0.622 -1.7681  2.2688  2.7260
  232MOL0     H31999  11.386   8.450   0.820  2.7735  0.0370  0.3089
  232MOL0     H32000   9.671   8.443   0.724 -0.8352 -0.6801  0.0208
  232MOL0     H32001   9.422   8.507   0.736  0.1504 -1.3296 -1.9455
  232MOL0     H32002   9.056   8.517   1.026 -1.8479  0.7918  0.3343
  232MOL0     H32003   8.840   8.633   0.995  0.5863 -2.1415  4.5832
  232MOL0     H32004   8.481   8.490   0.999 -0.5045  0.8187  0.7175
  232MOL0     H32005   8.627   8.594   1.055 -0.3725  2.1176 -1.7484
  232MOL0     H32006   8.399   8.686   0.879  1.6200 -1.7049 -1.6098
  232MOL0     H32007   8.560   8.760   0.884 -0.0411 -0.0083 -0.0828
  232MOL0     H32008   8.380   8.708   1.121 -1.0231  2.6836  2.6350
  232MOL0     H32009   8.544   8.776   1.127  0.6936 -0.4714 -0.5701
  232MOL0     H32010   8.454   8.970   0.977  2.0272 -0.5562  0.7307
  232MOL0     H32011   8.395   8.954   1.152  0.3065 -2.3732  0.7244
  232MOL0     H32012   8.057   8.898   0.912  0.7661 -1.8782 -1.6511
  232MOL0     H32013   8.717   8.303   0.737  3.1052 -3.7125  1.1801
  232MOL0     H32014   8.924   8.101   0.763 -7.1525  0.7972 -0.4416
  232MOL0     H32015   8.853   8.180   0.627  1.4943  0.0006 -2.0079
  232MOL0     H32016   9.028   8.190   0.653  1.0341  0.9718  0.0122
  233MOL0     O32017   8.690   8.204   2.432  0.7043 -0.5874 -0.3084
  233MOL0     C32018   8.695   8.224   2.554  0.3100  0.1186 -0.0491
  233MOL0     O32019   8.742   8.341   2.614 -1.1429 -0.5480  0.9293
  233MOL0     C32020   8.779   8.439   2.520 -0.5642  0.3399  0.7896
  233MOL0     C32021   8.915   8.449   2.490 -0.2176 -0.2598 -0.1541
  233MOL0     C32022   8.954   8.541   2.390  0.8826 -0.8468 -0.0832
  233MOL0     C32023   8.856   8.630   2.321  0.4247  0.8413 -0.8378
  233MOL0     O32024   8.890   8.731   2.238  0.8993  0.2359  0.3924
  233MOL0     C32025   9.030   8.772   2.222 -0.3550 -0.2116 -0.5295
  233MOL0     C32026   9.077   8.883   2.321  0.0327  0.5764 -0.0050
  233MOL0     C32027   9.088   8.842   2.466  0.7566  1.0914 -0.4573
  233MOL0     C32028   9.129   8.946   2.570  0.2065 -0.1808 -0.4920
  233MOL0     C32029   9.137   8.902   2.720 -0.7522  0.7409 -0.6288
  233MOL0     C32030   9.227   8.782   2.736 -0.1850  0.3288  1.2364
  233MOL0     C32031   9.270   8.751   2.882  0.0330  0.2161 -0.1272
  233MOL0     C32032   9.350   8.625   2.871 -0.8257  0.9617 -0.5255
  233MOL0     N32033   9.397   8.584   3.007 -0.0307 -0.0665  1.1592
  233MOL0     C32034   9.498   8.650   3.073  0.6334  0.7967  0.2831
  233MOL0     C32035   9.497   8.592   3.199 -0.4146  0.4915 -0.1521
  233MOL0     C32036   9.593   8.618   3.308 -0.6436  0.0470  0.0832
  233MOL0     C32037   9.571   8.537   3.432  0.0530  0.9140 -0.2618
  233MOL0     C32038   9.453   8.593   3.514 -0.4215  0.0002 -0.2628
  233MOL0     C32039   9.414   8.502   3.632 -1.1761  1.0281  1.0066
  233MOL0     O32040   9.529   8.455   3.711  0.0731  1.3011 -0.0598
  233MOL0     C32041   9.597   8.539   3.789 -0.0983 -0.0482  1.5397
  233MOL0     C32042   9.710   8.492   3.851  0.2379  0.8453 -0.8442
  233MOL0     C32043   9.799   8.575   3.922  0.4872  0.4433 -1.0004
  233MOL0     C32044   9.924   8.509   3.978 -0.5076  0.2490  0.6127
  233MOL0     C32045   9.774   8.711   3.931 -0.1776  0.3743 -0.2265
  233MOL0     C32046   9.865   8.810   3.986 -0.2526  0.9352  0.5614
  233MOL0     O32047   9.860   8.804   4.118 -0.7054  0.4044 -0.0245
  233MOL0     C32048   9.962   8.861   4.189 -0.4517  1.0397 -0.0528
  233MOL0     C32049   9.972   8.998   4.209  0.2043 -0.4916  0.1860
  233MOL0     C32050  10.074   9.061   4.291  0.7942  0.4537 -0.0264
  233MOL0     C32051  10.162   8.985   4.360 -0.6597 -0.8528  0.3803
  233MOL0     O32052  10.257   9.055   4.429  0.3452 -0.0575 -0.2900
  233MOL0     C32053  10.360   8.977   4.491  0.3154 -0.0548  0.0385
  233MOL0     C32054  10.459   9.058   4.572 -0.2398 -0.3665 -0.8101
  233MOL0     C32055  10.545   9.168   4.507 -0.0914 -1.1809  0.1156
  233MOL0     C32056  10.462   9.277   4.433  0.2315 -0.5673  0.6593
  233MOL0     C32057  10.530   9.405   4.398  1.1295  0.1684  0.3069
  233MOL0     C32058  10.458   9.462   4.273  0.2038  0.0487  0.7407
  233MOL0     C32059  10.497   9.602   4.243  0.5914  0.1008  0.7030
  233MOL0     C32060  10.393   9.681   4.163  0.5252 -0.1493 -0.0115
  233MOL0    Cl32061  10.448   9.847   4.110 -0.3547  0.0629  0.6325
  233MOL0     C32062  10.150   8.843   4.343 -0.5384  0.8726 -0.4518
  233MOL0     C32063  10.054   8.780   4.259 -0.1522 -0.6057  0.1524
  233MOL0     O32064   9.925   8.896   3.915  0.1495 -0.2866  0.6059
  233MOL0     C32065   9.655   8.759   3.875 -0.6156 -0.2084  0.0275
  233MOL0     C32066   9.561   8.672   3.813  0.7941 -0.3117  0.5551
  233MOL0     N32067   9.400   8.490   3.198 -0.2577 -0.5289  0.7563
  233MOL0     N32068   9.342   8.492   3.082  0.2124  0.6507  0.0189
  233MOL0     C32069   8.721   8.618   2.365 -0.5721 -0.5031  0.6183
  233MOL0     C32070   8.688   8.526   2.461 -0.3195  0.0850  0.6067
  233MOL0     C32071   8.623   8.123   2.638 -0.2676 -0.0846 -0.6684
  233MOL0     C32072   8.624   8.153   2.776  0.3494  0.3998  0.8843
  233MOL0     C32073   8.562   8.066   2.863  0.0669  0.4554  1.1492
  233MOL0     C32074   8.490   7.959   2.819  0.1322 -0.0496 -0.4218
  233MOL0     O32075   8.427   7.879   2.919  0.2253 -0.9958  0.5469
  233MOL0     C32076   8.357   7.763   2.885 -0.0421  0.1871 -0.6197
  233MOL0     C32077   8.454   7.655   2.896 -1.0393 -0.0832 -0.7780
  233MOL0     C32078   8.458   7.560   2.779 -0.7365  0.0640 -0.2582
  233MOL0     C32079   8.329   7.482   2.772 -0.5161 -0.1847 -0.6652
  233MOL0     C32080   8.320   7.383   2.878 -0.3800 -1.0624  0.6591
  233MOL0     C32081   8.331   7.281   2.948 -0.1793 -0.7055 -0.7988
  233MOL0     C32082   8.494   7.936   2.676 -0.4323  0.2772 -0.4540
  233MOL0     C32083   8.546   8.024   2.588  0.9325  0.3638 -0.5681
  233MOL0     C32084   8.518   7.996   2.446  0.0523  0.2021 -0.8284
  233MOL0     H32085   8.989   8.397   2.551  0.7253  3.3620  2.1144
  233MOL0     H32086   9.059   8.548   2.362  0.6551  0.2307 -0.7142
  233MOL0     H32087   9.046   8.828   2.130  0.1055  1.1413  0.3392
  233MOL0     H32088   9.105   8.692   2.218 -1.5486 -1.6114  1.9948
  233MOL0     H32089   9.165   8.937   2.287 -1.8888  2.9955 -1.5438
  233MOL0     H32090   8.999   8.960   2.311  0.8937  1.1445 -3.3309
  233MOL0     H32091   8.991   8.807   2.502  1.2096  1.0273  0.7478
  233MOL0     H32092   9.168   8.767   2.462  1.3964  1.7871 -3.6120
  233MOL0     H32093   9.224   8.991   2.542 -0.6490  2.1806  0.1412
  233MOL0     H32094   9.066   9.036   2.578  1.1022  0.3224  1.7505
  233MOL0     H32095   9.042   8.874   2.768 -0.3500 -1.5025 -1.0262
  233MOL0     H32096   9.181   8.989   2.769 -2.1198  0.0302  2.0497
  233MOL0     H32097   9.181   8.692   2.693  2.0760 -2.5224  4.2687
  233MOL0     H32098   9.317   8.797   2.675 -1.2443  0.4538 -0.3693
  233MOL0     H32099   9.186   8.741   2.951  0.7214  2.6105  1.1649
  233MOL0     H32100   9.332   8.835   2.913  3.8532 -2.0898 -0.8210
  233MOL0     H32101   9.294   8.544   2.823 -0.5924  1.2142 -1.2429
  233MOL0     H32102   9.437   8.628   2.804 -0.7049  0.0285 -0.4139
  233MOL0     H32103   9.558   8.731   3.033 -0.2712  1.6159  0.5413
  233MOL0     H32104   9.601   8.722   3.343  3.5613  0.2095 -0.8724
  233MOL0     H32105   9.691   8.600   3.264  1.2918  3.0457  2.7256
  233MOL0     H32106   9.564   8.428   3.425  2.6229  0.4838  2.1496
  233MOL0     H32107   9.656   8.537   3.500 -1.5964 -0.4521  1.9603
  233MOL0     H32108   9.490   8.687   3.555 -3.1170  0.0386  2.4068
  233MOL0     H32109   9.366   8.613   3.450 -1.2118 -1.4785  0.2971
  233MOL0     H32110   9.338   8.550   3.694 -0.3275  1.7801  1.4916
  233MOL0     H32111   9.378   8.415   3.576 -1.0984  1.6954 -0.1122
  233MOL0     H32112   9.726   8.385   3.847 -1.0675  0.4847  1.8750
  233MOL0     H32113   9.914   8.418   4.038 -1.9660 -0.9715 -1.3515
  233MOL0     H32114   9.997   8.569   4.032 -0.9359 -0.9361  2.6006
  233MOL0     H32115   9.983   8.494   3.887 -1.8862  0.4535 -0.3478
  233MOL0     H32116   9.910   9.067   4.154 -0.9811 -0.5710  1.3624
  233MOL0     H32117  10.086   9.169   4.295  0.0785  0.5069  1.3364
  233MOL0     H32118  10.314   8.898   4.551 -1.0082  1.0933  0.5819
  233MOL0     H32119  10.424   8.918   4.424  1.5443 -1.3393  2.2048
  233MOL0     H32120  10.400   9.111   4.648  2.5568  4.2440 -1.4332
  233MOL0     H32121  10.529   8.992   4.624  0.5325  0.9360 -0.1424
  233MOL0     H32122  10.625   9.117   4.452  0.6857 -2.2810  2.1739
  233MOL0     H32123  10.591   9.230   4.584 -1.0847 -0.6728  0.3219
  233MOL0     H32124  10.379   9.299   4.501  0.2661  0.8031  0.2775
  233MOL0     H32125  10.418   9.225   4.348  1.8300 -0.9542  0.0292
  233MOL0     H32126  10.518   9.481   4.475 -1.6079 -0.1109  0.2591
  233MOL0     H32127  10.637   9.389   4.384  1.1529  0.3003  0.3359
  233MOL0     H32128  10.349   9.469   4.279 -0.4305 -3.5655 -2.6159
  233MOL0     H32129  10.480   9.394   4.191  2.2283  2.8430 -1.2180
  233MOL0     H32130  10.594   9.601   4.194  0.2494 -1.5021  0.0153
  233MOL0     H32131  10.512   9.654   4.339 -1.9168  1.7071  0.3214
  233MOL0     H32132  10.300   9.683   4.220 -1.8587 -2.7080 -3.4083
  233MOL0     H32133  10.357   9.641   4.067 -1.9035  2.2795 -0.2505
  233MOL0     H32134  10.231   8.788   4.388 -1.9755 -1.8994 -1.0588
  233MOL0     H32135  10.052   8.672   4.258  0.2164 -0.6380  1.3667
  233MOL0     H32136   9.637   8.866   3.872 -0.0837 -0.0415  1.8106
  233MOL0     H32137   9.477   8.719   3.764 -0.8750 -3.3052  0.3204
  233MOL0     H32138   8.646   8.681   2.319  1.9017  1.1029 -1.5475
  233MOL0     H32139   8.588   8.519   2.502 -1.0864 -0.4270 -1.2279
  233MOL0     H32140   8.662   8.246   2.816 -0.5272  1.3883 -0.4700
  233MOL0     H32141   8.588   8.085   2.967 -0.0955  1.4321  1.0227
  233MOL0     H32142   8.281   7.757   2.964 -1.0948  4.4980 -1.0050
  233MOL0     H32143   8.307   7.778   2.788  0.1033  2.7636 -0.3622
  233MOL0     H32144   8.428   7.605   2.990 -2.4136 -0.3051 -1.2491
  233MOL0     H32145   8.554   7.698   2.900 -0.8853 -0.5080  1.0061
  233MOL0     H32146   8.462   7.613   2.683  1.6711  0.2978 -0.0807
  233MOL0     H32147   8.547   7.498   2.791  0.5023  1.8067 -0.0636
  233MOL0     H32148   8.326   7.424   2.680 -0.7761  0.1448 -0.8686
  233MOL0     H32149   8.246   7.554   2.770  1.1340  1.9496  1.5880
  233MOL0     H32150   8.355   7.200   3.014  0.1775  1.3941  1.8215
  233MOL0     H32151   8.438   7.849   2.644  1.0463 -1.1133  0.6065
  233MOL0     H32152   8.617   7.988   2.401  0.2335 -0.3933 -0.3311
  233MOL0     H32153   8.462   7.902   2.436  0.3956 -0.7088  3.6602
  233MOL0     H32154   8.468   8.077   2.393  0.1773  0.6720 -0.2354
  234MOL0     O32155   2.651   1.845   4.798  0.2311 -0.1820  0.3240
  234MOL0     C32156   2.751   1.805   4.858 -1.2659  0.5708 -0.0071
  234MOL0     O32157   2.881   1.782   4.804 -0.0145  0.6410 -0.1329
  234MOL0     C32158   2.902   1.797   4.667  0.4906  0.2492  0.5357
  234MOL0     C32159   2.830   1.717   4.581 -0.0052 -0.0798  0.5218
  234MOL0     C32160   2.848   1.731   4.441 -1.1899  0.4090  0.2373
  234MOL0     C32161   2.923   1.836   4.394 -0.2517  1.3677  0.1785
  234MOL0     O32162   2.926   1.869   4.259  0.0021  0.5043 -0.3416
  234MOL0     C32163   2.827   1.810   4.160  0.1990  0.5391 -0.9714
  234MOL0     C32164   2.848   1.875   4.031 -0.1215 -0.7786  0.1726
  234MOL0     C32165   2.760   1.823   3.915  0.2429  0.6049 -0.2012
  234MOL0     C32166   2.757   1.915   3.787  0.6022  0.0157 -0.7656
  234MOL0     C32167   2.668   2.029   3.810  0.2965  0.6667  1.2257
  234MOL0     C32168   2.522   1.988   3.777 -0.2770  0.0170 -0.0365
  234MOL0     C32169   2.426   2.105   3.779  0.9898  0.1174  0.1179
  234MOL0     C32170   2.394   2.145   3.919 -0.4385 -0.1278 -0.4866
  234MOL0     N32171   2.288   2.250   3.926 -0.5119 -0.5056 -0.6742
  234MOL0     C32172   2.325   2.384   3.916 -0.3652  1.4011 -0.0359
  234MOL0     C32173   2.223   2.454   3.969  0.0764 -0.1126 -0.0642
  234MOL0     C32174   2.208   2.607   3.978  0.0767  0.3677  0.5919
  234MOL0     C32175   2.154   2.671   3.851  0.3147 -0.0766 -0.6545
  234MOL0     C32176   2.230   2.670   3.718 -0.0793  0.3034 -0.1313
  234MOL0     C32177   2.363   2.729   3.729 -0.0623  0.1312  0.2584
  234MOL0     O32178   2.351   2.862   3.785 -0.0467  0.0228 -0.1555
  234MOL0     C32179   2.459   2.946   3.777  0.3138 -0.5543 -0.4024
  234MOL0     C32180   2.596   2.913   3.791  0.0029  0.4853 -0.2046
  234MOL0     C32181   2.700   3.000   3.792  0.1681 -0.9677 -0.3465
  234MOL0     C32182   2.838   2.942   3.813 -0.5046  0.1636  0.6043
  234MOL0     C32183   2.670   3.143   3.766  1.0808  0.2230 -0.3154
  234MOL0     C32184   2.770   3.249   3.745  0.0658 -0.1367 -0.1176
  234MOL0     O32185   2.731   3.378   3.703  0.0400  0.1011 -0.1828
  234MOL0     C32186   2.826   3.473   3.677  0.7944  0.6502  0.5777
  234MOL0     C32187   2.938   3.451   3.610  0.2673  0.2811 -0.3008
  234MOL0     C32188   3.019   3.557   3.584  0.3969  0.7860 -0.3478
  234MOL0     C32189   2.980   3.685   3.617  0.2760 -0.4196  1.6762
  234MOL0     O32190   3.043   3.804   3.581 -0.2534 -0.0425 -0.3666
  234MOL0     C32191   3.182   3.810   3.552  0.5946 -0.6562 -0.5113
  234MOL0     C32192   3.275   3.769   3.668  0.0645  0.2176 -0.2089
  234MOL0     C32193   3.422   3.793   3.645 -0.3143 -0.9495  0.3642
  234MOL0     C32194   3.494   3.787   3.774  0.1353 -0.8960 -0.7461
  234MOL0     C32195   3.650   3.785   3.770  0.0757  0.0429 -0.7077
  234MOL0     C32196   3.692   3.642   3.725  0.1398 -0.0808 -0.0614
  234MOL0     C32197   3.847   3.626   3.719 -0.4055 -1.1498 -0.7495
  234MOL0     C32198   3.922   3.663   3.847  0.5983 -0.5526 -0.3534
  234MOL0    Cl32199   3.859   3.583   3.994 -0.1057 -0.1902  0.0914
  234MOL0     C32200   2.856   3.706   3.670 -0.0418 -0.0200 -0.3448
  234MOL0     C32201   2.775   3.599   3.706  0.2197  0.2168  0.3077
  234MOL0     O32202   2.882   3.223   3.794 -0.1074 -0.3438  0.5290
  234MOL0     C32203   2.535   3.177   3.758  0.2024  0.6274  0.5201
  234MOL0     C32204   2.434   3.083   3.758  0.0721  0.8347 -0.2289
  234MOL0     N32205   2.126   2.361   4.022 -0.1184  0.1390 -0.2914
  234MOL0     N32206   2.166   2.244   3.989 -0.3083 -0.1168  0.1558
  234MOL0     C32207   3.002   1.913   4.475 -1.0068  0.1421 -0.4014
  234MOL0     C32208   2.986   1.894   4.614  0.3440  1.3379  0.4978
  234MOL0     C32209   2.737   1.788   5.006 -0.0339 -0.7308  0.1835
  234MOL0     C32210   2.855   1.764   5.081 -0.6853 -0.1748  0.5178
  234MOL0     C32211   2.860   1.757   5.219 -0.6280 -0.4929  0.0216
  234MOL0     C32212   2.748   1.764   5.301  0.1277  0.0305  0.1786
  234MOL0     O32213   2.741   1.759   5.438 -0.3506  0.0021 -0.0539
  234MOL0     C32214   2.853   1.738   5.525 -0.4413  0.3587  0.4092
  234MOL0     C32215   2.798   1.733   5.672 -0.3266 -0.5698 -0.6662
  234MOL0     C32216   2.913   1.694   5.757 -0.0676  1.5304  0.0866
  234MOL0     C32217   2.929   1.537   5.760 -0.4455 -0.5584  1.0455
  234MOL0     C32218   3.056   1.486   5.819 -0.3342 -0.8034  0.0034
  234MOL0     C32219   3.156   1.451   5.873 -1.1906 -0.1329  0.0370
  234MOL0     C32220   2.627   1.790   5.225 -0.2686  0.5736 -0.1554
  234MOL0     C32221   2.621   1.803   5.085  0.3555  0.0721 -0.0234
  234MOL0     C32222   2.478   1.826   5.029  0.5866 -0.0843 -1.0367
  234MOL0     H32223   2.782   1.633   4.630  0.6810 -0.3252  0.7957
  234MOL0     H32224   2.807   1.650   4.381  1.8723 -2.8052  2.0403
  234MOL0     H32225   2.726   1.817   4.200  0.5575 -0.3249  0.1297
  234MOL0     H32226   2.854   1.704   4.153 -1.2603  0.2435 -5.0021
  234MOL0     H32227   2.837   1.983   4.036  0.3505 -0.6768 -0.7467
  234MOL0     H32228   2.950   1.842   4.008 -0.1315 -1.0013  0.4376
  234MOL0     H32229   2.803   1.726   3.889  1.1828  0.0691  2.8747
  234MOL0     H32230   2.659   1.800   3.952  0.5426  0.4988  0.5664
  234MOL0     H32231   2.855   1.959   3.765  0.9494  0.1032  0.8159
  234MOL0     H32232   2.733   1.867   3.692  1.6912 -0.8571 -0.6256
  234MOL0     H32233   2.711   2.114   3.757  1.1449 -0.5213 -0.0647
  234MOL0     H32234   2.670   2.054   3.917 -0.9619 -2.8101  2.2084
  234MOL0     H32235   2.506   1.940   3.680 -2.5083  1.3777 -0.4176
  234MOL0     H32236   2.485   1.913   3.848 -0.8613  0.2768 -0.0638
  234MOL0     H32237   2.335   2.074   3.726  0.5501 -0.5178  1.2212
  234MOL0     H32238   2.470   2.182   3.715  0.1005  1.0262  0.5705
  234MOL0     H32239   2.361   2.057   3.975  1.2543  0.6520  1.8851
  234MOL0     H32240   2.487   2.182   3.963  0.6063 -2.2151 -0.8335
  234MOL0     H32241   2.422   2.418   3.879  0.9370 -0.6428  1.3118
  234MOL0     H32242   2.309   2.638   4.008  1.9916 -1.4672 -3.1806
  234MOL0     H32243   2.135   2.627   4.056 -2.6729  1.2186 -1.9911
  234MOL0     H32244   2.064   2.615   3.825  1.4822 -2.0539 -0.6071
  234MOL0     H32245   2.114   2.769   3.879 -2.6217 -1.1762 -0.7239
  234MOL0     H32246   2.248   2.567   3.687  0.7265  0.3217  0.2452
  234MOL0     H32247   2.169   2.721   3.642 -2.1379  0.8125  1.7541
  234MOL0     H32248   2.415   2.661   3.796  2.0328 -0.4510 -1.8215
  234MOL0     H32249   2.407   2.730   3.629 -0.8337 -2.1599 -0.1453
  234MOL0     H32250   2.612   2.805   3.797  1.1985  0.5822 -1.1612
  234MOL0     H32251   2.878   2.985   3.906 -3.3709 -2.8646  3.5416
  234MOL0     H32252   2.905   2.963   3.729 -1.4641  0.5279 -0.0907
  234MOL0     H32253   2.834   2.835   3.835  0.8680  0.2738  1.5356
  234MOL0     H32254   2.960   3.349   3.580 -0.0075 -0.5096  2.0293
  234MOL0     H32255   3.118   3.534   3.544  0.8198  0.3404  0.9073
  234MOL0     H32256   3.209   3.744   3.469  0.3317 -3.5814  1.5569
  234MOL0     H32257   3.222   3.907   3.522  2.3871 -0.4419  2.2142
  234MOL0     H32258   3.242   3.810   3.764 -3.5108 -2.6838  0.0681
  234MOL0     H32259   3.246   3.666   3.693  0.6991  0.1654  0.3275
  234MOL0     H32260   3.431   3.891   3.598  2.1109 -0.7500  1.1049
  234MOL0     H32261   3.461   3.715   3.579  4.9910  1.4321  0.1528
  234MOL0     H32262   3.458   3.702   3.834  1.2150  0.5662  2.1764
  234MOL0     H32263   3.462   3.869   3.840 -0.9384 -0.4335 -1.7893
  234MOL0     H32264   3.688   3.861   3.702 -0.0941 -0.8046 -1.7771
  234MOL0     H32265   3.690   3.807   3.870  0.9106 -2.3860 -0.4329
  234MOL0     H32266   3.655   3.618   3.624 -2.4087 -3.2572  1.4425
  234MOL0     H32267   3.656   3.572   3.801 -0.4072  1.4621  1.1355
  234MOL0     H32268   3.870   3.694   3.636  0.8273 -1.0738 -0.3723
  234MOL0     H32269   3.885   3.526   3.695  0.3569 -1.1870  0.5303
  234MOL0     H32270   3.914   3.768   3.877 -0.6969 -1.1434  1.4798
  234MOL0     H32271   4.027   3.634   3.831  1.0712  1.1745 -0.6822
  234MOL0     H32272   2.818   3.806   3.686  0.9335  0.3592 -0.2921
  234MOL0     H32273   2.677   3.605   3.752  0.9968 -0.0406  2.1150
  234MOL0     H32274   2.506   3.281   3.752  0.7949  0.7956  0.4427
  234MOL0     H32275   2.329   3.105   3.743 -0.5828 -2.7074 -1.7422
  234MOL0     H32276   3.051   1.994   4.421 -1.7883  1.3605  0.6430
  234MOL0     H32277   3.035   1.963   4.682 -1.2694  1.5725  1.4689
  234MOL0     H32278   2.953   1.747   5.039 -1.6726 -1.5913 -1.3533
  234MOL0     H32279   2.960   1.761   5.261 -0.7565  3.4414  0.3138
  234MOL0     H32280   2.878   1.636   5.496 -1.3547  0.5006 -0.9254
  234MOL0     H32281   2.927   1.816   5.504 -2.1205  1.8003 -0.3236
  234MOL0     H32282   2.731   1.648   5.683  2.2620 -2.5813  0.7339
  234MOL0     H32283   2.766   1.835   5.696  2.8982  0.8364 -1.7019
  234MOL0     H32284   3.001   1.737   5.709  2.0425 -0.4822  1.8985
  234MOL0     H32285   2.888   1.729   5.858 -0.1986  1.9864 -0.1050
  234MOL0     H32286   2.934   1.491   5.661  1.5217 -1.8071  1.6729
  234MOL0     H32287   2.841   1.502   5.816 -0.7448  1.2359  1.7534
  234MOL0     H32288   3.251   1.413   5.904  0.0305  1.4771 -1.5225
  234MOL0     H32289   2.546   1.810   5.295  1.2340 -2.2067  2.6482
  234MOL0     H32290   2.466   1.912   4.963 -1.0407 -0.8895 -1.8410
  234MOL0     H32291   2.437   1.741   4.974  0.7663  0.1317 -1.5113
  234MOL0     H32292   2.417   1.840   5.119  0.5883 -0.6738 -0.9377
  235MOL0     O32293   3.197  11.049   8.154 -0.4125 -0.0179  0.0697
  235MOL0     C32294   3.129  11.149   8.145 -0.0244  0.2276  0.3216
  235MOL0     O32295   3.168  11.276   8.183 -0.7989 -0.1224 -0.7627
  235MOL0     C32296   3.294  11.304   8.235 -0.9403  0.0038 -0.8730
  235MOL0     C32297   3.337  11.300   8.371 -0.5797  0.3703 -0.2769
  235MOL0     C32298   3.472  11.340   8.395 -0.6726  0.1021 -0.4638
  235MOL0     C32299   3.555  11.381   8.295 -0.5132 -0.0934 -0.0107
  235MOL0     O32300   3.680  11.426   8.332 -0.7018 -0.0661 -0.1013
  235MOL0     C32301   3.683  11.569   8.342  0.7736 -0.2430  0.3679
  235MOL0     C32302   3.804  11.625   8.257  0.3683  0.5574 -0.2410
  235MOL0     C32303   3.832  11.772   8.261 -0.1908  0.2493  0.0779
  235MOL0     C32304   3.762  11.848   8.150 -0.3117  0.0658 -0.0340
  235MOL0     C32305   3.795  11.994   8.170 -0.4072 -0.6512  0.2309
  235MOL0     C32306   3.747  12.072   8.057  0.0337  0.2637 -0.1147
  235MOL0     C32307   3.783  12.225   8.077  0.2432  0.4788  0.6392
  235MOL0     C32308   3.791  12.281   7.940 -0.6412  0.5074  0.5599
  235MOL0     N32309   3.811  12.426   7.940 -0.3583 -1.0952 -0.5147
  235MOL0     C32310   3.922  12.500   7.971 -1.0477  0.0569 -0.1797
  235MOL0     C32311   3.880  12.632   7.962 -0.9318  0.7497  0.1542
  235MOL0     C32312   3.954  12.753   8.004 -0.4623 -0.9134  1.1041
  235MOL0     C32313   4.106  12.743   7.994  1.9444 -0.1260  0.4533
  235MOL0     C32314   4.171  12.672   8.112 -0.0457  0.0465  0.3356
  235MOL0     C32315   4.321  12.721   8.112 -0.2265  0.8927  0.1285
  235MOL0     O32316   4.329  12.847   8.171 -0.1183  0.4705 -0.2367
  235MOL0     C32317   4.451  12.895   8.216  0.1984 -0.2254 -0.1647
  235MOL0     C32318   4.584  12.830   8.203 -0.0031 -0.3730  0.0251
  235MOL0     C32319   4.702  12.887   8.247 -0.1631  0.5895  0.3740
  235MOL0     C32320   4.825  12.796   8.260 -0.2929  0.0588  0.2336
  235MOL0     C32321   4.698  13.011   8.316 -0.3274  0.4594 -0.3181
  235MOL0     C32322   4.810  13.086   8.385 -0.0379  0.6447  0.7229
  235MOL0     O32323   4.794  13.142   8.505 -0.0766 -0.0817 -0.3614
  235MOL0     C32324   4.889  13.221   8.563  0.3619 -0.5012 -0.9078
  235MOL0     C32325   5.026  13.202   8.579 -0.6513  0.3775  0.3032
  235MOL0     C32326   5.108  13.294   8.646 -0.4633 -1.0059 -0.0680
  235MOL0     C32327   5.055  13.405   8.706  1.0778 -0.0688  0.9507
  235MOL0     O32328   5.129  13.495   8.777 -0.5729 -0.6808 -0.5496
  235MOL0     C32329   5.071  13.593   8.862 -0.1137 -0.3587 -0.5151
  235MOL0     C32330   5.179  13.663   8.939 -0.7041  0.0078  0.2885
  235MOL0     C32331   5.239  13.574   9.049  0.4775  0.1059  0.8084
  235MOL0     C32332   5.163  13.583   9.174  0.2699 -1.0954  0.1097
  235MOL0     C32333   5.152  13.456   9.256  0.3382  0.3111  0.1205
  235MOL0     C32334   5.280  13.432   9.331 -0.0656  0.8359  0.2980
  235MOL0     C32335   5.281  13.305   9.430  0.4676 -0.6323  0.3325
  235MOL0     C32336   5.407  13.282   9.514  0.6930 -0.5392 -0.6720
  235MOL0    Cl32337   5.457  13.433   9.594 -0.3158  0.0246  0.4450
  235MOL0     C32338   4.915  13.429   8.686  0.0787  0.2579  0.5939
  235MOL0     C32339   4.831  13.335   8.629 -0.5437  0.4740 -0.6766
  235MOL0     O32340   4.915  13.074   8.321  0.0937 -1.1568  0.5628
  235MOL0     C32341   4.574  13.073   8.332  0.1819 -0.4454  0.1549
  235MOL0     C32342   4.461  13.023   8.278 -0.1245 -0.3226 -0.4038
  235MOL0     N32343   3.746  12.624   7.935  0.5881  0.4327 -0.5802
  235MOL0     N32344   3.706  12.509   7.923 -0.3090 -0.2428 -0.0785
  235MOL0     C32345   3.517  11.392   8.168  0.8251  0.0768 -0.4795
  235MOL0     C32346   3.384  11.342   8.140  0.1634 -1.5900 -0.1683
  235MOL0     C32347   3.017  11.146   8.055  0.6137 -0.0037 -0.0733
  235MOL0     C32348   2.954  11.273   8.013  0.0642  0.0161 -0.2200
  235MOL0     C32349   2.845  11.274   7.929 -0.7690 -0.3459 -0.7637
  235MOL0     C32350   2.779  11.163   7.892  1.2140 -0.1996 -0.1052
  235MOL0     O32351   2.666  11.157   7.813  0.4553  0.3774  0.0813
  235MOL0     C32352   2.686  11.222   7.680  0.4691  0.4179  0.1374
  235MOL0     C32353   2.558  11.198   7.604  0.1079  0.3991 -0.5162
  235MOL0     C32354   2.559  11.067   7.516  0.1792 -0.4252  0.0818
  235MOL0     C32355   2.593  10.938   7.598 -0.2816 -0.1393 -0.6824
  235MOL0     C32356   2.613  10.828   7.497 -0.5422 -0.1617  0.2724
  235MOL0     C32357   2.632  10.731   7.420 -0.6558 -0.4672  0.2565
  235MOL0     C32358   2.822  11.038   7.937  0.1636 -0.4640 -0.6644
  235MOL0     C32359   2.949  11.023   8.009 -0.7180 -0.0219  0.4063
  235MOL0     C32360   2.988  10.883   8.039 -0.7950 -0.0226  1.0800
  235MOL0     H32361   3.266  11.294   8.453  2.5248 -0.8741  2.5887
  235MOL0     H32362   3.513  11.334   8.495 -1.0631  3.3293 -0.0326
  235MOL0     H32363   3.694  11.603   8.445  0.7791  0.9816 -0.0204
  235MOL0     H32364   3.594  11.617   8.300  0.7113 -0.5372  0.1606
  235MOL0     H32365   3.888  11.568   8.298  1.7958  2.1993 -0.7768
  235MOL0     H32366   3.791  11.596   8.152 -1.1544  0.2396  0.0135
  235MOL0     H32367   3.800  11.813   8.357  0.2877  2.7848 -0.7654
  235MOL0     H32368   3.939  11.793   8.258 -0.4674  2.2863  1.9555
  235MOL0     H32369   3.791  11.815   8.050 -1.1753 -1.7058  0.2605
  235MOL0     H32370   3.655  11.831   8.160 -0.5822  0.2874 -2.2202
  235MOL0     H32371   3.901  12.017   8.186 -0.2700  0.0959 -1.5879
  235MOL0     H32372   3.746  12.024   8.264  0.8043 -0.6593  0.8882
  235MOL0     H32373   3.795  12.032   7.967  1.3728 -2.1880  1.5731
  235MOL0     H32374   3.638  12.060   8.050 -0.3392  1.4525  2.7359
  235MOL0     H32375   3.884  12.243   8.117  0.6395 -1.3088  0.5114
  235MOL0     H32376   3.700  12.273   8.130 -0.1839  1.1452 -0.5859
  235MOL0     H32377   3.880  12.244   7.889 -2.5551 -2.6424 -0.8270
  235MOL0     H32378   3.704  12.249   7.882  0.8640  0.8650 -2.0647
  235MOL0     H32379   4.017  12.452   7.994 -1.4961 -1.2004 -0.8249
  235MOL0     H32380   3.942  12.785   8.108  4.6539  0.7583  1.4923
  235MOL0     H32381   3.911  12.835   7.945 -2.6320 -0.5561  3.0299
  235MOL0     H32382   4.144  12.695   7.903  2.5438  1.2547 -0.0614
  235MOL0     H32383   4.145  12.845   7.991  2.2509 -0.0333  3.9486
  235MOL0     H32384   4.120  12.697   8.205  1.6432  3.4280  0.5291
  235MOL0     H32385   4.170  12.563   8.105 -2.1566 -0.0142  0.9066
  235MOL0     H32386   4.383  12.635   8.140  1.9265  1.4994 -2.3241
  235MOL0     H32387   4.368  12.736   8.014  2.2507  1.3916  1.3168
  235MOL0     H32388   4.595  12.733   8.156  0.9407 -0.1677 -0.1828
  235MOL0     H32389   4.803  12.689   8.253 -1.2210  0.3478 -1.7097
  235MOL0     H32390   4.880  12.819   8.353 -1.3939  1.4387  0.5752
  235MOL0     H32391   4.889  12.819   8.175  0.2040 -1.3120  0.2092
  235MOL0     H32392   5.075  13.120   8.528 -0.1380  0.8750 -0.0204
  235MOL0     H32393   5.211  13.267   8.667 -0.6931 -0.4308  2.0147
  235MOL0     H32394   5.009  13.667   8.810 -1.5944  0.0287  1.6479
  235MOL0     H32395   5.000  13.549   8.932 -0.1152  3.2530  2.0365
  235MOL0     H32396   5.262  13.697   8.875 -2.9962  0.4603 -2.6568
  235MOL0     H32397   5.126  13.751   8.977 -1.4115 -0.4065  0.2630
  235MOL0     H32398   5.342  13.606   9.070  0.7686 -0.6951  0.6685
  235MOL0     H32399   5.234  13.472   9.010  1.1325  1.2948 -2.6947
  235MOL0     H32400   5.058  13.614   9.169  0.2857 -0.6407  1.8825
  235MOL0     H32401   5.194  13.664   9.241 -0.9137 -1.5971  1.3147
  235MOL0     H32402   5.071  13.464   9.329  1.2673  1.0830  1.1109
  235MOL0     H32403   5.117  13.381   9.186 -2.4235  2.5852 -1.1400
  235MOL0     H32404   5.297  13.525   9.387 -3.0274  2.6368 -1.4890
  235MOL0     H32405   5.356  13.429   9.253 -1.0041  2.0952 -0.7104
  235MOL0     H32406   5.256  13.205   9.393 -3.8173  0.3895  0.0320
  235MOL0     H32407   5.198  13.327   9.498 -0.0074  0.3439 -0.5475
  235MOL0     H32408   5.495  13.257   9.455  1.2346  2.2617 -1.1868
  235MOL0     H32409   5.385  13.209   9.592 -0.8645 -0.3797 -0.9318
  235MOL0     H32410   4.872  13.510   8.744  0.3975  0.9461 -0.1196
  235MOL0     H32411   4.724  13.335   8.646 -0.6184 -3.8269 -0.0870
  235MOL0     H32412   4.556  13.165   8.386  0.9730 -0.0151 -0.2962
  235MOL0     H32413   4.378  13.092   8.291 -2.4525 -2.7843 -1.2689
  235MOL0     H32414   3.567  11.442   8.086 -0.0486  1.4855 -0.1900
  235MOL0     H32415   3.356  11.351   8.035 -1.1555 -0.3115  0.2589
  235MOL0     H32416   2.989  11.372   8.040 -1.2311  0.8695 -1.4934
  235MOL0     H32417   2.804  11.368   7.892 -0.0592  0.6934  0.9467
  235MOL0     H32418   2.692  11.329   7.698 -1.8228  0.6155  0.0052
  235MOL0     H32419   2.770  11.181   7.624 -0.8727 -2.6507  0.1358
  235MOL0     H32420   2.531  11.282   7.539 -0.8647  0.5130  0.0229
  235MOL0     H32421   2.481  11.186   7.680  1.2795  1.6063  0.9250
  235MOL0     H32422   2.466  11.057   7.459  1.2257 -2.5923 -1.3923
  235MOL0     H32423   2.632  11.074   7.435 -0.8447 -1.8070 -1.0135
  235MOL0     H32424   2.521  10.906   7.675  1.1235  1.1512  1.2795
  235MOL0     H32425   2.692  10.954   7.642 -0.4244 -0.8051 -0.1008
  235MOL0     H32426   2.643  10.650   7.351 -0.9057 -1.7229  1.6472
  235MOL0     H32427   2.757  10.955   7.910 -2.0109  1.0963 -0.5058
  235MOL0     H32428   2.986  10.870   8.147  1.3144 -2.3513  0.9452
  235MOL0     H32429   2.913  10.816   7.996  0.5566 -0.1855 -1.2138
  235MOL0     H32430   3.088  10.865   7.998 -2.1188 -0.7809 -2.1326
  236MOL0     O32431   1.804   4.328   0.059  0.0232 -0.2812  0.3093
  236MOL0     C32432   1.730   4.358  -0.030  0.4850  0.2992 -0.6185
  236MOL0     O32433   1.764   4.438  -0.127  0.2169 -0.2230  0.1723
  236MOL0     C32434   1.891   4.426  -0.179  0.3362 -0.3930 -0.3296
  236MOL0     C32435   1.948   4.545  -0.215 -0.2214 -0.5571  0.8013
  236MOL0     C32436   2.077   4.551  -0.257 -0.3824 -0.1101  0.0334
  236MOL0     C32437   2.149   4.430  -0.282  0.9804 -0.4451  0.4205
  236MOL0     O32438   2.270   4.439  -0.341  1.0377 -0.7268 -0.2660
  236MOL0     C32439   2.276   4.545  -0.437 -0.1019  1.3806  0.2076
  236MOL0     C32440   2.382   4.528  -0.544 -0.0919  0.1604 -1.2044
  236MOL0     C32441   2.519   4.532  -0.489 -0.7963 -0.0746  0.3196
  236MOL0     C32442   2.610   4.427  -0.561 -0.7500 -0.5633  0.6878
  236MOL0     C32443   2.749   4.414  -0.500  1.0467 -0.1430 -0.6371
  236MOL0     C32444   2.844   4.512  -0.565 -0.7261 -0.3620  0.2873
  236MOL0     C32445   2.995   4.494  -0.526  0.6644 -0.9027 -0.0779
  236MOL0     C32446   3.049   4.350  -0.563  0.1369  0.1472  0.6759
  236MOL0     N32447   3.194   4.359  -0.585  0.0372  0.7161  1.0068
  236MOL0     C32448   3.254   4.445  -0.678 -1.4691 -0.8287 -0.3697
  236MOL0     C32449   3.384   4.411  -0.667 -0.5293 -0.3994  0.5728
  236MOL0     C32450   3.493   4.478  -0.738 -0.5999 -0.4068  0.6544
  236MOL0     C32451   3.569   4.596  -0.679 -0.8942 -0.6642  0.1428
  236MOL0     C32452   3.655   4.668  -0.778  0.3844  0.2394 -0.3926
  236MOL0     C32453   3.736   4.786  -0.714 -0.1882  0.2639 -0.6462
  236MOL0     O32454   3.647   4.877  -0.660  0.6832  0.2083  0.4388
  236MOL0     C32455   3.700   4.981  -0.586 -0.4999  0.3321  0.4895
  236MOL0     C32456   3.624   5.048  -0.492  0.4311 -0.6421 -0.8333
  236MOL0     C32457   3.665   5.158  -0.414 -0.0884  0.4620  0.2795
  236MOL0     C32458   3.553   5.238  -0.353  0.2681 -0.4256  0.2848
  236MOL0     C32459   3.798   5.185  -0.419 -0.0403  0.0017 -0.5148
  236MOL0     C32460   3.853   5.263  -0.307 -0.5664 -0.9202 -0.0875
  236MOL0     O32461   3.976   5.296  -0.324 -0.5882 -0.1645 -0.3244
  236MOL0     C32462   4.028   5.412  -0.274  0.9341 -0.8256  0.1942
  236MOL0     C32463   4.170   5.410  -0.270  0.2778  0.1197 -0.1046
  236MOL0     C32464   4.233   5.520  -0.217  0.6117  0.3707 -0.2599
  236MOL0     C32465   4.172   5.646  -0.200 -0.3543 -0.0935 -0.2206
  236MOL0     O32466   4.248   5.746  -0.167 -0.1722  0.5366  0.8982
  236MOL0     C32467   4.218   5.863  -0.237 -0.0277 -0.2911 -0.6099
  236MOL0     C32468   4.331   5.971  -0.231 -0.1131  0.4090 -0.8658
  236MOL0     C32469   4.352   6.038  -0.083 -0.4411 -0.4244 -0.2079
  236MOL0     C32470   4.246   6.144  -0.046  0.0517  0.1277  1.1154
  236MOL0     C32471   4.261   6.216   0.089 -0.2833  1.5164  0.3391
  236MOL0     C32472   4.153   6.315   0.118 -0.3688  0.6400 -0.8028
  236MOL0     C32473   4.154   6.335   0.270  0.3898  0.6089 -0.6639
  236MOL0     C32474   4.050   6.421   0.325  0.3395 -0.0850 -0.9749
  236MOL0    Cl32475   4.074   6.441   0.496  0.2006  0.4465  0.1008
  236MOL0     C32476   4.035   5.649  -0.212  0.0922  0.4985 -0.5025
  236MOL0     C32477   3.965   5.537  -0.249 -0.0055  0.7081  0.6201
  236MOL0     O32478   3.789   5.301  -0.211 -0.3512 -0.1853  0.0284
  236MOL0     C32479   3.878   5.130  -0.520 -0.3141  1.1222 -0.8463
  236MOL0     C32480   3.834   5.028  -0.610  0.2105 -0.4085 -0.8691
  236MOL0     N32481   3.402   4.329  -0.554 -0.4728  0.3158  0.2484
  236MOL0     N32482   3.286   4.300  -0.513  0.1700 -0.5522 -0.2815
  236MOL0     C32483   2.089   4.306  -0.253 -0.8134 -0.1824  0.1784
  236MOL0     C32484   1.964   4.304  -0.189  0.4149  0.2465  0.6424
  236MOL0     C32485   1.586   4.310  -0.032  0.1690 -0.4631  0.3673
  236MOL0     C32486   1.528   4.272  -0.153  0.0695 -0.6735 -0.1363
  236MOL0     C32487   1.397   4.233  -0.162 -0.1131  0.0961  0.1976
  236MOL0     C32488   1.310   4.218  -0.051 -0.4565  0.1893  0.2887
  236MOL0     O32489   1.184   4.176  -0.072  0.3639 -0.2231  0.6903
  236MOL0     C32490   1.086   4.184   0.032  0.5239  0.1269  0.2382
  236MOL0     C32491   0.948   4.153  -0.033 -0.3155 -0.6691 -0.0277
  236MOL0     C32492   0.837   4.181   0.067  0.4274  0.5287  0.2372
  236MOL0     C32493   0.702   4.107   0.036  0.1060  0.6529 -0.7794
  236MOL0     C32494   0.590   4.157   0.116  0.0468  0.6112  0.4896
  236MOL0     C32495   0.503   4.211   0.189  0.1902  0.1398 -0.8818
  236MOL0     C32496   1.368   4.249   0.073  0.1144  1.3735  0.4173
  236MOL0     C32497   1.500   4.300   0.086  0.5520 -1.1252 -0.1282
  236MOL0     C32498   1.546   4.347   0.219 -0.0945 -0.3643 -0.0068
  236MOL0     H32499   1.903   4.640  -0.185 -0.0189 -0.4368  0.7270
  236MOL0     H32500   2.118   4.651  -0.262  2.6527 -1.2231  0.5451
  236MOL0     H32501   2.294   4.643  -0.393  0.2475  0.7053  1.6107
  236MOL0     H32502   2.181   4.545  -0.492  0.3987  1.7894 -0.6744
  236MOL0     H32503   2.361   4.434  -0.595 -0.0276 -0.4518 -0.1281
  236MOL0     H32504   2.362   4.608  -0.616 -1.1955 -0.4272 -1.5798
  236MOL0     H32505   2.541   4.639  -0.486 -0.6213 -0.0667 -1.0622
  236MOL0     H32506   2.507   4.502  -0.384 -1.9121 -1.0315 -0.0556
  236MOL0     H32507   2.569   4.325  -0.565 -0.5771 -0.5904 -3.1216
  236MOL0     H32508   2.630   4.454  -0.665  2.5570  0.3700  1.4530
  236MOL0     H32509   2.789   4.313  -0.513 -3.1983 -2.2948  0.8643
  236MOL0     H32510   2.753   4.429  -0.392 -3.2266 -0.2466 -0.2885
  236MOL0     H32511   2.843   4.502  -0.674  0.2533 -1.2292  0.3467
  236MOL0     H32512   2.815   4.616  -0.545  3.0601  0.6991  1.1004
  236MOL0     H32513   3.004   4.520  -0.420  0.5107  1.2133 -0.5392
  236MOL0     H32514   3.049   4.574  -0.577  0.3166 -0.8010 -0.2895
  236MOL0     H32515   3.034   4.280  -0.481  1.3406 -0.3639  0.4805
  236MOL0     H32516   2.999   4.326  -0.658  1.1609  0.4169  0.0440
  236MOL0     H32517   3.203   4.512  -0.747 -0.1375  1.5111  0.7708
  236MOL0     H32518   3.457   4.496  -0.840 -0.3908 -2.3818  0.1930
  236MOL0     H32519   3.569   4.401  -0.760 -1.5410 -0.5446 -2.7179
  236MOL0     H32520   3.500   4.670  -0.637 -0.1190 -0.2362  0.6863
  236MOL0     H32521   3.626   4.555  -0.596 -2.3992 -2.3737  0.3883
  236MOL0     H32522   3.720   4.602  -0.837 -0.7885 -2.5483  1.2216
  236MOL0     H32523   3.590   4.706  -0.857  1.9382 -0.4176 -2.0895
  236MOL0     H32524   3.803   4.761  -0.631  1.1125  2.2533 -1.0339
  236MOL0     H32525   3.792   4.846  -0.787 -1.5292  1.9779 -0.3321
  236MOL0     H32526   3.518   5.027  -0.480  0.4049  1.1021  6.3999
  236MOL0     H32527   3.578   5.343  -0.372  0.9449 -0.8447 -1.3406
  236MOL0     H32528   3.533   5.225  -0.247 -1.4155  1.0279  0.1986
  236MOL0     H32529   3.456   5.219  -0.401 -1.4235  0.6039  3.0411
  236MOL0     H32530   4.216   5.313  -0.284  1.1381  0.0232  2.6966
  236MOL0     H32531   4.340   5.516  -0.198  0.3564  0.2292  1.2519
  236MOL0     H32532   4.203   5.836  -0.342  0.5801  0.9086 -1.0209
  236MOL0     H32533   4.118   5.899  -0.212 -0.8531 -3.2116  0.6857
  236MOL0     H32534   4.424   5.925  -0.265 -0.8686 -0.5961 -1.6352
  236MOL0     H32535   4.317   6.051  -0.305  3.1558  2.3522  0.3744
  236MOL0     H32536   4.454   6.076  -0.084 -0.6842  0.2611 -1.0587
  236MOL0     H32537   4.360   5.954  -0.014 -2.6913 -0.8749 -0.3968
  236MOL0     H32538   4.146   6.099  -0.047  1.0608 -2.2929 -0.1524
  236MOL0     H32539   4.240   6.225  -0.120 -1.0273  0.2161  1.2885
  236MOL0     H32540   4.237   6.139   0.163 -3.4183  0.4666 -1.5293
  236MOL0     H32541   4.358   6.266   0.090  0.1612  0.9758 -3.1196
  236MOL0     H32542   4.060   6.265   0.088 -0.4521  1.3304 -1.6979
  236MOL0     H32543   4.157   6.407   0.059 -1.7957  1.5217  0.3954
  236MOL0     H32544   4.254   6.376   0.288  0.9524 -1.1800  0.5272
  236MOL0     H32545   4.142   6.236   0.316  0.5612  1.2877  0.8819
  236MOL0     H32546   3.948   6.385   0.309 -0.6628  2.0067  0.3990
  236MOL0     H32547   4.056   6.519   0.277 -0.1649  0.1254 -0.6073
  236MOL0     H32548   3.974   5.737  -0.193 -2.3901 -0.8309 -1.7743
  236MOL0     H32549   3.858   5.529  -0.265  0.1206 -2.4958  0.7276
  236MOL0     H32550   3.986   5.137  -0.514 -0.0168 -2.2468 -0.1800
  236MOL0     H32551   3.903   4.983  -0.682  1.6632 -0.9048  0.7672
  236MOL0     H32552   2.150   4.223  -0.286  2.7944  0.9797  3.2621
  236MOL0     H32553   1.922   4.207  -0.167 -1.8886  0.6230 -1.5589
  236MOL0     H32554   1.591   4.283  -0.241  3.6236 -1.0173  2.1794
  236MOL0     H32555   1.361   4.189  -0.255 -0.8964 -2.9768  1.8044
  236MOL0     H32556   1.105   4.101   0.100  1.2244 -2.2601 -2.6171
  236MOL0     H32557   1.083   4.285   0.074 -1.6262 -0.3917  1.4736
  236MOL0     H32558   0.943   4.045  -0.048  0.5716 -0.8507  0.8888
  236MOL0     H32559   0.923   4.214  -0.120 -0.3211 -2.5421 -1.4168
  236MOL0     H32560   0.876   4.152   0.165  1.4219  1.2074  0.0525
  236MOL0     H32561   0.812   4.286   0.080  0.3512  0.3876  1.3999
  236MOL0     H32562   0.723   4.002   0.059  3.4894  1.0804 -1.3425
  236MOL0     H32563   0.683   4.121  -0.071  2.0325  2.4329 -0.9653
  236MOL0     H32564   0.436   4.254   0.260  0.9555 -0.5701  0.3237
  236MOL0     H32565   1.314   4.237   0.166 -1.3902 -0.1440 -0.5929
  236MOL0     H32566   1.464   4.382   0.283 -1.0333 -1.0960 -0.7764
  236MOL0     H32567   1.608   4.269   0.263 -0.9727 -1.5598 -0.8543
  236MOL0     H32568   1.608   4.434   0.195  0.8320 -1.5614 -2.2378
  237MOL0     O32569   3.384   2.095   4.337  0.0498  0.4700 -0.2345
  237MOL0     C32570   3.443   2.086   4.232 -0.3288  0.2777  0.1599
  237MOL0     O32571   3.509   2.188   4.164  1.1073 -0.6686  0.0300
  237MOL0     C32572   3.485   2.314   4.200 -0.6891 -0.2402  0.2487
  237MOL0     C32573   3.382   2.384   4.138  0.0042  0.6796 -0.5313
  237MOL0     C32574   3.355   2.509   4.180  0.0614 -0.6084  0.1050
  237MOL0     C32575   3.414   2.564   4.299  0.5837 -0.0056  0.5274
  237MOL0     O32576   3.387   2.684   4.358 -0.4892  0.7037  0.1934
  237MOL0     C32577   3.346   2.794   4.280  0.3321  0.6335  1.2007
  237MOL0     C32578   3.401   2.924   4.333  0.2468 -0.4022  0.2230
  237MOL0     C32579   3.553   2.926   4.324 -0.0896 -0.4107  0.5505
  237MOL0     C32580   3.626   3.059   4.347 -0.7603  0.3402 -0.7466
  237MOL0     C32581   3.770   3.029   4.372  0.8452 -0.9503  0.9667
  237MOL0     C32582   3.841   3.150   4.441 -0.4345 -0.7764 -0.9244
  237MOL0     C32583   3.985   3.102   4.460 -0.2642 -1.0784 -0.6690
  237MOL0     C32584   4.079   3.210   4.532  0.3093  0.3961  0.3267
  237MOL0     N32585   4.213   3.162   4.559  0.4015 -0.2728 -0.0859
  237MOL0     C32586   4.253   3.101   4.680 -0.0411 -0.8565  0.2740
  237MOL0     C32587   4.382   3.072   4.662  1.1794  0.7923 -0.0526
  237MOL0     C32588   4.475   3.012   4.757 -0.2171 -0.0631 -0.0928
  237MOL0     C32589   4.407   2.903   4.831 -0.9519 -0.2586 -0.3857
  237MOL0     C32590   4.409   2.771   4.752  0.3727 -0.2531 -0.3446
  237MOL0     C32591   4.333   2.657   4.818 -0.7888  0.7213 -0.0663
  237MOL0     O32592   4.376   2.642   4.954 -0.1842 -0.0104 -0.3565
  237MOL0     C32593   4.297   2.581   5.047  0.0721  0.1889  0.0897
  237MOL0     C32594   4.373   2.531   5.145  0.1438  0.3862  0.2340
  237MOL0     C32595   4.316   2.457   5.249 -0.0184 -0.2214  0.2923
  237MOL0     C32596   4.402   2.423   5.364  0.8386  0.2176 -0.2016
  237MOL0     C32597   4.174   2.417   5.244  0.2752  0.2311  0.4605
  237MOL0     C32598   4.102   2.355   5.364  0.3881 -0.5640 -0.5914
  237MOL0     O32599   4.150   2.378   5.497  0.0064  0.9834 -0.3532
  237MOL0     C32600   4.060   2.352   5.593 -0.4650  0.3152  0.1447
  237MOL0     C32601   3.936   2.419   5.600 -0.4647  0.4142  0.1787
  237MOL0     C32602   3.847   2.388   5.699  0.5765  0.2039  0.4264
  237MOL0     C32603   3.884   2.317   5.815 -0.5459 -0.1947  0.2141
  237MOL0     O32604   3.809   2.301   5.925  0.0785 -0.8168 -0.2697
  237MOL0     C32605   3.741   2.415   5.988  0.5064 -0.6947 -0.6113
  237MOL0     C32606   3.835   2.501   6.074  0.1548 -0.0990  0.3527
  237MOL0     C32607   3.791   2.502   6.224 -0.0935  0.4838  0.1680
  237MOL0     C32608   3.884   2.413   6.297 -0.6578  0.7205  1.1010
  237MOL0     C32609   3.821   2.367   6.431 -0.0055 -0.3000 -0.6865
  237MOL0     C32610   3.920   2.286   6.515  0.4307  0.1013  1.0146
  237MOL0     C32611   3.988   2.384   6.607 -0.8587  0.8160 -0.8169
  237MOL0     C32612   4.077   2.308   6.708 -0.0355  0.0729 -0.9700
  237MOL0    Cl32613   3.979   2.253   6.840  0.2418  0.4629 -0.4629
  237MOL0     C32614   4.006   2.247   5.808  0.2498  0.1327  0.1982
  237MOL0     C32615   4.090   2.268   5.696 -0.9732 -0.0122  0.4264
  237MOL0     O32616   4.011   2.286   5.325 -0.9017  0.3916 -0.7734
  237MOL0     C32617   4.100   2.460   5.131 -0.3324 -1.2518  0.3042
  237MOL0     C32618   4.161   2.548   5.037  0.3946 -1.0158 -0.1732
  237MOL0     N32619   4.426   3.125   4.539  0.6509  0.7928 -0.1546
  237MOL0     N32620   4.322   3.169   4.472 -0.6238 -0.5013  0.1716
  237MOL0     C32621   3.520   2.500   4.357 -0.7429 -0.2548 -0.0021
  237MOL0     C32622   3.552   2.373   4.308 -0.3002  0.1616  0.1458
  237MOL0     C32623   3.452   1.954   4.173  0.9682  0.3579 -0.3528
  237MOL0     C32624   3.344   1.865   4.203  0.2249 -0.4172  0.6229
  237MOL0     C32625   3.350   1.729   4.155 -0.4033  0.0473  0.0341
  237MOL0     C32626   3.468   1.688   4.076  0.7990  0.4217 -1.1583
  237MOL0     O32627   3.481   1.557   4.034  0.2604 -0.2504 -0.6368
  237MOL0     C32628   3.584   1.514   3.945 -0.1751  0.0406 -0.3503
  237MOL0     C32629   3.531   1.393   3.880  0.6550 -0.1211 -0.3987
  237MOL0     C32630   3.524   1.271   3.976 -0.3267  0.4771 -0.3474
  237MOL0     C32631   3.428   1.158   3.938  0.9129 -0.2881  0.1139
  237MOL0     C32632   3.298   1.173   4.009  0.0604 -0.1944  0.0038
  237MOL0     C32633   3.191   1.188   4.072 -0.0986 -0.0696  0.1544
  237MOL0     C32634   3.566   1.779   4.053  0.0836  0.1654  0.5415
  237MOL0     C32635   3.566   1.908   4.107  0.0769  0.7062 -0.7509
  237MOL0     C32636   3.689   1.991   4.091 -0.1884  0.0945 -0.3361
  237MOL0     H32637   3.339   2.329   4.054  2.5035 -1.2605 -0.6655
  237MOL0     H32638   3.282   2.580   4.143 -1.1024 -0.2688  2.7725
  237MOL0     H32639   3.237   2.802   4.284  0.3952  1.1981  3.9499
  237MOL0     H32640   3.377   2.774   4.177 -0.1055 -0.4821  1.2692
  237MOL0     H32641   3.358   3.005   4.273  2.2742  1.1592  0.7705
  237MOL0     H32642   3.366   2.938   4.435  1.5237 -0.0656  0.6301
  237MOL0     H32643   3.583   2.859   4.405 -0.2187  0.6550  1.5022
  237MOL0     H32644   3.575   2.890   4.223  0.3414  4.4068 -1.3273
  237MOL0     H32645   3.609   3.112   4.253  2.6993 -0.1150 -1.7820
  237MOL0     H32646   3.578   3.114   4.428  1.5658  0.8252  0.3784
  237MOL0     H32647   3.822   3.017   4.276  1.9797  1.8116  1.1494
  237MOL0     H32648   3.782   2.933   4.422 -0.9741 -1.4494  0.5341
  237MOL0     H32649   3.839   3.241   4.381  2.0144  0.8726  1.2966
  237MOL0     H32650   3.796   3.171   4.538  2.4967  1.4521  0.0882
  237MOL0     H32651   4.033   3.077   4.365  4.7026  0.6995  1.0599
  237MOL0     H32652   3.985   3.011   4.520 -0.3128 -0.7718 -0.1985
  237MOL0     H32653   4.084   3.307   4.483  2.4321  0.8035  1.2284
  237MOL0     H32654   4.026   3.244   4.622 -0.3187 -0.2402  0.2083
  237MOL0     H32655   4.189   3.074   4.764 -3.4641  2.9487 -0.7936
  237MOL0     H32656   4.511   3.093   4.821  0.2955 -1.3988  1.3452
  237MOL0     H32657   4.555   2.972   4.694  1.4342  2.5456  0.1837
  237MOL0     H32658   4.465   2.882   4.921 -0.9085  2.1899  0.2170
  237MOL0     H32659   4.305   2.920   4.865 -0.1957 -1.8350  3.1491
  237MOL0     H32660   4.361   2.776   4.654 -0.5496 -0.3443  0.0920
  237MOL0     H32661   4.512   2.736   4.735 -0.3052 -1.9584 -1.1966
  237MOL0     H32662   4.231   2.698   4.820 -0.9165  0.4207  2.3404
  237MOL0     H32663   4.334   2.566   4.757 -2.2307 -1.2670  2.6547
  237MOL0     H32664   4.481   2.548   5.144  0.4687 -0.3933  4.1681
  237MOL0     H32665   4.430   2.318   5.357 -0.4454 -0.0332 -3.0480
  237MOL0     H32666   4.377   2.445   5.468  2.4938  1.3955  0.0005
  237MOL0     H32667   4.500   2.472   5.358  1.2698 -0.2243  2.2010
  237MOL0     H32668   3.914   2.500   5.531  1.7881  1.5372  0.7126
  237MOL0     H32669   3.756   2.447   5.695 -0.2324 -0.9477  1.3749
  237MOL0     H32670   3.684   2.482   5.922  3.9736 -0.7421 -4.0410
  237MOL0     H32671   3.670   2.364   6.052  1.2002  0.8524  1.5100
  237MOL0     H32672   3.939   2.467   6.067 -0.0549 -0.5331 -1.0705
  237MOL0     H32673   3.834   2.606   6.043  1.1676  0.1355  1.0640
  237MOL0     H32674   3.687   2.470   6.239 -0.0142  1.6193  4.2830
  237MOL0     H32675   3.787   2.600   6.273  0.3532  0.9665 -0.7401
  237MOL0     H32676   3.972   2.476   6.310 -1.0842  2.0501 -1.9029
  237MOL0     H32677   3.902   2.319   6.244  0.3514  1.1802  0.6015
  237MOL0     H32678   3.782   2.446   6.495 -1.5438 -2.5068  1.2951
  237MOL0     H32679   3.734   2.303   6.417  0.1582 -0.4028 -1.2751
  237MOL0     H32680   3.999   2.239   6.455 -0.3017  2.6148 -2.2430
  237MOL0     H32681   3.865   2.214   6.576 -0.2574 -1.0533 -0.8858
  237MOL0     H32682   3.918   2.437   6.672  1.1466  1.2757  1.0984
  237MOL0     H32683   4.045   2.460   6.554 -2.6977  4.2410  1.6912
  237MOL0     H32684   4.156   2.379   6.737 -1.0082  1.9715 -2.7467
  237MOL0     H32685   4.132   2.227   6.660  1.5901  1.8329 -2.2404
  237MOL0     H32686   4.038   2.187   5.893 -0.8441  0.5075  0.8919
  237MOL0     H32687   4.185   2.218   5.685 -0.4766  0.9469  0.2377
  237MOL0     H32688   3.993   2.441   5.121 -0.6576 -0.3200  1.7605
  237MOL0     H32689   4.105   2.586   4.953  0.8501 -1.1604 -0.5460
  237MOL0     H32690   3.571   2.546   4.441  0.5205 -0.9778 -0.3589
  237MOL0     H32691   3.630   2.313   4.354 -1.5048 -0.8762  0.8989
  237MOL0     H32692   3.260   1.900   4.262  0.9259 -1.0821  2.0682
  237MOL0     H32693   3.286   1.655   4.201 -1.8263  0.8358 -0.6075
  237MOL0     H32694   3.597   1.589   3.866 -4.8807  2.6272  0.9510
  237MOL0     H32695   3.677   1.494   3.999 -0.2461 -1.3863 -0.7179
  237MOL0     H32696   3.600   1.369   3.798  1.9148  2.6400 -0.2629
  237MOL0     H32697   3.428   1.411   3.849 -0.0608 -0.5835  1.6035
  237MOL0     H32698   3.627   1.235   3.980  0.7820  3.3607 -0.7716
  237MOL0     H32699   3.501   1.298   4.079 -1.1560 -0.1993 -0.3373
  237MOL0     H32700   3.481   1.068   3.971  1.5332 -0.6561 -1.7396
  237MOL0     H32701   3.403   1.155   3.831  2.3616  2.3497 -0.3695
  237MOL0     H32702   3.103   1.215   4.127  1.4379  0.5587  2.4314
  237MOL0     H32703   3.656   1.738   4.009 -1.8192 -2.4184 -1.3007
  237MOL0     H32704   3.776   1.933   4.060  0.2343  1.6331 -2.2875
  237MOL0     H32705   3.668   2.074   4.022 -1.1056  0.8535  0.8063
  237MOL0     H32706   3.708   2.037   4.188 -2.9259  0.9040 -0.0995
  238MOL0     O32707   4.561   8.382   4.260  0.2460 -0.7858  0.3933
  238MOL0     C32708   4.575   8.504   4.244  0.4038  0.1707  0.1000
  238MOL0     O32709   4.696   8.571   4.237  0.2713 -0.1356  0.4671
  238MOL0     C32710   4.812   8.539   4.312  0.2829 -0.7493  0.8355
  238MOL0     C32711   4.934   8.588   4.257 -0.4050 -1.0471  0.0136
  238MOL0     C32712   5.058   8.570   4.329  0.1308  0.6620  0.4677
  238MOL0     C32713   5.055   8.503   4.445 -0.0771 -0.6813  0.0431
  238MOL0     O32714   5.182   8.481   4.503  0.3201  0.3894  0.0990
  238MOL0     C32715   5.204   8.386   4.617 -0.1627  0.0495  0.7904
  238MOL0     C32716   5.357   8.370   4.637 -0.2471  0.9106  0.1362
  238MOL0     C32717   5.422   8.303   4.515  0.2250  0.2311  0.0235
  238MOL0     C32718   5.562   8.241   4.541 -0.0831  0.3077  0.5143
  238MOL0     C32719   5.668   8.362   4.543  0.3255  0.3050  1.0981
  238MOL0     C32720   5.808   8.312   4.570  0.3854 -0.4432 -0.9736
  238MOL0     C32721   5.914   8.420   4.540 -0.9191  0.5443  0.0101
  238MOL0     C32722   5.921   8.515   4.659 -0.4653  0.2157  0.5325
  238MOL0     N32723   6.040   8.601   4.670  0.7343  0.1702 -0.1547
  238MOL0     C32724   6.051   8.720   4.613 -1.2749  0.1596 -0.5408
  238MOL0     C32725   6.178   8.754   4.644  0.3283  0.3114  0.2510
  238MOL0     C32726   6.231   8.890   4.584  0.0222 -0.3707  0.2873
  238MOL0     C32727   6.305   8.972   4.695  0.9249  0.5108  0.3328
  238MOL0     C32728   6.456   8.926   4.724  0.5230 -0.3397  0.7056
  238MOL0     C32729   6.534   9.036   4.798  0.2178  0.9155  0.5791
  238MOL0     O32730   6.577   9.127   4.701 -0.3598  0.3887 -1.4227
  238MOL0     C32731   6.621   9.249   4.740 -0.2546 -0.1330 -0.5162
  238MOL0     C32732   6.668   9.274   4.873 -0.6409 -0.5315  0.3966
  238MOL0     C32733   6.724   9.394   4.918 -0.1049 -0.4940  0.6913
  238MOL0     C32734   6.746   9.381   5.071 -0.3868  0.0404  0.6144
  238MOL0     C32735   6.743   9.501   4.823 -0.1509 -0.0085 -0.3223
  238MOL0     C32736   6.804   9.632   4.868 -0.1652 -0.4590  0.0659
  238MOL0     O32737   6.878   9.696   4.779 -0.4480 -0.3745  0.0206
  238MOL0     C32738   6.939   9.821   4.806 -0.5061  0.4896 -0.7428
  238MOL0     C32739   6.887   9.945   4.778  0.3848 -0.7834  0.6036
  238MOL0     C32740   6.961  10.066   4.799 -0.8733  0.4428  0.6186
  238MOL0     C32741   7.095  10.055   4.850  0.6564  0.1852 -0.1452
  238MOL0     O32742   7.173  10.166   4.860  0.5330  0.4409 -0.2769
  238MOL0     C32743   7.319  10.152   4.847  0.0783 -0.9266 -0.3265
  238MOL0     C32744   7.387  10.286   4.815  0.0269  0.4685 -0.1761
  238MOL0     C32745   7.534  10.253   4.788 -1.0402  0.4675  0.6532
  238MOL0     C32746   7.605  10.180   4.898  0.4952  0.5783 -0.6542
  238MOL0     C32747   7.757  10.152   4.870 -0.4641  0.5599  0.7551
  238MOL0     C32748   7.798  10.003   4.841  0.8125 -0.0743  0.7654
  238MOL0     C32749   7.949   9.984   4.841 -0.8105 -0.2397  0.5743
  238MOL0     C32750   7.993   9.941   4.988 -0.7552 -0.1456 -0.5292
  238MOL0    Cl32751   7.902   9.791   5.045  0.4628 -0.2442 -0.1190
  238MOL0     C32752   7.133   9.931   4.891 -0.5475  0.1335 -0.2644
  238MOL0     C32753   7.058   9.818   4.871  0.2076 -0.0929 -0.5823
  238MOL0     O32754   6.805   9.670   4.989  0.0297  0.4792  0.0451
  238MOL0     C32755   6.715   9.471   4.689  0.6246 -0.7106  0.4472
  238MOL0     C32756   6.652   9.350   4.644 -0.0885  0.1149 -0.0176
  238MOL0     N32757   6.231   8.660   4.726 -1.0796  0.0034  0.1099
  238MOL0     N32758   6.147   8.570   4.745 -0.4671 -0.4182 -0.7164
  238MOL0     C32759   4.936   8.458   4.497  0.0738  0.2432 -0.2054
  238MOL0     C32760   4.816   8.481   4.440 -0.6430  0.0199 -0.2014
  238MOL0     C32761   4.462   8.583   4.197  0.1235  0.3175  0.6189
  238MOL0     C32762   4.466   8.667   4.085  0.9462  0.7362  0.2749
  238MOL0     C32763   4.351   8.747   4.052 -0.4120  1.2111 -0.3698
  238MOL0     C32764   4.237   8.728   4.124 -0.2557  0.2440  0.3465
  238MOL0     O32765   4.144   8.819   4.085  0.0756 -0.2962 -0.2139
  238MOL0     C32766   4.010   8.814   4.137  0.6046  0.1383 -0.5390
  238MOL0     C32767   3.908   8.897   4.056 -0.4745  0.6785  0.7372
  238MOL0     C32768   3.882   8.826   3.917  0.8895 -0.1066 -0.6868
  238MOL0     C32769   3.782   8.719   3.934 -0.2294  1.7532  0.1511
  238MOL0     C32770   3.731   8.676   3.801  0.5391  0.2301  0.6043
  238MOL0     C32771   3.700   8.633   3.694  0.5826 -0.3076  0.3774
  238MOL0     C32772   4.229   8.647   4.230  0.6842  0.4242 -1.6886
  238MOL0     C32773   4.343   8.580   4.278 -0.7302 -0.1332  0.2753
  238MOL0     C32774   4.334   8.494   4.404  0.5488 -1.2839  0.4849
  238MOL0     H32775   4.931   8.642   4.163  1.7786  0.6695  0.8486
  238MOL0     H32776   5.153   8.612   4.299  0.4265 -1.0776 -1.2351
  238MOL0     H32777   5.147   8.296   4.594 -2.0553  1.5881 -0.9933
  238MOL0     H32778   5.170   8.432   4.710  2.5912  1.6960  1.0847
  238MOL0     H32779   5.400   8.467   4.666 -1.0137  0.9542  1.1956
  238MOL0     H32780   5.367   8.294   4.716 -0.0199 -0.2690 -0.9893
  238MOL0     H32781   5.358   8.218   4.490  0.6339 -0.3283  0.8126
  238MOL0     H32782   5.432   8.368   4.428 -2.5266  0.0221 -0.5477
  238MOL0     H32783   5.565   8.199   4.642 -1.6068  1.0476  0.8935
  238MOL0     H32784   5.582   8.168   4.462 -0.4646  0.2254  0.4916
  238MOL0     H32785   5.629   8.431   4.618 -1.4401  2.7340 -1.8388
  238MOL0     H32786   5.650   8.407   4.445 -0.4834  1.6739  1.8495
  238MOL0     H32787   5.795   8.272   4.671  2.0757  1.3528  0.0298
  238MOL0     H32788   5.836   8.224   4.511 -1.0146 -1.7987  0.2867
  238MOL0     H32789   5.889   8.462   4.443 -2.6743 -1.3172 -0.4070
  238MOL0     H32790   6.008   8.364   4.547 -0.9837  0.5888  1.5713
  238MOL0     H32791   5.842   8.587   4.636 -2.8768 -2.2941  0.4874
  238MOL0     H32792   5.901   8.468   4.756  1.0892 -1.1548  0.2410
  238MOL0     H32793   5.973   8.770   4.556  0.4983  0.1824 -3.1389
  238MOL0     H32794   6.155   8.959   4.547  0.8914  2.1609  2.7979
  238MOL0     H32795   6.305   8.874   4.505 -0.2582  0.3015 -0.1198
  238MOL0     H32796   6.312   9.075   4.661 -0.3315 -0.1745 -2.2274
  238MOL0     H32797   6.252   8.975   4.791 -0.5555  4.2438 -0.4452
  238MOL0     H32798   6.459   8.836   4.786 -1.1621 -1.0675 -0.1986
  238MOL0     H32799   6.504   8.892   4.632 -1.0136 -3.0192  0.8054
  238MOL0     H32800   6.467   9.076   4.875 -1.0593 -1.3277  0.7334
  238MOL0     H32801   6.621   9.000   4.852  2.3169  2.9776 -1.2237
  238MOL0     H32802   6.637   9.199   4.946 -2.3746  1.9132  2.3505
  238MOL0     H32803   6.645   9.361   5.109 -0.5695 -0.9846 -0.3603
  238MOL0     H32804   6.762   9.477   5.120 -1.1007  0.8461 -0.6847
  238MOL0     H32805   6.822   9.307   5.097 -1.1454 -0.3729  1.7933
  238MOL0     H32806   6.782   9.945   4.748  0.8752 -0.4622 -1.2359
  238MOL0     H32807   6.940  10.172   4.788  1.7401  1.1589  1.6470
  238MOL0     H32808   7.363  10.113   4.939  0.6418 -0.7779 -0.5246
  238MOL0     H32809   7.340  10.084   4.764  0.7534 -0.4991 -0.5203
  238MOL0     H32810   7.350  10.331   4.722  4.6197 -0.0429 -2.5353
  238MOL0     H32811   7.378  10.352   4.902 -0.0243  0.2031  0.0224
  238MOL0     H32812   7.594  10.344   4.772  1.4510 -1.0619  0.7700
  238MOL0     H32813   7.550  10.198   4.695  0.4932 -1.4554  1.9867
  238MOL0     H32814   7.564  10.081   4.917  0.4882  0.6554 -0.2596
  238MOL0     H32815   7.589  10.243   4.986 -2.8893  0.4673 -1.0759
  238MOL0     H32816   7.785  10.208   4.781 -0.8472 -0.8367 -0.2746
  238MOL0     H32817   7.815  10.180   4.959  1.4566 -0.3335 -0.1632
  238MOL0     H32818   7.758   9.978   4.742 -0.0163 -1.9751  1.5211
  238MOL0     H32819   7.746   9.938   4.912 -1.4145  0.6211 -0.1296
  238MOL0     H32820   8.013  10.070   4.822  0.8060 -1.8763 -1.9840
  238MOL0     H32821   7.973   9.912   4.762  0.1941  1.6065 -0.8714
  238MOL0     H32822   7.957  10.019   5.055  2.7335 -0.0773  1.4876
  238MOL0     H32823   8.101   9.933   5.000 -0.9822 -1.8438  0.7268
  238MOL0     H32824   7.227   9.903   4.939 -0.0508 -0.9302 -1.7648
  238MOL0     H32825   7.107   9.726   4.899  1.2310  1.6126  4.2853
  238MOL0     H32826   6.742   9.547   4.615 -0.6671  0.3111  0.9798
  238MOL0     H32827   6.619   9.330   4.543  1.1832  1.3854 -0.7228
  238MOL0     H32828   4.949   8.409   4.593  1.7289  1.3679  0.1895
  238MOL0     H32829   4.725   8.451   4.490 -1.7624  1.9564 -0.9508
  238MOL0     H32830   4.555   8.680   4.023  1.4403 -0.9987  0.5657
  238MOL0     H32831   4.361   8.826   3.978  2.0898  1.9286  0.6073
  238MOL0     H32832   3.964   8.715   4.150 -0.8349  0.7041 -1.0976
  238MOL0     H32833   4.004   8.847   4.241  0.5863 -1.6425  0.0636
  238MOL0     H32834   3.940   9.002   4.048 -0.3992  0.6295  0.3834
  238MOL0     H32835   3.812   8.898   4.108 -0.6101 -0.5151  0.5290
  238MOL0     H32836   3.835   8.908   3.862 -3.1475 -0.4864  1.7893
  238MOL0     H32837   3.974   8.791   3.868  0.3542 -0.2746 -1.5926
  238MOL0     H32838   3.696   8.739   3.998 -1.3031 -0.3771 -0.5299
  238MOL0     H32839   3.834   8.630   3.973  1.9700  2.2842 -1.3462
  238MOL0     H32840   3.688   8.591   3.596  2.5009 -1.5132  0.6028
  238MOL0     H32841   4.141   8.658   4.292  1.4445  0.9798 -0.6721
  238MOL0     H32842   4.340   8.388   4.382 -2.9710 -1.7243  0.9928
  238MOL0     H32843   4.409   8.522   4.479  0.9030  2.6061 -1.0971
  238MOL0     H32844   4.241   8.512   4.459  2.1633  0.2022  2.9158
  239MOL0     O32845   5.180   8.980   3.661 -0.2168 -0.1941  0.1121
  239MOL0     C32846   5.271   8.977   3.572 -0.1627  0.8921 -0.2233
  239MOL0     O32847   5.261   8.898   3.466 -0.1936 -0.2025 -0.1470
  239MOL0     C32848   5.144   8.828   3.426  0.0541 -0.2238  0.0870
  239MOL0     C32849   5.159   8.691   3.398  0.5039 -1.0031 -0.8988
  239MOL0     C32850   5.047   8.620   3.343 -0.7242 -0.3806  0.1374
  239MOL0     C32851   4.922   8.685   3.323  0.3251 -0.1070  0.3204
  239MOL0     O32852   4.827   8.605   3.274  0.1586 -0.2047  0.0345
  239MOL0     C32853   4.722   8.675   3.197  0.3697 -0.0948 -0.4480
  239MOL0     C32854   4.590   8.693   3.277  0.5669 -0.5160  0.1836
  239MOL0     C32855   4.531   8.559   3.306  0.7028  0.2726  0.0929
  239MOL0     C32856   4.389   8.584   3.352  0.3704 -0.6749 -0.8454
  239MOL0     C32857   4.331   8.453   3.385  0.1066  0.0480  0.2871
  239MOL0     C32858   4.188   8.474   3.429  0.1088  0.2830 -0.0252
  239MOL0     C32859   4.105   8.348   3.453  1.2710 -0.1229  0.1529
  239MOL0     C32860   3.969   8.370   3.505  0.6258 -0.9752 -0.2923
  239MOL0     N32861   3.871   8.260   3.474 -0.4311 -0.5154 -0.3258
  239MOL0     C32862   3.790   8.257   3.359 -0.2559 -1.6136 -0.2847
  239MOL0     C32863   3.704   8.158   3.381  0.2494  0.1340 -0.2514
  239MOL0     C32864   3.611   8.090   3.291  0.9997 -0.0357  0.0586
  239MOL0     C32865   3.481   8.174   3.277 -0.4626  0.5317 -0.0914
  239MOL0     C32866   3.419   8.214   3.408  1.0193  0.4833  1.1117
  239MOL0     C32867   3.279   8.294   3.412  0.5696  1.0310  0.2229
  239MOL0     O32868   3.193   8.267   3.296 -0.3474 -0.0985 -1.0259
  239MOL0     C32869   3.125   8.148   3.310 -0.0262 -0.8668 -0.5342
  239MOL0     C32870   3.143   8.048   3.222  0.4066 -0.2102 -0.0330
  239MOL0     C32871   3.083   7.918   3.231 -0.4815  0.0546  0.7764
  239MOL0     C32872   3.103   7.816   3.110 -0.0465 -0.9336 -0.1672
  239MOL0     C32873   2.994   7.898   3.338 -0.0237  0.0944 -0.4200
  239MOL0     C32874   2.898   7.789   3.339 -0.0160  0.3343 -0.7265
  239MOL0     O32875   2.773   7.820   3.360  1.0138  0.1371  0.0084
  239MOL0     C32876   2.671   7.721   3.374 -0.7356 -0.4775  0.6888
  239MOL0     C32877   2.547   7.724   3.311 -0.5365  0.3546  0.3471
  239MOL0     C32878   2.467   7.605   3.301 -0.2201  0.1075 -0.4857
  239MOL0     C32879   2.498   7.493   3.367 -0.6249  0.2399 -0.5500
  239MOL0     O32880   2.405   7.389   3.356 -0.5154 -0.2908  0.2104
  239MOL0     C32881   2.469   7.267   3.347  0.0017  0.5206 -0.1052
  239MOL0     C32882   2.405   7.202   3.225 -0.2037  0.2828 -0.6768
  239MOL0     C32883   2.257   7.191   3.243 -1.1237  0.4111  0.7977
  239MOL0     C32884   2.208   7.085   3.141 -0.0649  1.2273 -0.7455
  239MOL0     C32885   2.053   7.097   3.118 -0.2326 -0.1954  0.3497
  239MOL0     C32886   2.005   7.005   3.008 -1.1275 -0.7974 -0.1714
  239MOL0     C32887   2.057   6.859   3.027 -0.2626 -0.6637  0.7611
  239MOL0     C32888   1.973   6.772   2.951  0.1429  0.0809  0.6465
  239MOL0    Cl32889   1.786   6.786   2.974  0.0071  0.1578  0.6825
  239MOL0     C32890   2.611   7.494   3.450 -0.3085  0.5922 -0.3924
  239MOL0     C32891   2.700   7.602   3.449 -0.6140  0.1796 -0.0463
  239MOL0     O32892   2.952   7.680   3.328  0.2478  0.3444  0.3563
  239MOL0     C32893   2.979   7.997   3.441 -0.0201 -0.0871 -0.2927
  239MOL0     C32894   3.049   8.119   3.423 -0.4636 -0.2713 -0.2690
  239MOL0     N32895   3.736   8.111   3.509  0.3580  0.4025  1.1016
  239MOL0     N32896   3.824   8.179   3.567  0.6450 -0.2103  0.3701
  239MOL0     C32897   4.905   8.819   3.358  0.1725 -0.3070 -0.3194
  239MOL0     C32898   5.017   8.883   3.411  0.2936 -0.2016  0.0749
  239MOL0     C32899   5.390   9.071   3.579  0.0486  0.3878 -0.3951
  239MOL0     C32900   5.442   9.117   3.463 -0.0608 -0.4295 -0.3562
  239MOL0     C32901   5.552   9.197   3.453  0.8648 -0.6222 -0.0872
  239MOL0     C32902   5.623   9.227   3.566  0.1772 -0.1430  0.1612
  239MOL0     O32903   5.740   9.301   3.553  0.3358 -0.2385  0.5057
  239MOL0     C32904   5.851   9.244   3.477 -0.3630  0.2051  0.5068
  239MOL0     C32905   5.951   9.343   3.444 -0.4737  0.3823 -0.2998
  239MOL0     C32906   5.884   9.450   3.352 -0.2784  0.7548 -0.1518
  239MOL0     C32907   5.975   9.561   3.321  0.2415  0.2780  0.6672
  239MOL0     C32908   5.957   9.669   3.418 -0.0928 -0.5729 -0.0265
  239MOL0     C32909   5.941   9.766   3.499 -0.6376  0.4765  0.4994
  239MOL0     C32910   5.566   9.203   3.689  0.9229 -0.2962  0.1720
  239MOL0     C32911   5.449   9.121   3.691 -0.8066  0.7488 -1.1355
  239MOL0     C32912   5.401   9.083   3.831 -0.2686  0.3309  0.4145
  239MOL0     H32913   5.254   8.641   3.404 -0.2820 -2.4567  0.1274
  239MOL0     H32914   5.059   8.523   3.295  0.5712  0.6667 -1.8020
  239MOL0     H32915   4.706   8.619   3.104  0.4816  0.9805 -1.1193
  239MOL0     H32916   4.762   8.768   3.157 -0.6977 -0.0064 -1.3450
  239MOL0     H32917   4.610   8.750   3.367  0.5770  0.7921 -0.6245
  239MOL0     H32918   4.529   8.762   3.217  0.0852 -0.7078  0.4513
  239MOL0     H32919   4.528   8.509   3.209 -0.1828  0.6475 -0.0776
  239MOL0     H32920   4.573   8.493   3.382 -2.0444 -1.9472 -0.1783
  239MOL0     H32921   4.392   8.645   3.442 -1.1254 -1.8705  0.0442
  239MOL0     H32922   4.325   8.637   3.281  2.1064  3.1777  0.2324
  239MOL0     H32923   4.395   8.397   3.455 -0.3838  0.8584  1.4223
  239MOL0     H32924   4.328   8.397   3.292  2.8265 -4.3063  2.4616
  239MOL0     H32925   4.188   8.521   3.528  3.4040 -0.8434  0.6525
  239MOL0     H32926   4.139   8.538   3.355  1.1853  0.2815 -0.7584
  239MOL0     H32927   4.158   8.288   3.528  2.6549  1.6759  0.6815
  239MOL0     H32928   4.112   8.288   3.362 -0.8621  0.2345 -0.2933
  239MOL0     H32929   3.973   8.390   3.612 -0.9113 -0.6568 -0.2710
  239MOL0     H32930   3.930   8.456   3.449  1.0779 -0.5213  0.0873
  239MOL0     H32931   3.812   8.312   3.268 -0.3594 -1.4867 -0.2352
  239MOL0     H32932   3.583   8.000   3.348 -1.8344  1.4299  1.1562
  239MOL0     H32933   3.658   8.078   3.193 -0.5961 -1.9290 -0.5675
  239MOL0     H32934   3.515   8.256   3.213  1.8489 -1.3650 -1.4863
  239MOL0     H32935   3.407   8.128   3.210  0.9727  0.7540 -1.9300
  239MOL0     H32936   3.407   8.119   3.462 -0.6929 -0.5999 -0.9881
  239MOL0     H32937   3.485   8.270   3.475  1.0822  0.0638  1.4019
  239MOL0     H32938   3.239   8.270   3.511  1.4208 -1.6834 -0.0108
  239MOL0     H32939   3.301   8.401   3.407 -2.4126  1.9517  3.2215
  239MOL0     H32940   3.216   8.066   3.143  2.4245 -0.6007  1.6679
  239MOL0     H32941   3.170   7.863   3.036  0.3060 -1.7003 -0.3477
  239MOL0     H32942   3.007   7.803   3.059 -0.0188  1.9803 -1.1090
  239MOL0     H32943   3.145   7.723   3.149 -1.5622 -1.0478  1.2730
  239MOL0     H32944   2.519   7.804   3.244 -2.0663 -0.7336 -0.3632
  239MOL0     H32945   2.370   7.615   3.253 -0.2523  1.9169 -0.1355
  239MOL0     H32946   2.578   7.272   3.336  0.6337  0.2735  4.3177
  239MOL0     H32947   2.452   7.202   3.433 -0.4214 -1.6054 -1.7144
  239MOL0     H32948   2.432   7.260   3.136  0.0915  2.0179  0.4803
  239MOL0     H32949   2.449   7.103   3.211 -1.1040 -0.7116  2.6692
  239MOL0     H32950   2.209   7.289   3.226 -0.3371  0.6612 -0.0683
  239MOL0     H32951   2.240   7.163   3.347 -0.7813  1.6312  1.2074
  239MOL0     H32952   2.241   6.986   3.176  2.5825  1.9498 -0.9840
  239MOL0     H32953   2.262   7.097   3.047  0.8046 -0.2152 -0.4612
  239MOL0     H32954   2.004   7.075   3.213 -1.4205  0.0214 -0.1959
  239MOL0     H32955   2.033   7.201   3.089 -0.3886 -0.0952  0.7954
  239MOL0     H32956   2.052   7.032   2.914  0.8938 -0.2400  0.9354
  239MOL0     H32957   1.898   7.028   3.009 -0.8010  0.9044  1.1435
  239MOL0     H32958   2.048   6.834   3.132  5.1480  0.1638  1.7314
  239MOL0     H32959   2.164   6.860   3.003  0.3463  0.4930  3.2142
  239MOL0     H32960   2.010   6.669   2.958  1.5438  0.0263 -4.0470
  239MOL0     H32961   1.994   6.794   2.846 -1.8434 -0.4256  0.0980
  239MOL0     H32962   2.623   7.408   3.516  0.4083  1.4577  0.6465
  239MOL0     H32963   2.792   7.598   3.507 -0.9983  3.3583  1.0011
  239MOL0     H32964   2.909   7.988   3.524 -0.2209  1.0656 -0.3277
  239MOL0     H32965   3.024   8.205   3.485 -0.8314  0.9045 -1.9744
  239MOL0     H32966   4.806   8.863   3.345  0.7555  0.4254 -2.8300
  239MOL0     H32967   5.000   8.985   3.442  3.0982  0.6900 -1.0310
  239MOL0     H32968   5.402   9.068   3.375 -0.9230 -0.6692  0.1564
  239MOL0     H32969   5.588   9.229   3.355 -0.6724  1.5836 -0.0144
  239MOL0     H32970   5.883   9.168   3.549 -0.2036 -0.9269 -0.7315
  239MOL0     H32971   5.818   9.191   3.387  0.6010  1.8325 -0.8643
  239MOL0     H32972   6.040   9.297   3.401 -0.8909  1.3045 -2.2395
  239MOL0     H32973   5.991   9.390   3.534 -0.0288  1.3956 -1.0180
  239MOL0     H32974   5.850   9.407   3.257 -2.7016 -0.2743  1.0954
  239MOL0     H32975   5.794   9.485   3.405  0.3534  0.9514  0.8126
  239MOL0     H32976   5.949   9.603   3.223  2.3213  3.5913  1.3782
  239MOL0     H32977   6.077   9.530   3.344 -0.5964 -1.1012  2.8112
  239MOL0     H32978   5.924   9.837   3.577 -0.6062 -0.9273  1.8345
  239MOL0     H32979   5.622   9.214   3.782  0.2863  0.1161  0.5178
  239MOL0     H32980   5.299   9.118   3.849 -0.8267 -1.9641  2.2332
  239MOL0     H32981   5.396   8.977   3.860 -3.2687  0.6316  1.3864
  239MOL0     H32982   5.467   9.127   3.905  0.4169  0.5745 -0.3236
  240MOL0     O32983   1.410   2.526   9.533 -0.0308 -0.0774  0.1537
  240MOL0     C32984   1.434   2.643   9.496 -0.7682  0.6175  0.7808
  240MOL0     O32985   1.553   2.705   9.516 -0.6472  0.4285  0.0788
  240MOL0     C32986   1.642   2.655   9.612  0.2842  0.2543  0.2217
  240MOL0     C32987   1.621   2.601   9.736  0.0772 -0.6823  0.5472
  240MOL0     C32988   1.728   2.558   9.814 -0.6361  0.2654 -0.0513
  240MOL0     C32989   1.860   2.567   9.772 -0.1059  0.4413 -0.8840
  240MOL0     O32990   1.951   2.503   9.849  0.0832 -0.4015  1.0949
  240MOL0     C32991   2.098   2.538   9.829 -0.2004  0.0366 -0.4375
  240MOL0     C32992   2.182   2.459   9.934 -0.2296 -0.1523 -0.2252
  240MOL0     C32993   2.324   2.505   9.931 -0.3953  0.8495 -0.5315
  240MOL0     C32994   2.412   2.452  10.046  0.6719  0.0264  0.6413
  240MOL0     C32995   2.559   2.480  10.032 -0.2009  0.1518 -0.7818
  240MOL0     C32996   2.641   2.399  10.133 -0.2724  0.0281 -0.6285
  240MOL0     C32997   2.792   2.408  10.115  0.4114  0.0710  0.6350
  240MOL0     C32998   2.869   2.284  10.164 -0.0727 -0.2588 -0.8108
  240MOL0     N32999   3.005   2.300  10.114 -0.8651  0.5895 -0.2870
  240MOL0     C33000   3.098   2.393  10.151  0.5990 -0.0023 -0.1642
  240MOL0     C33001   3.194   2.393  10.055  0.6420 -0.0304  0.4112
  240MOL0     C33002   3.313   2.476  10.039 -0.3483 -0.6571  0.4941
  240MOL0     C33003   3.280   2.624  10.057 -0.9020 -0.0803 -0.5538
  240MOL0     C33004   3.414   2.696  10.053  0.0828 -0.3017  0.1436
  240MOL0     C33005   3.389   2.846  10.053  0.5046  0.1742  0.2780
  240MOL0     O33006   3.511   2.909  10.100  0.5708 -0.9279  0.0893
  240MOL0     C33007   3.624   2.917  10.028  0.4091  0.1820 -0.2527
  240MOL0     C33008   3.731   2.954  10.101 -0.5965 -0.9139  0.4059
  240MOL0     C33009   3.859   2.993  10.049  0.1774  0.4991  0.6567
  240MOL0     C33010   3.964   3.068  10.142  0.1574 -0.1160  0.2552
  240MOL0     C33011   3.876   2.982   9.906  0.9287 -0.1199  0.0962
  240MOL0     C33012   4.001   3.005   9.826  0.3870 -0.8939 -0.8783
  240MOL0     O33013   4.002   2.962   9.699 -0.1950 -0.4331 -0.0781
  240MOL0     C33014   4.112   2.975   9.623  0.7682 -0.3055  0.2575
  240MOL0     C33015   4.192   2.869   9.603 -0.1666  0.5431 -0.4430
  240MOL0     C33016   4.304   2.879   9.523  0.5508  1.0222 -0.1047
  240MOL0     C33017   4.343   3.000   9.459 -0.1302  0.3351 -0.3077
  240MOL0     O33018   4.463   2.999   9.386  0.1310 -0.3021 -0.5096
  240MOL0     C33019   4.521   3.123   9.344  0.1932 -0.2187 -0.1544
  240MOL0     C33020   4.658   3.090   9.301 -0.5663  0.0517  0.3535
  240MOL0     C33021   4.751   3.207   9.331  0.2226  0.1634 -0.2283
  240MOL0     C33022   4.894   3.185   9.292  0.2332 -0.8009 -1.1321
  240MOL0     C33023   4.974   3.307   9.338 -1.3571  0.8385 -0.5821
  240MOL0     C33024   5.113   3.307   9.275  0.3784  0.6703 -1.1115
  240MOL0     C33025   5.191   3.432   9.297 -0.4969  0.2025 -0.2920
  240MOL0     C33026   5.236   3.451   9.444  0.1649 -0.8853 -0.1845
  240MOL0    Cl33027   5.331   3.301   9.497  0.4997 -0.1016 -0.2328
  240MOL0     C33028   4.263   3.119   9.492 -0.2934  0.4776 -0.5721
  240MOL0     C33029   4.149   3.100   9.572  0.9897  0.3447 -0.4754
  240MOL0     O33030   4.078   3.085   9.876  0.1155 -0.5327  0.2929
  240MOL0     C33031   3.758   2.947   9.836  1.1775  0.9034 -0.0428
  240MOL0     C33032   3.635   2.913   9.896 -0.0691  0.4212 -0.9327
  240MOL0     N33033   3.143   2.304   9.955  0.0950 -0.8043 -1.2330
  240MOL0     N33034   3.034   2.256   9.995  0.0834  0.2861  0.2633
  240MOL0     C33035   1.882   2.652   9.661 -0.0386  1.0178 -0.0477
  240MOL0     C33036   1.776   2.693   9.576  0.0402  0.5368 -0.4648
  240MOL0     C33037   1.357   2.703   9.383  0.1533 -0.0007  0.1742
  240MOL0     C33038   1.433   2.738   9.271 -0.1455 -0.3658 -0.1752
  240MOL0     C33039   1.370   2.776   9.152 -0.0928  0.3445  0.7405
  240MOL0     C33040   1.234   2.773   9.139  0.9740  0.5432 -0.1894
  240MOL0     O33041   1.177   2.804   9.013  0.1170  0.1605  0.0291
  240MOL0     C33042   1.068   2.892   9.034  0.9235  0.9951 -0.4136
  240MOL0     C33043   0.969   2.883   8.920 -0.5109  0.0563 -0.9541
  240MOL0     C33044   0.874   2.760   8.920 -0.7307  0.3729 -0.2730
  240MOL0     C33045   0.763   2.776   9.028 -0.0164 -0.7295  0.1900
  240MOL0     C33046   0.656   2.881   8.995  0.3217  1.2324 -0.3797
  240MOL0     C33047   0.589   2.974   8.961 -0.0663  0.1191 -0.1462
  240MOL0     C33048   1.159   2.725   9.249 -0.6237  1.4517 -0.2868
  240MOL0     C33049   1.217   2.699   9.377 -0.5288  0.0615  0.1440
  240MOL0     C33050   1.126   2.655   9.491  0.1703  0.8654 -0.2950
  240MOL0     H33051   1.520   2.577   9.768 -0.1284  0.5285  0.8645
  240MOL0     H33052   1.714   2.507   9.908  2.6766  1.4758  1.2548
  240MOL0     H33053   2.126   2.639   9.858  1.4661 -1.0172  2.0005
  240MOL0     H33054   2.133   2.507   9.731 -2.4061 -2.0219 -0.6646
  240MOL0     H33055   2.139   2.483  10.032  0.3377  3.6823 -0.7551
  240MOL0     H33056   2.179   2.353   9.910  0.0671 -0.0722 -0.6264
  240MOL0     H33057   2.359   2.488   9.829 -0.0019 -1.2145 -0.0922
  240MOL0     H33058   2.331   2.614   9.941  0.5504  0.9766 -2.1434
  240MOL0     H33059   2.370   2.486  10.142  0.2368  1.0458  0.1062
  240MOL0     H33060   2.394   2.346  10.030  0.7702  0.3186 -1.7915
  240MOL0     H33061   2.579   2.585  10.055  3.3731 -0.5239 -0.2632
  240MOL0     H33062   2.590   2.451   9.931  0.8021 -0.1852 -0.3885
  240MOL0     H33063   2.623   2.416  10.239  2.3091  1.2988 -0.3010
  240MOL0     H33064   2.622   2.292  10.117 -3.0719 -0.3033  3.4549
  240MOL0     H33065   2.818   2.509  10.147 -2.3949  0.7400  1.1476
  240MOL0     H33066   2.808   2.417  10.007  4.3544 -0.7070  1.0233
  240MOL0     H33067   2.868   2.275  10.273 -1.0817 -3.1217 -0.9882
  240MOL0     H33068   2.825   2.189  10.132 -0.6731 -1.5226  3.2221
  240MOL0     H33069   3.079   2.455  10.237  2.2952 -1.6532  1.5080
  240MOL0     H33070   3.359   2.465   9.940  0.9179 -0.0391  1.0015
  240MOL0     H33071   3.375   2.448  10.123 -2.5574 -2.5472  1.6064
  240MOL0     H33072   3.209   2.657   9.980  0.4171  4.1606 -0.2096
  240MOL0     H33073   3.238   2.654  10.153  0.6095 -2.3668  0.9208
  240MOL0     H33074   3.472   2.664  10.141 -1.9800 -2.6859  0.7752
  240MOL0     H33075   3.470   2.683   9.960 -2.2063 -2.3914 -1.0613
  240MOL0     H33076   3.365   2.877   9.951  0.7172  0.1576  0.2237
  240MOL0     H33077   3.310   2.882  10.121  2.5651  1.3111  2.2111
  240MOL0     H33078   3.719   2.951  10.208  0.2854  0.5493  0.5636
  240MOL0     H33079   3.921   3.089  10.241  1.0926 -1.3049  0.9417
  240MOL0     H33080   4.004   3.163  10.104 -1.1623  0.4779  0.2573
  240MOL0     H33081   4.046   2.999  10.164  0.0698  0.1520  1.4893
  240MOL0     H33082   4.167   2.787   9.671  3.4489  0.7029  1.3209
  240MOL0     H33083   4.361   2.787   9.519 -3.2564 -1.5999  0.6935
  240MOL0     H33084   4.467   3.177   9.265 -1.7077  0.6631  1.6400
  240MOL0     H33085   4.525   3.185   9.435  0.6523 -0.0114 -0.3145
  240MOL0     H33086   4.686   2.995   9.347 -0.2530 -0.2680 -0.4855
  240MOL0     H33087   4.657   3.062   9.195 -0.7172 -1.2356  0.6769
  240MOL0     H33088   4.756   3.232   9.438 -0.4880 -1.2094  0.1549
  240MOL0     H33089   4.719   3.284   9.260 -0.1122 -1.6723 -2.1294
  240MOL0     H33090   4.892   3.173   9.183 -1.6716  0.1545 -1.2456
  240MOL0     H33091   4.926   3.095   9.344  0.8590 -0.0197 -0.1368
  240MOL0     H33092   4.923   3.403   9.325 -1.9870  0.7429  1.0104
  240MOL0     H33093   4.993   3.301   9.445  1.3419 -2.2205 -1.0864
  240MOL0     H33094   5.095   3.291   9.168 -0.0753 -3.2790 -0.5830
  240MOL0     H33095   5.167   3.219   9.311  1.5385  1.4289 -0.9199
  240MOL0     H33096   5.126   3.514   9.266  0.9048  1.2015 -0.6994
  240MOL0     H33097   5.282   3.423   9.236 -0.2425 -0.5758  0.1790
  240MOL0     H33098   5.148   3.458   9.509  1.0588  1.6357  0.8583
  240MOL0     H33099   5.294   3.543   9.450  0.9312 -1.4487  2.5267
  240MOL0     H33100   4.285   3.219   9.454  0.9104  0.2295 -0.5695
  240MOL0     H33101   4.089   3.186   9.598 -0.6980 -0.6689 -0.8766
  240MOL0     H33102   3.742   2.937   9.729 -1.6586 -0.3299  0.3972
  240MOL0     H33103   3.553   2.891   9.828 -1.4998  0.6335  0.6804
  240MOL0     H33104   1.980   2.666   9.616 -1.1692  0.2685 -3.0143
  240MOL0     H33105   1.803   2.745   9.485 -1.5033 -3.5501 -3.5905
  240MOL0     H33106   1.541   2.751   9.276 -0.4627  3.1058  1.0193
  240MOL0     H33107   1.423   2.787   9.058  2.3606 -1.7515  1.7635
  240MOL0     H33108   1.006   2.880   9.123 -0.1184  0.0087 -1.2410
  240MOL0     H33109   1.106   2.994   9.041  1.6191  0.6445  1.9828
  240MOL0     H33110   1.010   2.892   8.819 -0.9159 -1.6022 -1.2856
  240MOL0     H33111   0.904   2.970   8.933  1.1198  1.5969 -2.5148
  240MOL0     H33112   0.828   2.748   8.822 -2.5899  0.7374  0.5226
  240MOL0     H33113   0.937   2.673   8.940  1.5287  1.9626 -0.0474
  240MOL0     H33114   0.806   2.813   9.122  1.5984  3.0121 -1.8259
  240MOL0     H33115   0.713   2.679   9.032 -0.2340 -0.7809 -2.1655
  240MOL0     H33116   0.526   3.057   8.935  1.0645  0.6701 -1.2260
  240MOL0     H33117   1.054   2.708   9.232 -0.5600  1.2007 -0.4366
  240MOL0     H33118   1.041   2.724   9.495 -0.4853  0.1210 -1.0178
  240MOL0     H33119   1.099   2.550   9.473  1.4163  0.9980 -3.4733
  240MOL0     H33120   1.165   2.660   9.593 -2.6110 -2.6459  1.1810
  241MOL0     O33121   4.104   3.840   6.437  0.8252 -0.1897  0.2528
  241MOL0     C33122   4.072   3.772   6.536 -1.3003  0.6881 -0.0881
  241MOL0     O33123   4.137   3.651   6.564  0.5770  0.1627  0.2217
  241MOL0     C33124   4.263   3.623   6.514  0.2696  0.5652  0.5594
  241MOL0     C33125   4.373   3.609   6.599 -0.7706  1.3461 -0.3540
  241MOL0     C33126   4.501   3.598   6.544 -0.1910 -0.0912  0.1276
  241MOL0     C33127   4.520   3.587   6.406  0.4517  0.2932 -0.0738
  241MOL0     O33128   4.653   3.568   6.362 -0.5276  0.4285  0.3844
  241MOL0     C33129   4.682   3.506   6.235  0.4731  0.6135  0.3355
  241MOL0     C33130   4.689   3.596   6.116 -0.2950  0.2287 -0.3198
  241MOL0     C33131   4.748   3.739   6.138 -0.2053  0.4255  0.0524
  241MOL0     C33132   4.904   3.735   6.145  0.5064  1.8363 -0.3198
  241MOL0     C33133   4.953   3.881   6.117  1.2024  0.1819  0.1805
  241MOL0     C33134   5.099   3.883   6.077  0.3061 -0.2703 -0.1595
  241MOL0     C33135   5.159   4.023   6.097 -0.0620  0.7114  0.8563
  241MOL0     C33136   5.307   4.001   6.041 -0.2551  0.0842 -0.9831
  241MOL0     N33137   5.388   4.112   6.083  0.4221 -0.3026  1.0516
  241MOL0     C33138   5.367   4.243   6.048 -0.2415  0.0276 -0.1719
  241MOL0     C33139   5.445   4.318   6.132  0.4890 -0.0349  0.4341
  241MOL0     C33140   5.468   4.469   6.123  0.0415  0.4027 -0.3908
  241MOL0     C33141   5.430   4.539   6.256 -1.2023  0.1514 -0.3742
  241MOL0     C33142   5.288   4.502   6.291  0.2790 -0.1203  0.6831
  241MOL0     C33143   5.239   4.600   6.399  0.4875 -0.3592  0.0229
  241MOL0     O33144   5.328   4.572   6.515  1.0936 -0.8264 -0.8300
  241MOL0     C33145   5.366   4.683   6.593  0.5584  0.1918 -0.1628
  241MOL0     C33146   5.314   4.811   6.605 -0.9809  0.0582  0.6919
  241MOL0     C33147   5.378   4.910   6.681 -0.9540 -0.5201 -0.2318
  241MOL0     C33148   5.329   5.051   6.686  0.3996  0.4113  0.0488
  241MOL0     C33149   5.506   4.882   6.739  0.3670 -0.1211  0.6134
  241MOL0     C33150   5.590   4.978   6.821 -0.0071  0.5434  1.3263
  241MOL0     O33151   5.657   4.922   6.929  0.5295 -0.8583 -0.0431
  241MOL0     C33152   5.756   4.992   6.994 -0.5138  0.0048  0.5739
  241MOL0     C33153   5.890   4.970   6.967  0.1992 -0.4091  0.1485
  241MOL0     C33154   5.993   5.038   7.041 -0.0515  0.9729  0.2585
  241MOL0     C33155   5.961   5.121   7.144 -0.0750 -0.1099 -0.1450
  241MOL0     O33156   6.064   5.191   7.205 -0.0930  0.6092 -0.3668
  241MOL0     C33157   6.047   5.329   7.204 -0.1687  0.1129 -0.6794
  241MOL0     C33158   6.044   5.394   7.064 -0.8014  0.2065  0.5096
  241MOL0     C33159   6.080   5.537   7.045 -1.0273  0.5222  0.2260
  241MOL0     C33160   6.078   5.630   7.167  0.8864  0.0160  0.6856
  241MOL0     C33161   6.128   5.774   7.127  0.4998 -0.2196  0.8058
  241MOL0     C33162   6.075   5.880   7.228 -0.3383  0.0276  0.8643
  241MOL0     C33163   6.126   6.029   7.218  0.4039  0.1336 -0.7448
  241MOL0     C33164   6.283   6.034   7.237  0.2449  0.6889  0.4052
  241MOL0    Cl33165   6.317   5.991   7.405 -0.1046  0.0576  0.4362
  241MOL0     C33166   5.833   5.129   7.185  0.5480  0.2603  0.9435
  241MOL0     C33167   5.729   5.054   7.115  0.5774 -0.7644 -0.5225
  241MOL0     O33168   5.595   5.095   6.781  0.4735  0.8064 -0.5068
  241MOL0     C33169   5.546   4.750   6.739  0.1541 -0.0379 -0.3437
  241MOL0     C33170   5.476   4.655   6.672  0.9900 -0.3502  0.6188
  241MOL0     N33171   5.511   4.228   6.220 -0.2721  0.3461 -0.2674
  241MOL0     N33172   5.472   4.110   6.189 -0.2134  0.3054  0.1876
  241MOL0     C33173   4.408   3.582   6.321  0.1043  0.3229 -0.5744
  241MOL0     C33174   4.284   3.610   6.374 -0.6796 -0.0156 -0.2921
  241MOL0     C33175   3.949   3.804   6.617  0.1075 -0.0804  0.0460
  241MOL0     C33176   3.913   3.721   6.723 -0.7375  0.1271  0.3432
  241MOL0     C33177   3.803   3.750   6.804  0.3008  0.8528  0.0608
  241MOL0     C33178   3.726   3.863   6.784  0.0312 -0.1603  0.1159
  241MOL0     O33179   3.627   3.885   6.878  0.7019  0.0607 -0.1283
  241MOL0     C33180   3.571   4.015   6.882  0.0318 -0.1985 -0.0664
  241MOL0     C33181   3.482   4.042   7.004  0.4734 -0.4146  0.0786
  241MOL0     C33182   3.364   3.946   7.034 -0.0956  0.2338 -0.3972
  241MOL0     C33183   3.294   3.894   6.906  0.5849 -0.5258 -0.4807
  241MOL0     C33184   3.158   3.843   6.932 -0.7348 -0.6412 -0.4174
  241MOL0     C33185   3.046   3.793   6.932  0.2390  0.2239  0.1806
  241MOL0     C33186   3.765   3.947   6.678  1.1081  0.2896  0.4525
  241MOL0     C33187   3.872   3.918   6.589 -0.4362 -0.3943 -0.6519
  241MOL0     C33188   3.890   4.021   6.474  0.4774 -0.3141  0.3463
  241MOL0     H33189   4.346   3.607   6.704 -1.0229 -2.8499 -0.3328
  241MOL0     H33190   4.595   3.588   6.597  0.5236 -1.3837 -1.3005
  241MOL0     H33191   4.620   3.416   6.233  1.7698 -0.3782  1.7245
  241MOL0     H33192   4.785   3.476   6.256 -0.1591 -2.5688 -0.5718
  241MOL0     H33193   4.763   3.550   6.050  2.8347  0.5736  2.6343
  241MOL0     H33194   4.592   3.615   6.070  0.5531  3.0831 -1.0993
  241MOL0     H33195   4.728   3.807   6.055  0.5179 -1.1803 -1.4811
  241MOL0     H33196   4.718   3.784   6.233 -1.6156  1.4503 -0.8368
  241MOL0     H33197   4.930   3.694   6.242 -1.8166 -0.6266 -0.6150
  241MOL0     H33198   4.942   3.657   6.079  2.5955  1.6646  1.0146
  241MOL0     H33199   4.925   3.942   6.204  0.1604 -0.9487  0.6661
  241MOL0     H33200   4.894   3.919   6.033 -1.6281 -3.3348  0.3596
  241MOL0     H33201   5.160   3.808   6.128  3.3095  1.2610 -1.2184
  241MOL0     H33202   5.120   3.858   5.973  2.9178 -0.1479  0.2637
  241MOL0     H33203   5.157   4.056   6.201 -4.5154 -1.6236  1.7599
  241MOL0     H33204   5.101   4.088   6.031 -0.5020  1.1756  1.6825
  241MOL0     H33205   5.343   3.906   6.082 -0.6174 -0.7396 -2.4867
  241MOL0     H33206   5.306   3.997   5.932 -3.0723  0.3826 -1.0524
  241MOL0     H33207   5.295   4.287   5.980 -1.9084  0.3873  1.7201
  241MOL0     H33208   5.406   4.513   6.044  1.3039  0.7634 -1.2102
  241MOL0     H33209   5.573   4.489   6.098  0.0323  1.4718  0.3532
  241MOL0     H33210   5.499   4.496   6.329 -1.6182 -2.2248 -1.3134
  241MOL0     H33211   5.443   4.646   6.237  2.0626  0.3553  2.0747
  241MOL0     H33212   5.216   4.507   6.209  0.5870  0.2691  0.4272
  241MOL0     H33213   5.279   4.403   6.335 -2.6564 -0.1257  0.2447
  241MOL0     H33214   5.254   4.705   6.371  1.1291  1.4967  5.9136
  241MOL0     H33215   5.136   4.585   6.432  0.0124  2.1210 -0.0948
  241MOL0     H33216   5.222   4.827   6.548  0.0666 -1.1152 -1.4720
  241MOL0     H33217   5.225   5.048   6.654  0.6636 -1.4017 -0.7405
  241MOL0     H33218   5.388   5.100   6.608 -1.6772 -1.2121 -2.7261
  241MOL0     H33219   5.352   5.094   6.784  0.2071  0.8628 -0.1033
  241MOL0     H33220   5.907   4.896   6.889  0.1032  0.7516 -1.0101
  241MOL0     H33221   6.098   5.020   7.021  0.0292  0.7693  0.8447
  241MOL0     H33222   5.955   5.351   7.258 -0.8842 -1.9870 -0.9294
  241MOL0     H33223   6.129   5.368   7.266 -0.7484  0.5648 -0.1890
  241MOL0     H33224   6.112   5.341   6.997 -1.1426 -0.8803  1.0013
  241MOL0     H33225   5.939   5.375   7.038 -0.4749 -1.5202  0.3938
  241MOL0     H33226   6.015   5.581   6.969 -0.8007  0.4290 -0.0255
  241MOL0     H33227   6.181   5.550   7.006 -0.4379  1.4993  1.9988
  241MOL0     H33228   6.134   5.596   7.254  1.7424  1.3522  0.6869
  241MOL0     H33229   5.974   5.641   7.201  1.0877 -0.4036  1.4680
  241MOL0     H33230   6.237   5.763   7.137  0.2590 -1.5367  2.4510
  241MOL0     H33231   6.095   5.790   7.024  3.5380 -1.2976 -0.4411
  241MOL0     H33232   6.101   5.842   7.327  2.4128  0.9178  0.5674
  241MOL0     H33233   5.966   5.886   7.233 -0.3714 -0.8791  5.0680
  241MOL0     H33234   6.079   6.091   7.294  1.2106  2.5010 -2.0771
  241MOL0     H33235   6.108   6.073   7.120 -0.0915 -1.9901 -1.6673
  241MOL0     H33236   6.307   6.138   7.216 -0.7731  1.0221  0.8741
  241MOL0     H33237   6.334   5.974   7.160  0.7620  0.3852  0.9743
  241MOL0     H33238   5.821   5.190   7.274 -1.1744  1.1166  0.1808
  241MOL0     H33239   5.634   5.040   7.166  0.4709 -1.3785 -0.8817
  241MOL0     H33240   5.644   4.718   6.774 -1.4142 -3.1343  1.7290
  241MOL0     H33241   5.508   4.551   6.660  2.4629 -0.0892  1.8700
  241MOL0     H33242   4.414   3.576   6.213 -1.1343 -0.2474 -0.6384
  241MOL0     H33243   4.207   3.628   6.299  0.5618  1.2789 -1.3094
  241MOL0     H33244   3.961   3.626   6.744 -2.0948 -0.9295 -1.0545
  241MOL0     H33245   3.767   3.681   6.880 -0.0473 -1.0961 -1.7631
  241MOL0     H33246   3.646   4.095   6.881 -1.8954  1.7869  1.9040
  241MOL0     H33247   3.517   4.044   6.791 -0.4599  3.8805  1.3063
  241MOL0     H33248   3.441   4.143   6.996 -1.5390 -0.9935  2.2525
  241MOL0     H33249   3.547   4.037   7.092 -0.6414 -4.2620  0.8903
  241MOL0     H33250   3.405   3.862   7.091  1.2869  0.7310 -0.6152
  241MOL0     H33251   3.293   3.999   7.098  0.1383  0.1442 -0.0580
  241MOL0     H33252   3.360   3.817   6.867  1.0872  0.2638 -1.2301
  241MOL0     H33253   3.285   3.974   6.831 -2.2451 -0.6462 -0.3727
  241MOL0     H33254   2.947   3.755   6.945  0.3401  0.8150  3.4841
  241MOL0     H33255   3.703   4.031   6.648  0.6149 -0.0677  0.4705
  241MOL0     H33256   3.806   4.092   6.478 -0.4020 -1.3686  1.6014
  241MOL0     H33257   3.979   4.083   6.488  0.3509 -0.2865  1.1084
  241MOL0     H33258   3.887   3.978   6.374  3.0378  0.8982 -0.3388
  242MOL0     O33259   8.288   5.116   1.506 -0.1807  0.0628 -0.5655
  242MOL0     C33260   8.304   5.201   1.422  0.3261 -0.5944  0.4590
  242MOL0     O33261   8.426   5.235   1.364 -0.0267  0.1047 -0.6857
  242MOL0     C33262   8.544   5.207   1.426  0.7179 -0.3675 -0.3538
  242MOL0     C33263   8.570   5.229   1.563  0.3590 -0.3983 -0.0402
  242MOL0     C33264   8.697   5.209   1.611  0.6119  0.3258  1.1319
  242MOL0     C33265   8.810   5.174   1.534  0.4606  0.4684 -0.7436
  242MOL0     O33266   8.931   5.160   1.600  0.5671  0.2687  0.1025
  242MOL0     C33267   9.035   5.084   1.544  0.0079  0.3855  0.7166
  242MOL0     C33268   9.072   4.951   1.598  0.7796  2.4109  0.2679
  242MOL0     C33269   9.180   4.888   1.499  0.3229  0.6517  0.6647
  242MOL0     C33270   9.309   4.965   1.502  0.0809 -1.0509 -0.5941
  242MOL0     C33271   9.435   4.892   1.450 -0.2885 -0.2320 -0.2581
  242MOL0     C33272   9.564   4.978   1.465 -0.3430 -0.4271  0.0499
  242MOL0     C33273   9.669   4.927   1.357  0.1506  0.1291  0.9573
  242MOL0     C33274   9.799   5.006   1.361 -0.1787 -0.7232 -0.0183
  242MOL0     N33275   9.896   4.938   1.278 -1.0284 -0.0576  0.6012
  242MOL0     C33276   9.934   4.975   1.150 -0.3267 -0.2672  0.1473
  242MOL0     C33277  10.028   4.886   1.104  0.5594 -0.2308  0.1299
  242MOL0     C33278  10.077   4.873   0.970  0.0381 -0.2739 -0.2397
  242MOL0     C33279  10.200   4.955   0.935  0.3755  0.2302 -0.4984
  242MOL0     C33280  10.329   4.888   0.969  0.6510  1.0434 -0.5982
  242MOL0     C33281  10.401   4.916   1.097  0.0835  0.1066  0.9636
  242MOL0     O33282  10.403   5.051   1.145 -0.1420  0.3737  0.1329
  242MOL0     C33283  10.513   5.127   1.127 -0.2252  0.5067  0.0641
  242MOL0     C33284  10.613   5.112   1.024 -0.8137  0.0803 -0.0649
  242MOL0     C33285  10.731   5.199   1.010  1.3558  0.1919 -0.1438
  242MOL0     C33286  10.827   5.154   0.896  0.2874 -0.5091 -0.4957
  242MOL0     C33287  10.743   5.300   1.101 -0.1399 -0.4366 -0.1907
  242MOL0     C33288  10.869   5.380   1.101 -0.3914 -1.0341  0.2015
  242MOL0     O33289  10.954   5.374   0.995 -0.6661 -0.5450 -1.2416
  242MOL0     C33290  11.066   5.459   0.980 -0.2329  0.0120 -0.0334
  242MOL0     C33291  11.137   5.523   1.075  0.0845 -0.2121 -0.6313
  242MOL0     C33292  11.248   5.589   1.058  0.4146  0.3082 -0.6400
  242MOL0     C33293  11.285   5.614   0.920 -0.6333  0.3103 -0.2004
  242MOL0     O33294  11.398   5.681   0.899 -0.0781 -0.1530 -0.8018
  242MOL0     C33295  11.423   5.804   0.973 -0.1798 -0.4601  0.6384
  242MOL0     C33296  11.298   5.906   0.987 -0.5294  1.2700  0.5329
  242MOL0     C33297  11.347   6.026   1.059 -0.2086 -0.0342  1.2073
  242MOL0     C33298  11.237   6.129   1.094 -0.0165 -0.2129  0.1981
  242MOL0     C33299  11.149   6.177   0.984  0.9113  0.3494  0.2524
  242MOL0     C33300  11.231   6.247   0.870  0.8214  0.1098  0.2394
  242MOL0     C33301  11.144   6.306   0.757  0.2086  0.4822  0.9140
  242MOL0     C33302  11.212   6.344   0.629  0.7782  0.2145 -0.3081
  242MOL0    Cl33303  11.359   6.443   0.651  0.4070 -0.3805  0.1333
  242MOL0     C33304  11.212   5.560   0.817  0.1877  0.1577 -0.4920
  242MOL0     C33305  11.105   5.483   0.849  0.2085  0.7764  0.4862
  242MOL0     O33306  10.885   5.455   1.195  0.1434  0.0169  0.1757
  242MOL0     C33307  10.640   5.326   1.199 -0.8778 -1.1207  0.2410
  242MOL0     C33308  10.521   5.248   1.205 -0.1516  0.0714  0.3044
  242MOL0     N33309  10.060   4.808   1.219  0.2025  0.6680  0.7166
  242MOL0     N33310   9.982   4.840   1.317 -0.4777 -0.3496 -0.0898
  242MOL0     C33311   8.786   5.160   1.397  0.2983  0.1123 -0.2744
  242MOL0     C33312   8.654   5.181   1.343  0.3398 -0.6238  0.2873
  242MOL0     C33313   8.169   5.253   1.366 -1.0264 -0.5163  0.5766
  242MOL0     C33314   8.154   5.260   1.228 -0.5314 -0.5432 -0.9020
  242MOL0     C33315   8.033   5.298   1.175  0.2935  0.0844 -0.1292
  242MOL0     C33316   7.930   5.344   1.262  0.0328  0.6612  0.7055
  242MOL0     O33317   7.823   5.387   1.187  0.3369  0.4374 -0.0456
  242MOL0     C33318   7.713   5.442   1.254  0.2407  0.5212 -0.4525
  242MOL0     C33319   7.610   5.501   1.153 -0.2546 -0.7251 -0.8999
  242MOL0     C33320   7.564   5.397   1.042  0.1101  0.2413 -0.0410
  242MOL0     C33321   7.466   5.466   0.951  0.5240 -0.0554 -0.3296
  242MOL0     C33322   7.334   5.492   1.017 -0.2122  0.1203  0.1523
  242MOL0     C33323   7.220   5.485   1.059  0.0432 -0.1456  0.6803
  242MOL0     C33324   7.946   5.340   1.397 -0.5983 -0.9228  0.5856
  242MOL0     C33325   8.065   5.296   1.446 -0.4910  0.6246  0.0380
  242MOL0     C33326   8.087   5.299   1.593  0.2260 -0.0791  0.1699
  242MOL0     H33327   8.496   5.266   1.634  0.1767 -0.2477 -0.3064
  242MOL0     H33328   8.694   5.230   1.717 -0.0602  1.7576  0.8587
  242MOL0     H33329   9.123   5.146   1.563 -0.4203  1.1826  0.1236
  242MOL0     H33330   9.016   5.064   1.439  1.3389 -0.3992  0.6024
  242MOL0     H33331   9.117   4.950   1.697  0.2299 -0.7635  0.6048
  242MOL0     H33332   8.986   4.884   1.604  2.2476  0.3522 -0.4425
  242MOL0     H33333   9.215   4.790   1.530 -0.2811 -0.5730 -2.2339
  242MOL0     H33334   9.137   4.882   1.398 -0.8827 -2.0258  1.2501
  242MOL0     H33335   9.305   5.060   1.449  2.7066 -0.1993  0.5834
  242MOL0     H33336   9.332   4.995   1.604 -3.1490 -2.0234  0.5459
  242MOL0     H33337   9.420   4.875   1.343  1.0738  3.3230 -1.1378
  242MOL0     H33338   9.457   4.798   1.502  0.0543 -0.3720 -0.6517
  242MOL0     H33339   9.536   5.082   1.446  0.4037  1.0735  5.4618
  242MOL0     H33340   9.601   4.984   1.568 -0.6987  2.3299  0.1092
  242MOL0     H33341   9.629   4.930   1.256  1.7015  0.3909  0.3251
  242MOL0     H33342   9.695   4.824   1.385 -0.4641  0.4491  2.9109
  242MOL0     H33343   9.774   5.109   1.334  1.0230  0.6863  3.6560
  242MOL0     H33344   9.823   5.010   1.467 -0.1732  1.3836 -0.0700
  242MOL0     H33345   9.896   5.062   1.099  0.0228  1.2482  2.3365
  242MOL0     H33346   9.995   4.905   0.904 -1.3648 -1.9820  0.5966
  242MOL0     H33347  10.106   4.770   0.943 -0.2824 -0.1066 -1.2987
  242MOL0     H33348  10.201   4.959   0.825  0.2180 -1.6864 -0.6119
  242MOL0     H33349  10.191   5.053   0.983  0.6394  0.0525 -0.0798
  242MOL0     H33350  10.320   4.779   0.961  0.7613  1.1477 -2.7906
  242MOL0     H33351  10.402   4.914   0.891  1.3851 -0.9038 -0.6204
  242MOL0     H33352  10.341   4.866   1.172 -3.2479  2.0296 -0.1876
  242MOL0     H33353  10.499   4.868   1.110  2.0891  3.3611 -0.7224
  242MOL0     H33354  10.616   5.017   0.970 -1.6903  0.1591 -0.2649
  242MOL0     H33355  10.855   5.242   0.838 -1.7737 -0.6654 -1.8416
  242MOL0     H33356  10.771   5.082   0.835 -2.1940  0.5285  0.4203
  242MOL0     H33357  10.907   5.109   0.955  0.7019 -1.7189 -1.9057
  242MOL0     H33358  11.115   5.500   1.179 -0.0091  2.4591  0.0171
  242MOL0     H33359  11.296   5.636   1.143 -1.0392 -0.6389  0.7511
  242MOL0     H33360  11.455   5.776   1.074  2.3242  2.9238  1.0059
  242MOL0     H33361  11.506   5.856   0.924  3.0963 -1.4008  4.6211
  242MOL0     H33362  11.254   5.921   0.888  1.9872  0.6631 -0.7516
  242MOL0     H33363  11.220   5.856   1.046 -1.5740  1.5852 -0.5340
  242MOL0     H33364  11.424   6.072   0.995  0.5213 -0.5214  1.7203
  242MOL0     H33365  11.387   5.994   1.155  0.9937 -1.4042  0.3079
  242MOL0     H33366  11.296   6.208   1.144  2.3449 -0.9834 -1.2097
  242MOL0     H33367  11.166   6.086   1.165 -0.2756  0.7819  0.5685
  242MOL0     H33368  11.090   6.096   0.941  4.1578 -2.2664  0.3134
  242MOL0     H33369  11.074   6.250   1.017 -0.9017 -0.4226 -1.8711
  242MOL0     H33370  11.305   6.173   0.838  1.9261  1.3466 -0.1752
  242MOL0     H33371  11.288   6.334   0.904  0.2468 -0.2183  2.1146
  242MOL0     H33372  11.103   6.401   0.794 -0.6499  0.8906 -1.0023
  242MOL0     H33373  11.054   6.244   0.750  0.7439 -0.1873 -0.1942
  242MOL0     H33374  11.154   6.407   0.561 -0.0115 -2.6019 -2.4552
  242MOL0     H33375  11.241   6.251   0.579 -0.2187  0.4141 -1.2922
  242MOL0     H33376  11.247   5.569   0.714 -0.2413 -2.4976 -0.9252
  242MOL0     H33377  11.071   5.446   0.753  0.0450 -1.8391  1.4936
  242MOL0     H33378  10.658   5.400   1.277  0.8816 -0.9745 -0.2613
  242MOL0     H33379  10.444   5.271   1.279 -2.8803 -5.1166 -0.4877
  242MOL0     H33380   8.869   5.145   1.329  1.0410 -1.8256  0.9678
  242MOL0     H33381   8.633   5.150   1.241  0.5062 -3.1398  0.9424
  242MOL0     H33382   8.227   5.213   1.163 -0.8854  0.3019 -1.9502
  242MOL0     H33383   8.012   5.279   1.070 -0.0557 -0.1262 -0.0212
  242MOL0     H33384   7.667   5.370   1.323  1.0556  1.1154  0.7553
  242MOL0     H33385   7.749   5.532   1.305 -0.6032  1.9198 -2.2255
  242MOL0     H33386   7.649   5.585   1.094 -0.1131 -1.3215 -1.6682
  242MOL0     H33387   7.530   5.543   1.213  0.3618  4.4206 -3.1364
  242MOL0     H33388   7.657   5.371   0.992  0.2757  1.4335 -0.3941
  242MOL0     H33389   7.527   5.305   1.087 -0.9302  0.9092  0.5173
  242MOL0     H33390   7.451   5.422   0.852 -1.1683  0.0188 -0.1333
  242MOL0     H33391   7.495   5.571   0.944  0.2184  0.5498  4.1801
  242MOL0     H33392   7.117   5.484   1.088 -0.7844  1.3375 -1.8914
  242MOL0     H33393   7.875   5.371   1.472  3.9870  2.3646  4.0733
  242MOL0     H33394   8.055   5.213   1.652  1.5336  0.3503  1.5857
  242MOL0     H33395   8.192   5.307   1.623  0.3180  0.9259 -0.3779
  242MOL0     H33396   8.032   5.381   1.641 -0.4964 -1.6209  2.1249
  243MOL0     O33397   6.808   2.030   8.114 -0.3827  0.8392  0.4347
  243MOL0     C33398   6.699   1.992   8.079 -0.1103 -0.6166 -0.2817
  243MOL0     O33399   6.617   2.057   7.985  0.2859 -0.9117  0.3435
  243MOL0     C33400   6.661   2.176   7.929  0.3114 -0.0125  0.2745
  243MOL0     C33401   6.676   2.290   8.006  0.6826 -0.1290 -0.0161
  243MOL0     C33402   6.693   2.410   7.937  0.2659 -0.8972 -0.8675
  243MOL0     C33403   6.696   2.417   7.797 -0.4487 -0.8915 -0.7010
  243MOL0     O33404   6.681   2.534   7.716 -0.2992 -0.2793 -0.1074
  243MOL0     C33405   6.762   2.649   7.743 -0.2404 -0.8389  0.7471
  243MOL0     C33406   6.682   2.775   7.710  0.9764 -0.2343  0.7345
  243MOL0     C33407   6.776   2.892   7.644 -0.0695  0.0198  0.3736
  243MOL0     C33408   6.807   2.865   7.497 -0.1951 -1.0595 -0.5023
  243MOL0     C33409   6.863   2.997   7.446 -0.0453  0.1015  0.9330
  243MOL0     C33410   6.850   3.015   7.302 -0.1522 -0.3121 -0.9207
  243MOL0     C33411   6.961   2.955   7.228 -0.2809  0.2517 -0.7495
  243MOL0     C33412   6.941   2.973   7.080 -0.1277 -0.1446 -0.5951
  243MOL0     N33413   6.864   2.851   7.030  0.0986  0.3484 -0.0909
  243MOL0     C33414   6.898   2.781   6.918  0.3990  0.2232 -0.1841
  243MOL0     C33415   6.784   2.741   6.856 -0.3235  0.0158 -0.9535
  243MOL0     C33416   6.757   2.652   6.731 -0.1713  0.8313 -0.1915
  243MOL0     C33417   6.788   2.708   6.586  0.2254  1.0593 -0.3164
  243MOL0     C33418   6.701   2.827   6.549  0.0065 -0.4662 -0.0553
  243MOL0     C33419   6.545   2.795   6.540 -0.1244 -0.1027  0.1267
  243MOL0     O33420   6.531   2.668   6.484 -0.1766  0.8517 -0.3821
  243MOL0     C33421   6.400   2.608   6.458 -0.1168  0.4596 -0.3263
  243MOL0     C33422   6.390   2.479   6.401  0.3673  0.7881  0.8232
  243MOL0     C33423   6.262   2.421   6.382 -0.6188  0.9932  0.4740
  243MOL0     C33424   6.278   2.277   6.343  0.1856 -0.2778  0.5999
  243MOL0     C33425   6.150   2.498   6.411 -0.1811  0.8488 -0.7200
  243MOL0     C33426   6.008   2.458   6.378  0.9681  0.5825 -1.0845
  243MOL0     O33427   5.927   2.559   6.326 -0.4269  0.5013 -0.0211
  243MOL0     C33428   5.791   2.557   6.330  0.5899  0.4178  0.5089
  243MOL0     C33429   5.728   2.640   6.242 -0.3273 -0.0371 -0.2404
  243MOL0     C33430   5.591   2.648   6.223  0.3363  1.1456  0.3435
  243MOL0     C33431   5.507   2.553   6.285 -0.0047 -0.0726 -1.1356
  243MOL0     O33432   5.373   2.587   6.290 -0.4009  0.0937  0.5975
  243MOL0     C33433   5.284   2.475   6.300  0.3822 -0.6066  0.0752
  243MOL0     C33434   5.156   2.508   6.228 -0.3908 -0.2446 -0.2080
  243MOL0     C33435   5.173   2.532   6.072  0.0361 -0.3644 -0.4480
  243MOL0     C33436   5.028   2.566   6.017 -0.6005  0.0514  0.5903
  243MOL0     C33437   5.038   2.626   5.868  0.9534  0.5782  0.6204
  243MOL0     C33438   4.972   2.525   5.779  0.8316  0.1934  0.5766
  243MOL0     C33439   4.978   2.567   5.631 -0.2763  0.1920  0.7205
  243MOL0     C33440   4.876   2.496   5.534 -1.1087 -0.3782 -0.0869
  243MOL0    Cl33441   4.906   2.315   5.556  0.1018  0.4954  0.2982
  243MOL0     C33442   5.570   2.459   6.381 -0.3798  0.3548  0.0877
  243MOL0     C33443   5.707   2.468   6.401  0.7008 -0.4599  0.6292
  243MOL0     O33444   5.975   2.338   6.378  0.4788  0.4141  0.4347
  243MOL0     C33445   6.158   2.620   6.483 -0.4709 -0.1856 -0.6317
  243MOL0     C33446   6.286   2.668   6.501  0.2432 -0.1794 -0.2023
  243MOL0     N33447   6.673   2.791   6.923 -0.3378 -0.0201 -0.4327
  243MOL0     N33448   6.725   2.848   7.034  0.5430 -0.1495  0.4245
  243MOL0     C33449   6.693   2.301   7.727  0.2182  0.6078 -0.3515
  243MOL0     C33450   6.677   2.177   7.797 -0.5132 -0.3986 -0.4016
  243MOL0     C33451   6.625   1.868   8.134  0.4720  0.1053 -0.3504
  243MOL0     C33452   6.485   1.842   8.095 -1.1310  0.3990 -0.4290
  243MOL0     C33453   6.417   1.735   8.153 -0.3131  1.0633  0.4206
  243MOL0     C33454   6.469   1.653   8.241 -0.7265  0.2382  0.1849
  243MOL0     O33455   6.389   1.546   8.264  0.3861 -0.5257  0.1327
  243MOL0     C33456   6.434   1.444   8.348  0.1157  0.6639 -0.4708
  243MOL0     C33457   6.393   1.467   8.494 -0.5815 -0.4189 -0.2083
  243MOL0     C33458   6.242   1.465   8.516  0.1189  0.0513  0.0979
  243MOL0     C33459   6.213   1.425   8.656 -0.6951  0.9914 -1.0041
  243MOL0     C33460   6.072   1.443   8.683 -0.2449  0.4130  0.7714
  243MOL0     C33461   5.955   1.457   8.699  0.2642  0.3285 -0.4990
  243MOL0     C33462   6.604   1.676   8.284 -0.8205  0.2574  0.8877
  243MOL0     C33463   6.683   1.784   8.237  0.7429 -0.5269 -0.3734
  243MOL0     C33464   6.816   1.804   8.301 -0.2368  0.3542 -0.2053
  243MOL0     H33465   6.666   2.284   8.114 -1.6674  2.1709 -0.0133
  243MOL0     H33466   6.694   2.499   7.999 -3.3432  1.0869 -3.2412
  243MOL0     H33467   6.856   2.647   7.689 -1.2745  2.6468 -1.5570
  243MOL0     H33468   6.780   2.651   7.851  1.4059  2.2442  0.5340
  243MOL0     H33469   6.593   2.760   7.648  2.8594 -1.0590 -1.9195
  243MOL0     H33470   6.644   2.816   7.804  0.9274 -1.7328  1.3923
  243MOL0     H33471   6.725   2.988   7.648  2.1329  1.4807 -2.4279
  243MOL0     H33472   6.868   2.906   7.701  1.2996  0.0487 -1.7204
  243MOL0     H33473   6.883   2.787   7.481 -1.9060 -2.1605 -4.5651
  243MOL0     H33474   6.713   2.836   7.449 -1.1287 -1.4081  1.4542
  243MOL0     H33475   6.967   3.016   7.474  0.1819  0.1399  0.0997
  243MOL0     H33476   6.805   3.078   7.490  0.9861  1.5149 -0.2220
  243MOL0     H33477   6.756   2.975   7.263 -0.8594 -3.4834  3.2580
  243MOL0     H33478   6.863   3.122   7.288 -2.5658  0.1601 -0.0017
  243MOL0     H33479   6.973   2.850   7.257 -0.0096  0.3185 -0.6129
  243MOL0     H33480   7.055   3.006   7.252 -0.4885  0.4567 -0.3618
  243MOL0     H33481   6.890   3.069   7.074  2.2929  1.3280  0.9928
  243MOL0     H33482   7.041   2.978   7.037  0.7343 -1.7908  1.0991
  243MOL0     H33483   7.004   2.759   6.905  1.9245  3.4953  4.1195
  243MOL0     H33484   6.658   2.608   6.739  0.0056  0.4807  0.0893
  243MOL0     H33485   6.823   2.567   6.747 -1.2321 -0.6034 -2.9208
  243MOL0     H33486   6.896   2.725   6.581  0.7534 -0.8586  2.5622
  243MOL0     H33487   6.763   2.628   6.515 -1.1340 -1.1410  2.4756
  243MOL0     H33488   6.710   2.910   6.619 -0.8579  0.6035 -1.1716
  243MOL0     H33489   6.732   2.868   6.453 -1.0463 -0.2637 -0.3150
  243MOL0     H33490   6.515   2.802   6.645  1.7195 -0.9912  0.7532
  243MOL0     H33491   6.501   2.877   6.483  0.4913  0.1862  0.0566
  243MOL0     H33492   6.485   2.429   6.390  0.5382  1.2832 -0.0953
  243MOL0     H33493   6.376   2.242   6.311  0.2683 -1.0749  1.6573
  243MOL0     H33494   6.200   2.252   6.270 -0.7807  2.5305  0.5414
  243MOL0     H33495   6.257   2.215   6.432  1.0176 -1.0479  0.2750
  243MOL0     H33496   5.791   2.707   6.183 -1.3958  1.5285  0.3106
  243MOL0     H33497   5.548   2.709   6.144 -1.0424 -0.1652  0.0453
  243MOL0     H33498   5.324   2.393   6.239  0.5938 -0.6564  0.2783
  243MOL0     H33499   5.259   2.463   6.406  1.7316  3.3149  1.0149
  243MOL0     H33500   5.097   2.417   6.246 -1.3252  0.8698  3.1347
  243MOL0     H33501   5.102   2.585   6.284  0.8264  0.1928  0.3937
  243MOL0     H33502   5.221   2.450   6.018  0.4894 -0.6219  0.3291
  243MOL0     H33503   5.232   2.622   6.051 -1.5754  0.3710 -2.0460
  243MOL0     H33504   4.982   2.639   6.085  1.4980  1.7800  0.2568
  243MOL0     H33505   4.975   2.471   6.019 -1.8018  0.6680  3.3313
  243MOL0     H33506   4.997   2.728   5.864  0.8675  0.4998 -0.7400
  243MOL0     H33507   5.139   2.639   5.830  1.0121  0.9019  0.8784
  243MOL0     H33508   4.866   2.539   5.801  0.9098  1.0704  0.4553
  243MOL0     H33509   5.014   2.427   5.800 -0.9938 -1.1804 -1.6270
  243MOL0     H33510   5.077   2.547   5.591  0.3835  2.1054  1.2893
  243MOL0     H33511   4.970   2.676   5.626 -1.0371  0.0946 -0.9245
  243MOL0     H33512   4.909   2.517   5.432  3.2593 -0.6142  1.0884
  243MOL0     H33513   4.772   2.522   5.556 -0.5173  2.0201  0.1797
  243MOL0     H33514   5.508   2.394   6.441 -3.0311  0.7908 -2.0254
  243MOL0     H33515   5.755   2.402   6.472  1.2945 -0.9934 -0.2403
  243MOL0     H33516   6.067   2.666   6.520 -1.3499 -3.0035  1.0913
  243MOL0     H33517   6.290   2.765   6.550  1.2653  0.7978 -2.0827
  243MOL0     H33518   6.692   2.304   7.618 -0.8097  2.5724 -0.3250
  243MOL0     H33519   6.681   2.076   7.755  4.1648 -0.1576 -1.1062
  243MOL0     H33520   6.432   1.897   8.018 -0.4276 -3.3013 -3.8856
  243MOL0     H33521   6.313   1.727   8.122  0.1930  1.9471 -1.6390
  243MOL0     H33522   6.381   1.356   8.311 -2.6748  0.7404  2.7841
  243MOL0     H33523   6.538   1.432   8.319 -0.1778  1.9967 -2.2898
  243MOL0     H33524   6.439   1.561   8.526  1.7506 -0.9438 -1.6749
  243MOL0     H33525   6.436   1.385   8.553 -2.0344 -2.2618 -1.5644
  243MOL0     H33526   6.208   1.568   8.497  0.7433  0.4332  0.9652
  243MOL0     H33527   6.183   1.395   8.456 -1.2861 -0.4673  1.9761
  243MOL0     H33528   6.275   1.481   8.727  0.3069  1.8509 -2.4934
  243MOL0     H33529   6.247   1.322   8.671 -4.6851 -0.1408  1.8276
  243MOL0     H33530   5.848   1.463   8.706 -0.0722 -2.9733 -1.3092
  243MOL0     H33531   6.647   1.613   8.361 -2.5637 -0.2519  1.4876
  243MOL0     H33532   6.850   1.715   8.355 -0.7831 -0.2948 -0.9140
  243MOL0     H33533   6.886   1.829   8.221 -0.5907  1.1232 -0.2877
  243MOL0     H33534   6.797   1.886   8.371 -2.4789 -0.5091  0.2746
  244MOL0     O33535   8.807   4.253   3.659 -0.4134  0.8415 -0.6017
  244MOL0     C33536   8.828   4.251   3.536  0.3253 -0.3179 -0.8112
  244MOL0     O33537   8.918   4.334   3.477 -0.3885  0.6598  0.1268
  244MOL0     C33538   9.000   4.411   3.555 -0.7172  1.2832  0.3757
  244MOL0     C33539   9.139   4.371   3.578 -0.2780  0.2986 -0.4115
  244MOL0     C33540   9.219   4.454   3.652  0.8818  0.2217  0.3007
  244MOL0     C33541   9.167   4.576   3.707 -0.2724 -0.3482 -0.2559
  244MOL0     O33542   9.255   4.661   3.780  0.6851  0.3092  0.0006
  244MOL0     C33543   9.218   4.794   3.814  0.0204  0.0845  0.5374
  244MOL0     C33544   9.321   4.837   3.912 -0.4786  0.6690  0.2698
  244MOL0     C33545   9.349   4.746   4.033  0.2521  0.3754 -0.8543
  244MOL0     C33546   9.429   4.819   4.134 -0.3753  0.3041 -0.2319
  244MOL0     C33547   9.457   4.729   4.260 -1.3137 -0.3597 -0.7809
  244MOL0     C33548   9.514   4.590   4.228  0.6447 -0.3021 -0.1059
  244MOL0     C33549   9.596   4.517   4.339 -1.2088 -0.1733  0.0354
  244MOL0     C33550   9.519   4.491   4.465  0.2962 -0.5575  0.4463
  244MOL0     N33551   9.398   4.408   4.454  0.0318  0.2961 -0.6698
  244MOL0     C33552   9.273   4.456   4.452  0.6228  0.3774  0.3825
  244MOL0     C33553   9.192   4.347   4.460 -0.2861  0.1271 -0.4439
  244MOL0     C33554   9.044   4.343   4.468 -0.3487  0.4337 -0.2713
  244MOL0     C33555   8.992   4.310   4.608  0.2175 -0.3444  0.1041
  244MOL0     C33556   8.837   4.287   4.623 -0.4802  0.2039 -0.4205
  244MOL0     C33557   8.737   4.344   4.528 -0.2016  0.2692  0.7271
  244MOL0     O33558   8.608   4.313   4.573 -0.2890 -0.1866  0.5052
  244MOL0     C33559   8.488   4.379   4.525  0.3986 -1.5483 -0.2150
  244MOL0     C33560   8.380   4.367   4.611 -0.6061 -0.5121 -0.2435
  244MOL0     C33561   8.265   4.438   4.587  0.3768  0.8900 -0.6519
  244MOL0     C33562   8.157   4.431   4.680 -0.5305 -0.2224 -0.4654
  244MOL0     C33563   8.247   4.499   4.457 -0.0894 -0.2940 -0.3569
  244MOL0     C33564   8.121   4.559   4.400  0.4546  1.0475 -0.5159
  244MOL0     O33565   8.105   4.550   4.258 -0.4407 -0.5370  0.4003
  244MOL0     C33566   7.991   4.609   4.218  0.0855 -0.3300 -0.1368
  244MOL0     C33567   7.882   4.531   4.167  0.7920 -0.0370  0.3266
  244MOL0     C33568   7.761   4.601   4.136  0.0809 -0.5715 -0.0576
  244MOL0     C33569   7.750   4.736   4.144  0.4610  0.1291  0.1642
  244MOL0     O33570   7.633   4.799   4.125 -0.7112 -0.1256 -0.1589
  244MOL0     C33571   7.560   4.772   4.001  0.8476  0.3231  0.3431
  244MOL0     C33572   7.443   4.880   4.004  0.4068 -0.7525 -0.3001
  244MOL0     C33573   7.306   4.837   4.065 -0.5520 -0.7563 -0.8151
  244MOL0     C33574   7.217   4.950   4.080  1.3016 -0.5890 -0.3312
  244MOL0     C33575   7.081   4.893   4.102  0.0356 -0.0389 -1.1355
  244MOL0     C33576   6.976   5.005   4.092 -0.2010  0.5000 -0.1739
  244MOL0     C33577   6.830   4.964   4.105  0.2344  0.0314  0.1080
  244MOL0     C33578   6.791   4.864   3.988  0.5851 -0.0999 -0.8224
  244MOL0    Cl33579   6.616   4.852   3.969 -0.0980  0.4011 -0.2203
  244MOL0     C33580   7.857   4.812   4.195  0.0724 -0.6057  0.0448
  244MOL0     C33581   7.976   4.746   4.231 -0.0705 -0.1980 -0.4036
  244MOL0     O33582   8.046   4.604   4.483  0.1763  0.2313 -0.4076
  244MOL0     C33583   8.354   4.504   4.373 -0.0109  0.9414  0.4941
  244MOL0     C33584   8.475   4.458   4.410  0.9831 -0.0812  0.2190
  244MOL0     N33585   9.279   4.236   4.463 -0.2166 -0.3736  0.2500
  244MOL0     N33586   9.402   4.276   4.451  0.3880 -0.1792 -0.5754
  244MOL0     C33587   9.029   4.603   3.689 -0.0081 -1.0042  0.0044
  244MOL0     C33588   8.941   4.526   3.610 -0.0553  0.0230  0.5963
  244MOL0     C33589   8.744   4.166   3.452  0.3676  0.2103  0.0442
  244MOL0     C33590   8.781   4.131   3.325  0.6036  0.2345  0.0458
  244MOL0     C33591   8.703   4.067   3.227  0.1860 -0.0695  0.3516
  244MOL0     C33592   8.573   4.020   3.267  0.2545 -0.5127 -0.3735
  244MOL0     O33593   8.478   3.959   3.189 -0.9561  0.1211 -0.1970
  244MOL0     C33594   8.523   3.917   3.060 -0.3785 -0.1749 -0.5033
  244MOL0     C33595   8.430   3.809   3.010 -0.3794  0.2894 -0.7984
  244MOL0     C33596   8.495   3.711   2.918 -0.0360 -0.0079 -0.0334
  244MOL0     C33597   8.529   3.757   2.770  1.0439  0.3116  0.4440
  244MOL0     C33598   8.635   3.854   2.786 -0.2435 -0.1362  0.7257
  244MOL0     C33599   8.738   3.924   2.776  0.1521  0.2268 -0.0118
  244MOL0     C33600   8.530   4.070   3.392  1.2450 -0.0957 -0.8457
  244MOL0     C33601   8.610   4.141   3.485  1.1531  0.0015  0.1178
  244MOL0     C33602   8.545   4.180   3.614 -0.3673  0.0903  0.2749
  244MOL0     H33603   9.175   4.281   3.528 -1.1800  0.5849 -1.6270
  244MOL0     H33604   9.318   4.418   3.677  0.1793 -2.8772 -1.0559
  244MOL0     H33605   9.112   4.798   3.844  0.0137 -0.8360  0.6504
  244MOL0     H33606   9.228   4.847   3.719 -1.0829 -2.5695 -1.1704
  244MOL0     H33607   9.414   4.854   3.857  0.4466 -0.0341  1.5522
  244MOL0     H33608   9.290   4.938   3.942  3.3609  2.3827 -0.8492
  244MOL0     H33609   9.257   4.716   4.084 -0.4108  2.1044 -0.9368
  244MOL0     H33610   9.411   4.662   4.001 -2.3485 -2.1420  0.3512
  244MOL0     H33611   9.528   4.844   4.094  0.6126 -0.8907  1.3343
  244MOL0     H33612   9.379   4.914   4.159 -0.1447  0.3369  0.1202
  244MOL0     H33613   9.362   4.723   4.314 -2.3631  1.4393 -2.2981
  244MOL0     H33614   9.533   4.784   4.317 -1.5441 -0.9043  0.0720
  244MOL0     H33615   9.425   4.531   4.205  1.8278 -1.5105 -1.8683
  244MOL0     H33616   9.577   4.596   4.139  0.1573 -2.0232 -0.6108
  244MOL0     H33617   9.679   4.581   4.370 -0.9354 -0.6553  0.3164
  244MOL0     H33618   9.635   4.426   4.292 -0.0183  1.2882 -1.9731
  244MOL0     H33619   9.590   4.439   4.530  1.3435  0.4489  0.1409
  244MOL0     H33620   9.485   4.588   4.501 -1.8364 -0.4195 -1.6927
  244MOL0     H33621   9.247   4.561   4.451  1.8808  0.6978  0.0798
  244MOL0     H33622   9.008   4.272   4.393 -2.0727  5.5201 -4.9357
  244MOL0     H33623   9.002   4.442   4.448 -2.4455 -0.2589  0.4534
  244MOL0     H33624   9.031   4.219   4.654 -1.0933 -1.0565 -0.1516
  244MOL0     H33625   9.030   4.390   4.672 -1.0487  0.5141 -0.1739
  244MOL0     H33626   8.813   4.181   4.634  1.7349 -0.0977  2.6924
  244MOL0     H33627   8.809   4.326   4.721 -1.3453  2.0431 -1.3450
  244MOL0     H33628   8.742   4.453   4.522 -2.3268  0.3258 -2.2552
  244MOL0     H33629   8.758   4.320   4.423  0.2259  1.9841  0.3843
  244MOL0     H33630   8.413   4.309   4.697  0.3260 -1.2113 -1.0481
  244MOL0     H33631   8.068   4.389   4.631  0.6063 -3.3862 -0.0770
  244MOL0     H33632   8.139   4.533   4.714 -1.1722  0.2686 -2.1366
  244MOL0     H33633   8.173   4.352   4.753 -0.0506  0.6584  0.4026
  244MOL0     H33634   7.890   4.424   4.150  1.4839 -0.0237  0.5245
  244MOL0     H33635   7.681   4.538   4.096 -0.4037  0.4723 -0.7708
  244MOL0     H33636   7.635   4.781   3.922  0.6347 -0.6122  0.0196
  244MOL0     H33637   7.535   4.666   4.002 -0.8693  0.6856  2.6688
  244MOL0     H33638   7.487   4.965   4.056  3.1961 -1.6724 -0.9743
  244MOL0     H33639   7.420   4.908   3.901  0.1512 -2.3035 -0.6898
  244MOL0     H33640   7.313   4.787   4.161 -1.3447 -1.4562 -1.1098
  244MOL0     H33641   7.264   4.757   4.003  1.0130 -1.3633 -1.1220
  244MOL0     H33642   7.221   5.016   3.993 -1.1541  0.2785  0.1587
  244MOL0     H33643   7.242   5.010   4.168 -2.2129  0.2705  0.2187
  244MOL0     H33644   7.059   4.809   4.036  2.0307  0.6788 -2.8011
  244MOL0     H33645   7.096   4.860   4.206  3.3860  0.3937 -1.3752
  244MOL0     H33646   6.991   5.035   3.988 -3.2526 -0.1371 -0.8852
  244MOL0     H33647   6.998   5.090   4.156  0.4093 -0.2148  0.5900
  244MOL0     H33648   6.762   5.049   4.095  1.7269  1.2881  0.2825
  244MOL0     H33649   6.802   4.922   4.203 -3.6848  1.2695 -0.2933
  244MOL0     H33650   6.834   4.764   3.999  0.7159  0.1273  1.0099
  244MOL0     H33651   6.827   4.905   3.893  0.0151 -2.4204 -2.1139
  244MOL0     H33652   7.822   4.906   4.235 -0.5639 -0.9206  0.2502
  244MOL0     H33653   8.060   4.797   4.277  0.5021  1.1907 -2.8572
  244MOL0     H33654   8.343   4.543   4.272  2.6702  1.3399  0.2644
  244MOL0     H33655   8.555   4.453   4.338  0.2983 -1.7956 -0.4683
  244MOL0     H33656   8.990   4.699   3.720  1.4085 -1.3516  3.2734
  244MOL0     H33657   8.835   4.548   3.599  0.0788 -0.3897 -2.2813
  244MOL0     H33658   8.878   4.164   3.289  0.4065  0.3377 -0.4047
  244MOL0     H33659   8.724   4.056   3.121  0.7986  1.2802  0.3101
  244MOL0     H33660   8.514   4.003   2.992  0.8994  1.3261  1.1165
  244MOL0     H33661   8.627   3.885   3.044  0.6915  2.7821 -0.1632
  244MOL0     H33662   8.334   3.846   2.973 -1.4611 -0.7601  0.8021
  244MOL0     H33663   8.391   3.743   3.089  0.5330  2.9241  2.0830
  244MOL0     H33664   8.578   3.656   2.962  0.4009 -0.0822 -0.9189
  244MOL0     H33665   8.414   3.637   2.918 -1.6972  1.6499  2.0332
  244MOL0     H33666   8.438   3.783   2.715  0.9010 -1.6251 -0.3063
  244MOL0     H33667   8.571   3.677   2.710 -2.1303 -0.0148 -1.5825
  244MOL0     H33668   8.828   3.975   2.748 -0.0130  0.2232 -0.5655
  244MOL0     H33669   8.426   4.050   3.414  1.9768 -2.5307  0.8941
  244MOL0     H33670   8.546   4.289   3.623 -2.2697  0.0443  2.0837
  244MOL0     H33671   8.443   4.139   3.619  0.5315 -2.9998 -2.8979
  244MOL0     H33672   8.602   4.131   3.694 -0.5405  0.8346  0.8644
  245MOL0     O33673   2.401  10.793  10.513 -0.2375  0.2745  0.5375
  245MOL0     C33674   2.332  10.850  10.600  0.1857  0.3911  0.0960
  245MOL0     O33675   2.197  10.872  10.585 -0.5142  0.0956  0.4383
  245MOL0     C33676   2.136  10.798  10.483  0.1259 -0.4368 -0.6668
  245MOL0     C33677   2.096  10.864  10.371 -0.7466 -0.0949  0.0573
  245MOL0     C33678   2.034  10.792  10.266 -0.5723 -0.0171 -1.0861
  245MOL0     C33679   2.011  10.660  10.277 -0.9095  0.5662  0.0638
  245MOL0     O33680   1.938  10.587  10.181  0.7999  0.4622 -0.2121
  245MOL0     C33681   1.812  10.633  10.124 -0.3180  0.2719 -0.2033
  245MOL0     C33682   1.727  10.528  10.054 -0.8407 -0.0203  0.4005
  245MOL0     C33683   1.594  10.579  10.028  0.2206  0.0087 -0.0331
  245MOL0     C33684   1.505  10.470   9.953 -0.1993 -0.9633  0.0971
  245MOL0     C33685   1.352  10.512   9.954 -0.3918  0.0107  0.1528
  245MOL0     C33686   1.318  10.650   9.886  0.3107  0.1112 -0.6066
  245MOL0     C33687   1.161  10.667   9.877 -0.8438  0.0429 -0.3269
  245MOL0     C33688   1.083  10.626  10.001  0.0071 -1.2549  0.7528
  245MOL0     N33689   1.127  10.713  10.107  1.4687  0.0293  0.4155
  245MOL0     C33690   1.199  10.675  10.218 -0.0304 -0.5402 -0.4138
  245MOL0     C33691   1.178  10.782  10.295  0.0170 -0.2014 -0.3757
  245MOL0     C33692   1.236  10.784  10.439  0.3306  0.2828  0.5564
  245MOL0     C33693   1.372  10.852  10.437 -0.3722  0.2932 -0.6549
  245MOL0     C33694   1.398  10.941  10.556 -0.1341 -0.1619 -0.2191
  245MOL0     C33695   1.415  10.870  10.694  0.5321 -0.2597  0.2529
  245MOL0     O33696   1.281  10.841  10.741  0.2752  0.4212 -0.5286
  245MOL0     C33697   1.277  10.770  10.859  0.1018  0.2046 -0.1471
  245MOL0     C33698   1.172  10.679  10.884 -0.2167 -0.3314  0.3362
  245MOL0     C33699   1.176  10.601  10.999 -0.1487  1.4476 -0.0097
  245MOL0     C33700   1.058  10.504  11.016 -0.0240  0.6292  0.4503
  245MOL0     C33701   1.279  10.608  11.101 -0.7388  0.4777  0.0654
  245MOL0     C33702   1.299  10.522  11.226  0.5688 -0.0945  0.4502
  245MOL0     O33703   1.283  10.386  11.205 -0.3475 -0.3316 -0.5397
  245MOL0     C33704   1.363  10.309  11.289 -0.2254  0.4532  0.0690
  245MOL0     C33705   1.325  10.307  11.431 -0.4706 -0.4231  0.7329
  245MOL0     C33706   1.407  10.219  11.504 -0.3808 -0.3788 -0.2986
  245MOL0     C33707   1.502  10.133  11.452  0.2024  0.1061 -0.0878
  245MOL0     O33708   1.580  10.043  11.534 -0.4065  0.0456  0.0125
  245MOL0     C33709   1.617  10.098  11.660  0.0508 -0.1449  0.5087
  245MOL0     C33710   1.727  10.008  11.722  0.6300 -0.6153  0.7642
  245MOL0     C33711   1.769  10.069  11.850 -0.0623 -0.6292 -0.1643
  245MOL0     C33712   1.862   9.977  11.918 -0.9037 -0.2400 -0.4265
  245MOL0     C33713   1.942  10.070  12.025 -0.0755  0.3718 -0.2587
  245MOL0     C33714   1.975   9.985  12.143 -0.6909 -0.3690 -0.8120
  245MOL0     C33715   2.056  10.061  12.251  0.1314  0.2947  1.5247
  245MOL0     C33716   2.066   9.970  12.372  0.4001 -0.4638  0.6662
  245MOL0    Cl33717   1.935  10.000  12.483  0.2286 -0.3857  0.0263
  245MOL0     C33718   1.531  10.142  11.322 -1.3195 -0.4306  1.0179
  245MOL0     C33719   1.456  10.217  11.232  0.6318 -0.3183 -0.6792
  245MOL0     O33720   1.331  10.580  11.328  0.4198  0.2489  0.1791
  245MOL0     C33721   1.394  10.682  11.069  0.2521 -0.2506 -0.6008
  245MOL0     C33722   1.389  10.768  10.951  0.6991 -0.0925 -0.4992
  245MOL0     N33723   1.101  10.878  10.232 -0.3959  0.3752  0.5583
  245MOL0     N33724   1.068  10.835  10.117 -0.1583  0.2121 -0.3689
  245MOL0     C33725   2.074  10.592  10.384  0.2976  0.1065 -1.1986
  245MOL0     C33726   2.127  10.664  10.492  0.7813 -0.1359 -0.9471
  245MOL0     C33727   2.403  10.909  10.708  0.9396  0.4052  0.4116
  245MOL0     C33728   2.379  11.043  10.739  0.6059  0.2350  0.9291
  245MOL0     C33729   2.459  11.112  10.833 -0.8258  0.0135 -0.6400
  245MOL0     C33730   2.568  11.056  10.896 -0.5623  0.4483 -0.9087
  245MOL0     O33731   2.656  11.128  10.976 -1.2344  0.4215 -0.3002
  245MOL0     C33732   2.767  11.064  11.044  0.1311  0.1591  0.4437
  245MOL0     C33733   2.849  11.153  11.132  0.8895 -0.0488 -0.5577
  245MOL0     C33734   2.761  11.177  11.262  0.1060 -0.4741 -0.5408
  245MOL0     C33735   2.824  11.280  11.360  0.3361 -0.4221 -0.4816
  245MOL0     C33736   2.958  11.219  11.393  0.3230  0.5741 -0.6985
  245MOL0     C33737   3.070  11.168  11.428 -0.6705 -0.3724  0.4093
  245MOL0     C33738   2.586  10.912  10.870  0.4172  0.3558 -0.5984
  245MOL0     C33739   2.511  10.842  10.773 -0.2648 -0.0586 -0.1098
  245MOL0     C33740   2.550  10.693  10.746  0.3968 -1.1030 -0.2774
  245MOL0     H33741   2.111  10.972  10.378 -2.6549  0.2652 -0.6356
  245MOL0     H33742   2.007  10.852  10.180  3.4600  0.5303 -2.2148
  245MOL0     H33743   1.838  10.710  10.051  5.1074  1.3504  2.3489
  245MOL0     H33744   1.756  10.678  10.207  1.1199  0.4962  0.6745
  245MOL0     H33745   1.770  10.497   9.958 -0.1904 -1.5905  1.1724
  245MOL0     H33746   1.728  10.442  10.120  0.4873  1.4168  2.3821
  245MOL0     H33747   1.556  10.596  10.129  2.8787  1.0128  0.8817
  245MOL0     H33748   1.590  10.673   9.972 -1.5787  1.0511  1.7044
  245MOL0     H33749   1.552  10.467   9.854 -1.8114 -1.4439 -0.6905
  245MOL0     H33750   1.509  10.375  10.007 -0.5463  0.0272  1.9344
  245MOL0     H33751   1.322  10.517  10.060  2.2321  0.2782  0.9537
  245MOL0     H33752   1.292  10.438   9.902 -1.6305  1.5595 -0.6955
  245MOL0     H33753   1.345  10.735   9.950 -1.9282  2.3618 -2.4193
  245MOL0     H33754   1.372  10.662   9.792 -0.8973  3.0739 -1.0579
  245MOL0     H33755   1.131  10.603   9.794  0.5772  0.5972 -1.3071
  245MOL0     H33756   1.136  10.771   9.851  0.0476  0.7155  1.3150
  245MOL0     H33757   0.976  10.645   9.989 -0.1654 -2.1505  0.8025
  245MOL0     H33758   1.095  10.521  10.029  2.7660 -1.1578  0.1863
  245MOL0     H33759   1.251  10.584  10.247  2.7498  1.3724  1.0046
  245MOL0     H33760   1.248  10.683  10.481  0.0932  0.0125 -0.0141
  245MOL0     H33761   1.157  10.830  10.500 -0.4800  0.1109 -0.3496
  245MOL0     H33762   1.449  10.778  10.411 -1.6552 -1.4223  0.1727
  245MOL0     H33763   1.356  10.919  10.353 -2.2771  0.3416 -0.2832
  245MOL0     H33764   1.492  10.993  10.539 -0.8751  0.5718 -2.3379
  245MOL0     H33765   1.320  11.016  10.574  1.0091  0.4982  2.4643
  245MOL0     H33766   1.476  10.779  10.695 -1.4503 -1.6558  0.7247
  245MOL0     H33767   1.456  10.946  10.761 -3.2230  1.4538  0.8684
  245MOL0     H33768   1.093  10.681  10.810  0.3141 -0.5400 -0.2460
  245MOL0     H33769   1.006  10.503  11.112 -1.6774 -2.2340 -0.3498
  245MOL0     H33770   1.105  10.406  11.013 -0.6990  0.2656  1.3512
  245MOL0     H33771   0.975  10.524  10.947 -0.8770 -0.1918  1.2125
  245MOL0     H33772   1.254  10.363  11.491 -1.9991 -1.0282 -0.4204
  245MOL0     H33773   1.379  10.216  11.609  0.8541 -0.1343  0.0468
  245MOL0     H33774   1.642  10.204  11.655 -1.5064  0.2066 -0.3668
  245MOL0     H33775   1.523  10.098  11.715  0.5526 -2.0054  1.4598
  245MOL0     H33776   1.675   9.915  11.747 -0.2836  0.5945  3.7905
  245MOL0     H33777   1.808   9.995  11.649  0.7253 -1.7254  1.0404
  245MOL0     H33778   1.679  10.085  11.911 -0.6334 -0.4056 -1.0500
  245MOL0     H33779   1.816  10.166  11.832  2.3348 -1.5700  0.5907
  245MOL0     H33780   1.931   9.940  11.842 -1.2491  0.5321 -1.1369
  245MOL0     H33781   1.813   9.895  11.971 -1.3971  0.3898  0.1218
  245MOL0     H33782   2.029  10.109  11.971 -0.8541  1.4302 -0.7940
  245MOL0     H33783   1.886  10.157  12.060  2.4305  1.4029  1.4788
  245MOL0     H33784   2.031   9.894  12.118 -0.2528 -0.6010  0.8452
  245MOL0     H33785   1.882   9.947  12.185  0.0916 -0.4353  0.9634
  245MOL0     H33786   2.019  10.161  12.276 -0.6563  0.7198 -1.0346
  245MOL0     H33787   2.156  10.067  12.207 -0.6082  2.5452 -0.0084
  245MOL0     H33788   2.154  10.006  12.426  0.2749  2.4834 -0.8955
  245MOL0     H33789   2.070   9.865  12.343 -0.3127  0.2357 -2.3543
  245MOL0     H33790   1.621  10.093  11.285  0.1527 -0.2443  3.9784
  245MOL0     H33791   1.469  10.225  11.125  0.6744 -0.4102 -0.6812
  245MOL0     H33792   1.479  10.681  11.137  0.5651 -2.6904 -0.9490
  245MOL0     H33793   1.475  10.834  10.945  2.5150 -2.3736 -1.0123
  245MOL0     H33794   2.069  10.485  10.400 -2.1792  0.1106 -1.5862
  245MOL0     H33795   2.154  10.606  10.580  2.0880 -4.5070 -3.9034
  245MOL0     H33796   2.299  11.099  10.691  2.5710  1.9973 -0.4513
  245MOL0     H33797   2.435  11.214  10.862  1.0819  0.2728  0.2236
  245MOL0     H33798   2.734  10.986  11.114  0.6239  0.2927  0.8337
  245MOL0     H33799   2.843  11.008  10.990 -0.7575 -0.4854 -0.1551
  245MOL0     H33800   2.870  11.243  11.073 -0.9097  0.2782 -0.7496
  245MOL0     H33801   2.945  11.110  11.163  0.7172  1.0893  1.7750
  245MOL0     H33802   2.662  11.220  11.241  1.5668  2.9347 -1.1884
  245MOL0     H33803   2.743  11.083  11.315 -0.3360  0.7603  1.6250
  245MOL0     H33804   2.761  11.284  11.450 -0.2381 -4.0675 -0.5845
  245MOL0     H33805   2.829  11.377  11.310  0.2548 -0.3054 -0.2664
  245MOL0     H33806   3.165  11.131  11.462 -0.1108  0.2499 -0.4501
  245MOL0     H33807   2.679  10.867  10.905  1.4451  1.1912 -2.1674
  245MOL0     H33808   2.457  10.637  10.730 -0.2871  0.2998 -1.4999
  245MOL0     H33809   2.615  10.678  10.659  0.9144  1.8642 -0.4901
  245MOL0     H33810   2.604  10.661  10.836  3.8234  3.4010 -0.3766
  246MOL0     O33811  10.184   3.195  11.497  0.0092 -0.2643  0.2830
  246MOL0     C33812  10.113   3.102  11.464  0.1691 -0.2948 -0.0483
  246MOL0     O33813  10.098   2.987  11.543  0.0760 -0.9051 -0.0710
  246MOL0     C33814  10.165   2.983  11.665 -0.2924  0.5748 -0.5140
  246MOL0     C33815  10.152   3.080  11.766 -0.5584  0.5723  0.3848
  246MOL0     C33816  10.218   3.066  11.885 -1.3554 -0.6865 -0.1989
  246MOL0     C33817  10.312   2.962  11.911 -0.1882  0.2068 -0.0730
  246MOL0     O33818  10.399   2.961  12.017 -0.4317  0.3685  0.3170
  246MOL0     C33819  10.346   2.939  12.151 -0.0099 -0.4576 -0.2524
  246MOL0     C33820  10.450   2.923  12.254  0.4453 -0.3170 -0.5763
  246MOL0     C33821  10.383   2.926  12.399 -0.9124  0.0013 -0.0936
  246MOL0     C33822  10.268   2.824  12.426 -0.0463 -0.0920 -0.4309
  246MOL0     C33823  10.308   2.676  12.427 -0.0534 -0.6016 -0.3064
  246MOL0     C33824  10.186   2.580  12.430 -0.6187 -0.6650  0.6603
  246MOL0     C33825  10.236   2.437  12.392  0.3181  0.0241  0.9703
  246MOL0     C33826  10.188   2.325  12.483  0.1381  1.4328  0.0429
  246MOL0     N33827  10.232   2.332  12.618  0.0225 -0.4091  0.9144
  246MOL0     C33828  10.359   2.314  12.657  0.1121 -0.2512 -0.5500
  246MOL0     C33829  10.356   2.307  12.797 -0.0447 -0.5241 -0.1191
  246MOL0     C33830  10.462   2.296  12.896  0.0170 -0.2250 -0.7185
  246MOL0     C33831  10.479   2.145  12.942 -0.2329  0.5869 -0.2295
  246MOL0     C33832  10.614   2.085  12.894  0.3339  0.0351  0.8412
  246MOL0     C33833  10.662   1.989  12.998 -0.0123  0.4246  0.2641
  246MOL0     O33834  10.576   1.872  12.983  0.7133  0.8655 -0.3173
  246MOL0     C33835  10.559   1.804  13.095  0.4188 -0.2385  0.6176
  246MOL0     C33836  10.430   1.782  13.138 -0.4970  0.5627 -1.0414
  246MOL0     C33837  10.399   1.687  13.234 -0.0704  0.1993  0.8238
  246MOL0     C33838  10.256   1.676  13.273 -0.5891 -0.6363  0.5082
  246MOL0     C33839  10.502   1.616  13.297  0.5114 -1.0998 -0.2285
  246MOL0     C33840  10.477   1.496  13.389  0.8025 -0.5708 -0.9211
  246MOL0     O33841  10.353   1.440  13.393  0.8547  0.1080  0.1442
  246MOL0     C33842  10.320   1.333  13.470 -0.5386  0.6595 -0.4460
  246MOL0     C33843  10.410   1.222  13.491  0.0369 -0.6849  0.5434
  246MOL0     C33844  10.383   1.118  13.575 -0.3046 -0.7317 -0.4982
  246MOL0     C33845  10.258   1.109  13.630 -0.2100 -0.0542  0.5483
  246MOL0     O33846  10.218   1.013  13.711 -0.2648  1.1822  0.3090
  246MOL0     C33847  10.304   0.907  13.758  0.6935 -0.0857  0.7497
  246MOL0     C33848  10.254   0.819  13.877 -0.1170 -0.6075  0.7437
  246MOL0     C33849  10.359   0.738  13.932  0.3303 -0.4640  0.0915
  246MOL0     C33850  10.420   0.641  13.826 -1.0786 -0.1486 -0.7799
  246MOL0     C33851  10.326   0.534  13.769  0.5286  0.0426  0.2368
  246MOL0     C33852  10.384   0.403  13.728 -0.9560 -0.2586  0.5956
  246MOL0     C33853  10.278   0.317  13.662  0.5265 -0.2037  0.7863
  246MOL0     C33854  10.221   0.374  13.523  0.3355  0.3239 -0.0340
  246MOL0    Cl33855  10.355   0.416  13.421  0.0746 -0.0776  0.0226
  246MOL0     C33856  10.162   1.206  13.602  0.8771 -0.2875  1.1262
  246MOL0     C33857  10.191   1.318  13.522  0.7153 -0.3930 -0.8023
  246MOL0     O33858  10.572   1.465  13.466  0.1354 -0.5197 -0.0909
  246MOL0     C33859  10.636   1.656  13.274  0.0566 -0.7326 -1.4764
  246MOL0     C33860  10.661   1.739  13.168 -1.1236  0.0143  0.5232
  246MOL0     N33861  10.220   2.329  12.833 -0.3530 -0.3351  0.2551
  246MOL0     N33862  10.153   2.364  12.722 -0.5596 -0.1822 -0.4673
  246MOL0     C33863  10.337   2.868  11.804  0.4662  0.2085  0.2065
  246MOL0     C33864  10.261   2.884  11.681 -0.3646 -0.1927  0.1548
  246MOL0     C33865  10.047   3.125  11.331 -0.0072  0.5488 -0.2791
  246MOL0     C33866  10.015   3.256  11.286  0.4527 -0.3755 -1.2876
  246MOL0     C33867   9.952   3.271  11.166  0.3660  0.1816 -0.0354
  246MOL0     C33868   9.925   3.158  11.078  0.5945 -0.3675 -0.4081
  246MOL0     O33869   9.867   3.167  10.953  0.0274 -0.1358 -0.4069
  246MOL0     C33870   9.783   3.276  10.918  0.5452 -0.4635 -0.7768
  246MOL0     C33871   9.703   3.255  10.793  0.5119 -0.3620 -0.3908
  246MOL0     C33872   9.578   3.172  10.816 -0.4107 -0.4476 -0.1480
  246MOL0     C33873   9.530   3.094  10.694  0.7767 -0.3500 -0.3444
  246MOL0     C33874   9.476   3.196  10.592 -0.7587  0.5032 -0.1850
  246MOL0     C33875   9.438   3.282  10.510  0.1160  0.0409  0.8167
  246MOL0     C33876   9.951   3.035  11.131  0.6446  0.0901  1.1481
  246MOL0     C33877  10.020   3.013  11.245  0.1144 -0.1601  1.5144
  246MOL0     C33878  10.052   2.861  11.284 -0.9638  0.7258  0.2028
  246MOL0     H33879  10.084   3.162  11.749 -2.0109 -0.2807  1.8236
  246MOL0     H33880  10.209   3.140  11.963  0.6834 -1.0836  0.4873
  246MOL0     H33881  10.284   2.848  12.149 -0.4441 -0.1841 -2.8707
  246MOL0     H33882  10.280   3.022  12.175 -1.5058 -0.5965 -3.3606
  246MOL0     H33883  10.496   2.825  12.242  0.2259 -0.4950  0.0111
  246MOL0     H33884  10.532   2.994  12.239 -0.2678  1.2831  2.2416
  246MOL0     H33885  10.466   2.923  12.470 -1.9532  3.0267  1.4261
  246MOL0     H33886  10.344   3.028  12.408  1.0332  0.8432 -0.6840
  246MOL0     H33887  10.226   2.852  12.523 -0.6516 -0.4799 -0.5740
  246MOL0     H33888  10.184   2.830  12.356  0.4168 -2.7410 -1.3613
  246MOL0     H33889  10.368   2.666  12.518 -4.1747  5.6438  3.9455
  246MOL0     H33890  10.366   2.669  12.335 -0.8598  0.4025 -0.9191
  246MOL0     H33891  10.137   2.583  12.527 -3.6211 -1.0291 -0.7445
  246MOL0     H33892  10.105   2.618  12.367 -0.3334 -1.1390 -0.0139
  246MOL0     H33893  10.345   2.439  12.388  0.2776  0.0022 -1.6631
  246MOL0     H33894  10.193   2.412  12.295 -3.9763  3.2235  1.7846
  246MOL0     H33895  10.080   2.312  12.472 -0.2583  1.1801  3.2415
  246MOL0     H33896  10.220   2.227  12.446 -3.9790 -1.0785  2.4452
  246MOL0     H33897  10.447   2.269  12.613 -0.3330 -1.6958 -0.0304
  246MOL0     H33898  10.426   2.344  12.987  0.9031 -0.2987 -0.3215
  246MOL0     H33899  10.559   2.338  12.867 -0.7867  1.9922 -0.4039
  246MOL0     H33900  10.495   2.141  13.050 -1.8406  0.7761  0.0405
  246MOL0     H33901  10.397   2.076  12.921  1.7398 -1.7440 -0.7097
  246MOL0     H33902  10.591   2.039  12.798 -2.6722 -3.7972  3.1382
  246MOL0     H33903  10.695   2.155  12.870 -0.3248  0.3447 -0.5805
  246MOL0     H33904  10.765   1.960  12.979  0.1420 -0.4384  2.2659
  246MOL0     H33905  10.661   2.033  13.098  2.1233  1.8870 -0.2775
  246MOL0     H33906  10.352   1.841  13.090 -1.5122 -0.1072 -0.2704
  246MOL0     H33907  10.240   1.664  13.381 -0.1384  4.8832  1.4769
  246MOL0     H33908  10.197   1.611  13.208 -2.0731  0.1490  1.0252
  246MOL0     H33909  10.209   1.770  13.244 -1.2037 -0.6127  1.5371
  246MOL0     H33910  10.512   1.235  13.456  0.0178 -1.1483  0.3206
  246MOL0     H33911  10.449   1.032  13.575  1.2764  0.4081 -1.5923
  246MOL0     H33912  10.327   0.846  13.670 -0.2281 -0.9943  1.1253
  246MOL0     H33913  10.398   0.955  13.787 -0.2118  0.1469  3.6380
  246MOL0     H33914  10.208   0.882  13.954 -0.3575  0.9566 -0.6043
  246MOL0     H33915  10.177   0.753  13.836 -1.5366  1.5823 -0.3723
  246MOL0     H33916  10.319   0.680  14.016 -2.2000  0.2491 -0.5067
  246MOL0     H33917  10.434   0.807  13.969  1.0496 -0.4175 -1.3675
  246MOL0     H33918  10.498   0.585  13.879  0.7648  1.7357 -1.3605
  246MOL0     H33919  10.475   0.696  13.749 -0.2170 -0.1558 -0.1888
  246MOL0     H33920  10.240   0.515  13.834 -0.8919  0.7436 -1.3726
  246MOL0     H33921  10.295   0.575  13.673  1.7734 -1.0457 -0.6744
  246MOL0     H33922  10.425   0.353  13.816 -1.8317 -2.0548  0.0328
  246MOL0     H33923  10.466   0.420  13.657 -0.2479  0.6953  1.6177
  246MOL0     H33924  10.204   0.289  13.738  1.5829 -3.7511  0.7186
  246MOL0     H33925  10.315   0.216  13.641 -2.1203 -0.8332 -1.4304
  246MOL0     H33926  10.157   0.460  13.542  0.1307 -0.0914  1.2447
  246MOL0     H33927  10.167   0.293  13.473 -0.5494  1.2137 -0.5576
  246MOL0     H33928  10.068   1.184  13.653  0.8022  1.4131  1.8129
  246MOL0     H33929  10.111   1.389  13.507  0.9547 -0.4818 -2.7868
  246MOL0     H33930  10.713   1.605  13.330 -2.3218 -2.4752  0.4266
  246MOL0     H33931  10.760   1.736  13.123 -0.4455 -2.9491  1.9793
  246MOL0     H33932  10.403   2.782  11.811 -0.8648 -0.8748 -0.0819
  246MOL0     H33933  10.276   2.825  11.591  0.4169 -1.5354  1.1358
  246MOL0     H33934  10.035   3.336  11.358  5.3065 -0.0688 -2.5777
  246MOL0     H33935   9.910   3.364  11.128 -3.9123 -1.1532  0.7852
  246MOL0     H33936   9.706   3.276  10.995 -0.6146 -0.3533 -1.9172
  246MOL0     H33937   9.836   3.372  10.918 -0.2865  0.0116 -0.2213
  246MOL0     H33938   9.775   3.211  10.723  1.7669 -1.0077  1.2653
  246MOL0     H33939   9.671   3.350  10.748 -0.0027 -0.2190  0.2490
  246MOL0     H33940   9.615   3.099  10.888  2.5673 -0.6849 -1.7273
  246MOL0     H33941   9.506   3.238  10.865  2.6484  1.6019  1.9570
  246MOL0     H33942   9.441   3.040  10.726  0.6638 -0.9106 -1.5565
  246MOL0     H33943   9.592   3.017  10.647  0.0672 -0.9064 -0.3729
  246MOL0     H33944   9.413   3.361  10.442  1.5886  1.3330  1.6988
  246MOL0     H33945   9.926   2.960  11.057 -0.8009  0.7339  0.9350
  246MOL0     H33946  10.072   2.807  11.191 -0.8332  0.4598  0.3850
  246MOL0     H33947  10.147   2.857  11.338 -0.5462 -0.3844 -0.5788
  246MOL0     H33948   9.971   2.819  11.343 -0.8270 -1.1500 -0.8741
  247MOL0     O33949   2.210   1.938   1.201 -0.0271  0.4648 -0.1536
  247MOL0     C33950   2.185   2.041   1.263 -0.1523  0.3119 -0.4241
  247MOL0     O33951   2.264   2.153   1.258 -0.2205  0.1422 -0.0310
  247MOL0     C33952   2.378   2.164   1.175 -0.2947 -0.6094 -1.2302
  247MOL0     C33953   2.377   2.153   1.037  0.2288  0.4563  0.1735
  247MOL0     C33954   2.485   2.183   0.958 -0.4317  0.2167  0.5853
  247MOL0     C33955   2.605   2.226   1.025  0.2842  0.5244  0.5362
  247MOL0     O33956   2.722   2.263   0.965  0.0095  0.6189 -0.2256
  247MOL0     C33957   2.722   2.221   0.824 -0.2739 -0.0521 -0.8258
  247MOL0     C33958   2.860   2.237   0.761  0.3634  0.6791 -0.6167
  247MOL0     C33959   2.908   2.385   0.755 -0.8622  0.1377  0.7646
  247MOL0     C33960   3.058   2.405   0.761 -0.7008 -0.3237 -0.7987
  247MOL0     C33961   3.096   2.561   0.776  0.8903  0.3503  0.8079
  247MOL0     C33962   3.245   2.575   0.812  0.6831  1.0417 -0.0736
  247MOL0     C33963   3.352   2.522   0.704 -0.0751 -0.6269  0.3486
  247MOL0     C33964   3.482   2.584   0.741  0.1111  0.2324  0.6069
  247MOL0     N33965   3.516   2.696   0.650  0.0963  0.1804  1.0497
  247MOL0     C33966   3.455   2.820   0.637  0.4797  0.8463  0.5138
  247MOL0     C33967   3.545   2.893   0.561  1.1263  0.1274 -0.0126
  247MOL0     C33968   3.535   3.036   0.527 -0.3637  0.6136  0.7546
  247MOL0     C33969   3.633   3.110   0.620  0.0843 -0.2865  0.5866
  247MOL0     C33970   3.630   3.264   0.586  0.4354  0.7915 -0.1679
  247MOL0     C33971   3.755   3.325   0.654 -0.3895  0.8767  0.7191
  247MOL0     O33972   3.740   3.466   0.618 -0.0583  0.0094 -0.2669
  247MOL0     C33973   3.821   3.546   0.690 -0.0292  0.0541 -0.3540
  247MOL0     C33974   3.782   3.591   0.816  0.1778 -0.2114 -0.2607
  247MOL0     C33975   3.863   3.673   0.893 -0.0885 -0.1736 -0.6999
  247MOL0     C33976   3.840   3.682   1.039 -0.2723 -0.2721 -1.0278
  247MOL0     C33977   3.984   3.717   0.848  0.3293  0.6493  0.7837
  247MOL0     C33978   4.071   3.821   0.912  0.2446 -0.7146 -0.4954
  247MOL0     O33979   4.182   3.850   0.837 -0.4932  0.5787 -0.3954
  247MOL0     C33980   4.254   3.969   0.840 -0.0368  0.3139  0.4236
  247MOL0     C33981   4.387   3.964   0.825 -0.1046  0.0154  0.3170
  247MOL0     C33982   4.467   4.083   0.836  0.3540  1.2864  0.3893
  247MOL0     C33983   4.409   4.196   0.878  0.0540 -0.2836 -0.1112
  247MOL0     O33984   4.494   4.301   0.907 -0.5135 -0.1650 -0.1837
  247MOL0     C33985   4.434   4.425   0.933  0.1861 -0.8583 -0.5226
  247MOL0     C33986   4.370   4.443   1.073  0.3684  0.5395  0.0217
  247MOL0     C33987   4.274   4.561   1.083  0.9741  0.5737  0.4623
  247MOL0     C33988   4.317   4.694   1.020  0.2471  0.1407 -0.2809
  247MOL0     C33989   4.431   4.766   1.101  0.7668 -0.3510  0.0863
  247MOL0     C33990   4.470   4.897   1.045 -1.1153  1.0391 -0.3219
  247MOL0     C33991   4.558   4.980   1.138  0.4293  0.3137 -0.5604
  247MOL0     C33992   4.606   5.110   1.055  0.4436 -0.1216  0.1483
  247MOL0    Cl33993   4.475   5.184   0.981 -0.0552  0.2290  0.2312
  247MOL0     C33994   4.273   4.200   0.890 -0.7755  0.3917  0.4011
  247MOL0     C33995   4.194   4.085   0.876  0.2650 -0.3773 -0.6572
  247MOL0     O33996   4.038   3.890   1.007 -0.4047 -0.3987  0.6980
  247MOL0     C33997   4.018   3.670   0.722 -0.3696  0.2305  0.1230
  247MOL0     C33998   3.941   3.584   0.641 -0.4940  1.1376 -1.0446
  247MOL0     N33999   3.661   2.818   0.531  0.4604  0.9973  0.8609
  247MOL0     N34000   3.631   2.697   0.580 -0.7916  0.0574  0.2050
  247MOL0     C34001   2.605   2.237   1.164  0.6996  0.4828 -0.0697
  247MOL0     C34002   2.494   2.197   1.243 -0.3305  0.3447  1.1244
  247MOL0     C34003   2.074   2.019   1.372  0.1295  0.2244 -0.1764
  247MOL0     C34004   2.068   2.108   1.478  0.1962 -0.9102 -0.2816
  247MOL0     C34005   1.979   2.093   1.590 -0.2686 -0.3340 -0.3006
  247MOL0     C34006   1.881   1.996   1.584  0.4127  0.9568  0.5078
  247MOL0     O34007   1.798   1.971   1.688  0.3494 -0.7005  0.0487
  247MOL0     C34008   1.661   1.915   1.687  0.0184 -0.0726 -0.5469
  247MOL0     C34009   1.624   1.857   1.824  0.0076  0.3058 -0.3244
  247MOL0     C34010   1.576   1.961   1.927  0.6068 -0.5159 -0.2412
  247MOL0     C34011   1.433   2.002   1.915 -0.4869 -0.1298 -0.4641
  247MOL0     C34012   1.346   1.900   1.965  0.7015  0.3759  1.1202
  247MOL0     C34013   1.290   1.808   2.014 -0.4043 -0.3044 -0.1558
  247MOL0     C34014   1.879   1.911   1.468  0.9560 -0.0413  0.5060
  247MOL0     C34015   1.966   1.930   1.359 -0.8855  0.1037 -0.2947
  247MOL0     C34016   1.944   1.847   1.240  0.6390  0.1540 -0.0317
  247MOL0     H34017   2.281   2.123   0.997  0.7977 -0.2136 -0.7388
  247MOL0     H34018   2.472   2.174   0.850  1.4103  0.5609  0.2876
  247MOL0     H34019   2.651   2.279   0.764  0.1591 -0.2069 -1.5028
  247MOL0     H34020   2.692   2.116   0.821 -0.5204 -0.0340  0.6400
  247MOL0     H34021   2.938   2.187   0.820 -0.5277 -0.4059 -0.3216
  247MOL0     H34022   2.854   2.194   0.661  2.6762  1.3357 -1.1046
  247MOL0     H34023   2.873   2.433   0.663  2.9527  1.4690 -0.2021
  247MOL0     H34024   2.854   2.447   0.826 -0.2006  0.8176  0.6826
  247MOL0     H34025   3.098   2.337   0.837 -4.1173  1.3441  2.8703
  247MOL0     H34026   3.081   2.379   0.657 -1.5132 -1.0143 -0.8078
  247MOL0     H34027   3.041   2.617   0.853 -1.2286  0.5377 -0.7541
  247MOL0     H34028   3.056   2.606   0.684  1.1506 -2.7161 -0.9296
  247MOL0     H34029   3.271   2.681   0.822 -1.9081  1.9485 -1.9228
  247MOL0     H34030   3.261   2.516   0.903  0.0313 -0.6893 -1.0336
  247MOL0     H34031   3.310   2.561   0.611 -1.6961  0.0249  1.2964
  247MOL0     H34032   3.350   2.413   0.699  0.0653 -0.6248  0.2503
  247MOL0     H34033   3.484   2.620   0.844  3.2194 -0.4091  0.8653
  247MOL0     H34034   3.559   2.507   0.733  1.4247  1.2578  2.4205
  247MOL0     H34035   3.360   2.850   0.681 -0.5746 -1.6764  0.1059
  247MOL0     H34036   3.432   3.072   0.528 -0.5336  0.1350  0.9285
  247MOL0     H34037   3.579   3.042   0.427  1.3023 -2.0757  1.2076
  247MOL0     H34038   3.601   3.076   0.719  1.0541 -3.6627 -0.1279
  247MOL0     H34039   3.735   3.073   0.609  0.1115  0.2899 -1.6742
  247MOL0     H34040   3.636   3.282   0.478  1.5958 -0.7433 -0.3927
  247MOL0     H34041   3.531   3.299   0.618 -0.0978 -1.8322  1.3073
  247MOL0     H34042   3.743   3.313   0.762  0.0584  3.8582  1.1955
  247MOL0     H34043   3.845   3.270   0.622  0.2980 -0.3878  4.3871
  247MOL0     H34044   3.692   3.545   0.856  0.7459 -0.2800  0.9903
  247MOL0     H34045   3.760   3.617   1.077 -0.1885 -0.7907 -1.7213
  247MOL0     H34046   3.803   3.781   1.066 -2.1215 -0.6425 -2.0165
  247MOL0     H34047   3.928   3.647   1.093 -1.2162 -0.2910  0.5539
  247MOL0     H34048   4.435   3.870   0.800 -0.3010 -0.3671  1.3241
  247MOL0     H34049   4.572   4.078   0.808  0.2424  1.0436  0.0102
  247MOL0     H34050   4.503   4.508   0.917 -0.7420 -0.3003 -1.8702
  247MOL0     H34051   4.362   4.440   0.852 -5.0904 -0.7482  3.6483
  247MOL0     H34052   4.320   4.353   1.110  0.2831 -0.3111 -2.0383
  247MOL0     H34053   4.460   4.461   1.132 -1.4024  2.3108  2.4559
  247MOL0     H34054   4.250   4.584   1.187 -0.2324 -0.2894  0.3937
  247MOL0     H34055   4.176   4.536   1.043 -0.7250  2.3240  3.2020
  247MOL0     H34056   4.229   4.759   1.028  1.7249  2.1198  0.9675
  247MOL0     H34057   4.343   4.686   0.914 -0.1688  1.9936 -0.5608
  247MOL0     H34058   4.389   4.779   1.201 -1.2441  1.0219 -0.8564
  247MOL0     H34059   4.516   4.698   1.110  0.2592 -1.5672 -2.9544
  247MOL0     H34060   4.385   4.952   1.005 -0.8566  3.1534  1.7823
  247MOL0     H34061   4.539   4.853   0.973  0.0009 -3.7221  3.1525
  247MOL0     H34062   4.645   4.925   1.177  1.1889  2.7474  1.4464
  247MOL0     H34063   4.498   5.002   1.227 -1.9230 -2.3947 -1.3393
  247MOL0     H34064   4.665   5.081   0.968 -1.0106  2.1848 -1.7361
  247MOL0     H34065   4.658   5.183   1.119  1.6127 -1.5223  0.8426
  247MOL0     H34066   4.211   4.286   0.916 -2.8539 -1.3104  1.4916
  247MOL0     H34067   4.088   4.107   0.884  0.7204  2.8509 -1.9232
  247MOL0     H34068   4.117   3.693   0.684  0.7167 -0.9479  2.0724
  247MOL0     H34069   3.975   3.554   0.543  0.2218 -2.8364  0.2258
  247MOL0     H34070   2.690   2.270   1.223  1.8468 -2.6064  0.1765
  247MOL0     H34071   2.499   2.194   1.351 -2.4311 -2.0610  1.2462
  247MOL0     H34072   2.130   2.198   1.471 -3.1542  1.7518  1.2193
  247MOL0     H34073   1.984   2.156   1.677 -0.2765 -1.6573  0.6904
  247MOL0     H34074   1.588   1.992   1.661 -1.4164 -0.5019  1.8514
  247MOL0     H34075   1.657   1.832   1.616 -6.2826  1.2380 -2.3158
  247MOL0     H34076   1.703   1.800   1.874 -0.7561 -4.0037 -3.4251
  247MOL0     H34077   1.544   1.785   1.804 -0.2318  1.1812 -2.9677
  247MOL0     H34078   1.592   1.916   2.025 -0.1764 -0.8109 -0.2448
  247MOL0     H34079   1.641   2.049   1.924  0.1333 -0.1447 -2.7563
  247MOL0     H34080   1.422   2.042   1.814 -1.0514 -0.1440 -0.4106
  247MOL0     H34081   1.412   2.087   1.981 -0.2700 -1.8365  1.9320
  247MOL0     H34082   1.245   1.726   2.065  2.1566 -0.8057  1.4980
  247MOL0     H34083   1.812   1.826   1.467  0.0279  0.6787  0.0220
  247MOL0     H34084   2.018   1.767   1.225 -0.4022 -0.2456 -4.5037
  247MOL0     H34085   1.845   1.801   1.244  0.7377 -0.2740 -1.6839
  247MOL0     H34086   1.958   1.901   1.146 -1.3215  0.8578  0.0449
  248MOL0     O34087   2.302   3.882   1.923  0.2934 -0.9155 -0.0341
  248MOL0     C34088   2.268   3.794   2.002  0.9503 -0.1157  0.7781
  248MOL0     O34089   2.354   3.716   2.076 -0.7268  0.3078  0.6033
  248MOL0     C34090   2.481   3.722   2.020 -0.5507  1.0869  0.3871
  248MOL0     C34091   2.570   3.810   2.073 -0.8046 -0.2989  0.3907
  248MOL0     C34092   2.698   3.823   2.023 -1.1980  0.6200  0.4837
  248MOL0     C34093   2.740   3.740   1.919  1.0940 -0.7329  0.4810
  248MOL0     O34094   2.862   3.737   1.871 -0.1735 -0.2996  0.1341
  248MOL0     C34095   2.911   3.872   1.836 -0.3062 -0.3488  0.1574
  248MOL0     C34096   3.061   3.862   1.793  0.1841 -0.3088 -1.1597
  248MOL0     C34097   3.107   4.002   1.744  0.8425  0.8719 -0.1462
  248MOL0     C34098   3.258   4.011   1.702 -0.1178 -0.6913 -0.2144
  248MOL0     C34099   3.360   3.968   1.804 -0.0004 -0.2037 -0.5265
  248MOL0     C34100   3.497   3.958   1.748 -0.4644 -0.6742 -0.2988
  248MOL0     C34101   3.604   3.955   1.858 -0.1781 -0.3220 -0.1553
  248MOL0     C34102   3.743   3.986   1.805 -1.8602 -0.1899 -0.2582
  248MOL0     N34103   3.844   4.018   1.913  0.6253  0.0360  0.8573
  248MOL0     C34104   3.981   4.037   1.891 -0.5597  0.3609 -0.5085
  248MOL0     C34105   4.034   4.056   2.016 -0.1410  1.1529 -0.7354
  248MOL0     C34106   4.177   4.088   2.045  0.2232  0.4202  0.5205
  248MOL0     C34107   4.230   4.217   1.973 -1.1645 -0.7149  0.0944
  248MOL0     C34108   4.277   4.193   1.821  0.6074  0.2872 -0.2378
  248MOL0     C34109   4.412   4.128   1.780 -0.2178 -0.1248  0.0824
  248MOL0     O34110   4.528   4.211   1.813  0.3839  0.6481 -0.7193
  248MOL0     C34111   4.548   4.330   1.762  0.1586  0.3356  0.4028
  248MOL0     C34112   4.497   4.367   1.640 -1.4820  0.3757  0.3471
  248MOL0     C34113   4.531   4.495   1.586 -0.1101 -0.4617 -0.4348
  248MOL0     C34114   4.491   4.527   1.447  0.2974  0.2652 -0.7032
  248MOL0     C34115   4.590   4.589   1.673  0.0836 -0.9366 -0.1737
  248MOL0     C34116   4.602   4.732   1.636 -0.0530 -0.4828  0.1200
  248MOL0     O34117   4.533   4.782   1.536 -0.0489 -0.1610  0.6888
  248MOL0     C34118   4.544   4.914   1.506  1.3455 -0.4570 -0.0939
  248MOL0     C34119   4.656   4.971   1.449 -0.1566 -0.5299  0.3262
  248MOL0     C34120   4.662   5.108   1.414  0.5167 -0.0068 -0.2279
  248MOL0     C34121   4.553   5.189   1.439  0.5839  0.4875  0.1530
  248MOL0     O34122   4.565   5.318   1.399 -0.9786 -0.4916 -0.8261
  248MOL0     C34123   4.447   5.404   1.377  0.1630 -0.5342  0.6082
  248MOL0     C34124   4.410   5.513   1.485  0.9429 -0.3216  0.5742
  248MOL0     C34125   4.510   5.620   1.541 -0.2422 -0.0866  1.3012
  248MOL0     C34126   4.473   5.703   1.661  0.6627  0.4646 -0.6997
  248MOL0     C34127   4.543   5.841   1.675 -1.3643 -0.2536  0.2191
  248MOL0     C34128   4.690   5.846   1.670 -0.2341 -0.3491  0.3397
  248MOL0     C34129   4.765   5.771   1.774 -0.6150 -0.1366  0.0055
  248MOL0     C34130   4.920   5.794   1.762 -0.0687 -0.2980  0.0495
  248MOL0    Cl34131   4.983   5.765   1.596  0.1203  0.4073  0.4118
  248MOL0     C34132   4.447   5.134   1.504  0.6868  0.2774 -0.6198
  248MOL0     C34133   4.437   5.000   1.532 -0.2956  0.8530  0.0800
  248MOL0     O34134   4.672   4.806   1.706 -0.6922  0.1506  0.4535
  248MOL0     C34135   4.629   4.557   1.798  0.5389 -0.0063 -0.0501
  248MOL0     C34136   4.609   4.423   1.833 -0.9317 -0.4042  0.1617
  248MOL0     N34137   3.928   4.036   2.104 -0.4271  0.1101 -1.0715
  248MOL0     N34138   3.815   4.029   2.047 -1.0971  0.1549  0.1426
  248MOL0     C34139   2.654   3.649   1.865  0.7411  0.8371 -0.4159
  248MOL0     C34140   2.522   3.644   1.921 -0.4959 -0.3329  0.4885
  248MOL0     C34141   2.123   3.794   2.015 -0.3007 -0.2545 -0.0274
  248MOL0     C34142   2.052   3.914   2.022 -1.7304  0.6908 -0.1848
  248MOL0     C34143   1.916   3.922   2.050  0.0181 -0.0378  0.4839
  248MOL0     C34144   1.837   3.806   2.059  0.0017 -0.2089  0.5693
  248MOL0     O34145   1.702   3.798   2.087  0.1948 -0.4435  0.7561
  248MOL0     C34146   1.619   3.913   2.079  0.1220 -0.5975 -0.3872
  248MOL0     C34147   1.476   3.891   2.123  0.4594  0.5430  0.4593
  248MOL0     C34148   1.378   3.984   2.054  0.0326  0.4316  0.1969
  248MOL0     C34149   1.232   3.954   2.094  0.0756  0.5615  0.4296
  248MOL0     C34150   1.196   3.822   2.069  0.8222 -0.1230  0.3818
  248MOL0     C34151   1.168   3.711   2.027 -0.1949 -0.0611 -0.2354
  248MOL0     C34152   1.901   3.682   2.049 -0.8235  0.2401  0.4241
  248MOL0     C34153   2.047   3.674   2.028 -0.1289 -0.8484 -0.5252
  248MOL0     C34154   2.108   3.540   1.997  0.4664  0.2637  0.0983
  248MOL0     H34155   2.534   3.887   2.140  2.0664  1.7843 -0.2879
  248MOL0     H34156   2.757   3.900   2.072 -0.1538 -0.6137  1.2695
  248MOL0     H34157   2.896   3.948   1.912  0.6539  0.1183 -0.1093
  248MOL0     H34158   2.869   3.902   1.740  4.3816  1.3193 -1.6617
  248MOL0     H34159   3.123   3.838   1.880  1.9504 -1.3028 -2.6298
  248MOL0     H34160   3.074   3.784   1.717 -1.5604  0.5462 -2.4035
  248MOL0     H34161   3.047   4.016   1.654  0.1479 -2.9717 -0.4602
  248MOL0     H34162   3.080   4.071   1.825 -1.9817 -2.8351  2.4630
  248MOL0     H34163   3.279   3.952   1.612 -0.1776  0.1282 -0.7687
  248MOL0     H34164   3.289   4.110   1.669 -0.7433 -1.3814 -3.2335
  248MOL0     H34165   3.334   3.867   1.837  0.9719  0.1289  1.3707
  248MOL0     H34166   3.356   4.031   1.893  0.1225 -1.2331  0.2227
  248MOL0     H34167   3.511   3.874   1.679  0.2666 -0.5079 -0.3689
  248MOL0     H34168   3.506   4.050   1.690  0.8237 -1.6244 -1.7102
  248MOL0     H34169   3.604   3.854   1.898 -3.3047  0.1152  1.2601
  248MOL0     H34170   3.584   4.012   1.949  2.4727 -1.1732  1.0512
  248MOL0     H34171   3.786   3.914   1.735  1.5597  1.0534  0.3795
  248MOL0     H34172   3.733   4.071   1.736  6.2446  0.8766 -1.0174
  248MOL0     H34173   4.035   4.040   1.797 -0.3400 -0.7691 -0.4314
  248MOL0     H34174   4.236   4.001   2.017  1.2650  0.9172  1.0907
  248MOL0     H34175   4.179   4.100   2.154 -2.1756 -1.5563  0.8647
  248MOL0     H34176   4.150   4.292   1.972 -4.6253 -4.0265  2.1826
  248MOL0     H34177   4.311   4.263   2.030 -0.6378 -0.7381 -0.6235
  248MOL0     H34178   4.206   4.118   1.785 -0.2926  1.2855 -0.5907
  248MOL0     H34179   4.260   4.280   1.758  2.0747  0.7013 -0.0795
  248MOL0     H34180   4.432   4.039   1.841 -1.2234 -0.0475  0.5431
  248MOL0     H34181   4.409   4.105   1.673 -1.9193  0.2467  0.0215
  248MOL0     H34182   4.451   4.286   1.585 -3.2531  1.2024  0.5591
  248MOL0     H34183   4.564   4.588   1.393  4.4894 -1.6163  2.3229
  248MOL0     H34184   4.398   4.584   1.456 -0.5489 -1.2893  1.1805
  248MOL0     H34185   4.478   4.433   1.392  0.1069  0.5667 -1.1857
  248MOL0     H34186   4.740   4.903   1.437 -2.4299 -4.0132  2.3827
  248MOL0     H34187   4.745   5.163   1.370  0.4245 -0.1753 -0.6195
  248MOL0     H34188   4.471   5.469   1.293 -3.1023  0.7316  0.5373
  248MOL0     H34189   4.363   5.347   1.337 -0.3328  1.0143 -0.6479
  248MOL0     H34190   4.326   5.569   1.442  1.8227  1.2026  0.7774
  248MOL0     H34191   4.368   5.463   1.573 -1.2291 -0.5597 -0.5163
  248MOL0     H34192   4.527   5.691   1.460  3.3254  0.5242  2.4190
  248MOL0     H34193   4.612   5.582   1.554  0.8939  2.0073 -0.7340
  248MOL0     H34194   4.478   5.645   1.754 -0.1894 -0.5922 -1.2851
  248MOL0     H34195   4.366   5.721   1.654  1.0607  2.6748 -1.9294
  248MOL0     H34196   4.506   5.904   1.594  0.9095  2.8430  1.3996
  248MOL0     H34197   4.516   5.892   1.768  1.4950  1.5193  0.1961
  248MOL0     H34198   4.723   5.949   1.682  1.0336 -0.7889  0.7383
  248MOL0     H34199   4.713   5.811   1.569 -0.9696 -1.9289  0.6835
  248MOL0     H34200   4.746   5.664   1.758  0.5315 -1.0458  3.5983
  248MOL0     H34201   4.725   5.807   1.869  0.8519 -0.8885  0.9542
  248MOL0     H34202   4.995   5.742   1.822  2.7909  0.9185 -2.2676
  248MOL0     H34203   4.931   5.899   1.793 -2.4867  0.3242 -0.9339
  248MOL0     H34204   4.372   5.209   1.527  0.5490 -0.7466  2.7248
  248MOL0     H34205   4.350   4.941   1.560 -2.6412  2.1934 -3.7151
  248MOL0     H34206   4.654   4.639   1.864  3.2181 -0.4747 -0.3510
  248MOL0     H34207   4.618   4.402   1.940 -1.9600  2.5931  0.9260
  248MOL0     H34208   2.668   3.580   1.781 -0.9733 -0.2821  0.1596
  248MOL0     H34209   2.458   3.564   1.884  0.7121 -0.1659 -2.1960
  248MOL0     H34210   2.110   4.006   2.016  1.5903 -1.2671 -0.6021
  248MOL0     H34211   1.870   4.017   2.074 -2.1950 -1.1489  0.9479
  248MOL0     H34212   1.664   3.996   2.134 -1.0044 -0.4658  0.3760
  248MOL0     H34213   1.608   3.944   1.975  0.9949  0.4342 -0.1812
  248MOL0     H34214   1.486   3.922   2.227  1.2331  1.3580  0.1603
  248MOL0     H34215   1.455   3.785   2.108  1.5463  0.0306  2.3130
  248MOL0     H34216   1.391   4.092   2.066 -0.6814  0.4476  0.9023
  248MOL0     H34217   1.391   3.951   1.951 -0.9892 -0.3860  0.3152
  248MOL0     H34218   1.164   4.014   2.033 -0.8295 -2.8877 -2.2143
  248MOL0     H34219   1.216   3.976   2.200  1.5701 -0.5304  0.9131
  248MOL0     H34220   1.122   3.618   2.002 -0.7082  0.5681 -1.7384
  248MOL0     H34221   1.846   3.588   2.045 -0.1824 -0.1088 -0.9102
  248MOL0     H34222   2.173   3.496   2.074 -2.3513 -1.2421  1.7838
  248MOL0     H34223   2.033   3.461   1.992  0.8013 -0.1815  1.5787
  248MOL0     H34224   2.164   3.554   1.904  0.1177  3.3015  0.2463
  249MOL0     O34225  10.767   2.602   9.154 -0.4958 -0.5749 -0.0430
  249MOL0     C34226  10.757   2.724   9.159  0.3941 -0.1373 -1.1195
  249MOL0     O34227  10.863   2.813   9.151 -0.1169 -0.3651  0.9648
  249MOL0     C34228  10.995   2.775   9.117  0.5423 -0.0765 -0.6229
  249MOL0     C34229  11.093   2.874   9.148 -0.0110 -0.1796  0.0048
  249MOL0     C34230  11.227   2.841   9.140 -0.2436 -0.0026  0.6663
  249MOL0     C34231  11.274   2.711   9.111  0.4416 -0.2909  0.8170
  249MOL0     O34232  11.400   2.666   9.100 -0.1538 -0.4200 -0.4941
  249MOL0     C34233  11.496   2.694   9.206  0.2213 -0.4309  1.3389
  249MOL0     C34234  11.630   2.674   9.142 -0.6750 -0.1940 -0.5068
  249MOL0     C34235  11.742   2.659   9.246 -1.0753 -0.3216 -0.3793
  249MOL0     C34236  11.879   2.689   9.178  0.0905  0.0142  1.1044
  249MOL0     C34237  12.003   2.642   9.255 -0.1445  0.1123  0.4551
  249MOL0     C34238  12.003   2.682   9.401  0.3157 -0.1883 -0.1555
  249MOL0     C34239  12.148   2.719   9.448  0.7097  0.3474 -0.1878
  249MOL0     C34240  12.252   2.611   9.421  0.2950  0.4041 -0.0201
  249MOL0     N34241  12.240   2.478   9.474 -0.4342 -0.2228 -0.1753
  249MOL0     C34242  12.327   2.422   9.559 -0.1669  0.0112  0.0501
  249MOL0     C34243  12.300   2.290   9.576  0.4156  0.9807  0.6532
  249MOL0     C34244  12.377   2.191   9.666  0.5714  0.2671  0.8058
  249MOL0     C34245  12.316   2.201   9.810 -0.5061 -0.7542 -0.3030
  249MOL0     C34246  12.407   2.124   9.899 -0.3249 -1.0113  0.0399
  249MOL0     C34247  12.322   2.072  10.023 -0.1335  0.8394 -0.4099
  249MOL0     O34248  12.275   2.184  10.110  0.0301 -0.1748  0.5124
  249MOL0     C34249  12.345   2.250  10.202  0.4960 -0.3186 -0.0595
  249MOL0     C34250  12.482   2.220  10.207  0.5826  0.0308 -0.2345
  249MOL0     C34251  12.570   2.290  10.292 -0.1895  0.8898  1.0168
  249MOL0     C34252  12.706   2.236  10.323 -0.0866 -0.0543  0.3824
  249MOL0     C34253  12.514   2.402  10.361 -0.9738 -1.1926  0.6110
  249MOL0     C34254  12.588   2.481  10.462  0.2935  0.8960 -0.1418
  249MOL0     O34255  12.513   2.568  10.541  0.0943 -0.1663  0.4404
  249MOL0     C34256  12.558   2.620  10.660 -0.0266 -0.4010  0.9779
  249MOL0     C34257  12.591   2.759  10.656  0.1011 -0.4291  1.1276
  249MOL0     C34258  12.599   2.837  10.767  0.5795 -0.7207 -0.2951
  249MOL0     C34259  12.597   2.765  10.891  0.9703  0.0439  0.0515
  249MOL0     O34260  12.598   2.847  11.002  0.2138 -0.1959 -0.1494
  249MOL0     C34261  12.475   2.857  11.079  0.4983 -0.2451  0.3595
  249MOL0     C34262  12.459   2.998  11.124  0.0668  0.3076 -0.6118
  249MOL0     C34263  12.585   3.044  11.195 -0.2678  0.7749  1.6044
  249MOL0     C34264  12.552   3.189  11.245 -0.2316 -0.1752 -0.5856
  249MOL0     C34265  12.678   3.267  11.289 -0.5360 -0.3583 -0.5333
  249MOL0     C34266  12.733   3.240  11.427 -0.1816  0.2187 -0.1126
  249MOL0     C34267  12.804   3.368  11.477 -0.5430 -0.1639  0.0819
  249MOL0     C34268  12.861   3.347  11.622 -0.6444  0.1797  0.1880
  249MOL0    Cl34269  12.731   3.302  11.746  0.0581  0.1290 -0.1510
  249MOL0     C34270  12.563   2.629  10.900  0.5230 -0.3301 -0.2068
  249MOL0     C34271  12.550   2.550  10.779 -1.1288  1.2238 -1.3779
  249MOL0     O34272  12.710   2.475  10.476 -0.0184  0.5908 -0.1784
  249MOL0     C34273  12.375   2.431  10.353  0.6161 -0.3988  0.4069
  249MOL0     C34274  12.289   2.358  10.271 -0.6352  0.3401  0.8531
  249MOL0     N34275  12.189   2.264   9.501  0.0251  0.9628 -0.2121
  249MOL0     N34276  12.147   2.375   9.443  0.3280  0.0472 -0.4498
  249MOL0     C34277  11.178   2.619   9.079  1.0004  0.6404  0.2260
  249MOL0     C34278  11.038   2.643   9.071  1.5956 -0.5587  0.4364
  249MOL0     C34279  10.625   2.771   9.221 -0.5702 -0.5796  0.3672
  249MOL0     C34280  10.531   2.677   9.257  1.1679  0.1814 -0.2610
  249MOL0     C34281  10.399   2.716   9.285 -0.3603 -0.4069 -0.3317
  249MOL0     C34282  10.370   2.842   9.300  0.5309  0.6099 -0.4751
  249MOL0     O34283  10.241   2.883   9.335 -0.8119 -0.3863  0.1438
  249MOL0     C34284  10.221   2.942   9.472 -0.6473 -0.6879 -0.9446
  249MOL0     C34285  10.300   3.075   9.500 -0.4897  0.0353  0.8354
  249MOL0     C34286  10.243   3.137   9.637 -0.8648 -0.5830 -0.7352
  249MOL0     C34287  10.335   3.261   9.677  0.6500  0.4845 -0.1070
  249MOL0     C34288  10.386   3.345   9.570  0.7242 -0.1933 -0.1411
  249MOL0     C34289  10.400   3.421   9.477 -0.7797  0.7516 -0.9192
  249MOL0     C34290  10.466   2.939   9.269  0.7975 -0.6685  0.4889
  249MOL0     C34291  10.592   2.905   9.238 -0.0490  0.2882  1.2518
  249MOL0     C34292  10.690   3.018   9.207  0.1725 -0.3875  0.4401
  249MOL0     H34293  11.051   2.968   9.184 -2.8645 -1.4470  0.2355
  249MOL0     H34294  11.307   2.903   9.179  0.4232 -0.8696  0.7075
  249MOL0     H34295  11.483   2.610   9.275 -3.5864  0.3897  1.8464
  249MOL0     H34296  11.481   2.796   9.242  0.7984 -0.0682  0.5743
  249MOL0     H34297  11.628   2.584   9.080  1.4680 -1.8928  1.6950
  249MOL0     H34298  11.660   2.762   9.084 -0.3484  0.5690  0.7988
  249MOL0     H34299  11.730   2.737   9.322 -3.0955 -3.2211  2.5650
  249MOL0     H34300  11.748   2.565   9.301  0.1373 -1.5342 -2.4789
  249MOL0     H34301  11.882   2.647   9.077 -1.5312  0.9372  0.6374
  249MOL0     H34302  11.877   2.798   9.171 -3.0489  0.0751  1.6481
  249MOL0     H34303  12.085   2.691   9.201 -1.0881  0.9490 -0.2388
  249MOL0     H34304  12.014   2.533   9.244 -0.1024  0.2123 -0.5290
  249MOL0     H34305  11.953   2.778   9.420 -1.0057 -1.0231  0.6467
  249MOL0     H34306  11.950   2.610   9.463  0.3097 -0.7240 -0.7787
  249MOL0     H34307  12.142   2.741   9.555 -3.7225  0.4773 -0.2810
  249MOL0     H34308  12.173   2.812   9.395  1.5626  0.2848  0.0918
  249MOL0     H34309  12.252   2.588   9.314  2.3639 -3.6651  0.6845
  249MOL0     H34310  12.356   2.637   9.440  2.1078 -3.0675 -3.6342
  249MOL0     H34311  12.414   2.469   9.605 -1.8112  1.9355  1.3332
  249MOL0     H34312  12.486   2.193   9.655  0.3568 -0.5797 -2.4307
  249MOL0     H34313  12.366   2.088   9.630 -0.7303  0.0519  1.7649
  249MOL0     H34314  12.306   2.306   9.842  1.9511 -0.2957 -0.8879
  249MOL0     H34315  12.215   2.158   9.804 -0.4557 -0.9893  0.4269
  249MOL0     H34316  12.438   2.035   9.843  1.6023 -1.7581  2.1590
  249MOL0     H34317  12.494   2.178   9.937  0.2335  0.3310 -2.8700
  249MOL0     H34318  12.232   2.025   9.983 -0.2520  0.9286 -0.2479
  249MOL0     H34319  12.384   2.001  10.078 -3.5019 -2.7967 -0.8837
  249MOL0     H34320  12.523   2.142  10.143  1.9391 -1.4707  2.2871
  249MOL0     H34321  12.783   2.313  10.335 -0.7315  0.7093 -0.3504
  249MOL0     H34322  12.747   2.167  10.249 -2.3333 -0.1950 -0.7981
  249MOL0     H34323  12.711   2.182  10.419  3.7692 -0.9916 -0.1647
  249MOL0     H34324  12.598   2.799  10.555 -0.0817  1.4587  1.8319
  249MOL0     H34325  12.621   2.943  10.755 -0.8817 -0.1878  1.3388
  249MOL0     H34326  12.392   2.826  11.014  0.6407 -0.1924  0.1543
  249MOL0     H34327  12.468   2.801  11.173 -0.5486  0.0673  0.4902
  249MOL0     H34328  12.438   3.056  11.033 -1.3197  0.6575 -0.1074
  249MOL0     H34329  12.376   3.022  11.191  1.2157 -1.2419  1.4531
  249MOL0     H34330  12.668   3.048  11.123 -0.5101  2.0288  1.3801
  249MOL0     H34331  12.620   2.984  11.280 -0.5064  0.1376  1.2596
  249MOL0     H34332  12.482   3.189  11.329 -0.5948 -0.7610 -0.8865
  249MOL0     H34333  12.501   3.247  11.167  0.3815  3.4225  1.4447
  249MOL0     H34334  12.753   3.261  11.211  0.3437 -0.2797  0.2874
  249MOL0     H34335  12.648   3.373  11.293 -1.2461 -0.5061 -1.6054
  249MOL0     H34336  12.805   3.157  11.426 -0.0959  0.2847 -1.5322
  249MOL0     H34337  12.657   3.213  11.501  1.7146 -0.5503  1.6665
  249MOL0     H34338  12.731   3.450  11.469 -1.9366 -1.1819  1.6505
  249MOL0     H34339  12.892   3.386  11.414  0.2051  0.2105  1.2069
  249MOL0     H34340  12.915   3.434  11.659  4.9011 -2.8874  0.4255
  249MOL0     H34341  12.927   3.260  11.620 -1.4110 -0.4133 -0.2795
  249MOL0     H34342  12.567   2.582  10.998  4.2682 -0.6278 -0.3264
  249MOL0     H34343  12.523   2.445  10.786  0.4644  0.8018 -1.2501
  249MOL0     H34344  12.334   2.525  10.390 -1.5376 -0.8676 -0.5953
  249MOL0     H34345  12.184   2.377  10.251 -0.0602  1.3968 -1.4659
  249MOL0     H34346  11.209   2.526   9.032 -2.3619 -0.6385  0.2600
  249MOL0     H34347  10.982   2.550   9.067 -0.1224  0.4408  0.1294
  249MOL0     H34348  10.544   2.569   9.261 -0.6617 -0.0441  2.3531
  249MOL0     H34349  10.327   2.637   9.301  1.2378 -2.1956 -1.5321
  249MOL0     H34350  10.115   2.969   9.481 -0.6419 -1.1943  0.9460
  249MOL0     H34351  10.255   2.869   9.545  0.9543  1.4919  0.6483
  249MOL0     H34352  10.288   3.150   9.422  0.8298  0.0979  0.6707
  249MOL0     H34353  10.404   3.044   9.512 -1.0824 -2.6320 -0.3114
  249MOL0     H34354  10.139   3.170   9.633 -0.2512  1.5130 -4.5103
  249MOL0     H34355  10.245   3.059   9.713 -3.0806  0.9435  1.0135
  249MOL0     H34356  10.421   3.229   9.737  0.1887  1.5646  1.1684
  249MOL0     H34357  10.266   3.324   9.734  1.0539  2.4182 -1.6648
  249MOL0     H34358  10.419   3.499   9.407  2.4613  1.9403  1.0486
  249MOL0     H34359  10.438   3.044   9.271 -1.0368 -1.1052 -0.3145
  249MOL0     H34360  10.772   3.019   9.280  0.1787  0.8348  0.4382
  249MOL0     H34361  10.726   3.014   9.104 -0.0845  0.3017  0.3157
  249MOL0     H34362  10.645   3.117   9.207 -0.9774 -0.7995  3.7373
  250MOL0     O34363   1.012   3.569   3.820  0.5074 -0.2866  0.6706
  250MOL0     C34364   0.994   3.689   3.797 -0.0081 -0.0468 -0.1230
  250MOL0     O34365   0.916   3.735   3.699  0.0427 -0.7806 -0.1205
  250MOL0     C34366   0.867   3.662   3.600 -0.1913  0.9868  1.0531
  250MOL0     C34367   0.916   3.542   3.543  0.3876  0.1461  0.0187
  250MOL0     C34368   0.829   3.476   3.456 -0.7427 -0.3691  0.3954
  250MOL0     C34369   0.695   3.516   3.429  0.3010  1.0225  0.7436
  250MOL0     O34370   0.622   3.422   3.349  0.0223  0.6641 -0.3174
  250MOL0     C34371   0.533   3.479   3.254 -0.1084  0.0075  0.0648
  250MOL0     C34372   0.434   3.385   3.187  1.0056 -0.9194 -0.1695
  250MOL0     C34373   0.346   3.472   3.093 -0.4193  0.6519  0.2762
  250MOL0     C34374   0.227   3.540   3.167 -0.1523 -0.1111  0.1303
  250MOL0     C34375   0.148   3.615   3.056  0.1221 -0.3434 -0.5499
  250MOL0     C34376   0.036   3.692   3.130 -0.0329  0.9054 -0.4847
  250MOL0     C34377  -0.031   3.780   3.025 -0.6498  0.4218  0.0857
  250MOL0     C34378  -0.172   3.729   2.984  0.4710  0.0087  0.1446
  250MOL0     N34379  -0.219   3.822   2.877  0.1431 -0.5553  0.2146
  250MOL0     C34380  -0.178   3.833   2.743  0.6386  0.6364  0.3825
  250MOL0     C34381  -0.251   3.934   2.688 -0.3555  0.2914  0.0470
  250MOL0     C34382  -0.241   3.993   2.554  0.0258 -0.0886 -0.1770
  250MOL0     C34383  -0.374   4.025   2.476  0.9995  0.3821 -0.4919
  250MOL0     C34384  -0.381   4.056   2.324 -1.0438  0.4015 -0.2223
  250MOL0     C34385  -0.519   4.047   2.268  0.9832  0.3141  0.3193
  250MOL0     O34386  -0.614   4.106   2.359 -0.0829 -0.5036  0.5072
  250MOL0     C34387  -0.731   4.170   2.320 -1.0004 -0.3225 -0.4396
  250MOL0     C34388  -0.790   4.258   2.414  0.0924 -0.2816  0.2573
  250MOL0     C34389  -0.894   4.345   2.387 -0.1252 -0.6957 -0.5080
  250MOL0     C34390  -0.933   4.439   2.501 -0.2581  0.1422 -0.1034
  250MOL0     C34391  -0.945   4.347   2.248  0.4650 -0.9906  0.0617
  250MOL0     C34392  -1.043   4.451   2.202 -1.3199  0.2132  0.1794
  250MOL0     O34393  -1.084   4.433   2.078  0.1467  0.5365  0.4029
  250MOL0     C34394  -1.175   4.534   2.043 -1.0506  0.2459  0.2220
  250MOL0     C34395  -1.125   4.651   1.972  0.9902  0.4802  0.5551
  250MOL0     C34396  -1.216   4.757   1.949 -0.3541 -0.7569  0.4257
  250MOL0     C34397  -1.355   4.742   1.962 -1.2911 -0.9008 -0.6335
  250MOL0     O34398  -1.450   4.834   1.936  0.0841  0.8845  0.1203
  250MOL0     C34399  -1.416   4.969   1.886 -0.3980 -0.2248  0.5001
  250MOL0     C34400  -1.410   4.984   1.730 -0.3409  0.6190 -0.6244
  250MOL0     C34401  -1.408   5.137   1.700  0.5228 -0.1907 -0.6356
  250MOL0     C34402  -1.284   5.192   1.755  0.1668 -0.1311 -0.7790
  250MOL0     C34403  -1.260   5.332   1.725 -0.5269  0.4567  0.5859
  250MOL0     C34404  -1.230   5.353   1.581  0.1576  0.3330 -0.4107
  250MOL0     C34405  -1.264   5.494   1.532 -0.2964 -0.5497  0.0798
  250MOL0     C34406  -1.149   5.559   1.440  0.4087  0.3540 -0.7536
  250MOL0    Cl34407  -1.013   5.595   1.544 -0.1664 -0.0245 -0.1070
  250MOL0     C34408  -1.402   4.622   2.026  0.4933 -0.6201 -0.3769
  250MOL0     C34409  -1.310   4.526   2.063 -0.3348  0.0753 -0.0020
  250MOL0     O34410  -1.075   4.542   2.277 -0.6891  0.4110 -0.5771
  250MOL0     C34411  -0.883   4.262   2.160 -0.4975  0.1944 -0.2526
  250MOL0     C34412  -0.785   4.172   2.190 -0.3848 -0.2316  0.1462
  250MOL0     N34413  -0.328   3.982   2.788 -0.3596  0.0452 -0.5528
  250MOL0     N34414  -0.313   3.917   2.899 -1.1260 -0.1122  0.3398
  250MOL0     C34415   0.645   3.626   3.488  0.4701 -0.4243  0.3900
  250MOL0     C34416   0.734   3.705   3.565  0.0266  0.4011 -0.4298
  250MOL0     C34417   1.054   3.785   3.888 -0.6710 -0.4339  0.0968
  250MOL0     C34418   1.138   3.871   3.823 -0.9463  0.5983  0.0784
  250MOL0     C34419   1.204   3.969   3.895 -0.4532  0.9321 -0.0590
  250MOL0     C34420   1.188   3.995   4.031 -0.2748  0.0676  0.0476
  250MOL0     O34421   1.262   4.091   4.095 -0.1641 -0.6822 -0.9812
  250MOL0     C34422   1.189   4.201   4.146  0.3167  0.0244 -0.1311
  250MOL0     C34423   1.271   4.328   4.133 -0.4195  0.0281 -0.3180
  250MOL0     C34424   1.298   4.347   3.981  0.1377 -0.0944  0.1752
  250MOL0     C34425   1.355   4.490   3.963  0.1185 -0.4520  0.4788
  250MOL0     C34426   1.306   4.545   3.835 -0.1119  0.0473  0.3508
  250MOL0     C34427   1.252   4.586   3.732 -0.9604  0.3121 -0.3940
  250MOL0     C34428   1.091   3.915   4.105 -0.5227  0.1683 -0.1005
  250MOL0     C34429   1.028   3.809   4.028  0.4895  0.0261 -0.5227
  250MOL0     C34430   0.939   3.713   4.104 -0.0371 -0.9869 -0.6400
  250MOL0     H34431   1.011   3.495   3.568  0.0340 -0.2218  0.6795
  250MOL0     H34432   0.856   3.383   3.407 -1.3478 -0.4692  0.2493
  250MOL0     H34433   0.600   3.522   3.180  0.9201 -1.0798  0.3428
  250MOL0     H34434   0.473   3.559   3.301 -0.6996  0.0117 -0.6841
  250MOL0     H34435   0.490   3.308   3.133 -0.0543 -1.8183 -0.0175
  250MOL0     H34436   0.380   3.335   3.268  1.1996 -0.5548  0.1850
  250MOL0     H34437   0.406   3.553   3.050  2.0320 -0.2074  1.8564
  250MOL0     H34438   0.311   3.410   3.010  0.2438  0.5509  0.0669
  250MOL0     H34439   0.167   3.463   3.215  1.7147 -0.0461  2.7928
  250MOL0     H34440   0.259   3.608   3.247  0.0719  1.1648 -1.0113
  250MOL0     H34441   0.108   3.535   2.992  0.5642 -2.2722  1.4645
  250MOL0     H34442   0.214   3.687   3.008 -2.4261  2.9731  0.5382
  250MOL0     H34443  -0.041   3.629   3.175  0.2300  1.0319  0.1473
  250MOL0     H34444   0.078   3.766   3.199  1.3512 -1.2284  1.1087
  250MOL0     H34445   0.039   3.799   2.943 -0.8543  0.6801 -0.0314
  250MOL0     H34446  -0.043   3.877   3.074  1.5903  0.3689  0.8166
  250MOL0     H34447  -0.173   3.624   2.951 -0.3267 -0.3702  1.3004
  250MOL0     H34448  -0.242   3.726   3.068  0.2019 -1.3445 -0.1024
  250MOL0     H34449  -0.104   3.773   2.691 -1.5406  1.1772 -3.7777
  250MOL0     H34450  -0.180   3.933   2.485  1.7402  2.5990 -1.1583
  250MOL0     H34451  -0.186   4.088   2.559 -3.2385  2.0596 -1.8627
  250MOL0     H34452  -0.439   3.941   2.499 -0.8873  1.4102 -1.8253
  250MOL0     H34453  -0.418   4.111   2.528 -1.6695 -0.9596 -0.3651
  250MOL0     H34454  -0.356   4.157   2.293  0.0021 -0.6899 -3.2376
  250MOL0     H34455  -0.312   3.991   2.270  0.5611  0.4988  1.5984
  250MOL0     H34456  -0.513   4.094   2.169  2.4007 -0.0262  0.2184
  250MOL0     H34457  -0.550   3.943   2.264 -0.1810  0.6163  0.9779
  250MOL0     H34458  -0.756   4.245   2.516 -3.3229  0.4268  1.6056
  250MOL0     H34459  -0.909   4.401   2.601 -1.6372  0.6647  0.4519
  250MOL0     H34460  -1.036   4.474   2.511 -1.7744 -3.9091  0.5412
  250MOL0     H34461  -0.864   4.524   2.490 -2.7184  1.9635 -3.2498
  250MOL0     H34462  -1.018   4.661   1.957  0.8127  2.3594  0.3906
  250MOL0     H34463  -1.170   4.848   1.912  2.4476 -1.6874  1.3612
  250MOL0     H34464  -1.490   5.033   1.934 -1.0347 -0.4849 -0.1197
  250MOL0     H34465  -1.322   5.004   1.930 -0.5963 -0.0569  0.7943
  250MOL0     H34466  -1.319   4.933   1.697  0.4846  3.4330 -3.1919
  250MOL0     H34467  -1.491   4.930   1.678  1.1392 -1.7743 -0.5973
  250MOL0     H34468  -1.497   5.179   1.748  1.1601  1.7231 -1.0475
  250MOL0     H34469  -1.410   5.137   1.590  0.4669 -1.8000 -0.6626
  250MOL0     H34470  -1.202   5.127   1.723 -2.2057 -4.1880  0.5502
  250MOL0     H34471  -1.274   5.197   1.864 -4.4469  1.6125 -0.2210
  250MOL0     H34472  -1.345   5.396   1.750 -0.8831 -0.0184  0.6099
  250MOL0     H34473  -1.183   5.380   1.786 -1.9121  2.2456  1.0296
  250MOL0     H34474  -1.267   5.278   1.511  2.6024 -3.4051  1.9827
  250MOL0     H34475  -1.122   5.336   1.578  0.3907  0.2623  3.6315
  250MOL0     H34476  -1.289   5.566   1.610 -0.3196  2.2874 -2.3782
  250MOL0     H34477  -1.359   5.479   1.480 -1.9588  1.4075  2.3236
  250MOL0     H34478  -1.198   5.648   1.400 -1.3731 -0.7951 -1.2764
  250MOL0     H34479  -1.127   5.497   1.352 -0.8376  0.1755 -0.9605
  250MOL0     H34480  -1.504   4.625   2.062  0.7944 -1.5195  0.6092
  250MOL0     H34481  -1.341   4.436   2.115  0.2568 -0.9869 -1.4342
  250MOL0     H34482  -0.921   4.264   2.058  0.3647  0.5396 -0.5794
  250MOL0     H34483  -0.738   4.118   2.108  2.6757  0.9307  0.9802
  250MOL0     H34484   0.542   3.661   3.482  0.1720 -1.5071 -2.3448
  250MOL0     H34485   0.707   3.798   3.612  2.8149  2.1478 -1.9691
  250MOL0     H34486   1.152   3.874   3.715 -0.8671  1.2965  0.0977
  250MOL0     H34487   1.261   4.045   3.844 -0.4918  0.1400 -1.3232
  250MOL0     H34488   1.092   4.202   4.096  0.3215 -1.3095 -0.2027
  250MOL0     H34489   1.178   4.164   4.249  0.5474 -2.5314 -0.9577
  250MOL0     H34490   1.364   4.326   4.191  0.6753  1.5321 -1.9263
  250MOL0     H34491   1.218   4.419   4.163  0.7072  0.2477  1.0933
  250MOL0     H34492   1.364   4.266   3.947 -0.5956 -0.5894 -0.0918
  250MOL0     H34493   1.203   4.339   3.927  0.5420  0.1450 -0.5759
  250MOL0     H34494   1.463   4.471   3.952  0.0587 -0.0638 -1.0043
  250MOL0     H34495   1.338   4.552   4.051  1.8774 -2.6959  2.5446
  250MOL0     H34496   1.208   4.636   3.648  0.6071  2.7189  0.1436
  250MOL0     H34497   1.068   3.938   4.208  2.5916  0.0801  0.7115
  250MOL0     H34498   0.891   3.767   4.185 -1.9590 -0.2997 -2.1615
  250MOL0     H34499   0.868   3.665   4.036 -2.1450  1.0807 -0.0137
  250MOL0     H34500   0.994   3.639   4.163  2.9795  2.8153  1.8223
  251MOL0     O34501   4.172  10.463   2.809 -0.7397 -0.9900  0.3184
  251MOL0     C34502   4.063  10.510   2.814 -0.0524  0.3767 -0.4873
  251MOL0     O34503   3.955  10.453   2.882  0.0621 -0.2681  0.5177
  251MOL0     C34504   3.967  10.365   2.987  0.9006  0.8564 -0.0844
  251MOL0     C34505   4.076  10.298   3.036  0.2036  0.7634 -0.1731
  251MOL0     C34506   4.069  10.212   3.147  0.1663  0.2858 -0.2540
  251MOL0     C34507   3.949  10.189   3.211  0.3329 -0.7286  0.9245
  251MOL0     O34508   3.952  10.099   3.311 -0.3156  0.0433 -0.6614
  251MOL0     C34509   3.820  10.064   3.367 -0.0658 -0.0104 -0.5359
  251MOL0     C34510   3.832   9.959   3.483 -0.3433 -1.0197  0.2175
  251MOL0     C34511   3.780  10.011   3.618  0.2504 -0.6464  0.0929
  251MOL0     C34512   3.875  10.115   3.684  0.7374  0.4524  1.1233
  251MOL0     C34513   3.837  10.174   3.816  0.1992  0.2450  0.1611
  251MOL0     C34514   3.969  10.171   3.894 -0.4227  0.7438  0.6724
  251MOL0     C34515   3.958  10.247   4.028 -0.6245  0.1715  0.6674
  251MOL0     C34516   4.045  10.370   4.031  0.2827 -0.0716  0.3629
  251MOL0     N34517   4.001  10.478   3.933  0.3351  0.5295  0.5908
  251MOL0     C34518   4.031  10.482   3.800 -0.2027 -0.1242  1.5961
  251MOL0     C34519   3.934  10.557   3.746  0.3679 -0.4059  0.6694
  251MOL0     C34520   3.921  10.596   3.598 -1.0663  0.0542  0.4528
  251MOL0     C34521   4.052  10.611   3.516  0.0488  0.0457 -0.0877
  251MOL0     C34522   4.083  10.480   3.448 -0.0060 -0.3478  0.5060
  251MOL0     C34523   4.216  10.485   3.387  0.1306 -1.1752  0.2051
  251MOL0     O34524   4.319  10.500   3.489  0.6242  0.5208 -0.3071
  251MOL0     C34525   4.327  10.409   3.592 -0.9743 -0.0569  0.2621
  251MOL0     C34526   4.381  10.459   3.713  0.1537  1.0613 -0.7081
  251MOL0     C34527   4.402  10.381   3.827  1.0810  0.6473 -0.2912
  251MOL0     C34528   4.447  10.455   3.949  0.2577 -0.0710 -0.8168
  251MOL0     C34529   4.378  10.242   3.821  0.0105  0.2815  0.0335
  251MOL0     C34530   4.413  10.143   3.929 -0.0671  0.3011 -0.8016
  251MOL0     O34531   4.472  10.190   4.042  0.6191  0.0697 -0.4602
  251MOL0     C34532   4.477  10.110   4.155 -0.7772 -0.0907 -0.0206
  251MOL0     C34533   4.603  10.082   4.220  0.0860 -0.0419  0.2672
  251MOL0     C34534   4.618  10.022   4.343  0.3610 -0.0508 -0.4002
  251MOL0     C34535   4.498  10.002   4.415  0.0230 -0.1506 -0.5133
  251MOL0     O34536   4.493   9.948   4.540  0.1657 -0.4244  0.4935
  251MOL0     C34537   4.609   9.932   4.617 -0.5889 -0.5253  0.0264
  251MOL0     C34538   4.646  10.063   4.706  0.4371 -0.9128  0.8446
  251MOL0     C34539   4.543  10.085   4.818  0.0471  0.4886  0.7465
  251MOL0     C34540   4.556  10.214   4.893  0.0221 -0.5768 -0.7356
  251MOL0     C34541   4.515  10.207   5.045  0.7295 -0.2177 -0.2325
  251MOL0     C34542   4.358  10.196   5.053 -0.3731  0.5265 -1.0941
  251MOL0     C34543   4.300  10.154   5.192 -0.0221 -0.7517  0.4857
  251MOL0     C34544   4.137  10.151   5.191  0.2533 -0.5537  1.1246
  251MOL0    Cl34545   4.072  10.313   5.169 -0.4529 -1.0470 -0.0378
  251MOL0     C34546   4.377  10.038   4.360  0.1568 -0.6211 -0.0879
  251MOL0     C34547   4.370  10.090   4.234 -0.2360 -0.0598  0.4811
  251MOL0     O34548   4.397  10.026   3.903  0.6018  0.0944  0.6458
  251MOL0     C34549   4.316  10.194   3.704 -0.7213 -0.4010  1.0156
  251MOL0     C34550   4.296  10.275   3.589 -0.6877 -0.9618  0.0802
  251MOL0     N34551   3.857  10.618   3.846 -0.1356  0.8349 -0.4447
  251MOL0     N34552   3.896  10.560   3.960  0.5747 -0.3584  0.7611
  251MOL0     C34553   3.837  10.246   3.156 -0.1920 -0.2615 -0.8987
  251MOL0     C34554   3.846  10.338   3.048 -0.2868  0.1615 -0.2998
  251MOL0     C34555   4.033  10.631   2.738 -0.2265  0.7753 -0.8108
  251MOL0     C34556   3.900  10.681   2.744 -0.0960  0.0591 -0.2970
  251MOL0     C34557   3.873  10.805   2.690 -0.0419 -0.8497 -0.5051
  251MOL0     C34558   3.965  10.893   2.628 -0.7857  0.7845  0.6460
  251MOL0     O34559   3.921  11.019   2.589 -0.0971  0.0350 -0.6085
  251MOL0     C34560   3.995  11.126   2.535  0.0784 -0.3901  0.7544
  251MOL0     C34561   4.023  11.093   2.392 -1.0147  0.0746  0.3032
  251MOL0     C34562   4.132  11.174   2.341  0.0502 -0.5409  0.0875
  251MOL0     C34563   4.279  11.120   2.368  0.4323 -0.2550 -0.3295
  251MOL0     C34564   4.298  10.988   2.315  0.0307 -0.0923 -0.3802
  251MOL0     C34565   4.319  10.880   2.269  1.1734  0.5374 -0.6794
  251MOL0     C34566   4.097  10.845   2.618 -0.0676  0.2164 -0.1874
  251MOL0     C34567   4.133  10.712   2.674 -0.5127  0.3156  0.7569
  251MOL0     C34568   4.281  10.677   2.642  0.1934 -0.2460 -0.1030
  251MOL0     H34569   4.166  10.296   2.975  0.2480  2.5944 -0.2284
  251MOL0     H34570   4.156  10.152   3.173  0.0917 -0.4887 -1.7138
  251MOL0     H34571   3.763  10.012   3.289  0.9549  0.0202 -1.3253
  251MOL0     H34572   3.761  10.150   3.400  0.4512 -0.0899  0.6309
  251MOL0     H34573   3.759   9.881   3.459 -3.3725  1.5841  0.2718
  251MOL0     H34574   3.935   9.923   3.481  0.3141  0.7636 -0.9185
  251MOL0     H34575   3.688  10.066   3.598 -1.4657 -3.1815  0.5698
  251MOL0     H34576   3.754   9.925   3.681 -1.6776  0.1733  0.4740
  251MOL0     H34577   3.971  10.062   3.685  1.6699  1.5354 -3.9747
  251MOL0     H34578   3.891  10.192   3.608  0.0499  0.8698  1.3948
  251MOL0     H34579   3.752  10.119   3.857  0.0751 -1.3750 -2.0943
  251MOL0     H34580   3.799  10.275   3.796 -1.6971 -0.5002 -0.1697
  251MOL0     H34581   3.994  10.069   3.923 -2.3118 -0.6229 -2.0806
  251MOL0     H34582   4.051  10.216   3.838  0.3548  1.1038  2.0716
  251MOL0     H34583   3.990  10.171   4.100 -0.6945  1.1134  1.7068
  251MOL0     H34584   3.853  10.277   4.038 -0.1245  1.7526  1.4783
  251MOL0     H34585   4.044  10.407   4.134 -4.7414 -1.5114  1.0720
  251MOL0     H34586   4.149  10.343   4.006  0.7205 -0.7591  2.6463
  251MOL0     H34587   4.105  10.415   3.757  1.3784  2.7549 -0.4829
  251MOL0     H34588   3.868  10.692   3.602  0.7682  1.1564 -0.7917
  251MOL0     H34589   3.862  10.514   3.555 -3.5612  0.7956  2.2134
  251MOL0     H34590   4.036  10.696   3.449  0.6602  0.3450  0.1447
  251MOL0     H34591   4.129  10.647   3.585 -2.1449  1.8505  1.5876
  251MOL0     H34592   4.064  10.392   3.509 -3.0663 -0.6314 -0.6645
  251MOL0     H34593   4.014  10.471   3.363  0.2537 -0.0662  0.2615
  251MOL0     H34594   4.219  10.389   3.334  1.6933 -1.1107  0.1208
  251MOL0     H34595   4.218  10.571   3.319  0.2317  1.1591  2.9776
  251MOL0     H34596   4.412  10.563   3.713  1.9406  0.5732 -1.9654
  251MOL0     H34597   4.451  10.561   3.924 -4.1745  0.4808 -0.0009
  251MOL0     H34598   4.538  10.412   3.991  0.4552 -0.0504 -1.2198
  251MOL0     H34599   4.370  10.456   4.027  1.1902 -3.0200  0.2903
  251MOL0     H34600   4.690  10.124   4.171  0.3734  2.4749  2.6814
  251MOL0     H34601   4.722  10.007   4.371  1.1505  3.4635 -0.9396
  251MOL0     H34602   4.589   9.852   4.688  0.2773 -0.3644  0.4686
  251MOL0     H34603   4.700   9.920   4.558 -1.6481  1.2049 -2.1170
  251MOL0     H34604   4.747  10.048   4.746  0.6886  0.7927  0.9505
  251MOL0     H34605   4.658  10.152   4.642  0.5538 -3.0227 -2.2916
  251MOL0     H34606   4.549   9.991   4.874 -0.1125 -2.0771 -3.1384
  251MOL0     H34607   4.447  10.077   4.767 -0.1459 -2.0386  1.3773
  251MOL0     H34608   4.503  10.292   4.837  1.1084 -1.0019 -2.4518
  251MOL0     H34609   4.660  10.247   4.900  0.1797 -1.0735 -0.6621
  251MOL0     H34610   4.545  10.104   5.071  1.3314  0.0894  0.3187
  251MOL0     H34611   4.550  10.282   5.116 -0.0363 -0.9829  1.0099
  251MOL0     H34612   4.330  10.111   4.989 -0.7327  0.8756 -1.4049
  251MOL0     H34613   4.306  10.286   5.021 -0.4827  0.5170 -0.9438
  251MOL0     H34614   4.345  10.207   5.277 -1.8564  1.3133  0.2584
  251MOL0     H34615   4.330  10.049   5.201  1.0948 -0.7794 -2.4752
  251MOL0     H34616   4.094  10.123   5.288  1.2936 -1.6531  1.2969
  251MOL0     H34617   4.106  10.083   5.111 -1.8021  1.0845  0.4445
  251MOL0     H34618   4.286  10.025   4.418 -1.8087  1.0220 -2.5489
  251MOL0     H34619   4.274  10.122   4.195  0.0921 -0.5788 -0.8301
  251MOL0     H34620   4.284  10.091   3.694 -1.5391 -0.1662  1.0594
  251MOL0     H34621   4.261  10.228   3.497 -2.5521 -1.6684  1.0974
  251MOL0     H34622   3.740  10.224   3.201 -0.4023  2.6162  0.2704
  251MOL0     H34623   3.748  10.375   3.023  0.0408  2.4456  1.4543
  251MOL0     H34624   3.822  10.617   2.784 -0.2395  1.0226  1.0298
  251MOL0     H34625   3.776  10.847   2.711  0.1440 -0.9064  0.5556
  251MOL0     H34626   3.946  11.224   2.543  2.2032  0.7891  0.2034
  251MOL0     H34627   4.084  11.142   2.597 -1.8833  1.4189  3.3411
  251MOL0     H34628   3.943  11.106   2.318  0.4201  0.1898 -1.2739
  251MOL0     H34629   4.044  10.988   2.371 -1.0237  0.2260 -0.5025
  251MOL0     H34630   4.116  11.183   2.233 -0.0545 -0.0727  0.1361
  251MOL0     H34631   4.128  11.277   2.379  1.6561 -0.7352  0.8988
  251MOL0     H34632   4.288  11.120   2.477  2.6786 -1.1461 -0.4525
  251MOL0     H34633   4.349  11.195   2.330  0.2369  0.2889  0.3653
  251MOL0     H34634   4.334  10.779   2.236 -0.4009 -0.6356  1.9430
  251MOL0     H34635   4.175  10.910   2.578  1.1690 -0.9041  0.3077
  251MOL0     H34636   4.329  10.751   2.577  2.9757 -0.7880  1.1967
  251MOL0     H34637   4.346  10.673   2.730 -0.1181  0.9503  0.1870
  251MOL0     H34638   4.279  10.578   2.595  0.3386 -1.1311  1.6723
  252MOL0     O34639   2.457   1.544   4.225  0.1832 -0.4371  0.3313
  252MOL0     C34640   2.463   1.606   4.118 -0.1182  0.1155 -0.4377
  252MOL0     O34641   2.384   1.713   4.078  0.2372 -0.9576 -0.5239
  252MOL0     C34642   2.287   1.761   4.163  0.8764 -0.5021 -0.1617
  252MOL0     C34643   2.186   1.673   4.210 -0.1129 -0.7836 -0.4274
  252MOL0     C34644   2.073   1.720   4.274  0.6177 -0.4794  0.3985
  252MOL0     C34645   2.056   1.854   4.299 -0.8923 -1.7919 -0.1917
  252MOL0     O34646   1.929   1.890   4.346  0.4351  0.1380 -0.1575
  252MOL0     C34647   1.906   2.012   4.402  0.8754  1.3128  0.3655
  252MOL0     C34648   1.759   2.051   4.385  0.1300 -0.2005 -0.3539
  252MOL0     C34649   1.653   1.958   4.448  0.3028  0.9293 -0.2755
  252MOL0     C34650   1.538   2.040   4.509  0.1829 -0.0849  0.1335
  252MOL0     C34651   1.436   1.960   4.593  0.2455 -0.6955 -0.6728
  252MOL0     C34652   1.308   2.048   4.616 -0.6887  0.7161 -0.5427
  252MOL0     C34653   1.315   2.108   4.757  0.9685 -0.6972  0.0587
  252MOL0     C34654   1.219   2.225   4.755  0.4048  0.9169  0.3554
  252MOL0     N34655   1.075   2.200   4.711 -0.9371 -0.0089  0.0583
  252MOL0     C34656   1.016   2.255   4.605  0.2885  0.6731  0.2460
  252MOL0     C34657   0.893   2.201   4.608  0.4932  0.9339  0.4115
  252MOL0     C34658   0.793   2.228   4.508  0.0452 -0.1925  0.6476
  252MOL0     C34659   0.660   2.255   4.563 -0.4973  0.0394  0.0568
  252MOL0     C34660   0.543   2.239   4.460  0.7651 -0.3163  0.0990
  252MOL0     C34661   0.514   2.088   4.446  0.9797 -0.9110  0.2660
  252MOL0     O34662   0.452   2.065   4.322 -0.2571  0.0844 -0.0953
  252MOL0     C34663   0.337   2.126   4.291  0.5781  0.1834  0.4134
  252MOL0     C34664   0.224   2.077   4.362  0.2481  0.6650  0.0800
  252MOL0     C34665   0.096   2.127   4.338  0.6737 -0.3978  0.2346
  252MOL0     C34666  -0.031   2.083   4.413 -0.5663 -0.8534 -0.0955
  252MOL0     C34667   0.080   2.218   4.227 -0.5131 -0.5864 -0.7160
  252MOL0     C34668  -0.048   2.268   4.184 -0.1285  0.5493  0.0605
  252MOL0     O34669  -0.150   2.188   4.154  0.4369  0.0644  0.0625
  252MOL0     C34670  -0.280   2.227   4.127  0.7929  0.5971 -0.0319
  252MOL0     C34671  -0.389   2.149   4.168 -0.1327  0.2010 -0.4095
  252MOL0     C34672  -0.520   2.165   4.114  0.0137 -0.6010  0.3865
  252MOL0     C34673  -0.541   2.272   4.020 -0.0506 -0.1392  0.2424
  252MOL0     O34674  -0.659   2.288   3.953  0.4403 -0.8927 -0.4255
  252MOL0     C34675  -0.754   2.181   3.932  0.2061  0.1749 -0.3447
  252MOL0     C34676  -0.692   2.066   3.841  0.3170 -0.8141 -0.4888
  252MOL0     C34677  -0.805   1.977   3.770  0.3972  0.1177 -0.0359
  252MOL0     C34678  -0.901   1.906   3.857 -0.3214  0.5857 -0.2929
  252MOL0     C34679  -0.982   1.788   3.800  0.0699 -0.5535  0.7120
  252MOL0     C34680  -1.089   1.851   3.707 -0.3109 -0.5919 -0.9177
  252MOL0     C34681  -1.185   1.739   3.657 -1.2975 -0.6505 -0.7834
  252MOL0     C34682  -1.278   1.798   3.548  0.3726 -0.3480  0.1622
  252MOL0    Cl34683  -1.352   1.652   3.469 -0.0531  0.1300  0.1271
  252MOL0     C34684  -0.434   2.367   3.997  0.4786  0.3337  0.2480
  252MOL0     C34685  -0.306   2.338   4.045 -0.1745 -0.9980  0.0249
  252MOL0     O34686  -0.047   2.393   4.169 -0.5040  0.3185  0.1247
  252MOL0     C34687   0.191   2.267   4.158  0.8654 -0.5486 -0.0539
  252MOL0     C34688   0.322   2.223   4.189  0.5849 -0.0095  0.3402
  252MOL0     N34689   0.874   2.122   4.718  0.1522 -0.3990  0.6422
  252MOL0     N34690   0.982   2.131   4.788  0.5783 -0.0231  0.8981
  252MOL0     C34691   2.167   1.945   4.271 -0.1862  1.2834 -0.1181
  252MOL0     C34692   2.285   1.890   4.203 -0.0326 -0.5630  0.4244
  252MOL0     C34693   2.547   1.542   4.007 -0.1600  0.8778 -0.8890
  252MOL0     C34694   2.502   1.561   3.872  0.1353 -0.0261  0.0676
  252MOL0     C34695   2.561   1.494   3.773  0.2225  0.1717 -0.0831
  252MOL0     C34696   2.672   1.409   3.795  0.8318  0.0212 -0.0463
  252MOL0     O34697   2.737   1.346   3.689  0.0376  0.0962  0.3235
  252MOL0     C34698   2.867   1.296   3.705 -0.6132 -0.2858 -0.2222
  252MOL0     C34699   2.925   1.255   3.568 -0.4286 -0.3586 -0.6912
  252MOL0     C34700   3.023   1.130   3.589 -0.3930  0.4455  0.0855
  252MOL0     C34701   3.138   1.156   3.675 -0.2717 -0.7768  0.1466
  252MOL0     C34702   3.219   1.271   3.621  0.1779  0.7272 -0.4074
  252MOL0     C34703   3.284   1.367   3.591 -0.4468  0.0755  0.1924
  252MOL0     C34704   2.716   1.396   3.926 -1.3024 -0.1131  0.3818
  252MOL0     C34705   2.662   1.460   4.032  0.1897  1.0372  1.4051
  252MOL0     C34706   2.715   1.435   4.168 -0.0268  0.0298  0.9485
  252MOL0     H34707   2.198   1.568   4.185  0.7736 -1.1971  1.5365
  252MOL0     H34708   1.988   1.652   4.275  0.9315 -1.0213 -2.4517
  252MOL0     H34709   1.952   2.097   4.351  0.7011  1.3080  0.1996
  252MOL0     H34710   1.913   2.008   4.512 -1.4630  1.8003  0.5849
  252MOL0     H34711   1.743   2.152   4.423 -3.6054 -0.0355 -1.9353
  252MOL0     H34712   1.736   2.071   4.280 -0.9370  2.3498  0.2847
  252MOL0     H34713   1.635   1.875   4.379  2.6117  1.9277 -2.2020
  252MOL0     H34714   1.691   1.911   4.539 -0.5399  1.5441  0.4162
  252MOL0     H34715   1.573   2.119   4.576 -1.0606  2.0752 -1.6180
  252MOL0     H34716   1.492   2.092   4.425 -0.0781 -1.2118 -0.4467
  252MOL0     H34717   1.478   1.928   4.689 -2.4928  0.1023  0.9199
  252MOL0     H34718   1.401   1.872   4.538 -1.3794  0.3204 -1.3502
  252MOL0     H34719   1.304   2.114   4.529  1.0290  0.2037 -1.0550
  252MOL0     H34720   1.226   1.977   4.612 -0.6916  0.7577 -1.5507
  252MOL0     H34721   1.412   2.151   4.783  0.0974  1.8972 -0.6200
  252MOL0     H34722   1.277   2.045   4.838  1.3767  0.0255  0.8293
  252MOL0     H34723   1.208   2.277   4.851 -0.3106  1.4962 -0.0242
  252MOL0     H34724   1.274   2.295   4.691  0.9277 -1.4518 -1.9249
  252MOL0     H34725   1.054   2.334   4.541  1.5028  0.9339  1.2506
  252MOL0     H34726   0.768   2.138   4.452 -1.2294 -1.2949  2.8705
  252MOL0     H34727   0.826   2.311   4.444 -0.1850  1.4166  2.5088
  252MOL0     H34728   0.640   2.190   4.648 -0.8371 -0.3265 -0.3002
  252MOL0     H34729   0.663   2.354   4.609  1.0236 -0.4386  1.0479
  252MOL0     H34730   0.453   2.294   4.489 -0.2252 -1.9526  0.2745
  252MOL0     H34731   0.581   2.285   4.369 -2.1112  2.9118  0.3325
  252MOL0     H34732   0.607   2.030   4.453  0.0246 -2.5548 -0.2620
  252MOL0     H34733   0.447   2.055   4.525 -0.9182  4.0471  1.1028
  252MOL0     H34734   0.255   2.000   4.432  1.6845  0.7320 -0.4476
  252MOL0     H34735  -0.001   2.019   4.497 -3.5178 -1.0180  0.9682
  252MOL0     H34736  -0.081   2.019   4.339 -0.2430 -0.6561 -0.4869
  252MOL0     H34737  -0.110   2.153   4.442 -0.3100 -0.6069  0.0107
  252MOL0     H34738  -0.365   2.063   4.231 -1.3081 -0.4722 -0.8497
  252MOL0     H34739  -0.595   2.089   4.135 -0.0998 -0.6386 -0.1394
  252MOL0     H34740  -0.778   2.139   4.030  1.6146 -0.1263 -0.1128
  252MOL0     H34741  -0.837   2.220   3.873  0.1217  1.3351  0.4948
  252MOL0     H34742  -0.629   2.113   3.765  2.9516  0.9535  2.5533
  252MOL0     H34743  -0.621   2.007   3.900  0.9752  1.7873  1.5271
  252MOL0     H34744  -0.747   1.909   3.706  1.2874  0.0275  0.8382
  252MOL0     H34745  -0.859   2.037   3.697 -0.3286 -0.4533  0.0248
  252MOL0     H34746  -0.974   1.982   3.887 -3.0116 -2.1412  0.5783
  252MOL0     H34747  -0.846   1.863   3.942 -1.2221 -0.6688 -0.3205
  252MOL0     H34748  -0.912   1.729   3.739 -2.6032 -1.1340 -2.0668
  252MOL0     H34749  -1.021   1.720   3.877 -0.5937 -1.5680 -0.4700
  252MOL0     H34750  -1.043   1.903   3.622  1.9850 -0.7322  0.1585
  252MOL0     H34751  -1.138   1.931   3.763  2.7502 -0.2460  1.5542
  252MOL0     H34752  -1.239   1.694   3.740  0.9415 -5.1002 -1.4836
  252MOL0     H34753  -1.128   1.652   3.624  0.8580  0.3682  0.0361
  252MOL0     H34754  -1.217   1.858   3.479  1.9962  0.5565  2.2755
  252MOL0     H34755  -1.363   1.856   3.585  0.4423 -0.4976  0.5631
  252MOL0     H34756  -0.437   2.445   3.921  3.7077  2.3315  1.9384
  252MOL0     H34757  -0.215   2.383   4.007 -0.1170 -2.3562 -1.5945
  252MOL0     H34758   0.183   2.343   4.081  1.7393 -0.5650 -0.1733
  252MOL0     H34759   0.406   2.267   4.137 -0.4674  1.4263 -0.1914
  252MOL0     H34760   2.171   2.050   4.301 -0.5098  1.1260  0.4746
  252MOL0     H34761   2.373   1.950   4.179  0.0686 -0.8164  0.1628
  252MOL0     H34762   2.419   1.629   3.855 -0.4683 -1.2702 -2.2608
  252MOL0     H34763   2.526   1.512   3.671 -1.8255  1.1116  0.7313
  252MOL0     H34764   2.934   1.379   3.731 -0.1843 -0.1104 -1.7584
  252MOL0     H34765   2.859   1.214   3.777 -1.4382  0.3487  0.4182
  252MOL0     H34766   2.980   1.334   3.516 -0.7619  1.9795  2.2710
  252MOL0     H34767   2.846   1.226   3.498 -1.8228 -0.6059  0.9263
  252MOL0     H34768   2.973   1.038   3.622 -1.5813  0.3923 -1.7569
  252MOL0     H34769   3.057   1.102   3.489 -0.2225 -0.7776  0.4711
  252MOL0     H34770   3.192   1.062   3.690  0.8882 -0.1405  0.1311
  252MOL0     H34771   3.109   1.198   3.772 -0.8697 -0.7570 -0.0381
  252MOL0     H34772   3.360   1.443   3.581  1.7498 -2.1989 -2.1643
  252MOL0     H34773   2.812   1.353   3.951 -1.6917 -0.2630  1.6984
  252MOL0     H34774   2.645   1.370   4.221 -1.2927 -0.9101 -1.6667
  252MOL0     H34775   2.811   1.385   4.184 -0.0303  0.1796  1.4371
  252MOL0     H34776   2.724   1.533   4.214  0.9560  0.8178 -0.8180
  253MOL0     O34777   5.882   4.830   6.475 -0.4342  0.7461  0.1442
  253MOL0     C34778   5.783   4.803   6.412  0.6014 -0.3721 -0.4637
  253MOL0     O34779   5.748   4.682   6.380  0.4420 -1.2508 -0.0713
  253MOL0     C34780   5.845   4.602   6.317  0.0446 -0.2825 -0.3799
  253MOL0     C34781   5.947   4.642   6.241 -0.1573  0.0933  0.5264
  253MOL0     C34782   6.009   4.550   6.157 -0.2344  0.0754  1.2714
  253MOL0     C34783   5.972   4.413   6.152 -0.1326 -0.1199  0.3566
  253MOL0     O34784   6.036   4.322   6.088 -0.2267  0.5429 -0.1185
  253MOL0     C34785   6.126   4.360   5.974  0.7470 -0.0786 -0.3812
  253MOL0     C34786   6.160   4.232   5.907  0.0890  0.0042 -0.2049
  253MOL0     C34787   6.218   4.245   5.764 -0.7382  0.8366  0.0388
  253MOL0     C34788   6.368   4.255   5.739  0.5930  0.3881 -0.0421
  253MOL0     C34789   6.410   4.196   5.599 -0.0810 -0.3018  0.4360
  253MOL0     C34790   6.376   4.281   5.479  0.0576  0.0492  0.3247
  253MOL0     C34791   6.434   4.426   5.462  0.2354  0.6714  0.6593
  253MOL0     C34792   6.591   4.432   5.478  0.2209  0.0929 -0.0631
  253MOL0     N34793   6.647   4.570   5.483  0.2898  0.4996  0.3212
  253MOL0     C34794   6.605   4.676   5.547 -0.0360 -0.3444 -0.8558
  253MOL0     C34795   6.675   4.777   5.508  0.0308 -0.5396 -0.3716
  253MOL0     C34796   6.657   4.925   5.560  0.4628  0.9016  0.4311
  253MOL0     C34797   6.509   4.977   5.573 -0.3448 -0.0685  0.4939
  253MOL0     C34798   6.502   5.127   5.572 -0.9910 -0.4053 -0.3595
  253MOL0     C34799   6.359   5.181   5.578 -0.0651 -0.1196  0.2669
  253MOL0     O34800   6.304   5.144   5.708  0.1044  0.4703 -0.2937
  253MOL0     C34801   6.167   5.156   5.737  0.5013  0.6335 -0.7073
  253MOL0     C34802   6.141   5.141   5.873  0.9953  0.6915  1.1220
  253MOL0     C34803   6.016   5.158   5.922  0.4270 -0.6601  0.5712
  253MOL0     C34804   5.995   5.150   6.071  0.3017  0.8208 -0.0147
  253MOL0     C34805   5.904   5.187   5.834 -0.6079  0.1660  0.2682
  253MOL0     C34806   5.766   5.213   5.885  0.1401 -0.1668 -0.4554
  253MOL0     O34807   5.676   5.237   5.779  0.1871  0.9051 -0.2728
  253MOL0     C34808   5.536   5.246   5.796 -0.4928 -0.2869  0.4021
  253MOL0     C34809   5.461   5.290   5.908  0.2406  0.0632 -0.2173
  253MOL0     C34810   5.325   5.272   5.917  0.2179  1.4922  0.1705
  253MOL0     C34811   5.252   5.219   5.801  0.5956  0.0564 -0.4903
  253MOL0     O34812   5.119   5.203   5.812  0.2482  0.1089  0.6920
  253MOL0     C34813   5.035   5.210   5.706  0.3663 -0.5849 -0.4407
  253MOL0     C34814   4.973   5.080   5.669  0.9420 -0.0549  0.0951
  253MOL0     C34815   4.878   5.019   5.771  0.5904  0.6272  0.1852
  253MOL0     C34816   4.828   4.876   5.728  0.1078 -0.3083  0.0734
  253MOL0     C34817   4.708   4.833   5.825 -1.1353  0.0635  0.4962
  253MOL0     C34818   4.581   4.901   5.783 -0.6598  0.2508  1.0774
  253MOL0     C34819   4.453   4.847   5.860  0.3450 -0.0331 -0.3152
  253MOL0     C34820   4.329   4.925   5.807  0.2837  0.3350  0.1672
  253MOL0    Cl34821   4.333   5.094   5.868  0.1926 -0.2757  0.3753
  253MOL0     C34822   5.330   5.178   5.693  0.2940  0.4566  0.8662
  253MOL0     C34823   5.464   5.192   5.687  1.0591 -0.1371 -0.1057
  253MOL0     O34824   5.729   5.205   6.005 -0.4581  0.1740  0.0657
  253MOL0     C34825   5.931   5.191   5.696  0.9491  0.0108  0.2149
  253MOL0     C34826   6.064   5.175   5.647  1.4086  0.3393 -1.1529
  253MOL0     N34827   6.762   4.740   5.406 -0.6438  0.5498  0.0703
  253MOL0     N34828   6.743   4.612   5.393  0.8200 -0.2734  0.3001
  253MOL0     C34829   5.867   4.376   6.226  0.2399 -0.2044 -0.8115
  253MOL0     C34830   5.802   4.465   6.306 -1.3133 -0.2729  0.3882
  253MOL0     C34831   5.671   4.904   6.400  0.1909  0.2030  0.8262
  253MOL0     C34832   5.544   4.862   6.378 -0.4287  0.5035 -0.3742
  253MOL0     C34833   5.438   4.940   6.336 -0.6012 -0.6694  0.8781
  253MOL0     C34834   5.461   5.071   6.313 -0.1147 -0.4442 -0.5889
  253MOL0     O34835   5.358   5.148   6.268 -0.2622 -0.5902 -0.7083
  253MOL0     C34836   5.360   5.293   6.286  0.2372 -0.1726 -0.0141
  253MOL0     C34837   5.219   5.345   6.297 -0.6802 -0.3012  0.5200
  253MOL0     C34838   5.221   5.500   6.325 -0.2094 -0.2145  0.0824
  253MOL0     C34839   5.237   5.596   6.206  0.3113 -0.1389  0.6179
  253MOL0     C34840   5.270   5.733   6.248 -0.1357 -0.5287  0.2764
  253MOL0     C34841   5.287   5.847   6.267 -1.2348  0.3843 -0.1657
  253MOL0     C34842   5.591   5.127   6.350 -0.3347  0.0379  0.1057
  253MOL0     C34843   5.694   5.040   6.398  0.7626 -0.6282  0.4456
  253MOL0     C34844   5.826   5.100   6.427  0.1505 -0.3802  0.2439
  253MOL0     H34845   5.984   4.744   6.236  1.8339 -0.6483 -2.3234
  253MOL0     H34846   6.100   4.568   6.100 -1.2167 -2.4528 -1.3393
  253MOL0     H34847   6.223   4.401   6.003  1.0217 -0.1020 -1.2431
  253MOL0     H34848   6.070   4.425   5.906  0.6351  2.3505  1.8642
  253MOL0     H34849   6.237   4.180   5.965 -0.5594 -0.4109  0.2913
  253MOL0     H34850   6.071   4.168   5.907  1.7234 -2.4220 -1.5705
  253MOL0     H34851   6.182   4.152   5.719  0.8672  0.3019 -0.2283
  253MOL0     H34852   6.184   4.321   5.692 -0.2515 -1.2938 -2.6235
  253MOL0     H34853   6.397   4.360   5.730  1.2533  0.0411 -4.5966
  253MOL0     H34854   6.424   4.202   5.817 -0.2978  1.8741  1.6753
  253MOL0     H34855   6.367   4.097   5.580  1.6670 -0.9061 -0.5449
  253MOL0     H34856   6.518   4.179   5.603 -0.2569 -2.1688 -1.1162
  253MOL0     H34857   6.414   4.222   5.394  0.7757  1.4688 -0.3701
  253MOL0     H34858   6.268   4.293   5.469  0.2320  3.5870  1.3752
  253MOL0     H34859   6.383   4.491   5.534 -0.0385  3.0130 -1.5209
  253MOL0     H34860   6.411   4.475   5.367  2.5244  0.9761  0.2141
  253MOL0     H34861   6.627   4.390   5.572  3.3435  1.5331 -0.5049
  253MOL0     H34862   6.638   4.379   5.395 -0.1249 -0.3071 -0.0063
  253MOL0     H34863   6.524   4.685   5.619 -1.0976  0.7539 -2.1447
  253MOL0     H34864   6.712   4.979   5.483 -0.4414 -1.3218 -1.9377
  253MOL0     H34865   6.706   4.936   5.657  5.0487 -2.4536 -1.1355
  253MOL0     H34866   6.448   4.938   5.491  1.0841  1.1573 -1.2381
  253MOL0     H34867   6.469   4.941   5.668 -3.1101  1.1930 -0.0934
  253MOL0     H34868   6.572   5.182   5.636 -0.7279 -2.0780  0.8656
  253MOL0     H34869   6.534   5.158   5.472 -3.0421  0.6384 -0.7553
  253MOL0     H34870   6.366   5.290   5.573 -0.9182  0.0409  2.0558
  253MOL0     H34871   6.294   5.138   5.502  2.0076  1.3138 -2.5462
  253MOL0     H34872   6.221   5.122   5.945  3.2576  4.5685 -0.0553
  253MOL0     H34873   6.075   5.083   6.104 -1.3050 -0.6736  1.0352
  253MOL0     H34874   5.904   5.090   6.079  0.8416 -0.1716 -1.0097
  253MOL0     H34875   5.984   5.245   6.123 -1.2689 -0.6668  2.6152
  253MOL0     H34876   5.521   5.319   5.993  1.1168  0.0702 -0.8273
  253MOL0     H34877   5.262   5.297   6.001 -0.6601  2.6404 -0.7847
  253MOL0     H34878   4.954   5.280   5.730  0.3741 -1.1639  1.4635
  253MOL0     H34879   5.085   5.240   5.613  0.2955 -0.2736 -0.3809
  253MOL0     H34880   4.918   5.087   5.575 -0.2021 -1.3850  0.6400
  253MOL0     H34881   5.052   5.007   5.648  2.1637  1.7644 -2.1738
  253MOL0     H34882   4.795   5.089   5.781  1.1959  1.5886 -1.2047
  253MOL0     H34883   4.926   5.011   5.869  0.1758  1.1866  0.4406
  253MOL0     H34884   4.911   4.806   5.734 -1.0488 -1.8540 -1.2485
  253MOL0     H34885   4.794   4.881   5.625 -0.1555  0.6345  0.1912
  253MOL0     H34886   4.703   4.725   5.814  3.2325 -0.1576 -1.2735
  253MOL0     H34887   4.721   4.863   5.929 -1.7002 -0.4379  0.7139
  253MOL0     H34888   4.580   4.878   5.676  2.8313 -0.5523  1.1029
  253MOL0     H34889   4.588   5.008   5.802 -1.6919  0.1685  2.0003
  253MOL0     H34890   4.468   4.865   5.967 -0.8299 -0.7089 -0.0201
  253MOL0     H34891   4.440   4.739   5.851 -1.8864  0.2854 -1.6466
  253MOL0     H34892   4.236   4.879   5.841  0.2627  1.9190  2.5108
  253MOL0     H34893   4.320   4.904   5.700  0.5452 -1.1778  0.4196
  253MOL0     H34894   5.271   5.134   5.613 -3.3087  0.6753  3.1713
  253MOL0     H34895   5.535   5.170   5.607  0.6011 -0.0345 -0.5485
  253MOL0     H34896   5.853   5.212   5.624  2.1425  2.3602 -0.5003
  253MOL0     H34897   6.081   5.183   5.540  2.2618 -1.4765 -1.1931
  253MOL0     H34898   5.831   4.274   6.223  2.7937 -1.2545 -5.4315
  253MOL0     H34899   5.720   4.418   6.360  0.0672 -2.1503  0.9647
  253MOL0     H34900   5.525   4.755   6.383 -0.6903  0.5906  0.7364
  253MOL0     H34901   5.346   4.892   6.306 -0.4660 -1.9241  2.3268
  253MOL0     H34902   5.395   5.317   6.387 -0.0524  0.8518 -0.1452
  253MOL0     H34903   5.431   5.339   6.216  4.6117  0.8105  4.4392
  253MOL0     H34904   5.176   5.296   6.385 -1.5105 -0.0323  0.2664
  253MOL0     H34905   5.156   5.333   6.209 -1.9419 -2.3683  1.6314
  253MOL0     H34906   5.131   5.524   6.383  0.6619  2.5076  0.4137
  253MOL0     H34907   5.299   5.531   6.394  0.3500 -1.2952 -0.0518
  253MOL0     H34908   5.138   5.600   6.158 -0.0470  2.0134  1.4062
  253MOL0     H34909   5.300   5.555   6.127 -1.1332 -0.4042 -0.4295
  253MOL0     H34910   5.307   5.950   6.292 -1.5262  0.1736  0.9676
  253MOL0     H34911   5.612   5.233   6.339 -3.0552  0.5584 -0.9044
  253MOL0     H34912   5.815   5.208   6.421  0.7815 -0.2985  0.4384
  253MOL0     H34913   5.865   5.089   6.528 -1.6367 -3.2603  0.7388
  253MOL0     H34914   5.887   5.076   6.339 -2.7300  1.9623 -2.6351
  254MOL0     O34915   5.594   7.485   9.657 -0.5242  0.2406  0.0524
  254MOL0     C34916   5.504   7.568   9.658 -0.7009  0.1679  0.1427
  254MOL0     O34917   5.483   7.660   9.760  0.0947 -0.0790 -0.0725
  254MOL0     C34918   5.572   7.670   9.863  0.2281  0.3543  0.5239
  254MOL0     C34919   5.709   7.671   9.839 -0.9794 -0.2014  0.8261
  254MOL0     C34920   5.801   7.678   9.943 -0.3991  0.2424  0.7577
  254MOL0     C34921   5.762   7.691  10.071  0.3505 -0.0969 -0.1547
  254MOL0     O34922   5.866   7.704  10.157  0.7142  0.4264 -0.1665
  254MOL0     C34923   5.847   7.654  10.292  0.3651 -0.3288  0.4784
  254MOL0     C34924   5.977   7.627  10.367  0.1973 -0.5056 -0.0196
  254MOL0     C34925   6.035   7.769  10.397 -0.5041 -0.1067  0.6261
  254MOL0     C34926   6.135   7.767  10.516  0.2168  0.1912  0.4347
  254MOL0     C34927   6.148   7.902  10.587  0.5623 -0.1019  0.5186
  254MOL0     C34928   6.244   7.891  10.695 -0.3862 -0.1163 -0.5011
  254MOL0     C34929   6.268   8.031  10.768  0.5390 -0.5296  0.5723
  254MOL0     C34930   6.282   8.164  10.682  0.5455 -0.2137  0.5224
  254MOL0     N34931   6.293   8.287  10.768 -0.0524  0.9380  0.4534
  254MOL0     C34932   6.205   8.337  10.850  0.2413  0.2049 -0.0324
  254MOL0     C34933   6.274   8.419  10.930 -0.1791 -0.3742 -0.1269
  254MOL0     C34934   6.224   8.488  11.050  0.1914  0.0152 -0.0868
  254MOL0     C34935   6.090   8.563  11.014  0.3583 -0.0223 -0.6534
  254MOL0     C34936   6.122   8.691  10.936  0.3600 -0.2244 -0.4362
  254MOL0     C34937   6.005   8.742  10.852 -0.0095 -0.0913  0.3459
  254MOL0     O34938   5.887   8.748  10.927  0.3746 -0.0479 -0.3377
  254MOL0     C34939   5.761   8.750  10.846 -0.3191  0.1990 -0.3675
  254MOL0     C34940   5.644   8.692  10.902 -0.2481  0.1988 -0.2073
  254MOL0     C34941   5.524   8.688  10.828  0.5047 -0.8533 -0.0127
  254MOL0     C34942   5.413   8.622  10.909  0.2638  0.5139  0.5303
  254MOL0     C34943   5.520   8.752  10.704  0.0088 -0.1070 -0.3137
  254MOL0     C34944   5.400   8.738  10.619 -0.6680 -0.4126  1.0716
  254MOL0     O34945   5.281   8.728  10.681  0.3709  0.3361  0.1924
  254MOL0     C34946   5.158   8.715  10.622 -0.2542  0.4505  0.3918
  254MOL0     C34947   5.134   8.744  10.487  0.4413  0.0484  0.4856
  254MOL0     C34948   5.005   8.776  10.445 -0.4096  0.7422 -0.1484
  254MOL0     C34949   4.897   8.759  10.536 -0.4624  1.3506  0.2512
  254MOL0     O34950   4.772   8.797  10.517 -0.1351 -0.0963 -0.9328
  254MOL0     C34951   4.730   8.885  10.417  0.1650 -0.5648  0.4101
  254MOL0     C34952   4.580   8.892  10.443  0.7511 -0.2591 -0.7044
  254MOL0     C34953   4.498   8.999  10.362 -0.1683 -0.1864 -0.9487
  254MOL0     C34954   4.348   9.016  10.407 -0.5193 -0.0788 -0.5426
  254MOL0     C34955   4.282   9.115  10.322  0.4936 -0.1285  0.6384
  254MOL0     C34956   4.146   9.130  10.370  0.9050  1.1273  0.3402
  254MOL0     C34957   4.055   9.213  10.276 -0.4069  0.5295  0.7736
  254MOL0     C34958   4.101   9.368  10.283  0.4213 -0.8427 -0.5560
  254MOL0    Cl34959   3.981   9.456  10.185 -0.1090 -0.5215 -0.2649
  254MOL0     C34960   4.922   8.713  10.667  0.7354  0.3596 -0.0595
  254MOL0     C34961   5.050   8.691  10.707 -1.2543  0.2523  0.3538
  254MOL0     O34962   5.422   8.715  10.502 -0.1310 -0.7249 -0.3660
  254MOL0     C34963   5.634   8.823  10.657  1.0520  1.3228 -0.1897
  254MOL0     C34964   5.757   8.811  10.725 -0.5466  0.6180  0.6927
  254MOL0     N34965   6.404   8.430  10.902 -0.1474  0.3704  0.3001
  254MOL0     N34966   6.413   8.342  10.805 -0.6461 -0.0799  0.4793
  254MOL0     C34967   5.626   7.677  10.101  0.1856 -0.2691  0.8354
  254MOL0     C34968   5.530   7.665   9.997 -0.1633 -1.0814 -0.1510
  254MOL0     C34969   5.426   7.610   9.536  0.8492  0.0444 -0.3779
  254MOL0     C34970   5.342   7.735   9.539  0.0538  0.0325  0.0581
  254MOL0     C34971   5.259   7.766   9.425  0.0885  0.8057  0.5704
  254MOL0     C34972   5.255   7.675   9.317 -0.4112 -0.3387  0.4508
  254MOL0     O34973   5.193   7.698   9.195  0.5102 -0.3980  0.2087
  254MOL0     C34974   5.171   7.833   9.150  0.5095 -0.6193 -0.2807
  254MOL0     C34975   5.236   7.855   9.019  0.3882 -0.8024 -0.5042
  254MOL0     C34976   5.391   7.856   9.013 -0.4284 -0.1105  0.0533
  254MOL0     C34977   5.465   7.972   9.077  0.6738 -0.8534 -0.3023
  254MOL0     C34978   5.438   8.089   8.994  0.8881 -0.1145  0.2266
  254MOL0     C34979   5.404   8.194   8.921 -0.4616  0.3766 -0.9634
  254MOL0     C34980   5.331   7.560   9.316 -0.8304 -0.5658  0.1862
  254MOL0     C34981   5.414   7.523   9.426  0.5241  0.7492  0.1376
  254MOL0     C34982   5.490   7.392   9.400  0.3027  0.4114 -0.4411
  254MOL0     H34983   5.762   7.685   9.746 -1.3260  1.4137  0.8503
  254MOL0     H34984   5.904   7.692   9.914  0.3572 -3.2205  1.3100
  254MOL0     H34985   5.789   7.561  10.285  0.3719 -0.2558 -0.7140
  254MOL0     H34986   5.790   7.734  10.340  1.3049  2.0901 -2.1840
  254MOL0     H34987   5.940   7.573  10.455 -0.3336 -2.8444 -1.5978
  254MOL0     H34988   6.055   7.563  10.326  1.7648  0.3358  1.5067
  254MOL0     H34989   6.084   7.799  10.304 -0.4747 -0.6964  0.4458
  254MOL0     H34990   5.949   7.834  10.417 -1.8985 -0.8049 -2.6088
  254MOL0     H34991   6.089   7.702  10.592 -0.0653 -0.4866 -0.3016
  254MOL0     H34992   6.228   7.718  10.486 -0.5659 -0.7402 -0.5806
  254MOL0     H34993   6.056   7.943  10.630  1.4905  3.9680 -0.8934
  254MOL0     H34994   6.180   7.965  10.503 -3.4813 -3.6069 -4.2041
  254MOL0     H34995   6.194   7.820  10.762 -0.3199  1.2715  1.1189
  254MOL0     H34996   6.338   7.842  10.669  0.6235  1.3781  0.1890
  254MOL0     H34997   6.358   8.007  10.825 -0.0195 -3.2357  0.4691
  254MOL0     H34998   6.184   8.043  10.837  0.8996  2.2949  0.6194
  254MOL0     H34999   6.370   8.152  10.619  0.4057 -1.6721  0.5695
  254MOL0     H35000   6.192   8.171  10.621  0.5811 -1.8200  0.2387
  254MOL0     H35001   6.104   8.303  10.871  0.3645 -0.1838 -0.0649
  254MOL0     H35002   6.310   8.550  11.076  0.3592  0.3336 -1.3300
  254MOL0     H35003   6.191   8.419  11.128  0.1605 -0.3652 -0.4311
  254MOL0     H35004   6.022   8.498  10.959  2.6621 -1.9986 -1.4010
  254MOL0     H35005   6.042   8.585  11.110  0.7176  0.3413 -0.5533
  254MOL0     H35006   6.147   8.758  11.019 -0.5911  1.1278 -1.2137
  254MOL0     H35007   6.211   8.684  10.873  1.3961  2.5630  0.5568
  254MOL0     H35008   6.025   8.842  10.812 -0.5498 -0.2573 -0.3634
  254MOL0     H35009   5.998   8.671  10.769 -1.1792  0.2771  0.1098
  254MOL0     H35010   5.647   8.646  11.000 -0.5621  1.1461  0.2609
  254MOL0     H35011   5.377   8.528  10.867 -2.5307  1.8412 -0.2823
  254MOL0     H35012   5.325   8.687  10.920 -1.7163 -1.7113 -1.1633
  254MOL0     H35013   5.444   8.596  11.011  3.0239  1.5197  0.0251
  254MOL0     H35014   5.220   8.738  10.420 -1.0977 -1.6178 -1.5005
  254MOL0     H35015   4.984   8.811  10.344  3.6621 -0.8997 -1.7709
  254MOL0     H35016   4.777   8.982  10.433 -0.6816 -0.0042 -0.3851
  254MOL0     H35017   4.768   8.858  10.318  0.4919  2.0585 -0.2677
  254MOL0     H35018   4.547   8.789  10.428 -0.4139 -0.5710  2.9621
  254MOL0     H35019   4.565   8.917  10.549 -1.4681 -3.5928 -0.0754
  254MOL0     H35020   4.506   8.967  10.258 -0.3693  1.3365 -1.4519
  254MOL0     H35021   4.553   9.093  10.371 -0.6697 -0.0149  0.5150
  254MOL0     H35022   4.348   9.068  10.503  2.2542  4.1659 -2.5246
  254MOL0     H35023   4.292   8.922  10.405 -2.4679  0.9767  1.0690
  254MOL0     H35024   4.341   9.207  10.317 -2.8409  2.0695 -1.2617
  254MOL0     H35025   4.270   9.077  10.220  0.7198  1.4103  0.0210
  254MOL0     H35026   4.137   9.175  10.470 -0.3513  0.2620  0.6408
  254MOL0     H35027   4.109   9.029  10.384  1.4785  0.8159 -0.3286
  254MOL0     H35028   3.948   9.204  10.298  0.0483 -0.6522  2.7998
  254MOL0     H35029   4.055   9.171  10.175  0.3842  0.4330  0.8084
  254MOL0     H35030   4.199   9.395  10.245  1.3749  0.6298  2.6428
  254MOL0     H35031   4.099   9.414  10.382  1.4108  1.7082 -1.6582
  254MOL0     H35032   4.836   8.705  10.733  0.1187  1.3013 -0.7408
  254MOL0     H35033   5.074   8.674  10.812 -3.7770 -0.9520  0.8063
  254MOL0     H35034   5.622   8.872  10.560 -1.7504 -1.8496 -1.6881
  254MOL0     H35035   5.845   8.857  10.681  0.7221 -0.9949  1.4059
  254MOL0     H35036   5.590   7.680  10.203  1.1879 -0.6795  1.2165
  254MOL0     H35037   5.423   7.667  10.014  0.0166  1.7193  1.1603
  254MOL0     H35038   5.350   7.808   9.618  1.0347 -0.8407  0.7923
  254MOL0     H35039   5.185   7.845   9.426 -0.2063  0.5567 -0.6394
  254MOL0     H35040   5.065   7.849   9.129  0.8664  0.5592 -1.3407
  254MOL0     H35041   5.206   7.900   9.230  2.2072 -1.4831 -0.2396
  254MOL0     H35042   5.205   7.956   8.990  2.3526  0.0632  0.2671
  254MOL0     H35043   5.194   7.786   8.945  0.6215  0.9967 -2.3925
  254MOL0     H35044   5.423   7.764   9.062 -2.5123 -0.6432  0.5290
  254MOL0     H35045   5.428   7.840   8.912  1.8311  2.2664  0.3969
  254MOL0     H35046   5.573   7.955   9.090  0.1760 -2.6406  2.0178
  254MOL0     H35047   5.436   7.990   9.181 -0.8872 -0.0923 -0.8462
  254MOL0     H35048   5.380   8.273   8.854 -2.0553  0.3012 -0.5189
  254MOL0     H35049   5.317   7.512   9.220 -1.2841 -3.1162  1.4601
  254MOL0     H35050   5.450   7.345   9.309 -2.3410  0.9960  0.3365
  254MOL0     H35051   5.598   7.407   9.392  0.2209  0.1892 -3.1673
  254MOL0     H35052   5.479   7.323   9.484  0.6669 -0.1992 -0.8830
  255MOL0     O35053   3.499   0.311   6.295  0.0547 -1.0144 -0.8036
  255MOL0     C35054   3.459   0.258   6.198 -0.1884 -0.1373  0.0690
  255MOL0     O35055   3.501   0.130   6.154 -0.3952  0.4830  1.0100
  255MOL0     C35056   3.573   0.055   6.241 -0.1443 -0.6053 -0.1286
  255MOL0     C35057   3.536  -0.077   6.262  0.0972 -0.3055 -1.0276
  255MOL0     C35058   3.623  -0.163   6.342  0.5315 -0.0571  0.2216
  255MOL0     C35059   3.731  -0.111   6.403  0.2816 -0.5778 -0.1304
  255MOL0     O35060   3.810  -0.181   6.493  1.0089  0.8141  0.4932
  255MOL0     C35061   3.785  -0.319   6.523 -1.1790  0.0261  0.5248
  255MOL0     C35062   3.882  -0.348   6.644 -0.9482 -0.5293  0.3732
  255MOL0     C35063   4.032  -0.355   6.594  0.2074  0.1596  0.2662
  255MOL0     C35064   4.105  -0.227   6.632  0.2864 -0.9092  0.4759
  255MOL0     C35065   4.252  -0.222   6.598  0.5946 -0.0763 -0.5685
  255MOL0     C35066   4.322  -0.120   6.701 -0.0056  0.0838 -0.2197
  255MOL0     C35067   4.475  -0.121   6.666  0.6652 -0.0100  0.0687
  255MOL0     C35068   4.555  -0.033   6.755 -0.3652 -0.2356 -0.0290
  255MOL0     N35069   4.684   0.004   6.696 -0.2043  0.5271  0.5416
  255MOL0     C35070   4.799  -0.076   6.706  0.3958 -0.1636 -0.3706
  255MOL0     C35071   4.893  -0.034   6.615  1.1423 -0.5274 -0.0838
  255MOL0     C35072   5.027  -0.094   6.608  0.4141  0.4159 -0.6699
  255MOL0     C35073   5.133  -0.044   6.715 -0.0585 -0.3843 -0.2305
  255MOL0     C35074   5.162   0.107   6.683 -0.4706 -0.0359 -0.8799
  255MOL0     C35075   5.264   0.137   6.575 -0.4815 -0.3207  1.0758
  255MOL0     O35076   5.256   0.277   6.556 -0.0980  0.2315  0.2477
  255MOL0     C35077   5.348   0.350   6.623 -0.5558  0.0877 -0.2887
  255MOL0     C35078   5.433   0.302   6.727  0.0938  0.9020 -0.7243
  255MOL0     C35079   5.519   0.386   6.795  0.7084  0.0323  0.3454
  255MOL0     C35080   5.620   0.320   6.889  0.4750  0.4531 -0.4811
  255MOL0     C35081   5.522   0.524   6.770 -0.0405 -0.2375 -0.1782
  255MOL0     C35082   5.604   0.624   6.839  1.0832 -0.0901  1.1916
  255MOL0     O35083   5.659   0.723   6.761  0.2482 -0.3069  0.4621
  255MOL0     C35084   5.735   0.825   6.810  0.3496 -0.0492 -0.8158
  255MOL0     C35085   5.835   0.817   6.914  0.1618 -0.1533 -1.0777
  255MOL0     C35086   5.907   0.928   6.955 -0.0887 -0.2171  0.2810
  255MOL0     C35087   5.870   1.058   6.906  0.1003  0.0968 -0.0369
  255MOL0     O35088   5.951   1.162   6.939  0.8748  0.0764 -0.7182
  255MOL0     C35089   5.973   1.167   7.078 -0.4529  0.0844  0.4595
  255MOL0     C35090   6.021   1.312   7.128  0.0122  0.4330  1.6953
  255MOL0     C35091   5.922   1.426   7.118 -0.6865  0.2955  0.3453
  255MOL0     C35092   5.970   1.567   7.178  0.0414  0.0684  0.0068
  255MOL0     C35093   5.856   1.638   7.257 -0.0681 -0.3221  0.2235
  255MOL0     C35094   5.721   1.635   7.186 -0.0330  0.5804  0.4948
  255MOL0     C35095   5.610   1.721   7.244 -0.2253  0.3827  0.4106
  255MOL0     C35096   5.460   1.663   7.227 -0.3274  0.5346 -0.2728
  255MOL0    Cl35097   5.325   1.718   7.330 -0.0694 -0.6132 -0.4166
  255MOL0     C35098   5.782   1.071   6.802  0.5827 -0.4841 -0.5201
  255MOL0     C35099   5.714   0.952   6.761  0.5849 -0.8119  0.5503
  255MOL0     O35100   5.599   0.621   6.961 -0.1588  0.0185 -1.3719
  255MOL0     C35101   5.447   0.567   6.657  0.2554  0.8984  0.7069
  255MOL0     C35102   5.354   0.486   6.588 -0.1047  0.1736 -0.2839
  255MOL0     N35103   4.823   0.063   6.539 -0.8948 -0.3466  0.5496
  255MOL0     N35104   4.702   0.084   6.590 -0.0111  0.4988  0.4528
  255MOL0     C35105   3.772   0.024   6.383  0.1564  0.8163  0.9724
  255MOL0     C35106   3.695   0.104   6.297  0.7675 -0.6086  0.0025
  255MOL0     C35107   3.355   0.326   6.113  1.0163 -0.9346  0.0729
  255MOL0     C35108   3.311   0.254   5.999  0.1814 -0.0840  0.7628
  255MOL0     C35109   3.239   0.311   5.897  0.0682 -0.4365  0.2954
  255MOL0     C35110   3.178   0.434   5.912  1.3908 -0.5926 -0.0834
  255MOL0     O35111   3.093   0.476   5.816  0.3330 -0.1305 -0.5862
  255MOL0     C35112   3.085   0.611   5.783 -0.1370  0.3950  0.4302
  255MOL0     C35113   2.947   0.669   5.836  0.1622  0.2307  1.0610
  255MOL0     C35114   2.832   0.646   5.736  0.1586  0.0411  0.2471
  255MOL0     C35115   2.712   0.723   5.776 -0.6624 -1.2797 -0.3584
  255MOL0     C35116   2.602   0.702   5.683 -0.1847  0.0337  0.2805
  255MOL0     C35117   2.521   0.671   5.597  0.7861  0.1968 -0.1389
  255MOL0     C35118   3.194   0.506   6.029 -0.4098  0.1261  0.5187
  255MOL0     C35119   3.283   0.453   6.132  0.1212 -0.5277  1.1138
  255MOL0     C35120   3.307   0.539   6.252  0.4735 -0.3447  0.0336
  255MOL0     H35121   3.442  -0.118   6.226 -1.3004  0.7511  1.1812
  255MOL0     H35122   3.594  -0.265   6.365 -1.0080  0.6382  1.6127
  255MOL0     H35123   3.810  -0.384   6.438  1.7886  1.7123 -0.0579
  255MOL0     H35124   3.688  -0.342   6.567 -0.5680 -1.4958  1.1632
  255MOL0     H35125   3.872  -0.269   6.719 -0.4102 -0.5579  0.4832
  255MOL0     H35126   3.858  -0.446   6.685 -0.6197 -1.6362 -1.9281
  255MOL0     H35127   4.086  -0.446   6.622 -0.4117  0.4854  2.6857
  255MOL0     H35128   4.032  -0.346   6.485  1.1663  0.8045  0.3042
  255MOL0     H35129   4.057  -0.143   6.580 -0.1548 -2.4450 -1.7801
  255MOL0     H35130   4.090  -0.201   6.737  1.2370  4.5123 -0.4056
  255MOL0     H35131   4.273  -0.196   6.494 -2.4133  0.9212 -1.0105
  255MOL0     H35132   4.292  -0.323   6.615 -0.0787 -0.4547 -1.1803
  255MOL0     H35133   4.295  -0.015   6.693  1.6040  0.4667 -1.1858
  255MOL0     H35134   4.302  -0.158   6.802  0.5001 -1.0899 -0.5479
  255MOL0     H35135   4.476  -0.081   6.564 -0.4462  0.4090  0.2086
  255MOL0     H35136   4.495  -0.229   6.666 -1.4753 -0.4981 -1.7416
  255MOL0     H35137   4.495   0.055   6.780 -2.1819 -1.6137  0.6519
  255MOL0     H35138   4.568  -0.074   6.855 -0.2722  1.1708  0.5667
  255MOL0     H35139   4.810  -0.152   6.782 -0.8814 -0.0747 -0.0765
  255MOL0     H35140   5.067  -0.078   6.508  1.2493  0.4548 -0.3407
  255MOL0     H35141   5.011  -0.201   6.625 -0.2185  0.5201 -0.5629
  255MOL0     H35142   5.092  -0.054   6.816  0.7900  0.9403  0.2785
  255MOL0     H35143   5.222  -0.108   6.720 -1.0198 -1.6418  2.9780
  255MOL0     H35144   5.070   0.162   6.661 -0.7460 -0.8824 -1.9183
  255MOL0     H35145   5.210   0.141   6.775 -1.4396 -2.0021  0.4393
  255MOL0     H35146   5.364   0.092   6.580 -2.2257 -5.0788 -0.8146
  255MOL0     H35147   5.231   0.084   6.485 -1.9598  0.1001  1.3504
  255MOL0     H35148   5.439   0.198   6.759 -3.7856  0.4404 -0.9433
  255MOL0     H35149   5.600   0.213   6.902  2.4439  0.1764  0.7780
  255MOL0     H35150   5.613   0.361   6.990 -0.2802  2.6752 -1.3858
  255MOL0     H35151   5.722   0.326   6.848  0.3792  1.5530 -0.5831
  255MOL0     H35152   5.850   0.724   6.968  3.7900  0.9683  0.1433
  255MOL0     H35153   5.979   0.906   7.033  2.7347  1.0954 -1.7913
  255MOL0     H35154   5.883   1.148   7.137 -1.8914  3.9511 -0.1625
  255MOL0     H35155   6.056   1.100   7.100  1.1813  0.6303 -3.3541
  255MOL0     H35156   6.039   1.316   7.236 -1.9422 -1.5558  2.1696
  255MOL0     H35157   6.108   1.345   7.070 -1.1878  1.5877  0.4648
  255MOL0     H35158   5.828   1.395   7.164 -1.6654 -0.0686 -1.7657
  255MOL0     H35159   5.900   1.450   7.013 -0.3232 -0.2711  0.1340
  255MOL0     H35160   6.009   1.634   7.100  0.7036 -0.6343 -0.2809
  255MOL0     H35161   6.053   1.548   7.246  1.0453 -1.6311 -1.6009
  255MOL0     H35162   5.840   1.586   7.351 -1.1255 -3.1187 -1.3914
  255MOL0     H35163   5.884   1.741   7.281  2.9747 -0.9175 -0.2936
  255MOL0     H35164   5.686   1.532   7.200  1.8611 -0.1151  0.5550
  255MOL0     H35165   5.739   1.654   7.079  1.0700  0.1790  0.5885
  255MOL0     H35166   5.613   1.823   7.207  2.1948  1.3504  2.8934
  255MOL0     H35167   5.630   1.733   7.351 -4.4035  1.8817  1.2197
  255MOL0     H35168   5.480   1.560   7.259  0.5206  0.3893 -1.2309
  255MOL0     H35169   5.426   1.660   7.124 -0.5026 -5.9920 -0.4677
  255MOL0     H35170   5.761   1.164   6.749  2.3874 -0.3914 -1.1129
  255MOL0     H35171   5.638   0.957   6.684 -1.7436  1.3509  2.7708
  255MOL0     H35172   5.444   0.671   6.627  4.3563  1.4567  1.7723
  255MOL0     H35173   5.298   0.537   6.511 -1.0272 -1.0105 -0.4270
  255MOL0     H35174   3.858   0.065   6.434 -0.4934 -0.3682  3.1268
  255MOL0     H35175   3.726   0.205   6.273 -1.1170 -0.4325 -1.9781
  255MOL0     H35176   3.349   0.159   5.963  0.5679  0.6261 -0.7422
  255MOL0     H35177   3.220   0.261   5.803 -1.9652 -1.0883  1.0051
  255MOL0     H35178   3.170   0.670   5.819  0.2653 -0.6801  1.3269
  255MOL0     H35179   3.080   0.617   5.674 -1.8440 -0.4099  0.4324
  255MOL0     H35180   2.969   0.776   5.839 -0.4491  0.5301 -1.8445
  255MOL0     H35181   2.907   0.643   5.934 -0.2272  0.5560  0.9920
  255MOL0     H35182   2.862   0.666   5.633 -0.3203 -2.0381 -0.3430
  255MOL0     H35183   2.805   0.540   5.739  1.0201 -0.2408 -1.0157
  255MOL0     H35184   2.728   0.829   5.757 -1.9925 -1.2506 -1.4759
  255MOL0     H35185   2.687   0.707   5.881 -1.4130 -0.9573 -0.4842
  255MOL0     H35186   2.451   0.656   5.517 -2.3076  0.2004  2.3339
  255MOL0     H35187   3.154   0.607   6.038 -0.5600 -0.0314  1.8814
  255MOL0     H35188   3.232   0.617   6.264 -1.6676 -1.7543 -2.9122
  255MOL0     H35189   3.301   0.474   6.340  0.6755 -0.8995 -0.3547
  255MOL0     H35190   3.412   0.569   6.244  0.4687 -0.5245 -0.8227
  256MOL0     O35191   0.070  10.951   1.640  0.9117 -0.0994 -0.1785
  256MOL0     C35192   0.084  11.067   1.674 -0.0723  0.1006 -0.1309
  256MOL0     O35193   0.026  11.172   1.625 -0.1916  0.5402  0.3530
  256MOL0     C35194  -0.022  11.166   1.500  0.0756  0.3620 -0.8658
  256MOL0     C35195  -0.152  11.119   1.481 -0.9882  0.4783 -0.5348
  256MOL0     C35196  -0.196  11.101   1.351  0.6497  0.4081  1.6073
  256MOL0     C35197  -0.114  11.145   1.236  0.6571 -0.4375  0.0547
  256MOL0     O35198  -0.148  11.145   1.102 -0.0714  0.3186 -0.3319
  256MOL0     C35199  -0.255  11.063   1.056 -0.0102 -0.3941  0.3490
  256MOL0     C35200  -0.276  11.102   0.910 -0.8989 -0.6384 -0.2083
  256MOL0     C35201  -0.408  11.042   0.854 -0.3703  0.8918  0.7245
  256MOL0     C35202  -0.390  11.006   0.707 -0.6014 -0.3849 -0.3513
  256MOL0     C35203  -0.379  11.132   0.614  1.0549  0.3842 -0.1719
  256MOL0     C35204  -0.383  11.092   0.463  0.0892  0.1079 -0.1208
  256MOL0     C35205  -0.516  11.055   0.416  0.7518 -1.1542  0.1768
  256MOL0     C35206  -0.593  11.195   0.386  0.3357 -0.6608 -0.3894
  256MOL0     N35207  -0.735  11.190   0.423 -0.0390  0.4372 -0.1670
  256MOL0     C35208  -0.779  11.206   0.548 -0.1808 -0.6978 -0.4398
  256MOL0     C35209  -0.907  11.179   0.553 -0.6059 -0.4004 -0.2943
  256MOL0     C35210  -1.004  11.190   0.663  0.6798 -0.3891 -0.4612
  256MOL0     C35211  -0.947  11.141   0.792 -0.2166 -0.5516  0.4373
  256MOL0     C35212  -0.885  10.998   0.800 -0.5599 -0.8545  1.3109
  256MOL0     C35213  -0.813  10.973   0.933  0.3328 -0.3129 -0.4735
  256MOL0     O35214  -0.751  10.847   0.942  0.5594  0.3036  0.1434
  256MOL0     C35215  -0.666  10.821   1.041 -0.3139 -0.8491 -0.5532
  256MOL0     C35216  -0.562  10.732   1.003  0.1782 -0.7581 -0.3619
  256MOL0     C35217  -0.454  10.712   1.080 -0.1702  0.2486  0.1480
  256MOL0     C35218  -0.337  10.627   1.011 -0.2296  0.1079 -0.0050
  256MOL0     C35219  -0.466  10.756   1.221 -0.3438 -0.6360  0.0312
  256MOL0     C35220  -0.355  10.734   1.310  0.3950 -0.2654 -0.9103
  256MOL0     O35221  -0.226  10.762   1.282  0.2225  0.6640 -0.7016
  256MOL0     C35222  -0.128  10.697   1.355  0.4227 -0.2684  1.3276
  256MOL0     C35223  -0.128  10.561   1.378  0.1103  0.1466 -0.5963
  256MOL0     C35224  -0.033  10.495   1.458 -0.1235  0.1437 -0.1870
  256MOL0     C35225   0.075  10.574   1.499 -0.1204 -0.5934 -0.6133
  256MOL0     O35226   0.192  10.531   1.568 -0.0531  0.5943  0.0471
  256MOL0     C35227   0.183  10.410   1.646  0.0792 -0.3397 -0.4636
  256MOL0     C35228   0.319  10.348   1.670 -0.2020  0.1435  0.2828
  256MOL0     C35229   0.338  10.230   1.574 -0.2442 -0.1177  0.1002
  256MOL0     C35230   0.482  10.176   1.580  0.0860 -0.0657 -0.3680
  256MOL0     C35231   0.504  10.055   1.496 -0.1084  0.4393  0.0058
  256MOL0     C35232   0.439   9.927   1.550  0.2774 -0.4882 -0.9761
  256MOL0     C35233   0.291   9.904   1.515  0.4476  0.7829 -0.8331
  256MOL0     C35234   0.258   9.759   1.532  0.6550  0.0602  1.1763
  256MOL0    Cl35235   0.086   9.720   1.495 -0.6335  0.2271 -0.0030
  256MOL0     C35236   0.077  10.714   1.466 -0.4929  1.8825  0.2004
  256MOL0     C35237  -0.021  10.774   1.395 -0.7822 -1.0954 -0.1282
  256MOL0     O35238  -0.404  10.697   1.422  0.0692 -0.2418 -0.1267
  256MOL0     C35239  -0.571  10.840   1.263  0.1115  0.6332 -0.5042
  256MOL0     C35240  -0.673  10.868   1.174 -0.0567  0.2501  0.9519
  256MOL0     N35241  -0.948  11.131   0.432  0.0458  0.1671 -0.4881
  256MOL0     N35242  -0.841  11.136   0.354 -0.6374 -0.3253  0.0735
  256MOL0     C35243   0.012  11.191   1.261 -0.6880 -0.3938 -0.6616
  256MOL0     C35244   0.063  11.195   1.399  0.0120 -0.5844  0.0214
  256MOL0     C35245   0.172  11.091   1.799  1.0510  1.0046  0.6703
  256MOL0     C35246   0.200  11.222   1.822  0.8675  0.3908  0.0251
  256MOL0     C35247   0.271  11.256   1.941 -0.0884 -0.4525  0.0153
  256MOL0     C35248   0.321  11.158   2.025  0.4533 -0.3477 -0.4633
  256MOL0     O35249   0.396  11.182   2.144  0.2528  1.0350 -0.3284
  256MOL0     C35250   0.409  11.301   2.209  0.1147  0.0525  0.2291
  256MOL0     C35251   0.459  11.287   2.351 -0.3221  0.5004  0.1921
  256MOL0     C35252   0.612  11.303   2.357 -0.2119 -0.5726  0.5754
  256MOL0     C35253   0.658  11.333   2.503  0.4340  0.3112  0.7470
  256MOL0     C35254   0.796  11.287   2.508 -0.4461 -0.1622  0.1280
  256MOL0     C35255   0.914  11.261   2.526 -0.3793  0.5450  0.3597
  256MOL0     C35256   0.299  11.021   1.996  0.5247  1.0085  0.7221
  256MOL0     C35257   0.222  10.983   1.887  0.3075  0.8654 -0.6687
  256MOL0     C35258   0.186  10.834   1.872 -0.2053  0.0269  1.2555
  256MOL0     H35259  -0.203  11.092   1.573 -0.6099 -1.5694 -0.8816
  256MOL0     H35260  -0.299  11.073   1.332  0.4537  1.7131  0.5777
  256MOL0     H35261  -0.343  11.071   1.121  0.7269 -1.8729  1.5724
  256MOL0     H35262  -0.221  10.960   1.064 -4.0602 -2.1454 -1.8131
  256MOL0     H35263  -0.285  11.211   0.910 -0.8746 -0.6075  1.6376
  256MOL0     H35264  -0.182  11.096   0.853 -0.7623 -1.0134  0.0539
  256MOL0     H35265  -0.414  10.943   0.900  1.5889  0.3176 -0.1233
  256MOL0     H35266  -0.500  11.099   0.869 -2.7340 -1.7128 -2.4290
  256MOL0     H35267  -0.298  10.946   0.702  1.4745  2.3150  2.1456
  256MOL0     H35268  -0.469  10.939   0.672 -2.0088  0.9956  0.0618
  256MOL0     H35269  -0.296  11.199   0.634  0.7723  0.8701 -0.5959
  256MOL0     H35270  -0.462  11.195   0.648  1.4768  1.3972 -0.9982
  256MOL0     H35271  -0.345  11.174   0.401 -0.3837  0.4790  0.0743
  256MOL0     H35272  -0.308  11.016   0.441  3.3648  2.9890  0.1672
  256MOL0     H35273  -0.574  11.012   0.499  0.8551  2.0908  2.0883
  256MOL0     H35274  -0.508  10.991   0.328  2.3492 -0.4392 -0.2263
  256MOL0     H35275  -0.546  11.268   0.453 -1.5314 -1.3994  1.8534
  256MOL0     H35276  -0.590  11.236   0.285 -0.5105  1.2688  0.3119
  256MOL0     H35277  -0.723  11.230   0.637 -0.0758 -1.8752 -0.1769
  256MOL0     H35278  -1.093  11.129   0.649 -0.0796  0.6847 -0.3927
  256MOL0     H35279  -1.043  11.292   0.665 -1.4932 -1.1101 -2.4315
  256MOL0     H35280  -0.875  11.219   0.817  0.0964 -1.4813  2.6291
  256MOL0     H35281  -1.030  11.143   0.864  1.7577 -0.8616  2.8454
  256MOL0     H35282  -0.962  10.922   0.783 -1.4163  0.7266 -3.2241
  256MOL0     H35283  -0.815  10.990   0.716 -0.6825  3.0832  0.6821
  256MOL0     H35284  -0.737  11.050   0.952 -0.9786  1.0197 -0.4412
  256MOL0     H35285  -0.883  10.994   1.014  1.4554  3.6955 -0.3372
  256MOL0     H35286  -0.573  10.693   0.902 -0.5942 -2.5714  0.3677
  256MOL0     H35287  -0.274  10.575   1.084 -0.2043  2.4519  1.7711
  256MOL0     H35288  -0.263  10.695   0.967 -1.0950 -0.7207 -2.9708
  256MOL0     H35289  -0.369  10.547   0.944  1.7096 -3.5722  3.0763
  256MOL0     H35290  -0.216  10.504   1.351  1.5848 -2.1064 -0.9420
  256MOL0     H35291  -0.033  10.389   1.484  2.1078  0.2894  0.6032
  256MOL0     H35292   0.138  10.440   1.741 -0.8141 -1.5506 -0.4882
  256MOL0     H35293   0.108  10.342   1.604 -0.9157  1.5493 -1.9076
  256MOL0     H35294   0.403  10.417   1.671  0.7033 -0.8545  2.8847
  256MOL0     H35295   0.316  10.310   1.773  0.1586  1.2834  0.7216
  256MOL0     H35296   0.307  10.251   1.472 -1.2485  0.5351  0.5212
  256MOL0     H35297   0.263  10.157   1.605 -0.7621  0.5704  0.4976
  256MOL0     H35298   0.498  10.153   1.685 -1.1392 -1.3924 -0.4425
  256MOL0     H35299   0.554  10.247   1.538 -2.6871  1.8641 -2.2329
  256MOL0     H35300   0.472  10.078   1.394  1.4051 -0.7769 -0.7861
  256MOL0     H35301   0.611  10.037   1.488 -0.2307 -0.1502 -0.3744
  256MOL0     H35302   0.453   9.927   1.659  4.4532  5.6717 -1.0574
  256MOL0     H35303   0.497   9.838   1.524  0.1422 -0.8546 -0.0762
  256MOL0     H35304   0.254   9.939   1.418 -4.2050 -2.7679 -0.6755
  256MOL0     H35305   0.234   9.943   1.600 -0.1860  1.2535 -1.4684
  256MOL0     H35306   0.299   9.720   1.626 -2.1424  0.5188  2.7097
  256MOL0     H35307   0.305   9.704   1.450  0.7813  1.2967  0.3901
  256MOL0     H35308   0.151  10.787   1.497 -1.8017  3.2940  0.1866
  256MOL0     H35309  -0.007  10.881   1.390  0.8915 -1.0877  2.6997
  256MOL0     H35310  -0.562  10.887   1.361  0.1223  1.9821 -1.1287
  256MOL0     H35311  -0.759  10.924   1.209 -0.5328 -0.9136  1.6951
  256MOL0     H35312   0.072  11.229   1.179  0.1480 -0.7051 -0.2170
  256MOL0     H35313   0.156  11.240   1.433 -0.3095  0.2517 -0.1827
  256MOL0     H35314   0.172  11.304   1.756  3.2947  1.6892  0.4971
  256MOL0     H35315   0.284  11.362   1.961  1.7310 -0.5814 -0.3082
  256MOL0     H35316   0.468  11.375   2.153 -0.8580 -2.1206 -4.0768
  256MOL0     H35317   0.309  11.346   2.211  0.7642  2.0845 -3.2999
  256MOL0     H35318   0.428  11.190   2.392  0.5894  0.2391  0.2702
  256MOL0     H35319   0.422  11.368   2.414 -2.4818 -0.4554  0.2512
  256MOL0     H35320   0.653  11.213   2.310 -0.8961 -0.1702 -0.8385
  256MOL0     H35321   0.643  11.391   2.300 -1.7567  0.0697  0.6834
  256MOL0     H35322   0.599  11.260   2.559  0.2128  0.3067  0.5122
  256MOL0     H35323   0.651  11.431   2.551  1.4702 -0.3191  2.2477
  256MOL0     H35324   1.015  11.236   2.551  0.0090  3.4167  2.0745
  256MOL0     H35325   0.348  10.942   2.053  1.2482  0.3063 -0.8156
  256MOL0     H35326   0.078  10.837   1.851  0.1123  1.1776 -0.4225
  256MOL0     H35327   0.227  10.795   1.779 -2.8216 -0.6603  0.2920
  256MOL0     H35328   0.221  10.783   1.962 -1.6903 -1.6805  0.9357
  257MOL0     O35329  10.475   5.742   5.218 -0.0049  0.1923  0.2814
  257MOL0     C35330  10.540   5.685   5.131  0.0122 -0.2204  0.3243
  257MOL0     O35331  10.671   5.722   5.090 -1.1986  0.0013  0.1720
  257MOL0     C35332  10.754   5.811   5.164 -0.3858 -0.1574  0.5560
  257MOL0     C35333  10.718   5.918   5.245  0.2978 -0.5864 -0.4965
  257MOL0     C35334  10.809   5.986   5.318  0.1758 -0.9586  0.3010
  257MOL0     C35335  10.945   5.967   5.291  0.2029 -0.2281  0.1104
  257MOL0     O35336  11.039   6.035   5.362  0.1585 -0.4460  0.5574
  257MOL0     C35337  11.046   6.178   5.361 -0.2773  0.2253 -0.5731
  257MOL0     C35338  11.026   6.257   5.233 -0.3741 -0.5537 -0.5249
  257MOL0     C35339  11.142   6.211   5.144  0.1950  0.2509 -0.0919
  257MOL0     C35340  11.163   6.325   5.033 -0.7068 -0.4946 -0.4467
  257MOL0     C35341  11.240   6.453   5.086  1.1064 -0.5240  0.1652
  257MOL0     C35342  11.281   6.567   4.990  1.1642 -0.1469 -0.1175
  257MOL0     C35343  11.336   6.688   5.074 -0.2062 -0.1629  0.0485
  257MOL0     C35344  11.228   6.789   5.126  0.0914  0.2480 -0.0781
  257MOL0     N35345  11.288   6.880   5.226  0.2192 -0.4107  0.3262
  257MOL0     C35346  11.302   6.853   5.362  0.7965 -0.2902 -0.8430
  257MOL0     C35347  11.377   6.956   5.408 -0.7977  0.3660  0.7652
  257MOL0     C35348  11.419   6.987   5.551  0.6072 -0.3111 -0.1884
  257MOL0     C35349  11.502   6.884   5.629  0.3296 -0.0455  0.3135
  257MOL0     C35350  11.648   6.890   5.577  0.2880  0.2753 -1.3526
  257MOL0     C35351  11.743   6.770   5.632  0.3011 -0.2259 -0.1951
  257MOL0     O35352  11.675   6.643   5.643 -0.2526 -0.0041  0.2488
  257MOL0     C35353  11.690   6.560   5.538  0.3502  0.4020 -0.3400
  257MOL0     C35354  11.806   6.533   5.479 -0.6744  0.2776  0.1099
  257MOL0     C35355  11.819   6.453   5.367  1.3424 -0.8190  0.0692
  257MOL0     C35356  11.961   6.430   5.318 -0.4875  0.4200  0.4908
  257MOL0     C35357  11.701   6.399   5.295 -0.0427 -0.1153  0.5185
  257MOL0     C35358  11.690   6.328   5.166 -0.2196  0.1430  0.4399
  257MOL0     O35359  11.571   6.270   5.127 -0.5663 -0.1803  0.3248
  257MOL0     C35360  11.555   6.202   5.013  0.5682 -0.3050 -0.7477
  257MOL0     C35361  11.637   6.208   4.896  0.4434 -0.0210 -0.6626
  257MOL0     C35362  11.619   6.125   4.789  0.2020  0.2713  0.6635
  257MOL0     C35363  11.511   6.043   4.777 -0.3358  0.9787  0.8017
  257MOL0     O35364  11.481   5.981   4.655 -0.6927  0.2333  0.8976
  257MOL0     C35365  11.342   5.987   4.612  1.0203  0.3916  0.3754
  257MOL0     C35366  11.295   6.123   4.571 -0.3078 -0.0484  0.4825
  257MOL0     C35367  11.147   6.155   4.597 -0.1630  0.0351 -0.0770
  257MOL0     C35368  11.120   6.306   4.567 -0.0249  0.1738 -0.3826
  257MOL0     C35369  10.983   6.358   4.627  0.1261  0.0211  0.6647
  257MOL0     C35370  10.977   6.507   4.596 -0.1199  0.2383  0.2137
  257MOL0     C35371  10.855   6.573   4.641  0.2100 -0.4096  0.2604
  257MOL0     C35372  10.844   6.583   4.796 -0.3834  0.0193  0.8954
  257MOL0    Cl35373  10.682   6.662   4.830  0.2279  0.1189 -0.3286
  257MOL0     C35374  11.429   6.030   4.891 -0.2290 -0.4970 -0.2893
  257MOL0     C35375  11.457   6.110   5.002  0.4364  0.4942  0.9606
  257MOL0     O35376  11.791   6.334   5.099  0.6501  0.6675 -0.2600
  257MOL0     C35377  11.574   6.415   5.367 -0.3665 -0.2125 -0.1863
  257MOL0     C35378  11.573   6.501   5.481  0.0199  0.0429 -0.1594
  257MOL0     N35379  11.427   7.033   5.298 -0.0898  0.6443 -0.6077
  257MOL0     N35380  11.367   6.984   5.192 -0.2474  0.4785 -0.9918
  257MOL0     C35381  10.985   5.861   5.208 -0.2674 -0.0599 -0.5002
  257MOL0     C35382  10.893   5.784   5.147 -0.3524 -1.1348  0.7375
  257MOL0     C35383  10.488   5.552   5.078 -0.5006  0.6691 -0.0254
  257MOL0     C35384  10.594   5.468   5.040 -0.1798  0.3596  0.3660
  257MOL0     C35385  10.563   5.334   5.001 -0.3474  0.4387 -0.8718
  257MOL0     C35386  10.430   5.286   4.988  0.6803 -0.5624  0.5188
  257MOL0     O35387  10.416   5.163   4.937  0.0823  0.5342 -0.3697
  257MOL0     C35388  10.286   5.100   4.916 -0.4032  0.0464 -0.1631
  257MOL0     C35389  10.295   4.957   4.855  0.5694 -0.0452 -0.1835
  257MOL0     C35390  10.391   4.932   4.735 -0.6575 -0.3260  0.9535
  257MOL0     C35391  10.470   4.796   4.746  0.3542 -0.1054 -0.6525
  257MOL0     C35392  10.379   4.688   4.738 -0.2558  1.3348 -0.5923
  257MOL0     C35393  10.320   4.581   4.740  0.5852  0.5018  0.3524
  257MOL0     C35394  10.328   5.378   5.009 -0.0736  0.4924 -0.4591
  257MOL0     C35395  10.357   5.505   5.067  0.1359  0.3502  0.2254
  257MOL0     C35396  10.235   5.600   5.092 -0.3434  0.4992  0.4246
  257MOL0     H35397  10.613   5.946   5.254  0.4341 -0.1036 -0.4063
  257MOL0     H35398  10.773   6.051   5.397 -2.4982  0.3606 -1.8525
  257MOL0     H35399  11.140   6.213   5.403 -1.3633  2.1214  0.4184
  257MOL0     H35400  10.966   6.217   5.424 -0.0271  0.6562 -0.5222
  257MOL0     H35401  10.932   6.226   5.187  0.2436  0.4357 -2.5647
  257MOL0     H35402  11.033   6.360   5.269 -1.3439 -0.8533  0.5571
  257MOL0     H35403  11.233   6.183   5.198 -0.7386 -3.1122 -0.0173
  257MOL0     H35404  11.106   6.120   5.095  0.3437 -0.7665  1.6064
  257MOL0     H35405  11.226   6.293   4.949 -1.9330  0.3832 -1.7332
  257MOL0     H35406  11.066   6.360   4.996 -0.9053 -1.1994 -0.6198
  257MOL0     H35407  11.328   6.416   5.140  0.6741  1.9830  2.8800
  257MOL0     H35408  11.175   6.492   5.165 -0.1430 -2.0485 -0.0539
  257MOL0     H35409  11.361   6.535   4.923  0.2177 -0.4461 -1.1347
  257MOL0     H35410  11.191   6.598   4.936  0.0599  2.0531  2.7086
  257MOL0     H35411  11.406   6.745   5.013  2.1870 -2.1068  0.8156
  257MOL0     H35412  11.395   6.640   5.152  1.0118 -1.5202 -1.6187
  257MOL0     H35413  11.184   6.853   5.049  1.2528 -0.4662 -1.3719
  257MOL0     H35414  11.146   6.738   5.178  1.1284  0.8368  2.2713
  257MOL0     H35415  11.253   6.783   5.429  2.6131  1.8503  3.0610
  257MOL0     H35416  11.328   6.990   5.612 -0.0215 -1.6501 -1.0319
  257MOL0     H35417  11.472   7.083   5.551  1.0653 -0.4841 -2.8748
  257MOL0     H35418  11.502   6.908   5.736 -1.8604 -0.3797  0.4368
  257MOL0     H35419  11.458   6.788   5.603  2.2260 -1.5483  2.2957
  257MOL0     H35420  11.656   6.901   5.469 -1.1014 -1.6716 -1.7098
  257MOL0     H35421  11.688   6.980   5.623  0.0410  0.2140 -1.0061
  257MOL0     H35422  11.834   6.778   5.572  1.6078  1.6357  1.8673
  257MOL0     H35423  11.786   6.784   5.731 -3.3274  0.9945  1.4125
  257MOL0     H35424  11.893   6.568   5.534  0.2868 -0.1380 -1.0801
  257MOL0     H35425  12.034   6.425   5.400  2.7965 -1.6892 -2.2724
  257MOL0     H35426  11.981   6.510   5.247 -2.3129  0.2192 -0.3029
  257MOL0     H35427  11.963   6.333   5.267  1.2247  1.3022 -1.2205
  257MOL0     H35428  11.721   6.276   4.885  1.2169 -1.0766 -1.4157
  257MOL0     H35429  11.683   6.132   4.702  1.3706 -0.3081  1.4614
  257MOL0     H35430  11.326   5.928   4.521  0.9244  0.1383  0.5576
  257MOL0     H35431  11.277   5.945   4.689  3.1809  1.0997  2.7084
  257MOL0     H35432  11.351   6.197   4.630 -0.2605 -0.7149  1.2886
  257MOL0     H35433  11.314   6.137   4.464  1.6092 -1.9868  0.4900
  257MOL0     H35434  11.120   6.138   4.702 -1.4780  1.9914 -0.0479
  257MOL0     H35435  11.082   6.096   4.532  0.5154 -0.5526 -0.2334
  257MOL0     H35436  11.135   6.310   4.459  0.4209 -4.9980 -0.7270
  257MOL0     H35437  11.204   6.362   4.610 -0.9540  1.2437  0.1133
  257MOL0     H35438  10.893   6.316   4.581 -0.3326  0.2656  1.3142
  257MOL0     H35439  10.976   6.339   4.734 -1.1197 -0.3315  0.5401
  257MOL0     H35440  10.985   6.523   4.488  2.2992  1.6044  0.5255
  257MOL0     H35441  11.062   6.554   4.647 -0.8214 -0.3876  2.0682
  257MOL0     H35442  10.762   6.530   4.602 -0.3010  0.5068  0.4450
  257MOL0     H35443  10.859   6.675   4.601 -1.2695 -1.7568 -3.8775
  257MOL0     H35444  10.929   6.641   4.834  0.8908 -0.2638 -1.3629
  257MOL0     H35445  10.849   6.488   4.850  0.0223 -0.1098  0.6273
  257MOL0     H35446  11.355   5.954   4.869  3.5488 -3.4508 -4.6486
  257MOL0     H35447  11.395   6.089   5.089  2.7032 -2.1370  2.0895
  257MOL0     H35448  11.489   6.367   5.320 -0.2192 -0.1749 -0.4920
  257MOL0     H35449  11.480   6.531   5.527 -0.2357  0.1497 -0.7354
  257MOL0     H35450  11.084   5.833   5.174 -1.3432 -2.0603 -2.2915
  257MOL0     H35451  10.924   5.716   5.068 -0.2713 -0.9926  0.6462
  257MOL0     H35452  10.696   5.501   5.052 -1.1302  6.1322 -3.3345
  257MOL0     H35453  10.641   5.258   4.994  0.9229  1.5785  0.2524
  257MOL0     H35454  10.238   5.095   5.014 -0.9101 -4.0832 -0.4563
  257MOL0     H35455  10.240   5.172   4.847  0.2238  0.8007  0.1965
  257MOL0     H35456  10.192   4.935   4.828  1.0639  1.6813 -4.3339
  257MOL0     H35457  10.318   4.888   4.936 -0.5462 -0.2504 -0.0241
  257MOL0     H35458  10.341   4.937   4.638  1.6312  1.0634 -0.2284
  257MOL0     H35459  10.451   5.023   4.742 -3.5706  1.7349  0.8197
  257MOL0     H35460  10.526   4.770   4.836  0.1800 -2.2966 -1.1199
  257MOL0     H35461  10.552   4.798   4.673 -0.3371 -1.7496 -1.5300
  257MOL0     H35462  10.259   4.493   4.748  3.0750 -1.3454  0.1360
  257MOL0     H35463  10.230   5.344   4.976 -0.0308 -0.9937  0.8043
  257MOL0     H35464  10.240   5.685   5.023 -4.8836 -0.6540 -1.7561
  257MOL0     H35465  10.135   5.564   5.065 -1.4582  3.2202  0.6159
  257MOL0     H35466  10.237   5.644   5.192  2.7580  2.6576 -0.4472
  258MOL0     O35467   0.592   1.131   9.363 -0.0263 -0.6568 -0.6784
  258MOL0     C35468   0.658   1.073   9.281 -0.1698 -0.1268  0.8466
  258MOL0     O35469   0.796   1.040   9.292 -0.6585 -0.1440  0.3749
  258MOL0     C35470   0.883   1.095   9.376 -0.4435  0.1221 -0.3614
  258MOL0     C35471   0.999   1.027   9.404 -0.3788 -0.9719  0.6986
  258MOL0     C35472   1.107   1.079   9.478  0.2519  0.0606  0.0966
  258MOL0     C35473   1.083   1.210   9.533 -0.5569 -1.3428 -0.5620
  258MOL0     O35474   1.165   1.285   9.626 -0.2655  0.3490  0.2871
  258MOL0     C35475   1.291   1.214   9.662 -0.7989 -0.5826 -0.0417
  258MOL0     C35476   1.394   1.305   9.741  0.2065  0.7982  1.2354
  258MOL0     C35477   1.329   1.359   9.861  0.8099  1.0575  0.2388
  258MOL0     C35478   1.427   1.463   9.925  0.1629  0.7805  0.7533
  258MOL0     C35479   1.380   1.495  10.069  0.4120 -0.2595  0.2723
  258MOL0     C35480   1.223   1.539  10.091 -0.7042 -0.0465  0.3693
  258MOL0     C35481   1.195   1.580  10.224  0.2599 -0.0118 -0.7269
  258MOL0     C35482   1.277   1.694  10.269  0.4143 -0.5739  0.0680
  258MOL0     N35483   1.269   1.816  10.184 -0.4662  0.5017 -0.2520
  258MOL0     C35484   1.373   1.839  10.100  0.0607 -0.1853  0.6612
  258MOL0     C35485   1.308   1.937  10.022 -1.1161 -0.0019  0.5532
  258MOL0     C35486   1.371   1.981   9.898  0.0286  0.0084  0.7126
  258MOL0     C35487   1.328   2.124   9.862  0.5343  0.6875  0.1747
  258MOL0     C35488   1.424   2.169   9.753 -0.6706 -1.0004  0.7494
  258MOL0     C35489   1.421   2.088   9.629 -0.0236 -0.3903  0.2635
  258MOL0     O35490   1.297   2.053   9.574  0.4563  0.2617  0.0041
  258MOL0     C35491   1.234   2.131   9.478 -0.3001 -0.7086 -0.0535
  258MOL0     C35492   1.131   2.070   9.412  0.3478  0.1685 -0.7395
  258MOL0     C35493   1.050   2.134   9.323 -0.0203 -0.1248  0.4881
  258MOL0     C35494   0.924   2.065   9.271 -0.3553 -0.3120 -0.4135
  258MOL0     C35495   1.089   2.276   9.289  0.6529  0.0867  0.4409
  258MOL0     C35496   1.025   2.346   9.180 -0.0504  0.3998 -1.3628
  258MOL0     O35497   0.974   2.269   9.086  0.1017  0.2633  0.3838
  258MOL0     C35498   0.877   2.332   9.003  0.5431 -0.4898  0.1138
  258MOL0     C35499   0.761   2.384   9.054  0.6145 -0.0355  0.8184
  258MOL0     C35500   0.677   2.450   8.962 -0.4104  0.0927 -0.5022
  258MOL0     C35501   0.701   2.463   8.829  1.4484 -0.3293  0.3671
  258MOL0     O35502   0.621   2.553   8.751  0.5743 -0.3482  0.0790
  258MOL0     C35503   0.636   2.565   8.614 -0.5770  0.1223 -0.4092
  258MOL0     C35504   0.540   2.660   8.559  0.5821 -1.1624  0.6995
  258MOL0     C35505   0.535   2.797   8.633 -0.1735  0.2624  0.1830
  258MOL0     C35506   0.424   2.881   8.572  0.4040 -0.0573 -0.6817
  258MOL0     C35507   0.442   3.032   8.591 -1.0843 -0.4123 -0.2533
  258MOL0     C35508   0.329   3.104   8.518  0.0024 -0.3351  0.1532
  258MOL0     C35509   0.182   3.052   8.526 -0.1329  0.0249  0.6344
  258MOL0     C35510   0.079   3.142   8.448 -0.4953 -0.3244 -0.6456
  258MOL0    Cl35511  -0.074   3.064   8.430 -0.2294 -0.0658 -0.0002
  258MOL0     C35512   0.817   2.406   8.779  1.0126  0.1985  0.4843
  258MOL0     C35513   0.898   2.336   8.864 -0.0064  0.7562  0.2892
  258MOL0     O35514   1.036   2.462   9.178  0.6229  0.3026 -0.1808
  258MOL0     C35515   1.198   2.327   9.357  0.1792 -0.5512 -0.3667
  258MOL0     C35516   1.267   2.261   9.450 -0.4787 -0.1804 -1.2570
  258MOL0     N35517   1.185   1.979  10.075 -1.0831 -0.2944  1.1797
  258MOL0     N35518   1.162   1.896  10.175  0.3727 -0.5142  0.0295
  258MOL0     C35519   0.971   1.287   9.502 -0.2537  0.2387  0.1899
  258MOL0     C35520   0.866   1.220   9.426  0.2672 -0.5525  0.1161
  258MOL0     C35521   0.603   1.037   9.147  0.8181  0.7264  0.2037
  258MOL0     C35522   0.684   0.978   9.044  0.4781  0.5018  0.1273
  258MOL0     C35523   0.623   0.926   8.926 -0.3964 -0.8716  0.2512
  258MOL0     C35524   0.490   0.947   8.898 -1.2450  0.5494 -1.3960
  258MOL0     O35525   0.448   0.902   8.773  0.1663 -0.1169  0.1351
  258MOL0     C35526   0.312   0.908   8.731  0.3421 -0.5539 -0.2429
  258MOL0     C35527   0.286   1.050   8.682  0.9117 -0.2286  0.1290
  258MOL0     C35528   0.169   1.052   8.585 -0.5155 -0.1701 -0.2041
  258MOL0     C35529   0.103   1.189   8.579 -0.6782  0.1463 -0.6073
  258MOL0     C35530   0.191   1.294   8.556 -0.4104  0.6101 -0.2355
  258MOL0     C35531   0.276   1.377   8.527 -0.2884  0.4708 -0.3412
  258MOL0     C35532   0.414   0.999   9.001  0.6524 -0.8041  0.3894
  258MOL0     C35533   0.459   1.046   9.124 -0.1403 -0.5153 -0.1458
  258MOL0     C35534   0.364   1.110   9.216  0.0517 -0.0116 -0.4229
  258MOL0     H35535   1.017   0.930   9.359  0.9068 -0.1656 -0.6110
  258MOL0     H35536   1.197   1.018   9.484  0.9542  0.7323 -2.3892
  258MOL0     H35537   1.335   1.193   9.565  1.3795  2.3130  0.1974
  258MOL0     H35538   1.273   1.119   9.714  0.3846 -0.8316 -0.0698
  258MOL0     H35539   1.492   1.260   9.759 -0.0621  0.3499  1.5908
  258MOL0     H35540   1.410   1.387   9.670 -0.9568  0.1325  0.1595
  258MOL0     H35541   1.228   1.399   9.848  0.1147 -0.7812 -0.2209
  258MOL0     H35542   1.315   1.270   9.923  0.5238 -1.0542 -2.6968
  258MOL0     H35543   1.531   1.434   9.940 -0.4743 -0.7955  2.5274
  258MOL0     H35544   1.433   1.543   9.851  0.9352  0.9829  1.0320
  258MOL0     H35545   1.442   1.571  10.116  0.3195  0.1341 -0.2400
  258MOL0     H35546   1.409   1.402  10.119  0.0766 -0.6453 -0.2408
  258MOL0     H35547   1.199   1.614  10.015 -0.7635 -3.0819 -2.8178
  258MOL0     H35548   1.159   1.456  10.060 -0.3534  0.0620 -0.6951
  258MOL0     H35549   1.217   1.498  10.294  0.2497 -0.6642 -1.4775
  258MOL0     H35550   1.090   1.608  10.233  0.2059  0.4105 -2.3620
  258MOL0     H35551   1.243   1.722  10.369  4.9091  0.5330  1.5151
  258MOL0     H35552   1.376   1.649  10.286  0.1972 -0.8356  0.6793
  258MOL0     H35553   1.470   1.791  10.087  0.4892  1.0804 -1.1619
  258MOL0     H35554   1.362   1.908   9.817 -0.1206  0.3686  0.4006
  258MOL0     H35555   1.475   1.978   9.932  0.3430 -0.4379 -0.2392
  258MOL0     H35556   1.221   2.123   9.843  0.1099 -2.1830  2.1050
  258MOL0     H35557   1.342   2.190   9.948 -1.9510 -0.9749  1.9982
  258MOL0     H35558   1.400   2.274   9.731  2.5118 -0.4116 -0.3483
  258MOL0     H35559   1.525   2.176   9.793 -0.7497 -0.8258  0.9218
  258MOL0     H35560   1.480   2.139   9.553 -2.1578 -0.3312 -1.4523
  258MOL0     H35561   1.468   1.991   9.647 -1.2813 -1.2601 -0.9358
  258MOL0     H35562   1.104   1.971   9.449  1.2893 -0.1348 -0.8360
  258MOL0     H35563   0.882   1.990   9.339  0.0822  0.2802  0.5205
  258MOL0     H35564   0.933   2.010   9.176 -0.1841  1.7337 -1.6349
  258MOL0     H35565   0.850   2.144   9.259 -1.3141 -1.2197 -0.6448
  258MOL0     H35566   0.739   2.386   9.160  1.8970 -0.1913  1.1101
  258MOL0     H35567   0.580   2.485   8.995 -1.0969 -0.8658 -1.4313
  258MOL0     H35568   0.739   2.582   8.581 -0.3961 -1.1451 -0.5556
  258MOL0     H35569   0.603   2.475   8.561  0.7763  0.3634 -1.7221
  258MOL0     H35570   0.557   2.689   8.455  0.9307 -0.9579  0.8115
  258MOL0     H35571   0.445   2.605   8.561  0.6869 -1.3385  0.8843
  258MOL0     H35572   0.629   2.853   8.625 -0.2522  0.2276 -1.2802
  258MOL0     H35573   0.508   2.783   8.738 -0.6639 -0.3284 -0.0210
  258MOL0     H35574   0.336   2.863   8.634  0.2379  2.3106 -0.1433
  258MOL0     H35575   0.400   2.861   8.468 -0.3952  3.7409 -1.3533
  258MOL0     H35576   0.442   3.058   8.697 -1.7063  2.4683 -0.8764
  258MOL0     H35577   0.536   3.076   8.559 -3.6915  4.3996 -2.3372
  258MOL0     H35578   0.357   3.096   8.412 -1.2987 -1.2881 -0.1333
  258MOL0     H35579   0.335   3.212   8.533 -2.6096 -0.2048  0.7462
  258MOL0     H35580   0.155   3.060   8.631 -1.6538  0.5855  0.2366
  258MOL0     H35581   0.166   2.953   8.482 -0.8072  0.0801  0.7462
  258MOL0     H35582   0.113   3.175   8.349 -3.8439  0.2601 -1.7285
  258MOL0     H35583   0.060   3.233   8.505 -0.8834 -1.4409  1.0682
  258MOL0     H35584   0.851   2.413   8.676  0.2818 -0.6576  0.1686
  258MOL0     H35585   0.985   2.293   8.815  0.0279 -0.9362  1.7526
  258MOL0     H35586   1.222   2.431   9.340  0.3689 -0.3230  1.1142
  258MOL0     H35587   1.336   2.306   9.521 -0.3045 -0.0486 -1.5054
  258MOL0     H35588   0.970   1.392   9.530  1.9689  0.2355  0.4555
  258MOL0     H35589   0.787   1.294   9.411  1.8516  1.4379  1.0700
  258MOL0     H35590   0.790   0.960   9.057  0.4007 -2.4529 -2.3495
  258MOL0     H35591   0.680   0.876   8.848 -3.2017 -0.2990 -2.3634
  258MOL0     H35592   0.300   0.841   8.645  0.4362  0.0559 -0.7376
  258MOL0     H35593   0.246   0.884   8.814  0.5730 -1.3593 -0.2857
  258MOL0     H35594   0.373   1.081   8.623  0.4645 -0.7393 -0.8260
  258MOL0     H35595   0.276   1.123   8.763  2.4284  0.3050 -0.1198
  258MOL0     H35596   0.197   1.023   8.484 -0.1865 -2.0452  0.3829
  258MOL0     H35597   0.104   0.978   8.633 -2.3390  1.0308 -0.7185
  258MOL0     H35598   0.049   1.204   8.673  1.3411 -0.0389  0.6525
  258MOL0     H35599   0.043   1.182   8.488 -1.2463 -0.7212 -0.1814
  258MOL0     H35600   0.352   1.452   8.517  1.4948 -1.3447 -1.2330
  258MOL0     H35601   0.314   1.026   8.970  1.6229  0.0341 -2.3070
  258MOL0     H35602   0.361   1.057   9.312 -0.6967 -1.3162 -1.1266
  258MOL0     H35603   0.396   1.214   9.226  0.9493 -0.3447  0.2550
  258MOL0     H35604   0.265   1.114   9.170  0.5775 -1.7146 -1.8178
  259MOL0     O35605   1.030   9.160  10.577  0.7206 -0.5532  0.0214
  259MOL0     C35606   0.914   9.166  10.621  0.3028  0.0906 -0.3410
  259MOL0     O35607   0.818   9.074  10.592 -0.4648  0.2259  0.4622
  259MOL0     C35608   0.840   9.007  10.475 -0.1106  0.1641  0.1320
  259MOL0     C35609   0.921   8.895  10.473  0.0564  0.2334  0.1855
  259MOL0     C35610   0.949   8.822  10.357 -0.0775 -0.1971 -0.1811
  259MOL0     C35611   0.897   8.869  10.232 -0.1053  0.2669 -0.7397
  259MOL0     O35612   0.952   8.806  10.127  0.2428 -0.2368  0.3886
  259MOL0     C35613   0.858   8.806  10.013 -0.4840  0.2642 -0.1027
  259MOL0     C35614   0.739   8.716  10.039  0.1130  0.7354  0.3562
  259MOL0     C35615   0.625   8.702   9.932 -0.3898 -0.3934 -0.7236
  259MOL0     C35616   0.533   8.578   9.975 -0.2500 -0.7940  0.9324
  259MOL0     C35617   0.454   8.547   9.849  0.2096 -0.8020 -0.4981
  259MOL0     C35618   0.324   8.467   9.882  0.6643  0.0267 -0.4814
  259MOL0     C35619   0.198   8.547   9.926 -0.4074  0.9790  0.1028
  259MOL0     C35620   0.085   8.449   9.945 -0.1161  0.6434 -0.2869
  259MOL0     N35621  -0.032   8.516  10.007 -0.8762 -0.1551  0.7329
  259MOL0     C35622  -0.074   8.649   9.973 -0.1437  0.4288 -1.1367
  259MOL0     C35623  -0.156   8.685  10.081 -0.3272  0.4825  0.6512
  259MOL0     C35624  -0.223   8.814  10.097 -0.2574 -0.4812  0.2128
  259MOL0     C35625  -0.114   8.907  10.136 -1.0426 -0.4631  0.2089
  259MOL0     C35626  -0.042   8.861  10.259 -0.5039 -0.5226  0.7574
  259MOL0     C35627   0.051   8.971  10.305  0.2524 -0.1196  0.4531
  259MOL0     O35628  -0.018   9.081  10.343  0.4833  0.4187 -0.4276
  259MOL0     C35629  -0.001   9.131  10.470 -1.6135 -0.8175 -0.7082
  259MOL0     C35630   0.009   9.072  10.595 -0.6607  0.4330 -0.6503
  259MOL0     C35631   0.005   9.151  10.709  0.1332 -0.0017 -1.4217
  259MOL0     C35632   0.031   9.074  10.834 -0.1691 -0.0357 -0.0955
  259MOL0     C35633  -0.003   9.294  10.714 -0.5731 -1.0780  0.0436
  259MOL0     C35634  -0.012   9.374  10.837 -0.3881 -0.8078 -0.3837
  259MOL0     O35635  -0.023   9.310  10.956  0.2894 -0.3798 -1.0551
  259MOL0     C35636  -0.019   9.373  11.077  0.3091  0.0719  0.3511
  259MOL0     C35637  -0.025   9.506  11.105 -0.1200 -0.0289  0.3346
  259MOL0     C35638  -0.015   9.558  11.238 -0.3837  0.2862  0.5394
  259MOL0     C35639   0.028   9.460  11.336  0.2562 -0.3043  0.3025
  259MOL0     O35640   0.074   9.495  11.456 -0.1813 -0.3315  0.2428
  259MOL0     C35641   0.042   9.619  11.518  0.6362 -0.0559  0.4451
  259MOL0     C35642   0.168   9.689  11.537 -0.1878 -0.3254 -0.5099
  259MOL0     C35643   0.171   9.776  11.662  0.0908 -0.2221 -0.4447
  259MOL0     C35644   0.306   9.843  11.673  0.8982  0.4565 -0.9339
  259MOL0     C35645   0.312   9.945  11.792  0.1078 -0.1687  0.1054
  259MOL0     C35646   0.393  10.066  11.754 -0.4687 -0.3532 -0.2301
  259MOL0     C35647   0.318  10.160  11.655  0.0471  0.3273 -0.1171
  259MOL0     C35648   0.409  10.282  11.646 -0.1779  1.3166  0.1846
  259MOL0    Cl35649   0.488  10.356  11.783 -0.2680  0.2914  0.1240
  259MOL0     C35650   0.018   9.320  11.303  0.4927 -0.3034 -0.9193
  259MOL0     C35651  -0.001   9.287  11.177 -0.9434  0.8627  0.4731
  259MOL0     O35652   0.000   9.498  10.821  0.5497  0.4346  0.8211
  259MOL0     C35653  -0.015   9.353  10.590  0.2162  0.0636  1.4039
  259MOL0     C35654  -0.021   9.277  10.474  0.3518  0.5835  0.0531
  259MOL0     N35655  -0.139   8.584  10.176 -0.4152 -0.4113 -0.4496
  259MOL0     N35656  -0.071   8.493  10.131 -1.2355  1.0943 -0.4578
  259MOL0     C35657   0.816   8.985  10.239 -0.3491 -0.3907  0.3816
  259MOL0     C35658   0.793   9.059  10.351  0.4750  0.5104 -0.3357
  259MOL0     C35659   0.869   9.263  10.725 -0.2069 -0.7617 -0.5500
  259MOL0     C35660   0.742   9.247  10.788 -0.6283  0.4452  0.3132
  259MOL0     C35661   0.696   9.326  10.894 -0.5757  0.9740  0.2733
  259MOL0     C35662   0.775   9.431  10.946 -0.2338 -0.0359  0.3543
  259MOL0     O35663   0.730   9.515  11.048 -0.6025 -0.6391 -0.1051
  259MOL0     C35664   0.615   9.474  11.128  0.6096  0.0172  0.4799
  259MOL0     C35665   0.477   9.506  11.072 -0.1159  0.9749  0.5050
  259MOL0     C35666   0.436   9.651  11.086 -0.1809 -0.3574 -0.5915
  259MOL0     C35667   0.311   9.670  11.009 -0.1568 -0.4660 -0.2544
  259MOL0     C35668   0.252   9.800  11.024  0.7244  0.5467  0.1668
  259MOL0     C35669   0.206   9.913  11.052 -0.4134  0.1439 -0.5774
  259MOL0     C35670   0.900   9.453  10.878  0.8239 -0.1921 -0.9607
  259MOL0     C35671   0.949   9.378  10.767  0.2127 -0.6834 -0.3757
  259MOL0     C35672   1.089   9.413  10.717 -0.0085 -0.9098 -0.1308
  259MOL0     H35673   0.960   8.869  10.571 -0.7685 -2.7089 -0.1913
  259MOL0     H35674   1.017   8.739  10.370  0.5227  0.3889  0.5043
  259MOL0     H35675   0.911   8.763   9.928 -0.2936  1.6181 -0.7024
  259MOL0     H35676   0.837   8.909   9.981 -0.8987  0.0680 -0.4667
  259MOL0     H35677   0.781   8.616  10.054 -0.9957  0.2807  0.4843
  259MOL0     H35678   0.698   8.757  10.132 -0.1366  2.1488 -0.3601
  259MOL0     H35679   0.566   8.793   9.917  0.1037 -0.2985 -2.2468
  259MOL0     H35680   0.669   8.693   9.833 -2.5077  3.8249 -2.2986
  259MOL0     H35681   0.593   8.489   9.993  0.3682 -0.4208  0.7610
  259MOL0     H35682   0.467   8.610  10.056  0.8631  4.0975  0.2465
  259MOL0     H35683   0.520   8.500   9.776  1.1841  2.1709 -1.6594
  259MOL0     H35684   0.425   8.645   9.811  0.3815 -1.4524 -2.3915
  259MOL0     H35685   0.290   8.429   9.785 -1.4938  1.9311 -0.5622
  259MOL0     H35686   0.350   8.385   9.950  0.3396 -0.1547 -0.5735
  259MOL0     H35687   0.181   8.617   9.844  1.8002 -0.0298 -1.3325
  259MOL0     H35688   0.206   8.603  10.020  0.2129 -1.0053  1.3006
  259MOL0     H35689   0.060   8.401   9.850  0.7061  1.4986 -0.9506
  259MOL0     H35690   0.099   8.360  10.006 -0.0452 -0.3813 -1.7622
  259MOL0     H35691  -0.045   8.706   9.885 -0.3427  0.4921 -1.1621
  259MOL0     H35692  -0.299   8.809  10.175  1.2892  2.7301  2.1743
  259MOL0     H35693  -0.256   8.845   9.998 -0.2533 -3.5984 -0.8622
  259MOL0     H35694  -0.045   8.925  10.053  2.1925  1.8430  3.0835
  259MOL0     H35695  -0.160   9.004  10.157 -3.0830 -0.8036 -2.2695
  259MOL0     H35696  -0.116   8.831  10.333 -1.3949 -1.0542 -0.3216
  259MOL0     H35697   0.017   8.771  10.234  2.4435  1.3410  0.4691
  259MOL0     H35698   0.116   8.928  10.382  0.3504  0.4203  0.6726
  259MOL0     H35699   0.107   8.998  10.215  0.9647 -3.9859 -0.4340
  259MOL0     H35700   0.018   8.964  10.604  0.4793  0.6729  2.0242
  259MOL0     H35701  -0.045   9.084  10.912  0.3384  1.9103  0.2061
  259MOL0     H35702   0.122   9.115  10.879  0.6368  0.4174 -1.9982
  259MOL0     H35703   0.038   8.966  10.816 -0.3893  0.1306 -1.2783
  259MOL0     H35704  -0.021   9.585  11.031 -0.4510  2.3055  2.6698
  259MOL0     H35705  -0.001   9.665  11.246 -2.5343  0.5215  1.7811
  259MOL0     H35706  -0.018   9.688  11.458  0.3061  2.0301  2.9957
  259MOL0     H35707  -0.003   9.604  11.617  0.3507  0.9305  0.4770
  259MOL0     H35708   0.254   9.621  11.546  1.3786  1.6613  0.2074
  259MOL0     H35709   0.186   9.749  11.448 -0.8281 -1.8151 -1.7057
  259MOL0     H35710   0.142   9.724  11.754 -1.4612  2.7953  0.9067
  259MOL0     H35711   0.093   9.851  11.648  0.5022  0.1624 -0.6892
  259MOL0     H35712   0.324   9.890  11.576  2.2632  2.6386  0.2892
  259MOL0     H35713   0.379   9.764  11.694  0.3816  0.5072  1.3598
  259MOL0     H35714   0.209   9.975  11.811  0.0764 -0.0610 -0.2345
  259MOL0     H35715   0.355   9.898  11.882  1.2377  0.0606 -0.3007
  259MOL0     H35716   0.493  10.050  11.713  1.0108  0.9552  2.5591
  259MOL0     H35717   0.416  10.110  11.852  2.6462 -3.1590  0.4723
  259MOL0     H35718   0.224  10.183  11.706 -0.6766  1.7780 -2.0353
  259MOL0     H35719   0.301  10.112  11.558  0.0144 -0.2459  0.1635
  259MOL0     H35720   0.362  10.372  11.605  3.2434  3.9770  1.6466
  259MOL0     H35721   0.477  10.244  11.569 -0.1043  2.5011 -0.3612
  259MOL0     H35722   0.043   9.246  11.379 -1.3030  1.2030  1.2715
  259MOL0     H35723  -0.020   9.185  11.146  2.0027  0.3552 -0.0056
  259MOL0     H35724  -0.016   9.462  10.586 -0.5130  0.0256 -0.9678
  259MOL0     H35725  -0.051   9.327  10.383  2.8583  1.0488 -0.5826
  259MOL0     H35726   0.783   9.029  10.145 -2.4547 -0.6674  0.9295
  259MOL0     H35727   0.732   9.149  10.353 -0.7650 -0.2974 -0.2882
  259MOL0     H35728   0.679   9.161  10.768  2.4764 -2.6721  2.6707
  259MOL0     H35729   0.602   9.296  10.939  0.5259 -3.3303  0.0938
  259MOL0     H35730   0.611   9.365  11.140 -0.1702  0.0987  1.0251
  259MOL0     H35731   0.618   9.529  11.223  0.5909 -2.4542  1.9945
  259MOL0     H35732   0.411   9.444  11.134  3.8202 -3.8410  0.5920
  259MOL0     H35733   0.465   9.472  10.968 -0.3037 -0.8693  1.0881
  259MOL0     H35734   0.428   9.678  11.192 -0.5588 -0.5921 -0.5578
  259MOL0     H35735   0.508   9.709  11.027  1.7635 -2.6090 -0.5852
  259MOL0     H35736   0.240   9.589  11.026  1.0909 -1.5180  0.1569
  259MOL0     H35737   0.349   9.656  10.907 -1.7656 -0.2681 -0.9098
  259MOL0     H35738   0.146   9.999  11.076 -1.3865 -0.1744 -1.7573
  259MOL0     H35739   0.965   9.521  10.933  0.0248 -0.0949 -0.1255
  259MOL0     H35740   1.085   9.440  10.611 -0.6268  0.2044  0.1585
  259MOL0     H35741   1.127   9.496  10.778  0.0162  0.2475 -1.6728
  259MOL0     H35742   1.149   9.323  10.727  1.8080  0.2632  0.0415
  260MOL0     O35743   6.620   8.863   8.572  0.2070 -0.3092 -0.1071
  260MOL0     C35744   6.679   8.774   8.633  0.3905 -0.6738  0.7277
  260MOL0     O35745   6.816   8.756   8.638  1.1321 -0.1425 -0.3381
  260MOL0     C35746   6.909   8.828   8.571  0.8187 -0.2652  0.9416
  260MOL0     C35747   7.032   8.821   8.631  0.8036  0.0862  0.5888
  260MOL0     C35748   7.131   8.895   8.571 -1.2823  0.5719 -0.0743
  260MOL0     C35749   7.121   8.957   8.443 -0.3378  0.0526 -0.8265
  260MOL0     O35750   7.219   9.027   8.382  0.6411 -0.4998  0.3918
  260MOL0     C35751   7.339   9.070   8.459  0.1123  0.3358  0.2593
  260MOL0     C35752   7.300   9.166   8.576 -0.0181  0.3456 -0.1641
  260MOL0     C35753   7.206   9.286   8.529 -0.0785  0.0234  0.0995
  260MOL0     C35754   7.289   9.401   8.468 -0.7640  0.3307  0.1021
  260MOL0     C35755   7.211   9.535   8.491 -0.4311 -0.1125  0.9495
  260MOL0     C35756   7.074   9.552   8.431 -0.3967 -0.2841  0.6724
  260MOL0     C35757   6.995   9.643   8.522 -0.0196  0.3174 -0.5832
  260MOL0     C35758   6.869   9.701   8.449 -0.0540  0.5210 -0.5661
  260MOL0     N35759   6.794   9.808   8.524  0.0845  0.0055 -0.3706
  260MOL0     C35760   6.653   9.827   8.533  0.3237 -0.4949  0.6901
  260MOL0     C35761   6.645   9.959   8.567  0.1321  2.0207 -0.3160
  260MOL0     C35762   6.511  10.034   8.582 -0.3192  0.8549 -0.1612
  260MOL0     C35763   6.492  10.108   8.450  0.2129 -0.1605  0.7496
  260MOL0     C35764   6.409  10.235   8.482  0.0848 -0.2918 -0.0524
  260MOL0     C35765   6.406  10.326   8.363  0.3855  0.6545  0.4010
  260MOL0     O35766   6.536  10.391   8.333 -0.0077 -0.1204  0.1284
  260MOL0     C35767   6.535  10.479   8.225  0.0360 -0.6537 -0.4349
  260MOL0     C35768   6.424  10.494   8.138 -0.1709 -0.1564 -0.7879
  260MOL0     C35769   6.436  10.573   8.019  0.7563  0.4918 -0.5087
  260MOL0     C35770   6.315  10.585   7.938  0.0079 -0.1609 -0.1083
  260MOL0     C35771   6.555  10.631   7.984  0.0248  0.2006  1.3933
  260MOL0     C35772   6.582  10.709   7.855 -0.8939 -0.6262 -0.6616
  260MOL0     O35773   6.478  10.764   7.793 -0.6227 -0.2224  0.4088
  260MOL0     C35774   6.496  10.833   7.677  0.2285  0.2740  0.3581
  260MOL0     C35775   6.494  10.974   7.668 -0.3858  0.5677 -0.1230
  260MOL0     C35776   6.521  11.028   7.541 -0.6851  0.6995  0.5560
  260MOL0     C35777   6.545  10.952   7.425 -0.1836  0.1530 -0.4702
  260MOL0     O35778   6.566  11.011   7.311  0.0060 -0.0966  0.1007
  260MOL0     C35779   6.460  11.037   7.218  0.2315  0.8587 -0.5141
  260MOL0     C35780   6.521  11.080   7.088  0.0006  0.5799 -0.1211
  260MOL0     C35781   6.587  11.209   7.085  0.8170  0.5036 -0.0721
  260MOL0     C35782   6.597  11.254   6.939 -0.2647 -0.0528  0.1830
  260MOL0     C35783   6.702  11.365   6.930  0.8148 -0.1525  0.5097
  260MOL0     C35784   6.649  11.495   6.991 -0.3917 -0.2626 -0.3160
  260MOL0     C35785   6.770  11.597   6.993  1.0272  0.1973  0.2638
  260MOL0     C35786   6.739  11.744   7.021  0.8036 -0.1775 -0.6947
  260MOL0    Cl35787   6.616  11.754   7.143  0.5900 -0.0695 -0.3350
  260MOL0     C35788   6.527  10.815   7.438 -0.2911  0.0697  0.7143
  260MOL0     C35789   6.508  10.754   7.563  0.2212 -0.6371 -0.3770
  260MOL0     O35790   6.700  10.727   7.822  0.6082  0.6228  0.3161
  260MOL0     C35791   6.664  10.607   8.069 -0.6801 -0.3653 -0.1759
  260MOL0     C35792   6.652  10.550   8.193  0.0505 -0.3496 -0.0070
  260MOL0     N35793   6.771  10.017   8.570  0.5231  0.4944 -0.3091
  260MOL0     N35794   6.854   9.925   8.553 -0.0668 -0.5268  0.9621
  260MOL0     C35795   6.996   8.961   8.382 -0.4085  0.2099 -0.5641
  260MOL0     C35796   6.892   8.894   8.448  0.4739  0.1719  0.7524
  260MOL0     C35797   6.597   8.692   8.732 -0.2759  0.0877 -0.0546
  260MOL0     C35798   6.667   8.622   8.835  0.0422  0.3646  0.1093
  260MOL0     C35799   6.591   8.550   8.930  0.8551 -0.2698 -0.2595
  260MOL0     C35800   6.453   8.526   8.925  0.3826  0.3537 -0.5825
  260MOL0     O35801   6.400   8.438   9.016 -0.8007  0.4695 -0.4340
  260MOL0     C35802   6.258   8.426   9.037  1.4792  0.1427 -0.1987
  260MOL0     C35803   6.200   8.333   8.928 -0.4166 -0.7730  0.3559
  260MOL0     C35804   6.047   8.353   8.917 -0.5080 -0.0535 -0.3670
  260MOL0     C35805   5.971   8.299   9.037 -0.6001  0.6797  0.3314
  260MOL0     C35806   5.993   8.154   9.034  0.5588 -0.0147  0.2621
  260MOL0     C35807   6.004   8.032   9.035  0.2981  0.5990  0.3090
  260MOL0     C35808   6.380   8.591   8.822 -0.0722 -0.0048 -0.2895
  260MOL0     C35809   6.450   8.684   8.734 -0.0860 -0.3374 -0.8750
  260MOL0     C35810   6.357   8.754   8.641  0.8211 -0.2469 -0.3527
  260MOL0     H35811   7.062   8.756   8.712  1.6206 -0.0751  0.1740
  260MOL0     H35812   7.226   8.886   8.622 -0.7603  3.5405 -0.3530
  260MOL0     H35813   7.409   9.120   8.393  0.1909  0.3886  0.3833
  260MOL0     H35814   7.395   8.986   8.502 -1.0307 -1.0769 -0.8624
  260MOL0     H35815   7.237   9.116   8.650 -0.6306  2.8083  1.0928
  260MOL0     H35816   7.391   9.187   8.633  0.0601 -2.9778  1.1355
  260MOL0     H35817   7.117   9.264   8.469  1.1352  0.2224 -1.8624
  260MOL0     H35818   7.170   9.331   8.622 -3.6224 -1.1498 -0.5574
  260MOL0     H35819   7.390   9.394   8.510 -0.4217  0.2500 -0.7267
  260MOL0     H35820   7.295   9.384   8.360 -0.7725  1.2222 -0.0503
  260MOL0     H35821   7.271   9.615   8.445 -2.4961  0.5598 -0.7753
  260MOL0     H35822   7.195   9.546   8.598  2.3637 -1.4319  1.5777
  260MOL0     H35823   7.073   9.591   8.328 -0.7529  1.6788  1.3807
  260MOL0     H35824   7.026   9.454   8.426  2.0684 -1.5660  0.5860
  260MOL0     H35825   7.050   9.732   8.554 -1.3056  1.0964 -0.4711
  260MOL0     H35826   6.954   9.583   8.604 -2.0673  2.9690  0.4921
  260MOL0     H35827   6.915   9.763   8.371  4.1326 -0.5479  0.8028
  260MOL0     H35828   6.797   9.630   8.408  1.4428 -0.4142 -1.6667
  260MOL0     H35829   6.572   9.757   8.517  1.6133 -1.8018 -0.4771
  260MOL0     H35830   6.529  10.104   8.664  0.3350 -1.2703  1.5871
  260MOL0     H35831   6.424   9.970   8.596  0.3072  0.1079  0.4638
  260MOL0     H35832   6.588  10.140   8.407  0.0865 -2.2423 -1.2984
  260MOL0     H35833   6.443  10.038   8.381 -1.8212  0.7111  1.2563
  260MOL0     H35834   6.313  10.203   8.523  0.5787  0.8748  2.1713
  260MOL0     H35835   6.456  10.289   8.564 -1.3880  1.4224 -0.2577
  260MOL0     H35836   6.375  10.263   8.279 -0.6537  1.0446  0.4880
  260MOL0     H35837   6.327  10.394   8.393  0.0612 -0.0206  1.1028
  260MOL0     H35838   6.332  10.439   8.156 -1.0965  1.4772 -0.3070
  260MOL0     H35839   6.226  10.550   7.992 -0.2969  1.4205  0.4405
  260MOL0     H35840   6.333  10.536   7.842  2.0388 -2.1447  1.1925
  260MOL0     H35841   6.288  10.690   7.923  0.4104  0.0870  0.8306
  260MOL0     H35842   6.465  11.030   7.756 -2.0933 -1.6502  0.8449
  260MOL0     H35843   6.535  11.136   7.539  1.4943  0.4670  0.6549
  260MOL0     H35844   6.402  10.950   7.185  0.6124  0.2025  0.5029
  260MOL0     H35845   6.393  11.114   7.258 -1.0343 -1.1632  1.4914
  260MOL0     H35846   6.586  10.992   7.078  0.5546  0.9817 -0.0788
  260MOL0     H35847   6.444  11.087   7.011 -2.1172 -0.4996  1.7846
  260MOL0     H35848   6.686  11.186   7.126  0.6307 -1.1049 -0.4723
  260MOL0     H35849   6.543  11.286   7.150  2.0388  0.1496  1.2290
  260MOL0     H35850   6.495  11.277   6.909  0.2055 -0.3280 -1.7258
  260MOL0     H35851   6.632  11.168   6.881  0.3140  1.7362 -2.3018
  260MOL0     H35852   6.791  11.332   6.985  0.8481 -1.6505 -0.3863
  260MOL0     H35853   6.724  11.375   6.824  0.1912 -1.8075  0.1898
  260MOL0     H35854   6.593  11.485   7.084  0.6459 -0.4432  0.3004
  260MOL0     H35855   6.585  11.533   6.910  1.2587  1.1681 -1.0205
  260MOL0     H35856   6.816  11.589   6.894 -1.1294  2.2455 -1.0345
  260MOL0     H35857   6.831  11.555   7.073  0.6934 -2.3695 -0.7380
  260MOL0     H35858   6.711  11.804   6.934  3.6018  0.0757 -1.4853
  260MOL0     H35859   6.832  11.778   7.068  0.1880  1.1021 -0.3418
  260MOL0     H35860   6.520  10.756   7.347  0.7421  0.7571  0.1759
  260MOL0     H35861   6.502  10.646   7.574 -0.2193 -0.3828  3.2775
  260MOL0     H35862   6.758  10.657   8.049 -0.6678 -1.0155 -1.8953
  260MOL0     H35863   6.738  10.547   8.259 -1.5135  0.3245  2.2062
  260MOL0     H35864   6.981   9.022   8.293 -5.4657  0.8955  0.4058
  260MOL0     H35865   6.791   8.905   8.409 -0.6253 -3.1544  2.2756
  260MOL0     H35866   6.773   8.629   8.855 -0.0055 -1.3138  1.1610
  260MOL0     H35867   6.642   8.504   9.014 -2.5392 -0.5315  1.8593
  260MOL0     H35868   6.248   8.380   9.136 -2.1690 -0.5690 -0.7614
  260MOL0     H35869   6.207   8.523   9.039 -0.5972 -0.8274 -2.0631
  260MOL0     H35870   6.232   8.232   8.956  3.0677  0.3040  0.7240
  260MOL0     H35871   6.237   8.366   8.830 -0.7500  0.1422  0.5382
  260MOL0     H35872   6.013   8.457   8.920 -1.6361 -0.4177  2.0991
  260MOL0     H35873   6.016   8.310   8.822 -0.4490 -1.2134  0.1229
  260MOL0     H35874   5.865   8.321   9.021  0.3316  5.5435 -0.7715
  260MOL0     H35875   5.992   8.343   9.135  0.1341 -2.0995  1.5412
  260MOL0     H35876   6.019   7.926   9.032 -1.0605  0.4141 -1.5074
  260MOL0     H35877   6.272   8.582   8.815  0.1508 -2.4091 -1.3021
  260MOL0     H35878   6.357   8.710   8.540  3.2074 -2.1876  0.3980
  260MOL0     H35879   6.252   8.755   8.669  0.2892 -4.7264 -1.4409
  260MOL0     H35880   6.391   8.858   8.644  2.3448 -0.7500  1.6442
  261MOL0     O35881   5.821   5.482   9.834  0.5151  0.7046  0.2435
  261MOL0     C35882   5.946   5.453   9.840  0.1441  0.9076  0.2094
  261MOL0     O35883   6.020   5.434   9.952  0.5609  0.0780  0.3390
  261MOL0     C35884   5.957   5.403  10.071 -1.4000  0.6844 -1.0675
  261MOL0     C35885   6.024   5.442  10.183 -1.0386  0.1380 -0.5778
  261MOL0     C35886   5.987   5.410  10.315 -1.2366  0.2054  0.7889
  261MOL0     C35887   5.863   5.345  10.337 -0.2644 -0.6925 -0.2602
  261MOL0     O35888   5.813   5.312  10.458  0.7986 -0.0005  0.1855
  261MOL0     C35889   5.904   5.320  10.575 -0.1474  0.4920 -0.5758
  261MOL0     C35890   5.814   5.330  10.687 -0.5786 -0.2735  0.5436
  261MOL0     C35891   5.901   5.312  10.813  0.5536 -1.7279 -0.6915
  261MOL0     C35892   5.814   5.266  10.928  0.3502 -0.2224 -0.8283
  261MOL0     C35893   5.869   5.315  11.063 -0.1319  0.1177 -0.0163
  261MOL0     C35894   5.787   5.251  11.180 -0.0535 -0.3246 -0.4366
  261MOL0     C35895   5.834   5.273  11.325 -0.9759 -0.4937  0.0527
  261MOL0     C35896   5.974   5.207  11.344 -0.0306 -0.2161 -0.0238
  261MOL0     N35897   5.954   5.066  11.326  0.0168 -0.4823 -0.6582
  261MOL0     C35898   5.921   4.985  11.432 -0.5351  0.6022  0.3196
  261MOL0     C35899   5.918   4.861  11.378 -0.8296 -0.3439 -0.1620
  261MOL0     C35900   5.858   4.739  11.444 -0.7209  0.1214 -0.0167
  261MOL0     C35901   5.937   4.641  11.532  0.0592  0.2652 -0.6897
  261MOL0     C35902   5.967   4.688  11.680  0.3016  0.4625  1.4543
  261MOL0     C35903   6.083   4.612  11.726 -0.2165  0.2953  0.0623
  261MOL0     O35904   6.130   4.673  11.849 -0.3214 -0.3654 -0.2743
  261MOL0     C35905   6.229   4.614  11.927 -0.0417 -0.0363  0.5884
  261MOL0     C35906   6.296   4.695  12.020  0.3308  0.1415  0.2316
  261MOL0     C35907   6.395   4.640  12.107  0.6393  0.2027  0.5221
  261MOL0     C35908   6.454   4.736  12.211  0.5587  0.1184  0.0777
  261MOL0     C35909   6.430   4.501  12.107 -0.3601  0.0049 -0.3012
  261MOL0     C35910   6.528   4.434  12.189 -0.0235 -0.1019  0.6893
  261MOL0     O35911   6.535   4.475  12.317 -0.1320 -0.7252  0.7793
  261MOL0     C35912   6.609   4.397  12.398 -0.5872  0.4312  0.6447
  261MOL0     C35913   6.733   4.447  12.432 -0.0618 -0.1209 -0.2876
  261MOL0     C35914   6.816   4.399  12.530 -0.4857  0.8582 -0.5169
  261MOL0     C35915   6.775   4.278  12.598 -0.3587 -0.8319 -0.2362
  261MOL0     O35916   6.844   4.230  12.706  0.7166 -0.6277 -0.4614
  261MOL0     C35917   6.974   4.272  12.744 -0.3738 -0.0857  0.9281
  261MOL0     C35918   7.027   4.183  12.857 -0.5648 -0.3380  1.1835
  261MOL0     C35919   6.941   4.199  12.982  0.4000 -0.4905  0.3748
  261MOL0     C35920   6.987   4.094  13.093  0.0755 -0.5995 -0.2174
  261MOL0     C35921   6.894   4.122  13.217  0.1273  0.9060  1.1371
  261MOL0     C35922   6.910   4.016  13.336  0.1568  0.7098  0.7797
  261MOL0     C35923   7.042   4.037  13.405 -0.3622 -0.0175 -0.2610
  261MOL0     C35924   7.069   3.936  13.517 -0.4202  0.4027  0.3108
  261MOL0    Cl35925   7.059   3.754  13.463 -0.3265 -0.4302 -0.1434
  261MOL0     C35926   6.655   4.211  12.552  0.7697 -0.5637  0.7236
  261MOL0     C35927   6.571   4.270  12.455 -0.5701 -0.0747  0.4145
  261MOL0     O35928   6.582   4.338  12.145  0.0320 -0.5134 -0.1825
  261MOL0     C35929   6.367   4.427  12.005  0.4013 -0.3947 -0.0363
  261MOL0     C35930   6.273   4.480  11.916 -0.5693  0.1447  0.8269
  261MOL0     N35931   5.955   4.872  11.247 -0.6088  0.3479  0.3696
  261MOL0     N35932   5.982   4.994  11.218 -0.6548 -0.7304 -0.2178
  261MOL0     C35933   5.789   5.314  10.221 -0.3606 -0.5402 -0.5529
  261MOL0     C35934   5.837   5.342  10.094  0.1413  0.1021 -0.1832
  261MOL0     C35935   6.028   5.473   9.723  0.6825  0.2244  0.1368
  261MOL0     C35936   6.107   5.365   9.681  0.0877  0.9105  0.6772
  261MOL0     C35937   6.165   5.378   9.561  0.1555 -0.9536  0.2582
  261MOL0     C35938   6.158   5.496   9.481  0.2699 -0.8780 -0.9910
  261MOL0     O35939   6.237   5.500   9.374 -0.1795 -0.2476  0.3647
  261MOL0     C35940   6.358   5.581   9.375  0.7874  0.3817 -0.1872
  261MOL0     C35941   6.465   5.502   9.306  0.2570 -0.8615 -0.2647
  261MOL0     C35942   6.488   5.357   9.354  0.1920  0.0019 -0.2781
  261MOL0     C35943   6.544   5.332   9.495  0.7953 -0.4120  1.1417
  261MOL0     C35944   6.682   5.364   9.506  0.8173  0.5939 -0.3270
  261MOL0     C35945   6.795   5.395   9.527  0.1143 -0.3735 -0.6716
  261MOL0     C35946   6.084   5.605   9.519 -0.1520 -0.3466  0.2314
  261MOL0     C35947   6.019   5.593   9.646 -0.1783  0.0231 -0.3256
  261MOL0     C35948   5.941   5.715   9.689  0.6959 -0.3675  0.1577
  261MOL0     H35949   6.117   5.498  10.177 -1.6959  1.3471  0.1670
  261MOL0     H35950   6.056   5.415  10.398 -1.8664  1.2406  1.2703
  261MOL0     H35951   5.967   5.409  10.575  0.5951  0.0191  1.2423
  261MOL0     H35952   5.963   5.228  10.585 -1.0376  0.0264  0.7320
  261MOL0     H35953   5.769   5.430  10.688  0.0360  0.1998 -3.3971
  261MOL0     H35954   5.731   5.259  10.682 -0.1788 -0.6851 -0.5087
  261MOL0     H35955   5.981   5.238  10.798  0.0971 -2.1747 -0.9466
  261MOL0     H35956   5.940   5.411  10.838 -2.8377 -0.3266 -0.4515
  261MOL0     H35957   5.712   5.305  10.927  0.8787  1.5718  2.2457
  261MOL0     H35958   5.812   5.157  10.921  2.7276 -0.4153  0.1938
  261MOL0     H35959   5.843   5.421  11.072 -0.5095  0.0979 -0.8129
  261MOL0     H35960   5.976   5.295  11.072 -0.5414 -2.3593 -0.0289
  261MOL0     H35961   5.687   5.294  11.172 -0.3255 -0.9631 -0.5051
  261MOL0     H35962   5.776   5.145  11.155 -0.1797 -0.7650  1.4100
  261MOL0     H35963   5.756   5.245  11.396 -2.7624  2.0184 -0.7475
  261MOL0     H35964   5.840   5.380  11.349 -1.2682 -0.0356 -1.7377
  261MOL0     H35965   6.047   5.253  11.275  1.5752 -1.5266  0.7410
  261MOL0     H35966   5.996   5.234  11.448 -0.2281 -0.3458  0.0509
  261MOL0     H35967   5.895   5.014  11.533 -1.5648  1.2489 -0.1154
  261MOL0     H35968   5.816   4.683  11.361 -1.6963  0.1651  0.4279
  261MOL0     H35969   5.778   4.778  11.509  1.5912  2.1731  1.8114
  261MOL0     H35970   5.888   4.544  11.542  0.7289  0.0277  0.4214
  261MOL0     H35971   6.034   4.634  11.482  0.2135  0.4363 -0.4168
  261MOL0     H35972   5.983   4.796  11.682 -2.5021  1.0644 -1.6907
  261MOL0     H35973   5.881   4.666  11.744 -1.6779  1.2061 -0.7999
  261MOL0     H35974   6.050   4.510  11.751  0.2720 -0.5463 -2.4544
  261MOL0     H35975   6.168   4.599  11.659 -0.1501 -0.1594  0.2272
  261MOL0     H35976   6.279   4.803  12.022 -0.8676 -0.0317 -0.2495
  261MOL0     H35977   6.409   4.834  12.191 -3.1597 -1.6543 -1.1266
  261MOL0     H35978   6.564   4.735  12.215  0.7207  2.0563 -1.9948
  261MOL0     H35979   6.416   4.717  12.312 -1.8074 -0.8326 -0.9361
  261MOL0     H35980   6.767   4.536  12.380 -1.2479 -0.2448 -1.3437
  261MOL0     H35981   6.903   4.463  12.541 -0.2194  0.3509  0.3918
  261MOL0     H35982   7.039   4.263  12.657 -0.2960 -1.1132  1.0878
  261MOL0     H35983   6.967   4.380  12.763 -2.4955  0.2766 -1.4071
  261MOL0     H35984   7.018   4.080  12.822 -2.8582 -0.2193  1.2732
  261MOL0     H35985   7.133   4.211  12.861 -0.3322 -0.1075 -2.6276
  261MOL0     H35986   6.837   4.185  12.950  0.5625  0.6140 -0.7066
  261MOL0     H35987   6.949   4.298  13.028 -1.7670 -0.6043  1.1474
  261MOL0     H35988   7.096   4.100  13.106  0.2825 -4.1486  0.7262
  261MOL0     H35989   6.966   3.989  13.071 -2.1963 -0.4853  1.1485
  261MOL0     H35990   6.920   4.221  13.255  1.0255  1.4881 -0.8754
  261MOL0     H35991   6.790   4.114  13.186  0.1195 -1.8591  1.6122
  261MOL0     H35992   6.897   3.915  13.295 -2.0481  1.1786  0.2112
  261MOL0     H35993   6.833   4.034  13.411  0.1453  0.5024  0.8191
  261MOL0     H35994   7.055   4.138  13.444  1.4894 -0.8693  1.4385
  261MOL0     H35995   7.117   4.027  13.326 -1.9123 -0.0568 -1.8120
  261MOL0     H35996   7.007   3.968  13.601 -1.9113  1.4337 -1.1308
  261MOL0     H35997   7.170   3.958  13.555 -0.7091  1.5320  0.4564
  261MOL0     H35998   6.628   4.112  12.586 -0.0232 -0.9252 -0.8482
  261MOL0     H35999   6.480   4.222  12.419 -2.1316  2.4126  0.7658
  261MOL0     H36000   6.393   4.322  11.994  1.3171 -0.3117  1.1090
  261MOL0     H36001   6.231   4.414  11.840  0.4401  0.6656 -0.2123
  261MOL0     H36002   5.692   5.266  10.232 -1.4286  1.9277  2.2790
  261MOL0     H36003   5.776   5.318  10.007  1.6717  1.3595 -1.6686
  261MOL0     H36004   6.112   5.272   9.737 -1.6854  0.3340 -0.0319
  261MOL0     H36005   6.210   5.291   9.516 -2.8520 -0.1986 -5.1224
  261MOL0     H36006   6.342   5.676   9.323  1.0166 -0.7549 -2.4449
  261MOL0     H36007   6.372   5.612   9.479 -1.5846  4.5837 -0.8887
  261MOL0     H36008   6.561   5.552   9.317  0.1565 -1.0768  1.9031
  261MOL0     H36009   6.421   5.498   9.205 -3.4393  1.0526  1.0879
  261MOL0     H36010   6.389   5.311   9.352  0.6238 -0.9129 -1.2763
  261MOL0     H36011   6.548   5.304   9.279  0.1512  0.3909 -0.5910
  261MOL0     H36012   6.519   5.231   9.528 -3.4162  1.2187  3.7951
  261MOL0     H36013   6.508   5.396   9.576 -0.7200 -0.2699  0.3912
  261MOL0     H36014   6.902   5.390   9.536  0.3308  3.3700  0.5160
  261MOL0     H36015   6.057   5.693   9.462 -2.3039  0.5222  2.3932
  261MOL0     H36016   5.842   5.718   9.643  0.9077  3.7020 -0.4399
  261MOL0     H36017   5.923   5.711   9.797 -0.8978  1.1863 -0.0019
  261MOL0     H36018   5.986   5.813   9.672  4.1079 -1.2288  2.9043
  262MOL0     O36019   2.742   6.812   9.209 -0.3973 -0.1594 -0.1952
  262MOL0     C36020   2.771   6.756   9.314  0.5879 -1.5227 -0.0555
  262MOL0     O36021   2.888   6.683   9.326  0.3264 -0.1641  0.1900
  262MOL0     C36022   2.964   6.671   9.212 -0.0107  0.1277  0.3875
  262MOL0     C36023   3.077   6.748   9.184  0.6464  0.0001  0.0719
  262MOL0     C36024   3.169   6.698   9.086 -0.9399  0.3139  0.3548
  262MOL0     C36025   3.140   6.589   9.008 -1.2906 -0.1775  0.7058
  262MOL0     O36026   3.245   6.558   8.922  0.3205 -0.3518 -0.7345
  262MOL0     C36027   3.221   6.483   8.803 -0.2060  0.3655  0.5305
  262MOL0     C36028   3.351   6.414   8.745 -0.2075  0.1636  0.5431
  262MOL0     C36029   3.447   6.530   8.707  0.0613  0.0897  0.4410
  262MOL0     C36030   3.587   6.480   8.675  0.2002 -0.0005 -0.6041
  262MOL0     C36031   3.614   6.430   8.533  0.3484  0.2785 -0.1187
  262MOL0     C36032   3.591   6.535   8.428  0.0817 -0.4774  0.1705
  262MOL0     C36033   3.653   6.494   8.293 -0.1565  0.1105  0.5660
  262MOL0     C36034   3.632   6.598   8.184  0.5606  0.6759  0.1711
  262MOL0     N36035   3.723   6.711   8.201  0.3676  0.3753  0.3197
  262MOL0     C36036   3.858   6.701   8.232  0.2881 -0.3167 -0.4452
  262MOL0     C36037   3.893   6.831   8.222 -0.5080  0.4225  0.5039
  262MOL0     C36038   4.032   6.866   8.219  0.4406  0.0546 -0.3783
  262MOL0     C36039   4.108   6.812   8.346 -0.3301 -0.1444 -1.1366
  262MOL0     C36040   4.260   6.825   8.323  0.5001  0.1627  0.0096
  262MOL0     C36041   4.323   6.961   8.356  0.6316 -0.2895 -0.1562
  262MOL0     O36042   4.469   6.956   8.347  0.6758  0.7635 -0.2768
  262MOL0     C36043   4.531   7.082   8.366  0.2555 -0.2434  0.0546
  262MOL0     C36044   4.493   7.183   8.460  0.0706  0.6958 -0.4390
  262MOL0     C36045   4.562   7.307   8.476  0.7335 -0.2039  0.3371
  262MOL0     C36046   4.494   7.413   8.554 -0.8904 -0.3282 -0.0778
  262MOL0     C36047   4.682   7.322   8.396  0.0195  0.0777 -0.4275
  262MOL0     C36048   4.763   7.441   8.403 -0.1704 -1.1884  0.6566
  262MOL0     O36049   4.816   7.484   8.282 -0.2134  0.8553 -0.5778
  262MOL0     C36050   4.895   7.592   8.273 -0.9483 -0.3474 -0.3060
  262MOL0     C36051   5.019   7.589   8.335 -0.1562 -0.8841 -0.1214
  262MOL0     C36052   5.108   7.695   8.307 -0.1015  0.4049 -0.0579
  262MOL0     C36053   5.083   7.787   8.209  0.6435 -0.4539  0.8681
  262MOL0     O36054   5.175   7.876   8.153 -0.2112 -0.5152 -0.4205
  262MOL0     C36055   5.321   7.839   8.140  0.4160 -0.6283 -0.2106
  262MOL0     C36056   5.424   7.915   8.037  1.2085  0.5770  0.0193
  262MOL0     C36057   5.364   7.884   7.903 -0.0536  0.4523  0.2608
  262MOL0     C36058   5.476   7.889   7.792 -0.5702 -0.5534  0.0675
  262MOL0     C36059   5.433   7.818   7.669  0.4698 -0.6517  0.7090
  262MOL0     C36060   5.448   7.662   7.667 -0.0818 -0.0021  0.2266
  262MOL0     C36061   5.568   7.608   7.748  0.0453  0.2788  0.8499
  262MOL0     C36062   5.566   7.459   7.718 -1.0108  1.0482 -0.4027
  262MOL0    Cl36063   5.651   7.442   7.560 -0.3572  0.4671 -0.3885
  262MOL0     C36064   4.953   7.792   8.157  0.1441  0.1508  1.0434
  262MOL0     C36065   4.864   7.689   8.190 -1.1192  0.7313  0.7822
  262MOL0     O36066   4.782   7.486   8.513  0.5255 -0.2553 -0.6043
  262MOL0     C36067   4.736   7.213   8.320  0.6113  0.3622 -0.3831
  262MOL0     C36068   4.657   7.102   8.303  0.1082 -0.7210  0.4961
  262MOL0     N36069   3.793   6.912   8.183  0.5237 -0.1608 -0.1863
  262MOL0     N36070   3.683   6.833   8.175 -0.2397 -0.4644 -0.2288
  262MOL0     C36071   3.027   6.519   9.030 -0.4887  0.8667 -1.0002
  262MOL0     C36072   2.943   6.561   9.134 -0.1271 -0.5040  0.6823
  262MOL0     C36073   2.684   6.764   9.429  0.5060  0.3811 -0.2891
  262MOL0     C36074   2.556   6.697   9.426  1.0601  0.8555 -0.0248
  262MOL0     C36075   2.465   6.706   9.536 -1.5424  0.0143  0.3008
  262MOL0     C36076   2.499   6.777   9.647  0.4751 -1.0594 -0.1489
  262MOL0     O36077   2.401   6.798   9.745 -0.2832  0.4891  0.0050
  262MOL0     C36078   2.272   6.728   9.752  0.0398  0.5040 -0.2784
  262MOL0     C36079   2.171   6.791   9.666  0.0473 -0.1627 -0.2227
  262MOL0     C36080   2.052   6.693   9.641 -0.3370  0.8418 -1.0278
  262MOL0     C36081   1.985   6.637   9.772  0.4471  0.3980 -1.1856
  262MOL0     C36082   1.954   6.740   9.864 -0.8187  0.4496  0.1510
  262MOL0     C36083   1.919   6.820   9.942 -0.4768  0.1938  0.0178
  262MOL0     C36084   2.625   6.852   9.647  0.5554 -0.0642  0.1800
  262MOL0     C36085   2.720   6.836   9.549  0.3731  0.4093  0.6103
  262MOL0     C36086   2.856   6.898   9.561  0.6431  0.9835 -0.1453
  262MOL0     H36087   3.089   6.828   9.257 -1.6899  1.3775 -0.9382
  262MOL0     H36088   3.270   6.737   9.075 -0.4217 -1.6466 -3.4039
  262MOL0     H36089   3.187   6.542   8.718 -2.1230 -2.3888 -0.7438
  262MOL0     H36090   3.144   6.408   8.823  1.7462 -1.1483  3.0360
  262MOL0     H36091   3.382   6.327   8.803 -1.8914 -0.6789  0.2415
  262MOL0     H36092   3.328   6.358   8.654  1.1319 -1.9273  1.4153
  262MOL0     H36093   3.399   6.602   8.640  0.0231 -0.0574  0.3066
  262MOL0     H36094   3.454   6.591   8.797 -3.4431 -1.0247  1.6559
  262MOL0     H36095   3.669   6.551   8.690  0.6569 -0.8708  1.3855
  262MOL0     H36096   3.606   6.397   8.744  0.7534  1.1501  0.6625
  262MOL0     H36097   3.545   6.346   8.516 -0.5712  0.7309  1.2799
  262MOL0     H36098   3.718   6.398   8.525 -0.1417 -1.9548  1.4058
  262MOL0     H36099   3.486   6.563   8.411  1.0503  3.3934 -0.3809
  262MOL0     H36100   3.645   6.624   8.462  2.5568 -1.4086 -1.0809
  262MOL0     H36101   3.601   6.404   8.258 -0.2571  0.6445 -0.6846
  262MOL0     H36102   3.756   6.459   8.306  0.0841  0.8513  0.6700
  262MOL0     H36103   3.629   6.558   8.082  1.8170 -0.2529  0.4712
  262MOL0     H36104   3.537   6.644   8.212 -0.3945 -1.4578  0.6442
  262MOL0     H36105   3.913   6.608   8.240 -3.0027 -2.4048 -0.4359
  262MOL0     H36106   4.045   6.974   8.226  2.3710 -0.1471 -0.3079
  262MOL0     H36107   4.075   6.827   8.126  1.5335 -1.7578  0.8089
  262MOL0     H36108   4.081   6.872   8.433  3.0029  1.6507 -1.1738
  262MOL0     H36109   4.082   6.706   8.348  2.4485 -0.9116 -0.2567
  262MOL0     H36110   4.316   6.748   8.377  0.9409  0.8651  0.5760
  262MOL0     H36111   4.270   6.802   8.217  0.1932 -1.4435  0.2971
  262MOL0     H36112   4.282   7.045   8.299 -3.1484 -0.3141  2.1612
  262MOL0     H36113   4.309   6.976   8.464 -2.2929 -1.5643 -0.2584
  262MOL0     H36114   4.405   7.164   8.522  0.1993 -3.9499 -1.3463
  262MOL0     H36115   4.521   7.516   8.529 -2.1268  0.7567  2.6629
  262MOL0     H36116   4.512   7.401   8.662  2.0312  1.8124 -0.2007
  262MOL0     H36117   4.388   7.418   8.530 -0.7420  1.8066 -0.5071
  262MOL0     H36118   5.054   7.515   8.407  0.9490  0.9948  1.3493
  262MOL0     H36119   5.198   7.702   8.367  0.2931  1.1717 -0.7348
  262MOL0     H36120   5.354   7.845   8.245 -2.8903 -4.5243  1.3103
  262MOL0     H36121   5.321   7.732   8.120  0.3355 -0.4672 -1.0934
  262MOL0     H36122   5.413   8.023   8.052  0.2706  0.2301  2.2662
  262MOL0     H36123   5.525   7.872   8.039  0.5420 -1.0459  1.7974
  262MOL0     H36124   5.290   7.960   7.875  0.4719  0.0931 -2.4363
  262MOL0     H36125   5.320   7.784   7.907 -0.6696  0.7439  0.9387
  262MOL0     H36126   5.571   7.839   7.818 -0.5099 -1.0888 -1.1046
  262MOL0     H36127   5.492   7.992   7.760  0.5661 -1.3101 -2.0405
  262MOL0     H36128   5.335   7.856   7.639  0.9123  0.6046  0.8302
  262MOL0     H36129   5.497   7.846   7.585 -1.4567 -1.2045 -1.0074
  262MOL0     H36130   5.459   7.642   7.560 -0.6376 -1.9474  0.4977
  262MOL0     H36131   5.355   7.619   7.707  0.3454  0.7974  2.2042
  262MOL0     H36132   5.527   7.628   7.848 -3.4953 -0.5079 -0.3143
  262MOL0     H36133   5.662   7.661   7.728  0.1008 -0.3489 -0.6410
  262MOL0     H36134   5.464   7.421   7.714 -0.5665 -0.1286 -1.5055
  262MOL0     H36135   5.624   7.407   7.795 -0.0923  1.0636 -1.0603
  262MOL0     H36136   4.927   7.870   8.087  1.8905  0.6091  0.8599
  262MOL0     H36137   4.766   7.689   8.143 -0.7800 -2.7439 -0.1619
  262MOL0     H36138   4.837   7.208   8.281  1.2291 -0.0438  1.1720
  262MOL0     H36139   4.702   7.019   8.250 -0.5554 -2.7093  2.8808
  262MOL0     H36140   2.994   6.419   9.001 -1.1060 -0.6996  4.1010
  262MOL0     H36141   2.857   6.497   9.153 -1.3682 -0.0902 -2.8087
  262MOL0     H36142   2.519   6.650   9.335  2.0724 -0.4287  0.2018
  262MOL0     H36143   2.369   6.657   9.525 -0.6809 -1.4531 -1.0687
  262MOL0     H36144   2.284   6.621   9.737 -0.7957  0.3247  0.2807
  262MOL0     H36145   2.244   6.739   9.857 -2.1737  0.3219 -0.7930
  262MOL0     H36146   2.210   6.812   9.566  0.8048 -2.0280 -0.3624
  262MOL0     H36147   2.134   6.885   9.709  3.2010  0.0774  2.3517
  262MOL0     H36148   1.976   6.728   9.570 -0.1507  1.6814 -0.8221
  262MOL0     H36149   2.093   6.606   9.588 -0.6331 -1.8474  2.7486
  262MOL0     H36150   2.045   6.564   9.827  0.7651 -0.4468 -2.5807
  262MOL0     H36151   1.900   6.577   9.737  0.8450 -1.5428  0.8912
  262MOL0     H36152   1.892   6.888  10.020 -1.3039  2.6409 -2.2705
  262MOL0     H36153   2.655   6.916   9.729 -0.6708 -0.6629  1.1291
  262MOL0     H36154   2.874   6.945   9.464 -1.4209 -0.1021 -1.1130
  262MOL0     H36155   2.870   6.974   9.638 -0.7187  0.7351  0.3710
  262MOL0     H36156   2.922   6.819   9.597 -0.9333  1.3123  3.9695
  263MOL0     O36157   4.969   5.902   7.298 -0.5187 -0.0865 -0.3362
  263MOL0     C36158   5.057   5.815   7.308  0.1799  0.5319  0.2204
  263MOL0     O36159   5.094   5.728   7.211  1.0284  0.1692  0.4335
  263MOL0     C36160   5.056   5.774   7.090 -0.0121  0.4792  0.5054
  263MOL0     C36161   4.919   5.740   7.035 -0.2616 -0.2447  0.0955
  263MOL0     C36162   4.884   5.796   6.910 -0.6829  0.2799  0.2493
  263MOL0     C36163   4.965   5.883   6.839  0.7993  0.4785  0.2029
  263MOL0     O36164   4.911   5.965   6.739 -0.0677 -0.0231 -0.1505
  263MOL0     C36165   4.807   6.054   6.786 -0.3808 -0.2601  0.3745
  263MOL0     C36166   4.715   6.098   6.661 -0.6076 -0.4774 -0.4759
  263MOL0     C36167   4.596   6.179   6.724  0.4193  0.0206 -0.0794
  263MOL0     C36168   4.522   6.276   6.626  0.1103  0.0781  0.8170
  263MOL0     C36169   4.608   6.400   6.567  0.1438  0.3555 -0.7741
  263MOL0     C36170   4.650   6.479   6.695 -1.0079 -0.4708  0.0344
  263MOL0     C36171   4.675   6.618   6.665 -0.4341 -0.8323 -0.3272
  263MOL0     C36172   4.550   6.708   6.629  0.3906 -0.2015  0.2259
  263MOL0     N36173   4.445   6.750   6.727  0.8970 -0.4079  0.0366
  263MOL0     C36174   4.359   6.849   6.717 -0.5050 -0.6808  0.3271
  263MOL0     C36175   4.297   6.868   6.836 -0.3992  0.4692  0.0630
  263MOL0     C36176   4.178   6.953   6.843 -0.7022  0.7951  0.5702
  263MOL0     C36177   4.190   7.041   6.958 -0.4723  0.4047  0.0832
  263MOL0     C36178   4.306   7.143   6.948 -0.5007 -0.6282  0.7481
  263MOL0     C36179   4.280   7.249   6.832  0.5944  0.3848 -0.6631
  263MOL0     O36180   4.345   7.205   6.710 -0.3661  0.0423  0.1236
  263MOL0     C36181   4.467   7.241   6.676 -0.2711 -0.2308 -1.1814
  263MOL0     C36182   4.559   7.149   6.654 -0.0118  0.0558 -0.1274
  263MOL0     C36183   4.687   7.172   6.621  1.1442 -0.7733 -0.3485
  263MOL0     C36184   4.771   7.050   6.621 -0.0459 -0.8558  0.3049
  263MOL0     C36185   4.718   7.301   6.584 -0.4933  0.6654 -0.1911
  263MOL0     C36186   4.848   7.318   6.514 -0.3137  0.1721  0.5906
  263MOL0     O36187   4.862   7.447   6.487  0.1151  0.1087  0.5717
  263MOL0     C36188   4.979   7.489   6.432 -0.7868  1.2404  0.0783
  263MOL0     C36189   4.978   7.554   6.307  0.3927  0.2453 -0.2894
  263MOL0     C36190   5.095   7.605   6.252  1.0309 -0.6964 -0.1078
  263MOL0     C36191   5.222   7.597   6.315  0.0847  0.5034  0.5536
  263MOL0     O36192   5.344   7.624   6.254  0.2090 -0.4736 -0.0805
  263MOL0     C36193   5.469   7.619   6.321  0.3195  0.9613  0.1518
  263MOL0     C36194   5.585   7.652   6.239 -0.4441  0.1501  1.2082
  263MOL0     C36195   5.715   7.648   6.321  0.1076 -0.1360 -0.2290
  263MOL0     C36196   5.846   7.700   6.258  0.7904  0.7477 -0.7465
  263MOL0     C36197   5.868   7.619   6.127 -0.9256  0.6585  0.5866
  263MOL0     C36198   6.024   7.622   6.093  0.6765  0.3676 -0.5813
  263MOL0     C36199   6.064   7.536   5.974  0.3267  0.8373 -0.2469
  263MOL0     C36200   6.093   7.390   6.029  0.4191 -0.1850  0.3685
  263MOL0    Cl36201   6.221   7.376   6.153 -0.8052  0.1671  0.1982
  263MOL0     C36202   5.221   7.541   6.446  1.3389  0.0319 -0.1973
  263MOL0     C36203   5.104   7.494   6.503  1.1489 -0.1491 -0.1856
  263MOL0     O36204   4.936   7.235   6.490  0.3743  0.0837 -0.0630
  263MOL0     C36205   4.626   7.409   6.607 -1.2234 -0.0560  0.1548
  263MOL0     C36206   4.504   7.380   6.668 -0.4567 -0.7961 -0.8256
  263MOL0     N36207   4.346   6.760   6.913  0.6973  0.4714 -0.7089
  263MOL0     N36208   4.426   6.690   6.848  0.1776  0.0007  0.2277
  263MOL0     C36209   5.089   5.922   6.896 -0.8236  0.1457 -0.1931
  263MOL0     C36210   5.126   5.879   7.030 -0.1250 -0.2242  0.3118
  263MOL0     C36211   5.136   5.807   7.427  0.0768  0.3952 -0.7215
  263MOL0     C36212   5.199   5.686   7.461 -0.0082 -0.6705 -0.2431
  263MOL0     C36213   5.271   5.682   7.576 -0.0295  0.2598  0.0946
  263MOL0     C36214   5.281   5.794   7.657 -0.8185  0.2020 -0.0326
  263MOL0     O36215   5.359   5.785   7.765 -0.0468  0.2089  0.3246
  263MOL0     C36216   5.494   5.837   7.746  0.3994 -0.0913  0.7474
  263MOL0     C36217   5.522   5.970   7.819  0.5332 -0.2270  1.3024
  263MOL0     C36218   5.460   5.988   7.958  0.3917  0.2433 -0.3419
  263MOL0     C36219   5.497   6.136   7.993  0.4288 -0.2003 -0.1639
  263MOL0     C36220   5.398   6.230   7.927 -0.6538  0.2876  0.6273
  263MOL0     C36221   5.312   6.273   7.853 -0.1316 -0.5772 -0.7440
  263MOL0     C36222   5.204   5.903   7.633 -0.4155 -0.0247  0.1103
  263MOL0     C36223   5.151   5.928   7.509  0.1078  0.4405  1.0608
  263MOL0     C36224   5.093   6.055   7.487 -0.6588 -0.2037 -0.3423
  263MOL0     H36225   4.860   5.663   7.083  1.0404 -0.2771  1.7635
  263MOL0     H36226   4.787   5.763   6.874 -0.8589  2.3298 -1.3443
  263MOL0     H36227   4.856   6.141   6.831  1.4408 -0.5670 -0.9385
  263MOL0     H36228   4.745   6.002   6.860  1.4893 -3.3982 -0.0829
  263MOL0     H36229   4.776   6.142   6.582  1.1142  2.0306  2.0842
  263MOL0     H36230   4.673   6.008   6.614 -0.1952  0.0188 -1.8054
  263MOL0     H36231   4.513   6.114   6.755 -1.5441  1.9348 -0.9863
  263MOL0     H36232   4.635   6.239   6.806  2.8420 -0.5908 -0.7209
  263MOL0     H36233   4.497   6.212   6.540 -0.6154 -0.7308  1.6107
  263MOL0     H36234   4.432   6.314   6.675  0.7669 -1.1793  3.1726
  263MOL0     H36235   4.560   6.462   6.491  1.1528 -0.5699 -2.2355
  263MOL0     H36236   4.700   6.364   6.519 -0.5270 -0.5851 -1.3711
  263MOL0     H36237   4.569   6.481   6.769 -0.0292  1.3707  1.1282
  263MOL0     H36238   4.732   6.425   6.742 -1.8973 -1.2520  0.7305
  263MOL0     H36239   4.731   6.624   6.572  0.3111  1.1858  0.2051
  263MOL0     H36240   4.722   6.666   6.752 -3.2967  0.7458  0.4953
  263MOL0     H36241   4.586   6.803   6.589 -2.5694  1.8809  2.0052
  263MOL0     H36242   4.494   6.663   6.547 -1.7830  3.1482 -0.3610
  263MOL0     H36243   4.332   6.915   6.636  2.0428  2.2073  1.6300
  263MOL0     H36244   4.091   6.887   6.851 -1.9153  2.5043  2.4704
  263MOL0     H36245   4.154   7.003   6.749 -2.8696 -1.2547 -0.0595
  263MOL0     H36246   4.092   7.087   6.969 -0.6349 -0.3878  2.5916
  263MOL0     H36247   4.204   6.974   7.044 -2.7889 -1.1447 -0.6414
  263MOL0     H36248   4.303   7.201   7.041  1.2993  1.4758 -0.4208
  263MOL0     H36249   4.403   7.094   6.941  0.4369  1.2726 -0.5728
  263MOL0     H36250   4.171   7.264   6.833  0.6191  0.5390  0.7667
  263MOL0     H36251   4.319   7.346   6.864  0.8340  0.2605 -0.5851
  263MOL0     H36252   4.530   7.046   6.676 -2.7299  0.4601 -1.4616
  263MOL0     H36253   4.716   6.964   6.660  0.9714 -3.7437 -3.8608
  263MOL0     H36254   4.869   7.068   6.666  0.6721  2.3296 -2.0895
  263MOL0     H36255   4.791   7.016   6.519 -1.5984  0.5727 -0.5264
  263MOL0     H36256   4.883   7.567   6.257 -0.2878  2.8724  1.4731
  263MOL0     H36257   5.104   7.651   6.154  1.3713  3.6752  1.7662
  263MOL0     H36258   5.465   7.686   6.406  2.6686  0.5837  0.6279
  263MOL0     H36259   5.482   7.515   6.354 -2.3618  0.6995  0.6216
  263MOL0     H36260   5.593   7.584   6.154  2.0681 -0.8504  2.1416
  263MOL0     H36261   5.566   7.753   6.202 -2.7667 -0.6065  0.1987
  263MOL0     H36262   5.729   7.552   6.372 -1.8515  0.0445  0.7171
  263MOL0     H36263   5.696   7.725   6.396 -1.7005  0.9453 -1.7141
  263MOL0     H36264   5.923   7.684   6.334 -0.8071  0.4288  0.8883
  263MOL0     H36265   5.839   7.806   6.231 -0.6361  1.2848  1.4055
  263MOL0     H36266   5.850   7.511   6.134  1.8664  0.0989  0.0928
  263MOL0     H36267   5.807   7.654   6.043 -1.8322 -1.8374  0.1005
  263MOL0     H36268   6.085   7.604   6.182 -1.9826 -2.2114  0.9078
  263MOL0     H36269   6.039   7.728   6.071  1.9617  0.2242 -0.4669
  263MOL0     H36270   6.156   7.580   5.935 -0.6761  3.2253 -0.0616
  263MOL0     H36271   5.980   7.536   5.903 -1.6932  0.0473  2.0028
  263MOL0     H36272   6.127   7.323   5.949 -2.4523 -2.8779  1.2276
  263MOL0     H36273   5.997   7.346   6.057 -0.3629 -0.8299 -2.8749
  263MOL0     H36274   5.312   7.527   6.503  1.1096 -1.6560 -0.1982
  263MOL0     H36275   5.111   7.456   6.604 -0.5186  0.1897  0.0872
  263MOL0     H36276   4.665   7.509   6.593  4.0781 -1.9636 -0.8037
  263MOL0     H36277   4.433   7.458   6.695  2.3706  1.3176  0.9664
  263MOL0     H36278   5.145   6.004   6.852 -0.8212  1.8344  2.7088
  263MOL0     H36279   5.213   5.924   7.075 -1.4544  1.4324  1.3446
  263MOL0     H36280   5.212   5.602   7.393 -0.8339 -1.7942  0.9221
  263MOL0     H36281   5.337   5.599   7.600 -0.5877 -1.1848 -2.9393
  263MOL0     H36282   5.559   5.761   7.789  1.7822  1.1275  0.8797
  263MOL0     H36283   5.519   5.853   7.641  1.3398  2.9399  1.3228
  263MOL0     H36284   5.485   6.051   7.755 -1.4609 -1.5709  0.6512
  263MOL0     H36285   5.630   5.990   7.817  0.7701 -1.1941  2.7182
  263MOL0     H36286   5.353   5.969   7.969  0.7945 -3.6354 -1.5814
  263MOL0     H36287   5.508   5.924   8.033  2.8098  2.1306 -0.1556
  263MOL0     H36288   5.599   6.163   7.965  0.4841  2.3335  1.9985
  263MOL0     H36289   5.476   6.151   8.099  0.9815  0.9793 -0.2019
  263MOL0     H36290   5.231   6.311   7.793 -2.2727 -1.5385  1.3546
  263MOL0     H36291   5.204   5.989   7.699  1.0314  1.3343 -1.5408
  263MOL0     H36292   5.138   6.128   7.555  1.3002 -2.4523  0.9215
  263MOL0     H36293   5.104   6.081   7.382  1.4889  1.1376  0.1587
  263MOL0     H36294   4.988   6.053   7.519 -0.5412  0.7296  0.1520
  264MOL0     O36295   2.448   8.153   3.389  0.4871 -0.1996 -0.5224
  264MOL0     C36296   2.378   8.080   3.456  0.8141 -0.3077 -0.1207
  264MOL0     O36297   2.389   8.058   3.593  0.5154 -0.1543  0.0965
  264MOL0     C36298   2.480   8.128   3.670 -0.9233  0.3566 -0.2203
  264MOL0     C36299   2.621   8.141   3.631  0.4515 -0.2956  0.6439
  264MOL0     C36300   2.709   8.196   3.719 -0.1623  0.2216 -0.0437
  264MOL0     C36301   2.678   8.255   3.841  0.5722  0.3595 -0.1756
  264MOL0     O36302   2.770   8.331   3.903 -0.0710 -0.2549  0.0007
  264MOL0     C36303   2.760   8.340   4.051 -0.3341  0.1869  0.3433
  264MOL0     C36304   2.902   8.405   4.080  0.3039 -0.0927  0.8619
  264MOL0     C36305   2.896   8.550   4.032  1.1815 -0.0460 -0.0364
  264MOL0     C36306   3.007   8.637   4.082  0.6077  0.0801  0.7901
  264MOL0     C36307   2.953   8.784   4.081  0.4609  0.4977 -0.0684
  264MOL0     C36308   3.068   8.872   4.121 -0.0136  0.6313 -0.4574
  264MOL0     C36309   3.124   8.858   4.267 -0.2291  0.4499  0.5563
  264MOL0     C36310   3.250   8.945   4.286 -1.0038 -0.2592  0.9890
  264MOL0     N36311   3.280   8.967   4.420  0.7462 -0.6085 -0.0544
  264MOL0     C36312   3.234   9.072   4.493 -0.6501  0.3665 -0.9114
  264MOL0     C36313   3.302   9.056   4.617  0.4846 -0.1246 -0.4703
  264MOL0     C36314   3.301   9.149   4.743 -0.1766  0.7793 -0.5599
  264MOL0     C36315   3.434   9.162   4.823 -0.8673 -0.6528 -0.0654
  264MOL0     C36316   3.558   9.193   4.743 -0.0989 -0.0074  0.0482
  264MOL0     C36317   3.685   9.120   4.800  0.3237 -0.4983 -1.2843
  264MOL0     O36318   3.706   9.154   4.941 -1.0724 -0.2513 -0.6681
  264MOL0     C36319   3.844   9.138   4.975 -0.2398  0.5433 -0.7766
  264MOL0     C36320   3.901   9.234   5.064  0.2619  0.7062  0.2941
  264MOL0     C36321   4.036   9.239   5.093  0.2952  0.4974  0.9185
  264MOL0     C36322   4.077   9.359   5.171  0.5396  0.0993  0.1773
  264MOL0     C36323   4.123   9.131   5.052  1.1799 -0.1317  0.0778
  264MOL0     C36324   4.265   9.123   5.076 -0.0407  0.5290 -0.6042
  264MOL0     O36325   4.330   9.003   5.040 -0.0356 -0.2008  1.0804
  264MOL0     C36326   4.456   8.977   5.091  0.2588  0.8932 -0.9786
  264MOL0     C36327   4.564   8.930   5.012  0.4199  0.3432  0.3280
  264MOL0     C36328   4.682   8.881   5.070  0.7131  1.0809  0.1369
  264MOL0     C36329   4.706   8.881   5.207  0.8482  0.1340  0.4216
  264MOL0     O36330   4.825   8.832   5.257 -0.4244 -0.4194 -0.0331
  264MOL0     C36331   4.897   8.890   5.365  0.3403 -0.1244 -0.0422
  264MOL0     C36332   5.020   8.970   5.288 -0.3427 -0.3432  0.8638
  264MOL0     C36333   5.148   8.891   5.330  0.0227 -0.2562 -0.4245
  264MOL0     C36334   5.265   8.978   5.354  0.2479  0.2711 -1.1159
  264MOL0     C36335   5.388   8.904   5.422 -0.5226 -1.1032  0.2459
  264MOL0     C36336   5.524   8.972   5.392 -0.9780  0.3319  0.2550
  264MOL0     C36337   5.638   8.942   5.492  0.0966 -0.1808 -0.4719
  264MOL0     C36338   5.744   9.040   5.492  0.4947 -0.2637  0.0886
  264MOL0    Cl36339   5.689   9.177   5.591  0.0847  0.1547 -0.0905
  264MOL0     C36340   4.603   8.933   5.288 -0.5077 -0.4320  1.2825
  264MOL0     C36341   4.485   8.984   5.229 -0.0900  0.3325 -0.1737
  264MOL0     O36342   4.327   9.220   5.119 -0.7142 -0.1571 -0.5233
  264MOL0     C36343   4.063   9.035   4.975  0.9150  0.7879  1.0426
  264MOL0     C36344   3.927   9.034   4.935 -0.3020  0.6155  0.8559
  264MOL0     N36345   3.381   8.946   4.616  0.1096  0.8952 -0.3517
  264MOL0     N36346   3.370   8.900   4.493  0.6997 -0.0919  0.4858
  264MOL0     C36347   2.545   8.230   3.882 -0.5728 -0.8464  0.2194
  264MOL0     C36348   2.454   8.163   3.805  0.1145  0.1860  0.1822
  264MOL0     C36349   2.284   7.983   3.385 -0.2561 -0.6597  0.3986
  264MOL0     C36350   2.217   7.890   3.462  0.0342  0.2294  0.4297
  264MOL0     C36351   2.135   7.787   3.419 -0.4115 -1.5432  0.3048
  264MOL0     C36352   2.134   7.770   3.281  0.1916  1.1629  0.0284
  264MOL0     O36353   2.053   7.663   3.221 -0.7957  0.0452 -0.0871
  264MOL0     C36354   2.019   7.554   3.307  0.1023 -0.8022 -0.5355
  264MOL0     C36355   1.957   7.441   3.225  0.1126 -0.2774  0.0179
  264MOL0     C36356   1.825   7.485   3.154 -0.1603  0.9785 -0.0471
  264MOL0     C36357   1.713   7.371   3.178 -0.2502 -0.4264 -0.3545
  264MOL0     C36358   1.612   7.421   3.267  0.4723  0.5206 -0.1536
  264MOL0     C36359   1.517   7.472   3.336 -0.6473  0.2873  0.0523
  264MOL0     C36360   2.202   7.855   3.198  0.1531 -0.5110 -1.4726
  264MOL0     C36361   2.270   7.967   3.246 -0.0316 -0.2346  0.2430
  264MOL0     C36362   2.329   8.063   3.147 -0.0907 -0.0945  0.5699
  264MOL0     H36363   2.659   8.103   3.537 -0.2124 -1.1920  0.7211
  264MOL0     H36364   2.813   8.188   3.690  0.0090 -2.3636  0.9806
  264MOL0     H36365   2.751   8.243   4.100 -1.6345  0.6218  1.0155
  264MOL0     H36366   2.677   8.405   4.081  1.3668  2.4187  0.4863
  264MOL0     H36367   2.917   8.410   4.189 -1.4227 -0.4663  1.1389
  264MOL0     H36368   2.978   8.348   4.027 -0.6197  1.4292 -2.3386
  264MOL0     H36369   2.885   8.565   3.924 -4.0614  2.6097  0.5184
  264MOL0     H36370   2.800   8.587   4.071  0.6923 -1.9221  0.6178
  264MOL0     H36371   3.032   8.604   4.183  1.3566  2.4356  1.4413
  264MOL0     H36372   3.090   8.629   4.011  0.0475  0.0866  0.1186
  264MOL0     H36373   2.870   8.803   4.151  1.1899  1.3642  0.5948
  264MOL0     H36374   2.918   8.815   3.982 -0.7423  2.7429  0.9715
  264MOL0     H36375   3.144   8.842   4.048  0.8599 -2.1453  1.4245
  264MOL0     H36376   3.040   8.975   4.097 -0.9108  0.2747 -0.9956
  264MOL0     H36377   3.146   8.755   4.295  1.3301  0.8060  0.7405
  264MOL0     H36378   3.042   8.882   4.335  0.6467 -0.1613  1.8749
  264MOL0     H36379   3.335   8.900   4.233 -1.5104  2.0140 -2.0244
  264MOL0     H36380   3.226   9.036   4.230 -0.2180 -0.9286 -0.5044
  264MOL0     H36381   3.163   9.148   4.462 -0.6432 -0.0222 -1.8906
  264MOL0     H36382   3.221   9.125   4.814  1.3011  3.4471  2.1860
  264MOL0     H36383   3.262   9.245   4.709 -2.9106 -0.3400 -0.8630
  264MOL0     H36384   3.419   9.230   4.908  0.1208 -2.2249  1.4483
  264MOL0     H36385   3.454   9.059   4.857  0.8205 -1.0977 -2.2395
  264MOL0     H36386   3.557   9.162   4.637  3.5949 -0.3760 -0.0314
  264MOL0     H36387   3.567   9.302   4.751  0.2982  0.1592 -1.9728
  264MOL0     H36388   3.656   9.015   4.809  1.7442 -0.8186 -0.0632
  264MOL0     H36389   3.771   9.144   4.737  0.7695  5.1266  0.8672
  264MOL0     H36390   3.837   9.318   5.089 -0.0332  1.6856 -3.2189
  264MOL0     H36391   4.151   9.412   5.111  1.1994  0.3015  1.1381
  264MOL0     H36392   4.128   9.334   5.265 -1.2958  2.7726  2.0621
  264MOL0     H36393   3.995   9.427   5.199 -0.7804 -2.1823  2.3202
  264MOL0     H36394   4.552   8.938   4.905  2.3534  0.6728  0.1005
  264MOL0     H36395   4.764   8.847   5.007 -1.0290 -1.4649 -0.9167
  264MOL0     H36396   4.838   8.956   5.429  1.1927 -1.6344  2.4190
  264MOL0     H36397   4.931   8.805   5.425  0.2393 -0.4629 -0.4571
  264MOL0     H36398   5.008   8.983   5.180 -2.6556 -0.4552  1.0576
  264MOL0     H36399   5.027   9.071   5.329 -0.8999  0.0991 -0.0814
  264MOL0     H36400   5.165   8.815   5.254 -1.6469 -1.2554  0.1421
  264MOL0     H36401   5.125   8.830   5.419 -0.2857  0.6540  0.1298
  264MOL0     H36402   5.246   9.069   5.411 -1.7591 -1.9249  2.1084
  264MOL0     H36403   5.291   9.014   5.254  0.7181  3.2932  0.0165
  264MOL0     H36404   5.372   8.894   5.530 -1.4028 -3.7775 -0.0427
  264MOL0     H36405   5.393   8.799   5.389 -1.8159 -0.6688 -1.4503
  264MOL0     H36406   5.509   9.080   5.391 -0.3007  0.4275 -0.8330
  264MOL0     H36407   5.546   8.946   5.288 -0.5729 -2.0013  0.8600
  264MOL0     H36408   5.688   8.845   5.480  2.6968  0.8831  0.9349
  264MOL0     H36409   5.588   8.944   5.590 -2.0354 -1.5384 -1.4578
  264MOL0     H36410   5.773   9.066   5.390  0.1085  3.4360  0.8107
  264MOL0     H36411   5.840   9.010   5.535  2.9329  0.2348 -4.4200
  264MOL0     H36412   4.624   8.944   5.394  0.5088 -1.6197  1.2366
  264MOL0     H36413   4.423   9.027   5.306 -0.7607 -1.1347  0.1462
  264MOL0     H36414   4.116   8.947   4.940 -3.3315 -1.4830 -0.3444
  264MOL0     H36415   3.879   8.961   4.870 -0.2512  1.1854  0.1683
  264MOL0     H36416   2.517   8.280   3.975 -1.1624  0.9100 -0.8548
  264MOL0     H36417   2.351   8.144   3.835 -0.7035 -2.3030 -3.5426
  264MOL0     H36418   2.233   7.904   3.568 -0.4759 -0.7135  0.6375
  264MOL0     H36419   2.098   7.729   3.504 -4.4029  1.1518  0.6688
  264MOL0     H36420   2.097   7.495   3.357  0.0554 -0.3456  0.0780
  264MOL0     H36421   1.949   7.598   3.379 -0.9902 -6.1346  2.1898
  264MOL0     H36422   1.938   7.349   3.281 -1.0378 -0.3222 -0.4184
  264MOL0     H36423   2.032   7.412   3.151  0.2948  0.0003  0.0934
  264MOL0     H36424   1.797   7.588   3.176  2.5822  2.0226 -1.0651
  264MOL0     H36425   1.848   7.475   3.047  0.2579 -1.6553  0.2094
  264MOL0     H36426   1.755   7.279   3.219 -1.4724 -1.6665 -1.7379
  264MOL0     H36427   1.665   7.339   3.085  0.6569  1.5686 -1.5726
  264MOL0     H36428   1.437   7.520   3.388  2.1714  2.6218  2.6280
  264MOL0     H36429   2.196   7.839   3.091 -0.8174 -3.8660 -1.0440
  264MOL0     H36430   2.296   8.163   3.177 -1.9906 -0.4620 -0.1573
  264MOL0     H36431   2.437   8.048   3.152 -0.1653 -3.3547 -2.9042
  264MOL0     H36432   2.320   8.036   3.041 -0.2122  3.4326 -0.4412
  265MOL0     O36433   5.896   6.739  10.157  0.5271 -0.1957 -0.2081
  265MOL0     C36434   5.823   6.781  10.246 -0.0348  0.0967  0.0028
  265MOL0     O36435   5.866   6.810  10.375 -0.4599  0.2161  0.3880
  265MOL0     C36436   5.989   6.777  10.419  0.0625  0.2137 -0.2311
  265MOL0     C36437   6.078   6.877  10.451 -0.0034 -0.7079 -0.5185
  265MOL0     C36438   6.207   6.853  10.501  0.5164  0.5759 -0.1056
  265MOL0     C36439   6.240   6.724  10.540 -0.1897 -1.1625 -0.0639
  265MOL0     O36440   6.369   6.707  10.592 -0.4542 -0.0082  0.1562
  265MOL0     C36441   6.419   6.577  10.626  0.2149 -0.4513  0.4569
  265MOL0     C36442   6.565   6.595  10.633 -0.1726  0.2848 -0.4003
  265MOL0     C36443   6.596   6.653  10.773  0.3398  0.1120  0.5476
  265MOL0     C36444   6.739   6.702  10.776 -0.2285 -0.3981 -0.6404
  265MOL0     C36445   6.748   6.780  10.906 -0.1600 -0.4931 -0.6725
  265MOL0     C36446   6.874   6.865  10.908 -0.0028 -0.2418  0.3509
  265MOL0     C36447   6.888   6.935  11.043 -0.1033 -0.2686 -0.1512
  265MOL0     C36448   7.008   7.027  11.041  0.8400 -0.2261  0.0356
  265MOL0     N36449   7.122   6.962  11.100  0.1380  0.6080 -0.1311
  265MOL0     C36450   7.129   6.904  11.227  0.5027 -0.9610  1.0189
  265MOL0     C36451   7.255   6.844  11.235  0.9008  0.2136 -0.5896
  265MOL0     C36452   7.315   6.763  11.346  0.3810 -0.0993 -0.9083
  265MOL0     C36453   7.237   6.632  11.363 -0.1055 -0.1144  0.1522
  265MOL0     C36454   7.264   6.519  11.253  0.0485 -1.4372 -0.3213
  265MOL0     C36455   7.411   6.495  11.240 -0.6438  0.8888 -0.1006
  265MOL0     O36456   7.473   6.478  11.372  0.1545  0.6297  0.5498
  265MOL0     C36457   7.603   6.507  11.385  0.3042  0.4363  0.9549
  265MOL0     C36458   7.699   6.488  11.286 -0.1336 -0.7436 -0.4454
  265MOL0     C36459   7.829   6.509  11.315 -0.5320  0.3570 -0.6527
  265MOL0     C36460   7.917   6.455  11.206  0.4285  0.2589 -0.2267
  265MOL0     C36461   7.871   6.550  11.448 -0.9691  0.6590 -0.0171
  265MOL0     C36462   8.012   6.564  11.472 -0.4794 -0.6464 -1.0444
  265MOL0     O36463   8.038   6.602  11.600 -0.8272 -0.7406 -0.8990
  265MOL0     C36464   8.158   6.670  11.637 -0.0551 -0.0651  0.0893
  265MOL0     C36465   8.246   6.731  11.545  0.5214  0.7478  0.4286
  265MOL0     C36466   8.369   6.783  11.582  0.1140 -0.1090  0.3503
  265MOL0     C36467   8.378   6.801  11.724  0.7058  0.9315 -0.5707
  265MOL0     O36468   8.471   6.886  11.770 -0.6634  0.2411 -0.2478
  265MOL0     C36469   8.581   6.939  11.698 -0.1757  0.0653  0.5066
  265MOL0     C36470   8.664   7.018  11.799 -0.4553 -0.6638  0.1603
  265MOL0     C36471   8.788   7.086  11.732  0.3807  0.2866  0.7871
  265MOL0     C36472   8.897   7.139  11.823 -0.1167 -0.1495 -0.8285
  265MOL0     C36473   8.962   7.259  11.763  0.5880 -0.3631 -0.8093
  265MOL0     C36474   9.094   7.287  11.835  0.2860 -0.4549 -0.1945
  265MOL0     C36475   9.102   7.315  11.986 -0.5150 -0.0334 -0.2971
  265MOL0     C36476   9.211   7.404  12.051  0.1554  0.1130  0.1381
  265MOL0    Cl36477   9.362   7.326  12.005  0.1700 -0.1200  0.0450
  265MOL0     C36478   8.286   6.752  11.819  0.6638 -0.0512 -0.6257
  265MOL0     C36479   8.178   6.680  11.777 -0.5660 -0.7986  0.1599
  265MOL0     O36480   8.099   6.508  11.409 -0.4609 -0.0306  0.5086
  265MOL0     C36481   7.776   6.555  11.552 -0.3246  0.2585 -0.7799
  265MOL0     C36482   7.642   6.539  11.511 -0.1982 -0.5440 -0.1520
  265MOL0     N36483   7.321   6.877  11.118 -0.1698 -1.0121  0.0712
  265MOL0     N36484   7.245   6.944  11.052  0.2043  0.7185 -0.3916
  265MOL0     C36485   6.153   6.617  10.520 -0.2426  0.2226  0.1037
  265MOL0     C36486   6.031   6.644  10.452  0.3054 -0.6968  0.2929
  265MOL0     C36487   5.684   6.795  10.212 -0.6070 -0.3387 -0.2838
  265MOL0     C36488   5.627   6.717  10.106 -0.4031 -0.9419  0.0456
  265MOL0     C36489   5.490   6.712  10.085 -0.2568  0.1716  0.1345
  265MOL0     C36490   5.404   6.780  10.171  0.3293 -0.3532  1.0655
  265MOL0     O36491   5.272   6.791  10.165  0.7789 -0.2691  0.2416
  265MOL0     C36492   5.192   6.732  10.054 -0.3377  0.7735 -0.3518
  265MOL0     C36493   5.162   6.580  10.087  0.2215  0.3606 -0.1255
  265MOL0     C36494   5.039   6.509  10.024  0.2975 -0.4641  0.6047
  265MOL0     C36495   5.040   6.484   9.870  0.5422  0.9854  0.1227
  265MOL0     C36496   4.904   6.436   9.831 -0.9059  0.2433 -0.2742
  265MOL0     C36497   4.793   6.406   9.792 -0.2024 -0.8376  0.3375
  265MOL0     C36498   5.455   6.862  10.261  0.2283 -0.4433 -0.0293
  265MOL0     C36499   5.590   6.867  10.290  0.5543 -0.2274 -0.1740
  265MOL0     C36500   5.632   6.970  10.396 -0.1560 -0.5581  0.3995
  265MOL0     H36501   6.060   6.982  10.434  1.7241  0.2164  2.7090
  265MOL0     H36502   6.281   6.931  10.511 -0.0932  1.3368 -1.2765
  265MOL0     H36503   6.396   6.510  10.543  2.5336  0.0704 -0.7022
  265MOL0     H36504   6.374   6.548  10.721  0.0879  1.2876  0.9752
  265MOL0     H36505   6.617   6.499  10.625  3.0199  1.7282  1.1114
  265MOL0     H36506   6.605   6.660  10.554  0.9731 -1.3876 -1.2436
  265MOL0     H36507   6.525   6.734  10.791  1.9646  1.4277  1.3037
  265MOL0     H36508   6.585   6.582  10.856  2.9656 -0.1324  0.7702
  265MOL0     H36509   6.804   6.614  10.775  1.1497  0.5711  0.1121
  265MOL0     H36510   6.770   6.763  10.690  2.7037 -1.4499 -0.4561
  265MOL0     H36511   6.733   6.711  10.990 -2.8051 -0.6762 -1.1883
  265MOL0     H36512   6.656   6.839  10.907 -0.7321 -1.3377 -1.2991
  265MOL0     H36513   6.958   6.804  10.877 -2.4100 -2.0542 -3.3469
  265MOL0     H36514   6.863   6.943  10.832 -1.6687 -1.7944 -1.0771
  265MOL0     H36515   6.887   6.859  11.122  1.4067  0.6823  0.8421
  265MOL0     H36516   6.803   7.002  11.056  1.1201  1.3410 -0.1306
  265MOL0     H36517   7.034   7.076  10.947  3.3497  1.0028  1.2497
  265MOL0     H36518   6.986   7.118  11.098 -0.5602  0.1093 -1.0124
  265MOL0     H36519   7.059   6.903  11.310  0.5032  0.3427  1.0562
  265MOL0     H36520   7.286   6.828  11.430  1.6422 -0.2638 -0.3257
  265MOL0     H36521   7.421   6.740  11.337 -0.0064 -2.7211  0.2752
  265MOL0     H36522   7.256   6.597  11.465  1.9677  1.3129  0.3114
  265MOL0     H36523   7.129   6.648  11.358  0.0890  2.1836  1.8056
  265MOL0     H36524   7.210   6.428  11.282  0.0949 -1.6661 -0.9382
  265MOL0     H36525   7.221   6.562  11.162  1.1875  0.2728 -0.0942
  265MOL0     H36526   7.424   6.404  11.180  1.8724  0.7098  0.5747
  265MOL0     H36527   7.460   6.574  11.182 -0.4652 -1.3842 -3.3205
  265MOL0     H36528   7.672   6.439  11.193 -2.6599 -0.4818  0.0574
  265MOL0     H36529   7.970   6.365  11.239 -0.0561 -0.8641 -2.3109
  265MOL0     H36530   7.980   6.541  11.178 -3.4913  4.0064  1.4592
  265MOL0     H36531   7.865   6.426  11.114  1.2421  0.6328 -0.8232
  265MOL0     H36532   8.222   6.734  11.439 -0.4824  1.3825  0.6575
  265MOL0     H36533   8.443   6.819  11.512  2.0300 -2.4512  1.0582
  265MOL0     H36534   8.654   6.868  11.658  1.3563  0.8124  1.8733
  265MOL0     H36535   8.543   6.999  11.615 -3.1146  0.4649  2.0052
  265MOL0     H36536   8.604   7.093  11.851 -1.0277 -2.8562  2.8668
  265MOL0     H36537   8.700   6.950  11.877  0.8687  1.0330  1.0959
  265MOL0     H36538   8.763   7.159  11.654 -0.0451 -2.9637 -2.3401
  265MOL0     H36539   8.824   7.010  11.663 -0.2404  0.0368  0.7273
  265MOL0     H36540   8.977   7.065  11.813  1.1973  1.3819 -2.0716
  265MOL0     H36541   8.867   7.144  11.928  3.6499 -4.3948  0.8140
  265MOL0     H36542   8.975   7.234  11.657  1.5480  0.0288 -0.7978
  265MOL0     H36543   8.888   7.340  11.765 -3.5270 -3.8249 -0.0658
  265MOL0     H36544   9.131   7.380  11.791  0.7450 -0.4704  0.1512
  265MOL0     H36545   9.160   7.201  11.816 -1.3945 -2.6524  2.9640
  265MOL0     H36546   9.124   7.218  12.032 -0.7212 -0.8179 -1.8027
  265MOL0     H36547   9.005   7.358  12.011  0.5182  0.8387  2.5907
  265MOL0     H36548   9.209   7.409  12.160 -1.3833  0.0825  0.1264
  265MOL0     H36549   9.198   7.508  12.021  0.3584  0.1595  0.2097
  265MOL0     H36550   8.303   6.778  11.923 -1.0790 -0.2365 -0.2605
  265MOL0     H36551   8.106   6.624  11.836 -0.0061 -0.9238  0.7298
  265MOL0     H36552   7.813   6.569  11.653  1.5120 -0.6428 -1.2747
  265MOL0     H36553   7.571   6.544  11.594  2.0610 -0.8123  1.8999
  265MOL0     H36554   6.174   6.515  10.551  1.1031  0.3110 -0.4698
  265MOL0     H36555   5.954   6.569  10.433 -1.2874  0.4704  1.7524
  265MOL0     H36556   5.696   6.665  10.040 -0.7787 -0.6346 -0.5937
  265MOL0     H36557   5.450   6.675   9.991 -0.0105  1.2391 -0.4096
  265MOL0     H36558   5.101   6.792  10.047  0.2705  1.7339 -0.1118
  265MOL0     H36559   5.238   6.739   9.955 -0.4757 -1.8714 -0.6868
  265MOL0     H36560   5.146   6.578  10.195 -1.7682 -1.5153 -0.3929
  265MOL0     H36561   5.252   6.519  10.072 -0.4251 -0.8638  0.7706
  265MOL0     H36562   5.009   6.417  10.074 -0.7306 -1.1889 -1.2357
  265MOL0     H36563   4.952   6.574  10.039 -0.8947 -1.4620 -1.4958
  265MOL0     H36564   5.113   6.405   9.856 -0.0926  0.6802 -1.7237
  265MOL0     H36565   5.060   6.575   9.811  0.0623  0.4076 -0.9677
  265MOL0     H36566   4.695   6.387   9.755 -0.0537  0.0762 -0.5718
  265MOL0     H36567   5.386   6.921  10.320 -0.7310 -2.0885  0.5660
  265MOL0     H36568   5.557   7.050  10.395 -0.1998 -0.3477  4.4999
  265MOL0     H36569   5.638   6.931  10.498  2.7137  1.5460  1.1741
  265MOL0     H36570   5.726   7.016  10.362 -1.0777  0.3028 -1.1118
  266MOL0     O36571  10.984   4.481   4.178  0.3341  0.9158 -0.0897
  266MOL0     C36572  11.078   4.407   4.215 -0.4593 -0.7819 -0.8205
  266MOL0     O36573  11.194   4.459   4.270 -0.1908 -0.4986  0.1370
  266MOL0     C36574  11.220   4.581   4.217 -0.5802 -0.7399 -0.0641
  266MOL0     C36575  11.172   4.693   4.281 -0.4067  0.3245 -1.5472
  266MOL0     C36576  11.204   4.821   4.240  0.7352  0.0013  0.6962
  266MOL0     C36577  11.293   4.838   4.137  0.1106  0.0367 -0.5781
  266MOL0     O36578  11.330   4.968   4.121  0.7305 -0.5335  0.9175
  266MOL0     C36579  11.426   4.994   4.019 -0.1976  0.6969  0.2185
  266MOL0     C36580  11.430   5.149   3.997  0.5995  0.0812 -0.3471
  266MOL0     C36581  11.522   5.182   3.881  0.5085 -0.1542  0.1363
  266MOL0     C36582  11.553   5.331   3.878  0.6553 -0.1392 -0.4583
  266MOL0     C36583  11.609   5.378   3.750 -0.1127  0.1149 -0.2564
  266MOL0     C36584  11.762   5.381   3.751  0.7291  0.2798 -0.3683
  266MOL0     C36585  11.820   5.393   3.614 -0.7237  0.3866  0.6947
  266MOL0     C36586  11.970   5.340   3.604  0.3911  0.0181  0.1419
  266MOL0     N36587  11.975   5.194   3.616 -0.9380  0.0065  0.0197
  266MOL0     C36588  11.946   5.114   3.514 -0.3962 -0.9646  0.6220
  266MOL0     C36589  11.986   4.989   3.542 -0.7875 -0.9176  0.4603
  266MOL0     C36590  11.981   4.860   3.479  0.5298 -0.6677  0.1785
  266MOL0     C36591  12.111   4.801   3.437  0.3441 -0.4844 -0.4454
  266MOL0     C36592  12.089   4.686   3.321  0.8330 -0.0401 -0.4783
  266MOL0     C36593  12.213   4.620   3.279  0.0591  0.0792  0.6462
  266MOL0     O36594  12.183   4.513   3.188  0.0610 -0.0570 -0.0429
  266MOL0     C36595  12.279   4.427   3.145  0.1826 -0.6580 -0.1107
  266MOL0     C36596  12.262   4.349   3.032 -0.2135  0.5624 -0.0084
  266MOL0     C36597  12.367   4.264   2.982  0.6586 -0.2216  0.2840
  266MOL0     C36598  12.330   4.194   2.852  0.2272  0.1598 -0.4826
  266MOL0     C36599  12.480   4.232   3.061  0.7996  0.4144 -0.3340
  266MOL0     C36600  12.591   4.151   3.020 -0.2492  0.2042 -0.1783
  266MOL0     O36601  12.691   4.117   3.119  0.2184  0.6616  0.0537
  266MOL0     C36602  12.816   4.083   3.073 -0.6708  0.2956  0.1447
  266MOL0     C36603  12.853   3.952   3.030  0.2060 -0.4146  0.1074
  266MOL0     C36604  12.979   3.925   2.982  0.4391  0.7656 -0.4738
  266MOL0     C36605  13.077   4.024   2.969 -0.7726  0.4064 -0.1579
  266MOL0     O36606  13.207   3.992   2.940 -0.1072  0.1678 -0.7143
  266MOL0     C36607  13.307   4.091   2.920 -0.6809  0.2851 -0.0791
  266MOL0     C36608  13.312   4.125   2.771  0.8446 -0.2167  0.7127
  266MOL0     C36609  13.446   4.197   2.742  0.1356  1.1054 -0.1262
  266MOL0     C36610  13.470   4.236   2.599 -0.4674  1.0283 -0.8336
  266MOL0     C36611  13.619   4.232   2.562 -0.1423  0.0715  0.1611
  266MOL0     C36612  13.671   4.086   2.544  0.3904  0.0426 -0.4310
  266MOL0     C36613  13.820   4.084   2.537 -0.1099 -0.2605  0.4765
  266MOL0     C36614  13.881   4.117   2.398  0.3314  0.7692  0.6673
  266MOL0    Cl36615  13.798   4.027   2.274  0.0394  0.7312  0.2213
  266MOL0     C36616  13.038   4.155   3.011  0.0938 -0.1753 -0.2820
  266MOL0     C36617  12.907   4.185   3.060 -0.6932 -0.5990 -0.7935
  266MOL0     O36618  12.604   4.137   2.902  0.7615  0.0299  0.1893
  266MOL0     C36619  12.487   4.293   3.190 -0.1032 -0.4184  0.2833
  266MOL0     C36620  12.390   4.397   3.226 -1.2676  0.4370 -0.4437
  266MOL0     N36621  12.067   5.009   3.653  0.5155  0.3580  0.3638
  266MOL0     N36622  12.057   5.128   3.696  0.0938 -0.6830 -0.2133
  266MOL0     C36623  11.353   4.723   4.064  0.3629 -0.0351  0.4428
  266MOL0     C36624  11.305   4.598   4.103 -0.6667  0.2324 -0.3529
  266MOL0     C36625  11.065   4.262   4.201  0.0846  1.0916  0.3390
  266MOL0     C36626  10.977   4.207   4.101 -0.0253 -0.9463 -1.2141
  266MOL0     C36627  10.952   4.074   4.084 -0.2202  0.4125  0.0188
  266MOL0     C36628  11.017   3.973   4.156 -0.1449 -0.2039 -0.2067
  266MOL0     O36629  10.995   3.849   4.115 -0.4671  0.4820 -1.1215
  266MOL0     C36630  11.072   3.741   4.173  0.6603 -0.0841  0.5905
  266MOL0     C36631  11.022   3.603   4.118 -0.0470  0.2106 -0.1112
  266MOL0     C36632  11.039   3.589   3.965  0.7357 -0.1386  0.1754
  266MOL0     C36633  10.956   3.475   3.905 -0.6952  0.3099 -0.3616
  266MOL0     C36634  11.009   3.343   3.937 -1.3712 -1.0478  1.0941
  266MOL0     C36635  11.064   3.229   3.948  1.2493 -0.2737  0.1800
  266MOL0     C36636  11.116   4.016   4.246 -0.4441 -0.0059 -0.6188
  266MOL0     C36637  11.137   4.162   4.282 -0.2049  0.4977  0.0365
  266MOL0     C36638  11.220   4.203   4.397 -0.2288  0.2484  0.2927
  266MOL0     H36639  11.101   4.670   4.359  2.1568  0.4482  0.9803
  266MOL0     H36640  11.167   4.909   4.291  2.7270  0.3945  1.5422
  266MOL0     H36641  11.393   4.951   3.924 -1.7630 -2.4702  2.0037
  266MOL0     H36642  11.520   4.956   4.060 -0.5561 -0.9526 -0.4181
  266MOL0     H36643  11.327   5.178   3.976 -0.3900 -2.3782  0.7893
  266MOL0     H36644  11.462   5.194   4.091 -0.2397  0.4479 -0.2313
  266MOL0     H36645  11.620   5.133   3.884  1.2619  1.1256 -1.9312
  266MOL0     H36646  11.461   5.161   3.792  0.7111  2.7456 -0.7752
  266MOL0     H36647  11.455   5.376   3.890 -0.2345 -2.0207 -0.3271
  266MOL0     H36648  11.616   5.369   3.959  0.9041 -0.8092 -0.3299
  266MOL0     H36649  11.560   5.473   3.728  0.5931  0.6262  0.3594
  266MOL0     H36650  11.580   5.312   3.667  1.9638 -0.9860 -0.1714
  266MOL0     H36651  11.793   5.461   3.818 -0.0800  0.4069 -0.1306
  266MOL0     H36652  11.801   5.290   3.797  2.4355  0.9381 -0.4518
  266MOL0     H36653  11.817   5.494   3.572  0.1682  0.7625  1.4909
  266MOL0     H36654  11.765   5.331   3.542  1.1255 -2.1746  1.3137
  266MOL0     H36655  12.010   5.378   3.510  2.0298 -2.5707 -0.2765
  266MOL0     H36656  12.027   5.368   3.693 -1.3982  0.4990  1.2020
  266MOL0     H36657  11.887   5.122   3.423 -0.6167 -0.9577  0.7648
  266MOL0     H36658  11.918   4.872   3.391 -0.6287 -1.1778  0.9134
  266MOL0     H36659  11.944   4.781   3.545  1.4051 -0.6980  0.6513
  266MOL0     H36660  12.186   4.868   3.395 -0.3221 -0.3947 -1.5418
  266MOL0     H36661  12.150   4.756   3.528 -0.2209 -2.5242 -1.1531
  266MOL0     H36662  12.016   4.620   3.369 -0.3936  2.7173  1.7858
  266MOL0     H36663  12.051   4.731   3.230  3.3509 -0.5424 -1.8624
  266MOL0     H36664  12.280   4.691   3.230  1.5791 -0.6349  1.6225
  266MOL0     H36665  12.270   4.592   3.368  1.0671 -0.1298 -0.0470
  266MOL0     H36666  12.166   4.351   2.981 -0.5795 -1.7111  0.4704
  266MOL0     H36667  12.374   4.244   2.765  1.4216 -1.1946 -0.6891
  266MOL0     H36668  12.221   4.198   2.839  0.1982  1.1812 -0.0195
  266MOL0     H36669  12.372   4.093   2.849  1.1510  0.4405  1.4000
  266MOL0     H36670  12.787   3.866   3.039  0.6805 -0.9887 -1.5259
  266MOL0     H36671  13.023   3.834   2.942 -1.6552 -1.4116  1.7969
  266MOL0     H36672  13.296   4.180   2.982 -2.5276 -0.0470  0.1263
  266MOL0     H36673  13.403   4.048   2.952  0.8078  3.0793 -0.5451
  266MOL0     H36674  13.310   4.029   2.720 -2.7508 -2.3982  4.3963
  266MOL0     H36675  13.227   4.185   2.739  1.4555  0.6075  0.5881
  266MOL0     H36676  13.526   4.133   2.781 -1.5975 -0.0767  1.6372
  266MOL0     H36677  13.442   4.286   2.806  0.2917 -0.5481  2.2963
  266MOL0     H36678  13.442   4.339   2.576  1.7148  2.0931  0.9633
  266MOL0     H36679  13.408   4.175   2.532 -1.7437 -0.3683  1.4738
  266MOL0     H36680  13.625   4.280   2.464  0.7238  0.3970  0.3662
  266MOL0     H36681  13.686   4.290   2.627 -0.0169 -0.8410  0.8651
  266MOL0     H36682  13.624   4.036   2.459  0.5960 -3.6665  1.4447
  266MOL0     H36683  13.643   4.032   2.635  1.7077 -3.4095 -1.8848
  266MOL0     H36684  13.827   3.978   2.566 -3.5930 -0.5024  0.8935
  266MOL0     H36685  13.862   4.150   2.612 -1.6428  0.4908  0.7208
  266MOL0     H36686  13.989   4.109   2.388  0.0231 -2.3695 -1.6082
  266MOL0     H36687  13.863   4.221   2.371  3.4983  1.3467  0.4563
  266MOL0     H36688  13.103   4.242   3.017 -2.7065  2.2391 -2.0099
  266MOL0     H36689  12.874   4.284   3.089  0.6015 -0.2613 -0.4245
  266MOL0     H36690  12.567   4.261   3.256  0.7819  1.1833  0.0408
  266MOL0     H36691  12.398   4.422   3.331  2.2797 -0.4870 -0.3715
  266MOL0     H36692  11.428   4.744   3.988 -0.9666  2.2984 -0.3410
  266MOL0     H36693  11.350   4.508   4.061 -1.7756 -3.0851  4.6653
  266MOL0     H36694  10.930   4.279   4.034  1.0905 -1.8512 -3.0464
  266MOL0     H36695  10.875   4.048   4.012 -0.3584  0.8845 -0.0085
  266MOL0     H36696  11.175   3.743   4.136  1.1533 -2.3188  1.6605
  266MOL0     H36697  11.069   3.739   4.282 -0.9462  2.9173  0.7136
  266MOL0     H36698  10.918   3.602   4.153 -0.7659 -0.1650 -2.0996
  266MOL0     H36699  11.064   3.515   4.166 -0.6305 -1.4666 -2.4812
  266MOL0     H36700  11.034   3.687   3.918  1.8648  1.0097  2.2956
  266MOL0     H36701  11.146   3.570   3.956  0.9417  0.8367  0.3866
  266MOL0     H36702  10.958   3.494   3.797 -2.6908 -0.4763 -0.5921
  266MOL0     H36703  10.851   3.476   3.937 -0.2305  3.0977  1.4775
  266MOL0     H36704  11.125   3.146   3.979 -0.0213 -0.3967  2.5951
  266MOL0     H36705  11.178   3.943   4.297 -1.6924 -0.4503  0.3202
  266MOL0     H36706  11.306   4.259   4.359 -0.7510  0.3646 -0.7511
  266MOL0     H36707  11.170   4.273   4.465 -0.7891  1.9944 -1.8049
  266MOL0     H36708  11.267   4.121   4.451  1.0391  0.3499 -0.6119
  267MOL0     O36709   0.448   9.295   9.905  0.1379 -0.6793 -0.0904
  267MOL0     C36710   0.434   9.188   9.854  0.8197 -0.7541  0.4220
  267MOL0     O36711   0.420   9.166   9.716  0.2733 -0.9325 -0.9904
  267MOL0     C36712   0.503   9.249   9.642 -0.5446  0.1077 -0.2556
  267MOL0     C36713   0.628   9.203   9.604 -0.6145 -0.5185  0.1469
  267MOL0     C36714   0.711   9.277   9.520 -0.3546 -0.1098 -0.0802
  267MOL0     C36715   0.667   9.400   9.464  0.4163 -0.4976  0.1543
  267MOL0     O36716   0.744   9.462   9.368 -0.7474 -0.1964 -0.0135
  267MOL0     C36717   0.835   9.552   9.427 -0.0455 -0.4223 -0.4304
  267MOL0     C36718   0.977   9.549   9.368  0.0813 -0.6196 -0.3211
  267MOL0     C36719   1.084   9.585   9.465  0.1801 -0.1760  0.2115
  267MOL0     C36720   1.224   9.566   9.406 -0.0001 -0.7912  0.6864
  267MOL0     C36721   1.333   9.640   9.484  0.5015  0.9840 -0.0497
  267MOL0     C36722   1.470   9.605   9.425 -0.4080  0.2390 -0.4443
  267MOL0     C36723   1.579   9.657   9.524  0.2721 -0.5829 -0.5917
  267MOL0     C36724   1.590   9.575   9.658  0.1849 -0.3072  0.2560
  267MOL0     N36725   1.728   9.581   9.722 -0.0798  0.2395 -0.0297
  267MOL0     C36726   1.782   9.699   9.768  0.3077 -0.1370  0.0607
  267MOL0     C36727   1.883   9.662   9.854 -0.2964 -0.7329  0.4823
  267MOL0     C36728   1.965   9.764   9.935  0.0336 -1.2047 -0.1663
  267MOL0     C36729   2.121   9.744   9.916 -0.5410 -0.8948  0.1257
  267MOL0     C36730   2.187   9.874   9.965 -1.3098 -0.3757 -0.1723
  267MOL0     C36731   2.280   9.844  10.078 -0.3218  0.2081  0.2082
  267MOL0     O36732   2.372   9.947  10.128  0.0495  0.1667 -0.1379
  267MOL0     C36733   2.397   9.950  10.261 -1.0491  0.5043 -0.7379
  267MOL0     C36734   2.336   9.899  10.377 -1.0050  0.1678 -1.3327
  267MOL0     C36735   2.395   9.906  10.505  0.2719  0.2372  0.5213
  267MOL0     C36736   2.315   9.867  10.625 -0.0739 -0.6535  0.6088
  267MOL0     C36737   2.529   9.955  10.519  0.7577  0.3578  0.5921
  267MOL0     C36738   2.613   9.939  10.632  0.0673 -0.9050 -0.3447
  267MOL0     O36739   2.701  10.041  10.652 -0.7001  0.2783  0.3625
  267MOL0     C36740   2.778  10.035  10.766  0.7436 -0.5949  0.1632
  267MOL0     C36741   2.909  10.096  10.760  0.1430 -0.2804 -0.0986
  267MOL0     C36742   2.986  10.098  10.869 -0.6471 -0.1112 -0.4673
  267MOL0     C36743   2.950  10.048  10.989  0.0394  1.0798  0.2329
  267MOL0     O36744   3.031  10.033  11.101 -0.5039 -0.2592 -0.0882
  267MOL0     C36745   3.173  10.082  11.088 -0.3088 -0.1728 -0.1715
  267MOL0     C36746   3.267  10.024  11.204 -0.0851 -0.4614  0.2808
  267MOL0     C36747   3.254  10.094  11.344  0.3979  0.2404  0.7046
  267MOL0     C36748   3.331  10.008  11.441  0.1889 -0.0834 -0.2181
  267MOL0     C36749   3.373  10.102  11.545  0.6040 -0.3703 -0.7997
  267MOL0     C36750   3.433  10.028  11.668  0.8209 -0.1610 -0.6353
  267MOL0     C36751   3.465  10.122  11.789  0.5946  0.7628  0.5496
  267MOL0     C36752   3.554  10.243  11.758 -0.5821 -0.3817  1.1767
  267MOL0    Cl36753   3.622  10.312  11.901  0.0306  0.6028 -0.3619
  267MOL0     C36754   2.823  10.001  11.000  0.8596 -0.1471  0.7088
  267MOL0     C36755   2.729   9.994  10.894  0.0928 -0.0397  0.7421
  267MOL0     O36756   2.612   9.830  10.687  0.4253 -0.0279 -0.0116
  267MOL0     C36757   2.593  10.002  10.401 -0.0021 -1.1494  1.1266
  267MOL0     C36758   2.521  10.010  10.284  0.5045 -0.6355  1.0967
  267MOL0     N36759   1.895   9.527   9.847  0.8497  0.5672  0.1568
  267MOL0     N36760   1.792   9.479   9.786  1.0960 -0.3154  0.5123
  267MOL0     C36761   0.543   9.448   9.487 -0.1616 -0.6861 -0.9351
  267MOL0     C36762   0.462   9.367   9.571 -0.9199 -0.6693 -0.2511
  267MOL0     C36763   0.432   9.079   9.954  1.1703 -0.2759 -0.3902
  267MOL0     C36764   0.506   9.085  10.073 -0.0366  0.0628 -0.3011
  267MOL0     C36765   0.479   8.999  10.179  0.7326 -0.0281 -0.4444
  267MOL0     C36766   0.385   8.889  10.171  0.2422 -0.1615 -0.4623
  267MOL0     O36767   0.336   8.816  10.280  0.1024  0.3796  0.8618
  267MOL0     C36768   0.425   8.778  10.377 -0.5941 -0.0968  0.2864
  267MOL0     C36769   0.374   8.819  10.518 -0.6823 -0.7775  0.7434
  267MOL0     C36770   0.390   8.970  10.538  0.6389  0.3117 -0.2539
  267MOL0     C36771   0.345   8.987  10.687  0.1066  0.7638  0.8516
  267MOL0     C36772   0.342   9.132  10.712 -1.0365 -0.1541 -0.3082
  267MOL0     C36773   0.331   9.236  10.761  0.1432 -0.4328 -0.4515
  267MOL0     C36774   0.314   8.883  10.048 -0.0720  0.9145 -0.2988
  267MOL0     C36775   0.341   8.970   9.944  0.3673  0.6578  0.0781
  267MOL0     C36776   0.277   8.948   9.814 -0.0807 -0.4768 -0.4126
  267MOL0     H36777   0.647   9.103   9.643 -1.4442 -1.2411 -1.2401
  267MOL0     H36778   0.808   9.235   9.494 -0.3461  0.3041 -0.7260
  267MOL0     H36779   0.833   9.550   9.536  1.1237 -0.2709 -0.3940
  267MOL0     H36780   0.782   9.642   9.395  0.7476  0.0011 -0.5969
  267MOL0     H36781   0.996   9.447   9.332  2.2117 -0.1508 -0.6222
  267MOL0     H36782   0.985   9.609   9.276 -0.0868 -0.5188 -0.2719
  267MOL0     H36783   1.070   9.684   9.508 -0.0234 -0.9238  1.9645
  267MOL0     H36784   1.076   9.526   9.558 -2.7379 -3.6648 -1.9954
  267MOL0     H36785   1.249   9.460   9.411  3.3176 -0.0900  1.2824
  267MOL0     H36786   1.226   9.598   9.302  0.2120  1.4061  1.2986
  267MOL0     H36787   1.331   9.614   9.591  1.2803 -2.5455 -0.7725
  267MOL0     H36788   1.312   9.747   9.471 -1.8270  0.3837 -1.7997
  267MOL0     H36789   1.478   9.501   9.393  0.4850  0.6559 -1.6627
  267MOL0     H36790   1.466   9.668   9.335  0.7617  1.4457  0.3111
  267MOL0     H36791   1.556   9.761   9.551 -1.2393 -1.2701  0.9423
  267MOL0     H36792   1.675   9.645   9.473  1.5953 -2.7892  2.1641
  267MOL0     H36793   1.527   9.616   9.737  0.9527 -1.5137  1.5525
  267MOL0     H36794   1.558   9.472   9.638 -0.8531 -0.2309  1.4170
  267MOL0     H36795   1.745   9.800   9.753  0.4422  0.0709  1.0735
  267MOL0     H36796   1.934   9.746  10.038 -0.4138  0.3905  0.0063
  267MOL0     H36797   1.930   9.867   9.923  1.2810 -0.3653  2.6826
  267MOL0     H36798   2.163   9.657   9.967 -0.4831 -0.7390  0.3435
  267MOL0     H36799   2.141   9.724   9.810 -1.9717  1.2601 -0.6412
  267MOL0     H36800   2.244   9.921   9.884 -0.4150  1.4328  1.4019
  267MOL0     H36801   2.107   9.942   9.995 -1.9346 -0.1298 -2.2869
  267MOL0     H36802   2.213   9.812  10.158  0.4376  2.9217  2.0691
  267MOL0     H36803   2.344   9.768  10.033  2.2283  2.2764  0.0886
  267MOL0     H36804   2.246   9.839  10.373  1.2815 -3.5807 -1.8620
  267MOL0     H36805   2.206   9.867  10.610  0.1003 -1.0626 -0.8271
  267MOL0     H36806   2.328   9.942  10.703 -0.6891  0.4377 -0.3072
  267MOL0     H36807   2.350   9.774  10.670 -0.5042 -2.4869 -2.5774
  267MOL0     H36808   2.938  10.155  10.674 -0.6879  3.5526  2.0331
  267MOL0     H36809   3.081  10.150  10.862 -1.3158  1.3784  0.8047
  267MOL0     H36810   3.219  10.028  11.005  0.4148 -0.1188  0.1886
  267MOL0     H36811   3.176  10.190  11.073  2.6744 -0.0729  0.4622
  267MOL0     H36812   3.240   9.920  11.221  0.9682 -0.5039  2.0331
  267MOL0     H36813   3.366  10.033  11.158 -0.1804  0.1353  0.1891
  267MOL0     H36814   3.150  10.103  11.376  0.5816  3.1734  0.7585
  267MOL0     H36815   3.291  10.195  11.324 -0.6398  0.5145  0.1358
  267MOL0     H36816   3.415   9.950  11.401  0.9079  0.9199 -0.2137
  267MOL0     H36817   3.257   9.936  11.476  1.5088 -1.6945 -0.5713
  267MOL0     H36818   3.441  10.173  11.497 -1.1873 -0.8215 -4.4187
  267MOL0     H36819   3.282  10.153  11.579  1.3385  1.1530 -1.0422
  267MOL0     H36820   3.522   9.969  11.645 -1.1524 -3.4732 -0.4073
  267MOL0     H36821   3.366   9.948  11.701  1.3603 -0.1803  0.4364
  267MOL0     H36822   3.519  10.052  11.855  0.2680 -2.4743 -2.3443
  267MOL0     H36823   3.372  10.154  11.838 -0.3338 -0.3806 -0.4143
  267MOL0     H36824   3.507  10.320  11.696 -0.1601  0.8357  2.3163
  267MOL0     H36825   3.638  10.213  11.695  0.7797 -0.8069  3.1298
  267MOL0     H36826   2.772   9.968  11.091  0.9778  2.0159  1.6012
  267MOL0     H36827   2.635   9.942  10.911 -1.3085  0.8860 -3.0667
  267MOL0     H36828   2.690  10.051  10.411 -0.9702  1.2456 -0.2438
  267MOL0     H36829   2.559  10.070  10.202  0.1422  1.9653  2.7155
  267MOL0     H36830   0.507   9.545   9.452 -3.7620  0.1553  4.0180
  267MOL0     H36831   0.367   9.410   9.601  1.0393  4.3015 -0.2678
  267MOL0     H36832   0.578   9.165  10.087 -1.0337  0.9962 -0.3526
  267MOL0     H36833   0.532   9.032  10.268 -0.5104  1.5806 -0.2590
  267MOL0     H36834   0.424   8.668  10.380 -0.9219 -0.1108 -0.2143
  267MOL0     H36835   0.529   8.805  10.356 -0.5757  1.0278  1.7087
  267MOL0     H36836   0.436   8.764  10.589  2.3890 -0.4902 -1.5192
  267MOL0     H36837   0.272   8.782  10.530 -0.9686  0.2695  1.7541
  267MOL0     H36838   0.492   9.002  10.516  0.8938 -2.0094 -3.0003
  267MOL0     H36839   0.332   9.027  10.465  1.4500  0.1633 -1.0428
  267MOL0     H36840   0.407   8.925  10.753  5.3210 -0.5386 -4.4345
  267MOL0     H36841   0.243   8.954  10.709  0.7623  0.6976  4.3543
  267MOL0     H36842   0.312   9.327  10.813  0.7498  1.2813 -3.0232
  267MOL0     H36843   0.229   8.817  10.034 -0.6566  0.9045  2.5377
  267MOL0     H36844   0.205   8.866   9.821  0.7115 -1.0985  0.8847
  267MOL0     H36845   0.227   9.037   9.777  0.3081  0.5192  1.3570
  267MOL0     H36846   0.365   8.916   9.756  1.1810  1.4103  0.3703
  268MOL0     O36847   2.897   7.575  10.650  0.5482  0.0125 -0.7963
  268MOL0     C36848   3.013   7.591  10.682  1.2045  0.3326 -0.4745
  268MOL0     O36849   3.082   7.500  10.754  0.1738  0.1639  0.1994
  268MOL0     C36850   3.097   7.373  10.703 -0.2442 -0.1915 -0.0760
  268MOL0     C36851   3.131   7.270  10.795  0.1803 -0.0620 -0.5909
  268MOL0     C36852   3.146   7.138  10.746 -0.6630 -0.0447 -0.0221
  268MOL0     C36853   3.119   7.103  10.608  0.4564 -0.2559  0.2853
  268MOL0     O36854   3.140   6.975  10.574  0.3347 -0.0563  1.2568
  268MOL0     C36855   3.047   6.925  10.479 -0.1015 -0.3072 -0.2197
  268MOL0     C36856   3.011   6.777  10.511 -0.2091  0.3186  0.8774
  268MOL0     C36857   3.115   6.674  10.469 -0.6131 -0.3905  0.2558
  268MOL0     C36858   3.226   6.650  10.574 -0.2087 -0.7963 -0.2836
  268MOL0     C36859   3.337   6.565  10.509  0.0958  0.3682 -0.0793
  268MOL0     C36860   3.468   6.582  10.585  0.2645 -0.5229 -0.1062
  268MOL0     C36861   3.592   6.521  10.525  0.0549  0.4467 -0.9177
  268MOL0     C36862   3.574   6.364  10.501  0.8013 -0.2058 -0.5633
  268MOL0     N36863   3.499   6.294  10.614  0.4212  0.0800  0.4015
  268MOL0     C36864   3.385   6.220  10.603  0.2295 -0.0769  0.5594
  268MOL0     C36865   3.375   6.139  10.706 -0.0104 -0.4913  0.7531
  268MOL0     C36866   3.276   6.039  10.736  0.5847 -0.0453  0.0809
  268MOL0     C36867   3.347   5.911  10.791  0.7819  0.4108  0.2324
  268MOL0     C36868   3.427   5.840  10.679 -0.0916  0.1528 -0.7692
  268MOL0     C36869   3.352   5.730  10.593  0.1972  0.3644 -0.3340
  268MOL0     O36870   3.436   5.677  10.492 -0.4729 -0.3665  0.7626
  268MOL0     C36871   3.554   5.608  10.523 -0.3038 -0.4420  0.2760
  268MOL0     C36872   3.567   5.524  10.639  0.5356 -0.3721  0.2376
  268MOL0     C36873   3.686   5.458  10.670 -0.7298 -0.1108 -0.7551
  268MOL0     C36874   3.693   5.379  10.802  0.2872  0.2858  0.2589
  268MOL0     C36875   3.796   5.466  10.586 -0.1552 -0.2091 -0.9307
  268MOL0     C36876   3.923   5.417  10.613  0.3496 -0.7655 -0.0254
  268MOL0     O36877   3.967   5.417  10.733  0.4282  0.0334 -0.6136
  268MOL0     C36878   4.085   5.360  10.770  0.0163  0.5722  0.5010
  268MOL0     C36879   4.141   5.407  10.886  0.3053 -0.3591  0.3575
  268MOL0     C36880   4.262   5.354  10.936  0.3152 -0.1298  0.5196
  268MOL0     C36881   4.324   5.244  10.869 -0.4798 -0.3547  0.0815
  268MOL0     O36882   4.449   5.186  10.904  0.1605  0.4830 -0.0704
  268MOL0     C36883   4.516   5.211  11.032 -0.2483 -0.0787  0.1637
  268MOL0     C36884   4.455   5.121  11.146 -0.5423  0.9357 -0.1724
  268MOL0     C36885   4.468   4.971  11.103 -0.2444 -0.7937  0.9387
  268MOL0     C36886   4.433   4.879  11.214 -0.1477  0.0265 -0.0080
  268MOL0     C36887   4.446   4.725  11.178 -0.3416 -0.2058  0.5716
  268MOL0     C36888   4.423   4.625  11.290 -0.1592 -0.2161 -0.9691
  268MOL0     C36889   4.392   4.487  11.216 -0.1138 -0.5806 -1.1458
  268MOL0     C36890   4.356   4.380  11.308 -0.1698 -0.0097 -0.3919
  268MOL0    Cl36891   4.326   4.225  11.223 -0.0613  0.4623 -0.2472
  268MOL0     C36892   4.260   5.197  10.761  0.7904  0.0017  0.0485
  268MOL0     C36893   4.135   5.243  10.714 -0.6124  0.8775 -0.0996
  268MOL0     O36894   3.977   5.359  10.522 -0.3643 -0.0236  0.3246
  268MOL0     C36895   3.791   5.544  10.465  0.3068 -0.8356 -0.4721
  268MOL0     C36896   3.674   5.618  10.440  0.2115 -1.2836 -0.4939
  268MOL0     N36897   3.480   6.163  10.788  0.6286  0.0602 -0.5927
  268MOL0     N36898   3.565   6.243  10.728 -0.0946  0.1062  0.0096
  268MOL0     C36899   3.101   7.209  10.519 -0.0546  0.1422  0.6193
  268MOL0     C36900   3.087   7.344  10.562 -0.0862  0.5866 -0.5357
  268MOL0     C36901   3.078   7.711  10.638 -0.5181 -0.3918  0.4520
  268MOL0     C36902   3.002   7.798  10.554 -0.1184  0.6595  0.4397
  268MOL0     C36903   3.063   7.896  10.481  0.8753 -0.5716 -0.5055
  268MOL0     C36904   3.197   7.928  10.507  0.2606  0.6838  0.0333
  268MOL0     O36905   3.247   8.049  10.451  0.3193  0.2188 -0.7215
  268MOL0     C36906   3.360   8.106  10.522 -0.4609 -0.3306 -0.1437
  268MOL0     C36907   3.376   8.252  10.480 -0.3086  0.0556 -0.4728
  268MOL0     C36908   3.510   8.305  10.525 -0.8095 -0.3685 -1.7108
  268MOL0     C36909   3.548   8.309  10.672  0.7030  0.3668 -0.2121
  268MOL0     C36910   3.652   8.395  10.701 -0.2105 -1.1367 -0.7760
  268MOL0     C36911   3.754   8.457  10.698 -0.6668  0.2952  0.5264
  268MOL0     C36912   3.265   7.858  10.600 -0.9296  0.6859 -1.3326
  268MOL0     C36913   3.211   7.749  10.672  0.1881 -0.5705 -0.0659
  268MOL0     C36914   3.306   7.678  10.771 -0.2943 -0.8094 -0.2072
  268MOL0     H36915   3.153   7.294  10.898 -1.7947 -0.8048  0.0522
  268MOL0     H36916   3.174   7.061  10.818 -0.3320  0.7861  0.7604
  268MOL0     H36917   3.087   6.928  10.377  0.0951  1.9713 -0.1202
  268MOL0     H36918   2.955   6.985  10.477  1.4364  2.6083  4.1987
  268MOL0     H36919   2.979   6.762  10.614  2.6415  1.2293  2.0042
  268MOL0     H36920   2.921   6.760  10.451  0.1302 -1.9364  0.9206
  268MOL0     H36921   3.064   6.577  10.463 -1.8449  0.3167 -1.9841
  268MOL0     H36922   3.154   6.693  10.368 -0.3241 -1.1832  0.2105
  268MOL0     H36923   3.258   6.742  10.624  0.7378 -2.7653  3.0546
  268MOL0     H36924   3.199   6.582  10.655  0.4912 -1.1704 -0.3586
  268MOL0     H36925   3.340   6.591  10.403  1.8836 -2.2068 -0.7460
  268MOL0     H36926   3.314   6.458  10.513  3.8057 -0.5199  1.7093
  268MOL0     H36927   3.489   6.689  10.589  1.5041 -0.7561 -0.2133
  268MOL0     H36928   3.449   6.552  10.689  1.7690  0.3174  0.4347
  268MOL0     H36929   3.673   6.537  10.597 -0.8342  2.5426 -0.3080
  268MOL0     H36930   3.615   6.563  10.426  2.1783 -2.3592 -1.7741
  268MOL0     H36931   3.518   6.346  10.409  0.2322  2.6499 -0.8492
  268MOL0     H36932   3.666   6.305  10.492  2.6080  2.3899 -0.1738
  268MOL0     H36933   3.317   6.218  10.519 -0.6916 -0.2630  1.2857
  268MOL0     H36934   3.219   6.012  10.647  0.4944  1.8478 -0.4716
  268MOL0     H36935   3.202   6.079  10.806  1.4039 -1.2873  1.7204
  268MOL0     H36936   3.395   5.933  10.886 -2.0271  0.9403  1.6549
  268MOL0     H36937   3.263   5.846  10.821  2.6109 -1.4529  1.6023
  268MOL0     H36938   3.467   5.920  10.616  1.5105 -0.7505 -0.9558
  268MOL0     H36939   3.517   5.795  10.722 -0.7263  1.1909  1.8237
  268MOL0     H36940   3.304   5.661  10.663 -1.8527  3.6063  1.7422
  268MOL0     H36941   3.269   5.786  10.550  2.2010  3.5250 -0.4634
  268MOL0     H36942   3.479   5.512  10.700 -0.1985 -1.4364 -0.9637
  268MOL0     H36943   3.599   5.357  10.853  0.3478 -3.2554 -0.9113
  268MOL0     H36944   3.760   5.435  10.868  1.6222 -1.8215  0.7923
  268MOL0     H36945   3.733   5.282  10.772 -0.0088  0.0388  0.6648
  268MOL0     H36946   4.092   5.499  10.917 -1.1420 -0.4673 -1.4071
  268MOL0     H36947   4.312   5.401  11.020  0.0515 -1.0541  1.2155
  268MOL0     H36948   4.623   5.197  11.017 -0.2334 -0.2776  0.4442
  268MOL0     H36949   4.500   5.313  11.067  0.5530 -0.4909  1.8369
  268MOL0     H36950   4.509   5.151  11.236 -1.0343 -0.5013  0.6259
  268MOL0     H36951   4.350   5.141  11.166 -1.4508  0.0897 -3.4567
  268MOL0     H36952   4.564   4.952  11.055 -0.4808  0.9641 -0.3497
  268MOL0     H36953   4.394   4.952  11.024 -0.8564  3.5286  0.2334
  268MOL0     H36954   4.325   4.893  11.214 -0.4865 -1.6320 -2.9697
  268MOL0     H36955   4.486   4.905  11.306 -1.5897  0.6865  0.6556
  268MOL0     H36956   4.370   4.705  11.102 -3.7421  2.9060  2.8233
  268MOL0     H36957   4.548   4.715  11.139 -0.6054 -1.5292  0.1869
  268MOL0     H36958   4.340   4.644  11.359 -0.0154 -1.8596 -0.2986
  268MOL0     H36959   4.513   4.637  11.351  0.9014  2.6516 -2.8771
  268MOL0     H36960   4.477   4.446  11.160 -0.8653 -0.7489 -2.1962
  268MOL0     H36961   4.304   4.502  11.153 -0.8535  2.2564  0.3952
  268MOL0     H36962   4.263   4.405  11.359 -2.0776 -3.1133 -2.0416
  268MOL0     H36963   4.430   4.367  11.387  0.0764  0.6990 -0.5025
  268MOL0     H36964   4.311   5.119  10.706 -0.9629 -0.3695 -1.1633
  268MOL0     H36965   4.093   5.180  10.637  0.7971 -1.5638  1.0109
  268MOL0     H36966   3.880   5.548  10.402  0.7421 -0.1536  0.1796
  268MOL0     H36967   3.664   5.673  10.347 -1.4944 -0.7723 -0.0520
  268MOL0     H36968   3.102   7.187  10.413  0.9675  0.5120  0.5408
  268MOL0     H36969   3.062   7.422  10.490 -0.7996  0.3331 -0.5682
  268MOL0     H36970   2.896   7.783  10.534 -0.4540  1.6884  1.4169
  268MOL0     H36971   2.988   7.956  10.430 -0.0689 -1.0359  0.2848
  268MOL0     H36972   3.340   8.103  10.630 -1.3454 -0.5324 -0.3094
  268MOL0     H36973   3.445   8.048  10.485 -0.9687  1.0876 -4.0091
  268MOL0     H36974   3.305   8.314  10.535  0.5539  1.0171 -0.4229
  268MOL0     H36975   3.373   8.260  10.371  1.2008 -0.0790 -0.5404
  268MOL0     H36976   3.586   8.237  10.483  3.0616  0.4898  2.9576
  268MOL0     H36977   3.523   8.407  10.490 -2.0914 -0.6246 -3.0074
  268MOL0     H36978   3.564   8.216  10.727  0.1358  0.5020  0.1877
  268MOL0     H36979   3.463   8.353  10.725 -2.0145 -0.7709 -3.2755
  268MOL0     H36980   3.851   8.502  10.691 -1.6930  2.5716 -0.1888
  268MOL0     H36981   3.365   7.891  10.629 -1.1025  0.5153 -0.5197
  268MOL0     H36982   3.345   7.584  10.730  0.1790 -0.6874 -0.0330
  268MOL0     H36983   3.395   7.734  10.798 -0.8528 -0.0494  0.0851
  268MOL0     H36984   3.257   7.668  10.868  2.1097  3.7217  1.7126
  269MOL0     O36985   0.693   2.407   4.057  1.1637 -0.7964 -0.1189
  269MOL0     C36986   0.627   2.400   3.957  0.9691 -0.6599  0.1580
  269MOL0     O36987   0.672   2.347   3.846 -0.1908  0.6831  0.3614
  269MOL0     C36988   0.801   2.308   3.846 -0.2366 -1.1533  0.2472
  269MOL0     C36989   0.833   2.180   3.839  0.2631 -0.2535  0.3064
  269MOL0     C36990   0.955   2.139   3.811 -0.2844  0.4115  0.2226
  269MOL0     C36991   1.064   2.226   3.820 -0.6031 -0.1825 -0.0886
  269MOL0     O36992   1.196   2.196   3.782  0.1776 -0.7797 -0.0174
  269MOL0     C36993   1.230   2.054   3.761  0.1156 -1.2960 -0.4783
  269MOL0     C36994   1.363   2.056   3.685  1.0369  0.1190 -0.3450
  269MOL0     C36995   1.482   2.110   3.765 -0.1269  0.6829 -0.8600
  269MOL0     C36996   1.479   2.257   3.796  0.3461 -0.3129  0.3740
  269MOL0     C36997   1.610   2.310   3.850  0.1979 -0.2699  0.9542
  269MOL0     C36998   1.661   2.269   3.988 -0.5340 -1.0874 -0.4319
  269MOL0     C36999   1.801   2.317   4.029 -0.5827  0.1343  0.5201
  269MOL0     C37000   1.805   2.443   4.110 -0.8563  0.6681  0.3754
  269MOL0     N37001   1.776   2.424   4.252  0.3723 -0.4567 -0.4392
  269MOL0     C37002   1.652   2.450   4.298 -0.3100  0.3702  0.1208
  269MOL0     C37003   1.651   2.443   4.433  0.0834 -0.8696 -0.2760
  269MOL0     C37004   1.540   2.459   4.527  0.8675 -0.3822  0.1183
  269MOL0     C37005   1.564   2.598   4.596  0.4274 -0.2231 -0.0487
  269MOL0     C37006   1.501   2.705   4.514  0.3492  0.2845  0.2926
  269MOL0     C37007   1.349   2.688   4.492 -0.3147 -0.1764  0.4539
  269MOL0     O37008   1.274   2.695   4.613 -0.7841  0.1785 -0.4152
  269MOL0     C37009   1.139   2.669   4.603  0.3894  0.3914 -0.3917
  269MOL0     C37010   1.069   2.632   4.482 -0.1528 -0.8062  0.8852
  269MOL0     C37011   0.928   2.622   4.468 -1.3499 -1.1315 -0.3081
  269MOL0     C37012   0.861   2.617   4.336  0.1016  0.3250  0.3701
  269MOL0     C37013   0.855   2.645   4.585 -0.5066 -0.9678  0.1462
  269MOL0     C37014   0.699   2.654   4.588 -0.3895  1.0106  0.8108
  269MOL0     O37015   0.645   2.616   4.709 -0.4289  0.5649 -1.1545
  269MOL0     C37016   0.516   2.643   4.732 -0.7525  0.1989 -0.4868
  269MOL0     C37017   0.489   2.764   4.794  0.3556 -0.0851 -0.4061
  269MOL0     C37018   0.363   2.790   4.854 -0.5518  0.6062 -0.3551
  269MOL0     C37019   0.259   2.695   4.836  0.8135 -0.2281 -0.8682
  269MOL0     O37020   0.133   2.723   4.894  0.9604  0.2099 -0.1243
  269MOL0     C37021   0.037   2.627   4.947  0.3968  0.2958 -0.2390
  269MOL0     C37022  -0.077   2.701   5.014 -0.0512 -0.8242  0.7301
  269MOL0     C37023  -0.223   2.661   4.968 -1.0115  0.7928 -0.4560
  269MOL0     C37024  -0.264   2.528   5.039  0.6214  0.2730  0.1741
  269MOL0     C37025  -0.373   2.454   4.954  0.0527  0.2572 -0.4261
  269MOL0     C37026  -0.468   2.356   5.032  0.4677 -0.3774 -0.6272
  269MOL0     C37027  -0.444   2.202   5.024  0.2107  0.6094  0.2050
  269MOL0     C37028  -0.473   2.149   4.888  0.5054  1.3499 -0.0476
  269MOL0    Cl37029  -0.420   1.972   4.879 -0.0872  0.0618 -0.2111
  269MOL0     C37030   0.280   2.579   4.761 -1.2201  0.0503 -1.3325
  269MOL0     C37031   0.414   2.549   4.723  0.2017  0.2583  0.4156
  269MOL0     O37032   0.638   2.693   4.486  1.1992  0.2998  0.4104
  269MOL0     C37033   0.922   2.671   4.705 -0.3314  0.6754 -0.2274
  269MOL0     C37034   1.055   2.695   4.709 -0.4502  0.0417  0.4562
  269MOL0     N37035   1.777   2.404   4.472 -0.7280 -0.4469  0.5582
  269MOL0     N37036   1.853   2.387   4.360 -1.2123 -0.1856 -0.8153
  269MOL0     C37037   1.040   2.358   3.843  0.6459 -0.1429 -0.1797
  269MOL0     C37038   0.907   2.399   3.851  0.6254 -0.1264  1.2048
  269MOL0     C37039   0.491   2.461   3.954 -0.1465 -0.4220  0.0025
  269MOL0     C37040   0.418   2.436   3.837  0.4555  0.8020 -0.4956
  269MOL0     C37041   0.296   2.487   3.814  0.3095 -0.5475  0.6467
  269MOL0     C37042   0.237   2.579   3.908  0.4187 -0.3936  0.1969
  269MOL0     O37043   0.099   2.598   3.886 -0.3171 -0.0907  0.2358
  269MOL0     C37044   0.026   2.653   3.998  0.0883 -0.0843 -0.1285
  269MOL0     C37045   0.018   2.810   3.986  0.4302 -0.2808  0.2072
  269MOL0     C37046  -0.046   2.862   4.129 -0.1396  1.1855 -0.1990
  269MOL0     C37047  -0.070   3.005   4.128 -0.0596  0.0008 -0.2711
  269MOL0     C37048  -0.128   3.037   4.261 -0.8905 -0.7914 -0.4080
  269MOL0     C37049  -0.168   3.056   4.373  0.3977  0.2385  0.9363
  269MOL0     C37050   0.315   2.617   4.026 -0.1571  0.7578  0.0246
  269MOL0     C37051   0.436   2.559   4.047 -0.1816  0.3050  0.5972
  269MOL0     C37052   0.510   2.612   4.165  0.5282 -0.4204 -0.2594
  269MOL0     H37053   0.749   2.111   3.838  0.9854 -1.1695  0.6458
  269MOL0     H37054   0.963   2.036   3.778  0.7387  0.7442 -0.6160
  269MOL0     H37055   1.153   1.998   3.707  0.7511 -0.0674 -2.7876
  269MOL0     H37056   1.252   2.013   3.860 -0.4239 -0.7799 -0.1404
  269MOL0     H37057   1.381   1.955   3.647 -0.3632  0.1132 -1.0515
  269MOL0     H37058   1.354   2.121   3.597 -0.5481  2.3523  1.3697
  269MOL0     H37059   1.491   2.057   3.861  3.3183  0.9244 -0.9494
  269MOL0     H37060   1.575   2.082   3.716  0.4191  0.5313  0.2251
  269MOL0     H37061   1.470   2.300   3.696 -0.0186 -0.7175  0.2260
  269MOL0     H37062   1.391   2.280   3.857 -3.3942 -1.5145 -3.9794
  269MOL0     H37063   1.604   2.419   3.847 -2.2046 -0.3474  0.4884
  269MOL0     H37064   1.688   2.294   3.775  1.8947  0.2859  2.5236
  269MOL0     H37065   1.599   2.286   4.076  0.4505 -0.5561  0.1777
  269MOL0     H37066   1.676   2.160   3.992  0.4838 -0.9166  2.1554
  269MOL0     H37067   1.860   2.344   3.941  0.5651  1.6967  1.6958
  269MOL0     H37068   1.849   2.239   4.088 -3.2221 -0.2179  2.3716
  269MOL0     H37069   1.900   2.496   4.105 -0.3321 -0.3313 -3.0004
  269MOL0     H37070   1.747   2.516   4.052  0.5897 -1.2612 -3.9219
  269MOL0     H37071   1.563   2.476   4.240 -1.0809 -2.1370  0.0682
  269MOL0     H37072   1.548   2.376   4.597 -1.2589 -0.3605  0.4531
  269MOL0     H37073   1.441   2.454   4.479  0.8109  2.4227 -0.2507
  269MOL0     H37074   1.537   2.606   4.701 -1.4070  2.3518 -0.6050
  269MOL0     H37075   1.671   2.618   4.598  0.3371  0.2096  1.1298
  269MOL0     H37076   1.519   2.804   4.556 -0.0693  0.2699  0.5120
  269MOL0     H37077   1.553   2.707   4.418  0.6705 -0.2236  0.4509
  269MOL0     H37078   1.316   2.774   4.434  2.2419 -0.1999 -1.1995
  269MOL0     H37079   1.325   2.603   4.428 -3.4301  1.3127 -0.5587
  269MOL0     H37080   1.126   2.623   4.390  0.7958  1.4506  1.1857
  269MOL0     H37081   0.914   2.544   4.274 -1.8566 -2.2648  1.5599
  269MOL0     H37082   0.851   2.713   4.285  3.1949 -0.2082 -1.4811
  269MOL0     H37083   0.760   2.576   4.326  0.3607  0.1434 -6.1149
  269MOL0     H37084   0.569   2.836   4.785 -0.3631  0.7236 -0.4260
  269MOL0     H37085   0.351   2.887   4.902 -0.4500  0.6415 -0.4008
  269MOL0     H37086   0.013   2.564   4.861  2.2428  0.5139 -0.9603
  269MOL0     H37087   0.073   2.564   5.029 -1.1006 -1.6426 -0.9861
  269MOL0     H37088  -0.071   2.677   5.120  0.4247 -1.3400  0.5864
  269MOL0     H37089  -0.070   2.810   5.003 -2.9493 -0.5325  0.8497
  269MOL0     H37090  -0.230   2.648   4.859  0.8502 -1.8779 -0.3765
  269MOL0     H37091  -0.293   2.736   5.004 -0.7993  0.1068  1.4880
  269MOL0     H37092  -0.301   2.552   5.140  1.3410  2.1944  0.0209
  269MOL0     H37093  -0.175   2.465   5.050 -0.4962 -1.5135 -0.5191
  269MOL0     H37094  -0.428   2.534   4.904  2.4994  1.3193 -1.5995
  269MOL0     H37095  -0.322   2.402   4.872 -0.2888 -0.4010 -0.2314
  269MOL0     H37096  -0.567   2.367   4.987 -0.9476 -3.0608  1.5415
  269MOL0     H37097  -0.481   2.395   5.134 -2.5003  3.1733 -2.1135
  269MOL0     H37098  -0.505   2.140   5.091  0.2725 -0.1756 -0.4598
  269MOL0     H37099  -0.341   2.182   5.053 -0.2263  1.5254  2.6577
  269MOL0     H37100  -0.413   2.210   4.821 -2.2668  2.4421 -1.6795
  269MOL0     H37101  -0.577   2.168   4.863  1.2339  4.6872 -0.9568
  269MOL0     H37102   0.204   2.502   4.750 -0.5393 -0.8804  0.2068
  269MOL0     H37103   0.438   2.459   4.669 -1.1746 -0.3044  0.7138
  269MOL0     H37104   0.865   2.714   4.787  0.9106  1.2605  0.3620
  269MOL0     H37105   1.099   2.754   4.789 -1.1099 -0.4676  1.2102
  269MOL0     H37106   1.115   2.436   3.852 -1.3716  1.9361 -0.4710
  269MOL0     H37107   0.870   2.501   3.855 -0.6217 -0.1837 -3.1887
  269MOL0     H37108   0.459   2.358   3.774 -0.9845 -2.8758  2.6929
  269MOL0     H37109   0.246   2.462   3.722 -1.9711  0.2707  1.5812
  269MOL0     H37110  -0.069   2.600   4.003  0.9522 -1.7096 -0.1199
  269MOL0     H37111   0.064   2.628   4.098 -0.7723  0.4795  0.3500
  269MOL0     H37112  -0.040   2.840   3.899 -1.1061 -0.0607  1.2654
  269MOL0     H37113   0.122   2.843   3.974  1.2835 -1.6671  2.8992
  269MOL0     H37114  -0.138   2.803   4.136  0.9495 -0.4976  0.5247
  269MOL0     H37115   0.012   2.832   4.216 -3.2399 -5.6177  0.1769
  269MOL0     H37116  -0.143   3.022   4.049  1.5623 -4.0634 -2.9776
  269MOL0     H37117   0.023   3.057   4.103 -0.3499  1.6310  1.7670
  269MOL0     H37118  -0.213   3.071   4.470 -1.6835  4.3074 -0.4212
  269MOL0     H37119   0.277   2.684   4.103 -1.6145  0.8920 -0.7605
  269MOL0     H37120   0.471   2.705   4.207 -0.6300 -0.6821 -0.6996
  269MOL0     H37121   0.504   2.543   4.250 -0.0793  2.9469  2.6745
  269MOL0     H37122   0.615   2.622   4.138  0.3020 -0.5857 -1.2404
  270MOL0     O37123   6.686   1.036   1.482  0.2820  0.1389 -0.1514
  270MOL0     C37124   6.698   0.916   1.514 -0.3956 -0.0675 -0.4895
  270MOL0     O37125   6.806   0.869   1.590 -0.3796  0.7681  0.7579
  270MOL0     C37126   6.899   0.955   1.638 -0.5641 -0.2649  0.1192
  270MOL0     C37127   7.014   0.977   1.561  0.1061  0.2586  0.2467
  270MOL0     C37128   7.102   1.071   1.599 -0.1661  1.1568 -0.4784
  270MOL0     C37129   7.078   1.147   1.718  0.4262 -0.3434 -0.3511
  270MOL0     O37130   7.178   1.241   1.748 -0.4102 -0.3611  0.6692
  270MOL0     C37131   7.169   1.312   1.874  0.5449 -0.5647  0.0074
  270MOL0     C37132   7.192   1.208   1.983  0.0481 -0.1895  0.0670
  270MOL0     C37133   7.340   1.184   1.994 -0.1033 -1.2546 -0.2959
  270MOL0     C37134   7.377   1.039   2.014 -0.1589  0.8967 -0.4634
  270MOL0     C37135   7.528   1.032   1.986 -0.4234 -0.3413  0.4713
  270MOL0     C37136   7.568   0.884   2.016 -0.3569  0.1321  0.4472
  270MOL0     C37137   7.717   0.842   1.990  0.4130 -0.3664 -0.0768
  270MOL0     C37138   7.747   0.695   2.036  0.0983 -1.4907 -0.2410
  270MOL0     N37139   7.852   0.668   2.139  1.0482 -0.1455 -0.8120
  270MOL0     C37140   7.960   0.744   2.171  0.2461 -1.1881  0.3521
  270MOL0     C37141   8.020   0.698   2.281 -0.0519 -0.7729 -0.8808
  270MOL0     C37142   8.156   0.747   2.310 -0.1232 -0.2838  0.2258
  270MOL0     C37143   8.257   0.708   2.200  0.1910 -0.2159 -0.0516
  270MOL0     C37144   8.249   0.567   2.142 -0.5083 -0.3686 -1.6471
  270MOL0     C37145   8.354   0.538   2.030  0.2879  0.3866  0.1240
  270MOL0     O37146   8.334   0.411   1.974 -0.1170  0.0091 -0.8101
  270MOL0     C37147   8.439   0.373   1.896  0.7192 -0.5342 -0.6019
  270MOL0     C37148   8.527   0.461   1.829  0.2745 -0.6740  0.0520
  270MOL0     C37149   8.642   0.415   1.764  0.1197  0.0435  0.3450
  270MOL0     C37150   8.726   0.513   1.691 -0.3659  0.5912  0.8766
  270MOL0     C37151   8.675   0.282   1.761 -0.8528 -0.7857  0.1449
  270MOL0     C37152   8.775   0.216   1.670 -0.5091 -0.4160  0.1530
  270MOL0     O37153   8.801   0.087   1.689  0.6867  0.4697 -0.0282
  270MOL0     C37154   8.919   0.040   1.648 -0.3838  0.3046  0.6391
  270MOL0     C37155   9.008  -0.014   1.740  0.4424 -0.1544 -1.1972
  270MOL0     C37156   9.142  -0.061   1.708 -0.4009  0.4679 -0.7908
  270MOL0     C37157   9.182  -0.054   1.578  0.1240  0.5382  0.2714
  270MOL0     O37158   9.312  -0.103   1.560 -0.0380 -0.0735  0.0976
  270MOL0     C37159   9.379  -0.076   1.435 -0.8543 -0.1684  0.3440
  270MOL0     C37160   9.526  -0.124   1.431 -0.1326  0.0491  0.2496
  270MOL0     C37161   9.611  -0.037   1.529  0.3669  0.1988 -0.0234
  270MOL0     C37162   9.767  -0.061   1.512  0.6978  0.1413  0.0861
  270MOL0     C37163   9.817  -0.207   1.509  0.3576  0.5797 -0.3292
  270MOL0     C37164   9.801  -0.280   1.643 -0.0972 -0.1471  0.4150
  270MOL0     C37165   9.850  -0.420   1.652 -0.0211 -0.9739 -0.3106
  270MOL0     C37166   9.788  -0.518   1.558 -0.5961  0.7059 -0.6418
  270MOL0    Cl37167   9.844  -0.693   1.576 -0.2360  0.1149  0.1719
  270MOL0     C37168   9.096  -0.000   1.482  0.6344 -0.2414 -0.0604
  270MOL0     C37169   8.968   0.051   1.516  1.1298  0.0310 -0.0961
  270MOL0     O37170   8.803   0.282   1.567  0.4851 -0.0324  0.0963
  270MOL0     C37171   8.597   0.195   1.838  0.7580  0.2692 -1.0280
  270MOL0     C37172   8.476   0.241   1.900  0.0086  0.1404  0.7723
  270MOL0     N37173   7.933   0.589   2.324 -0.5480 -0.5255  1.3895
  270MOL0     N37174   7.838   0.572   2.233 -0.7715  0.0142 -0.1191
  270MOL0     C37175   6.952   1.124   1.789  0.4326  1.2049  0.0587
  270MOL0     C37176   6.869   1.019   1.754  0.1655  0.9607 -0.3440
  270MOL0     C37177   6.604   0.822   1.467 -0.5462  0.0216 -0.6911
  270MOL0     C37178   6.579   0.716   1.551  0.5339 -0.5600 -0.3568
  270MOL0     C37179   6.480   0.614   1.516 -0.1858 -0.0390 -0.5677
  270MOL0     C37180   6.413   0.629   1.389  0.1389  0.2018  0.4447
  270MOL0     O37181   6.304   0.560   1.332 -0.1411 -0.2856 -0.1802
  270MOL0     C37182   6.228   0.473   1.418  0.4488 -0.9596 -0.2214
  270MOL0     C37183   6.107   0.540   1.468  0.4753  0.7845  0.1091
  270MOL0     C37184   6.020   0.446   1.541 -0.1155  0.5315  0.2359
  270MOL0     C37185   5.936   0.522   1.645  0.1368  0.4543 -1.4887
  270MOL0     C37186   5.822   0.442   1.690 -0.8823  0.7370  0.2221
  270MOL0     C37187   5.725   0.366   1.721 -1.0400 -0.1156  0.5794
  270MOL0     C37188   6.457   0.721   1.302 -0.5324  1.3058  0.5983
  270MOL0     C37189   6.543   0.821   1.340  0.5316 -0.4131 -0.0476
  270MOL0     C37190   6.576   0.922   1.239 -0.8026 -1.6356  0.4928
  270MOL0     H37191   7.036   0.908   1.480 -1.1720 -0.2487  0.3135
  270MOL0     H37192   7.197   1.072   1.546  0.0592 -2.0730 -0.3197
  270MOL0     H37193   7.069   1.354   1.865  1.4206  1.2365 -2.4696
  270MOL0     H37194   7.251   1.384   1.880  0.6136 -0.4126 -2.0927
  270MOL0     H37195   7.151   1.256   2.073 -1.2579  1.2560 -1.2369
  270MOL0     H37196   7.138   1.115   1.964 -0.7514  0.1591  0.5796
  270MOL0     H37197   7.390   1.216   1.902  0.3844  0.8112  0.6475
  270MOL0     H37198   7.384   1.242   2.075  1.5123 -0.8844 -1.3878
  270MOL0     H37199   7.365   1.007   2.117 -2.6180 -1.2615 -1.3164
  270MOL0     H37200   7.319   0.971   1.950 -1.2099  0.4445  0.9246
  270MOL0     H37201   7.590   1.099   2.046  0.7239 -0.8845 -0.0858
  270MOL0     H37202   7.559   1.046   1.883 -0.2949  0.1810  0.5751
  270MOL0     H37203   7.554   0.872   2.124 -2.0842 -0.2765  0.1981
  270MOL0     H37204   7.505   0.817   1.957  1.4492 -1.1008 -0.1768
  270MOL0     H37205   7.777   0.906   2.055  1.1937 -0.6664 -0.4999
  270MOL0     H37206   7.742   0.859   1.885 -2.3638 -1.7504 -1.0965
  270MOL0     H37207   7.654   0.663   2.084  0.0714  1.2594  1.8313
  270MOL0     H37208   7.760   0.633   1.947 -0.0253 -0.9325 -0.6534
  270MOL0     H37209   7.992   0.829   2.112 -1.9320 -0.3931  0.2190
  270MOL0     H37210   8.185   0.707   2.407 -1.4515 -1.2514  0.2543
  270MOL0     H37211   8.148   0.857   2.314 -0.1421 -0.2635 -0.2896
  270MOL0     H37212   8.253   0.786   2.124  1.4994  0.4403  0.5322
  270MOL0     H37213   8.358   0.727   2.236  0.3542  1.5097 -1.3012
  270MOL0     H37214   8.273   0.489   2.215 -0.6777 -0.6981 -1.9384
  270MOL0     H37215   8.153   0.542   2.097 -1.3415 -1.4420  0.5941
  270MOL0     H37216   8.346   0.616   1.954  0.6072  0.9740  0.6860
  270MOL0     H37217   8.454   0.558   2.069  0.9548 -0.8019 -0.8808
  270MOL0     H37218   8.506   0.568   1.831 -1.5120 -0.9960 -0.2379
  270MOL0     H37219   8.691   0.521   1.588 -1.4808 -1.8898  0.9904
  270MOL0     H37220   8.831   0.485   1.702 -0.3268  0.1101 -0.5000
  270MOL0     H37221   8.712   0.606   1.746  0.3553  1.5131 -0.4596
  270MOL0     H37222   8.976  -0.010   1.844  0.0069  1.8171 -1.3601
  270MOL0     H37223   9.202  -0.110   1.783 -1.2563 -1.1909 -1.1454
  270MOL0     H37224   9.330  -0.140   1.361  1.4259 -3.2256  1.2378
  270MOL0     H37225   9.372   0.031   1.413 -2.3340 -0.4250 -0.5661
  270MOL0     H37226   9.534  -0.226   1.469 -0.1731 -0.2432 -0.5282
  270MOL0     H37227   9.574  -0.111   1.333  2.0003 -0.8951  1.0988
  270MOL0     H37228   9.582  -0.069   1.629  0.0531  1.1825  0.2134
  270MOL0     H37229   9.596   0.071   1.517 -5.1996 -0.4023 -1.5871
  270MOL0     H37230   9.817  -0.026   1.603  0.0290  0.2095  0.4318
  270MOL0     H37231   9.800   0.001   1.429 -0.3122  1.0413  0.3453
  270MOL0     H37232   9.764  -0.262   1.430 -0.8137 -0.8267  1.3502
  270MOL0     H37233   9.923  -0.214   1.481  0.0417 -1.5451 -1.2872
  270MOL0     H37234   9.695  -0.292   1.668 -0.3138 -2.1158 -1.1938
  270MOL0     H37235   9.841  -0.216   1.721 -0.7282 -0.1616  0.7494
  270MOL0     H37236   9.848  -0.448   1.757 -2.3528  1.6547  0.4468
  270MOL0     H37237   9.955  -0.411   1.620 -1.1568  0.3227 -4.2379
  270MOL0     H37238   9.811  -0.484   1.456 -3.9266 -0.0438 -1.7810
  270MOL0     H37239   9.681  -0.532   1.571 -0.2801 -0.9635  0.4376
  270MOL0     H37240   9.130   0.015   1.380  4.1261 -1.2974  0.8025
  270MOL0     H37241   8.909   0.089   1.434  2.0165  0.5183 -0.5131
  270MOL0     H37242   8.628   0.092   1.843 -1.2748 -0.4450 -2.0816
  270MOL0     H37243   8.410   0.167   1.944 -2.0765  0.2234 -1.9973
  270MOL0     H37244   6.926   1.171   1.884  2.6919  0.9269  0.8748
  270MOL0     H37245   6.777   0.992   1.804  0.4588  1.1757  0.3302
  270MOL0     H37246   6.614   0.714   1.653 -0.3775  2.3594  0.1209
  270MOL0     H37247   6.472   0.538   1.592 -0.1989  1.4499  0.9957
  270MOL0     H37248   6.200   0.377   1.374 -1.1650 -1.5257  1.8912
  270MOL0     H37249   6.287   0.438   1.503 -1.0598 -0.2670  1.1695
  270MOL0     H37250   6.050   0.589   1.388 -0.0984  1.5302  0.9539
  270MOL0     H37251   6.142   0.625   1.527  0.8051 -0.0008  1.0862
  270MOL0     H37252   5.953   0.412   1.462  0.7085 -1.8467  0.4866
  270MOL0     H37253   6.074   0.365   1.592 -1.3330  0.9679  2.3649
  270MOL0     H37254   5.902   0.607   1.586 -0.0716  0.6641 -1.0711
  270MOL0     H37255   5.980   0.562   1.737 -0.0480 -1.1240 -0.6817
  270MOL0     H37256   5.645   0.304   1.755  1.2939 -4.0999 -0.6309
  270MOL0     H37257   6.424   0.721   1.198  0.5238 -1.9952  0.1642
  270MOL0     H37258   6.684   0.930   1.223 -1.3705  2.6004 -2.9105
  270MOL0     H37259   6.534   0.894   1.142  2.9141 -2.6803 -1.0177
  270MOL0     H37260   6.532   1.017   1.271 -1.7599 -1.6080 -0.8125
  271MOL0     O37261   2.542   5.714  10.122 -0.1707 -0.0241 -0.1047
  271MOL0     C37262   2.650   5.671  10.078  0.4668  0.1267  0.4453
  271MOL0     O37263   2.674   5.540  10.039 -0.2933  0.4379  0.7302
  271MOL0     C37264   2.566   5.467  10.013  0.1132 -1.2653 -0.0331
  271MOL0     C37265   2.547   5.337  10.061 -1.6572  0.3333  0.5247
  271MOL0     C37266   2.439   5.257  10.024 -1.1160 -0.4168 -0.2238
  271MOL0     C37267   2.343   5.301   9.943  0.1019 -0.2136  0.0236
  271MOL0     O37268   2.247   5.202   9.911 -0.6216  0.2742 -0.4166
  271MOL0     C37269   2.112   5.226   9.862  0.5718 -0.1807 -0.0322
  271MOL0     C37270   2.007   5.291   9.953 -0.4477 -0.5940  0.5663
  271MOL0     C37271   1.960   5.206  10.071 -0.1616  0.7822 -0.6898
  271MOL0     C37272   2.055   5.082  10.107  0.2312  0.2218  0.3640
  271MOL0     C37273   2.025   5.005  10.237  0.0069 -0.4960  0.1912
  271MOL0     C37274   2.068   5.077  10.369 -0.3719  0.1002  0.7955
  271MOL0     C37275   2.209   5.129  10.381 -0.5077 -0.6051  1.2282
  271MOL0     C37276   2.318   5.031  10.331  0.0314  0.5111  0.0326
  271MOL0     N37277   2.328   4.916  10.423  0.5036 -0.5500  0.1081
  271MOL0     C37278   2.254   4.799  10.431  0.4344 -0.0036  0.3406
  271MOL0     C37279   2.299   4.726  10.528 -0.1985 -0.2719  0.2009
  271MOL0     C37280   2.225   4.607  10.587  0.2311 -0.7528 -0.4616
  271MOL0     C37281   2.312   4.478  10.575 -0.8067  0.6372 -0.6047
  271MOL0     C37282   2.326   4.442  10.428 -1.8500 -0.0658 -0.1514
  271MOL0     C37283   2.474   4.403  10.386  0.2329 -0.2904  0.2016
  271MOL0     O37284   2.509   4.297  10.470  0.7962  0.3492  1.3259
  271MOL0     C37285   2.634   4.239  10.440  0.9920 -0.4865 -0.8282
  271MOL0     C37286   2.746   4.309  10.477 -0.1729 -0.3256 -0.2281
  271MOL0     C37287   2.878   4.251  10.465  0.4233  0.2660 -0.3985
  271MOL0     C37288   2.978   4.354  10.515 -0.4132 -0.4977 -0.1796
  271MOL0     C37289   2.900   4.128  10.413 -0.0091 -0.5963  0.2706
  271MOL0     C37290   3.039   4.069  10.403 -0.5371  0.5921  0.3533
  271MOL0     O37291   3.152   4.154  10.411  0.4512 -0.9372 -0.1708
  271MOL0     C37292   3.283   4.111  10.400 -0.6293 -0.3878 -0.4727
  271MOL0     C37293   3.327   3.979  10.369  0.3793  0.4674  0.2457
  271MOL0     C37294   3.472   3.968  10.359 -0.0311  0.6411 -0.1526
  271MOL0     C37295   3.566   4.059  10.403 -1.1283 -0.6879  1.0092
  271MOL0     O37296   3.699   4.028  10.397  0.2964 -0.8660  0.3200
  271MOL0     C37297   3.748   4.007  10.526  1.1880 -0.5069  0.1788
  271MOL0     C37298   3.897   3.990  10.538  0.6535 -0.0837 -0.7443
  271MOL0     C37299   3.932   3.854  10.480  0.2809 -1.0007 -0.3961
  271MOL0     C37300   4.071   3.813  10.511 -0.4481  0.0599 -0.4573
  271MOL0     C37301   4.178   3.904  10.433  0.5401  0.3454  0.0190
  271MOL0     C37302   4.320   3.847  10.458  0.1952 -0.7673  0.8411
  271MOL0     C37303   4.389   3.876  10.317 -0.8430  0.1335  0.3067
  271MOL0     C37304   4.539   3.869  10.338  0.4642 -1.0738 -0.4614
  271MOL0    Cl37305   4.623   3.910  10.193  0.3506  0.2917  0.2354
  271MOL0     C37306   3.519   4.186  10.431 -0.7307  0.0970 -0.0996
  271MOL0     C37307   3.382   4.209  10.427  0.4038 -0.0035  0.4203
  271MOL0     O37308   3.052   3.949  10.370 -0.0696 -0.6964  0.2068
  271MOL0     C37309   2.788   4.059  10.366 -0.2887  0.4190  0.2423
  271MOL0     C37310   2.657   4.110  10.380  0.0793  0.6374 -0.1303
  271MOL0     N37311   2.417   4.785  10.575 -0.6143 -0.1899 -0.1105
  271MOL0     N37312   2.430   4.904  10.524  0.6509  0.1805 -0.1377
  271MOL0     C37313   2.361   5.428   9.885  0.3596  0.4060  0.4195
  271MOL0     C37314   2.469   5.509   9.923 -0.3070  0.6493  0.0766
  271MOL0     C37315   2.774   5.752  10.096  0.0805 -0.7124 -0.5759
  271MOL0     C37316   2.894   5.702  10.046 -0.8480  0.0166  0.5635
  271MOL0     C37317   3.016   5.770  10.054 -0.3060 -0.7456 -0.5656
  271MOL0     C37318   3.024   5.894  10.121 -0.2472 -1.2613 -0.7283
  271MOL0     O37319   3.148   5.947  10.138 -0.6713 -0.2992  0.4904
  271MOL0     C37320   3.168   6.086  10.101  0.6209  0.5768  0.6932
  271MOL0     C37321   3.151   6.172  10.233 -0.2371  0.0501  0.3588
  271MOL0     C37322   3.181   6.326  10.205 -0.2472 -0.3048  0.5510
  271MOL0     C37323   3.324   6.349  10.164  0.0881  0.5108  0.4504
  271MOL0     C37324   3.351   6.482  10.109  0.1896 -0.1474 -0.7910
  271MOL0     C37325   3.390   6.591  10.072 -0.5342 -0.4811  0.1843
  271MOL0     C37326   2.905   5.953  10.172 -0.4185  0.5406  0.5668
  271MOL0     C37327   2.782   5.881  10.166  0.0428 -0.1640 -0.5571
  271MOL0     C37328   2.665   5.937  10.224  0.0822 -0.4763 -0.2859
  271MOL0     H37329   2.616   5.276  10.119 -1.7257  0.6028  0.8902
  271MOL0     H37330   2.451   5.152  10.051  1.0395 -0.6094 -1.6090
  271MOL0     H37331   2.074   5.134   9.816  0.2839  0.5129 -1.2292
  271MOL0     H37332   2.130   5.299   9.783 -1.3882  1.0170  0.5769
  271MOL0     H37333   2.054   5.381   9.994 -1.2494 -0.8183  2.0493
  271MOL0     H37334   1.918   5.320   9.895  1.0391  1.6668 -0.7542
  271MOL0     H37335   1.943   5.275  10.154 -1.7406  0.6402 -0.8672
  271MOL0     H37336   1.871   5.158  10.029  0.2669  0.7958 -1.6378
  271MOL0     H37337   2.056   5.005  10.029  3.7985 -1.9918  2.3191
  271MOL0     H37338   2.159   5.113  10.114  0.4179 -0.2410 -0.2832
  271MOL0     H37339   2.088   4.916  10.242  0.0039 -0.5021  0.1329
  271MOL0     H37340   1.922   4.968  10.235 -1.3794  3.0154 -1.1314
  271MOL0     H37341   1.994   5.151  10.397 -0.9049  0.1485 -0.6763
  271MOL0     H37342   2.065   5.011  10.457  1.8906 -1.6790 -0.3378
  271MOL0     H37343   2.232   5.156  10.484  1.6021 -0.3372  0.7414
  271MOL0     H37344   2.219   5.218  10.319 -0.4309 -1.1256  0.4753
  271MOL0     H37345   2.299   4.987  10.233  0.6949  0.4964 -0.0933
  271MOL0     H37346   2.415   5.081  10.324  0.0644  0.2987 -1.2363
  271MOL0     H37347   2.160   4.776  10.381  0.1890 -2.4285  1.7859
  271MOL0     H37348   2.128   4.595  10.538  0.5128 -1.5733 -0.8515
  271MOL0     H37349   2.187   4.619  10.689 -0.6152 -0.6714 -0.7801
  271MOL0     H37350   2.401   4.489  10.638 -1.0414 -3.6739  0.7695
  271MOL0     H37351   2.267   4.390  10.621  0.6223  0.0681 -0.2470
  271MOL0     H37352   2.266   4.356  10.398 -2.6449  0.1582  0.7707
  271MOL0     H37353   2.296   4.527  10.366  0.6250  0.7166 -0.4069
  271MOL0     H37354   2.470   4.383  10.278  2.4542 -3.0189  0.5240
  271MOL0     H37355   2.537   4.490  10.408  0.8787 -1.3686  2.9562
  271MOL0     H37356   2.733   4.403  10.528 -0.7756  1.1471 -2.9170
  271MOL0     H37357   3.053   4.371  10.437  1.2981 -2.5518  0.9131
  271MOL0     H37358   3.036   4.312  10.598  1.6893  0.8542 -0.8928
  271MOL0     H37359   2.940   4.451  10.548 -0.8070 -0.9766  0.8009
  271MOL0     H37360   3.267   3.898  10.330  2.6142 -1.2484  0.1649
  271MOL0     H37361   3.511   3.875  10.320  1.9939  1.0486  0.7975
  271MOL0     H37362   3.710   4.086  10.591 -0.0192  0.4923 -1.6554
  271MOL0     H37363   3.698   3.921  10.570 -2.0363  1.0838 -0.0513
  271MOL0     H37364   3.960   4.061  10.484  1.9968  1.9436  3.1024
  271MOL0     H37365   3.923   4.007  10.643  0.2071  0.7071 -0.7489
  271MOL0     H37366   3.922   3.870  10.372  2.0101  0.0569 -0.4520
  271MOL0     H37367   3.867   3.771  10.509  1.0069 -2.2475 -2.1390
  271MOL0     H37368   4.090   3.714  10.467  1.8792  0.8738 -1.4854
  271MOL0     H37369   4.106   3.811  10.614  1.9804 -2.4621 -1.1960
  271MOL0     H37370   4.153   3.891  10.328 -0.3281  1.7888  0.0214
  271MOL0     H37371   4.166   4.009  10.462 -0.3088 -0.0109  1.0609
  271MOL0     H37372   4.315   3.738  10.471  1.8560 -0.9116  0.5715
  271MOL0     H37373   4.374   3.887  10.544  0.1115 -1.9046  1.4380
  271MOL0     H37374   4.366   3.978  10.285  1.3278  0.5775  0.0140
  271MOL0     H37375   4.367   3.809  10.233  2.1475 -2.9327  1.7357
  271MOL0     H37376   4.547   3.762  10.358 -0.7149 -1.2611 -0.8575
  271MOL0     H37377   4.569   3.934  10.420  0.7833 -4.3636  2.2116
  271MOL0     H37378   3.594   4.254  10.470  0.4297 -3.1359  3.9650
  271MOL0     H37379   3.341   4.308  10.442 -0.9150 -0.1064 -1.9556
  271MOL0     H37380   2.794   3.960  10.320  0.7601 -0.5578  2.3482
  271MOL0     H37381   2.576   4.047  10.346  2.6515 -1.9468 -1.8740
  271MOL0     H37382   2.295   5.469   9.809 -0.1752 -2.6661 -0.9373
  271MOL0     H37383   2.491   5.605   9.877  1.6363  1.1423  1.8752
  271MOL0     H37384   2.895   5.605   9.997 -1.6742  0.1478  0.2700
  271MOL0     H37385   3.105   5.727  10.009  2.1559  0.0756  3.1191
  271MOL0     H37386   3.264   6.085  10.048 -0.0164 -0.3722 -0.4934
  271MOL0     H37387   3.091   6.106  10.027 -0.0022 -0.9350  0.8905
  271MOL0     H37388   3.225   6.125  10.298  0.1851  1.0134  0.5911
  271MOL0     H37389   3.054   6.165  10.282  0.5441  0.5513  2.0616
  271MOL0     H37390   3.117   6.351  10.120 -1.7261 -0.2008  1.6583
  271MOL0     H37391   3.144   6.387  10.287 -0.7997 -0.3698  0.3575
  271MOL0     H37392   3.359   6.281  10.085 -1.2071  3.1727 -2.6692
  271MOL0     H37393   3.386   6.331  10.252  0.0024 -1.7420  0.1025
  271MOL0     H37394   3.433   6.679  10.029  2.2466 -1.2105  1.2353
  271MOL0     H37395   2.905   6.051  10.218  2.3964  0.7600  0.2917
  271MOL0     H37396   2.690   6.026  10.283 -1.6131 -1.5921  2.2765
  271MOL0     H37397   2.591   5.967  10.149  2.2004  1.6731 -1.6918
  271MOL0     H37398   2.612   5.876  10.298  1.0904  3.6928  4.3969
  272MOL0     O37399   8.293   4.146  10.203 -0.0989 -0.0623 -0.1705
  272MOL0     C37400   8.372   4.075  10.265 -0.5232 -0.0307  0.3434
  272MOL0     O37401   8.346   3.947  10.317 -0.2900 -0.3005  0.3676
  272MOL0     C37402   8.226   3.896  10.281 -1.0482  0.5444 -0.0935
  272MOL0     C37403   8.193   3.850  10.154 -0.9972  0.5198 -0.8947
  272MOL0     C37404   8.077   3.776  10.133 -0.8334  0.1266  0.2571
  272MOL0     C37405   7.990   3.741  10.232  0.0320  0.6833  0.0770
  272MOL0     O37406   7.863   3.689  10.223 -0.1088 -0.1452 -0.4904
  272MOL0     C37407   7.854   3.578  10.132  0.5653 -0.2029 -0.1257
  272MOL0     C37408   7.712   3.527  10.145  0.1360 -0.6517 -0.6954
  272MOL0     C37409   7.697   3.444  10.278 -0.5222  0.1825  0.8978
  272MOL0     C37410   7.554   3.398  10.300  0.9570  0.3228  0.0851
  272MOL0     C37411   7.467   3.510  10.362  0.3633 -0.7071 -0.5954
  272MOL0     C37412   7.317   3.478  10.384 -0.0145 -0.3143  0.0913
  272MOL0     C37413   7.235   3.600  10.428  0.1953  0.5977 -0.4739
  272MOL0     C37414   7.088   3.588  10.393  0.6133 -0.5589 -0.5735
  272MOL0     N37415   7.026   3.483  10.468  0.1878 -0.3650  0.1966
  272MOL0     C37416   7.013   3.350  10.435 -0.5167 -0.3639  0.6809
  272MOL0     C37417   6.938   3.293  10.531 -0.2860  0.5409 -0.2701
  272MOL0     C37418   6.913   3.149  10.553  0.1088 -0.1248  0.2106
  272MOL0     C37419   6.779   3.123  10.487  0.2258  0.7080  1.0152
  272MOL0     C37420   6.666   3.229  10.517  0.6342 -0.3662 -0.0782
  272MOL0     C37421   6.614   3.207  10.656  0.2096  0.2580 -0.0527
  272MOL0     O37422   6.476   3.234  10.655 -0.9834  0.4044  0.0415
  272MOL0     C37423   6.442   3.363  10.659 -0.3223 -0.0586  0.5803
  272MOL0     C37424   6.525   3.480  10.652 -0.3039  0.4958  0.0159
  272MOL0     C37425   6.474   3.616  10.649  0.2345  0.8347  0.2189
  272MOL0     C37426   6.579   3.727  10.655  0.6424  0.1033  0.2896
  272MOL0     C37427   6.334   3.628  10.661 -0.2198  0.3329 -0.6637
  272MOL0     C37428   6.272   3.760  10.670  0.5539 -0.3419  0.5639
  272MOL0     O37429   6.138   3.761  10.696  0.3153  0.1110  0.1494
  272MOL0     C37430   6.076   3.875  10.734  0.6611  0.9595 -0.1799
  272MOL0     C37431   6.065   3.902  10.869 -0.1685 -0.0862 -0.1632
  272MOL0     C37432   6.011   4.019  10.920  0.2926 -0.2467  0.6204
  272MOL0     C37433   5.959   4.113  10.828  0.3802  0.1725  0.7424
  272MOL0     O37434   5.898   4.237  10.858 -0.7333 -0.7726 -0.0046
  272MOL0     C37435   5.897   4.283  10.996 -0.2831  0.6346  0.0734
  272MOL0     C37436   5.751   4.283  11.055 -0.8635 -0.2654 -0.9732
  272MOL0     C37437   5.745   4.327  11.199  0.6773  0.5728  0.1920
  272MOL0     C37438   5.601   4.306  11.258  0.0323  0.4971  0.7184
  272MOL0     C37439   5.594   4.306  11.412  0.1255 -0.6254  0.4476
  272MOL0     C37440   5.676   4.198  11.478  0.5774 -0.1443 -0.4984
  272MOL0     C37441   5.646   4.197  11.634 -0.0907  0.4952 -0.1658
  272MOL0     C37442   5.742   4.103  11.703 -0.1783 -0.1262 -0.2481
  272MOL0    Cl37443   5.908   4.167  11.757 -0.0749  0.4210 -0.0028
  272MOL0     C37444   5.976   4.089  10.691  0.0389 -0.7175  1.1461
  272MOL0     C37445   6.036   3.972  10.643  0.0121  1.0756 -0.1264
  272MOL0     O37446   6.334   3.866  10.662  0.4323  0.5003  0.2830
  272MOL0     C37447   6.253   3.519  10.669  0.0874  0.6525  0.2846
  272MOL0     C37448   6.307   3.389  10.670 -0.0290  0.5034 -0.5147
  272MOL0     N37449   6.910   3.389  10.628 -0.0690 -0.3386  0.7773
  272MOL0     N37450   6.960   3.499  10.589 -0.0743 -0.1210  0.1982
  272MOL0     C37451   8.021   3.787  10.367 -0.1418 -0.0248  0.9543
  272MOL0     C37452   8.141   3.863  10.391 -0.2418  0.0069 -0.6813
  272MOL0     C37453   8.505   4.128  10.310  0.5389 -0.6805  0.3116
  272MOL0     C37454   8.571   4.068  10.414 -0.4475 -0.7607  0.8860
  272MOL0     C37455   8.686   4.123  10.475 -1.0391 -1.1295  0.3535
  272MOL0     C37456   8.739   4.239  10.411 -0.1370  0.1101  0.2697
  272MOL0     O37457   8.851   4.304  10.443 -0.5216 -0.0815 -0.0460
  272MOL0     C37458   8.896   4.293  10.576 -0.4194  0.2496 -0.3705
  272MOL0     C37459   9.008   4.189  10.588 -0.4589 -0.1401 -0.4105
  272MOL0     C37460   9.048   4.189  10.738 -0.3496  0.7085  0.8490
  272MOL0     C37461   9.066   4.044  10.787 -0.4905 -0.3213  0.2670
  272MOL0     C37462   9.201   3.988  10.772  0.6840  0.5444  0.2205
  272MOL0     C37463   9.317   3.951  10.775  0.2428  0.4156  0.5545
  272MOL0     C37464   8.687   4.286  10.294  0.4563  0.5172  0.2032
  272MOL0     C37465   8.562   4.233  10.238  0.1641  0.6758  0.4700
  272MOL0     C37466   8.510   4.299  10.113 -0.3008 -0.7151 -0.1325
  272MOL0     H37467   8.256   3.866  10.067 -0.4430  1.6769 -0.2999
  272MOL0     H37468   8.034   3.766  10.034 -0.1058  1.0022 -0.1590
  272MOL0     H37469   7.922   3.499  10.166  2.0543  1.9822  2.3134
  272MOL0     H37470   7.876   3.615  10.032 -0.5279  0.5975 -0.0836
  272MOL0     H37471   7.643   3.611  10.133  1.1169  0.8402  2.7113
  272MOL0     H37472   7.691   3.456  10.065 -0.0245 -3.9523  2.0750
  272MOL0     H37473   7.758   3.354  10.287  0.5004  0.7073 -0.4748
  272MOL0     H37474   7.728   3.509  10.360 -1.5910  1.6896  0.1555
  272MOL0     H37475   7.510   3.377  10.202  1.9721 -1.6777  0.0023
  272MOL0     H37476   7.546   3.305  10.357 -0.0469 -0.4067 -1.2079
  272MOL0     H37477   7.466   3.594  10.292  0.3033  0.2651  0.5352
  272MOL0     H37478   7.514   3.538  10.456 -0.8579  3.3863 -1.0016
  272MOL0     H37479   7.284   3.446  10.285  1.6622 -0.1742 -0.5508
  272MOL0     H37480   7.283   3.397  10.449 -1.0199  0.2083  0.2361
  272MOL0     H37481   7.272   3.690  10.377  0.9702 -0.3730 -1.6886
  272MOL0     H37482   7.242   3.610  10.536  1.4701 -1.3443 -0.3284
  272MOL0     H37483   7.045   3.684  10.422 -0.2029 -0.5351 -1.7665
  272MOL0     H37484   7.070   3.566  10.287 -2.7429  0.1612 -0.2360
  272MOL0     H37485   7.058   3.299  10.351  1.8446 -0.8548  2.1310
  272MOL0     H37486   6.917   3.114  10.656  2.5158 -0.6972 -0.0063
  272MOL0     H37487   6.991   3.097  10.496 -2.2635  0.0797 -3.6162
  272MOL0     H37488   6.783   3.117  10.378  2.3975  0.5477  1.0727
  272MOL0     H37489   6.763   3.025  10.533  1.6270 -0.3204 -0.5627
  272MOL0     H37490   6.694   3.333  10.496 -1.5114  0.6515  1.6970
  272MOL0     H37491   6.591   3.208  10.440  0.6621 -0.6004 -0.0403
  272MOL0     H37492   6.637   3.106  10.693  4.3718  1.2555  0.6253
  272MOL0     H37493   6.674   3.261  10.730 -1.8042  0.1621  1.7266
  272MOL0     H37494   6.633   3.475  10.645 -0.1431  2.3443  0.7782
  272MOL0     H37495   6.563   3.797  10.573  1.2166 -0.9631 -0.7559
  272MOL0     H37496   6.681   3.688  10.657  0.9217  0.8356  1.3764
  272MOL0     H37497   6.569   3.778  10.752  0.3238  1.1385 -0.2740
  272MOL0     H37498   6.103   3.833  10.944  0.4691  1.6101  1.1434
  272MOL0     H37499   6.006   4.035  11.027 -0.1964  3.7225  0.1384
  272MOL0     H37500   5.971   4.238  11.063 -0.9982 -1.2378 -0.3464
  272MOL0     H37501   5.919   4.390  10.985 -4.4870  1.4691 -2.0717
  272MOL0     H37502   5.687   4.345  10.992 -2.6263 -0.6039  0.4205
  272MOL0     H37503   5.720   4.179  11.061  0.3637 -0.6086  4.1294
  272MOL0     H37504   5.768   4.434  11.199 -2.9068  1.4986  0.6362
  272MOL0     H37505   5.814   4.265  11.257  0.5701  0.0453 -0.2509
  272MOL0     H37506   5.572   4.203  11.239  0.3356  0.6142 -0.4480
  272MOL0     H37507   5.523   4.364  11.207  0.3592 -0.7723 -1.3464
  272MOL0     H37508   5.641   4.398  11.449 -0.2932  0.4705 -1.6098
  272MOL0     H37509   5.490   4.314  11.444 -0.8531  1.2380 -2.6894
  272MOL0     H37510   5.783   4.213  11.459  0.7554 -2.1870 -1.3511
  272MOL0     H37511   5.650   4.101  11.435  2.8240 -1.7613  1.5076
  272MOL0     H37512   5.546   4.154  11.637 -0.4190  1.2053 -0.6223
  272MOL0     H37513   5.650   4.295  11.683  0.3719  1.1881 -1.5477
  272MOL0     H37514   5.752   4.016  11.637 -2.0715 -1.8592  1.6148
  272MOL0     H37515   5.695   4.073  11.797  3.6013  0.7708  2.1580
  272MOL0     H37516   5.950   4.158  10.613  0.5355  0.1845  1.7614
  272MOL0     H37517   6.043   3.961  10.535 -0.8587  0.9944 -0.1830
  272MOL0     H37518   6.145   3.529  10.670  0.1636  1.4837  1.3807
  272MOL0     H37519   6.246   3.299  10.670  1.6233 -0.6727  0.8563
  272MOL0     H37520   7.955   3.762  10.450  0.6923  0.8149  1.8957
  272MOL0     H37521   8.160   3.897  10.493 -2.1007  2.1037 -0.9624
  272MOL0     H37522   8.521   3.990  10.470  1.5454 -3.4074 -0.7793
  272MOL0     H37523   8.725   4.089  10.570 -0.0224 -1.7012 -0.2493
  272MOL0     H37524   8.930   4.395  10.597 -0.4562  0.7977 -2.7370
  272MOL0     H37525   8.816   4.267  10.646  0.2389 -2.2756 -0.4507
  272MOL0     H37526   9.082   4.217  10.513 -1.3795  3.6066 -0.1418
  272MOL0     H37527   8.977   4.089  10.557  2.0789 -0.1803 -3.2445
  272MOL0     H37528   9.138   4.249  10.759 -0.3849  1.2279 -0.4345
  272MOL0     H37529   8.967   4.224  10.803  0.0068  0.9748  1.1605
  272MOL0     H37530   8.989   3.985  10.737  1.1967 -0.0728 -2.9134
  272MOL0     H37531   9.039   4.046  10.893  0.5179  2.7992  0.5611
  272MOL0     H37532   9.418   3.918  10.760  0.6667  2.6420 -2.4629
  272MOL0     H37533   8.730   4.365  10.233 -1.9553 -0.9946 -3.8919
  272MOL0     H37534   8.470   4.230  10.038 -2.9164 -0.6632  1.1018
  272MOL0     H37535   8.437   4.378  10.131 -0.9971 -0.9510 -1.7187
  272MOL0     H37536   8.590   4.360  10.071 -1.8271  2.4053  1.2130
  273MOL0     O37537   2.826   5.310   6.981 -0.2884 -0.2020  0.1032
  273MOL0     C37538   2.844   5.195   6.941  0.5757 -0.1334 -0.1884
  273MOL0     O37539   2.950   5.118   6.974  0.0230  0.5383  0.1405
  273MOL0     C37540   3.041   5.174   7.056 -0.0571  0.3859  0.2920
  273MOL0     C37541   3.026   5.179   7.196 -0.9457 -0.5719 -0.5024
  273MOL0     C37542   3.125   5.236   7.286  0.3069  0.1844  0.7019
  273MOL0     C37543   3.239   5.296   7.241  0.2131  0.4206  0.8789
  273MOL0     O37544   3.348   5.329   7.323  0.1273 -0.3168  0.0984
  273MOL0     C37545   3.400   5.458   7.291 -0.4240  0.2512 -0.1654
  273MOL0     C37546   3.555   5.454   7.251  0.4372  0.2051  0.2822
  273MOL0     C37547   3.614   5.582   7.186 -0.0285 -0.3850 -0.0654
  273MOL0     C37548   3.606   5.705   7.282 -0.0325 -0.5004 -0.3506
  273MOL0     C37549   3.727   5.789   7.286  0.3242 -0.2338  0.3336
  273MOL0     C37550   3.748   5.864   7.153  0.2808 -0.9158  0.3544
  273MOL0     C37551   3.841   5.991   7.167 -0.1098  0.2777  0.3662
  273MOL0     C37552   3.799   6.109   7.265  0.4645 -0.0171 -0.2204
  273MOL0     N37553   3.911   6.161   7.348 -0.1334 -1.1502 -0.0214
  273MOL0     C37554   4.041   6.162   7.310  0.5781  0.5762 -0.8369
  273MOL0     C37555   4.112   6.208   7.425  0.3474  0.6697  0.2433
  273MOL0     C37556   4.255   6.254   7.442  0.6448 -0.0734  0.3147
  273MOL0     C37557   4.285   6.387   7.371  0.5588 -1.3336  0.0472
  273MOL0     C37558   4.400   6.461   7.428  0.7580  0.1945  1.2017
  273MOL0     C37559   4.452   6.574   7.335  0.6509 -1.1757  0.0360
  273MOL0     O37560   4.442   6.697   7.416  0.2771  0.4244 -0.0907
  273MOL0     C37561   4.465   6.821   7.368 -0.1679 -0.3696 -0.3777
  273MOL0     C37562   4.435   6.923   7.460  0.2061 -0.6283 -0.1395
  273MOL0     C37563   4.462   7.054   7.416 -0.0971  0.1703  0.3389
  273MOL0     C37564   4.457   7.151   7.535  0.9862 -0.1104 -0.6253
  273MOL0     C37565   4.507   7.089   7.284 -0.1798 -0.4386  0.4275
  273MOL0     C37566   4.553   7.220   7.236 -0.3871 -0.6030 -0.1264
  273MOL0     O37567   4.590   7.224   7.107 -0.2964 -0.2012  0.1539
  273MOL0     C37568   4.644   7.330   7.046 -0.5101  0.0369  0.0929
  273MOL0     C37569   4.582   7.457   7.047 -0.0398 -0.6260 -0.1378
  273MOL0     C37570   4.643   7.558   6.975 -0.1281 -0.5901  0.2507
  273MOL0     C37571   4.758   7.532   6.901 -0.3868 -0.1146  0.2502
  273MOL0     O37572   4.817   7.630   6.820  1.0972  0.2661 -0.2244
  273MOL0     C37573   4.781   7.766   6.831 -0.4528  1.2716  0.2064
  273MOL0     C37574   4.822   7.845   6.699  0.0156  0.6219  0.0737
  273MOL0     C37575   4.972   7.835   6.703 -0.0450 -0.9707  0.6326
  273MOL0     C37576   5.049   7.889   6.577  0.4082 -0.1967 -0.2575
  273MOL0     C37577   5.203   7.902   6.618 -0.2143  1.1848 -0.0085
  273MOL0     C37578   5.237   8.027   6.697 -0.9585 -0.1761  0.2162
  273MOL0     C37579   5.265   8.142   6.604 -0.6058  0.8603 -0.2818
  273MOL0     C37580   5.257   8.279   6.663  0.4369  0.3930  0.5454
  273MOL0    Cl37581   5.263   8.400   6.533  0.3621  0.1199 -0.3131
  273MOL0     C37582   4.805   7.405   6.880  0.7209  0.6247 -0.2414
  273MOL0     C37583   4.750   7.302   6.963 -0.0278  0.1222  0.7194
  273MOL0     O37584   4.558   7.321   7.315  0.0407 -0.1686  0.2499
  273MOL0     C37585   4.529   6.981   7.199  0.3929 -0.2714  0.9740
  273MOL0     C37586   4.506   6.854   7.238 -0.6357 -0.1745 -0.5978
  273MOL0     N37587   4.010   6.231   7.520 -0.3774  0.1378 -0.3946
  273MOL0     N37588   3.894   6.207   7.479  0.0305  0.2719  0.4959
  273MOL0     C37589   3.260   5.298   7.096  0.4436  0.1414  0.2615
  273MOL0     C37590   3.167   5.233   7.007  0.2120 -0.1238 -0.6582
  273MOL0     C37591   2.759   5.141   6.841  0.0086 -0.1095 -0.2761
  273MOL0     C37592   2.809   5.076   6.728 -0.4449 -0.2962 -0.2463
  273MOL0     C37593   2.733   5.012   6.629  0.3197  0.1329 -0.0232
  273MOL0     C37594   2.594   5.020   6.645  0.4080  0.6602 -0.0277
  273MOL0     O37595   2.486   4.956   6.574 -0.1721 -0.0459 -0.1659
  273MOL0     C37596   2.530   4.881   6.465  0.4563  0.0594 -0.7691
  273MOL0     C37597   2.410   4.830   6.392  0.5042 -0.0005  0.4476
  273MOL0     C37598   2.458   4.734   6.279  0.2388  0.3035  0.2524
  273MOL0     C37599   2.342   4.654   6.234  0.4895  0.2953  0.4247
  273MOL0     C37600   2.254   4.714   6.131  0.3586 -0.5802 -0.1061
  273MOL0     C37601   2.176   4.756   6.043 -1.2351 -0.4019  0.8954
  273MOL0     C37602   2.544   5.102   6.746 -0.0685  0.4795 -1.0886
  273MOL0     C37603   2.620   5.155   6.852 -1.0220 -0.1295 -0.5388
  273MOL0     C37604   2.540   5.208   6.964 -0.5026  0.2993  0.1728
  273MOL0     H37605   2.939   5.131   7.240 -0.8196  1.0647  1.6991
  273MOL0     H37606   3.117   5.216   7.392  0.6386  0.4516  0.7787
  273MOL0     H37607   3.390   5.524   7.377  2.9482 -0.3884  0.8804
  273MOL0     H37608   3.346   5.511   7.212  2.5833 -1.9390 -4.0678
  273MOL0     H37609   3.616   5.425   7.337 -0.2581 -0.6000  0.5224
  273MOL0     H37610   3.569   5.372   7.180  2.3886 -0.6549  1.5693
  273MOL0     H37611   3.714   5.565   7.144 -1.0575 -1.3874 -2.2288
  273MOL0     H37612   3.550   5.599   7.100 -1.1022 -0.7349  0.6500
  273MOL0     H37613   3.515   5.759   7.256 -2.0092 -3.1923  0.5522
  273MOL0     H37614   3.593   5.673   7.386 -2.7509  2.3953  0.3822
  273MOL0     H37615   3.810   5.725   7.318  0.2811  0.3349  1.6301
  273MOL0     H37616   3.724   5.859   7.369 -0.4611 -0.0242  0.1346
  273MOL0     H37617   3.799   5.802   7.079  3.4762 -1.6861  2.9895
  273MOL0     H37618   3.651   5.889   7.109  1.3896  3.3116 -0.2105
  273MOL0     H37619   3.844   6.043   7.070 -0.3397  0.1796  0.3064
  273MOL0     H37620   3.940   5.961   7.202 -0.6849  0.6154  2.3700
  273MOL0     H37621   3.770   6.200   7.211  2.0815  2.1580  2.3091
  273MOL0     H37622   3.714   6.075   7.325  0.8199 -1.2168 -0.3724
  273MOL0     H37623   4.082   6.136   7.212  1.8304 -0.5408 -0.0425
  273MOL0     H37624   4.316   6.174   7.398  0.1573 -2.0835  3.0177
  273MOL0     H37625   4.275   6.244   7.549  0.3213 -2.7557  0.1794
  273MOL0     H37626   4.306   6.366   7.266 -0.3078 -1.6214 -0.0743
  273MOL0     H37627   4.192   6.443   7.375 -1.2940 -4.2519  1.1693
  273MOL0     H37628   4.353   6.508   7.515 -1.3181  0.4135  0.0239
  273MOL0     H37629   4.483   6.401   7.465  0.2355  0.2631  2.5555
  273MOL0     H37630   4.555   6.554   7.305  1.1556 -1.3454  1.7786
  273MOL0     H37631   4.391   6.582   7.245  3.5461  3.4661 -1.8984
  273MOL0     H37632   4.400   6.903   7.561 -1.5319 -3.6999 -1.2130
  273MOL0     H37633   4.386   7.229   7.507  0.6637 -1.1906 -2.9956
  273MOL0     H37634   4.560   7.184   7.553  1.4776 -1.5838 -0.6222
  273MOL0     H37635   4.431   7.098   7.627  0.9684  0.7504 -0.1191
  273MOL0     H37636   4.498   7.478   7.113  2.3832 -1.3031  3.5067
  273MOL0     H37637   4.597   7.656   6.981 -0.5604 -0.4475 -3.3812
  273MOL0     H37638   4.673   7.781   6.833 -0.8006 -0.8047 -0.8121
  273MOL0     H37639   4.830   7.806   6.920 -0.8981  1.5735  0.3199
  273MOL0     H37640   4.781   7.790   6.614  0.6309  3.3891 -2.1749
  273MOL0     H37641   4.782   7.947   6.706  0.4466  0.6921  2.2434
  273MOL0     H37642   5.007   7.734   6.723 -0.0706 -0.7744  1.7198
  273MOL0     H37643   5.005   7.894   6.789  1.6529 -0.3915 -0.3724
  273MOL0     H37644   5.010   7.979   6.529 -0.2329 -0.9146 -1.1496
  273MOL0     H37645   5.051   7.804   6.507 -0.6018 -2.6376  2.4369
  273MOL0     H37646   5.239   7.821   6.683 -1.5569  2.0428  1.9132
  273MOL0     H37647   5.264   7.903   6.527 -0.1376 -0.0703  0.0133
  273MOL0     H37648   5.331   8.017   6.751 -0.6462  1.2782 -0.0294
  273MOL0     H37649   5.156   8.041   6.769 -0.5220 -1.5168  1.0038
  273MOL0     H37650   5.189   8.133   6.527 -0.4448  0.3211 -0.3759
  273MOL0     H37651   5.363   8.125   6.559 -0.5305  0.3804  0.0559
  273MOL0     H37652   5.334   8.292   6.739  2.3554 -0.5813 -1.1135
  273MOL0     H37653   5.160   8.270   6.711  0.1357 -2.6695 -0.4604
  273MOL0     H37654   4.895   7.385   6.822  0.9002  0.2777  0.1527
  273MOL0     H37655   4.801   7.208   6.985  2.6714  1.5471  1.0242
  273MOL0     H37656   4.551   7.002   7.095 -0.1470  0.5672  1.0177
  273MOL0     H37657   4.538   6.773   7.173  1.4833 -0.6584  0.9629
  273MOL0     H37658   3.356   5.330   7.058  0.2464  1.8345  1.0858
  273MOL0     H37659   3.181   5.230   6.899  2.6180 -0.7075 -0.3732
  273MOL0     H37660   2.916   5.059   6.718 -0.1876  2.0833 -2.5038
  273MOL0     H37661   2.789   4.956   6.555  2.0893 -0.9062  1.9953
  273MOL0     H37662   2.587   4.946   6.398  0.9574  1.9900  1.3665
  273MOL0     H37663   2.594   4.796   6.489  1.5423  0.3083 -2.6059
  273MOL0     H37664   2.355   4.915   6.351 -2.6523 -1.6206  0.9332
  273MOL0     H37665   2.350   4.769   6.461 -0.3792 -4.0251 -3.3620
  273MOL0     H37666   2.496   4.781   6.188 -0.2296 -0.0854 -0.1490
  273MOL0     H37667   2.531   4.666   6.324  0.1657 -0.0975 -0.2312
  273MOL0     H37668   2.278   4.636   6.321  1.8562 -1.0778  1.2008
  273MOL0     H37669   2.377   4.555   6.203 -1.9603 -0.5466  0.0920
  273MOL0     H37670   2.128   4.782   5.950  2.1559 -0.8854 -1.1450
  273MOL0     H37671   2.437   5.112   6.762  0.2369 -0.7825  3.1341
  273MOL0     H37672   2.490   5.305   6.952 -3.9556 -1.3132  0.3735
  273MOL0     H37673   2.466   5.135   6.996 -2.4064  0.0319 -4.1813
  273MOL0     H37674   2.610   5.226   7.047  0.8431 -0.7334 -0.6960
  274MOL0     O37675   8.459   2.814   3.106  0.0028 -0.4456 -0.3038
  274MOL0     C37676   8.480   2.909   3.173 -0.9320 -0.1059  0.6381
  274MOL0     O37677   8.563   2.905   3.275  0.4138  0.1728 -0.9273
  274MOL0     C37678   8.612   2.787   3.319  0.6228  0.5301 -0.2769
  274MOL0     C37679   8.747   2.769   3.297  0.0347  0.0979 -0.2402
  274MOL0     C37680   8.807   2.656   3.354  0.2024 -0.2355 -1.4967
  274MOL0     C37681   8.735   2.557   3.428 -1.0146 -0.4695 -0.3151
  274MOL0     O37682   8.791   2.450   3.491 -0.0081  0.3734 -0.1666
  274MOL0     C37683   8.917   2.392   3.444 -0.4394 -0.3129  0.2230
  274MOL0     C37684   8.955   2.275   3.526  0.2458 -0.4874 -0.6554
  274MOL0     C37685   9.084   2.203   3.468  0.4524  0.6327 -0.1815
  274MOL0     C37686   9.113   2.090   3.578 -0.6821  0.2210  0.4487
  274MOL0     C37687   9.210   1.987   3.518 -0.2708 -0.4229 -0.3089
  274MOL0     C37688   9.257   1.889   3.634 -0.0153  0.2019 -0.4300
  274MOL0     C37689   9.391   1.810   3.600  0.1077  0.3096  0.0262
  274MOL0     C37690   9.375   1.734   3.466  0.2937  0.8481 -0.2133
  274MOL0     N37691   9.507   1.703   3.425  0.1598  1.2462  0.7489
  274MOL0     C37692   9.559   1.572   3.439 -0.1905 -0.9310  0.3810
  274MOL0     C37693   9.670   1.584   3.370  0.2184 -0.3994  0.9828
  274MOL0     C37694   9.767   1.488   3.339 -0.1061 -0.0775  0.5199
  274MOL0     C37695   9.782   1.466   3.183 -0.3739  0.5345 -0.7697
  274MOL0     C37696   9.901   1.377   3.143 -0.4920  0.1959  0.0401
  274MOL0     C37697  10.033   1.444   3.148 -0.6817  0.1671  0.1494
  274MOL0     O37698  10.113   1.420   3.029  0.1324 -0.1043  0.1331
  274MOL0     C37699  10.250   1.458   3.016  0.3812 -0.6658 -0.5793
  274MOL0     C37700  10.320   1.534   3.114  0.5220 -0.4490 -0.1164
  274MOL0     C37701  10.453   1.577   3.086  0.5189 -0.6554  0.3393
  274MOL0     C37702  10.515   1.654   3.195  0.3210 -0.7166  0.5111
  274MOL0     C37703  10.516   1.548   2.959  0.1415  0.2493 -0.2249
  274MOL0     C37704  10.655   1.581   2.914 -1.1474 -0.2153 -0.5532
  274MOL0     O37705  10.699   1.537   2.795  0.2223  0.3985  0.7105
  274MOL0     C37706  10.831   1.532   2.772 -0.1468 -0.4686 -0.3391
  274MOL0     C37707  10.921   1.636   2.791  1.4868 -0.1320  0.3013
  274MOL0     C37708  11.044   1.618   2.734  0.2213 -1.0481 -0.6133
  274MOL0     C37709  11.084   1.506   2.665 -0.0116  0.0751  0.3797
  274MOL0     O37710  11.210   1.506   2.612 -0.0443 -0.5599  0.1009
  274MOL0     C37711  11.274   1.379   2.582  0.5502  0.3331  0.7756
  274MOL0     C37712  11.419   1.419   2.560 -0.0185  0.1964 -0.4408
  274MOL0     C37713  11.517   1.305   2.575 -1.1488 -0.2086  0.6432
  274MOL0     C37714  11.659   1.346   2.520  0.2622  0.3651 -0.2832
  274MOL0     C37715  11.727   1.216   2.471  0.2311  1.1691  0.0379
  274MOL0     C37716  11.874   1.242   2.453  0.1298 -0.0728 -0.9813
  274MOL0     C37717  11.956   1.136   2.395 -0.0917  0.3504  0.4902
  274MOL0     C37718  12.106   1.158   2.409 -0.1845  0.8885 -0.3024
  274MOL0    Cl37719  12.165   1.200   2.576 -0.0447  0.1089 -0.1748
  274MOL0     C37720  10.996   1.403   2.654 -0.2066 -0.1763 -0.2152
  274MOL0     C37721  10.874   1.413   2.709  0.3990  0.4587 -0.8248
  274MOL0     O37722  10.719   1.656   2.985 -0.2940  0.7902 -0.2790
  274MOL0     C37723  10.435   1.478   2.865 -0.1235 -0.0868 -0.5391
  274MOL0     C37724  10.306   1.434   2.892  0.2224  0.5457 -0.0162
  274MOL0     N37725   9.689   1.709   3.327  0.3563  0.9690 -0.5855
  274MOL0     N37726   9.593   1.781   3.363  0.5648 -0.5041 -0.0653
  274MOL0     C37727   8.595   2.577   3.448 -1.0578 -0.0828  0.6989
  274MOL0     C37728   8.540   2.691   3.399 -0.6849  0.5756 -0.9806
  274MOL0     C37729   8.415   3.035   3.126  0.0042 -0.5023 -0.1552
  274MOL0     C37730   8.442   3.149   3.205 -0.8052 -0.6787 -0.1355
  274MOL0     C37731   8.410   3.272   3.147  0.5992 -0.3347  0.3360
  274MOL0     C37732   8.340   3.284   3.027 -0.4408  0.4651 -0.9007
  274MOL0     O37733   8.319   3.407   2.976  0.1678 -1.1761 -0.1536
  274MOL0     C37734   8.216   3.489   3.034  1.1514  0.0279  0.1447
  274MOL0     C37735   8.083   3.430   3.004  0.0373 -0.3727  0.6506
  274MOL0     C37736   8.040   3.416   2.859 -0.2644  0.7246 -0.7694
  274MOL0     C37737   7.903   3.341   2.842  0.7537 -0.2267  0.3473
  274MOL0     C37738   7.922   3.200   2.870  0.5064  0.2407  0.4121
  274MOL0     C37739   7.930   3.084   2.907 -0.7552  0.0932  0.7677
  274MOL0     C37740   8.315   3.174   2.952 -0.0138 -0.2998  0.5062
  274MOL0     C37741   8.355   3.048   2.994  0.3955  0.3877 -0.6427
  274MOL0     C37742   8.325   2.934   2.890 -0.0507 -0.2961 -0.2439
  274MOL0     H37743   8.810   2.848   3.256  1.9554 -1.5177 -0.5838
  274MOL0     H37744   8.914   2.637   3.343  0.3939 -0.8125  0.8909
  274MOL0     H37745   8.996   2.467   3.451 -0.4836 -0.2787  0.3711
  274MOL0     H37746   8.895   2.372   3.338 -0.4438 -0.3961  0.2391
  274MOL0     H37747   8.973   2.319   3.624 -2.4314 -1.6477  0.4366
  274MOL0     H37748   8.871   2.206   3.531 -1.5356  1.5389 -1.2034
  274MOL0     H37749   9.065   2.159   3.370  0.8600  0.2933 -0.1096
  274MOL0     H37750   9.159   2.280   3.447 -1.0916  2.7443  1.4738
  274MOL0     H37751   9.158   2.143   3.662 -1.3009 -0.0121  0.9325
  274MOL0     H37752   9.020   2.036   3.598  0.4218 -2.8606 -1.9425
  274MOL0     H37753   9.299   2.037   3.478 -0.4728 -0.9071 -1.3937
  274MOL0     H37754   9.168   1.929   3.436 -1.5919 -1.5403  1.0880
  274MOL0     H37755   9.277   1.953   3.720 -1.6665  1.2108 -0.7457
  274MOL0     H37756   9.167   1.830   3.657 -1.2098  2.9805  2.7620
  274MOL0     H37757   9.422   1.735   3.673  3.4076  0.9278 -0.5864
  274MOL0     H37758   9.467   1.888   3.606 -0.8869  1.2783  0.4109
  274MOL0     H37759   9.323   1.639   3.480  3.8555 -1.1274  0.6634
  274MOL0     H37760   9.337   1.801   3.388  2.5413  2.4213 -0.0573
  274MOL0     H37761   9.537   1.479   3.490  2.3316 -1.4370  0.7011
  274MOL0     H37762   9.759   1.389   3.385 -0.9896  1.5199  4.1585
  274MOL0     H37763   9.860   1.523   3.385  1.5123 -4.2657  0.8891
  274MOL0     H37764   9.685   1.425   3.154 -1.8600  1.1959  2.6710
  274MOL0     H37765   9.799   1.562   3.133 -1.3671  0.0135 -2.1665
  274MOL0     H37766   9.902   1.292   3.212 -0.1614 -1.3445 -1.7897
  274MOL0     H37767   9.885   1.337   3.042  2.6340  0.3913 -0.6286
  274MOL0     H37768  10.009   1.551   3.157 -0.1211  0.6296 -2.7631
  274MOL0     H37769  10.090   1.404   3.233 -0.7942 -0.6684 -0.1625
  274MOL0     H37770  10.283   1.547   3.215  0.5938  3.0508 -0.3943
  274MOL0     H37771  10.557   1.592   3.274  0.3083  0.7265  1.6915
  274MOL0     H37772  10.436   1.715   3.241  2.7737  2.2998  1.0872
  274MOL0     H37773  10.588   1.726   3.156 -1.1508 -0.7888 -2.7043
  274MOL0     H37774  10.875   1.724   2.835 -2.2611 -2.1538  0.7700
  274MOL0     H37775  11.112   1.701   2.747 -2.2987  0.8294  1.9280
  274MOL0     H37776  11.265   1.305   2.662 -2.1586 -1.7986 -1.3181
  274MOL0     H37777  11.231   1.333   2.493  1.4623 -0.2487  0.6255
  274MOL0     H37778  11.431   1.454   2.457 -0.4080  0.3249 -0.4431
  274MOL0     H37779  11.449   1.509   2.614 -1.2464  0.2316  0.2130
  274MOL0     H37780  11.477   1.228   2.508 -1.5612  1.4947 -1.1473
  274MOL0     H37781  11.524   1.265   2.677 -2.0738  2.6552  1.9328
  274MOL0     H37782  11.717   1.400   2.595  0.3822  1.3825 -1.0826
  274MOL0     H37783  11.660   1.433   2.454 -1.1516  3.5648  3.5378
  274MOL0     H37784  11.722   1.139   2.548  2.1992  1.7946  0.8471
  274MOL0     H37785  11.667   1.180   2.387  1.0263  3.7254 -1.7263
  274MOL0     H37786  11.917   1.249   2.553 -0.9057 -3.3269 -0.1759
  274MOL0     H37787  11.892   1.332   2.393 -3.1432 -0.1839 -2.3004
  274MOL0     H37788  11.935   1.117   2.290 -1.3413  1.7858  0.4623
  274MOL0     H37789  11.927   1.042   2.443 -1.1462 -0.8310 -2.2469
  274MOL0     H37790  12.129   1.245   2.347  0.4370 -0.3338 -1.8498
  274MOL0     H37791  12.155   1.066   2.375 -4.6635 -1.8392 -0.2412
  274MOL0     H37792  11.026   1.323   2.587  0.9649 -0.3229  0.4451
  274MOL0     H37793  10.804   1.330   2.712 -1.5291  1.9823 -1.4344
  274MOL0     H37794  10.474   1.451   2.767 -0.1145 -1.7950 -0.0877
  274MOL0     H37795  10.255   1.369   2.822  2.9655 -0.6902 -0.9767
  274MOL0     H37796   8.539   2.496   3.492 -1.1191 -0.4591 -0.0478
  274MOL0     H37797   8.436   2.716   3.414 -1.1076 -2.2359  1.9208
  274MOL0     H37798   8.494   3.152   3.300  1.8807 -1.7289 -1.4643
  274MOL0     H37799   8.424   3.363   3.205 -1.9056 -0.2408  0.9174
  274MOL0     H37800   8.227   3.500   3.142 -1.2924  1.4493  0.3184
  274MOL0     H37801   8.203   3.590   2.993  0.8887 -0.6643 -1.5820
  274MOL0     H37802   8.012   3.479   3.071 -0.7183 -2.7572  1.6885
  274MOL0     H37803   8.091   3.329   3.044  1.5861 -0.6208 -0.2008
  274MOL0     H37804   8.039   3.506   2.796 -2.3188 -0.6113 -2.7761
  274MOL0     H37805   8.112   3.350   2.809  1.4013  3.0562 -1.6111
  274MOL0     H37806   7.882   3.345   2.735  2.5244  0.8317  0.0092
  274MOL0     H37807   7.822   3.391   2.895  1.0706  0.6416  0.0320
  274MOL0     H37808   7.941   2.984   2.942  1.1110  0.3852  1.1257
  274MOL0     H37809   8.267   3.199   2.858  0.3896  1.3737  0.7198
  274MOL0     H37810   8.420   2.913   2.842  1.5238 -0.8667  2.8507
  274MOL0     H37811   8.274   2.848   2.934 -1.0620 -0.2814 -1.3423
  274MOL0     H37812   8.250   2.970   2.818 -2.2802  0.9977  2.5157
  275MOL0     O37813   8.714   6.875   1.671 -0.7726 -0.3104  0.2296
  275MOL0     C37814   8.774   6.800   1.594 -0.4925  0.4401  0.3001
  275MOL0     O37815   8.890   6.730   1.629 -0.7723 -0.5920  0.5854
  275MOL0     C37816   8.946   6.752   1.750 -0.5037  0.4711  0.4861
  275MOL0     C37817   9.001   6.878   1.773 -0.0324 -1.2781 -0.3154
  275MOL0     C37818   9.045   6.923   1.898 -1.1715 -0.9635 -0.3337
  275MOL0     C37819   9.032   6.829   1.994  0.3155  0.3005 -0.6836
  275MOL0     O37820   9.061   6.854   2.122  0.5887  0.5013 -0.4548
  275MOL0     C37821   9.203   6.867   2.142 -1.2046  0.7249  0.1030
  275MOL0     C37822   9.249   6.898   2.288  0.9052 -0.6090 -0.2482
  275MOL0     C37823   9.187   7.023   2.353 -0.0214 -0.4148 -0.2554
  275MOL0     C37824   9.223   7.152   2.273  0.1269  0.5393  0.2895
  275MOL0     C37825   9.118   7.259   2.307 -0.5444 -0.5717  1.3106
  275MOL0     C37826   9.161   7.400   2.260 -0.0224 -0.0372 -0.2653
  275MOL0     C37827   9.284   7.463   2.327  0.5576 -0.5179  0.3148
  275MOL0     C37828   9.274   7.479   2.477 -1.4889  0.3161 -0.6556
  275MOL0     N37829   9.396   7.549   2.519 -0.3548 -0.5505  0.1491
  275MOL0     C37830   9.522   7.493   2.524 -0.1469 -0.1462 -0.4142
  275MOL0     C37831   9.602   7.597   2.572 -1.5794  0.6751 -0.3114
  275MOL0     C37832   9.746   7.570   2.598 -0.3152  0.5580 -0.1207
  275MOL0     C37833   9.794   7.640   2.722 -0.6724  0.0881 -0.3353
  275MOL0     C37834   9.932   7.600   2.765 -0.1118  0.5616 -0.3759
  275MOL0     C37835  10.048   7.678   2.693 -0.3031 -0.7032 -1.0979
  275MOL0     O37836  10.168   7.617   2.744  0.1289  1.2454  0.7194
  275MOL0     C37837  10.225   7.510   2.676  0.5131 -0.2938  0.3895
  275MOL0     C37838  10.167   7.431   2.573  0.4612  0.8718 -0.2641
  275MOL0     C37839  10.227   7.319   2.522  0.1539 -1.0308 -0.4842
  275MOL0     C37840  10.149   7.245   2.419 -0.2434 -0.4029 -0.4338
  275MOL0     C37841  10.348   7.271   2.579  0.1858  0.3725  0.4009
  275MOL0     C37842  10.408   7.139   2.549 -0.2356  0.5089 -0.4213
  275MOL0     O37843  10.518   7.095   2.627 -0.3015  0.7582  0.8483
  275MOL0     C37844  10.564   6.970   2.593 -0.1797 -0.0536 -0.1313
  275MOL0     C37845  10.542   6.867   2.684 -0.2291 -1.1786 -0.1220
  275MOL0     C37846  10.587   6.745   2.660 -0.2159  0.9475  0.4662
  275MOL0     C37847  10.666   6.713   2.552 -0.3433  0.5911 -0.3279
  275MOL0     O37848  10.719   6.587   2.538  0.3395  0.3073  0.1790
  275MOL0     C37849  10.648   6.503   2.447 -0.5182  0.6878  0.7832
  275MOL0     C37850  10.747   6.400   2.387 -0.6063 -0.5320  0.2112
  275MOL0     C37851  10.899   6.448   2.391  0.4978 -0.2866 -0.6642
  275MOL0     C37852  10.990   6.388   2.290 -0.8608  1.0751  1.2039
  275MOL0     C37853  10.982   6.443   2.146  0.6511  0.6658  0.1091
  275MOL0     C37854  11.104   6.426   2.065  0.0507  0.1472 -0.2001
  275MOL0     C37855  11.146   6.279   2.037 -0.2928  0.2491  0.2422
  275MOL0     C37856  11.278   6.239   2.095  0.2325  0.7131  0.6738
  275MOL0    Cl37857  11.331   6.076   2.023 -0.3546 -0.1908 -0.1978
  275MOL0     C37858  10.691   6.811   2.456  0.1997 -0.9573  0.5679
  275MOL0     C37859  10.630   6.935   2.475  0.8621 -0.4080 -0.0225
  275MOL0     O37860  10.364   7.075   2.457 -0.5299 -0.1327 -0.2222
  275MOL0     C37861  10.408   7.350   2.679  0.7629  0.7477 -0.3456
  275MOL0     C37862  10.345   7.467   2.726 -0.8051 -0.8701 -0.3646
  275MOL0     N37863   9.535   7.709   2.583  0.1898 -0.1118 -0.2448
  275MOL0     N37864   9.409   7.684   2.550 -0.2457  0.9949  0.4061
  275MOL0     C37865   8.984   6.698   1.981 -0.1932  0.4113 -0.1656
  275MOL0     C37866   8.950   6.656   1.848  0.1384  0.7233  0.5754
  275MOL0     C37867   8.696   6.771   1.465 -0.7021 -0.8952 -0.3978
  275MOL0     C37868   8.737   6.669   1.378  0.5534  1.4684 -1.0938
  275MOL0     C37869   8.671   6.623   1.259  0.0697  0.2740  0.6194
  275MOL0     C37870   8.567   6.703   1.215 -0.4489  0.9610  0.1442
  275MOL0     O37871   8.521   6.653   1.097  0.3412  0.4111 -0.0244
  275MOL0     C37872   8.410   6.729   1.040 -0.3298  0.4904  0.0911
  275MOL0     C37873   8.448   6.863   0.975 -0.5909 -0.3039 -0.0751
  275MOL0     C37874   8.345   6.912   0.874  0.2337  0.1275 -0.9418
  275MOL0     C37875   8.336   6.832   0.739 -0.0177 -0.6204 -0.0347
  275MOL0     C37876   8.229   6.887   0.646  0.1731 -0.4466 -0.9949
  275MOL0     C37877   8.132   6.919   0.581  0.9935  0.8533  0.0462
  275MOL0     C37878   8.522   6.808   1.280 -0.4069 -0.1335 -1.0137
  275MOL0     C37879   8.582   6.848   1.409 -0.4300  0.4241  0.1864
  275MOL0     C37880   8.538   6.979   1.481  0.8096  0.6453  0.7480
  275MOL0     H37881   8.981   6.954   1.698 -0.2513 -0.8280  0.1842
  275MOL0     H37882   9.075   7.027   1.908  0.5831 -1.5095  0.3411
  275MOL0     H37883   9.255   6.933   2.071  2.1183 -2.2834 -0.5250
  275MOL0     H37884   9.243   6.767   2.125 -0.8186  1.0123 -0.7604
  275MOL0     H37885   9.219   6.812   2.348 -0.9542  0.0909 -0.0940
  275MOL0     H37886   9.358   6.902   2.298  1.3920 -5.8801 -0.5702
  275MOL0     H37887   9.079   7.011   2.362  0.2953 -2.1404  2.0827
  275MOL0     H37888   9.233   7.033   2.452  1.2914  2.6824 -1.0439
  275MOL0     H37889   9.324   7.192   2.290  1.1003 -1.2044 -0.9765
  275MOL0     H37890   9.212   7.136   2.166  0.5889  2.8907 -0.1575
  275MOL0     H37891   9.092   7.259   2.413  1.6503 -0.1005  1.9147
  275MOL0     H37892   9.030   7.241   2.245  0.3044  0.0360 -0.1430
  275MOL0     H37893   9.172   7.404   2.151 -1.0664 -0.6496 -0.4039
  275MOL0     H37894   9.078   7.466   2.285  1.4793  2.9874 -2.4765
  275MOL0     H37895   9.302   7.561   2.283  2.2856 -0.5425  0.9158
  275MOL0     H37896   9.373   7.408   2.296  1.0093  0.7840 -0.7888
  275MOL0     H37897   9.193   7.545   2.510 -1.8424  0.2808 -1.4310
  275MOL0     H37898   9.266   7.383   2.530  1.1055  1.8659  2.9788
  275MOL0     H37899   9.547   7.389   2.503  0.9357 -0.5230  2.3333
  275MOL0     H37900   9.806   7.599   2.511 -1.9757 -0.4256 -1.6688
  275MOL0     H37901   9.762   7.464   2.618 -3.1750  0.3720  1.7035
  275MOL0     H37902   9.789   7.746   2.696 -1.8787  0.0969 -0.1535
  275MOL0     H37903   9.734   7.627   2.812 -1.1174 -2.9789 -0.9328
  275MOL0     H37904   9.935   7.624   2.871  4.3108 -0.0968 -0.1739
  275MOL0     H37905   9.948   7.492   2.757 -0.2865  0.6614 -4.7891
  275MOL0     H37906  10.042   7.675   2.584 -1.1396 -0.1878 -1.0711
  275MOL0     H37907  10.040   7.780   2.729  0.6656 -1.5230  1.6957
  275MOL0     H37908  10.078   7.476   2.530  1.8089  4.5180  0.4562
  275MOL0     H37909  10.223   7.235   2.340 -2.0143  0.6774 -2.3479
  275MOL0     H37910  10.063   7.302   2.380  0.4479 -0.1163 -1.5858
  275MOL0     H37911  10.109   7.155   2.467  2.7960 -1.8152 -0.3707
  275MOL0     H37912  10.476   6.884   2.769 -1.0763  3.1256 -1.4020
  275MOL0     H37913  10.567   6.665   2.731 -0.7001 -0.9813 -1.7145
  275MOL0     H37914  10.568   6.446   2.494 -0.7658  0.3140 -0.0841
  275MOL0     H37915  10.606   6.565   2.368  0.2797  1.3276  0.8431
  275MOL0     H37916  10.734   6.306   2.442  1.9869 -0.7412  0.6051
  275MOL0     H37917  10.725   6.381   2.281  2.0144 -0.5394 -0.4078
  275MOL0     H37918  10.949   6.427   2.486  2.1000  0.1039 -1.3879
  275MOL0     H37919  10.903   6.557   2.378 -1.2658 -0.4325 -2.8304
  275MOL0     H37920  10.975   6.280   2.280  0.1477  1.1220 -3.4257
  275MOL0     H37921  11.090   6.421   2.322 -0.7509  1.6177  0.3524
  275MOL0     H37922  10.895   6.401   2.094  2.0162  0.6364 -2.2653
  275MOL0     H37923  10.964   6.551   2.153 -0.5593  0.5068 -0.2996
  275MOL0     H37924  11.186   6.483   2.111 -0.3859  0.9943 -0.4569
  275MOL0     H37925  11.070   6.456   1.966  1.7846 -4.0335 -2.3006
  275MOL0     H37926  11.143   6.266   1.928  1.0004  0.2093  0.2002
  275MOL0     H37927  11.077   6.200   2.069  2.7232 -4.1234 -2.8830
  275MOL0     H37928  11.260   6.239   2.203 -1.7430  4.4709  0.5307
  275MOL0     H37929  11.362   6.303   2.065 -0.8395  1.3870 -0.9870
  275MOL0     H37930  10.752   6.792   2.368 -0.1511  2.1533 -0.4818
  275MOL0     H37931  10.641   7.014   2.402  1.0635 -0.9358 -0.5724
  275MOL0     H37932  10.506   7.325   2.719 -0.0791  0.1502  1.4360
  275MOL0     H37933  10.393   7.541   2.789 -2.3186 -0.7759  0.7431
  275MOL0     H37934   8.975   6.628   2.064 -1.7135  0.1783 -0.5052
  275MOL0     H37935   8.907   6.558   1.831 -2.7805  1.8512  0.7685
  275MOL0     H37936   8.820   6.615   1.422 -1.8778  0.6622  3.0288
  275MOL0     H37937   8.690   6.529   1.208 -0.6000 -0.0703  0.9868
  275MOL0     H37938   8.371   6.659   0.965 -0.3443 -1.4236  1.8105
  275MOL0     H37939   8.329   6.746   1.112  0.0467 -1.4413  1.0149
  275MOL0     H37940   8.543   6.846   0.923 -0.3285  2.9327 -0.8301
  275MOL0     H37941   8.473   6.933   1.055  1.5166 -1.1509  0.0860
  275MOL0     H37942   8.245   6.910   0.920 -0.2249  2.5511 -1.6598
  275MOL0     H37943   8.357   7.020   0.859  1.8402  0.2913  1.1250
  275MOL0     H37944   8.314   6.727   0.761  1.5831 -1.2453 -1.1595
  275MOL0     H37945   8.434   6.835   0.691 -0.2765  0.3811 -0.5320
  275MOL0     H37946   8.037   6.957   0.549  2.2422  2.1295 -2.4696
  275MOL0     H37947   8.443   6.876   1.249 -1.8481 -0.3111  1.9489
  275MOL0     H37948   8.459   7.020   1.417  0.0787  1.4709  2.1237
  275MOL0     H37949   8.487   6.960   1.576 -0.5070 -0.2090 -0.0801
  275MOL0     H37950   8.625   7.043   1.495  1.5204 -0.3090  0.7211
  276MOL0     O37951   5.708   9.993   5.328  0.1882  0.4304 -0.1733
  276MOL0     C37952   5.667   9.941   5.434 -0.5261  0.1791  0.4038
  276MOL0     O37953   5.693   9.807   5.468 -0.3197 -0.8460  0.4024
  276MOL0     C37954   5.581   9.730   5.490 -0.2738  0.4819 -0.7640
  276MOL0     C37955   5.450   9.768   5.456 -0.1061  0.5068  0.1826
  276MOL0     C37956   5.354   9.670   5.467 -0.7943  0.3076  0.2300
  276MOL0     C37957   5.375   9.542   5.521  0.4386 -1.6204 -0.0626
  276MOL0     O37958   5.258   9.475   5.544  0.3252  0.0089 -0.1271
  276MOL0     C37959   5.279   9.390   5.659 -0.7041 -0.2110 -0.5777
  276MOL0     C37960   5.144   9.358   5.706 -0.1686 -0.1608  0.2350
  276MOL0     C37961   5.137   9.273   5.828  0.1560  0.3345 -0.0789
  276MOL0     C37962   5.091   9.132   5.782  0.0215 -0.5426  1.3745
  276MOL0     C37963   5.082   9.015   5.891 -0.2814 -0.4201 -0.4507
  276MOL0     C37964   4.948   9.014   5.975  0.2175  0.4416 -0.2925
  276MOL0     C37965   4.939   8.886   6.054  0.2505  0.5206  0.6910
  276MOL0     C37966   4.796   8.862   6.116 -0.2833 -0.1253 -0.0765
  276MOL0     N37967   4.689   8.872   6.013  0.3481 -0.4088 -0.1881
  276MOL0     C37968   4.570   8.951   6.011 -1.0067  0.0434 -0.6207
  276MOL0     C37969   4.491   8.906   5.911 -0.3958  1.1322 -1.0372
  276MOL0     C37970   4.370   8.973   5.862 -0.0203  0.2195 -0.5024
  276MOL0     C37971   4.329   8.927   5.713 -0.1044  0.1342 -0.1133
  276MOL0     C37972   4.196   8.992   5.676 -0.6346  0.4595 -0.5337
  276MOL0     C37973   4.133   8.930   5.552  0.8575 -0.3381 -0.0774
  276MOL0     O37974   4.015   9.007   5.521  0.3114 -0.2843  0.3570
  276MOL0     C37975   3.920   8.955   5.443  0.7477  0.3739 -0.7463
  276MOL0     C37976   3.941   8.851   5.355  0.4924  0.1467 -0.0667
  276MOL0     C37977   3.848   8.808   5.266 -0.9143  0.1095 -0.1775
  276MOL0     C37978   3.893   8.689   5.173  0.2533  0.3951 -0.2239
  276MOL0     C37979   3.719   8.855   5.261 -0.3575  0.1835  1.0360
  276MOL0     C37980   3.612   8.802   5.168  0.1094 -0.4124  0.8055
  276MOL0     O37981   3.641   8.749   5.045  0.0712 -0.6992  0.5640
  276MOL0     C37982   3.532   8.689   4.986 -0.3565 -0.1772  0.3744
  276MOL0     C37983   3.505   8.554   5.019 -0.4827  0.0214 -0.4463
  276MOL0     C37984   3.416   8.473   4.955  0.5088 -0.5802 -0.1479
  276MOL0     C37985   3.344   8.529   4.847  0.3948  0.2032  0.1236
  276MOL0     O37986   3.252   8.463   4.770  0.1604 -0.0959  0.2640
  276MOL0     C37987   3.215   8.334   4.802 -0.2723 -0.4049  0.1581
  276MOL0     C37988   3.124   8.329   4.931 -0.1952  0.8192 -0.4286
  276MOL0     C37989   3.080   8.191   4.982 -0.4328  0.1599  0.2996
  276MOL0     C37990   2.972   8.122   4.899  0.1044 -0.6371 -0.4791
  276MOL0     C37991   2.922   7.986   4.938  0.5290 -0.3741 -0.7768
  276MOL0     C37992   2.831   7.946   4.822 -0.2450  0.2133  0.1722
  276MOL0     C37993   2.765   7.813   4.860  0.5310  0.6480 -1.1704
  276MOL0     C37994   2.663   7.769   4.754 -0.5537  0.1079  0.0243
  276MOL0    Cl37995   2.519   7.873   4.769 -0.2157  0.4765 -0.3782
  276MOL0     C37996   3.373   8.656   4.801  0.6567 -0.2455  0.2330
  276MOL0     C37997   3.462   8.735   4.879  0.0858 -0.3412  1.0125
  276MOL0     O37998   3.493   8.818   5.213 -0.8804 -0.3265 -0.2264
  276MOL0     C37999   3.687   8.957   5.352 -0.2820  0.0909  0.2180
  276MOL0     C38000   3.788   9.005   5.441  1.3849 -0.4676 -0.1465
  276MOL0     N38001   4.567   8.804   5.855  0.5084  0.2437 -0.1604
  276MOL0     N38002   4.679   8.779   5.916  0.2132 -0.5117 -0.0904
  276MOL0     C38003   5.503   9.499   5.544 -0.2217  1.0053 -0.1267
  276MOL0     C38004   5.604   9.591   5.532 -0.8493 -0.0300 -0.3864
  276MOL0     C38005   5.592  10.028   5.533 -0.6214 -0.1014  0.2963
  276MOL0     C38006   5.487  10.108   5.482 -0.9574  0.0083  0.6280
  276MOL0     C38007   5.409  10.186   5.557  0.6671 -0.2489  0.1515
  276MOL0     C38008   5.421  10.194   5.696 -0.3184 -0.5464  0.0213
  276MOL0     O38009   5.324  10.267   5.766 -0.0580  0.4025  0.2481
  276MOL0     C38010   5.366  10.321   5.892 -0.0458 -0.4683 -0.3375
  276MOL0     C38011   5.259  10.416   5.949  0.1117  0.2286 -0.1282
  276MOL0     C38012   5.134  10.343   5.980  0.6042  0.8204 -0.6908
  276MOL0     C38013   5.021  10.433   6.021 -0.2743 -0.8127 -0.0489
  276MOL0     C38014   4.958  10.490   5.908  0.7881 -0.5794  0.6366
  276MOL0     C38015   4.873  10.512   5.818 -0.1167  0.6252  0.1119
  276MOL0     C38016   5.534  10.122   5.750 -0.4393  0.8918 -0.7961
  276MOL0     C38017   5.614  10.038   5.676  0.5839 -0.2929 -0.1770
  276MOL0     C38018   5.740   9.980   5.735  0.3928  0.0111 -0.4909
  276MOL0     H38019   5.399   9.861   5.435 -2.0251 -0.2205  1.3501
  276MOL0     H38020   5.250   9.699   5.453 -0.9981 -0.3235  0.3881
  276MOL0     H38021   5.343   9.435   5.736  0.3724 -4.6318  1.4174
  276MOL0     H38022   5.330   9.301   5.620  1.2855  1.4242 -1.9350
  276MOL0     H38023   5.083   9.447   5.722 -2.2585 -0.8939 -2.9189
  276MOL0     H38024   5.104   9.304   5.620  3.0055 -1.2820 -0.7098
  276MOL0     H38025   5.233   9.265   5.881  0.6601 -0.0007 -1.0310
  276MOL0     H38026   5.057   9.313   5.892 -1.4071 -1.7416 -0.6122
  276MOL0     H38027   4.999   9.138   5.723  2.1877  2.4448 -2.1547
  276MOL0     H38028   5.153   9.088   5.704  0.1497 -2.8178  2.7009
  276MOL0     H38029   5.168   9.009   5.958 -1.2619 -0.5350  0.8423
  276MOL0     H38030   5.086   8.922   5.833 -0.0720 -0.0147 -1.1036
  276MOL0     H38031   4.944   9.092   6.052  1.5983  1.1223 -0.8706
  276MOL0     H38032   4.869   9.032   5.901 -0.6782 -1.2384  0.2038
  276MOL0     H38033   5.013   8.894   6.134  0.0309 -0.4930  1.0078
  276MOL0     H38034   4.969   8.805   5.987  0.4886  1.6090 -0.5617
  276MOL0     H38035   4.785   8.775   6.182 -0.8182 -0.3267 -0.4264
  276MOL0     H38036   4.774   8.950   6.178 -1.9809  0.8734 -1.9871
  276MOL0     H38037   4.543   9.033   6.077  2.8306  0.5674  0.5539
  276MOL0     H38038   4.374   9.082   5.871 -1.6201  0.2989 -0.4838
  276MOL0     H38039   4.283   8.941   5.920  0.8083  2.3891  2.1666
  276MOL0     H38040   4.406   8.954   5.640 -0.0536 -0.6217 -0.3430
  276MOL0     H38041   4.316   8.819   5.712  1.4697 -0.1207  1.5612
  276MOL0     H38042   4.132   8.978   5.763 -0.8630  1.1127 -0.5915
  276MOL0     H38043   4.202   9.100   5.662 -2.7517  0.6095 -0.6004
  276MOL0     H38044   4.201   8.917   5.467 -1.5283 -2.3734 -1.8186
  276MOL0     H38045   4.099   8.828   5.574  0.9634 -0.5268 -0.7701
  276MOL0     H38046   4.042   8.811   5.349  0.2333 -0.3423 -1.5160
  276MOL0     H38047   3.923   8.722   5.073 -0.1360  0.4557 -0.3232
  276MOL0     H38048   3.813   8.617   5.156 -0.0693  0.2676  1.6694
  276MOL0     H38049   3.972   8.631   5.221  0.9398  0.0857 -1.6769
  276MOL0     H38050   3.548   8.511   5.109 -3.1058 -1.7900  0.0549
  276MOL0     H38051   3.395   8.373   4.993  2.4667 -0.6429  0.8656
  276MOL0     H38052   3.160   8.295   4.717 -2.8898  1.3456  0.9299
  276MOL0     H38053   3.302   8.269   4.816  0.9099  1.1756  0.4353
  276MOL0     H38054   3.173   8.365   5.022 -0.1004 -3.6977  1.5739
  276MOL0     H38055   3.046   8.398   4.896 -0.5085  0.3920 -0.5830
  276MOL0     H38056   3.045   8.205   5.085 -2.1161 -0.8366 -0.0800
  276MOL0     H38057   3.175   8.138   4.987 -0.2973  0.2524 -1.0067
  276MOL0     H38058   3.008   8.106   4.796  2.0717 -0.2699  0.1010
  276MOL0     H38059   2.881   8.182   4.905  0.9748  1.3413 -3.9393
  276MOL0     H38060   3.009   7.922   4.952  2.6383  2.2749 -0.8339
  276MOL0     H38061   2.870   7.996   5.033  3.0175  0.7915  0.5600
  276MOL0     H38062   2.889   7.928   4.731  0.3307 -1.7633  0.8614
  276MOL0     H38063   2.759   8.025   4.801  1.4400  1.3964 -1.3689
  276MOL0     H38064   2.703   7.823   4.950 -0.6416 -3.0889 -1.4078
  276MOL0     H38065   2.840   7.735   4.875 -1.0568 -0.6398  0.6513
  276MOL0     H38066   2.631   7.670   4.787  3.3730 -1.1177  0.6112
  276MOL0     H38067   2.706   7.761   4.654 -1.8636 -0.0836 -0.5440
  276MOL0     H38068   3.329   8.703   4.713  2.3786  0.2659 -0.4014
  276MOL0     H38069   3.486   8.834   4.840 -1.3408 -0.4940 -0.3409
  276MOL0     H38070   3.588   8.998   5.368 -0.5596 -0.5952  0.3206
  276MOL0     H38071   3.764   9.089   5.505  0.4440  0.5669 -1.7848
  276MOL0     H38072   5.516   9.399   5.583  0.1368  1.0749 -0.0610
  276MOL0     H38073   5.702   9.561   5.565 -0.2357  1.3177 -0.9213
  276MOL0     H38074   5.442  10.099   5.383 -0.5252 -0.6301  0.4831
  276MOL0     H38075   5.323  10.241   5.521  1.8358  2.2258  0.8773
  276MOL0     H38076   5.363  10.245   5.971 -1.3451  1.5102  1.6455
  276MOL0     H38077   5.464  10.369   5.883  0.1359 -0.9937 -1.2725
  276MOL0     H38078   5.244  10.495   5.875  1.3976  1.0407  0.4309
  276MOL0     H38079   5.293  10.464   6.042 -2.9627  0.4153  1.0160
  276MOL0     H38080   5.099  10.288   5.893  1.6147  0.1899 -0.7220
  276MOL0     H38081   5.154  10.283   6.070  2.3517  0.4320 -1.2896
  276MOL0     H38082   5.066  10.517   6.073 -1.9436 -1.3638  2.4415
  276MOL0     H38083   4.945  10.399   6.092 -0.4673  1.9243  1.1614
  276MOL0     H38084   4.802  10.521   5.739 -1.1613  2.1746  1.1829
  276MOL0     H38085   5.532  10.114   5.858 -0.8534 -2.8425 -0.9693
  276MOL0     H38086   5.727   9.875   5.764 -1.4387  0.8671  2.2398
  276MOL0     H38087   5.827  10.007   5.675  0.6119 -1.3136 -0.7968
  276MOL0     H38088   5.767  10.029   5.829 -1.6613 -2.4899  1.5742
  277MOL0     O38089   0.330   2.102   8.489 -0.7436 -0.2361 -0.0089
  277MOL0     C38090   0.421   2.153   8.555 -0.5520 -0.0914  0.3476
  277MOL0     O38091   0.401   2.249   8.643 -0.4435 -0.2713  0.2331
  277MOL0     C38092   0.296   2.343   8.643 -0.4664 -0.5765 -0.0193
  277MOL0     C38093   0.224   2.377   8.522 -0.5711 -0.8099  0.0356
  277MOL0     C38094   0.126   2.474   8.542  0.8816  0.6235 -0.0498
  277MOL0     C38095   0.095   2.535   8.666 -0.2728  0.3460  0.1125
  277MOL0     O38096   0.008   2.640   8.662 -0.6839  0.2174  0.1522
  277MOL0     C38097  -0.001   2.736   8.764 -0.0219  0.1472 -1.4018
  277MOL0     C38098  -0.103   2.843   8.744 -0.1746 -0.6357  0.5507
  277MOL0     C38099  -0.240   2.774   8.717 -0.5880 -0.4712  0.1003
  277MOL0     C38100  -0.349   2.878   8.736  0.6425  0.2188 -0.4898
  277MOL0     C38101  -0.494   2.820   8.747 -0.2115  0.0309 -0.5030
  277MOL0     C38102  -0.583   2.923   8.814  0.5650  0.0746  0.4539
  277MOL0     C38103  -0.733   2.897   8.825 -0.2192  0.0843  0.8310
  277MOL0     C38104  -0.797   2.840   8.697 -0.1864  0.0825 -0.3566
  277MOL0     N38105  -0.807   2.936   8.588 -1.3987  0.3462 -0.0660
  277MOL0     C38106  -0.892   2.911   8.483 -0.7943  0.4285 -0.1945
  277MOL0     C38107  -0.917   3.035   8.426 -0.0508  0.2786 -0.7711
  277MOL0     C38108  -0.997   3.064   8.304  0.4332  0.0113 -0.1703
  277MOL0     C38109  -0.913   3.054   8.175  0.2014  0.0837 -0.2083
  277MOL0     C38110  -0.990   3.088   8.046 -0.2532  0.0441  0.1644
  277MOL0     C38111  -1.008   2.969   7.946  0.0716 -0.3247  0.2126
  277MOL0     O38112  -0.877   2.955   7.894  0.2524 -0.0865 -0.2024
  277MOL0     C38113  -0.859   2.826   7.850  0.3454 -0.0473  0.2525
  277MOL0     C38114  -0.956   2.751   7.783  0.4042 -0.2755  0.4131
  277MOL0     C38115  -0.942   2.620   7.734 -0.3330  0.5093 -0.3857
  277MOL0     C38116  -1.062   2.557   7.665  0.4451 -1.2121  0.1338
  277MOL0     C38117  -0.811   2.562   7.754 -0.4766  0.1241 -0.2015
  277MOL0     C38118  -0.780   2.420   7.722 -0.3411 -0.3518 -0.2033
  277MOL0     O38119  -0.670   2.366   7.794 -0.1225  0.9616  0.4230
  277MOL0     C38120  -0.633   2.234   7.746 -0.2244  0.0961  0.1605
  277MOL0     C38121  -0.723   2.126   7.756  0.3978 -0.0121  0.5418
  277MOL0     C38122  -0.679   1.997   7.729  0.1237 -0.3489  0.7440
  277MOL0     C38123  -0.550   1.963   7.692 -0.2554 -0.4669  0.1471
  277MOL0     O38124  -0.527   1.829   7.662 -0.3009 -0.0426 -0.8959
  277MOL0     C38125  -0.409   1.785   7.595  0.5567 -0.2115 -0.1591
  277MOL0     C38126  -0.428   1.809   7.446 -0.1909  0.1093 -0.2266
  277MOL0     C38127  -0.314   1.777   7.346 -0.2670 -0.4155  0.0362
  277MOL0     C38128  -0.255   1.631   7.352  0.3063 -0.2171  0.5597
  277MOL0     C38129  -0.105   1.632   7.386  0.8073 -0.3212  0.2834
  277MOL0     C38130  -0.041   1.486   7.389  0.1220  0.0322  0.7045
  277MOL0     C38131   0.106   1.480   7.424 -0.4507 -0.6613 -0.2332
  277MOL0     C38132   0.151   1.550   7.557  0.1237  0.1515 -0.0236
  277MOL0    Cl38133   0.317   1.508   7.617  0.2961  0.0751 -0.2428
  277MOL0     C38134  -0.453   2.070   7.682  1.2776  0.0430 -0.7430
  277MOL0     C38135  -0.502   2.210   7.706 -0.8820  0.8837 -0.6675
  277MOL0     O38136  -0.821   2.374   7.618  0.3311 -0.6017  0.4975
  277MOL0     C38137  -0.704   2.635   7.815 -0.5552 -0.6968 -0.7966
  277MOL0     C38138  -0.732   2.769   7.861  0.1350 -0.0132  0.0612
  277MOL0     N38139  -0.846   3.123   8.503  0.0253 -1.1139  0.3409
  277MOL0     N38140  -0.782   3.068   8.592 -0.2408 -0.3895  0.1075
  277MOL0     C38141   0.176   2.498   8.777 -0.0583 -0.0090  0.9256
  277MOL0     C38142   0.271   2.398   8.768 -0.9569 -0.6611 -0.1446
  277MOL0     C38143   0.564   2.102   8.540  0.3465  0.1462 -0.7015
  277MOL0     C38144   0.649   2.134   8.646 -0.4384 -0.5736 -0.5833
  277MOL0     C38145   0.774   2.081   8.656  0.2487 -0.2895  0.5883
  277MOL0     C38146   0.828   2.016   8.552 -0.3516 -0.6558 -0.3485
  277MOL0     O38147   0.965   1.991   8.569 -0.4776  0.2069  0.4674
  277MOL0     C38148   1.050   1.946   8.465 -0.2250  0.1738 -0.5853
  277MOL0     C38149   1.184   1.886   8.502 -0.3252  0.3199 -0.0972
  277MOL0     C38150   1.253   1.988   8.601  0.4900  0.4394 -0.4012
  277MOL0     C38151   1.398   1.938   8.648 -0.4437  0.8948  0.2295
  277MOL0     C38152   1.494   1.936   8.531 -1.0129 -0.5794  0.7760
  277MOL0     C38153   1.575   1.914   8.439 -0.0036  0.2212  0.4212
  277MOL0     C38154   0.742   1.971   8.454  0.0390  0.3821 -0.1212
  277MOL0     C38155   0.617   2.026   8.439  1.0852 -0.4527  0.5807
  277MOL0     C38156   0.546   1.989   8.311 -0.1782 -0.4161 -0.9609
  277MOL0     H38157   0.255   2.350   8.422 -0.4718  1.8374 -0.7251
  277MOL0     H38158   0.064   2.513   8.462 -1.2300  1.1681  1.7826
  277MOL0     H38159   0.095   2.787   8.777 -0.4769  0.3620  2.1832
  277MOL0     H38160  -0.033   2.683   8.854  1.3045  1.6370 -0.0080
  277MOL0     H38161  -0.110   2.910   8.831 -2.6628 -0.3735  0.2229
  277MOL0     H38162  -0.077   2.903   8.657 -4.7482 -0.8475 -1.2211
  277MOL0     H38163  -0.248   2.722   8.621  1.7373 -2.4855  0.8903
  277MOL0     H38164  -0.251   2.703   8.800  2.5650 -2.6224 -1.1540
  277MOL0     H38165  -0.331   2.942   8.823 -0.9218 -0.1251  0.1239
  277MOL0     H38166  -0.357   2.935   8.643 -1.3415 -2.4828 -2.1537
  277MOL0     H38167  -0.494   2.736   8.817 -1.4425  0.1233 -0.3662
  277MOL0     H38168  -0.525   2.783   8.649  1.1086  1.8990 -1.6840
  277MOL0     H38169  -0.552   2.941   8.917 -2.0955 -0.3458  1.4185
  277MOL0     H38170  -0.565   3.022   8.769  1.3579 -0.7331 -1.0937
  277MOL0     H38171  -0.778   2.993   8.853  1.1231  1.5747 -1.7615
  277MOL0     H38172  -0.751   2.827   8.907  1.3370 -2.8591 -1.1378
  277MOL0     H38173  -0.757   2.742   8.668 -1.5353 -0.6576  0.2447
  277MOL0     H38174  -0.900   2.817   8.723 -0.5282 -1.9420 -3.0214
  277MOL0     H38175  -0.921   2.815   8.443  2.6414 -0.0805 -1.8166
  277MOL0     H38176  -1.047   3.159   8.324 -0.9663 -0.4753 -1.2249
  277MOL0     H38177  -1.081   2.995   8.294  0.6769  0.0678 -3.7868
  277MOL0     H38178  -0.820   3.112   8.181 -0.2328  0.6331  3.1015
  277MOL0     H38179  -0.879   2.950   8.170 -1.1143 -0.3712  0.1229
  277MOL0     H38180  -1.091   3.120   8.072  0.5851  0.7912  2.7887
  277MOL0     H38181  -0.940   3.170   7.994  1.5977 -0.9283  0.3069
  277MOL0     H38182  -1.037   2.887   8.012 -1.7271  1.4136  1.7313
  277MOL0     H38183  -1.080   2.975   7.864  1.2141  0.2247 -0.7820
  277MOL0     H38184  -1.049   2.804   7.765  1.7214  3.4299  3.2122
  277MOL0     H38185  -1.083   2.453   7.691 -3.8798 -0.3711  0.9012
  277MOL0     H38186  -1.058   2.566   7.556  2.2934  2.0714  0.3382
  277MOL0     H38187  -1.148   2.621   7.691  0.6138 -0.8337 -0.2235
  277MOL0     H38188  -0.829   2.146   7.766 -0.1308 -2.0569 -0.5313
  277MOL0     H38189  -0.736   1.905   7.728  1.7609 -1.4811 -2.0245
  277MOL0     H38190  -0.328   1.847   7.635 -0.0376  0.5572 -0.1398
  277MOL0     H38191  -0.385   1.678   7.601 -2.6990 -1.3695 -3.7405
  277MOL0     H38192  -0.511   1.743   7.419  0.2897 -1.0202  0.9180
  277MOL0     H38193  -0.467   1.911   7.441 -0.6874 -0.0966 -0.7106
  277MOL0     H38194  -0.240   1.857   7.361 -3.1490  2.5087 -0.1746
  277MOL0     H38195  -0.359   1.794   7.248 -3.9197  0.5792  1.6817
  277MOL0     H38196  -0.273   1.586   7.254 -1.5691  4.2502 -1.4217
  277MOL0     H38197  -0.321   1.578   7.421  0.1051 -0.5584  0.1100
  277MOL0     H38198  -0.047   1.683   7.310  0.6518  0.9803  1.0105
  277MOL0     H38199  -0.091   1.682   7.483 -0.4931 -0.7274  0.7112
  277MOL0     H38200  -0.061   1.440   7.291  2.8079  1.5724 -0.6721
  277MOL0     H38201  -0.098   1.426   7.460 -0.0919 -1.5292 -0.7205
  277MOL0     H38202   0.162   1.525   7.342  0.5355  0.8716  1.2191
  277MOL0     H38203   0.137   1.375   7.433 -2.0954 -1.2140 -0.6396
  277MOL0     H38204   0.079   1.515   7.631 -0.4292  1.1527 -0.0671
  277MOL0     H38205   0.137   1.659   7.561 -1.6070 -0.0861  1.3633
  277MOL0     H38206  -0.353   2.045   7.648  0.6936 -2.2308 -0.9691
  277MOL0     H38207  -0.423   2.283   7.723 -2.4170  2.6275 -0.7310
  277MOL0     H38208  -0.607   2.596   7.844 -1.4855 -1.0238  2.2545
  277MOL0     H38209  -0.660   2.828   7.917  1.4825 -1.9921  0.5027
  277MOL0     H38210   0.168   2.554   8.869  2.0478 -0.9300  1.7399
  277MOL0     H38211   0.341   2.371   8.846 -1.7716  2.5149  1.8950
  277MOL0     H38212   0.615   2.202   8.723 -1.1949 -1.8862  0.2796
  277MOL0     H38213   0.840   2.127   8.729  0.9666  1.2998 -0.9891
  277MOL0     H38214   0.996   1.872   8.405  1.1661  1.9611 -4.3658
  277MOL0     H38215   1.079   2.033   8.405 -0.5648  0.1466 -0.7909
  277MOL0     H38216   1.246   1.868   8.413  0.3794 -0.4661  0.5377
  277MOL0     H38217   1.164   1.789   8.548 -1.0505  1.1673  1.4589
  277MOL0     H38218   1.250   2.089   8.558 -2.4535  0.8821  0.6386
  277MOL0     H38219   1.186   1.998   8.687 -1.7222 -1.7331 -1.7508
  277MOL0     H38220   1.401   1.837   8.690  1.9808  1.2892  1.1540
  277MOL0     H38221   1.437   1.999   8.730 -0.2579 -0.5527  1.2561
  277MOL0     H38222   1.650   1.904   8.364 -1.5510 -2.6291 -0.8804
  277MOL0     H38223   0.777   1.901   8.379 -2.9934  1.5111 -2.8618
  277MOL0     H38224   0.499   1.890   8.317 -0.1578 -0.5920 -3.0831
  277MOL0     H38225   0.476   2.068   8.282  1.3815  0.9940 -1.0249
  277MOL0     H38226   0.614   1.983   8.226  1.1114  1.6946 -0.1431
  278MOL0     O38227   3.512   7.294   0.032 -0.3145  0.3731  0.0937
  278MOL0     C38228   3.433   7.385   0.027  0.5668  0.0385  0.4042
  278MOL0     O38229   3.361   7.421  -0.087 -0.3625  0.4503 -0.5930
  278MOL0     C38230   3.393   7.346  -0.198  0.5127 -0.8603 -0.8760
  278MOL0     C38231   3.503   7.388  -0.278 -0.0387 -1.1353  0.6373
  278MOL0     C38232   3.527   7.317  -0.396  1.1865 -0.5912 -0.4849
  278MOL0     C38233   3.443   7.216  -0.448 -0.5931  0.2061 -0.3797
  278MOL0     O38234   3.459   7.150  -0.571 -1.0674 -0.2156  0.0123
  278MOL0     C38235   3.592   7.141  -0.632  0.2095  0.6417 -0.0975
  278MOL0     C38236   3.615   7.237  -0.752  0.1376 -0.1142 -0.5261
  278MOL0     C38237   3.506   7.200  -0.852 -0.1623  0.1298 -0.1122
  278MOL0     C38238   3.506   7.301  -0.977 -0.0138 -0.4160  0.1283
  278MOL0     C38239   3.633   7.288  -1.071  0.3553 -0.2968  0.3556
  278MOL0     C38240   3.604   7.340  -1.218 -0.5635  0.2138 -0.5895
  278MOL0     C38241   3.716   7.295  -1.310  0.3118 -0.5930 -0.4184
  278MOL0     C38242   3.681   7.309  -1.466 -0.5494 -0.6037 -0.2442
  278MOL0     N38243   3.661   7.438  -1.531 -0.7552 -0.5817 -0.7233
  278MOL0     C38244   3.721   7.557  -1.509 -0.6376 -0.4187  0.2429
  278MOL0     C38245   3.684   7.643  -1.603  0.0297 -0.2451  0.2603
  278MOL0     C38246   3.730   7.786  -1.618 -1.0355 -0.6967  0.2685
  278MOL0     C38247   3.632   7.876  -1.675  0.3814 -0.9440 -0.1027
  278MOL0     C38248   3.674   8.028  -1.668 -0.1589  0.5857  0.3398
  278MOL0     C38249   3.804   8.072  -1.738 -0.8949 -0.0816 -0.0077
  278MOL0     O38250   3.831   8.203  -1.699 -0.2413  0.5464  0.1927
  278MOL0     C38251   3.952   8.251  -1.734  0.1426  0.7865 -0.1464
  278MOL0     C38252   3.947   8.387  -1.715  0.5345  0.0035 -0.6449
  278MOL0     C38253   4.057   8.462  -1.745  0.4399  0.2528 -0.7064
  278MOL0     C38254   4.042   8.614  -1.721 -0.2511  1.4150  0.8141
  278MOL0     C38255   4.170   8.388  -1.795  0.0042 -1.0118 -0.0472
  278MOL0     C38256   4.296   8.462  -1.831 -0.0420 -0.0067  0.8771
  278MOL0     O38257   4.421   8.412  -1.807  0.2035 -0.2178 -0.3047
  278MOL0     C38258   4.533   8.492  -1.830 -0.1485  0.6282 -0.6342
  278MOL0     C38259   4.550   8.562  -1.949 -0.0580  0.9858  0.4003
  278MOL0     C38260   4.674   8.629  -1.977 -0.1567  0.0179 -0.5386
  278MOL0     C38261   4.775   8.616  -1.884  0.1381 -0.0506 -0.5224
  278MOL0     O38262   4.897   8.664  -1.933  0.5526 -0.4105 -0.2531
  278MOL0     C38263   5.020   8.641  -1.870  0.4763 -0.1279  0.2459
  278MOL0     C38264   5.057   8.494  -1.900 -0.5483  0.7609  0.1275
  278MOL0     C38265   5.188   8.453  -1.828 -0.1653 -1.3453 -0.3231
  278MOL0     C38266   5.197   8.304  -1.842  0.2135  0.5800  0.9966
  278MOL0     C38267   5.346   8.263  -1.826 -0.1447 -0.1559 -0.9641
  278MOL0     C38268   5.446   8.309  -1.931  0.2216 -0.1719  0.2937
  278MOL0     C38269   5.398   8.273  -2.069  1.2478  0.2010  0.1627
  278MOL0     C38270   5.488   8.299  -2.191  0.6108  0.7667 -0.6208
  278MOL0    Cl38271   5.632   8.204  -2.179 -0.5518 -0.4389  0.1711
  278MOL0     C38272   4.762   8.565  -1.761  1.6317 -0.4561 -0.3741
  278MOL0     C38273   4.641   8.486  -1.741  0.9537 -0.2741 -0.0417
  278MOL0     O38274   4.271   8.570  -1.881  0.0083  0.9137  0.2607
  278MOL0     C38275   4.175   8.251  -1.799  0.8616  0.4701  0.4641
  278MOL0     C38276   4.058   8.180  -1.792 -1.1163  0.0316  0.0200
  278MOL0     N38277   3.609   7.572  -1.693 -0.4354 -0.6657 -0.1585
  278MOL0     N38278   3.593   7.454  -1.642 -0.7160 -1.1566  0.4072
  278MOL0     C38279   3.340   7.176  -0.361 -0.2984  0.1160 -0.0163
  278MOL0     C38280   3.323   7.235  -0.233 -0.0405  0.6459 -0.9007
  278MOL0     C38281   3.426   7.477   0.162 -0.5446  0.0592 -0.0378
  278MOL0     C38282   3.534   7.489   0.252  0.5228  0.1784  0.9299
  278MOL0     C38283   3.531   7.582   0.356 -0.7978 -0.1344  0.4599
  278MOL0     C38284   3.426   7.660   0.378 -0.3185  0.3370  0.5945
  278MOL0     O38285   3.434   7.740   0.488 -0.5771 -0.2430 -0.6898
  278MOL0     C38286   3.365   7.862   0.498 -0.2027 -0.0867 -0.4974
  278MOL0     C38287   3.341   7.910   0.647  1.1122  0.0886 -0.6887
  278MOL0     C38288   3.464   7.925   0.728 -0.0769  0.0797  0.1006
  278MOL0     C38289   3.430   8.022   0.841  0.5341  0.0175  0.0596
  278MOL0     C38290   3.530   8.042   0.943 -0.1938  0.4080  0.9913
  278MOL0     C38291   3.618   8.067   1.026  0.3288  0.6537  0.6809
  278MOL0     C38292   3.319   7.661   0.290 -0.0912 -0.4669  0.8146
  278MOL0     C38293   3.315   7.571   0.183  0.3068 -1.0557 -0.5327
  278MOL0     C38294   3.189   7.587   0.104 -1.1142 -0.1422  0.3586
  278MOL0     H38295   3.560   7.476  -0.249 -1.4411 -0.7734  2.5095
  278MOL0     H38296   3.603   7.353  -0.464  0.2708 -1.9862 -2.3392
  278MOL0     H38297   3.600   7.037  -0.663 -0.7352 -0.1537  2.0915
  278MOL0     H38298   3.668   7.171  -0.559 -1.8906  2.0627  1.6581
  278MOL0     H38299   3.599   7.334  -0.704 -1.5609 -1.1290  1.1555
  278MOL0     H38300   3.711   7.229  -0.803 -0.8238 -0.6948 -2.3411
  278MOL0     H38301   3.519   7.106  -0.905 -3.0291 -0.7458  0.5292
  278MOL0     H38302   3.403   7.193  -0.816 -0.9518  2.7608 -1.5437
  278MOL0     H38303   3.422   7.273  -1.041  0.2163 -4.7961  1.4501
  278MOL0     H38304   3.502   7.408  -0.952  1.2975  0.4350 -2.8424
  278MOL0     H38305   3.651   7.181  -1.078 -1.7238 -0.5799 -2.1975
  278MOL0     H38306   3.722   7.344  -1.039  1.2557  0.9210 -3.6335
  278MOL0     H38307   3.508   7.297  -1.247 -2.6096  4.2050 -0.5256
  278MOL0     H38308   3.584   7.448  -1.221  1.9752  0.8558  1.9471
  278MOL0     H38309   3.733   7.188  -1.294  6.6762  0.3516  1.9735
  278MOL0     H38310   3.812   7.340  -1.284  0.6805 -0.3395 -2.1144
  278MOL0     H38311   3.757   7.249  -1.517 -0.4034 -0.2778 -0.4146
  278MOL0     H38312   3.587   7.258  -1.489 -1.7017  1.9962 -1.6705
  278MOL0     H38313   3.776   7.581  -1.418  0.3965 -0.3540 -0.3807
  278MOL0     H38314   3.826   7.781  -1.671 -1.2887 -4.4192 -0.0804
  278MOL0     H38315   3.761   7.825  -1.520 -0.6172  0.8298 -0.4239
  278MOL0     H38316   3.622   7.841  -1.778  3.8476 -0.4716 -0.7357
  278MOL0     H38317   3.538   7.862  -1.623  0.6239 -1.4144  0.2192
  278MOL0     H38318   3.594   8.081  -1.721 -0.1152 -0.3387 -0.6769
  278MOL0     H38319   3.668   8.067  -1.566  1.3112 -1.9610  1.4931
  278MOL0     H38320   3.881   8.000  -1.707  0.7565  1.2448 -0.8617
  278MOL0     H38321   3.790   8.060  -1.846  0.6740  0.0176 -0.2391
  278MOL0     H38322   3.855   8.439  -1.690  1.0014  1.8541 -2.5037
  278MOL0     H38323   3.942   8.648  -1.692 -0.8531  0.3316  0.0820
  278MOL0     H38324   4.058   8.682  -1.805 -2.3928  2.5325  1.2344
  278MOL0     H38325   4.107   8.634  -1.636 -0.6246  0.5898  1.3117
  278MOL0     H38326   4.470   8.565  -2.023  0.0702 -2.6219 -0.0870
  278MOL0     H38327   4.701   8.680  -2.069 -0.2762  0.0679 -0.5456
  278MOL0     H38328   5.092   8.709  -1.916  0.0108 -0.2184 -0.6367
  278MOL0     H38329   5.018   8.663  -1.763  1.7256  2.7891 -0.2206
  278MOL0     H38330   4.981   8.423  -1.868  1.2163 -2.6449 -2.5017
  278MOL0     H38331   5.060   8.492  -2.009 -0.6220  3.2870  0.0226
  278MOL0     H38332   5.180   8.481  -1.722  1.3109  1.9096 -0.9296
  278MOL0     H38333   5.273   8.505  -1.873 -3.0286  0.5216 -4.0974
  278MOL0     H38334   5.151   8.260  -1.930  1.6457 -0.5394  0.7742
  278MOL0     H38335   5.134   8.260  -1.765 -1.8814 -0.2981 -1.1130
  278MOL0     H38336   5.384   8.308  -1.735  3.7951  0.4193 -2.6937
  278MOL0     H38337   5.352   8.155  -1.811  0.5390  0.2938  2.8387
  278MOL0     H38338   5.542   8.259  -1.914  1.9017  2.2757 -1.3869
  278MOL0     H38339   5.460   8.417  -1.928 -1.8959  0.1212  1.3790
  278MOL0     H38340   5.299   8.314  -2.091  0.3493 -0.4218  2.7203
  278MOL0     H38341   5.373   8.167  -2.070 -0.4225  0.5599 -0.0555
  278MOL0     H38342   5.503   8.406  -2.210  0.9914  0.6664 -0.9249
  278MOL0     H38343   5.441   8.253  -2.279  0.1203 -3.0430  1.4420
  278MOL0     H38344   4.829   8.577  -1.676  0.4722  0.6105  0.4253
  278MOL0     H38345   4.633   8.418  -1.656  2.4028  2.0016  2.0627
  278MOL0     H38346   4.271   8.204  -1.822  2.3202  2.9581  1.1091
  278MOL0     H38347   4.054   8.073  -1.809 -1.1955 -0.0984  0.7922
  278MOL0     H38348   3.277   7.098  -0.403  0.2329  1.2299 -3.0993
  278MOL0     H38349   3.242   7.208  -0.167 -0.2750  0.7357 -1.1523
  278MOL0     H38350   3.611   7.416   0.231  0.2351  0.4390 -1.2318
  278MOL0     H38351   3.623   7.587   0.415  1.2902  1.9660 -2.6208
  278MOL0     H38352   3.435   7.935   0.455 -2.9170  2.0884 -1.5171
  278MOL0     H38353   3.271   7.862   0.442  0.0567  3.5596 -1.2194
  278MOL0     H38354   3.267   7.847   0.698  1.8487 -0.1538  0.1049
  278MOL0     H38355   3.286   8.002   0.627 -1.9550 -2.0322 -2.9208
  278MOL0     H38356   3.506   7.830   0.761  0.1046  0.3449  0.6483
  278MOL0     H38357   3.537   7.976   0.664  0.0837 -0.3573 -0.0631
  278MOL0     H38358   3.333   7.995   0.885 -1.2714 -1.2288 -4.1738
  278MOL0     H38359   3.408   8.120   0.796 -1.5730 -0.4482 -0.0553
  278MOL0     H38360   3.687   8.086   1.105  2.4126  1.1956 -1.1701
  278MOL0     H38361   3.233   7.725   0.307 -1.7141 -1.1210 -3.7071
  278MOL0     H38362   3.178   7.500   0.038  1.0363  0.9756 -1.6219
  278MOL0     H38363   3.102   7.593   0.169 -1.2011  0.5372  0.1838
  278MOL0     H38364   3.209   7.675   0.041  0.8292  0.2235  1.3992
  279MOL0     O38365   6.173   0.386  11.296 -0.3946 -0.3677  0.4696
  279MOL0     C38366   6.295   0.395  11.279  0.2442  1.2219  0.0321
  279MOL0     O38367   6.384   0.294  11.331  1.6727 -0.9569  0.0657
  279MOL0     C38368   6.323   0.188  11.389 -0.6314 -0.1404  0.2585
  279MOL0     C38369   6.288   0.087  11.298  0.8062  0.7614 -0.5977
  279MOL0     C38370   6.219  -0.020  11.357 -0.2716 -0.3168  0.6858
  279MOL0     C38371   6.193  -0.036  11.495  0.0085 -1.2035  0.0000
  279MOL0     O38372   6.134  -0.150  11.541 -0.4484  0.3760  0.0915
  279MOL0     C38373   6.182  -0.196  11.665  0.8731  0.2471 -0.3973
  279MOL0     C38374   6.259  -0.324  11.651 -0.3563 -0.2806 -0.4012
  279MOL0     C38375   6.173  -0.428  11.587  0.4446  0.5064  1.6497
  279MOL0     C38376   6.200  -0.570  11.625 -0.4967  0.4536 -0.9342
  279MOL0     C38377   6.109  -0.668  11.556 -0.5689 -0.7946  0.0328
  279MOL0     C38378   6.125  -0.812  11.592 -0.4197 -0.2457  0.5639
  279MOL0     C38379   6.241  -0.880  11.518  0.0443 -0.7452  0.4826
  279MOL0     C38380   6.224  -1.026  11.529 -0.9856 -0.4425  0.5475
  279MOL0     N38381   6.322  -1.098  11.445 -0.5558 -0.1017  0.4326
  279MOL0     C38382   6.294  -1.177  11.335  0.2008  0.0234  0.0297
  279MOL0     C38383   6.407  -1.218  11.279 -0.0285 -0.0232  0.0033
  279MOL0     C38384   6.415  -1.309  11.161  0.3056  0.5860 -0.9524
  279MOL0     C38385   6.419  -1.241  11.033  0.0130 -0.1496 -0.4485
  279MOL0     C38386   6.362  -1.325  10.917 -0.2697  0.8535 -0.6539
  279MOL0     C38387   6.322  -1.231  10.802  0.8264  0.1673 -0.2861
  279MOL0     O38388   6.441  -1.156  10.760  0.7724 -0.2701 -0.2426
  279MOL0     C38389   6.508  -1.201  10.649 -0.1828  0.3597  0.2774
  279MOL0     C38390   6.434  -1.243  10.539 -0.4094  0.4202 -0.5018
  279MOL0     C38391   6.494  -1.289  10.420  0.0792  0.2564  0.3796
  279MOL0     C38392   6.420  -1.317  10.294  0.6407 -0.5014 -0.9382
  279MOL0     C38393   6.631  -1.318  10.423 -0.1421 -0.2972 -0.9650
  279MOL0     C38394   6.709  -1.366  10.305 -1.4304  0.3343  0.4030
  279MOL0     O38395   6.836  -1.319  10.309  0.5811  0.0134 -0.1809
  279MOL0     C38396   6.934  -1.362  10.218  0.5907  0.0061 -1.1425
  279MOL0     C38397   7.053  -1.422  10.266  0.3122 -1.3649  0.3425
  279MOL0     C38398   7.154  -1.456  10.181  0.4822 -0.2879 -0.4087
  279MOL0     C38399   7.131  -1.448  10.039 -0.8015  0.5317  0.4151
  279MOL0     O38400   7.233  -1.473   9.944 -0.0477  0.2690  0.1564
  279MOL0     C38401   7.361  -1.510   9.991  0.6325  0.5906 -0.2766
  279MOL0     C38402   7.457  -1.534   9.880  0.2119  0.5060  0.3098
  279MOL0     C38403   7.398  -1.617   9.773  0.1965  0.2405  0.9184
  279MOL0     C38404   7.507  -1.655   9.666 -0.5711  0.2803 -0.7928
  279MOL0     C38405   7.569  -1.535   9.594 -0.1847  1.1158  1.0518
  279MOL0     C38406   7.692  -1.590   9.503  0.3173 -0.2875  1.2722
  279MOL0     C38407   7.822  -1.617   9.579  0.2242  0.5612  0.3866
  279MOL0     C38408   7.943  -1.591   9.492  0.1636 -0.6018 -0.3967
  279MOL0    Cl38409   8.094  -1.602   9.603 -0.2563 -0.1263  0.1064
  279MOL0     C38410   7.006  -1.406   9.993 -0.1408  0.3813  0.6217
  279MOL0     C38411   6.913  -1.361  10.078  0.0671  0.2227  0.6430
  279MOL0     O38412   6.663  -1.453  10.234  0.2496 -0.3827 -0.6558
  279MOL0     C38413   6.706  -1.280  10.538  0.3694  0.7501 -1.3268
  279MOL0     C38414   6.644  -1.227  10.650 -0.2005  0.1623 -0.2354
  279MOL0     N38415   6.509  -1.165  11.364  0.3988 -0.7552  0.2499
  279MOL0     N38416   6.455  -1.087  11.452  0.5051  0.2080 -1.3079
  279MOL0     C38417   6.240   0.061  11.574  0.4046  0.2533  0.3784
  279MOL0     C38418   6.296   0.179  11.528 -0.0936 -0.5704  0.2486
  279MOL0     C38419   6.359   0.519  11.227 -0.6608  0.7544 -0.7631
  279MOL0     C38420   6.478   0.558  11.289 -0.5154 -0.3785 -0.1369
  279MOL0     C38421   6.551   0.667  11.248  0.6257  0.1647 -0.0263
  279MOL0     C38422   6.508   0.753  11.143 -0.0858 -0.6319  0.1527
  279MOL0     O38423   6.570   0.864  11.083 -0.8405 -0.0222  0.4431
  279MOL0     C38424   6.711   0.877  11.119 -0.1272  0.0415 -0.2869
  279MOL0     C38425   6.766   1.015  11.071 -0.4074  0.1533 -0.3204
  279MOL0     C38426   6.761   1.031  10.914  0.5674 -0.1863  0.1378
  279MOL0     C38427   6.845   1.154  10.874 -0.0238 -0.7612  0.3941
  279MOL0     C38428   6.990   1.154  10.914  0.3676  0.8176 -0.0570
  279MOL0     C38429   7.100   1.141  10.953 -0.6218  0.0472  0.5637
  279MOL0     C38430   6.383   0.721  11.083  0.1587  0.8187 -0.5409
  279MOL0     C38431   6.316   0.600  11.123  0.3173 -0.3950 -0.5782
  279MOL0     C38432   6.212   0.546  11.028 -0.2631  0.9860 -0.7915
  279MOL0     H38433   6.300   0.097  11.190  0.3754  1.1878 -0.6119
  279MOL0     H38434   6.201  -0.103  11.289  0.9749 -0.3385  0.3626
  279MOL0     H38435   6.084  -0.205  11.713 -0.2847  2.7824 -2.0773
  279MOL0     H38436   6.242  -0.128  11.726 -1.3010  1.5453  0.3959
  279MOL0     H38437   6.336  -0.299  11.577 -0.0359 -3.3505 -1.2455
  279MOL0     H38438   6.307  -0.368  11.739 -0.5572  0.3611  0.0331
  279MOL0     H38439   6.068  -0.410  11.611  0.0116  0.1983  0.0695
  279MOL0     H38440   6.180  -0.406  11.481 -2.6404  1.5391  1.5873
  279MOL0     H38441   6.305  -0.596  11.605 -0.1240 -3.3534  4.0296
  279MOL0     H38442   6.186  -0.567  11.733 -0.4302 -1.1538 -0.8563
  279MOL0     H38443   6.141  -0.665  11.451  2.6027 -1.2270  0.8840
  279MOL0     H38444   6.004  -0.639  11.567 -0.4659 -0.2790 -0.2990
  279MOL0     H38445   6.148  -0.829  11.698 -0.7161  0.2732  0.7133
  279MOL0     H38446   6.026  -0.855  11.575 -0.4318  0.2022 -0.5882
  279MOL0     H38447   6.340  -0.857  11.557  0.2954 -1.8866  0.5437
  279MOL0     H38448   6.243  -0.841  11.416 -0.0648  1.0804  1.1498
  279MOL0     H38449   6.231  -1.070  11.629 -0.1238  0.0725  0.7224
  279MOL0     H38450   6.123  -1.036  11.490 -0.4482 -4.0401 -0.2911
  279MOL0     H38451   6.197  -1.212  11.301  0.2873  1.2175 -1.5542
  279MOL0     H38452   6.325  -1.372  11.164  1.1786 -0.6674  0.6740
  279MOL0     H38453   6.503  -1.371  11.181 -2.2692 -2.7262  1.0633
  279MOL0     H38454   6.364  -1.146  11.044 -0.9388 -0.7690  0.3213
  279MOL0     H38455   6.522  -1.213  11.011 -0.5793  1.4187 -1.5178
  279MOL0     H38456   6.440  -1.390  10.878 -1.9525 -2.0513  0.4635
  279MOL0     H38457   6.282  -1.393  10.951  2.8631 -2.5858  0.4810
  279MOL0     H38458   6.271  -1.295  10.729  3.4376  0.0193 -2.1560
  279MOL0     H38459   6.244  -1.162  10.832  2.8367  3.5840 -2.2218
  279MOL0     H38460   6.328  -1.218  10.528  0.0700  2.9763  0.0284
  279MOL0     H38461   6.321  -1.270  10.289  1.5489  1.3860 -1.8344
  279MOL0     H38462   6.397  -1.424  10.282 -1.8664 -0.0545 -0.7409
  279MOL0     H38463   6.474  -1.278  10.207  0.8729 -0.5134 -0.7975
  279MOL0     H38464   7.065  -1.424  10.374  1.6380  2.2569  0.4048
  279MOL0     H38465   7.248  -1.491  10.222  0.5659  0.3333 -0.0513
  279MOL0     H38466   7.401  -1.434  10.058 -0.4889  0.1162  0.9872
  279MOL0     H38467   7.355  -1.604  10.047 -0.7747  1.9937  2.0988
  279MOL0     H38468   7.484  -1.432   9.850 -0.1636  0.5863  0.2354
  279MOL0     H38469   7.545  -1.590   9.911  0.7338  0.5118 -1.1182
  279MOL0     H38470   7.308  -1.569   9.734  1.0347  2.4379  1.5089
  279MOL0     H38471   7.365  -1.706   9.827 -2.2521  0.6171  0.1519
  279MOL0     H38472   7.455  -1.715   9.591  0.6981 -1.7052 -0.1361
  279MOL0     H38473   7.581  -1.725   9.704 -0.4318  1.1260  0.5924
  279MOL0     H38474   7.502  -1.481   9.528  0.9009 -0.4888 -1.5282
  279MOL0     H38475   7.611  -1.466   9.668 -1.8520  2.1939  1.0406
  279MOL0     H38476   7.702  -1.512   9.427 -6.8899  0.7973  0.7378
  279MOL0     H38477   7.660  -1.678   9.448  2.6012 -1.0456  1.0316
  279MOL0     H38478   7.823  -1.720   9.616 -0.3286  0.6426  0.6353
  279MOL0     H38479   7.838  -1.557   9.670  3.5625 -5.1017  4.1849
  279MOL0     H38480   7.948  -1.488   9.458 -1.7017 -0.4965 -0.4669
  279MOL0     H38481   7.960  -1.657   9.407 -1.0273  1.9714 -2.7822
  279MOL0     H38482   6.991  -1.426   9.887  0.6978 -2.0396  0.8866
  279MOL0     H38483   6.820  -1.318  10.043  0.6750  0.1326 -1.1774
  279MOL0     H38484   6.809  -1.310  10.555 -0.0353  0.2100  0.3162
  279MOL0     H38485   6.701  -1.231  10.742 -1.8491  0.0184  0.8221
  279MOL0     H38486   6.212   0.055  11.679 -2.6246 -2.4265 -0.4384
  279MOL0     H38487   6.331   0.263  11.588 -0.2520  0.2712 -0.8222
  279MOL0     H38488   6.513   0.504  11.377 -3.0355  1.4648  2.1448
  279MOL0     H38489   6.644   0.674  11.304  0.6249 -1.2940  0.1917
  279MOL0     H38490   6.723   0.870  11.227 -0.5816 -1.2354 -0.2992
  279MOL0     H38491   6.769   0.791  11.083  0.3999  0.3420 -0.1657
  279MOL0     H38492   6.871   1.018  11.102 -0.2656  3.1500 -0.7335
  279MOL0     H38493   6.719   1.092  11.133 -1.0520 -0.5668  0.0909
  279MOL0     H38494   6.794   0.950  10.849 -1.5041  0.2476 -1.5972
  279MOL0     H38495   6.659   1.054  10.882  0.6119 -1.1057 -0.7056
  279MOL0     H38496   6.797   1.236  10.927 -0.0299 -1.2714  1.1969
  279MOL0     H38497   6.831   1.164  10.766 -0.3214 -2.0583  0.2889
  279MOL0     H38498   7.203   1.158  10.976  0.2279  0.7925 -3.1440
  279MOL0     H38499   6.344   0.781  11.002 -1.2046 -0.6911 -1.0477
  279MOL0     H38500   6.218   0.438  11.010  0.7073  0.8541  0.1922
  279MOL0     H38501   6.116   0.555  11.079  0.5266 -1.6764  1.4374
  279MOL0     H38502   6.219   0.601  10.933  2.7015  0.1714 -1.1413
  280MOL0     O38503   2.595   3.304  10.546  0.7336  0.0416  0.0398
  280MOL0     C38504   2.535   3.212  10.602 -0.7718 -0.0170 -0.5622
  280MOL0     O38505   2.406   3.196  10.589 -0.8770  0.1267  0.5727
  280MOL0     C38506   2.329   3.277  10.507  0.0562  0.5200 -0.0722
  280MOL0     C38507   2.239   3.212  10.414 -0.9762 -0.4031 -0.0422
  280MOL0     C38508   2.156   3.291  10.338 -0.3014  0.6371  0.5074
  280MOL0     C38509   2.152   3.430  10.344  0.0307  1.1486 -0.3213
  280MOL0     O38510   2.050   3.494  10.264  0.0482  1.0997  0.6883
  280MOL0     C38511   1.992   3.608  10.324  0.0631  0.2550 -0.1539
  280MOL0     C38512   1.918   3.702  10.233 -0.1587  0.1654  0.0340
  280MOL0     C38513   1.781   3.646  10.199 -1.0648 -0.3100  0.4630
  280MOL0     C38514   1.705   3.744  10.107  0.9053 -0.1267  0.9566
  280MOL0     C38515   1.734   3.725   9.958  0.3253 -0.3819  0.0934
  280MOL0     C38516   1.624   3.781   9.876  0.4518  0.5166  0.1122
  280MOL0     C38517   1.667   3.823   9.737 -0.3584  0.6869  0.7955
  280MOL0     C38518   1.546   3.851   9.638 -0.6945  0.2289 -0.5359
  280MOL0     N38519   1.580   3.961   9.538 -0.2464 -0.4304  0.3288
  280MOL0     C38520   1.651   3.931   9.424  0.1821 -1.2321  0.4186
  280MOL0     C38521   1.638   4.047   9.350 -0.5980  0.7079  0.6050
  280MOL0     C38522   1.727   4.084   9.232 -0.2366  0.6386 -0.5321
  280MOL0     C38523   1.757   3.964   9.149 -0.0522 -0.3574 -0.0784
  280MOL0     C38524   1.886   3.882   9.185  0.5961  0.4123 -0.3300
  280MOL0     C38525   2.025   3.939   9.150 -0.2680  0.2974  0.2732
  280MOL0     O38526   2.041   4.071   9.189  0.3638 -0.4309  0.1645
  280MOL0     C38527   2.161   4.144   9.181  0.0865 -0.9120 -0.1845
  280MOL0     C38528   2.291   4.090   9.152  0.4879  0.0097 -0.2547
  280MOL0     C38529   2.404   4.164   9.171 -0.2045 -0.1760 -0.1225
  280MOL0     C38530   2.535   4.094   9.142 -0.2845 -0.2999 -0.8433
  280MOL0     C38531   2.396   4.296   9.216 -0.4618  0.3575 -0.6303
  280MOL0     C38532   2.519   4.370   9.245 -0.8259  0.5401 -0.8830
  280MOL0     O38533   2.634   4.305   9.278 -0.0077 -0.3489 -0.1871
  280MOL0     C38534   2.716   4.358   9.370  0.1268  0.7820  0.1869
  280MOL0     C38535   2.781   4.478   9.362  0.2264  0.4040 -0.4640
  280MOL0     C38536   2.847   4.531   9.467 -0.1828 -0.1204 -0.4452
  280MOL0     C38537   2.859   4.466   9.595 -0.5768  0.3304  0.6048
  280MOL0     O38538   2.915   4.506   9.714  0.4251 -0.2300  0.6658
  280MOL0     C38539   2.923   4.649   9.729  0.5391 -0.1615  0.3630
  280MOL0     C38540   2.964   4.692   9.871  0.1159 -0.1118 -0.8006
  280MOL0     C38541   3.109   4.659   9.901  0.3800 -0.7904  0.1994
  280MOL0     C38542   3.162   4.738  10.019  0.2640  0.2170  0.9772
  280MOL0     C38543   3.310   4.710  10.068  0.2359  0.3020 -0.2735
  280MOL0     C38544   3.358   4.811  10.171  0.5929 -0.5758  0.0079
  280MOL0     C38545   3.497   4.786  10.234  0.4343  0.8791  0.0501
  280MOL0     C38546   3.502   4.733  10.370 -0.4009 -0.1454  0.1398
  280MOL0    Cl38547   3.415   4.584  10.392 -0.3978 -0.0138  0.3366
  280MOL0     C38548   2.799   4.330   9.595 -0.0029 -0.4691  0.6575
  280MOL0     C38549   2.727   4.280   9.488 -0.4159  0.3453 -0.2173
  280MOL0     O38550   2.505   4.493   9.249 -0.1221 -0.0873  0.3841
  280MOL0     C38551   2.271   4.354   9.251  0.5658  0.6837 -0.0329
  280MOL0     C38552   2.156   4.274   9.233  0.1157 -0.1072 -0.0983
  280MOL0     N38553   1.553   4.133   9.415  0.1775  0.6032 -0.3534
  280MOL0     N38554   1.521   4.083   9.527  0.2043 -0.1797 -1.7404
  280MOL0     C38555   2.238   3.490  10.433  0.2415  0.3811 -0.7484
  280MOL0     C38556   2.336   3.412  10.512  0.2474 -0.3388  0.9060
  280MOL0     C38557   2.602   3.110  10.695 -0.2309 -0.5663 -0.5774
  280MOL0     C38558   2.745   3.082  10.672 -0.3301 -0.1824  0.0813
  280MOL0     C38559   2.809   2.988  10.755 -0.7008  0.0662  0.4589
  280MOL0     C38560   2.736   2.911  10.854 -1.3404 -1.4433  0.3559
  280MOL0     O38561   2.808   2.814  10.921  0.3217 -0.1112 -0.2537
  280MOL0     C38562   2.760   2.759  11.043 -0.1883 -0.5943  0.1104
  280MOL0     C38563   2.873   2.686  11.119 -0.5185  0.0055 -0.3897
  280MOL0     C38564   2.816   2.620  11.239 -0.1080  1.0499  0.2916
  280MOL0     C38565   2.914   2.529  11.325 -0.0616 -0.4646  0.1443
  280MOL0     C38566   2.964   2.419  11.242 -0.7072 -0.1195 -0.0643
  280MOL0     C38567   3.000   2.318  11.188  0.0840 -0.0235  0.3802
  280MOL0     C38568   2.605   2.944  10.874 -0.7418 -0.1289  0.5714
  280MOL0     C38569   2.536   3.029  10.789  0.5438  0.1875 -0.3404
  280MOL0     C38570   2.381   3.032  10.813 -0.5509  1.1450 -0.3590
  280MOL0     H38571   2.241   3.105  10.396  1.2603 -0.0712 -2.2889
  280MOL0     H38572   2.081   3.241  10.277 -0.3513  2.5001 -1.0462
  280MOL0     H38573   2.067   3.664  10.379 -0.4681 -0.4324  1.3388
  280MOL0     H38574   1.927   3.568  10.403  0.6663 -3.4727 -1.3356
  280MOL0     H38575   1.922   3.807  10.264  6.3541  0.7631 -1.2779
  280MOL0     H38576   1.968   3.721  10.137  0.4467  0.3298  0.3694
  280MOL0     H38577   1.783   3.552  10.142 -0.2529 -0.8304  1.3192
  280MOL0     H38578   1.735   3.637  10.298  2.4721  1.2588  2.4238
  280MOL0     H38579   1.598   3.729  10.128  0.5017 -0.5754 -1.1827
  280MOL0     H38580   1.725   3.847  10.140  1.1186 -0.8670  3.2851
  280MOL0     H38581   1.737   3.616   9.954 -1.5325 -0.4716  0.4282
  280MOL0     H38582   1.833   3.760   9.928  0.1050  0.9656  0.8467
  280MOL0     H38583   1.543   3.709   9.865  0.5170  0.0151  2.5204
  280MOL0     H38584   1.574   3.869   9.917 -1.9387  0.2376 -1.9722
  280MOL0     H38585   1.729   3.743   9.694 -0.8549  0.3991  0.5972
  280MOL0     H38586   1.740   3.902   9.756 -0.7756  1.2682  0.0214
  280MOL0     H38587   1.523   3.757   9.589 -2.9121 -0.2884  1.3183
  280MOL0     H38588   1.460   3.887   9.696 -1.6904 -1.9265 -0.5951
  280MOL0     H38589   1.704   3.840   9.397  0.0613 -0.8115 -1.3793
  280MOL0     H38590   1.814   4.132   9.279  2.7218 -3.1038 -1.6696
  280MOL0     H38591   1.670   4.156   9.172 -3.3023 -0.6549  0.6093
  280MOL0     H38592   1.668   3.900   9.142 -1.4556  1.4425  0.3471
  280MOL0     H38593   1.763   3.999   9.046  1.1608 -2.2538 -0.6891
  280MOL0     H38594   1.884   3.877   9.294 -3.4007 -0.6372 -0.2707
  280MOL0     H38595   1.865   3.780   9.152 -1.0333 -0.1011  2.0061
  280MOL0     H38596   2.103   3.877   9.197  0.3076 -0.4736 -1.5868
  280MOL0     H38597   2.034   3.931   9.041 -0.8112 -1.7392  0.3414
  280MOL0     H38598   2.291   3.993   9.103 -1.8348 -0.1967  0.0444
  280MOL0     H38599   2.523   4.002   9.084  0.6433 -0.3853 -0.9220
  280MOL0     H38600   2.587   4.051   9.229 -0.0892 -1.3111 -1.4377
  280MOL0     H38601   2.597   4.165   9.088 -0.4285  2.4707  2.3420
  280MOL0     H38602   2.770   4.531   9.268  1.8084  0.7734 -0.4682
  280MOL0     H38603   2.865   4.638   9.460 -0.1403  0.0280  1.4275
  280MOL0     H38604   2.986   4.707   9.660  1.0016  0.1018  0.9975
  280MOL0     H38605   2.828   4.699   9.708  1.0548  0.6785 -0.0435
  280MOL0     H38606   2.934   4.796   9.889 -2.3729 -1.2507  2.5406
  280MOL0     H38607   2.905   4.639   9.946  0.9140  0.5495  0.3087
  280MOL0     H38608   3.165   4.666   9.807  1.3812  2.5614  0.9202
  280MOL0     H38609   3.111   4.553   9.928 -0.0756 -0.7340  0.4575
  280MOL0     H38610   3.105   4.715  10.110 -0.0760  0.6085  0.8651
  280MOL0     H38611   3.146   4.844   9.998 -0.5209  0.2954  1.9005
  280MOL0     H38612   3.308   4.612  10.114  0.8908 -0.0670 -1.0032
  280MOL0     H38613   3.369   4.715   9.976 -0.9662  1.9562 -1.0279
  280MOL0     H38614   3.283   4.811  10.251 -0.5077  0.1675 -0.9773
  280MOL0     H38615   3.349   4.910  10.126 -2.4586 -1.3981 -1.5044
  280MOL0     H38616   3.531   4.889  10.247  0.7045  0.4825  3.5972
  280MOL0     H38617   3.560   4.723  10.170 -2.9251 -0.3307 -2.3369
  280MOL0     H38618   3.461   4.812  10.434 -1.2401 -0.5817  0.1617
  280MOL0     H38619   3.607   4.721  10.396  0.9265  4.0046 -2.4888
  280MOL0     H38620   2.793   4.268   9.684 -2.1462  0.4943  1.2336
  280MOL0     H38621   2.661   4.194   9.498 -0.1629  0.1754  0.0085
  280MOL0     H38622   2.268   4.454   9.291 -3.4246  0.9900 -0.6805
  280MOL0     H38623   2.057   4.300   9.269  0.1399  0.8727 -0.7026
  280MOL0     H38624   2.247   3.597  10.444 -1.7486  0.3510  2.7754
  280MOL0     H38625   2.404   3.458  10.582 -0.2679  0.5032  0.8659
  280MOL0     H38626   2.802   3.111  10.584  1.2282 -2.4081  0.2684
  280MOL0     H38627   2.916   2.971  10.744 -0.1802  3.7033 -1.4690
  280MOL0     H38628   2.733   2.847  11.103  1.2671  1.2216 -1.7148
  280MOL0     H38629   2.673   2.694  11.030  2.3726 -4.8904  2.2764
  280MOL0     H38630   2.947   2.764  11.141  1.1662 -1.2310 -1.4077
  280MOL0     H38631   2.910   2.612  11.048 -3.6503 -0.1085 -2.0676
  280MOL0     H38632   2.783   2.698  11.307  0.0803  2.8024 -1.5408
  280MOL0     H38633   2.734   2.554  11.206  2.3579 -1.5022 -1.2574
  280MOL0     H38634   2.856   2.485  11.406  1.0093  0.3735  1.4050
  280MOL0     H38635   2.996   2.591  11.363  0.5123 -1.8496  1.2302
  280MOL0     H38636   3.035   2.229  11.138 -0.8298  0.0344 -0.3978
  280MOL0     H38637   2.556   2.916  10.967 -2.3685  1.8890  0.3741
  280MOL0     H38638   2.326   3.013  10.720  0.5396 -0.0003 -0.7921
  280MOL0     H38639   2.362   2.950  10.883 -0.7042  0.8002 -0.8002
  280MOL0     H38640   2.364   3.127  10.865  2.3915  0.6362  1.7850
  281MOL0     O38641   4.360   8.318   6.629  0.4560 -1.2077 -0.1911
  281MOL0     C38642   4.272   8.329   6.540 -0.3234 -0.1729 -0.2848
  281MOL0     O38643   4.273   8.279   6.416 -0.7692  0.0458  0.9541
  281MOL0     C38644   4.385   8.221   6.372  0.0337  0.3441  0.2586
  281MOL0     C38645   4.437   8.244   6.243  0.0380 -0.1306 -0.6209
  281MOL0     C38646   4.567   8.193   6.204  0.0259  0.3590  0.2159
  281MOL0     C38647   4.635   8.111   6.287  0.1918 -0.2811 -0.8337
  281MOL0     O38648   4.769   8.071   6.265  0.5467  0.1980  0.1828
  281MOL0     C38649   4.816   8.066   6.129 -0.4797  0.0564  0.3292
  281MOL0     C38650   4.963   8.026   6.104  0.0141 -0.7236  0.7201
  281MOL0     C38651   5.072   8.078   6.199  0.9987 -0.7647  0.1228
  281MOL0     C38652   5.213   8.069   6.145  0.3390  0.6684  0.3349
  281MOL0     C38653   5.273   8.206   6.119  0.2781 -0.4175  0.1163
  281MOL0     C38654   5.403   8.201   6.038 -0.5301  0.0190  0.3078
  281MOL0     C38655   5.486   8.328   6.048 -1.6938 -0.3493 -0.6737
  281MOL0     C38656   5.621   8.302   5.978 -0.4757 -0.4680 -0.1997
  281MOL0     N38657   5.711   8.423   5.970 -0.9312  0.5548  0.0985
  281MOL0     C38658   5.670   8.555   5.967 -0.8062  0.0887 -0.2157
  281MOL0     C38659   5.787   8.624   5.967 -0.1616  0.1691  0.8072
  281MOL0     C38660   5.790   8.775   5.988 -0.0593  0.5057 -0.2985
  281MOL0     C38661   5.736   8.851   5.872 -0.8973  0.1593  0.8133
  281MOL0     C38662   5.619   8.943   5.904  0.1329  0.1261 -0.2491
  281MOL0     C38663   5.493   8.869   5.965  0.1049 -0.4997 -0.0597
  281MOL0     O38664   5.449   8.773   5.873 -0.3485 -0.5311  0.2156
  281MOL0     C38665   5.322   8.716   5.893  0.1741  1.0367  0.3185
  281MOL0     C38666   5.272   8.676   6.015 -0.7668 -0.3563  0.5456
  281MOL0     C38667   5.156   8.594   6.015  0.3884  1.2763 -0.0645
  281MOL0     C38668   5.129   8.540   6.144  0.4142  0.4736 -0.9060
  281MOL0     C38669   5.069   8.565   5.904  0.5561  0.4007  0.3279
  281MOL0     C38670   4.947   8.491   5.894  0.5294 -0.0097 -0.5983
  281MOL0     O38671   4.897   8.456   5.770  0.2899 -0.1035 -0.7494
  281MOL0     C38672   4.775   8.397   5.774  0.0356  0.0375  0.9189
  281MOL0     C38673   4.769   8.266   5.788  0.6871  1.3636 -0.7244
  281MOL0     C38674   4.646   8.202   5.800 -0.6743  0.1025 -0.4749
  281MOL0     C38675   4.531   8.273   5.798  1.3749 -0.8118 -0.3191
  281MOL0     O38676   4.406   8.209   5.812 -0.1717 -0.0253  0.0240
  281MOL0     C38677   4.293   8.287   5.847 -0.0688 -0.1694  0.0116
  281MOL0     C38678   4.165   8.196   5.845  1.5608 -0.1236 -0.6067
  281MOL0     C38679   4.083   8.241   5.969  0.5783  0.5844  0.3729
  281MOL0     C38680   3.963   8.145   5.995  0.5618  0.1199 -0.0969
  281MOL0     C38681   3.843   8.214   6.074 -0.4794 -0.6260  0.0788
  281MOL0     C38682   3.732   8.111   6.104 -0.0247  0.1661 -0.0028
  281MOL0     C38683   3.611   8.175   6.164 -0.0919 -0.1279 -0.5148
  281MOL0     C38684   3.633   8.260   6.287  0.4498 -0.8191 -0.7074
  281MOL0    Cl38685   3.478   8.342   6.325 -0.0284  0.1782  0.3014
  281MOL0     C38686   4.541   8.414   5.782 -0.0123 -0.1097 -0.0153
  281MOL0     C38687   4.662   8.476   5.764 -0.9302 -0.4964 -0.2923
  281MOL0     O38688   4.885   8.465   6.001 -0.5199 -0.1632 -0.1427
  281MOL0     C38689   5.112   8.633   5.791 -0.1872  0.2399  0.8795
  281MOL0     C38690   5.242   8.696   5.779  0.1780  0.3747  0.2803
  281MOL0     N38691   5.890   8.538   5.932  0.8669  0.1038 -0.0361
  281MOL0     N38692   5.845   8.420   5.943  0.5593 -0.3050  0.4739
  281MOL0     C38693   4.580   8.073   6.404 -0.1847  0.3241 -0.0239
  281MOL0     C38694   4.458   8.121   6.445  1.1565  0.2718  0.0851
  281MOL0     C38695   4.151   8.401   6.579 -0.7138  1.7703 -0.5410
  281MOL0     C38696   4.033   8.384   6.496 -0.3783 -0.0278  0.1187
  281MOL0     C38697   3.900   8.418   6.541 -0.7963 -0.1917  0.1922
  281MOL0     C38698   3.888   8.501   6.656  0.3489  0.2584  0.3474
  281MOL0     O38699   3.768   8.539   6.706  0.5581  0.1520 -0.4009
  281MOL0     C38700   3.649   8.481   6.658 -0.6787 -0.4097  0.6833
  281MOL0     C38701   3.532   8.518   6.745 -0.5597 -0.3224  0.0196
  281MOL0     C38702   3.509   8.671   6.749 -0.0483  0.3514  0.4037
  281MOL0     C38703   3.596   8.746   6.852  0.3463  1.2806 -0.7249
  281MOL0     C38704   3.547   8.881   6.865  1.0761  0.0308 -0.1486
  281MOL0     C38705   3.507   8.990   6.891 -0.0971  1.4157 -1.3070
  281MOL0     C38706   4.003   8.536   6.733  0.2320  0.1840  0.3315
  281MOL0     C38707   4.135   8.493   6.691 -0.4258  0.1455  0.6753
  281MOL0     C38708   4.253   8.544   6.778  0.3602 -0.6359 -0.6842
  281MOL0     H38709   4.373   8.310   6.185 -3.4044 -1.5010  1.3275
  281MOL0     H38710   4.601   8.210   6.102 -0.1635 -2.1516 -0.3266
  281MOL0     H38711   4.818   8.169   6.091 -1.9283  1.1282  2.8689
  281MOL0     H38712   4.750   8.012   6.060  0.6333  1.1334 -1.6822
  281MOL0     H38713   4.958   7.917   6.116  1.9831 -0.8795  0.4530
  281MOL0     H38714   4.996   8.053   6.004 -2.5728  1.1459  0.2748
  281MOL0     H38715   5.047   8.179   6.233  0.4731 -0.7448 -0.3017
  281MOL0     H38716   5.064   8.013   6.287  2.1816  1.6114  2.1097
  281MOL0     H38717   5.282   8.016   6.210  1.4658  0.5309 -0.9415
  281MOL0     H38718   5.218   8.006   6.056 -0.5391  0.2658  0.5548
  281MOL0     H38719   5.290   8.253   6.216 -0.2164 -0.5127  0.2528
  281MOL0     H38720   5.196   8.266   6.068  1.8127  0.6282 -1.0790
  281MOL0     H38721   5.468   8.122   6.078  0.4060  0.2867 -0.6629
  281MOL0     H38722   5.389   8.174   5.933 -1.7436 -2.3135  0.9892
  281MOL0     H38723   5.501   8.353   6.154  1.3646 -1.8537 -0.6200
  281MOL0     H38724   5.433   8.412   6.002 -1.1116  0.1893 -0.3773
  281MOL0     H38725   5.670   8.222   6.035  2.9456  1.2801 -0.4646
  281MOL0     H38726   5.605   8.264   5.877  0.6240  3.0842 -1.8616
  281MOL0     H38727   5.570   8.596   5.965 -0.7672  0.1681 -1.1339
  281MOL0     H38728   5.899   8.778   5.988  0.5026 -5.2245  2.2093
  281MOL0     H38729   5.754   8.804   6.088 -1.1713  0.1994 -0.5874
  281MOL0     H38730   5.816   8.914   5.832  1.2752 -3.2504 -0.7315
  281MOL0     H38731   5.708   8.786   5.789  0.0484  1.9571 -1.0193
  281MOL0     H38732   5.647   9.004   5.990 -0.9801 -0.5293  0.6108
  281MOL0     H38733   5.595   9.011   5.822  3.1884  1.6810  0.0163
  281MOL0     H38734   5.517   8.831   6.064  0.3966 -0.7765 -0.2327
  281MOL0     H38735   5.419   8.949   5.957  1.3821  0.5464 -2.6250
  281MOL0     H38736   5.324   8.692   6.108 -0.5288  1.1682  0.1763
  281MOL0     H38737   5.216   8.536   6.210  0.5941  0.4311 -1.1456
  281MOL0     H38738   5.085   8.440   6.144 -0.1569  0.6978 -2.4818
  281MOL0     H38739   5.061   8.605   6.200 -1.3823  0.0100 -2.4361
  281MOL0     H38740   4.858   8.205   5.775  0.5571  0.8107  0.7728
  281MOL0     H38741   4.631   8.094   5.808  1.8215 -0.3767 -1.4784
  281MOL0     H38742   4.299   8.339   5.943 -1.5646  0.3061 -0.1249
  281MOL0     H38743   4.276   8.373   5.781 -0.8148 -1.8791 -2.1631
  281MOL0     H38744   4.107   8.206   5.753 -2.8505 -1.6173  1.7208
  281MOL0     H38745   4.180   8.088   5.853  0.7073 -0.1502  1.0110
  281MOL0     H38746   4.033   8.336   5.950 -1.4301 -0.1792  1.4790
  281MOL0     H38747   4.148   8.257   6.055  1.4412  1.0555 -0.3456
  281MOL0     H38748   3.989   8.063   6.063 -1.0908  0.1427  0.6297
  281MOL0     H38749   3.922   8.100   5.904 -2.6655 -1.1863  1.8046
  281MOL0     H38750   3.892   8.253   6.163  0.6008 -1.4633 -0.1367
  281MOL0     H38751   3.801   8.299   6.019  0.3455  0.4940  1.1347
  281MOL0     H38752   3.778   8.045   6.178  4.9722  1.6857 -1.3293
  281MOL0     H38753   3.704   8.056   6.013 -4.7278  2.5778 -0.3350
  281MOL0     H38754   3.539   8.096   6.183 -3.1642  2.8459  1.4152
  281MOL0     H38755   3.565   8.232   6.083  0.0248 -3.0932 -2.8156
  281MOL0     H38756   3.706   8.339   6.267 -0.5220  0.2058 -0.3199
  281MOL0     H38757   3.670   8.199   6.370  1.0924 -1.0893 -1.1863
  281MOL0     H38758   4.462   8.485   5.804 -0.5914  0.0299 -2.2718
  281MOL0     H38759   4.684   8.582   5.761  0.6337 -0.7831 -0.2432
  281MOL0     H38760   5.065   8.618   5.695  2.8197  2.0706 -1.0406
  281MOL0     H38761   5.270   8.732   5.681 -1.8400  2.5247  0.4216
  281MOL0     H38762   4.639   8.019   6.477 -2.5889 -2.6864 -0.1005
  281MOL0     H38763   4.434   8.098   6.548  1.5688 -0.1820  0.0833
  281MOL0     H38764   4.037   8.319   6.409 -2.3918  2.4905 -1.9999
  281MOL0     H38765   3.814   8.389   6.483  1.7071 -1.5912 -3.1701
  281MOL0     H38766   3.645   8.516   6.554 -0.6107 -3.2799 -0.3586
  281MOL0     H38767   3.671   8.374   6.654  0.8688 -0.1178  0.6649
  281MOL0     H38768   3.564   8.482   6.844  3.3621  3.5810  0.4796
  281MOL0     H38769   3.444   8.469   6.703 -1.6761  1.0073  0.7234
  281MOL0     H38770   3.535   8.708   6.649  1.7093  2.4581  1.5704
  281MOL0     H38771   3.402   8.691   6.758 -0.0927  0.1484  0.3519
  281MOL0     H38772   3.696   8.740   6.809  0.2227  0.0659 -0.8756
  281MOL0     H38773   3.582   8.696   6.948 -0.9284  0.7372 -1.1763
  281MOL0     H38774   3.487   9.091   6.921 -1.0090  1.2550 -1.3443
  281MOL0     H38775   4.008   8.604   6.817  2.1533  2.9436 -1.8323
  281MOL0     H38776   4.218   8.620   6.848 -2.0723 -0.7627 -1.6497
  281MOL0     H38777   4.310   8.477   6.843  2.0512 -0.2568 -1.7306
  281MOL0     H38778   4.330   8.590   6.716 -0.7933  0.8106 -1.1095
  282MOL0     O38779  10.613   0.750   1.406  0.3609 -0.1930  0.3500
  282MOL0     C38780  10.495   0.721   1.387  0.0110  0.3851 -0.7875
  282MOL0     O38781  10.396   0.812   1.340  0.2531 -0.0480  1.0973
  282MOL0     C38782  10.419   0.950   1.311 -0.8694  1.2642 -0.6857
  282MOL0     C38783  10.535   1.020   1.349  0.2456  1.4046 -0.1628
  282MOL0     C38784  10.551   1.154   1.314 -0.1985  0.5399 -0.1050
  282MOL0     C38785  10.460   1.224   1.244  0.8729  0.7085 -0.4265
  282MOL0     O38786  10.493   1.352   1.221 -0.2243 -0.4496 -0.5535
  282MOL0     C38787  10.445   1.413   1.101  0.1605  0.1570 -0.0664
  282MOL0     C38788  10.433   1.565   1.115  1.4965  0.4693  0.3363
  282MOL0     C38789  10.561   1.634   1.168 -0.0916 -1.0767  0.7243
  282MOL0     C38790  10.678   1.645   1.057  0.5598 -0.2121 -0.8705
  282MOL0     C38791  10.795   1.708   1.130  1.0420  0.6748  0.1001
  282MOL0     C38792  10.879   1.801   1.035 -0.6857  0.2196 -0.5287
  282MOL0     C38793  10.964   1.736   0.928 -0.2011 -0.7194  0.0951
  282MOL0     C38794  11.096   1.667   0.986 -0.8878  0.6657 -0.0607
  282MOL0     N38795  11.197   1.777   1.004  0.2587  0.2997  0.0183
  282MOL0     C38796  11.263   1.846   0.905  0.8785  0.1218  0.6148
  282MOL0     C38797  11.337   1.938   0.976  1.2741  0.7570  0.6079
  282MOL0     C38798  11.407   2.056   0.923 -0.4243 -0.6319  0.3847
  282MOL0     C38799  11.555   2.020   0.897  0.1725  0.3579  0.1716
  282MOL0     C38800  11.583   1.965   0.755 -0.1846 -0.2250 -0.5598
  282MOL0     C38801  11.730   1.939   0.737 -0.0521  0.0424  0.0390
  282MOL0     O38802  11.749   1.839   0.634  0.4106  0.7954 -0.0057
  282MOL0     C38803  11.879   1.826   0.598  0.4219 -0.3419  0.8843
  282MOL0     C38804  11.995   1.907   0.646  0.8574  0.1696  0.0113
  282MOL0     C38805  12.127   1.868   0.624  0.0921 -0.0721 -0.5250
  282MOL0     C38806  12.238   1.951   0.689 -0.3485  0.0940 -0.3178
  282MOL0     C38807  12.149   1.752   0.544  0.3566  0.5693 -0.8058
  282MOL0     C38808  12.279   1.704   0.510  0.2139 -1.0209  0.0283
  282MOL0     O38809  12.291   1.669   0.383  0.4979 -0.8675  0.7732
  282MOL0     C38810  12.419   1.627   0.341  0.0944  0.7746  0.0814
  282MOL0     C38811  12.490   1.515   0.400  0.1920  0.1357  0.8970
  282MOL0     C38812  12.615   1.479   0.360  0.7511 -0.7454  1.0891
  282MOL0     C38813  12.685   1.552   0.256  0.3661  0.2920 -0.5290
  282MOL0     O38814  12.799   1.500   0.220 -0.6308 -0.4926  0.4839
  282MOL0     C38815  12.879   1.560   0.122 -1.2442 -0.4267 -0.9816
  282MOL0     C38816  12.940   1.692   0.176  0.1060 -0.1872  0.0829
  282MOL0     C38817  13.006   1.776   0.067 -0.2747 -0.2236 -0.0964
  282MOL0     C38818  13.138   1.843   0.111 -0.7338 -0.3386  0.2308
  282MOL0     C38819  13.177   1.958   0.008  0.0644  0.7606 -0.3534
  282MOL0     C38820  13.095   2.091   0.029  0.5362 -0.3044 -0.0879
  282MOL0     C38821  13.117   2.208  -0.073  0.2865 -0.9054  0.2596
  282MOL0     C38822  13.263   2.235  -0.104 -0.2687  0.4020  0.6024
  282MOL0    Cl38823  13.281   2.365  -0.222  0.0948  0.1368  0.0107
  282MOL0     C38824  12.621   1.663   0.197  0.7301  0.4757  0.0738
  282MOL0     C38825  12.493   1.699   0.248  0.1265  0.1912 -0.0745
  282MOL0     O38826  12.366   1.695   0.597 -0.1684  0.4250  0.9850
  282MOL0     C38827  12.036   1.691   0.492 -0.0649  0.3607 -0.0826
  282MOL0     C38828  11.910   1.720   0.515  0.5885  0.2054  0.4060
  282MOL0     N38829  11.315   1.915   1.111 -0.6220 -0.4640 -0.3798
  282MOL0     N38830  11.239   1.812   1.128  0.4384 -0.2792  0.5932
  282MOL0     C38831  10.348   1.148   1.191  0.7955  0.2468 -0.7438
  282MOL0     C38832  10.332   1.013   1.235 -0.8028  0.5753  1.4787
  282MOL0     C38833  10.447   0.581   1.417  0.2208  0.3114 -0.0838
  282MOL0     C38834  10.321   0.535   1.375 -0.3880  0.0773  0.6399
  282MOL0     C38835  10.272   0.416   1.410 -0.1258  0.6474  0.7241
  282MOL0     C38836  10.340   0.334   1.493 -0.4982 -0.4313 -1.2051
  282MOL0     O38837  10.293   0.211   1.543  0.3476  0.0861 -0.1369
  282MOL0     C38838  10.194   0.208   1.647  0.3060  0.1453  0.4200
  282MOL0     C38839  10.105   0.085   1.639 -0.4246 -0.8883  0.6612
  282MOL0     C38840  10.174  -0.057   1.617 -0.4244 -1.0077 -0.4107
  282MOL0     C38841  10.148  -0.141   1.734 -0.2899 -0.2857 -0.4248
  282MOL0     C38842  10.207  -0.270   1.716 -0.2835  0.9630  0.1175
  282MOL0     C38843  10.268  -0.374   1.725  0.8744 -0.6535  0.0982
  282MOL0     C38844  10.456   0.375   1.550 -0.4448  1.4724 -0.3371
  282MOL0     C38845  10.512   0.494   1.511  0.3732  0.0994 -0.0077
  282MOL0     C38846  10.630   0.539   1.599  0.0886 -0.1122 -0.3257
  282MOL0     H38847  10.611   0.989   1.420  0.5995  3.2059  0.3008
  282MOL0     H38848  10.639   1.201   1.357  1.5392 -1.0442 -1.7415
  282MOL0     H38849  10.343   1.380   1.079  0.5113 -0.7845 -0.3403
  282MOL0     H38850  10.499   1.385   1.011 -0.7903  3.6463 -1.8954
  282MOL0     H38851  10.406   1.606   1.017  1.7674 -0.0763  0.0284
  282MOL0     H38852  10.352   1.588   1.185  0.8499  3.5673 -1.2471
  282MOL0     H38853  10.536   1.731   1.211  0.3692 -1.6947  2.4814
  282MOL0     H38854  10.594   1.567   1.249  0.6304  1.0214  2.2363
  282MOL0     H38855  10.707   1.545   1.022 -0.1099 -0.0613 -1.8950
  282MOL0     H38856  10.662   1.705   0.967  0.7757 -2.4095 -2.4729
  282MOL0     H38857  10.856   1.630   1.175  2.1532  1.4236 -0.0609
  282MOL0     H38858  10.769   1.769   1.217 -0.5548 -1.9820  1.6104
  282MOL0     H38859  10.809   1.871   0.989 -0.2578 -0.0425 -1.6054
  282MOL0     H38860  10.941   1.872   1.092 -2.7423  1.1322  0.6883
  282MOL0     H38861  10.982   1.804   0.844  1.2178 -0.7139  0.3793
  282MOL0     H38862  10.896   1.662   0.885  1.2521 -0.6971 -2.4339
  282MOL0     H38863  11.088   1.600   1.073  0.6363 -0.5418 -0.8014
  282MOL0     H38864  11.129   1.595   0.910  0.6119  2.1999 -0.9208
  282MOL0     H38865  11.256   1.839   0.796  0.7708 -0.2090  0.6413
  282MOL0     H38866  11.413   2.130   1.004 -0.7937 -0.6450  0.4272
  282MOL0     H38867  11.364   2.103   0.834  1.0333  2.0977  1.0251
  282MOL0     H38868  11.622   2.107   0.899  2.1043 -0.9114 -2.6211
  282MOL0     H38869  11.580   1.940   0.968 -2.8215 -4.3727 -3.5142
  282MOL0     H38870  11.535   1.868   0.740  1.2678 -1.2628  1.1497
  282MOL0     H38871  11.559   2.037   0.676  0.8738  2.3478  1.3214
  282MOL0     H38872  11.777   2.037   0.724  0.2024  0.1534  1.5977
  282MOL0     H38873  11.770   1.898   0.830  0.4176  1.0207  0.2739
  282MOL0     H38874  11.969   2.000   0.695 -0.6224  0.1544 -0.6985
  282MOL0     H38875  12.252   1.920   0.793 -0.2621  0.5133 -0.2026
  282MOL0     H38876  12.202   2.054   0.691 -2.9156 -0.7449  1.5374
  282MOL0     H38877  12.327   1.937   0.626 -0.8427 -0.4161 -0.9215
  282MOL0     H38878  12.446   1.470   0.488  1.2932  2.1207  2.5542
  282MOL0     H38879  12.659   1.386   0.396 -1.2302 -1.7680  1.0269
  282MOL0     H38880  12.967   1.496   0.114  0.5171  1.9233 -1.8517
  282MOL0     H38881  12.819   1.582   0.033 -0.9124 -1.6992 -1.5329
  282MOL0     H38882  12.867   1.752   0.230  0.1071  1.4956 -1.6741
  282MOL0     H38883  13.017   1.670   0.251 -1.6261 -0.7842  1.7788
  282MOL0     H38884  12.926   1.842   0.034 -2.4118 -2.0800  1.0092
  282MOL0     H38885  13.031   1.712  -0.018 -0.0013 -0.5126  0.1961
  282MOL0     H38886  13.215   1.765   0.115  0.0063  0.4199  1.3754
  282MOL0     H38887  13.127   1.888   0.210  1.3985 -0.5451  0.6045
  282MOL0     H38888  13.283   1.980   0.021  0.6560 -2.1168  0.2689
  282MOL0     H38889  13.164   1.920  -0.094 -2.8436 -2.2877  0.9548
  282MOL0     H38890  13.117   2.128   0.129  1.0696  0.3005 -0.4214
  282MOL0     H38891  12.989   2.070   0.015 -0.2862  0.9474  3.2814
  282MOL0     H38892  13.063   2.296  -0.037 -2.7359 -2.6885  0.4453
  282MOL0     H38893  13.082   2.179  -0.172 -1.7937 -0.2304  0.7460
  282MOL0     H38894  13.306   2.142  -0.141 -0.1598 -0.4998  2.8315
  282MOL0     H38895  13.319   2.264  -0.015  3.1291  1.8724 -1.8070
  282MOL0     H38896  12.656   1.735   0.124 -0.2567  1.2122  0.3117
  282MOL0     H38897  12.442   1.780   0.195  2.4251  2.3763  0.8462
  282MOL0     H38898  12.056   1.599   0.436 -1.5506  2.3787 -4.3879
  282MOL0     H38899  11.826   1.666   0.472  1.0087  1.8667 -2.7532
  282MOL0     H38900  10.269   1.194   1.133 -0.4858 -0.1520  0.6352
  282MOL0     H38901  10.238   0.963   1.213 -0.9935  2.0851 -1.6701
  282MOL0     H38902  10.256   0.603   1.320  0.7976  1.4216  0.8601
  282MOL0     H38903  10.171   0.384   1.387  1.5420 -4.1087 -1.3481
  282MOL0     H38904  10.239   0.195   1.746  0.6936 -5.4932 -0.1668
  282MOL0     H38905  10.126   0.293   1.638 -0.8364 -0.4931  2.4886
  282MOL0     H38906  10.037   0.103   1.555 -1.0071  3.8636  1.8847
  282MOL0     H38907  10.046   0.087   1.731 -0.4391  2.8713  0.7289
  282MOL0     H38908  10.135  -0.102   1.525 -0.4876 -1.5863 -0.1094
  282MOL0     H38909  10.282  -0.045   1.618 -0.4251  0.0132  3.7998
  282MOL0     H38910  10.040  -0.161   1.740 -0.8135  1.4942 -2.7177
  282MOL0     H38911  10.173  -0.088   1.827 -5.6095 -2.8582  3.0323
  282MOL0     H38912  10.342  -0.449   1.744  1.5905  0.7666  3.7835
  282MOL0     H38913  10.502   0.301   1.615 -0.7379  0.1097 -1.6166
  282MOL0     H38914  10.719   0.580   1.551 -0.2790  3.0977  1.4651
  282MOL0     H38915  10.599   0.615   1.671 -2.2640 -4.1477  3.4486
  282MOL0     H38916  10.671   0.452   1.650  0.7063 -0.4912 -1.4287
  283MOL0     O38917   1.091   8.340   3.110  0.0512 -0.4177 -0.1836
  283MOL0     C38918   1.100   8.358   3.231 -0.6179 -1.2478  0.3391
  283MOL0     O38919   1.160   8.466   3.290  0.7537 -0.0509  0.0612
  283MOL0     C38920   1.246   8.543   3.215 -0.9608 -0.2573 -0.2462
  283MOL0     C38921   1.193   8.623   3.115  0.3700 -0.9254 -0.1389
  283MOL0     C38922   1.275   8.699   3.042 -0.5830 -0.1997  0.1296
  283MOL0     C38923   1.419   8.706   3.055 -0.3217 -1.0832 -0.5681
  283MOL0     O38924   1.492   8.793   2.977 -0.0392  0.6161 -0.2940
  283MOL0     C38925   1.632   8.759   2.940 -0.5489 -0.0015 -0.4212
  283MOL0     C38926   1.672   8.821   2.812  0.1399  0.0285  0.0592
  283MOL0     C38927   1.669   8.972   2.815 -0.0975 -0.4038  0.0226
  283MOL0     C38928   1.799   9.017   2.882  0.1344  0.7372  0.3330
  283MOL0     C38929   1.815   9.159   2.920 -0.9926  0.1011  0.5582
  283MOL0     C38930   1.953   9.201   3.000 -0.6014  0.5479  0.1234
  283MOL0     C38931   2.083   9.144   2.935  0.4515 -0.5435  0.2046
  283MOL0     C38932   2.210   9.231   2.974 -0.7802 -0.4891  0.2171
  283MOL0     N38933   2.311   9.237   2.867 -0.2639  0.0673 -0.1119
  283MOL0     C38934   2.437   9.184   2.877  0.2750  0.2899 -0.8076
  283MOL0     C38935   2.502   9.248   2.776 -0.1105 -0.5051  0.2837
  283MOL0     C38936   2.632   9.202   2.749 -0.4110 -0.8263 -0.0966
  283MOL0     C38937   2.629   9.085   2.637  0.0924 -0.0906 -0.2272
  283MOL0     C38938   2.537   9.103   2.507  0.8427  0.6396  0.9175
  283MOL0     C38939   2.574   9.212   2.417 -0.6890 -0.3121  0.7199
  283MOL0     O38940   2.495   9.202   2.294  0.1889  0.4736 -0.3940
  283MOL0     C38941   2.413   9.307   2.267  0.3368 -0.4863  0.1042
  283MOL0     C38942   2.422   9.388   2.152 -0.0045 -0.3877  0.4107
  283MOL0     C38943   2.340   9.498   2.122 -0.2335 -0.4380 -0.7694
  283MOL0     C38944   2.365   9.584   1.998  0.3182  0.1828  0.4342
  283MOL0     C38945   2.242   9.536   2.223  0.7297  0.4952 -0.6394
  283MOL0     C38946   2.143   9.652   2.201 -1.3368 -0.0602  0.3150
  283MOL0     O38947   2.037   9.653   2.279  0.9661  0.6724  1.1356
  283MOL0     C38948   1.948   9.758   2.235  0.3633  0.3025 -0.7658
  283MOL0     C38949   1.986   9.897   2.258  0.5761  0.1550 -0.3491
  283MOL0     C38950   1.889   9.994   2.240  0.2901 -0.1488 -0.1155
  283MOL0     C38951   1.765   9.959   2.191  0.6064  0.8611  0.3617
  283MOL0     O38952   1.668  10.055   2.168  0.1464  0.0432  0.0552
  283MOL0     C38953   1.708  10.161   2.083 -0.9161 -0.4969 -0.0190
  283MOL0     C38954   1.588  10.251   2.044  0.2507  0.4998  0.3340
  283MOL0     C38955   1.622  10.321   1.921 -0.5931  0.4436  0.4634
  283MOL0     C38956   1.492  10.362   1.849 -0.1707  0.0467 -0.2284
  283MOL0     C38957   1.518  10.457   1.730 -0.2493 -0.3618 -0.0750
  283MOL0     C38958   1.376  10.508   1.688 -0.2264  0.6035  0.5532
  283MOL0     C38959   1.310  10.408   1.587  0.8845  0.2680  0.6230
  283MOL0     C38960   1.189  10.487   1.521  0.3349 -0.1244  1.1505
  283MOL0    Cl38961   1.121  10.385   1.388  0.1060  0.1213 -0.6265
  283MOL0     C38962   1.728   9.824   2.169  0.0945 -0.5836  0.4742
  283MOL0     C38963   1.819   9.721   2.194  0.0586 -0.1518 -0.9659
  283MOL0     O38964   2.169   9.742   2.120 -0.5857  0.3093 -0.0488
  283MOL0     C38965   2.228   9.460   2.331 -0.1927  0.2324 -1.1496
  283MOL0     C38966   2.317   9.355   2.357  0.7179 -0.1343  0.2251
  283MOL0     N38967   2.417   9.334   2.710 -0.3560  0.3789  0.0961
  283MOL0     N38968   2.298   9.326   2.762 -0.2646 -0.0142  0.1887
  283MOL0     C38969   1.465   8.627   3.156  0.0402 -0.1236  0.3821
  283MOL0     C38970   1.385   8.545   3.237  0.1440 -0.7827 -0.7128
  283MOL0     C38971   1.028   8.271   3.325 -0.2958 -0.3074 -0.3095
  283MOL0     C38972   1.065   8.283   3.464 -0.2046 -0.3993  0.1051
  283MOL0     C38973   1.013   8.197   3.560 -0.5414 -0.1163  0.0759
  283MOL0     C38974   0.906   8.117   3.529  0.7418  0.8663  0.4536
  283MOL0     O38975   0.815   8.053   3.614  0.0474 -0.1172  0.2621
  283MOL0     C38976   0.859   8.043   3.747 -0.5706  0.5855  0.7403
  283MOL0     C38977   0.747   7.995   3.844  0.0855  0.2681 -0.4097
  283MOL0     C38978   0.694   7.850   3.792 -0.9566  0.1660 -0.2220
  283MOL0     C38979   0.567   7.806   3.856  0.1066 -1.3629 -0.3365
  283MOL0     C38980   0.458   7.900   3.807 -0.3489 -0.4407 -0.4544
  283MOL0     C38981   0.368   7.964   3.768  0.0341 -0.3810 -0.6996
  283MOL0     C38982   0.869   8.104   3.395  0.3015  0.4380 -0.0942
  283MOL0     C38983   0.925   8.173   3.294 -0.7951 -0.2004  0.9774
  283MOL0     C38984   0.857   8.173   3.155 -0.1165  0.8564 -0.5070
  283MOL0     H38985   1.087   8.621   3.094  0.0848 -0.3640  1.1259
  283MOL0     H38986   1.229   8.768   2.972 -2.0369 -0.4935  0.7655
  283MOL0     H38987   1.635   8.650   2.929 -2.7191  0.1011 -3.0025
  283MOL0     H38988   1.694   8.788   3.026  0.4712 -1.2059 -0.7334
  283MOL0     H38989   1.766   8.778   2.776  0.0996  0.0801 -0.1076
  283MOL0     H38990   1.590   8.792   2.745 -0.7048  0.5847  0.8211
  283MOL0     H38991   1.677   9.005   2.711 -0.9215  0.1247  0.1124
  283MOL0     H38992   1.576   8.994   2.869 -1.7974 -3.4389 -1.4557
  283MOL0     H38993   1.818   8.964   2.976  2.1800  0.4505 -0.1954
  283MOL0     H38994   1.889   8.976   2.837 -0.6484 -5.2022  3.2058
  283MOL0     H38995   1.731   9.175   2.988 -1.0793 -0.0643  0.4907
  283MOL0     H38996   1.818   9.232   2.838 -1.7747 -1.2149 -0.6932
  283MOL0     H38997   1.955   9.310   3.000  1.0928  0.5580  1.0863
  283MOL0     H38998   1.950   9.171   3.106 -1.2960 -1.7161 -0.4765
  283MOL0     H38999   2.069   9.145   2.827  0.5788 -2.3796  0.1409
  283MOL0     H39000   2.091   9.044   2.980  0.9719  0.3065  2.1041
  283MOL0     H39001   2.188   9.338   2.986  3.8104  0.9582 -1.9713
  283MOL0     H39002   2.245   9.176   3.061 -0.1388 -2.1255 -1.0195
  283MOL0     H39003   2.486   9.108   2.936  1.3528  0.4654 -1.4375
  283MOL0     H39004   2.687   9.169   2.838 -0.6032 -1.6519 -0.2811
  283MOL0     H39005   2.693   9.282   2.706 -0.6613 -0.3635  0.3970
  283MOL0     H39006   2.733   9.078   2.602  0.6647 -1.2218  1.5347
  283MOL0     H39007   2.607   8.997   2.698  1.9254 -0.3584  0.1081
  283MOL0     H39008   2.548   9.017   2.440  1.5499  0.3360  1.4089
  283MOL0     H39009   2.434   9.124   2.534 -0.7578  0.2471 -3.8976
  283MOL0     H39010   2.550   9.304   2.471 -0.4888 -1.1883  2.3654
  283MOL0     H39011   2.679   9.212   2.386 -1.0792  3.5148 -1.1440
  283MOL0     H39012   2.488   9.363   2.070 -1.2762  0.0595 -0.7848
  283MOL0     H39013   2.460   9.546   1.960 -0.2565 -0.7947 -0.0612
  283MOL0     H39014   2.376   9.692   2.015  0.6729 -0.2194  3.1900
  283MOL0     H39015   2.293   9.569   1.918  2.1066  3.8844 -2.1840
  283MOL0     H39016   2.085   9.919   2.297  0.5885 -1.6685  0.7843
  283MOL0     H39017   1.892  10.099   2.269  1.8098 -0.3912  0.7515
  283MOL0     H39018   1.792  10.218   2.125 -0.4464 -2.5176  2.0490
  283MOL0     H39019   1.752  10.105   2.000  0.4315  0.5232 -0.0229
  283MOL0     H39020   1.502  10.187   2.025 -0.1716  1.3534 -0.7665
  283MOL0     H39021   1.560  10.320   2.124 -0.5279 -0.4574  0.9031
  283MOL0     H39022   1.669  10.257   1.845  1.4202 -1.3919  3.0776
  283MOL0     H39023   1.693  10.404   1.931 -2.1376  2.0600 -1.1585
  283MOL0     H39024   1.436  10.417   1.925 -0.4067  0.1751 -0.4935
  283MOL0     H39025   1.442  10.268   1.820  0.8605  0.0151 -2.0467
  283MOL0     H39026   1.576  10.542   1.768 -3.3607  1.4443  1.0016
  283MOL0     H39027   1.581  10.403   1.659 -0.1643 -0.3305 -0.0255
  283MOL0     H39028   1.391  10.602   1.634 -2.5970  1.4900  1.3419
  283MOL0     H39029   1.303  10.539   1.764 -3.3948 -0.6341 -1.7456
  283MOL0     H39030   1.280  10.316   1.637 -1.5460  0.4259 -0.4181
  283MOL0     H39031   1.380  10.375   1.510 -0.6805  0.1842 -0.8213
  283MOL0     H39032   1.223  10.579   1.472 -1.8181  0.6904  1.0772
  283MOL0     H39033   1.110  10.514   1.591 -1.4468  0.3381 -0.9481
  283MOL0     H39034   1.627   9.811   2.131  1.0494  2.1656 -3.6939
  283MOL0     H39035   1.785   9.621   2.167 -1.4541  0.5949 -1.9368
  283MOL0     H39036   2.148   9.477   2.402  1.8060  0.0690  1.2679
  283MOL0     H39037   2.290   9.303   2.448 -0.9010 -1.0603 -0.7322
  283MOL0     H39038   1.573   8.618   3.163  0.2300  1.2977 -0.4932
  283MOL0     H39039   1.435   8.485   3.312 -2.7409 -1.2482  1.0083
  283MOL0     H39040   1.155   8.340   3.483 -1.0863  0.9168  0.3872
  283MOL0     H39041   1.050   8.214   3.661 -0.3182 -2.4425  0.4328
  283MOL0     H39042   0.937   7.970   3.768 -1.7705 -0.8440  0.3985
  283MOL0     H39043   0.892   8.140   3.785  0.0189  1.1979 -1.2145
  283MOL0     H39044   0.666   8.065   3.862 -0.1667 -0.9407  4.7009
  283MOL0     H39045   0.786   7.969   3.943  1.5731  1.0683 -0.7589
  283MOL0     H39046   0.684   7.836   3.684  1.1991  2.1423 -0.7593
  283MOL0     H39047   0.768   7.777   3.825 -1.5251 -0.1014  0.5041
  283MOL0     H39048   0.584   7.815   3.964  3.1720 -2.1503 -0.6719
  283MOL0     H39049   0.534   7.704   3.831  0.0866 -0.7220 -3.1435
  283MOL0     H39050   0.286   8.026   3.738 -0.6589 -1.6523 -1.4854
  283MOL0     H39051   0.776   8.055   3.366  0.3874  0.6699 -0.7703
  283MOL0     H39052   0.933   8.174   3.076  0.5206  1.0646  0.1053
  283MOL0     H39053   0.797   8.082   3.151  1.7976 -0.4316 -1.1077
  283MOL0     H39054   0.798   8.263   3.133 -0.4917  1.0853  1.2723
  284MOL0     O39055   1.724   8.205   2.694  0.4488 -0.1971 -0.4520
  284MOL0     C39056   1.657   8.295   2.754  0.4598 -0.0641  0.0900
  284MOL0     O39057   1.707   8.413   2.805 -0.6212 -0.3617 -1.0908
  284MOL0     C39058   1.835   8.450   2.781  1.2821 -0.3937  0.0502
  284MOL0     C39059   1.883   8.515   2.663  0.1378 -0.0109  0.0343
  284MOL0     C39060   2.016   8.556   2.656  0.1122 -0.0499  0.4199
  284MOL0     C39061   2.105   8.533   2.761  0.1838 -0.2034 -0.1474
  284MOL0     O39062   2.237   8.575   2.743  0.3047  0.8374 -0.1179
  284MOL0     C39063   2.335   8.490   2.803 -0.5011  0.5038 -0.0602
  284MOL0     C39064   2.478   8.514   2.752 -0.4055 -0.0838  0.0276
  284MOL0     C39065   2.543   8.649   2.787 -0.2413 -0.2295  0.6533
  284MOL0     C39066   2.583   8.657   2.940 -0.3285  0.5079 -0.2341
  284MOL0     C39067   2.634   8.796   2.966  0.2059  0.6850 -0.2237
  284MOL0     C39068   2.686   8.808   3.115  0.0239  1.2261 -1.2701
  284MOL0     C39069   2.776   8.935   3.135 -0.1685  0.1071 -0.6166
  284MOL0     C39070   2.772   8.989   3.281  0.3885 -0.0277 -0.4396
  284MOL0     N39071   2.824   9.128   3.277 -0.2159  1.3346  0.2710
  284MOL0     C39072   2.800   9.214   3.378 -0.1276 -0.3166  0.6791
  284MOL0     C39073   2.855   9.328   3.339 -0.0613  0.5495 -0.8283
  284MOL0     C39074   2.841   9.466   3.376 -0.5170 -0.0033 -0.1654
  284MOL0     C39075   2.958   9.533   3.464 -0.1232  0.2839  0.2001
  284MOL0     C39076   3.089   9.528   3.390  0.8711  0.1903 -0.1434
  284MOL0     C39077   3.185   9.616   3.465 -0.6932 -0.7877 -0.3770
  284MOL0     O39078   3.300   9.597   3.386  0.7068 -0.1149 -0.7704
  284MOL0     C39079   3.407   9.578   3.463 -0.4777  0.2731  0.1890
  284MOL0     C39080   3.462   9.450   3.455  0.0582  0.1941  1.0780
  284MOL0     C39081   3.579   9.420   3.532 -0.1547  0.1044  0.1201
  284MOL0     C39082   3.645   9.283   3.523 -0.5595 -1.2031  0.5473
  284MOL0     C39083   3.638   9.527   3.617  1.0292 -0.6145  1.0710
  284MOL0     C39084   3.758   9.510   3.701 -0.1269 -0.5507 -1.2889
  284MOL0     O39085   3.842   9.621   3.723  0.4951  0.2889  0.4230
  284MOL0     C39086   3.962   9.602   3.778 -0.8811 -0.9717 -0.2196
  284MOL0     C39087   4.033   9.482   3.780  0.3344  0.6196  0.7692
  284MOL0     C39088   4.168   9.490   3.816  0.7731 -0.6661 -0.3959
  284MOL0     C39089   4.225   9.611   3.874  0.3227 -0.8575 -0.6808
  284MOL0     O39090   4.351   9.608   3.913 -0.8093  0.1435  0.2401
  284MOL0     C39091   4.404   9.706   3.992 -0.1691 -1.0598 -0.0009
  284MOL0     C39092   4.552   9.687   4.007  0.1093  0.1162 -0.2574
  284MOL0     C39093   4.626   9.679   3.881 -0.4804  0.3748  0.4387
  284MOL0     C39094   4.771   9.697   3.896  0.2703  0.4598 -0.4335
  284MOL0     C39095   4.813   9.848   3.925  0.1724 -0.1134 -0.2004
  284MOL0     C39096   4.963   9.877   3.888  0.2198 -0.4009  0.1719
  284MOL0     C39097   4.996  10.020   3.939 -0.1162 -0.1844 -0.2811
  284MOL0     C39098   5.130  10.077   3.879  0.0514  0.0578 -0.7547
  284MOL0    Cl39099   5.173  10.211   3.973 -0.1217  0.4205 -0.1181
  284MOL0     C39100   4.145   9.727   3.885 -0.3775  0.4139 -0.3287
  284MOL0     C39101   4.017   9.717   3.829  0.3746  0.5137  0.0518
  284MOL0     O39102   3.763   9.407   3.769 -0.0337  0.7465  0.6857
  284MOL0     C39103   3.583   9.657   3.606 -0.3542 -0.5877  0.7651
  284MOL0     C39104   3.461   9.677   3.543  0.0686  0.6829  0.5075
  284MOL0     N39105   2.904   9.304   3.216 -0.0566 -0.1189  0.1563
  284MOL0     N39106   2.906   9.181   3.181  0.8373 -0.5341 -0.2813
  284MOL0     C39107   2.051   8.471   2.876 -0.8652 -0.0287  0.5457
  284MOL0     C39108   1.919   8.429   2.884 -0.1664 -0.0441  0.5085
  284MOL0     C39109   1.512   8.272   2.775  0.0589  0.2640 -0.2965
  284MOL0     C39110   1.444   8.390   2.838 -0.6152  0.2489 -0.2144
  284MOL0     C39111   1.305   8.393   2.852 -0.9875 -0.1674 -0.1657
  284MOL0     C39112   1.231   8.288   2.813  0.2033  0.1041  0.9096
  284MOL0     O39113   1.093   8.306   2.785 -0.6972 -0.0525  0.0623
  284MOL0     C39114   1.044   8.428   2.738  0.5413 -0.1698  0.1594
  284MOL0     C39115   0.904   8.399   2.685 -0.3245  1.1771  0.3871
  284MOL0     C39116   0.821   8.351   2.802 -0.3786  0.6496  0.7635
  284MOL0     C39117   0.676   8.305   2.770 -0.1382  0.0796 -0.4764
  284MOL0     C39118   0.676   8.194   2.679  0.2621 -0.8063 -0.2231
  284MOL0     C39119   0.673   8.108   2.595 -0.7386 -0.0142  0.2990
  284MOL0     C39120   1.290   8.173   2.758  1.0877 -0.5209 -0.4312
  284MOL0     C39121   1.426   8.162   2.733  0.3508 -0.1260 -0.3353
  284MOL0     C39122   1.476   8.040   2.659  0.2697 -0.9470 -0.2834
  284MOL0     H39123   1.808   8.552   2.594 -1.5808 -0.9971  1.2752
  284MOL0     H39124   2.047   8.607   2.566 -0.5386 -1.1802 -0.4780
  284MOL0     H39125   2.308   8.388   2.772  1.7237 -1.0445  2.6338
  284MOL0     H39126   2.329   8.498   2.912 -1.5136  1.0652 -0.1453
  284MOL0     H39127   2.548   8.436   2.784  0.2563 -0.0796 -1.3358
  284MOL0     H39128   2.478   8.517   2.643  0.1515  0.5114  0.0410
  284MOL0     H39129   2.628   8.658   2.719 -0.0213 -2.8384  0.5069
  284MOL0     H39130   2.478   8.730   2.752 -3.2828 -2.4097  0.8270
  284MOL0     H39131   2.494   8.635   3.001  0.4382  1.6710  1.3697
  284MOL0     H39132   2.661   8.586   2.968  1.0558  1.9767 -0.2357
  284MOL0     H39133   2.547   8.861   2.973  0.1231  0.4219  1.7515
  284MOL0     H39134   2.699   8.833   2.887 -0.8003  2.7854 -0.1293
  284MOL0     H39135   2.597   8.811   3.178 -0.5756  2.4927 -2.1486
  284MOL0     H39136   2.735   8.717   3.150 -4.3575 -0.5947  0.8896
  284MOL0     H39137   2.746   9.017   3.069  0.2466  0.6480 -0.1334
  284MOL0     H39138   2.878   8.905   3.110  0.7899  1.3907  1.5400
  284MOL0     H39139   2.678   8.966   3.331  0.9035 -1.3236 -0.0314
  284MOL0     H39140   2.838   8.939   3.353  0.9247  0.5177 -0.5397
  284MOL0     H39141   2.737   9.188   3.462 -0.4994  0.4680  0.6544
  284MOL0     H39142   2.748   9.460   3.433 -0.5604 -0.1266 -0.2481
  284MOL0     H39143   2.810   9.535   3.297 -0.8471  2.9052  2.3442
  284MOL0     H39144   2.931   9.632   3.503 -1.0999  0.1453 -0.0778
  284MOL0     H39145   2.982   9.474   3.553  1.3754  3.5409  2.0970
  284MOL0     H39146   3.120   9.423   3.387  2.5793  0.6637 -2.5851
  284MOL0     H39147   3.074   9.565   3.288  1.1947 -1.7763 -0.9391
  284MOL0     H39148   3.146   9.718   3.456 -0.5139 -0.7647 -0.8822
  284MOL0     H39149   3.198   9.591   3.571 -1.4580  2.1664  0.5273
  284MOL0     H39150   3.420   9.384   3.379  1.0995  2.2116 -1.3867
  284MOL0     H39151   3.753   9.279   3.541 -0.3125  1.6030  0.2005
  284MOL0     H39152   3.626   9.242   3.423 -0.4369  0.9936 -0.4492
  284MOL0     H39153   3.588   9.234   3.602 -1.8396 -0.3027  0.2136
  284MOL0     H39154   3.996   9.386   3.746 -2.0521  1.3469  1.1953
  284MOL0     H39155   4.225   9.398   3.818  2.4061  0.2474  2.6312
  284MOL0     H39156   4.392   9.806   3.950  1.1001 -1.5244 -1.5747
  284MOL0     H39157   4.352   9.705   4.089  0.5818  2.8348  0.6017
  284MOL0     H39158   4.597   9.764   4.069  0.0597  1.5570 -1.9445
  284MOL0     H39159   4.559   9.592   4.062  2.4137  0.4237  0.0802
  284MOL0     H39160   4.590   9.760   3.817 -0.6690  2.7329  3.3288
  284MOL0     H39161   4.602   9.589   3.823  0.5984  0.2755  0.1215
  284MOL0     H39162   4.830   9.671   3.807  0.2128  0.2861 -0.4205
  284MOL0     H39163   4.802   9.631   3.977 -0.5381 -0.0546 -0.5303
  284MOL0     H39164   4.756   9.909   3.855  1.2870  0.7827 -0.3528
  284MOL0     H39165   4.809   9.879   4.030  3.5228 -1.1003  0.3272
  284MOL0     H39166   4.982   9.865   3.781  0.3859 -0.9194  0.2530
  284MOL0     H39167   5.028   9.806   3.941 -1.6470  0.1004  3.4296
  284MOL0     H39168   5.007  10.006   4.047 -1.6140 -1.2174 -0.2300
  284MOL0     H39169   4.917  10.088   3.904  2.2730  1.5834 -2.6257
  284MOL0     H39170   5.115  10.110   3.776 -2.7438  0.5845 -0.2426
  284MOL0     H39171   5.204   9.997   3.892 -1.5451 -1.6691 -1.8449
  284MOL0     H39172   4.174   9.817   3.938  1.9514  0.8213 -2.1380
  284MOL0     H39173   3.949   9.801   3.836 -2.0530 -1.2599 -0.9279
  284MOL0     H39174   3.635   9.735   3.661 -0.6120 -0.0819  0.2999
  284MOL0     H39175   3.416   9.775   3.553  2.4580  1.6238  3.3568
  284MOL0     H39176   2.121   8.456   2.958  1.7633 -0.2896 -1.6090
  284MOL0     H39177   1.879   8.371   2.967 -0.0114 -1.9939 -0.7198
  284MOL0     H39178   1.491   8.476   2.883 -0.7019  1.3012 -2.0357
  284MOL0     H39179   1.261   8.480   2.899  1.3289  0.1042  1.7308
  284MOL0     H39180   1.030   8.495   2.823  0.7881 -1.7563  1.4922
  284MOL0     H39181   1.105   8.463   2.654  0.8224 -0.5050  0.2232
  284MOL0     H39182   0.905   8.329   2.602  0.9226 -0.5096  1.7469
  284MOL0     H39183   0.849   8.485   2.646 -0.3879  0.8320 -0.2866
  284MOL0     H39184   0.875   8.268   2.847  0.6907 -0.6091 -2.5454
  284MOL0     H39185   0.807   8.423   2.883  1.5777 -0.0233  1.7684
  284MOL0     H39186   0.623   8.386   2.719 -0.0962 -1.2731 -2.7947
  284MOL0     H39187   0.625   8.278   2.862 -0.9040 -1.2182 -1.2512
  284MOL0     H39188   0.682   8.040   2.514 -0.4810 -1.5872  1.6024
  284MOL0     H39189   1.228   8.099   2.709 -0.8603  1.0235 -0.4246
  284MOL0     H39190   1.392   7.971   2.647 -1.9234  1.1825  1.7474
  284MOL0     H39191   1.495   8.050   2.552  2.5974 -0.2704  0.1254
  284MOL0     H39192   1.560   8.003   2.719 -0.0058  1.5171  1.8039
  285MOL0     O39193  10.307   5.370   3.665  0.6312  0.0238 -0.4551
  285MOL0     C39194  10.299   5.368   3.542  0.4514  0.0526 -0.5673
  285MOL0     O39195  10.179   5.344   3.474 -0.1005 -0.3513 -0.5343
  285MOL0     C39196  10.079   5.264   3.527 -0.3449  0.6274  0.0249
  285MOL0     C39197   9.961   5.323   3.564  1.0856 -0.5568 -0.6998
  285MOL0     C39198   9.862   5.255   3.633  0.5438 -0.0232  0.7888
  285MOL0     C39199   9.870   5.123   3.653  0.9916 -0.3057 -0.0006
  285MOL0     O39200   9.764   5.054   3.708 -1.0030  0.6585  0.3234
  285MOL0     C39201   9.715   4.950   3.619  0.2888 -0.7650 -0.7343
  285MOL0     C39202   9.566   4.986   3.610  0.0899  0.1014 -0.8015
  285MOL0     C39203   9.477   4.888   3.528 -0.4286  0.1242 -0.0767
  285MOL0     C39204   9.525   4.858   3.386  0.2995  0.0089 -0.0942
  285MOL0     C39205   9.469   4.726   3.333 -0.2082 -0.0747  0.5906
  285MOL0     C39206   9.315   4.717   3.313  0.0635 -0.3761  0.5343
  285MOL0     C39207   9.256   4.788   3.190 -0.2404 -0.0774  1.3631
  285MOL0     C39208   9.104   4.778   3.163  0.5172  1.0630  0.1237
  285MOL0     N39209   9.027   4.828   3.276  0.1291  0.7227 -0.3512
  285MOL0     C39210   9.026   4.960   3.332  0.0273  0.7046 -0.0516
  285MOL0     C39211   8.966   4.945   3.450  0.5350  0.4327  0.8861
  285MOL0     C39212   8.935   5.044   3.560  1.1249 -1.3424 -0.5709
  285MOL0     C39213   9.048   5.141   3.580  0.0918  0.5265 -0.0945
  285MOL0     C39214   9.070   5.169   3.733 -0.9894 -0.1764 -0.0730
  285MOL0     C39215   8.948   5.246   3.795  0.1904  0.6273  0.4327
  285MOL0     O39216   8.955   5.249   3.935 -0.2882 -0.5769 -0.0515
  285MOL0     C39217   8.981   5.143   4.008 -0.0978  0.1485  0.5044
  285MOL0     C39218   8.923   5.014   3.972 -0.5318 -0.3609 -0.4301
  285MOL0     C39219   8.956   4.903   4.050  0.1402  0.3348  0.0360
  285MOL0     C39220   8.899   4.770   4.008 -0.2855 -0.6979 -0.1584
  285MOL0     C39221   9.031   4.919   4.169  0.4661 -0.4620  0.2846
  285MOL0     C39222   9.074   4.809   4.261  0.6061  0.4176 -0.1599
  285MOL0     O39223   9.158   4.842   4.359 -1.1490 -0.1759 -0.0473
  285MOL0     C39224   9.169   4.812   4.490  0.7986  0.1204  0.6591
  285MOL0     C39225   9.079   4.733   4.569 -0.1419  0.0271  0.2722
  285MOL0     C39226   9.115   4.684   4.697  0.1801  0.0025 -0.0676
  285MOL0     C39227   9.236   4.718   4.750  0.3915 -0.6050  0.3164
  285MOL0     O39228   9.270   4.680   4.878  0.4848 -0.3185  0.0948
  285MOL0     C39229   9.305   4.543   4.885  0.8110  0.3157  0.4027
  285MOL0     C39230   9.459   4.529   4.859  0.8336  0.3860  0.3764
  285MOL0     C39231   9.543   4.618   4.923 -0.5150 -0.6583  0.0974
  285MOL0     C39232   9.542   4.608   5.078 -0.3143  0.2671  0.4145
  285MOL0     C39233   9.676   4.670   5.149 -0.2884  0.3399  0.7559
  285MOL0     C39234   9.660   4.681   5.303 -0.6743 -0.4568 -0.2180
  285MOL0     C39235   9.700   4.816   5.360 -0.2265 -0.5191 -0.6767
  285MOL0     C39236   9.852   4.854   5.328  0.6396  0.9514 -0.9341
  285MOL0    Cl39237   9.930   4.941   5.466  0.5789 -0.0173  0.3798
  285MOL0     C39238   9.315   4.821   4.693 -0.5616  0.6872 -0.2776
  285MOL0     C39239   9.291   4.858   4.555  1.2014 -0.6267  0.1390
  285MOL0     O39240   9.006   4.702   4.256 -0.4317  0.4833 -0.4727
  285MOL0     C39241   9.079   5.039   4.205  0.3563 -0.6870 -0.4675
  285MOL0     C39242   9.058   5.150   4.128 -0.6228 -0.6574  0.0479
  285MOL0     N39243   8.940   4.811   3.461  0.3800  0.1647  0.0545
  285MOL0     N39244   8.982   4.737   3.364 -0.1519  0.8486 -0.1708
  285MOL0     C39245   9.982   5.057   3.602  0.3329  0.0099  0.5050
  285MOL0     C39246  10.090   5.123   3.545  0.5499 -0.6539 -0.1773
  285MOL0     C39247  10.421   5.388   3.457 -0.3629  0.6834 -0.9167
  285MOL0     C39248  10.421   5.311   3.338 -0.1855 -0.2851  0.3086
  285MOL0     C39249  10.539   5.315   3.250  0.2001  0.2723  0.3417
  285MOL0     C39250  10.644   5.406   3.278 -0.5042 -0.5053 -0.2029
  285MOL0     O39251  10.749   5.431   3.189  0.4240 -0.2351 -0.1055
  285MOL0     C39252  10.759   5.355   3.068  0.1494  0.1902  0.2531
  285MOL0     C39253  10.839   5.447   2.979  0.1167 -0.3317 -0.2556
  285MOL0     C39254  10.863   5.368   2.846 -0.6969 -0.5623  0.0142
  285MOL0     C39255  10.980   5.406   2.756 -0.4326 -0.5755  0.4598
  285MOL0     C39256  10.984   5.333   2.624  0.1963 -0.2129 -0.6255
  285MOL0     C39257  10.987   5.264   2.528 -0.0083  0.5733  0.2674
  285MOL0     C39258  10.632   5.486   3.390  1.0293 -0.2454 -0.9163
  285MOL0     C39259  10.525   5.472   3.483  0.2980 -0.1108 -0.2910
  285MOL0     C39260  10.533   5.565   3.599 -0.1225 -0.1537  1.4015
  285MOL0     H39261   9.952   5.429   3.541  2.4935 -0.6055 -1.5788
  285MOL0     H39262   9.772   5.301   3.674 -0.3684 -1.9255  1.0688
  285MOL0     H39263   9.720   4.854   3.670 -2.1110  0.3694  1.9161
  285MOL0     H39264   9.770   4.936   3.525  2.9567 -1.6706  0.8416
  285MOL0     H39265   9.529   4.981   3.712  0.8799  1.9116 -0.3866
  285MOL0     H39266   9.561   5.088   3.571 -3.0386  1.0333  1.6678
  285MOL0     H39267   9.467   4.794   3.583 -0.4592  0.5244  0.6093
  285MOL0     H39268   9.375   4.926   3.516 -0.2934  0.3607 -0.4717
  285MOL0     H39269   9.491   4.939   3.322 -2.2106 -0.1383  0.9664
  285MOL0     H39270   9.633   4.853   3.368  0.3502 -2.4070  0.5302
  285MOL0     H39271   9.510   4.644   3.393  0.4708  0.0931  0.3611
  285MOL0     H39272   9.517   4.714   3.236  3.9301  0.5497  2.3636
  285MOL0     H39273   9.292   4.612   3.295 -3.8105  0.3706  0.2950
  285MOL0     H39274   9.264   4.747   3.405 -0.5987 -0.8487  0.3316
  285MOL0     H39275   9.287   4.726   3.106 -1.3205  0.1678  0.7689
  285MOL0     H39276   9.292   4.891   3.177 -1.6574  0.4165  1.2482
  285MOL0     H39277   9.076   4.833   3.074 -0.2740  1.7491  0.7818
  285MOL0     H39278   9.101   4.669   3.152  0.1895  1.0673  0.1611
  285MOL0     H39279   9.083   5.045   3.295  2.6980 -0.6547  0.6898
  285MOL0     H39280   8.908   4.981   3.645 -1.3451 -1.3063 -1.2671
  285MOL0     H39281   8.846   5.105   3.542 -1.8411 -4.0068  3.3860
  285MOL0     H39282   9.145   5.122   3.534  0.5826  1.7407  0.3944
  285MOL0     H39283   9.026   5.229   3.518 -0.5672 -0.3621 -1.1714
  285MOL0     H39284   9.082   5.071   3.780 -1.9407  0.2009  0.9990
  285MOL0     H39285   9.162   5.229   3.737 -1.0768 -0.0335 -0.2221
  285MOL0     H39286   8.942   5.346   3.752 -0.4993  0.1569 -0.6131
  285MOL0     H39287   8.850   5.202   3.777 -1.2831  3.8650 -0.0811
  285MOL0     H39288   8.863   4.998   3.882 -0.0678 -0.1869 -0.7706
  285MOL0     H39289   8.827   4.736   4.083 -1.3952  0.8859 -0.4608
  285MOL0     H39290   8.986   4.705   3.994  1.1754  1.2462 -0.6306
  285MOL0     H39291   8.853   4.772   3.909 -1.3779 -3.1879  0.2303
  285MOL0     H39292   8.977   4.713   4.535 -1.4272  3.6546  1.5341
  285MOL0     H39293   9.040   4.632   4.757 -0.0019  1.8240  1.3760
  285MOL0     H39294   9.286   4.501   4.984 -1.0251 -2.4719 -1.0190
  285MOL0     H39295   9.242   4.486   4.817  2.7285  1.5012 -2.5896
  285MOL0     H39296   9.477   4.422   4.877 -0.6883  0.0441  0.0996
  285MOL0     H39297   9.473   4.527   4.751 -2.3043 -0.4804 -0.1396
  285MOL0     H39298   9.505   4.720   4.912  1.4614  0.5118  2.9353
  285MOL0     H39299   9.647   4.610   4.892 -0.8564 -0.0971 -1.2649
  285MOL0     H39300   9.537   4.504   5.112  1.0443  0.8312  2.5115
  285MOL0     H39301   9.448   4.651   5.113 -0.6329  2.4204 -2.6883
  285MOL0     H39302   9.754   4.597   5.126 -0.0040  0.2800  1.8721
  285MOL0     H39303   9.696   4.764   5.096 -1.5390 -0.8173 -1.9335
  285MOL0     H39304   9.725   4.605   5.348 -1.4121 -0.6084  0.6327
  285MOL0     H39305   9.560   4.650   5.335 -1.4602  1.0182 -1.1299
  285MOL0     H39306   9.676   4.806   5.466  0.3672  0.1751 -0.4714
  285MOL0     H39307   9.640   4.903   5.332  0.5860  0.7657  1.3891
  285MOL0     H39308   9.856   4.900   5.229  0.1693  0.5007 -1.1638
  285MOL0     H39309   9.896   4.756   5.310 -2.4947 -0.9054  0.6258
  285MOL0     H39310   9.393   4.870   4.751 -2.4515  0.7731  2.3552
  285MOL0     H39311   9.363   4.921   4.504  0.5790 -1.5021 -1.9189
  285MOL0     H39312   9.132   5.067   4.296  1.1226  0.3895 -1.2090
  285MOL0     H39313   9.105   5.243   4.160  2.3052 -1.4134 -1.6908
  285MOL0     H39314   9.979   4.951   3.626 -0.1155 -0.2042 -0.4559
  285MOL0     H39315  10.186   5.075   3.526  1.2748  1.0758 -1.0878
  285MOL0     H39316  10.338   5.245   3.315  0.1666 -0.2013 -1.3297
  285MOL0     H39317  10.526   5.257   3.159  0.1861  0.7437  0.0453
  285MOL0     H39318  10.808   5.258   3.079 -0.8801 -0.8028 -2.8216
  285MOL0     H39319  10.660   5.330   3.027  0.2562 -2.4126  1.3990
  285MOL0     H39320  10.928   5.475   3.036 -0.1111 -3.2284  1.7145
  285MOL0     H39321  10.779   5.536   2.959  0.9782  0.4526  0.5321
  285MOL0     H39322  10.874   5.262   2.873  1.0012 -1.3296 -3.2294
  285MOL0     H39323  10.774   5.370   2.783  0.5391 -0.1839 -1.7798
  285MOL0     H39324  11.080   5.404   2.799 -0.3525 -0.0724  0.3050
  285MOL0     H39325  10.967   5.512   2.731  0.4656 -0.3572  0.9060
  285MOL0     H39326  10.989   5.201   2.442 -0.5619 -0.0250  0.6861
  285MOL0     H39327  10.710   5.555   3.423  0.8794 -0.7485  0.5354
  285MOL0     H39328  10.431   5.598   3.623 -0.6691 -0.7945  0.1139
  285MOL0     H39329  10.574   5.511   3.685  2.2315 -1.5866 -0.4865
  285MOL0     H39330  10.595   5.652   3.579  0.5579 -1.1632 -1.4697
  286MOL0     O39331   1.568   6.697   1.158  0.3962 -0.3565  0.0097
  286MOL0     C39332   1.458   6.648   1.130 -0.0103 -0.6219  0.6156
  286MOL0     O39333   1.441   6.572   1.024  0.9863 -0.0993  0.1202
  286MOL0     C39334   1.534   6.478   0.999  0.6917 -0.1863  0.2364
  286MOL0     C39335   1.580   6.471   0.867 -0.5558  0.5779 -1.1773
  286MOL0     C39336   1.681   6.383   0.841 -1.2817  0.0358  0.3119
  286MOL0     C39337   1.731   6.293   0.940  0.4331  0.2393 -0.0250
  286MOL0     O39338   1.840   6.203   0.920 -0.2825 -0.2197 -0.4687
  286MOL0     C39339   1.902   6.196   0.793 -0.2005  0.4290  0.7379
  286MOL0     C39340   2.035   6.108   0.802  0.6975  0.3223 -0.8419
  286MOL0     C39341   2.152   6.176   0.873  0.5504 -0.0767  0.6273
  286MOL0     C39342   2.239   6.079   0.973 -0.8389 -0.4007  1.0055
  286MOL0     C39343   2.351   6.149   1.054 -0.1879  0.1869 -0.3417
  286MOL0     C39344   2.459   6.221   0.969  0.8986 -0.3869  0.5686
  286MOL0     C39345   2.522   6.129   0.855  0.0264 -0.3190 -1.0697
  286MOL0     C39346   2.648   6.197   0.792  0.1901 -0.9890  0.5190
  286MOL0     N39347   2.779   6.152   0.849  0.2436 -1.2751 -0.0324
  286MOL0     C39348   2.838   6.030   0.819  0.0558 -0.7760  0.5052
  286MOL0     C39349   2.962   6.042   0.871  0.3622  0.1655  0.3371
  286MOL0     C39350   3.061   5.923   0.853 -0.4294 -0.7872  0.8872
  286MOL0     C39351   3.144   5.911   0.980 -0.0685 -0.4974 -0.3277
  286MOL0     C39352   3.235   5.782   0.984 -0.0866  0.0165 -0.1177
  286MOL0     C39353   3.249   5.748   1.131  1.1234 -0.4098  0.8065
  286MOL0     O39354   3.333   5.840   1.196 -0.4380  0.4551  0.5014
  286MOL0     C39355   3.401   5.791   1.306 -0.3988 -0.1517 -0.4277
  286MOL0     C39356   3.517   5.854   1.322 -0.1687  0.1745 -0.1500
  286MOL0     C39357   3.597   5.838   1.431 -1.0874  0.6947  0.9358
  286MOL0     C39358   3.735   5.910   1.438  1.2787 -0.5064 -0.4740
  286MOL0     C39359   3.559   5.746   1.530  0.6428 -0.6416  0.8751
  286MOL0     C39360   3.631   5.711   1.658 -0.0664  0.3969 -0.7325
  286MOL0     O39361   3.698   5.810   1.723 -0.0456  0.2000 -0.0621
  286MOL0     C39362   3.802   5.770   1.801  0.2285  0.5496  0.5834
  286MOL0     C39363   3.926   5.821   1.763  0.3597 -0.7953  0.3377
  286MOL0     C39364   4.034   5.803   1.849 -0.3040  0.4904 -0.6001
  286MOL0     C39365   4.028   5.714   1.955 -0.0551  0.0025  0.1428
  286MOL0     O39366   4.143   5.690   2.021 -0.2827 -0.1411  0.2017
  286MOL0     C39367   4.223   5.587   1.959 -0.3846 -0.5883  0.6794
  286MOL0     C39368   4.378   5.609   1.998  0.2050  0.3387 -0.7404
  286MOL0     C39369   4.381   5.619   2.153  0.1853 -0.1965  0.5810
  286MOL0     C39370   4.518   5.672   2.213 -0.3531  0.1845 -0.2146
  286MOL0     C39371   4.519   5.652   2.365  0.7767  0.9724 -1.8723
  286MOL0     C39372   4.618   5.736   2.431  0.2302 -0.9105  0.1679
  286MOL0     C39373   4.653   5.689   2.575 -0.2539 -0.2837 -0.0591
  286MOL0     C39374   4.749   5.780   2.656 -0.1437  0.4038 -0.0300
  286MOL0    Cl39375   4.699   5.952   2.656  0.2308 -0.2689 -0.0320
  286MOL0     C39376   3.897   5.659   1.994 -0.3053 -0.2011 -0.8076
  286MOL0     C39377   3.784   5.691   1.918  0.5104  0.1045 -0.8621
  286MOL0     O39378   3.617   5.597   1.697  0.4122  0.4761  0.1919
  286MOL0     C39379   3.441   5.672   1.507  0.5338 -0.1816 -0.6477
  286MOL0     C39380   3.372   5.686   1.390 -0.3689  0.3452  0.3910
  286MOL0     N39381   2.972   6.157   0.940 -0.1494 -1.0228 -0.3695
  286MOL0     N39382   2.862   6.231   0.925 -0.5685 -0.3746 -0.1610
  286MOL0     C39383   1.677   6.298   1.068  0.6517  0.2395  0.2894
  286MOL0     C39384   1.582   6.396   1.102  0.7091  0.0689  0.1251
  286MOL0     C39385   1.346   6.664   1.229 -0.1467 -0.5485 -0.6744
  286MOL0     C39386   1.256   6.559   1.243  0.2355  0.0339 -0.2700
  286MOL0     C39387   1.151   6.547   1.331 -0.3529  0.9325 -0.1651
  286MOL0     C39388   1.121   6.662   1.409  0.0142 -0.1023 -0.3533
  286MOL0     O39389   1.005   6.660   1.486 -0.0093  0.0918 -0.9054
  286MOL0     C39390   0.978   6.756   1.583 -0.7645 -0.1616 -0.4725
  286MOL0     C39391   0.869   6.713   1.681 -0.0953 -0.5444 -0.4737
  286MOL0     C39392   0.744   6.675   1.603  0.0465  0.3644 -0.5061
  286MOL0     C39393   0.681   6.787   1.525  0.5308 -0.1808 -0.9847
  286MOL0     C39394   0.546   6.752   1.480 -0.0149  0.8921  0.6239
  286MOL0     C39395   0.434   6.722   1.457  1.1433 -0.1920  0.2997
  286MOL0     C39396   1.211   6.766   1.409  0.4394 -0.7000 -0.2850
  286MOL0     C39397   1.321   6.776   1.320  0.1872 -0.4215  0.5280
  286MOL0     C39398   1.403   6.909   1.318  0.7728 -0.1654  0.0809
  286MOL0     H39399   1.523   6.533   0.798 -0.0207  2.5681  0.0677
  286MOL0     H39400   1.717   6.372   0.739  3.7065  1.0897  1.6821
  286MOL0     H39401   1.930   6.296   0.760  1.0484 -1.0170 -3.2321
  286MOL0     H39402   1.829   6.137   0.737 -0.5709 -3.1990  4.5406
  286MOL0     H39403   2.004   6.026   0.867  3.1855  0.9553  1.3045
  286MOL0     H39404   2.057   6.069   0.702  1.2667 -0.2032 -0.5176
  286MOL0     H39405   2.213   6.219   0.794 -2.1237  1.4977 -0.7417
  286MOL0     H39406   2.119   6.265   0.929 -0.0747 -0.2365  0.5260
  286MOL0     H39407   2.166   6.033   1.040 -1.6781 -0.8397 -0.1837
  286MOL0     H39408   2.286   5.999   0.915  1.0964  1.5454 -0.3170
  286MOL0     H39409   2.403   6.073   1.114 -2.7886  0.5404  2.6294
  286MOL0     H39410   2.312   6.212   1.134  0.7097 -0.2574  0.4695
  286MOL0     H39411   2.421   6.317   0.932 -1.0377 -1.2378  0.2243
  286MOL0     H39412   2.540   6.234   1.041  1.2018 -2.6019  0.6901
  286MOL0     H39413   2.434   6.115   0.791  0.1773 -1.0663 -1.1213
  286MOL0     H39414   2.550   6.037   0.907 -2.2641 -1.9081 -2.4433
  286MOL0     H39415   2.649   6.174   0.685 -0.1456  0.4850  0.1854
  286MOL0     H39416   2.640   6.305   0.806  3.6059 -0.1148 -2.6761
  286MOL0     H39417   2.800   5.945   0.763  0.1162  0.7391 -1.9920
  286MOL0     H39418   3.125   5.937   0.766 -1.5805 -1.3875 -0.0890
  286MOL0     H39419   3.008   5.829   0.835  0.6250 -1.2132 -0.1441
  286MOL0     H39420   3.208   5.999   0.998  1.3149 -1.6443  0.5726
  286MOL0     H39421   3.075   5.922   1.064 -1.1325 -1.4590 -1.0435
  286MOL0     H39422   3.177   5.697   0.946  0.4973 -0.5781  0.3004
  286MOL0     H39423   3.329   5.803   0.934 -1.7787  3.4007 -2.2906
  286MOL0     H39424   3.148   5.753   1.173  1.9461 -1.1902  3.0255
  286MOL0     H39425   3.281   5.644   1.141  0.7699 -0.5783  0.2607
  286MOL0     H39426   3.535   5.924   1.241 -0.5718 -1.6796 -1.9263
  286MOL0     H39427   3.806   5.834   1.471  1.4473  0.4051  1.3919
  286MOL0     H39428   3.735   5.995   1.507 -2.0167 -1.0159  0.3242
  286MOL0     H39429   3.776   5.948   1.344 -1.3159  2.2891 -0.6107
  286MOL0     H39430   3.939   5.871   1.668 -2.6494 -1.1738 -0.3713
  286MOL0     H39431   4.135   5.831   1.820  0.3340 -2.5317 -1.7426
  286MOL0     H39432   4.195   5.489   1.998 -0.1216 -0.8989  0.0913
  286MOL0     H39433   4.206   5.590   1.851  1.4648  0.0390  0.3631
  286MOL0     H39434   4.431   5.517   1.972 -3.3042 -2.9616  2.4855
  286MOL0     H39435   4.430   5.695   1.954  0.7705  0.2195 -0.3102
  286MOL0     H39436   4.363   5.515   2.181  0.4349 -0.0086  1.4558
  286MOL0     H39437   4.292   5.674   2.185  1.5247  2.0025  0.7581
  286MOL0     H39438   4.522   5.777   2.184 -3.0141  0.5345  0.4143
  286MOL0     H39439   4.598   5.622   2.157 -0.4291  0.1888 -0.3279
  286MOL0     H39440   4.430   5.676   2.423  0.6423  0.5215 -1.8895
  286MOL0     H39441   4.545   5.549   2.393  1.8704  1.5704 -0.5230
  286MOL0     H39442   4.568   5.832   2.446 -0.5846 -1.4671  1.1881
  286MOL0     H39443   4.706   5.754   2.369 -1.0964  0.4263 -1.4228
  286MOL0     H39444   4.701   5.591   2.581  0.9116  0.0245 -2.7652
  286MOL0     H39445   4.564   5.688   2.638 -0.0149  1.0165  0.3337
  286MOL0     H39446   4.850   5.781   2.614  0.8346  1.8765  2.1739
  286MOL0     H39447   4.763   5.753   2.761 -0.5987  1.3616  0.2909
  286MOL0     H39448   3.884   5.586   2.074  0.9043 -2.0077 -2.1674
  286MOL0     H39449   3.687   5.651   1.942 -0.9538  2.7779 -1.9129
  286MOL0     H39450   3.408   5.602   1.583 -0.5959  0.8564 -0.1461
  286MOL0     H39451   3.283   5.627   1.368 -1.0165  1.7156 -0.8569
  286MOL0     H39452   1.734   6.239   1.139 -0.3838  0.3676  1.2454
  286MOL0     H39453   1.538   6.408   1.201  1.9406  2.5993  0.4700
  286MOL0     H39454   1.273   6.479   1.172  0.1521  0.6587 -1.0100
  286MOL0     H39455   1.081   6.464   1.320  0.6623  0.0559 -0.2027
  286MOL0     H39456   1.061   6.767   1.654 -1.5266  2.0863  0.1374
  286MOL0     H39457   0.963   6.856   1.543  1.1015  0.7869  1.0192
  286MOL0     H39458   0.838   6.793   1.750 -0.1091  1.5028 -2.7332
  286MOL0     H39459   0.907   6.637   1.750 -0.8734 -0.8608 -0.3831
  286MOL0     H39460   0.767   6.596   1.530 -4.0320  0.6035 -2.3142
  286MOL0     H39461   0.674   6.644   1.681  2.3446  1.1651  2.0067
  286MOL0     H39462   0.745   6.818   1.442  2.1164 -0.7145 -0.0124
  286MOL0     H39463   0.662   6.871   1.593  1.4248  0.3613 -1.3840
  286MOL0     H39464   0.333   6.688   1.456  1.5064 -1.6655  3.0282
  286MOL0     H39465   1.189   6.853   1.470 -1.1694 -1.2031 -0.0982
  286MOL0     H39466   1.371   6.977   1.398 -3.3484  0.4307 -1.7991
  286MOL0     H39467   1.509   6.890   1.338  0.3250 -4.4240 -0.6752
  286MOL0     H39468   1.401   6.953   1.217  1.1494 -0.7720 -0.1954
  287MOL0     O39469   7.368  11.225   5.155  0.0991  0.0861  0.3036
  287MOL0     C39470   7.409  11.201   5.040 -0.0258 -0.0605  0.7935
  287MOL0     O39471   7.537  11.196   5.005 -0.9612 -0.0608  1.0798
  287MOL0     C39472   7.636  11.194   5.099  0.4279 -0.3027  0.2072
  287MOL0     C39473   7.673  11.321   5.157 -0.1177  0.2369 -0.2010
  287MOL0     C39474   7.780  11.321   5.251 -0.1353 -0.4875  0.5241
  287MOL0     C39475   7.844  11.204   5.295 -0.2508 -0.2044  0.5292
  287MOL0     O39476   7.933  11.203   5.398 -0.5570 -0.6337 -0.1470
  287MOL0     C39477   8.042  11.297   5.381  0.5014 -0.1036  0.7528
  287MOL0     C39478   8.175  11.260   5.447  0.0069 -0.7668  0.4837
  287MOL0     C39479   8.162  11.240   5.591  0.2060  0.2365  0.1562
  287MOL0     C39480   8.283  11.159   5.647 -0.9118 -0.6353 -0.4612
  287MOL0     C39481   8.274  11.159   5.794  0.3713  1.2293  1.0215
  287MOL0     C39482   8.358  11.046   5.855 -0.2270 -0.3805 -0.2147
  287MOL0     C39483   8.317  11.021   6.005  0.2109  0.9790  0.4569
  287MOL0     C39484   8.381  11.106   6.112 -1.0384 -0.0116 -1.4398
  287MOL0     N39485   8.331  11.093   6.246 -0.0437 -0.4695 -0.4622
  287MOL0     C39486   8.201  11.086   6.283 -0.0506 -0.9492 -0.3817
  287MOL0     C39487   8.197  11.033   6.409 -0.2580  0.0952 -0.9457
  287MOL0     C39488   8.089  11.009   6.508 -0.4266 -0.5454 -0.1819
  287MOL0     C39489   7.963  10.943   6.447 -0.3153  0.2789  0.5586
  287MOL0     C39490   7.849  10.962   6.536 -0.1276 -0.2953 -0.0720
  287MOL0     C39491   7.787  11.103   6.521  0.2662  0.3909 -0.0976
  287MOL0     O39492   7.748  11.112   6.386 -0.2341 -0.8163  0.1170
  287MOL0     C39493   7.690  11.231   6.338 -0.3267 -0.0047  0.1534
  287MOL0     C39494   7.652  11.342   6.410  0.0351  0.6171 -0.0035
  287MOL0     C39495   7.580  11.447   6.350  0.0174 -0.4885  0.4029
  287MOL0     C39496   7.549  11.558   6.450 -0.4578 -0.0083  0.4406
  287MOL0     C39497   7.547  11.441   6.205  0.6249 -0.5537 -0.6554
  287MOL0     C39498   7.475  11.548   6.127 -0.0884  0.2926  0.1786
  287MOL0     O39499   7.452  11.665   6.189 -0.4631 -0.3194  0.3023
  287MOL0     C39500   7.377  11.774   6.147  0.5744 -0.2127  0.5047
  287MOL0     C39501   7.399  11.899   6.204  0.5223  0.2367 -0.0727
  287MOL0     C39502   7.318  12.009   6.171 -0.0877 -0.7808  0.1015
  287MOL0     C39503   7.225  12.001   6.066 -0.4649 -0.6664 -0.5006
  287MOL0     O39504   7.152  12.110   6.042  0.1713 -0.2033 -0.1947
  287MOL0     C39505   7.051  12.094   5.949  0.0421  0.3384 -0.5250
  287MOL0     C39506   6.990  12.229   5.942  0.3037  0.4177 -0.7695
  287MOL0     C39507   6.927  12.253   5.802  0.1568 -0.3499  0.2783
  287MOL0     C39508   7.028  12.320   5.710 -0.7068 -0.5010  0.6138
  287MOL0     C39509   6.972  12.306   5.567 -0.6446  1.2370 -0.0436
  287MOL0     C39510   7.077  12.359   5.464  0.1915 -0.6676 -0.0994
  287MOL0     C39511   7.004  12.391   5.334 -0.1094 -0.1498  0.8299
  287MOL0     C39512   7.106  12.442   5.232 -0.3335 -0.1326 -0.7798
  287MOL0    Cl39513   7.046  12.435   5.061  0.2576  0.1709  0.5134
  287MOL0     C39514   7.212  11.882   6.001 -0.3648  0.4194 -0.1723
  287MOL0     C39515   7.289  11.767   6.034  0.7872 -0.7313 -0.7764
  287MOL0     O39516   7.452  11.532   6.007 -0.0177  0.0714  0.3028
  287MOL0     C39517   7.593  11.328   6.139  0.8969 -0.2061 -0.3901
  287MOL0     C39518   7.665  11.232   6.204 -0.6545  0.3200  0.2039
  287MOL0     N39519   8.334  11.016   6.451 -0.3662 -0.4248 -0.2328
  287MOL0     N39520   8.407  11.047   6.347 -0.6517  0.3038 -0.4143
  287MOL0     C39521   7.790  11.084   5.244 -0.4378  0.5932 -0.1301
  287MOL0     C39522   7.692  11.078   5.146 -0.2555 -0.0391 -0.1092
  287MOL0     C39523   7.313  11.160   4.932 -0.2521 -0.5217 -0.6992
  287MOL0     C39524   7.200  11.241   4.908 -0.7405 -0.0742 -0.1437
  287MOL0     C39525   7.122  11.227   4.797  0.4510 -0.0598  0.1636
  287MOL0     C39526   7.152  11.121   4.712 -0.5129 -0.8877 -0.4710
  287MOL0     O39527   7.073  11.104   4.601  0.0248 -0.6302 -0.2017
  287MOL0     C39528   6.931  11.089   4.611  0.5382  0.6572 -0.1668
  287MOL0     C39529   6.886  11.014   4.487 -0.7588 -0.0944  0.4167
  287MOL0     C39530   6.756  10.932   4.526 -0.6736  0.4025  0.7004
  287MOL0     C39531   6.620  11.016   4.536 -0.2183  0.0477  1.0293
  287MOL0     C39532   6.501  10.944   4.532  1.1177  0.5345 -0.2267
  287MOL0     C39533   6.379  10.905   4.536 -0.9395 -0.3496 -0.0341
  287MOL0     C39534   7.257  11.037   4.728 -0.7046 -0.2214 -0.7722
  287MOL0     C39535   7.337  11.050   4.846  0.2491 -0.7548 -0.5244
  287MOL0     C39536   7.463  10.966   4.853 -0.1711 -0.2400 -0.0120
  287MOL0     H39537   7.631  11.416   5.125 -1.5208  0.0097  0.8768
  287MOL0     H39538   7.810  11.421   5.279  3.7601 -1.2500 -0.3742
  287MOL0     H39539   8.007  11.390   5.425  0.3582  0.1342  0.1494
  287MOL0     H39540   8.064  11.307   5.274  1.3989  1.0668  1.0365
  287MOL0     H39541   8.210  11.173   5.391  0.0936  1.0454 -2.4831
  287MOL0     H39542   8.252  11.335   5.427 -0.3260 -1.2417 -3.2062
  287MOL0     H39543   8.155  11.338   5.638  1.6382  0.8679 -0.8839
  287MOL0     H39544   8.067  11.187   5.608  0.5239 -0.0255  1.1674
  287MOL0     H39545   8.285  11.057   5.609  2.9471 -0.6907 -0.4525
  287MOL0     H39546   8.378  11.205   5.618  0.7167 -1.8528  2.5686
  287MOL0     H39547   8.170  11.145   5.827  0.1844  1.8788  0.7208
  287MOL0     H39548   8.299  11.259   5.831 -2.4472  1.6237  2.1523
  287MOL0     H39549   8.331  10.958   5.797 -0.3295 -1.3482  1.2507
  287MOL0     H39550   8.465  11.066   5.846 -0.7131  1.7516 -2.6311
  287MOL0     H39551   8.365  10.924   6.020  0.7666  1.0226 -0.8929
  287MOL0     H39552   8.209  11.011   6.021  0.0015 -0.9347 -1.5103
  287MOL0     H39553   8.487  11.081   6.104 -1.4952 -1.9809 -2.2454
  287MOL0     H39554   8.365  11.208   6.076  0.9745  1.7117  2.1449
  287MOL0     H39555   8.117  11.122   6.225 -1.1751  0.3515  1.9037
  287MOL0     H39556   8.058  11.108   6.543 -2.8018 -1.9274  2.0552
  287MOL0     H39557   8.123  10.956   6.598 -0.8609 -0.4519  0.0410
  287MOL0     H39558   7.946  10.989   6.349  0.7551  0.6859  0.5388
  287MOL0     H39559   7.975  10.835   6.434 -1.5032 -0.0576  2.0244
  287MOL0     H39560   7.776  10.885   6.509 -1.1958  1.2598 -1.8976
  287MOL0     H39561   7.867  10.956   6.644  2.9995 -1.9851 -0.5683
  287MOL0     H39562   7.702  11.111   6.589 -1.2028 -0.8745 -1.6847
  287MOL0     H39563   7.859  11.178   6.553 -1.7116  2.1533  0.4827
  287MOL0     H39564   7.693  11.359   6.509  2.7654 -0.8797 -0.7882
  287MOL0     H39565   7.616  11.642   6.428  1.1776 -0.7306  2.3586
  287MOL0     H39566   7.577  11.531   6.553  2.8803  1.5886  0.0830
  287MOL0     H39567   7.444  11.589   6.452 -0.6009 -0.5187  1.2810
  287MOL0     H39568   7.476  11.905   6.280  1.6237 -3.4386 -0.7153
  287MOL0     H39569   7.331  12.092   6.240  1.8082  1.0330 -2.2264
  287MOL0     H39570   7.098  12.075   5.852 -0.1053  0.5033 -0.6290
  287MOL0     H39571   6.976  12.017   5.971  1.7125 -1.0900  0.4702
  287MOL0     H39572   6.914  12.238   6.019  1.3353 -2.4332  0.6917
  287MOL0     H39573   7.066  12.307   5.953 -2.6828  3.3418  1.0236
  287MOL0     H39574   6.836  12.308   5.824  1.3574  2.8622 -2.0703
  287MOL0     H39575   6.903  12.154   5.761  1.0795 -0.5298  0.1313
  287MOL0     H39576   7.129  12.278   5.715 -0.6398 -0.7698 -1.6462
  287MOL0     H39577   7.040  12.424   5.739  2.5694 -0.0425 -1.8386
  287MOL0     H39578   6.954  12.200   5.549 -1.9878  1.2965  0.8057
  287MOL0     H39579   6.870  12.347   5.564 -1.2964 -0.3339 -0.1300
  287MOL0     H39580   7.152  12.280   5.455  1.6113  0.4365  1.3568
  287MOL0     H39581   7.121  12.452   5.501 -3.0767  1.2973 -0.8031
  287MOL0     H39582   6.930  12.468   5.357  1.4613  0.7962  3.0369
  287MOL0     H39583   6.958  12.300   5.294  3.4867 -0.4060 -3.5303
  287MOL0     H39584   7.199  12.385   5.234 -0.8634 -0.9958 -0.3092
  287MOL0     H39585   7.135  12.543   5.262  3.7924 -0.9917 -1.3682
  287MOL0     H39586   7.138  11.864   5.923  0.3233 -0.2117 -0.6941
  287MOL0     H39587   7.268  11.678   5.976  0.0723 -0.1489 -1.4369
  287MOL0     H39588   7.572  11.315   6.034  1.4583  2.6022 -0.9203
  287MOL0     H39589   7.708  11.144   6.158 -2.6282 -0.5617 -0.0599
  287MOL0     H39590   7.843  10.993   5.270 -0.5084 -0.2461 -2.6539
  287MOL0     H39591   7.676  10.977   5.110  2.5801 -1.0110  1.0838
  287MOL0     H39592   7.184  11.310   4.990 -0.8286 -1.2185  0.8438
  287MOL0     H39593   7.029  11.279   4.776  0.6140 -1.1052 -4.0221
  287MOL0     H39594   6.922  11.018   4.693  3.2656 -1.1489 -1.2857
  287MOL0     H39595   6.875  11.183   4.623 -0.5421  0.1994 -1.3338
  287MOL0     H39596   6.952  10.935   4.451  2.2273  1.5828  1.8128
  287MOL0     H39597   6.889  11.080   4.400  0.2924 -0.3543  0.2434
  287MOL0     H39598   6.746  10.855   4.450  0.1285  0.9202  0.0571
  287MOL0     H39599   6.775  10.868   4.613  1.1164  0.5020  0.4326
  287MOL0     H39600   6.619  11.086   4.452  0.9926 -3.0527 -1.7814
  287MOL0     H39601   6.618  11.069   4.632 -4.3738  2.9848 -0.3883
  287MOL0     H39602   6.283  10.860   4.542  0.3396 -3.1723  0.7289
  287MOL0     H39603   7.260  10.965   4.648 -2.2060 -0.4762 -0.6308
  287MOL0     H39604   7.544  11.028   4.815  2.2542 -0.7725  3.6975
  287MOL0     H39605   7.485  10.948   4.959 -0.1005  0.8572  0.1719
  287MOL0     H39606   7.461  10.867   4.806  1.2489 -0.2222 -0.1538
  288MOL0     O39607   0.053  11.138   9.632 -0.0444  0.5598 -0.3656
  288MOL0     C39608  -0.003  11.036   9.667  1.2637 -1.1041  0.4025
  288MOL0     O39609  -0.104  11.028   9.761 -0.7476  0.3114 -0.3106
  288MOL0     C39610  -0.120  11.139   9.844  0.2295  0.2181 -0.1436
  288MOL0     C39611  -0.246  11.213   9.841 -0.1339 -0.1274  0.4232
  288MOL0     C39612  -0.262  11.329   9.914  0.1383  0.4241 -0.2637
  288MOL0     C39613  -0.157  11.373   9.998 -0.1837  0.0873 -0.0858
  288MOL0     O39614  -0.194  11.467  10.089  0.0567 -0.7207 -0.1109
  288MOL0     C39615  -0.121  11.477  10.211  0.6112 -0.6743  0.2352
  288MOL0     C39616  -0.224  11.550  10.289 -0.0091  0.1140 -0.7865
  288MOL0     C39617  -0.345  11.463  10.330 -0.4492 -0.6550 -0.0599
  288MOL0     C39618  -0.454  11.535  10.408 -0.2480  0.1593 -0.3798
  288MOL0     C39619  -0.550  11.438  10.481  0.3183 -0.2776 -0.1727
  288MOL0     C39620  -0.636  11.510  10.587  0.1038 -0.1052 -0.7310
  288MOL0     C39621  -0.721  11.621  10.524  0.9040 -0.7110  0.0319
  288MOL0     C39622  -0.803  11.699  10.620 -0.7315  0.8392 -0.5353
  288MOL0     N39623  -0.907  11.783  10.552 -0.8914 -0.2910 -0.4761
  288MOL0     C39624  -1.047  11.748  10.548 -0.9000 -0.7323 -0.0173
  288MOL0     C39625  -1.102  11.865  10.495  0.4797  0.1831  0.4977
  288MOL0     C39626  -1.252  11.893  10.472  0.0253  0.6197  0.6292
  288MOL0     C39627  -1.298  11.816  10.342  0.2379 -0.3967  0.3505
  288MOL0     C39628  -1.446  11.846  10.307 -0.0868  0.2341 -0.3103
  288MOL0     C39629  -1.553  11.776  10.384 -0.2774  0.0049  0.9186
  288MOL0     O39630  -1.557  11.782  10.528  0.3179 -0.8379  0.4498
  288MOL0     C39631  -1.641  11.717  10.606  0.1566  0.0452 -0.2639
  288MOL0     C39632  -1.648  11.750  10.741 -0.0948 -0.2746 -0.0161
  288MOL0     C39633  -1.739  11.695  10.828  0.7225  0.9418 -0.6381
  288MOL0     C39634  -1.744  11.743  10.970 -0.1896 -0.4976 -0.6145
  288MOL0     C39635  -1.830  11.595  10.775  0.3595 -0.4029  0.2593
  288MOL0     C39636  -1.933  11.519  10.854 -0.3660  0.6307 -0.4604
  288MOL0     O39637  -2.029  11.449  10.789  0.0064 -0.0844 -0.1814
  288MOL0     C39638  -2.130  11.390  10.856 -0.0722 -0.3818  0.0519
  288MOL0     C39639  -2.259  11.448  10.851 -0.2264 -0.3268 -1.3194
  288MOL0     C39640  -2.362  11.400  10.928  0.2817 -0.3953 -0.0258
  288MOL0     C39641  -2.344  11.284  11.013 -0.4603 -0.0430 -0.3742
  288MOL0     O39642  -2.450  11.237  11.091  0.2890  0.5302 -0.2320
  288MOL0     C39643  -2.429  11.136  11.191 -0.0022 -0.6854  0.4055
  288MOL0     C39644  -2.422  11.005  11.106  0.4663  0.2021  0.5181
  288MOL0     C39645  -2.462  10.882  11.197  0.7311 -0.5694  0.1787
  288MOL0     C39646  -2.621  10.871  11.202 -0.3666 -1.5452  0.8297
  288MOL0     C39647  -2.665  10.734  11.268  1.4253 -0.7684  0.9115
  288MOL0     C39648  -2.822  10.716  11.281 -0.7155 -1.4785  0.8170
  288MOL0     C39649  -2.920  10.713  11.161  0.4094  0.2905  0.3207
  288MOL0     C39650  -2.871  10.634  11.042 -0.1933  0.2937 -0.0520
  288MOL0    Cl39651  -2.831  10.463  11.099 -0.4100 -0.5143 -0.0830
  288MOL0     C39652  -2.213  11.226  11.016  0.7669 -0.9570  0.0854
  288MOL0     C39653  -2.111  11.280  10.942  0.1641  0.2013 -0.3290
  288MOL0     O39654  -1.919  11.511  10.976  0.5898 -0.1917  0.0591
  288MOL0     C39655  -1.823  11.566  10.639 -0.2157 -0.3738  0.0796
  288MOL0     C39656  -1.728  11.620  10.556 -0.4077 -0.3727  0.2770
  288MOL0     N39657  -0.998  11.944  10.450  0.5307  0.1543 -0.6591
  288MOL0     N39658  -0.886  11.899  10.486 -0.1604 -0.3755 -0.9134
  288MOL0     C39659  -0.032  11.306   9.998  0.5795  0.1799  0.3212
  288MOL0     C39660  -0.019  11.187   9.932  0.0207 -0.2525 -0.2961
  288MOL0     C39661   0.024  10.915   9.584 -0.7555  0.0742 -0.3972
  288MOL0     C39662   0.025  10.800   9.655 -0.4915  0.8450 -0.4291
  288MOL0     C39663   0.057  10.675   9.592 -0.2426 -0.0725 -0.4689
  288MOL0     C39664   0.098  10.674   9.453  0.8128  0.2041  0.6243
  288MOL0     O39665   0.152  10.568   9.382  0.7156  0.3163  0.5902
  288MOL0     C39666   0.152  10.437   9.448  0.3009 -0.4017  0.0898
  288MOL0     C39667   0.222  10.333   9.357  0.5132 -0.0402  0.0814
  288MOL0     C39668   0.145  10.312   9.230  0.6812  0.3723  0.3585
  288MOL0     C39669   0.175  10.176   9.160  0.5161 -0.2578 -0.6870
  288MOL0     C39670   0.130  10.174   9.018 -0.7441 -0.3892  0.3247
  288MOL0     C39671   0.095  10.149   8.906  0.7076  0.1030  0.3287
  288MOL0     C39672   0.085  10.790   9.384  1.0226 -0.1154  0.8611
  288MOL0     C39673   0.053  10.915   9.450 -0.0806  1.6632 -0.6104
  288MOL0     C39674   0.034  11.042   9.367 -0.0327  0.0107  0.2356
  288MOL0     H39675  -0.338  11.186   9.790 -0.3898  2.9248 -0.9723
  288MOL0     H39676  -0.354  11.386   9.916  0.7772  1.6068  3.3919
  288MOL0     H39677  -0.025  11.529  10.206  1.6029 -2.3298  1.2865
  288MOL0     H39678  -0.089  11.382  10.254 -0.7277 -0.7829  1.0341
  288MOL0     H39679  -0.190  11.587  10.387 -3.9767  0.6107  0.5738
  288MOL0     H39680  -0.249  11.633  10.222  2.6994 -0.9134 -3.2937
  288MOL0     H39681  -0.378  11.416  10.237  0.7047 -4.9837  1.4833
  288MOL0     H39682  -0.320  11.382  10.399  1.5377 -0.9963 -1.0803
  288MOL0     H39683  -0.405  11.599  10.481 -1.2632  2.7894 -1.8847
  288MOL0     H39684  -0.508  11.599  10.338  0.3592  0.3201 -0.7013
  288MOL0     H39685  -0.498  11.356  10.531 -0.2616 -0.6767 -0.2182
  288MOL0     H39686  -0.618  11.407  10.401  3.2916  1.1408 -3.5576
  288MOL0     H39687  -0.699  11.435  10.634 -0.3494  1.3324  1.0745
  288MOL0     H39688  -0.569  11.546  10.665  1.1813 -3.7673  0.2377
  288MOL0     H39689  -0.792  11.583  10.450 -0.9389  0.2456  1.2279
  288MOL0     H39690  -0.650  11.694  10.484 -1.2149  1.5414  0.0790
  288MOL0     H39691  -0.861  11.634  10.686 -1.6092  1.3641 -0.7598
  288MOL0     H39692  -0.740  11.767  10.679 -3.1697  0.8335  2.2918
  288MOL0     H39693  -1.107  11.668  10.591 -1.6712 -0.2183 -0.1065
  288MOL0     H39694  -1.263  12.001  10.461 -3.6790  0.1012 -3.2146
  288MOL0     H39695  -1.308  11.848  10.554 -0.2406 -1.1743 -0.4665
  288MOL0     H39696  -1.246  11.845  10.251 -0.4833  0.2459  0.1358
  288MOL0     H39697  -1.296  11.708  10.360 -2.3905 -0.6234 -0.2137
  288MOL0     H39698  -1.463  11.954  10.318  0.0005  0.2082  0.1024
  288MOL0     H39699  -1.453  11.818  10.202 -2.9045 -0.7482  0.0449
  288MOL0     H39700  -1.655  11.806  10.358  0.0976  1.5312  1.1173
  288MOL0     H39701  -1.542  11.669  10.365 -0.2332  0.5264 -2.7035
  288MOL0     H39702  -1.582  11.821  10.790  0.2873 -1.6216  1.5031
  288MOL0     H39703  -1.721  11.850  10.972 -0.1207 -0.5130  1.0314
  288MOL0     H39704  -1.668  11.701  11.037 -0.4902  2.7568  2.0125
  288MOL0     H39705  -1.842  11.735  11.017 -0.8654 -1.8048 -2.1400
  288MOL0     H39706  -2.267  11.536  10.788 -0.5909  0.0389 -0.7644
  288MOL0     H39707  -2.457  11.451  10.913  0.3989 -0.0665  0.3165
  288MOL0     H39708  -2.336  11.166  11.241 -0.5653  2.5593 -0.3106
  288MOL0     H39709  -2.513  11.126  11.260 -0.1984 -2.0496  0.0039
  288MOL0     H39710  -2.478  11.008  11.012  3.3992  4.2707 -1.3885
  288MOL0     H39711  -2.321  10.983  11.071  0.8469  2.5978 -0.0199
  288MOL0     H39712  -2.424  10.885  11.299  1.0898 -1.9447  0.0932
  288MOL0     H39713  -2.438  10.784  11.155 -0.9075 -0.4440 -1.1836
  288MOL0     H39714  -2.647  10.873  11.096 -0.6063 -0.9288  0.8931
  288MOL0     H39715  -2.676  10.960  11.238 -1.0492 -1.2446 -0.8798
  288MOL0     H39716  -2.614  10.658  11.209  2.4782  1.2434 -0.9414
  288MOL0     H39717  -2.618  10.725  11.366 -0.8870 -0.7587  2.0839
  288MOL0     H39718  -2.854  10.804  11.337 -0.4170 -0.9075  0.1207
  288MOL0     H39719  -2.835  10.632  11.349  3.1685 -2.5488  0.4824
  288MOL0     H39720  -2.942  10.813  11.122 -0.0863 -0.0739 -0.3748
  288MOL0     H39721  -3.017  10.670  11.190 -0.6876  2.8271  0.6631
  288MOL0     H39722  -2.784  10.672  10.990  0.9691 -1.7892  0.2572
  288MOL0     H39723  -2.950  10.640  10.967  0.1558 -0.6839 -0.5115
  288MOL0     H39724  -2.184  11.162  11.100  0.3103 -1.6143 -0.2523
  288MOL0     H39725  -2.010  11.245  10.960  0.0051 -0.2260 -0.2455
  288MOL0     H39726  -1.900  11.507  10.591 -1.9564  3.3317 -2.1341
  288MOL0     H39727  -1.732  11.602  10.449 -1.6256  0.0305  0.2408
  288MOL0     H39728   0.047  11.346  10.061  0.3391  0.9936  0.1115
  288MOL0     H39729   0.080  11.143   9.932  1.1643  2.0192  1.8897
  288MOL0     H39730   0.009  10.792   9.762 -0.7639 -0.0489 -0.5305
  288MOL0     H39731   0.067  10.591   9.659  0.0392  2.2260  2.5502
  288MOL0     H39732   0.208  10.451   9.541 -1.6621  1.1257  1.1496
  288MOL0     H39733   0.048  10.407   9.464  0.1728 -1.5524 -2.4529
  288MOL0     H39734   0.229  10.234   9.403 -0.0197  0.4316  1.2214
  288MOL0     H39735   0.324  10.368   9.344  0.4043  0.0038 -0.6476
  288MOL0     H39736   0.036  10.312   9.243  0.6075 -0.2302 -0.1951
  288MOL0     H39737   0.163  10.398   9.165 -1.9474  0.2066 -0.7152
  288MOL0     H39738   0.127  10.102   9.224  2.9944 -0.0507  1.6045
  288MOL0     H39739   0.282  10.152   9.166  0.1087 -2.1567 -0.4141
  288MOL0     H39740   0.060  10.119   8.809 -1.0142 -0.8359  1.1910
  288MOL0     H39741   0.106  10.789   9.277 -2.3193  0.0760  0.0870
  288MOL0     H39742  -0.073  11.064   9.365 -0.3641 -1.4698  0.4575
  288MOL0     H39743   0.096  11.125   9.400 -0.0511 -0.2485  0.9397
  288MOL0     H39744   0.068  11.012   9.267 -1.6497 -1.6794  0.1347
  289MOL0     O39745   0.536   2.224  11.181 -0.6183 -0.1305  0.1062
  289MOL0     C39746   0.447   2.172  11.245  1.1685  0.0819  0.3785
  289MOL0     O39747   0.416   2.040  11.246 -0.4043  0.1639 -0.7320
  289MOL0     C39748   0.460   1.957  11.148 -0.2087  0.0306 -0.2907
  289MOL0     C39749   0.484   1.995  11.018  0.1081  0.4218  0.3192
  289MOL0     C39750   0.536   1.910  10.919  0.8403  0.7269 -0.4713
  289MOL0     C39751   0.557   1.775  10.949  1.0137  0.5168 -1.1667
  289MOL0     O39752   0.603   1.701  10.846  0.2478  0.5092  0.1617
  289MOL0     C39753   0.579   1.562  10.851  0.1197 -0.5616 -0.6340
  289MOL0     C39754   0.627   1.491  10.721  0.3675 -0.7638 -0.0541
  289MOL0     C39755   0.582   1.351  10.736 -0.6712  0.1699  0.4976
  289MOL0     C39756   0.696   1.263  10.672 -0.1614 -0.3345  0.1788
  289MOL0     C39757   0.667   1.110  10.659 -0.0712 -0.6193  0.7905
  289MOL0     C39758   0.781   1.037  10.588 -0.6661  0.5397  0.5041
  289MOL0     C39759   0.832   1.093  10.453 -0.1770  0.2752  0.6540
  289MOL0     C39760   0.956   1.023  10.418  0.0704 -0.9301 -0.7247
  289MOL0     N39761   1.010   1.060  10.291  0.7305  0.3492 -0.0354
  289MOL0     C39762   0.966   1.003  10.172  1.0420  1.0908  0.3857
  289MOL0     C39763   1.038   1.067  10.081 -0.9677 -0.4009 -0.1434
  289MOL0     C39764   1.034   1.053   9.930 -0.8272  0.0172  0.9541
  289MOL0     C39765   0.897   1.095   9.865  0.1278 -0.5511 -0.0995
  289MOL0     C39766   0.868   1.250   9.874 -0.3748  0.1122  0.2508
  289MOL0     C39767   0.743   1.274   9.796 -0.6622  0.6846 -0.7237
  289MOL0     O39768   0.628   1.242   9.868 -0.6457  0.6056 -0.8386
  289MOL0     C39769   0.506   1.231   9.804 -0.1789 -0.7229  0.0100
  289MOL0     C39770   0.388   1.191   9.874  0.0428 -0.2234  0.9610
  289MOL0     C39771   0.257   1.183   9.807  0.0076 -0.2681  0.1243
  289MOL0     C39772   0.144   1.154   9.902  0.0013  0.0179 -0.1193
  289MOL0     C39773   0.249   1.209   9.666  0.4453 -0.6428 -1.2305
  289MOL0     C39774   0.127   1.189   9.580  0.8460  0.3517 -0.5386
  289MOL0     O39775   0.010   1.244   9.623 -0.5985 -0.6834 -0.4393
  289MOL0     C39776  -0.100   1.192   9.564  0.6580 -0.7269 -0.4000
  289MOL0     C39777  -0.149   1.081   9.617 -0.0872 -0.5038 -0.4341
  289MOL0     C39778  -0.276   1.032   9.583 -0.5184 -0.3701 -0.0492
  289MOL0     C39779  -0.348   1.113   9.495 -0.2027  0.1177  0.3322
  289MOL0     O39780  -0.470   1.080   9.447 -0.2086 -0.1448 -0.2861
  289MOL0     C39781  -0.550   0.987   9.516 -0.3249  0.1306 -0.1987
  289MOL0     C39782  -0.657   1.058   9.597 -0.1625 -0.7679 -0.1487
  289MOL0     C39783  -0.723   0.985   9.714 -0.2413  0.0454 -0.2226
  289MOL0     C39784  -0.776   0.840   9.685 -0.0769  0.2016  0.1405
  289MOL0     C39785  -0.884   0.824   9.576  0.3522  0.4922  0.2358
  289MOL0     C39786  -1.014   0.906   9.601  0.3349 -0.5514 -0.1291
  289MOL0     C39787  -1.072   0.898   9.739  0.2033 -0.1756  0.2696
  289MOL0     C39788  -1.219   0.943   9.751  0.2569  0.2849 -0.2891
  289MOL0    Cl39789  -1.315   0.817   9.683  0.0647  0.3628  0.2066
  289MOL0     C39790  -0.301   1.233   9.451  0.3397 -1.0367  0.0612
  289MOL0     C39791  -0.171   1.274   9.480 -0.3167  0.6014  0.3804
  289MOL0     O39792   0.143   1.132   9.475 -0.3632 -0.8813  0.0905
  289MOL0     C39793   0.369   1.238   9.599  0.2536  0.0692  1.0638
  289MOL0     C39794   0.489   1.253   9.669 -0.4436  0.5514 -0.1449
  289MOL0     N39795   1.136   1.145  10.149  0.0043  0.3766  0.7814
  289MOL0     N39796   1.116   1.143  10.271 -0.2242  0.1017 -0.6896
  289MOL0     C39797   0.526   1.735  11.081  0.7580 -0.2221 -0.1437
  289MOL0     C39798   0.477   1.824  11.173  0.0678  0.8331  0.2636
  289MOL0     C39799   0.375   2.260  11.347  0.4156  0.0820  0.7392
  289MOL0     C39800   0.443   2.375  11.396 -0.1692 -0.5463  0.4106
  289MOL0     C39801   0.394   2.454  11.488  0.7273 -0.0815  0.0638
  289MOL0     C39802   0.268   2.431  11.541  0.3772  0.0454  0.4025
  289MOL0     O39803   0.219   2.530  11.628  0.1187 -0.5778  0.2293
  289MOL0     C39804   0.104   2.503  11.710 -0.0210  1.4971  0.6869
  289MOL0     C39805   0.049   2.619  11.786  0.6013 -0.0610  0.1700
  289MOL0     C39806   0.150   2.656  11.892  0.1555 -0.8113  0.3392
  289MOL0     C39807   0.091   2.766  11.985  1.1566 -0.0574 -0.1084
  289MOL0     C39808   0.196   2.833  12.061  0.1016 -1.0738  0.8201
  289MOL0     C39809   0.292   2.871  12.129  1.0710 -0.0840 -0.0153
  289MOL0     C39810   0.198   2.327  11.497  0.1485  1.0589 -0.5901
  289MOL0     C39811   0.250   2.234  11.404  0.8107 -0.7950 -0.2189
  289MOL0     C39812   0.145   2.129  11.362 -0.1707 -0.4484 -0.2373
  289MOL0     H39813   0.460   2.097  10.990  0.7121  0.5655  0.3247
  289MOL0     H39814   0.559   1.931  10.816 -0.7232 -4.7078 -2.2931
  289MOL0     H39815   0.472   1.552  10.872  0.5759 -0.7754  1.9370
  289MOL0     H39816   0.618   1.522  10.945 -3.3034  1.4605  1.9010
  289MOL0     H39817   0.590   1.533  10.627  1.9102  0.2795 -0.2331
  289MOL0     H39818   0.736   1.504  10.717  0.6165 -2.8710 -1.1543
  289MOL0     H39819   0.552   1.327  10.839 -0.7017 -0.3904  0.3589
  289MOL0     H39820   0.496   1.338  10.671 -0.5584  0.7097  0.2397
  289MOL0     H39821   0.711   1.300  10.570 -2.0969 -0.4617 -0.1863
  289MOL0     H39822   0.787   1.294  10.724 -1.3407  0.3325  1.9416
  289MOL0     H39823   0.577   1.119  10.597  1.5094 -3.4930 -2.2462
  289MOL0     H39824   0.652   1.057  10.753 -0.8363 -2.0796 -0.1189
  289MOL0     H39825   0.870   1.027  10.651 -1.3255 -2.9640  1.1310
  289MOL0     H39826   0.757   0.931  10.575  4.2672 -0.6192 -1.4163
  289MOL0     H39827   0.867   1.196  10.462 -1.5811  0.9461 -1.0360
  289MOL0     H39828   0.757   1.088  10.374 -0.2022 -2.3635  0.7498
  289MOL0     H39829   1.031   1.043  10.495  0.7601 -1.1717 -1.3176
  289MOL0     H39830   0.945   0.914  10.412 -0.1121 -1.3335  3.6970
  289MOL0     H39831   0.892   0.925  10.161  2.3335 -0.0754 -0.2910
  289MOL0     H39832   1.045   0.946   9.910 -4.6979 -1.0631  3.5196
  289MOL0     H39833   1.112   1.122   9.896 -0.8641  0.0819  1.0027
  289MOL0     H39834   0.899   1.070   9.759  0.5579  1.9549 -0.7477
  289MOL0     H39835   0.816   1.035   9.909  2.4000 -1.3477  3.4822
  289MOL0     H39836   0.850   1.290   9.975 -0.6456  2.2975 -0.6057
  289MOL0     H39837   0.947   1.308   9.827 -0.0592  0.4765  1.2134
  289MOL0     H39838   0.748   1.379   9.764 -2.9358  2.1969  3.1318
  289MOL0     H39839   0.748   1.209   9.709  2.1999 -1.1163  0.6368
  289MOL0     H39840   0.406   1.165   9.977 -2.3384 -0.7272  1.3037
  289MOL0     H39841   0.175   1.069   9.964  2.3616  0.2359 -0.8947
  289MOL0     H39842   0.064   1.112   9.840 -0.6425  0.4504  0.4028
  289MOL0     H39843   0.105   1.239   9.958  1.2115 -0.1973  1.1155
  289MOL0     H39844  -0.083   1.027   9.684  0.8279  1.9217  0.7642
  289MOL0     H39845  -0.296   0.930   9.611  0.5512 -1.4478 -2.8029
  289MOL0     H39846  -0.597   0.928   9.437  3.2956 -2.3533 -0.7456
  289MOL0     H39847  -0.491   0.923   9.582 -0.5376 -1.1393 -1.1970
  289MOL0     H39848  -0.614   1.153   9.629  2.2785 -1.9734  0.3850
  289MOL0     H39849  -0.735   1.082   9.524  0.0795 -0.6168 -0.3604
  289MOL0     H39850  -0.807   1.033   9.765  0.1470 -0.0310  0.4976
  289MOL0     H39851  -0.645   0.972   9.790  0.8196  1.1126 -1.1024
  289MOL0     H39852  -0.811   0.794   9.778  0.2323  2.5959  1.5079
  289MOL0     H39853  -0.695   0.777   9.647 -1.2490 -1.6708  0.5687
  289MOL0     H39854  -0.845   0.856   9.479 -0.7820 -0.3517 -0.5334
  289MOL0     H39855  -0.923   0.722   9.566 -0.1651  0.7574 -0.5758
  289MOL0     H39856  -1.098   0.881   9.536 -0.4010  0.7009  0.3115
  289MOL0     H39857  -0.981   1.008   9.582  2.0428 -0.4064  2.9306
  289MOL0     H39858  -1.005   0.960   9.800 -1.2165 -0.8738  2.6436
  289MOL0     H39859  -1.069   0.805   9.795  0.8860  0.7699  1.8937
  289MOL0     H39860  -1.227   1.044   9.712  2.0253  0.9542  0.9355
  289MOL0     H39861  -1.250   0.948   9.856  0.3543 -3.4194  0.0429
  289MOL0     H39862  -0.358   1.299   9.387  2.4767 -0.6524 -1.5885
  289MOL0     H39863  -0.127   1.371   9.465  0.9568  0.2674  1.7051
  289MOL0     H39864   0.370   1.252   9.491 -1.3286  1.7877  1.2232
  289MOL0     H39865   0.572   1.263   9.599 -1.7194 -0.9114 -1.9837
  289MOL0     H39866   0.544   1.630  11.103  4.5485  0.4287  0.4676
  289MOL0     H39867   0.444   1.801  11.274 -2.8288 -2.3784 -1.1921
  289MOL0     H39868   0.539   2.402  11.354 -2.1295  1.7711 -3.0875
  289MOL0     H39869   0.454   2.542  11.510 -1.5294  2.5049 -3.0523
  289MOL0     H39870   0.022   2.484  11.640  0.0193  2.7249  0.2895
  289MOL0     H39871   0.112   2.408  11.764 -0.6794  0.9563 -0.1343
  289MOL0     H39872  -0.046   2.587  11.831  0.1926  2.2393  1.0906
  289MOL0     H39873   0.039   2.702  11.716  4.6599 -0.7176 -1.4431
  289MOL0     H39874   0.182   2.567  11.948  2.1535  0.6536  1.6289
  289MOL0     H39875   0.231   2.698  11.834 -1.2903 -1.1796 -2.0887
  289MOL0     H39876   0.031   2.705  12.053 -2.5005  3.2097 -0.0683
  289MOL0     H39877   0.030   2.841  11.933  1.1633  1.0527  1.4191
  289MOL0     H39878   0.349   2.911  12.210  1.3348 -0.3679 -0.0553
  289MOL0     H39879   0.101   2.306  11.541  1.5611 -3.1642  0.9626
  289MOL0     H39880   0.186   2.044  11.306  3.9203  1.1011  0.0184
  289MOL0     H39881   0.091   2.096  11.450  2.6160 -0.3565  1.6393
  289MOL0     H39882   0.074   2.184  11.299 -0.8338 -0.4493  0.4918
  290MOL0     O39883   7.343   2.512   8.988 -0.1945  0.2572  0.3642
  290MOL0     C39884   7.304   2.432   9.072  0.0341 -0.3190  0.2765
  290MOL0     O39885   7.386   2.378   9.165 -0.4846 -0.9150  0.1647
  290MOL0     C39886   7.513   2.373   9.118  0.1026  0.7088 -0.6976
  290MOL0     C39887   7.606   2.461   9.159 -0.9745 -0.1399 -0.2586
  290MOL0     C39888   7.745   2.434   9.131  0.6552  0.0452  0.2896
  290MOL0     C39889   7.787   2.328   9.051  0.2308  0.1808  0.2807
  290MOL0     O39890   7.915   2.298   9.022  0.3661 -0.2025  0.1145
  290MOL0     C39891   7.937   2.257   8.888 -0.3228 -0.1008  1.5647
  290MOL0     C39892   8.078   2.307   8.848  0.3221 -0.1762 -0.2416
  290MOL0     C39893   8.079   2.456   8.833 -0.6940 -0.6840  0.2379
  290MOL0     C39894   8.227   2.518   8.831 -0.6272  0.1207  0.6932
  290MOL0     C39895   8.238   2.679   8.820 -0.5760  0.5162  0.0824
  290MOL0     C39896   8.154   2.748   8.934 -0.0947 -0.6245  1.3367
  290MOL0     C39897   8.177   2.701   9.076 -0.4604 -0.0376  1.3186
  290MOL0     C39898   8.154   2.802   9.189  0.4024  0.3767 -0.0562
  290MOL0     N39899   8.179   2.723   9.312  0.7627  0.4502  0.2323
  290MOL0     C39900   8.293   2.735   9.387 -1.1344  0.6070 -0.1467
  290MOL0     C39901   8.271   2.657   9.500  0.0361 -0.6851 -0.1244
  290MOL0     C39902   8.371   2.632   9.603 -0.4925 -0.2807 -0.1099
  290MOL0     C39903   8.344   2.500   9.670  0.5052 -0.0779  0.3365
  290MOL0     C39904   8.473   2.456   9.736 -0.5174 -0.3870 -0.8060
  290MOL0     C39905   8.482   2.318   9.794  0.1118 -0.4012  0.1742
  290MOL0     O39906   8.611   2.295   9.863  0.6035 -1.0872 -0.2482
  290MOL0     C39907   8.668   2.171   9.856 -0.2682  0.3702  0.6381
  290MOL0     C39908   8.803   2.165   9.872  0.9351 -0.9071 -1.0483
  290MOL0     C39909   8.875   2.044   9.854  0.2373  0.2742 -0.5821
  290MOL0     C39910   9.024   2.042   9.859  0.0123 -0.6701 -0.3317
  290MOL0     C39911   8.802   1.925   9.818 -0.6153 -0.1060 -0.5498
  290MOL0     C39912   8.874   1.801   9.787 -1.1866 -0.8780 -0.1271
  290MOL0     O39913   8.912   1.794   9.660  0.0935 -1.1428 -0.4336
  290MOL0     C39914   8.937   1.671   9.615  0.7495 -0.3374  0.4460
  290MOL0     C39915   8.848   1.566   9.601  0.1925 -0.1197  0.2222
  290MOL0     C39916   8.889   1.442   9.541  0.5390 -0.2718 -0.0713
  290MOL0     C39917   9.026   1.420   9.517  0.2607  0.2929 -0.5299
  290MOL0     O39918   9.090   1.298   9.470  0.4442 -0.6746  0.7166
  290MOL0     C39919   9.004   1.185   9.457 -0.1455  0.2704 -0.2045
  290MOL0     C39920   9.092   1.076   9.394  0.3796  0.2861 -0.7062
  290MOL0     C39921   9.161   0.981   9.500  0.3079 -0.4802  1.0431
  290MOL0     C39922   9.250   0.884   9.424  0.0083  0.2118 -0.3964
  290MOL0     C39923   9.170   0.783   9.346 -0.6609 -0.2899 -0.0994
  290MOL0     C39924   9.270   0.683   9.283  0.1119 -0.8705  0.3158
  290MOL0     C39925   9.199   0.593   9.189  0.2163  0.8615 -0.4967
  290MOL0     C39926   9.289   0.513   9.093  1.0332  0.0787  0.4473
  290MOL0    Cl39927   9.173   0.407   8.997 -0.0960  1.1259  0.2281
  290MOL0     C39928   9.117   1.521   9.537  0.2949  0.2722 -0.8066
  290MOL0     C39929   9.072   1.646   9.584 -0.3578  0.6156 -0.8445
  290MOL0     O39930   8.888   1.703   9.867  0.0185 -0.2581 -0.0430
  290MOL0     C39931   8.661   1.930   9.803  0.2617 -0.8793 -0.1390
  290MOL0     C39932   8.602   2.055   9.823  0.1447  0.1472  0.9517
  290MOL0     N39933   8.137   2.619   9.493  0.6758 -0.0617 -0.4577
  290MOL0     N39934   8.094   2.636   9.370 -0.1261 -0.8612  0.0070
  290MOL0     C39935   7.684   2.242   9.007  0.2118 -0.3250  0.0701
  290MOL0     C39936   7.547   2.263   9.044 -0.9789  0.0591 -0.1433
  290MOL0     C39937   7.160   2.387   9.079 -0.3342 -0.4694  0.8161
  290MOL0     C39938   7.130   2.286   9.168 -0.2481  1.0820  0.4697
  290MOL0     C39939   7.000   2.242   9.198  0.5258 -0.6597 -0.0298
  290MOL0     C39940   6.893   2.297   9.127 -0.7276 -0.4885 -0.3460
  290MOL0     O39941   6.761   2.286   9.149  0.1832 -0.4667  0.0017
  290MOL0     C39942   6.694   2.162   9.194  0.3957 -0.6735  0.5077
  290MOL0     C39943   6.734   2.034   9.126 -0.6946  0.6691  0.3446
  290MOL0     C39944   6.688   1.916   9.214 -0.2827  0.6674  0.5175
  290MOL0     C39945   6.738   1.780   9.155 -0.8318  0.4212  0.4098
  290MOL0     C39946   6.718   1.681   9.270  1.0433  0.2167 -0.4797
  290MOL0     C39947   6.702   1.581   9.332 -0.1148 -0.2032  0.5201
  290MOL0     C39948   6.918   2.404   9.030  0.0616  0.5973 -0.1347
  290MOL0     C39949   7.048   2.440   9.005 -0.2066  0.9605  0.7758
  290MOL0     C39950   7.066   2.552   8.895 -0.5128  0.0400  1.1605
  290MOL0     H39951   7.584   2.551   9.216  1.0000  0.4215 -0.2878
  290MOL0     H39952   7.833   2.488   9.163  2.7279 -2.8418 -0.1404
  290MOL0     H39953   7.871   2.304   8.815 -2.9884 -3.2980  1.7173
  290MOL0     H39954   7.932   2.148   8.885  1.8518 -0.2334 -0.7658
  290MOL0     H39955   8.150   2.264   8.919 -0.0559 -2.7768 -1.2963
  290MOL0     H39956   8.124   2.268   8.756  1.1029 -2.4850  1.0360
  290MOL0     H39957   8.027   2.495   8.745  1.2888 -0.6840 -0.9961
  290MOL0     H39958   8.027   2.509   8.914  0.7026  1.0247  0.0901
  290MOL0     H39959   8.279   2.490   8.923  1.0399 -0.7025 -0.4600
  290MOL0     H39960   8.291   2.481   8.751  2.8214  2.4587  2.1619
  290MOL0     H39961   8.179   2.710   8.733 -0.6299 -2.7196 -1.1799
  290MOL0     H39962   8.344   2.703   8.823 -0.0587 -1.4627  3.9878
  290MOL0     H39963   8.166   2.856   8.925 -1.7939 -0.5459 -1.1075
  290MOL0     H39964   8.048   2.733   8.909  0.4137  0.0328 -1.5972
  290MOL0     H39965   8.281   2.668   9.080 -0.5748 -0.4741  0.7724
  290MOL0     H39966   8.111   2.615   9.094 -1.0383 -0.1981 -1.2493
  290MOL0     H39967   8.224   2.885   9.176 -0.2118  0.6588 -1.8976
  290MOL0     H39968   8.054   2.841   9.205 -1.3866 -2.8337 -2.1538
  290MOL0     H39969   8.389   2.775   9.353 -0.4700 -1.7138 -1.1870
  290MOL0     H39970   8.359   2.711   9.677 -3.3803  1.4373 -2.2166
  290MOL0     H39971   8.473   2.636   9.563 -0.7147  1.1280 -0.5762
  290MOL0     H39972   8.264   2.504   9.744 -1.8557  0.6111 -2.0966
  290MOL0     H39973   8.309   2.436   9.588  3.7334  1.6200 -2.6530
  290MOL0     H39974   8.559   2.471   9.670 -0.6068  1.9443 -0.4880
  290MOL0     H39975   8.478   2.523   9.822 -2.8457  0.0469 -0.9217
  290MOL0     H39976   8.402   2.295   9.864 -0.9123 -0.4329 -0.9811
  290MOL0     H39977   8.474   2.260   9.702 -2.7102  0.9346 -0.5350
  290MOL0     H39978   8.844   2.261   9.900  0.1138 -0.9477  0.3793
  290MOL0     H39979   9.075   2.064   9.954  0.9311 -2.1074 -0.4543
  290MOL0     H39980   9.057   2.117   9.787  0.6887  0.2937  0.9445
  290MOL0     H39981   9.074   1.948   9.833  0.1484 -0.0579 -2.4385
  290MOL0     H39982   8.743   1.581   9.622  0.0227  0.0517 -0.7137
  290MOL0     H39983   8.822   1.357   9.552  0.4490 -0.1851  0.0545
  290MOL0     H39984   8.968   1.144   9.552 -1.5585 -1.6566 -1.4812
  290MOL0     H39985   8.922   1.203   9.387  2.0767 -1.5084 -3.5815
  290MOL0     H39986   9.033   1.012   9.328 -0.0609 -0.0938  0.0414
  290MOL0     H39987   9.159   1.125   9.323 -1.7607 -0.1637 -3.1943
  290MOL0     H39988   9.090   0.933   9.568 -1.0903  1.4226  1.0031
  290MOL0     H39989   9.222   1.053   9.555 -2.0440  1.6648  1.0314
  290MOL0     H39990   9.309   0.844   9.508  1.7558 -0.4173 -1.8456
  290MOL0     H39991   9.319   0.938   9.358  1.7189 -0.6367  0.6162
  290MOL0     H39992   9.098   0.728   9.407  1.4340 -1.9621  1.0506
  290MOL0     H39993   9.126   0.837   9.262  0.2883 -0.8242 -0.9823
  290MOL0     H39994   9.324   0.630   9.362  1.2600  0.2173  0.3017
  290MOL0     H39995   9.348   0.739   9.231  2.0912 -2.8593  0.9817
  290MOL0     H39996   9.128   0.638   9.119  2.4268  2.9836 -1.5352
  290MOL0     H39997   9.153   0.512   9.247  0.7403 -0.5040 -1.9085
  290MOL0     H39998   9.363   0.454   9.147  0.3599 -0.7278  0.5031
  290MOL0     H39999   9.337   0.586   9.026  1.6056 -0.5019  0.2101
  290MOL0     H40000   9.222   1.501   9.515 -0.6839 -2.8276 -3.3161
  290MOL0     H40001   9.148   1.715   9.617 -1.3084  0.2584  2.4897
  290MOL0     H40002   8.599   1.854   9.758 -2.2789  2.2708 -2.4737
  290MOL0     H40003   8.496   2.059   9.798  0.6232 -2.8602 -2.4169
  290MOL0     H40004   7.705   2.163   8.936 -2.3445 -1.1341  0.1022
  290MOL0     H40005   7.482   2.190   8.997 -0.8270  0.4509 -0.9884
  290MOL0     H40006   7.211   2.242   9.225  2.0849  0.5430 -2.9380
  290MOL0     H40007   6.983   2.162   9.269 -0.9401 -1.0357 -0.7626
  290MOL0     H40008   6.710   2.166   9.302  0.9020 -1.6782  0.4823
  290MOL0     H40009   6.588   2.184   9.177  0.4288 -0.6530  0.3322
  290MOL0     H40010   6.842   2.024   9.112 -0.4414 -0.7004  2.7415
  290MOL0     H40011   6.677   2.029   9.033 -3.7101 -1.1854  2.1167
  290MOL0     H40012   6.746   1.927   9.306  5.2685 -1.2820 -2.2733
  290MOL0     H40013   6.580   1.929   9.224 -0.8922 -0.7280 -2.8872
  290MOL0     H40014   6.845   1.780   9.131 -1.0776 -0.5302 -0.8025
  290MOL0     H40015   6.685   1.753   9.063  0.4480  2.7607 -1.1311
  290MOL0     H40016   6.686   1.483   9.371 -0.5614  0.0406  0.9585
  290MOL0     H40017   6.832   2.436   8.972  0.6225 -0.1945 -1.4475
  290MOL0     H40018   6.965   2.590   8.876 -1.5690 -2.9964  0.1952
  290MOL0     H40019   7.123   2.642   8.921  4.4498 -1.9063 -1.6786
  290MOL0     H40020   7.121   2.525   8.805  0.8359  0.5179  1.7995
  291MOL0     O40021   3.504   6.379   2.384  0.7389  0.3881  0.7934
  291MOL0     C40022   3.604   6.391   2.309  0.9784  0.3547 -0.0253
  291MOL0     O40023   3.622   6.492   2.223  0.1314 -0.2465  0.5269
  291MOL0     C40024   3.537   6.597   2.234 -0.0897 -0.1827  0.1549
  291MOL0     C40025   3.405   6.600   2.203 -0.2777  0.3513 -0.1629
  291MOL0     C40026   3.335   6.721   2.207  0.2174 -0.9830 -0.0227
  291MOL0     C40027   3.389   6.838   2.264 -0.3735 -1.1883  0.2507
  291MOL0     O40028   3.316   6.959   2.275 -0.5453  0.2658 -0.2508
  291MOL0     C40029   3.360   7.055   2.369  0.0689  1.0906  0.0479
  291MOL0     C40030   3.258   7.176   2.379 -0.1358  0.4453 -0.2283
  291MOL0     C40031   3.340   7.310   2.387  0.0714 -0.3333 -1.2459
  291MOL0     C40032   3.399   7.339   2.527 -0.5603 -0.7718  0.7347
  291MOL0     C40033   3.466   7.479   2.542  0.6908 -0.0666  0.4408
  291MOL0     C40034   3.593   7.493   2.465 -0.1395  0.9142  0.0851
  291MOL0     C40035   3.720   7.430   2.529  0.5073 -0.7854  0.1740
  291MOL0     C40036   3.841   7.409   2.432  0.1856  0.2025  0.3075
  291MOL0     N40037   3.791   7.318   2.331  0.1903  0.4754 -1.1455
  291MOL0     C40038   3.764   7.347   2.200  0.4327 -0.0761 -0.3746
  291MOL0     C40039   3.768   7.224   2.141  0.2548 -1.0126 -0.1456
  291MOL0     C40040   3.775   7.196   1.995 -0.5418 -0.4224  0.1401
  291MOL0     C40041   3.689   7.080   1.946  0.3316 -0.1875 -0.4541
  291MOL0     C40042   3.541   7.084   1.994  0.6553 -0.5877  0.7033
  291MOL0     C40043   3.475   6.948   1.961 -0.2268  0.2670  0.7943
  291MOL0     O40044   3.432   6.941   1.828 -0.2476  0.3138  0.8510
  291MOL0     C40045   3.353   6.836   1.781 -0.0868 -0.1242  0.2202
  291MOL0     C40046   3.300   6.843   1.651  0.2650  0.2941  1.1103
  291MOL0     C40047   3.212   6.748   1.590  0.1681 -0.2848  0.2109
  291MOL0     C40048   3.166   6.766   1.445 -0.6061 -0.8893 -0.4812
  291MOL0     C40049   3.191   6.631   1.667  0.1814  0.6910 -0.5079
  291MOL0     C40050   3.097   6.522   1.627  0.0798 -0.4074 -0.6362
  291MOL0     O40051   3.036   6.450   1.723 -0.3462 -0.9943 -0.3004
  291MOL0     C40052   2.925   6.386   1.702 -0.4920  0.0771  0.6642
  291MOL0     C40053   2.830   6.422   1.603 -0.7196  0.4723  0.7345
  291MOL0     C40054   2.713   6.346   1.580 -1.1266 -0.1880  0.7048
  291MOL0     C40055   2.699   6.220   1.644  0.0389 -0.2150  0.1128
  291MOL0     O40056   2.610   6.113   1.622 -0.1450 -0.5166 -0.5459
  291MOL0     C40057   2.521   6.118   1.514  0.7592 -0.3788 -0.0105
  291MOL0     C40058   2.465   5.980   1.475  0.1896 -0.2406  0.1804
  291MOL0     C40059   2.355   5.933   1.571  0.0196  0.4038 -0.7626
  291MOL0     C40060   2.310   5.786   1.549  0.4271  0.3214 -0.2255
  291MOL0     C40061   2.220   5.733   1.660 -0.8157 -0.4578  0.4034
  291MOL0     C40062   2.169   5.584   1.636  0.2590  0.8652  0.3438
  291MOL0     C40063   2.290   5.486   1.644 -0.6783  0.2095  0.1450
  291MOL0     C40064   2.249   5.336   1.628 -0.5057  0.4323 -1.0076
  291MOL0    Cl40065   2.187   5.254   1.772  0.0711  0.2671  0.0528
  291MOL0     C40066   2.790   6.190   1.749  0.6267  0.9814  0.7350
  291MOL0     C40067   2.908   6.265   1.776 -0.0524  0.6083  0.3449
  291MOL0     O40068   3.088   6.499   1.504 -0.8828  0.1546 -0.5490
  291MOL0     C40069   3.238   6.627   1.805  0.6452  0.2812  0.5043
  291MOL0     C40070   3.315   6.724   1.863  0.0036 -0.3785  0.0289
  291MOL0     N40071   3.800   7.135   2.240 -0.1415 -0.0072 -0.6126
  291MOL0     N40072   3.818   7.189   2.360 -0.2673 -0.2161  0.3640
  291MOL0     C40073   3.525   6.827   2.296  0.0932 -0.1505 -0.9376
  291MOL0     C40074   3.596   6.709   2.285 -0.5355  0.2023  0.3549
  291MOL0     C40075   3.711   6.279   2.315 -0.5259  0.0214  0.3020
  291MOL0     C40076   3.796   6.267   2.203 -0.1448  1.0345  0.3900
  291MOL0     C40077   3.889   6.163   2.193 -0.7170  0.3930 -0.3990
  291MOL0     C40078   3.925   6.081   2.307 -0.3108 -0.2887  0.1989
  291MOL0     O40079   4.020   5.979   2.318 -0.5139  0.8305  0.5863
  291MOL0     C40080   4.087   5.932   2.201  0.0621 -0.2670 -0.2767
  291MOL0     C40081   4.206   6.018   2.150 -0.0584 -0.0547  0.3235
  291MOL0     C40082   4.309   6.051   2.257  0.2630  0.3577 -0.0274
  291MOL0     C40083   4.445   6.108   2.203 -0.6563  0.4238 -0.1600
  291MOL0     C40084   4.514   6.156   2.322 -0.0827 -0.2729  0.4446
  291MOL0     C40085   4.564   6.218   2.413  0.1040 -0.3681 -0.5161
  291MOL0     C40086   3.851   6.102   2.426  0.8604 -0.1819  0.2236
  291MOL0     C40087   3.741   6.200   2.430 -0.4190  0.8785  0.0245
  291MOL0     C40088   3.666   6.210   2.559  0.0583  0.0149 -0.1525
  291MOL0     H40089   3.366   6.512   2.152  3.1386 -0.6978 -1.2484
  291MOL0     H40090   3.235   6.715   2.165 -0.7614 -3.0197  2.3670
  291MOL0     H40091   3.457   7.097   2.337  0.1021  0.4508 -0.7397
  291MOL0     H40092   3.376   7.025   2.473  0.6636  1.5269  0.0925
  291MOL0     H40093   3.197   7.173   2.288 -0.8738  1.1884  0.2196
  291MOL0     H40094   3.200   7.164   2.471  0.8052  0.9137  0.4438
  291MOL0     H40095   3.416   7.296   2.310  0.6940 -1.7289 -0.4135
  291MOL0     H40096   3.282   7.397   2.357  0.0581  0.2452  0.3435
  291MOL0     H40097   3.315   7.335   2.596 -1.3033 -0.8170 -0.1588
  291MOL0     H40098   3.474   7.262   2.549  1.3472  1.1043  1.2344
  291MOL0     H40099   3.480   7.511   2.646 -0.9840  2.8636 -0.1357
  291MOL0     H40100   3.399   7.552   2.496  1.1126 -0.7213 -1.2743
  291MOL0     H40101   3.576   7.460   2.362 -0.3674  0.5924  0.2263
  291MOL0     H40102   3.618   7.599   2.454 -2.1426  1.3698 -0.4554
  291MOL0     H40103   3.694   7.327   2.555  0.0614 -0.1538  2.5008
  291MOL0     H40104   3.732   7.493   2.618  0.1812  2.2457 -1.8037
  291MOL0     H40105   3.866   7.505   2.384 -0.7771  0.7157  0.7879
  291MOL0     H40106   3.923   7.372   2.493 -0.4819  0.1606  1.2048
  291MOL0     H40107   3.738   7.442   2.154 -4.3168 -0.8428  0.2536
  291MOL0     H40108   3.878   7.172   1.969  0.5060 -0.0204  3.4596
  291MOL0     H40109   3.736   7.282   1.939 -1.3405 -2.0402 -1.9577
  291MOL0     H40110   3.686   7.079   1.837 -4.0711  2.3502 -0.6184
  291MOL0     H40111   3.738   6.991   1.984  1.3472  0.0420 -1.1701
  291MOL0     H40112   3.524   7.105   2.100  2.6382  2.4680  0.5614
  291MOL0     H40113   3.477   7.156   1.943 -1.3133 -1.7613  1.4088
  291MOL0     H40114   3.553   6.872   1.968  0.5755  0.3238 -4.2569
  291MOL0     H40115   3.392   6.927   2.029  0.0571 -3.1485  0.2305
  291MOL0     H40116   3.345   6.922   1.591  2.9763 -0.9332  1.3944
  291MOL0     H40117   3.179   6.869   1.410  0.3010 -0.8014  0.0794
  291MOL0     H40118   3.059   6.746   1.455 -0.6225 -0.4305  0.3701
  291MOL0     H40119   3.223   6.696   1.384  0.6526  0.1687 -0.5750
  291MOL0     H40120   2.851   6.522   1.567 -0.2664  0.5016  1.0795
  291MOL0     H40121   2.649   6.384   1.501 -0.9207 -1.1118  0.0827
  291MOL0     H40122   2.437   6.183   1.541 -1.1062 -1.6384 -2.4159
  291MOL0     H40123   2.581   6.166   1.437  1.8509 -2.3833 -0.4745
  291MOL0     H40124   2.420   5.980   1.375  1.8857  1.9752 -0.6796
  291MOL0     H40125   2.549   5.910   1.482  0.1820 -0.0744  2.6940
  291MOL0     H40126   2.265   5.996   1.564 -0.8782 -0.7591 -0.1495
  291MOL0     H40127   2.394   5.939   1.673  2.1364 -0.0904 -1.4951
  291MOL0     H40128   2.395   5.718   1.553 -1.2382 -1.8041  2.2639
  291MOL0     H40129   2.253   5.776   1.456  0.7882  2.5301 -0.7484
  291MOL0     H40130   2.272   5.747   1.754 -0.2752 -0.0922  0.0494
  291MOL0     H40131   2.131   5.796   1.668 -0.6261 -0.4238  2.6775
  291MOL0     H40132   2.124   5.561   1.539  1.6687 -2.3814  0.3166
  291MOL0     H40133   2.098   5.544   1.710  0.3820 -1.4782 -0.6932
  291MOL0     H40134   2.345   5.497   1.738  3.2415 -0.7703 -1.8025
  291MOL0     H40135   2.358   5.490   1.559 -0.4516 -1.6969  0.2021
  291MOL0     H40136   2.342   5.281   1.609  0.4806  2.0843 -1.1150
  291MOL0     H40137   2.197   5.311   1.535  0.5080  0.5265 -1.6069
  291MOL0     H40138   2.790   6.093   1.798  1.0676 -0.3975 -1.8104
  291MOL0     H40139   2.983   6.223   1.842 -0.0710 -1.9649 -1.0945
  291MOL0     H40140   3.213   6.545   1.872 -0.5091 -0.3304 -0.6390
  291MOL0     H40141   3.348   6.700   1.964 -1.2193 -0.9985  0.3049
  291MOL0     H40142   3.580   6.916   2.328 -0.7408 -1.0182  3.6975
  291MOL0     H40143   3.699   6.694   2.314  0.0296  0.5388 -1.3577
  291MOL0     H40144   3.781   6.323   2.111 -1.9315  0.5970  0.3800
  291MOL0     H40145   3.964   6.170   2.115  0.0398  3.6643  0.4518
  291MOL0     H40146   4.123   5.830   2.216 -2.6492 -0.8609  3.6718
  291MOL0     H40147   4.009   5.926   2.125 -0.7024  2.2429  0.2383
  291MOL0     H40148   4.170   6.116   2.118  1.0531 -0.9387 -4.4236
  291MOL0     H40149   4.252   5.964   2.067 -1.5992 -2.9008  1.1780
  291MOL0     H40150   4.261   6.123   2.323  0.2253 -0.6921  1.1268
  291MOL0     H40151   4.333   5.962   2.317  1.6963  1.1698  0.6731
  291MOL0     H40152   4.432   6.191   2.133  0.7484 -0.1838 -1.1813
  291MOL0     H40153   4.494   6.024   2.154 -0.8997 -0.1092  0.4893
  291MOL0     H40154   4.599   6.275   2.496  1.6731  2.1737 -2.7448
  291MOL0     H40155   3.890   6.050   2.513  1.5241 -0.8018 -0.4285
  291MOL0     H40156   3.581   6.142   2.546  0.5648 -0.4854 -1.0149
  291MOL0     H40157   3.713   6.177   2.652 -1.0958 -0.3938  0.2973
  291MOL0     H40158   3.645   6.316   2.575  0.9311 -0.1034  2.0833
  292MOL0     O40159   8.000   7.883   1.391 -0.2020 -0.3323  0.3516
  292MOL0     C40160   8.000   7.821   1.498  0.8136  0.0075  0.4768
  292MOL0     O40161   7.899   7.745   1.548 -0.5348  0.0581  0.9796
  292MOL0     C40162   7.791   7.721   1.471 -0.2188 -0.4926 -0.1859
  292MOL0     C40163   7.664   7.748   1.533  0.3146 -0.3197 -0.2213
  292MOL0     C40164   7.549   7.737   1.463 -0.2501  0.7552  0.2647
  292MOL0     C40165   7.554   7.684   1.335  0.2729 -0.3881 -0.0150
  292MOL0     O40166   7.431   7.658   1.283 -0.3802 -0.8604 -0.0761
  292MOL0     C40167   7.356   7.779   1.255  0.3412  0.1847 -0.0911
  292MOL0     C40168   7.243   7.746   1.153  0.3183 -0.0683  0.3361
  292MOL0     C40169   7.182   7.606   1.168 -0.6699  0.3705 -0.7570
  292MOL0     C40170   7.084   7.588   1.048 -0.0843 -0.3148  1.2242
  292MOL0     C40171   7.004   7.458   1.055 -0.3770  0.7867  1.1879
  292MOL0     C40172   7.091   7.330   1.030  0.0806 -0.1503 -0.1178
  292MOL0     C40173   7.136   7.318   0.889 -0.3087  0.3846 -0.2098
  292MOL0     C40174   7.212   7.185   0.859  0.3598  0.4739 -0.3193
  292MOL0     N40175   7.321   7.158   0.948  0.3480 -0.0362 -0.1926
  292MOL0     C40176   7.443   7.228   0.943 -0.3208  0.4226  0.6946
  292MOL0     C40177   7.510   7.179   1.049  0.0150  0.7165 -0.5354
  292MOL0     C40178   7.649   7.219   1.103  0.1952 -0.0389 -0.4465
  292MOL0     C40179   7.722   7.109   1.182  0.1085  0.1191 -0.1498
  292MOL0     C40180   7.654   7.082   1.314 -0.2281 -0.2385 -0.6066
  292MOL0     C40181   7.746   7.030   1.423  0.1226  0.6318  0.2209
  292MOL0     O40182   7.842   7.130   1.458 -0.0266 -0.2606  0.7890
  292MOL0     C40183   7.865   7.166   1.579 -0.3432 -0.0949  0.4426
  292MOL0     C40184   7.869   7.072   1.685 -0.1822 -0.2621  0.5079
  292MOL0     C40185   7.876   7.123   1.818 -0.2959 -0.4521  0.6967
  292MOL0     C40186   7.884   7.015   1.924 -0.1615 -0.0854 -0.5963
  292MOL0     C40187   7.893   7.263   1.844  0.1108 -0.1956  0.3754
  292MOL0     C40188   7.899   7.337   1.977  0.9086 -0.5756  1.0060
  292MOL0     O40189   7.845   7.267   2.083 -0.5793 -0.5832  0.0468
  292MOL0     C40190   7.848   7.322   2.216  0.6615 -1.0532  0.7843
  292MOL0     C40191   7.883   7.229   2.318 -0.3763 -0.0838  0.8799
  292MOL0     C40192   7.892   7.271   2.446  0.5872 -0.2829 -0.4320
  292MOL0     C40193   7.852   7.402   2.486 -0.4929 -0.7520  0.2760
  292MOL0     O40194   7.842   7.440   2.616  0.0191  0.5728  0.5230
  292MOL0     C40195   7.971   7.438   2.678 -0.4466  0.3342 -0.0556
  292MOL0     C40196   7.983   7.503   2.816  1.3187 -0.0864  0.4822
  292MOL0     C40197   7.979   7.658   2.815  0.2746  0.4224  0.1863
  292MOL0     C40198   7.967   7.706   2.956 -0.3557 -0.3874 -0.9609
  292MOL0     C40199   7.952   7.854   2.971  0.1374  0.3440  0.4007
  292MOL0     C40200   7.821   7.903   2.911  0.4628 -0.3572 -0.0215
  292MOL0     C40201   7.805   8.049   2.943 -0.3806 -1.0743 -0.5958
  292MOL0     C40202   7.752   8.141   2.827  0.7214 -0.1422 -0.0202
  292MOL0    Cl40203   7.893   8.151   2.716 -0.2047 -0.0390  0.2223
  292MOL0     C40204   7.815   7.494   2.385  0.0392  0.1939  0.2985
  292MOL0     C40205   7.813   7.453   2.250  0.2026  0.4126 -0.5623
  292MOL0     O40206   7.948   7.449   1.980  0.0500  0.3054 -0.6205
  292MOL0     C40207   7.898   7.346   1.735 -0.5894  0.3095  0.2084
  292MOL0     C40208   7.888   7.303   1.605 -0.3637 -0.0125 -0.0967
  292MOL0     N40209   7.427   7.095   1.122  0.2848 -0.1176  0.8932
  292MOL0     N40210   7.309   7.087   1.068  0.3088 -0.2299  0.1478
  292MOL0     C40211   7.672   7.656   1.274 -1.0641  0.7438 -0.2007
  292MOL0     C40212   7.792   7.676   1.340  0.4982 -0.6813 -0.2890
  292MOL0     C40213   8.126   7.826   1.574  0.1128 -0.0618 -0.4503
  292MOL0     C40214   8.251   7.826   1.511 -0.3674  0.6283 -0.2700
  292MOL0     C40215   8.373   7.838   1.568 -0.0016 -0.0667  0.0220
  292MOL0     C40216   8.375   7.848   1.704 -0.1493 -0.0828  0.7337
  292MOL0     O40217   8.495   7.873   1.765  0.3055 -0.1089 -0.5402
  292MOL0     C40218   8.502   8.001   1.833 -0.0685  0.8125  0.0542
  292MOL0     C40219   8.641   8.031   1.870  0.8453 -0.7324 -0.4759
  292MOL0     C40220   8.714   7.934   1.972 -0.9111 -0.0886  1.3529
  292MOL0     C40221   8.634   7.911   2.093 -0.1080  1.1239 -0.0897
  292MOL0     C40222   8.704   7.803   2.162 -0.2043  0.9511 -0.3598
  292MOL0     C40223   8.767   7.711   2.206 -0.1856  0.0347  0.2870
  292MOL0     C40224   8.254   7.850   1.776 -0.2832  0.0363  0.3626
  292MOL0     C40225   8.129   7.848   1.713 -1.4850 -0.6457  0.0930
  292MOL0     C40226   8.008   7.855   1.795 -0.7191  0.5498 -0.9799
  292MOL0     H40227   7.651   7.790   1.632 -5.0893  2.2101 -1.6376
  292MOL0     H40228   7.459   7.756   1.520 -0.4927  1.7228 -0.4253
  292MOL0     H40229   7.413   7.856   1.203 -1.0899  0.4508 -1.3280
  292MOL0     H40230   7.317   7.817   1.350  1.7088 -1.0421  0.9967
  292MOL0     H40231   7.171   7.824   1.180  1.7265  1.0989  0.8831
  292MOL0     H40232   7.268   7.769   1.049 -4.4960 -2.1142 -1.5586
  292MOL0     H40233   7.264   7.533   1.168 -0.4946  0.5014  1.5009
  292MOL0     H40234   7.135   7.605   1.267  1.0889  2.0730  0.1490
  292MOL0     H40235   7.009   7.667   1.053  0.9217  0.6402  1.5571
  292MOL0     H40236   7.149   7.597   0.960  1.1530  1.9684  2.2918
  292MOL0     H40237   6.922   7.457   0.982 -0.8943 -0.0363  1.7676
  292MOL0     H40238   6.960   7.448   1.155  2.6597 -3.1053  2.4092
  292MOL0     H40239   7.182   7.336   1.091 -0.5169 -0.2895  0.8201
  292MOL0     H40240   7.047   7.240   1.073  1.0051 -0.9100 -0.7278
  292MOL0     H40241   7.201   7.405   0.871 -0.7190  0.5961 -0.6912
  292MOL0     H40242   7.049   7.321   0.823 -3.1195 -0.6904  3.1996
  292MOL0     H40243   7.142   7.102   0.845  0.3933  0.8689 -3.5714
  292MOL0     H40244   7.260   7.202   0.762 -0.0949 -0.7001 -0.7734
  292MOL0     H40245   7.486   7.306   0.882  0.5749 -0.3874  0.2507
  292MOL0     H40246   7.635   7.307   1.166  0.9789  0.2492 -0.6635
  292MOL0     H40247   7.714   7.243   1.017  0.2817  0.3539 -0.2739
  292MOL0     H40248   7.727   7.016   1.125  2.2757  0.2180 -0.2185
  292MOL0     H40249   7.824   7.145   1.201  0.5490 -1.0500 -0.2226
  292MOL0     H40250   7.605   7.171   1.354  0.9197  0.5339 -0.8861
  292MOL0     H40251   7.584   6.999   1.301  0.9793 -0.9854 -2.8872
  292MOL0     H40252   7.687   7.001   1.511  1.7368 -0.8402  0.8698
  292MOL0     H40253   7.796   6.946   1.376 -0.3389  0.4223  0.0932
  292MOL0     H40254   7.871   6.965   1.672  0.6197 -0.2687  0.6364
  292MOL0     H40255   7.871   6.921   1.870  1.3828 -0.6404 -0.0539
  292MOL0     H40256   7.809   7.022   2.004  0.0968  0.5490 -0.3990
  292MOL0     H40257   7.982   7.012   1.972 -0.1100  0.5703 -0.6502
  292MOL0     H40258   7.918   7.134   2.280 -0.3896  0.7650 -1.4569
  292MOL0     H40259   7.913   7.207   2.531 -2.6095 -1.1533 -0.1805
  292MOL0     H40260   8.003   7.334   2.689 -1.8024 -0.3063 -1.6664
  292MOL0     H40261   8.038   7.490   2.609 -1.0248 -0.3934 -1.1871
  292MOL0     H40262   7.893   7.468   2.868  1.1132 -2.0850 -1.0775
  292MOL0     H40263   8.075   7.468   2.865  0.5345  0.8771  2.7750
  292MOL0     H40264   7.891   7.681   2.755 -1.1161 -2.0777  1.0996
  292MOL0     H40265   8.069   7.704   2.776  1.3574 -2.2204 -0.6416
  292MOL0     H40266   8.057   7.673   3.010  0.1864  0.8274 -1.0826
  292MOL0     H40267   7.881   7.660   3.006  1.3755 -2.0183  0.6982
  292MOL0     H40268   7.959   7.877   3.077 -2.3949 -0.5852  0.8569
  292MOL0     H40269   8.030   7.897   2.907  1.7459 -1.7967  0.7995
  292MOL0     H40270   7.731   7.862   2.958 -1.2622  2.4384 -0.6353
  292MOL0     H40271   7.815   7.875   2.805 -1.7689  2.6657 -0.8109
  292MOL0     H40272   7.898   8.097   2.976 -1.2169 -0.3254  0.7212
  292MOL0     H40273   7.740   8.060   3.030  1.2795  1.0251  0.4873
  292MOL0     H40274   7.729   8.237   2.874 -1.7115 -1.5572  1.9201
  292MOL0     H40275   7.661   8.104   2.780 -0.0854 -0.8102  1.9811
  292MOL0     H40276   7.786   7.594   2.416  2.9866  1.8215 -1.7313
  292MOL0     H40277   7.784   7.525   2.174  1.5373  2.0262  0.3962
  292MOL0     H40278   7.911   7.453   1.749 -0.2464  0.2771  0.1340
  292MOL0     H40279   7.901   7.369   1.519  0.7528  1.9487  1.4631
  292MOL0     H40280   7.677   7.610   1.176 -3.6088 -0.4785  0.1453
  292MOL0     H40281   7.886   7.649   1.293  0.5928  1.9274 -1.7759
  292MOL0     H40282   8.236   7.817   1.404 -1.9950  1.2073 -0.1264
  292MOL0     H40283   8.460   7.829   1.504 -1.0287 -0.0073 -1.4393
  292MOL0     H40284   8.470   8.069   1.753 -2.6438  0.2810  0.5310
  292MOL0     H40285   8.427   8.005   1.912 -1.0180 -1.1076 -0.6592
  292MOL0     H40286   8.647   8.132   1.911 -3.1504 -0.7682  0.6396
  292MOL0     H40287   8.717   8.028   1.791  2.0746 -1.6200  0.6819
  292MOL0     H40288   8.736   7.837   1.926 -1.1178  1.2853 -1.8671
  292MOL0     H40289   8.806   7.982   2.006 -1.1601  0.8648  0.6990
  292MOL0     H40290   8.535   7.876   2.061  0.1905  0.9026 -0.7909
  292MOL0     H40291   8.622   7.998   2.158 -0.5002  0.6157  0.5294
  292MOL0     H40292   8.832   7.634   2.243 -0.1366 -0.8795 -1.6023
  292MOL0     H40293   8.247   7.877   1.881 -2.4499  2.0249 -0.2019
  292MOL0     H40294   7.957   7.759   1.793 -2.2450  1.3051 -0.0063
  292MOL0     H40295   8.038   7.887   1.895 -1.4631  0.5644 -0.7607
  292MOL0     H40296   7.939   7.930   1.757 -2.8771 -1.4417 -1.1869
  293MOL0     O40297   5.771   0.262   9.740 -0.2636 -0.4552  0.1888
  293MOL0     C40298   5.773   0.319   9.850  0.3095  0.3946  0.6132
  293MOL0     O40299   5.878   0.368   9.914  0.1883  0.3592 -0.8994
  293MOL0     C40300   6.008   0.357   9.867  0.5298  0.1375  0.4442
  293MOL0     C40301   6.078   0.235   9.852 -0.3506 -1.4181 -0.9094
  293MOL0     C40302   6.207   0.228   9.802  0.6562 -1.2858 -0.5845
  293MOL0     C40303   6.271   0.357   9.765 -0.4310 -0.0727  0.2806
  293MOL0     O40304   6.394   0.362   9.699 -0.1903 -0.3564  0.4216
  293MOL0     C40305   6.474   0.241   9.687  0.3720 -0.3271  0.2781
  293MOL0     C40306   6.601   0.291   9.619 -0.0001  0.0387 -0.2062
  293MOL0     C40307   6.679   0.168   9.566  0.3436  0.7505  0.4043
  293MOL0     C40308   6.835   0.189   9.604  0.9073 -0.5520  0.7147
  293MOL0     C40309   6.917   0.061   9.560 -0.3410 -0.2806  0.2889
  293MOL0     C40310   7.060   0.075   9.606 -0.9143 -0.6031  0.0498
  293MOL0     C40311   7.139  -0.047   9.546 -0.6774 -0.3216 -0.7869
  293MOL0     C40312   7.294  -0.034   9.563 -0.1236 -0.4338  0.7679
  293MOL0     N40313   7.359  -0.078   9.687 -0.0975 -0.9273  0.9546
  293MOL0     C40314   7.393  -0.207   9.716  1.1862  0.2481 -0.0447
  293MOL0     C40315   7.462  -0.204   9.832  0.3439 -0.3068  0.2062
  293MOL0     C40316   7.519  -0.313   9.906 -0.5291  0.0349 -0.7038
  293MOL0     C40317   7.662  -0.274   9.966  0.4502 -0.4697 -0.2940
  293MOL0     C40318   7.719  -0.392  10.048 -0.5767  0.2500 -0.8886
  293MOL0     C40319   7.839  -0.340  10.122  0.0131  0.0424  0.0198
  293MOL0     O40320   7.952  -0.283  10.042 -0.1720  0.2516 -0.3062
  293MOL0     C40321   8.055  -0.214  10.107  0.5610  0.8213 -0.1784
  293MOL0     C40322   8.106  -0.109  10.029 -0.1191  0.7092 -0.8554
  293MOL0     C40323   8.211  -0.027  10.083 -0.0298 -1.1540 -0.1265
  293MOL0     C40324   8.255   0.091   9.993  0.0577 -0.2714 -0.2339
  293MOL0     C40325   8.256  -0.056  10.218 -0.4481 -1.6558 -0.4699
  293MOL0     C40326   8.355   0.028  10.291  0.8786  0.0818 -1.2258
  293MOL0     O40327   8.393   0.141  10.235  0.2008  0.6144  0.0815
  293MOL0     C40328   8.478   0.211  10.323  0.3850 -0.6467 -0.8046
  293MOL0     C40329   8.615   0.229  10.292  0.5896  0.9604  0.1133
  293MOL0     C40330   8.694   0.296  10.385 -0.2374  1.1768  0.6662
  293MOL0     C40331   8.642   0.343  10.504  1.0018 -0.1714 -1.0113
  293MOL0     O40332   8.709   0.422  10.586  0.0184  0.1252 -0.1886
  293MOL0     C40333   8.728   0.549  10.525 -0.3975 -0.1551  0.5241
  293MOL0     C40334   8.785   0.652  10.624  0.8995  0.2509  0.9244
  293MOL0     C40335   8.923   0.626  10.679  0.2700  0.9918  1.1063
  293MOL0     C40336   8.963   0.720  10.796 -1.0399  0.2298  1.6053
  293MOL0     C40337   8.865   0.739  10.914  0.0372  0.3101 -0.7038
  293MOL0     C40338   8.948   0.805  11.034  0.6649  0.3635  0.3267
  293MOL0     C40339   8.894   0.745  11.167 -0.6662 -0.0206  0.1335
  293MOL0     C40340   8.812   0.842  11.252 -0.2332 -0.1597  0.6147
  293MOL0    Cl40341   8.762   0.749  11.396  0.1287 -0.4123  0.0747
  293MOL0     C40342   8.509   0.332  10.533  0.3691  0.9515  0.1376
  293MOL0     C40343   8.428   0.268  10.446  0.5583 -0.7349  0.1394
  293MOL0     O40344   8.397  -0.023  10.397 -0.1945  0.3124 -0.6163
  293MOL0     C40345   8.188  -0.152  10.292 -0.2847  1.0133 -0.7257
  293MOL0     C40346   8.091  -0.238  10.232  0.1955  0.1259 -0.5036
  293MOL0     N40347   7.469  -0.074   9.869  0.4868  0.0732 -0.1189
  293MOL0     N40348   7.403   0.005   9.789  0.1912 -0.8731  0.3851
  293MOL0     C40349   6.202   0.481   9.772  0.4681  0.7145  0.2908
  293MOL0     C40350   6.072   0.480   9.823 -0.0656  0.5292  0.0456
  293MOL0     C40351   5.642   0.345   9.917 -0.4705  0.2215 -0.4947
  293MOL0     C40352   5.659   0.328  10.059  0.2898  0.1609 -0.6810
  293MOL0     C40353   5.551   0.342  10.144  0.7393 -0.4942  0.1385
  293MOL0     C40354   5.424   0.357  10.092  0.6396 -0.0158  0.2241
  293MOL0     O40355   5.331   0.377  10.188  0.2006  0.0445  0.2221
  293MOL0     C40356   5.192   0.357  10.152 -0.2827 -1.0264 -0.1085
  293MOL0     C40357   5.096   0.330  10.261  0.7627 -1.1556 -0.2426
  293MOL0     C40358   5.076   0.448  10.367  0.4139 -0.3136 -0.3205
  293MOL0     C40359   5.163   0.433  10.489  0.0635  0.0397  0.6021
  293MOL0     C40360   5.166   0.566  10.557 -0.2182 -0.2049  0.1445
  293MOL0     C40361   5.144   0.670  10.619 -0.2151  0.0093  0.0430
  293MOL0     C40362   5.408   0.371   9.949  0.7656  0.3551 -0.7099
  293MOL0     C40363   5.513   0.362   9.857 -0.0965 -0.1829  0.2451
  293MOL0     C40364   5.495   0.347   9.705  0.0770 -0.4246  0.0180
  293MOL0     H40365   6.040   0.149   9.906 -1.5062 -1.6576 -2.0261
  293MOL0     H40366   6.263   0.136   9.791 -0.3519 -2.1248  0.9045
  293MOL0     H40367   6.418   0.163   9.634 -0.5532 -1.3081  2.5707
  293MOL0     H40368   6.496   0.198   9.785  0.5303 -0.9800 -0.0411
  293MOL0     H40369   6.590   0.357   9.533  3.2027  2.1768  0.8587
  293MOL0     H40370   6.660   0.348   9.691  1.2688 -1.1038 -0.2983
  293MOL0     H40371   6.641   0.072   9.602  1.4144  0.7060  1.4921
  293MOL0     H40372   6.664   0.169   9.458  0.3599  2.1489  0.3955
  293MOL0     H40373   6.872   0.278   9.554  0.2590 -2.0189 -2.6659
  293MOL0     H40374   6.837   0.203   9.712  0.5430 -0.6642  0.7397
  293MOL0     H40375   6.904   0.045   9.453 -1.9135 -0.4648  0.4861
  293MOL0     H40376   6.868  -0.030   9.597 -0.2509 -1.1251 -1.5738
  293MOL0     H40377   7.105   0.168   9.570  0.5696 -1.5230 -0.5654
  293MOL0     H40378   7.062   0.071   9.715 -1.5650  0.5115  0.1183
  293MOL0     H40379   7.114  -0.061   9.440  0.2557 -0.0283 -1.0514
  293MOL0     H40380   7.111  -0.143   9.589  1.2831 -0.2800  0.7304
  293MOL0     H40381   7.353  -0.068   9.477 -1.1383 -1.0552  0.2950
  293MOL0     H40382   7.307   0.073   9.546 -3.1529 -0.1316 -0.3358
  293MOL0     H40383   7.367  -0.300   9.667 -0.4125  0.5386  0.2069
  293MOL0     H40384   7.509  -0.400   9.840  1.3908 -1.0156  0.2881
  293MOL0     H40385   7.461  -0.347   9.992  3.5307  0.8469  2.7005
  293MOL0     H40386   7.723  -0.254   9.877 -0.9794  4.0258 -0.5229
  293MOL0     H40387   7.662  -0.181  10.024  0.3382 -1.4787  1.3854
  293MOL0     H40388   7.651  -0.441  10.118  2.4140  0.3500  2.3773
  293MOL0     H40389   7.758  -0.476   9.990 -1.0115 -0.0984 -0.6789
  293MOL0     H40390   7.791  -0.267  10.186  0.6303  0.1811  0.3328
  293MOL0     H40391   7.896  -0.410  10.185  1.0430  0.9256  0.0967
  293MOL0     H40392   8.075  -0.085   9.928 -0.4920  2.1306 -0.4125
  293MOL0     H40393   8.218   0.182  10.041  2.7739  0.4940  0.5800
  293MOL0     H40394   8.219   0.076   9.891 -3.3371 -2.1093  1.0551
  293MOL0     H40395   8.363   0.106   9.994  0.1251 -0.5958  1.5334
  293MOL0     H40396   8.659   0.187  10.203  1.5007  0.5683  0.7381
  293MOL0     H40397   8.801   0.298  10.366 -0.7169  1.7275 -2.3661
  293MOL0     H40398   8.781   0.542  10.430  0.5274 -2.7261  1.1441
  293MOL0     H40399   8.634   0.598  10.499 -0.1038 -0.1301 -0.5474
  293MOL0     H40400   8.788   0.750  10.577 -0.7941 -0.2806 -0.3796
  293MOL0     H40401   8.721   0.661  10.713  1.5620 -0.5295  1.4947
  293MOL0     H40402   8.990   0.648  10.596  1.7518 -0.7283  1.7800
  293MOL0     H40403   8.942   0.524  10.715 -0.1549  2.2457  5.4866
  293MOL0     H40404   8.983   0.819  10.753  2.1007  1.1574  4.7069
  293MOL0     H40405   9.058   0.682  10.834  0.5119  0.0431 -2.0730
  293MOL0     H40406   8.777   0.797  10.886  1.9039  2.3777 -2.6624
  293MOL0     H40407   8.831   0.640  10.946  0.7737  0.3714  0.3097
  293MOL0     H40408   8.938   0.914  11.044 -0.4316  0.2330  0.7547
  293MOL0     H40409   9.056   0.789  11.020  0.6449 -0.1139  0.7216
  293MOL0     H40410   8.991   0.732  11.216 -0.3667  1.6674  0.0354
  293MOL0     H40411   8.856   0.643  11.162  0.5354 -0.4147 -2.7109
  293MOL0     H40412   8.721   0.864  11.195  0.0267 -1.8395 -0.5182
  293MOL0     H40413   8.864   0.932  11.286 -0.1964 -0.3209  0.9879
  293MOL0     H40414   8.462   0.378  10.620  0.8322  1.1261  0.2957
  293MOL0     H40415   8.321   0.277  10.459  0.3281 -2.8019 -0.0084
  293MOL0     H40416   8.212  -0.169  10.397  2.4891  4.2910 -0.6561
  293MOL0     H40417   8.047  -0.314  10.295  1.5564 -0.8291 -0.6621
  293MOL0     H40418   6.238   0.577   9.738  0.5134  0.9496  0.9790
  293MOL0     H40419   6.011   0.569   9.817  0.1824  0.5723 -2.8688
  293MOL0     H40420   5.755   0.320  10.108 -1.2662  0.4804  2.7434
  293MOL0     H40421   5.544   0.341  10.252 -4.7024  1.0489  0.1371
  293MOL0     H40422   5.168   0.445  10.091  1.6070 -0.2475  0.1719
  293MOL0     H40423   5.201   0.268  10.090  0.2360 -0.6710 -0.5656
  293MOL0     H40424   5.125   0.237  10.312 -3.8903 -0.6650  4.0904
  293MOL0     H40425   4.997   0.314  10.220  0.7414 -0.1531 -0.6025
  293MOL0     H40426   5.099   0.543  10.317 -2.0929  0.2849 -0.4666
  293MOL0     H40427   4.971   0.463  10.391  0.0785 -0.9861 -1.3249
  293MOL0     H40428   5.265   0.406  10.459 -0.7740 -0.2495 -2.2736
  293MOL0     H40429   5.111   0.365  10.556 -0.6928  2.2071  2.3232
  293MOL0     H40430   5.142   0.768  10.661  0.6904  0.2364 -0.4117
  293MOL0     H40431   5.313   0.408   9.910  1.5227  3.0247 -0.2332
  293MOL0     H40432   5.507   0.245   9.667 -4.1454 -1.2362  0.3584
  293MOL0     H40433   5.397   0.382   9.671 -0.0682  1.6051  2.2887
  293MOL0     H40434   5.565   0.419   9.663  0.2693 -0.5281  0.1563
  294MOL0     O40435   1.626   0.134   7.898  0.2105 -0.3824  0.3896
  294MOL0     C40436   1.649   0.086   7.786 -0.3430 -0.4175  0.0056
  294MOL0     O40437   1.777   0.036   7.752 -1.0571 -0.7799  0.4301
  294MOL0     C40438   1.890   0.068   7.826 -0.3364  0.8777 -0.5241
  294MOL0     C40439   2.002   0.137   7.772  0.0973  0.4912 -0.3100
  294MOL0     C40440   2.108   0.171   7.858 -1.1310  0.3725 -0.3656
  294MOL0     C40441   2.101   0.146   7.991  0.4315 -0.7445 -0.1441
  294MOL0     O40442   2.200   0.167   8.081  0.4922  0.7341 -0.3302
  294MOL0     C40443   2.251   0.047   8.141 -0.3900 -0.0871  0.9259
  294MOL0     C40444   2.367   0.091   8.239  0.1583 -0.2687  0.7527
  294MOL0     C40445   2.309   0.131   8.380 -0.7121 -0.3491 -0.0833
  294MOL0     C40446   2.366   0.269   8.427 -1.2423 -0.0436 -0.8004
  294MOL0     C40447   2.318   0.296   8.573 -0.0327  0.4859  0.1114
  294MOL0     C40448   2.371   0.209   8.697  0.1349 -0.2795 -1.2480
  294MOL0     C40449   2.524   0.255   8.740 -0.4108  0.8159  0.0762
  294MOL0     C40450   2.567   0.162   8.855 -0.7879  0.3488  0.0975
  294MOL0     N40451   2.688   0.209   8.927 -0.8105 -0.1935  0.7500
  294MOL0     C40452   2.696   0.324   9.006 -0.0279  0.3977  0.1545
  294MOL0     C40453   2.807   0.318   9.087  0.2400  0.3126  0.1507
  294MOL0     C40454   2.838   0.414   9.194 -0.0662 -0.2452 -0.5825
  294MOL0     C40455   2.983   0.414   9.236  0.7646  0.4272  0.2485
  294MOL0     C40456   3.002   0.504   9.367  0.4293  0.1581 -0.1383
  294MOL0     C40457   3.145   0.501   9.408 -0.2737  0.5440 -0.3245
  294MOL0     O40458   3.182   0.365   9.456 -0.2621 -0.1108 -0.1567
  294MOL0     C40459   3.132   0.329   9.581 -1.0352 -0.6204  0.1099
  294MOL0     C40460   3.167   0.199   9.632 -0.4556 -0.9570  0.7429
  294MOL0     C40461   3.144   0.158   9.762 -0.6872  0.0472  0.9248
  294MOL0     C40462   3.186   0.015   9.804 -0.5224  0.0362 -0.0195
  294MOL0     C40463   3.088   0.251   9.855  0.3183 -0.1400  0.8135
  294MOL0     C40464   3.067   0.228  10.003  0.4034  0.6346  0.4822
  294MOL0     O40465   2.967   0.304  10.062  0.3464 -0.9978 -0.8283
  294MOL0     C40466   2.908   0.273  10.187  0.3468  0.6073  0.2079
  294MOL0     C40467   2.859   0.140  10.206 -0.2596  0.2066 -0.7551
  294MOL0     C40468   2.770   0.104  10.312  0.5093  0.3731  0.1136
  294MOL0     C40469   2.724   0.213  10.394 -1.0842  1.1374 -1.1748
  294MOL0     O40470   2.640   0.209  10.508  0.1459  0.4489  0.3113
  294MOL0     C40471   2.568   0.093  10.534  0.3162  0.3905  0.7790
  294MOL0     C40472   2.475   0.116  10.649 -0.1587  0.4344 -0.5828
  294MOL0     C40473   2.561   0.129  10.783  0.4912  0.2696  0.3961
  294MOL0     C40474   2.474   0.091  10.904  0.1781  1.1283  0.4776
  294MOL0     C40475   2.567   0.037  11.015  1.0210  0.0895  0.2255
  294MOL0     C40476   2.504   0.031  11.156 -0.1478  0.0930  0.8343
  294MOL0     C40477   2.398  -0.075  11.156  0.2965 -0.5504  0.1036
  294MOL0     C40478   2.326  -0.113  11.291  0.8447 -0.0499  0.5666
  294MOL0    Cl40479   2.433  -0.217  11.385  0.0445  0.2647  0.1214
  294MOL0     C40480   2.775   0.341  10.373 -0.0528  1.2080 -0.3508
  294MOL0     C40481   2.868   0.371  10.277 -0.0331 -0.6369 -0.0234
  294MOL0     O40482   3.131   0.144  10.063  0.0429  0.1864 -0.2880
  294MOL0     C40483   3.050   0.380   9.807 -0.3862  0.6193 -0.8500
  294MOL0     C40484   3.067   0.412   9.674 -0.4902  0.1173 -0.0582
  294MOL0     N40485   2.875   0.202   9.049  0.1229  0.0834 -0.4776
  294MOL0     N40486   2.807   0.148   8.952 -0.2430 -0.0095  0.6472
  294MOL0     C40487   1.981   0.080   8.043 -0.1631  0.3691 -0.1565
  294MOL0     C40488   1.883   0.036   7.964  0.4012 -0.3681 -1.2439
  294MOL0     C40489   1.546   0.077   7.692 -0.6584  0.5536 -0.1004
  294MOL0     C40490   1.423   0.034   7.730 -0.0856  0.2483 -0.3086
  294MOL0     C40491   1.309   0.040   7.644  0.1496  0.5688  0.4757
  294MOL0     C40492   1.327   0.090   7.505  0.2095 -0.6492  0.8279
  294MOL0     O40493   1.238   0.081   7.403  0.5008 -0.4070 -0.2900
  294MOL0     C40494   1.111   0.019   7.437 -0.2005  0.4797  0.8526
  294MOL0     C40495   1.021   0.011   7.319 -1.1414  0.2225  1.0738
  294MOL0     C40496   0.878  -0.036   7.349  0.1002  0.5188  0.1233
  294MOL0     C40497   0.781   0.073   7.406 -0.6693 -0.0202 -1.3306
  294MOL0     C40498   0.644   0.069   7.361  0.0720 -0.2329  0.9881
  294MOL0     C40499   0.522   0.087   7.328 -0.2283 -0.0862  0.6678
  294MOL0     C40500   1.456   0.133   7.473 -0.2556 -0.4701  0.7090
  294MOL0     C40501   1.565   0.132   7.562 -0.3543  0.6042  0.3140
  294MOL0     C40502   1.701   0.180   7.505  0.4786  0.3652  0.0564
  294MOL0     H40503   2.005   0.159   7.665  2.1484 -1.0042 -0.6164
  294MOL0     H40504   2.195   0.210   7.805 -0.8195  0.4707  0.2129
  294MOL0     H40505   2.290  -0.019   8.062 -0.4183  1.6548 -0.6145
  294MOL0     H40506   2.171  -0.001   8.198 -0.7586 -2.6597 -1.5077
  294MOL0     H40507   2.424  -0.002   8.248 -0.0741 -0.7330 -1.7664
  294MOL0     H40508   2.423   0.179   8.205  2.1319 -1.3328  1.0935
  294MOL0     H40509   2.200   0.126   8.379 -0.7096 -0.4637 -0.7767
  294MOL0     H40510   2.353   0.059   8.449  4.7089  2.1651 -0.3816
  294MOL0     H40511   2.474   0.284   8.417 -0.3826 -2.9718  2.1102
  294MOL0     H40512   2.319   0.343   8.362 -1.1719 -1.1503 -2.1603
  294MOL0     H40513   2.209   0.291   8.570 -0.1441  2.6294 -1.8305
  294MOL0     H40514   2.355   0.396   8.597  2.6999 -0.5562  0.6145
  294MOL0     H40515   2.309   0.234   8.784  3.1870  3.3386  0.2167
  294MOL0     H40516   2.359   0.103   8.674  0.8727 -0.5689 -0.3632
  294MOL0     H40517   2.536   0.362   8.759 -0.7117  0.6204  1.4535
  294MOL0     H40518   2.587   0.240   8.652 -3.5185  0.6809 -2.3239
  294MOL0     H40519   2.485   0.161   8.927  0.7861 -0.2420  1.9793
  294MOL0     H40520   2.577   0.058   8.823  2.6017 -0.0368  1.8798
  294MOL0     H40521   2.621   0.401   9.022 -2.1207 -1.1764 -1.4130
  294MOL0     H40522   2.779   0.388   9.282 -2.0347  0.7489 -1.5557
  294MOL0     H40523   2.800   0.511   9.160  0.0058 -0.3702 -1.0170
  294MOL0     H40524   3.002   0.309   9.261 -0.5477  0.0467 -0.2989
  294MOL0     H40525   3.045   0.442   9.150  1.0504  0.0231  0.3191
  294MOL0     H40526   2.980   0.609   9.346 -1.1098  0.3875  2.2323
  294MOL0     H40527   2.933   0.475   9.447 -0.6279  0.9804 -0.7138
  294MOL0     H40528   3.217   0.521   9.328  0.7457  2.8636  1.0609
  294MOL0     H40529   3.168   0.582   9.478  1.6074 -0.3179  0.1168
  294MOL0     H40530   3.222   0.139   9.559  0.4774  0.1529  0.5014
  294MOL0     H40531   3.095  -0.029   9.845 -0.3468  0.6046  1.0153
  294MOL0     H40532   3.254   0.031   9.887 -0.9939 -0.6348  0.5088
  294MOL0     H40533   3.226  -0.044   9.721 -3.4228 -0.5298 -1.1410
  294MOL0     H40534   2.892   0.068  10.131  2.3611  0.6566 -0.1547
  294MOL0     H40535   2.735   0.002  10.325  2.2913 -0.0852  1.8238
  294MOL0     H40536   2.511   0.058  10.447  2.5581 -1.8496  0.0738
  294MOL0     H40537   2.638   0.010  10.544 -2.4551 -2.3979 -1.0569
  294MOL0     H40538   2.429   0.213  10.633  1.3833  1.3208  0.1487
  294MOL0     H40539   2.397   0.041  10.667  0.1460  0.2133 -0.1480
  294MOL0     H40540   2.596   0.231  10.797  1.9747  0.1929 -2.0860
  294MOL0     H40541   2.650   0.066  10.789  1.2915  1.0386 -2.1505
  294MOL0     H40542   2.408   0.007  10.882  0.0108  2.0770 -3.3304
  294MOL0     H40543   2.412   0.177  10.930 -0.3581  1.1381 -0.7668
  294MOL0     H40544   2.607  -0.061  10.987 -2.1875 -1.5266  0.8745
  294MOL0     H40545   2.646   0.112  11.022  2.5313 -1.4118 -0.0335
  294MOL0     H40546   2.446   0.123  11.164 -0.0907  0.1919  0.2124
  294MOL0     H40547   2.580   0.016  11.233  0.1004 -3.0238  0.1380
  294MOL0     H40548   2.458  -0.160  11.121  1.8462  0.3965  0.3835
  294MOL0     H40549   2.311  -0.057  11.092 -1.6328 -1.3142  2.3363
  294MOL0     H40550   2.235  -0.171  11.273  2.5741 -1.9989 -3.1663
  294MOL0     H40551   2.297  -0.027  11.350  1.7408  0.3757  0.4140
  294MOL0     H40552   2.748   0.416  10.446  0.5421  2.7278 -1.6318
  294MOL0     H40553   2.899   0.475  10.272  0.9957 -0.8637  1.1492
  294MOL0     H40554   3.012   0.456   9.876  1.0613  1.7770 -1.2708
  294MOL0     H40555   3.034   0.508   9.633 -1.1061  0.1964  0.6070
  294MOL0     H40556   1.975   0.069   8.151 -2.6951  0.0481 -0.2774
  294MOL0     H40557   1.792  -0.007   8.005  0.5794 -0.1368 -0.5916
  294MOL0     H40558   1.418   0.009   7.836 -0.3047 -0.7057 -0.5378
  294MOL0     H40559   1.220  -0.004   7.686  0.6072 -0.2342  0.6360
  294MOL0     H40560   1.136  -0.081   7.475  0.4666  0.1705 -0.3397
  294MOL0     H40561   1.053   0.082   7.506 -1.0522 -1.3414  1.8710
  294MOL0     H40562   1.075  -0.053   7.249 -1.3515  0.0841  1.0337
  294MOL0     H40563   1.014   0.110   7.275 -2.1229 -0.7653 -1.1700
  294MOL0     H40564   0.837  -0.067   7.253  0.6263  1.4172 -0.4060
  294MOL0     H40565   0.879  -0.121   7.418  1.3982 -0.7209 -1.3501
  294MOL0     H40566   0.811   0.173   7.374  1.6348 -0.9579 -2.2839
  294MOL0     H40567   0.782   0.065   7.515 -2.5490 -0.6500 -1.3226
  294MOL0     H40568   0.417   0.086   7.307 -0.5624 -4.5119  1.6627
  294MOL0     H40569   1.491   0.156   7.373  1.9317  0.7338  1.6799
  294MOL0     H40570   1.692   0.266   7.437  1.2967 -1.0853 -2.0135
  294MOL0     H40571   1.757   0.224   7.588  0.4386  1.6341 -0.5631
  294MOL0     H40572   1.773   0.109   7.463  1.8282  1.9973 -0.5252
  295MOL0     O40573   0.990   7.840  10.459 -0.3077  0.4010 -0.0188
  295MOL0     C40574   0.906   7.933  10.481 -0.2599  0.3784 -0.3807
  295MOL0     O40575   0.930   8.066  10.504  0.5384 -0.4563  0.8637
  295MOL0     C40576   1.060   8.085  10.542  1.1134  0.5926 -1.1523
  295MOL0     C40577   1.089   8.074  10.682  0.7536 -0.5675  0.0310
  295MOL0     C40578   1.218   8.106  10.725  0.6815 -0.0413 -0.4934
  295MOL0     C40579   1.320   8.132  10.627 -0.0482  0.1112  0.1501
  295MOL0     O40580   1.445   8.171  10.670  0.0921  0.1654 -0.0526
  295MOL0     C40581   1.448   8.294  10.746  0.3857 -0.8438 -1.3546
  295MOL0     C40582   1.539   8.251  10.860  0.4257 -0.9590 -0.0158
  295MOL0     C40583   1.583   8.361  10.956  0.5622  0.3618  0.1880
  295MOL0     C40584   1.462   8.399  11.043  0.4228  0.5533 -1.2722
  295MOL0     C40585   1.513   8.519  11.135 -0.3288 -0.1228 -0.0121
  295MOL0     C40586   1.406   8.567  11.235  0.0068  0.2858 -0.3309
  295MOL0     C40587   1.438   8.706  11.303  0.4361  0.4972  0.6489
  295MOL0     C40588   1.336   8.754  11.409  0.0671 -0.1430  0.4018
  295MOL0     N40589   1.381   8.881  11.476  0.0809  0.4005 -0.4868
  295MOL0     C40590   1.503   8.907  11.533 -0.7922  0.1460 -0.5042
  295MOL0     C40591   1.485   9.038  11.567 -0.3705 -0.0791  0.4097
  295MOL0     C40592   1.599   9.115  11.624  0.4476 -1.2728  0.4745
  295MOL0     C40593   1.638   9.243  11.554 -0.2556 -0.2951  0.9563
  295MOL0     C40594   1.727   9.203  11.434 -0.9401 -0.0318  0.1394
  295MOL0     C40595   1.876   9.184  11.473  0.5812  0.1746 -0.4560
  295MOL0     O40596   1.956   9.170  11.359 -0.3014 -0.1731  0.5462
  295MOL0     C40597   1.967   9.045  11.296  0.1248 -0.1138  0.1869
  295MOL0     C40598   1.886   8.939  11.314  0.1887  0.1146 -0.0716
  295MOL0     C40599   1.919   8.816  11.254  0.6520  0.9494  0.2029
  295MOL0     C40600   1.815   8.709  11.291 -0.0194 -0.6923 -0.5994
  295MOL0     C40601   2.030   8.805  11.167 -0.1410  0.0167  0.6470
  295MOL0     C40602   2.068   8.684  11.091 -0.3173 -0.6656 -0.5483
  295MOL0     O40603   1.964   8.604  11.066 -0.1288  0.5247 -0.0122
  295MOL0     C40604   1.967   8.495  10.973  0.0971 -0.1785 -0.4626
  295MOL0     C40605   2.008   8.369  11.021  0.2397 -0.3764 -0.5064
  295MOL0     C40606   2.013   8.261  10.930 -0.6664  0.0883 -0.5520
  295MOL0     C40607   1.967   8.269  10.803 -0.6287 -0.5476  0.7017
  295MOL0     O40608   1.970   8.161  10.709 -0.1195 -0.7504 -0.4179
  295MOL0     C40609   1.908   8.040  10.743 -0.3141 -0.0546  0.3361
  295MOL0     C40610   1.991   7.928  10.674 -0.4382 -0.9602  0.8824
  295MOL0     C40611   1.975   7.913  10.516  0.9638  0.5551 -1.2777
  295MOL0     C40612   2.027   7.781  10.467 -0.1655  0.3609 -0.1897
  295MOL0     C40613   1.983   7.742  10.317  0.9912 -0.1170  0.5186
  295MOL0     C40614   1.996   7.594  10.295 -0.2983  0.0051  0.7611
  295MOL0     C40615   2.011   7.553  10.146 -0.4785  0.4210  0.0074
  295MOL0     C40616   2.147   7.588  10.089  0.8320 -0.1369  0.6583
  295MOL0    Cl40617   2.276   7.482  10.160 -0.4213 -0.0427  0.2040
  295MOL0     C40618   1.911   8.392  10.762  0.1166 -0.3910 -0.3670
  295MOL0     C40619   1.922   8.505  10.839 -0.2073  0.6444  0.6424
  295MOL0     O40620   2.180   8.668  11.056  0.1671  0.3380 -0.0506
  295MOL0     C40621   2.111   8.917  11.145  0.3609 -0.1831  0.3792
  295MOL0     C40622   2.079   9.034  11.218 -0.2764 -0.3386 -0.0316
  295MOL0     N40623   1.360   9.083  11.543  0.0344  0.2825 -0.2165
  295MOL0     N40624   1.296   8.992  11.481 -0.0445 -0.3356  0.3779
  295MOL0     C40625   1.284   8.138  10.486 -0.3896  0.3212  0.2646
  295MOL0     C40626   1.152   8.123  10.447  0.1116  0.3892  0.2101
  295MOL0     C40627   0.761   7.889  10.496  1.2571  0.0866  0.0063
  295MOL0     C40628   0.666   7.966  10.571  0.3996 -0.4440  0.0309
  295MOL0     C40629   0.529   7.933  10.595  0.0546  0.2537  0.5823
  295MOL0     C40630   0.471   7.831  10.524  0.0073  0.9232  0.0086
  295MOL0     O40631   0.354   7.765  10.549 -0.3276 -0.3049  0.1293
  295MOL0     C40632   0.266   7.817  10.654 -0.9022  0.0435 -0.6779
  295MOL0     C40633   0.280   7.730  10.784 -0.1022  0.2586 -0.8279
  295MOL0     C40634   0.216   7.599  10.764 -0.0259 -0.6953  0.5031
  295MOL0     C40635   0.254   7.508  10.890  0.1861  0.0605  0.4989
  295MOL0     C40636   0.171   7.387  10.895  0.1964 -1.1635 -0.4874
  295MOL0     C40637   0.102   7.288  10.887  0.0479 -0.9048  0.1179
  295MOL0     C40638   0.562   7.756  10.437 -0.3003  0.0381 -0.1007
  295MOL0     C40639   0.701   7.780  10.421  0.4558  0.5514 -1.0597
  295MOL0     C40640   0.783   7.690  10.329 -0.0960  0.2187  0.1817
  295MOL0     H40641   1.015   8.041  10.754  0.6361 -0.1304  0.1145
  295MOL0     H40642   1.248   8.090  10.828  1.6845 -1.1866 -0.9461
  295MOL0     H40643   1.347   8.314  10.781  0.5549 -2.7436  0.4043
  295MOL0     H40644   1.494   8.379  10.695 -1.0021  0.7797 -0.0438
  295MOL0     H40645   1.497   8.169  10.920  1.6969 -0.7805  1.1861
  295MOL0     H40646   1.630   8.200  10.826  0.2334 -0.6555 -1.0144
  295MOL0     H40647   1.674   8.341  11.014  0.6210  0.4394  0.1229
  295MOL0     H40648   1.613   8.451  10.902  0.2534  2.5105  3.3129
  295MOL0     H40649   1.375   8.430  10.985 -1.9365  0.7621  2.0762
  295MOL0     H40650   1.428   8.310  11.096  3.3064 -0.8985 -1.7008
  295MOL0     H40651   1.557   8.601  11.078  0.4607  0.7047  1.7340
  295MOL0     H40652   1.605   8.494  11.190  0.9788  3.1953 -0.4500
  295MOL0     H40653   1.314   8.580  11.177  1.4260  1.8201 -2.4201
  295MOL0     H40654   1.392   8.491  11.312 -1.6149 -2.1559 -2.8681
  295MOL0     H40655   1.435   8.769  11.214  2.8796  1.8602  1.4204
  295MOL0     H40656   1.541   8.697  11.341  1.2979  0.8949 -1.4643
  295MOL0     H40657   1.242   8.768  11.355  1.1875  1.9086 -1.1197
  295MOL0     H40658   1.323   8.681  11.490  0.7286 -1.1371 -0.3483
  295MOL0     H40659   1.594   8.847  11.540 -0.9478 -0.1211 -0.7782
  295MOL0     H40660   1.687   9.052  11.640 -1.5343 -4.5109 -0.4112
  295MOL0     H40661   1.562   9.147  11.721  2.3952 -2.5397  1.7003
  295MOL0     H40662   1.549   9.295  11.517  1.3417  0.7289 -1.8239
  295MOL0     H40663   1.685   9.310  11.626 -0.7961 -0.6908  1.6841
  295MOL0     H40664   1.702   9.111  11.379  3.5124  1.2209 -4.8019
  295MOL0     H40665   1.721   9.292  11.371  1.4889  0.3008  0.2651
  295MOL0     H40666   1.907   9.278  11.519  0.4588  0.9412 -1.8894
  295MOL0     H40667   1.887   9.101  11.544 -0.5994 -0.2859 -0.7895
  295MOL0     H40668   1.799   8.942  11.379 -0.8304  0.4563 -1.4197
  295MOL0     H40669   1.737   8.706  11.215 -0.3638  2.5237 -0.4931
  295MOL0     H40670   1.765   8.724  11.388  0.1576  2.4247 -0.8883
  295MOL0     H40671   1.859   8.611  11.314  4.1319  1.2681  0.7282
  295MOL0     H40672   2.046   8.355  11.121  2.4951 -1.4249 -1.4355
  295MOL0     H40673   2.049   8.161  10.955  0.6036  0.2844 -1.5110
  295MOL0     H40674   1.901   8.022  10.851 -1.7789 -0.1826  0.2360
  295MOL0     H40675   1.804   8.039  10.711  0.5267  1.9940 -2.9855
  295MOL0     H40676   2.092   7.966  10.691 -1.8668  4.3069 -0.7442
  295MOL0     H40677   1.977   7.835  10.731 -0.9462 -0.9039  0.8506
  295MOL0     H40678   2.039   7.995  10.483 -0.1314  3.1322  2.3830
  295MOL0     H40679   1.870   7.924  10.491  0.9295  0.9800 -0.9414
  295MOL0     H40680   2.008   7.696  10.534  1.7469  0.9378  1.1750
  295MOL0     H40681   2.136   7.771  10.463 -0.3459 -2.3262 -0.4046
  295MOL0     H40682   1.882   7.777  10.291  0.0439 -1.5805  1.9811
  295MOL0     H40683   2.034   7.794  10.235 -1.0104 -0.7780 -1.2521
  295MOL0     H40684   1.912   7.539  10.338  0.9314 -1.3998  1.4731
  295MOL0     H40685   2.077   7.548  10.353 -0.3443 -2.4499 -0.9440
  295MOL0     H40686   1.937   7.600  10.081 -0.4418 -1.8474 -1.8057
  295MOL0     H40687   2.003   7.445  10.133  2.1698  0.2546 -0.8546
  295MOL0     H40688   2.173   7.692  10.108  3.3268 -0.3013 -1.4284
  295MOL0     H40689   2.144   7.562   9.983  4.0760  0.5594  0.3068
  295MOL0     H40690   1.900   8.410  10.655 -0.3081  1.2438 -0.0877
  295MOL0     H40691   1.883   8.594  10.792 -1.4944 -0.5115 -0.5502
  295MOL0     H40692   2.188   8.924  11.069 -1.0338 -1.4355 -1.2149
  295MOL0     H40693   2.131   9.128  11.202  0.6661 -0.5468  1.5946
  295MOL0     H40694   1.362   8.155  10.413  1.2346  0.1589  1.8788
  295MOL0     H40695   1.121   8.153  10.347 -1.2652 -1.1484  0.1147
  295MOL0     H40696   0.713   8.042  10.634  4.2938 -0.3007 -2.7405
  295MOL0     H40697   0.480   7.989  10.675 -5.4100 -0.8948 -1.4638
  295MOL0     H40698   0.284   7.920  10.687  1.3521 -0.1777 -1.0068
  295MOL0     H40699   0.166   7.804  10.612 -0.5776 -1.0692 -1.1605
  295MOL0     H40700   0.224   7.785  10.859  3.3390  0.5438  1.7932
  295MOL0     H40701   0.381   7.722  10.827 -1.4729  1.7257  3.0756
  295MOL0     H40702   0.109   7.618  10.777 -0.3563  0.3799 -2.7952
  295MOL0     H40703   0.239   7.556  10.666  0.2080  0.5670 -0.0090
  295MOL0     H40704   0.236   7.566  10.981  0.9760 -0.6876  1.1472
  295MOL0     H40705   0.358   7.480  10.874  0.2244  0.1745  0.5504
  295MOL0     H40706   0.051   7.195  10.878  3.2049 -2.6250 -2.2025
  295MOL0     H40707   0.525   7.674  10.377  0.7485 -1.0489  0.6916
  295MOL0     H40708   0.843   7.757  10.267  0.4734  1.2317  1.7542
  295MOL0     H40709   0.833   7.609  10.382 -0.8830 -2.6387 -3.1020
  295MOL0     H40710   0.712   7.651  10.257 -1.0550  2.5051 -0.1919
  296MOL0     O40711   3.667   6.158   6.361 -0.5706 -0.9765  0.3546
  296MOL0     C40712   3.676   6.192   6.475  0.4246  0.2153  0.6056
  296MOL0     O40713   3.794   6.189   6.538 -0.1530 -0.4089 -0.2577
  296MOL0     C40714   3.903   6.165   6.465  0.5135 -0.0171 -0.2572
  296MOL0     C40715   3.958   6.041   6.486 -0.4568 -0.5280 -0.0135
  296MOL0     C40716   4.089   6.023   6.445 -0.7072  0.1222  0.5163
  296MOL0     C40717   4.165   6.130   6.385  0.2486 -0.1196  0.2529
  296MOL0     O40718   4.299   6.122   6.354 -0.0700 -0.3761  0.3098
  296MOL0     C40719   4.326   6.054   6.233  0.5867  0.4329 -0.1908
  296MOL0     C40720   4.334   6.157   6.119  0.1119 -1.2597  0.2494
  296MOL0     C40721   4.338   6.090   5.979  0.1543 -0.1447  0.7675
  296MOL0     C40722   4.471   6.016   5.947 -0.0667  0.2256 -0.0077
  296MOL0     C40723   4.437   5.887   5.854 -0.1359 -0.2636 -0.4668
  296MOL0     C40724   4.412   5.758   5.932  0.3688  0.6452 -0.2577
  296MOL0     C40725   4.532   5.707   6.002  0.1828  0.5556 -1.1929
  296MOL0     C40726   4.486   5.580   6.091  0.3238 -0.2929 -0.3064
  296MOL0     N40727   4.395   5.620   6.197 -0.8371 -0.0396  1.4538
  296MOL0     C40728   4.265   5.584   6.190  0.2450 -0.8134 -0.1500
  296MOL0     C40729   4.211   5.650   6.295  0.1702 -0.6168  0.3982
  296MOL0     C40730   4.070   5.639   6.355 -0.2091  0.5862 -0.2342
  296MOL0     C40731   3.974   5.723   6.271 -0.3994 -0.3522 -0.0097
  296MOL0     C40732   3.832   5.705   6.309  0.7958  0.5768 -0.2865
  296MOL0     C40733   3.735   5.771   6.217  0.0246  0.7191  0.9415
  296MOL0     O40734   3.714   5.704   6.091  0.3464  0.3864  0.6432
  296MOL0     C40735   3.604   5.710   6.014 -0.8900  0.0228 -0.6665
  296MOL0     C40736   3.514   5.812   6.041  0.7009  0.5378  0.6381
  296MOL0     C40737   3.400   5.820   5.955 -0.6665  0.0280 -0.5388
  296MOL0     C40738   3.314   5.940   5.996  0.3386  0.1318  0.0206
  296MOL0     C40739   3.380   5.734   5.844  0.3873  0.3309  0.0211
  296MOL0     C40740   3.264   5.753   5.753  0.1486  0.5058  0.1055
  296MOL0     O40741   3.148   5.786   5.808 -0.1264  0.4072 -0.6820
  296MOL0     C40742   3.031   5.778   5.741  0.6856  0.6814  0.3987
  296MOL0     C40743   2.934   5.880   5.753  0.5304  0.4857  0.1206
  296MOL0     C40744   2.802   5.861   5.706  0.0169 -0.1025 -0.2204
  296MOL0     C40745   2.772   5.757   5.618  0.0210  0.4265  0.2397
  296MOL0     O40746   2.645   5.758   5.570 -0.1281 -0.6755 -0.2405
  296MOL0     C40747   2.577   5.637   5.528  0.5047 -0.0967 -0.1773
  296MOL0     C40748   2.430   5.663   5.512  0.4342 -0.2435 -0.3393
  296MOL0     C40749   2.361   5.682   5.648  0.2115  0.6815 -0.6200
  296MOL0     C40750   2.216   5.620   5.657 -0.9561 -0.1336  0.3797
  296MOL0     C40751   2.165   5.654   5.798 -0.0164  0.3636 -0.2547
  296MOL0     C40752   2.030   5.591   5.837 -0.5225  0.0255 -0.1774
  296MOL0     C40753   2.004   5.590   5.984  0.3742 -0.6838  0.4072
  296MOL0     C40754   1.858   5.599   6.016  0.9858  0.2203  0.1411
  296MOL0    Cl40755   1.766   5.445   5.976 -1.1191  0.1537 -0.2324
  296MOL0     C40756   2.867   5.646   5.614  0.9748  0.9041  0.0902
  296MOL0     C40757   2.992   5.655   5.679  0.4141 -0.9431 -0.0638
  296MOL0     O40758   3.276   5.721   5.634  0.7807  0.1138 -0.7751
  296MOL0     C40759   3.489   5.651   5.814  0.1719  0.1555  0.0374
  296MOL0     C40760   3.596   5.637   5.901 -0.8369  1.3004  0.7760
  296MOL0     N40761   4.306   5.728   6.362  0.7488  0.0889  0.3695
  296MOL0     N40762   4.414   5.714   6.295  0.7080 -0.1936 -0.3959
  296MOL0     C40763   4.097   6.248   6.345 -0.4581  1.1693 -0.1308
  296MOL0     C40764   3.971   6.259   6.387  0.2975 -0.1249 -0.6342
  296MOL0     C40765   3.548   6.243   6.537 -0.2379  0.0428 -0.8645
  296MOL0     C40766   3.423   6.200   6.488  0.5093  0.6443 -0.9711
  296MOL0     C40767   3.303   6.230   6.548 -0.4482 -0.5110 -0.2648
  296MOL0     C40768   3.303   6.306   6.663  0.1402  0.2802 -0.5482
  296MOL0     O40769   3.195   6.342   6.741 -0.6815  0.2988 -0.6541
  296MOL0     C40770   3.070   6.273   6.725  0.2105  1.1101  0.1809
  296MOL0     C40771   2.977   6.325   6.833 -0.2769  0.0834 -0.4534
  296MOL0     C40772   2.914   6.463   6.810 -0.0260 -1.3418  0.4649
  296MOL0     C40773   2.783   6.491   6.874  0.1853  0.5653 -0.8046
  296MOL0     C40774   2.734   6.627   6.868 -0.4287 -0.2984 -0.7978
  296MOL0     C40775   2.678   6.735   6.882 -0.3181  0.3662 -0.2832
  296MOL0     C40776   3.427   6.356   6.707 -0.6793  0.2770  0.0117
  296MOL0     C40777   3.549   6.327   6.648  0.3209  0.4393 -0.6718
  296MOL0     C40778   3.673   6.388   6.707  0.3473 -0.2580  0.6993
  296MOL0     H40779   3.909   5.950   6.517  0.5909 -3.2168 -5.1119
  296MOL0     H40780   4.146   5.934   6.470  0.2109  0.1812 -1.2209
  296MOL0     H40781   4.252   5.982   6.195  0.5463  1.6816 -2.6960
  296MOL0     H40782   4.424   6.009   6.248  0.6865  0.6459 -0.2101
  296MOL0     H40783   4.264   6.239   6.138  1.5699 -0.3806  2.1743
  296MOL0     H40784   4.430   6.209   6.124  1.1199 -2.3568 -3.6882
  296MOL0     H40785   4.253   6.024   5.962  0.6748 -1.3364  2.5231
  296MOL0     H40786   4.324   6.168   5.903  2.7153  0.8104  1.1812
  296MOL0     H40787   4.525   6.082   5.878 -0.1195 -0.1992 -0.4657
  296MOL0     H40788   4.528   5.980   6.033  0.0588  1.2658  0.3510
  296MOL0     H40789   4.522   5.878   5.786  1.5015  1.7353  1.1674
  296MOL0     H40790   4.348   5.901   5.793  1.3469  0.4842 -2.5848
  296MOL0     H40791   4.334   5.766   6.009  0.9067 -1.5600  0.5878
  296MOL0     H40792   4.379   5.684   5.858 -1.7211  0.4828  0.7430
  296MOL0     H40793   4.591   5.773   6.066 -1.7906  0.6819  0.6300
  296MOL0     H40794   4.601   5.667   5.927  1.7276 -1.7013  1.2437
  296MOL0     H40795   4.436   5.500   6.035  0.6894 -0.1941 -0.7743
  296MOL0     H40796   4.579   5.543   6.134  1.2344  2.0431 -0.1555
  296MOL0     H40797   4.206   5.515   6.130 -1.4179  0.0627  0.4018
  296MOL0     H40798   4.064   5.686   6.454  1.0956  5.2374 -2.0746
  296MOL0     H40799   4.039   5.535   6.347  1.0857  0.0552  1.0745
  296MOL0     H40800   4.003   5.828   6.280 -1.5241  0.1181 -1.4291
  296MOL0     H40801   3.973   5.687   6.168  0.3780 -2.5935  0.6990
  296MOL0     H40802   3.817   5.597   6.316  2.3879  0.1702 -2.2710
  296MOL0     H40803   3.825   5.758   6.404  1.9708  3.7556 -1.8322
  296MOL0     H40804   3.634   5.757   6.258 -0.0475  0.7121  0.7582
  296MOL0     H40805   3.767   5.875   6.208  1.8639  0.5657  4.0311
  296MOL0     H40806   3.531   5.888   6.117  1.6571 -0.2233  1.1958
  296MOL0     H40807   3.276   5.997   5.911 -1.6101  0.6666  1.1964
  296MOL0     H40808   3.354   6.014   6.066 -4.1902  1.8140  1.1491
  296MOL0     H40809   3.227   5.896   6.045  0.5445 -1.0113 -0.5914
  296MOL0     H40810   2.966   5.970   5.803  0.1948  0.2142  0.8342
  296MOL0     H40811   2.730   5.942   5.714  0.7006  0.4404  0.4936
  296MOL0     H40812   2.617   5.593   5.436  0.3880 -0.0557 -0.2478
  296MOL0     H40813   2.588   5.560   5.605 -0.7392 -0.6562 -0.5268
  296MOL0     H40814   2.410   5.752   5.451 -0.4730 -1.5784 -2.0550
  296MOL0     H40815   2.388   5.584   5.450 -1.8681 -1.1386  2.1340
  296MOL0     H40816   2.356   5.788   5.675 -3.5301  0.1347  1.4668
  296MOL0     H40817   2.409   5.624   5.728 -0.8438  0.6569  0.0154
  296MOL0     H40818   2.219   5.515   5.628 -2.5399  0.2770 -1.5622
  296MOL0     H40819   2.147   5.662   5.583  0.0197  4.2081  1.6400
  296MOL0     H40820   2.238   5.617   5.870  0.2561 -0.2510 -0.8411
  296MOL0     H40821   2.166   5.763   5.807 -3.5910  0.5910 -1.0747
  296MOL0     H40822   2.015   5.491   5.795 -2.2715 -0.5301  1.6436
  296MOL0     H40823   1.952   5.653   5.792  1.0261 -0.1570 -3.4384
  296MOL0     H40824   2.063   5.665   6.036  2.0173 -0.1034 -2.1062
  296MOL0     H40825   2.032   5.491   6.021  0.6312 -0.7422  0.0590
  296MOL0     H40826   1.821   5.690   5.967 -0.4257  0.7346  2.0524
  296MOL0     H40827   1.833   5.625   6.119 -4.2660 -0.4628 -0.6966
  296MOL0     H40828   2.849   5.563   5.547  0.5338  0.3566  0.8870
  296MOL0     H40829   3.054   5.565   5.674  0.0128 -1.2715  0.7006
  296MOL0     H40830   3.498   5.597   5.721  1.6005 -1.5112  1.0807
  296MOL0     H40831   3.657   5.548   5.900 -3.3499 -0.5667  2.5092
  296MOL0     H40832   4.149   6.323   6.286  0.7396  1.9579  1.8088
  296MOL0     H40833   3.923   6.356   6.371  1.0898  0.4848  0.5452
  296MOL0     H40834   3.429   6.122   6.413  2.3005  1.7001 -1.9819
  296MOL0     H40835   3.213   6.181   6.514  1.2241 -3.9881 -0.1054
  296MOL0     H40836   3.035   6.299   6.624 -1.6021  0.8262  0.7018
  296MOL0     H40837   3.078   6.166   6.742  0.1600  1.2652  1.1976
  296MOL0     H40838   3.021   6.300   6.930 -3.6939 -3.8436  0.3759
  296MOL0     H40839   2.887   6.263   6.843 -1.7261  2.2528  0.9571
  296MOL0     H40840   2.979   6.544   6.846 -0.6051 -0.1578 -1.0547
  296MOL0     H40841   2.896   6.467   6.703  4.4115  1.0704 -0.4610
  296MOL0     H40842   2.789   6.467   6.980 -2.1839 -0.3331 -0.8193
  296MOL0     H40843   2.704   6.430   6.829  1.1542 -1.0024 -0.4698
  296MOL0     H40844   2.618   6.821   6.904 -1.9042 -0.9158  0.6703
  296MOL0     H40845   3.415   6.424   6.790  1.4789  2.3192 -1.2260
  296MOL0     H40846   3.750   6.401   6.630  0.9723  0.7489  1.4639
  296MOL0     H40847   3.644   6.483   6.752  1.9369 -0.4006  2.1157
  296MOL0     H40848   3.710   6.323   6.787  0.0238 -2.1234 -0.5921
  297MOL0     O40849   2.964   6.081   2.075  0.6544 -0.1315 -0.5642
  297MOL0     C40850   2.901   6.133   2.170  0.8019  0.3240 -0.6112
  297MOL0     O40851   2.847   6.068   2.279 -0.0993 -0.7807  0.0052
  297MOL0     C40852   2.876   5.930   2.275  0.3243 -1.1439  1.0572
  297MOL0     C40853   2.766   5.845   2.252 -0.1307  0.4529  1.0446
  297MOL0     C40854   2.780   5.710   2.238 -0.2018  1.4052  0.4179
  297MOL0     C40855   2.912   5.646   2.249 -0.1432 -0.8538  0.8659
  297MOL0     O40856   2.926   5.511   2.220  1.0541  0.3190  0.1001
  297MOL0     C40857   2.953   5.489   2.084  0.0290 -0.4206  0.8250
  297MOL0     C40858   2.990   5.351   2.047  0.1677 -0.3187 -0.6377
  297MOL0     C40859   2.881   5.245   2.054 -0.1639 -0.1013  0.6105
  297MOL0     C40860   2.934   5.100   2.037 -0.2041  0.7477  0.2374
  297MOL0     C40861   2.835   4.988   2.056 -0.5814  0.1473  0.7363
  297MOL0     C40862   2.908   4.855   2.024 -1.0231 -1.7644 -0.2367
  297MOL0     C40863   2.807   4.746   2.037  0.4032  0.6971 -0.2564
  297MOL0     C40864   2.880   4.607   2.026 -0.0007 -0.2481  0.6309
  297MOL0     N40865   2.795   4.493   2.046  0.1068  0.1353 -0.0969
  297MOL0     C40866   2.678   4.474   1.979 -0.0158 -0.0953  0.1067
  297MOL0     C40867   2.616   4.376   2.039  1.2136  0.2820 -0.3170
  297MOL0     C40868   2.491   4.302   1.985 -0.9048  0.4687 -0.1794
  297MOL0     C40869   2.364   4.386   1.996  0.1469 -0.4810  0.6411
  297MOL0     C40870   2.245   4.286   1.976 -0.2678  1.0109  0.2809
  297MOL0     C40871   2.106   4.350   1.972 -0.5443  0.7347  0.9429
  297MOL0     O40872   2.015   4.267   1.899  0.1169  0.0840 -0.2209
  297MOL0     C40873   1.876   4.300   1.896  0.3696 -0.2709  0.8581
  297MOL0     C40874   1.815   4.412   1.954 -0.9872 -0.1938  0.4430
  297MOL0     C40875   1.682   4.443   1.943  0.6237 -0.8851 -1.1746
  297MOL0     C40876   1.635   4.576   2.005 -0.5048  0.0531  0.4187
  297MOL0     C40877   1.606   4.362   1.866 -0.2389  0.0023  1.1981
  297MOL0     C40878   1.466   4.396   1.835 -0.8502 -0.2944  0.0290
  297MOL0     O40879   1.375   4.299   1.837  0.7206  0.2525 -0.3856
  297MOL0     C40880   1.234   4.322   1.841  0.3475  0.3276 -0.0877
  297MOL0     C40881   1.161   4.208   1.827  0.4723 -0.5641  0.2406
  297MOL0     C40882   1.025   4.213   1.815 -0.8379 -0.6134  0.0276
  297MOL0     C40883   0.954   4.335   1.825  0.0594  0.1481  1.5087
  297MOL0     O40884   0.816   4.339   1.808 -0.0610 -0.3084  0.1084
  297MOL0     C40885   0.728   4.447   1.840 -0.9064  0.6211 -0.1400
  297MOL0     C40886   0.582   4.415   1.843  0.5562  0.1805 -0.0280
  297MOL0     C40887   0.539   4.385   1.979 -0.2444  0.2765 -0.5811
  297MOL0     C40888   0.408   4.308   1.989 -0.0375 -0.4723  0.3452
  297MOL0     C40889   0.283   4.371   1.919 -0.4712 -0.8106 -0.4035
  297MOL0     C40890   0.160   4.294   1.961 -0.0786 -0.0489  0.0431
  297MOL0     C40891   0.149   4.149   1.902  0.6890  0.2975  0.0764
  297MOL0     C40892   0.139   4.038   2.012  0.4442  0.4778 -0.6602
  297MOL0    Cl40893   0.007   4.058   2.136  0.2918  0.2733  0.3954
  297MOL0     C40894   1.028   4.450   1.846 -0.4747 -0.5208 -0.2703
  297MOL0     C40895   1.171   4.447   1.862 -0.1672 -0.1607  0.4372
  297MOL0     O40896   1.448   4.509   1.783 -0.2893  0.2871  0.0328
  297MOL0     C40897   1.662   4.243   1.810 -0.1609 -0.3811 -0.2585
  297MOL0     C40898   1.798   4.214   1.826  0.4587  0.5276  0.1519
  297MOL0     N40899   2.674   4.350   2.158  0.4390 -0.2046 -0.0586
  297MOL0     N40900   2.790   4.412   2.160  0.2238 -0.5937 -0.3007
  297MOL0     C40901   3.019   5.733   2.271  0.8145 -0.1802  0.0746
  297MOL0     C40902   3.003   5.872   2.287 -0.2920  0.4034 -0.2076
  297MOL0     C40903   2.894   6.275   2.156  0.1089 -0.9275  0.3219
  297MOL0     C40904   2.765   6.328   2.185 -0.3876 -0.8350  0.0033
  297MOL0     C40905   2.743   6.466   2.181  0.1144  0.5586  0.6685
  297MOL0     C40906   2.841   6.551   2.139  0.2268  0.4267  0.0993
  297MOL0     O40907   2.821   6.687   2.156  0.2379  0.1876 -0.0400
  297MOL0     C40908   2.929   6.781   2.143  0.0121 -0.4787  1.5328
  297MOL0     C40909   2.971   6.810   1.991  0.0532  0.6606  0.0682
  297MOL0     C40910   2.866   6.831   1.881  1.3054 -0.3260  0.0081
  297MOL0     C40911   2.854   6.728   1.778 -0.3259 -0.4023  0.1496
  297MOL0     C40912   2.748   6.770   1.686 -1.0936 -0.2169  0.2782
  297MOL0     C40913   2.669   6.823   1.608  0.8095  0.5564 -0.4857
  297MOL0     C40914   2.970   6.497   2.116 -0.3132  0.3984  0.1744
  297MOL0     C40915   3.000   6.363   2.119 -0.4922  0.0354  0.4183
  297MOL0     C40916   3.145   6.321   2.094 -0.9315 -0.3726 -0.2936
  297MOL0     H40917   2.673   5.883   2.212  1.2174  1.5049 -1.2990
  297MOL0     H40918   2.699   5.643   2.210 -1.1181  2.3942  0.6210
  297MOL0     H40919   3.031   5.557   2.049  0.1987 -1.1122 -0.1476
  297MOL0     H40920   2.868   5.508   2.018 -0.7678 -2.1881  1.2939
  297MOL0     H40921   3.021   5.349   1.942  1.7030 -0.3316 -0.2022
  297MOL0     H40922   3.081   5.324   2.101  2.4392  1.9739 -2.9806
  297MOL0     H40923   2.822   5.251   2.146 -0.8888  2.8595  0.0702
  297MOL0     H40924   2.805   5.259   1.976 -0.6296 -3.4215  0.3186
  297MOL0     H40925   2.957   5.098   1.930 -1.5547 -2.0564 -0.1090
  297MOL0     H40926   3.023   5.083   2.098 -1.0655 -1.5912  0.9748
  297MOL0     H40927   2.746   5.006   1.996 -1.7992 -0.1099  2.3765
  297MOL0     H40928   2.792   4.977   2.156 -2.9192  0.6323 -0.1553
  297MOL0     H40929   2.944   4.850   1.921 -0.1396 -0.3593 -0.0287
  297MOL0     H40930   2.990   4.837   2.094 -0.0776 -1.6600 -1.2809
  297MOL0     H40931   2.737   4.765   1.955 -0.7707  1.0030  0.8023
  297MOL0     H40932   2.756   4.752   2.133  1.7289  1.4216  0.4198
  297MOL0     H40933   2.929   4.602   1.928 -0.5681  0.8306  0.2818
  297MOL0     H40934   2.954   4.598   2.106  0.5129  0.0376  0.1892
  297MOL0     H40935   2.642   4.524   1.890  1.3910  0.5350 -0.1446
  297MOL0     H40936   2.492   4.209   2.043  1.7794  0.2937 -0.3861
  297MOL0     H40937   2.516   4.272   1.882  0.0493 -2.7195  0.8486
  297MOL0     H40938   2.351   4.444   2.088  0.8392 -2.7538  2.2559
  297MOL0     H40939   2.359   4.461   1.916  0.3479  0.7042  1.7014
  297MOL0     H40940   2.257   4.234   1.881  0.3248 -0.5151  1.1482
  297MOL0     H40941   2.246   4.208   2.053 -2.4232 -0.7032 -1.2759
  297MOL0     H40942   2.071   4.345   2.076 -1.8796 -4.6508  0.5367
  297MOL0     H40943   2.099   4.454   1.939  0.5866  0.1843 -1.1545
  297MOL0     H40944   1.877   4.480   2.011 -0.7781  0.1906 -0.2258
  297MOL0     H40945   1.534   4.559   2.044  1.3280 -3.6729  4.3958
  297MOL0     H40946   1.630   4.663   1.939 -0.1006  1.1685  1.8007
  297MOL0     H40947   1.702   4.600   2.089 -0.3993 -1.9214  0.9537
  297MOL0     H40948   1.203   4.108   1.822 -2.5637 -1.8846 -1.4499
  297MOL0     H40949   0.985   4.115   1.791 -0.3313 -0.3401 -2.1092
  297MOL0     H40950   0.756   4.481   1.940 -1.2399 -0.0408  0.1797
  297MOL0     H40951   0.746   4.526   1.767 -0.1508 -1.1396 -1.9387
  297MOL0     H40952   0.527   4.502   1.805 -1.5434 -0.0704  2.1628
  297MOL0     H40953   0.560   4.334   1.773  1.3918  0.8896 -1.1530
  297MOL0     H40954   0.538   4.475   2.041  2.8356 -0.3514  0.5487
  297MOL0     H40955   0.615   4.315   2.013 -1.4126 -0.4788  0.5930
  297MOL0     H40956   0.389   4.286   2.095 -0.7112  0.6835  0.4751
  297MOL0     H40957   0.442   4.217   1.937  4.6836  1.8614 -1.2176
  297MOL0     H40958   0.255   4.476   1.934 -2.0007 -1.5097  2.3248
  297MOL0     H40959   0.283   4.354   1.811 -1.8187 -1.8636 -0.2636
  297MOL0     H40960   0.069   4.350   1.938 -1.4179 -1.8249  0.7310
  297MOL0     H40961   0.160   4.285   2.070 -1.6754  3.1146  0.4357
  297MOL0     H40962   0.238   4.130   1.841  0.7593  0.7496  0.0347
  297MOL0     H40963   0.059   4.137   1.842  0.1690  1.3267  0.6229
  297MOL0     H40964   0.235   4.017   2.059  0.8209 -1.2559 -2.1297
  297MOL0     H40965   0.110   3.946   1.961  0.3191  0.7405 -1.0645
  297MOL0     H40966   0.985   4.549   1.856  1.1357  0.2033 -0.2726
  297MOL0     H40967   1.230   4.535   1.886  0.7315 -0.7563  0.4815
  297MOL0     H40968   1.604   4.177   1.747  1.9672 -1.6425 -1.0092
  297MOL0     H40969   1.828   4.122   1.777  0.1774  1.4359 -1.8379
  297MOL0     H40970   3.118   5.690   2.272  1.0984  0.2790 -2.0348
  297MOL0     H40971   3.083   5.937   2.321 -1.6198  0.2901  3.6456
  297MOL0     H40972   2.692   6.255   2.218  0.5208 -1.8940 -0.2471
  297MOL0     H40973   2.641   6.502   2.192  0.0240  1.7536 -2.7338
  297MOL0     H40974   2.883   6.875   2.174  1.2972  0.9478 -0.5977
  297MOL0     H40975   3.007   6.765   2.218 -1.9818  1.1625  4.1183
  297MOL0     H40976   3.039   6.730   1.960 -0.0068  1.0780 -1.2142
  297MOL0     H40977   3.034   6.899   1.996 -2.2119  2.3676 -0.1078
  297MOL0     H40978   2.771   6.842   1.933  1.2695  0.3607 -0.1905
  297MOL0     H40979   2.882   6.932   1.842 -0.7573  0.1840  0.3797
  297MOL0     H40980   2.829   6.635   1.829 -0.4923  0.0986  1.0051
  297MOL0     H40981   2.950   6.710   1.729 -0.7954 -2.5677 -0.0898
  297MOL0     H40982   2.597   6.875   1.548  0.2897  0.7861  0.3164
  297MOL0     H40983   3.055   6.563   2.106 -2.2095  3.3183  1.9312
  297MOL0     H40984   3.154   6.243   2.018 -2.7689 -1.3557  0.4190
  297MOL0     H40985   3.199   6.410   2.061  0.4618 -0.4738  1.5308
  297MOL0     H40986   3.178   6.295   2.195 -1.6375 -0.7780 -0.1574
  298MOL0     O40987   9.283   1.887   1.827 -0.6765  0.1734  0.4778
  298MOL0     C40988   9.304   1.771   1.861 -0.2547  0.3572  0.8420
  298MOL0     O40989   9.335   1.666   1.766 -0.1409  0.2012 -0.1534
  298MOL0     C40990   9.375   1.714   1.645 -0.7480  0.4641 -0.2532
  298MOL0     C40991   9.298   1.666   1.534 -0.9518 -0.1491  0.6560
  298MOL0     C40992   9.343   1.696   1.404  0.6283 -0.7484  0.1443
  298MOL0     C40993   9.460   1.771   1.374  0.2873  0.2803 -0.0984
  298MOL0     O40994   9.498   1.787   1.239 -0.0670 -0.0826  0.4361
  298MOL0     C40995   9.567   1.908   1.205  0.7533 -0.4958  0.2983
  298MOL0     C40996   9.699   1.867   1.140 -0.3572 -0.0763  0.4072
  298MOL0     C40997   9.814   1.954   1.202  0.1715  0.1703  0.2324
  298MOL0     C40998   9.945   1.897   1.133 -0.6247  0.6518  0.4247
  298MOL0     C40999  10.065   1.986   1.149 -1.8203  1.0425 -0.6478
  298MOL0     C41000  10.186   1.931   1.065 -0.1773  0.5199  0.0420
  298MOL0     C41001  10.326   1.954   1.113 -0.7596 -0.0555 -0.4682
  298MOL0     C41002  10.427   1.922   0.998 -0.0672  0.3426  0.0112
  298MOL0     N41003  10.437   2.029   0.895  0.1995  0.5023 -0.2708
  298MOL0     C41004  10.347   2.057   0.796  0.2897  0.2007  0.4340
  298MOL0     C41005  10.387   2.158   0.724 -0.5290 -0.0460 -0.0133
  298MOL0     C41006  10.336   2.215   0.586  0.1576 -0.0311  0.3839
  298MOL0     C41007  10.238   2.124   0.524 -0.2996 -0.6439 -0.3489
  298MOL0     C41008  10.301   1.993   0.477  0.2832  0.0477  0.9089
  298MOL0     C41009  10.425   1.996   0.388 -1.5103  0.1750 -0.6097
  298MOL0     O41010  10.396   2.081   0.280  0.8871  0.1063  0.3214
  298MOL0     C41011  10.354   2.022   0.155 -0.5110 -0.0944 -0.7763
  298MOL0     C41012  10.280   2.109   0.078 -2.0030 -0.4684 -0.1357
  298MOL0     C41013  10.246   2.077  -0.058  1.0948 -0.1693 -0.0292
  298MOL0     C41014  10.165   2.183  -0.139  0.1493 -0.5605  0.2323
  298MOL0     C41015  10.270   1.943  -0.112  0.5230 -0.5488 -0.8256
  298MOL0     C41016  10.227   1.888  -0.243 -0.9777  0.7750  0.3440
  298MOL0     O41017  10.242   1.755  -0.252 -0.3930  0.0475  0.2833
  298MOL0     C41018  10.213   1.686  -0.365 -0.2483  0.4799  0.3078
  298MOL0     C41019  10.309   1.659  -0.460  0.5440  0.2980  0.9932
  298MOL0     C41020  10.273   1.580  -0.572 -0.2439 -0.3283 -0.3580
  298MOL0     C41021  10.140   1.561  -0.603  0.0967 -0.8104  0.4984
  298MOL0     O41022  10.111   1.505  -0.720 -0.7903  0.0905 -0.7061
  298MOL0     C41023  10.096   1.602  -0.829 -0.3229  0.4363  0.2030
  298MOL0     C41024   9.967   1.681  -0.829  0.8040 -0.7537  0.6909
  298MOL0     C41025   9.949   1.772  -0.947 -0.2964  0.3602  0.2046
  298MOL0     C41026   9.867   1.886  -0.926  0.1971  0.0385  0.3015
  298MOL0     C41027   9.901   1.997  -1.025 -0.6718  0.0460 -0.5263
  298MOL0     C41028   9.813   2.127  -0.994 -0.3587  0.1775  0.2515
  298MOL0     C41029   9.785   2.208  -1.127 -0.7590  0.3713 -0.4431
  298MOL0     C41030   9.672   2.304  -1.100  0.4096 -0.5582  0.0632
  298MOL0    Cl41031   9.518   2.231  -1.068 -0.0699 -0.2075 -0.5161
  298MOL0     C41032  10.042   1.578  -0.503 -0.2843 -0.4290 -0.2627
  298MOL0     C41033  10.090   1.630  -0.384  0.7811  0.0591  0.5181
  298MOL0     O41034  10.165   1.952  -0.327 -0.3296 -0.0910  0.0891
  298MOL0     C41035  10.334   1.862  -0.021  0.2081  0.6133  0.0624
  298MOL0     C41036  10.384   1.894   0.105 -0.9475 -0.0612  0.5504
  298MOL0     N41037  10.507   2.197   0.780 -0.5585 -0.6674 -0.0297
  298MOL0     N41038  10.527   2.131   0.888  0.5720 -0.3948  0.2297
  298MOL0     C41039   9.531   1.812   1.488 -0.4602  0.2471  0.4513
  298MOL0     C41040   9.496   1.778   1.618 -0.6369  0.3974  0.1002
  298MOL0     C41041   9.302   1.731   2.003 -0.2018  0.6476 -0.3396
  298MOL0     C41042   9.313   1.595   2.029 -1.0589  0.2026 -0.5291
  298MOL0     C41043   9.331   1.550   2.162 -1.5616 -0.3700 -0.7997
  298MOL0     C41044   9.344   1.643   2.271 -0.0638 -0.2452 -0.1209
  298MOL0     O41045   9.368   1.596   2.398  0.1783  0.3991 -0.5955
  298MOL0     C41046   9.426   1.678   2.503 -0.3348 -0.0180 -0.5146
  298MOL0     C41047   9.490   1.591   2.615 -0.0982 -0.1948 -0.0206
  298MOL0     C41048   9.385   1.500   2.682 -0.2038 -0.0736  0.3686
  298MOL0     C41049   9.426   1.460   2.815  0.3161  0.1886  0.5764
  298MOL0     C41050   9.437   1.571   2.910  0.4894 -0.0450 -1.1773
  298MOL0     C41051   9.453   1.663   2.982  1.1175 -0.5584 -0.4007
  298MOL0     C41052   9.314   1.776   2.244 -0.5237 -0.1971 -0.2752
  298MOL0     C41053   9.286   1.823   2.108 -0.3457  0.9449  0.3857
  298MOL0     C41054   9.269   1.977   2.097 -0.6112  0.5547  0.4721
  298MOL0     H41055   9.212   1.602   1.553 -2.4966  0.1280 -4.1301
  298MOL0     H41056   9.279   1.665   1.322 -0.6610 -1.3408  1.3357
  298MOL0     H41057   9.586   1.966   1.296  2.1517  0.9818 -0.8807
  298MOL0     H41058   9.518   1.966   1.127  2.2671  1.0612  0.4574
  298MOL0     H41059   9.721   1.760   1.140 -0.2601 -0.0829 -1.2706
  298MOL0     H41060   9.699   1.880   1.032 -0.6491 -0.3374  0.3745
  298MOL0     H41061   9.808   2.059   1.171 -0.2434 -0.7391 -3.1152
  298MOL0     H41062   9.823   1.944   1.310  0.0882 -0.3652  0.1940
  298MOL0     H41063   9.961   1.797   1.175 -4.0508 -1.7510 -3.2714
  298MOL0     H41064   9.926   1.886   1.026 -1.2581  0.8945  0.5065
  298MOL0     H41065  10.088   1.988   1.256 -2.3184 -2.1824 -0.3687
  298MOL0     H41066  10.044   2.087   1.114  0.9248  1.8834 -0.1663
  298MOL0     H41067  10.177   1.822   1.068 -2.1633  0.6601  0.7393
  298MOL0     H41068  10.172   1.976   0.966  0.4428  1.2125  0.2612
  298MOL0     H41069  10.346   1.886   1.197 -1.6049 -0.4401 -0.5701
  298MOL0     H41070  10.346   2.057   1.143  1.1109  0.0236 -1.7761
  298MOL0     H41071  10.525   1.902   1.044  1.3328  0.5686 -2.6959
  298MOL0     H41072  10.397   1.830   0.947 -1.5215 -0.5864  2.3649
  298MOL0     H41073  10.257   2.000   0.771  0.7043 -0.7720  1.0872
  298MOL0     H41074  10.419   2.221   0.514 -1.4075 -0.1717 -1.5248
  298MOL0     H41075  10.296   2.315   0.607  2.5158  1.2856 -0.9309
  298MOL0     H41076  10.152   2.110   0.591 -1.3291  0.8494 -1.2903
  298MOL0     H41077  10.201   2.179   0.437 -2.2977  1.4311  1.6922
  298MOL0     H41078  10.308   1.919   0.557  1.5582 -1.5339 -0.5836
  298MOL0     H41079  10.227   1.948   0.410 -1.8223 -0.2921  3.3075
  298MOL0     H41080  10.511   2.028   0.448 -0.7211 -1.7490 -0.6375
  298MOL0     H41081  10.463   1.897   0.359 -0.4481  0.2518  0.4423
  298MOL0     H41082  10.274   2.214   0.107  0.8987  0.1663 -1.4728
  298MOL0     H41083  10.185   2.284  -0.103  0.1186 -1.3617  2.6950
  298MOL0     H41084  10.061   2.154  -0.124 -0.2048 -0.3395 -1.6324
  298MOL0     H41085  10.191   2.185  -0.245  0.2066 -2.3923  0.1760
  298MOL0     H41086  10.413   1.683  -0.439  0.6027  1.7464 -0.7329
  298MOL0     H41087  10.348   1.569  -0.650 -1.3607 -0.5046 -1.4317
  298MOL0     H41088  10.184   1.666  -0.816  2.7195 -3.6036  1.7459
  298MOL0     H41089  10.088   1.561  -0.930 -0.5872 -2.1534  1.2084
  298MOL0     H41090   9.880   1.615  -0.828 -0.9168  1.1925 -2.6218
  298MOL0     H41091   9.959   1.745  -0.741 -0.2601  1.9797 -1.2834
  298MOL0     H41092   9.919   1.717  -1.036  1.4762  2.0242 -1.5410
  298MOL0     H41093  10.052   1.806  -0.965 -0.9575  1.7215 -1.1380
  298MOL0     H41094   9.886   1.931  -0.828 -0.2633  3.9479 -1.1953
  298MOL0     H41095   9.760   1.865  -0.932 -0.6322  2.8721  2.5724
  298MOL0     H41096  10.009   2.014  -1.012 -0.6228 -0.7768  0.3175
  298MOL0     H41097   9.863   1.961  -1.121 -2.4391 -0.3228  0.2689
  298MOL0     H41098   9.860   2.186  -0.914  1.5345 -0.6845 -0.1552
  298MOL0     H41099   9.724   2.088  -0.944  2.2823 -2.8547  3.1262
  298MOL0     H41100   9.769   2.140  -1.211 -1.3690  0.2788 -0.2591
  298MOL0     H41101   9.876   2.257  -1.162  0.3216 -2.9773 -2.8051
  298MOL0     H41102   9.654   2.361  -1.192  2.8165 -1.7689 -1.2507
  298MOL0     H41103   9.703   2.364  -1.014  2.6059 -0.7376 -0.5414
  298MOL0     H41104   9.937   1.553  -0.516 -1.1272  2.4931  0.1096
  298MOL0     H41105  10.030   1.646  -0.295  0.3038  1.5181 -0.0490
  298MOL0     H41106  10.360   1.761  -0.049  0.5349 -1.0910  5.3932
  298MOL0     H41107  10.442   1.818   0.157  0.1826  1.2122  1.2110
  298MOL0     H41108   9.628   1.857   1.468 -1.9976  3.0335 -1.4500
  298MOL0     H41109   9.572   1.799   1.693  0.2385  1.5840 -1.0781
  298MOL0     H41110   9.320   1.527   1.945 -1.9697  0.8489 -1.1592
  298MOL0     H41111   9.356   1.444   2.168  0.7863  0.1884  1.0784
  298MOL0     H41112   9.503   1.749   2.471 -0.1996  0.5559  1.0389
  298MOL0     H41113   9.346   1.736   2.549  0.7065 -0.5800  2.1960
  298MOL0     H41114   9.541   1.660   2.682 -0.4454  0.7694 -0.7284
  298MOL0     H41115   9.556   1.512   2.578 -1.2743 -0.6839 -1.1907
  298MOL0     H41116   9.288   1.549   2.672  0.5502  1.2856 -0.6221
  298MOL0     H41117   9.380   1.407   2.624 -0.4325  1.2038 -1.7899
  298MOL0     H41118   9.510   1.390   2.808 -0.3131 -0.7173  1.8037
  298MOL0     H41119   9.340   1.406   2.854  0.2786  1.5402  2.5046
  298MOL0     H41120   9.460   1.737   3.060 -0.9803 -2.1370  1.4243
  298MOL0     H41121   9.305   1.834   2.336 -2.2032  0.1861 -0.6530
  298MOL0     H41122   9.238   2.018   2.194 -0.8867 -1.2804  1.1893
  298MOL0     H41123   9.374   2.003   2.084 -0.8619  2.0208  1.1313
  298MOL0     H41124   9.206   2.011   2.014 -0.4073  2.5956  1.0833
  299MOL0     O41125   3.417  10.118   0.760 -0.0172 -0.0503  0.1544
  299MOL0     C41126   3.343  10.214   0.759  0.4845  0.2715  0.1266
  299MOL0     O41127   3.336  10.310   0.852  0.3798 -0.0841  0.0959
  299MOL0     C41128   3.419  10.303   0.960  0.0181 -0.4608  0.0061
  299MOL0     C41129   3.563  10.285   0.968  0.1994 -0.5015  0.4615
  299MOL0     C41130   3.650  10.324   1.077  0.4072 -0.9689 -0.0463
  299MOL0     C41131   3.577  10.356   1.194 -0.4219 -0.3166  0.1274
  299MOL0     O41132   3.649  10.397   1.305  0.2181 -0.0064  0.3123
  299MOL0     C41133   3.595  10.349   1.429 -0.6957 -0.4848  0.5024
  299MOL0     C41134   3.656  10.212   1.473 -0.0453 -0.2878 -0.3381
  299MOL0     C41135   3.798  10.230   1.501  0.4369 -0.6755  0.5030
  299MOL0     C41136   3.880  10.119   1.563 -0.7178  0.6828  0.0548
  299MOL0     C41137   4.028  10.145   1.567 -0.0268  0.2852 -0.2680
  299MOL0     C41138   4.084  10.235   1.679  0.2952 -0.6099 -0.0078
  299MOL0     C41139   4.232  10.216   1.714 -0.0272  0.0638 -0.5233
  299MOL0     C41140   4.338  10.211   1.597  0.5316  0.4419 -0.5538
  299MOL0     N41141   4.469  10.195   1.663  0.5457  0.1364 -0.2918
  299MOL0     C41142   4.513  10.087   1.735  0.6160  0.5182  0.0580
  299MOL0     C41143   4.632  10.116   1.787 -0.6418  0.3043  0.0764
  299MOL0     C41144   4.684  10.027   1.903 -0.1590 -0.3011 -0.8932
  299MOL0     C41145   4.824  10.054   1.950  0.1128  0.1694 -0.6690
  299MOL0     C41146   4.942  10.023   1.856  0.2243  0.0260  0.1891
  299MOL0     C41147   5.081  10.043   1.919 -0.8479  0.6947 -0.2990
  299MOL0     O41148   5.119   9.928   2.001  0.2397  0.1028  0.1488
  299MOL0     C41149   5.252   9.915   2.052 -0.1748  0.7003 -0.0294
  299MOL0     C41150   5.355  10.004   2.034  0.1721 -0.5007 -0.0758
  299MOL0     C41151   5.480   9.986   2.093 -0.5588 -0.9675 -0.3218
  299MOL0     C41152   5.576  10.108   2.069 -0.0339 -0.9609 -0.2954
  299MOL0     C41153   5.522   9.862   2.152  0.3890  1.2371  0.3232
  299MOL0     C41154   5.660   9.828   2.194 -0.0345  0.4302  0.8586
  299MOL0     O41155   5.695   9.704   2.176  0.6726 -0.1296 -0.1434
  299MOL0     C41156   5.831   9.673   2.174  0.4883  0.2197 -0.6168
  299MOL0     C41157   5.910   9.699   2.290  0.4889  0.0121 -0.6978
  299MOL0     C41158   6.043   9.649   2.293  0.3933 -0.6416 -0.6356
  299MOL0     C41159   6.097   9.593   2.177  0.0107  0.0376 -0.7967
  299MOL0     O41160   6.225   9.544   2.185  0.1615  0.6604  0.2043
  299MOL0     C41161   6.302   9.510   2.063  0.7229 -1.0687  0.2219
  299MOL0     C41162   6.442   9.459   2.088 -0.6995  0.1894  1.0393
  299MOL0     C41163   6.447   9.342   2.179 -0.0008 -0.5396 -0.1726
  299MOL0     C41164   6.589   9.284   2.198  0.0874  0.2595 -0.3053
  299MOL0     C41165   6.691   9.366   2.281  0.2719 -0.4124 -0.0462
  299MOL0     C41166   6.765   9.486   2.211 -0.6550  0.2431 -0.4226
  299MOL0     C41167   6.823   9.456   2.073 -0.4538  0.8377 -0.3973
  299MOL0     C41168   6.929   9.345   2.091 -0.3132 -0.3991  0.3624
  299MOL0    Cl41169   7.009   9.299   1.942  0.2400  0.1939 -0.5267
  299MOL0     C41170   6.017   9.578   2.058  0.6190 -0.6271 -0.2517
  299MOL0     C41171   5.883   9.622   2.052 -1.0388  0.1795 -0.6478
  299MOL0     O41172   5.737   9.915   2.225 -0.4202  0.8481 -0.9021
  299MOL0     C41173   5.421   9.768   2.169  0.4492 -0.1180  0.1576
  299MOL0     C41174   5.288   9.800   2.125 -0.5355  0.4752 -0.1333
  299MOL0     N41175   4.675  10.235   1.734  0.1969 -0.6635  0.8414
  299MOL0     N41176   4.576  10.274   1.654  0.2273 -0.6291  0.3859
  299MOL0     C41177   3.443  10.385   1.193  1.2569 -0.0957  0.1658
  299MOL0     C41178   3.363  10.365   1.071  0.1305  0.4766 -0.1814
  299MOL0     C41179   3.245  10.225   0.655 -0.7690  1.2526  0.1891
  299MOL0     C41180   3.194  10.355   0.615 -0.3140  0.5746  0.9066
  299MOL0     C41181   3.102  10.370   0.508  0.0962  0.8444 -0.1838
  299MOL0     C41182   3.054  10.257   0.449 -0.0295  0.5045 -0.4076
  299MOL0     O41183   2.967  10.246   0.338  0.0467  0.1673  0.1964
  299MOL0     C41184   2.957  10.359   0.253 -0.2405  0.8864  0.4078
  299MOL0     C41185   2.902  10.324   0.108  0.1915 -0.0848 -0.2059
  299MOL0     C41186   2.877  10.459   0.033 -0.0664  0.6814  0.2962
  299MOL0     C41187   2.758  10.538   0.087  0.3531 -0.3232  0.1509
  299MOL0     C41188   2.628  10.478   0.059 -0.3341 -0.0310 -0.2559
  299MOL0     C41189   2.527  10.424   0.034  0.5259 -0.5951 -0.3191
  299MOL0     C41190   3.098  10.129   0.490  0.2389 -0.3916  0.1405
  299MOL0     C41191   3.198  10.106   0.589 -0.1500  0.4707 -0.1978
  299MOL0     C41192   3.227   9.957   0.611  1.1942  0.3125 -0.4769
  299MOL0     H41193   3.615  10.255   0.878 -1.0036  0.0609 -0.4527
  299MOL0     H41194   3.757  10.311   1.086  0.5511  1.1227  2.0023
  299MOL0     H41195   3.489  10.330   1.415 -0.2422 -0.9994 -3.0323
  299MOL0     H41196   3.603  10.420   1.512 -1.1365 -1.4356  1.3840
  299MOL0     H41197   3.611  10.180   1.567  1.4275  3.2358  1.7815
  299MOL0     H41198   3.634  10.145   1.390  0.9940  0.2739 -1.0883
  299MOL0     H41199   3.844  10.270   1.410 -2.2890  1.4459 -0.0671
  299MOL0     H41200   3.805  10.313   1.572 -1.2571  0.4528 -0.5895
  299MOL0     H41201   3.847  10.085   1.662 -0.6164 -0.7712 -0.3780
  299MOL0     H41202   3.870  10.032   1.497  1.7739 -1.7439  2.5722
  299MOL0     H41203   4.065  10.174   1.468 -1.2210 -0.8382 -1.0787
  299MOL0     H41204   4.074  10.049   1.592  0.5470  0.8598  0.9644
  299MOL0     H41205   4.049  10.338   1.670  1.5366 -0.1395  0.3926
  299MOL0     H41206   4.030  10.213   1.772 -1.7286 -1.4094 -1.2951
  299MOL0     H41207   4.228  10.129   1.780 -0.1059  2.1735  2.4420
  299MOL0     H41208   4.255  10.298   1.782  0.2685 -1.6679  1.5731
  299MOL0     H41209   4.317  10.125   1.533  1.7767 -0.1239 -0.2377
  299MOL0     H41210   4.329  10.304   1.541 -0.0803 -0.4755 -2.0272
  299MOL0     H41211   4.456   9.996   1.755  1.6552 -0.1527  0.0327
  299MOL0     H41212   4.669   9.922   1.875 -0.2619 -0.5604  0.1005
  299MOL0     H41213   4.614  10.044   1.986 -0.6811  0.4204 -1.4692
  299MOL0     H41214   4.833  10.162   1.970  1.5863 -0.1450  0.5613
  299MOL0     H41215   4.828  10.001   2.045 -1.0432 -1.2746 -1.3850
  299MOL0     H41216   4.936   9.925   1.809  0.0121  0.6097 -1.0286
  299MOL0     H41217   4.937  10.098   1.777  4.4851  1.1486  0.7121
  299MOL0     H41218   5.147  10.063   1.835  1.3223  3.0476  1.7839
  299MOL0     H41219   5.086  10.135   1.979  1.7205  0.5611 -0.2287
  299MOL0     H41220   5.320  10.097   1.991  3.9761  2.2506  2.2027
  299MOL0     H41221   5.670  10.063   2.033 -0.0796  0.3708 -2.2278
  299MOL0     H41222   5.602  10.163   2.160  0.2714 -3.7329  1.4184
  299MOL0     H41223   5.539  10.181   1.997 -3.1887 -1.3838  0.7417
  299MOL0     H41224   5.865   9.742   2.379 -0.0044  1.1044 -1.4475
  299MOL0     H41225   6.108   9.664   2.379  1.3981  2.0403 -1.7612
  299MOL0     H41226   6.246   9.431   2.012  1.6990 -0.3909 -2.0013
  299MOL0     H41227   6.312   9.589   1.989  0.4173 -1.4045 -0.1793
  299MOL0     H41228   6.475   9.433   1.987 -0.8596  0.5787  0.8833
  299MOL0     H41229   6.495   9.543   2.132 -2.1371  1.7023  0.0290
  299MOL0     H41230   6.383   9.264   2.136 -0.1637  0.0888 -1.0988
  299MOL0     H41231   6.405   9.371   2.276 -1.1539  1.9774 -1.3349
  299MOL0     H41232   6.619   9.248   2.099 -1.1268 -0.4531 -0.4415
  299MOL0     H41233   6.583   9.190   2.254 -2.2359  1.4852  1.6745
  299MOL0     H41234   6.643   9.403   2.372 -1.9793  0.0474 -1.3353
  299MOL0     H41235   6.774   9.308   2.323  0.2516  1.0152  2.1136
  299MOL0     H41236   6.847   9.517   2.277 -2.1911 -0.0545  1.7295
  299MOL0     H41237   6.697   9.571   2.198  0.9876  1.2429 -3.3868
  299MOL0     H41238   6.855   9.550   2.027  1.5745  0.2437 -0.2824
  299MOL0     H41239   6.743   9.421   2.007  1.5242 -2.8906 -1.0656
  299MOL0     H41240   6.881   9.258   2.137  0.1593 -0.7093  0.2730
  299MOL0     H41241   7.013   9.389   2.147  0.5547 -1.3935 -0.1203
  299MOL0     H41242   6.052   9.540   1.962 -0.5345 -0.9586 -0.5620
  299MOL0     H41243   5.812   9.610   1.971 -0.7769 -1.0842 -0.7028
  299MOL0     H41244   5.431   9.676   2.225  0.2251 -2.6629 -3.6530
  299MOL0     H41245   5.219   9.719   2.146 -0.9204  1.0841  1.0848
  299MOL0     H41246   3.385  10.427   1.275 -1.5768  0.0561 -1.7828
  299MOL0     H41247   3.258  10.394   1.071  0.4036  1.5899 -1.7601
  299MOL0     H41248   3.234  10.450   0.648  1.8380  1.1469 -2.8372
  299MOL0     H41249   3.086  10.469   0.466 -2.1050 -0.7333 -3.4999
  299MOL0     H41250   2.901  10.433   0.310  0.0187  1.5641 -0.2084
  299MOL0     H41251   3.055  10.399   0.228 -0.5306  1.7554  0.6419
  299MOL0     H41252   2.808  10.269   0.118 -1.8850  3.3255  1.0546
  299MOL0     H41253   2.976  10.258   0.062  2.6102  1.4335  1.2367
  299MOL0     H41254   2.974  10.510   0.032  0.7792 -0.8002 -2.6124
  299MOL0     H41255   2.856  10.448  -0.073  2.8361  3.0364 -0.6501
  299MOL0     H41256   2.747  10.636   0.041 -1.5197 -0.4211  0.3231
  299MOL0     H41257   2.759  10.557   0.195 -3.3664 -0.2272  0.2863
  299MOL0     H41258   2.425  10.391   0.022  0.6757 -1.6962  1.1401
  299MOL0     H41259   3.051  10.041   0.448  0.9220 -0.1917 -1.1062
  299MOL0     H41260   3.202   9.922   0.712  0.2003 -0.6577 -1.0401
  299MOL0     H41261   3.163   9.905   0.539 -1.1385  1.1523  0.9024
  299MOL0     H41262   3.332   9.936   0.586  1.1644 -1.7194  0.8720
  300MOL0     O41263   3.555  11.422   6.767 -0.2263  0.0756  0.1751
  300MOL0     C41264   3.536  11.525   6.711  0.0946 -0.4581  1.5209
  300MOL0     O41265   3.612  11.638   6.725  0.5009 -0.6091  0.0949
  300MOL0     C41266   3.723  11.617   6.804 -0.7623 -0.0350  0.5973
  300MOL0     C41267   3.715  11.669   6.930 -0.7048  0.2033  0.3765
  300MOL0     C41268   3.820  11.660   7.027  0.2470 -0.4340  0.4196
  300MOL0     C41269   3.929  11.571   6.997  0.3783 -0.1966  0.1473
  300MOL0     O41270   4.023  11.556   7.094 -0.3861  0.5340  0.1737
  300MOL0     C41271   4.157  11.514   7.053 -0.7286  0.8439  0.8331
  300MOL0     C41272   4.248  11.559   7.165 -0.7687 -0.6868  0.2794
  300MOL0     C41273   4.403  11.538   7.152  0.2705  0.4050  0.4439
  300MOL0     C41274   4.478  11.555   7.283 -0.2049 -0.1610 -1.0739
  300MOL0     C41275   4.626  11.545   7.264 -0.0259 -0.6920  0.4009
  300MOL0     C41276   4.710  11.542   7.388  0.6619 -0.7479 -0.1443
  300MOL0     C41277   4.861  11.521   7.354  0.1824  0.7875 -0.4878
  300MOL0     C41278   4.926  11.426   7.459  0.0503  0.5426 -0.5156
  300MOL0     N41279   4.889  11.287   7.430  0.5060  0.6175 -0.9205
  300MOL0     C41280   4.786  11.212   7.486 -0.1760 -0.2837 -0.2002
  300MOL0     C41281   4.799  11.082   7.438  0.5102  1.1403 -0.2797
  300MOL0     C41282   4.711  10.961   7.490 -0.4481  0.4837 -0.0517
  300MOL0     C41283   4.719  10.848   7.392  0.6829  0.4435 -0.1445
  300MOL0     C41284   4.715  10.703   7.450 -0.9797  0.3481  0.0266
  300MOL0     C41285   4.612  10.686   7.560  0.4001 -0.8871 -0.1755
  300MOL0     O41286   4.481  10.711   7.506  0.0047 -0.2950  0.1088
  300MOL0     C41287   4.365  10.682   7.574 -0.0474 -0.3184  0.3628
  300MOL0     C41288   4.340  10.678   7.711 -0.0252  0.9283  1.3264
  300MOL0     C41289   4.207  10.664   7.754 -0.0219  0.7903 -0.1392
  300MOL0     C41290   4.182  10.677   7.896  1.0477 -0.2458 -0.2983
  300MOL0     C41291   4.108  10.650   7.662  0.5543  0.0735  0.1586
  300MOL0     C41292   3.965  10.625   7.709  0.2108 -0.6878 -0.1306
  300MOL0     O41293   3.947  10.529   7.801 -0.3203  0.1897 -0.2121
  300MOL0     C41294   3.828  10.455   7.807 -0.0986 -0.2931 -0.7670
  300MOL0     C41295   3.752  10.423   7.693  0.1909 -1.3339 -0.3011
  300MOL0     C41296   3.647  10.336   7.691  0.0579 -0.6696  0.5791
  300MOL0     C41297   3.600  10.271   7.810 -0.0086 -0.4681  0.7723
  300MOL0     O41298   3.492  10.188   7.794  0.6252 -0.0978 -0.6669
  300MOL0     C41299   3.486  10.066   7.875  0.2986 -0.8317 -0.3854
  300MOL0     C41300   3.369  10.093   7.967  0.3286  1.0072  1.2471
  300MOL0     C41301   3.331   9.965   8.045 -0.7376 -0.6475  0.1891
  300MOL0     C41302   3.222  10.016   8.130 -0.5408  0.2854 -0.1418
  300MOL0     C41303   3.196   9.916   8.245  0.1888 -0.7860  0.6086
  300MOL0     C41304   3.064   9.929   8.301  0.2152  0.3055 -0.5589
  300MOL0     C41305   3.047   9.855   8.433 -0.7002  0.5302  0.5241
  300MOL0     C41306   2.926   9.902   8.517 -0.2653  0.0222 -0.3560
  300MOL0    Cl41307   2.937   9.827   8.687  0.1503  0.3914  0.1469
  300MOL0     C41308   3.675  10.303   7.929  0.1646  0.3944 -0.0557
  300MOL0     C41309   3.780  10.401   7.934  0.7018 -0.3521 -0.1919
  300MOL0     O41310   3.879  10.693   7.651  0.2246 -0.1121  0.2083
  300MOL0     C41311   4.130  10.667   7.526  0.8141  0.5541 -0.0986
  300MOL0     C41312   4.260  10.681   7.491  1.0096  0.0614 -0.1729
  300MOL0     N41313   4.910  11.090   7.354  0.5783  0.3618 -0.2252
  300MOL0     N41314   4.966  11.205   7.350  0.1039  1.2770 -0.1321
  300MOL0     C41315   3.924  11.501   6.883 -0.4631  0.3526 -0.2073
  300MOL0     C41316   3.826  11.522   6.786 -0.1228  0.1245  0.4446
  300MOL0     C41317   3.418  11.530   6.625  0.2599 -0.7792  0.1338
  300MOL0     C41318   3.371  11.657   6.586  0.0991  0.1652 -0.6875
  300MOL0     C41319   3.266  11.676   6.491  0.5145  0.1966 -0.0342
  300MOL0     C41320   3.208  11.559   6.441 -0.0947 -1.0598  0.9528
  300MOL0     O41321   3.098  11.568   6.345 -0.3007 -0.6731  0.3799
  300MOL0     C41322   3.054  11.691   6.286  0.3946  0.2967  0.4595
  300MOL0     C41323   2.924  11.671   6.201 -0.1349  0.3174 -0.2868
  300MOL0     C41324   2.867  11.807   6.157 -0.2212 -0.2150 -0.2764
  300MOL0     C41325   2.758  11.800   6.042 -0.5228  0.0056  0.7642
  300MOL0     C41326   2.825  11.786   5.909  0.4261 -0.0956 -0.1783
  300MOL0     C41327   2.859  11.774   5.793 -0.3243  0.7143  0.1125
  300MOL0     C41328   3.240  11.442   6.493 -0.2141  0.1999  0.8284
  300MOL0     C41329   3.345  11.414   6.579  0.0208 -1.0594  0.4658
  300MOL0     C41330   3.373  11.266   6.605  0.4268 -0.5573  0.4399
  300MOL0     H41331   3.639  11.740   6.961  0.2523  1.4049  0.0484
  300MOL0     H41332   3.826  11.705   7.125  1.2897 -0.7269  0.4993
  300MOL0     H41333   4.172  11.570   6.960 -3.5143  2.1317  1.0626
  300MOL0     H41334   4.166  11.406   7.040  1.1536  1.0796 -0.0718
  300MOL0     H41335   4.227  11.664   7.185 -2.6853 -0.6832 -1.5095
  300MOL0     H41336   4.211  11.510   7.256 -0.2895  1.3706  1.6548
  300MOL0     H41337   4.431  11.444   7.103 -1.5830  0.8611 -1.6518
  300MOL0     H41338   4.443  11.612   7.083 -1.3091  0.0886 -0.8812
  300MOL0     H41339   4.457  11.641   7.348 -3.1515 -2.8241  1.8583
  300MOL0     H41340   4.437  11.461   7.321  2.1736 -0.3062  1.4339
  300MOL0     H41341   4.672  11.624   7.203 -1.7706 -0.4404 -0.6535
  300MOL0     H41342   4.639  11.445   7.222  0.2015 -0.5590  0.1469
  300MOL0     H41343   4.699  11.637   7.440  4.0489 -1.0892  1.5245
  300MOL0     H41344   4.676  11.466   7.460  1.6655 -0.3800  0.7553
  300MOL0     H41345   4.915  11.616   7.358  1.9646 -0.1403  4.5569
  300MOL0     H41346   4.865  11.473   7.255 -1.1034 -1.6117  0.5332
  300MOL0     H41347   5.035  11.424   7.446  0.4504 -3.6534  1.8873
  300MOL0     H41348   4.905  11.456   7.562 -2.9250  0.7954 -1.1043
  300MOL0     H41349   4.715  11.247   7.560 -2.0821  0.1895 -2.1548
  300MOL0     H41350   4.606  10.986   7.508  0.1159  0.0897  5.3036
  300MOL0     H41351   4.747  10.941   7.591  3.4049  1.0452 -1.1548
  300MOL0     H41352   4.660  10.851   7.300  0.5218  1.9864 -0.0189
  300MOL0     H41353   4.821  10.854   7.352  0.4007  0.1484 -0.9340
  300MOL0     H41354   4.714  10.628   7.371  3.5424 -1.1892  1.1355
  300MOL0     H41355   4.816  10.703   7.491  0.4240  1.7547 -3.1153
  300MOL0     H41356   4.625  10.584   7.598 -2.6440 -2.3793 -2.6224
  300MOL0     H41357   4.633  10.755   7.641 -0.9910 -2.9935  2.1251
  300MOL0     H41358   4.427  10.666   7.775  1.7254  0.9487 -0.9154
  300MOL0     H41359   4.161  10.584   7.951 -1.3957  0.1218 -0.4734
  300MOL0     H41360   4.106  10.753   7.917  3.4871  2.4414 -0.6833
  300MOL0     H41361   4.270  10.720   7.945  1.1087 -0.0730 -0.5603
  300MOL0     H41362   3.790  10.468   7.603 -0.2852 -1.9795 -0.8342
  300MOL0     H41363   3.586  10.334   7.601 -0.4259  2.4401  0.7159
  300MOL0     H41364   3.467   9.976   7.816  2.8080 -0.7407 -1.4423
  300MOL0     H41365   3.578  10.059   7.934  0.0835 -1.9674 -0.1601
  300MOL0     H41366   3.381  10.181   8.030 -2.1780  1.4057  1.2796
  300MOL0     H41367   3.288  10.115   7.896 -0.4038 -2.5682  0.7602
  300MOL0     H41368   3.408   9.919   8.107 -0.5840 -1.7075 -0.7322
  300MOL0     H41369   3.312   9.884   7.973  1.2845  0.4318 -1.6717
  300MOL0     H41370   3.136  10.038   8.065 -0.0890 -1.0883 -1.2551
  300MOL0     H41371   3.252  10.105   8.185 -0.9723  0.9962 -1.0352
  300MOL0     H41372   3.211   9.813   8.212 -1.7233 -1.7135  2.4154
  300MOL0     H41373   3.267   9.934   8.326 -1.0730  0.3167  1.5057
  300MOL0     H41374   2.988   9.902   8.228  1.1869 -0.5796 -1.2754
  300MOL0     H41375   3.045  10.029   8.340 -0.4228 -0.2365  0.5892
  300MOL0     H41376   3.135   9.885   8.491  0.7573  2.2255 -2.3338
  300MOL0     H41377   3.050   9.748   8.409  0.7984  0.5575  0.5044
  300MOL0     H41378   2.833   9.866   8.472  0.3758 -1.9877 -0.1951
  300MOL0     H41379   2.919  10.010   8.524 -1.2207  0.0222 -1.0309
  300MOL0     H41380   3.644  10.254   8.020 -3.6079 -1.2541 -2.0003
  300MOL0     H41381   3.828  10.427   8.028  0.7328 -3.7183  0.8555
  300MOL0     H41382   4.044  10.659   7.460  1.9488 -1.4512 -1.4432
  300MOL0     H41383   4.267  10.690   7.383  1.3576 -0.0047 -0.1585
  300MOL0     H41384   4.001  11.426   6.872 -1.4844 -1.0401  1.6314
  300MOL0     H41385   3.819  11.460   6.697 -1.2962  0.5772  0.2058
  300MOL0     H41386   3.423  11.750   6.608  1.5644 -0.7245 -0.2341
  300MOL0     H41387   3.242  11.777   6.461 -2.3286 -0.3493  0.0732
  300MOL0     H41388   3.039  11.769   6.361  0.2309  1.1568 -0.4345
  300MOL0     H41389   3.129  11.736   6.220 -0.0539 -0.8119 -0.8724
  300MOL0     H41390   2.845  11.622   6.258 -2.2390  0.4249 -2.9540
  300MOL0     H41391   2.949  11.611   6.113  2.4124  2.6957 -1.3451
  300MOL0     H41392   2.823  11.870   6.235 -1.8038  2.7984 -3.3178
  300MOL0     H41393   2.954  11.866   6.127 -1.9779  3.4596  1.2515
  300MOL0     H41394   2.697  11.890   6.037  0.1488  0.4134 -0.7512
  300MOL0     H41395   2.694  11.712   6.055  2.2635 -2.4086 -0.5781
  300MOL0     H41396   2.886  11.774   5.690 -0.2279 -1.9932  0.0768
  300MOL0     H41397   3.188  11.360   6.446  0.2780  1.0019 -1.2352
  300MOL0     H41398   3.356  11.240   6.710  0.9033 -0.6907  0.4874
  300MOL0     H41399   3.310  11.195   6.552  1.4415 -1.0316 -0.1639
  300MOL0     H41400   3.475  11.235   6.580 -0.6980 -3.0445 -1.3970
  301MOL0     O41401   0.899   0.445  11.322 -0.8489  0.5700 -0.0075
  301MOL0     C41402   0.886   0.385  11.427  1.1123 -0.4468 -0.5782
  301MOL0     O41403   0.940   0.428  11.549 -0.4559  0.5191 -0.1096
  301MOL0     C41404   1.048   0.513  11.546 -0.4550 -0.2191 -0.9812
  301MOL0     C41405   1.173   0.455  11.558 -0.0374 -0.1791 -0.9829
  301MOL0     C41406   1.294   0.528  11.559 -0.1453  0.5738  0.9105
  301MOL0     C41407   1.280   0.670  11.561  0.8474  0.0762  0.3597
  301MOL0     O41408   1.380   0.761  11.568  0.2012  0.5057 -0.5523
  301MOL0     C41409   1.505   0.704  11.605  0.1764  0.1398  0.1124
  301MOL0     C41410   1.590   0.821  11.660 -0.3311 -1.7184  0.8866
  301MOL0     C41411   1.622   0.928  11.555 -0.1022  0.1687  0.4934
  301MOL0     C41412   1.741   0.897  11.452 -0.0922  0.1282  0.3579
  301MOL0     C41413   1.779   1.022  11.370 -0.4185 -0.3734 -0.8437
  301MOL0     C41414   1.883   1.094  11.448  0.0645 -0.2018  0.0812
  301MOL0     C41415   1.947   1.206  11.362  0.2609 -0.4585 -0.3990
  301MOL0     C41416   2.045   1.146  11.260 -0.4421 -0.0057 -1.1227
  301MOL0     N41417   2.108   1.245  11.178  0.2241  0.2304  0.5960
  301MOL0     C41418   2.183   1.348  11.221  0.3035  0.2945  0.4852
  301MOL0     C41419   2.227   1.426  11.116 -1.0268  0.7792 -0.5964
  301MOL0     C41420   2.325   1.536  11.130  0.2550  0.6739 -0.0128
  301MOL0     C41421   2.294   1.643  11.035 -0.4021  0.2906  0.3931
  301MOL0     C41422   2.384   1.776  11.037 -0.2597  0.1634 -0.0210
  301MOL0     C41423   2.347   1.880  10.936  0.5414  0.1369  0.3985
  301MOL0     O41424   2.413   1.997  10.983 -0.7343  0.5088  0.2573
  301MOL0     C41425   2.418   2.109  10.903  0.3766 -0.0669  0.4872
  301MOL0     C41426   2.488   2.213  10.945  0.3065  0.5577  0.7216
  301MOL0     C41427   2.500   2.334  10.871 -0.3009 -0.2070  0.4313
  301MOL0     C41428   2.582   2.440  10.931  0.3512  0.4335  0.4505
  301MOL0     C41429   2.447   2.339  10.736 -0.4126 -0.5175 -0.3132
  301MOL0     C41430   2.445   2.453  10.648 -0.6181  0.2879  0.2849
  301MOL0     O41431   2.424   2.576  10.701 -0.2844  0.1718 -0.1566
  301MOL0     C41432   2.445   2.679  10.605  0.6319 -0.7271  0.6467
  301MOL0     C41433   2.579   2.733  10.589  1.0671 -0.2493 -0.3086
  301MOL0     C41434   2.604   2.824  10.486  0.2939  0.2879 -0.8249
  301MOL0     C41435   2.498   2.868  10.400 -0.3172  0.0385  0.4489
  301MOL0     O41436   2.505   2.946  10.286  0.7297  0.2700 -0.3226
  301MOL0     C41437   2.628   3.010  10.250  0.8363 -0.1827  0.5705
  301MOL0     C41438   2.610   3.115  10.142  0.6833  1.2778 -0.1537
  301MOL0     C41439   2.520   3.232  10.190  0.7603  0.0876 -0.1313
  301MOL0     C41440   2.546   3.342  10.096  0.6255 -0.2288  0.2568
  301MOL0     C41441   2.460   3.465  10.125  0.4076  0.5331  0.9343
  301MOL0     C41442   2.494   3.585  10.039  0.3207 -0.5438 -0.7049
  301MOL0     C41443   2.392   3.700  10.065 -0.8384  0.4129  0.0271
  301MOL0     C41444   2.441   3.788  10.174  0.0813 -0.8606 -0.0197
  301MOL0    Cl41445   2.606   3.855  10.147 -0.0105 -0.1525 -0.4031
  301MOL0     C41446   2.368   2.821  10.420  0.4767  0.0244  0.1817
  301MOL0     C41447   2.343   2.717  10.512  0.0757  0.2651 -0.0814
  301MOL0     O41448   2.504   2.434  10.544 -0.0515 -0.4114 -0.3796
  301MOL0     C41449   2.360   2.230  10.703 -1.0752  0.4775 -0.0657
  301MOL0     C41450   2.357   2.114  10.778 -0.1857  0.4103 -0.4533
  301MOL0     N41451   2.171   1.360  11.005 -0.6750  0.0457  0.6460
  301MOL0     N41452   2.089   1.261  11.043 -0.2490  0.2102  0.2521
  301MOL0     C41453   1.154   0.727  11.523  1.1494  0.2131 -0.0703
  301MOL0     C41454   1.040   0.648  11.534 -0.3307 -0.5785  0.4460
  301MOL0     C41455   0.803   0.262  11.422 -1.6119 -0.7642  0.3638
  301MOL0     C41456   0.835   0.167  11.521  0.5184 -0.3170  0.7834
  301MOL0     C41457   0.782   0.036  11.515 -0.4410 -0.7108  0.0979
  301MOL0     C41458   0.678   0.009  11.418 -0.3824  0.3587 -0.4495
  301MOL0     O41459   0.626  -0.118  11.422  0.1403  0.5298  0.4889
  301MOL0     C41460   0.527  -0.158  11.326  0.3060 -0.4119 -0.5741
  301MOL0     C41461   0.458  -0.286  11.360  1.0944  0.8886 -0.4981
  301MOL0     C41462   0.367  -0.350  11.254  1.0223  0.3103 -0.1355
  301MOL0     C41463   0.434  -0.454  11.168  0.7601  0.3736 -0.3925
  301MOL0     C41464   0.475  -0.406  11.039 -0.4289  0.2700  0.0838
  301MOL0     C41465   0.496  -0.388  10.916 -0.4296  0.1250  1.0093
  301MOL0     C41466   0.639   0.115  11.333  0.1057  0.9110  0.3751
  301MOL0     C41467   0.711   0.234  11.318  0.2184 -0.1436 -0.4600
  301MOL0     C41468   0.674   0.323  11.202 -0.4095  0.3660  1.1621
  301MOL0     H41469   1.168   0.349  11.582 -0.0276 -0.2567 -1.3186
  301MOL0     H41470   1.393   0.484  11.568 -0.4731 -0.9417 -1.7661
  301MOL0     H41471   1.544   0.672  11.508 -1.2577  0.1312 -0.4791
  301MOL0     H41472   1.502   0.629  11.685  0.7277 -0.8302 -0.7428
  301MOL0     H41473   1.550   0.860  11.754 -2.3579 -0.5626 -0.3681
  301MOL0     H41474   1.692   0.786  11.676  1.3945  1.7129 -1.2915
  301MOL0     H41475   1.535   0.963  11.499 -0.1750 -0.6469  0.0904
  301MOL0     H41476   1.673   1.011  11.605  0.3352 -0.4266  1.0511
  301MOL0     H41477   1.823   0.859  11.514  1.7054  3.6091  0.3422
  301MOL0     H41478   1.703   0.827  11.376  1.2947  2.3190 -2.5587
  301MOL0     H41479   1.684   1.074  11.353 -0.2154  0.4854  0.4906
  301MOL0     H41480   1.813   0.998  11.269  0.3947  0.1243 -0.6987
  301MOL0     H41481   1.839   1.142  11.536 -1.7495 -1.3427 -0.1531
  301MOL0     H41482   1.962   1.027  11.484 -0.4084 -2.1895 -2.3100
  301MOL0     H41483   2.016   1.268  11.420  0.0982 -0.0006 -0.6904
  301MOL0     H41484   1.865   1.267  11.323 -0.2173 -3.3551 -4.6063
  301MOL0     H41485   2.126   1.093  11.310 -0.0641  0.8152 -0.8375
  301MOL0     H41486   1.985   1.074  11.204 -4.2931  2.7516 -0.9856
  301MOL0     H41487   2.200   1.371  11.325 -0.3324 -2.1987  1.2146
  301MOL0     H41488   2.424   1.500  11.100  2.1321  4.8939  0.3750
  301MOL0     H41489   2.323   1.579  11.231 -3.2208 -2.6273  1.5636
  301MOL0     H41490   2.293   1.599  10.934  0.4280 -3.3339  1.8179
  301MOL0     H41491   2.192   1.672  11.062 -0.3458  0.7183  0.1577
  301MOL0     H41492   2.371   1.826  11.133  0.1541  7.7953 -3.2642
  301MOL0     H41493   2.486   1.746  11.013 -0.6297 -0.2264 -1.1808
  301MOL0     H41494   2.384   1.861  10.835  1.8677  0.9162  0.7097
  301MOL0     H41495   2.238   1.883  10.933  0.5486 -0.3749 -1.2364
  301MOL0     H41496   2.534   2.220  11.043 -1.8652 -0.3331  1.8725
  301MOL0     H41497   2.516   2.526  10.947 -3.1766 -1.3588 -2.8758
  301MOL0     H41498   2.650   2.485  10.858  0.2643  0.7104  0.5383
  301MOL0     H41499   2.644   2.413  11.017  0.9002 -0.3692 -0.1843
  301MOL0     H41500   2.652   2.701  10.663  0.3374  0.0420  0.5657
  301MOL0     H41501   2.709   2.851  10.478  1.2293 -1.7223  2.3956
  301MOL0     H41502   2.677   3.050  10.339 -0.0896  0.6249  0.7303
  301MOL0     H41503   2.685   2.935  10.194 -0.7947  0.0674 -1.5935
  301MOL0     H41504   2.705   3.167  10.127  2.0496 -1.4418 -1.6869
  301MOL0     H41505   2.575   3.064  10.052  0.0674 -1.5581  1.5599
  301MOL0     H41506   2.537   3.263  10.293  0.3817 -0.3982  0.0816
  301MOL0     H41507   2.419   3.192  10.181  1.4274 -1.7044 -0.1757
  301MOL0     H41508   2.538   3.321   9.989 -0.5374  1.4462 -0.0368
  301MOL0     H41509   2.652   3.365  10.105  1.4164 -3.6267  0.7142
  301MOL0     H41510   2.357   3.430  10.112  0.8798  0.0386 -2.0107
  301MOL0     H41511   2.477   3.501  10.227  1.2374  1.8391  0.3640
  301MOL0     H41512   2.473   3.542   9.941 -1.7991 -5.2098  1.4891
  301MOL0     H41513   2.597   3.621  10.049  0.1242  0.4667 -1.9900
  301MOL0     H41514   2.298   3.652  10.093  0.6964 -1.9832  1.5058
  301MOL0     H41515   2.385   3.758   9.973  3.6758 -1.0907 -1.5682
  301MOL0     H41516   2.449   3.734  10.268  2.1849 -1.9861 -0.7862
  301MOL0     H41517   2.367   3.868  10.180  1.4829  0.7521 -2.2887
  301MOL0     H41518   2.286   2.855  10.357 -2.4680 -0.2860  3.5142
  301MOL0     H41519   2.249   2.667  10.533  0.6789 -0.5247  0.8598
  301MOL0     H41520   2.309   2.233  10.607 -2.0139 -0.6033  0.3806
  301MOL0     H41521   2.309   2.030  10.729 -1.6997 -0.8133  2.8592
  301MOL0     H41522   1.156   0.835  11.512  1.0964  0.0869 -1.5549
  301MOL0     H41523   0.944   0.699  11.529  0.9281  1.9854  1.0802
  301MOL0     H41524   0.899   0.199  11.602 -0.2883  2.2594  0.4977
  301MOL0     H41525   0.808  -0.039  11.589 -1.3359  0.4572  1.6683
  301MOL0     H41526   0.450  -0.082  11.309  0.9706  0.9240  1.8386
  301MOL0     H41527   0.579  -0.174  11.231 -2.1256 -0.1827 -2.0290
  301MOL0     H41528   0.387  -0.269  11.442  0.1133 -0.6459 -0.9778
  301MOL0     H41529   0.538  -0.353  11.393  1.3920  1.3131 -0.3414
  301MOL0     H41530   0.294  -0.400  11.318 -2.2705  2.8472 -1.6176
  301MOL0     H41531   0.306  -0.284  11.191 -1.1003 -0.9695  0.4490
  301MOL0     H41532   0.362  -0.524  11.125  1.9703  0.1078 -2.0753
  301MOL0     H41533   0.521  -0.508  11.207  1.3669  2.2782  1.0354
  301MOL0     H41534   0.499  -0.375  10.810 -2.5539 -1.8478  0.6033
  301MOL0     H41535   0.564   0.105  11.255  2.2172  0.2113 -1.6840
  301MOL0     H41536   0.593   0.279  11.143  0.4334 -0.5983  0.6765
  301MOL0     H41537   0.648   0.425  11.231 -1.3580  1.5436 -3.1457
  301MOL0     H41538   0.750   0.320  11.123 -0.2318  0.3871  1.3310
  302MOL0     O41539   5.793   7.987  10.557 -0.3751 -0.2281  0.1190
  302MOL0     C41540   5.783   8.084  10.630  1.1568  0.3712 -0.1314
  302MOL0     O41541   5.753   8.086  10.764 -0.1302  0.0916 -0.0729
  302MOL0     C41542   5.692   7.977  10.816  0.1911 -0.0721  0.0747
  302MOL0     C41543   5.764   7.875  10.862  1.1651  0.7732 -0.1621
  302MOL0     C41544   5.712   7.777  10.948  0.1363 -0.3798 -0.5664
  302MOL0     C41545   5.574   7.777  10.962 -0.7697 -0.8268 -0.5549
  302MOL0     O41546   5.538   7.677  11.041  0.1071 -0.7743  0.9404
  302MOL0     C41547   5.419   7.611  11.018  0.8671  0.0358  0.2256
  302MOL0     C41548   5.439   7.508  10.914 -0.3074  0.0884  0.7398
  302MOL0     C41549   5.543   7.407  10.951 -0.2071 -0.4190  0.2053
  302MOL0     C41550   5.560   7.291  10.857  0.0991  0.5435 -0.9656
  302MOL0     C41551   5.701   7.254  10.814 -0.9683 -0.4741 -0.5755
  302MOL0     C41552   5.714   7.128  10.724 -0.6211  1.0974  0.0481
  302MOL0     C41553   5.848   7.115  10.654 -0.3104 -0.9344 -0.9849
  302MOL0     C41554   5.955   7.084  10.759 -0.5639  0.1073 -0.8067
  302MOL0     N41555   5.945   6.960  10.836 -0.7660 -0.3863  0.4894
  302MOL0     C41556   5.997   6.837  10.796 -0.3917  0.4678  0.2780
  302MOL0     C41557   5.969   6.753  10.897 -0.8618  0.5289  0.1592
  302MOL0     C41558   6.006   6.606  10.911  0.0876 -0.4348  0.5983
  302MOL0     C41559   5.889   6.508  10.899  0.1785 -0.6289 -1.5637
  302MOL0     C41560   5.927   6.359  10.909 -0.6870 -0.1847  1.2775
  302MOL0     C41561   6.022   6.319  10.781 -0.8824 -0.6295 -0.0108
  302MOL0     O41562   5.961   6.346  10.657  0.5993 -0.7080  0.1585
  302MOL0     C41563   5.840   6.301  10.621  0.7139  0.2178 -0.3942
  302MOL0     C41564   5.752   6.393  10.572  0.9564  0.4947 -0.2133
  302MOL0     C41565   5.625   6.356  10.528 -0.9056  0.1280 -0.4406
  302MOL0     C41566   5.535   6.470  10.481  0.5896  0.4126  0.0662
  302MOL0     C41567   5.588   6.217  10.530  0.4616 -0.1429 -0.0061
  302MOL0     C41568   5.456   6.161  10.489  0.1847  0.5121  0.4675
  302MOL0     O41569   5.450   6.031  10.491 -0.2547 -0.0718  0.0256
  302MOL0     C41570   5.365   5.955  10.412  0.3252  0.0203  0.3985
  302MOL0     C41571   5.295   5.992  10.296 -0.8333 -1.1930 -0.2174
  302MOL0     C41572   5.207   5.891  10.233  0.5663 -0.1998  0.9073
  302MOL0     C41573   5.187   5.769  10.288  0.4433 -0.7053 -0.0883
  302MOL0     O41574   5.117   5.676  10.215 -0.2643 -0.0931 -0.5062
  302MOL0     C41575   5.149   5.656  10.074 -0.3536  0.6522  0.5927
  302MOL0     C41576   5.097   5.521  10.020 -0.7185  0.2822 -0.8868
  302MOL0     C41577   5.088   5.530   9.869  0.0244 -0.9534  0.2421
  302MOL0     C41578   5.047   5.401   9.805  0.5119  0.1157 -0.6332
  302MOL0     C41579   5.050   5.420   9.657  0.2909 -0.5238 -0.0859
  302MOL0     C41580   5.019   5.279   9.595 -0.2078 -0.7682  0.3780
  302MOL0     C41581   4.965   5.281   9.448  0.9806  0.4823  0.1754
  302MOL0     C41582   4.821   5.324   9.446  0.4341 -0.8865 -0.3438
  302MOL0    Cl41583   4.726   5.257   9.574 -0.5293 -0.5020 -0.0541
  302MOL0     C41584   5.253   5.738  10.402  0.0096  0.0197 -0.7091
  302MOL0     C41585   5.346   5.830  10.466 -0.5494 -0.5299  1.0605
  302MOL0     O41586   5.360   6.234  10.444 -0.3441  1.1020  0.1576
  302MOL0     C41587   5.693   6.114  10.565 -0.1956 -0.5399 -0.5432
  302MOL0     C41588   5.807   6.161  10.630  0.0963 -0.4575  0.0278
  302MOL0     N41589   5.899   6.816  11.002 -0.5621 -0.2996  0.4735
  302MOL0     N41590   5.884   6.941  10.960  1.1851  0.0274 -0.1622
  302MOL0     C41591   5.488   7.878  10.910  0.3894  0.0974 -0.2781
  302MOL0     C41592   5.554   7.987  10.843 -0.2644  0.1385 -1.0759
  302MOL0     C41593   5.824   8.204  10.556  0.3200  0.4119 -0.8943
  302MOL0     C41594   5.868   8.199  10.425 -0.1493  0.9891 -0.2264
  302MOL0     C41595   5.900   8.314  10.350  0.1218 -0.7116 -0.6083
  302MOL0     C41596   5.880   8.440  10.410 -0.1674 -1.1209  0.0689
  302MOL0     O41597   5.904   8.558  10.336 -0.2219 -0.3634 -0.3447
  302MOL0     C41598   5.963   8.552  10.207  0.4636  0.7416  0.1149
  302MOL0     C41599   5.991   8.682  10.134 -0.0602 -0.5405  0.4141
  302MOL0     C41600   6.039   8.639   9.993 -0.4035 -0.0275 -0.2739
  302MOL0     C41601   6.061   8.752   9.896  0.3627 -0.1133  0.6020
  302MOL0     C41602   6.205   8.787   9.886  0.3865 -0.0440  0.1626
  302MOL0     C41603   6.328   8.798   9.889 -0.1159  0.9148 -0.3230
  302MOL0     C41604   5.852   8.449  10.542  0.3198  0.8657  0.6512
  302MOL0     C41605   5.813   8.331  10.616 -0.2078  0.1180 -0.9466
  302MOL0     C41606   5.759   8.359  10.753  0.3709 -0.3754 -0.2941
  302MOL0     H41607   5.872   7.874  10.854  1.3279  3.6417  0.7351
  302MOL0     H41608   5.769   7.693  10.988  1.3763 -0.0323 -1.5483
  302MOL0     H41609   5.331   7.671  10.993  2.6286  2.6174 -0.0795
  302MOL0     H41610   5.398   7.558  11.112  1.1197  0.9967  0.8296
  302MOL0     H41611   5.344   7.458  10.892  1.2593 -2.4674 -0.7999
  302MOL0     H41612   5.474   7.555  10.822 -2.5799  0.0778 -0.1957
  302MOL0     H41613   5.639   7.456  10.972 -1.9275  3.6512 -0.6053
  302MOL0     H41614   5.510   7.363  11.046 -0.8848  2.2551  1.2931
  302MOL0     H41615   5.524   7.200  10.907 -1.3972  0.7898 -1.5482
  302MOL0     H41616   5.497   7.310  10.769 -1.4016  0.1070 -0.0215
  302MOL0     H41617   5.759   7.222  10.901  1.4241 -1.5726 -2.4539
  302MOL0     H41618   5.754   7.338  10.768 -0.9014 -1.0807 -1.6363
  302MOL0     H41619   5.687   7.040  10.783  1.0145  0.0069 -0.7569
  302MOL0     H41620   5.633   7.141  10.652 -1.8865  1.8429  1.5512
  302MOL0     H41621   5.865   7.204  10.592 -0.1073 -0.2568  0.0250
  302MOL0     H41622   5.857   7.029  10.587  1.9159 -0.7543 -0.9977
  302MOL0     H41623   6.049   7.075  10.705  1.7622 -0.3081  2.9501
  302MOL0     H41624   5.980   7.167  10.826 -0.2605 -2.9155  3.1819
  302MOL0     H41625   6.052   6.818  10.704  1.9706  0.7357  1.5387
  302MOL0     H41626   6.050   6.595  11.010  0.9331  1.3852  0.4774
  302MOL0     H41627   6.089   6.581  10.844 -0.1876  0.9504 -0.3174
  302MOL0     H41628   5.821   6.529  10.983 -0.7653 -1.1141 -2.1898
  302MOL0     H41629   5.828   6.531  10.811 -2.8892  2.0790  0.9898
  302MOL0     H41630   5.999   6.349  10.991  2.9479  0.6810 -1.5202
  302MOL0     H41631   5.841   6.295  10.925 -0.5815 -0.2021  1.7856
  302MOL0     H41632   6.118   6.369  10.795 -1.3670 -0.1249  1.7063
  302MOL0     H41633   6.054   6.214  10.787  0.7599 -0.1383  0.2850
  302MOL0     H41634   5.769   6.500  10.566 -0.6241  0.7047 -2.7843
  302MOL0     H41635   5.593   6.557  10.448 -0.3238  1.1078  0.2409
  302MOL0     H41636   5.454   6.486  10.552  0.2665  0.8791 -0.3958
  302MOL0     H41637   5.487   6.440  10.387 -2.1235 -0.2650  1.5613
  302MOL0     H41638   5.301   6.089  10.246 -1.5255 -1.6087 -1.1387
  302MOL0     H41639   5.154   5.910  10.141 -0.9712 -0.7628  1.6322
  302MOL0     H41640   5.102   5.728  10.008  1.9651  0.7310 -1.0766
  302MOL0     H41641   5.257   5.651  10.060 -0.7028 -0.1263 -2.4400
  302MOL0     H41642   5.160   5.437  10.049 -2.5512 -0.8139  0.1181
  302MOL0     H41643   4.998   5.505  10.064 -1.5805  0.6066 -2.6158
  302MOL0     H41644   5.185   5.565   9.834 -1.5778  2.6378 -1.0630
  302MOL0     H41645   5.014   5.608   9.848 -0.2288 -0.6051  2.1962
  302MOL0     H41646   4.944   5.399   9.840 -0.1643  2.1551 -2.2319
  302MOL0     H41647   5.112   5.320   9.838  1.6288  0.3431 -2.1601
  302MOL0     H41648   4.979   5.500   9.635  0.8265  0.0870  0.3652
  302MOL0     H41649   5.152   5.443   9.623  2.4484 -3.5434  3.5023
  302MOL0     H41650   4.948   5.230   9.663  0.3617 -0.0729  1.5090
  302MOL0     H41651   5.112   5.222   9.588  0.7684  0.8735 -0.6802
  302MOL0     H41652   4.963   5.177   9.412 -1.9371  0.4945  0.0870
  302MOL0     H41653   5.022   5.343   9.378  0.6037 -1.9500 -2.4861
  302MOL0     H41654   4.781   5.300   9.347 -0.1067 -1.7084  0.0696
  302MOL0     H41655   4.826   5.434   9.453 -0.4662 -0.7727 -1.2049
  302MOL0     H41656   5.232   5.644  10.453 -2.4063  0.0446 -1.5220
  302MOL0     H41657   5.404   5.801  10.553 -2.1198 -1.3531  1.8716
  302MOL0     H41658   5.670   6.010  10.582 -1.4005 -0.3454 -0.8849
  302MOL0     H41659   5.872   6.093  10.684  0.4072  0.2250  0.5196
  302MOL0     H41660   5.380   7.870  10.905  0.4547 -1.7632  0.3194
  302MOL0     H41661   5.497   8.077  10.822 -1.6017  0.1004  1.8998
  302MOL0     H41662   5.896   8.104  10.381 -0.6711  1.2698 -1.1747
  302MOL0     H41663   5.932   8.312  10.247  0.1022  2.4736 -0.7844
  302MOL0     H41664   6.052   8.490  10.219 -0.5498 -0.3917  2.4030
  302MOL0     H41665   5.901   8.486  10.146  0.9108 -2.2043  2.6326
  302MOL0     H41666   6.071   8.743  10.176  0.0271  1.2326 -2.1202
  302MOL0     H41667   5.899   8.741  10.140  0.6024  0.7667 -1.4570
  302MOL0     H41668   6.129   8.578   9.993  2.5751  3.9711 -1.5171
  302MOL0     H41669   5.953   8.583   9.954 -1.9730  1.2221  1.1944
  302MOL0     H41670   5.983   8.826   9.917 -1.8496 -2.4006  0.9831
  302MOL0     H41671   6.033   8.715   9.797 -0.1842 -0.1187  0.7524
  302MOL0     H41672   6.434   8.792   9.903 -0.1317 -2.3035 -0.8896
  302MOL0     H41673   5.850   8.543  10.597  2.0899  2.6129 -2.0439
  302MOL0     H41674   5.664   8.308  10.771 -0.3157  1.5971  2.4668
  302MOL0     H41675   5.834   8.335  10.829 -1.3983 -0.7830  1.3951
  302MOL0     H41676   5.731   8.464  10.764  0.6234 -0.3373 -0.0121
  303MOL0     O41677   6.345   3.496   4.013 -0.6270 -0.1334  0.5124
  303MOL0     C41678   6.463   3.487   4.041  0.2933  0.3539  1.0632
  303MOL0     O41679   6.537   3.369   4.048 -0.6428 -0.6543 -0.0072
  303MOL0     C41680   6.481   3.250   4.062 -0.7831  0.2851 -0.6632
  303MOL0     C41681   6.482   3.172   4.180  0.1588 -1.0738 -0.2709
  303MOL0     C41682   6.426   3.048   4.172  0.3539 -0.5018  0.9543
  303MOL0     C41683   6.388   2.986   4.056 -0.2953 -0.7473  0.4035
  303MOL0     O41684   6.351   2.858   4.063 -0.1151  1.0580 -0.8934
  303MOL0     C41685   6.290   2.789   3.953 -0.4752 -0.0431 -0.2974
  303MOL0     C41686   6.243   2.650   3.994 -0.2668  0.1472 -0.1449
  303MOL0     C41687   6.365   2.564   4.035 -0.1789 -0.3699 -0.5377
  303MOL0     C41688   6.437   2.502   3.917 -0.9897 -0.1275  0.5224
  303MOL0     C41689   6.533   2.397   3.952  0.9048  0.0630 -1.4483
  303MOL0     C41690   6.561   2.293   3.838 -0.3735  0.0451 -0.5342
  303MOL0     C41691   6.654   2.177   3.895 -0.0946 -0.1548 -0.4790
  303MOL0     C41692   6.799   2.208   3.951 -0.0845 -0.5032 -0.4815
  303MOL0     N41693   6.885   2.276   3.853 -0.3745 -0.0012  0.0552
  303MOL0     C41694   6.909   2.224   3.722 -0.1272 -0.7732  0.3885
  303MOL0     C41695   6.984   2.320   3.662  0.6852  0.2920 -0.2217
  303MOL0     C41696   7.028   2.318   3.522  0.3031 -0.9092 -0.1213
  303MOL0     C41697   7.182   2.335   3.521  0.3245  0.1900 -0.6862
  303MOL0     C41698   7.231   2.364   3.376  0.1352  0.2852  0.1093
  303MOL0     C41699   7.358   2.304   3.345  0.5300  0.1653 -0.1785
  303MOL0     O41700   7.346   2.162   3.355 -0.5742  0.3447 -0.0441
  303MOL0     C41701   7.465   2.089   3.369  0.1311  0.3035 -0.3010
  303MOL0     C41702   7.596   2.140   3.350  0.3446 -0.3713 -0.0710
  303MOL0     C41703   7.715   2.054   3.373  0.7930  0.1569 -0.5016
  303MOL0     C41704   7.838   2.108   3.320  0.0233 -0.5025 -1.0021
  303MOL0     C41705   7.695   1.924   3.426 -0.3080  1.0410 -0.6314
  303MOL0     C41706   7.801   1.824   3.463  0.1748  0.6155  0.1070
  303MOL0     O41707   7.933   1.859   3.433 -0.1746 -0.4279  0.4522
  303MOL0     C41708   8.047   1.806   3.491 -0.7320 -0.1000 -0.5727
  303MOL0     C41709   8.162   1.828   3.411  1.0511 -1.1411  0.2540
  303MOL0     C41710   8.286   1.763   3.448  0.5622 -1.1788  0.4380
  303MOL0     C41711   8.296   1.702   3.567 -1.1638  0.7057 -1.0528
  303MOL0     O41712   8.417   1.643   3.594 -0.2642 -0.4666 -0.0518
  303MOL0     C41713   8.416   1.536   3.688 -0.3474 -0.5047 -0.4356
  303MOL0     C41714   8.548   1.477   3.680 -0.5664  0.4796  0.7581
  303MOL0     C41715   8.569   1.367   3.777  0.4164 -0.2982  0.3502
  303MOL0     C41716   8.485   1.246   3.732  0.2388 -0.3966 -0.3853
  303MOL0     C41717   8.499   1.128   3.827 -0.0134 -0.3842  0.0107
  303MOL0     C41718   8.371   1.040   3.818  0.3563  0.0139 -0.9550
  303MOL0     C41719   8.321   1.003   3.677  0.8136  0.1385 -0.4330
  303MOL0     C41720   8.418   0.908   3.608  0.8934 -0.1057 -0.4772
  303MOL0    Cl41721   8.443   0.748   3.685 -0.4024  0.2054 -0.4640
  303MOL0     C41722   8.185   1.691   3.650  0.2937 -0.1506 -0.3976
  303MOL0     C41723   8.057   1.730   3.610  0.0325  0.0682  0.3582
  303MOL0     O41724   7.771   1.721   3.520  0.1336  0.1432 -0.6667
  303MOL0     C41725   7.562   1.885   3.459 -0.5112 -0.8991 -0.9941
  303MOL0     C41726   7.447   1.962   3.425 -0.5580  0.6645  0.2340
  303MOL0     N41727   6.998   2.421   3.747 -0.1943  0.3240  0.7988
  303MOL0     N41728   6.937   2.399   3.855 -0.6802 -0.0488 -0.2629
  303MOL0     C41729   6.383   3.060   3.939 -0.6817 -0.0995 -0.6015
  303MOL0     C41730   6.428   3.188   3.948 -0.2264  0.0602  0.4573
  303MOL0     C41731   6.549   3.605   4.083 -0.1425  0.6267  1.1547
  303MOL0     C41732   6.688   3.600   4.075 -0.1433  0.0320 -1.2018
  303MOL0     C41733   6.769   3.710   4.116  0.9515  0.2039  0.3474
  303MOL0     C41734   6.709   3.831   4.147 -0.0722 -0.8104 -0.0006
  303MOL0     O41735   6.794   3.947   4.158 -0.3323  1.1839  1.2228
  303MOL0     C41736   6.736   4.064   4.207 -0.5294 -0.9606  0.7282
  303MOL0     C41737   6.845   4.163   4.259  0.4359  0.3445  0.7278
  303MOL0     C41738   6.946   4.211   4.153  0.0673 -0.2130  0.4880
  303MOL0     C41739   6.899   4.273   4.026 -0.0937 -0.5425  0.4156
  303MOL0     C41740   6.809   4.383   4.055  0.5357 -0.4452 -0.4201
  303MOL0     C41741   6.735   4.473   4.074 -0.1487 -0.0405  0.0799
  303MOL0     C41742   6.569   3.827   4.165  0.6463 -0.2653  0.6341
  303MOL0     C41743   6.485   3.722   4.125 -0.6154 -0.0472 -0.3723
  303MOL0     C41744   6.339   3.749   4.140  0.0154 -0.3725 -0.4941
  303MOL0     H41745   6.541   3.202   4.266  0.4628 -1.7697 -0.2345
  303MOL0     H41746   6.431   2.991   4.264  2.9976  0.1532  1.3072
  303MOL0     H41747   6.365   2.778   3.874 -2.6851 -3.8113 -2.1680
  303MOL0     H41748   6.205   2.850   3.921 -0.4661 -0.5266 -1.2929
  303MOL0     H41749   6.175   2.659   4.079 -1.3254 -0.9646 -0.8404
  303MOL0     H41750   6.193   2.611   3.905 -1.9885  1.3152  0.2659
  303MOL0     H41751   6.439   2.625   4.088 -0.8361 -1.5521  1.8797
  303MOL0     H41752   6.326   2.496   4.111  0.3504  1.3917  1.4106
  303MOL0     H41753   6.365   2.469   3.841  0.5427  0.5266 -1.2906
  303MOL0     H41754   6.492   2.580   3.865 -2.9403  0.4656 -0.7279
  303MOL0     H41755   6.489   2.339   4.034 -0.3863 -0.4484 -2.4559
  303MOL0     H41756   6.625   2.437   3.994  0.5615 -1.1307  0.5660
  303MOL0     H41757   6.460   2.259   3.812 -1.1755  0.0102  2.3154
  303MOL0     H41758   6.610   2.341   3.753  1.9255  0.8465  1.1423
  303MOL0     H41759   6.667   2.098   3.820  1.2028  0.8134 -1.3103
  303MOL0     H41760   6.589   2.138   3.974 -2.5218  0.5665 -2.0232
  303MOL0     H41761   6.790   2.246   4.053 -2.7080 -1.0965 -0.4121
  303MOL0     H41762   6.847   2.110   3.960  4.1727  1.6038  2.8433
  303MOL0     H41763   6.876   2.125   3.693  1.8583 -1.4173  0.1966
  303MOL0     H41764   6.977   2.394   3.462  2.1816 -0.1214 -0.7967
  303MOL0     H41765   7.015   2.216   3.482  2.4286 -1.0422 -0.6092
  303MOL0     H41766   7.193   2.427   3.580  1.3973  0.2994 -1.0463
  303MOL0     H41767   7.228   2.250   3.571  1.4247 -0.4483 -2.7121
  303MOL0     H41768   7.160   2.322   3.304  1.2096 -1.3118 -0.0634
  303MOL0     H41769   7.235   2.472   3.360  2.1411  0.7354  2.9632
  303MOL0     H41770   7.393   2.345   3.249 -3.1396  2.5153 -0.7035
  303MOL0     H41771   7.432   2.334   3.419 -0.5072 -2.1014  1.9392
  303MOL0     H41772   7.601   2.239   3.307 -3.1443  0.4537  1.1225
  303MOL0     H41773   7.803   2.175   3.241 -0.2291  0.5994  0.0109
  303MOL0     H41774   7.897   2.032   3.269 -0.4312 -1.0315 -0.7490
  303MOL0     H41775   7.888   2.162   3.400 -0.1317 -1.8628  0.0487
  303MOL0     H41776   8.165   1.890   3.322  1.3247  0.0620  1.0814
  303MOL0     H41777   8.371   1.773   3.380 -1.4921 -0.5289 -2.2181
  303MOL0     H41778   8.401   1.582   3.787 -2.2919 -1.6361 -0.1476
  303MOL0     H41779   8.334   1.468   3.663  0.3049 -1.4289 -0.1188
  303MOL0     H41780   8.586   1.456   3.580  3.6909 -0.0473  2.2504
  303MOL0     H41781   8.608   1.560   3.719 -1.7822  1.3926  0.7370
  303MOL0     H41782   8.567   1.403   3.880  0.7370 -1.1239  0.6519
  303MOL0     H41783   8.674   1.338   3.774  0.1764 -1.1390 -0.8481
  303MOL0     H41784   8.531   1.222   3.636  1.0375  0.0633 -0.1341
  303MOL0     H41785   8.381   1.278   3.721  0.7008  1.0656 -0.8580
  303MOL0     H41786   8.588   1.069   3.802 -0.9353 -3.2441  2.9169
  303MOL0     H41787   8.516   1.163   3.929 -0.2393 -1.1877  0.3232
  303MOL0     H41788   8.299   1.101   3.874  0.5848 -0.7187  0.1683
  303MOL0     H41789   8.392   0.947   3.872 -2.2857  0.6119  1.3229
  303MOL0     H41790   8.298   1.092   3.618 -1.9681  0.4774  1.0343
  303MOL0     H41791   8.223   0.958   3.694  0.1254  1.2795 -1.2768
  303MOL0     H41792   8.512   0.962   3.599  1.6804 -1.5849 -1.5168
  303MOL0     H41793   8.371   0.903   3.509  0.3169 -0.0757 -0.2134
  303MOL0     H41794   8.197   1.642   3.746 -2.2051  0.3455  0.2567
  303MOL0     H41795   7.968   1.704   3.667 -1.0516 -1.2559 -1.8057
  303MOL0     H41796   7.534   1.789   3.503 -1.9921 -2.0501 -4.1419
  303MOL0     H41797   7.349   1.926   3.454  0.4115 -0.3890  2.4064
  303MOL0     H41798   6.338   3.021   3.849  0.5076 -4.3429  0.4170
  303MOL0     H41799   6.436   3.231   3.848  0.8161  0.0804  0.5359
  303MOL0     H41800   6.732   3.502   4.057 -0.3166 -0.0221 -1.3314
  303MOL0     H41801   6.877   3.717   4.101  0.6223  4.5033 -1.3544
  303MOL0     H41802   6.682   4.113   4.124  0.3931  1.3424  1.4022
  303MOL0     H41803   6.672   4.040   4.292  0.7529  0.2762  2.1037
  303MOL0     H41804   6.894   4.118   4.346 -0.7003 -0.1536  1.1255
  303MOL0     H41805   6.781   4.244   4.295 -0.5626 -0.1817  0.1612
  303MOL0     H41806   7.005   4.294   4.193 -0.1048 -0.7700  1.9783
  303MOL0     H41807   7.012   4.127   4.128 -1.7718 -1.1245 -1.5583
  303MOL0     H41808   6.844   4.208   3.957  1.4944  1.0291 -2.5044
  303MOL0     H41809   6.984   4.305   3.965 -1.4977  0.7089 -0.9669
  303MOL0     H41810   6.678   4.560   4.099 -3.8168 -2.1608 -0.2710
  303MOL0     H41811   6.524   3.915   4.209 -2.1053 -0.4011 -1.6583
  303MOL0     H41812   6.291   3.748   4.042 -0.6114  0.9846 -0.2311
  303MOL0     H41813   6.291   3.674   4.204 -1.2757  1.0904  0.3233
  303MOL0     H41814   6.320   3.850   4.178  0.5504  0.5329 -2.4840
  304MOL0     O41815   8.957  10.075   9.572 -0.3302 -0.4454 -1.3670
  304MOL0     C41816   9.052  10.147   9.533  0.3187 -0.0017  0.3633
  304MOL0     O41817   9.135  10.119   9.427  0.0947 -0.0724 -0.2861
  304MOL0     C41818   9.108  10.007   9.350  0.4102 -0.8917 -0.1294
  304MOL0     C41819   9.108   9.881   9.412 -0.7117 -0.1277 -0.2218
  304MOL0     C41820   9.063   9.774   9.334  0.6404  0.2744 -0.7509
  304MOL0     C41821   9.040   9.786   9.200 -0.3595  0.4878  0.3440
  304MOL0     O41822   9.023   9.667   9.127  1.0124 -0.1342  0.2517
  304MOL0     C41823   9.062   9.670   8.980  0.1532 -0.5614 -0.5831
  304MOL0     C41824   9.217   9.683   8.973 -0.5742  0.0823 -0.4772
  304MOL0     C41825   9.280   9.727   8.839  0.2431  0.2596 -0.5891
  304MOL0     C41826   9.188   9.691   8.717 -0.0322  0.2376  0.4081
  304MOL0     C41827   9.255   9.716   8.582 -0.9547 -0.2218  0.1131
  304MOL0     C41828   9.326   9.853   8.574 -0.5312  0.5178 -0.6211
  304MOL0     C41829   9.382   9.883   8.443  0.4757  0.1349 -0.4694
  304MOL0     C41830   9.434  10.028   8.450  1.0809  0.0457  0.1000
  304MOL0     N41831   9.517  10.068   8.561  0.2277 -0.6000 -0.1248
  304MOL0     C41832   9.648  10.034   8.578 -0.2594 -0.2808 -0.1937
  304MOL0     C41833   9.680  10.075   8.706  0.3288  0.1936  0.4118
  304MOL0     C41834   9.805  10.070   8.799 -0.6207  0.2657 -0.3091
  304MOL0     C41835   9.882  10.198   8.803  0.4894 -0.7858  0.4935
  304MOL0     C41836   9.987  10.187   8.916 -0.8393  0.3544 -0.1115
  304MOL0     C41837  10.060  10.324   8.939 -0.1135 -0.2272 -0.4882
  304MOL0     O41838  10.039  10.368   9.074 -0.7366 -0.5097 -0.2478
  304MOL0     C41839  10.046  10.505   9.106  0.1529 -0.1001  0.7596
  304MOL0     C41840  10.015  10.541   9.234 -0.2459 -0.3837  0.1997
  304MOL0     C41841  10.026  10.678   9.274 -0.1011 -0.1566 -0.8501
  304MOL0     C41842   9.984  10.701   9.426 -0.1996  0.2551  0.6892
  304MOL0     C41843  10.078  10.777   9.186  0.0073  0.2439 -1.1762
  304MOL0     C41844  10.095  10.930   9.219 -0.2763 -1.1253  0.1531
  304MOL0     O41845  10.116  11.002   9.111  0.2212 -0.4438  0.1173
  304MOL0     C41846  10.130  11.142   9.110 -0.0054 -0.0664  0.4061
  304MOL0     C41847  10.188  11.217   9.219  0.0062  0.4484 -0.6328
  304MOL0     C41848  10.195  11.351   9.207  0.0539  0.0487 -0.0700
  304MOL0     C41849  10.159  11.422   9.091  0.2832 -0.1349  0.1595
  304MOL0     O41850  10.169  11.555   9.055 -0.7685  0.5614 -0.4447
  304MOL0     C41851  10.155  11.652   9.160  0.6422  0.3880 -0.0465
  304MOL0     C41852  10.171  11.785   9.096  0.2781  0.2284 -0.7241
  304MOL0     C41853  10.200  11.889   9.202  0.1010  0.5828 -0.9606
  304MOL0     C41854  10.185  12.031   9.135  0.0219 -0.3592  0.3935
  304MOL0     C41855  10.186  12.152   9.233 -0.4268  0.1595 -0.2580
  304MOL0     C41856  10.143  12.291   9.184 -0.0883 -0.0344  0.3628
  304MOL0     C41857  10.159  12.403   9.290  0.4241 -0.5239  0.4255
  304MOL0     C41858  10.251  12.507   9.244 -0.0236 -0.3118  0.3189
  304MOL0    Cl41859  10.287  12.632   9.365 -0.6214  0.7823 -0.4714
  304MOL0     C41860  10.107  11.349   8.987 -0.4227  0.0575 -0.0194
  304MOL0     C41861  10.099  11.208   8.993  0.0943 -0.4507  0.0158
  304MOL0     O41862  10.081  10.971   9.337 -0.4645  0.1972  0.5321
  304MOL0     C41863  10.108  10.733   9.058  0.3473 -0.4584 -1.1879
  304MOL0     C41864  10.080  10.602   9.020 -0.4166  0.7028 -0.2516
  304MOL0     N41865   9.567  10.111   8.767  0.3010 -0.3231  1.2932
  304MOL0     N41866   9.470  10.112   8.679 -0.6858 -0.7800  0.4448
  304MOL0     C41867   9.050   9.910   9.133 -0.6974 -0.1428 -0.5111
  304MOL0     C41868   9.081  10.017   9.214 -0.9273  0.2535 -0.0823
  304MOL0     C41869   9.074  10.269   9.614 -0.0127  0.5445  0.4230
  304MOL0     C41870   9.124  10.373   9.538  0.2777 -0.3562 -0.0177
  304MOL0     C41871   9.162  10.492   9.600  0.7635 -0.8039 -0.4524
  304MOL0     C41872   9.147  10.506   9.740 -0.6106 -0.7475 -0.5051
  304MOL0     O41873   9.182  10.618   9.814  0.0605 -0.1864 -0.4165
  304MOL0     C41874   9.225  10.741   9.749 -0.0116  0.7211 -0.0586
  304MOL0     C41875   9.217  10.867   9.826 -0.7410 -0.1785  0.2266
  304MOL0     C41876   9.331  10.858   9.918 -0.0540 -0.4618 -0.6019
  304MOL0     C41877   9.360  10.998   9.979  0.0344 -0.1912 -0.5000
  304MOL0     C41878   9.249  11.056  10.056 -0.4258 -0.0287 -0.4672
  304MOL0     C41879   9.156  11.101  10.118  0.4473 -0.3580 -0.2279
  304MOL0     C41880   9.086  10.405   9.814 -0.5717  0.2958 -0.6912
  304MOL0     C41881   9.047  10.281   9.753  0.0508  0.4060 -1.0129
  304MOL0     C41882   9.005  10.170   9.848 -0.2951 -0.0628  0.4534
  304MOL0     H41883   9.135   9.869   9.516 -0.2417  0.5064 -0.2638
  304MOL0     H41884   9.059   9.675   9.378 -2.3548  0.9395  0.7282
  304MOL0     H41885   9.005   9.751   8.935  0.8344  1.2930  1.7108
  304MOL0     H41886   9.039   9.573   8.933  1.4209 -1.3016  0.2558
  304MOL0     H41887   9.265   9.746   9.048  1.9083 -0.6073 -1.3901
  304MOL0     H41888   9.266   9.588   8.997  2.5691  1.7571  0.2541
  304MOL0     H41889   9.293   9.836   8.847  4.0565  0.2585 -3.6702
  304MOL0     H41890   9.382   9.688   8.828  1.1262  1.6549  1.8183
  304MOL0     H41891   9.162   9.585   8.712  0.0859  0.2250 -3.6525
  304MOL0     H41892   9.094   9.747   8.714 -0.9960 -1.2367 -3.8409
  304MOL0     H41893   9.185   9.721   8.498  0.1348  0.3254 -0.7905
  304MOL0     H41894   9.330   9.642   8.552  0.3214  1.5413 -1.2614
  304MOL0     H41895   9.245   9.925   8.588 -1.8039 -1.2234  1.8033
  304MOL0     H41896   9.400   9.866   8.654 -2.7836  0.8386  1.5413
  304MOL0     H41897   9.297   9.881   8.374 -1.3506 -1.4443  1.6792
  304MOL0     H41898   9.449   9.799   8.419  0.7307 -0.0033  0.6976
  304MOL0     H41899   9.486  10.048   8.356  1.8696  2.1063  0.9183
  304MOL0     H41900   9.352  10.100   8.446  2.9362  2.2330 -0.6269
  304MOL0     H41901   9.711   9.994   8.499 -1.1867 -0.0405 -1.0789
  304MOL0     H41902   9.879   9.998   8.763 -2.7262 -2.0585 -0.2905
  304MOL0     H41903   9.782  10.044   8.903 -1.8791  0.9146 -0.4039
  304MOL0     H41904   9.936  10.212   8.709  2.0814 -1.7922  1.2047
  304MOL0     H41905   9.813  10.280   8.824  2.1831  0.6074  0.9035
  304MOL0     H41906   9.947  10.152   9.012 -0.4847  1.6233  0.5298
  304MOL0     H41907  10.055  10.116   8.869 -1.7488  0.2632 -1.3363
  304MOL0     H41908  10.167  10.308   8.919 -0.4974 -1.6655 -1.5041
  304MOL0     H41909  10.022  10.398   8.867 -2.7402  0.4278  1.4325
  304MOL0     H41910   9.982  10.464   9.303 -1.5974 -0.0980 -0.0901
  304MOL0     H41911   9.925  10.794   9.423 -0.4933  0.1151 -3.0726
  304MOL0     H41912  10.079  10.716   9.478 -0.4991  1.5737  0.8935
  304MOL0     H41913   9.927  10.615   9.461 -0.4642 -0.0229 -0.3942
  304MOL0     H41914  10.215  11.169   9.312 -0.2035 -2.0633 -1.7925
  304MOL0     H41915  10.241  11.413   9.284  0.0468  1.2554 -0.9988
  304MOL0     H41916  10.059  11.647   9.213  0.6835  1.8598  0.2062
  304MOL0     H41917  10.230  11.636   9.238 -1.8598 -0.1877  2.4288
  304MOL0     H41918  10.246  11.784   9.017 -0.7855  0.0210 -1.7481
  304MOL0     H41919  10.080  11.807   9.040 -0.5098 -2.5679 -0.6782
  304MOL0     H41920  10.303  11.868   9.234 -0.4013 -1.4213 -0.5235
  304MOL0     H41921  10.143  11.894   9.295 -0.4882  0.7146 -1.3239
  304MOL0     H41922  10.089  12.030   9.082  0.9769  0.4678 -1.4464
  304MOL0     H41923  10.266  12.042   9.063  1.7370 -0.3758  2.2428
  304MOL0     H41924  10.123  12.126   9.318 -0.6789  2.3917  0.3100
  304MOL0     H41925  10.293  12.158   9.253 -0.0633  0.3990 -2.0635
  304MOL0     H41926  10.038  12.286   9.155  0.5308 -1.5795 -1.8227
  304MOL0     H41927  10.190  12.337   9.096  0.2642  2.5255  1.7761
  304MOL0     H41928  10.194  12.361   9.385  2.5262 -0.4484 -0.2687
  304MOL0     H41929  10.060  12.448   9.307  1.1283  2.4324 -2.2627
  304MOL0     H41930  10.209  12.557   9.156  2.4049 -0.4263 -0.9984
  304MOL0     H41931  10.340  12.459   9.201  0.2073  1.5132 -1.3986
  304MOL0     H41932  10.074  11.396   8.895 -1.1057 -1.3412 -0.5224
  304MOL0     H41933  10.062  11.157   8.904 -1.1644  1.1719 -0.4332
  304MOL0     H41934  10.140  10.799   8.978  1.0149 -1.3071 -1.6386
  304MOL0     H41935  10.109  10.589   8.916  3.8956 -2.1486  1.0328
  304MOL0     H41936   9.055   9.909   9.024 -1.7099 -1.6881 -0.5825
  304MOL0     H41937   9.065  10.115   9.172 -1.5179  1.1508  2.1149
  304MOL0     H41938   9.125  10.366   9.429  1.9227 -0.1748 -0.0432
  304MOL0     H41939   9.216  10.565   9.541 -0.0363  0.6003  0.5004
  304MOL0     H41940   9.325  10.724   9.708  0.0229 -1.9550  0.9167
  304MOL0     H41941   9.164  10.756   9.659 -1.1548 -0.4315  0.4737
  304MOL0     H41942   9.121  10.885   9.876 -1.2731 -0.9486 -0.4779
  304MOL0     H41943   9.226  10.956   9.763 -1.2328  2.0820  3.1325
  304MOL0     H41944   9.308  10.787   9.997  1.2897  2.5250  2.7333
  304MOL0     H41945   9.413  10.798   9.876  1.1968 -0.6247  1.8663
  304MOL0     H41946   9.387  11.069   9.900  0.4702  0.8114  0.5307
  304MOL0     H41947   9.449  10.980  10.040  0.3380  1.9683 -0.2516
  304MOL0     H41948   9.076  11.146  10.174  0.3463 -1.3410  0.4444
  304MOL0     H41949   9.074  10.425   9.920 -3.3449 -1.3681 -0.5924
  304MOL0     H41950   8.897  10.159   9.841 -0.3231  0.8507 -0.8991
  304MOL0     H41951   9.061  10.084   9.811  1.2896  0.9602  0.3609
  304MOL0     H41952   9.055  10.196   9.942  1.4325 -0.1595 -0.4038
  305MOL0     O41953   2.349   9.094  10.349  0.3130 -0.6982 -0.2659
  305MOL0     C41954   2.305   9.133  10.242 -0.1682 -1.2876 -0.3534
  305MOL0     O41955   2.369   9.136  10.124  0.0410 -0.8121 -0.0258
  305MOL0     C41956   2.503   9.169  10.116 -1.1919 -0.2702  0.1411
  305MOL0     C41957   2.570   9.248  10.212  0.4858 -0.2855  0.0566
  305MOL0     C41958   2.703   9.295  10.204 -0.1415  0.0273 -0.4509
  305MOL0     C41959   2.782   9.264  10.096 -1.0080  0.4013  0.7852
  305MOL0     O41960   2.912   9.288  10.078  0.6035 -0.3657 -0.5379
  305MOL0     C41961   2.969   9.389  10.157  0.2158 -0.1060  0.1714
  305MOL0     C41962   3.123   9.397  10.127 -1.0557 -0.3265 -0.3161
  305MOL0     C41963   3.197   9.475  10.240  1.0335  0.0834 -0.4402
  305MOL0     C41964   3.248   9.610  10.190 -0.4218 -0.3927  0.9002
  305MOL0     C41965   3.377   9.608  10.101 -0.1169 -0.2184  0.4530
  305MOL0     C41966   3.486   9.539  10.175  0.0199  0.0288 -0.1732
  305MOL0     C41967   3.623   9.553  10.107  0.3228  1.0818  0.7564
  305MOL0     C41968   3.624   9.532   9.952  0.0237  0.2866 -0.1819
  305MOL0     N41969   3.589   9.392   9.912  0.4073 -0.5641 -0.7056
  305MOL0     C41970   3.657   9.291   9.961 -0.6627  0.8536  0.0303
  305MOL0     C41971   3.582   9.184   9.930 -0.2098 -0.2995  0.2494
  305MOL0     C41972   3.635   9.037   9.955 -0.1391 -0.5175  0.1125
  305MOL0     C41973   3.703   8.988   9.829  0.1576  0.2085 -0.7337
  305MOL0     C41974   3.825   8.917   9.864  0.7063  0.6006 -0.7335
  305MOL0     C41975   3.938   9.009   9.901 -0.4609  0.3694  0.2504
  305MOL0     O41976   4.045   8.922   9.928 -0.0828 -0.5650  0.4679
  305MOL0     C41977   4.174   8.973   9.911  1.0404  0.4825 -0.2285
  305MOL0     C41978   4.288   8.887   9.952  0.0181  0.2598 -0.0133
  305MOL0     C41979   4.425   8.926   9.944  0.4548 -1.1638 -0.0500
  305MOL0     C41980   4.527   8.833   9.990  0.6985  0.4582  0.5046
  305MOL0     C41981   4.443   9.063   9.914  0.0699  0.2156  0.0012
  305MOL0     C41982   4.577   9.123   9.933 -0.1563  1.2407  0.7491
  305MOL0     O41983   4.599   9.237   9.858 -0.3680  0.3777 -0.2418
  305MOL0     C41984   4.710   9.317   9.876  0.4522  0.8917  0.3620
  305MOL0     C41985   4.758   9.350  10.007  0.4330 -0.0201  0.5714
  305MOL0     C41986   4.867   9.437  10.021  0.2197 -0.2581  0.1284
  305MOL0     C41987   4.928   9.488   9.912  0.3623  0.0480  0.0807
  305MOL0     O41988   5.030   9.584   9.934  0.1121  1.1811 -0.1717
  305MOL0     C41989   5.121   9.629   9.833  0.2876  0.6316  0.6111
  305MOL0     C41990   5.232   9.710   9.882 -0.0306 -1.0597  0.0133
  305MOL0     C41991   5.330   9.649   9.986  0.6456 -0.3599  0.5023
  305MOL0     C41992   5.474   9.650   9.933  0.3366 -0.2460 -0.4778
  305MOL0     C41993   5.504   9.551   9.819  0.8142  1.3912 -0.0096
  305MOL0     C41994   5.649   9.569   9.765 -0.1246  0.1337 -0.1451
  305MOL0     C41995   5.683   9.707   9.705 -0.8789  0.5146  0.4279
  305MOL0     C41996   5.785   9.700   9.590 -0.3378 -0.1072  0.8430
  305MOL0    Cl41997   5.946   9.653   9.661  0.6729 -0.6743  0.2738
  305MOL0     C41998   4.884   9.463   9.783 -0.6166 -0.9102 -0.9429
  305MOL0     C41999   4.777   9.373   9.766 -0.4029  0.3045  0.3626
  305MOL0     O42000   4.646   9.081  10.028 -0.0402  0.0217 -0.2724
  305MOL0     C42001   4.326   9.150   9.885 -0.4067  0.8259  0.1150
  305MOL0     C42002   4.198   9.105   9.884 -0.1254 -0.2575 -0.2994
  305MOL0     N42003   3.469   9.225   9.868  0.1905  0.5008 -0.1846
  305MOL0     N42004   3.473   9.356   9.854  0.2991  0.3228 -0.6271
  305MOL0     C42005   2.715   9.193   9.994  0.3069 -0.5424  0.3883
  305MOL0     C42006   2.575   9.151  10.005 -0.8192  0.4629 -0.0426
  305MOL0     C42007   2.148   9.158  10.235 -0.0384  0.8423  1.2051
  305MOL0     C42008   2.071   9.072  10.318  0.2774 -0.0863  0.7630
  305MOL0     C42009   1.937   9.084  10.328 -0.0694 -0.1926 -0.1348
  305MOL0     C42010   1.870   9.171  10.248 -0.1163  0.3094  0.2675
  305MOL0     O42011   1.728   9.179  10.260  0.0261  0.8342  0.5290
  305MOL0     C42012   1.652   9.170  10.140 -0.0141 -0.1957  0.0415
  305MOL0     C42013   1.540   9.272  10.129  0.0090  0.9640  0.4330
  305MOL0     C42014   1.590   9.416  10.163  0.8550  0.3191  0.9091
  305MOL0     C42015   1.491   9.528  10.131 -0.6335 -0.7405  0.6524
  305MOL0     C42016   1.561   9.656  10.125 -0.3429  0.2163 -0.3236
  305MOL0     C42017   1.617   9.758  10.114  0.1481 -0.3386  0.1216
  305MOL0     C42018   1.941   9.256  10.155  1.1040  0.9713 -0.1311
  305MOL0     C42019   2.079   9.247  10.146  0.2290  0.5313 -0.0325
  305MOL0     C42020   2.155   9.333  10.051  0.4013 -0.3233 -0.9207
  305MOL0     H42021   2.526   9.264  10.309  0.4626 -2.0417  0.3659
  305MOL0     H42022   2.743   9.346  10.291  1.5425 -1.5204 -0.2588
  305MOL0     H42023   2.953   9.366  10.262 -0.7939 -0.2158  0.0027
  305MOL0     H42024   2.918   9.484  10.140 -0.7008 -0.5592  0.3841
  305MOL0     H42025   3.174   9.301  10.114  0.4078 -0.1719  3.1949
  305MOL0     H42026   3.137   9.461  10.039  0.0581  0.2278  0.2425
  305MOL0     H42027   3.122   9.487  10.318  2.8677  0.6595  1.3438
  305MOL0     H42028   3.288   9.433  10.284  1.0021  0.5816  0.1162
  305MOL0     H42029   3.176   9.654  10.120  0.3981 -4.5957 -3.0567
  305MOL0     H42030   3.266   9.663  10.284  0.0634  1.1721 -0.0466
  305MOL0     H42031   3.412   9.707  10.072 -1.0835 -0.5331 -1.9711
  305MOL0     H42032   3.356   9.552  10.010  1.8248  0.1579 -0.2772
  305MOL0     H42033   3.494   9.570  10.280  0.5190 -2.5060  0.5999
  305MOL0     H42034   3.475   9.430  10.177  2.2773 -0.2812  3.0903
  305MOL0     H42035   3.697   9.495  10.162  0.7045 -0.5995 -1.4169
  305MOL0     H42036   3.661   9.654  10.124 -2.0111  1.8183  2.1301
  305MOL0     H42037   3.561   9.609   9.905 -0.9647 -0.9258 -0.9188
  305MOL0     H42038   3.727   9.544   9.919 -0.0804 -1.9051 -1.4248
  305MOL0     H42039   3.764   9.286   9.980  0.1994  0.0976 -3.9380
  305MOL0     H42040   3.552   8.967   9.971 -0.9898  0.7876  1.6976
  305MOL0     H42041   3.695   9.056  10.044 -1.0037  2.8044  0.0964
  305MOL0     H42042   3.634   8.918   9.779  0.2424 -1.1580  0.9514
  305MOL0     H42043   3.718   9.069   9.758  1.2482 -1.1613 -2.1447
  305MOL0     H42044   3.799   8.843   9.940 -0.4641  2.2593  0.5567
  305MOL0     H42045   3.859   8.875   9.769  2.6444 -0.4013  0.3458
  305MOL0     H42046   3.948   9.069   9.810 -1.5363 -0.6683 -0.5817
  305MOL0     H42047   3.911   9.060   9.994  2.1822 -0.8079  1.7628
  305MOL0     H42048   4.264   8.784   9.973 -0.8161  0.2848 -0.8216
  305MOL0     H42049   4.611   8.814   9.923 -0.3772 -0.2402 -0.6944
  305MOL0     H42050   4.485   8.736  10.017  1.4666  0.8463  3.3946
  305MOL0     H42051   4.558   8.868  10.088  0.1397  1.1350  0.4431
  305MOL0     H42052   4.713   9.320  10.101  1.2184 -0.9664  0.6739
  305MOL0     H42053   4.896   9.473  10.119 -4.0107 -1.0437  1.9390
  305MOL0     H42054   5.168   9.539   9.792 -1.0685 -0.3730  1.1814
  305MOL0     H42055   5.071   9.683   9.751 -0.1673 -1.5823 -0.6490
  305MOL0     H42056   5.293   9.759   9.806 -0.8732  2.2114  1.2853
  305MOL0     H42057   5.183   9.792   9.934  0.9888 -0.3017 -0.2063
  305MOL0     H42058   5.298   9.547  10.006 -0.2971  0.4063  3.4820
  305MOL0     H42059   5.323   9.704  10.080  3.1033  0.3086  0.3599
  305MOL0     H42060   5.538   9.637  10.021 -1.2111  2.7427  1.2982
  305MOL0     H42061   5.493   9.755   9.907 -0.8664  0.1569  0.1541
  305MOL0     H42062   5.485   9.450   9.855  0.4753  2.0267  1.6642
  305MOL0     H42063   5.430   9.562   9.739 -1.0179 -1.9100  1.0501
  305MOL0     H42064   5.652   9.480   9.702  0.3037 -2.1074  2.8154
  305MOL0     H42065   5.721   9.547   9.845  0.0148  2.1570  0.3456
  305MOL0     H42066   5.713   9.773   9.788  1.4194  2.5101 -1.8268
  305MOL0     H42067   5.586   9.743   9.669 -0.7486 -0.6493 -1.1619
  305MOL0     H42068   5.793   9.805   9.561  2.5881  0.4639  3.1882
  305MOL0     H42069   5.753   9.637   9.507  1.0350  2.1507 -1.5621
  305MOL0     H42070   4.929   9.516   9.699  2.0975 -2.2361 -0.4467
  305MOL0     H42071   4.743   9.359   9.664  0.1997  0.1152  0.1848
  305MOL0     H42072   4.349   9.256   9.882  2.2899  0.3342  0.9365
  305MOL0     H42073   4.124   9.183   9.867 -1.6701 -1.0641  2.1914
  305MOL0     H42074   2.775   9.160   9.910  3.5881 -0.1435  2.3813
  305MOL0     H42075   2.539   9.099   9.916 -0.6838  0.5828 -0.1688
  305MOL0     H42076   2.129   9.003  10.379  0.3485 -0.4943  0.2348
  305MOL0     H42077   1.875   9.031  10.400 -0.5883  1.2291  0.4908
  305MOL0     H42078   1.715   9.172  10.050 -2.6380 -0.3188 -1.9344
  305MOL0     H42079   1.612   9.069  10.141 -2.4821  0.7143  0.4592
  305MOL0     H42080   1.467   9.232  10.200  0.0823 -0.8065 -0.4304
  305MOL0     H42081   1.499   9.269  10.027  0.8492  4.3429 -0.1265
  305MOL0     H42082   1.602   9.423  10.271 -0.6611 -0.9047  1.2068
  305MOL0     H42083   1.684   9.428  10.109  0.0067 -1.3035 -1.0698
  305MOL0     H42084   1.408   9.523  10.202 -1.0586  0.4811  0.2691
  305MOL0     H42085   1.440   9.510  10.036 -0.7542  1.1329  0.3160
  305MOL0     H42086   1.660   9.856  10.116 -2.0027  0.8094 -2.9083
  305MOL0     H42087   1.889   9.319  10.084 -0.6267 -0.3818 -0.1140
  305MOL0     H42088   2.097   9.425  10.036 -1.3038 -0.2774  4.0684
  305MOL0     H42089   2.257   9.356  10.083  0.8011 -0.9033 -1.7607
  305MOL0     H42090   2.165   9.283   9.954 -0.3832 -1.6059 -0.3661
  306MOL0     O42091   5.695   9.752   0.368  0.1517  0.3674 -0.4848
  306MOL0     C42092   5.616   9.677   0.314 -0.3433 -0.1563 -0.3891
  306MOL0     O42093   5.622   9.541   0.326 -0.4164  0.2878 -0.5814
  306MOL0     C42094   5.710   9.504   0.431  0.0716  0.2864  0.9690
  306MOL0     C42095   5.838   9.463   0.401  0.4176  1.0939 -0.3901
  306MOL0     C42096   5.928   9.420   0.504 -0.1440  0.9228  0.7292
  306MOL0     C42097   5.883   9.398   0.631 -0.0690  0.4585 -0.0973
  306MOL0     O42098   5.955   9.357   0.733 -0.5868  0.1806 -0.4844
  306MOL0     C42099   6.091   9.386   0.748 -0.6860 -0.1848 -0.0673
  306MOL0     C42100   6.113   9.542   0.773 -1.1408  0.2741  0.2214
  306MOL0     C42101   5.998   9.616   0.849 -0.3876  0.8222  0.3176
  306MOL0     C42102   6.036   9.761   0.873 -0.1910  0.2698  1.1583
  306MOL0     C42103   6.056   9.837   0.741  0.2139 -0.2794  0.2488
  306MOL0     C42104   5.928   9.850   0.663  0.1004  0.6751  0.0861
  306MOL0     C42105   5.942   9.941   0.542  0.1524 -0.0672 -0.9074
  306MOL0     C42106   6.032   9.902   0.429  0.9927  0.0029 -0.2226
  306MOL0     N42107   6.016   9.993   0.313  0.0334 -0.4075 -0.0096
  306MOL0     C42108   5.933   9.971   0.208  0.0299  0.5564  0.3541
  306MOL0     C42109   5.964  10.073   0.122  0.5650 -0.0471  0.0629
  306MOL0     C42110   5.883  10.097   0.003  0.4875 -0.0538  0.0878
  306MOL0     C42111   5.968  10.122  -0.117 -1.3720 -0.4251  0.0380
  306MOL0     C42112   5.883  10.131  -0.250  0.3035  0.1401 -0.7038
  306MOL0     C42113   5.954  10.095  -0.371 -0.4535  0.0157  0.0667
  306MOL0     O42114   6.001   9.962  -0.350  0.7767  0.3707 -0.2840
  306MOL0     C42115   6.040   9.885  -0.456 -1.0127  0.0485  0.6102
  306MOL0     C42116   6.040   9.749  -0.441 -0.2766 -0.5530  0.0891
  306MOL0     C42117   6.089   9.661  -0.539  1.0639  0.9945 -0.1075
  306MOL0     C42118   6.083   9.514  -0.505 -0.4491  1.0461  0.2095
  306MOL0     C42119   6.144   9.711  -0.656 -0.1782  0.8504 -0.3602
  306MOL0     C42120   6.199   9.626  -0.764 -0.0506 -0.0309  0.0047
  306MOL0     O42121   6.331   9.650  -0.790  0.1955 -0.0362  0.6421
  306MOL0     C42122   6.390   9.578  -0.885 -1.0366 -0.4485  0.5672
  306MOL0     C42123   6.447   9.657  -0.979  0.6075 -0.0760 -0.2038
  306MOL0     C42124   6.526   9.607  -1.082 -1.1269  0.4685 -0.0255
  306MOL0     C42125   6.535   9.456  -1.098  1.3759  0.1488  0.0759
  306MOL0     O42126   6.610   9.398  -1.203  0.5374  0.5883  0.6634
  306MOL0     C42127   6.697   9.464  -1.290 -0.6025 -0.4749 -0.3616
  306MOL0     C42128   6.763   9.357  -1.371 -0.4746 -0.5006 -0.5335
  306MOL0     C42129   6.895   9.309  -1.304 -0.2006 -0.5907 -0.4567
  306MOL0     C42130   6.961   9.185  -1.374  0.6575  1.1075  0.2019
  306MOL0     C42131   7.116   9.157  -1.336  0.4827 -0.7328  0.1758
  306MOL0     C42132   7.176   9.032  -1.407 -0.5103 -0.6799 -0.6476
  306MOL0     C42133   7.313   8.995  -1.352  0.6014 -0.8256  0.5229
  306MOL0     C42134   7.426   9.088  -1.379  0.2770 -0.5162  0.3860
  306MOL0    Cl42135   7.421   9.145  -1.551 -0.1837  0.5888 -0.1518
  306MOL0     C42136   6.457   9.376  -1.010  0.5066  0.2163  0.3896
  306MOL0     C42137   6.389   9.435  -0.906 -0.0365 -0.7616 -0.6152
  306MOL0     O42138   6.121   9.555  -0.823 -0.6513 -0.4929 -0.4741
  306MOL0     C42139   6.146   9.848  -0.672  0.4023  0.2259 -0.7046
  306MOL0     C42140   6.091   9.935  -0.577 -0.5571 -0.6551 -0.1915
  306MOL0     N42141   6.048  10.163   0.178 -0.2383 -0.5903  0.4002
  306MOL0     N42142   6.079  10.111   0.293  0.0614 -0.5825 -0.1110
  306MOL0     C42143   5.751   9.434   0.654  0.8657 -0.3882 -0.2576
  306MOL0     C42144   5.661   9.490   0.562  0.2267  0.6660 -0.0131
  306MOL0     C42145   5.531   9.728   0.204  0.1384 -0.4392 -0.6098
  306MOL0     C42146   5.488   9.634   0.107  0.1321  0.4262 -0.3191
  306MOL0     C42147   5.426   9.675  -0.010 -0.8310  0.2198  0.0075
  306MOL0     C42148   5.391   9.812  -0.030 -0.5649  0.1160  0.3855
  306MOL0     O42149   5.304   9.865  -0.129 -0.3713 -1.2010 -0.1204
  306MOL0     C42150   5.184   9.933  -0.091  0.3858 -0.0682 -0.2705
  306MOL0     C42151   5.051   9.849  -0.060 -0.4781 -0.1844 -0.0120
  306MOL0     C42152   5.009   9.775  -0.192  0.6550 -0.4639  0.2115
  306MOL0     C42153   4.910   9.661  -0.159 -0.0916 -0.4710 -0.1827
  306MOL0     C42154   4.898   9.571  -0.272  0.0523 -0.0599 -0.3147
  306MOL0     C42155   4.881   9.487  -0.365  0.7906 -1.1937 -0.0495
  306MOL0     C42156   5.444   9.902   0.057  0.2907 -0.5228 -0.6088
  306MOL0     C42157   5.500   9.863   0.186 -0.6026 -1.0536  0.1210
  306MOL0     C42158   5.551   9.975   0.283  0.0170  0.6318  0.0862
  306MOL0     H42159   5.877   9.466   0.300  2.5693  1.8957  0.3950
  306MOL0     H42160   6.030   9.402   0.473  0.4969  4.9718 -0.1180
  306MOL0     H42161   6.147   9.366   0.657  0.7541 -0.2570  0.8017
  306MOL0     H42162   6.132   9.327   0.830 -1.3796 -1.5488 -0.6727
  306MOL0     H42163   6.209   9.556   0.824 -0.1385 -2.1350 -0.8342
  306MOL0     H42164   6.117   9.585   0.673  2.2552 -0.4268 -0.0711
  306MOL0     H42165   5.913   9.618   0.781 -0.3421  1.8229  0.2718
  306MOL0     H42166   5.973   9.560   0.940 -0.0227  1.8436  1.0670
  306MOL0     H42167   5.959   9.818   0.927 -1.5742  1.0456 -1.4880
  306MOL0     H42168   6.126   9.771   0.934  1.7398  2.0541 -1.7344
  306MOL0     H42169   6.135   9.792   0.680  1.0812  2.9613 -1.1972
  306MOL0     H42170   6.100   9.935   0.757  0.0593  0.3810 -2.7810
  306MOL0     H42171   5.885   9.757   0.624 -1.1463  0.1562  2.4748
  306MOL0     H42172   5.857   9.893   0.735  0.5427  2.9323 -0.7429
  306MOL0     H42173   5.977  10.036   0.585 -0.7924 -0.4999  0.9539
  306MOL0     H42174   5.843   9.956   0.498  0.2348  1.2848 -0.6929
  306MOL0     H42175   6.135   9.900   0.466  0.6590 -2.5373  0.7861
  306MOL0     H42176   6.012   9.800   0.394 -1.2392  0.2157  0.2858
  306MOL0     H42177   5.856   9.899   0.183 -4.0819  3.9942  1.8722
  306MOL0     H42178   5.803  10.167   0.028 -1.1546 -1.5144 -0.8962
  306MOL0     H42179   5.832  10.003  -0.018  0.1508  0.1426  0.0370
  306MOL0     H42180   6.024  10.215  -0.108  1.4310 -1.6980 -2.4541
  306MOL0     H42181   6.036  10.036  -0.121 -2.9800 -1.7584  0.0606
  306MOL0     H42182   5.800  10.059  -0.254 -0.1121  0.6166 -0.6581
  306MOL0     H42183   5.838  10.229  -0.266  3.7272  1.6228 -2.1885
  306MOL0     H42184   5.893  10.096  -0.462  1.1003  0.7902 -1.0002
  306MOL0     H42185   6.039  10.162  -0.387  0.5021 -1.0745  0.4336
  306MOL0     H42186   5.990   9.704  -0.356 -3.2731 -1.1632 -1.8712
  306MOL0     H42187   6.053   9.495  -0.402 -0.1992  2.5462  0.5848
  306MOL0     H42188   6.186   9.479  -0.511 -0.0243  2.3538 -0.6143
  306MOL0     H42189   6.020   9.469  -0.582  0.6065  0.7829 -0.5214
  306MOL0     H42190   6.421   9.762  -0.968 -2.4835 -0.3884 -3.0989
  306MOL0     H42191   6.585   9.665  -1.153 -1.1641 -1.3888 -1.6498
  306MOL0     H42192   6.657   9.530  -1.368 -3.5937 -0.8788  0.7330
  306MOL0     H42193   6.775   9.521  -1.238  0.7956 -1.5629 -1.1938
  306MOL0     H42194   6.703   9.268  -1.392  0.4218 -0.6606 -2.7290
  306MOL0     H42195   6.794   9.411  -1.462  1.5069  2.0200  1.4781
  306MOL0     H42196   6.880   9.289  -1.197  1.3521  0.2359 -0.0468
  306MOL0     H42197   6.966   9.392  -1.317 -0.4777 -0.0210  1.2974
  306MOL0     H42198   6.952   9.193  -1.483  0.4318  2.1605  0.2868
  306MOL0     H42199   6.899   9.101  -1.342 -1.4492  2.0425 -1.1779
  306MOL0     H42200   7.184   9.242  -1.348 -0.1877 -0.4209 -1.8336
  306MOL0     H42201   7.118   9.132  -1.230 -0.5900 -0.1933  0.3367
  306MOL0     H42202   7.183   9.056  -1.513 -1.1887 -0.3152 -0.6149
  306MOL0     H42203   7.106   8.949  -1.393  0.0316 -0.8567  1.3201
  306MOL0     H42204   7.330   8.896  -1.394 -1.9195 -1.4609  0.8336
  306MOL0     H42205   7.322   8.972  -1.246  4.4151 -2.0702  0.0879
  306MOL0     H42206   7.522   9.036  -1.365  0.6594  0.0577 -0.0288
  306MOL0     H42207   7.413   9.166  -1.304 -1.1692 -2.0252  1.7666
  306MOL0     H42208   6.438   9.271  -1.030 -0.0013  0.5958 -1.2200
  306MOL0     H42209   6.335   9.357  -0.854  2.1153 -1.4599  0.6858
  306MOL0     H42210   6.191   9.899  -0.756  0.0501  0.1535 -0.9407
  306MOL0     H42211   6.082  10.042  -0.594  0.0934 -0.4315  0.8017
  306MOL0     H42212   5.702   9.438   0.751 -1.1233  0.3907 -1.2359
  306MOL0     H42213   5.557   9.513   0.586  0.6544 -0.4231  3.3154
  306MOL0     H42214   5.508   9.527   0.113 -1.0780 -0.0087 -2.7017
  306MOL0     H42215   5.379   9.602  -0.075  2.8703 -0.9115 -1.6102
  306MOL0     H42216   5.202  10.007  -0.013  1.0293 -0.4679 -0.0283
  306MOL0     H42217   5.160   9.980  -0.187 -2.2950 -3.1037 -1.2757
  306MOL0     H42218   4.962   9.905  -0.031 -1.1385 -0.8812 -0.6405
  306MOL0     H42219   5.079   9.787   0.025  0.4297 -0.9347 -0.8330
  306MOL0     H42220   4.949   9.848  -0.247  1.2502 -0.8316 -0.9392
  306MOL0     H42221   5.092   9.752  -0.259 -0.6434 -0.8831 -1.3107
  306MOL0     H42222   4.809   9.691  -0.129 -0.3547 -1.8450  0.3709
  306MOL0     H42223   4.938   9.602  -0.072 -3.5391 -0.3191  1.1637
  306MOL0     H42224   4.870   9.411  -0.440 -0.5338 -1.6706  0.5984
  306MOL0     H42225   5.429  10.007   0.038  2.1927 -0.1961 -0.4796
  306MOL0     H42226   5.658   9.987   0.267  0.3630 -1.1505  0.8789
  306MOL0     H42227   5.500  10.067   0.253 -1.3438 -0.3791 -0.8835
  306MOL0     H42228   5.524   9.961   0.388 -3.2901  2.1795 -0.4166
  307MOL0     O42229   1.823   9.657   8.648  0.1770 -0.4079  1.0952
  307MOL0     C42230   1.821   9.608   8.533 -0.5248 -0.2224 -0.5842
  307MOL0     O42231   1.711   9.589   8.458  0.1500 -0.4858  0.3930
  307MOL0     C42232   1.579   9.593   8.510 -0.7693  0.0300 -0.5879
  307MOL0     C42233   1.484   9.549   8.418  0.7704 -1.4544 -0.4303
  307MOL0     C42234   1.346   9.555   8.448  0.0034  0.1062 -0.1854
  307MOL0     C42235   1.308   9.612   8.572  0.3936  0.6795  0.0183
  307MOL0     O42236   1.182   9.621   8.609  0.0516 -0.2958  0.4388
  307MOL0     C42237   1.081   9.590   8.518 -0.3264 -0.6547  0.7016
  307MOL0     C42238   0.947   9.604   8.594 -0.0803  0.1531  0.3817
  307MOL0     C42239   0.920   9.745   8.652 -1.2946  1.2648 -0.0420
  307MOL0     C42240   0.767   9.792   8.651 -0.1297  0.5505  0.5398
  307MOL0     C42241   0.756   9.936   8.702 -1.3352 -0.3919  0.0350
  307MOL0     C42242   0.617   9.971   8.755  0.1430  0.2847 -0.4730
  307MOL0     C42243   0.512   9.963   8.635 -0.3513  0.0673 -0.4828
  307MOL0     C42244   0.366   9.980   8.688 -0.6080  0.5641  1.3055
  307MOL0     N42245   0.258   9.922   8.610  0.1500 -0.0062  0.3802
  307MOL0     C42246   0.255   9.803   8.544  0.3736  0.5521  1.2715
  307MOL0     C42247   0.139   9.801   8.484 -0.6675 -0.7807 -0.1172
  307MOL0     C42248   0.086   9.690   8.394  0.3223 -0.6847 -0.3577
  307MOL0     C42249   0.202   9.606   8.323  0.4943  0.8207 -0.7660
  307MOL0     C42250   0.279   9.677   8.200  0.3756  0.3497 -0.4590
  307MOL0     C42251   0.403   9.602   8.167  0.2384  0.5849 -0.0529
  307MOL0     O42252   0.507   9.578   8.267  1.0946  0.1298  0.4039
  307MOL0     C42253   0.610   9.669   8.272 -0.0059 -0.7935  0.1676
  307MOL0     C42254   0.596   9.808   8.277 -0.1068 -0.2952  0.9784
  307MOL0     C42255   0.703   9.898   8.289 -0.2172 -0.0526  0.4888
  307MOL0     C42256   0.670  10.050   8.308  0.9756 -0.3122  0.0273
  307MOL0     C42257   0.836   9.842   8.282 -0.2507  0.8721 -0.2797
  307MOL0     C42258   0.959   9.924   8.288 -0.6855 -0.2773 -0.1120
  307MOL0     O42259   1.072   9.868   8.233 -0.0138  0.0750  0.1787
  307MOL0     C42260   1.193   9.928   8.259  0.1245  0.0233  0.2525
  307MOL0     C42261   1.240   9.932   8.393  1.1250  0.3074 -0.3126
  307MOL0     C42262   1.351   9.997   8.426 -0.4471  0.0633 -0.6424
  307MOL0     C42263   1.437  10.054   8.331  0.4804  0.0022 -0.7152
  307MOL0     O42264   1.545  10.127   8.376  0.3748 -0.0667  0.4566
  307MOL0     C42265   1.640  10.065   8.459  0.4748  0.4529 -0.0341
  307MOL0     C42266   1.714   9.942   8.408 -0.9136 -0.0246  0.7707
  307MOL0     C42267   1.816   9.986   8.293 -0.4018  0.9383  0.6602
  307MOL0     C42268   1.948  10.054   8.340 -0.5745 -0.5635 -0.3643
  307MOL0     C42269   2.040  10.090   8.220  0.4353  0.2104  0.3849
  307MOL0     C42270   2.173  10.151   8.260  0.6331  0.1077 -0.7007
  307MOL0     C42271   2.269  10.141   8.141 -0.4538 -1.0689  0.1010
  307MOL0     C42272   2.234  10.240   8.029  0.5311  0.3263  0.2858
  307MOL0    Cl42273   2.345  10.196   7.895 -0.2030  0.1147  0.1999
  307MOL0     C42274   1.408  10.041   8.197  0.4862 -0.1710 -0.9828
  307MOL0     C42275   1.282   9.987   8.161 -1.0514  0.0997 -0.8981
  307MOL0     O42276   0.961  10.024   8.367 -0.4758  0.6867 -0.2571
  307MOL0     C42277   0.851   9.704   8.260  0.5072 -0.3038  1.3446
  307MOL0     C42278   0.740   9.622   8.256  0.6734 -0.7921  0.6482
  307MOL0     N42279   0.072   9.926   8.508 -0.4279  0.6882  0.1679
  307MOL0     N42280   0.146   9.994   8.580  0.0668 -0.2678 -0.7903
  307MOL0     C42281   1.405   9.661   8.659  0.3620  0.2579 -0.0192
  307MOL0     C42282   1.535   9.658   8.623 -0.6801 -0.1666 -0.0748
  307MOL0     C42283   1.955   9.569   8.479  0.8287  0.2050  1.3654
  307MOL0     C42284   1.958   9.512   8.348 -0.6708  0.6132  0.1597
  307MOL0     C42285   2.076   9.445   8.300  0.3716 -0.0643 -0.1808
  307MOL0     C42286   2.193   9.446   8.374  0.1854  0.0201 -0.1829
  307MOL0     O42287   2.300   9.386   8.306 -0.8113 -0.9810 -0.0695
  307MOL0     C42288   2.426   9.385   8.363  0.4817 -0.3687 -1.1779
  307MOL0     C42289   2.424   9.258   8.452 -0.2050 -0.4947  0.3510
  307MOL0     C42290   2.551   9.237   8.530  0.4451 -0.3287  0.2421
  307MOL0     C42291   2.685   9.261   8.461  0.1672  0.4285  0.0166
  307MOL0     C42292   2.703   9.203   8.321 -1.2682  0.0245 -1.0874
  307MOL0     C42293   2.721   9.186   8.198 -0.5371 -0.3721  0.2123
  307MOL0     C42294   2.187   9.526   8.491 -0.1692 -0.0949 -0.1488
  307MOL0     C42295   2.074   9.594   8.550 -0.5681  0.2478 -0.0614
  307MOL0     C42296   2.092   9.675   8.680  0.1070 -0.4191 -0.1907
  307MOL0     H42297   1.513   9.517   8.319  2.1978 -0.0272 -0.5203
  307MOL0     H42298   1.291   9.512   8.364 -0.5533  0.7504 -0.1576
  307MOL0     H42299   1.094   9.492   8.471 -3.6116 -0.4895 -0.8087
  307MOL0     H42300   1.083   9.660   8.434  0.0394 -2.8108 -1.1999
  307MOL0     H42301   0.867   9.597   8.519  0.8344 -0.3447 -0.5793
  307MOL0     H42302   0.932   9.529   8.672  0.8426  0.8046  1.2128
  307MOL0     H42303   0.961   9.743   8.754 -0.8450  0.5526 -0.2295
  307MOL0     H42304   0.977   9.825   8.603 -0.4685  2.1477  2.2016
  307MOL0     H42305   0.727   9.796   8.549  3.7495 -0.2679 -1.2030
  307MOL0     H42306   0.711   9.725   8.717  0.1153  1.1718  1.3959
  307MOL0     H42307   0.771  10.015   8.628 -1.6975  0.9569  1.3566
  307MOL0     H42308   0.826   9.942   8.785  1.0434  0.0951 -1.8909
  307MOL0     H42309   0.585   9.894   8.826  0.5424  0.9612  0.4530
  307MOL0     H42310   0.624  10.074   8.790 -1.5935  2.1381 -4.8498
  307MOL0     H42311   0.518   9.864   8.591 -2.3677 -0.5249  0.4514
  307MOL0     H42312   0.543  10.036   8.559  2.8615  2.2757  2.6071
  307MOL0     H42313   0.350   9.927   8.782  2.0770 -0.9026  1.0265
  307MOL0     H42314   0.348  10.086   8.710  0.2975  1.0176 -0.0165
  307MOL0     H42315   0.332   9.727   8.540 -2.6916 -2.9011  2.8158
  307MOL0     H42316   0.023   9.726   8.312 -2.2319  0.6096  1.9893
  307MOL0     H42317   0.025   9.624   8.455 -1.3077  0.0510 -1.1322
  307MOL0     H42318   0.279   9.563   8.388  0.8716 -1.8104 -2.8057
  307MOL0     H42319   0.146   9.520   8.286 -1.0972  0.9390  1.1784
  307MOL0     H42320   0.209   9.668   8.116  0.9496  0.8026 -0.9968
  307MOL0     H42321   0.284   9.785   8.221 -0.8435 -0.0409  2.3860
  307MOL0     H42322   0.374   9.499   8.144 -0.8196  0.8963 -0.1575
  307MOL0     H42323   0.442   9.649   8.076  0.1309  3.2003  1.1626
  307MOL0     H42324   0.494   9.847   8.277 -0.0987  0.1179 -3.0062
  307MOL0     H42325   0.570  10.069   8.270  1.1856  0.0756 -0.3434
  307MOL0     H42326   0.738  10.103   8.240  1.9434 -0.9062  0.5076
  307MOL0     H42327   0.685  10.089   8.409 -2.9018 -0.0969  0.6650
  307MOL0     H42328   1.183   9.877   8.468  0.2982 -1.0498 -1.8782
  307MOL0     H42329   1.371   9.993   8.533 -0.4662 -1.7853 -0.6793
  307MOL0     H42330   1.715  10.144   8.471  1.7598  0.2006 -4.7232
  307MOL0     H42331   1.603  10.042   8.560  2.3664 -2.3199  0.1577
  307MOL0     H42332   1.782   9.896   8.480  2.0255  2.2340 -0.3336
  307MOL0     H42333   1.640   9.869   8.372  0.3018 -0.8076 -0.2183
  307MOL0     H42334   1.768  10.062   8.231  2.4234  3.3609  1.2140
  307MOL0     H42335   1.840   9.895   8.238 -1.8530  0.9496 -0.0439
  307MOL0     H42336   2.006   9.988   8.405 -0.1893 -0.9448 -1.0866
  307MOL0     H42337   1.947  10.147   8.397  2.0089  0.3041 -1.5674
  307MOL0     H42338   2.060   9.999   8.162  1.5199  1.2809 -1.0006
  307MOL0     H42339   1.989  10.151   8.146 -0.2875 -0.3216  0.4327
  307MOL0     H42340   2.197  10.090   8.347 -0.7332  0.9328  0.3006
  307MOL0     H42341   2.159  10.254   8.296 -0.2563  0.1961 -1.2794
  307MOL0     H42342   2.261  10.038   8.106 -1.8709 -1.7492  2.2444
  307MOL0     H42343   2.370  10.170   8.173 -0.1311 -0.3082 -1.5053
  307MOL0     H42344   2.246  10.345   8.058  0.9315  0.6923 -1.1637
  307MOL0     H42345   2.130  10.226   7.997  0.7730  0.5969 -0.6204
  307MOL0     H42346   1.483  10.084   8.133 -0.2325  0.0869 -1.6641
  307MOL0     H42347   1.254  10.003   8.058  1.3752  0.9869 -1.4808
  307MOL0     H42348   0.945   9.652   8.242 -0.3841 -1.2679 -0.8748
  307MOL0     H42349   0.763   9.516   8.250  0.6848 -0.7937  0.7284
  307MOL0     H42350   1.377   9.716   8.748 -4.4807 -1.1454 -0.3810
  307MOL0     H42351   1.607   9.698   8.693 -0.6577 -0.4950  0.0880
  307MOL0     H42352   1.870   9.509   8.285 -0.0725 -2.2267 -0.6648
  307MOL0     H42353   2.083   9.405   8.199  0.7903  1.5709 -0.8352
  307MOL0     H42354   2.498   9.368   8.282 -0.8085  0.9366 -2.6739
  307MOL0     H42355   2.464   9.479   8.404 -1.0409  0.1009 -0.7933
  307MOL0     H42356   2.408   9.167   8.393  2.2473  1.1006 -3.1760
  307MOL0     H42357   2.345   9.275   8.525 -0.5112 -0.6764  0.0658
  307MOL0     H42358   2.549   9.308   8.614  2.3522 -1.9191  1.7421
  307MOL0     H42359   2.555   9.135   8.571  0.7294 -0.8156 -0.9682
  307MOL0     H42360   2.758   9.220   8.532 -1.6295 -0.7431  1.2731
  307MOL0     H42361   2.700   9.369   8.473  0.7428  0.3209  0.3086
  307MOL0     H42362   2.739   9.155   8.097 -1.0651  2.0361 -0.6940
  307MOL0     H42363   2.280   9.516   8.545 -0.1067  0.3898 -0.1677
  307MOL0     H42364   2.057   9.619   8.768 -3.0041 -0.6481 -1.4148
  307MOL0     H42365   2.196   9.689   8.710 -0.5556 -1.5057  3.0012
  307MOL0     H42366   2.042   9.772   8.670  1.6718  0.3146 -1.3134
  308MOL0     O42367   5.304  10.777   4.900  0.6079  1.1551 -0.3024
  308MOL0     C42368   5.208  10.834   4.849  0.1424  0.2483  0.2525
  308MOL0     O42369   5.074  10.813   4.875 -0.9955 -0.1554 -0.5574
  308MOL0     C42370   5.015  10.726   4.962  0.7906 -0.4261 -0.2075
  308MOL0     C42371   5.076  10.620   5.025  0.5320 -0.3217 -1.0996
  308MOL0     C42372   5.002  10.523   5.107 -1.0868 -0.6322 -0.0238
  308MOL0     C42373   4.870  10.546   5.138  0.1034  0.6526 -0.6601
  308MOL0     O42374   4.806  10.462   5.236 -0.0155 -0.2246  0.3918
  308MOL0     C42375   4.873  10.357   5.302 -0.7162  0.0853  0.1955
  308MOL0     C42376   4.768  10.275   5.374 -0.2553 -0.2191 -0.3999
  308MOL0     C42377   4.704  10.334   5.498  0.0149 -1.0781  0.3285
  308MOL0     C42378   4.585  10.409   5.456  0.8032  0.5281  0.6548
  308MOL0     C42379   4.512  10.472   5.572  0.0916 -0.2385 -1.1228
  308MOL0     C42380   4.421  10.376   5.662 -0.3131  0.6577  0.9503
  308MOL0     C42381   4.280  10.360   5.596 -0.8106  0.6417  0.4342
  308MOL0     C42382   4.185  10.271   5.685  0.2794 -0.1446  0.6077
  308MOL0     N42383   4.039  10.303   5.657 -0.3739 -0.9287 -0.8160
  308MOL0     C42384   3.980  10.321   5.535  0.3198  0.7692 -0.4136
  308MOL0     C42385   3.876  10.405   5.561 -0.0834 -0.5848  0.5808
  308MOL0     C42386   3.777  10.439   5.455 -0.2407  0.9655 -0.8135
  308MOL0     C42387   3.722  10.314   5.387 -0.4232  0.2247 -0.0274
  308MOL0     C42388   3.619  10.342   5.280 -0.5122 -0.5925  0.0380
  308MOL0     C42389   3.598  10.211   5.204  0.0267  0.0965 -0.8134
  308MOL0     O42390   3.551  10.107   5.292  0.3982 -0.4383  0.2880
  308MOL0     C42391   3.530   9.986   5.227 -0.3802  0.5476 -0.6846
  308MOL0     C42392   3.508   9.955   5.088 -0.3995 -0.3323  0.1908
  308MOL0     C42393   3.483   9.825   5.037 -0.0797  0.5538  0.5214
  308MOL0     C42394   3.475   9.804   4.882 -0.0305  0.5499 -0.2228
  308MOL0     C42395   3.475   9.719   5.130 -0.1723  0.9557 -0.3866
  308MOL0     C42396   3.452   9.581   5.090  0.7556 -0.8891 -0.0128
  308MOL0     O42397   3.405   9.491   5.192  0.1027  0.0843 -0.2522
  308MOL0     C42398   3.337   9.373   5.158 -0.5268 -0.6719  0.4251
  308MOL0     C42399   3.374   9.256   5.220  1.0592  0.0180 -0.2123
  308MOL0     C42400   3.312   9.138   5.200  0.6227  0.3762  0.6891
  308MOL0     C42401   3.200   9.127   5.119  1.2021 -0.6531  0.9124
  308MOL0     O42402   3.133   9.015   5.097  0.0418 -0.5981 -0.1042
  308MOL0     C42403   3.201   8.896   5.076 -0.0106 -0.2809  0.0873
  308MOL0     C42404   3.124   8.800   4.994  1.4055  0.7570  0.2229
  308MOL0     C42405   2.968   8.796   5.043 -0.2914  0.7243  0.2564
  308MOL0     C42406   2.891   8.703   4.952 -0.5810 -0.5076 -0.3802
  308MOL0     C42407   2.744   8.688   4.990 -0.4092 -0.1102 -0.0451
  308MOL0     C42408   2.670   8.587   4.897  0.0545 -0.0360 -0.5258
  308MOL0     C42409   2.523   8.555   4.927  0.4186  0.1714  0.3244
  308MOL0     C42410   2.476   8.424   4.869 -0.4782  1.4091  0.0488
  308MOL0    Cl42411   2.502   8.412   4.693  0.1066  0.2551 -0.1222
  308MOL0     C42412   3.151   9.251   5.070 -0.1559  0.8963 -0.2026
  308MOL0     C42413   3.212   9.366   5.090 -0.1360 -0.9167  0.2722
  308MOL0     O42414   3.468   9.541   4.975  0.6054  0.6633  0.6548
  308MOL0     C42415   3.491   9.742   5.265  0.1701 -0.0207 -0.9358
  308MOL0     C42416   3.513   9.873   5.316 -0.7231  0.1513 -0.7373
  308MOL0     N42417   3.873  10.435   5.691 -0.7735  0.1844 -0.7535
  308MOL0     N42418   3.975  10.380   5.750  0.2368 -0.4224  0.7714
  308MOL0     C42419   4.812  10.661   5.082  0.3767  0.6546 -0.0166
  308MOL0     C42420   4.882  10.751   4.996  0.0512  0.3453 -0.4337
  308MOL0     C42421   5.248  10.951   4.772  0.0128 -0.3535 -0.0372
  308MOL0     C42422   5.162  11.059   4.773 -0.8796  0.7071  0.9813
  308MOL0     C42423   5.183  11.168   4.689 -0.3530  0.6215 -0.0642
  308MOL0     C42424   5.297  11.187   4.613  0.3855  0.4825 -0.0306
  308MOL0     O42425   5.306  11.304   4.537 -0.0245  0.2859  0.0250
  308MOL0     C42426   5.434  11.343   4.488 -0.1498  0.3940  0.9448
  308MOL0     C42427   5.432  11.492   4.448  0.0817  0.2075  0.5063
  308MOL0     C42428   5.427  11.594   4.562 -0.1153 -0.1844 -0.3843
  308MOL0     C42429   5.392  11.733   4.502 -0.5281  0.1305 -0.0298
  308MOL0     C42430   5.358  11.828   4.608  0.3729 -1.2468 -0.6075
  308MOL0     C42431   5.319  11.919   4.683 -0.0056  0.0331  0.0714
  308MOL0     C42432   5.385  11.075   4.606 -0.2560 -0.0861  0.2587
  308MOL0     C42433   5.364  10.965   4.691 -0.0382  0.8334  1.5026
  308MOL0     C42434   5.467  10.855   4.671 -0.0541 -0.6462 -0.2999
  308MOL0     H42435   5.181  10.597   5.016  1.0112  0.9098  0.7516
  308MOL0     H42436   5.065  10.446   5.151 -0.9503 -1.9120 -2.2710
  308MOL0     H42437   4.945  10.390   5.378  2.7757 -0.3016 -2.7001
  308MOL0     H42438   4.908  10.283   5.230  0.6970  0.3489  0.5917
  308MOL0     H42439   4.687  10.241   5.309 -1.4723  0.3444  0.7752
  308MOL0     H42440   4.818  10.189   5.419  0.7125  1.1152  1.2434
  308MOL0     H42441   4.669  10.252   5.561 -1.4700 -1.6874 -1.2173
  308MOL0     H42442   4.773  10.397   5.554  0.3220 -1.5539  0.4913
  308MOL0     H42443   4.610  10.490   5.387 -0.4750 -0.5118 -1.0986
  308MOL0     H42444   4.506  10.354   5.404  0.9379  1.4766 -0.5928
  308MOL0     H42445   4.452  10.556   5.537 -0.0285  0.2457  0.1768
  308MOL0     H42446   4.591  10.514   5.634 -0.8072  2.0813 -1.4703
  308MOL0     H42447   4.467  10.277   5.660  1.1780  1.3087  0.8269
  308MOL0     H42448   4.425  10.409   5.766  4.3188  0.4029  1.0768
  308MOL0     H42449   4.277  10.319   5.495  0.6873  1.1400  0.1498
  308MOL0     H42450   4.231  10.457   5.586 -0.7378  0.5882 -0.4722
  308MOL0     H42451   4.196  10.164   5.665 -1.7771 -0.3429  0.3233
  308MOL0     H42452   4.209  10.304   5.786  0.0742 -1.4661  1.1019
  308MOL0     H42453   4.009  10.278   5.440 -2.3902 -1.2287 -0.4438
  308MOL0     H42454   3.826  10.503   5.381  1.3525  0.6638 -0.0783
  308MOL0     H42455   3.686  10.488   5.491 -0.0055  3.5653 -3.4114
  308MOL0     H42456   3.808  10.259   5.348 -0.2103 -0.3391  1.1764
  308MOL0     H42457   3.667  10.250   5.457  1.7566  0.8401  2.4209
  308MOL0     H42458   3.533  10.378   5.337  0.0837 -2.3103  2.1338
  308MOL0     H42459   3.656  10.409   5.202  0.0091 -0.7991  0.1087
  308MOL0     H42460   3.523  10.224   5.126 -0.8742 -0.9701 -0.1539
  308MOL0     H42461   3.694  10.176   5.165 -0.2054 -0.7198 -0.6509
  308MOL0     H42462   3.506  10.042   5.024  1.9384  1.5400  2.4095
  308MOL0     H42463   3.551   9.732   4.850  1.0476 -0.4665  3.9975
  308MOL0     H42464   3.478   9.891   4.816 -1.8786 -0.8878 -2.3642
  308MOL0     H42465   3.379   9.762   4.853  1.1013 -1.2183 -1.6456
  308MOL0     H42466   3.463   9.260   5.281  1.0342 -2.3875  0.0784
  308MOL0     H42467   3.362   9.049   5.237  2.3817  0.8007 -0.5720
  308MOL0     H42468   3.296   8.916   5.025  0.4104  1.8667  1.5778
  308MOL0     H42469   3.228   8.854   5.173 -0.6210  1.1739  0.9178
  308MOL0     H42470   3.140   8.836   4.892 -0.2861 -1.2210 -0.8070
  308MOL0     H42471   3.166   8.700   5.001  0.0447  0.1249 -0.1901
  308MOL0     H42472   2.922   8.895   5.048 -3.7405 -0.7749  0.8541
  308MOL0     H42473   2.972   8.754   5.144  1.1436 -1.6528 -0.6923
  308MOL0     H42474   2.933   8.604   4.973  0.4792  0.6301  3.7733
  308MOL0     H42475   2.912   8.720   4.846  0.9739 -1.3050 -0.2236
  308MOL0     H42476   2.729   8.656   5.094 -1.4172  0.4198 -0.0163
  308MOL0     H42477   2.684   8.779   4.977 -2.3707 -1.2961  0.4373
  308MOL0     H42478   2.724   8.492   4.901 -0.7208 -0.8979 -5.0539
  308MOL0     H42479   2.686   8.608   4.790  2.1004 -1.0272 -0.4690
  308MOL0     H42480   2.458   8.637   4.896  0.1548  0.1276  0.7363
  308MOL0     H42481   2.503   8.538   5.034 -3.1344  0.7688 -0.1273
  308MOL0     H42482   2.372   8.400   4.892 -0.4209 -0.1818 -1.1118
  308MOL0     H42483   2.534   8.340   4.910 -1.5563  1.6579  2.1972
  308MOL0     H42484   3.056   9.250   5.016 -0.7606  1.0449  0.8385
  308MOL0     H42485   3.184   9.456   5.036  0.8331 -1.8966 -1.9530
  308MOL0     H42486   3.478   9.667   5.343 -0.0512  0.1212 -0.8348
  308MOL0     H42487   3.511   9.881   5.425 -2.2021  1.3187 -0.8191
  308MOL0     H42488   4.706  10.679   5.098  0.8144  2.1630  1.4821
  308MOL0     H42489   4.839  10.848   4.973  0.5209  0.1129 -2.4806
  308MOL0     H42490   5.075  11.056   4.839 -4.3978  3.3820 -3.0290
  308MOL0     H42491   5.097  11.231   4.667 -0.2457  0.3272 -1.4639
  308MOL0     H42492   5.511  11.330   4.566  1.8804 -2.8303 -1.3422
  308MOL0     H42493   5.471  11.282   4.405 -1.1981  1.1591 -0.1057
  308MOL0     H42494   5.341  11.506   4.389  0.0189  1.2891  0.8339
  308MOL0     H42495   5.505  11.516   4.371 -0.2711  2.0444  0.7050
  308MOL0     H42496   5.355  11.568   4.640 -1.3762  1.0907 -1.0675
  308MOL0     H42497   5.534  11.597   4.586 -0.1349  0.6120 -0.3426
  308MOL0     H42498   5.308  11.737   4.432  0.5759  1.3928 -1.3697
  308MOL0     H42499   5.472  11.775   4.440 -2.0302  1.3638 -1.2421
  308MOL0     H42500   5.296  11.990   4.761 -2.6379  3.7522 -3.6433
  308MOL0     H42501   5.466  11.074   4.534 -0.9648 -1.3588 -0.5537
  308MOL0     H42502   5.526  10.841   4.762  0.4860  2.6256 -0.0246
  308MOL0     H42503   5.409  10.763   4.658  1.5125 -1.5984 -0.8873
  308MOL0     H42504   5.536  10.855   4.586  0.0637 -1.8785 -0.2225
  309MOL0     O42505   1.712   3.082   6.560  0.3522  0.6870 -0.2166
  309MOL0     C42506   1.632   3.164   6.519  0.1296  0.2257 -0.3269
  309MOL0     O42507   1.655   3.301   6.500 -0.2663 -0.5071 -0.4480
  309MOL0     C42508   1.778   3.347   6.537 -0.1501 -0.5316 -0.9154
  309MOL0     C42509   1.795   3.406   6.661 -1.8677  1.4560  0.5736
  309MOL0     C42510   1.915   3.462   6.699  0.5791  1.0073 -0.1480
  309MOL0     C42511   2.024   3.479   6.610  0.0179  0.7315 -0.7979
  309MOL0     O42512   2.148   3.537   6.644  0.0612  0.5721  0.1723
  309MOL0     C42513   2.152   3.599   6.777 -0.2822 -0.3559 -0.3261
  309MOL0     C42514   2.305   3.622   6.804  0.1676 -0.4678 -0.2066
  309MOL0     C42515   2.323   3.708   6.936 -0.4329  0.1686 -0.6411
  309MOL0     C42516   2.463   3.747   6.966 -0.7276 -0.4828 -0.6582
  309MOL0     C42517   2.459   3.831   7.096 -0.5675 -0.2715  0.4459
  309MOL0     C42518   2.599   3.831   7.173 -0.8202  0.0231 -0.1975
  309MOL0     C42519   2.653   3.696   7.221 -0.1639  0.2204  0.5511
  309MOL0     C42520   2.557   3.632   7.318  0.1045  0.5228 -0.2632
  309MOL0     N42521   2.597   3.499   7.370  0.6248 -0.0122 -0.1495
  309MOL0     C42522   2.714   3.470   7.442 -0.4207 -0.3541 -0.1011
  309MOL0     C42523   2.730   3.337   7.446 -0.0115  0.2849  0.9485
  309MOL0     C42524   2.837   3.278   7.538 -0.1275  0.4737 -0.0254
  309MOL0     C42525   2.946   3.213   7.456  0.3031 -0.4183 -0.5832
  309MOL0     C42526   3.083   3.223   7.528  0.5252 -0.3572  0.0383
  309MOL0     C42527   3.196   3.174   7.440  0.0269  0.6071 -0.0045
  309MOL0     O42528   3.322   3.207   7.493  0.2016  0.4660  0.5582
  309MOL0     C42529   3.438   3.229   7.419  0.8841  0.0314 -0.1226
  309MOL0     C42530   3.545   3.291   7.482  0.3264 -0.4150 -0.4584
  309MOL0     C42531   3.670   3.312   7.419  1.0240  0.6024 -0.5590
  309MOL0     C42532   3.772   3.390   7.495 -0.3279 -0.5729  0.6277
  309MOL0     C42533   3.691   3.256   7.287  0.5913 -0.0591 -0.0307
  309MOL0     C42534   3.818   3.271   7.203 -0.5002 -0.8681 -0.5413
  309MOL0     O42535   3.816   3.236   7.075 -0.6600  0.8452  0.1472
  309MOL0     C42536   3.927   3.220   7.004  0.1593 -0.4127 -0.4286
  309MOL0     C42537   3.979   3.335   6.956  0.1691 -0.4792  0.8710
  309MOL0     C42538   4.095   3.327   6.885 -0.1630 -0.5340  0.9179
  309MOL0     C42539   4.157   3.204   6.854 -0.5616 -0.6672 -0.9468
  309MOL0     O42540   4.269   3.188   6.778 -0.4146 -0.8837  0.6828
  309MOL0     C42541   4.354   3.303   6.751 -0.1491 -0.0833 -0.2415
  309MOL0     C42542   4.474   3.251   6.675 -0.8504  0.6826  0.3777
  309MOL0     C42543   4.443   3.199   6.538 -0.2262  0.2295  0.3485
  309MOL0     C42544   4.566   3.174   6.443 -0.1267 -0.1477 -0.5245
  309MOL0     C42545   4.517   3.107   6.306  0.3636 -0.1559  0.0845
  309MOL0     C42546   4.619   3.016   6.246  0.5429  0.7677  0.1550
  309MOL0     C42547   4.563   2.887   6.168  0.6688 -0.9590  0.0821
  309MOL0     C42548   4.667   2.815   6.096  0.2550  0.2376 -0.6485
  309MOL0    Cl42549   4.782   2.753   6.219 -0.0843  0.1019 -0.0256
  309MOL0     C42550   4.106   3.091   6.917 -0.7361  0.4604 -0.4882
  309MOL0     C42551   3.992   3.099   6.994  0.0764  0.0206  0.3023
  309MOL0     O42552   3.917   3.310   7.262  1.1399  0.1410  0.2419
  309MOL0     C42553   3.577   3.197   7.222 -0.7413 -0.0835 -0.0404
  309MOL0     C42554   3.466   3.167   7.300  0.5752 -0.4920  0.9633
  309MOL0     N42555   2.613   3.286   7.396  0.3331  0.0262  0.3050
  309MOL0     N42556   2.538   3.380   7.345 -0.1782  0.3072  0.9410
  309MOL0     C42557   2.009   3.426   6.483 -0.0819  0.2295  0.3038
  309MOL0     C42558   1.885   3.362   6.450 -0.3827  0.3224 -0.3272
  309MOL0     C42559   1.491   3.114   6.487  0.5486 -0.0153 -0.2991
  309MOL0     C42560   1.403   3.216   6.445  0.2594 -0.5151  0.0661
  309MOL0     C42561   1.267   3.177   6.406 -0.1496 -0.6493 -1.0354
  309MOL0     C42562   1.221   3.050   6.409  0.1249  0.5403 -0.0041
  309MOL0     O42563   1.100   3.001   6.371  0.1434 -0.7662 -0.2732
  309MOL0     C42564   0.998   3.094   6.341  0.8953 -0.6440 -0.0848
  309MOL0     C42565   1.013   3.181   6.212  0.1012  0.2419 -0.1001
  309MOL0     C42566   0.928   3.125   6.102  0.0744 -0.0528 -0.2007
  309MOL0     C42567   0.930   3.215   5.972  0.2529 -0.4424 -0.6558
  309MOL0     C42568   0.846   3.337   6.003 -0.2534  0.7894  0.2126
  309MOL0     C42569   0.778   3.436   6.027 -0.3132  0.6579 -0.8612
  309MOL0     C42570   1.319   2.951   6.434 -0.3195  0.2049  0.7231
  309MOL0     C42571   1.446   2.974   6.474  0.2234  0.5471 -0.2649
  309MOL0     C42572   1.541   2.857   6.479 -0.0760 -0.6262 -0.8310
  309MOL0     H42573   1.711   3.415   6.730  0.6316  0.5995  4.0080
  309MOL0     H42574   1.920   3.503   6.799  0.4326 -0.4863  0.4954
  309MOL0     H42575   2.111   3.532   6.853 -0.4957 -0.2463 -0.3435
  309MOL0     H42576   2.100   3.696   6.771  0.9796  0.4816  1.3565
  309MOL0     H42577   2.368   3.533   6.813  1.7222  0.1260 -3.6927
  309MOL0     H42578   2.348   3.678   6.721 -1.0651 -0.5290 -0.9218
  309MOL0     H42579   2.254   3.793   6.935 -0.4412  0.1606 -1.7265
  309MOL0     H42580   2.286   3.651   7.022  2.7927  2.0559  2.2548
  309MOL0     H42581   2.527   3.659   6.972 -1.8781 -1.9561 -5.4402
  309MOL0     H42582   2.501   3.811   6.887  1.2448 -0.8745 -0.0780
  309MOL0     H42583   2.380   3.792   7.160 -0.3438  0.2593  1.0555
  309MOL0     H42584   2.436   3.932   7.062 -0.5807 -0.8862 -1.5391
  309MOL0     H42585   2.672   3.869   7.101  1.5130 -4.3704 -0.4971
  309MOL0     H42586   2.597   3.895   7.262  0.6907 -2.4375  1.7383
  309MOL0     H42587   2.754   3.712   7.257  1.7779 -1.3553 -3.5609
  309MOL0     H42588   2.661   3.635   7.130  1.9390  2.5599 -0.9591
  309MOL0     H42589   2.546   3.706   7.398 -1.8981  0.8243 -0.7460
  309MOL0     H42590   2.453   3.621   7.285 -0.1152 -4.0016  1.2822
  309MOL0     H42591   2.777   3.548   7.483  1.7666 -1.6210 -0.8525
  309MOL0     H42592   2.774   3.199   7.579 -1.7000  1.7832  0.1486
  309MOL0     H42593   2.874   3.344   7.616 -1.6302  0.8797  0.3551
  309MOL0     H42594   2.921   3.108   7.435  0.6763 -1.5744  3.9202
  309MOL0     H42595   2.947   3.270   7.362 -1.6153  1.6603  0.5386
  309MOL0     H42596   3.105   3.328   7.550 -0.9528 -0.1218  0.4712
  309MOL0     H42597   3.083   3.167   7.622  2.1474  2.2057  1.7188
  309MOL0     H42598   3.195   3.065   7.434 -2.2065  0.4018  2.0702
  309MOL0     H42599   3.184   3.202   7.335 -0.7942  0.2506 -0.0117
  309MOL0     H42600   3.518   3.338   7.576  1.3223 -2.1066  0.7304
  309MOL0     H42601   3.798   3.478   7.435 -0.9690 -0.7901  0.0240
  309MOL0     H42602   3.865   3.335   7.511 -0.6370 -1.6921 -1.1565
  309MOL0     H42603   3.731   3.422   7.591 -1.0206 -2.7414  1.1030
  309MOL0     H42604   3.932   3.431   6.969 -2.6103 -1.2591 -2.2060
  309MOL0     H42605   4.145   3.417   6.849 -1.4157 -0.3968 -0.5911
  309MOL0     H42606   4.301   3.376   6.687 -0.7977  0.7765  1.2225
  309MOL0     H42607   4.383   3.351   6.845  0.2286 -0.6182 -0.0819
  309MOL0     H42608   4.538   3.338   6.655 -1.9778  1.6127  0.6713
  309MOL0     H42609   4.538   3.183   6.731  0.1635 -1.1736 -2.7765
  309MOL0     H42610   4.377   3.271   6.489 -1.4390 -0.2611  1.2254
  309MOL0     H42611   4.383   3.108   6.549  0.5127 -0.8359 -3.2137
  309MOL0     H42612   4.649   3.120   6.489  1.5043  0.9893 -1.9808
  309MOL0     H42613   4.608   3.272   6.417  0.2682 -0.1309  0.1584
  309MOL0     H42614   4.425   3.055   6.332 -0.9087  2.5083  1.2634
  309MOL0     H42615   4.477   3.181   6.236  0.2243 -2.7695 -2.8284
  309MOL0     H42616   4.679   2.972   6.326  2.4309  0.9551 -1.0774
  309MOL0     H42617   4.684   3.086   6.193 -0.6120  4.5720  3.2251
  309MOL0     H42618   4.494   2.931   6.095 -0.7001  0.7018  2.2588
  309MOL0     H42619   4.502   2.828   6.236 -0.2451  0.7106  0.7873
  309MOL0     H42620   4.726   2.873   6.024 -0.1592  1.8730  0.2813
  309MOL0     H42621   4.631   2.731   6.036  0.7742  0.4634 -1.3022
  309MOL0     H42622   4.169   3.005   6.899 -0.1864  0.7323  0.0869
  309MOL0     H42623   3.949   3.012   7.041 -1.6998 -0.5194 -2.1042
  309MOL0     H42624   3.588   3.167   7.118  2.5762  2.8423 -0.7135
  309MOL0     H42625   3.388   3.110   7.251 -0.6918  0.3779  1.8887
  309MOL0     H42626   2.099   3.439   6.424  0.4440  0.9308  1.2307
  309MOL0     H42627   1.870   3.347   6.343 -1.2503  1.0046 -0.3190
  309MOL0     H42628   1.426   3.322   6.447 -0.9589 -0.1812 -1.4182
  309MOL0     H42629   1.194   3.254   6.386 -0.1796  0.1725  1.8022
  309MOL0     H42630   0.904   3.038   6.345  1.7421 -2.1002  3.0991
  309MOL0     H42631   0.987   3.164   6.424 -0.3468  0.9104 -1.4987
  309MOL0     H42632   1.119   3.179   6.185  0.2333  0.2990  0.4215
  309MOL0     H42633   0.974   3.281   6.234 -0.7834 -0.2978  0.8954
  309MOL0     H42634   0.952   3.021   6.081 -1.3053 -0.2107 -1.1279
  309MOL0     H42635   0.825   3.131   6.138  0.2263  0.9695  0.1173
  309MOL0     H42636   0.877   3.157   5.897  0.3258  0.0855 -1.1240
  309MOL0     H42637   1.029   3.242   5.934  0.3142  0.8595  0.3217
  309MOL0     H42638   0.717   3.523   6.041 -0.6725  0.0320  1.8843
  309MOL0     H42639   1.294   2.847   6.418 -0.4764  0.3448  0.0404
  309MOL0     H42640   1.585   2.859   6.579  0.0066  1.9116 -0.8615
  309MOL0     H42641   1.481   2.768   6.458 -3.0482  1.9184 -4.4282
  309MOL0     H42642   1.610   2.875   6.396 -1.5746  0.5836 -1.8609
  310MOL0     O42643  11.285   6.598   3.345 -0.4056  0.0902  0.2865
  310MOL0     C42644  11.206   6.693   3.345  0.2050  0.9655  0.8158
  310MOL0     O42645  11.202   6.802   3.260  0.0974  0.8529  0.4857
  310MOL0     C42646  11.331   6.814   3.206 -0.2556  0.3916 -0.1940
  310MOL0     C42647  11.353   6.760   3.069 -0.4509 -0.1193 -0.4768
  310MOL0     C42648  11.484   6.771   3.020  0.5155  0.2749  0.6756
  310MOL0     C42649  11.588   6.830   3.092  0.3491  0.1404 -0.2078
  310MOL0     O42650  11.718   6.854   3.048 -1.1265 -0.5315  0.2164
  310MOL0     C42651  11.733   6.835   2.901 -0.4381 -0.7229  0.5189
  310MOL0     C42652  11.871   6.871   2.848 -1.0231 -0.6669  0.8125
  310MOL0     C42653  11.968   6.767   2.905 -1.2286  0.0304  0.2009
  310MOL0     C42654  12.091   6.775   2.809  0.2615  0.1689 -0.1372
  310MOL0     C42655  12.197   6.677   2.856  0.1853 -0.0595 -0.1663
  310MOL0     C42656  12.305   6.635   2.759  0.7888 -0.5689  0.0407
  310MOL0     C42657  12.416   6.552   2.820  0.3299  0.0670 -0.7913
  310MOL0     C42658  12.556   6.579   2.754  0.1644 -0.2107 -0.0400
  310MOL0     N42659  12.613   6.705   2.795  0.0391 -0.6147 -0.1946
  310MOL0     C42660  12.596   6.829   2.725 -0.4217  0.1540 -0.2904
  310MOL0     C42661  12.697   6.906   2.764 -0.3418  0.1601 -0.5691
  310MOL0     C42662  12.721   7.054   2.717 -0.6369 -0.6088 -0.4740
  310MOL0     C42663  12.736   7.068   2.572 -0.3804  1.1419 -0.2181
  310MOL0     C42664  12.868   7.025   2.526 -0.9074 -0.1455  0.5731
  310MOL0     C42665  12.991   7.071   2.596 -0.2392 -0.4094 -0.4559
  310MOL0     O42666  12.976   7.216   2.592 -0.0927 -0.2949  0.5613
  310MOL0     C42667  13.085   7.295   2.616  0.5409  0.8672 -0.9774
  310MOL0     C42668  13.205   7.252   2.671  0.9098  0.2368 -0.7543
  310MOL0     C42669  13.301   7.348   2.705  0.8997  0.5922 -0.0670
  310MOL0     C42670  13.424   7.286   2.754 -0.4819 -0.0597  0.6619
  310MOL0     C42671  13.289   7.480   2.666  0.2318 -0.9923 -0.4289
  310MOL0     C42672  13.406   7.565   2.656 -0.7745  0.5893  0.3099
  310MOL0     O42673  13.502   7.560   2.754  0.1716  0.3746 -0.2996
  310MOL0     C42674  13.629   7.607   2.738  0.3605 -0.7545 -0.2992
  310MOL0     C42675  13.701   7.637   2.620 -0.3681 -0.2751 -0.2227
  310MOL0     C42676  13.830   7.693   2.646  0.6671 -0.4958 -0.0286
  310MOL0     C42677  13.893   7.711   2.772 -0.0355  0.8245 -0.5388
  310MOL0     O42678  14.017   7.762   2.769  0.1705  0.1458 -0.6051
  310MOL0     C42679  14.078   7.825   2.890  0.9064  0.4775 -0.4847
  310MOL0     C42680  14.199   7.899   2.845 -0.3903  0.2408  0.5182
  310MOL0     C42681  14.287   7.962   2.959  0.0495 -0.3672  0.4220
  310MOL0     C42682  14.203   8.083   3.025  0.6448 -0.3130  0.0874
  310MOL0     C42683  14.298   8.200   3.068 -0.1411 -0.7505 -0.1618
  310MOL0     C42684  14.224   8.295   3.159  1.2725 -1.3108  0.8694
  310MOL0     C42685  14.304   8.413   3.219 -0.4321  0.4513  0.0064
  310MOL0     C42686  14.226   8.503   3.314  0.3361  0.7996 -0.1005
  310MOL0    Cl42687  14.355   8.624   3.368  0.2348 -0.0370  0.3996
  310MOL0     C42688  13.822   7.663   2.887 -0.0498 -0.6280 -0.9662
  310MOL0     C42689  13.688   7.620   2.870 -1.1140 -0.6682  0.0370
  310MOL0     O42690  13.406   7.649   2.570  0.3945 -0.1250  0.5871
  310MOL0     C42691  13.171   7.514   2.613  0.5753  0.4319 -0.4852
  310MOL0     C42692  13.067   7.431   2.595  0.2614  0.1560  0.3356
  310MOL0     N42693  12.770   6.844   2.854 -0.1403 -0.0187 -0.3544
  310MOL0     N42694  12.714   6.728   2.879 -0.3745  1.1315 -0.3077
  310MOL0     C42695  11.557   6.882   3.214  0.5428 -0.3353 -0.1358
  310MOL0     C42696  11.433   6.870   3.276  0.1104 -0.7800  0.4759
  310MOL0     C42697  11.105   6.683   3.459  0.3998  0.6795  0.9029
  310MOL0     C42698  11.110   6.573   3.556  0.3321 -0.4741  0.0941
  310MOL0     C42699  11.015   6.561   3.658 -0.1901  0.2370 -0.4373
  310MOL0     C42700  10.917   6.662   3.682 -0.9166  0.1006 -0.2759
  310MOL0     O42701  10.823   6.661   3.777 -0.3912 -0.0875 -0.2721
  310MOL0     C42702  10.755   6.535   3.806  0.5081 -0.0281 -1.4210
  310MOL0     C42703  10.656   6.559   3.927  0.2151  0.0508 -0.5877
  310MOL0     C42704  10.541   6.661   3.880 -0.3000 -0.3713 -0.8128
  310MOL0     C42705  10.507   6.765   3.993 -0.2238 -0.0609  1.1734
  310MOL0     C42706  10.460   6.696   4.115 -0.5153 -0.5436  0.6200
  310MOL0     C42707  10.387   6.644   4.202 -1.9627  0.3381  0.6313
  310MOL0     C42708  10.915   6.767   3.595  0.0273 -0.6591  0.3262
  310MOL0     C42709  10.999   6.772   3.477  0.4804 -0.4709  0.2075
  310MOL0     C42710  10.964   6.874   3.368 -0.0951 -0.7164 -0.0056
  310MOL0     H42711  11.279   6.706   3.012  0.5846 -0.9119 -1.0945
  310MOL0     H42712  11.507   6.719   2.927  3.3471  0.1545  1.3493
  310MOL0     H42713  11.663   6.903   2.852  0.8904  0.6154  0.3994
  310MOL0     H42714  11.712   6.729   2.882  1.6018 -1.1386  0.3072
  310MOL0     H42715  11.853   6.860   2.741  0.0517 -1.9322  0.7510
  310MOL0     H42716  11.894   6.975   2.875 -2.3926  0.1509 -0.9135
  310MOL0     H42717  11.994   6.784   3.010  0.2704  2.7270 -0.5043
  310MOL0     H42718  11.931   6.665   2.894 -2.5482  0.3939  0.9450
  310MOL0     H42719  12.061   6.749   2.707  1.6831  1.1879 -0.8545
  310MOL0     H42720  12.133   6.876   2.802  0.8494 -0.1751 -2.0737
  310MOL0     H42721  12.146   6.587   2.891  1.0749 -1.0554 -1.3296
  310MOL0     H42722  12.260   6.717   2.936  0.3151  3.8622 -1.9766
  310MOL0     H42723  12.260   6.569   2.684 -1.2219  0.2547  0.4651
  310MOL0     H42724  12.339   6.729   2.714 -2.4647  1.6588  1.7809
  310MOL0     H42725  12.392   6.446   2.814  2.7936 -0.4606 -2.7188
  310MOL0     H42726  12.427   6.578   2.926  1.6898 -3.4008  0.0446
  310MOL0     H42727  12.624   6.497   2.780 -1.2219 -1.0504  1.0756
  310MOL0     H42728  12.542   6.565   2.646 -0.0030  2.8398 -0.5024
  310MOL0     H42729  12.528   6.847   2.643 -1.6020 -1.0608  0.3724
  310MOL0     H42730  12.807   7.092   2.774 -1.3776 -1.6912  1.4642
  310MOL0     H42731  12.623   7.093   2.749 -2.7605 -3.6125 -2.7959
  310MOL0     H42732  12.661   7.022   2.507  0.6523  0.5558 -1.0203
  310MOL0     H42733  12.727   7.172   2.538 -1.1352  0.5961 -1.8047
  310MOL0     H42734  12.873   6.915   2.533  3.6233 -0.0825  2.0491
  310MOL0     H42735  12.877   7.058   2.422 -0.9308  0.4973  0.7744
  310MOL0     H42736  13.002   7.042   2.701 -1.5670  0.3835 -0.0720
  310MOL0     H42737  13.076   7.047   2.533 -2.1384 -3.0710 -2.2138
  310MOL0     H42738  13.215   7.144   2.683 -0.1606  0.1140 -0.8314
  310MOL0     H42739  13.489   7.272   2.667 -0.8723  0.9132  0.2022
  310MOL0     H42740  13.410   7.189   2.802  0.5879 -0.1991  0.7178
  310MOL0     H42741  13.475   7.346   2.830  1.4908 -2.9337  1.7969
  310MOL0     H42742  13.659   7.625   2.521 -1.8450 -1.7389  0.5316
  310MOL0     H42743  13.878   7.724   2.553 -2.5902 -2.2294 -2.5025
  310MOL0     H42744  14.004   7.894   2.932 -0.3384 -1.1205  0.0880
  310MOL0     H42745  14.109   7.758   2.971 -0.1122  1.3044  0.6355
  310MOL0     H42746  14.263   7.829   2.791  0.3069 -0.4447  2.1855
  310MOL0     H42747  14.177   7.980   2.775 -1.7286 -0.2792  0.2969
  310MOL0     H42748  14.387   7.995   2.930  2.2037 -3.5686  3.3549
  310MOL0     H42749  14.305   7.882   3.032  2.4615  0.0973  0.4198
  310MOL0     H42750  14.154   8.046   3.116  0.2334  0.0365  0.0085
  310MOL0     H42751  14.117   8.110   2.963 -1.1071 -3.5330  0.8655
  310MOL0     H42752  14.375   8.149   3.126  0.7556 -1.1457 -1.6481
  310MOL0     H42753  14.334   8.254   2.980 -1.5232 -0.2156 -0.4250
  310MOL0     H42754  14.187   8.233   3.242 -1.5554 -0.0029  0.7001
  310MOL0     H42755  14.136   8.340   3.114  1.7881  0.3939  1.5092
  310MOL0     H42756  14.345   8.483   3.145 -0.9649  1.2014  0.4116
  310MOL0     H42757  14.388   8.374   3.276 -0.9236 -0.1884  0.3026
  310MOL0     H42758  14.196   8.445   3.401  2.8589  1.8588  1.5955
  310MOL0     H42759  14.138   8.541   3.261 -1.3438 -3.2693 -0.5435
  310MOL0     H42760  13.867   7.664   2.985 -4.1487 -2.6479  1.1725
  310MOL0     H42761  13.630   7.584   2.954 -1.9101 -4.7278 -1.9589
  310MOL0     H42762  13.147   7.616   2.583 -0.9072  0.4405  0.6421
  310MOL0     H42763  12.979   7.463   2.541 -0.6801 -2.5429  0.0841
  310MOL0     H42764  11.638   6.923   3.274  1.8449 -0.4390 -1.7510
  310MOL0     H42765  11.411   6.902   3.377 -0.8667 -1.2078  0.4095
  310MOL0     H42766  11.191   6.502   3.548  2.0430  1.5330 -1.6970
  310MOL0     H42767  11.015   6.480   3.731 -0.0261 -0.4802 -1.2265
  310MOL0     H42768  10.711   6.491   3.716 -0.8312 -2.8485  0.4464
  310MOL0     H42769  10.819   6.453   3.839  1.4225 -0.1029 -3.2767
  310MOL0     H42770  10.714   6.591   4.014  1.2821 -0.0507 -1.2556
  310MOL0     H42771  10.608   6.466   3.961  1.7486 -0.9364 -1.0495
  310MOL0     H42772  10.578   6.712   3.791  1.8493  0.6426  0.5736
  310MOL0     H42773  10.454   6.604   3.845 -0.2312 -0.7226 -0.4203
  310MOL0     H42774  10.430   6.830   3.952  0.8349  0.4702 -0.0598
  310MOL0     H42775  10.596   6.820   4.025  0.2968 -0.2032  0.0235
  310MOL0     H42776  10.322   6.602   4.276 -0.6862 -1.9321  0.5492
  310MOL0     H42777  10.834   6.840   3.595  0.2393 -0.3382 -1.9067
  310MOL0     H42778  11.043   6.950   3.368  1.2885 -2.0966  0.0093
  310MOL0     H42779  10.947   6.828   3.270  1.9364  0.4848 -1.0022
  310MOL0     H42780  10.873   6.932   3.388  0.9881  1.5089 -1.1388
  311MOL0     O42781   8.740   3.858   5.226  0.1386 -0.4578 -0.0301
  311MOL0     C42782   8.637   3.793   5.240  0.1841  0.6449  0.0731
  311MOL0     O42783   8.513   3.843   5.227 -0.5007  0.3294  0.9099
  311MOL0     C42784   8.512   3.975   5.169 -0.1785  0.2339  0.7632
  311MOL0     C42785   8.530   3.999   5.030  0.3979  0.0641  0.1197
  311MOL0     C42786   8.524   4.126   4.980  0.3459  1.1136  0.1029
  311MOL0     C42787   8.482   4.228   5.070 -0.3458  0.5750  0.5212
  311MOL0     O42788   8.469   4.347   5.019 -0.1472 -0.0822  0.0270
  311MOL0     C42789   8.343   4.416   5.049 -0.6963 -0.9770  0.1171
  311MOL0     C42790   8.380   4.568   5.056 -0.4462  0.5462  0.2793
  311MOL0     C42791   8.365   4.637   4.918 -0.2713  0.2593 -0.6138
  311MOL0     C42792   8.400   4.787   4.937 -0.5864  1.1503 -0.1966
  311MOL0     C42793   8.403   4.859   4.800 -0.8133 -0.7375 -1.0818
  311MOL0     C42794   8.261   4.858   4.748 -0.4106  0.0480 -0.2064
  311MOL0     C42795   8.226   4.968   4.646 -0.5023  0.1580  0.7716
  311MOL0     C42796   8.081   4.961   4.604  0.0812 -0.2126 -0.0776
  311MOL0     N42797   8.055   5.069   4.506  0.7654 -0.1192 -0.6618
  311MOL0     C42798   8.045   5.207   4.535 -0.0291 -0.1375 -0.8028
  311MOL0     C42799   8.004   5.263   4.425  0.0547  0.1003 -0.3758
  311MOL0     C42800   7.957   5.402   4.406 -1.0210 -0.7277  0.2694
  311MOL0     C42801   7.958   5.447   4.258 -1.1887  0.4040 -0.5087
  311MOL0     C42802   8.093   5.479   4.194  0.0384 -0.5309  0.2516
  311MOL0     C42803   8.111   5.530   4.049 -0.6245  0.3318  0.2256
  311MOL0     O42804   8.039   5.453   3.956  1.0857  0.6735 -0.2558
  311MOL0     C42805   8.040   5.483   3.819  0.0736 -0.4778  0.9579
  311MOL0     C42806   7.943   5.412   3.745 -0.1261 -0.3353 -0.1216
  311MOL0     C42807   7.939   5.421   3.607 -0.3214  0.4208 -0.0056
  311MOL0     C42808   7.825   5.351   3.534 -0.7869 -0.4018  0.2784
  311MOL0     C42809   8.029   5.509   3.544  0.7867 -0.0689 -0.2851
  311MOL0     C42810   8.043   5.522   3.405  0.0434  0.3057  0.5518
  311MOL0     O42811   8.075   5.640   3.356 -1.6586 -0.2887  0.2158
  311MOL0     C42812   8.057   5.667   3.221  0.3753  0.0233  0.7995
  311MOL0     C42813   7.963   5.615   3.136 -0.4333 -0.2615 -0.3120
  311MOL0     C42814   7.958   5.650   3.001 -0.1179 -0.4762  0.2092
  311MOL0     C42815   8.046   5.750   2.951  0.2017 -0.3210 -0.0430
  311MOL0     O42816   8.048   5.776   2.814 -0.1826  0.4008 -1.2400
  311MOL0     C42817   8.073   5.912   2.772 -0.5683  0.6354 -0.2916
  311MOL0     C42818   8.037   5.916   2.626 -0.7081  0.4061 -0.3192
  311MOL0     C42819   8.071   6.048   2.570  0.3564  0.7692  0.4062
  311MOL0     C42820   8.069   6.042   2.416  0.4163 -0.2017  0.3996
  311MOL0     C42821   8.161   6.141   2.339 -0.0531  0.3014 -0.7448
  311MOL0     C42822   8.130   6.286   2.377  0.1057 -1.7204  0.1624
  311MOL0     C42823   8.237   6.382   2.337  0.4418  1.1121  0.6461
  311MOL0     C42824   8.182   6.525   2.329 -0.1944 -0.4812  0.1300
  311MOL0    Cl42825   8.314   6.640   2.258  0.3242  0.8407 -0.2908
  311MOL0     C42826   8.130   5.810   3.033  0.0501  0.5499 -0.5404
  311MOL0     C42827   8.140   5.762   3.162  1.0415  0.4486  0.1323
  311MOL0     O42828   8.032   5.421   3.340  0.3658  0.6568 -0.4213
  311MOL0     C42829   8.124   5.580   3.619 -1.0194 -0.1111  0.9561
  311MOL0     C42830   8.141   5.566   3.756  0.3604  0.4539  0.3060
  311MOL0     N42831   7.996   5.163   4.331  0.6003  0.2776  0.4808
  311MOL0     N42832   8.039   5.051   4.373 -0.6965 -1.4762 -0.0904
  311MOL0     C42833   8.461   4.202   5.209 -0.1291  0.1342  0.5365
  311MOL0     C42834   8.486   4.073   5.258 -0.5953 -0.2286 -0.1541
  311MOL0     C42835   8.659   3.651   5.272 -1.1727  0.2210  0.8426
  311MOL0     C42836   8.579   3.596   5.368  0.2124 -0.1277  0.0222
  311MOL0     C42837   8.600   3.471   5.435  0.2896  0.3470 -0.3695
  311MOL0     C42838   8.701   3.387   5.391 -0.5902  0.2534 -0.3591
  311MOL0     O42839   8.717   3.257   5.450 -0.3745  0.0288 -0.4658
  311MOL0     C42840   8.815   3.178   5.399 -0.6540  0.1102 -0.1555
  311MOL0     C42841   8.812   3.035   5.446  0.0698 -0.5851  1.0074
  311MOL0     C42842   8.681   2.977   5.408  0.0669 -0.1488 -0.0364
  311MOL0     C42843   8.688   2.828   5.376  0.2633  0.7259  0.5254
  311MOL0     C42844   8.721   2.804   5.232 -0.2712  0.3382 -1.4615
  311MOL0     C42845   8.767   2.797   5.118 -0.4014  0.1895 -0.5971
  311MOL0     C42846   8.798   3.445   5.301  1.0345  0.4644  0.5973
  311MOL0     C42847   8.778   3.573   5.241  1.4860  0.2299 -0.3614
  311MOL0     C42848   8.884   3.627   5.140 -0.4047  0.4894  0.3993
  311MOL0     H42849   8.541   3.927   4.950  1.6277  1.8495 -1.3863
  311MOL0     H42850   8.541   4.148   4.875  0.4128 -0.6480 -0.2822
  311MOL0     H42851   8.296   4.377   5.140 -1.0859 -1.5662 -0.3351
  311MOL0     H42852   8.272   4.400   4.968  0.5658  0.9206 -1.4587
  311MOL0     H42853   8.322   4.625   5.129  0.3237  2.0137 -0.2075
  311MOL0     H42854   8.487   4.561   5.076 -0.3775  0.4594 -0.1102
  311MOL0     H42855   8.435   4.597   4.844 -0.4997  1.1143 -1.3166
  311MOL0     H42856   8.262   4.621   4.886 -1.3901  1.4207  2.0977
  311MOL0     H42857   8.342   4.836   5.016 -3.2427 -2.2507  0.1984
  311MOL0     H42858   8.500   4.793   4.982  0.5611 -2.7767 -1.7492
  311MOL0     H42859   8.464   4.796   4.735 -0.2231  0.1223 -1.3811
  311MOL0     H42860   8.446   4.960   4.799  2.9774 -2.1862 -2.0628
  311MOL0     H42861   8.248   4.761   4.699  1.1747  0.0839 -0.7716
  311MOL0     H42862   8.192   4.859   4.832  1.2030 -2.3887  1.2996
  311MOL0     H42863   8.293   4.959   4.560 -1.5734 -0.2923 -0.0413
  311MOL0     H42864   8.255   5.070   4.673 -0.9795  1.3530 -2.6845
  311MOL0     H42865   8.058   4.870   4.549  0.3896 -2.0155  2.5843
  311MOL0     H42866   8.018   4.968   4.693  1.5306  2.2236  0.8753
  311MOL0     H42867   8.067   5.258   4.629  1.3140  0.1606 -1.2569
  311MOL0     H42868   8.015   5.476   4.462 -1.0706 -0.8617  0.5007
  311MOL0     H42869   7.854   5.415   4.440 -0.6552 -0.5551  1.3670
  311MOL0     H42870   7.909   5.370   4.198  0.2615 -0.8615 -0.1448
  311MOL0     H42871   7.891   5.533   4.259 -0.2003  1.7562  6.7708
  311MOL0     H42872   8.146   5.561   4.244  1.2520  1.0943 -3.3830
  311MOL0     H42873   8.158   5.392   4.203  0.7918 -0.0240 -0.2303
  311MOL0     H42874   8.079   5.633   4.029  0.4233  0.1849 -2.8055
  311MOL0     H42875   8.217   5.514   4.028 -0.9104 -2.4721  0.4610
  311MOL0     H42876   7.875   5.349   3.802  2.7998 -2.9411  0.7561
  311MOL0     H42877   7.849   5.246   3.518  1.2380 -0.5647  3.5203
  311MOL0     H42878   7.816   5.395   3.435  2.3240 -0.4504 -0.1506
  311MOL0     H42879   7.730   5.349   3.588 -0.7899  1.6093  0.4331
  311MOL0     H42880   7.892   5.543   3.175 -0.0242  0.3453  1.6806
  311MOL0     H42881   7.895   5.601   2.927 -2.3098  2.1061  0.2001
  311MOL0     H42882   8.008   5.979   2.830  1.4191  0.4172  2.3511
  311MOL0     H42883   8.179   5.934   2.784  0.4938 -2.6862 -2.2525
  311MOL0     H42884   8.089   5.834   2.574 -0.8733  0.4722 -0.5948
  311MOL0     H42885   7.931   5.890   2.631 -0.7132  0.5834  3.9607
  311MOL0     H42886   8.167   6.082   2.609  0.3563 -0.2869  1.3901
  311MOL0     H42887   7.993   6.115   2.609 -2.8594 -2.9980  1.0633
  311MOL0     H42888   7.964   6.054   2.389  0.4077 -1.2649 -0.0820
  311MOL0     H42889   8.087   5.948   2.363 -0.4117 -0.4985  0.6388
  311MOL0     H42890   8.265   6.124   2.372 -0.3020 -0.2655 -0.2253
  311MOL0     H42891   8.146   6.125   2.232 -4.4489  0.4973 -0.3048
  311MOL0     H42892   8.100   6.299   2.482 -1.7058  1.6984 -0.6492
  311MOL0     H42893   8.034   6.299   2.326  1.1021 -0.1964 -1.4190
  311MOL0     H42894   8.266   6.358   2.234  0.4008  0.2303  0.8326
  311MOL0     H42895   8.323   6.363   2.402 -0.9007 -1.6112  1.7974
  311MOL0     H42896   8.145   6.559   2.426 -0.6359 -3.3591  1.0519
  311MOL0     H42897   8.095   6.533   2.263 -0.7930 -1.0071  0.8449
  311MOL0     H42898   8.203   5.887   3.010  1.1880 -0.2078  0.3560
  311MOL0     H42899   8.227   5.795   3.218  1.7869  0.3191 -0.9040
  311MOL0     H42900   8.196   5.643   3.568 -1.0866  1.7097  2.9502
  311MOL0     H42901   8.216   5.617   3.817 -0.9379  1.0980  1.4300
  311MOL0     H42902   8.434   4.279   5.281  1.2519  0.5923  0.5940
  311MOL0     H42903   8.465   4.051   5.362  3.8748 -1.5916  0.6821
  311MOL0     H42904   8.491   3.657   5.389 -1.6722 -2.7484  0.2399
  311MOL0     H42905   8.521   3.439   5.501  0.2599 -0.1212 -0.6300
  311MOL0     H42906   8.810   3.169   5.290 -0.0272  2.2332 -0.3997
  311MOL0     H42907   8.913   3.224   5.412  0.3531 -1.4287 -1.7298
  311MOL0     H42908   8.826   3.042   5.554 -1.5671  3.4995  1.1343
  311MOL0     H42909   8.892   2.982   5.394 -0.1080 -0.3650  0.5031
  311MOL0     H42910   8.617   2.974   5.497 -2.0216  0.5791 -1.4385
  311MOL0     H42911   8.635   3.036   5.328 -0.6741 -0.0983  0.4131
  311MOL0     H42912   8.595   2.773   5.389  0.4429 -0.1525 -1.5440
  311MOL0     H42913   8.767   2.779   5.434 -1.5253 -0.8840  1.7091
  311MOL0     H42914   8.794   2.793   5.015  0.9961 -0.7254 -0.2178
  311MOL0     H42915   8.882   3.381   5.277  1.6135  1.8745 -1.3499
  311MOL0     H42916   8.853   3.678   5.048 -0.3882  0.3264  0.3037
  311MOL0     H42917   8.951   3.697   5.192  2.6057 -0.5817 -1.7554
  311MOL0     H42918   8.936   3.535   5.116 -0.9618  0.7226 -1.8827
  312MOL0     O42919   9.939   8.070   8.808 -0.3126 -0.0273 -0.8858
  312MOL0     C42920   9.863   8.163   8.832 -0.4299  0.0023 -0.5453
  312MOL0     O42921   9.790   8.226   8.739  0.1000 -0.1191 -0.2746
  312MOL0     C42922   9.835   8.218   8.613 -0.3155 -1.1268 -0.8906
  312MOL0     C42923   9.935   8.311   8.592 -0.1801 -0.2700 -0.6200
  312MOL0     C42924  10.002   8.319   8.468  0.1909  0.3858 -0.3208
  312MOL0     C42925   9.957   8.226   8.372 -0.4135 -0.7119 -0.3996
  312MOL0     O42926  10.010   8.219   8.239  0.3652 -1.0904 -0.2806
  312MOL0     C42927  10.132   8.293   8.215 -0.1315  0.2519  0.6619
  312MOL0     C42928  10.204   8.227   8.096  0.4109  0.2048 -0.0017
  312MOL0     C42929  10.116   8.146   7.994  0.1397 -0.0095 -0.1807
  312MOL0     C42930  10.027   8.247   7.901  0.0028 -0.1569 -0.4298
  312MOL0     C42931   9.999   8.178   7.767  0.2671  0.6505  0.5893
  312MOL0     C42932   9.923   8.044   7.783 -0.4002  0.7129  0.0496
  312MOL0     C42933   9.867   8.003   7.642  1.3382 -0.7864 -0.0434
  312MOL0     C42934   9.815   7.861   7.644 -0.1404  0.0245 -0.1504
  312MOL0     N42935   9.757   7.822   7.518 -0.2574 -0.7830  0.4741
  312MOL0     C42936   9.649   7.743   7.502  0.0511 -0.4828 -0.2543
  312MOL0     C42937   9.647   7.721   7.364 -0.1530  0.1139  0.3353
  312MOL0     C42938   9.560   7.623   7.282 -0.3634 -0.7330 -0.1834
  312MOL0     C42939   9.425   7.683   7.253  0.2877  0.1496 -0.1335
  312MOL0     C42940   9.328   7.574   7.215  0.5503  0.1166  0.3417
  312MOL0     C42941   9.242   7.533   7.336  0.4340 -0.9628 -0.1652
  312MOL0     O42942   9.122   7.453   7.310 -0.2222  0.4640  0.0617
  312MOL0     C42943   9.129   7.328   7.247  0.1144  0.1794 -0.2019
  312MOL0     C42944   9.234   7.243   7.266  0.4071 -0.3383  0.2169
  312MOL0     C42945   9.241   7.114   7.202  0.8778  0.2252 -0.5716
  312MOL0     C42946   9.369   7.026   7.243 -0.0328  0.2743  1.1872
  312MOL0     C42947   9.129   7.071   7.129 -0.2543 -0.8019  0.2637
  312MOL0     C42948   9.119   6.935   7.067 -0.7901  0.1221  0.1645
  312MOL0     O42949   9.018   6.913   6.981  0.0044 -0.5500 -0.4073
  312MOL0     C42950   9.014   6.793   6.909  0.1888 -0.1520  0.1272
  312MOL0     C42951   9.034   6.664   6.962  0.8737  0.2918 -0.2273
  312MOL0     C42952   9.002   6.546   6.896  0.5517  0.7095 -0.2565
  312MOL0     C42953   8.949   6.557   6.768  0.2044  0.5175  0.2052
  312MOL0     O42954   8.891   6.452   6.696  0.3515  0.4162  0.1983
  312MOL0     C42955   8.929   6.315   6.739  0.4918  0.0599 -0.7716
  312MOL0     C42956   8.827   6.229   6.661 -0.3663 -0.7946  0.2534
  312MOL0     C42957   8.850   6.231   6.505  0.3180  0.1657  0.0809
  312MOL0     C42958   8.992   6.196   6.466  0.0771  1.0325 -0.0890
  312MOL0     C42959   9.022   6.049   6.493  0.2868  0.5293  0.5873
  312MOL0     C42960   9.164   5.999   6.433  0.0748  0.0955  0.4656
  312MOL0     C42961   9.265   6.029   6.545 -0.2265 -0.3272  0.5349
  312MOL0     C42962   9.400   5.966   6.517 -0.0907 -0.0511  0.4554
  312MOL0    Cl42963   9.473   6.016   6.364  0.1357 -0.0820  0.0700
  312MOL0     C42964   8.933   6.684   6.709  0.8050  0.5203  0.0253
  312MOL0     C42965   8.971   6.800   6.775  0.4726  0.5103 -0.0186
  312MOL0     O42966   9.197   6.847   7.103  0.3851  1.0185 -0.3282
  312MOL0     C42967   9.022   7.158   7.115  0.6376  0.1643  0.5260
  312MOL0     C42968   9.016   7.282   7.171 -0.9862 -0.3872 -0.1579
  312MOL0     N42969   9.745   7.809   7.306  0.5045  0.3499  0.4233
  312MOL0     N42970   9.807   7.871   7.399 -0.4478  0.1985  0.1488
  312MOL0     C42971   9.854   8.135   8.400 -0.6206 -1.3256  0.0791
  312MOL0     C42972   9.788   8.128   8.524  0.4605  0.8756  0.7277
  312MOL0     C42973   9.852   8.215   8.974  0.0746 -0.8237  0.6332
  312MOL0     C42974   9.727   8.232   9.038  0.1258  0.1665  1.0888
  312MOL0     C42975   9.718   8.279   9.169  0.1532 -0.4906  0.2809
  312MOL0     C42976   9.836   8.295   9.248  0.5200  0.5471  0.1157
  312MOL0     O42977   9.824   8.340   9.375  0.8291 -0.6824  0.1464
  312MOL0     C42978   9.913   8.323   9.481  0.1843 -0.0291  0.7021
  312MOL0     C42979   9.875   8.439   9.574  0.4192  0.1614  0.5723
  312MOL0     C42980   9.952   8.446   9.707 -0.4983 -0.0523  0.6064
  312MOL0     C42981  10.101   8.475   9.689 -1.4124 -0.2503 -0.3545
  312MOL0     C42982  10.183   8.490   9.816 -0.4877 -0.2083 -0.4930
  312MOL0     C42983  10.242   8.487   9.915  0.4323 -0.0730 -0.2551
  312MOL0     C42984   9.958   8.267   9.184 -0.3038  0.5294 -1.0577
  312MOL0     C42985   9.971   8.235   9.052 -0.1419 -0.1624 -0.7062
  312MOL0     C42986  10.113   8.226   9.013  0.4504  0.1113 -0.2483
  312MOL0     H42987   9.956   8.388   8.665 -3.2661 -1.3028  1.5650
  312MOL0     H42988  10.075   8.395   8.444  4.6124 -3.6267 -0.9647
  312MOL0     H42989  10.193   8.316   8.303 -1.9576  1.8541  1.5784
  312MOL0     H42990  10.100   8.390   8.174 -0.1905  0.9181  2.2396
  312MOL0     H42991  10.263   8.294   8.033 -0.7821 -2.1830 -4.0647
  312MOL0     H42992  10.280   8.162   8.141 -0.4190 -2.3206 -2.0056
  312MOL0     H42993  10.188   8.092   7.933 -1.6190 -1.5738 -0.9690
  312MOL0     H42994  10.060   8.068   8.045  0.7312  0.5902  1.4525
  312MOL0     H42995   9.930   8.266   7.947  0.3653 -0.8919  0.6764
  312MOL0     H42996  10.074   8.344   7.888  0.6483 -0.4100 -0.0348
  312MOL0     H42997  10.097   8.168   7.718 -0.9317  0.2530 -1.8640
  312MOL0     H42998   9.944   8.251   7.707 -0.8204 -1.1652 -0.7095
  312MOL0     H42999   9.981   7.954   7.807 -0.2649  1.0197  0.9020
  312MOL0     H43000   9.843   8.037   7.857  2.9687 -1.4722  3.9264
  312MOL0     H43001   9.940   8.034   7.567  0.9201  3.7827  1.1171
  312MOL0     H43002   9.781   8.069   7.632  0.1836 -1.9573  1.5644
  312MOL0     H43003   9.898   7.797   7.673 -0.0496  1.0893  2.1242
  312MOL0     H43004   9.748   7.857   7.730 -2.2661 -2.9869 -1.7409
  312MOL0     H43005   9.579   7.701   7.573 -3.2291  2.9221 -1.1823
  312MOL0     H43006   9.554   7.531   7.342 -1.1037 -0.2937  0.4414
  312MOL0     H43007   9.603   7.600   7.184  0.3899  0.7670 -0.2195
  312MOL0     H43008   9.390   7.726   7.347 -0.4445 -2.1594  0.7137
  312MOL0     H43009   9.444   7.764   7.181  0.2304  4.5190  4.1899
  312MOL0     H43010   9.259   7.606   7.137  3.5912 -1.9552 -3.5687
  312MOL0     H43011   9.374   7.491   7.162  1.5141  0.8621 -0.0242
  312MOL0     H43012   9.315   7.480   7.398  1.6395  0.5703 -0.2109
  312MOL0     H43013   9.211   7.627   7.382  0.3127 -0.0722 -1.9734
  312MOL0     H43014   9.325   7.259   7.322 -0.2876  1.0720  0.9997
  312MOL0     H43015   9.419   6.980   7.158 -2.3544 -1.4995  0.6747
  312MOL0     H43016   9.335   6.944   7.307 -0.6037  0.8396  1.6339
  312MOL0     H43017   9.442   7.084   7.300  0.0756  1.1079  0.2255
  312MOL0     H43018   9.047   6.656   7.069  2.1100  3.2599 -0.0560
  312MOL0     H43019   8.992   6.456   6.955  1.6077 -1.0300 -2.5954
  312MOL0     H43020   9.032   6.283   6.724  0.1647 -2.9811  2.2351
  312MOL0     H43021   8.905   6.310   6.846  0.5836  4.1480 -0.3983
  312MOL0     H43022   8.846   6.128   6.698  2.1313 -1.9051 -3.4312
  312MOL0     H43023   8.724   6.256   6.686 -1.0650 -2.5563 -0.5703
  312MOL0     H43024   8.830   6.332   6.467 -0.0251 -1.0577 -3.4078
  312MOL0     H43025   8.784   6.162   6.451  1.9621 -0.7126 -0.8773
  312MOL0     H43026   9.062   6.262   6.517  2.1379 -1.4010  0.4141
  312MOL0     H43027   9.006   6.222   6.361 -3.0315  1.0997 -0.5771
  312MOL0     H43028   9.027   6.020   6.598 -1.8641 -3.7315 -0.2965
  312MOL0     H43029   8.951   5.982   6.445  1.9913 -2.8158  2.3925
  312MOL0     H43030   9.191   6.052   6.341 -1.1458 -2.5949 -1.5867
  312MOL0     H43031   9.152   5.893   6.409 -0.0896  0.0175  0.8903
  312MOL0     H43032   9.237   5.996   6.646  2.4662  1.2135  1.9111
  312MOL0     H43033   9.277   6.138   6.556 -1.7002 -0.3158  3.1273
  312MOL0     H43034   9.385   5.858   6.510  0.0054  0.0682 -2.5294
  312MOL0     H43035   9.471   5.994   6.596 -0.4865 -0.9276  1.1369
  312MOL0     H43036   8.881   6.683   6.614  0.1701  2.7917  0.2997
  312MOL0     H43037   8.950   6.903   6.745 -0.6712  0.5936  0.9909
  312MOL0     H43038   8.941   7.113   7.059  0.2115  1.1372  0.3404
  312MOL0     H43039   8.932   7.351   7.166  0.2609  1.4163  1.8812
  312MOL0     H43040   9.820   8.064   8.325 -0.8822  0.1247 -1.2278
  312MOL0     H43041   9.716   8.049   8.541 -1.4039  2.9112  3.0744
  312MOL0     H43042   9.637   8.211   8.982  1.5641  0.0050 -1.2996
  312MOL0     H43043   9.619   8.309   9.201  0.9772  3.5403 -0.3583
  312MOL0     H43044   9.894   8.226   9.528 -0.5740  0.8558  2.2714
  312MOL0     H43045  10.018   8.330   9.449  0.6938 -1.6453  1.9049
  312MOL0     H43046   9.769   8.427   9.595 -0.9439  3.0310 -3.4248
  312MOL0     H43047   9.886   8.526   9.508 -0.3918  0.8222  1.2899
  312MOL0     H43048   9.911   8.518   9.779  0.7955 -0.6709  2.0268
  312MOL0     H43049   9.947   8.352   9.763  2.1889  1.0390  2.9284
  312MOL0     H43050  10.108   8.574   9.641 -0.4630 -1.4764 -2.9339
  312MOL0     H43051  10.150   8.402   9.624  1.8546 -0.1995  1.7955
  312MOL0     H43052  10.293   8.492  10.009  0.9245 -2.1068 -0.3703
  312MOL0     H43053  10.053   8.289   9.232 -1.1043 -1.5954  1.7807
  312MOL0     H43054  10.122   8.212   8.905  2.2964 -0.3446 -0.0759
  312MOL0     H43055  10.166   8.314   9.052 -0.2395  1.1909 -1.6546
  312MOL0     H43056  10.156   8.143   9.068 -2.9340 -1.4420  0.2808
  313MOL0     O43057   9.925   0.036   4.572 -0.6611 -0.6038 -0.3757
  313MOL0     C43058   9.925   0.097   4.677  0.4254 -0.0055 -0.3530
  313MOL0     O43059  10.027   0.114   4.754 -0.6353 -0.5655 -0.2006
  313MOL0     C43060  10.153   0.064   4.719 -0.3075  0.1264  0.1177
  313MOL0     C43061  10.205   0.091   4.592 -0.3553  0.0563 -0.3038
  313MOL0     C43062  10.339   0.046   4.563  0.1907 -0.3627 -0.1781
  313MOL0     C43063  10.423  -0.006   4.662  0.8041 -0.6135  0.2674
  313MOL0     O43064  10.550  -0.043   4.620 -0.5852  0.2248 -0.1099
  313MOL0     C43065  10.660   0.010   4.696 -0.8256 -0.1335 -0.3001
  313MOL0     C43066  10.739  -0.097   4.769 -0.5109  0.4496  0.0324
  313MOL0     C43067  10.871  -0.050   4.843 -0.1624 -0.4413  0.5884
  313MOL0     C43068  10.960  -0.169   4.867 -0.8181  1.1534  0.2174
  313MOL0     C43069  11.046  -0.174   4.986  0.3513  0.1254  0.0095
  313MOL0     C43070  11.153  -0.068   4.964 -1.5047  0.3414  1.1865
  313MOL0     C43071  11.265  -0.104   5.063 -0.0238  0.0881  0.2041
  313MOL0     C43072  11.396  -0.033   5.042  0.1089  0.0219  0.1670
  313MOL0     N43073  11.499  -0.116   5.098  0.1742 -0.4999 -0.1836
  313MOL0     C43074  11.552  -0.119   5.219  0.3973 -0.2426 -0.4166
  313MOL0     C43075  11.643  -0.221   5.221 -0.0593 -0.3124 -0.1783
  313MOL0     C43076  11.713  -0.270   5.344 -0.6803 -0.6007 -0.2688
  313MOL0     C43077  11.864  -0.240   5.338  1.0945  0.6480 -0.3419
  313MOL0     C43078  11.888  -0.096   5.360  0.3082 -1.6772  0.1629
  313MOL0     C43079  12.028  -0.061   5.307  0.1939 -0.3511  0.1261
  313MOL0     O43080  12.114  -0.136   5.394 -0.3536  0.3949  0.1268
  313MOL0     C43081  12.253  -0.118   5.401  0.3042 -0.1544 -0.4885
  313MOL0     C43082  12.315  -0.200   5.495  0.8039 -0.8584  0.5662
  313MOL0     C43083  12.454  -0.205   5.506 -0.2309  0.0917 -0.4418
  313MOL0     C43084  12.506  -0.311   5.597  0.5276 -0.1562  0.2224
  313MOL0     C43085  12.534  -0.129   5.426 -0.0759 -0.2591  0.4447
  313MOL0     C43086  12.678  -0.125   5.403 -0.8221 -1.1663 -0.5088
  313MOL0     O43087  12.751  -0.101   5.513 -0.5990 -0.1173  0.5895
  313MOL0     C43088  12.887  -0.131   5.508  0.4352 -0.1816 -0.7020
  313MOL0     C43089  12.988  -0.033   5.531  0.3805  0.6078 -0.5932
  313MOL0     C43090  13.124  -0.066   5.554 -0.4102 -0.5828 -0.1326
  313MOL0     C43091  13.163  -0.198   5.534  0.3289  0.0328  0.3803
  313MOL0     O43092  13.287  -0.249   5.560  0.4740 -0.9417 -0.3358
  313MOL0     C43093  13.355  -0.172   5.657  0.8871  0.0470 -0.0496
  313MOL0     C43094  13.472  -0.247   5.725  0.1818  0.6282  0.2785
  313MOL0     C43095  13.583  -0.264   5.624 -0.3696  0.6196  0.1368
  313MOL0     C43096  13.700  -0.328   5.704 -1.2625  0.2582  0.2314
  313MOL0     C43097  13.814  -0.388   5.623 -0.2228  0.0546  0.0974
  313MOL0     C43098  13.909  -0.279   5.559  0.9845  0.2338 -1.3840
  313MOL0     C43099  14.037  -0.352   5.508 -0.9356  0.6449 -0.6054
  313MOL0     C43100  14.152  -0.247   5.486 -0.6598  1.0464 -0.2607
  313MOL0    Cl43101  14.179  -0.134   5.622  0.0388  0.1800 -0.1709
  313MOL0     C43102  13.072  -0.289   5.480  0.0669  0.3823  0.5093
  313MOL0     C43103  12.935  -0.258   5.480  0.5054  0.7335 -0.1069
  313MOL0     O43104  12.723  -0.151   5.295  0.0232 -0.7842  0.2444
  313MOL0     C43105  12.467  -0.036   5.338 -0.4339  0.7353  0.2275
  313MOL0     C43106  12.330  -0.028   5.328 -1.1145  0.4342  1.0820
  313MOL0     N43107  11.639  -0.283   5.097  0.1512 -0.7691 -0.3964
  313MOL0     N43108  11.557  -0.216   5.026 -0.0980  0.4680 -0.4830
  313MOL0     C43109  10.368  -0.024   4.791  0.3673  0.8973  0.3010
  313MOL0     C43110  10.241   0.008   4.817  0.9900  0.2403  0.9388
  313MOL0     C43111   9.794   0.157   4.718 -0.0035 -0.7828 -0.3104
  313MOL0     C43112   9.758   0.170   4.855 -0.8960  0.2555  1.0542
  313MOL0     C43113   9.636   0.220   4.901 -0.2293  0.6107 -0.6681
  313MOL0     C43114   9.540   0.258   4.809 -0.3808 -0.2334 -1.2725
  313MOL0     O43115   9.429   0.307   4.869  0.0039 -0.0682  0.2860
  313MOL0     C43116   9.402   0.447   4.850  0.0514  0.3089 -0.7480
  313MOL0     C43117   9.279   0.452   4.759 -0.8789 -0.6091 -0.5930
  313MOL0     C43118   9.280   0.584   4.665 -0.6893  0.3910  0.0912
  313MOL0     C43119   9.137   0.635   4.642  0.1235  0.0460 -0.3474
  313MOL0     C43120   9.077   0.698   4.755  0.7100  0.2436 -0.5316
  313MOL0     C43121   9.029   0.755   4.855  0.5995 -0.6945  0.4347
  313MOL0     C43122   9.563   0.248   4.673  0.3387  0.0466 -0.6141
  313MOL0     C43123   9.691   0.205   4.625  0.3325  1.0838 -0.7868
  313MOL0     C43124   9.719   0.206   4.478  0.1294 -0.7453 -0.2052
  313MOL0     H43125  10.145   0.141   4.516  0.9064 -0.2029 -1.5064
  313MOL0     H43126  10.365   0.064   4.459 -2.6097  0.0484 -0.8886
  313MOL0     H43127  10.625   0.085   4.767 -2.7760 -0.8741 -0.4073
  313MOL0     H43128  10.727   0.058   4.624 -0.8605 -0.0373 -0.2687
  313MOL0     H43129  10.675  -0.146   4.843  0.8963 -0.1712  0.8868
  313MOL0     H43130  10.769  -0.165   4.689 -0.7257  0.3091  0.0694
  313MOL0     H43131  10.921   0.035   4.796 -1.0224  1.5115  3.0061
  313MOL0     H43132  10.834   0.002   4.932 -1.9966  0.2955 -0.5449
  313MOL0     H43133  10.897  -0.258   4.865 -0.7245  0.8838 -5.4111
  313MOL0     H43134  11.026  -0.173   4.781 -2.3194 -0.7452 -0.9224
  313MOL0     H43135  11.080  -0.278   4.991  0.1026  0.0490  0.1258
  313MOL0     H43136  10.976  -0.159   5.069  0.2455  0.8710 -0.2063
  313MOL0     H43137  11.186  -0.044   4.863  1.3089  0.7334  2.0933
  313MOL0     H43138  11.110   0.027   4.996 -1.7164 -0.4548  3.4834
  313MOL0     H43139  11.282  -0.211   5.048 -4.5387 -0.7920  0.2104
  313MOL0     H43140  11.227  -0.088   5.164  1.1722 -0.7740  0.8163
  313MOL0     H43141  11.422  -0.034   4.935  0.1837 -0.0438  0.1860
  313MOL0     H43142  11.397   0.070   5.078  2.9562 -0.3394  1.3528
  313MOL0     H43143  11.533  -0.052   5.302  1.6248  0.7907 -0.9426
  313MOL0     H43144  11.700  -0.379   5.340  2.7471 -1.0928 -1.7722
  313MOL0     H43145  11.673  -0.219   5.432  0.7400 -1.2683  0.7947
  313MOL0     H43146  11.914  -0.302   5.414  1.8894  1.5403 -0.1128
  313MOL0     H43147  11.885  -0.274   5.236 -0.4489 -3.0407  0.3849
  313MOL0     H43148  11.817  -0.036   5.302  0.1549  0.5207  2.4497
  313MOL0     H43149  11.877  -0.073   5.466  0.2607 -3.3112  0.5338
  313MOL0     H43150  12.031  -0.098   5.204 -0.4837 -2.0848  0.6916
  313MOL0     H43151  12.035   0.048   5.313 -1.1328 -0.1927 -0.5771
  313MOL0     H43152  12.246  -0.270   5.541 -1.2109  0.1560 -0.7609
  313MOL0     H43153  12.564  -0.392   5.552  3.3906  1.1405  1.3362
  313MOL0     H43154  12.435  -0.356   5.667 -0.7098 -1.2505 -1.6570
  313MOL0     H43155  12.580  -0.259   5.659  0.2798  1.0739 -0.4942
  313MOL0     H43156  12.967   0.074   5.534 -2.1888  0.2381 -2.1480
  313MOL0     H43157  13.199   0.008   5.577 -1.0448 -0.0225  0.1948
  313MOL0     H43158  13.392  -0.088   5.598 -2.2801  0.3239 -1.8737
  313MOL0     H43159  13.290  -0.137   5.737 -0.2592  0.1367 -0.9978
  313MOL0     H43160  13.504  -0.192   5.815 -0.0986 -0.1187  0.8448
  313MOL0     H43161  13.434  -0.343   5.760 -0.2574  0.5139 -0.4889
  313MOL0     H43162  13.612  -0.167   5.582 -1.7912  1.0814  0.1901
  313MOL0     H43163  13.559  -0.323   5.535  1.3038  0.2067 -0.0785
  313MOL0     H43164  13.656  -0.400   5.774  0.7025 -0.6098  0.6303
  313MOL0     H43165  13.745  -0.251   5.767 -2.1384  0.6731  0.3737
  313MOL0     H43166  13.866  -0.465   5.680 -0.0684 -1.3567 -1.8710
  313MOL0     H43167  13.762  -0.440   5.542  0.0202  2.1886 -1.5166
  313MOL0     H43168  13.938  -0.200   5.629  1.2270 -0.6503 -0.4636
  313MOL0     H43169  13.852  -0.244   5.473 -0.3833 -2.8874 -1.8882
  313MOL0     H43170  14.010  -0.407   5.418  1.6508 -2.0528  0.1207
  313MOL0     H43171  14.068  -0.429   5.579 -0.2977  0.0239 -1.5490
  313MOL0     H43172  14.129  -0.199   5.391 -3.3455  2.0340  0.7830
  313MOL0     H43173  14.243  -0.303   5.463  0.7435  2.9789  0.3900
  313MOL0     H43174  13.097  -0.392   5.456  1.5013  1.3035 -2.4596
  313MOL0     H43175  12.857  -0.332   5.460 -0.9243  1.9806  0.6645
  313MOL0     H43176  12.513   0.032   5.266  0.6493 -0.7974 -0.5865
  313MOL0     H43177  12.287   0.040   5.256 -1.5856 -0.8157  0.1454
  313MOL0     H43178  10.425  -0.056   4.877 -0.9402 -2.0013  0.1856
  313MOL0     H43179  10.202  -0.008   4.917 -1.6987  2.2000  0.3200
  313MOL0     H43180   9.830   0.133   4.928  1.3204  1.8812 -0.1870
  313MOL0     H43181   9.608   0.236   5.005 -0.9798  0.0717 -0.7795
  313MOL0     H43182   9.394   0.496   4.947 -1.4248 -1.8353  0.2709
  313MOL0     H43183   9.487   0.488   4.794  0.8807 -1.2255 -0.6806
  313MOL0     H43184   9.191   0.446   4.824 -0.6925 -0.3413 -0.3122
  313MOL0     H43185   9.258   0.370   4.690 -0.0612 -0.3995 -1.1036
  313MOL0     H43186   9.324   0.664   4.725 -0.5684  0.5358 -0.1909
  313MOL0     H43187   9.329   0.566   4.569 -0.4286  2.5944 -0.2242
  313MOL0     H43188   9.068   0.558   4.606  0.3839 -0.5880  0.4691
  313MOL0     H43189   9.147   0.710   4.564  1.1542  2.4882  1.9670
  313MOL0     H43190   8.996   0.799   4.947 -0.8961 -3.9790  1.6003
  313MOL0     H43191   9.477   0.279   4.616 -0.5587  1.8288  1.5385
  313MOL0     H43192   9.825   0.218   4.454  0.2932 -1.4925  0.0962
  313MOL0     H43193   9.695   0.112   4.428  0.2639 -0.5087 -0.7185
  313MOL0     H43194   9.673   0.284   4.418  0.1982 -0.8533 -0.3981
  314MOL0     O43195   6.808   8.562   6.973 -0.0354  0.0632 -0.0829
  314MOL0     C43196   6.770   8.453   6.924 -0.4970  0.4531 -1.0810
  314MOL0     O43197   6.749   8.423   6.787 -0.0312 -0.7365 -0.2470
  314MOL0     C43198   6.805   8.513   6.699 -0.1825  0.1687 -0.8689
  314MOL0     C43199   6.944   8.522   6.674  0.3603 -0.8826  0.0594
  314MOL0     C43200   6.992   8.620   6.590 -0.1971  0.2706  1.0028
  314MOL0     C43201   6.905   8.709   6.525 -0.3479  0.4222 -0.2104
  314MOL0     O43202   6.960   8.817   6.457  0.4471  0.1912 -1.3598
  314MOL0     C43203   7.035   8.760   6.350 -0.9147 -0.5054 -0.5229
  314MOL0     C43204   7.061   8.869   6.244 -0.5422 -0.1193  0.7847
  314MOL0     C43205   7.097   9.009   6.299  0.3702  0.9212  0.2093
  314MOL0     C43206   7.091   9.119   6.190 -0.3071  0.5377 -0.2108
  314MOL0     C43207   7.133   9.250   6.257 -0.0229 -0.1149 -0.0731
  314MOL0     C43208   7.095   9.370   6.164  0.4181  0.9271 -0.1624
  314MOL0     C43209   7.130   9.511   6.210 -0.5537  0.2473 -0.5809
  314MOL0     C43210   7.276   9.538   6.222 -0.0401  0.2027 -1.7868
  314MOL0     N43211   7.297   9.656   6.302  0.1188 -0.4293  0.9580
  314MOL0     C43212   7.315   9.653   6.434 -0.4916 -0.7337  0.4549
  314MOL0     C43213   7.363   9.775   6.472 -0.2520 -0.0820  0.6781
  314MOL0     C43214   7.422   9.804   6.607  0.9068  0.6814  0.3587
  314MOL0     C43215   7.366   9.928   6.679 -0.7577 -0.2343  0.8029
  314MOL0     C43216   7.216   9.917   6.707 -0.4529 -0.1269 -0.0423
  314MOL0     C43217   7.178   9.893   6.853 -0.3081 -0.1781  0.1888
  314MOL0     O43218   7.194  10.011   6.940 -0.3468  0.4104 -0.8391
  314MOL0     C43219   7.129  10.135   6.930  0.3949 -0.4278  0.0022
  314MOL0     C43220   7.175  10.253   6.988 -0.1146  0.9239  0.3030
  314MOL0     C43221   7.110  10.374   6.989 -0.3292  0.3480  0.5289
  314MOL0     C43222   7.186  10.492   7.046 -0.4494  0.5429  0.0605
  314MOL0     C43223   6.977  10.377   6.932  0.4904 -0.0360 -0.6452
  314MOL0     C43224   6.900  10.502   6.920 -0.8444 -0.1310 -0.2754
  314MOL0     O43225   6.785  10.495   6.853 -0.5049 -0.4969  0.3508
  314MOL0     C43226   6.717  10.609   6.827 -0.4662  0.0954 -0.1186
  314MOL0     C43227   6.626  10.655   6.923 -0.3515 -0.4110  0.5957
  314MOL0     C43228   6.551  10.772   6.888 -0.8039  0.9705 -0.2775
  314MOL0     C43229   6.557  10.837   6.762  1.1544 -0.3325 -0.0169
  314MOL0     O43230   6.471  10.943   6.738  0.5103  0.4247  0.5828
  314MOL0     C43231   6.397  10.943   6.619  0.0793  0.8871  0.7660
  314MOL0     C43232   6.272  11.014   6.646  0.0468 -0.7407 -0.9725
  314MOL0     C43233   6.285  11.162   6.638  0.0739 -0.3939  0.0680
  314MOL0     C43234   6.162  11.244   6.686  0.7788  0.1016 -0.3500
  314MOL0     C43235   6.098  11.204   6.820  0.2091 -0.6382  0.0341
  314MOL0     C43236   6.188  11.200   6.939 -0.4298 -0.4029 -1.1504
  314MOL0     C43237   6.125  11.184   7.081  1.2650 -0.2187 -0.2880
  314MOL0     C43238   6.041  11.059   7.089 -0.3024 -0.8749  0.6505
  314MOL0    Cl43239   6.143  10.905   7.085 -0.0818 -0.3543 -0.1640
  314MOL0     C43240   6.653  10.787   6.672 -0.2022 -0.2977  0.1957
  314MOL0     C43241   6.741  10.679   6.705  0.4629 -0.6833  0.0587
  314MOL0     O43242   6.949  10.604   6.966 -0.0482 -0.7077 -0.4959
  314MOL0     C43243   6.927  10.261   6.873 -0.1609 -0.2047  0.7830
  314MOL0     C43244   7.003  10.148   6.865 -0.4595  0.8742 -0.5327
  314MOL0     N43245   7.359   9.857   6.351 -0.2674  0.4255 -0.1982
  314MOL0     N43246   7.327   9.780   6.245 -0.3137 -0.2987 -1.2198
  314MOL0     C43247   6.770   8.695   6.538 -0.8828  0.3173 -0.2434
  314MOL0     C43248   6.723   8.596   6.628  0.0810 -0.5242 -0.3066
  314MOL0     C43249   6.763   8.339   7.023 -0.3388  0.7494  0.5770
  314MOL0     C43250   6.755   8.369   7.158 -0.1847 -0.2749 -0.1035
  314MOL0     C43251   6.752   8.262   7.253  0.5629  0.1996  0.5723
  314MOL0     C43252   6.756   8.120   7.221  0.4434 -0.1770 -0.8104
  314MOL0     O43253   6.760   8.011   7.316 -0.9739 -0.1962 -0.2012
  314MOL0     C43254   6.831   8.026   7.439 -0.4645 -0.0785 -0.7445
  314MOL0     C43255   6.740   8.028   7.559 -0.0427 -1.0058 -0.1533
  314MOL0     C43256   6.675   7.887   7.593 -0.4171 -0.2863 -0.0885
  314MOL0     C43257   6.588   7.892   7.716 -0.5617  0.1378  0.6202
  314MOL0     C43258   6.551   7.758   7.759 -0.3947 -1.1101 -0.1486
  314MOL0     C43259   6.520   7.651   7.789  0.0779 -0.1202 -0.4313
  314MOL0     C43260   6.768   8.100   7.088  0.0128  0.7502 -0.3351
  314MOL0     C43261   6.768   8.199   6.993  0.4296 -0.1571 -0.2959
  314MOL0     C43262   6.786   8.151   6.854  0.7557  0.0428 -0.3515
  314MOL0     H43263   7.008   8.471   6.745  1.0027  0.6352  0.6126
  314MOL0     H43264   7.100   8.616   6.587 -0.1132 -4.9530  1.5715
  314MOL0     H43265   6.969   8.685   6.306 -1.7596  0.7984 -1.5727
  314MOL0     H43266   7.128   8.719   6.388 -1.6540  1.2395  3.7097
  314MOL0     H43267   7.138   8.839   6.173  0.8323  5.4530 -0.5636
  314MOL0     H43268   6.970   8.879   6.184  0.2686 -2.0180 -0.8871
  314MOL0     H43269   7.021   9.033   6.373 -2.7834 -0.5364 -2.2960
  314MOL0     H43270   7.198   9.001   6.341 -0.1954 -1.5928  1.3260
  314MOL0     H43271   7.156   9.089   6.108 -0.9274 -0.0065 -0.5172
  314MOL0     H43272   6.992   9.117   6.143  0.1023 -0.7278 -1.0748
  314MOL0     H43273   7.241   9.252   6.274  0.0874  0.1653 -0.7666
  314MOL0     H43274   7.084   9.258   6.354 -0.5473  0.0207 -0.3446
  314MOL0     H43275   7.132   9.349   6.063  1.4589  0.4524  0.3088
  314MOL0     H43276   6.987   9.363   6.150  0.2508  1.2241  0.9078
  314MOL0     H43277   7.078   9.546   6.300 -0.4155 -0.8250 -0.0722
  314MOL0     H43278   7.089   9.584   6.139  2.3238  1.1450 -1.4994
  314MOL0     H43279   7.346   9.457   6.248  0.4311  1.2042  0.2603
  314MOL0     H43280   7.315   9.555   6.122 -1.8651  0.6151 -2.4732
  314MOL0     H43281   7.305   9.563   6.494 -0.4600 -1.4535 -0.5948
  314MOL0     H43282   7.531   9.804   6.605  0.9390 -0.3477 -2.5205
  314MOL0     H43283   7.391   9.718   6.669 -1.5800 -1.3927 -3.3349
  314MOL0     H43284   7.413   9.939   6.777  0.0971  0.8108  0.3043
  314MOL0     H43285   7.395  10.014   6.617 -1.4319  0.5990  1.6208
  314MOL0     H43286   7.175  10.012   6.671  0.2557  0.7624  1.4014
  314MOL0     H43287   7.155   9.842   6.655 -0.3548 -0.5025  0.3733
  314MOL0     H43288   7.078   9.850   6.869  0.6693 -1.8359  2.2817
  314MOL0     H43289   7.243   9.812   6.887 -1.2748  0.0469  2.8355
  314MOL0     H43290   7.276  10.237   7.024  0.3939  1.5237 -0.8301
  314MOL0     H43291   7.207  10.559   6.962  2.9086 -2.1150 -1.4568
  314MOL0     H43292   7.273  10.452   7.098  0.0699  0.9694 -0.4564
  314MOL0     H43293   7.123  10.541   7.121 -1.0969  4.3681 -2.6676
  314MOL0     H43294   6.612  10.595   7.013 -2.6874 -0.5837  0.1821
  314MOL0     H43295   6.476  10.806   6.959  0.0652  0.5511  0.8628
  314MOL0     H43296   6.454  10.968   6.528 -1.8903 -0.0991 -0.8131
  314MOL0     H43297   6.370  10.842   6.589  0.7142  0.9126  0.0702
  314MOL0     H43298   6.197  10.986   6.571 -0.7293 -0.5740 -0.2756
  314MOL0     H43299   6.248  10.983   6.748  1.8072  0.4892 -0.1341
  314MOL0     H43300   6.306  11.199   6.537  2.1287  1.4310  1.0744
  314MOL0     H43301   6.368  11.188   6.704 -1.4153 -0.3007  1.9735
  314MOL0     H43302   6.079  11.240   6.614  1.2439 -0.5131 -0.8612
  314MOL0     H43303   6.193  11.349   6.684 -2.4998  1.2135  1.0456
  314MOL0     H43304   6.016  11.272   6.845 -0.9666 -1.5677 -1.1440
  314MOL0     H43305   6.059  11.103   6.808 -2.0363  0.1976 -0.2304
  314MOL0     H43306   6.238  11.297   6.937 -1.5155  0.2408  0.6524
  314MOL0     H43307   6.257  11.117   6.917  0.1312 -1.2964  3.1182
  314MOL0     H43308   6.061  11.271   7.097 -0.5328 -0.9407 -2.9156
  314MOL0     H43309   6.206  11.175   7.154  3.2729  0.4875 -2.3198
  314MOL0     H43310   5.963  11.059   7.012  0.7899 -3.4073 -0.6038
  314MOL0     H43311   5.990  11.060   7.185  0.2368  4.2992  1.1770
  314MOL0     H43312   6.668  10.834   6.576 -0.2199  0.0851  0.3760
  314MOL0     H43313   6.820  10.645   6.638  1.5248  3.0191 -0.7619
  314MOL0     H43314   6.834  10.260   6.816  1.6410 -1.1875 -2.3464
  314MOL0     H43315   6.956  10.065   6.814 -0.9046  0.2740  0.8124
  314MOL0     H43316   6.707   8.763   6.482  0.0578  1.0817 -0.4163
  314MOL0     H43317   6.616   8.581   6.639  0.0247 -0.3223 -0.5695
  314MOL0     H43318   6.743   8.468   7.202 -2.1575 -1.4697  2.2994
  314MOL0     H43319   6.754   8.294   7.357  2.6176 -1.2124  1.0336
  314MOL0     H43320   6.902   7.945   7.460  0.5825  1.4269  2.0981
  314MOL0     H43321   6.888   8.118   7.428 -1.8849  0.9887  0.3778
  314MOL0     H43322   6.657   8.095   7.535  0.6026 -0.2559 -0.3232
  314MOL0     H43323   6.789   8.072   7.646 -2.4803  0.2952  0.6658
  314MOL0     H43324   6.608   7.866   7.509 -0.4798 -1.0057  0.1376
  314MOL0     H43325   6.753   7.812   7.607 -0.1207  0.3491  1.9272
  314MOL0     H43326   6.495   7.946   7.698 -0.7172 -0.3632 -0.1433
  314MOL0     H43327   6.637   7.945   7.798 -0.9634  1.2318  0.1674
  314MOL0     H43328   6.473   7.558   7.816  1.7310 -0.3364  1.9867
  314MOL0     H43329   6.772   7.993   7.067  3.5513  1.0274 -1.9666
  314MOL0     H43330   6.866   8.203   6.802 -1.8655  5.0803  0.0404
  314MOL0     H43331   6.797   8.042   6.851 -1.6228 -0.2591 -3.5960
  314MOL0     H43332   6.692   8.169   6.801 -0.4945 -0.2913  1.6560
  315MOL0     O43333   9.053   6.016   7.452 -0.2334 -0.2020 -0.5866
  315MOL0     C43334   9.015   6.059   7.562  0.9184 -0.0462 -0.7846
  315MOL0     O43335   8.934   6.169   7.576  0.5089  0.3875  0.2178
  315MOL0     C43336   8.871   6.220   7.470  0.4232 -0.4504  1.2707
  315MOL0     C43337   8.938   6.311   7.380  0.7901  0.6149 -0.4363
  315MOL0     C43338   8.868   6.353   7.267  0.3958  0.1055 -0.1065
  315MOL0     C43339   8.747   6.298   7.225  0.9333  0.6010  0.0628
  315MOL0     O43340   8.704   6.347   7.099 -0.0835  0.4281  0.3658
  315MOL0     C43341   8.586   6.289   7.040 -0.5924 -0.2382  0.7450
  315MOL0     C43342   8.535   6.390   6.928  0.1440  0.9771 -0.5006
  315MOL0     C43343   8.413   6.326   6.862 -0.4898  0.5959  0.0607
  315MOL0     C43344   8.346   6.419   6.766  0.5308  0.3674  0.6838
  315MOL0     C43345   8.231   6.351   6.692  0.5791  0.3353 -0.0914
  315MOL0     C43346   8.183   6.432   6.570  0.5046 -0.7004  0.2909
  315MOL0     C43347   8.089   6.543   6.608  0.0158  0.4457 -0.3051
  315MOL0     C43348   8.077   6.645   6.498  0.5217 -0.3266 -0.8475
  315MOL0     N43349   7.975   6.748   6.552 -0.6240  0.0287  0.5010
  315MOL0     C43350   8.010   6.853   6.644  0.3350  0.3428  0.7127
  315MOL0     C43351   7.902   6.932   6.648 -0.2742 -0.1916 -0.1566
  315MOL0     C43352   7.894   7.056   6.726 -0.6435 -0.8064  0.5437
  315MOL0     C43353   7.899   7.030   6.873 -0.5745  0.1839  0.3474
  315MOL0     C43354   7.859   7.153   6.951 -0.2255 -0.0587 -0.8918
  315MOL0     C43355   7.850   7.116   7.094  1.0277 -0.7834 -0.1298
  315MOL0     O43356   7.986   7.101   7.146  0.3107 -0.0076 -0.3161
  315MOL0     C43357   8.029   7.204   7.216  0.0738 -0.1753 -0.8546
  315MOL0     C43358   8.147   7.268   7.178 -0.3157  0.0700  0.2246
  315MOL0     C43359   8.207   7.364   7.256  0.2769  0.5299 -0.2782
  315MOL0     C43360   8.337   7.424   7.195  0.3801 -0.0193  0.8845
  315MOL0     C43361   8.137   7.402   7.378  0.8684 -0.7286  0.6255
  315MOL0     C43362   8.175   7.528   7.451  0.1088  0.1435  0.5078
  315MOL0     O43363   8.306   7.543   7.478 -0.2593 -0.5033 -1.3065
  315MOL0     C43364   8.356   7.644   7.557  0.1857 -1.1852 -0.2302
  315MOL0     C43365   8.321   7.786   7.549  0.3020  1.4987 -0.5020
  315MOL0     C43366   8.384   7.875   7.638 -0.5758  0.2439 -0.3657
  315MOL0     C43367   8.486   7.831   7.724 -0.4427  0.5140  0.0253
  315MOL0     O43368   8.557   7.918   7.802 -0.5606  0.3622 -1.0998
  315MOL0     C43369   8.532   7.934   7.940  0.3296  0.6529 -0.0733
  315MOL0     C43370   8.396   7.988   7.968  0.8015  0.9722 -0.4855
  315MOL0     C43371   8.352   8.114   7.906  0.4541 -1.7146 -0.1106
  315MOL0     C43372   8.407   8.246   7.975 -0.2102  0.7909  0.3656
  315MOL0     C43373   8.324   8.369   7.934  0.2010  0.7099  0.0144
  315MOL0     C43374   8.364   8.483   8.029 -0.0155 -0.2994 -0.6857
  315MOL0     C43375   8.504   8.549   8.000 -0.6733  0.4738 -0.3108
  315MOL0     C43376   8.506   8.704   8.027  0.7847 -0.2169  0.1393
  315MOL0    Cl43377   8.681   8.770   8.016  0.3027  0.5500 -0.7649
  315MOL0     C43378   8.509   7.703   7.742  0.9117  0.3063  0.1633
  315MOL0     C43379   8.448   7.604   7.657 -0.3679 -0.3132  0.2711
  315MOL0     O43380   8.082   7.598   7.491  0.4289 -0.0422 -0.2471
  315MOL0     C43381   8.020   7.336   7.412  0.6712 -0.0375  0.4461
  315MOL0     C43382   7.973   7.234   7.338 -0.2885 -0.3420  0.2837
  315MOL0     N43383   7.807   6.882   6.563  0.9128 -0.2255 -0.2294
  315MOL0     N43384   7.854   6.774   6.508 -0.7273  0.1205 -0.8169
  315MOL0     C43385   8.686   6.202   7.316 -0.7751 -0.0389  0.4755
  315MOL0     C43386   8.753   6.165   7.433  0.3846  0.0419 -0.0482
  315MOL0     C43387   9.041   5.991   7.694 -0.4484  0.3765  0.4806
  315MOL0     C43388   8.941   6.014   7.797 -0.4242  0.4077 -1.0523
  315MOL0     C43389   8.945   5.948   7.917 -0.4919 -0.0027 -0.7288
  315MOL0     C43390   9.055   5.865   7.947  0.5686 -0.1964 -0.9629
  315MOL0     O43391   9.046   5.803   8.071 -0.6091 -0.1602  0.0702
  315MOL0     C43392   9.161   5.752   8.141  0.6047  0.1056  0.4049
  315MOL0     C43393   9.114   5.627   8.216  0.1034 -0.3636  0.2154
  315MOL0     C43394   9.228   5.534   8.238 -0.4542  0.1005 -0.2448
  315MOL0     C43395   9.279   5.457   8.114 -0.0864 -0.7166 -0.1093
  315MOL0     C43396   9.320   5.322   8.147  0.2038  0.1782 -1.0226
  315MOL0     C43397   9.361   5.211   8.177 -0.0604  0.9998 -0.3660
  315MOL0     C43398   9.160   5.853   7.852  0.8970  0.0609  0.4278
  315MOL0     C43399   9.154   5.904   7.723 -0.8919 -1.2473  0.8308
  315MOL0     C43400   9.265   5.868   7.629 -0.8334 -0.1849  0.2861
  315MOL0     H43401   9.035   6.356   7.395 -0.1003  2.7518 -0.7494
  315MOL0     H43402   8.913   6.422   7.197 -1.3952  2.0537  0.5775
  315MOL0     H43403   8.508   6.276   7.115 -2.8213  0.4164 -1.3186
  315MOL0     H43404   8.621   6.192   7.005 -1.1313 -0.2388  0.1845
  315MOL0     H43405   8.516   6.485   6.980  1.4844  0.3700  1.1679
  315MOL0     H43406   8.623   6.414   6.867  1.4854 -1.1289  0.5241
  315MOL0     H43407   8.446   6.235   6.811 -1.3870  0.5217 -0.4099
  315MOL0     H43408   8.335   6.282   6.924  0.9834 -2.6461 -0.2055
  315MOL0     H43409   8.301   6.503   6.819 -0.7614  1.2215 -1.6351
  315MOL0     H43410   8.422   6.471   6.708  1.3690  1.0077  2.2892
  315MOL0     H43411   8.151   6.335   6.765  0.5293 -0.7779 -0.3643
  315MOL0     H43412   8.269   6.255   6.656  0.4014  0.1218  0.2851
  315MOL0     H43413   8.260   6.476   6.506  0.2858 -1.3331 -0.4178
  315MOL0     H43414   8.133   6.359   6.506  0.4177  0.2757 -0.7901
  315MOL0     H43415   8.139   6.589   6.694 -0.6907  0.5639  0.0494
  315MOL0     H43416   7.991   6.501   6.632  0.7751 -0.8033  0.7816
  315MOL0     H43417   8.180   6.677   6.476  0.0649  1.4510 -0.5480
  315MOL0     H43418   8.040   6.604   6.404  1.9121  2.6765 -2.8976
  315MOL0     H43419   8.097   6.863   6.708 -1.3983  0.7062  3.1672
  315MOL0     H43420   7.801   7.102   6.694 -1.1272 -1.2350  1.2978
  315MOL0     H43421   7.980   7.123   6.713 -1.4510  0.2549  0.5576
  315MOL0     H43422   7.831   6.948   6.897  1.4211 -0.7097  3.6601
  315MOL0     H43423   8.007   7.008   6.875 -0.7152 -1.4230 -2.9697
  315MOL0     H43424   7.920   7.243   6.939 -2.2404  1.0862 -3.6241
  315MOL0     H43425   7.764   7.189   6.911 -0.9877 -3.0397 -2.0237
  315MOL0     H43426   7.801   7.207   7.131 -0.2297 -1.3486 -0.3682
  315MOL0     H43427   7.789   7.027   7.108  0.6746 -0.2266  2.2300
  315MOL0     H43428   8.192   7.230   7.086 -0.2885 -0.3130  0.3930
  315MOL0     H43429   8.433   7.435   7.248  0.8998 -1.0453  0.1964
  315MOL0     H43430   8.318   7.529   7.170  2.9869  0.0390 -1.3791
  315MOL0     H43431   8.353   7.367   7.103  0.2500 -0.7926  1.3323
  315MOL0     H43432   8.249   7.831   7.483 -1.0107  1.8170  1.0765
  315MOL0     H43433   8.348   7.978   7.637 -3.6456 -0.6755  1.1665
  315MOL0     H43434   8.547   7.844   8.001 -0.1221  0.3378 -0.4181
  315MOL0     H43435   8.605   8.004   7.981 -0.5316  0.8324  1.2316
  315MOL0     H43436   8.319   7.915   7.942  1.0815  0.3841  0.3051
  315MOL0     H43437   8.384   7.999   8.076  0.6345  1.3108 -0.5354
  315MOL0     H43438   8.243   8.111   7.912  0.5185 -1.7316  2.7801
  315MOL0     H43439   8.371   8.120   7.799  3.6545 -1.2089  0.3728
  315MOL0     H43440   8.513   8.258   7.949 -0.1056  0.2303  0.5195
  315MOL0     H43441   8.416   8.231   8.083 -0.2519  0.8776  0.3808
  315MOL0     H43442   8.333   8.402   7.830 -1.4277  0.8022 -0.1159
  315MOL0     H43443   8.219   8.345   7.949  0.5827 -0.4030  0.9878
  315MOL0     H43444   8.362   8.435   8.127 -2.1561 -3.6645 -2.1866
  315MOL0     H43445   8.293   8.565   8.041  1.7252  0.8021  4.2907
  315MOL0     H43446   8.529   8.521   7.897 -0.3866  1.2250 -0.4527
  315MOL0     H43447   8.585   8.511   8.063 -1.1225  1.6935  1.0497
  315MOL0     H43448   8.464   8.730   8.124 -0.4409  0.6721 -0.5970
  315MOL0     H43449   8.447   8.751   7.947  0.1088 -2.4726 -0.7724
  315MOL0     H43450   8.594   7.682   7.805 -0.8810 -3.4338  1.6213
  315MOL0     H43451   8.463   7.497   7.669  3.8616  0.3326  2.9360
  315MOL0     H43452   7.968   7.383   7.494  1.8227  0.8343  0.7115
  315MOL0     H43453   7.890   7.181   7.382  0.1832  1.0067  3.0591
  315MOL0     H43454   8.594   6.147   7.301 -0.0837 -0.6510 -2.1452
  315MOL0     H43455   8.717   6.084   7.496  0.4714 -0.5076 -0.6956
  315MOL0     H43456   8.851   6.069   7.771 -0.1285 -0.0125 -3.1733
  315MOL0     H43457   8.868   5.963   7.993  1.2120 -2.2025  1.6263
  315MOL0     H43458   9.245   5.725   8.076  1.9063  4.6013 -0.1076
  315MOL0     H43459   9.204   5.826   8.210 -0.6400 -0.2348  1.5787
  315MOL0     H43460   9.041   5.576   8.152  0.9141 -0.9189 -0.2922
  315MOL0     H43461   9.069   5.643   8.314 -2.1386 -1.3377 -0.5789
  315MOL0     H43462   9.311   5.604   8.257 -0.6595  0.6609 -1.3539
  315MOL0     H43463   9.212   5.461   8.317 -0.2447 -2.5098 -2.4772
  315MOL0     H43464   9.373   5.506   8.089  0.2146 -0.2880  1.7555
  315MOL0     H43465   9.220   5.458   8.022 -1.3706  3.9869  0.4630
  315MOL0     H43466   9.390   5.113   8.209  0.7389  1.0664 -0.8409
  315MOL0     H43467   9.236   5.784   7.888  0.4965  1.2838  4.0195
  315MOL0     H43468   9.350   5.894   7.693 -0.7108  0.9620 -0.3168
  315MOL0     H43469   9.264   5.760   7.611  1.0871 -0.5039  1.8128
  315MOL0     H43470   9.270   5.928   7.538 -1.0915 -0.1172  0.3135
  316MOL0     O43471   5.173   9.643   4.682 -0.5425 -0.0230  0.3705
  316MOL0     C43472   5.248   9.640   4.782  0.5250  0.2923  0.1354
  316MOL0     O43473   5.384   9.663   4.787  1.0891  0.4399 -0.1931
  316MOL0     C43474   5.447   9.648   4.673  0.7574  0.8026  0.4816
  316MOL0     C43475   5.525   9.529   4.661  0.1037 -0.1181 -0.4026
  316MOL0     C43476   5.602   9.509   4.555  0.4772  0.6877  0.3027
  316MOL0     C43477   5.616   9.599   4.456  0.4058 -0.6324 -0.3270
  316MOL0     O43478   5.683   9.567   4.337  0.7698 -0.1709 -0.3920
  316MOL0     C43479   5.825   9.584   4.341  0.5353 -0.5226  0.9106
  316MOL0     C43480   5.862   9.725   4.396  0.1760  0.6236  0.5165
  316MOL0     C43481   6.018   9.737   4.373  0.1127 -0.8208 -0.1443
  316MOL0     C43482   6.060   9.803   4.246 -0.6411 -1.1875  0.6162
  316MOL0     C43483   6.219   9.812   4.242  0.9720  0.5212 -0.2545
  316MOL0     C43484   6.265   9.870   4.105  0.7269  0.0692 -0.2977
  316MOL0     C43485   6.399   9.934   4.100 -0.4592  0.1293 -0.0191
  316MOL0     C43486   6.432   9.984   3.958 -0.4667 -0.3243  0.0460
  316MOL0     N43487   6.562  10.049   3.957 -0.2570 -0.2416 -0.2558
  316MOL0     C43488   6.680   9.981   3.956  0.5088 -0.0908 -0.2109
  316MOL0     C43489   6.775  10.082   3.944  0.4143 -0.0348  1.0795
  316MOL0     C43490   6.925  10.068   3.951  0.2883 -0.1957 -0.2723
  316MOL0     C43491   6.978   9.943   3.876  0.4898 -0.0222 -1.4379
  316MOL0     C43492   7.140   9.955   3.873  1.4890 -0.1393  0.7318
  316MOL0     C43493   7.209   9.994   4.007  0.3107 -0.4505 -0.2405
  316MOL0     O43494   7.346   9.961   3.990 -0.5194  0.7114  0.3982
  316MOL0     C43495   7.444  10.008   4.076 -0.4684  0.3649  0.1755
  316MOL0     C43496   7.421  10.081   4.195 -0.1627 -0.0161 -0.4969
  316MOL0     C43497   7.516  10.115   4.291  0.5940  1.3626  0.1468
  316MOL0     C43498   7.470  10.187   4.412 -0.7428 -0.6937 -0.5242
  316MOL0     C43499   7.644  10.061   4.268 -0.1776  0.3875 -0.8041
  316MOL0     C43500   7.753  10.055   4.375  0.2419  0.0528  0.0344
  316MOL0     O43501   7.870   9.986   4.330 -0.0444  0.0997 -0.3751
  316MOL0     C43502   7.962   9.942   4.419 -0.8503  0.7771 -0.5813
  316MOL0     C43503   8.071  10.028   4.464 -0.1306  0.1269  0.8322
  316MOL0     C43504   8.155   9.975   4.551 -1.5565  0.0346  1.3207
  316MOL0     C43505   8.157   9.842   4.586  0.0031  0.1306  0.1593
  316MOL0     O43506   8.264   9.798   4.664  0.5329 -0.2693 -0.1233
  316MOL0     C43507   8.240   9.678   4.742  0.7744 -0.8056  0.0158
  316MOL0     C43508   8.332   9.683   4.863 -0.0583 -0.1554 -0.2190
  316MOL0     C43509   8.478   9.714   4.822  0.3021  0.0213  0.3341
  316MOL0     C43510   8.567   9.735   4.953 -0.7050  0.1138  0.6921
  316MOL0     C43511   8.708   9.777   4.922 -0.3296  0.8590  0.6743
  316MOL0     C43512   8.776   9.832   5.050  0.0141  0.8931 -0.4774
  316MOL0     C43513   8.932   9.853   5.033  0.9682 -0.5199 -0.1206
  316MOL0     C43514   8.998   9.904   5.159 -0.2237 -0.8766 -0.3336
  316MOL0    Cl43515   9.169   9.936   5.113 -0.1634 -0.4152 -0.8419
  316MOL0     C43516   8.061   9.757   4.535  0.2537  0.5564  0.4023
  316MOL0     C43517   7.964   9.803   4.453 -0.7744 -0.1356 -0.4546
  316MOL0     O43518   7.748  10.125   4.473  0.1765  0.7121  0.7478
  316MOL0     C43519   7.670   9.998   4.147  0.7542  0.4732  0.3028
  316MOL0     C43520   7.576   9.971   4.054  0.4353  0.2899 -0.4298
  316MOL0     N43521   6.711  10.199   3.918  0.0529 -0.5291 -0.2899
  316MOL0     N43522   6.586  10.181   3.933  0.8154  0.5177  0.7304
  316MOL0     C43523   5.551   9.725   4.472  0.3592  0.0645 -0.6096
  316MOL0     C43524   5.461   9.745   4.574 -0.0656  0.3052  0.0611
  316MOL0     C43525   5.184   9.619   4.915  0.2087 -0.1167  0.0386
  316MOL0     C43526   5.263   9.556   5.013 -0.4880 -0.0484  0.0321
  316MOL0     C43527   5.216   9.540   5.144  0.5484  0.8815 -0.7700
  316MOL0     C43528   5.089   9.573   5.179  0.7134  0.7411 -0.6451
  316MOL0     O43529   5.064   9.541   5.308 -0.6203 -0.6724  0.2192
  316MOL0     C43530   4.941   9.592   5.366 -0.1065  0.0335  0.3546
  316MOL0     C43531   4.920   9.749   5.385 -0.3797  0.1073  0.6927
  316MOL0     C43532   4.774   9.792   5.395  0.5000 -0.6627 -0.4117
  316MOL0     C43533   4.704   9.807   5.256  0.9101  0.0227  0.2784
  316MOL0     C43534   4.757   9.925   5.186 -0.4872  0.0802 -0.1325
  316MOL0     C43535   4.803  10.013   5.125 -0.0757  0.4510  0.5516
  316MOL0     C43536   5.010   9.634   5.085  0.0370 -0.1238  0.6515
  316MOL0     C43537   5.051   9.660   4.955 -0.6760 -0.2731 -0.0701
  316MOL0     C43538   4.945   9.721   4.864  0.9569 -0.0337  0.2599
  316MOL0     H43539   5.520   9.452   4.738  0.6624  0.3460  0.1037
  316MOL0     H43540   5.654   9.414   4.543  1.7481  1.5980 -2.4355
  316MOL0     H43541   5.855   9.564   4.238 -0.2875 -1.8654  0.9072
  316MOL0     H43542   5.874   9.503   4.395 -2.0650 -2.8302  0.0116
  316MOL0     H43543   5.813   9.810   4.346 -1.0403  0.6187  1.6439
  316MOL0     H43544   5.837   9.736   4.502  0.9869  3.6224  0.4915
  316MOL0     H43545   6.061   9.797   4.453  0.8823 -1.6669  0.0928
  316MOL0     H43546   6.066   9.640   4.385  1.1222 -0.2156  0.8723
  316MOL0     H43547   6.022   9.742   4.164 -2.0464  0.3424  0.0814
  316MOL0     H43548   6.013   9.901   4.234  2.5445  0.3913  0.0770
  316MOL0     H43549   6.267   9.719   4.274  1.3678  1.2805  1.4747
  316MOL0     H43550   6.256   9.874   4.324 -1.1885 -0.3796  1.5039
  316MOL0     H43551   6.250   9.792   4.029  0.5502 -0.9614  0.7655
  316MOL0     H43552   6.196   9.948   4.072 -1.7905 -1.1667  1.6502
  316MOL0     H43553   6.470   9.856   4.130 -0.2148 -0.1321 -1.2254
  316MOL0     H43554   6.422  10.023   4.159  0.4694  0.8393 -1.3806
  316MOL0     H43555   6.433   9.895   3.895  1.2938 -2.3894  2.7489
  316MOL0     H43556   6.364  10.063   3.925 -0.6797  0.2297  1.6720
  316MOL0     H43557   6.698   9.878   3.986  0.1011  0.6110  2.8025
  316MOL0     H43558   6.944  10.058   4.058  1.2723 -4.1020 -0.6571
  316MOL0     H43559   6.967  10.164   3.920 -2.5132  0.5299 -2.2775
  316MOL0     H43560   6.954   9.855   3.936  0.0479  0.5061 -0.8258
  316MOL0     H43561   6.936   9.929   3.776 -1.9750 -2.3188 -0.1783
  316MOL0     H43562   7.172   9.856   3.839  0.3187  0.0085 -0.9323
  316MOL0     H43563   7.169  10.028   3.797 -0.1863 -0.5798 -0.3856
  316MOL0     H43564   7.192  10.102   4.008  2.6657 -0.0017  1.8839
  316MOL0     H43565   7.166   9.943   4.094  1.3704 -0.1576  0.4734
  316MOL0     H43566   7.320  10.111   4.222 -0.4859 -2.7788  1.9634
  316MOL0     H43567   7.370  10.231   4.403 -2.2288 -3.3219  1.5327
  316MOL0     H43568   7.529  10.279   4.426 -0.3879 -0.4007 -3.3853
  316MOL0     H43569   7.471  10.122   4.500 -2.2314 -1.2697 -0.9065
  316MOL0     H43570   8.069  10.132   4.433  2.1006 -0.4128 -1.4662
  316MOL0     H43571   8.238  10.028   4.597 -0.3558  0.9074 -1.6171
  316MOL0     H43572   8.142   9.684   4.789  1.4535  1.7504  1.2962
  316MOL0     H43573   8.242   9.584   4.685 -0.5483  0.9186 -3.0926
  316MOL0     H43574   8.301   9.767   4.926 -0.7205 -0.0905 -0.6174
  316MOL0     H43575   8.327   9.596   4.928 -0.6317  2.3877  3.4405
  316MOL0     H43576   8.481   9.809   4.768 -1.4082  0.2652  0.5954
  316MOL0     H43577   8.517   9.627   4.769  0.0635 -0.7201  1.3389
  316MOL0     H43578   8.567   9.634   4.995 -2.6987 -0.6972 -1.0758
  316MOL0     H43579   8.523   9.804   5.025 -0.8351  0.2180  0.5124
  316MOL0     H43580   8.764   9.693   4.879 -2.8495 -0.8400  0.5416
  316MOL0     H43581   8.706   9.856   4.846 -0.7703 -0.3708 -0.6384
  316MOL0     H43582   8.762   9.772   5.140 -0.1080  1.0398 -0.3990
  316MOL0     H43583   8.745   9.933   5.078  0.9944  0.7909  1.1400
  316MOL0     H43584   8.951   9.923   4.951 -0.8975 -0.6604 -0.7266
  316MOL0     H43585   8.976   9.757   5.004 -0.5583 -1.6529  1.1167
  316MOL0     H43586   8.987   9.819   5.227  1.1106 -1.1512 -0.4388
  316MOL0     H43587   8.953   9.999   5.189 -0.1354  0.2229 -3.3314
  316MOL0     H43588   8.056   9.656   4.574 -1.6299  0.8969  1.1402
  316MOL0     H43589   7.892   9.730   4.417  1.1751 -2.5173  0.2181
  316MOL0     H43590   7.770   9.958   4.131 -0.4372 -2.2295 -1.2224
  316MOL0     H43591   7.599   9.922   3.960 -0.3252  1.2802 -1.1564
  316MOL0     H43592   5.562   9.811   4.406 -0.0655  3.3333  3.1956
  316MOL0     H43593   5.409   9.837   4.598  0.8963 -0.0113  4.2371
  316MOL0     H43594   5.359   9.512   4.988 -0.3512  1.2529 -1.9982
  316MOL0     H43595   5.277   9.503   5.226 -0.3160  1.2758  0.0837
  316MOL0     H43596   4.858   9.567   5.300 -1.1578 -1.6889  2.1943
  316MOL0     H43597   4.938   9.548   5.466 -0.1712  1.0081  0.7941
  316MOL0     H43598   4.964   9.804   5.301  0.7074 -1.0405  0.4895
  316MOL0     H43599   4.965   9.776   5.481  0.7753 -0.3443  0.2953
  316MOL0     H43600   4.710   9.726   5.453 -0.2536  0.2746 -0.1392
  316MOL0     H43601   4.771   9.890   5.445  3.0259 -1.1124  0.7430
  316MOL0     H43602   4.600   9.828   5.282  0.4371 -0.9975 -0.7274
  316MOL0     H43603   4.701   9.720   5.190 -0.7639 -0.6857  1.2405
  316MOL0     H43604   4.844  10.090   5.062 -2.6133 -0.0597 -1.8935
  316MOL0     H43605   4.912   9.661   5.122  0.2603  0.2611  0.9667
  316MOL0     H43606   4.893   9.649   4.801  2.4197  0.1142 -1.1691
  316MOL0     H43607   4.863   9.770   4.918  0.3804  1.2096 -1.6362
  316MOL0     H43608   4.982   9.797   4.794  3.3501 -1.2974  0.0561
  317MOL0     O43609   9.617   5.467   3.805 -0.7111 -0.0501 -0.6543
  317MOL0     C43610   9.655   5.482   3.922  0.2952  0.6172  0.2363
  317MOL0     O43611   9.754   5.564   3.961 -0.2750 -1.1487 -0.2491
  317MOL0     C43612   9.823   5.610   3.858 -0.2309  0.7569 -0.2155
  317MOL0     C43613   9.781   5.727   3.803  0.2843  0.5193  0.4312
  317MOL0     C43614   9.867   5.784   3.713 -0.3178 -0.0520 -0.3927
  317MOL0     C43615   9.997   5.738   3.694 -0.1620  0.3307 -0.2408
  317MOL0     O43616  10.091   5.804   3.621  0.0234 -0.4285  0.6418
  317MOL0     C43617  10.113   5.758   3.490 -0.5213  0.6150 -0.3301
  317MOL0     C43618  10.255   5.799   3.439 -0.1007  0.0703  0.2493
  317MOL0     C43619  10.280   5.724   3.308 -0.0083  1.7814  0.2045
  317MOL0     C43620  10.423   5.739   3.252 -0.9898 -0.5169  0.1289
  317MOL0     C43621  10.435   5.684   3.103  0.7485  0.3657 -0.9220
  317MOL0     C43622  10.568   5.695   3.050 -0.4817 -0.1355  0.1007
  317MOL0     C43623  10.599   5.828   2.984 -0.6608 -0.1130 -0.4734
  317MOL0     C43624  10.751   5.829   2.913  0.0844  0.2546  0.1703
  317MOL0     N43625  10.852   5.820   3.017  0.2412 -0.3128 -0.4450
  317MOL0     C43626  10.973   5.763   2.989  0.4265 -0.4517 -0.0832
  317MOL0     C43627  11.063   5.817   3.084  0.4402 -0.6809  0.5528
  317MOL0     C43628  11.211   5.810   3.097  0.2036  0.4938  0.0296
  317MOL0     C43629  11.262   5.670   3.141 -0.1997  0.7491  0.5416
  317MOL0     C43630  11.417   5.675   3.144 -0.8720 -0.0237 -0.6448
  317MOL0     C43631  11.487   5.539   3.156 -0.3381  0.3285  0.2733
  317MOL0     O43632  11.626   5.546   3.197  0.1269 -0.4183  0.1189
  317MOL0     C43633  11.711   5.444   3.180 -0.4278  0.3711 -0.3542
  317MOL0     C43634  11.846   5.469   3.212  0.8211 -0.3588 -0.1159
  317MOL0     C43635  11.942   5.371   3.197  0.5516 -0.8552  0.3269
  317MOL0     C43636  12.074   5.403   3.239 -0.8103  0.3885  0.0913
  317MOL0     C43637  11.904   5.236   3.151  0.7968  0.2257 -0.5745
  317MOL0     C43638  11.992   5.115   3.137  0.0311  0.0885  0.0574
  317MOL0     O43639  12.123   5.135   3.087  0.1153 -0.1359  0.3098
  317MOL0     C43640  12.202   5.027   3.063  0.3732  0.8748 -0.6315
  317MOL0     C43641  12.156   4.908   2.997 -0.7722  0.0356 -0.7048
  317MOL0     C43642  12.255   4.808   2.981  0.1135 -0.2509  0.5223
  317MOL0     C43643  12.394   4.822   3.009 -0.0310 -0.0803 -0.6500
  317MOL0     O43644  12.478   4.715   2.988  0.6418  0.1673 -0.0377
  317MOL0     C43645  12.613   4.717   3.023 -0.2548  0.0704  0.4787
  317MOL0     C43646  12.674   4.588   2.968 -0.3489  0.2762  0.0155
  317MOL0     C43647  12.681   4.559   2.819 -0.2307 -0.4419 -0.5178
  317MOL0     C43648  12.792   4.449   2.788  0.4162  0.0871 -0.6179
  317MOL0     C43649  12.846   4.472   2.656  0.0120 -0.0125  0.0915
  317MOL0     C43650  12.959   4.369   2.607  0.5650 -0.1714 -0.4591
  317MOL0     C43651  12.992   4.373   2.457  0.1298  0.0903  0.2281
  317MOL0     C43652  13.117   4.293   2.413 -0.1477 -0.0736 -0.0234
  317MOL0    Cl43653  13.121   4.286   2.235  0.0257  0.1218  0.4611
  317MOL0     C43654  12.431   4.948   3.060 -1.4057  0.7216 -0.0895
  317MOL0     C43655  12.340   5.041   3.087  0.5589 -0.0702  0.4423
  317MOL0     O43656  11.940   5.008   3.161  0.6690  0.2349  0.5781
  317MOL0     C43657  11.770   5.216   3.137 -0.0836  1.3479 -0.4256
  317MOL0     C43658  11.676   5.314   3.148  0.1079 -0.7528  0.0729
  317MOL0     N43659  10.987   5.902   3.164  0.1374  0.3976  0.0347
  317MOL0     N43660  10.871   5.902   3.123  0.2443 -0.3800 -0.4559
  317MOL0     C43661  10.037   5.620   3.752  0.4983  0.4295 -1.0338
  317MOL0     C43662   9.951   5.552   3.834  0.0432  0.1935  0.3577
  317MOL0     C43663   9.558   5.441   4.025 -0.0937  0.0714 -0.0181
  317MOL0     C43664   9.577   5.506   4.148  0.2435  0.1099  0.0526
  317MOL0     C43665   9.487   5.488   4.253  0.0320 -0.2923  0.5065
  317MOL0     C43666   9.389   5.386   4.234 -0.4646  0.3976  0.8525
  317MOL0     O43667   9.324   5.327   4.344 -0.6155  0.4087  0.1367
  317MOL0     C43668   9.286   5.404   4.459  0.1971  0.1181  0.6942
  317MOL0     C43669   9.177   5.332   4.528  0.6612  0.5667  0.8494
  317MOL0     C43670   9.032   5.347   4.463 -0.0556 -0.3894 -0.3028
  317MOL0     C43671   8.927   5.246   4.522  0.5909 -0.1367 -0.0012
  317MOL0     C43672   8.901   5.282   4.658 -0.4372  0.0181  0.4042
  317MOL0     C43673   8.879   5.312   4.770 -0.0478 -0.3292  0.4393
  317MOL0     C43674   9.368   5.323   4.108  0.3027  0.0276 -0.3206
  317MOL0     C43675   9.445   5.355   3.996 -0.5465  0.4514  0.5958
  317MOL0     C43676   9.418   5.278   3.876 -0.1241  0.5686  0.7978
  317MOL0     H43677   9.679   5.760   3.821 -0.2494 -0.0817 -1.2322
  317MOL0     H43678   9.852   5.879   3.662  0.8765  0.1092 -0.4868
  317MOL0     H43679  10.039   5.800   3.422 -2.4952 -2.6234 -0.4002
  317MOL0     H43680  10.085   5.653   3.473 -1.8381  1.0611 -0.9831
  317MOL0     H43681  10.261   5.908   3.427 -0.6430  0.3410  2.1316
  317MOL0     H43682  10.332   5.767   3.510  1.6610 -3.0671 -2.7636
  317MOL0     H43683  10.256   5.617   3.301 -0.9397  1.9661  0.4627
  317MOL0     H43684  10.222   5.788   3.240  2.2992  2.8781 -0.8442
  317MOL0     H43685  10.455   5.844   3.254 -1.1930 -0.4580  0.4058
  317MOL0     H43686  10.494   5.694   3.322 -2.1067 -3.6692 -0.5894
  317MOL0     H43687  10.373   5.748   3.040  1.8860  0.2608 -2.1856
  317MOL0     H43688  10.410   5.578   3.106  2.9010 -0.2250 -2.1813
  317MOL0     H43689  10.640   5.683   3.132 -1.3379 -0.4923  0.8176
  317MOL0     H43690  10.591   5.618   2.976 -1.4456  1.0886 -1.5353
  317MOL0     H43691  10.583   5.899   3.066 -0.8451 -0.6982  0.0079
  317MOL0     H43692  10.534   5.843   2.898  0.5611  3.0338 -1.0063
  317MOL0     H43693  10.766   5.748   2.841 -3.0667 -1.3567  1.1488
  317MOL0     H43694  10.764   5.927   2.866 -2.2613 -0.3319 -1.9274
  317MOL0     H43695  11.011   5.702   2.907 -0.8791  1.9589 -2.6651
  317MOL0     H43696  11.244   5.882   3.172  1.6836 -1.3573  1.2431
  317MOL0     H43697  11.248   5.836   2.997 -2.5012  0.3391 -1.1129
  317MOL0     H43698  11.226   5.637   3.239 -0.6849 -0.0144  0.1149
  317MOL0     H43699  11.226   5.601   3.064  0.4005 -0.4666  1.3109
  317MOL0     H43700  11.451   5.724   3.052  2.4889  0.5320  0.7267
  317MOL0     H43701  11.454   5.731   3.230  2.6110 -1.4835 -1.0179
  317MOL0     H43702  11.445   5.481   3.239  1.1707  0.4098  1.1308
  317MOL0     H43703  11.471   5.486   3.062 -2.3392  3.6275 -1.4084
  317MOL0     H43704  11.864   5.568   3.250  1.9212 -0.6173  0.0729
  317MOL0     H43705  12.122   5.455   3.155  2.0972 -2.4061 -0.1966
  317MOL0     H43706  12.131   5.315   3.272  0.8037  1.4487  0.2589
  317MOL0     H43707  12.077   5.474   3.322 -1.2500  0.7201 -0.1720
  317MOL0     H43708  12.055   4.887   2.962 -0.7887 -0.2316 -0.4940
  317MOL0     H43709  12.200   4.723   2.941 -0.4767  0.0722  0.6373
  317MOL0     H43710  12.662   4.800   2.973  1.5839 -0.8051  0.6994
  317MOL0     H43711  12.633   4.722   3.131 -0.1711  2.0294  0.3984
  317MOL0     H43712  12.778   4.597   2.999 -0.6880  2.8510  0.5909
  317MOL0     H43713  12.620   4.507   3.018 -1.2992  0.2823 -0.9388
  317MOL0     H43714  12.703   4.654   2.769 -1.2914 -0.6394 -1.4021
  317MOL0     H43715  12.581   4.522   2.797  0.2849 -1.1436 -1.8296
  317MOL0     H43716  12.737   4.355   2.804 -1.3720  1.3629  1.2489
  317MOL0     H43717  12.872   4.454   2.862 -1.7332 -0.8099  1.9304
  317MOL0     H43718  12.763   4.476   2.585  0.5235  1.5093 -0.4468
  317MOL0     H43719  12.890   4.572   2.651 -0.5690  0.2032 -0.9318
  317MOL0     H43720  12.937   4.266   2.636  0.1404  0.1426  0.3815
  317MOL0     H43721  13.049   4.402   2.659  0.0962  1.5068 -0.6542
  317MOL0     H43722  13.003   4.477   2.427  1.0848 -0.7954 -2.8619
  317MOL0     H43723  12.906   4.327   2.407  1.4132  1.0182 -3.0888
  317MOL0     H43724  13.122   4.187   2.441 -2.4113 -1.8138 -5.0521
  317MOL0     H43725  13.204   4.341   2.460  1.5179 -4.1430  1.5516
  317MOL0     H43726  12.535   4.957   3.088 -1.0392  0.1648 -1.1956
  317MOL0     H43727  12.367   5.138   3.126 -0.1664  0.3421 -0.0394
  317MOL0     H43728  11.736   5.118   3.103  0.0196  0.8697  0.8107
  317MOL0     H43729  11.571   5.290   3.140 -0.0109 -0.9819  1.9699
  317MOL0     H43730  10.138   5.585   3.733  1.8236  1.6737  2.7490
  317MOL0     H43731   9.982   5.459   3.882  2.7345  0.8559  0.0573
  317MOL0     H43732   9.653   5.582   4.167  0.4205 -0.2118  0.6672
  317MOL0     H43733   9.498   5.532   4.351  0.7642 -3.0154  1.7392
  317MOL0     H43734   9.373   5.414   4.524  1.2831  0.0851 -0.6947
  317MOL0     H43735   9.253   5.502   4.422  0.8651 -0.2697 -1.0583
  317MOL0     H43736   9.178   5.345   4.636  0.0317 -0.2717  0.9691
  317MOL0     H43737   9.208   5.227   4.526 -0.7527  0.0406 -3.1335
  317MOL0     H43738   8.998   5.449   4.484  0.2736 -0.2594 -0.4071
  317MOL0     H43739   9.033   5.349   4.354  0.7244 -1.4778 -0.3355
  317MOL0     H43740   8.964   5.143   4.524  0.2542 -0.3032 -1.5483
  317MOL0     H43741   8.830   5.253   4.472  0.5500 -0.1323  0.0770
  317MOL0     H43742   8.851   5.349   4.866  3.8105  2.1829  0.8480
  317MOL0     H43743   9.298   5.241   4.096 -0.0807  0.5211 -1.7065
  317MOL0     H43744   9.368   5.353   3.814  1.6989  0.0518 -1.4372
  317MOL0     H43745   9.515   5.246   3.837 -0.0635  1.3439  0.2895
  317MOL0     H43746   9.355   5.192   3.901  0.4699 -0.3329 -0.6961
  318MOL0     O43747   0.749   6.653   5.518 -0.7323  0.1636 -0.1627
  318MOL0     C43748   0.680   6.736   5.569  0.2318 -0.5598  0.0966
  318MOL0     O43749   0.594   6.820   5.508 -0.0675 -0.1154  0.2895
  318MOL0     C43750   0.615   6.869   5.376 -0.6237 -0.0304 -1.3997
  318MOL0     C43751   0.743   6.878   5.318 -0.1087  0.6461  0.1174
  318MOL0     C43752   0.751   6.937   5.192  0.5521 -0.0670 -0.0956
  318MOL0     C43753   0.639   6.992   5.123  0.5458 -1.0401 -0.0474
  318MOL0     O43754   0.654   7.035   4.992  0.0125  1.0015  0.3233
  318MOL0     C43755   0.558   7.133   4.937 -0.6905  0.6169  0.4320
  318MOL0     C43756   0.590   7.279   4.989 -0.0479 -0.0757 -0.6231
  318MOL0     C43757   0.728   7.327   4.943 -0.5107 -0.2761  0.0515
  318MOL0     C43758   0.730   7.403   4.803 -0.0664 -0.1040 -0.5894
  318MOL0     C43759   0.864   7.450   4.758 -0.1394 -0.5631  0.3170
  318MOL0     C43760   0.952   7.336   4.702  0.3734 -0.3881  0.2249
  318MOL0     C43761   1.081   7.417   4.665 -0.4820  0.3545 -0.6436
  318MOL0     C43762   1.186   7.325   4.614 -0.3044 -0.0924 -0.5269
  318MOL0     N43763   1.299   7.404   4.572 -0.6458 -0.4708  0.2006
  318MOL0     C43764   1.297   7.516   4.488  0.4669  0.7667  0.8199
  318MOL0     C43765   1.415   7.576   4.509  0.3865  0.5486  0.1855
  318MOL0     C43766   1.469   7.702   4.457  0.2784 -0.1690 -1.1783
  318MOL0     C43767   1.557   7.781   4.555 -0.4076 -0.2699  0.0084
  318MOL0     C43768   1.478   7.822   4.679 -0.0754 -0.8383  0.7151
  318MOL0     C43769   1.582   7.842   4.788 -0.6739  0.0750 -0.4065
  318MOL0     O43770   1.683   7.931   4.735 -0.4054 -0.2847 -0.2847
  318MOL0     C43771   1.795   7.949   4.814 -1.2571 -0.1754  0.3655
  318MOL0     C43772   1.820   7.883   4.938 -0.0963 -0.7859 -0.2348
  318MOL0     C43773   1.923   7.912   5.024 -0.5938  0.0500  0.4712
  318MOL0     C43774   1.942   7.829   5.147  0.2871  0.0451 -0.0494
  318MOL0     C43775   2.014   8.010   4.984 -0.1089 -0.0858 -0.9500
  318MOL0     C43776   2.139   8.039   5.061  0.0497 -1.0608 -0.1302
  318MOL0     O43777   2.192   8.165   5.047  0.7504  0.8842  0.2281
  318MOL0     C43778   2.302   8.194   5.115 -0.7651  0.3460 -0.7802
  318MOL0     C43779   2.292   8.291   5.211  0.4597  0.3001 -0.6872
  318MOL0     C43780   2.389   8.335   5.294 -0.3572 -0.3337 -0.4788
  318MOL0     C43781   2.519   8.283   5.275  0.0472  1.0708 -0.7487
  318MOL0     O43782   2.620   8.316   5.357  0.0329  0.3962  0.0150
  318MOL0     C43783   2.721   8.389   5.288  0.4807 -0.7739 -0.2832
  318MOL0     C43784   2.816   8.426   5.392 -0.6556  0.1255 -0.1348
  318MOL0     C43785   2.938   8.487   5.328  0.2449 -0.7043 -1.0880
  318MOL0     C43786   3.052   8.482   5.426  0.8238 -0.7334 -0.0642
  318MOL0     C43787   3.180   8.547   5.375  0.6359 -0.4011 -0.1451
  318MOL0     C43788   3.278   8.557   5.492 -0.4282 -0.2512  0.5776
  318MOL0     C43789   3.426   8.598   5.450  0.6676 -0.1114  0.5295
  318MOL0     C43790   3.529   8.557   5.544  0.1240  0.9012 -0.5345
  318MOL0    Cl43791   3.692   8.589   5.473  0.3549 -0.1534  0.0187
  318MOL0     C43792   2.539   8.189   5.169 -1.4188  0.2740 -0.0251
  318MOL0     C43793   2.429   8.133   5.096 -0.2812 -0.0949  0.1686
  318MOL0     O43794   2.186   7.952   5.121 -0.0777  0.2132 -0.0925
  318MOL0     C43795   2.001   8.069   4.864  0.6118 -0.2305  0.2144
  318MOL0     C43796   1.893   8.042   4.778  0.6671 -0.1979 -0.6818
  318MOL0     N43797   1.490   7.495   4.587 -0.4767 -0.0177  0.5644
  318MOL0     N43798   1.423   7.396   4.627 -0.7059 -0.8366 -0.0888
  318MOL0     C43799   0.513   6.971   5.184 -0.1389 -0.5551 -0.1840
  318MOL0     C43800   0.501   6.918   5.310 -0.0668  0.4015  0.6054
  318MOL0     C43801   0.673   6.739   5.714  0.4321 -0.1850  0.3300
  318MOL0     C43802   0.618   6.632   5.780  0.1620  0.1138  0.3159
  318MOL0     C43803   0.608   6.627   5.917  0.2483  0.1320  0.2077
  318MOL0     C43804   0.655   6.729   6.000  0.4306  0.4010  0.2504
  318MOL0     O43805   0.636   6.732   6.141 -0.6015  0.4652  0.0103
  318MOL0     C43806   0.665   6.851   6.218 -0.2692  0.5326 -0.1013
  318MOL0     C43807   0.618   6.810   6.367 -1.1880 -0.2285 -0.0422
  318MOL0     C43808   0.725   6.736   6.447 -1.2531 -0.5820 -0.0642
  318MOL0     C43809   0.736   6.584   6.407 -0.2007 -0.1219 -0.0467
  318MOL0     C43810   0.872   6.523   6.438  0.0842 -0.5500 -0.3927
  318MOL0     C43811   0.968   6.447   6.443 -0.4642  0.4800  0.9430
  318MOL0     C43812   0.712   6.836   5.929  0.1871 -0.8793  0.4418
  318MOL0     C43813   0.730   6.841   5.787  0.5620  0.6252 -0.0837
  318MOL0     C43814   0.811   6.954   5.733 -0.0597  0.3012  0.0888
  318MOL0     H43815   0.834   6.847   5.368  0.0500 -0.8301 -0.9850
  318MOL0     H43816   0.848   6.959   5.149  0.7963  1.3276  1.0767
  318MOL0     H43817   0.456   7.098   4.957 -0.5832  0.6631  1.0836
  318MOL0     H43818   0.576   7.129   4.829 -1.5924 -1.0394  0.3082
  318MOL0     H43819   0.511   7.349   4.961  0.8832  1.2687 -0.0219
  318MOL0     H43820   0.593   7.284   5.098 -3.8917  0.7248 -0.4101
  318MOL0     H43821   0.755   7.396   5.023  1.1702 -1.8015  0.8683
  318MOL0     H43822   0.810   7.255   4.946 -0.7153 -0.4752  1.9468
  318MOL0     H43823   0.684   7.339   4.727  0.4442 -1.0023 -0.1564
  318MOL0     H43824   0.676   7.495   4.828  0.8209  0.4416 -0.6350
  318MOL0     H43825   0.911   7.494   4.846 -0.4763 -0.8316  0.6348
  318MOL0     H43826   0.859   7.533   4.687 -0.5820  2.5564  3.6820
  318MOL0     H43827   0.971   7.265   4.784 -1.6924  1.9502  2.9575
  318MOL0     H43828   0.907   7.286   4.616 -0.8472  1.4978 -0.2910
  318MOL0     H43829   1.125   7.476   4.746  0.3877  0.5783 -1.2690
  318MOL0     H43830   1.054   7.489   4.587  1.5429  1.9388  0.0237
  318MOL0     H43831   1.209   7.251   4.691 -2.9844  1.3224  1.8157
  318MOL0     H43832   1.156   7.274   4.523 -2.3592 -1.9574  1.0965
  318MOL0     H43833   1.208   7.545   4.434  0.3510 -0.2703  0.4390
  318MOL0     H43834   1.386   7.770   4.435 -0.3641 -0.5700 -0.0822
  318MOL0     H43835   1.528   7.699   4.365  0.6264 -0.3288 -0.9509
  318MOL0     H43836   1.650   7.728   4.578  1.5452  2.5936 -0.7510
  318MOL0     H43837   1.594   7.869   4.502 -3.3500  1.6445  0.8757
  318MOL0     H43838   1.421   7.913   4.662 -2.8596 -2.0126  2.8395
  318MOL0     H43839   1.416   7.737   4.709 -0.3596 -1.2129 -0.8344
  318MOL0     H43840   1.536   7.880   4.880 -0.1007  2.8473 -1.1722
  318MOL0     H43841   1.634   7.751   4.816  1.9708  1.6239  0.0435
  318MOL0     H43842   1.758   7.799   4.967  0.3023 -0.5595  1.3729
  318MOL0     H43843   1.843   7.791   5.173  1.1281 -2.3172 -0.1272
  318MOL0     H43844   1.977   7.892   5.230  2.4901 -0.4109 -0.5730
  318MOL0     H43845   2.020   7.753   5.135 -0.5868 -0.5162 -3.1792
  318MOL0     H43846   2.201   8.345   5.234  0.3314  1.0267 -2.7838
  318MOL0     H43847   2.381   8.412   5.370  1.5011 -0.6931  0.1416
  318MOL0     H43848   2.766   8.338   5.203 -1.3736  1.0565 -2.5198
  318MOL0     H43849   2.662   8.468   5.238  0.6343 -0.2396  0.3650
  318MOL0     H43850   2.772   8.489   5.470 -1.6662  2.1754 -2.2329
  318MOL0     H43851   2.832   8.327   5.434 -1.2047 -0.1326 -0.5301
  318MOL0     H43852   2.909   8.592   5.319  1.9971 -0.0277  0.3784
  318MOL0     H43853   2.958   8.463   5.224 -0.4248  0.4287 -1.4979
  318MOL0     H43854   3.076   8.377   5.442 -0.8111 -0.6932  3.7774
  318MOL0     H43855   3.025   8.517   5.526  1.9968 -3.3767  1.2735
  318MOL0     H43856   3.224   8.484   5.297 -0.0138  0.4784 -1.2709
  318MOL0     H43857   3.162   8.646   5.331  2.3840 -1.1963 -2.9216
  318MOL0     H43858   3.285   8.453   5.524  1.9717 -0.6431 -0.9462
  318MOL0     H43859   3.237   8.618   5.573  2.5723  1.4817  0.9421
  318MOL0     H43860   3.426   8.707   5.439  0.0804 -0.3820 -3.6918
  318MOL0     H43861   3.454   8.562   5.351  1.0537 -0.5014  0.7792
  318MOL0     H43862   3.513   8.449   5.552 -1.1554  1.1237  0.1102
  318MOL0     H43863   3.514   8.608   5.640 -3.3942 -2.3307  0.8664
  318MOL0     H43864   2.641   8.156   5.153 -0.4381  3.9613 -2.5395
  318MOL0     H43865   2.458   8.054   5.027 -0.5732  1.2567 -1.5665
  318MOL0     H43866   2.060   8.155   4.832 -1.6741  0.6999 -1.8352
  318MOL0     H43867   1.879   8.097   4.686 -0.6375  3.5697  1.5171
  318MOL0     H43868   0.429   6.995   5.120 -0.8865 -1.6404  0.3464
  318MOL0     H43869   0.406   6.904   5.361  1.4545  0.3968  3.6953
  318MOL0     H43870   0.569   6.560   5.715  0.1463  1.0052 -0.6967
  318MOL0     H43871   0.544   6.549   5.958  2.4047 -1.5270  0.6207
  318MOL0     H43872   0.768   6.887   6.210 -0.4819  0.9134 -1.2341
  318MOL0     H43873   0.596   6.930   6.187 -0.5374  0.3706  0.0765
  318MOL0     H43874   0.531   6.745   6.380 -1.5610  0.3131  0.2156
  318MOL0     H43875   0.594   6.898   6.427  2.2624 -0.5909  2.1262
  318MOL0     H43876   0.823   6.784   6.442 -0.3470 -2.1725  1.2986
  318MOL0     H43877   0.693   6.730   6.552 -0.5040  0.5540  0.2524
  318MOL0     H43878   0.708   6.575   6.301  0.1883  1.0665 -0.2688
  318MOL0     H43879   0.659   6.534   6.467 -0.7892  2.0638  1.1244
  318MOL0     H43880   1.047   6.376   6.458 -1.8167 -1.6307 -1.1799
  318MOL0     H43881   0.759   6.916   5.985  0.0806 -0.5991  0.1348
  318MOL0     H43882   0.789   7.043   5.793  0.7666 -0.2103  1.1963
  318MOL0     H43883   0.919   6.935   5.745 -0.7138 -4.6233  0.5608
  318MOL0     H43884   0.789   6.968   5.627  1.0638  2.9429  0.1281
  319MOL0     O43885   6.991   0.904   3.214 -1.1855  0.1465 -0.9481
  319MOL0     C43886   7.018   0.971   3.122 -0.3597 -0.4657  0.8350
  319MOL0     O43887   7.032   0.933   2.996 -0.1935  0.5002 -0.0738
  319MOL0     C43888   7.024   0.798   2.970 -0.3676  0.2151  0.8886
  319MOL0     C43889   6.928   0.767   2.886 -0.3883  0.3794  0.2520
  319MOL0     C43890   6.921   0.640   2.835  0.3794 -1.0591  0.3441
  319MOL0     C43891   7.009   0.548   2.874 -0.3897  0.0385  0.4134
  319MOL0     O43892   6.995   0.431   2.809 -0.1495  0.1100 -0.0267
  319MOL0     C43893   7.017   0.307   2.881  0.1724  0.7884  0.5236
  319MOL0     C43894   6.977   0.178   2.800  0.5387  0.0214  0.4588
  319MOL0     C43895   7.075   0.066   2.819  0.2044 -0.4566  0.4284
  319MOL0     C43896   7.036  -0.051   2.731  0.4435  0.0617 -0.0048
  319MOL0     C43897   7.144  -0.164   2.741  1.0760 -0.1195 -0.6388
  319MOL0     C43898   7.118  -0.273   2.638  0.1615  0.0631  0.4201
  319MOL0     C43899   7.229  -0.378   2.623  0.2389  0.4325 -0.8760
  319MOL0     C43900   7.228  -0.449   2.484  1.5206 -0.5831  0.4283
  319MOL0     N43901   7.353  -0.516   2.457  0.2786 -0.2960  0.6201
  319MOL0     C43902   7.379  -0.644   2.490 -0.0272  0.1155  0.3490
  319MOL0     C43903   7.508  -0.661   2.461  0.1598  0.3617 -0.1575
  319MOL0     C43904   7.570  -0.795   2.466 -0.3420  0.3804 -0.8131
  319MOL0     C43905   7.717  -0.794   2.469 -0.5396  0.2941 -0.2209
  319MOL0     C43906   7.799  -0.929   2.477  0.5129 -0.3439 -0.0711
  319MOL0     C43907   7.941  -0.911   2.506 -0.1855 -0.3749 -0.1388
  319MOL0     O43908   7.999  -1.040   2.485 -0.3891 -0.2636  0.1619
  319MOL0     C43909   8.133  -1.045   2.516  0.1229  1.2046 -0.2326
  319MOL0     C43910   8.171  -1.060   2.647  0.3474  0.2215  0.1586
  319MOL0     C43911   8.304  -1.076   2.680 -0.1081  0.3598 -0.3123
  319MOL0     C43912   8.342  -1.079   2.830 -0.7842 -0.4801  0.0365
  319MOL0     C43913   8.403  -1.073   2.574 -0.8490 -0.2470  0.0179
  319MOL0     C43914   8.545  -1.078   2.615 -0.0969 -0.9562 -1.0266
  319MOL0     O43915   8.627  -1.044   2.507  0.6926  0.1561  0.1731
  319MOL0     C43916   8.762  -1.068   2.530  0.2425  0.2740  1.2342
  319MOL0     C43917   8.812  -1.197   2.519  0.0725  0.0162  1.0427
  319MOL0     C43918   8.952  -1.221   2.543 -0.4911 -0.3140  0.7494
  319MOL0     C43919   9.040  -1.113   2.570 -0.3353 -0.0664  0.0559
  319MOL0     O43920   9.178  -1.141   2.580  0.1625  0.5493 -0.2527
  319MOL0     C43921   9.216  -1.163   2.721 -0.4311  0.2834  0.7812
  319MOL0     C43922   9.267  -1.311   2.732  0.0867  0.0352  0.1725
  319MOL0     C43923   9.419  -1.333   2.714 -0.5058  0.3800  0.3403
  319MOL0     C43924   9.465  -1.480   2.742  0.3812  0.2275  0.6255
  319MOL0     C43925   9.615  -1.504   2.723 -0.0435  0.3193  0.0154
  319MOL0     C43926   9.711  -1.393   2.778 -0.8537  0.5822 -0.4110
  319MOL0     C43927   9.859  -1.416   2.717 -0.4991  0.3939 -0.3382
  319MOL0     C43928   9.964  -1.363   2.810 -0.7185  0.6188  0.3396
  319MOL0    Cl43929   9.952  -1.187   2.840  1.0097  0.2941  0.1625
  319MOL0     C43930   8.988  -0.980   2.578 -0.1482  0.6512 -0.0383
  319MOL0     C43931   8.852  -0.964   2.559  0.0043 -0.6384 -0.1750
  319MOL0     O43932   8.590  -1.109   2.733 -0.4313  0.2864  0.2243
  319MOL0     C43933   8.364  -1.063   2.440  0.5371  0.4320 -0.2811
  319MOL0     C43934   8.225  -1.053   2.416 -0.0469 -0.8428  0.2879
  319MOL0     N43935   7.554  -0.551   2.395 -0.3242 -0.3816 -0.2186
  319MOL0     N43936   7.462  -0.459   2.405 -0.1488 -0.1626  0.1783
  319MOL0     C43937   7.109   0.573   2.972 -0.2293 -0.0805 -0.2969
  319MOL0     C43938   7.119   0.706   3.014  0.3986  0.2947  0.5481
  319MOL0     C43939   7.056   1.114   3.160  1.4185  1.0643  0.3806
  319MOL0     C43940   7.170   1.163   3.094  1.1704 -0.1040  0.0625
  319MOL0     C43941   7.209   1.296   3.103  0.0054 -1.4843  0.5787
  319MOL0     C43942   7.137   1.381   3.190  0.0895  0.1153  0.0447
  319MOL0     O43943   7.166   1.509   3.217  0.2221  0.3719 -0.4068
  319MOL0     C43944   7.291   1.565   3.170  0.3717  0.2586  0.3130
  319MOL0     C43945   7.318   1.710   3.214 -0.2771  0.3088  0.0347
  319MOL0     C43946   7.236   1.828   3.146  0.5431 -0.0823 -0.0181
  319MOL0     C43947   7.091   1.814   3.187  0.5546 -0.3814 -0.3716
  319MOL0     C43948   7.073   1.870   3.317  0.0302 -0.2336 -0.0489
  319MOL0     C43949   7.061   1.923   3.423  0.0312  0.2388  0.4798
  319MOL0     C43950   7.021   1.335   3.247 -0.3228 -0.1159 -0.5183
  319MOL0     C43951   6.974   1.203   3.232 -0.6244  0.3449 -0.2972
  319MOL0     C43952   6.849   1.163   3.312  0.5285  0.0069  0.2122
  319MOL0     H43953   6.853   0.841   2.860 -0.4031 -0.0349 -0.9757
  319MOL0     H43954   6.850   0.616   2.756  1.6294 -1.9628 -0.5393
  319MOL0     H43955   6.955   0.303   2.971 -3.1302 -1.0732 -1.6270
  319MOL0     H43956   7.122   0.300   2.912  0.4743  0.0088 -0.6019
  319MOL0     H43957   6.881   0.146   2.842 -0.4546  0.9148 -1.0479
  319MOL0     H43958   6.968   0.200   2.693  0.8087  1.8473  0.7762
  319MOL0     H43959   7.180   0.093   2.802 -0.0157  1.0847  1.3691
  319MOL0     H43960   7.077   0.038   2.925  0.5090  2.0163  1.1374
  319MOL0     H43961   6.943  -0.103   2.754  1.3917 -1.1266  1.3700
  319MOL0     H43962   7.022  -0.026   2.625  1.5906 -4.2592 -1.4002
  319MOL0     H43963   7.126  -0.213   2.837 -0.2346  1.2089 -0.1745
  319MOL0     H43964   7.249  -0.136   2.730  0.6351  1.5890 -0.7798
  319MOL0     H43965   7.021  -0.312   2.669 -1.1664  2.8173  0.0309
  319MOL0     H43966   7.098  -0.231   2.539  4.2080 -1.4789 -1.2819
  319MOL0     H43967   7.215  -0.452   2.702  1.0505  2.0100  0.8333
  319MOL0     H43968   7.327  -0.333   2.640  0.0707  0.6923 -0.5815
  319MOL0     H43969   7.154  -0.526   2.465 -0.2547  1.1767 -0.1645
  319MOL0     H43970   7.224  -0.360   2.420  2.0973  4.1968  6.1536
  319MOL0     H43971   7.302  -0.717   2.514  0.8273 -1.0942 -0.4236
  319MOL0     H43972   7.544  -0.851   2.375 -2.2224 -0.6137  0.2678
  319MOL0     H43973   7.545  -0.852   2.556  1.2623  0.1682 -0.4696
  319MOL0     H43974   7.752  -0.748   2.376 -5.6815  3.0933 -1.1885
  319MOL0     H43975   7.749  -0.747   2.562 -1.3713  1.6046 -0.5690
  319MOL0     H43976   7.744  -0.993   2.547 -0.0500 -0.7071 -0.8274
  319MOL0     H43977   7.789  -0.982   2.382 -0.7385  1.4281 -1.0070
  319MOL0     H43978   7.983  -0.829   2.447  0.9425  1.0542  2.4835
  319MOL0     H43979   7.955  -0.882   2.611  3.0508  0.4107 -0.6615
  319MOL0     H43980   8.088  -1.061   2.717 -1.8711  2.2708 -2.1986
  319MOL0     H43981   8.393  -1.172   2.858  1.6608  0.9602  0.7220
  319MOL0     H43982   8.254  -1.074   2.895 -0.8947 -3.0560  0.1978
  319MOL0     H43983   8.406  -1.000   2.871 -0.4758 -1.4404  1.4845
  319MOL0     H43984   8.751  -1.285   2.500  4.1506 -2.7849 -0.6475
  319MOL0     H43985   9.006  -1.314   2.528  2.3426  1.0774  1.5258
  319MOL0     H43986   9.290  -1.087   2.748  0.0033 -0.4049  1.5545
  319MOL0     H43987   9.130  -1.145   2.786 -0.3218 -3.6362  2.2715
  319MOL0     H43988   9.228  -1.351   2.826  1.1447  0.4633  0.8124
  319MOL0     H43989   9.218  -1.369   2.653  0.6780  0.3516 -0.4448
  319MOL0     H43990   9.463  -1.268   2.789 -0.9721 -1.7765  2.5930
  319MOL0     H43991   9.442  -1.321   2.607  0.4042 -3.4807 -0.0431
  319MOL0     H43992   9.421  -1.536   2.659 -0.1529  0.6790  0.5917
  319MOL0     H43993   9.440  -1.529   2.837  4.0498 -1.3101  0.9578
  319MOL0     H43994   9.627  -1.600   2.774 -1.2279 -1.7271 -3.2254
  319MOL0     H43995   9.637  -1.530   2.618 -2.8972 -1.2405 -0.3036
  319MOL0     H43996   9.707  -1.405   2.886 -0.0583 -1.2214 -0.5554
  319MOL0     H43997   9.662  -1.301   2.743 -3.9133 -0.1619  1.5279
  319MOL0     H43998   9.864  -1.351   2.630  2.2788 -1.6164 -1.8331
  319MOL0     H43999   9.886  -1.518   2.686  1.8467  0.9775 -0.4128
  319MOL0     H44000  10.062  -1.377   2.763  0.3217  1.5186  2.1407
  319MOL0     H44001   9.962  -1.420   2.903  1.8663  0.6518  0.5031
  319MOL0     H44002   9.058  -0.903   2.606 -0.7438  0.6876  1.4325
  319MOL0     H44003   8.818  -0.861   2.568  2.7786  0.4663 -1.2149
  319MOL0     H44004   8.423  -1.049   2.350  2.3851 -1.1042  0.6378
  319MOL0     H44005   8.186  -1.050   2.315 -0.2282  0.6912  0.3793
  319MOL0     H44006   7.166   0.500   3.028  0.4393  0.4241 -0.3138
  319MOL0     H44007   7.202   0.746   3.071  0.4866 -0.2489  0.8043
  319MOL0     H44008   7.222   1.091   3.032  1.0002  1.2359 -1.7105
  319MOL0     H44009   7.301   1.319   3.050 -0.5368 -0.6350 -0.0218
  319MOL0     H44010   7.375   1.497   3.190 -0.1621  0.0360  1.8477
  319MOL0     H44011   7.287   1.566   3.060 -1.0334 -3.8399  0.1431
  319MOL0     H44012   7.425   1.724   3.196 -0.3745  0.7481 -0.2125
  319MOL0     H44013   7.302   1.712   3.323  3.2372  0.4546  0.6860
  319MOL0     H44014   7.274   1.928   3.172  1.9277 -0.2651 -1.2032
  319MOL0     H44015   7.237   1.808   3.038 -0.7450  1.0060 -0.2702
  319MOL0     H44016   7.050   1.714   3.172  0.4589 -0.3905 -0.0666
  319MOL0     H44017   7.040   1.878   3.115  1.8470  2.0329  0.7360
  319MOL0     H44018   7.047   1.959   3.523 -4.3415 -3.7851  1.6922
  319MOL0     H44019   6.956   1.409   3.292 -0.0864  0.0626 -0.4743
  319MOL0     H44020   6.795   1.249   3.354  0.3371 -0.9525  2.0684
  319MOL0     H44021   6.784   1.117   3.237  0.0244  0.5045  0.3316
  319MOL0     H44022   6.889   1.093   3.386 -1.0758 -1.6785 -0.4276
  320MOL0     O44023   5.413   0.602   6.281  0.1071  0.5216  0.9085
  320MOL0     C44024   5.465   0.573   6.177  0.4850 -0.6703 -0.6549
  320MOL0     O44025   5.597   0.612   6.152  0.0029  0.4065 -0.6217
  320MOL0     C44026   5.675   0.680   6.242 -0.4925 -0.0284 -0.0847
  320MOL0     C44027   5.689   0.638   6.376  0.1508 -0.9734 -0.4785
  320MOL0     C44028   5.771   0.703   6.457 -0.6010 -0.4749 -0.0669
  320MOL0     C44029   5.836   0.820   6.413 -0.1346 -0.0188 -0.7372
  320MOL0     O44030   5.912   0.893   6.500  0.1329  0.0490  0.6056
  320MOL0     C44031   6.007   0.825   6.575  0.4875  0.0116  0.9375
  320MOL0     C44032   6.132   0.921   6.584  1.0582  0.1575 -0.2546
  320MOL0     C44033   6.258   0.853   6.654  0.3028  0.1033  0.1335
  320MOL0     C44034   6.390   0.882   6.583  0.2378 -0.2889 -0.7653
  320MOL0     C44035   6.504   0.840   6.676 -0.3187 -0.5871  0.0269
  320MOL0     C44036   6.644   0.874   6.609 -0.4281  0.4237 -0.4054
  320MOL0     C44037   6.649   0.810   6.470  0.0182  0.6432 -0.2328
  320MOL0     C44038   6.800   0.783   6.430  0.0137 -0.3991  0.1471
  320MOL0     N44039   6.845   0.638   6.466 -0.0248 -0.2777  1.1717
  320MOL0     C44040   6.959   0.584   6.405 -0.2122 -0.3537  0.1176
  320MOL0     C44041   6.991   0.478   6.479 -0.5761 -0.0517  0.3797
  320MOL0     C44042   7.106   0.379   6.443  0.3456 -0.0773  0.9009
  320MOL0     C44043   7.112   0.239   6.514 -1.1204  0.4200 -0.1822
  320MOL0     C44044   7.128   0.244   6.669 -0.3975 -0.1218 -0.1942
  320MOL0     C44045   7.124   0.109   6.748  0.0686  0.4122  1.3016
  320MOL0     O44046   7.144   0.146   6.884 -0.3237 -0.3291 -0.3639
  320MOL0     C44047   7.120   0.037   6.971  0.0745 -0.4446  0.6975
  320MOL0     C44048   7.101   0.068   7.103 -0.3642  0.1141  0.4462
  320MOL0     C44049   7.088  -0.026   7.207  0.6722  0.1201 -0.0853
  320MOL0     C44050   7.026   0.030   7.333 -0.4818  1.0256  1.0671
  320MOL0     C44051   7.094  -0.157   7.175 -0.9386  0.1270  0.1322
  320MOL0     C44052   7.087  -0.273   7.273 -0.5774  0.0808 -0.6571
  320MOL0     O44053   7.069  -0.398   7.211 -0.1527  0.3665 -0.0206
  320MOL0     C44054   7.036  -0.513   7.286  0.5449  0.3296 -0.2120
  320MOL0     C44055   6.993  -0.632   7.222  0.6778  0.2189  0.2931
  320MOL0     C44056   6.952  -0.754   7.297 -0.5712 -0.1403  1.0164
  320MOL0     C44057   6.952  -0.759   7.433  0.3373  0.4287 -0.5602
  320MOL0     O44058   6.936  -0.884   7.486  0.0008 -0.1483  0.2668
  320MOL0     C44059   6.864  -0.900   7.607 -0.4073 -0.2235 -0.1118
  320MOL0     C44060   6.858  -1.052   7.634 -0.1154 -0.9640  0.3404
  320MOL0     C44061   6.796  -1.084   7.769  0.1106  0.1925  0.0835
  320MOL0     C44062   6.810  -1.236   7.801  0.0306  0.2888  0.5036
  320MOL0     C44063   6.829  -1.275   7.948 -0.2876 -0.1615 -0.7712
  320MOL0     C44064   6.701  -1.336   7.998  0.5561 -1.1133  0.7471
  320MOL0     C44065   6.699  -1.366   8.142  0.0570 -0.1568  0.1221
  320MOL0     C44066   6.812  -1.458   8.181  1.5877  0.2485  0.0032
  320MOL0    Cl44067   6.816  -1.601   8.084 -0.6582  0.2546 -0.1682
  320MOL0     C44068   6.995  -0.645   7.493  0.5991 -1.1260 -0.7242
  320MOL0     C44069   7.033  -0.525   7.429  0.4431 -0.5524  0.2894
  320MOL0     O44070   7.101  -0.246   7.391  0.8005  0.0540  0.0755
  320MOL0     C44071   7.127  -0.189   7.045  0.0425  0.2272  0.7623
  320MOL0     C44072   7.136  -0.099   6.940 -0.7733 -0.8442  0.5580
  320MOL0     N44073   6.893   0.459   6.574 -0.0168  0.3914  0.1216
  320MOL0     N44074   6.806   0.552   6.560 -0.1842  0.4084  0.1090
  320MOL0     C44075   5.815   0.865   6.281  0.2344  0.0084  0.0949
  320MOL0     C44076   5.738   0.796   6.196  0.4346 -0.2432  1.2675
  320MOL0     C44077   5.389   0.483   6.081  1.0778  0.2896  0.1720
  320MOL0     C44078   5.441   0.471   5.954 -0.4691  0.1632  0.1458
  320MOL0     C44079   5.377   0.397   5.850 -0.2904 -0.2469 -0.3387
  320MOL0     C44080   5.258   0.327   5.869  0.5674 -0.2153  0.3913
  320MOL0     O44081   5.206   0.235   5.785  0.3107 -0.4879  0.0539
  320MOL0     C44082   5.259   0.210   5.657  0.5709  0.0723 -0.9498
  320MOL0     C44083   5.155   0.147   5.569  0.6913 -0.5548  0.6108
  320MOL0     C44084   5.100   0.018   5.635 -0.2308 -0.6752 -0.1213
  320MOL0     C44085   5.199  -0.108   5.620  0.6433  0.1196  0.9783
  320MOL0     C44086   5.216  -0.139   5.475  0.1674 -0.4214 -0.4450
  320MOL0     C44087   5.230  -0.172   5.357 -0.4716 -0.1960  0.0409
  320MOL0     C44088   5.204   0.338   5.995  1.1136  0.9323  0.3774
  320MOL0     C44089   5.255   0.421   6.103 -0.1006  0.4285  0.8750
  320MOL0     C44090   5.182   0.430   6.237 -0.4054 -0.7646 -1.2713
  320MOL0     H44091   5.636   0.546   6.398  1.1729 -1.7222 -1.0436
  320MOL0     H44092   5.796   0.680   6.559  0.3433  1.6308  0.2270
  320MOL0     H44093   6.036   0.740   6.514  1.7623  1.7132 -0.9449
  320MOL0     H44094   5.960   0.798   6.670  1.0679  3.4653  2.3719
  320MOL0     H44095   6.152   0.954   6.481 -0.0179 -2.7832 -1.5131
  320MOL0     H44096   6.110   1.010   6.643 -0.5020 -0.3510 -0.0399
  320MOL0     H44097   6.273   0.885   6.757  1.4432  2.6065 -0.7234
  320MOL0     H44098   6.230   0.747   6.653 -2.1563  0.6973  0.5339
  320MOL0     H44099   6.401   0.827   6.489  3.3478  0.0930 -0.7083
  320MOL0     H44100   6.396   0.989   6.561 -0.7932 -0.2136 -0.7436
  320MOL0     H44101   6.487   0.734   6.699  2.5945 -0.8049  1.5540
  320MOL0     H44102   6.506   0.907   6.762  0.0786 -2.2716  1.3979
  320MOL0     H44103   6.655   0.981   6.593  0.2202  0.2391 -1.2630
  320MOL0     H44104   6.729   0.840   6.669  0.1918  2.5892  0.0065
  320MOL0     H44105   6.610   0.886   6.401 -2.9103  1.2524  1.9167
  320MOL0     H44106   6.585   0.722   6.458  1.5855 -0.6333  0.3854
  320MOL0     H44107   6.804   0.786   6.321  0.0724 -1.5387  0.1042
  320MOL0     H44108   6.880   0.848   6.466  2.6984 -3.3724  0.0493
  320MOL0     H44109   7.013   0.609   6.314 -0.4841 -1.7209 -0.4270
  320MOL0     H44110   7.196   0.437   6.466 -1.5024  5.6394 -3.9267
  320MOL0     H44111   7.101   0.365   6.335 -0.3472 -0.2147  0.9439
  320MOL0     H44112   7.018   0.188   6.488 -0.2359 -1.2004 -0.3253
  320MOL0     H44113   7.190   0.187   6.458 -2.6213  0.8034 -2.7797
  320MOL0     H44114   7.231   0.273   6.689 -0.3193 -0.1021 -0.6234
  320MOL0     H44115   7.054   0.305   6.722  1.4383 -1.8386  5.0654
  320MOL0     H44116   7.028   0.061   6.727  0.5079  0.5005 -1.3079
  320MOL0     H44117   7.202   0.052   6.696 -1.7141 -1.1842  0.2373
  320MOL0     H44118   7.097   0.174   7.125  0.2859  0.7563 -2.1964
  320MOL0     H44119   7.001   0.136   7.323  0.3091  1.0217 -1.4545
  320MOL0     H44120   7.099   0.028   7.415 -0.9105 -0.4471  1.4484
  320MOL0     H44121   6.934  -0.022   7.364 -1.6088  2.6271  0.5808
  320MOL0     H44122   6.989  -0.635   7.113  1.9822  3.4065  0.0506
  320MOL0     H44123   6.918  -0.844   7.248 -1.6182  0.0687  1.3333
  320MOL0     H44124   6.912  -0.841   7.685  1.8189  1.1755 -2.3753
  320MOL0     H44125   6.761  -0.862   7.604 -0.0453  0.7976  0.3376
  320MOL0     H44126   6.799  -1.098   7.554 -1.0651 -0.4100  0.7050
  320MOL0     H44127   6.957  -1.098   7.632 -0.4689 -1.7942  1.0726
  320MOL0     H44128   6.691  -1.054   7.778  0.1112 -0.4547  3.4346
  320MOL0     H44129   6.847  -1.022   7.844  0.9171  0.7374 -0.8922
  320MOL0     H44130   6.884  -1.288   7.740 -0.3648  0.9085 -0.5378
  320MOL0     H44131   6.718  -1.278   7.758 -0.0015  1.4410 -0.6350
  320MOL0     H44132   6.908  -1.350   7.947 -0.6828 -0.6244  0.5646
  320MOL0     H44133   6.868  -1.193   8.010  0.9832 -0.7738 -0.7300
  320MOL0     H44134   6.697  -1.422   7.931  0.7801  0.8973 -1.9988
  320MOL0     H44135   6.619  -1.273   7.963  1.0269  1.0121  3.1951
  320MOL0     H44136   6.600  -1.391   8.183  0.5615  2.1822  3.1611
  320MOL0     H44137   6.707  -1.274   8.200 -0.0798  0.4019 -0.7345
  320MOL0     H44138   6.788  -1.500   8.280 -3.2323 -1.7249 -1.7067
  320MOL0     H44139   6.907  -1.404   8.175  2.0563 -0.7082 -1.7447
  320MOL0     H44140   6.994  -0.647   7.602  2.3972 -2.9066 -0.6791
  320MOL0     H44141   7.043  -0.439   7.494 -2.6906  0.5877 -0.5540
  320MOL0     H44142   7.144  -0.294   7.024 -0.9947  0.2156 -0.0763
  320MOL0     H44143   7.145  -0.129   6.836  1.2046  0.6784  0.2327
  320MOL0     H44144   5.860   0.960   6.252  0.4169 -0.1569 -0.1787
  320MOL0     H44145   5.719   0.826   6.093 -1.9002 -0.6638  1.5067
  320MOL0     H44146   5.534   0.520   5.926 -0.9124  0.3567 -1.0839
  320MOL0     H44147   5.438   0.380   5.762  2.3918 -2.4644  1.7304
  320MOL0     H44148   5.298   0.304   5.618  0.7839  1.0659  1.4906
  320MOL0     H44149   5.342   0.140   5.671 -0.3408 -1.1512 -1.4812
  320MOL0     H44150   5.193   0.127   5.468  0.4023 -2.4961  0.8371
  320MOL0     H44151   5.079   0.225   5.569  1.3491  0.1336  2.7380
  320MOL0     H44152   5.075   0.038   5.739  0.5435  0.8222 -0.2036
  320MOL0     H44153   5.010  -0.007   5.578 -0.8870  1.2830 -0.0263
  320MOL0     H44154   5.139  -0.194   5.651  1.7728 -1.4541 -1.0084
  320MOL0     H44155   5.292  -0.097   5.676 -0.9348 -2.4478  4.5708
  320MOL0     H44156   5.243  -0.203   5.255  2.2088  2.3663 -0.5160
  320MOL0     H44157   5.112   0.284   6.014  0.6524  1.1559 -1.1207
  320MOL0     H44158   5.086   0.377   6.232 -1.5445  0.6559  2.2904
  320MOL0     H44159   5.242   0.387   6.317 -3.9207  2.3358  3.6594
  320MOL0     H44160   5.179   0.536   6.265  2.0989 -1.1567  0.8218
  321MOL0     O44161   9.180   6.251   0.229  0.2500  0.0225 -0.7474
  321MOL0     C44162   9.074   6.314   0.252 -0.5580  0.4917  1.1280
  321MOL0     O44163   9.063   6.413   0.344  0.2201  0.6517 -0.0208
  321MOL0     C44164   9.173   6.434   0.430  1.2365  0.9697  0.1611
  321MOL0     C44165   9.152   6.410   0.568  0.2610  0.3772 -0.2698
  321MOL0     C44166   9.253   6.429   0.661  0.1900 -0.7445  0.4346
  321MOL0     C44167   9.384   6.463   0.621 -0.2774 -0.5869 -0.5672
  321MOL0     O44168   9.478   6.436   0.714  0.3878  0.0224 -0.5983
  321MOL0     C44169   9.619   6.436   0.677 -0.8531  0.2119  0.4601
  321MOL0     C44170   9.690   6.567   0.724 -0.2695  0.3402  0.8519
  321MOL0     C44171   9.694   6.585   0.876  0.2946  0.8784 -0.2262
  321MOL0     C44172   9.815   6.514   0.948  0.6082  0.9105  0.7499
  321MOL0     C44173   9.828   6.562   1.096  0.5718 -0.8175  0.8117
  321MOL0     C44174   9.939   6.493   1.165  0.2419  0.2464 -0.6527
  321MOL0     C44175  10.083   6.500   1.115 -0.5400  0.0880  0.5188
  321MOL0     C44176  10.159   6.634   1.141  0.0368  0.1246  0.1022
  321MOL0     N44177  10.304   6.616   1.106  1.3089 -0.1979  1.1692
  321MOL0     C44178  10.388   6.567   1.200  0.6803 -0.7408  0.1264
  321MOL0     C44179  10.505   6.549   1.138  0.4066 -0.2516  0.4218
  321MOL0     C44180  10.623   6.500   1.205  0.2209 -1.0353 -0.5133
  321MOL0     C44181  10.697   6.406   1.111 -0.1968  0.2053  0.3444
  321MOL0     C44182  10.814   6.466   1.041  0.0864 -0.5929  0.2749
  321MOL0     C44183  10.927   6.486   1.143  0.4644  0.1487 -0.2347
  321MOL0     O44184  11.032   6.521   1.053 -0.2610  0.2519  0.4684
  321MOL0     C44185  11.162   6.540   1.096  1.0511 -0.1720  0.3472
  321MOL0     C44186  11.208   6.527   1.225  0.4811 -0.4935 -0.5265
  321MOL0     C44187  11.328   6.572   1.266 -0.5574 -0.4492  0.3326
  321MOL0     C44188  11.356   6.557   1.415 -0.3587  0.1026  0.8145
  321MOL0     C44189  11.428   6.619   1.166  0.3624 -0.1616 -0.1624
  321MOL0     C44190  11.571   6.656   1.193 -0.9075  0.5698 -0.0909
  321MOL0     O44191  11.640   6.697   1.083 -0.4233  0.5835 -0.4258
  321MOL0     C44192  11.752   6.772   1.079  0.5415 -0.4531  0.0549
  321MOL0     C44193  11.849   6.747   0.989 -0.1852  0.7026  0.7144
  321MOL0     C44194  11.977   6.803   0.992  0.2873 -0.2246 -0.2877
  321MOL0     C44195  12.011   6.904   1.088 -0.1935  0.3585  0.5112
  321MOL0     O44196  12.140   6.965   1.079  0.6463  0.3689  0.0760
  321MOL0     C44197  12.166   7.086   1.149 -0.6692  0.6375 -0.2865
  321MOL0     C44198  12.277   7.170   1.100 -0.5228 -0.4845 -0.1312
  321MOL0     C44199  12.409   7.084   1.082  0.3265  0.4530  1.0139
  321MOL0     C44200  12.512   7.137   0.980 -0.1798  0.4324 -0.9004
  321MOL0     C44201  12.644   7.089   1.019 -0.3285  0.0690 -0.0071
  321MOL0     C44202  12.741   7.162   0.933  0.6145 -0.1093 -0.5015
  321MOL0     C44203  12.890   7.154   0.965  0.0655 -1.5121 -0.8922
  321MOL0     C44204  12.980   7.243   0.880 -0.2445 -0.8675  0.0872
  321MOL0    Cl44205  12.930   7.405   0.937  0.2420  0.2324  0.0516
  321MOL0     C44206  11.897   6.951   1.165 -0.2901  0.3255 -0.4531
  321MOL0     C44207  11.776   6.876   1.172 -0.7821  0.0187 -0.2493
  321MOL0     O44208  11.615   6.647   1.308 -0.8822 -0.0361 -0.3823
  321MOL0     C44209  11.382   6.619   1.032 -0.1120  0.7220  0.7741
  321MOL0     C44210  11.247   6.588   0.999  0.2491 -0.2535  0.1040
  321MOL0     N44211  10.493   6.595   1.009  0.2278 -0.5642  0.4190
  321MOL0     N44212  10.374   6.636   0.991  1.2113 -0.1909  0.5836
  321MOL0     C44213   9.406   6.495   0.481 -0.5161 -0.2490 -1.4108
  321MOL0     C44214   9.291   6.486   0.394  0.2110  0.8193  0.1318
  321MOL0     C44215   8.955   6.298   0.164  0.0355 -0.1099 -0.3314
  321MOL0     C44216   8.870   6.402   0.146  0.5099  0.3188 -1.2323
  321MOL0     C44217   8.751   6.379   0.084  0.4222 -0.2268  0.4419
  321MOL0     C44218   8.722   6.255   0.010  0.3841 -0.1267 -0.5184
  321MOL0     O44219   8.608   6.227  -0.061  0.3132  0.2566  0.3207
  321MOL0     C44220   8.486   6.287  -0.027 -0.1963  0.3722  0.0079
  321MOL0     C44221   8.369   6.225  -0.089  0.3802  0.4074  1.3432
  321MOL0     C44222   8.384   6.175  -0.240 -0.1495 -0.0408 -0.3469
  321MOL0     C44223   8.242   6.180  -0.314  0.6911  0.0289 -0.1502
  321MOL0     C44224   8.142   6.088  -0.270 -0.2015 -0.1763  0.3450
  321MOL0     C44225   8.046   6.022  -0.247  0.6069  1.4012  0.1859
  321MOL0     C44226   8.814   6.153   0.024  0.1186  0.2593 -0.9303
  321MOL0     C44227   8.925   6.170   0.102 -0.2218  0.0898  0.1919
  321MOL0     C44228   9.010   6.047   0.110 -0.2497  0.5398  0.8439
  321MOL0     H44229   9.054   6.384   0.607 -0.2626 -1.0592 -2.3416
  321MOL0     H44230   9.235   6.414   0.767  1.9307  2.3584  1.2967
  321MOL0     H44231   9.630   6.410   0.571  3.1314 -2.0103  1.1924
  321MOL0     H44232   9.672   6.348   0.715  0.7837  1.6074  1.5971
  321MOL0     H44233   9.795   6.563   0.695 -0.6548 -0.1406 -0.5785
  321MOL0     H44234   9.654   6.658   0.674 -1.0405 -0.2194  0.3765
  321MOL0     H44235   9.703   6.689   0.910  0.6817  0.8748 -0.3158
  321MOL0     H44236   9.604   6.544   0.922  2.2888 -3.2009  0.4605
  321MOL0     H44237   9.807   6.405   0.941  2.5008  0.7800  0.1407
  321MOL0     H44238   9.909   6.540   0.898  0.8268 -1.9963 -0.5763
  321MOL0     H44239   9.736   6.542   1.151 -0.7558  1.6193 -0.3816
  321MOL0     H44240   9.839   6.670   1.086 -1.4995 -0.6868 -0.7713
  321MOL0     H44241   9.934   6.516   1.272 -1.2915 -0.4963 -0.5432
  321MOL0     H44242   9.901   6.391   1.154  1.7953 -0.1708 -2.9058
  321MOL0     H44243  10.083   6.469   1.010  3.7969 -2.7938  1.0907
  321MOL0     H44244  10.134   6.421   1.170  0.6893  0.5593  0.0900
  321MOL0     H44245  10.109   6.713   1.085 -1.4474 -1.5501 -1.0494
  321MOL0     H44246  10.158   6.648   1.249  0.8450  3.8735 -0.2281
  321MOL0     H44247  10.372   6.542   1.304 -0.8366  0.4603  0.2220
  321MOL0     H44248  10.601   6.435   1.290 -0.9994 -0.7802 -0.6221
  321MOL0     H44249  10.685   6.585   1.235 -1.7616  0.5844 -0.8457
  321MOL0     H44250  10.755   6.324   1.155  1.4143 -0.3802 -2.6236
  321MOL0     H44251  10.626   6.364   1.040 -1.0513  1.3503  0.4890
  321MOL0     H44252  10.846   6.394   0.965 -1.0187  0.7088 -1.5185
  321MOL0     H44253  10.789   6.562   0.996  1.3328  0.3168  1.4374
  321MOL0     H44254  10.907   6.562   1.219  0.2600  0.3082 -0.4449
  321MOL0     H44255  10.957   6.399   1.201 -1.6328  0.3713  1.3293
  321MOL0     H44256  11.133   6.494   1.296  0.5870 -0.7952 -0.5544
  321MOL0     H44257  11.379   6.658   1.449 -0.1889 -0.9085  4.0548
  321MOL0     H44258  11.446   6.497   1.429 -0.8075 -0.4794  1.2965
  321MOL0     H44259  11.267   6.519   1.468 -0.4323 -0.4791  0.2871
  321MOL0     H44260  11.833   6.663   0.923 -0.7684  2.3159 -1.3302
  321MOL0     H44261  12.062   6.766   0.936  1.9227  0.9197  1.3223
  321MOL0     H44262  12.079   7.152   1.156 -1.5775 -0.3597 -1.6840
  321MOL0     H44263  12.190   7.054   1.251 -0.7065  0.7697 -0.2360
  321MOL0     H44264  12.246   7.224   1.010 -2.0853 -0.1919  0.5465
  321MOL0     H44265  12.287   7.236   1.186 -0.6920  0.9672 -1.1896
  321MOL0     H44266  12.386   6.987   1.037 -2.3352  3.0354 -4.0732
  321MOL0     H44267  12.449   7.088   1.184  1.4700  2.8214  0.5425
  321MOL0     H44268  12.514   7.245   1.000 -0.1212 -0.2089  3.5039
  321MOL0     H44269  12.482   7.126   0.875  1.8417 -1.6403 -1.3426
  321MOL0     H44270  12.676   7.110   1.122 -1.5421  0.1967  0.3679
  321MOL0     H44271  12.636   6.981   1.003 -1.1907 -0.5401  3.4951
  321MOL0     H44272  12.714   7.267   0.946  0.6635  0.7914 -5.6728
  321MOL0     H44273  12.723   7.130   0.829  0.4295 -3.1810  0.3611
  321MOL0     H44274  12.915   7.050   0.941  3.9884 -0.6258 -1.3529
  321MOL0     H44275  12.922   7.176   1.068 -2.2531  0.5284 -0.5246
  321MOL0     H44276  12.968   7.217   0.774  2.1082 -1.5015 -0.0826
  321MOL0     H44277  13.083   7.233   0.917 -0.4417 -2.0247  0.3700
  321MOL0     H44278  11.908   7.036   1.232 -0.6974  1.4305 -1.7523
  321MOL0     H44279  11.698   6.906   1.240 -0.7599  0.3708 -0.3768
  321MOL0     H44280  11.441   6.635   0.942 -0.6555 -4.4284 -0.7817
  321MOL0     H44281  11.217   6.603   0.896 -1.4610 -0.9209  0.4614
  321MOL0     H44282   9.496   6.550   0.457  0.5858  0.2854  3.1380
  321MOL0     H44283   9.322   6.521   0.296  1.2686 -1.5106 -0.4323
  321MOL0     H44284   8.889   6.498   0.194 -1.2531  0.7604 -1.3797
  321MOL0     H44285   8.681   6.462   0.078  0.2242 -0.4216  0.0020
  321MOL0     H44286   8.462   6.295   0.080 -0.5636 -1.7284  0.1289
  321MOL0     H44287   8.502   6.389  -0.063  0.9691 -0.2271 -1.2436
  321MOL0     H44288   8.279   6.285  -0.091  0.2810  0.3288 -1.6633
  321MOL0     H44289   8.356   6.134  -0.029  0.3013 -0.7809 -0.3833
  321MOL0     H44290   8.467   6.228  -0.287  3.5303 -0.2327  5.0060
  321MOL0     H44291   8.421   6.072  -0.248  0.7638  0.4376 -3.7653
  321MOL0     H44292   8.272   6.157  -0.417 -0.0450 -0.2653 -0.3034
  321MOL0     H44293   8.198   6.280  -0.324  2.9748  1.1534  0.3444
  321MOL0     H44294   7.961   5.959  -0.233 -0.6747  3.1318  0.5375
  321MOL0     H44295   8.784   6.062  -0.027  2.2025 -0.7956 -0.3760
  321MOL0     H44296   8.992   5.982   0.025  0.8391  2.0209 -0.5889
  321MOL0     H44297   9.113   6.084   0.098  0.7924 -2.2434  0.3608
  321MOL0     H44298   8.999   5.992   0.204  3.2336  0.5740  1.4175
  322MOL0     O44299   4.947   4.374   1.551 -0.4828 -0.1503 -0.2026
  322MOL0     C44300   4.849   4.387   1.475  0.8534  0.1709  0.2768
  322MOL0     O44301   4.818   4.498   1.403  0.7317  0.8350  0.3283
  322MOL0     C44302   4.888   4.609   1.416  0.6323 -0.9267 -0.0359
  322MOL0     C44303   4.931   4.677   1.292  0.5074  0.0179  0.4892
  322MOL0     C44304   4.998   4.802   1.304 -0.2187  0.8703 -0.9574
  322MOL0     C44305   5.019   4.858   1.428 -0.1675  0.0103  0.6331
  322MOL0     O44306   5.091   4.978   1.452 -0.7445 -0.1337  0.1325
  322MOL0     C44307   5.180   5.028   1.348 -0.2883 -0.0214 -0.2267
  322MOL0     C44308   5.114   5.131   1.267  1.1120  0.4947 -0.0604
  322MOL0     C44309   5.100   5.265   1.342 -0.8259 -0.1849  0.1953
  322MOL0     C44310   5.030   5.381   1.259  0.5720 -0.1105 -0.7935
  322MOL0     C44311   5.025   5.513   1.323  0.4569 -0.1049 -0.9055
  322MOL0     C44312   4.929   5.627   1.265 -0.6081 -0.2603  0.5068
  322MOL0     C44313   4.921   5.633   1.114 -0.8083  0.1534  0.1035
  322MOL0     C44314   4.848   5.754   1.063  0.9248  0.7865  0.9879
  322MOL0     N44315   4.699   5.760   1.082 -0.4475 -0.1874 -0.1146
  322MOL0     C44316   4.632   5.875   1.115 -0.5424  0.7772  0.8967
  322MOL0     C44317   4.501   5.834   1.113 -0.2987  0.1030  0.0450
  322MOL0     C44318   4.383   5.916   1.149  0.0902 -0.7515  0.0590
  322MOL0     C44319   4.318   5.866   1.284 -0.2454  0.3866  0.0271
  322MOL0     C44320   4.184   5.940   1.305  0.1634 -0.5309  0.6449
  322MOL0     C44321   4.115   5.918   1.444 -0.2611 -0.2780 -0.3375
  322MOL0     O44322   4.030   6.032   1.479  0.2107  0.1476  0.0918
  322MOL0     C44323   4.063   6.114   1.584 -1.0110  0.9644 -0.4315
  322MOL0     C44324   4.195   6.148   1.615 -0.4926  0.4641  0.1953
  322MOL0     C44325   4.228   6.229   1.723 -0.3371 -0.1485 -0.1164
  322MOL0     C44326   4.370   6.267   1.733  0.4582 -1.2593  0.8279
  322MOL0     C44327   4.125   6.282   1.808  0.3224  0.8840 -0.7140
  322MOL0     C44328   4.145   6.375   1.918 -0.3481  1.0949 -0.1764
  322MOL0     O44329   4.269   6.408   1.962 -1.2990 -0.1245  0.2978
  322MOL0     C44330   4.302   6.464   2.082  0.5857  0.1940 -0.4993
  322MOL0     C44331   4.424   6.534   2.101  0.1693  0.1169  0.7384
  322MOL0     C44332   4.456   6.590   2.227 -0.7039 -0.7289  0.5365
  322MOL0     C44333   4.378   6.575   2.333  0.2340  0.5470 -0.2832
  322MOL0     O44334   4.426   6.632   2.449 -0.0156  0.4531  0.2486
  322MOL0     C44335   4.343   6.688   2.543 -0.2479  0.3266 -0.6905
  322MOL0     C44336   4.416   6.799   2.619  0.2792 -0.9037  0.1212
  322MOL0     C44337   4.467   6.907   2.529  0.0389 -0.1833  0.0165
  322MOL0     C44338   4.362   7.004   2.478 -0.6684 -0.1830  0.3798
  322MOL0     C44339   4.425   7.126   2.392  0.1249  0.5417  1.0122
  322MOL0     C44340   4.319   7.214   2.328  0.1917 -0.2973 -0.3956
  322MOL0     C44341   4.385   7.327   2.250  0.3650  0.8437 -0.5654
  322MOL0     C44342   4.422   7.273   2.116  0.4402  0.2228  0.1134
  322MOL0    Cl44343   4.288   7.307   2.009  0.1168 -0.1208 -0.2694
  322MOL0     C44344   4.254   6.501   2.328 -0.2429 -0.0413  0.4844
  322MOL0     C44345   4.224   6.452   2.201  0.0787  1.1050 -0.6793
  322MOL0     O44346   4.039   6.417   1.954 -0.5847 -0.9000 -0.3781
  322MOL0     C44347   3.993   6.238   1.775  0.4721 -0.0325 -0.2224
  322MOL0     C44348   3.960   6.147   1.670 -1.0103  0.0856 -0.6429
  322MOL0     N44349   4.491   5.698   1.100 -0.0432 -0.3527  0.2800
  322MOL0     N44350   4.613   5.656   1.079  0.1470 -0.7876 -0.8096
  322MOL0     C44351   4.978   4.786   1.543 -0.4793 -0.1919 -0.9061
  322MOL0     C44352   4.910   4.664   1.541  0.2052  0.5067 -0.8485
  322MOL0     C44353   4.770   4.267   1.441 -0.5005  0.0433  1.0846
  322MOL0     C44354   4.736   4.165   1.533 -0.8031 -0.8506 -0.0877
  322MOL0     C44355   4.648   4.063   1.524  0.1080  0.1886 -0.2210
  322MOL0     C44356   4.600   4.057   1.395  0.7391 -0.5341  0.9659
  322MOL0     O44357   4.510   3.958   1.381  0.0792 -0.0844  0.3017
  322MOL0     C44358   4.428   3.944   1.261  0.1483  0.4094 -0.5976
  322MOL0     C44359   4.315   4.050   1.248  0.2924  0.8260  0.1932
  322MOL0     C44360   4.204   4.044   1.355 -0.4504  0.7808  0.4766
  322MOL0     C44361   4.107   4.162   1.344 -0.2363 -0.2617 -0.9112
  322MOL0     C44362   4.030   4.164   1.226  0.0989  0.2158 -0.9504
  322MOL0     C44363   3.961   4.169   1.122  0.2324 -0.0013 -0.0897
  322MOL0     C44364   4.645   4.139   1.290  0.4184 -0.1880  0.2446
  322MOL0     C44365   4.732   4.243   1.311 -0.0326 -0.2854 -0.2590
  322MOL0     C44366   4.780   4.327   1.191 -0.6734 -0.1066  0.9326
  322MOL0     H44367   4.901   4.636   1.196 -1.5830 -1.2668  1.5978
  322MOL0     H44368   5.044   4.845   1.216 -0.8050 -1.1496 -2.3127
  322MOL0     H44369   5.231   4.956   1.283 -0.4262 -0.6711  0.3652
  322MOL0     H44370   5.265   5.084   1.389  0.3919  0.3413 -2.0451
  322MOL0     H44371   5.167   5.135   1.171 -2.3894  2.0208 -2.1654
  322MOL0     H44372   5.011   5.096   1.252  0.8793 -0.3081  2.8782
  322MOL0     H44373   5.043   5.235   1.430 -3.2746 -3.9602 -2.3906
  322MOL0     H44374   5.195   5.305   1.379 -0.4560 -2.2891  1.6689
  322MOL0     H44375   5.078   5.375   1.161  0.4864  1.2174 -0.9290
  322MOL0     H44376   4.928   5.345   1.239  0.2713  2.2680 -4.5196
  322MOL0     H44377   5.131   5.533   1.342  0.8229 -1.0443 -1.9112
  322MOL0     H44378   4.980   5.492   1.421  2.1545 -0.7442 -0.2299
  322MOL0     H44379   4.827   5.610   1.298 -1.6528  2.9239 -0.6288
  322MOL0     H44380   4.964   5.722   1.308  2.2863 -1.2027  0.4463
  322MOL0     H44381   4.871   5.541   1.083 -0.7918 -0.4243  1.6736
  322MOL0     H44382   5.023   5.642   1.076  0.1871 -0.0652  2.5292
  322MOL0     H44383   4.896   5.846   1.098  2.9037  0.4814 -0.6909
  322MOL0     H44384   4.873   5.751   0.956  1.3592 -1.0825  1.1101
  322MOL0     H44385   4.679   5.966   1.150 -0.6214  0.7069  1.1918
  322MOL0     H44386   4.305   5.909   1.072 -0.8753  1.2901  0.7775
  322MOL0     H44387   4.418   6.019   1.160 -0.2309 -0.3722 -2.0475
  322MOL0     H44388   4.298   5.759   1.287 -0.7441  0.3614 -2.4583
  322MOL0     H44389   4.390   5.887   1.364  0.2665  2.7777 -0.9669
  322MOL0     H44390   4.193   6.049   1.291 -1.3379 -0.6227 -1.5687
  322MOL0     H44391   4.113   5.908   1.228  1.4693  0.8971 -1.2923
  322MOL0     H44392   4.055   5.827   1.448  2.0763 -2.1504 -3.5501
  322MOL0     H44393   4.189   5.888   1.519 -0.3009 -2.4130 -1.0894
  322MOL0     H44394   4.265   6.111   1.541  2.1861  1.4823  2.0589
  322MOL0     H44395   4.414   6.234   1.827  2.6895 -0.3263  0.1865
  322MOL0     H44396   4.384   6.375   1.730 -1.1322 -1.0202  1.0231
  322MOL0     H44397   4.417   6.221   1.645 -2.8130 -0.6301 -1.4438
  322MOL0     H44398   4.495   6.552   2.021 -1.0789 -1.7680 -0.8699
  322MOL0     H44399   4.554   6.633   2.243 -0.0069 -0.8531 -2.6476
  322MOL0     H44400   4.252   6.717   2.491  0.3471 -1.8447 -3.1671
  322MOL0     H44401   4.329   6.608   2.617  2.7817 -0.5198 -0.8919
  322MOL0     H44402   4.346   6.852   2.685 -0.3059  0.7271 -1.7180
  322MOL0     H44403   4.497   6.741   2.665  0.5408 -0.6029  0.0438
  322MOL0     H44404   4.521   6.863   2.444 -0.1175 -1.0141  0.3364
  322MOL0     H44405   4.541   6.966   2.583  1.7459 -2.4306  0.2635
  322MOL0     H44406   4.302   7.045   2.560 -1.6020 -0.9871  0.1187
  322MOL0     H44407   4.286   6.954   2.417 -1.0631 -0.4459  1.0710
  322MOL0     H44408   4.499   7.180   2.452  0.9801  1.3675 -0.7042
  322MOL0     H44409   4.486   7.078   2.314 -0.6629  1.8980 -0.4984
  322MOL0     H44410   4.271   7.263   2.413  0.3097  1.0208 -1.0564
  322MOL0     H44411   4.244   7.167   2.265  1.5425  2.2479 -4.3191
  322MOL0     H44412   4.472   7.352   2.312  1.8645 -0.1304 -2.1882
  322MOL0     H44413   4.312   7.402   2.222 -1.8435 -0.9267  0.1721
  322MOL0     H44414   4.448   7.167   2.119 -1.0608 -0.1908 -0.5839
  322MOL0     H44415   4.513   7.322   2.080  1.3859 -1.3032  0.3195
  322MOL0     H44416   4.196   6.491   2.419 -2.1867  0.5554 -0.6317
  322MOL0     H44417   4.130   6.398   2.193  0.0012  0.6895  2.2312
  322MOL0     H44418   3.908   6.272   1.833 -0.0748  1.5900 -1.8892
  322MOL0     H44419   3.857   6.128   1.639 -1.3625  1.6338 -0.4974
  322MOL0     H44420   5.005   4.830   1.639  2.0381 -0.5512 -1.3939
  322MOL0     H44421   4.891   4.614   1.636 -0.5643  1.9213 -0.2244
  322MOL0     H44422   4.774   4.186   1.633 -0.3817 -1.6631 -0.0689
  322MOL0     H44423   4.613   4.024   1.619 -2.4768  2.5316 -0.1077
  322MOL0     H44424   4.499   3.943   1.177 -2.9624 -1.2077 -3.4151
  322MOL0     H44425   4.380   3.846   1.257  0.6501  0.1654 -0.8577
  322MOL0     H44426   4.270   4.035   1.150 -2.2218  0.5836  1.3178
  322MOL0     H44427   4.360   4.148   1.268 -0.6270  1.4245 -0.6004
  322MOL0     H44428   4.143   3.953   1.347 -1.0684  0.9441  2.5943
  322MOL0     H44429   4.249   4.044   1.455  0.9676 -1.9653 -0.0467
  322MOL0     H44430   4.162   4.255   1.358 -0.9977  0.0953 -0.2693
  322MOL0     H44431   4.057   4.163   1.441  1.2285  2.0497 -0.1004
  322MOL0     H44432   3.914   4.163   1.026  0.6403  2.7841 -0.5330
  322MOL0     H44433   4.604   4.136   1.190 -1.1154 -0.6554  0.8496
  322MOL0     H44434   4.762   4.289   1.091  1.7796  2.6272 -0.7069
  322MOL0     H44435   4.714   4.414   1.195  1.3359  1.5870 -0.4707
  322MOL0     H44436   4.885   4.353   1.211 -1.4714  1.5137  3.6563
  323MOL0     O44437   7.752   8.255   6.224 -0.3155  0.2845  0.5141
  323MOL0     C44438   7.667   8.287   6.302  0.2587 -0.7815 -0.7816
  323MOL0     O44439   7.675   8.294   6.435 -0.4170  0.0835 -0.2578
  323MOL0     C44440   7.781   8.242   6.508  0.3800 -0.6750  0.2834
  323MOL0     C44441   7.797   8.106   6.531 -0.0809 -0.8671 -0.2173
  323MOL0     C44442   7.902   8.062   6.610  0.1502 -0.4126  1.1417
  323MOL0     C44443   7.999   8.151   6.657 -0.1799  0.2719  0.4024
  323MOL0     O44444   8.125   8.113   6.708  0.4053  0.3782  0.5725
  323MOL0     C44445   8.147   7.968   6.724  0.5219 -0.4776 -0.5865
  323MOL0     C44446   8.281   7.930   6.791  0.5101 -0.5885  0.1568
  323MOL0     C44447   8.297   7.928   6.940  0.2129 -0.8746 -0.8128
  323MOL0     C44448   8.377   8.041   7.002  0.1960 -0.0821  1.4465
  323MOL0     C44449   8.308   8.182   7.003 -0.0223  0.0606  0.0365
  323MOL0     C44450   8.423   8.281   7.027  0.2074 -0.4403 -0.2003
  323MOL0     C44451   8.367   8.420   7.065  0.2815 -0.4597 -0.0934
  323MOL0     C44452   8.263   8.479   6.965  0.4264  0.8985  0.2172
  323MOL0     N44453   8.248   8.616   6.996  0.1828 -0.2341  0.0805
  323MOL0     C44454   8.191   8.663   7.110 -0.4666  0.1026 -0.3691
  323MOL0     C44455   8.196   8.800   7.094  0.0430  0.6814 -0.6840
  323MOL0     C44456   8.126   8.894   7.187 -0.0781  0.2908  0.4709
  323MOL0     C44457   7.994   8.930   7.123 -0.8843  1.0711  0.4854
  323MOL0     C44458   7.902   9.005   7.207  0.4927 -0.7604 -0.6076
  323MOL0     C44459   7.938   9.147   7.252 -0.0800  0.6618  0.3941
  323MOL0     O44460   7.817   9.218   7.276  0.0323 -0.7838 -0.8284
  323MOL0     C44461   7.751   9.209   7.402 -0.1595  0.3602 -0.7728
  323MOL0     C44462   7.794   9.125   7.509 -0.3349  0.1518 -0.0791
  323MOL0     C44463   7.721   9.129   7.631  0.5057  0.4063  0.5915
  323MOL0     C44464   7.792   9.057   7.734 -0.8486 -0.2692  0.2363
  323MOL0     C44465   7.592   9.190   7.634  0.6038 -0.3624 -0.1166
  323MOL0     C44466   7.494   9.165   7.744 -0.5633 -0.4886  0.0296
  323MOL0     O44467   7.385   9.249   7.741 -0.8214 -0.4968  0.4519
  323MOL0     C44468   7.289   9.252   7.846 -0.0530 -0.6658  0.4795
  323MOL0     C44469   7.198   9.363   7.837 -0.7235  0.0464 -0.5072
  323MOL0     C44470   7.110   9.404   7.931 -0.6972  0.1140  0.6911
  323MOL0     C44471   7.101   9.338   8.050  0.0412  0.7445  0.0070
  323MOL0     O44472   7.006   9.355   8.146  0.4533  0.2044  0.3389
  323MOL0     C44473   6.900   9.250   8.130 -0.4085 -0.1289 -0.4974
  323MOL0     C44474   6.785   9.264   8.231 -0.6508  0.0151  0.3728
  323MOL0     C44475   6.697   9.381   8.193  0.5052 -0.8011 -0.1724
  323MOL0     C44476   6.595   9.430   8.291  0.4859 -0.8660 -0.0142
  323MOL0     C44477   6.536   9.566   8.245  0.2813 -1.4391 -0.1937
  323MOL0     C44478   6.428   9.600   8.343 -0.5612  0.5134  0.6556
  323MOL0     C44479   6.368   9.738   8.319 -0.4413  0.7124  1.0578
  323MOL0     C44480   6.281   9.783   8.438 -0.4383 -1.0449  0.3465
  323MOL0    Cl44481   6.138   9.693   8.444  0.4526  0.2412  0.2929
  323MOL0     C44482   7.189   9.228   8.068  0.6538 -0.1299 -0.1307
  323MOL0     C44483   7.290   9.192   7.976 -0.1475 -0.4058 -1.2970
  323MOL0     O44484   7.525   9.092   7.837 -0.2866 -0.0688 -0.0218
  323MOL0     C44485   7.548   9.260   7.519 -0.9281 -0.3389  0.3686
  323MOL0     C44486   7.634   9.271   7.405  0.0473  0.0565 -0.0787
  323MOL0     N44487   8.268   8.828   6.974  0.2767 -0.0357 -0.0242
  323MOL0     N44488   8.290   8.714   6.916 -0.1381  0.0688 -0.4386
  323MOL0     C44489   7.970   8.285   6.653  0.1818  0.0407  0.1592
  323MOL0     C44490   7.872   8.329   6.573  0.4412  0.2931  0.2106
  323MOL0     C44491   7.532   8.328   6.247 -0.6118 -0.5166 -0.1537
  323MOL0     C44492   7.421   8.279   6.323 -0.4010  1.0636  0.6807
  323MOL0     C44493   7.296   8.327   6.290  0.4479 -0.8395 -0.1168
  323MOL0     C44494   7.270   8.397   6.173  0.0397 -0.1851 -0.1953
  323MOL0     O44495   7.149   8.438   6.126  0.3646  0.3864 -0.6424
  323MOL0     C44496   7.040   8.344   6.127 -0.2676  0.1188  0.3076
  323MOL0     C44497   7.072   8.233   6.020 -0.2219 -0.6161  0.1197
  323MOL0     C44498   7.083   8.282   5.875  1.0454  0.5481 -1.0722
  323MOL0     C44499   7.116   8.171   5.786 -1.3362  0.5631 -0.7300
  323MOL0     C44500   7.107   8.212   5.645 -0.7882  0.9923  0.4644
  323MOL0     C44501   7.100   8.247   5.534  0.6755 -0.7586 -0.3261
  323MOL0     C44502   7.382   8.451   6.097  0.0476 -0.1296 -0.2318
  323MOL0     C44503   7.507   8.414   6.141 -0.3985  0.6937  0.9388
  323MOL0     C44504   7.618   8.479   6.073 -0.4914  0.7215 -0.2759
  323MOL0     H44505   7.721   8.046   6.482 -0.1190 -0.9779 -0.0238
  323MOL0     H44506   7.902   7.956   6.633 -2.3890 -0.9604 -0.9649
  323MOL0     H44507   8.149   7.937   6.619 -0.8687 -1.5467 -0.3211
  323MOL0     H44508   8.060   7.925   6.774  1.8805  0.6017  3.1007
  323MOL0     H44509   8.297   7.825   6.764 -1.2553 -0.5460 -1.2422
  323MOL0     H44510   8.362   7.983   6.739 -0.7954  0.4500 -0.9080
  323MOL0     H44511   8.197   7.928   6.984  1.1507  1.7910  1.7043
  323MOL0     H44512   8.334   7.829   6.969 -1.7750 -1.5951 -0.6324
  323MOL0     H44513   8.403   8.015   7.106  1.5950 -0.2867  1.0703
  323MOL0     H44514   8.471   8.057   6.948  0.8580 -0.7354  2.3613
  323MOL0     H44515   8.242   8.180   7.091  0.1014 -1.1009  0.1157
  323MOL0     H44516   8.266   8.198   6.904  0.8553  1.3864 -0.1441
  323MOL0     H44517   8.483   8.244   7.111 -2.7996 -1.6043  1.5872
  323MOL0     H44518   8.487   8.285   6.938 -0.9095  0.4614 -1.0040
  323MOL0     H44519   8.442   8.496   7.086  0.9020 -0.5511 -1.8068
  323MOL0     H44520   8.319   8.402   7.161  0.8999 -1.8544 -0.0217
  323MOL0     H44521   8.275   8.456   6.859 -0.1621  1.6248 -0.0142
  323MOL0     H44522   8.160   8.441   6.971  0.2523  1.2552 -0.4262
  323MOL0     H44523   8.160   8.613   7.201  0.2190 -1.5266 -0.9726
  323MOL0     H44524   8.188   8.980   7.217  0.1424  0.1131  0.5345
  323MOL0     H44525   8.093   8.835   7.273  1.1087  1.1732  1.5929
  323MOL0     H44526   8.032   8.990   7.040  0.6343 -0.1376  0.2511
  323MOL0     H44527   7.951   8.846   7.067 -3.1633  2.0685  0.6272
  323MOL0     H44528   7.802   9.015   7.162 -1.8295  1.3788  4.2945
  323MOL0     H44529   7.876   8.940   7.290  0.3389  0.4052  0.2847
  323MOL0     H44530   8.002   9.149   7.341 -0.8460 -1.3716  1.0555
  323MOL0     H44531   7.989   9.198   7.170  1.2513 -0.8918  0.2067
  323MOL0     H44532   7.884   9.065   7.498  0.9740  1.6895  1.5986
  323MOL0     H44533   7.866   8.994   7.685  0.1433  0.8145  0.2930
  323MOL0     H44534   7.735   8.992   7.801  0.7794  1.3946  3.4776
  323MOL0     H44535   7.851   9.124   7.798  1.6997  0.3794 -2.5856
  323MOL0     H44536   7.217   9.433   7.756  1.7566  1.7222  1.3723
  323MOL0     H44537   7.048   9.493   7.924  1.3798  1.5124 -0.8743
  323MOL0     H44538   6.849   9.255   8.033 -0.7060 -1.7873 -0.4697
  323MOL0     H44539   6.951   9.154   8.146 -1.6776 -0.7696 -0.1483
  323MOL0     H44540   6.732   9.168   8.225  0.5550 -0.6008 -0.7032
  323MOL0     H44541   6.827   9.282   8.331 -1.0378 -1.3009  0.7993
  323MOL0     H44542   6.647   9.341   8.104 -0.5135 -0.9370  0.4404
  323MOL0     H44543   6.767   9.461   8.168 -0.0939 -1.4870 -5.0926
  323MOL0     H44544   6.647   9.441   8.386  3.8056  0.5197 -1.7895
  323MOL0     H44545   6.517   9.355   8.305 -1.7882  0.6388 -3.1586
  323MOL0     H44546   6.611   9.646   8.238  0.3719 -1.6401 -2.2100
  323MOL0     H44547   6.481   9.550   8.152 -1.2907 -1.1079  0.6355
  323MOL0     H44548   6.476   9.589   8.441 -0.8411 -2.3940  0.5690
  323MOL0     H44549   6.345   9.530   8.330 -0.3394  0.7482 -3.8644
  323MOL0     H44550   6.312   9.722   8.227  0.8257 -0.0704  0.4106
  323MOL0     H44551   6.436   9.823   8.312 -1.3732  1.4730  0.9768
  323MOL0     H44552   6.260   9.888   8.420  3.1158 -0.6028 -2.4292
  323MOL0     H44553   6.331   9.780   8.535  1.2298 -1.1985 -0.4656
  323MOL0     H44554   7.175   9.173   8.160  1.0114 -1.0181 -0.5901
  323MOL0     H44555   7.354   9.111   8.008  1.1846  2.1951  3.7041
  323MOL0     H44556   7.455   9.313   7.506  0.5451  1.7509 -3.2388
  323MOL0     H44557   7.607   9.336   7.323 -2.4839  0.4798  1.0064
  323MOL0     H44558   8.043   8.353   6.695 -0.4112  1.4746 -1.0203
  323MOL0     H44559   7.856   8.434   6.553 -2.7536 -0.2298 -0.4156
  323MOL0     H44560   7.432   8.208   6.404  1.9263  1.7573  1.0366
  323MOL0     H44561   7.210   8.298   6.350  1.4640 -0.0480  1.8441
  323MOL0     H44562   7.041   8.302   6.228 -1.3518 -0.2557  0.1774
  323MOL0     H44563   6.945   8.394   6.106  0.6438  1.4442 -0.8534
  323MOL0     H44564   6.987   8.166   6.031 -0.1685 -0.8768 -0.9340
  323MOL0     H44565   7.156   8.174   6.057  1.4174  0.8972 -0.9742
  323MOL0     H44566   6.985   8.318   5.844  0.2026  0.9002  1.6960
  323MOL0     H44567   7.156   8.363   5.860  0.4070  1.3801  0.1401
  323MOL0     H44568   7.034   8.102   5.810 -2.5824  1.9016 -0.9773
  323MOL0     H44569   7.214   8.130   5.813 -1.6041  1.8003  2.6318
  323MOL0     H44570   7.105   8.287   5.435 -0.4944 -1.9191 -0.8815
  323MOL0     H44571   7.354   8.517   6.016 -2.9697 -1.2184 -0.1741
  323MOL0     H44572   7.641   8.413   5.989 -1.6483  1.0119 -0.8408
  323MOL0     H44573   7.587   8.575   6.030 -1.9073 -0.8613 -3.0999
  323MOL0     H44574   7.703   8.500   6.139  2.6654 -0.7175 -3.4800
  324MOL0     O44575   3.248   5.725   2.493  0.4627  0.7693  0.2013
  324MOL0     C44576   3.177   5.754   2.592 -0.7257  0.1534 -0.4087
  324MOL0     O44577   3.100   5.668   2.669 -0.4888  0.4147  0.0901
  324MOL0     C44578   3.099   5.540   2.629 -0.3321 -0.3339  0.0469
  324MOL0     C44579   2.985   5.493   2.575  0.1589  0.7817 -0.3433
  324MOL0     C44580   2.965   5.348   2.561  0.4091 -0.2641 -0.1684
  324MOL0     C44581   3.083   5.264   2.584  0.6514  1.1923  0.2264
  324MOL0     O44582   3.060   5.134   2.574  0.3986 -0.4883  0.5208
  324MOL0     C44583   3.129   5.078   2.460  0.7803 -1.0985  0.1931
  324MOL0     C44584   3.038   5.005   2.363 -0.6117 -0.5898  0.2204
  324MOL0     C44585   2.931   4.917   2.435 -0.3345  0.0602  0.1056
  324MOL0     C44586   2.994   4.785   2.475  0.4257 -0.9694  0.4705
  324MOL0     C44587   2.978   4.676   2.368  0.3165 -0.1789 -0.0029
  324MOL0     C44588   3.077   4.562   2.402 -0.0827 -0.3230  0.2397
  324MOL0     C44589   3.022   4.417   2.441 -0.5112 -0.7355 -0.0136
  324MOL0     C44590   2.879   4.419   2.510 -0.6858 -0.3344 -1.0708
  324MOL0     N44591   2.834   4.285   2.547  0.6914  0.5713 -0.2327
  324MOL0     C44592   2.837   4.180   2.461 -0.8672 -0.6009 -1.0365
  324MOL0     C44593   2.782   4.079   2.532 -0.0511  0.1378  1.0091
  324MOL0     C44594   2.750   3.944   2.484  0.0582 -1.3225 -0.2874
  324MOL0     C44595   2.830   3.910   2.359  0.5523  0.8868 -0.4219
  324MOL0     C44596   2.980   3.889   2.375 -0.3705 -0.3840 -0.6951
  324MOL0     C44597   3.048   3.834   2.248  0.2449  0.5174 -0.1095
  324MOL0     O44598   3.030   3.920   2.134 -0.4270  0.0223  0.0561
  324MOL0     C44599   3.101   4.040   2.122 -0.3960  0.2908  1.2699
  324MOL0     C44600   3.232   4.056   2.161 -1.0085 -0.4299 -0.7103
  324MOL0     C44601   3.311   4.176   2.154  0.3767  0.0456 -0.3559
  324MOL0     C44602   3.461   4.166   2.186  0.2085 -0.1137 -0.1198
  324MOL0     C44603   3.247   4.292   2.106  0.5452  0.7965 -0.3601
  324MOL0     C44604   3.302   4.428   2.101  0.2580  0.5824 -1.0194
  324MOL0     O44605   3.218   4.533   2.066  0.1275 -0.3095 -0.4996
  324MOL0     C44606   3.269   4.665   2.060  0.7303 -0.2286  1.0977
  324MOL0     C44607   3.352   4.729   2.149 -0.1568 -0.2218 -0.2737
  324MOL0     C44608   3.391   4.858   2.143  0.6013  0.1413 -0.1662
  324MOL0     C44609   3.336   4.939   2.049 -0.4806  0.9659  0.7384
  324MOL0     O44610   3.363   5.076   2.040  0.4261 -0.0216 -0.6169
  324MOL0     C44611   3.334   5.151   2.156  1.1499 -0.5079 -0.7082
  324MOL0     C44612   3.389   5.293   2.141  0.1990 -0.2813 -0.4774
  324MOL0     C44613   3.357   5.387   2.257  0.2809 -0.0415  0.0656
  324MOL0     C44614   3.466   5.365   2.371 -0.1821  1.0015 -0.2673
  324MOL0     C44615   3.612   5.381   2.332 -0.1276 -0.0328  0.9852
  324MOL0     C44616   3.651   5.507   2.255 -1.0872 -0.5725 -0.5491
  324MOL0     C44617   3.619   5.634   2.337  0.5330  0.3163  0.2566
  324MOL0     C44618   3.704   5.650   2.463 -0.1139  0.9155  0.3151
  324MOL0    Cl44619   3.671   5.804   2.540  0.1174  0.0402  0.2654
  324MOL0     C44620   3.264   4.876   1.942 -1.1706  0.2034 -0.5011
  324MOL0     C44621   3.239   4.741   1.947 -0.2719 -0.1695  0.6179
  324MOL0     O44622   3.419   4.437   2.117  0.0611 -0.3950 -0.3873
  324MOL0     C44623   3.101   4.271   2.066 -1.1544 -0.3720  0.4336
  324MOL0     C44624   3.038   4.146   2.063  0.1556  0.5130  0.2923
  324MOL0     N44625   2.749   4.128   2.660  0.4111  0.1238  0.5291
  324MOL0     N44626   2.776   4.249   2.664  0.5108 -1.0634  0.3646
  324MOL0     C44627   3.193   5.320   2.631 -1.0928  0.5330 -0.4786
  324MOL0     C44628   3.204   5.455   2.655 -0.0774  0.5483 -0.0046
  324MOL0     C44629   3.165   5.903   2.617  0.9913 -1.0641 -0.8189
  324MOL0     C44630   3.282   5.978   2.592  0.7994  0.0672 -0.2545
  324MOL0     C44631   3.275   6.120   2.608 -0.4218  0.0466 -0.2257
  324MOL0     C44632   3.168   6.178   2.673 -0.6261  0.2332  0.1683
  324MOL0     O44633   3.160   6.313   2.714  0.7925 -0.9879  0.1745
  324MOL0     C44634   3.256   6.424   2.661  1.0867  0.1683  0.0491
  324MOL0     C44635   3.380   6.412   2.742  0.1782  0.2180 -0.1970
  324MOL0     C44636   3.448   6.544   2.754 -1.5855 -0.5085  0.5621
  324MOL0     C44637   3.522   6.593   2.620 -0.4281 -0.4001 -0.1631
  324MOL0     C44638   3.582   6.730   2.631  0.3743 -0.0529 -0.0312
  324MOL0     C44639   3.632   6.838   2.639 -0.2401  0.5529 -0.8754
  324MOL0     C44640   3.060   6.102   2.713  1.6399  0.6113 -0.3188
  324MOL0     C44641   3.053   5.967   2.684 -0.2544 -0.8703 -0.8457
  324MOL0     C44642   2.931   5.894   2.729 -0.1818 -0.1115  0.6289
  324MOL0     H44643   2.899   5.556   2.555 -0.2575 -0.4001 -2.6941
  324MOL0     H44644   2.869   5.303   2.534 -0.5414  1.7004 -0.2501
  324MOL0     H44645   3.200   5.004   2.497  1.3805 -0.9912 -0.7270
  324MOL0     H44646   3.187   5.159   2.414  0.1093  1.0313  2.8165
  324MOL0     H44647   2.984   5.084   2.310 -1.7415 -1.1266  0.5435
  324MOL0     H44648   3.097   4.951   2.288 -0.3284 -3.1011  2.1210
  324MOL0     H44649   2.881   4.979   2.510  2.2049  2.1592  0.2528
  324MOL0     H44650   2.868   4.897   2.349  1.0636  1.0499 -1.2072
  324MOL0     H44651   3.100   4.802   2.493  0.9972 -2.5335 -1.1387
  324MOL0     H44652   2.943   4.756   2.567 -2.4543  1.1436 -0.2905
  324MOL0     H44653   3.027   4.715   2.279 -0.8326  1.2960 -0.0144
  324MOL0     H44654   2.875   4.655   2.338 -0.3263  0.2750  1.7532
  324MOL0     H44655   3.146   4.559   2.317 -0.6504 -3.6737 -0.2142
  324MOL0     H44656   3.142   4.582   2.488 -0.1569 -1.8150  0.6767
  324MOL0     H44657   3.103   4.372   2.499  0.7051  0.6711 -0.5587
  324MOL0     H44658   3.010   4.362   2.347 -1.3947  0.3254 -0.5422
  324MOL0     H44659   2.894   4.493   2.589  2.4906 -1.6131 -0.3521
  324MOL0     H44660   2.802   4.464   2.447 -1.8529  1.5462  1.4959
  324MOL0     H44661   2.876   4.171   2.360 -3.0157  0.0174 -1.9730
  324MOL0     H44662   2.642   3.948   2.467 -0.0869  1.3832  0.6536
  324MOL0     H44663   2.768   3.876   2.568  4.2486 -1.2706 -0.9202
  324MOL0     H44664   2.794   3.814   2.320 -1.0545  0.6877  1.4122
  324MOL0     H44665   2.805   3.981   2.280  1.2626 -1.1288 -2.5847
  324MOL0     H44666   3.034   3.978   2.409 -0.6948  0.3634 -2.0543
  324MOL0     H44667   2.979   3.809   2.450 -0.6220 -2.1888 -2.5396
  324MOL0     H44668   3.153   3.812   2.268  0.3910  2.0931  1.0577
  324MOL0     H44669   3.009   3.740   2.210  0.2286  0.9677 -1.2504
  324MOL0     H44670   3.281   3.968   2.201  1.3854  1.6041  1.1549
  324MOL0     H44671   3.522   4.214   2.108  3.3568 -0.4769  1.9396
  324MOL0     H44672   3.474   4.058   2.191  0.8517 -0.0128  0.5250
  324MOL0     H44673   3.489   4.211   2.282  1.4385  0.9696 -0.9505
  324MOL0     H44674   3.375   4.665   2.234  3.6485  0.4769 -0.6146
  324MOL0     H44675   3.452   4.898   2.223  0.4682  0.3786 -0.1803
  324MOL0     H44676   3.228   5.149   2.185  1.6229 -4.3621  1.5021
  324MOL0     H44677   3.379   5.092   2.237  0.4713  2.7293  2.3065
  324MOL0     H44678   3.494   5.299   2.113  0.6069 -0.1752  0.9976
  324MOL0     H44679   3.338   5.334   2.054 -1.0961 -0.0449  0.3498
  324MOL0     H44680   3.256   5.381   2.297  0.3144  0.1669  0.1841
  324MOL0     H44681   3.371   5.487   2.215  0.8718 -0.6318 -1.2143
  324MOL0     H44682   3.450   5.266   2.414  0.9660  0.4966 -0.9684
  324MOL0     H44683   3.456   5.441   2.449  0.4987  1.3179 -0.4814
  324MOL0     H44684   3.663   5.378   2.429  1.1559  2.8425  0.4736
  324MOL0     H44685   3.657   5.301   2.272  1.9773  0.1344  2.2549
  324MOL0     H44686   3.602   5.496   2.159  1.2893 -0.9870 -1.7893
  324MOL0     H44687   3.759   5.501   2.237 -0.8419 -2.2670  1.1238
  324MOL0     H44688   3.511   5.636   2.357  0.3973  0.4309 -0.4839
  324MOL0     H44689   3.646   5.713   2.266 -2.6033 -0.4498 -2.0075
  324MOL0     H44690   3.810   5.637   2.439 -0.1835 -0.5112  0.7013
  324MOL0     H44691   3.681   5.568   2.531 -1.9085 -0.1828 -1.5329
  324MOL0     H44692   3.239   4.947   1.863 -0.4744  0.5722 -0.3973
  324MOL0     H44693   3.187   4.699   1.862  0.0389  0.8125 -0.0725
  324MOL0     H44694   3.047   4.356   2.027 -1.6051 -0.9540 -0.2570
  324MOL0     H44695   2.934   4.141   2.032 -0.1150 -2.9079  1.3870
  324MOL0     H44696   3.269   5.247   2.658  0.1548  2.5957  2.1089
  324MOL0     H44697   3.290   5.495   2.708  2.5054 -1.8924 -2.0369
  324MOL0     H44698   3.371   5.931   2.553  0.7325 -0.7607  0.5593
  324MOL0     H44699   3.357   6.181   2.573 -0.1931  1.5051  2.5844
  324MOL0     H44700   3.283   6.400   2.557  1.1279 -1.7493  0.4595
  324MOL0     H44701   3.198   6.516   2.665 -1.7651 -1.5109  0.3179
  324MOL0     H44702   3.452   6.342   2.698  1.1229 -0.8542  2.7851
  324MOL0     H44703   3.361   6.373   2.842  0.8388 -1.9985 -0.8558
  324MOL0     H44704   3.382   6.621   2.793  0.4230 -0.0336  3.3359
  324MOL0     H44705   3.525   6.532   2.832  0.9039  1.9615 -1.3125
  324MOL0     H44706   3.459   6.586   2.530  0.7346 -0.2750 -1.0091
  324MOL0     H44707   3.602   6.521   2.601 -0.9174 -0.6975 -1.2005
  324MOL0     H44708   3.669   6.938   2.635 -2.1543  1.3357 -0.0838
  324MOL0     H44709   2.980   6.154   2.764 -0.9524 -1.6505 -1.7926
  324MOL0     H44710   2.896   5.829   2.648  3.0320  1.2886 -2.1166
  324MOL0     H44711   2.950   5.833   2.818 -1.0871  2.5893  2.8442
  324MOL0     H44712   2.852   5.969   2.741  0.2146  0.4834 -0.3932
  325MOL0     O44713   9.260   6.258   1.027  0.7209  0.2806 -0.8976
  325MOL0     C44714   9.290   6.360   1.083  0.4708  0.2267 -0.1128
  325MOL0     O44715   9.406   6.382   1.163 -0.1366  0.4368  0.0854
  325MOL0     C44716   9.479   6.263   1.178 -0.0401  0.0214 -0.5862
  325MOL0     C44717   9.497   6.221   1.308 -0.0278 -0.8872 -1.1118
  325MOL0     C44718   9.559   6.103   1.333 -0.1211 -0.6328 -0.1012
  325MOL0     C44719   9.624   6.028   1.235  0.1868  0.5167  0.9991
  325MOL0     O44720   9.684   5.909   1.268 -0.6546 -0.4300  0.5318
  325MOL0     C44721   9.825   5.908   1.242 -0.6772  1.4908  0.2974
  325MOL0     C44722   9.920   6.020   1.281 -1.4363  0.1998 -0.2602
  325MOL0     C44723  10.072   6.002   1.305 -0.6904  0.2342  0.8599
  325MOL0     C44724  10.137   6.122   1.365 -0.3219 -0.6362  0.6845
  325MOL0     C44725  10.287   6.100   1.366 -0.1054  0.8269  0.3754
  325MOL0     C44726  10.349   6.203   1.461 -0.1418 -0.2625  0.2029
  325MOL0     C44727  10.496   6.183   1.470 -0.6714 -0.2341 -0.3530
  325MOL0     C44728  10.561   6.287   1.569  0.5855 -0.1464 -0.2752
  325MOL0     N44729  10.484   6.295   1.694  0.5785 -0.1625  0.0488
  325MOL0     C44730  10.393   6.395   1.724  0.4369 -0.6603 -0.6449
  325MOL0     C44731  10.376   6.384   1.860 -0.3502  0.0355  0.3457
  325MOL0     C44732  10.311   6.475   1.964 -0.0255 -0.0106  0.2079
  325MOL0     C44733  10.156   6.477   1.956 -0.5877 -0.2110 -0.7590
  325MOL0     C44734  10.090   6.361   2.025 -0.0902 -0.2044 -0.0667
  325MOL0     C44735  10.124   6.358   2.176 -0.1645 -0.3152 -0.1111
  325MOL0     O44736  10.089   6.483   2.229 -0.5060 -0.5926 -0.4184
  325MOL0     C44737  10.107   6.516   2.362 -0.4942 -0.0487 -0.3449
  325MOL0     C44738  10.059   6.637   2.400 -0.0074 -0.2609 -0.8418
  325MOL0     C44739  10.098   6.691   2.527  0.1124  0.3932 -0.5534
  325MOL0     C44740  10.054   6.835   2.539 -0.0925 -0.8145 -0.9447
  325MOL0     C44741  10.176   6.618   2.616  0.2514  0.2550 -0.0632
  325MOL0     C44742  10.231   6.671   2.748  0.7554  1.0017  1.0986
  325MOL0     O44743  10.280   6.575   2.841 -0.0535  0.4954  0.2997
  325MOL0     C44744  10.319   6.626   2.961 -0.4681  0.8291  0.5181
  325MOL0     C44745  10.232   6.688   3.045  0.1965 -0.7159 -0.5156
  325MOL0     C44746  10.275   6.743   3.162  0.5255  0.1927  0.0826
  325MOL0     C44747  10.407   6.740   3.197 -0.2644 -0.6988 -0.1274
  325MOL0     O44748  10.456   6.802   3.309  0.3651  1.3264 -0.0379
  325MOL0     C44749  10.373   6.803   3.425  0.0193  0.4296  0.0228
  325MOL0     C44750  10.443   6.867   3.547  0.4514 -0.3046  0.6137
  325MOL0     C44751  10.523   6.997   3.509  0.5294 -0.8064 -0.1071
  325MOL0     C44752  10.563   7.058   3.642  0.1119 -0.0264  1.0303
  325MOL0     C44753  10.659   7.180   3.624 -0.7251 -0.4999  0.4197
  325MOL0     C44754  10.789   7.144   3.547 -0.0933  0.6694  0.2193
  325MOL0     C44755  10.867   7.278   3.522  0.3917 -0.3981  0.5057
  325MOL0     C44756  10.989   7.251   3.430 -0.0966 -0.0948  0.1880
  325MOL0    Cl44757  11.107   7.154   3.528 -0.3701 -0.5972  0.6401
  325MOL0     C44758  10.498   6.674   3.119  0.0028 -0.2422 -0.8023
  325MOL0     C44759  10.443   6.605   3.008  0.7416 -0.1898  0.2747
  325MOL0     O44760  10.220   6.787   2.760 -0.8377 -0.3053  0.2793
  325MOL0     C44761  10.218   6.491   2.576  0.0383  0.4954 -0.0579
  325MOL0     C44762  10.183   6.435   2.452 -0.2875 -0.0232  0.0827
  325MOL0     N44763  10.437   6.269   1.906  0.0712 -0.6897  0.2662
  325MOL0     N44764  10.495   6.221   1.801  0.4567 -0.3839 -0.3077
  325MOL0     C44765   9.614   6.072   1.102 -0.4773  0.5646 -0.4204
  325MOL0     C44766   9.537   6.188   1.070  0.2987 -0.3254  1.1426
  325MOL0     C44767   9.213   6.478   1.037 -0.0286  1.2631 -0.0809
  325MOL0     C44768   9.275   6.587   0.969  0.1351  0.0387  0.6997
  325MOL0     C44769   9.197   6.701   0.938  0.1922  0.5872  0.4535
  325MOL0     C44770   9.067   6.711   0.987 -0.0900  0.1405  0.2459
  325MOL0     O44771   9.001   6.830   0.956  0.1495 -0.4847  0.1193
  325MOL0     C44772   8.869   6.834   0.894 -0.3964 -0.3019  0.1317
  325MOL0     C44773   8.842   6.746   0.776  0.5917  0.2557 -0.0641
  325MOL0     C44774   8.902   6.795   0.646  0.4230 -0.2407 -0.3790
  325MOL0     C44775   8.929   6.676   0.542  0.5817 -0.1577  0.1369
  325MOL0     C44776   8.808   6.650   0.461  0.0771 -0.4584  0.0500
  325MOL0     C44777   8.701   6.653   0.416  0.2194 -1.3385  0.1920
  325MOL0     C44778   9.005   6.595   1.032  0.1352  0.3489  0.6826
  325MOL0     C44779   9.079   6.484   1.069  0.6478  0.6572 -0.0432
  325MOL0     C44780   9.013   6.379   1.146  0.7633  0.5743 -1.0375
  325MOL0     H44781   9.462   6.270   1.399 -0.0704 -1.2141 -0.9516
  325MOL0     H44782   9.564   6.072   1.437 -0.2456  2.0905  0.7704
  325MOL0     H44783   9.839   5.883   1.136  2.8973 -1.4023  1.2362
  325MOL0     H44784   9.855   5.820   1.299 -0.3300  0.5446 -1.2686
  325MOL0     H44785   9.912   6.107   1.215  1.6343  0.5860 -0.2650
  325MOL0     H44786   9.879   6.038   1.381 -2.5403  1.6416 -0.9345
  325MOL0     H44787  10.101   5.915   1.364 -0.7989 -0.2795  0.1778
  325MOL0     H44788  10.118   5.986   1.206 -3.7753 -4.5980 -0.1184
  325MOL0     H44789  10.116   6.212   1.306 -1.6164 -1.7568 -0.6353
  325MOL0     H44790  10.097   6.133   1.466 -0.0984  1.7052  0.5743
  325MOL0     H44791  10.329   6.114   1.266 -0.3174  0.4408  0.2293
  325MOL0     H44792  10.311   5.998   1.397  0.2515  1.2429  1.5051
  325MOL0     H44793  10.315   6.297   1.418 -0.8467 -0.6164 -0.0211
  325MOL0     H44794  10.312   6.183   1.562  0.5472  3.1585  1.2589
  325MOL0     H44795  10.538   6.201   1.371 -0.8546 -0.6285 -0.5038
  325MOL0     H44796  10.525   6.086   1.512  1.1072  0.8572  1.1007
  325MOL0     H44797  10.661   6.250   1.595 -0.7629 -3.5219  0.7101
  325MOL0     H44798  10.573   6.389   1.531 -0.8495  0.4480  0.7563
  325MOL0     H44799  10.350   6.468   1.656  3.3072 -0.1020 -2.0108
  325MOL0     H44800  10.333   6.579   1.940  0.3292  0.7546  3.4663
  325MOL0     H44801  10.344   6.457   2.066 -1.3928 -2.9256  0.2678
  325MOL0     H44802  10.123   6.571   2.001  0.4447 -0.7250  1.1641
  325MOL0     H44803  10.122   6.477   1.852  0.6743  2.7576 -1.2917
  325MOL0     H44804   9.981   6.373   2.017 -0.1668 -1.8779 -3.0550
  325MOL0     H44805  10.119   6.273   1.967  1.1935  2.0054 -3.1020
  325MOL0     H44806  10.059   6.278   2.212 -0.6140 -1.2495 -2.8088
  325MOL0     H44807  10.228   6.327   2.192 -0.7118 -1.1215  2.4191
  325MOL0     H44808  10.012   6.704   2.328  0.3564  0.0195 -0.8194
  325MOL0     H44809  10.137   6.900   2.509 -2.0917  1.6490 -1.4717
  325MOL0     H44810  10.023   6.850   2.643  1.2869 -2.8492 -0.1683
  325MOL0     H44811   9.962   6.848   2.481  0.1803 -0.5446 -1.3221
  325MOL0     H44812  10.131   6.698   3.008  0.0969 -4.3463 -1.6812
  325MOL0     H44813  10.187   6.791   3.203 -1.1140 -1.4720 -1.2909
  325MOL0     H44814  10.278   6.850   3.398 -0.1637 -0.2849 -0.5956
  325MOL0     H44815  10.351   6.700   3.453  1.1888  0.2290  0.2528
  325MOL0     H44816  10.375   6.882   3.632  2.4598 -0.5040  2.3464
  325MOL0     H44817  10.515   6.790   3.575  0.1947 -2.7422 -4.4266
  325MOL0     H44818  10.463   7.065   3.448 -0.4350 -1.6594 -0.1525
  325MOL0     H44819  10.612   6.967   3.454  2.1883 -0.2461  2.1392
  325MOL0     H44820  10.615   6.983   3.702 -0.3343 -2.5931 -1.5501
  325MOL0     H44821  10.480   7.093   3.704 -1.2559 -1.9036  0.3681
  325MOL0     H44822  10.603   7.250   3.561  0.8658 -2.0009 -2.9585
  325MOL0     H44823  10.696   7.213   3.721  1.9939 -1.7807 -0.0812
  325MOL0     H44824  10.764   7.104   3.448  0.9329  2.0570 -0.6359
  325MOL0     H44825  10.858   7.082   3.604  0.5185  0.6073 -0.5679
  325MOL0     H44826  10.885   7.332   3.616  1.9506 -4.1885  2.6339
  325MOL0     H44827  10.794   7.339   3.470 -1.7104 -1.4592  2.0539
  325MOL0     H44828  11.031   7.349   3.407  0.2714 -0.5859 -1.3554
  325MOL0     H44829  10.960   7.188   3.345  0.9086 -4.4265  2.7473
  325MOL0     H44830  10.603   6.653   3.138 -0.1653 -0.7762 -0.4473
  325MOL0     H44831  10.513   6.546   2.950  2.2762  0.0311  1.8397
  325MOL0     H44832  10.275   6.425   2.640 -1.5991  2.0997  3.3196
  325MOL0     H44833  10.202   6.332   2.427  2.5653  0.6920 -1.0875
  325MOL0     H44834   9.662   6.010   1.027 -0.0929 -2.5938  2.2133
  325MOL0     H44835   9.535   6.217   0.965  2.5909 -2.6161  0.3422
  325MOL0     H44836   9.383   6.590   0.960  0.0048 -0.9238 -2.1873
  325MOL0     H44837   9.232   6.798   0.903 -0.1424  0.5306 -0.0466
  325MOL0     H44838   8.793   6.820   0.971 -1.5274 -2.2702 -1.2772
  325MOL0     H44839   8.849   6.938   0.867 -0.6386 -0.3683  0.0533
  325MOL0     H44840   8.735   6.742   0.751  0.5289  1.2446 -0.0042
  325MOL0     H44841   8.873   6.642   0.795  1.0918  0.1717 -1.2834
  325MOL0     H44842   8.834   6.871   0.607 -1.7191 -1.2685  1.1130
  325MOL0     H44843   9.001   6.834   0.668  0.6439 -1.0167  0.0632
  325MOL0     H44844   8.942   6.584   0.599 -1.9082  1.4935  3.7182
  325MOL0     H44845   9.024   6.690   0.489  2.0888 -1.3951  2.3391
  325MOL0     H44846   8.598   6.666   0.388  0.4701  2.7690  0.5875
  325MOL0     H44847   8.898   6.584   1.048  0.2954 -0.1128  1.5429
  325MOL0     H44848   8.914   6.404   1.185  1.8345  0.1065  2.2918
  325MOL0     H44849   9.009   6.290   1.081 -3.0588 -0.4856  0.3821
  325MOL0     H44850   9.078   6.361   1.232  0.8002  3.9005 -0.2490
  326MOL0     O44851   1.407  10.317   9.016 -0.0711  0.1258  0.1046
  326MOL0     C44852   1.366  10.280   8.905  0.2671  0.1183 -0.1473
  326MOL0     O44853   1.436  10.218   8.800  1.2099  0.3846  0.1290
  326MOL0     C44854   1.550  10.143   8.833  0.5580 -1.0437 -0.4014
  326MOL0     C44855   1.550  10.001   8.842  0.3581  0.9290  0.4842
  326MOL0     C44856   1.671   9.928   8.872 -0.6883 -0.0483 -0.2570
  326MOL0     C44857   1.787  10.000   8.897 -0.4834 -0.0827  0.0282
  326MOL0     O44858   1.909   9.934   8.918 -0.1883 -0.2233 -0.3854
  326MOL0     C44859   1.890   9.799   8.975 -1.0751 -0.2173  0.1100
  326MOL0     C44860   2.029   9.759   9.031 -0.3434 -0.2084  0.2747
  326MOL0     C44861   2.089   9.839   9.150 -0.0090 -0.4255 -0.0286
  326MOL0     C44862   2.006   9.812   9.272 -0.5332 -0.4930 -0.3232
  326MOL0     C44863   2.078   9.863   9.401 -0.8997 -0.5250 -0.4469
  326MOL0     C44864   2.226   9.803   9.438  0.3323 -0.0799 -0.5701
  326MOL0     C44865   2.312   9.866   9.545 -0.4046  0.7319 -0.3564
  326MOL0     C44866   2.341  10.010   9.518  0.6895 -0.4652 -0.0779
  326MOL0     N44867   2.424  10.027   9.400 -0.3868 -0.3755 -0.7879
  326MOL0     C44868   2.560  10.012   9.387  0.4560 -0.0644  0.3934
  326MOL0     C44869   2.598  10.047   9.268  0.4068 -0.1587  0.1000
  326MOL0     C44870   2.730  10.047   9.203 -0.6273 -0.3397 -0.3946
  326MOL0     C44871   2.795   9.910   9.184 -0.6221  0.3846 -0.4288
  326MOL0     C44872   2.935   9.916   9.114  0.9457 -0.0226 -0.1782
  326MOL0     C44873   3.041   9.978   9.207  0.0908 -0.2542 -0.5413
  326MOL0     O44874   3.171   9.985   9.143 -0.0895  0.0045  0.1754
  326MOL0     C44875   3.234   9.867   9.139  0.5284  0.0722 -0.1368
  326MOL0     C44876   3.232   9.800   9.018 -0.1972  0.6717 -0.3084
  326MOL0     C44877   3.274   9.661   9.017 -0.4373 -0.1125 -0.7845
  326MOL0     C44878   3.245   9.600   8.879 -0.7067  0.4152  0.4543
  326MOL0     C44879   3.326   9.601   9.134  0.4829 -0.1681  0.1608
  326MOL0     C44880   3.379   9.461   9.133  0.7230  0.3778 -0.2455
  326MOL0     O44881   3.382   9.380   9.023 -0.4031 -0.0002  0.3948
  326MOL0     C44882   3.444   9.258   9.021  1.1332  0.0623 -0.0403
  326MOL0     C44883   3.556   9.222   9.089 -0.0190 -0.1541 -0.3230
  326MOL0     C44884   3.609   9.093   9.085  0.1970 -0.7250  1.0681
  326MOL0     C44885   3.543   8.990   9.010 -0.2394 -0.1378 -0.3909
  326MOL0     O44886   3.579   8.862   8.997 -0.0391  0.2407 -0.4538
  326MOL0     C44887   3.704   8.831   9.053  0.1044 -0.2099  0.2427
  326MOL0     C44888   3.820   8.863   8.959  0.2747  0.0327 -0.4854
  326MOL0     C44889   3.949   8.795   9.012  0.6540  0.3083  0.0150
  326MOL0     C44890   4.054   8.855   8.922 -0.5695  0.1589  0.3660
  326MOL0     C44891   4.204   8.809   8.944 -0.4953 -0.1088  0.1833
  326MOL0     C44892   4.259   8.855   9.081 -0.3184  0.3902  0.1371
  326MOL0     C44893   4.404   8.814   9.094  0.0046  0.3771 -0.8753
  326MOL0     C44894   4.448   8.848   9.233  0.0195  0.3470  0.4727
  326MOL0    Cl44895   4.621   8.820   9.237  0.0254 -0.1823  0.2886
  326MOL0     C44896   3.430   9.035   8.941  1.0509  1.5791 -0.6637
  326MOL0     C44897   3.374   9.164   8.941  0.1958  0.6508  0.1700
  326MOL0     O44898   3.398   9.420   9.250 -0.0386 -0.0177 -0.4292
  326MOL0     C44899   3.332   9.678   9.256 -0.6048  0.8433 -0.2696
  326MOL0     C44900   3.286   9.807   9.257  0.7566 -0.2841  0.4546
  326MOL0     N44901   2.484  10.076   9.195 -0.1142  0.1852 -0.1603
  326MOL0     N44902   2.376  10.055   9.276 -0.1216  0.1177  0.2808
  326MOL0     C44903   1.784  10.137   8.888 -0.3327  0.1586 -0.1981
  326MOL0     C44904   1.666  10.204   8.871  0.1368 -0.0969  0.4448
  326MOL0     C44905   1.225  10.288   8.874  0.2422 -0.3213  0.0545
  326MOL0     C44906   1.171  10.174   8.806 -0.2787  0.0684  0.6685
  326MOL0     C44907   1.035  10.175   8.766 -0.2243 -0.4801  0.2348
  326MOL0     C44908   0.957  10.279   8.799  1.1371  0.1992  0.3325
  326MOL0     O44909   0.826  10.292   8.755 -0.4521  0.6782  1.1266
  326MOL0     C44910   0.811  10.350   8.623 -0.1880 -0.1632 -0.3907
  326MOL0     C44911   0.817  10.502   8.616 -0.1554 -0.0670 -0.1641
  326MOL0     C44912   0.802  10.541   8.483  0.5019 -0.9314  0.3010
  326MOL0     C44913   0.766  10.686   8.448  1.0947 -0.3401  0.2361
  326MOL0     C44914   0.728  10.688   8.304  1.0143 -0.8389 -0.7357
  326MOL0     C44915   0.720  10.682   8.182  0.5706 -1.0615 -0.3388
  326MOL0     C44916   1.009  10.386   8.874 -0.3672 -0.3110  0.4628
  326MOL0     C44917   1.136  10.383   8.928 -0.4910 -0.2861 -0.4307
  326MOL0     C44918   1.180  10.489   9.021 -0.1313  0.4169 -0.2100
  326MOL0     H44919   1.454   9.951   8.834  0.6177  0.6202 -1.0007
  326MOL0     H44920   1.667   9.820   8.883  2.0230 -0.1843 -0.0430
  326MOL0     H44921   1.868   9.724   8.898 -0.7341  0.7481 -0.9596
  326MOL0     H44922   1.819   9.784   9.056 -1.1918 -2.4588 -0.3195
  326MOL0     H44923   2.043   9.650   9.037  2.5137  0.0272 -0.5589
  326MOL0     H44924   2.102   9.781   8.952 -0.7862 -0.6773 -0.2751
  326MOL0     H44925   2.189   9.800   9.171  0.9177  1.8865  0.2521
  326MOL0     H44926   2.099   9.944   9.120 -1.3113 -0.2202  0.2194
  326MOL0     H44927   1.915   9.872   9.262 -2.3463 -2.9050  0.8281
  326MOL0     H44928   1.984   9.705   9.276 -0.6546 -0.4292  2.0724
  326MOL0     H44929   2.019   9.833   9.488  1.8863  0.8073  2.1078
  326MOL0     H44930   2.083   9.972   9.401  3.3689 -0.4824  1.8601
  326MOL0     H44931   2.193   9.709   9.482 -2.1121  1.4245  1.0761
  326MOL0     H44932   2.287   9.786   9.349 -1.4252  1.4957 -2.1935
  326MOL0     H44933   2.404   9.808   9.553 -1.0975 -0.2175  1.0231
  326MOL0     H44934   2.261   9.853   9.641  0.3135  1.4328  0.1339
  326MOL0     H44935   2.249  10.070   9.511  1.3190  0.4395 -0.7238
  326MOL0     H44936   2.404  10.046   9.600 -0.3371 -0.7625  0.8619
  326MOL0     H44937   2.621   9.968   9.465  0.6966 -2.8302 -1.2062
  326MOL0     H44938   2.792  10.117   9.261 -2.1844  0.2101  0.6849
  326MOL0     H44939   2.721  10.095   9.105 -1.6056  0.2468 -0.0352
  326MOL0     H44940   2.802   9.857   9.279 -3.4485  4.2477  2.3069
  326MOL0     H44941   2.736   9.846   9.118 -0.8972 -1.1254  1.2118
  326MOL0     H44942   2.964   9.812   9.099  0.4226 -0.9277  3.8875
  326MOL0     H44943   2.930   9.964   9.016  0.0782 -0.2758 -0.2644
  326MOL0     H44944   3.009  10.081   9.225  1.1483 -0.3350  2.2595
  326MOL0     H44945   3.050   9.924   9.301 -1.2412 -2.6942 -1.7094
  326MOL0     H44946   3.193   9.861   8.937 -3.2907 -1.1598 -0.3768
  326MOL0     H44947   3.334   9.546   8.848 -1.7617 -1.6598  0.8727
  326MOL0     H44948   3.216   9.677   8.806  0.4509  0.0501 -0.4246
  326MOL0     H44949   3.164   9.527   8.883 -0.4451  0.1184  0.3365
  326MOL0     H44950   3.609   9.302   9.140 -0.9892 -0.4680  1.2186
  326MOL0     H44951   3.705   9.074   9.131  0.8485  1.1087  0.5941
  326MOL0     H44952   3.728   8.869   9.152 -1.1376  2.8673 -0.5412
  326MOL0     H44953   3.697   8.722   9.061  0.9901 -0.2783  0.1904
  326MOL0     H44954   3.809   8.829   8.856  0.0022  0.8324 -0.7327
  326MOL0     H44955   3.827   8.972   8.964 -0.1914  0.0204  2.9870
  326MOL0     H44956   3.949   8.689   8.985  0.4492 -0.3809  2.5096
  326MOL0     H44957   3.960   8.802   9.120  1.9572  2.1319 -0.1919
  326MOL0     H44958   4.059   8.961   8.949  1.0678  0.1566  0.2043
  326MOL0     H44959   4.027   8.840   8.817 -0.9155  2.4991  0.0719
  326MOL0     H44960   4.201   8.699   8.944  0.8108 -0.2042  2.4352
  326MOL0     H44961   4.267   8.842   8.861 -0.2875 -4.9295 -1.9462
  326MOL0     H44962   4.199   8.810   9.160  2.5961  1.9826  3.5353
  326MOL0     H44963   4.248   8.964   9.090 -0.4552  0.3107  0.9794
  326MOL0     H44964   4.468   8.864   9.021  2.4854 -0.7893  0.3941
  326MOL0     H44965   4.423   8.707   9.082 -1.7230  0.1641 -2.1041
  326MOL0     H44966   4.409   8.789   9.316 -0.5897  0.2830  0.1452
  326MOL0     H44967   4.420   8.952   9.253 -0.7979  0.3690 -0.6816
  326MOL0     H44968   3.368   8.965   8.886 -2.6994  1.7378  2.8884
  326MOL0     H44969   3.282   9.177   8.886 -1.1254 -2.6350  1.3643
  326MOL0     H44970   3.383   9.631   9.339 -2.6464 -0.1468  0.5001
  326MOL0     H44971   3.282   9.854   9.355  0.0873 -0.6188  0.5984
  326MOL0     H44972   1.882  10.184   8.887 -1.0199  1.7224  1.1654
  326MOL0     H44973   1.671  10.312   8.877  0.4545 -0.1212  0.6138
  326MOL0     H44974   1.231  10.089   8.774 -2.4694 -1.6717  0.8873
  326MOL0     H44975   0.994  10.093   8.708 -4.8186  1.9145 -0.3842
  326MOL0     H44976   0.888  10.304   8.560 -1.0045 -2.3614  0.1018
  326MOL0     H44977   0.716  10.304   8.594 -0.7722 -1.3277  2.9625
  326MOL0     H44978   0.916  10.529   8.653 -0.0072 -1.9154  0.9263
  326MOL0     H44979   0.743  10.552   8.679  1.4526  1.0020  0.9612
  326MOL0     H44980   0.897  10.525   8.432  2.3404  0.5815  3.0216
  326MOL0     H44981   0.728  10.472   8.440  0.1529  0.6205 -1.7399
  326MOL0     H44982   0.853  10.742   8.482  1.8579 -0.9907 -0.6067
  326MOL0     H44983   0.676  10.712   8.505 -1.7591  0.2669 -4.0598
  326MOL0     H44984   0.710  10.678   8.075 -1.5887 -0.6937 -0.2029
  326MOL0     H44985   0.946  10.472   8.895 -1.1200 -0.6793 -0.2211
  326MOL0     H44986   1.214  10.447   9.116  2.3736  0.5133 -0.9908
  326MOL0     H44987   1.260  10.552   8.983 -0.6321  3.2255  2.9745
  326MOL0     H44988   1.100  10.562   9.037  2.0050  2.8280 -0.0067
  327MOL0     O44989   3.026  11.094   7.469  0.7325 -0.0981 -0.1274
  327MOL0     C44990   3.110  11.003   7.477  0.2838 -0.0880  0.3453
  327MOL0     O44991   3.222  11.006   7.547 -0.6542 -0.0964 -0.4800
  327MOL0     C44992   3.277  11.120   7.597 -0.0241 -0.2958  0.1609
  327MOL0     C44993   3.316  11.114   7.730 -0.6604 -0.3141 -0.1846
  327MOL0     C44994   3.370  11.222   7.792  1.1316  0.6423  0.4304
  327MOL0     C44995   3.403  11.344   7.722  0.5975  0.1412  0.6525
  327MOL0     O44996   3.467  11.439   7.796 -0.2982 -0.0841  0.1994
  327MOL0     C44997   3.519  11.558   7.730  0.4132  0.1431 -1.1195
  327MOL0     C44998   3.551  11.655   7.846  0.0637  0.0479  0.4158
  327MOL0     C44999   3.572  11.794   7.779 -0.3095  0.7296 -0.9450
  327MOL0     C45000   3.439  11.864   7.753 -0.1868 -0.3872 -0.7956
  327MOL0     C45001   3.451  11.980   7.645 -0.4952 -0.0967 -1.0755
  327MOL0     C45002   3.544  12.100   7.683  0.3452 -0.6345 -0.4019
  327MOL0     C45003   3.548  12.194   7.563 -1.1966 -0.2400 -0.2058
  327MOL0     C45004   3.668  12.177   7.474 -1.0102 -0.2143  0.1343
  327MOL0     N45005   3.792  12.212   7.531  0.6728 -0.7691 -0.0427
  327MOL0     C45006   3.837  12.339   7.556 -1.0061  0.2281 -0.4173
  327MOL0     C45007   3.954  12.317   7.627  0.6932  0.1680 -0.6549
  327MOL0     C45008   4.047  12.427   7.651  0.0239 -0.4541  0.5650
  327MOL0     C45009   4.097  12.496   7.527 -0.7191  1.0166  0.5121
  327MOL0     C45010   4.201  12.427   7.448  0.0519  0.2376  0.1605
  327MOL0     C45011   4.341  12.443   7.506 -0.0299  0.0899  0.5345
  327MOL0     O45012   4.386  12.583   7.495 -0.8902 -0.2308 -0.0846
  327MOL0     C45013   4.423  12.636   7.369  0.6114 -0.2129 -0.1492
  327MOL0     C45014   4.484  12.760   7.355 -0.1536  0.5552 -0.2112
  327MOL0     C45015   4.529  12.808   7.228  0.2884  0.8846  0.3313
  327MOL0     C45016   4.580  12.949   7.241 -0.8133  0.3511 -0.4285
  327MOL0     C45017   4.493  12.746   7.109  0.2300 -0.2980 -0.7118
  327MOL0     C45018   4.509  12.795   6.974 -0.7898 -0.6376 -0.1830
  327MOL0     O45019   4.403  12.778   6.884  0.2467  0.4141 -0.3415
  327MOL0     C45020   4.410  12.804   6.752  0.0042 -0.1261  0.3343
  327MOL0     C45021   4.334  12.725   6.669 -0.2605 -0.3920 -0.1459
  327MOL0     C45022   4.340  12.730   6.526 -2.1862 -0.4148 -0.3698
  327MOL0     C45023   4.427  12.820   6.468  0.4820 -0.0941 -0.3338
  327MOL0     O45024   4.446  12.841   6.328 -1.1812  0.4794 -0.0456
  327MOL0     C45025   4.381  12.950   6.263  0.5517  0.7705 -1.0532
  327MOL0     C45026   4.371  12.921   6.115  0.3665  0.0564  0.1939
  327MOL0     C45027   4.504  12.899   6.041 -0.0558  0.7192  0.0647
  327MOL0     C45028   4.561  13.031   5.978 -0.0947 -0.1262 -0.7801
  327MOL0     C45029   4.706  13.014   5.940  0.6237  0.3571  0.5659
  327MOL0     C45030   4.801  13.015   6.056 -1.2462 -0.8433  0.5713
  327MOL0     C45031   4.812  13.147   6.117  0.1803 -0.6322 -0.9777
  327MOL0     C45032   4.885  13.150   6.250 -0.2750  0.5776  0.4156
  327MOL0    Cl45033   4.783  13.117   6.387 -0.2829 -0.0458 -0.4496
  327MOL0     C45034   4.500  12.903   6.546  0.0932 -0.9265  0.3723
  327MOL0     C45035   4.497  12.890   6.688 -0.1136 -0.4300  0.2523
  327MOL0     O45036   4.611  12.848   6.945 -0.3877  0.5292  0.1871
  327MOL0     C45037   4.448  12.611   7.128 -0.8506 -0.7567  0.6001
  327MOL0     C45038   4.417  12.562   7.249 -0.6446  0.1595 -0.5256
  327MOL0     N45039   3.974  12.184   7.640  0.0734  0.9047  0.6372
  327MOL0     N45040   3.877  12.121   7.577  0.6158 -0.0349 -0.7934
  327MOL0     C45041   3.367  11.348   7.585 -0.1453 -0.7266 -0.8334
  327MOL0     C45042   3.305  11.241   7.521 -0.0176  0.4481 -0.4803
  327MOL0     C45043   3.075  10.873   7.405 -0.7757 -0.4225 -0.1288
  327MOL0     C45044   3.003  10.778   7.470  0.3613 -0.1929  0.4852
  327MOL0     C45045   2.967  10.660   7.412 -0.0644  1.0646  0.3923
  327MOL0     C45046   2.997  10.641   7.278 -0.5261 -0.2464  0.4989
  327MOL0     O45047   2.972  10.522   7.213  0.6201 -0.8068 -0.0448
  327MOL0     C45048   2.861  10.443   7.256  0.5605  0.7653  0.9519
  327MOL0     C45049   2.846  10.345   7.144  0.5304  0.1296  0.5444
  327MOL0     C45050   2.822  10.403   7.000  0.1080  0.2898 -0.2832
  327MOL0     C45051   2.712  10.502   6.999  0.4477 -0.4684 -0.5087
  327MOL0     C45052   2.772  10.639   6.996  0.4399  0.4549  0.2368
  327MOL0     C45053   2.817  10.745   6.969  0.6932 -0.1059  0.0488
  327MOL0     C45054   3.072  10.737   7.203  0.8605 -0.3534  0.4086
  327MOL0     C45055   3.112  10.852   7.273  0.1232  0.6400  0.0716
  327MOL0     C45056   3.196  10.949   7.211  0.1999  0.0300 -0.0142
  327MOL0     H45057   3.300  11.018   7.777 -0.2798  0.4811  1.6529
  327MOL0     H45058   3.393  11.208   7.897 -1.0065 -0.7616  0.7705
  327MOL0     H45059   3.447  11.598   7.658 -3.0038 -2.8351  0.3141
  327MOL0     H45060   3.615  11.539   7.682  0.5502 -1.1531 -0.4010
  327MOL0     H45061   3.474  11.660   7.924  0.2809 -0.3534  0.6585
  327MOL0     H45062   3.642  11.631   7.902  0.0854  1.4745  1.0349
  327MOL0     H45063   3.630  11.857   7.847 -2.5624  2.4123 -0.4471
  327MOL0     H45064   3.616  11.769   7.682 -2.9186 -0.9497 -1.8051
  327MOL0     H45065   3.358  11.793   7.734 -2.4648  1.1733  2.2018
  327MOL0     H45066   3.400  11.915   7.841  1.6065 -2.0666  1.0817
  327MOL0     H45067   3.352  12.022   7.625  0.2381  2.5175  0.2422
  327MOL0     H45068   3.495  11.945   7.551 -0.3502  0.5099 -1.2444
  327MOL0     H45069   3.499  12.146   7.771 -0.9926  1.0829 -1.9042
  327MOL0     H45070   3.643  12.060   7.705 -0.5439 -3.3171 -0.9388
  327MOL0     H45071   3.545  12.296   7.603  1.9777 -0.6295  1.3399
  327MOL0     H45072   3.461  12.179   7.498 -2.1570  2.3240  0.3655
  327MOL0     H45073   3.667  12.080   7.422  0.4521  0.5941 -1.4906
  327MOL0     H45074   3.670  12.239   7.383  0.7349 -2.1150 -1.2260
  327MOL0     H45075   3.793  12.435   7.533 -2.9372 -0.4209  0.4114
  327MOL0     H45076   4.134  12.397   7.710  0.6303  0.3079  0.0699
  327MOL0     H45077   3.995  12.510   7.701 -0.1144  0.6645 -1.3466
  327MOL0     H45078   4.019  12.499   7.450  0.2142 -1.2801 -0.5973
  327MOL0     H45079   4.128  12.600   7.541 -1.4543  1.0541  2.0908
  327MOL0     H45080   4.171  12.322   7.456 -3.9674  1.0931 -1.3083
  327MOL0     H45081   4.193  12.459   7.344 -1.3182 -0.7159 -0.0556
  327MOL0     H45082   4.343  12.409   7.610  0.3485 -0.2082  0.4338
  327MOL0     H45083   4.414  12.375   7.461 -2.0092 -1.2031 -0.8534
  327MOL0     H45084   4.495  12.813   7.448 -2.3434  0.4761  0.1283
  327MOL0     H45085   4.624  12.961   7.341  0.9822  2.5711 -1.4185
  327MOL0     H45086   4.508  13.031   7.232 -1.2147  0.3372  1.8454
  327MOL0     H45087   4.646  12.976   7.158  2.4506  1.1528  2.2009
  327MOL0     H45088   4.274  12.656   6.727 -2.8143  0.4953 -1.5478
  327MOL0     H45089   4.282  12.659   6.468 -0.1096 -0.6864 -2.2572
  327MOL0     H45090   4.283  12.975   6.307  2.0522  1.9521  1.9562
  327MOL0     H45091   4.433  13.045   6.279 -1.7108  1.7750  1.0906
  327MOL0     H45092   4.320  12.825   6.101  1.2309 -0.5100  0.7841
  327MOL0     H45093   4.304  12.990   6.063  1.4998 -0.0966 -1.5575
  327MOL0     H45094   4.480  12.829   5.961  0.2362  1.9713 -1.1647
  327MOL0     H45095   4.578  12.846   6.102 -0.1950  1.1272  0.5969
  327MOL0     H45096   4.539  13.104   6.056 -0.4069 -2.5026  1.4737
  327MOL0     H45097   4.501  13.062   5.892  2.7691  4.3927 -1.4716
  327MOL0     H45098   4.722  12.916   5.894  1.1138  1.8692 -2.7948
  327MOL0     H45099   4.725  13.087   5.861 -0.5439 -3.1434 -3.3130
  327MOL0     H45100   4.905  12.989   6.033 -1.5801 -2.5291  0.8945
  327MOL0     H45101   4.762  12.952   6.136 -0.2417 -3.6530 -1.0445
  327MOL0     H45102   4.713  13.185   6.144  0.4268 -0.5174 -0.2116
  327MOL0     H45103   4.873  13.218   6.060  1.2461  2.8587  3.8605
  327MOL0     H45104   4.924  13.252   6.251 -0.4621  0.6760  2.9370
  327MOL0     H45105   4.967  13.077   6.254 -1.1361 -0.4347  0.1382
  327MOL0     H45106   4.567  12.975   6.500  0.1402  0.4506  2.4509
  327MOL0     H45107   4.568  12.950   6.742 -2.4442  1.2508  1.6087
  327MOL0     H45108   4.433  12.544   7.044  1.3054  1.1942 -1.5068
  327MOL0     H45109   4.390  12.457   7.245 -2.0840  0.3977  1.5427
  327MOL0     H45110   3.392  11.432   7.521  0.3253 -0.2726 -0.0699
  327MOL0     H45111   3.279  11.237   7.416 -0.5999  0.2552 -0.3344
  327MOL0     H45112   2.962  10.795   7.569 -2.1302 -3.6517  0.1995
  327MOL0     H45113   2.916  10.588   7.475 -1.0483  2.1585  0.8783
  327MOL0     H45114   2.875  10.392   7.352  0.6104 -1.2363 -0.0703
  327MOL0     H45115   2.782  10.517   7.266  0.6045  1.3311 -2.0843
  327MOL0     H45116   2.768  10.275   7.174  0.8170 -0.7958 -0.7909
  327MOL0     H45117   2.935  10.281   7.139  1.1587  0.9075  1.4408
  327MOL0     H45118   2.912  10.455   6.966  0.4823 -0.4753 -0.4634
  327MOL0     H45119   2.791  10.325   6.931  1.3879  0.2520 -0.8453
  327MOL0     H45120   2.639  10.491   7.079  0.5380 -1.5440 -0.5591
  327MOL0     H45121   2.648  10.508   6.910 -1.5149  1.8182  0.9364
  327MOL0     H45122   2.858  10.842   6.951  2.5504 -0.7769  0.3569
  327MOL0     H45123   3.090  10.705   7.101  1.1795 -0.6885  0.5682
  327MOL0     H45124   3.139  11.042   7.218 -1.2902 -0.9023  0.8368
  327MOL0     H45125   3.292  10.957   7.265 -0.5362 -1.7737  1.7092
  327MOL0     H45126   3.190  10.938   7.103 -1.0913 -5.8254  0.3177
  328MOL0     O45127   8.376   4.792   6.035  0.2435 -0.0101 -0.6567
  328MOL0     C45128   8.360   4.774   5.914  0.1934  0.4562 -0.6918
  328MOL0     O45129   8.295   4.660   5.855 -0.4333 -0.0146  0.5079
  328MOL0     C45130   8.256   4.564   5.941  0.5212 -0.3963  1.8058
  328MOL0     C45131   8.156   4.578   6.032 -0.2717 -0.2695 -0.4391
  328MOL0     C45132   8.120   4.460   6.109 -0.0272 -0.1696 -0.7045
  328MOL0     C45133   8.185   4.338   6.092 -0.6757 -0.1378  0.1335
  328MOL0     O45134   8.165   4.241   6.183 -0.1240  0.6097 -0.0434
  328MOL0     C45135   8.249   4.122   6.196  0.6347 -0.0679 -0.3340
  328MOL0     C45136   8.234   4.073   6.333 -0.2103  0.4672  0.1605
  328MOL0     C45137   8.163   3.937   6.343 -0.1197 -0.0636 -0.1651
  328MOL0     C45138   8.257   3.827   6.317  0.6845 -0.2799 -0.0229
  328MOL0     C45139   8.192   3.697   6.335 -0.2932  0.0998  0.1952
  328MOL0     C45140   8.281   3.573   6.296  0.3618  0.5437  0.0399
  328MOL0     C45141   8.229   3.429   6.304 -0.5680  0.1065 -0.2236
  328MOL0     C45142   8.183   3.386   6.446  0.0025  0.5720  0.3889
  328MOL0     N45143   8.292   3.320   6.523  0.0763 -0.1133  0.0321
  328MOL0     C45144   8.277   3.263   6.647 -0.0949 -0.1689  0.2376
  328MOL0     C45145   8.399   3.226   6.684  0.2365 -0.7018  0.3764
  328MOL0     C45146   8.445   3.137   6.797 -0.3568  0.5039  0.1747
  328MOL0     C45147   8.367   3.162   6.928  0.7872 -0.4320 -0.1404
  328MOL0     C45148   8.388   3.300   6.986  0.6572 -0.5204  0.1445
  328MOL0     C45149   8.525   3.329   7.040 -0.3585  0.4187  1.1098
  328MOL0     O45150   8.606   3.413   6.952 -0.2357 -0.5289 -0.5086
  328MOL0     C45151   8.610   3.550   6.982  0.1624 -0.3438  0.5823
  328MOL0     C45152   8.534   3.619   7.083 -0.1370 -0.3240  0.5214
  328MOL0     C45153   8.525   3.758   7.087  0.8405 -0.6053 -0.6445
  328MOL0     C45154   8.416   3.813   7.175  0.5764  0.0920 -0.4343
  328MOL0     C45155   8.618   3.840   7.013  0.2582  0.0669 -0.1834
  328MOL0     C45156   8.626   3.987   7.009 -0.2625  0.0534  0.2147
  328MOL0     O45157   8.726   4.037   6.930 -0.2919 -0.7352 -0.0618
  328MOL0     C45158   8.722   4.174   6.904 -0.2414  0.9833 -0.6070
  328MOL0     C45159   8.849   4.237   6.890  0.6582  0.2345 -0.8446
  328MOL0     C45160   8.862   4.370   6.840  0.0760  0.2181 -0.7793
  328MOL0     C45161   8.750   4.443   6.813 -0.1992  0.7439 -0.6055
  328MOL0     O45162   8.757   4.585   6.796 -0.2472  0.1944 -0.2334
  328MOL0     C45163   8.833   4.612   6.669  1.5663 -0.0194 -0.2528
  328MOL0     C45164   8.895   4.750   6.655  0.1118  0.0118  0.5156
  328MOL0     C45165   9.003   4.777   6.757 -0.0163  0.2682  1.4121
  328MOL0     C45166   9.081   4.905   6.734  0.7621  0.2625 -0.2247
  328MOL0     C45167   9.143   4.969   6.860  1.1098 -1.4399  0.3146
  328MOL0     C45168   9.211   5.103   6.829  0.1246  0.1099 -0.5681
  328MOL0     C45169   9.285   5.165   6.951 -0.3125 -0.4134 -0.8057
  328MOL0     C45170   9.371   5.285   6.917 -0.2921 -0.5240  0.5524
  328MOL0    Cl45171   9.509   5.235   6.817  0.2295 -0.1977 -0.0170
  328MOL0     C45172   8.631   4.382   6.830  0.1360 -0.2830 -0.5312
  328MOL0     C45173   8.613   4.246   6.869  0.0182  0.2166  0.2348
  328MOL0     O45174   8.567   4.056   7.089 -0.3381 -0.4720 -0.3723
  328MOL0     C45175   8.702   3.769   6.926  0.3391 -0.2164 -0.1818
  328MOL0     C45176   8.689   3.630   6.906 -1.1393 -0.5205  1.4638
  328MOL0     N45177   8.485   3.266   6.593 -0.3992 -0.0093 -0.3344
  328MOL0     N45178   8.426   3.335   6.502 -0.9506 -0.4043 -0.0956
  328MOL0     C45179   8.277   4.332   5.992 -1.2502 -0.0619  0.4186
  328MOL0     C45180   8.305   4.441   5.903 -0.2876  0.1381 -0.4388
  328MOL0     C45181   8.418   4.862   5.811  0.2216 -0.2212  1.2720
  328MOL0     C45182   8.544   4.921   5.824 -0.4959  0.6820 -0.4477
  328MOL0     C45183   8.601   4.995   5.724 -0.0756  0.2468 -0.0628
  328MOL0     C45184   8.543   4.996   5.597  0.2740 -0.4451  0.4256
  328MOL0     O45185   8.602   5.029   5.472 -0.2794  0.2972 -0.0547
  328MOL0     C45186   8.716   5.120   5.473  0.7194  0.1481  0.6321
  328MOL0     C45187   8.844   5.048   5.503  0.0585 -0.3146  0.7452
  328MOL0     C45188   8.966   5.126   5.443 -0.3530  0.4518 -0.6144
  328MOL0     C45189   8.996   5.264   5.512 -0.1214 -0.1471  0.5971
  328MOL0     C45190   9.017   5.246   5.660  0.7299  0.4278  0.1806
  328MOL0     C45191   9.029   5.220   5.778 -0.6566  0.1147  0.0703
  328MOL0     C45192   8.409   4.950   5.586 -1.3682 -0.7299 -0.8708
  328MOL0     C45193   8.343   4.885   5.690  0.2830  0.7151 -0.5623
  328MOL0     C45194   8.206   4.841   5.670  0.4889  0.4505  0.1076
  328MOL0     H45195   8.099   4.666   6.060  0.1439 -0.7875  2.2444
  328MOL0     H45196   8.050   4.463   6.192 -0.4871 -2.3651 -0.9335
  328MOL0     H45197   8.356   4.141   6.187  0.8913 -1.4561 -0.4836
  328MOL0     H45198   8.210   4.045   6.128 -0.6633  0.2704 -0.0039
  328MOL0     H45199   8.338   4.065   6.368 -0.0464  0.8383 -0.2372
  328MOL0     H45200   8.198   4.155   6.395  2.5391 -1.1385  4.3945
  328MOL0     H45201   8.115   3.936   6.442 -2.8826 -1.2873 -1.3882
  328MOL0     H45202   8.075   3.936   6.277 -0.2916 -0.8505  0.0610
  328MOL0     H45203   8.294   3.840   6.215  0.3792  0.7993 -0.0062
  328MOL0     H45204   8.345   3.836   6.381  0.0914  1.3078  0.6138
  328MOL0     H45205   8.098   3.695   6.278  0.4700 -2.9312 -1.1472
  328MOL0     H45206   8.159   3.699   6.439 -0.7249  1.3927  0.0512
  328MOL0     H45207   8.307   3.602   6.194 -0.1283  2.3284  0.3712
  328MOL0     H45208   8.373   3.555   6.353  0.4001  0.4825 -0.0416
  328MOL0     H45209   8.307   3.361   6.271 -2.8886 -1.4680 -2.9555
  328MOL0     H45210   8.148   3.407   6.234  1.2659 -1.3484 -1.9892
  328MOL0     H45211   8.153   3.477   6.499 -2.9844 -0.6956  1.0500
  328MOL0     H45212   8.094   3.324   6.459  0.0580  0.5848  0.8545
  328MOL0     H45213   8.185   3.238   6.699 -1.0814  1.8938 -0.3947
  328MOL0     H45214   8.553   3.146   6.812  0.3834  2.9167 -4.6636
  328MOL0     H45215   8.436   3.030   6.777  0.4708  0.0574  1.9428
  328MOL0     H45216   8.264   3.142   6.899  1.6973 -0.5639 -3.8479
  328MOL0     H45217   8.385   3.100   7.016 -4.0521 -0.0136  1.4306
  328MOL0     H45218   8.369   3.378   6.912  2.5606  1.5480  1.6937
  328MOL0     H45219   8.321   3.314   7.072  0.2636 -0.8624 -0.1005
  328MOL0     H45220   8.507   3.371   7.139  1.6512  2.2466  0.7644
  328MOL0     H45221   8.568   3.229   7.051 -2.0796 -0.3506  1.2556
  328MOL0     H45222   8.462   3.557   7.135  1.8725 -2.2473  1.1600
  328MOL0     H45223   8.361   3.887   7.116  0.9780  1.4064  0.7994
  328MOL0     H45224   8.458   3.859   7.264  1.2713 -1.3820  0.0310
  328MOL0     H45225   8.344   3.736   7.204 -1.3252  1.7173 -0.6437
  328MOL0     H45226   8.930   4.168   6.911  0.5637 -0.1204 -1.6314
  328MOL0     H45227   8.961   4.415   6.841 -0.2618  0.9838  0.6882
  328MOL0     H45228   8.919   4.546   6.687  1.0881 -0.3453  0.9407
  328MOL0     H45229   8.790   4.576   6.575  3.0141 -1.5081 -0.3988
  328MOL0     H45230   8.924   4.762   6.550 -2.2640 -3.4305 -0.7236
  328MOL0     H45231   8.811   4.818   6.668  0.8138  1.1976 -0.8452
  328MOL0     H45232   9.077   4.697   6.760  1.0790  1.0977 -1.1073
  328MOL0     H45233   8.952   4.793   6.853  0.5906  0.3862  1.7214
  328MOL0     H45234   9.019   4.979   6.683 -0.0911 -1.5614 -1.9359
  328MOL0     H45235   9.162   4.881   6.665  1.9856  0.3823  1.1239
  328MOL0     H45236   9.071   4.984   6.941  1.2885  1.3897  0.0268
  328MOL0     H45237   9.212   4.891   6.896  1.2036 -2.6211 -2.1886
  328MOL0     H45238   9.139   5.182   6.805 -0.7095  0.5935  2.9419
  328MOL0     H45239   9.272   5.081   6.741  3.4670 -1.5909  1.9251
  328MOL0     H45240   9.331   5.093   7.020 -1.2484 -0.5853 -0.3562
  328MOL0     H45241   9.203   5.213   7.005  0.3757  0.9064 -0.8778
  328MOL0     H45242   9.399   5.347   7.003  1.1840 -0.2595 -0.0975
  328MOL0     H45243   9.318   5.358   6.855  2.9692  0.5150 -1.2495
  328MOL0     H45244   8.539   4.440   6.825  0.9807  1.1294 -0.0035
  328MOL0     H45245   8.516   4.199   6.883  0.4325 -1.2534 -1.4063
  328MOL0     H45246   8.786   3.819   6.879 -0.1311  0.2403 -0.5567
  328MOL0     H45247   8.759   3.588   6.835 -1.5149 -0.6813  1.1893
  328MOL0     H45248   8.336   4.246   5.961  2.4561  2.1013  0.8221
  328MOL0     H45249   8.370   4.440   5.817 -0.6491  3.6498 -0.9052
  328MOL0     H45250   8.582   4.911   5.925 -0.8516  1.9742 -0.1684
  328MOL0     H45251   8.693   5.050   5.742  1.6025 -1.9275 -1.5237
  328MOL0     H45252   8.729   5.169   5.376  1.3816  1.7880  1.5070
  328MOL0     H45253   8.710   5.204   5.544  2.3201  1.6389 -0.9054
  328MOL0     H45254   8.847   4.949   5.458  0.6443 -0.3563  0.8611
  328MOL0     H45255   8.852   5.040   5.612 -0.8654  1.4572  0.9881
  328MOL0     H45256   9.055   5.065   5.462 -1.4967 -0.7396  1.4080
  328MOL0     H45257   8.948   5.140   5.336 -5.7316  1.0187  0.0702
  328MOL0     H45258   8.916   5.338   5.494 -0.8045 -0.7098  1.2585
  328MOL0     H45259   9.084   5.306   5.462 -0.4503  1.4923  1.3089
  328MOL0     H45260   9.054   5.198   5.880  1.4271 -0.6008 -0.5431
  328MOL0     H45261   8.362   4.937   5.489 -1.3169 -1.4644 -0.7992
  328MOL0     H45262   8.148   4.797   5.752 -0.3987  3.2403  1.1092
  328MOL0     H45263   8.140   4.921   5.635 -1.6241  0.6409  4.0000
  328MOL0     H45264   8.212   4.773   5.584 -0.5536  1.0384 -0.4561
  329MOL0     O45265   4.787   6.528   4.723  0.0398  0.4137  0.0986
  329MOL0     C45266   4.784   6.646   4.729  0.1203  0.2942  0.0349
  329MOL0     O45267   4.857   6.728   4.650  0.5185 -0.1639  0.0261
  329MOL0     C45268   4.959   6.684   4.562  0.7421  0.4273  0.4962
  329MOL0     C45269   4.929   6.706   4.430 -0.8283 -0.1161  0.0740
  329MOL0     C45270   5.014   6.648   4.334 -0.1043 -0.0275  0.3825
  329MOL0     C45271   5.125   6.567   4.371 -0.0556 -0.1158  1.4252
  329MOL0     O45272   5.204   6.490   4.292  0.2275 -0.0198  0.1823
  329MOL0     C45273   5.249   6.546   4.167 -0.2599 -0.0914  0.4992
  329MOL0     C45274   5.319   6.442   4.087  0.3517 -0.5382 -0.2146
  329MOL0     C45275   5.450   6.404   4.147  0.8971 -0.6199  0.1488
  329MOL0     C45276   5.538   6.298   4.073  0.9373  0.2086 -0.3755
  329MOL0     C45277   5.505   6.154   4.107  0.4480 -0.3983  0.5076
  329MOL0     C45278   5.559   6.116   4.254 -0.3905  0.2019  0.5286
  329MOL0     C45279   5.538   5.968   4.295 -0.6933 -0.0328  0.0961
  329MOL0     C45280   5.568   5.860   4.186  0.4252  0.6728 -0.0061
  329MOL0     N45281   5.559   5.724   4.249  0.1342  0.4971  0.1405
  329MOL0     C45282   5.475   5.684   4.356 -0.2687 -0.1709  0.0790
  329MOL0     C45283   5.524   5.575   4.403  0.5679  0.9804  0.7368
  329MOL0     C45284   5.486   5.501   4.535  0.0540  0.8936  0.4947
  329MOL0     C45285   5.416   5.368   4.512  0.1478 -0.3068  1.0993
  329MOL0     C45286   5.270   5.408   4.467  0.5249  0.6026  0.3691
  329MOL0     C45287   5.180   5.406   4.586  0.3974  0.2094  0.4681
  329MOL0     O45288   5.151   5.273   4.629  0.5930 -0.1081  0.1800
  329MOL0     C45289   5.062   5.194   4.562 -0.4276  0.3635 -0.1583
  329MOL0     C45290   5.018   5.082   4.628  0.5828 -0.2981  0.0683
  329MOL0     C45291   4.927   4.986   4.574  0.6349 -0.1310  0.4819
  329MOL0     C45292   4.864   4.885   4.663  0.4017  0.5533  0.6895
  329MOL0     C45293   4.888   5.000   4.442 -0.2401  0.1241  0.7494
  329MOL0     C45294   4.783   4.907   4.366 -1.1078 -0.4283 -0.3645
  329MOL0     O45295   4.754   4.952   4.242 -0.8863 -0.0300 -0.3391
  329MOL0     C45296   4.686   4.874   4.155 -1.1556  0.4489 -0.1059
  329MOL0     C45297   4.672   4.737   4.168  0.5429 -0.3189  0.0539
  329MOL0     C45298   4.604   4.663   4.068  0.6786 -0.0034 -0.2266
  329MOL0     C45299   4.547   4.727   3.957  0.3856  0.3912  0.3902
  329MOL0     O45300   4.486   4.639   3.865 -0.1467  0.5850 -0.1119
  329MOL0     C45301   4.406   4.684   3.764 -0.2001 -0.3438  0.5452
  329MOL0     C45302   4.266   4.719   3.826  0.7242 -0.5285 -0.3544
  329MOL0     C45303   4.206   4.607   3.901  0.4710 -0.3490 -0.7159
  329MOL0     C45304   4.065   4.655   3.956  1.1253 -0.2360 -0.4034
  329MOL0     C45305   3.999   4.534   4.022  0.1658 -0.6743 -0.5341
  329MOL0     C45306   3.872   4.578   4.121 -0.0512 -0.1552  0.0580
  329MOL0     C45307   3.759   4.657   4.055 -0.2178  0.1805 -0.4772
  329MOL0     C45308   3.692   4.572   3.957  0.4141  1.6390 -0.1529
  329MOL0    Cl45309   3.551   4.651   3.873  0.0444  0.5205  0.3357
  329MOL0     C45310   4.577   4.863   3.941  0.3129  0.3879 -0.1486
  329MOL0     C45311   4.649   4.933   4.041 -0.3827 -0.3109  0.6094
  329MOL0     O45312   4.708   4.835   4.428 -0.4977 -0.4891 -0.1863
  329MOL0     C45313   4.928   5.120   4.380 -0.5642 -0.1107 -0.7567
  329MOL0     C45314   5.017   5.216   4.433 -0.3039  0.1268 -0.4499
  329MOL0     N45315   5.642   5.548   4.336 -1.0595 -0.2340  0.3353
  329MOL0     N45316   5.652   5.632   4.247 -0.5183 -0.6373 -0.9354
  329MOL0     C45317   5.154   6.550   4.508  0.4957 -0.2016 -0.4113
  329MOL0     C45318   5.073   6.611   4.602 -0.8290  0.1246 -0.3908
  329MOL0     C45319   4.686   6.704   4.825  0.0819 -0.3589 -0.1908
  329MOL0     C45320   4.697   6.850   4.836 -0.2589  0.8549  0.7551
  329MOL0     C45321   4.611   6.923   4.909 -0.0292  0.8463  0.5058
  329MOL0     C45322   4.502   6.854   4.976 -0.7327 -0.0325  0.3828
  329MOL0     O45323   4.419   6.913   5.064  0.0688 -0.0069 -0.1950
  329MOL0     C45324   4.363   7.032   5.013 -0.2371 -0.3942  0.2139
  329MOL0     C45325   4.217   7.071   5.054  0.8333  0.2788 -0.4490
  329MOL0     C45326   4.112   6.999   4.970  0.4472  0.7726  0.6753
  329MOL0     C45327   4.039   7.077   4.863  0.3855 -0.2932  0.0381
  329MOL0     C45328   3.944   6.994   4.791  0.5767  0.3057 -0.1936
  329MOL0     C45329   3.854   6.922   4.740 -1.0628 -0.1864 -0.0473
  329MOL0     C45330   4.483   6.718   4.956  0.1205 -0.0224  1.1036
  329MOL0     C45331   4.570   6.640   4.879 -1.7542 -0.6801 -0.2563
  329MOL0     C45332   4.542   6.493   4.864 -0.5994 -0.4047 -0.5489
  329MOL0     H45333   4.843   6.769   4.409  0.5038  1.7234 -0.2032
  329MOL0     H45334   5.002   6.660   4.227 -0.0642  0.4721  0.4328
  329MOL0     H45335   5.307   6.634   4.198 -0.8105 -0.2833  2.1988
  329MOL0     H45336   5.165   6.581   4.106  1.2749  0.8896 -1.1177
  329MOL0     H45337   5.250   6.358   4.077 -2.3050  1.2499  1.5085
  329MOL0     H45338   5.352   6.488   3.994  0.8707  4.2032  2.0041
  329MOL0     H45339   5.501   6.500   4.154 -3.6215  2.1557 -0.9687
  329MOL0     H45340   5.434   6.382   4.253 -0.0405  2.4555  0.7537
  329MOL0     H45341   5.520   6.308   3.966  1.1777 -2.5283 -0.7348
  329MOL0     H45342   5.643   6.315   4.099  0.3487 -0.9087  3.4309
  329MOL0     H45343   5.562   6.086   4.043 -0.4849 -3.5343  2.7690
  329MOL0     H45344   5.398   6.138   4.090  0.3046  0.7410  0.2041
  329MOL0     H45345   5.665   6.144   4.261 -0.3755 -0.3247  3.2676
  329MOL0     H45346   5.511   6.185   4.323  0.5422  0.4679  0.9283
  329MOL0     H45347   5.441   5.965   4.345  0.2632  0.3842  2.1030
  329MOL0     H45348   5.613   5.959   4.375  0.9619  2.4659 -1.0274
  329MOL0     H45349   5.499   5.870   4.102 -0.4376 -0.1191  0.5845
  329MOL0     H45350   5.672   5.874   4.158  0.1330  0.3022 -1.3360
  329MOL0     H45351   5.391   5.742   4.393 -0.0697  0.3284 -0.2443
  329MOL0     H45352   5.408   5.562   4.583 -1.6083 -1.1718  0.5903
  329MOL0     H45353   5.575   5.476   4.593  0.8457  1.4675 -0.4492
  329MOL0     H45354   5.468   5.316   4.431 -1.6291 -0.0924 -0.2309
  329MOL0     H45355   5.430   5.298   4.595  2.4217  0.6450  1.6059
  329MOL0     H45356   5.261   5.507   4.423  0.2747  0.0863 -0.7809
  329MOL0     H45357   5.244   5.342   4.383 -1.4566  2.0794 -0.2571
  329MOL0     H45358   5.214   5.475   4.664 -6.0905  1.3631  2.8865
  329MOL0     H45359   5.083   5.450   4.559 -0.3177 -0.9122  1.1519
  329MOL0     H45360   5.057   5.064   4.728 -3.3459  1.0312  2.0487
  329MOL0     H45361   4.917   4.872   4.757  1.7879 -1.3447 -0.2929
  329MOL0     H45362   4.861   4.788   4.611  4.3991 -0.6700  2.3982
  329MOL0     H45363   4.758   4.908   4.677  0.1879  2.6235 -2.9713
  329MOL0     H45364   4.720   4.690   4.252  0.9020  0.4449  0.2852
  329MOL0     H45365   4.601   4.556   4.083  0.6150  0.1891  1.2642
  329MOL0     H45366   4.442   4.766   3.701 -0.8486 -0.8733 -0.5569
  329MOL0     H45367   4.392   4.598   3.697 -0.0632 -0.5176  0.7376
  329MOL0     H45368   4.271   4.810   3.885 -3.0318  1.6392 -2.9299
  329MOL0     H45369   4.191   4.755   3.754 -2.8716 -0.2113  3.2001
  329MOL0     H45370   4.274   4.597   3.986  2.0604 -0.3971 -1.9462
  329MOL0     H45371   4.201   4.516   3.841 -4.3646  0.6720 -2.3373
  329MOL0     H45372   4.001   4.688   3.874  0.4731 -1.9384 -0.6192
  329MOL0     H45373   4.084   4.736   4.027  2.8723 -1.0924  0.1657
  329MOL0     H45374   3.961   4.466   3.945 -0.4792  0.6403 -1.4140
  329MOL0     H45375   4.066   4.483   4.091 -0.6919  2.6894  3.1959
  329MOL0     H45376   3.898   4.634   4.211 -2.7031  0.8218  0.3014
  329MOL0     H45377   3.820   4.489   4.160  0.6078 -1.0435 -1.0149
  329MOL0     H45378   3.806   4.740   4.001  1.6652  0.0179  0.7993
  329MOL0     H45379   3.689   4.695   4.129 -0.1993 -0.1629 -0.2851
  329MOL0     H45380   3.651   4.485   4.009 -0.3644  2.1635  0.1308
  329MOL0     H45381   3.755   4.540   3.873  1.2211  0.7192  0.7879
  329MOL0     H45382   4.527   4.917   3.861 -1.6868 -0.3422  0.5638
  329MOL0     H45383   4.655   5.041   4.040 -2.1383 -0.1826  0.4006
  329MOL0     H45384   4.899   5.149   4.280 -1.0048  1.5175 -0.2009
  329MOL0     H45385   5.036   5.310   4.380  2.4643 -0.2329 -0.2512
  329MOL0     H45386   5.234   6.483   4.539 -0.6762 -0.8576  1.3020
  329MOL0     H45387   5.084   6.592   4.708  1.3958  2.1457 -0.1975
  329MOL0     H45388   4.770   6.914   4.789 -1.7506 -0.6560 -4.2111
  329MOL0     H45389   4.618   7.030   4.925  0.8170  0.6109  1.8644
  329MOL0     H45390   4.427   7.116   5.041 -0.1960 -0.0014 -1.0273
  329MOL0     H45391   4.363   7.032   4.904 -0.1507 -0.5751  0.2136
  329MOL0     H45392   4.207   7.179   5.047 -0.3343  0.3847  1.9233
  329MOL0     H45393   4.180   7.057   5.156  0.0437 -2.2506 -0.9980
  329MOL0     H45394   4.135   6.900   4.931  1.8068  1.0278  0.7833
  329MOL0     H45395   4.037   6.971   5.045 -0.3958  0.7059 -0.1769
  329MOL0     H45396   4.110   7.126   4.796  0.0632  0.4267  0.2173
  329MOL0     H45397   3.980   7.151   4.916  1.9692  0.0668  1.4024
  329MOL0     H45398   3.777   6.855   4.708 -0.5820 -2.1567  2.6326
  329MOL0     H45399   4.394   6.677   5.002 -1.1471  1.2847 -0.1037
  329MOL0     H45400   4.624   6.436   4.908 -1.3340 -2.3160 -1.5345
  329MOL0     H45401   4.450   6.464   4.915 -1.3074  2.6530  0.1031
  329MOL0     H45402   4.540   6.464   4.759 -0.5917  0.8004 -0.8949
  330MOL0     O45403   8.756   8.382   4.167  0.4235  0.4195  0.6049
  330MOL0     C45404   8.818   8.286   4.135  0.1495 -0.2965 -0.6745
  330MOL0     O45405   8.901   8.202   4.213 -0.1365  0.0641 -0.3199
  330MOL0     C45406   8.909   8.245   4.346  0.4599  0.1391  0.1736
  330MOL0     C45407   8.980   8.360   4.385  0.5397 -0.1135  1.4786
  330MOL0     C45408   9.008   8.388   4.519 -0.4434  0.4857 -0.4802
  330MOL0     C45409   8.959   8.305   4.623  0.6343  0.0309 -0.7788
  330MOL0     O45410   8.994   8.330   4.752 -0.2248 -0.5388  0.8639
  330MOL0     C45411   8.920   8.277   4.867  0.2711  0.2447  0.0463
  330MOL0     C45412   8.774   8.310   4.878  0.4869 -0.4997 -0.1046
  330MOL0     C45413   8.751   8.462   4.871  0.5343  0.7207  0.4705
  330MOL0     C45414   8.743   8.537   4.999  0.6411  0.6863  0.8322
  330MOL0     C45415   8.642   8.510   5.107  0.6399  0.0537  0.4299
  330MOL0     C45416   8.493   8.533   5.073  0.3166  0.1587  0.1772
  330MOL0     C45417   8.399   8.509   5.194  0.3884  0.9047  0.3497
  330MOL0     C45418   8.255   8.482   5.143  0.2295 -0.5072 -0.3084
  330MOL0     N45419   8.175   8.582   5.066 -0.2203  0.4189  0.0351
  330MOL0     C45420   8.070   8.651   5.124 -0.8285  0.1923  1.0175
  330MOL0     C45421   8.043   8.749   5.037 -0.6685 -1.3745  0.1096
  330MOL0     C45422   7.955   8.868   5.080 -0.0565 -0.2395  0.7565
  330MOL0     C45423   7.979   9.002   5.012 -0.3296  0.6150 -0.1542
  330MOL0     C45424   8.092   9.092   5.062 -0.4081 -0.0957  0.6214
  330MOL0     C45425   8.223   9.026   5.036 -0.6610  0.3222  0.4310
  330MOL0     O45426   8.259   8.954   5.150  0.2536 -0.2229 -0.4717
  330MOL0     C45427   8.391   8.918   5.164  0.5212  0.1949 -0.4845
  330MOL0     C45428   8.441   8.898   5.295  0.9256 -0.5989  0.0712
  330MOL0     C45429   8.575   8.890   5.326  0.3339  0.4989 -0.0822
  330MOL0     C45430   8.606   8.862   5.474 -0.5454 -0.0253  0.1242
  330MOL0     C45431   8.664   8.873   5.216 -0.6172  0.2458  0.4665
  330MOL0     C45432   8.807   8.845   5.220 -0.3740 -0.6988  0.2620
  330MOL0     O45433   8.886   8.928   5.142  0.3298  0.2417  0.0592
  330MOL0     C45434   9.017   8.948   5.143  0.2749  0.8380 -1.0485
  330MOL0     C45435   9.116   8.866   5.198 -0.3428  0.1835 -0.1367
  330MOL0     C45436   9.248   8.903   5.185 -1.3259 -0.0191 -0.2141
  330MOL0     C45437   9.289   9.010   5.104  1.1545 -0.1579 -0.3656
  330MOL0     O45438   9.411   9.038   5.062 -0.1182 -0.0648  0.3242
  330MOL0     C45439   9.508   8.932   5.083  0.3850 -0.6450 -0.2688
  330MOL0     C45440   9.645   8.976   5.031 -0.5236  0.3886 -0.3887
  330MOL0     C45441   9.761   8.897   5.100  0.1009 -0.0932  0.3207
  330MOL0     C45442   9.892   8.971   5.055 -0.3300  0.3081  0.3016
  330MOL0     C45443  10.027   8.900   5.106  0.1210 -0.2147 -0.5007
  330MOL0     C45444  10.077   8.773   5.050 -0.4743  0.5566  0.1036
  330MOL0     C45445  10.130   8.788   4.912  0.8857  0.9991  0.7320
  330MOL0     C45446  10.263   8.845   4.899  0.0768  0.3475  0.5010
  330MOL0    Cl45447  10.390   8.740   4.960 -0.3177 -0.3265 -0.3322
  330MOL0     C45448   9.189   9.101   5.066  0.3295  1.1340  0.2817
  330MOL0     C45449   9.054   9.068   5.082  0.4003 -0.4674 -0.2331
  330MOL0     O45450   8.841   8.779   5.311 -0.1699  0.1355 -0.0168
  330MOL0     C45451   8.609   8.881   5.085  0.1845 -0.1669 -0.2746
  330MOL0     C45452   8.479   8.905   5.063 -0.2910 -0.5513 -0.1205
  330MOL0     N45453   8.122   8.736   4.928 -0.3899  0.0014  0.5450
  330MOL0     N45454   8.201   8.637   4.946  0.9619  0.3518 -0.0956
  330MOL0     C45455   8.875   8.201   4.581  0.4372 -0.2184 -0.5421
  330MOL0     C45456   8.859   8.167   4.443  0.2136  0.5625 -0.1797
  330MOL0     C45457   8.802   8.229   3.998  0.2313  0.9554  0.1405
  330MOL0     C45458   8.903   8.149   3.946 -0.2107  0.5606  0.6911
  330MOL0     C45459   8.907   8.112   3.807  0.4827 -0.2314 -0.2039
  330MOL0     C45460   8.801   8.140   3.724  0.1633  1.2968 -0.2487
  330MOL0     O45461   8.809   8.093   3.593  1.0931  0.0626  0.0263
  330MOL0     C45462   8.753   7.960   3.579  0.2458  0.5822  0.5432
  330MOL0     C45463   8.838   7.878   3.481 -0.2642  0.6896  0.7318
  330MOL0     C45464   8.856   7.959   3.348  0.1558  0.9237 -0.2090
  330MOL0     C45465   8.724   7.986   3.270  0.1072 -0.3688 -0.6376
  330MOL0     C45466   8.635   7.872   3.249  0.0298  0.4605  0.0353
  330MOL0     C45467   8.551   7.787   3.223  0.4465  0.0535 -0.1766
  330MOL0     C45468   8.698   8.217   3.773 -0.1115 -0.9389 -0.1206
  330MOL0     C45469   8.700   8.263   3.910  1.6652  0.1405 -0.9924
  330MOL0     C45470   8.573   8.337   3.945 -0.5701 -0.3074  0.5559
  330MOL0     H45471   9.026   8.422   4.309 -1.8837  0.0485  0.0433
  330MOL0     H45472   9.067   8.475   4.547 -0.9656  0.6555  0.1021
  330MOL0     H45473   8.969   8.311   4.958 -0.0323  0.3744  0.1640
  330MOL0     H45474   8.932   8.169   4.873  2.9650  0.5144  0.5617
  330MOL0     H45475   8.729   8.266   4.788  2.4460  2.7014 -2.9001
  330MOL0     H45476   8.735   8.271   4.972 -0.9047  1.0223 -0.0274
  330MOL0     H45477   8.812   8.525   4.805  0.4704  2.2850  1.8257
  330MOL0     H45478   8.652   8.467   4.824  0.2612  3.4070  1.1720
  330MOL0     H45479   8.844   8.548   5.040  0.6164 -4.1150  2.8794
  330MOL0     H45480   8.715   8.639   4.974  0.0039  0.2007 -0.5262
  330MOL0     H45481   8.671   8.578   5.188  2.6778 -1.3973  0.9895
  330MOL0     H45482   8.655   8.410   5.150  2.8057  1.2245  2.7195
  330MOL0     H45483   8.472   8.637   5.048 -1.3705  0.2950  1.9498
  330MOL0     H45484   8.458   8.464   4.996  3.2072 -0.3158 -0.8575
  330MOL0     H45485   8.388   8.603   5.248 -0.7856  0.0397  1.6925
  330MOL0     H45486   8.436   8.434   5.265 -1.3967  1.6897  2.2154
  330MOL0     H45487   8.262   8.400   5.070  1.7945 -0.8219  0.1539
  330MOL0     H45488   8.195   8.434   5.221 -0.6117 -2.6137 -2.1351
  330MOL0     H45489   8.018   8.629   5.217 -0.9903 -2.1933  0.4280
  330MOL0     H45490   7.963   8.875   5.189 -1.0947 -0.2066  0.8389
  330MOL0     H45491   7.852   8.841   5.055 -0.0438  1.1950 -0.9590
  330MOL0     H45492   8.001   8.970   4.910 -1.4712  1.1171 -0.5787
  330MOL0     H45493   7.896   9.074   5.005 -1.0004 -0.1728 -0.4184
  330MOL0     H45494   8.095   9.180   4.997  0.3540 -2.7018 -3.2127
  330MOL0     H45495   8.077   9.109   5.169 -0.8933 -1.4963  0.7989
  330MOL0     H45496   8.226   8.968   4.944  0.9273 -0.3079  0.8330
  330MOL0     H45497   8.303   9.097   5.013  0.7164 -1.3989 -0.4087
  330MOL0     H45498   8.368   8.909   5.375 -0.8695  2.9580 -1.8124
  330MOL0     H45499   8.618   8.754   5.484  1.7668  0.1700  0.0582
  330MOL0     H45500   8.524   8.901   5.535  0.2031 -1.0885  1.8567
  330MOL0     H45501   8.704   8.893   5.513  1.7806 -4.2734 -1.6509
  330MOL0     H45502   9.089   8.770   5.242  0.0254  0.5173  0.8370
  330MOL0     H45503   9.318   8.843   5.243  1.6163  0.6272 -2.8041
  330MOL0     H45504   9.525   8.916   5.190  0.2111 -2.8669 -0.5198
  330MOL0     H45505   9.486   8.838   5.031  2.1748 -0.3244 -1.7237
  330MOL0     H45506   9.651   8.946   4.926 -1.7074  0.5963 -0.5300
  330MOL0     H45507   9.655   9.085   5.035 -0.4086  0.4495 -1.8095
  330MOL0     H45508   9.754   8.796   5.059 -0.9801 -0.5421  1.5433
  330MOL0     H45509   9.767   8.905   5.209 -0.0009  3.9624  0.1887
  330MOL0     H45510   9.880   9.076   5.085  0.7437  0.6301 -0.3516
  330MOL0     H45511   9.897   8.971   4.945  0.9703  1.6601  0.3180
  330MOL0     H45512  10.112   8.968   5.095  1.7038 -1.2985  3.3900
  330MOL0     H45513  10.006   8.878   5.211 -2.2633  3.2159 -0.0920
  330MOL0     H45514   9.995   8.701   5.041  1.9468 -2.4899  0.7876
  330MOL0     H45515  10.155   8.729   5.113 -0.5475 -0.9933 -0.8128
  330MOL0     H45516  10.056   8.850   4.859  0.5299  2.2423  2.5935
  330MOL0     H45517  10.134   8.685   4.875  2.0816  0.5948  1.9259
  330MOL0     H45518  10.268   8.944   4.945 -0.0843  1.4116 -1.6468
  330MOL0     H45519  10.281   8.861   4.792  0.1789  1.6493  0.6900
  330MOL0     H45520   9.218   9.194   5.018  3.3383  0.1326 -0.0854
  330MOL0     H45521   8.969   9.128   5.052 -1.2516 -3.1666 -1.2294
  330MOL0     H45522   8.671   8.884   4.996 -0.3064  0.3896 -0.6094
  330MOL0     H45523   8.439   8.916   4.962 -0.1577 -0.6114 -0.1796
  330MOL0     H45524   8.846   8.128   4.656  1.1951  0.3756  0.3512
  330MOL0     H45525   8.798   8.085   4.408  1.8352 -0.4321 -0.8016
  330MOL0     H45526   8.989   8.114   4.003  1.1109  1.1078 -0.9013
  330MOL0     H45527   8.993   8.058   3.768  0.5884  0.8270 -1.5183
  330MOL0     H45528   8.738   7.914   3.677 -2.4936  0.5255  0.1870
  330MOL0     H45529   8.648   7.971   3.549 -0.0018  0.0692  1.1661
  330MOL0     H45530   8.796   7.778   3.465 -1.8453  1.5105 -0.4387
  330MOL0     H45531   8.935   7.868   3.532 -1.2330  2.4412  3.0934
  330MOL0     H45532   8.910   8.053   3.360 -0.9458  1.3329  2.0220
  330MOL0     H45533   8.912   7.902   3.272  0.2509  0.1942  0.3989
  330MOL0     H45534   8.728   8.022   3.167 -2.5631  2.6647  0.1467
  330MOL0     H45535   8.676   8.065   3.329  3.4520  0.8135  0.7493
  330MOL0     H45536   8.486   7.705   3.202  0.1952  0.2849 -0.3195
  330MOL0     H45537   8.623   8.236   3.698 -0.5899 -0.4120  0.4786
  330MOL0     H45538   8.594   8.443   3.965  0.0577 -0.4890  0.9173
  330MOL0     H45539   8.493   8.337   3.871 -1.2074 -0.5217  1.2389
  330MOL0     H45540   8.528   8.295   4.036 -0.6420 -0.4729  0.4433
  331MOL0     O45541   9.428   7.076   4.694 -0.1567 -0.3953  0.5918
  331MOL0     C45542   9.467   7.015   4.600 -0.2743  0.2636 -0.4587
  331MOL0     O45543   9.511   6.887   4.611 -0.3316 -0.1020 -0.5314
  331MOL0     C45544   9.497   6.823   4.726 -1.6526  0.9659  0.1640
  331MOL0     C45545   9.567   6.852   4.842  0.2422 -0.8637  0.5661
  331MOL0     C45546   9.551   6.772   4.953 -1.2371 -0.2715  0.5625
  331MOL0     C45547   9.472   6.658   4.953  0.4045 -0.3154  0.3130
  331MOL0     O45548   9.428   6.624   5.082  0.1389  0.1827  0.1892
  331MOL0     C45549   9.288   6.612   5.109  0.1372  0.6606 -0.1559
  331MOL0     C45550   9.244   6.639   5.260  0.4082 -0.4432 -0.2329
  331MOL0     C45551   9.283   6.783   5.304  0.8971  0.0512  0.2117
  331MOL0     C45552   9.255   6.801   5.456  0.4433 -0.6801  1.0494
  331MOL0     C45553   9.288   6.944   5.524 -0.3059 -0.1732 -0.9837
  331MOL0     C45554   9.437   6.977   5.518  0.2254  0.1713 -0.2359
  331MOL0     C45555   9.497   7.046   5.642 -0.4207 -0.2141 -0.8165
  331MOL0     C45556   9.642   7.117   5.623  0.7470 -0.4448  0.2796
  331MOL0     N45557   9.742   7.029   5.555  0.5648  0.3951  0.7626
  331MOL0     C45558   9.761   7.030   5.419 -0.2756  0.1761 -0.8455
  331MOL0     C45559   9.840   6.917   5.403  0.6716  0.5828 -0.4266
  331MOL0     C45560   9.910   6.859   5.282 -0.8429 -0.5801  0.8757
  331MOL0     C45561   9.844   6.731   5.234 -0.0208 -0.3832  0.1238
  331MOL0     C45562   9.918   6.685   5.108  0.1823  0.8907 -0.3749
  331MOL0     C45563   9.886   6.538   5.062 -0.8216 -0.0812  0.0672
  331MOL0     O45564   9.978   6.506   4.952  0.2389 -0.3846  0.6656
  331MOL0     C45565   9.944   6.537   4.825 -0.4288 -0.7314  0.3137
  331MOL0     C45566  10.043   6.546   4.729  0.4726  0.2985 -0.6298
  331MOL0     C45567  10.024   6.591   4.593  0.2930  0.4364 -0.5044
  331MOL0     C45568  10.150   6.605   4.512  0.7383  0.8557 -0.3589
  331MOL0     C45569   9.888   6.611   4.553 -0.5583 -0.2687 -0.6813
  331MOL0     C45570   9.848   6.638   4.409 -0.2497  0.7054 -0.6140
  331MOL0     O45571   9.724   6.656   4.383  0.7436 -0.1663  0.1663
  331MOL0     C45572   9.696   6.680   4.245 -0.2859  0.1911 -0.9879
  331MOL0     C45573   9.700   6.805   4.191  0.4055 -0.2862  0.7935
  331MOL0     C45574   9.643   6.828   4.068 -0.2513  0.3496 -0.6007
  331MOL0     C45575   9.587   6.728   3.994 -0.0732  0.5500  0.6021
  331MOL0     O45576   9.530   6.760   3.868  0.0822 -0.1025  0.1905
  331MOL0     C45577   9.556   6.673   3.760  0.4401  0.0959 -0.1128
  331MOL0     C45578   9.493   6.731   3.637  0.2948  0.3084  0.5987
  331MOL0     C45579   9.462   6.654   3.502  0.3814 -0.2911  0.6544
  331MOL0     C45580   9.343   6.550   3.506 -0.5917 -0.3909 -0.1948
  331MOL0     C45581   9.342   6.454   3.385  0.5819 -0.1900  0.1208
  331MOL0     C45582   9.363   6.513   3.242  0.3462  0.6907 -0.5143
  331MOL0     C45583   9.319   6.414   3.133 -0.5798  0.5720  0.0816
  331MOL0     C45584   9.368   6.260   3.132 -0.2018 -0.0443  0.4382
  331MOL0    Cl45585   9.551   6.264   3.145  0.4315  0.1810 -0.0597
  331MOL0     C45586   9.597   6.599   4.045 -0.6127  0.0886  0.2123
  331MOL0     C45587   9.652   6.575   4.169  0.1688  0.2929 -0.1294
  331MOL0     O45588   9.945   6.651   4.336  0.0084  0.6143 -0.6634
  331MOL0     C45589   9.785   6.602   4.652 -0.4108 -0.0061 -0.7308
  331MOL0     C45590   9.812   6.565   4.782 -0.8730  0.2731  0.6467
  331MOL0     N45591   9.856   6.845   5.514  1.2505 -0.5546  0.4689
  331MOL0     N45592   9.816   6.921   5.611  0.0054  0.3812 -0.0715
  331MOL0     C45593   9.412   6.623   4.834  0.1162 -0.0109 -0.3124
  331MOL0     C45594   9.421   6.708   4.724 -0.2057 -0.0045  0.6212
  331MOL0     C45595   9.441   7.061   4.462 -0.1998  0.6887  0.5890
  331MOL0     C45596   9.447   6.966   4.359 -0.7293 -0.5843 -0.2084
  331MOL0     C45597   9.418   6.997   4.225 -0.4922  0.3142 -0.5702
  331MOL0     C45598   9.361   7.122   4.199  0.9165 -0.0684  0.5064
  331MOL0     O45599   9.320   7.157   4.075  0.5056 -0.1661  0.4143
  331MOL0     C45600   9.186   7.122   4.032 -0.2421 -1.2749  0.2013
  331MOL0     C45601   9.088   7.241   4.056 -0.6814 -0.1552  0.2764
  331MOL0     C45602   8.987   7.212   4.164 -0.8079  0.2348  0.0506
  331MOL0     C45603   8.875   7.312   4.157  0.5273  0.5747 -0.6378
  331MOL0     C45604   8.788   7.295   4.276 -0.0127 -0.0884  1.0138
  331MOL0     C45605   8.712   7.259   4.365 -0.3418 -0.5050  0.3918
  331MOL0     C45606   9.350   7.220   4.303 -0.3900  0.5601  0.1214
  331MOL0     C45607   9.404   7.197   4.429  0.2901  0.4051  0.0266
  331MOL0     C45608   9.426   7.310   4.529 -0.1592  0.3242  0.6421
  331MOL0     H45609   9.622   6.946   4.841  2.5436 -2.1071 -1.0976
  331MOL0     H45610   9.608   6.784   5.044  1.0859 -2.0430 -0.5700
  331MOL0     H45611   9.260   6.507   5.094  0.6071  0.2919  1.4175
  331MOL0     H45612   9.236   6.671   5.033 -2.2815 -1.5856 -0.3992
  331MOL0     H45613   9.140   6.618   5.286  0.2742 -0.3723 -0.7135
  331MOL0     H45614   9.308   6.568   5.315 -0.1078 -0.0342  0.9267
  331MOL0     H45615   9.390   6.794   5.284  1.7310 -1.4850  3.2937
  331MOL0     H45616   9.223   6.844   5.235  0.2834 -3.4282 -2.6676
  331MOL0     H45617   9.147   6.791   5.468 -0.3889  1.6975 -2.9371
  331MOL0     H45618   9.303   6.725   5.519 -2.2114 -1.6907  2.0051
  331MOL0     H45619   9.262   6.935   5.629  2.0467 -0.7844 -0.4015
  331MOL0     H45620   9.222   7.015   5.473 -0.5954  0.8355  0.7468
  331MOL0     H45621   9.498   6.893   5.485 -2.6335 -2.0685 -0.2117
  331MOL0     H45622   9.440   7.046   5.432 -2.2478 -1.2197 -1.5581
  331MOL0     H45623   9.500   6.965   5.715  0.4441 -0.5426 -1.2050
  331MOL0     H45624   9.426   7.119   5.682  2.6570  2.2687  0.5661
  331MOL0     H45625   9.619   7.211   5.571  0.3312 -2.5915 -3.7677
  331MOL0     H45626   9.697   7.132   5.717  0.1385  3.5379  0.2050
  331MOL0     H45627   9.723   7.109   5.356  1.0348  1.5750  0.0205
  331MOL0     H45628  10.009   6.827   5.316  1.1184  2.6097 -1.3201
  331MOL0     H45629   9.925   6.939   5.209 -0.8067 -2.1897 -0.9576
  331MOL0     H45630   9.843   6.652   5.309  2.0962 -0.4988  0.0932
  331MOL0     H45631   9.743   6.754   5.197  0.3917  0.7553 -0.3278
  331MOL0     H45632   9.912   6.744   5.016 -0.0270 -1.7507 -2.1545
  331MOL0     H45633  10.022   6.694   5.142 -0.2829  4.0303  0.5686
  331MOL0     H45634   9.915   6.481   5.152  1.6976  1.4734  0.3441
  331MOL0     H45635   9.781   6.513   5.050 -0.1039 -2.5983 -1.8494
  331MOL0     H45636  10.146   6.524   4.757  1.7959  4.5324 -1.3884
  331MOL0     H45637  10.222   6.619   4.592 -0.0626  1.3010  0.3012
  331MOL0     H45638  10.139   6.700   4.458 -0.1965  0.5669 -0.7144
  331MOL0     H45639  10.181   6.525   4.444  1.3080  1.0022 -0.2772
  331MOL0     H45640   9.730   6.889   4.253  1.3700 -1.1516  1.5190
  331MOL0     H45641   9.636   6.924   4.017 -0.5717 -1.3549 -4.0959
  331MOL0     H45642   9.664   6.665   3.752  0.2611 -1.2534 -1.8306
  331MOL0     H45643   9.519   6.573   3.787  0.4519  0.3766  0.9825
  331MOL0     H45644   9.396   6.770   3.670 -0.5147 -1.4223  0.4035
  331MOL0     H45645   9.556   6.817   3.612  2.4170 -1.2393  0.3787
  331MOL0     H45646   9.552   6.606   3.463  2.2220  1.8506  2.0797
  331MOL0     H45647   9.429   6.735   3.436 -3.0046  0.7622  3.3278
  331MOL0     H45648   9.248   6.604   3.495 -0.7860 -0.5489  0.6545
  331MOL0     H45649   9.346   6.504   3.605 -0.9599  0.9743  0.4769
  331MOL0     H45650   9.423   6.382   3.401 -0.8742 -1.8371  0.3917
  331MOL0     H45651   9.249   6.397   3.383  0.3447  0.1900 -2.6211
  331MOL0     H45652   9.467   6.546   3.233  1.4054 -2.3867 -0.5246
  331MOL0     H45653   9.292   6.596   3.228 -0.3756  0.4695  1.4696
  331MOL0     H45654   9.348   6.440   3.031 -0.7219  0.4756  0.0162
  331MOL0     H45655   9.209   6.410   3.140 -0.4838 -2.4341  1.2105
  331MOL0     H45656   9.332   6.211   3.041 -3.3143  1.9839  0.4361
  331MOL0     H45657   9.316   6.209   3.213 -0.4709  0.6058  0.6851
  331MOL0     H45658   9.559   6.516   3.987 -1.4652  0.8878 -0.3859
  331MOL0     H45659   9.671   6.472   4.195  0.1080 -0.1926 -1.8760
  331MOL0     H45660   9.680   6.618   4.628 -0.8632  2.0241  2.0894
  331MOL0     H45661   9.732   6.533   4.848 -1.4911  1.0565  0.2913
  331MOL0     H45662   9.355   6.531   4.831  1.5877 -1.1762  2.7669
  331MOL0     H45663   9.367   6.683   4.634  1.6296 -1.3675 -0.1680
  331MOL0     H45664   9.497   6.873   4.385  0.0905  0.7508  3.8208
  331MOL0     H45665   9.423   6.919   4.149 -2.2680 -0.2821 -0.1440
  331MOL0     H45666   9.193   7.093   3.927 -0.5597 -0.2307 -0.1224
  331MOL0     H45667   9.143   7.036   4.084 -0.3436 -1.6263 -0.4592
  331MOL0     H45668   9.027   7.256   3.967 -0.5394  3.5437  0.6420
  331MOL0     H45669   9.132   7.340   4.067 -0.8945  0.1952 -1.6134
  331MOL0     H45670   8.940   7.113   4.158 -1.0511  0.3003  0.7525
  331MOL0     H45671   9.037   7.223   4.261 -3.2880 -0.2049  1.4596
  331MOL0     H45672   8.810   7.290   4.072  0.8353  1.1735 -1.0355
  331MOL0     H45673   8.909   7.415   4.141  0.4513  0.7903  0.5166
  331MOL0     H45674   8.664   7.212   4.448 -0.7957 -1.0452 -0.1641
  331MOL0     H45675   9.303   7.318   4.291  0.3290  0.7139 -1.8199
  331MOL0     H45676   9.394   7.403   4.481 -0.5707 -1.1347 -2.2046
  331MOL0     H45677   9.368   7.297   4.621  1.4096 -0.0144  1.6182
  331MOL0     H45678   9.530   7.317   4.559  1.1055 -3.2947 -2.0585
  332MOL0     O45679   7.802   9.635   4.093  0.8016 -0.9638  0.3908
  332MOL0     C45680   7.884   9.551   4.110  1.3453  1.0208 -0.1878
  332MOL0     O45681   7.871   9.430   4.171  0.3431 -0.8356  0.7113
  332MOL0     C45682   7.744   9.395   4.230 -0.2800  0.2248  0.5545
  332MOL0     C45683   7.755   9.328   4.348 -0.5768 -1.2448 -0.2259
  332MOL0     C45684   7.638   9.295   4.414  0.6207  0.2605  0.6011
  332MOL0     C45685   7.506   9.316   4.357  0.4987 -0.0743  0.1427
  332MOL0     O45686   7.389   9.265   4.403  0.3350  0.4031  0.0302
  332MOL0     C45687   7.381   9.199   4.527  0.4221 -0.4249 -0.5658
  332MOL0     C45688   7.407   9.049   4.505 -0.8047 -0.3413 -0.9098
  332MOL0     C45689   7.348   8.983   4.377  0.8349 -1.0401  0.0206
  332MOL0     C45690   7.309   8.839   4.392 -0.2402  0.1462  0.7466
  332MOL0     C45691   7.421   8.737   4.392 -0.8143  0.6155 -0.0507
  332MOL0     C45692   7.371   8.616   4.470  0.7672  0.5748 -0.3091
  332MOL0     C45693   7.268   8.541   4.389  0.2467 -0.3593  1.1951
  332MOL0     C45694   7.227   8.401   4.446  0.1743  0.6847  0.4658
  332MOL0     N45695   7.179   8.414   4.585  0.4642 -0.4824  0.1788
  332MOL0     C45696   7.054   8.459   4.620 -0.4018  0.8153  0.1685
  332MOL0     C45697   7.048   8.416   4.743  0.1094 -0.5294 -0.2628
  332MOL0     C45698   6.919   8.448   4.829  0.8950 -0.0593  0.9993
  332MOL0     C45699   6.922   8.426   4.978  0.3420  0.1716 -0.1518
  332MOL0     C45700   6.906   8.279   5.009  0.8588  0.0667 -0.2598
  332MOL0     C45701   6.770   8.225   4.979 -0.1896 -0.1167  0.7307
  332MOL0     O45702   6.772   8.149   4.861  0.3232 -0.3194 -0.5941
  332MOL0     C45703   6.655   8.133   4.781 -0.7900 -1.1639  0.1778
  332MOL0     C45704   6.534   8.209   4.793 -0.5871  0.2317 -0.5562
  332MOL0     C45705   6.420   8.193   4.714 -0.1600 -0.5893  0.1538
  332MOL0     C45706   6.309   8.272   4.756  0.9841 -0.0334  0.8557
  332MOL0     C45707   6.427   8.089   4.615  0.0469  1.0970  0.2679
  332MOL0     C45708   6.310   8.056   4.525  0.2700 -0.0930  1.2829
  332MOL0     O45709   6.214   8.145   4.492 -0.0731  0.4641  0.1490
  332MOL0     C45710   6.099   8.096   4.441 -0.6046 -0.1129 -1.0659
  332MOL0     C45711   6.024   7.990   4.501 -0.5095 -0.2357 -0.5239
  332MOL0     C45712   5.902   7.949   4.456  0.0114  1.1261  0.4120
  332MOL0     C45713   5.844   8.002   4.339 -0.8176  0.2065 -0.5126
  332MOL0     O45714   5.737   7.955   4.264  0.8806  0.2067 -0.1569
  332MOL0     C45715   5.702   7.812   4.283  0.7008  0.0815 -0.2542
  332MOL0     C45716   5.595   7.784   4.171 -0.6661  0.6428  0.4496
  332MOL0     C45717   5.672   7.786   4.047 -0.2660  0.1626  0.0485
  332MOL0     C45718   5.589   7.753   3.923  0.0468 -0.1372  0.0182
  332MOL0     C45719   5.673   7.762   3.786 -0.2313 -0.1100  0.2004
  332MOL0     C45720   5.595   7.681   3.682 -0.5926 -0.7370 -0.1981
  332MOL0     C45721   5.675   7.652   3.550 -0.6521 -0.3640  0.3469
  332MOL0     C45722   5.580   7.614   3.438 -0.5361  0.0339  0.2334
  332MOL0    Cl45723   5.488   7.469   3.489  0.2685 -0.2440 -0.0647
  332MOL0     C45724   5.911   8.107   4.281 -0.2511 -0.0958  0.9651
  332MOL0     C45725   6.032   8.162   4.336  0.7299 -0.7955  0.1347
  332MOL0     O45726   6.309   7.938   4.492  0.5726 -0.0423  0.0220
  332MOL0     C45727   6.539   8.007   4.603 -0.3342  0.8792 -0.5980
  332MOL0     C45728   6.653   8.040   4.683 -0.0126  1.4025  0.6492
  332MOL0     N45729   7.161   8.355   4.784 -0.4242 -0.7398  0.1510
  332MOL0     N45730   7.247   8.356   4.689  0.9384 -0.5421  0.1174
  332MOL0     C45731   7.503   9.380   4.231  0.5473  0.2855 -0.0619
  332MOL0     C45732   7.622   9.420   4.167  0.7416  0.5362 -0.6742
  332MOL0     C45733   8.017   9.593   4.076  0.6481  0.7340  0.5533
  332MOL0     C45734   8.057   9.721   4.114  0.0076  0.2060  0.0593
  332MOL0     C45735   8.185   9.771   4.096  0.2447  0.5496 -0.2697
  332MOL0     C45736   8.284   9.698   4.041  0.4082  1.5170  0.0074
  332MOL0     O45737   8.405   9.751   4.027 -0.0802 -0.2923  0.0923
  332MOL0     C45738   8.446   9.820   3.901  0.4131 -0.3603 -0.5391
  332MOL0     C45739   8.478   9.708   3.802  0.5130 -0.1493 -0.0675
  332MOL0     C45740   8.625   9.663   3.820  0.4802  0.1413 -0.2413
  332MOL0     C45741   8.658   9.534   3.732 -0.1176  0.1481  0.3629
  332MOL0     C45742   8.579   9.413   3.771  0.8301  0.4255 -0.8351
  332MOL0     C45743   8.504   9.322   3.813  0.2974 -0.3800  0.2086
  332MOL0     C45744   8.245   9.566   3.999 -0.6055 -0.3408 -1.1601
  332MOL0     C45745   8.119   9.512   4.019 -0.4117 -0.1352  0.8366
  332MOL0     C45746   8.099   9.369   3.966  0.7349 -0.5880 -0.0904
  332MOL0     H45747   7.852   9.320   4.396 -0.5779  1.8271  0.5493
  332MOL0     H45748   7.647   9.244   4.510 -1.5046  0.2255  0.8493
  332MOL0     H45749   7.284   9.209   4.576  1.7682  0.6109  2.1032
  332MOL0     H45750   7.457   9.235   4.596 -0.5989 -0.2336  0.4891
  332MOL0     H45751   7.516   9.034   4.505 -0.5389  1.4505 -0.5143
  332MOL0     H45752   7.371   8.992   4.591  0.0391  0.7436  0.1947
  332MOL0     H45753   7.254   9.031   4.347  0.7804 -2.8935 -3.2110
  332MOL0     H45754   7.414   8.990   4.290  0.0711  0.3934 -0.4715
  332MOL0     H45755   7.262   8.829   4.490  2.0965  0.4595  1.9459
  332MOL0     H45756   7.233   8.817   4.315 -1.1085 -2.2735  2.1712
  332MOL0     H45757   7.511   8.782   4.435 -1.8413 -0.7663  4.0204
  332MOL0     H45758   7.443   8.700   4.291  0.7981  1.3198  0.0216
  332MOL0     H45759   7.455   8.548   4.490  0.9193  0.9851  0.4954
  332MOL0     H45760   7.348   8.644   4.573  1.2685  1.8902 -0.5321
  332MOL0     H45761   7.297   8.540   4.284  3.4843  1.1490  1.9351
  332MOL0     H45762   7.174   8.597   4.396 -0.7664 -1.5851 -1.3015
  332MOL0     H45763   7.140   8.386   4.381 -1.4522  1.3900  2.3777
  332MOL0     H45764   7.297   8.317   4.442 -2.4015 -1.7562  2.3739
  332MOL0     H45765   6.976   8.505   4.561 -0.3090  2.3640  1.1721
  332MOL0     H45766   6.832   8.392   4.792 -0.9513  2.9224  0.4339
  332MOL0     H45767   6.894   8.553   4.811  1.7256  0.4416  2.6124
  332MOL0     H45768   7.020   8.452   5.019  1.4240 -1.5449 -1.5195
  332MOL0     H45769   6.838   8.479   5.023  1.9373  3.2055 -0.4651
  332MOL0     H45770   6.984   8.218   4.963  0.4296  0.0970 -1.0448
  332MOL0     H45771   6.918   8.269   5.118  0.0371 -0.0310 -0.1703
  332MOL0     H45772   6.746   8.158   5.062 -1.1356 -0.1051  0.4884
  332MOL0     H45773   6.696   8.305   4.987 -0.2605  0.1063 -1.3790
  332MOL0     H45774   6.535   8.294   4.861 -5.9483 -0.1304  0.3733
  332MOL0     H45775   6.242   8.202   4.806 -1.0532  0.9976 -0.2809
  332MOL0     H45776   6.249   8.326   4.682  2.8408  2.4666  1.0396
  332MOL0     H45777   6.340   8.348   4.829 -0.9607  0.7615  0.9388
  332MOL0     H45778   6.068   7.921   4.573  1.0694  0.6100 -0.6178
  332MOL0     H45779   5.856   7.861   4.500  0.6324 -0.4497 -1.9080
  332MOL0     H45780   5.799   7.761   4.270  0.0908 -0.5377 -2.9520
  332MOL0     H45781   5.680   7.814   4.391  2.3546  1.8037  0.0998
  332MOL0     H45782   5.559   7.683   4.195  2.4442 -0.8551 -0.5888
  332MOL0     H45783   5.511   7.853   4.176 -1.2410 -0.1038  1.9955
  332MOL0     H45784   5.742   7.703   4.057  0.2131  0.5772  0.1319
  332MOL0     H45785   5.720   7.883   4.031 -2.5338  1.2796 -0.4645
  332MOL0     H45786   5.514   7.832   3.920 -0.0425  0.1486  3.9411
  332MOL0     H45787   5.546   7.652   3.932 -1.7157  0.1804 -3.1804
  332MOL0     H45788   5.688   7.865   3.753  2.0680  0.2886  2.1824
  332MOL0     H45789   5.776   7.724   3.783 -0.4796 -0.7446 -2.3957
  332MOL0     H45790   5.504   7.740   3.668  0.9985  2.0386  0.3861
  332MOL0     H45791   5.566   7.583   3.722 -1.5974 -0.3621  0.0418
  332MOL0     H45792   5.750   7.574   3.571  0.2358  0.5589  0.6867
  332MOL0     H45793   5.728   7.745   3.530 -2.6201  1.2230  2.0679
  332MOL0     H45794   5.630   7.593   3.343 -0.6086  0.0829  0.1840
  332MOL0     H45795   5.507   7.694   3.421 -1.7470 -0.6578  1.8918
  332MOL0     H45796   5.856   8.135   4.192 -0.6771 -1.1025  0.8959
  332MOL0     H45797   6.072   8.249   4.284 -1.9158  0.0032 -0.7394
  332MOL0     H45798   6.553   7.931   4.527  1.9295 -0.9187  1.4747
  332MOL0     H45799   6.749   7.993   4.662 -1.4105 -0.2224 -2.9599
  332MOL0     H45800   7.405   9.412   4.197  0.8297 -0.5177 -1.7642
  332MOL0     H45801   7.615   9.481   4.077  1.9576 -0.9861 -1.8468
  332MOL0     H45802   7.979   9.786   4.153  0.4525  0.1387  1.0908
  332MOL0     H45803   8.189   9.877   4.117 -2.0286  0.6990 -0.2851
  332MOL0     H45804   8.366   9.883   3.860 -0.7223 -1.5485 -0.2112
  332MOL0     H45805   8.532   9.888   3.907  0.2046  0.1437 -2.5342
  332MOL0     H45806   8.463   9.746   3.700  0.0758  0.6287  0.2848
  332MOL0     H45807   8.422   9.614   3.808  1.9950 -1.0932 -0.4779
  332MOL0     H45808   8.698   9.742   3.800  0.7498 -0.2002 -0.6463
  332MOL0     H45809   8.644   9.635   3.924 -1.2391 -0.1258  0.0308
  332MOL0     H45810   8.764   9.516   3.754  0.5270  4.7422  2.2765
  332MOL0     H45811   8.645   9.550   3.625 -1.4897 -1.0357  0.3307
  332MOL0     H45812   8.422   9.258   3.841 -0.9029  0.3898 -1.4195
  332MOL0     H45813   8.320   9.498   3.961 -0.2663  0.1006 -1.2986
  332MOL0     H45814   7.994   9.342   3.953  0.8119 -1.3160  0.6868
  332MOL0     H45815   8.140   9.373   3.865 -1.9719  0.2337 -1.2399
  332MOL0     H45816   8.149   9.291   4.024  0.7849 -1.9264 -1.8540
  333MOL0     O45817  10.657   8.633   9.039 -0.8774 -0.0243 -0.0497
  333MOL0     C45818  10.609   8.745   9.002  0.0140  0.8958  0.6054
  333MOL0     O45819  10.546   8.761   8.885  0.9818 -0.4014  0.2616
  333MOL0     C45820  10.496   8.655   8.825  0.2412  0.1636  0.7707
  333MOL0     C45821  10.548   8.596   8.706 -0.0028  0.4489 -0.0790
  333MOL0     C45822  10.475   8.486   8.645 -0.2706 -0.0620 -0.0393
  333MOL0     C45823  10.355   8.433   8.701  0.4697  0.5376 -1.1826
  333MOL0     O45824  10.284   8.334   8.644  0.4444  0.3575  0.2316
  333MOL0     C45825  10.316   8.261   8.522  0.6426 -0.4173 -0.9374
  333MOL0     C45826  10.412   8.149   8.546 -0.0282 -0.0406 -0.1389
  333MOL0     C45827  10.360   8.045   8.642  0.1544  0.5115 -0.0690
  333MOL0     C45828  10.460   7.930   8.645  0.8105 -0.0908 -0.4206
  333MOL0     C45829  10.405   7.815   8.733 -0.8238 -0.0031 -0.6820
  333MOL0     C45830  10.487   7.689   8.695  0.1292  0.1145 -0.2185
  333MOL0     C45831  10.455   7.585   8.805  0.1821  0.6911  1.0715
  333MOL0     C45832  10.535   7.453   8.785  0.3233 -0.3701  0.0021
  333MOL0     N45833  10.470   7.367   8.680 -0.1812 -1.2670 -0.1224
  333MOL0     C45834  10.350   7.374   8.617 -0.1339 -0.1416 -0.3809
  333MOL0     C45835  10.352   7.291   8.516 -0.5058  0.7152  0.6172
  333MOL0     C45836  10.237   7.281   8.424 -0.0191  0.4667  0.2984
  333MOL0     C45837  10.238   7.346   8.292 -0.1256 -0.1120 -0.3177
  333MOL0     C45838  10.112   7.323   8.214  0.4947  0.7796  0.1015
  333MOL0     C45839  10.094   7.376   8.075 -0.6364 -0.5064  0.1717
  333MOL0     O45840  10.207   7.354   7.985 -0.0673 -0.1388 -0.1545
  333MOL0     C45841  10.214   7.241   7.905 -0.4110  0.5348 -0.6129
  333MOL0     C45842  10.327   7.231   7.826  0.3033 -0.2117 -0.8166
  333MOL0     C45843  10.360   7.126   7.743 -0.3922  0.6400  0.8730
  333MOL0     C45844  10.498   7.124   7.671  0.6951 -0.3850 -0.0055
  333MOL0     C45845  10.266   7.018   7.733 -0.3469  0.7088  0.2684
  333MOL0     C45846  10.287   6.893   7.649 -0.4857 -0.2331 -0.4560
  333MOL0     O45847  10.364   6.899   7.544 -0.1744  0.7892 -1.4168
  333MOL0     C45848  10.395   6.778   7.488  0.0930 -0.3216 -0.3515
  333MOL0     C45849  10.360   6.755   7.357 -0.3883 -0.5817 -0.8462
  333MOL0     C45850  10.401   6.639   7.287  0.0479 -0.2216 -0.1580
  333MOL0     C45851  10.494   6.554   7.344  0.3182 -0.7364  0.1379
  333MOL0     O45852  10.537   6.436   7.288 -0.2780 -0.3930  0.1829
  333MOL0     C45853  10.532   6.418   7.138  0.4763  0.4774 -0.5443
  333MOL0     C45854  10.597   6.287   7.113 -0.0155  0.2186  0.7229
  333MOL0     C45855  10.616   6.245   6.968  0.4547 -0.4523  0.0416
  333MOL0     C45856  10.654   6.102   6.943 -1.1050 -0.1539 -0.4287
  333MOL0     C45857  10.706   6.072   6.805 -0.5092  0.3229  0.1739
  333MOL0     C45858  10.799   6.175   6.744 -0.7280 -0.7149  0.3392
  333MOL0     C45859  10.927   6.215   6.834 -0.1589 -0.4497  0.1208
  333MOL0     C45860  11.015   6.094   6.858 -0.2525  0.1376 -0.0552
  333MOL0    Cl45861  11.132   6.080   6.717 -0.3071 -0.5385 -0.6883
  333MOL0     C45862  10.538   6.589   7.471 -0.2134 -0.9311  0.0046
  333MOL0     C45863  10.495   6.696   7.543  1.3801  0.0341  0.0949
  333MOL0     O45864  10.218   6.797   7.691  0.2871  0.0809  0.3133
  333MOL0     C45865  10.150   7.024   7.807 -0.2100  0.3683 -1.1396
  333MOL0     C45866  10.126   7.133   7.895 -0.0641  0.1408 -0.4934
  333MOL0     N45867  10.474   7.229   8.507 -0.4908  0.2731  0.5513
  333MOL0     N45868  10.544   7.272   8.601 -0.3340 -0.4621 -0.4239
  333MOL0     C45869  10.303   8.493   8.814  0.1816 -0.3795 -0.3397
  333MOL0     C45870  10.372   8.600   8.877  0.3397  0.1295 -0.2302
  333MOL0     C45871  10.626   8.868   9.075 -0.9749 -0.7459  0.9097
  333MOL0     C45872  10.576   8.994   9.022 -0.0411  0.0021 -0.7188
  333MOL0     C45873  10.604   9.121   9.079 -0.1462 -0.0111 -0.1876
  333MOL0     C45874  10.693   9.128   9.194 -0.0319 -0.5601  0.2795
  333MOL0     O45875  10.731   9.247   9.253  0.2729 -0.0418 -0.6832
  333MOL0     C45876  10.707   9.371   9.182 -0.8816 -0.1866 -0.4749
  333MOL0     C45877  10.820   9.473   9.221 -0.2850 -0.4639  0.6191
  333MOL0     C45878  10.796   9.605   9.158 -0.0018 -0.2901  0.1402
  333MOL0     C45879  10.705   9.703   9.234  0.3862 -0.0916  1.1864
  333MOL0     C45880  10.745   9.732   9.372  0.1690  0.1859  0.2490
  333MOL0     C45881  10.777   9.742   9.490  0.1154 -0.0686 -0.2343
  333MOL0     C45882  10.734   9.010   9.249 -0.3009  1.4133  0.1881
  333MOL0     C45883  10.706   8.884   9.198 -0.4163 -0.6703  0.1615
  333MOL0     C45884  10.783   8.777   9.283 -1.4028 -0.4541 -0.7275
  333MOL0     H45885  10.639   8.633   8.660 -0.6111 -1.5453 -3.1731
  333MOL0     H45886  10.518   8.449   8.553  0.7156  0.5955  0.1362
  333MOL0     H45887  10.371   8.326   8.453 -4.2432  2.7005 -2.4639
  333MOL0     H45888  10.225   8.224   8.475  0.3889 -1.9382  0.6452
  333MOL0     H45889  10.421   8.112   8.443 -0.0091  1.8519 -0.8658
  333MOL0     H45890  10.505   8.191   8.586 -0.8924  0.4166  1.4390
  333MOL0     H45891  10.339   8.086   8.742  0.6668  0.1792  0.1782
  333MOL0     H45892  10.266   8.005   8.602  1.0896 -0.4090 -1.4352
  333MOL0     H45893  10.490   7.892   8.547  1.4988  1.5310 -0.8783
  333MOL0     H45894  10.555   7.969   8.684  1.3494 -1.4658 -0.3282
  333MOL0     H45895  10.300   7.792   8.714 -0.5469 -2.4840  0.4353
  333MOL0     H45896  10.424   7.838   8.838 -1.7039 -2.3596  0.0475
  333MOL0     H45897  10.454   7.656   8.596  0.2470  2.0793 -0.9499
  333MOL0     H45898  10.592   7.716   8.709 -0.6088  3.1372  0.2227
  333MOL0     H45899  10.349   7.559   8.811  0.1059  0.7098 -0.0560
  333MOL0     H45900  10.475   7.628   8.904  0.5604  0.3196  1.1595
  333MOL0     H45901  10.636   7.484   8.758  0.0786  1.1586  0.7388
  333MOL0     H45902  10.540   7.389   8.874  2.4546 -1.7782 -1.0532
  333MOL0     H45903  10.261   7.429   8.646  0.0283  0.7102 -1.4310
  333MOL0     H45904  10.138   7.298   8.468 -0.3310  1.8924 -0.8619
  333MOL0     H45905  10.244   7.177   8.392  0.0578  1.1273 -1.9835
  333MOL0     H45906  10.251   7.452   8.315 -0.6738  0.1102 -0.9863
  333MOL0     H45907  10.325   7.323   8.229  0.2001  0.4505 -0.0826
  333MOL0     H45908  10.101   7.215   8.196  0.1243  1.0838 -1.7457
  333MOL0     H45909  10.032   7.362   8.277 -1.2353  1.8711 -2.5924
  333MOL0     H45910  10.002   7.333   8.035 -3.1610  0.8908  3.8370
  333MOL0     H45911  10.087   7.486   8.074  0.2719 -0.4400  0.0793
  333MOL0     H45912  10.395   7.312   7.848 -2.9849  1.9504  2.8318
  333MOL0     H45913  10.566   7.191   7.724  1.1368 -2.6057  2.3977
  333MOL0     H45914  10.486   7.157   7.567 -2.2357 -4.2207 -1.1284
  333MOL0     H45915  10.538   7.023   7.662  0.4774 -0.4128 -0.7329
  333MOL0     H45916  10.284   6.822   7.320  1.6203  2.3316 -0.0517
  333MOL0     H45917  10.354   6.626   7.190  0.0732  2.7228 -0.6587
  333MOL0     H45918  10.426   6.414   7.112  0.1102 -0.6630  0.9823
  333MOL0     H45919  10.577   6.504   7.087  0.8460  1.2467  1.0237
  333MOL0     H45920  10.698   6.284   7.155  0.4948  0.4561 -0.4495
  333MOL0     H45921  10.550   6.211   7.177  2.1320 -0.8776  1.0714
  333MOL0     H45922  10.673   6.320   6.912  1.4594 -0.9284  0.4036
  333MOL0     H45923  10.514   6.243   6.929  0.7782  0.0838 -0.8785
  333MOL0     H45924  10.573   6.032   6.963 -2.0157  1.3079  1.2539
  333MOL0     H45925  10.737   6.081   7.010 -0.3219  0.6144 -1.1337
  333MOL0     H45926  10.738   5.968   6.802 -1.9334 -0.1268 -0.9023
  333MOL0     H45927  10.618   6.068   6.740  1.5415 -3.7204 -2.7759
  333MOL0     H45928  10.753   6.271   6.716  0.7359  0.0456  0.4227
  333MOL0     H45929  10.851   6.138   6.655  2.3163  0.0443  1.6875
  333MOL0     H45930  10.903   6.245   6.937  1.9902  0.1013  0.4941
  333MOL0     H45931  10.975   6.293   6.775  0.9696  0.0179  1.5855
  333MOL0     H45932  10.948   6.010   6.879  0.7519 -1.0208 -1.2695
  333MOL0     H45933  11.076   6.123   6.945  0.1868  0.4105 -0.4512
  333MOL0     H45934  10.618   6.526   7.508  0.9984  1.6820  2.1897
  333MOL0     H45935  10.533   6.708   7.644 -0.5433 -1.1332  1.0156
  333MOL0     H45936  10.074   6.947   7.799 -0.3613  0.0746  2.1280
  333MOL0     H45937  10.039   7.133   7.960  1.7594 -1.7970  2.1577
  333MOL0     H45938  10.218   8.446   8.862 -0.0104 -0.6669 -0.9457
  333MOL0     H45939  10.334   8.650   8.965  0.6657  1.3137 -0.7378
  333MOL0     H45940  10.512   8.999   8.935  0.8977 -0.4778 -1.4561
  333MOL0     H45941  10.563   9.207   9.027  0.4016  2.8018  3.6104
  333MOL0     H45942  10.712   9.368   9.072 -2.0579  1.3570 -0.6224
  333MOL0     H45943  10.610   9.418   9.205 -1.0636  0.5453 -2.5069
  333MOL0     H45944  10.918   9.445   9.183  1.2085  0.8497  3.2370
  333MOL0     H45945  10.820   9.481   9.330  2.8243  1.1795  0.6109
  333MOL0     H45946  10.892   9.656   9.158 -0.1768  0.0659 -0.9783
  333MOL0     H45947  10.750   9.598   9.059  0.6079 -0.5802 -0.1245
  333MOL0     H45948  10.601   9.669   9.237 -0.7496  2.9816  0.4262
  333MOL0     H45949  10.706   9.793   9.171 -1.9788 -0.9852 -0.2753
  333MOL0     H45950  10.793   9.763   9.594  1.4782 -0.1549 -0.4029
  333MOL0     H45951  10.802   9.011   9.334  0.4378  1.9930 -0.3898
  333MOL0     H45952  10.780   8.682   9.231 -3.7516 -0.0492 -1.4597
  333MOL0     H45953  10.881   8.826   9.286 -2.7510  2.4991  2.0117
  333MOL0     H45954  10.747   8.773   9.387  0.8892  1.4721  0.2598
  334MOL0     O45955  10.923  11.280   1.109 -0.2819  0.5819 -0.0850
  334MOL0     C45956  10.965  11.274   1.225  0.2585 -0.6387 -0.4374
  334MOL0     O45957  11.092  11.302   1.260 -0.9606  0.2196  0.0808
  334MOL0     C45958  11.140  11.422   1.224  0.6803 -0.4203 -0.0952
  334MOL0     C45959  11.077  11.524   1.156 -0.1734  0.3984 -0.1648
  334MOL0     C45960  11.128  11.650   1.154 -0.2395 -1.3187 -0.0505
  334MOL0     C45961  11.242  11.688   1.233 -0.0970  0.6701 -0.3575
  334MOL0     O45962  11.281  11.825   1.245  0.3804 -0.4318  0.1387
  334MOL0     C45963  11.265  11.907   1.135  0.7668 -0.2608  1.1142
  334MOL0     C45964  11.357  12.022   1.152 -0.4648 -0.2550 -0.2084
  334MOL0     C45965  11.349  12.110   1.029 -0.4136 -0.8539  0.0302
  334MOL0     C45966  11.439  12.230   1.046 -0.1628 -0.7357  0.1031
  334MOL0     C45967  11.426  12.302   0.916 -0.2015 -0.5092 -0.7993
  334MOL0     C45968  11.539  12.256   0.813  0.6098 -0.1509  0.2189
  334MOL0     C45969  11.681  12.322   0.857  0.6870 -0.3685 -1.0788
  334MOL0     C45970  11.765  12.284   0.736  0.2779 -0.2707 -0.4988
  334MOL0     N45971  11.888  12.361   0.740 -0.3898 -0.4430  0.4771
  334MOL0     C45972  11.991  12.354   0.829 -0.1149  0.2358  0.7038
  334MOL0     C45973  12.078  12.461   0.803  0.2492 -0.4915  0.3333
  334MOL0     C45974  12.190  12.496   0.883  0.3080  0.4337 -0.9117
  334MOL0     C45975  12.303  12.551   0.795 -0.2860 -0.1827 -0.5937
  334MOL0     C45976  12.281  12.701   0.774 -0.8512 -0.4687 -0.4582
  334MOL0     C45977  12.404  12.769   0.707  0.2997 -0.4110 -0.8782
  334MOL0     O45978  12.514  12.770   0.799 -0.5974  0.0929  0.1496
  334MOL0     C45979  12.634  12.837   0.770  0.1660  0.1953 -0.0593
  334MOL0     C45980  12.756  12.777   0.797  0.3476  0.0832 -0.3142
  334MOL0     C45981  12.877  12.841   0.769  0.8840 -0.0207 -0.2393
  334MOL0     C45982  12.993  12.767   0.830  0.0526 -0.7876  0.3638
  334MOL0     C45983  12.874  12.962   0.694 -0.0239 -0.3154 -0.1977
  334MOL0     C45984  13.000  13.040   0.655  0.4893 -0.7480  0.3175
  334MOL0     O45985  12.979  13.165   0.593  0.3660  0.1169  0.3504
  334MOL0     C45986  13.084  13.223   0.534 -0.5530 -0.0836 -0.5251
  334MOL0     C45987  13.197  13.166   0.466 -0.7811  0.6012  0.5846
  334MOL0     C45988  13.294  13.245   0.399 -0.4955 -0.5881  0.7106
  334MOL0     C45989  13.281  13.390   0.399  1.3759  0.5997  0.3330
  334MOL0     O45990  13.388  13.464   0.353  0.2922 -0.1349 -1.2080
  334MOL0     C45991  13.389  13.604   0.354  0.4307  0.0352  0.7231
  334MOL0     C45992  13.519  13.652   0.280 -0.1505  0.2560 -1.0331
  334MOL0     C45993  13.509  13.808   0.261  0.0029  0.3732 -0.4121
  334MOL0     C45994  13.607  13.858   0.157 -0.9803  0.0693  0.4219
  334MOL0     C45995  13.629  14.011   0.151 -0.0564 -0.5295 -0.7291
  334MOL0     C45996  13.719  14.052   0.028  0.7571 -0.3573  0.0890
  334MOL0     C45997  13.870  14.008   0.035 -0.2911  0.0737  0.3715
  334MOL0     C45998  13.939  14.053  -0.093  0.4345  0.0986 -0.7174
  334MOL0    Cl45999  13.866  13.989  -0.244 -0.1095 -0.2537 -0.2113
  334MOL0     C46000  13.172  13.440   0.466 -0.3482 -0.1281 -0.4122
  334MOL0     C46001  13.069  13.363   0.528 -0.1933 -0.2886  0.2037
  334MOL0     O46002  13.109  12.997   0.677 -0.8727  0.7042 -0.1853
  334MOL0     C46003  12.751  13.026   0.676 -0.0861 -1.0308 -0.2210
  334MOL0     C46004  12.632  12.970   0.721 -0.0769  0.0799  0.0146
  334MOL0     N46005  12.024  12.522   0.685  0.2439  0.1700  0.1510
  334MOL0     N46006  11.919  12.463   0.646 -0.1697  0.1743 -0.1838
  334MOL0     C46007  11.305  11.589   1.306  0.0042  0.0080 -0.9139
  334MOL0     C46008  11.257  11.454   1.297 -0.0516 -0.1137 -0.3229
  334MOL0     C46009  10.870  11.220   1.338 -0.4858 -0.5346 -0.4791
  334MOL0     C46010  10.940  11.173   1.454 -0.1784 -0.5312  0.1136
  334MOL0     C46011  10.874  11.123   1.568  0.5040  0.6347 -0.9328
  334MOL0     C46012  10.736  11.110   1.560 -0.3181  0.6901 -0.2314
  334MOL0     O46013  10.661  11.055   1.663  0.5003 -0.3640 -0.0245
  334MOL0     C46014  10.726  10.997   1.779  0.1936 -0.0341  0.6018
  334MOL0     C46015  10.766  11.106   1.880  0.2148 -0.0375  0.9417
  334MOL0     C46016  10.637  11.171   1.935 -0.9505 -0.1430 -0.2431
  334MOL0     C46017  10.666  11.255   2.059 -1.1150 -0.5092 -0.3079
  334MOL0     C46018  10.559  11.339   2.105  0.3982 -0.1695 -0.3111
  334MOL0     C46019  10.472  11.421   2.135 -0.1177  0.6878  0.5712
  334MOL0     C46020  10.668  11.146   1.443 -0.3460  0.3761 -0.4380
  334MOL0     C46021  10.732  11.216   1.340  0.6484  0.0016 -0.4104
  334MOL0     C46022  10.639  11.247   1.225  0.2370 -0.2729  0.4127
  334MOL0     H46023  10.983  11.503   1.105 -1.9565  1.3709  2.4925
  334MOL0     H46024  11.087  11.722   1.083  3.0355 -1.5622 -2.4246
  334MOL0     H46025  11.164  11.948   1.122  0.6140 -1.3405 -2.0494
  334MOL0     H46026  11.286  11.869   1.035 -1.6590  3.1200 -0.8838
  334MOL0     H46027  11.343  12.086   1.240 -2.0915 -0.0094 -0.6183
  334MOL0     H46028  11.460  11.985   1.165 -0.5064  0.2368  2.0012
  334MOL0     H46029  11.376  12.057   0.937 -0.0841  1.9083 -1.5721
  334MOL0     H46030  11.244  12.140   1.023 -0.0850  0.0603 -2.3135
  334MOL0     H46031  11.401  12.288   1.130 -1.8855 -0.7403 -0.6298
  334MOL0     H46032  11.544  12.203   1.064  0.1068 -0.0853 -0.4289
  334MOL0     H46033  11.436  12.408   0.943  1.6403 -1.3731  2.4227
  334MOL0     H46034  11.323  12.287   0.880 -0.8358 -1.7381  1.3871
  334MOL0     H46035  11.551  12.148   0.800  2.1067  0.1790 -1.6365
  334MOL0     H46036  11.506  12.301   0.719  1.5683  0.1478  0.0083
  334MOL0     H46037  11.720  12.289   0.953  1.1777  2.3332 -0.2594
  334MOL0     H46038  11.668  12.431   0.853  0.0329 -0.4652 -2.5204
  334MOL0     H46039  11.778  12.176   0.733 -1.8435 -0.5934  0.2474
  334MOL0     H46040  11.709  12.319   0.649 -0.0130  0.8147  0.1027
  334MOL0     H46041  11.991  12.273   0.902 -2.3401 -0.9554 -0.5149
  334MOL0     H46042  12.228  12.409   0.937 -3.2212 -1.8531 -1.7618
  334MOL0     H46043  12.156  12.573   0.953 -1.5762  0.3412 -1.6742
  334MOL0     H46044  12.399  12.524   0.841 -0.3685 -1.0752 -0.9191
  334MOL0     H46045  12.310  12.489   0.705  0.9780 -2.2732  0.8527
  334MOL0     H46046  12.187  12.722   0.723 -3.1219 -0.5520  3.3152
  334MOL0     H46047  12.270  12.740   0.875  0.7860  1.3276 -0.9089
  334MOL0     H46048  12.431  12.721   0.612  0.1274 -0.1412 -1.0677
  334MOL0     H46049  12.367  12.870   0.685 -0.4120 -0.4059  0.2626
  334MOL0     H46050  12.746  12.678   0.839  0.5123  1.3043  2.8926
  334MOL0     H46051  12.955  12.691   0.899 -1.4210 -2.1096 -1.7681
  334MOL0     H46052  13.062  12.839   0.876 -1.4397 -0.9637  3.1102
  334MOL0     H46053  13.056  12.722   0.753  0.8901 -0.0665  0.6135
  334MOL0     H46054  13.209  13.058   0.463 -2.7198  0.3346 -3.0947
  334MOL0     H46055  13.371  13.192   0.344  1.0665  0.2356  1.9940
  334MOL0     H46056  13.307  13.643   0.293  0.2826  0.8965  1.4550
  334MOL0     H46057  13.387  13.653   0.451 -0.1893 -0.8739  1.1746
  334MOL0     H46058  13.600  13.644   0.352 -0.6614  0.5133 -0.4247
  334MOL0     H46059  13.533  13.590   0.191 -0.6450 -1.2933 -0.0827
  334MOL0     H46060  13.528  13.857   0.357  1.9388  0.0158 -0.5709
  334MOL0     H46061  13.407  13.834   0.231 -0.5951  0.3372  1.4595
  334MOL0     H46062  13.576  13.827   0.057 -2.8421  3.3070 -0.1604
  334MOL0     H46063  13.705  13.816   0.183 -0.3170  0.0419 -1.8519
  334MOL0     H46064  13.536  14.066   0.134  2.8765  4.8298 -1.8742
  334MOL0     H46065  13.675  14.046   0.244  1.4333 -0.6064 -1.4099
  334MOL0     H46066  13.719  14.161   0.023  3.4356 -0.2691  0.6947
  334MOL0     H46067  13.667  14.013  -0.060 -4.6138  2.1354  1.7627
  334MOL0     H46068  13.863  13.900   0.047 -0.5178  0.1654  1.1234
  334MOL0     H46069  13.920  14.049   0.123 -0.3323  1.8354 -0.3825
  334MOL0     H46070  14.045  14.024  -0.093  0.6001  0.6991 -0.4923
  334MOL0     H46071  13.945  14.162  -0.098  0.3451  0.0620 -2.3487
  334MOL0     H46072  13.166  13.548   0.460  2.1024  0.0723 -0.0270
  334MOL0     H46073  12.988  13.410   0.583 -3.1967 -2.7312 -1.7915
  334MOL0     H46074  12.744  13.119   0.621 -0.1948  0.8678  2.7561
  334MOL0     H46075  12.542  13.028   0.698  1.2199  2.3036  0.2420
  334MOL0     H46076  11.383  11.616   1.376 -2.2686  2.2207  0.9682
  334MOL0     H46077  11.314  11.376   1.348  0.1250  1.6817  2.4453
  334MOL0     H46078  11.047  11.185   1.466 -0.3960 -0.1282  2.0558
  334MOL0     H46079  10.930  11.088   1.654  0.0959 -0.3617 -1.0636
  334MOL0     H46080  10.648  10.931   1.817 -0.7896 -0.0486 -1.3388
  334MOL0     H46081  10.813  10.933   1.757 -0.1751 -0.6720  0.9772
  334MOL0     H46082  10.830  11.182   1.833 -0.8528  1.3497  1.6542
  334MOL0     H46083  10.814  11.041   1.954  1.0399 -2.0065 -1.2065
  334MOL0     H46084  10.599  11.228   1.850 -2.4326 -0.2975  0.2906
  334MOL0     H46085  10.560  11.097   1.955 -2.2518  1.5231  1.2640
  334MOL0     H46086  10.751  11.323   2.042 -0.0505 -1.2262  1.8189
  334MOL0     H46087  10.711  11.191   2.135 -3.6862 -0.7983  1.0746
  334MOL0     H46088  10.398  11.492   2.166 -0.4358 -0.1469  1.7933
  334MOL0     H46089  10.562  11.123   1.442  0.2620 -2.9088 -2.1736
  334MOL0     H46090  10.654  11.204   1.125  3.5526  0.8796  0.2777
  334MOL0     H46091  10.532  11.246   1.246  0.1413  4.2735  1.1573
  334MOL0     H46092  10.661  11.354   1.215  0.7293  0.0057  3.5591
  335MOL0     O46093   0.845   3.712  11.464  0.2168 -0.1979 -0.4195
  335MOL0     C46094   0.945   3.765  11.420  0.7489 -0.7869 -0.4707
  335MOL0     O46095   0.952   3.840  11.313 -0.0437  0.2093 -0.1790
  335MOL0     C46096   0.879   3.806  11.199  0.0981  0.3706  0.0062
  335MOL0     C46097   0.954   3.736  11.100 -0.0461  0.3258  0.4510
  335MOL0     C46098   0.895   3.718  10.980 -0.4066  1.2413 -0.2954
  335MOL0     C46099   0.771   3.762  10.947  0.4654  0.4617 -0.3770
  335MOL0     O46100   0.718   3.744  10.816 -0.3608 -0.1682 -0.1225
  335MOL0     C46101   0.623   3.838  10.756 -0.2342  0.2563  0.2274
  335MOL0     C46102   0.667   3.846  10.607  1.0878 -0.4085 -0.2042
  335MOL0     C46103   0.802   3.911  10.578  0.3188 -0.5978 -0.0321
  335MOL0     C46104   0.838   3.922  10.425 -0.0461 -0.8277  0.6689
  335MOL0     C46105   0.976   3.997  10.404  0.1004  0.6396  0.6396
  335MOL0     C46106   1.101   3.904  10.434  0.5258  0.5405  0.3100
  335MOL0     C46107   1.227   3.980  10.482  0.2667  0.0413  0.4251
  335MOL0     C46108   1.271   4.091  10.387 -0.8981 -0.0493 -0.0156
  335MOL0     N46109   1.353   4.192  10.463  0.2722  0.3428 -0.0445
  335MOL0     C46110   1.318   4.244  10.588 -0.5092  0.9109 -0.2765
  335MOL0     C46111   1.411   4.333  10.623  0.0741 -0.7989  0.5654
  335MOL0     C46112   1.415   4.390  10.756  0.2353 -0.6368 -1.0469
  335MOL0     C46113   1.303   4.493  10.805 -0.5509 -0.2679 -0.2888
  335MOL0     C46114   1.188   4.417  10.877  0.2168 -0.2432  0.3685
  335MOL0     C46115   1.088   4.520  10.938 -0.4102 -0.2410  0.2257
  335MOL0     O46116   1.007   4.570  10.829 -0.0307  0.7481 -0.6140
  335MOL0     C46117   0.934   4.669  10.885 -0.9177 -0.1211 -0.4717
  335MOL0     C46118   0.815   4.630  10.935 -1.2605 -1.4060  0.5085
  335MOL0     C46119   0.732   4.717  11.017 -0.8205  0.0934 -0.8754
  335MOL0     C46120   0.597   4.661  11.055 -0.3508 -0.6294  0.0347
  335MOL0     C46121   0.784   4.848  11.055  0.0116  0.7876  0.5188
  335MOL0     C46122   0.716   4.927  11.156  1.3710 -1.4139 -0.4074
  335MOL0     O46123   0.614   4.862  11.217  0.0796 -0.4469 -0.0038
  335MOL0     C46124   0.536   4.937  11.305  0.2497  0.0864 -0.9071
  335MOL0     C46125   0.401   4.956  11.287 -1.3965 -0.2455  0.2625
  335MOL0     C46126   0.322   5.019  11.384  0.4424  0.4367 -0.1404
  335MOL0     C46127   0.378   5.047  11.507 -0.2857  0.2372  0.3108
  335MOL0     O46128   0.304   5.115  11.603  0.1858  0.0715 -0.5839
  335MOL0     C46129   0.249   5.031  11.702 -0.3899  0.7583  0.4757
  335MOL0     C46130   0.104   5.004  11.669  0.4519 -0.8553 -0.9368
  335MOL0     C46131   0.057   4.894  11.769 -0.2933  0.4495  0.9411
  335MOL0     C46132  -0.078   4.840  11.740 -0.8928  0.0686  0.4250
  335MOL0     C46133  -0.119   4.700  11.799 -0.3531 -0.4715 -0.3833
  335MOL0     C46134  -0.273   4.690  11.783 -1.3890 -0.5540  0.3591
  335MOL0     C46135  -0.330   4.566  11.849  0.6491 -0.0016 -0.4743
  335MOL0     C46136  -0.460   4.517  11.794  1.3297  0.0969  0.1751
  335MOL0    Cl46137  -0.583   4.644  11.806  0.4999 -0.8837  0.2132
  335MOL0     C46138   0.509   5.008  11.526  0.8295 -0.5971  0.3090
  335MOL0     C46139   0.579   4.951  11.432 -0.3080  0.0028 -0.3659
  335MOL0     O46140   0.748   5.043  11.170 -0.4847  0.5147 -0.0198
  335MOL0     C46141   0.915   4.882  10.996  0.0992  0.5449  0.4823
  335MOL0     C46142   0.987   4.794  10.917 -0.6456 -0.7641 -0.0169
  335MOL0     N46143   1.496   4.335  10.509 -0.4223  0.1427  0.1815
  335MOL0     N46144   1.462   4.253  10.417  0.0361  0.2154 -0.1567
  335MOL0     C46145   0.690   3.831  11.042 -0.1760  0.3883 -0.0205
  335MOL0     C46146   0.746   3.847  11.174 -0.3352  0.2012 -0.3727
  335MOL0     C46147   1.069   3.756  11.502 -0.7254 -0.6910  0.0059
  335MOL0     C46148   1.182   3.829  11.456  0.3356 -0.9330 -0.4201
  335MOL0     C46149   1.295   3.839  11.539  0.8092 -0.1411 -0.8448
  335MOL0     C46150   1.304   3.773  11.663  0.5496 -0.4631  0.6597
  335MOL0     O46151   1.422   3.797  11.726  0.0961 -0.5902  0.1024
  335MOL0     C46152   1.440   3.786  11.868  0.5580 -0.9809 -1.2599
  335MOL0     C46153   1.369   3.896  11.949  0.1683  0.0477 -0.4626
  335MOL0     C46154   1.455   4.025  11.945  0.2606 -0.1705 -0.5010
  335MOL0     C46155   1.397   4.131  12.037  0.1986  0.3465 -0.1734
  335MOL0     C46156   1.281   4.201  11.985 -0.0204  0.2763  0.0581
  335MOL0     C46157   1.191   4.246  11.918  0.7696 -1.0856 -0.2138
  335MOL0     C46158   1.193   3.702  11.712  0.2211 -0.0351  0.5134
  335MOL0     C46159   1.082   3.695  11.639 -0.5554 -0.0231  0.2955
  335MOL0     C46160   0.976   3.609  11.695  0.1383  0.3843  0.1333
  335MOL0     H46161   1.048   3.686  11.123 -0.2498 -0.4755 -0.3957
  335MOL0     H46162   0.960   3.676  10.904  0.6412 -1.2429  1.8283
  335MOL0     H46163   0.632   3.938  10.801 -2.1847  0.6115 -0.0904
  335MOL0     H46164   0.520   3.813  10.779 -0.2344  1.9721  2.4972
  335MOL0     H46165   0.652   3.753  10.550  1.6755  0.5173 -1.9674
  335MOL0     H46166   0.601   3.917  10.555  0.3840  0.0932  1.3346
  335MOL0     H46167   0.787   4.012  10.615 -2.6257 -0.8516 -0.3401
  335MOL0     H46168   0.879   3.861  10.638 -1.6808 -3.1004  0.6306
  335MOL0     H46169   0.852   3.821  10.384 -0.5665 -1.2731  1.5458
  335MOL0     H46170   0.766   3.988  10.377 -0.8232 -2.7929 -1.0068
  335MOL0     H46171   0.980   4.087  10.465  1.3533 -0.1024  1.6875
  335MOL0     H46172   0.985   4.014  10.296 -1.3429 -4.3731 -0.5718
  335MOL0     H46173   1.069   3.827  10.505 -0.1746  2.1814  1.8683
  335MOL0     H46174   1.125   3.846  10.345 -2.2387 -2.5969  1.4382
  335MOL0     H46175   1.298   3.897  10.484 -1.7490 -1.7544  1.3063
  335MOL0     H46176   1.208   4.019  10.583  1.2833 -1.5619  1.2754
  335MOL0     H46177   1.324   4.050  10.300  0.0439  1.1079 -0.0243
  335MOL0     H46178   1.189   4.154  10.352 -0.3214  1.2877  0.9349
  335MOL0     H46179   1.240   4.203  10.651 -2.5330 -0.4522 -3.4087
  335MOL0     H46180   1.514   4.437  10.769  1.0588 -2.7712  1.3287
  335MOL0     H46181   1.413   4.312  10.833 -1.8351  1.1752  0.8777
  335MOL0     H46182   1.344   4.573  10.868 -1.6870 -0.4579  0.7258
  335MOL0     H46183   1.248   4.532  10.719  3.2973  2.9970 -1.6126
  335MOL0     H46184   1.145   4.352  10.800  2.3470 -0.1642 -0.9870
  335MOL0     H46185   1.217   4.354  10.962  2.5755  0.0877 -0.1226
  335MOL0     H46186   1.034   4.469  11.019  1.8876  0.7572  2.5251
  335MOL0     H46187   1.139   4.600  10.992 -0.3361 -0.1061 -0.0469
  335MOL0     H46188   0.789   4.527  10.911 -1.2924 -1.1381 -0.6878
  335MOL0     H46189   0.527   4.733  11.011  0.7343  1.0945  0.9775
  335MOL0     H46190   0.580   4.641  11.161  1.2520  3.3520  1.2372
  335MOL0     H46191   0.589   4.563  11.008 -0.4176 -0.6527  0.0932
  335MOL0     H46192   0.355   4.940  11.190 -1.1832  1.9151 -0.2492
  335MOL0     H46193   0.223   5.052  11.355 -0.1901 -2.0401 -1.0074
  335MOL0     H46194   0.307   4.939  11.694  0.8810  1.5656 -0.0801
  335MOL0     H46195   0.267   5.069  11.803 -0.0828 -1.3621  1.2672
  335MOL0     H46196   0.035   5.088  11.680  0.5225 -0.9012 -0.0595
  335MOL0     H46197   0.094   4.971  11.565  0.2015 -0.1158 -1.1540
  335MOL0     H46198   0.055   4.932  11.871 -0.3332  0.8345  0.7970
  335MOL0     H46199   0.129   4.811  11.773 -0.0167  0.5778 -0.5891
  335MOL0     H46200  -0.075   4.823  11.632 -4.5106 -1.9801  0.4884
  335MOL0     H46201  -0.152   4.920  11.758 -1.5961 -0.3589 -0.4756
  335MOL0     H46202  -0.071   4.611  11.757 -0.8118 -0.3665 -1.1617
  335MOL0     H46203  -0.116   4.707  11.908 -0.5861 -0.0733 -0.3997
  335MOL0     H46204  -0.293   4.692  11.676 -0.3111  0.5389  0.1592
  335MOL0     H46205  -0.312   4.779  11.834  0.8274  0.1895  0.8995
  335MOL0     H46206  -0.346   4.589  11.955  1.4701 -2.0018  0.1388
  335MOL0     H46207  -0.255   4.486  11.842  1.1479  0.4772 -0.6973
  335MOL0     H46208  -0.502   4.431  11.847 -1.2985 -0.7775 -2.9675
  335MOL0     H46209  -0.447   4.476  11.693 -0.6983 -0.3744  0.0621
  335MOL0     H46210   0.543   5.040  11.625  1.4549 -0.4158  0.0423
  335MOL0     H46211   0.671   4.904  11.466 -0.0663 -0.5771 -1.7468
  335MOL0     H46212   0.964   4.979  11.003  2.3259 -0.5760  1.0076
  335MOL0     H46213   1.090   4.814  10.889 -0.6421 -2.5491 -1.3964
  335MOL0     H46214   0.593   3.864  11.007  0.4640  3.0744  0.5160
  335MOL0     H46215   0.697   3.898  11.257 -3.4246 -1.1153 -1.2540
  335MOL0     H46216   1.193   3.880  11.360 -1.0672  2.6291  1.1126
  335MOL0     H46217   1.372   3.908  11.507 -1.3341  1.8005 -2.0750
  335MOL0     H46218   1.402   3.686  11.893 -1.5499  0.2199  0.6645
  335MOL0     H46219   1.547   3.787  11.892  0.0983 -4.6369  1.9725
  335MOL0     H46220   1.362   3.856  12.050  0.1027 -0.9276 -0.8489
  335MOL0     H46221   1.267   3.921  11.919 -0.3053 -3.1265 -1.8042
  335MOL0     H46222   1.549   4.002  11.996  0.2819  0.7202 -0.1110
  335MOL0     H46223   1.474   4.060  11.843  0.7220 -0.1670 -0.4158
  335MOL0     H46224   1.472   4.203  12.071  1.0854 -0.7767  0.3327
  335MOL0     H46225   1.359   4.081  12.126 -0.4794  0.5138 -0.3610
  335MOL0     H46226   1.107   4.291  11.869  2.2022  4.1259  1.4778
  335MOL0     H46227   1.206   3.649  11.806  1.8907  1.0812  0.9589
  335MOL0     H46228   1.002   3.540  11.776 -2.9274 -2.1905 -0.8391
  335MOL0     H46229   0.885   3.664  11.723 -2.8898 -3.4386 -1.2013
  335MOL0     H46230   0.940   3.536  11.623 -0.4371 -0.3561  1.1340
  336MOL0     O46231   8.142  10.737   9.001  0.0678  0.0000  0.2949
  336MOL0     C46232   8.075  10.657   9.068  0.0931  0.6053  1.0221
  336MOL0     O46233   8.077  10.513   9.051 -0.1702 -0.5143 -0.1427
  336MOL0     C46234   8.144  10.467   8.939 -0.4769 -0.0765 -0.7294
  336MOL0     C46235   8.103  10.482   8.812 -1.3136 -0.4803 -0.5112
  336MOL0     C46236   8.187  10.438   8.705 -0.6713  0.6691 -0.1616
  336MOL0     C46237   8.319  10.397   8.738  0.9204  0.7413 -0.6553
  336MOL0     O46238   8.425  10.383   8.656  0.4359 -0.0319  0.5364
  336MOL0     C46239   8.403  10.371   8.510  0.2244 -0.6420  0.4900
  336MOL0     C46240   8.545  10.344   8.443 -0.0675  0.3375  0.5345
  336MOL0     C46241   8.641  10.457   8.472 -0.5287 -1.5590 -0.1848
  336MOL0     C46242   8.784  10.393   8.453 -0.7891 -0.1734 -0.4577
  336MOL0     C46243   8.902  10.487   8.495  0.4068 -0.1524 -0.2517
  336MOL0     C46244   9.048  10.432   8.449  1.1176 -0.8901  0.3874
  336MOL0     C46245   9.160  10.510   8.524  0.1458 -0.2722 -0.2360
  336MOL0     C46246   9.279  10.427   8.501  0.2468 -0.0705  1.1921
  336MOL0     N46247   9.397  10.489   8.559  0.0215 -0.5242 -0.1461
  336MOL0     C46248   9.447  10.477   8.693  0.3470  0.1399  0.5933
  336MOL0     C46249   9.548  10.566   8.693  0.8501 -0.0259  0.8472
  336MOL0     C46250   9.633  10.583   8.819  0.0646 -0.0271 -0.1811
  336MOL0     C46251   9.634  10.728   8.867 -0.5031  0.3339 -0.1583
  336MOL0     C46252   9.696  10.743   9.007 -0.4415  0.5310 -0.3322
  336MOL0     C46253   9.690  10.893   9.042  0.8688 -0.1336 -1.2331
  336MOL0     O46254   9.716  10.923   9.179  0.6506  0.9379 -0.0511
  336MOL0     C46255   9.732  11.056   9.215  0.4027 -0.0067  0.7969
  336MOL0     C46256   9.787  11.080   9.337 -0.4453 -0.8947 -0.4810
  336MOL0     C46257   9.819  11.213   9.387 -0.5117  0.5600  0.7743
  336MOL0     C46258   9.883  11.228   9.525  0.0484 -0.8504  0.1412
  336MOL0     C46259   9.780  11.321   9.313  0.2438 -1.5924 -0.2196
  336MOL0     C46260   9.816  11.465   9.353  0.2152  0.4710 -0.4644
  336MOL0     O46261   9.747  11.564   9.293  0.2521 -0.0007  0.5316
  336MOL0     C46262   9.779  11.689   9.340  0.4462 -0.8164 -0.1418
  336MOL0     C46263   9.810  11.791   9.247 -0.0773  0.2216  0.7819
  336MOL0     C46264   9.838  11.925   9.281 -0.4600  0.5383  0.0786
  336MOL0     C46265   9.833  11.966   9.415  0.7329  0.4376 -0.8178
  336MOL0     O46266   9.860  12.094   9.454  0.8026  0.4410  0.3929
  336MOL0     C46267   9.768  12.161   9.549 -0.9609  0.2890 -0.3739
  336MOL0     C46268   9.628  12.192   9.496 -0.0949  0.5315  0.8565
  336MOL0     C46269   9.624  12.299   9.387 -0.3967  0.4522  0.3071
  336MOL0     C46270   9.641  12.443   9.431 -0.8854  0.1104  0.1620
  336MOL0     C46271   9.642  12.533   9.305 -0.1353 -0.1425 -0.2744
  336MOL0     C46272   9.661  12.676   9.344  0.6432 -1.2190 -0.7446
  336MOL0     C46273   9.540  12.737   9.409  0.6405  0.2330 -0.3153
  336MOL0     C46274   9.561  12.878   9.473  0.6057 -0.7829 -1.0123
  336MOL0    Cl46275   9.569  13.007   9.345  0.0474 -0.2666  0.1446
  336MOL0     C46276   9.799  11.868   9.511  0.3458  0.3021  0.0725
  336MOL0     C46277   9.780  11.726   9.476 -0.0990 -0.9252  0.3452
  336MOL0     O46278   9.927  11.475   9.400  0.3014  0.1432 -0.7175
  336MOL0     C46279   9.711  11.301   9.191 -0.7070  0.3485  0.5898
  336MOL0     C46280   9.691  11.173   9.147  0.1852  0.4696  0.3122
  336MOL0     N46281   9.563  10.638   8.572 -0.6825 -0.2339  1.0683
  336MOL0     N46282   9.482  10.582   8.498  0.1559 -0.0396  0.1942
  336MOL0     C46283   8.363  10.382   8.875  0.5040  0.7302 -0.5551
  336MOL0     C46284   8.266  10.411   8.973 -0.3117  1.2051  0.9904
  336MOL0     C46285   7.990  10.710   9.176  0.2110 -0.4857  0.1616
  336MOL0     C46286   7.980  10.634   9.288  0.4235  0.8203 -0.6055
  336MOL0     C46287   7.893  10.663   9.392 -0.6203  1.0263  0.4031
  336MOL0     C46288   7.829  10.784   9.381  0.1691  1.1421  0.6808
  336MOL0     O46289   7.754  10.839   9.486  0.0113  0.1381  0.0766
  336MOL0     C46290   7.832  10.863   9.605  1.1913 -0.4387  0.5063
  336MOL0     C46291   7.814  11.004   9.667  1.7124 -0.8467 -0.1018
  336MOL0     C46292   7.898  11.113   9.599 -0.1353 -0.8875 -0.0416
  336MOL0     C46293   7.986  11.191   9.706  0.0533 -0.0338 -0.9875
  336MOL0     C46294   8.074  11.291   9.639  0.3865  0.6681  0.2711
  336MOL0     C46295   8.175  11.348   9.604  0.4481 -0.6533  0.4079
  336MOL0     C46296   7.839  10.872   9.269  0.8883  0.3732  1.1284
  336MOL0     C46297   7.913  10.826   9.159 -0.0749  0.4916 -0.2206
  336MOL0     C46298   7.896  10.905   9.028 -0.6617  0.6553 -0.7298
  336MOL0     H46299   8.016  10.543   8.795  0.4660  3.3706  2.6040
  336MOL0     H46300   8.166  10.465   8.602  2.7798 -1.1536 -1.5344
  336MOL0     H46301   8.352  10.457   8.467  0.0701  0.1770  2.2265
  336MOL0     H46302   8.338  10.286   8.488  0.2534 -0.4386 -0.4272
  336MOL0     H46303   8.591  10.256   8.490 -1.6901 -1.9343 -1.8083
  336MOL0     H46304   8.547  10.325   8.335  1.2300  2.2842  0.1618
  336MOL0     H46305   8.633  10.543   8.404  3.2671 -0.7182  0.2265
  336MOL0     H46306   8.628  10.507   8.568  3.7001  1.2958 -0.7871
  336MOL0     H46307   8.792  10.307   8.519  0.8978  0.8706  0.7881
  336MOL0     H46308   8.792  10.370   8.346  3.5876  0.4040 -0.4602
  336MOL0     H46309   8.902  10.482   8.604  2.4419 -0.1142 -0.2124
  336MOL0     H46310   8.886  10.589   8.459  0.9773 -0.0446 -0.2090
  336MOL0     H46311   9.061  10.326   8.471  4.6457 -0.3972  1.2001
  336MOL0     H46312   9.065  10.447   8.342 -0.2911 -3.6468 -0.3225
  336MOL0     H46313   9.137  10.519   8.630  2.9011  1.3262  0.3425
  336MOL0     H46314   9.169  10.611   8.481 -1.9153 -0.7921 -2.0967
  336MOL0     H46315   9.263  10.324   8.535 -0.8744  0.2506  1.6905
  336MOL0     H46316   9.312  10.424   8.397  0.4059  1.1288  1.1928
  336MOL0     H46317   9.412  10.413   8.774  0.7837  0.8992  1.3979
  336MOL0     H46318   9.732  10.552   8.783 -0.8431 -2.6078 -0.6361
  336MOL0     H46319   9.601  10.515   8.899 -1.6611  1.5680  0.5484
  336MOL0     H46320   9.704  10.770   8.794  1.1825 -4.0366 -1.3988
  336MOL0     H46321   9.530  10.762   8.870 -1.1622 -1.5055 -0.4215
  336MOL0     H46322   9.648  10.687   9.088  1.8084 -0.2300  0.5358
  336MOL0     H46323   9.794  10.696   9.004 -0.7014 -0.5301  3.2420
  336MOL0     H46324   9.762  10.944   8.976  2.7854 -1.5249 -0.3352
  336MOL0     H46325   9.587  10.924   9.024  1.1174  1.8732  0.4722
  336MOL0     H46326   9.817  10.993   9.395 -1.3836 -0.6243  0.4435
  336MOL0     H46327   9.988  11.255   9.517 -0.3376  0.2812 -1.5938
  336MOL0     H46328   9.892  11.134   9.580  0.5819 -1.1209 -0.3983
  336MOL0     H46329   9.824  11.292   9.591 -1.1716 -1.7554 -0.0386
  336MOL0     H46330   9.793  11.759   9.145  0.2620 -1.0623  1.1037
  336MOL0     H46331   9.859  11.994   9.201 -1.1033  1.2388  0.5005
  336MOL0     H46332   9.748  12.095   9.635 -1.6097  2.4261  1.1961
  336MOL0     H46333   9.809  12.254   9.590 -0.5989  0.8874 -2.0150
  336MOL0     H46334   9.582  12.102   9.454 -0.8115  1.8627 -1.3750
  336MOL0     H46335   9.555  12.223   9.571  0.5405 -1.1674  2.2447
  336MOL0     H46336   9.524  12.288   9.343 -0.4440 -0.0742  0.5326
  336MOL0     H46337   9.704  12.272   9.318  2.3088 -0.3049  3.4834
  336MOL0     H46338   9.738  12.448   9.480 -0.5216 -2.6564 -0.1204
  336MOL0     H46339   9.559  12.485   9.491  0.0131  3.5968 -0.8082
  336MOL0     H46340   9.727  12.508   9.241 -0.1542 -0.6397 -0.1104
  336MOL0     H46341   9.550  12.519   9.247  0.2704 -3.1217 -0.3582
  336MOL0     H46342   9.693  12.734   9.257 -0.3098  2.5086  1.1985
  336MOL0     H46343   9.749  12.679   9.410  1.1496 -0.0108 -1.4465
  336MOL0     H46344   9.508  12.678   9.495  4.9233 -0.2015  1.2548
  336MOL0     H46345   9.464  12.748   9.331  1.1180  3.0760 -0.5026
  336MOL0     H46346   9.652  12.877   9.534 -1.4921 -3.2279  2.4930
  336MOL0     H46347   9.486  12.904   9.549  2.8988  1.0614  0.7919
  336MOL0     H46348   9.790  11.898   9.615 -5.9637 -0.5103  0.1089
  336MOL0     H46349   9.761  11.657   9.558  0.6085 -0.8895  0.5443
  336MOL0     H46350   9.677  11.387   9.134  1.6216  1.1047  0.2405
  336MOL0     H46351   9.634  11.160   9.055  0.9384  1.7464 -0.3616
  336MOL0     H46352   8.464  10.352   8.898 -0.8622 -3.2875  1.1499
  336MOL0     H46353   8.284  10.383   9.076 -2.8413  1.1335  1.4817
  336MOL0     H46354   8.029  10.538   9.279 -1.1046  0.0894 -1.5068
  336MOL0     H46355   7.878  10.597   9.477  0.2043 -1.0853 -1.0133
  336MOL0     H46356   7.799  10.790   9.679 -0.4352 -0.1978  0.0469
  336MOL0     H46357   7.940  10.856   9.588  0.7923 -3.0862 -1.6272
  336MOL0     H46358   7.833  10.990   9.774 -1.5225 -0.6304  0.6071
  336MOL0     H46359   7.707  11.026   9.659  2.0078  0.8374  0.0972
  336MOL0     H46360   7.967  11.085   9.519  2.7220  1.9798  1.1665
  336MOL0     H46361   7.829  11.188   9.561 -0.2817  0.1302  2.0469
  336MOL0     H46362   8.057  11.120   9.747 -0.1150 -0.1764 -0.9435
  336MOL0     H46363   7.916  11.229   9.782  0.6307  0.3716 -0.6498
  336MOL0     H46364   8.250  11.407   9.556  2.4994 -0.1219  3.9279
  336MOL0     H46365   7.781  10.964   9.264 -0.9091 -0.7605 -0.4778
  336MOL0     H46366   7.895  10.841   8.940  2.0843  0.2462 -0.5621
  336MOL0     H46367   7.810  10.971   9.041  0.7357  2.1224  1.8809
  336MOL0     H46368   7.975  10.981   9.022  0.8969 -0.7199  1.0627
  337MOL0     O46369   4.345   5.570   8.107  0.0828 -1.0003  0.2223
  337MOL0     C46370   4.369   5.584   7.987  0.6181 -0.0386  0.8794
  337MOL0     O46371   4.487   5.558   7.923  0.0667  0.3047 -0.4087
  337MOL0     C46372   4.598   5.506   7.995  0.3694  0.4775  0.5375
  337MOL0     C46373   4.653   5.384   7.947  0.6607  0.8706 -0.1065
  337MOL0     C46374   4.754   5.320   8.017  0.5265 -0.2116 -0.7168
  337MOL0     C46375   4.823   5.380   8.125 -0.0483 -0.4102  1.0837
  337MOL0     O46376   4.916   5.304   8.181  0.2368  0.0049  0.2765
  337MOL0     C46377   4.991   5.341   8.292 -0.3592 -0.0721 -0.0744
  337MOL0     C46378   5.064   5.220   8.330 -1.0034  0.0398 -0.1966
  337MOL0     C46379   5.199   5.198   8.258 -0.8156 -1.3906 -0.2730
  337MOL0     C46380   5.253   5.052   8.256 -0.1931  0.4362 -0.0037
  337MOL0     C46381   5.271   4.992   8.395  0.4590 -0.3478 -0.0428
  337MOL0     C46382   5.359   4.863   8.382 -0.5983 -0.8186  0.2246
  337MOL0     C46383   5.349   4.771   8.506  0.0267 -0.7756 -0.8440
  337MOL0     C46384   5.437   4.647   8.506 -0.3189  0.0806  0.1552
  337MOL0     N46385   5.418   4.578   8.633  0.2542 -0.7756  0.0357
  337MOL0     C46386   5.307   4.515   8.672  0.0297  0.5879 -0.7739
  337MOL0     C46387   5.336   4.471   8.804 -0.5203 -0.2850  0.9291
  337MOL0     C46388   5.243   4.400   8.902  0.2566  0.5102 -0.8450
  337MOL0     C46389   5.114   4.474   8.959  0.0138 -0.1407 -0.4108
  337MOL0     C46390   4.986   4.446   8.884 -0.0873 -0.1187  1.1587
  337MOL0     C46391   4.871   4.542   8.909  0.3737 -0.2890 -0.0688
  337MOL0     O46392   4.768   4.529   8.818 -0.4320  0.2460 -0.5425
  337MOL0     C46393   4.759   4.595   8.690 -0.7597 -0.2176 -0.6636
  337MOL0     C46394   4.860   4.680   8.646 -0.1771  0.3017  0.4824
  337MOL0     C46395   4.856   4.741   8.520  0.8613 -0.5916 -0.1264
  337MOL0     C46396   4.964   4.839   8.483  0.2820 -0.3303  0.0128
  337MOL0     C46397   4.741   4.731   8.444 -0.6218 -0.8228  0.3847
  337MOL0     C46398   4.722   4.797   8.309  0.6098 -0.5700 -0.3973
  337MOL0     O46399   4.835   4.823   8.230  0.0896 -0.1878  0.7242
  337MOL0     C46400   4.834   4.840   8.098 -0.0496  0.3463 -0.3859
  337MOL0     C46401   4.897   4.948   8.028 -0.1112 -0.1207  0.0925
  337MOL0     C46402   4.896   4.954   7.886  0.0800  0.3302  0.1388
  337MOL0     C46403   4.833   4.860   7.806 -0.5602 -0.4802 -0.1972
  337MOL0     O46404   4.819   4.882   7.668 -0.4658  0.0248 -0.0622
  337MOL0     C46405   4.727   4.806   7.595 -0.1807 -0.3191  0.6052
  337MOL0     C46406   4.727   4.838   7.442  0.4091  0.4098 -0.6616
  337MOL0     C46407   4.675   4.723   7.362  0.2538 -0.5813 -0.5772
  337MOL0     C46408   4.652   4.750   7.209  0.7142 -0.6668 -0.1065
  337MOL0     C46409   4.591   4.624   7.146  0.6575  1.5598 -0.3128
  337MOL0     C46410   4.443   4.631   7.170 -1.1074 -0.7136  1.2820
  337MOL0     C46411   4.364   4.523   7.088  0.5833 -0.0959  0.6374
  337MOL0     C46412   4.211   4.541   7.111 -0.0600  0.2086  1.3806
  337MOL0    Cl46413   4.159   4.700   7.038  0.2000 -0.3419  0.0408
  337MOL0     C46414   4.770   4.752   7.875 -0.0619  0.1695 -0.2265
  337MOL0     C46415   4.770   4.742   8.014  1.3766 -0.3705  0.6347
  337MOL0     O46416   4.607   4.813   8.270 -0.2572  0.2357 -0.2766
  337MOL0     C46417   4.642   4.648   8.489  0.1837  0.5115  0.5751
  337MOL0     C46418   4.654   4.574   8.602 -0.4381 -0.3624 -0.8309
  337MOL0     N46419   5.469   4.499   8.838  0.1556  0.3889  0.5903
  337MOL0     N46420   5.514   4.563   8.726  0.9612 -0.0731 -0.4045
  337MOL0     C46421   4.781   5.509   8.160 -0.5553  0.7796 -0.9918
  337MOL0     C46422   4.666   5.569   8.102 -0.4593 -0.3304  0.3649
  337MOL0     C46423   4.264   5.646   7.904  0.5708 -0.3381  0.1895
  337MOL0     C46424   4.224   5.782   7.931 -0.1188 -0.9967  0.2720
  337MOL0     C46425   4.118   5.840   7.854  0.7118 -0.4075  0.4395
  337MOL0     C46426   4.073   5.771   7.737 -0.0566 -0.3340 -0.4631
  337MOL0     O46427   3.981   5.828   7.648 -0.0370 -0.2107  0.3571
  337MOL0     C46428   3.917   5.951   7.684 -0.3089 -0.3516 -0.5751
  337MOL0     C46429   3.794   5.938   7.785  0.2496 -0.0645 -0.8499
  337MOL0     C46430   3.694   5.824   7.752 -0.4849 -0.6742 -0.0167
  337MOL0     C46431   3.582   5.839   7.850  0.1656  0.1281 -0.7902
  337MOL0     C46432   3.496   5.957   7.834 -0.1650 -0.0368 -0.9560
  337MOL0     C46433   3.422   6.050   7.811  0.8348  0.3327  0.0571
  337MOL0     C46434   4.124   5.647   7.711  0.1543  0.3219  0.3216
  337MOL0     C46435   4.212   5.573   7.790 -0.3778  0.4083 -0.0376
  337MOL0     C46436   4.251   5.427   7.755 -0.1261 -0.3252 -0.3596
  337MOL0     H46437   4.611   5.332   7.862  0.9060 -3.9075  2.3361
  337MOL0     H46438   4.790   5.222   7.987  3.5168  0.5276  0.1265
  337MOL0     H46439   4.918   5.354   8.373  1.5038 -2.7341  2.2742
  337MOL0     H46440   5.057   5.425   8.270  0.4599 -0.3979  1.0361
  337MOL0     H46441   5.105   5.229   8.432 -0.0275 -0.1645 -0.5547
  337MOL0     H46442   4.999   5.132   8.334 -0.4414 -0.3452  1.9772
  337MOL0     H46443   5.180   5.231   8.156 -0.2146 -2.5471 -0.7743
  337MOL0     H46444   5.275   5.248   8.318 -0.2732 -1.7439 -0.6651
  337MOL0     H46445   5.177   5.002   8.196 -2.3157  2.7725  0.5237
  337MOL0     H46446   5.352   5.046   8.211  0.0527 -1.5542  0.7067
  337MOL0     H46447   5.176   4.959   8.439  0.3763 -0.2780 -0.1704
  337MOL0     H46448   5.312   5.065   8.466 -0.1681 -0.9341  0.9494
  337MOL0     H46449   5.341   4.802   8.293  2.4125  0.0323 -1.0897
  337MOL0     H46450   5.465   4.890   8.379 -0.6423 -0.6172  0.4135
  337MOL0     H46451   5.244   4.740   8.510 -0.8891  2.1298  0.8778
  337MOL0     H46452   5.357   4.827   8.599  2.2834 -3.8656  1.0083
  337MOL0     H46453   5.401   4.590   8.419 -0.7961 -1.2521  1.1917
  337MOL0     H46454   5.542   4.678   8.502  0.2367 -1.4794  1.5787
  337MOL0     H46455   5.221   4.503   8.607 -1.0745  1.3494  0.4936
  337MOL0     H46456   5.298   4.365   8.990  0.2034  3.0099  0.2544
  337MOL0     H46457   5.199   4.317   8.845  0.2227  0.4129 -0.6789
  337MOL0     H46458   5.104   4.430   9.058 -0.0930 -1.2515 -0.8910
  337MOL0     H46459   5.123   4.582   8.956 -1.4156  0.0592  1.0084
  337MOL0     H46460   5.000   4.461   8.777  0.3696 -1.5415  0.9977
  337MOL0     H46461   4.953   4.343   8.898  1.1972 -0.9695 -1.4525
  337MOL0     H46462   4.835   4.520   9.010  1.6313  0.0761  0.4771
  337MOL0     H46463   4.908   4.644   8.911  1.8122 -0.7654 -0.9361
  337MOL0     H46464   4.950   4.693   8.704  1.8297 -2.8326 -1.6049
  337MOL0     H46465   4.934   4.931   8.432  0.8350 -0.6555 -0.9188
  337MOL0     H46466   5.048   4.786   8.438 -0.8669  0.1093 -2.8416
  337MOL0     H46467   4.997   4.875   8.582 -1.0465  2.5210 -0.4846
  337MOL0     H46468   4.963   5.015   8.083  1.2467  0.1538 -1.7738
  337MOL0     H46469   4.954   5.034   7.840  0.6331 -0.1045  0.0599
  337MOL0     H46470   4.749   4.699   7.606  0.7371 -0.1377  0.5656
  337MOL0     H46471   4.629   4.805   7.643 -1.9255 -1.5051 -2.6221
  337MOL0     H46472   4.676   4.933   7.423  2.0972  1.3286 -0.7810
  337MOL0     H46473   4.831   4.846   7.410  1.2378 -3.3454  0.5795
  337MOL0     H46474   4.581   4.696   7.409 -1.1670  0.3472 -2.7098
  337MOL0     H46475   4.749   4.643   7.372  1.7626  0.6211 -1.6140
  337MOL0     H46476   4.750   4.784   7.172  0.3799  1.3822  0.7406
  337MOL0     H46477   4.578   4.829   7.197  2.7627  1.6430  1.4390
  337MOL0     H46478   4.610   4.627   7.038 -1.6428 -1.0617 -0.8902
  337MOL0     H46479   4.618   4.525   7.184 -3.8785  0.1561 -0.2160
  337MOL0     H46480   4.399   4.727   7.142  0.0656  0.1771  2.3907
  337MOL0     H46481   4.420   4.621   7.276  0.4721 -1.7729  1.5485
  337MOL0     H46482   4.398   4.427   7.129  1.0852  1.0481  3.1401
  337MOL0     H46483   4.369   4.513   6.979 -1.6355 -1.6513  0.6200
  337MOL0     H46484   4.175   4.524   7.212 -0.5513  0.3671  1.2356
  337MOL0     H46485   4.147   4.471   7.056 -1.2877  1.3080  1.3655
  337MOL0     H46486   4.712   4.677   7.822  0.4565 -0.1016 -0.4214
  337MOL0     H46487   4.720   4.656   8.058 -1.2447 -1.0399 -3.1342
  337MOL0     H46488   4.552   4.639   8.431  0.8094  0.4868 -0.4094
  337MOL0     H46489   4.577   4.512   8.647 -0.0467  0.5601  1.2046
  337MOL0     H46490   4.828   5.568   8.237  0.4159 -3.3590  1.9400
  337MOL0     H46491   4.636   5.661   8.151  0.5334 -0.7357  1.7954
  337MOL0     H46492   4.266   5.840   8.013  2.5018 -0.0360 -1.6207
  337MOL0     H46493   4.081   5.939   7.874  0.3007 -0.5848  0.5720
  337MOL0     H46494   3.983   6.032   7.718 -1.4994  0.7481 -0.8000
  337MOL0     H46495   3.875   5.985   7.589 -2.2575  0.1549  0.4068
  337MOL0     H46496   3.745   6.035   7.774 -0.9315 -0.7032 -1.3914
  337MOL0     H46497   3.829   5.919   7.887 -1.3938  0.1799 -0.2095
  337MOL0     H46498   3.651   5.852   7.655 -3.0282 -1.8728  0.6821
  337MOL0     H46499   3.745   5.727   7.747 -0.8782 -1.0006  1.7353
  337MOL0     H46500   3.617   5.828   7.953  0.0354  1.0804 -0.6344
  337MOL0     H46501   3.521   5.750   7.831  0.1634  0.0295 -0.3376
  337MOL0     H46502   3.365   6.133   7.776  1.6522  1.3202  0.9955
  337MOL0     H46503   4.087   5.606   7.618  0.0467 -1.2391  1.0208
  337MOL0     H46504   4.228   5.399   7.652  1.0628  2.4355 -1.4797
  337MOL0     H46505   4.357   5.404   7.772 -0.0768  0.2132  0.1050
  337MOL0     H46506   4.198   5.359   7.823 -1.1304  0.6466 -0.1466
  338MOL0     O46507   4.117   8.887   4.651 -0.5322 -0.5115 -0.1712
  338MOL0     C46508   4.104   8.973   4.559 -0.0642 -0.0100 -0.6733
  338MOL0     O46509   4.208   9.044   4.511  0.4482  0.1641 -0.2936
  338MOL0     C46510   4.334   9.011   4.539 -0.4512 -0.7211  1.0411
  338MOL0     C46511   4.430   9.110   4.574  0.3898 -0.5335  0.6042
  338MOL0     C46512   4.556   9.065   4.613 -0.6057  0.6991  0.2393
  338MOL0     C46513   4.590   8.930   4.603  0.1751  0.2735 -0.7143
  338MOL0     O46514   4.722   8.898   4.632  0.2754 -0.2294 -0.3305
  338MOL0     C46515   4.774   8.765   4.616 -0.6104 -0.6935 -0.6387
  338MOL0     C46516   4.906   8.746   4.687 -0.0876 -0.4760  0.2863
  338MOL0     C46517   5.006   8.829   4.602  0.3866 -0.9595 -1.1376
  338MOL0     C46518   5.143   8.803   4.647 -1.0728 -0.4357 -1.0640
  338MOL0     C46519   5.247   8.888   4.569  0.1132 -0.9946 -0.1142
  338MOL0     C46520   5.387   8.847   4.614 -0.0457 -0.3836 -0.0399
  338MOL0     C46521   5.493   8.947   4.562 -0.0379 -0.4222 -0.0300
  338MOL0     C46522   5.634   8.908   4.605  0.3675  0.4584 -0.2542
  338MOL0     N46523   5.727   9.001   4.549 -0.4408  0.0266  0.0406
  338MOL0     C46524   5.819   8.978   4.450 -0.1643  0.7665 -0.5816
  338MOL0     C46525   5.869   9.094   4.414  0.0857 -0.3772 -0.4601
  338MOL0     C46526   5.969   9.111   4.297 -0.2391 -0.2325 -0.0682
  338MOL0     C46527   6.062   9.232   4.320  0.3535 -0.0485  0.0208
  338MOL0     C46528   6.158   9.230   4.451 -0.6908 -1.2165  0.2630
  338MOL0     C46529   6.225   9.374   4.462  0.2439 -0.0151 -0.6835
  338MOL0     O46530   6.310   9.385   4.351 -0.7135 -0.2106 -0.0782
  338MOL0     C46531   6.415   9.477   4.365 -0.5465 -0.3069 -0.8095
  338MOL0     C46532   6.426   9.572   4.470 -0.4364  0.1247 -0.3556
  338MOL0     C46533   6.523   9.678   4.458  1.0569 -0.0735  0.0729
  338MOL0     C46534   6.516   9.792   4.562 -0.4446  0.1251  0.1472
  338MOL0     C46535   6.608   9.684   4.344  0.0406  0.4625  0.3133
  338MOL0     C46536   6.713   9.781   4.324  0.6300 -0.3194  0.1658
  338MOL0     O46537   6.738   9.876   4.416  0.7012 -0.1054  0.7286
  338MOL0     C46538   6.829   9.971   4.376 -0.4016  1.2807 -0.4405
  338MOL0     C46539   6.786  10.090   4.327 -0.4064 -0.2547  0.3306
  338MOL0     C46540   6.877  10.194   4.298  1.1732  0.2675  0.4349
  338MOL0     C46541   7.013  10.181   4.327 -0.4649  0.6617 -0.1579
  338MOL0     O46542   7.112  10.283   4.311  0.1260 -1.3502  0.2923
  338MOL0     C46543   7.082  10.381   4.212  0.0745 -0.3155  0.3947
  338MOL0     C46544   7.201  10.483   4.218  0.1372  0.6375  0.8078
  338MOL0     C46545   7.320  10.417   4.137  0.5819  0.8744  0.6160
  338MOL0     C46546   7.421  10.521   4.085  0.6902 -0.8912  0.1891
  338MOL0     C46547   7.509  10.451   3.982  0.0526 -0.1499 -0.0080
  338MOL0     C46548   7.620  10.540   3.945  0.1733  0.2665  0.0923
  338MOL0     C46549   7.573  10.670   3.883  1.1754  0.0392  0.5837
  338MOL0     C46550   7.678  10.773   3.870  0.3215  0.1414  0.5917
  338MOL0    Cl46551   7.699  10.819   3.689  0.3501 -0.4510 -0.0454
  338MOL0     C46552   7.057  10.054   4.387 -0.2203  0.2382  0.4696
  338MOL0     C46553   6.961   9.948   4.402 -0.0624 -0.3657  0.1965
  338MOL0     O46554   6.752   9.782   4.207 -0.3754  0.0400 -0.3290
  338MOL0     C46555   6.594   9.582   4.250  0.3086 -0.4420 -0.5529
  338MOL0     C46556   6.505   9.478   4.261 -0.1960 -0.2346  0.0366
  338MOL0     N46557   5.811   9.185   4.497 -0.1955 -0.5479  0.6486
  338MOL0     N46558   5.721   9.132   4.568  0.5340 -0.3140 -0.5715
  338MOL0     C46559   4.495   8.841   4.552  0.1349  0.0944 -0.2026
  338MOL0     C46560   4.373   8.882   4.522 -0.0803 -1.1647 -0.6035
  338MOL0     C46561   3.969   9.023   4.510  0.2538 -0.0268  0.6717
  338MOL0     C46562   3.960   9.148   4.442 -0.7151  0.1708 -0.3063
  338MOL0     C46563   3.843   9.175   4.376 -0.0456 -0.9792  0.1141
  338MOL0     C46564   3.730   9.095   4.375 -0.1715 -0.4361  0.2465
  338MOL0     O46565   3.615   9.115   4.315 -1.0953 -0.7099  0.4464
  338MOL0     C46566   3.611   9.219   4.204 -0.2137  0.7097 -0.7876
  338MOL0     C46567   3.477   9.183   4.129 -0.1632  0.9066  0.0933
  338MOL0     C46568   3.466   9.256   4.006  0.4119 -0.4254 -0.5245
  338MOL0     C46569   3.354   9.199   3.919  0.0588  0.3044 -0.0326
  338MOL0     C46570   3.286   9.307   3.853 -0.0056  0.0639  0.4181
  338MOL0     C46571   3.232   9.405   3.806 -0.3050 -0.4416 -0.9689
  338MOL0     C46572   3.736   8.978   4.444 -0.3521 -0.8372  0.5777
  338MOL0     C46573   3.849   8.937   4.514 -1.0627  0.3578 -0.9028
  338MOL0     C46574   3.853   8.806   4.596 -1.2838 -0.7568  0.2464
  338MOL0     H46575   4.396   9.213   4.573  0.7274 -0.4181  0.1794
  338MOL0     H46576   4.634   9.134   4.646  0.8207  0.8923 -3.0685
  338MOL0     H46577   4.790   8.742   4.510  1.3306 -0.6310 -0.3895
  338MOL0     H46578   4.711   8.688   4.661  2.6344 -2.8814  0.5592
  338MOL0     H46579   4.910   8.775   4.792  0.8465 -2.3244  0.7970
  338MOL0     H46580   4.930   8.640   4.678  0.5678 -0.2982 -0.1557
  338MOL0     H46581   4.999   8.816   4.493  1.7242  4.0226 -2.0641
  338MOL0     H46582   4.981   8.934   4.617 -2.8591 -2.0070  2.4747
  338MOL0     H46583   5.154   8.810   4.756 -1.3857 -2.6724 -0.8419
  338MOL0     H46584   5.177   8.701   4.628  0.0770 -0.4448  0.7341
  338MOL0     H46585   5.229   8.995   4.583  0.2518 -0.1005 -4.9597
  338MOL0     H46586   5.244   8.885   4.460  1.3682 -1.6791 -0.1462
  338MOL0     H46587   5.381   8.849   4.723 -0.7883  0.8955 -0.0914
  338MOL0     H46588   5.405   8.743   4.586  1.4720 -0.0786 -0.2843
  338MOL0     H46589   5.471   9.045   4.605 -2.6244 -0.4329 -1.1407
  338MOL0     H46590   5.486   8.952   4.453 -0.6772 -0.1064  0.0151
  338MOL0     H46591   5.641   8.911   4.714 -0.3265  1.3923 -0.2192
  338MOL0     H46592   5.647   8.804   4.574 -3.8826  0.1896 -1.8115
  338MOL0     H46593   5.838   8.884   4.399 -1.8938  0.0254  0.0762
  338MOL0     H46594   5.916   9.130   4.203 -0.3449  0.3518  0.1064
  338MOL0     H46595   6.025   9.017   4.291  0.7853  0.4375 -2.0159
  338MOL0     H46596   6.128   9.248   4.235  1.0384  2.9423  0.9851
  338MOL0     H46597   5.997   9.319   4.311 -2.5588 -2.2939 -2.6752
  338MOL0     H46598   6.109   9.206   4.546 -0.8370  1.6618  1.0130
  338MOL0     H46599   6.235   9.153   4.443 -1.0939 -1.8505  2.0675
  338MOL0     H46600   6.150   9.454   4.464  3.7903  3.7036 -2.5692
  338MOL0     H46601   6.276   9.379   4.558  1.5771  1.5300 -1.4227
  338MOL0     H46602   6.360   9.589   4.555  0.5721  0.4612  0.3866
  338MOL0     H46603   6.603   9.809   4.626 -1.5884 -0.1777  1.8500
  338MOL0     H46604   6.434   9.770   4.632 -0.2309 -1.0929  0.0295
  338MOL0     H46605   6.480   9.880   4.508 -1.4086 -0.3713 -0.0378
  338MOL0     H46606   6.680  10.103   4.306 -0.5433  0.5017  1.3968
  338MOL0     H46607   6.832  10.282   4.254  0.2153  0.0360  0.9020
  338MOL0     H46608   7.071  10.344   4.110  0.7645  2.9791 -1.0027
  338MOL0     H46609   6.995  10.446   4.226 -0.0504 -0.0495 -1.4407
  338MOL0     H46610   7.166  10.573   4.167  2.2568 -0.4902 -3.0276
  338MOL0     H46611   7.239  10.496   4.320 -1.6336 -1.1848  1.7692
  338MOL0     H46612   7.288  10.358   4.051  2.6920  0.1481  0.2719
  338MOL0     H46613   7.369  10.340   4.197 -4.7003 -3.9921 -0.5203
  338MOL0     H46614   7.471  10.571   4.168 -0.5391 -3.0648  2.3818
  338MOL0     H46615   7.361  10.605   4.047  2.2655  0.9089  1.5168
  338MOL0     H46616   7.553  10.361   4.026 -0.3647 -1.1517 -1.5713
  338MOL0     H46617   7.444  10.437   3.896 -0.2476 -2.3527  0.5313
  338MOL0     H46618   7.683  10.484   3.875 -0.0317  2.5666 -2.0825
  338MOL0     H46619   7.668  10.557   4.042  1.7869 -1.6192 -0.3160
  338MOL0     H46620   7.497  10.714   3.948 -0.3644 -0.1846 -0.9825
  338MOL0     H46621   7.529  10.651   3.785  3.0388 -1.0984 -0.0778
  338MOL0     H46622   7.767  10.729   3.917 -0.0005 -0.8679  0.2784
  338MOL0     H46623   7.652  10.860   3.930  2.6971  0.8457  0.7292
  338MOL0     H46624   7.162  10.037   4.411  0.0636  0.3542 -0.6520
  338MOL0     H46625   6.986   9.853   4.447  1.7351 -0.3501 -0.6869
  338MOL0     H46626   6.657   9.579   4.162  0.7365  0.6707 -0.3093
  338MOL0     H46627   6.496   9.387   4.203 -0.1217  0.4723 -1.1261
  338MOL0     H46628   4.505   8.739   4.518  0.1805  0.0265  0.0125
  338MOL0     H46629   4.303   8.806   4.488  0.7238 -0.9175 -3.0398
  338MOL0     H46630   4.045   9.214   4.429  1.3820 -2.7558 -3.1057
  338MOL0     H46631   3.837   9.275   4.333 -3.1808 -0.5122  1.3215
  338MOL0     H46632   3.605   9.322   4.241  0.2741  0.3555  0.3074
  338MOL0     H46633   3.698   9.210   4.138  0.7905 -1.0171  0.7046
  338MOL0     H46634   3.397   9.203   4.201  1.5376  2.6876  1.6201
  338MOL0     H46635   3.471   9.076   4.105  3.2246  0.0287  2.4571
  338MOL0     H46636   3.441   9.360   4.027 -1.6034 -0.4206 -2.5816
  338MOL0     H46637   3.552   9.262   3.938  0.9564  0.9471  0.2334
  338MOL0     H46638   3.286   9.142   3.983  0.3388  0.9073  0.8295
  338MOL0     H46639   3.396   9.131   3.845  2.4742  2.9850 -1.3270
  338MOL0     H46640   3.174   9.482   3.760 -1.9353 -2.2672 -2.1121
  338MOL0     H46641   3.644   8.921   4.433 -0.6617 -0.0397 -1.3392
  338MOL0     H46642   3.754   8.761   4.586 -1.8143  0.3246  0.4657
  338MOL0     H46643   3.935   8.754   4.545 -1.5802 -0.3079 -0.7094
  338MOL0     H46644   3.879   8.821   4.701 -1.6623  0.0585  0.2363
  339MOL0     O46645   9.248   2.231  10.082 -0.1392 -0.4964 -0.0087
  339MOL0     C46646   9.320   2.329  10.105  0.7126 -0.4128 -0.4587
  339MOL0     O46647   9.438   2.353  10.037 -0.3683  0.2402  0.8791
  339MOL0     C46648   9.486   2.252   9.957 -0.4264 -0.7138  0.0164
  339MOL0     C46649   9.620   2.213   9.976 -0.7177  0.3480  0.1409
  339MOL0     C46650   9.679   2.118   9.895  0.8803 -0.7934 -0.5237
  339MOL0     C46651   9.614   2.062   9.787 -0.0501 -0.2672  0.4629
  339MOL0     O46652   9.669   1.962   9.711 -0.4388  0.4333 -0.1888
  339MOL0     C46653   9.612   1.916   9.589 -0.8231  1.2046  0.8794
  339MOL0     C46654   9.719   1.852   9.498 -0.1013 -0.2543  0.2996
  339MOL0     C46655   9.799   1.735   9.550 -0.4687  0.0974 -0.2305
  339MOL0     C46656   9.912   1.706   9.442  0.4368 -0.2230  0.1951
  339MOL0     C46657   9.985   1.570   9.465  1.1514  0.1034  0.0512
  339MOL0     C46658  10.064   1.518   9.344  0.1643  1.0206 -0.5060
  339MOL0     C46659   9.970   1.462   9.236 -0.1109 -0.2939 -1.1287
  339MOL0     C46660  10.048   1.400   9.122  0.0683 -0.4049  0.4853
  339MOL0     N46661  10.119   1.498   9.042  0.6943 -0.3951  0.5060
  339MOL0     C46662  10.253   1.518   9.064 -0.7856 -0.3865 -0.3334
  339MOL0     C46663  10.296   1.603   8.959 -0.3370 -0.0902 -0.0596
  339MOL0     C46664  10.429   1.660   8.926 -0.6267 -0.6552  0.0806
  339MOL0     C46665  10.520   1.545   8.907  0.4752  0.5541  0.3061
  339MOL0     C46666  10.668   1.572   8.881  0.5523 -0.4317 -0.0671
  339MOL0     C46667  10.705   1.646   8.748  0.1289  0.8046 -0.5435
  339MOL0     O46668  10.846   1.668   8.731  0.0342 -0.2774 -0.0776
  339MOL0     C46669  10.932   1.564   8.692 -1.2316 -0.9540  0.6802
  339MOL0     C46670  11.071   1.592   8.671  0.2236  0.3368 -0.5421
  339MOL0     C46671  11.165   1.491   8.653  0.2983 -0.4354 -1.2368
  339MOL0     C46672  11.312   1.527   8.627 -0.3576 -0.1268 -0.5444
  339MOL0     C46673  11.123   1.357   8.641  0.4183 -0.0115  0.2487
  339MOL0     C46674  11.218   1.244   8.620 -0.1811 -0.0449 -0.0942
  339MOL0     O46675  11.175   1.132   8.552  0.6554  0.2685 -0.4486
  339MOL0     C46676  11.256   1.030   8.534 -0.9952 -0.3525 -0.4183
  339MOL0     C46677  11.251   0.967   8.415  0.0733  0.5514 -0.4210
  339MOL0     C46678  11.298   0.837   8.405  0.6579  0.5591 -0.3505
  339MOL0     C46679  11.359   0.771   8.506 -0.5549  0.4399  0.0005
  339MOL0     O46680  11.413   0.650   8.481  0.2466 -0.3997 -0.3225
  339MOL0     C46681  11.458   0.566   8.591  0.8133  0.3476 -0.5045
  339MOL0     C46682  11.536   0.443   8.545  0.4123 -0.0145 -0.0630
  339MOL0     C46683  11.683   0.448   8.576  0.8687 -0.7376 -0.2903
  339MOL0     C46684  11.756   0.568   8.520 -0.1925  0.5285  0.2640
  339MOL0     C46685  11.907   0.570   8.560 -0.7232 -1.0059  0.6605
  339MOL0     C46686  11.988   0.672   8.481  0.3064  0.1689  0.3169
  339MOL0     C46687  12.142   0.655   8.505 -0.1944 -0.5513  0.3340
  339MOL0     C46688  12.210   0.794   8.483  0.5988 -0.2810  0.2225
  339MOL0    Cl46689  12.391   0.778   8.499  0.2924 -0.1840  0.3131
  339MOL0     C46690  11.364   0.837   8.628  0.2059  0.0397  0.3711
  339MOL0     C46691  11.314   0.964   8.646  0.7955  0.0997  0.3732
  339MOL0     O46692  11.334   1.260   8.664  1.2804  0.0305  0.8711
  339MOL0     C46693  10.980   1.335   8.642 -0.3506 -0.5233 -0.7446
  339MOL0     C46694  10.890   1.436   8.677 -0.0003 -0.2042 -1.5771
  339MOL0     N46695  10.176   1.631   8.890 -0.8891 -0.6791  0.1641
  339MOL0     N46696  10.075   1.574   8.934  0.1017 -0.2137 -0.6382
  339MOL0     C46697   9.485   2.105   9.766 -0.3725  0.1676 -0.6935
  339MOL0     C46698   9.423   2.198   9.842  1.1591  0.3284 -0.0474
  339MOL0     C46699   9.279   2.443  10.207 -0.8507  0.3652  0.1711
  339MOL0     C46700   9.343   2.567  10.195 -0.1036 -0.3131  0.1783
  339MOL0     C46701   9.308   2.676  10.270  0.6235  0.0685 -0.6799
  339MOL0     C46702   9.200   2.659  10.373 -0.2994 -0.9896  0.4922
  339MOL0     O46703   9.164   2.752  10.467 -1.0505 -0.1859  0.2435
  339MOL0     C46704   9.214   2.888  10.446 -0.5459 -0.5236 -0.6300
  339MOL0     C46705   9.112   2.986  10.510 -0.1497 -0.1452  0.5216
  339MOL0     C46706   9.111   2.975  10.666  0.3931 -0.0409  0.0248
  339MOL0     C46707   9.040   3.097  10.737  0.3610  0.2558 -0.5167
  339MOL0     C46708   9.101   3.224  10.700  0.0671 -0.1704  0.2614
  339MOL0     C46709   9.123   3.336  10.660  0.9900  0.1898 -1.2630
  339MOL0     C46710   9.135   2.539  10.385  0.4246 -0.2990 -0.0269
  339MOL0     C46711   9.174   2.428  10.302 -0.4682  0.3021 -1.0388
  339MOL0     C46712   9.102   2.300  10.341  0.0453 -0.7091  0.1802
  339MOL0     H46713   9.674   2.254  10.061 -1.9582  0.5754  0.8525
  339MOL0     H46714   9.778   2.083   9.921  0.4026  0.6149  4.3645
  339MOL0     H46715   9.559   1.994   9.533 -0.3049  2.5825  2.2522
  339MOL0     H46716   9.540   1.839   9.620 -1.8628  2.5795  2.0753
  339MOL0     H46717   9.679   1.817   9.403  2.7388  1.2175 -1.5701
  339MOL0     H46718   9.797   1.923   9.470  0.9388 -1.7273 -0.7120
  339MOL0     H46719   9.848   1.770   9.641  0.4700  3.7362 -1.9574
  339MOL0     H46720   9.727   1.653   9.563 -1.0883  0.2893 -2.0960
  339MOL0     H46721   9.862   1.707   9.345 -0.8110 -0.8935  0.8109
  339MOL0     H46722   9.994   1.778   9.447  2.8380 -2.7168 -1.0791
  339MOL0     H46723   9.914   1.491   9.494 -2.6793  2.9490 -0.8046
  339MOL0     H46724  10.065   1.591   9.537  1.9742  0.2127 -0.8702
  339MOL0     H46725  10.130   1.598   9.309  0.3775  1.3193  0.5406
  339MOL0     H46726  10.127   1.434   9.373 -0.8611  0.9939  1.9168
  339MOL0     H46727   9.918   1.553   9.204  1.3926  0.7111 -0.8178
  339MOL0     H46728   9.903   1.384   9.273 -0.5729 -0.1111 -1.5707
  339MOL0     H46729  10.118   1.325   9.160  0.2515  0.6330  2.3387
  339MOL0     H46730   9.980   1.353   9.050 -0.3661 -0.1653  0.7272
  339MOL0     H46731  10.309   1.471   9.144 -1.1214  0.7336  0.5917
  339MOL0     H46732  10.458   1.722   9.012 -0.0574 -0.6874 -0.0917
  339MOL0     H46733  10.426   1.726   8.839  0.9500  4.5014  3.4301
  339MOL0     H46734  10.504   1.488   8.999 -3.2747  1.2771  0.2464
  339MOL0     H46735  10.484   1.472   8.834  3.0006  1.2244 -1.7732
  339MOL0     H46736  10.716   1.625   8.963  0.1502 -1.3428  0.7802
  339MOL0     H46737  10.710   1.473   8.862  0.5102  0.1320 -4.0846
  339MOL0     H46738  10.657   1.588   8.668 -1.1941  0.2115  0.6192
  339MOL0     H46739  10.658   1.745   8.753  1.9481  1.6188  2.6305
  339MOL0     H46740  11.114   1.692   8.679 -0.2714  0.6195 -1.3733
  339MOL0     H46741  11.355   1.476   8.540  2.0776  1.4988 -0.4086
  339MOL0     H46742  11.370   1.495   8.714 -2.6754 -0.1108  1.0970
  339MOL0     H46743  11.332   1.634   8.609  0.4248 -0.2196 -0.2959
  339MOL0     H46744  11.202   1.031   8.342  1.2724  1.9570 -0.0153
  339MOL0     H46745  11.275   0.774   8.319 -0.9592 -1.5838  1.5418
  339MOL0     H46746  11.528   0.618   8.657  1.9443 -1.2538 -0.3887
  339MOL0     H46747  11.373   0.528   8.649  0.7506  1.7531  0.3640
  339MOL0     H46748  11.494   0.358   8.600  0.4148 -0.2938 -0.4864
  339MOL0     H46749  11.505   0.421   8.443 -1.4497  0.1708  0.4226
  339MOL0     H46750  11.722   0.350   8.548  1.2488 -1.0682  1.2942
  339MOL0     H46751  11.693   0.450   8.685 -1.8997 -0.5260  0.0303
  339MOL0     H46752  11.698   0.659   8.539 -1.3320 -0.3458  1.1747
  339MOL0     H46753  11.758   0.549   8.413  1.4032 -3.4426  0.8445
  339MOL0     H46754  11.929   0.602   8.662  2.2539 -1.3562  0.2212
  339MOL0     H46755  11.940   0.466   8.555 -1.6256 -1.2438 -2.0659
  339MOL0     H46756  11.956   0.772   8.513 -0.1931  0.8791 -2.1991
  339MOL0     H46757  11.973   0.672   8.373  1.5216  0.1739  0.1345
  339MOL0     H46758  12.189   0.590   8.431 -0.0782 -1.9281  1.5701
  339MOL0     H46759  12.168   0.629   8.608  1.1744 -0.6240 -0.0111
  339MOL0     H46760  12.175   0.865   8.558 -1.7958 -0.4016 -0.7119
  339MOL0     H46761  12.177   0.825   8.383 -3.2451 -0.4585  1.3148
  339MOL0     H46762  11.400   0.792   8.720  0.4096 -1.2943 -0.3234
  339MOL0     H46763  11.307   1.009   8.744 -0.0879  0.9191 -0.0484
  339MOL0     H46764  10.942   1.233   8.638 -2.1900  0.1583 -2.7333
  339MOL0     H46765  10.786   1.405   8.677 -0.9620  2.0895  3.1589
  339MOL0     H46766   9.436   2.081   9.672 -1.9863 -0.4309  0.2505
  339MOL0     H46767   9.327   2.237   9.808  0.3342 -3.2844 -2.3712
  339MOL0     H46768   9.421   2.587  10.123 -0.3170  1.7031  0.4698
  339MOL0     H46769   9.356   2.770  10.245 -1.6458  0.5898 -3.6245
  339MOL0     H46770   9.315   2.913  10.482 -1.5746  1.9031  0.8440
  339MOL0     H46771   9.203   2.909  10.339  0.4519  0.5500 -0.5451
  339MOL0     H46772   9.026   2.950  10.454  3.2296 -2.6344 -3.6721
  339MOL0     H46773   9.136   3.085  10.469  0.0042  0.0202  1.0001
  339MOL0     H46774   9.068   2.879  10.694  0.6856 -0.9609 -2.4161
  339MOL0     H46775   9.215   2.970  10.699  0.1740 -0.9599  0.5989
  339MOL0     H46776   9.047   3.097  10.846 -3.9847 -1.0721 -0.0897
  339MOL0     H46777   8.936   3.093  10.704  0.6142 -0.6307 -1.2279
  339MOL0     H46778   9.138   3.436  10.625 -2.8244  1.0778 -0.8984
  339MOL0     H46779   9.051   2.529  10.453 -0.2111  0.7298 -0.6359
  339MOL0     H46780   9.096   2.301  10.451  1.0999  2.1458  0.2936
  339MOL0     H46781   8.996   2.300  10.317 -0.0771  0.3100  0.6820
  339MOL0     H46782   9.142   2.202  10.313  0.9805 -0.4606  0.6027
  340MOL0     O46783   6.166   6.296   5.119 -0.7498 -0.5454 -0.3010
  340MOL0     C46784   6.138   6.186   5.073  0.1758  0.4365  0.2983
  340MOL0     O46785   6.204   6.066   5.098 -0.1968 -0.7168  0.0096
  340MOL0     C46786   6.286   6.058   5.209 -0.4594 -0.0362  0.6872
  340MOL0     C46787   6.233   6.074   5.342 -0.4050 -0.5681 -0.8458
  340MOL0     C46788   6.319   6.087   5.453  1.0417  0.6237 -0.2903
  340MOL0     C46789   6.458   6.074   5.441  0.1845  0.2293  0.1527
  340MOL0     O46790   6.542   6.075   5.545  0.2038 -0.1890  0.0106
  340MOL0     C46791   6.576   5.938   5.576 -0.1153  0.0311  0.2325
  340MOL0     C46792   6.689   5.927   5.678 -0.1281 -0.3730  0.3792
  340MOL0     C46793   6.819   5.970   5.616 -0.6140 -1.0400  0.2130
  340MOL0     C46794   6.932   5.949   5.720 -0.6678 -0.5896  0.6200
  340MOL0     C46795   7.064   6.006   5.671  0.1871 -0.3383  0.8383
  340MOL0     C46796   7.169   6.017   5.775  0.8193  0.2009  0.4781
  340MOL0     C46797   7.301   6.067   5.709  0.3124  0.4525  0.3664
  340MOL0     C46798   7.408   6.064   5.819 -1.0804  0.0314 -0.2609
  340MOL0     N46799   7.541   6.115   5.775  0.6399  0.8212 -0.4119
  340MOL0     C46800   7.620   6.096   5.666 -0.1237 -0.4559  0.3628
  340MOL0     C46801   7.732   6.171   5.687  0.4084 -0.2836 -0.2952
  340MOL0     C46802   7.842   6.199   5.592 -0.0998  0.4902 -0.8432
  340MOL0     C46803   7.816   6.197   5.449  0.5243  0.5810  0.5802
  340MOL0     C46804   7.723   6.331   5.401 -1.0382  0.6377 -0.0506
  340MOL0     C46805   7.591   6.367   5.462 -0.4214 -0.1655  0.7443
  340MOL0     O46806   7.524   6.481   5.406 -0.0901 -0.2156 -0.5831
  340MOL0     C46807   7.396   6.513   5.437  1.1738  0.7110 -0.9064
  340MOL0     C46808   7.346   6.614   5.365 -0.3768 -1.4282  0.8955
  340MOL0     C46809   7.222   6.673   5.383  0.2554 -0.1844 -0.1619
  340MOL0     C46810   7.193   6.792   5.291  0.2868  0.0062 -0.1109
  340MOL0     C46811   7.135   6.614   5.483  0.0379  0.3475  0.2319
  340MOL0     C46812   7.007   6.668   5.521  0.4675  0.2734 -0.3012
  340MOL0     O46813   6.960   6.623   5.640  0.7903  0.5455 -0.1444
  340MOL0     C46814   6.865   6.698   5.711 -0.4372  0.2494 -0.0293
  340MOL0     C46815   6.757   6.770   5.656  0.3853  0.5034  0.1017
  340MOL0     C46816   6.660   6.816   5.739  0.0102 -0.1532  0.0589
  340MOL0     C46817   6.666   6.793   5.873  0.7320 -0.9205  0.0025
  340MOL0     O46818   6.555   6.830   5.951  0.5022  0.3870  0.3664
  340MOL0     C46819   6.455   6.736   5.931 -0.8117 -0.4548 -0.2933
  340MOL0     C46820   6.325   6.815   5.944 -0.1859  0.4457  0.4972
  340MOL0     C46821   6.312   6.935   5.839  0.8223  0.6375 -0.0105
  340MOL0     C46822   6.178   7.010   5.879 -0.4334 -0.8305  0.8188
  340MOL0     C46823   6.068   6.963   5.781 -0.5954 -0.8522  0.6078
  340MOL0     C46824   5.946   7.051   5.803  1.0072 -0.7353  0.5846
  340MOL0     C46825   5.831   7.018   5.711  0.7763 -0.1347  0.3238
  340MOL0     C46826   5.725   7.137   5.711 -0.2589 -0.0412 -0.4953
  340MOL0    Cl46827   5.614   7.106   5.580 -0.3949  0.5309  0.7283
  340MOL0     C46828   6.782   6.749   5.930  0.3817 -0.3961  0.4650
  340MOL0     C46829   6.883   6.699   5.852 -0.0432 -0.9718 -0.5557
  340MOL0     O46830   6.943   6.740   5.438 -1.1951  0.3801 -0.0981
  340MOL0     C46831   7.187   6.506   5.555 -0.3136 -0.6122  0.2415
  340MOL0     C46832   7.320   6.458   5.540  0.3014 -0.2076  0.2068
  340MOL0     N46833   7.699   6.255   5.785 -1.4381  0.2438  0.1105
  340MOL0     N46834   7.591   6.220   5.844  0.4362 -0.4669 -0.3677
  340MOL0     C46835   6.513   6.074   5.312  0.2732  0.0451  0.6083
  340MOL0     C46836   6.431   6.059   5.198 -0.0091  0.0245 -0.2463
  340MOL0     C46837   6.021   6.176   4.974 -0.2743 -0.4959 -0.9542
  340MOL0     C46838   6.015   6.067   4.885  0.2096 -0.5905  1.1484
  340MOL0     C46839   5.911   6.052   4.789 -0.4868 -0.0110 -0.1137
  340MOL0     C46840   5.810   6.146   4.778 -0.5030  0.1800 -0.0438
  340MOL0     O46841   5.720   6.135   4.662 -0.2231 -0.4883 -0.2313
  340MOL0     C46842   5.600   6.216   4.647 -0.4368 -0.2516  0.2908
  340MOL0     C46843   5.484   6.133   4.704  0.5094 -0.1295 -0.9808
  340MOL0     C46844   5.361   6.222   4.707  0.0878  0.4873  1.5485
  340MOL0     C46845   5.233   6.167   4.765 -0.0409 -0.7486  0.0263
  340MOL0     C46846   5.103   6.233   4.724  0.0977  0.5460  0.1568
  340MOL0     C46847   4.997   6.288   4.694  0.7713  0.7539 -0.1267
  340MOL0     C46848   5.814   6.252   4.871 -0.1976  0.2861 -0.2625
  340MOL0     C46849   5.920   6.267   4.965  0.4397 -0.0802 -0.1654
  340MOL0     C46850   5.920   6.387   5.050  0.4442 -0.3616  0.2207
  340MOL0     H46851   6.125   6.080   5.346 -0.3385  0.4618 -0.2679
  340MOL0     H46852   6.271   6.104   5.549 -0.6818 -2.8433 -0.3624
  340MOL0     H46853   6.594   5.886   5.481 -0.2913  1.6304 -0.7225
  340MOL0     H46854   6.487   5.891   5.618 -0.3480  0.1811 -0.0881
  340MOL0     H46855   6.668   5.982   5.770 -1.9269  0.4231 -0.4610
  340MOL0     H46856   6.689   5.821   5.706 -1.6201 -0.7804 -1.0237
  340MOL0     H46857   6.838   5.920   5.520 -1.3040 -1.0801  0.0915
  340MOL0     H46858   6.805   6.077   5.596  0.2452 -0.7856  0.9452
  340MOL0     H46859   6.920   5.996   5.818  0.2742 -2.4574  1.6793
  340MOL0     H46860   6.948   5.843   5.742  2.5513 -0.5204 -0.8326
  340MOL0     H46861   7.046   6.110   5.645 -2.9837 -0.5769  1.7256
  340MOL0     H46862   7.105   5.947   5.588 -2.5989  0.6451 -1.3749
  340MOL0     H46863   7.143   6.081   5.860  1.0250 -0.5869  1.1470
  340MOL0     H46864   7.185   5.919   5.822 -0.3753 -0.4654 -0.4570
  340MOL0     H46865   7.289   6.170   5.675  1.3314  0.8148  1.0402
  340MOL0     H46866   7.324   6.006   5.621 -1.6109 -1.3224  1.0229
  340MOL0     H46867   7.369   6.120   5.904 -2.3357  1.3359 -1.6245
  340MOL0     H46868   7.419   5.965   5.864 -5.1648  0.3884  1.9231
  340MOL0     H46869   7.598   6.039   5.576  2.3825  0.5603 -1.0231
  340MOL0     H46870   7.909   6.117   5.619 -2.2811 -2.1747 -2.9942
  340MOL0     H46871   7.898   6.293   5.606 -0.2818  0.3823  0.8205
  340MOL0     H46872   7.907   6.196   5.388 -1.0172 -1.4455 -1.9053
  340MOL0     H46873   7.751   6.111   5.429  1.9627 -0.4997  0.4035
  340MOL0     H46874   7.787   6.418   5.418  2.6586 -1.4038 -1.9277
  340MOL0     H46875   7.700   6.314   5.295  2.5657 -0.7789 -0.7789
  340MOL0     H46876   7.523   6.281   5.452 -0.6733  0.1911 -0.8586
  340MOL0     H46877   7.618   6.399   5.563  0.3779  0.7318  0.2532
  340MOL0     H46878   7.402   6.656   5.282 -0.9690  1.4163  1.8401
  340MOL0     H46879   7.253   6.793   5.200  0.7642  1.4104  0.1773
  340MOL0     H46880   7.203   6.888   5.344 -1.5056  0.6440 -0.8633
  340MOL0     H46881   7.090   6.777   5.259  0.0749 -3.1885  1.6898
  340MOL0     H46882   6.723   6.764   5.553  0.3664 -2.2708  0.1878
  340MOL0     H46883   6.572   6.861   5.695  1.1054 -0.3872 -2.6036
  340MOL0     H46884   6.452   6.696   5.830  0.9543 -3.4177  0.7107
  340MOL0     H46885   6.459   6.656   6.006  1.1991 -2.3749 -2.3149
  340MOL0     H46886   6.251   6.740   5.914 -0.9051  1.5690 -0.6344
  340MOL0     H46887   6.310   6.856   6.045  1.5090  1.6407  0.3002
  340MOL0     H46888   6.317   6.919   5.731  1.5927 -1.2491  0.2708
  340MOL0     H46889   6.395   7.003   5.863  0.0984  1.2622  0.7795
  340MOL0     H46890   6.195   7.117   5.870 -0.0571 -0.9396  0.1648
  340MOL0     H46891   6.142   6.981   5.978 -0.0408 -1.9612  0.6464
  340MOL0     H46892   6.094   6.972   5.676 -1.6676  0.4931  0.4331
  340MOL0     H46893   6.046   6.857   5.798 -0.8718 -1.2289 -1.7856
  340MOL0     H46894   5.973   7.157   5.801 -1.2602 -0.0802  2.0265
  340MOL0     H46895   5.905   7.031   5.902 -0.6728 -2.8776 -0.4417
  340MOL0     H46896   5.784   6.920   5.726  2.2476 -1.4399 -2.6600
  340MOL0     H46897   5.863   7.010   5.607 -0.8494 -1.4074 -0.1214
  340MOL0     H46898   5.771   7.236   5.708 -0.1424 -0.1024 -0.7607
  340MOL0     H46899   5.662   7.139   5.801  0.7530 -3.8554  0.4755
  340MOL0     H46900   6.803   6.749   6.037  1.2270 -2.5392  0.3486
  340MOL0     H46901   6.961   6.648   5.908 -2.3280 -1.1736  2.6830
  340MOL0     H46902   7.132   6.456   5.634 -1.6403 -1.9442 -1.4413
  340MOL0     H46903   7.359   6.384   5.609  0.1668  0.8392  1.4378
  340MOL0     H46904   6.619   6.069   5.289 -0.1093  0.5393 -1.4936
  340MOL0     H46905   6.474   6.041   5.100 -1.0597  0.8699 -0.8756
  340MOL0     H46906   6.101   6.003   4.867 -0.3799 -0.6664 -2.0332
  340MOL0     H46907   5.936   5.982   4.711  1.3765 -0.0351  0.4618
  340MOL0     H46908   5.612   6.309   4.704  0.6238 -1.7032  2.5817
  340MOL0     H46909   5.601   6.240   4.541 -0.9082 -0.0302  0.3369
  340MOL0     H46910   5.508   6.101   4.806 -0.3389  2.7413  0.2069
  340MOL0     H46911   5.477   6.045   4.639  3.6656  0.1652 -1.9192
  340MOL0     H46912   5.376   6.317   4.759  1.8022  0.7017  0.7097
  340MOL0     H46913   5.343   6.249   4.602 -3.4420  0.3772  1.9769
  340MOL0     H46914   5.241   6.152   4.873  1.9699 -0.0270  0.0340
  340MOL0     H46915   5.228   6.066   4.723 -3.3428 -0.2899 -0.8918
  340MOL0     H46916   4.901   6.332   4.677 -0.5961  0.1980  4.7456
  340MOL0     H46917   5.739   6.329   4.858 -0.2093  0.1257 -1.1960
  340MOL0     H46918   5.823   6.435   5.035  0.1275 -0.8939  0.5214
  340MOL0     H46919   5.922   6.367   5.158 -1.8099 -0.4146  0.3016
  340MOL0     H46920   6.005   6.449   5.021 -0.2203  0.4566  0.0080
  341MOL0     O46921   7.451   5.915  10.901 -0.6760  0.0354  0.6065
  341MOL0     C46922   7.341   5.864  10.916  1.1520 -0.7559 -0.0777
  341MOL0     O46923   7.308   5.736  10.882 -0.2397 -0.3317 -0.7690
  341MOL0     C46924   7.398   5.656  10.822 -0.3497 -0.1005 -0.3059
  341MOL0     C46925   7.533   5.643  10.854 -0.2123 -0.3475 -0.0150
  341MOL0     C46926   7.617   5.545  10.798 -0.7321  0.6996  0.3652
  341MOL0     C46927   7.576   5.477  10.680  1.3527  0.5135 -0.0688
  341MOL0     O46928   7.664   5.390  10.614  0.2269  0.0341 -0.6919
  341MOL0     C46929   7.802   5.436  10.579 -0.6206 -0.0310 -0.1124
  341MOL0     C46930   7.819   5.587  10.572 -0.4627 -0.5625 -0.3260
  341MOL0     C46931   7.716   5.661  10.480  0.0344  1.0214 -0.0452
  341MOL0     C46932   7.688   5.588  10.342  0.2733  0.0259 -0.3873
  341MOL0     C46933   7.572   5.654  10.264 -1.1913 -0.5024 -0.9611
  341MOL0     C46934   7.518   5.578  10.137  0.0275 -0.2644 -0.2201
  341MOL0     C46935   7.628   5.556  10.032 -0.3608  0.0818 -0.5609
  341MOL0     C46936   7.582   5.512   9.892  0.2666  0.0940  0.1742
  341MOL0     N46937   7.463   5.428   9.897 -1.3423 -0.3146 -0.5278
  341MOL0     C46938   7.448   5.306   9.964  0.9094 -0.2551  0.1885
  341MOL0     C46939   7.325   5.264   9.939  0.6566  0.2060  0.3480
  341MOL0     C46940   7.264   5.133   9.976  0.0424  0.4359 -0.0899
  341MOL0     C46941   7.112   5.135   9.993 -0.4513 -0.9108  0.0126
  341MOL0     C46942   7.069   4.988  10.010  0.7127 -0.1921 -0.1697
  341MOL0     C46943   6.929   4.970  10.080 -0.1298  0.6659 -0.4863
  341MOL0     O46944   6.930   4.891  10.206  0.2802 -0.0150  0.1771
  341MOL0     C46945   6.822   4.864  10.283 -0.7332 -0.1665  0.2325
  341MOL0     C46946   6.836   4.791  10.398 -0.5305 -0.4105  0.1847
  341MOL0     C46947   6.731   4.765  10.487  0.4540  0.4101 -0.6517
  341MOL0     C46948   6.754   4.691  10.620 -0.3081  0.4400 -0.2276
  341MOL0     C46949   6.599   4.814  10.446  0.0512 -0.0397  0.6749
  341MOL0     C46950   6.472   4.815  10.526  0.1885  0.3449 -0.3638
  341MOL0     O46951   6.354   4.884  10.483 -0.1875  0.1627 -0.3015
  341MOL0     C46952   6.243   4.870  10.560  0.3474 -0.1073 -0.2624
  341MOL0     C46953   6.194   4.970  10.641  0.1953 -0.1176  0.0616
  341MOL0     C46954   6.086   4.958  10.723 -0.2329  0.1723  0.2091
  341MOL0     C46955   6.025   4.834  10.735  0.5281  0.3143 -0.4482
  341MOL0     O46956   5.922   4.836  10.822  0.3786  0.3977  0.1680
  341MOL0     C46957   5.835   4.716  10.831 -0.4572  0.1777 -0.7622
  341MOL0     C46958   5.796   4.710  10.972  0.2212  0.2222 -0.7454
  341MOL0     C46959   5.672   4.800  10.994  0.3086  0.5344 -0.3725
  341MOL0     C46960   5.649   4.827  11.136  0.3566  0.6871 -0.1750
  341MOL0     C46961   5.518   4.914  11.157 -0.1292 -0.0651 -0.7746
  341MOL0     C46962   5.482   4.948  11.303  0.9736 -0.2338 -0.2690
  341MOL0     C46963   5.438   4.840  11.408  0.6090 -0.6217 -0.1255
  341MOL0     C46964   5.287   4.807  11.356 -0.2579  0.6741  0.0208
  341MOL0    Cl46965   5.292   4.671  11.228  0.3183  0.2693 -0.0842
  341MOL0     C46966   6.072   4.728  10.652 -0.6657 -0.7393  0.5020
  341MOL0     C46967   6.172   4.747  10.557 -0.5975  0.2493  0.3723
  341MOL0     O46968   6.480   4.755  10.639 -0.9869 -0.3141 -0.3787
  341MOL0     C46969   6.590   4.883  10.320  0.3809 -1.0118  0.1479
  341MOL0     C46970   6.699   4.904  10.241  0.2043 -0.3138 -0.0453
  341MOL0     N46971   7.262   5.361   9.861 -0.5663  0.4301  0.4166
  341MOL0     N46972   7.347   5.463   9.847 -0.0230 -0.0055  1.1085
  341MOL0     C46973   7.438   5.491  10.649 -0.1020  0.2044 -0.5506
  341MOL0     C46974   7.350   5.575  10.714  0.0918 -0.6075 -0.6445
  341MOL0     C46975   7.245   5.945  11.000 -0.4516  0.6935  0.3870
  341MOL0     C46976   7.148   5.864  11.065 -0.2570 -0.5903 -0.5083
  341MOL0     C46977   7.059   5.915  11.155 -0.2395 -0.5840 -0.8976
  341MOL0     C46978   7.053   6.063  11.171 -0.6018 -0.3401  0.2389
  341MOL0     O46979   6.955   6.124  11.236  0.6476  0.0502  0.2317
  341MOL0     C46980   6.828   6.114  11.167 -0.4233  0.0994  0.4640
  341MOL0     C46981   6.822   6.162  11.025  0.3405 -0.5962  0.3019
  341MOL0     C46982   6.762   6.303  11.011  0.4393 -0.7324 -0.6713
  341MOL0     C46983   6.854   6.419  11.051 -0.0289 -0.1200  0.1870
  341MOL0     C46984   6.868   6.433  11.191  0.2418 -0.1128 -0.6881
  341MOL0     C46985   6.881   6.442  11.315  0.9881 -0.1724 -0.3351
  341MOL0     C46986   7.150   6.142  11.116 -0.8399 -1.0245  0.3794
  341MOL0     C46987   7.241   6.085  11.027  0.2378  0.2345 -0.0483
  341MOL0     C46988   7.317   6.187  10.943 -0.0157  0.8461  1.1244
  341MOL0     H46989   7.569   5.699  10.939  1.0764 -0.0020 -0.7517
  341MOL0     H46990   7.714   5.528  10.845 -0.4703 -0.5336 -0.5957
  341MOL0     H46991   7.823   5.392  10.481 -4.1370 -1.8066 -0.2069
  341MOL0     H46992   7.884   5.391  10.636 -1.0474  0.9985  1.3718
  341MOL0     H46993   7.820   5.628  10.673 -0.4024  5.2693 -2.3466
  341MOL0     H46994   7.914   5.614  10.525  0.0582 -1.1995  0.3366
  341MOL0     H46995   7.621   5.686  10.528  1.9194  3.5619  2.6973
  341MOL0     H46996   7.766   5.758  10.472  2.2016  0.2452  2.5202
  341MOL0     H46997   7.781   5.584  10.285 -0.2930  1.4823 -1.4836
  341MOL0     H46998   7.657   5.483  10.346  1.6474 -0.3610  1.1178
  341MOL0     H46999   7.611   5.750  10.229 -0.9322 -0.9822 -2.0264
  341MOL0     H47000   7.478   5.669  10.318 -0.9793 -2.0590 -0.1114
  341MOL0     H47001   7.477   5.482  10.172  0.9195 -0.5313  0.1347
  341MOL0     H47002   7.435   5.638  10.101  0.6702 -0.2927 -1.8032
  341MOL0     H47003   7.704   5.486  10.067 -0.0455  0.1941 -1.0133
  341MOL0     H47004   7.681   5.649  10.008 -2.6425  1.0693 -2.1224
  341MOL0     H47005   7.558   5.601   9.833 -0.9839  0.5721  1.3414
  341MOL0     H47006   7.657   5.461   9.831  0.5606 -2.2895  2.3385
  341MOL0     H47007   7.533   5.267  10.020  1.4613  0.4923 -0.1154
  341MOL0     H47008   7.323   5.084  10.053  2.1956 -2.2872 -3.1866
  341MOL0     H47009   7.275   5.064   9.892  1.6784  0.8402 -0.2486
  341MOL0     H47010   7.107   5.194  10.085  2.0976 -0.4984 -0.0302
  341MOL0     H47011   7.063   5.189   9.912 -0.3813 -0.2838  0.3792
  341MOL0     H47012   7.066   4.950   9.908  0.1917 -0.9394  0.1129
  341MOL0     H47013   7.137   4.920  10.061 -0.0622 -2.1437 -1.6204
  341MOL0     H47014   6.881   5.067  10.099 -1.5997  0.2434 -1.7715
  341MOL0     H47015   6.867   4.909  10.013  0.0022 -0.7787  0.6591
  341MOL0     H47016   6.927   4.746  10.436  0.1593  2.9685  3.1467
  341MOL0     H47017   6.856   4.653  10.633 -0.3278  0.2564 -0.5978
  341MOL0     H47018   6.701   4.596  10.624  0.5678 -0.0461  0.3709
  341MOL0     H47019   6.725   4.748  10.709  0.1201 -2.7041  2.1025
  341MOL0     H47020   6.245   5.066  10.641 -1.0544  0.5825 -0.6119
  341MOL0     H47021   6.067   5.042  10.788 -1.8220  1.5830 -1.9337
  341MOL0     H47022   5.746   4.709  10.767 -0.1329  1.1346 -1.3450
  341MOL0     H47023   5.898   4.631  10.804  1.1516  1.1133 -0.0772
  341MOL0     H47024   5.766   4.606  10.986 -1.8086  0.7369 -0.9014
  341MOL0     H47025   5.874   4.738  11.043 -2.5618  3.1478  1.4889
  341MOL0     H47026   5.586   4.747  10.952  0.1770  0.2445  0.2385
  341MOL0     H47027   5.684   4.893  10.939  3.3778  0.5261  0.0957
  341MOL0     H47028   5.729   4.881  11.186 -0.6162  0.0962  2.1588
  341MOL0     H47029   5.641   4.730  11.186  1.2769 -0.3009 -1.8788
  341MOL0     H47030   5.518   5.003  11.094 -1.8523  1.6957  1.5536
  341MOL0     H47031   5.431   4.866  11.112 -0.0931 -0.2632 -0.6374
  341MOL0     H47032   5.414   5.034  11.310 -1.6137 -2.2655  1.3750
  341MOL0     H47033   5.579   4.972  11.347  1.0948 -1.2794  0.0645
  341MOL0     H47034   5.451   4.891  11.504 -1.6478 -0.6915  0.2783
  341MOL0     H47035   5.504   4.753  11.407  2.5835  0.6752  2.6886
  341MOL0     H47036   5.230   4.896  11.327 -0.9840  0.1369 -0.2562
  341MOL0     H47037   5.239   4.767  11.446 -1.8066  0.2555 -0.9398
  341MOL0     H47038   6.039   4.625  10.649  1.9436 -1.8352 -5.4090
  341MOL0     H47039   6.213   4.669  10.494  4.4650  1.4749  1.7048
  341MOL0     H47040   6.486   4.910  10.301 -1.1203 -4.4884  2.2430
  341MOL0     H47041   6.688   4.975  10.159  1.2076 -3.0328 -2.7473
  341MOL0     H47042   7.417   5.462  10.546 -0.0961  0.8489 -0.7371
  341MOL0     H47043   7.248   5.570  10.677  0.5653 -2.4191 -1.8586
  341MOL0     H47044   7.129   5.761  11.034  0.7131  0.0996 -3.7666
  341MOL0     H47045   6.982   5.853  11.199 -0.3193  1.2381  1.7766
  341MOL0     H47046   6.806   6.007  11.167  2.8288 -0.9000 -4.2454
  341MOL0     H47047   6.758   6.170  11.229 -1.6648 -0.1134 -0.7108
  341MOL0     H47048   6.747   6.094  10.984 -2.7810  1.1170  2.7771
  341MOL0     H47049   6.917   6.150  10.972 -1.0937  1.1128 -3.0167
  341MOL0     H47050   6.727   6.315  10.908  2.7065 -2.2092 -1.7166
  341MOL0     H47051   6.674   6.314  11.074  2.0658  1.0222  1.4674
  341MOL0     H47052   6.816   6.511  11.007  1.3331 -0.5549 -2.0381
  341MOL0     H47053   6.955   6.406  11.012  0.7554  3.4371  0.7354
  341MOL0     H47054   6.908   6.453  11.418  3.7588 -0.0203 -1.0157
  341MOL0     H47055   7.148   6.247  11.145 -0.0417 -0.2423 -2.1666
  341MOL0     H47056   7.399   6.142  10.887 -2.6972 -2.0001 -0.8789
  341MOL0     H47057   7.246   6.237  10.877  0.7709 -0.1405 -0.5295
  341MOL0     H47058   7.360   6.264  11.008 -0.6953  2.5361 -0.3390
  342MOL0     O47059   8.434   9.074   1.629 -0.1096 -0.2503 -0.6818
  342MOL0     C47060   8.432   8.951   1.605  0.2242 -0.0776  0.9110
  342MOL0     O47061   8.326   8.869   1.625 -0.8549 -0.1371 -0.0867
  342MOL0     C47062   8.211   8.919   1.671  0.6721  0.5896 -0.4765
  342MOL0     C47063   8.107   8.928   1.583  0.4404 -0.1746  0.0223
  342MOL0     C47064   7.982   8.985   1.617 -0.3162 -0.1704 -0.2201
  342MOL0     C47065   7.962   9.028   1.751  0.1087  0.5943 -0.9150
  342MOL0     O47066   7.842   9.083   1.802  0.2096 -1.0097  0.0272
  342MOL0     C47067   7.732   9.070   1.710 -0.4289 -0.6340  0.1384
  342MOL0     C47068   7.604   9.098   1.772  0.3266 -0.0923  0.3048
  342MOL0     C47069   7.581   9.252   1.780 -0.4074 -0.7595  0.2515
  342MOL0     C47070   7.437   9.282   1.817 -0.1830  1.1209  0.3353
  342MOL0     C47071   7.413   9.424   1.865  0.2010 -0.9281 -1.0608
  342MOL0     C47072   7.427   9.434   2.019  0.1699  0.5135 -1.0869
  342MOL0     C47073   7.320   9.379   2.106  0.2824  0.4399  0.6606
  342MOL0     C47074   7.345   9.374   2.251 -0.5152  0.0585  0.5527
  342MOL0     N47075   7.221   9.340   2.327 -0.4560  0.2435  0.4566
  342MOL0     C47076   7.176   9.400   2.445 -0.7472  0.5237  1.3449
  342MOL0     C47077   7.071   9.319   2.489 -0.6709  0.2748  0.2849
  342MOL0     C47078   6.972   9.354   2.597 -0.3629 -0.4691  0.4603
  342MOL0     C47079   6.963   9.241   2.700  0.7173  0.0004  0.2827
  342MOL0     C47080   7.092   9.171   2.769 -0.3148 -0.6232 -0.3736
  342MOL0     C47081   7.132   9.254   2.897  0.8433 -0.3040  0.2468
  342MOL0     O47082   7.161   9.392   2.882 -0.0875 -0.2002 -0.6965
  342MOL0     C47083   7.261   9.441   2.813 -0.4682 -0.4723 -0.2153
  342MOL0     C47084   7.368   9.367   2.758  0.7643 -1.0699  0.0566
  342MOL0     C47085   7.464   9.431   2.668  0.2218  0.1047 -0.6227
  342MOL0     C47086   7.574   9.341   2.612  1.1133  0.1837 -0.3345
  342MOL0     C47087   7.453   9.572   2.645 -1.0929 -0.2655  1.0190
  342MOL0     C47088   7.546   9.643   2.560 -0.1563  0.6680 -0.6827
  342MOL0     O47089   7.499   9.654   2.438 -0.1479  0.7170  0.1041
  342MOL0     C47090   7.583   9.724   2.356  0.2951  0.1731 -0.1853
  342MOL0     C47091   7.620   9.854   2.380 -0.3072  0.8095  0.2071
  342MOL0     C47092   7.708   9.920   2.294 -0.1048  0.0109  0.2758
  342MOL0     C47093   7.769   9.858   2.182  0.0205 -1.2724 -0.1468
  342MOL0     O47094   7.868   9.930   2.121 -0.8081 -0.0178  0.0325
  342MOL0     C47095   7.881   9.905   1.977 -0.3736  0.0195 -0.0592
  342MOL0     C47096   8.008   9.822   1.953 -0.9814  0.2822  0.3406
  342MOL0     C47097   8.015   9.742   1.821 -0.1556 -0.8844 -0.2378
  342MOL0     C47098   8.104   9.620   1.844  0.0194 -0.3357 -0.1312
  342MOL0     C47099   8.089   9.500   1.742  0.1934  0.0624 -0.2760
  342MOL0     C47100   8.162   9.373   1.780 -0.5270 -0.5501  0.3482
  342MOL0     C47101   8.310   9.394   1.781  0.4954 -0.1629  0.1642
  342MOL0     C47102   8.379   9.275   1.846 -0.4699 -0.0205  0.1444
  342MOL0    Cl47103   8.377   9.306   2.028 -0.1708  0.4534  0.2780
  342MOL0     C47104   7.727   9.726   2.160 -0.1913  0.0845  0.3576
  342MOL0     C47105   7.631   9.666   2.246 -0.3870 -0.3506  0.2269
  342MOL0     O47106   7.651   9.684   2.607  0.6370 -0.2772  0.5709
  342MOL0     C47107   7.341   9.637   2.696  1.1335 -0.1033 -0.3306
  342MOL0     C47108   7.248   9.572   2.771 -0.0017 -0.8932  0.3815
  342MOL0     N47109   7.057   9.228   2.383 -0.1105  0.1529  0.6222
  342MOL0     N47110   7.146   9.237   2.298 -0.6639  0.0596  0.0235
  342MOL0     C47111   8.074   9.026   1.838  0.2582  0.4264 -0.5724
  342MOL0     C47112   8.189   8.959   1.804  0.4424  0.6954  1.0080
  342MOL0     C47113   8.551   8.890   1.529 -0.0203 -0.8758 -0.8206
  342MOL0     C47114   8.672   8.967   1.533 -0.4667 -0.0682 -0.2847
  342MOL0     C47115   8.781   8.921   1.465 -0.2696  0.3481  0.3488
  342MOL0     C47116   8.778   8.794   1.396  0.4346 -0.5520  0.0999
  342MOL0     O47117   8.891   8.740   1.338  0.4320  0.3972  0.5121
  342MOL0     C47118   9.018   8.814   1.320  0.6397  0.3955 -0.2113
  342MOL0     C47119   9.021   8.922   1.209 -0.1246 -0.3474  0.3663
  342MOL0     C47120   9.157   8.990   1.189  0.1070  0.6803  0.2241
  342MOL0     C47121   9.236   8.926   1.066 -0.0552  0.7355 -0.3048
  342MOL0     C47122   9.286   8.794   1.110 -0.2186 -0.8308 -0.5980
  342MOL0     C47123   9.312   8.683   1.152 -0.7915 -0.0342 -0.6775
  342MOL0     C47124   8.663   8.722   1.397  0.0754  0.0819  0.3768
  342MOL0     C47125   8.547   8.768   1.457  0.1270  0.2787 -0.0573
  342MOL0     C47126   8.425   8.685   1.418  0.0037 -0.7391 -0.3520
  342MOL0     H47127   8.121   8.887   1.483 -0.7918  0.4931 -0.4463
  342MOL0     H47128   7.903   8.994   1.543  0.7168 -0.9693 -1.4528
  342MOL0     H47129   7.729   8.968   1.671 -1.2226  0.0680 -1.7686
  342MOL0     H47130   7.755   9.131   1.622  1.5287 -2.1534 -0.4906
  342MOL0     H47131   7.522   9.053   1.716  0.0302 -0.0130  0.6722
  342MOL0     H47132   7.601   9.046   1.868 -0.7842 -1.2407 -0.3240
  342MOL0     H47133   7.636   9.276   1.872  1.0643 -0.7935 -0.5966
  342MOL0     H47134   7.622   9.304   1.693  0.8342 -0.3183  1.0677
  342MOL0     H47135   7.383   9.273   1.722 -2.5106  3.9234  1.2360
  342MOL0     H47136   7.401   9.204   1.885  0.1594  0.7339  0.0747
  342MOL0     H47137   7.311   9.447   1.834  0.0417 -0.2917 -0.0739
  342MOL0     H47138   7.472   9.498   1.808 -0.9610  2.5442  1.8683
  342MOL0     H47139   7.528   9.399   2.041  0.6382  1.2630 -1.9566
  342MOL0     H47140   7.427   9.540   2.048 -1.0885  0.1724  0.2807
  342MOL0     H47141   7.311   9.274   2.077 -0.6648  0.2816  1.4522
  342MOL0     H47142   7.227   9.435   2.093  1.8519  2.7872 -1.4127
  342MOL0     H47143   7.417   9.292   2.262 -0.7523 -0.2878 -0.3635
  342MOL0     H47144   7.385   9.471   2.280 -0.2665  1.3096 -3.4743
  342MOL0     H47145   7.198   9.502   2.476  2.0442  1.4708 -2.8732
  342MOL0     H47146   6.870   9.358   2.557  0.4418 -0.1388 -1.6377
  342MOL0     H47147   7.006   9.452   2.633  1.4475  0.0105 -2.2779
  342MOL0     H47148   6.887   9.275   2.772 -0.8117 -1.1179 -0.7249
  342MOL0     H47149   6.915   9.158   2.645  1.2121  0.4005 -0.7827
  342MOL0     H47150   7.075   9.071   2.810  1.6887  0.1225  2.6329
  342MOL0     H47151   7.184   9.174   2.709  1.4594  3.6332  2.0420
  342MOL0     H47152   7.042   9.255   2.959 -1.3141  0.2096 -2.7056
  342MOL0     H47153   7.207   9.195   2.951 -1.0589 -4.7943 -1.5545
  342MOL0     H47154   7.375   9.261   2.776 -0.1540 -1.6450 -2.6235
  342MOL0     H47155   7.633   9.292   2.690 -1.9056 -1.0335  1.3442
  342MOL0     H47156   7.638   9.402   2.548 -1.0934  1.9553 -0.9906
  342MOL0     H47157   7.520   9.268   2.552 -4.1854  0.0117  3.8780
  342MOL0     H47158   7.578   9.911   2.462  2.5285  2.5998  0.5680
  342MOL0     H47159   7.729  10.024   2.318 -1.4234 -0.1903  2.6483
  342MOL0     H47160   7.794   9.851   1.937 -0.4208 -0.4485  0.6574
  342MOL0     H47161   7.880  10.005   1.932 -0.4166 -1.0745 -2.6815
  342MOL0     H47162   8.092   9.891   1.946 -0.9313  0.1396 -0.5309
  342MOL0     H47163   8.025   9.754   2.037  1.2328  2.1804  1.5440
  342MOL0     H47164   8.066   9.792   1.738  4.3697 -0.7169  2.3055
  342MOL0     H47165   7.914   9.706   1.801 -0.5291 -0.3710  0.6665
  342MOL0     H47166   8.076   9.576   1.940  0.6627  0.2224  0.3249
  342MOL0     H47167   8.210   9.645   1.847  0.8023 -2.6497 -3.1921
  342MOL0     H47168   7.987   9.462   1.729  0.9060 -1.3504 -2.1967
  342MOL0     H47169   8.129   9.526   1.644 -1.4172  1.0006 -0.7408
  342MOL0     H47170   8.129   9.290   1.717  0.3588 -0.9768  0.4331
  342MOL0     H47171   8.133   9.344   1.881  0.4431  0.7779  1.0374
  342MOL0     H47172   8.342   9.477   1.844 -1.4153  0.2728  0.6116
  342MOL0     H47173   8.353   9.413   1.682  3.7977 -0.6820  1.3634
  342MOL0     H47174   8.483   9.265   1.811 -0.5661 -0.3654 -0.0470
  342MOL0     H47175   8.321   9.183   1.837 -1.3705  0.4731  0.7725
  342MOL0     H47176   7.781   9.672   2.083  1.1069  1.3302  0.3551
  342MOL0     H47177   7.596   9.565   2.226 -2.5604  0.3425  0.2417
  342MOL0     H47178   7.306   9.739   2.682  2.4862 -0.0114 -4.7229
  342MOL0     H47179   7.161   9.633   2.793  1.0725  0.5343  0.7987
  342MOL0     H47180   8.076   9.058   1.942 -1.8397  1.8694 -0.9161
  342MOL0     H47181   8.272   8.947   1.873  0.1721 -0.4206  1.1571
  342MOL0     H47182   8.663   9.065   1.578  1.6739 -0.5299  1.2947
  342MOL0     H47183   8.871   8.982   1.466 -1.3830  2.0829  1.5616
  342MOL0     H47184   9.041   8.850   1.421 -1.0129 -1.1143  0.7643
  342MOL0     H47185   9.102   8.744   1.315  1.1103  0.8910  0.5253
  342MOL0     H47186   8.951   8.998   1.246 -2.9300 -3.3655  1.7009
  342MOL0     H47187   8.985   8.885   1.113 -0.2776  0.7419 -0.0086
  342MOL0     H47188   9.128   9.091   1.158 -0.0726  0.0822 -1.6426
  342MOL0     H47189   9.215   8.994   1.282 -2.1875 -1.7232  1.9128
  342MOL0     H47190   9.322   8.982   1.029  1.2708 -1.5831 -0.9083
  342MOL0     H47191   9.175   8.917   0.976  2.2778 -1.2048 -1.8041
  342MOL0     H47192   9.346   8.598   1.208  0.7758  2.1853  2.0099
  342MOL0     H47193   8.669   8.630   1.340 -0.4144 -1.0266  2.0511
  342MOL0     H47194   8.355   8.750   1.366  1.1526  0.7215 -0.1457
  342MOL0     H47195   8.445   8.602   1.349  1.7678 -2.7366  2.3254
  342MOL0     H47196   8.379   8.639   1.506 -4.5779 -0.2642 -2.2594
  343MOL0     O47197   8.273   5.726   0.811  0.1154  0.0930 -0.3202
  343MOL0     C47198   8.304   5.704   0.697  0.1547 -0.6714 -0.9801
  343MOL0     O47199   8.309   5.578   0.644 -0.6853 -0.5129  0.1317
  343MOL0     C47200   8.321   5.466   0.727 -0.5834 -0.3417 -1.1982
  343MOL0     C47201   8.229   5.368   0.751 -0.0631  0.5654 -0.6290
  343MOL0     C47202   8.258   5.255   0.827  0.3078 -0.3550 -0.1550
  343MOL0     C47203   8.387   5.260   0.895 -0.0401  0.3888  0.3047
  343MOL0     O47204   8.409   5.172   1.001 -0.2379 -0.4473  0.9916
  343MOL0     C47205   8.338   5.048   0.985  0.4342  0.1107  1.0115
  343MOL0     C47206   8.393   4.944   1.082  0.1984  0.5259 -0.7265
  343MOL0     C47207   8.302   4.823   1.080 -0.0167  0.2584 -0.3899
  343MOL0     C47208   8.364   4.720   1.181 -0.9910  0.1852 -0.1964
  343MOL0     C47209   8.304   4.760   1.322  0.4977 -0.4136 -1.1191
  343MOL0     C47210   8.377   4.713   1.449  0.1242 -0.6709 -0.1791
  343MOL0     C47211   8.519   4.779   1.456 -0.3619 -0.6617  0.3123
  343MOL0     C47212   8.588   4.739   1.588  0.3449 -0.3110 -0.0999
  343MOL0     N47213   8.626   4.591   1.589  0.3461 -0.1510  0.1801
  343MOL0     C47214   8.664   4.516   1.476 -0.3069 -0.7243 -0.3137
  343MOL0     C47215   8.692   4.391   1.528  0.4258 -1.0361 -0.6252
  343MOL0     C47216   8.722   4.274   1.443 -0.3945 -0.7266  0.2811
  343MOL0     C47217   8.604   4.176   1.441 -1.1620 -0.4783 -0.8939
  343MOL0     C47218   8.666   4.051   1.387  0.3624 -0.4384 -0.2762
  343MOL0     C47219   8.594   3.912   1.422 -0.0319 -0.5300 -0.5242
  343MOL0     O47220   8.667   3.826   1.338 -0.5951  0.1261  0.3938
  343MOL0     C47221   8.788   3.792   1.382 -1.5542  0.1826  0.5080
  343MOL0     C47222   8.900   3.803   1.305 -0.1896  0.2510 -0.0045
  343MOL0     C47223   9.026   3.749   1.330 -0.9566  0.0709  0.6512
  343MOL0     C47224   9.134   3.796   1.230  0.1194 -0.2312  0.2548
  343MOL0     C47225   9.041   3.672   1.455 -0.1581 -1.1114  0.6010
  343MOL0     C47226   9.163   3.600   1.496  1.0406 -0.2501 -0.2973
  343MOL0     O47227   9.158   3.524   1.613  0.4653  0.2557  0.0493
  343MOL0     C47228   9.270   3.470   1.666 -0.3279  0.2785  0.3965
  343MOL0     C47229   9.386   3.546   1.693 -1.1349 -0.7110 -0.1184
  343MOL0     C47230   9.499   3.495   1.767 -0.0142  0.7292  0.7017
  343MOL0     C47231   9.497   3.362   1.818 -1.3443  0.4235  0.0711
  343MOL0     O47232   9.591   3.297   1.892  0.6694  0.0335 -0.1035
  343MOL0     C47233   9.616   3.350   2.026 -1.2351 -0.6824 -0.1392
  343MOL0     C47234   9.750   3.301   2.072  0.7224  0.5603 -0.8710
  343MOL0     C47235   9.800   3.387   2.191  0.3148 -0.9251 -0.3518
  343MOL0     C47236   9.907   3.499   2.164 -0.2532 -0.2902 -0.5558
  343MOL0     C47237   9.952   3.571   2.288  1.1185  1.0070 -0.3619
  343MOL0     C47238  10.049   3.492   2.378  0.4104 -0.2436 -0.7504
  343MOL0     C47239  10.076   3.570   2.514 -0.5181  0.6294  0.7073
  343MOL0     C47240  10.203   3.660   2.494  0.2138  0.5477  0.6442
  343MOL0    Cl47241  10.216   3.792   2.601  0.2602  0.5660  0.6116
  343MOL0     C47242   9.386   3.291   1.788  0.0910  1.1839  0.0905
  343MOL0     C47243   9.270   3.346   1.721 -0.4077 -0.1488  0.3964
  343MOL0     O47244   9.255   3.605   1.423  0.3170 -0.1169 -0.4833
  343MOL0     C47245   8.929   3.668   1.547 -1.2880  0.0782  0.6673
  343MOL0     C47246   8.808   3.720   1.502 -1.0669 -0.0642 -0.0085
  343MOL0     N47247   8.671   4.401   1.675  0.0392 -0.4581  0.4510
  343MOL0     N47248   8.630   4.520   1.704 -0.3756 -0.4278  0.7228
  343MOL0     C47249   8.477   5.363   0.878  0.9549 -0.6164 -0.2493
  343MOL0     C47250   8.451   5.468   0.786  0.6807  0.0287 -0.5880
  343MOL0     C47251   8.313   5.821   0.603  0.3381 -0.5299  0.8901
  343MOL0     C47252   8.314   5.799   0.466 -0.4375  0.4595 -0.4289
  343MOL0     C47253   8.327   5.893   0.375  0.4046 -0.2083 -0.0277
  343MOL0     C47254   8.329   6.029   0.406 -1.2836 -0.6139  0.1933
  343MOL0     O47255   8.347   6.129   0.306 -0.4808  0.7245 -0.6401
  343MOL0     C47256   8.233   6.216   0.299  0.2629  0.1402  0.0651
  343MOL0     C47257   8.130   6.170   0.201 -0.2334  0.6878  0.5273
  343MOL0     C47258   8.011   6.258   0.203 -0.8988  0.9154  0.0141
  343MOL0     C47259   7.913   6.207   0.098 -0.8148 -0.2698 -0.1936
  343MOL0     C47260   7.780   6.239   0.137 -0.4435  0.7302  0.2184
  343MOL0     C47261   7.665   6.241   0.159  0.9244 -0.2689 -0.2873
  343MOL0     C47262   8.330   6.057   0.544  0.7143 -0.1827  0.6399
  343MOL0     C47263   8.306   5.961   0.642 -0.4027  0.2409 -0.4234
  343MOL0     C47264   8.293   6.011   0.778 -0.6091  0.3289 -0.9696
  343MOL0     H47265   8.131   5.376   0.705  0.4245  0.1640 -1.7785
  343MOL0     H47266   8.180   5.180   0.835 -0.2175  0.1972 -0.0062
  343MOL0     H47267   8.361   5.003   0.889 -1.7364 -1.9425  1.3879
  343MOL0     H47268   8.230   5.055   0.995  0.2273 -0.0807 -0.7848
  343MOL0     H47269   8.499   4.922   1.067 -0.1028 -1.1288 -0.6495
  343MOL0     H47270   8.381   4.984   1.183 -1.5284  2.1098 -1.4938
  343MOL0     H47271   8.199   4.831   1.116  1.2442  0.0913  3.8100
  343MOL0     H47272   8.298   4.789   0.976  2.6088  1.7687 -1.0752
  343MOL0     H47273   8.329   4.618   1.162  1.8064 -0.6422 -1.3855
  343MOL0     H47274   8.473   4.714   1.179 -0.9503  1.0273 -1.5241
  343MOL0     H47275   8.201   4.724   1.320  0.5672 -1.0064  1.6416
  343MOL0     H47276   8.290   4.867   1.342  0.8744 -0.4885 -0.3888
  343MOL0     H47277   8.312   4.725   1.536 -0.7286  0.7438 -0.9742
  343MOL0     H47278   8.394   4.606   1.437 -0.6132 -0.9632  1.1741
  343MOL0     H47279   8.508   4.887   1.470  1.2341 -0.3317 -0.7783
  343MOL0     H47280   8.586   4.755   1.373 -0.0537  0.2720  0.2739
  343MOL0     H47281   8.684   4.788   1.605 -0.0244 -0.4423  2.8834
  343MOL0     H47282   8.531   4.762   1.679  1.4667 -0.9592  0.7902
  343MOL0     H47283   8.664   4.544   1.371 -0.9654  2.4382  0.4122
  343MOL0     H47284   8.818   4.239   1.482 -0.8527 -0.1359  2.0572
  343MOL0     H47285   8.736   4.318   1.343  0.8496 -0.8979  0.3568
  343MOL0     H47286   8.561   4.154   1.540 -0.0698 -3.9724 -1.0412
  343MOL0     H47287   8.519   4.217   1.386 -2.6389 -1.4414  0.5365
  343MOL0     H47288   8.667   4.058   1.277 -2.5715 -1.7756 -0.4975
  343MOL0     H47289   8.763   4.040   1.435  0.1180  2.0928  0.9543
  343MOL0     H47290   8.603   3.878   1.526  0.6299 -1.4633 -0.8668
  343MOL0     H47291   8.490   3.903   1.389  0.0065  1.2983 -1.2632
  343MOL0     H47292   8.889   3.879   1.228 -0.7473 -2.0682 -2.4065
  343MOL0     H47293   9.125   3.731   1.143 -4.9740  1.2424 -0.6757
  343MOL0     H47294   9.234   3.815   1.271 -0.4612  2.4817  0.6369
  343MOL0     H47295   9.103   3.897   1.199 -0.6215  0.0873  1.8993
  343MOL0     H47296   9.393   3.652   1.671  1.1579 -1.3411 -3.0905
  343MOL0     H47297   9.589   3.554   1.781 -2.1069  3.6432  3.1200
  343MOL0     H47298   9.626   3.458   2.021  2.2955 -0.9288 -1.4001
  343MOL0     H47299   9.538   3.319   2.096 -1.9140  0.0501 -0.5643
  343MOL0     H47300   9.724   3.207   2.120 -0.2457  0.5349 -1.4163
  343MOL0     H47301   9.827   3.283   1.997  2.1750  1.1905  0.4117
  343MOL0     H47302   9.841   3.329   2.275 -2.0893  0.1252  1.6583
  343MOL0     H47303   9.708   3.427   2.234  0.7738 -1.7136  1.4372
  343MOL0     H47304   9.865   3.563   2.086 -1.9581 -1.1475 -0.3852
  343MOL0     H47305   9.998   3.448   2.130  0.0419  0.5260 -1.0178
  343MOL0     H47306   9.982   3.668   2.246 -0.1614  0.1487 -3.6036
  343MOL0     H47307   9.860   3.584   2.346 -0.0953 -3.1406 -1.0229
  343MOL0     H47308  10.140   3.477   2.320  1.8998  1.6742  0.9176
  343MOL0     H47309   9.992   3.400   2.395 -1.4174  0.3242 -3.2535
  343MOL0     H47310  10.099   3.510   2.602  3.1718 -0.3640 -0.7573
  343MOL0     H47311   9.985   3.626   2.540 -0.6798 -0.7087  3.3338
  343MOL0     H47312  10.202   3.700   2.392 -1.2257 -0.2029  0.3390
  343MOL0     H47313  10.291   3.596   2.506  1.8400  1.9249 -2.6418
  343MOL0     H47314   9.378   3.184   1.807 -1.5603  1.0394 -1.2410
  343MOL0     H47315   9.188   3.275   1.714 -0.5550 -0.3361  3.0223
  343MOL0     H47316   8.933   3.609   1.638 -3.3162  1.3252  1.6683
  343MOL0     H47317   8.723   3.688   1.561 -2.6843  0.5145 -1.9213
  343MOL0     H47318   8.569   5.371   0.934  0.2003  0.3845  0.9117
  343MOL0     H47319   8.532   5.537   0.766  0.4334 -0.0564 -1.9927
  343MOL0     H47320   8.317   5.697   0.430  2.8296  1.1638 -2.6392
  343MOL0     H47321   8.333   5.864   0.271 -0.7368  0.2114 -0.2189
  343MOL0     H47322   8.181   6.226   0.395 -3.0211  0.2718 -1.5591
  343MOL0     H47323   8.269   6.315   0.269  0.0599 -0.3613 -2.0227
  343MOL0     H47324   8.089   6.073   0.232 -0.1728 -0.7047 -3.2875
  343MOL0     H47325   8.179   6.166   0.104  0.6382  1.0210  0.9457
  343MOL0     H47326   7.973   6.266   0.305  0.2970  4.8871  0.3431
  343MOL0     H47327   8.043   6.360   0.176 -0.9080  0.5646 -1.4450
  343MOL0     H47328   7.922   6.103   0.066 -1.9015  0.4127 -3.1110
  343MOL0     H47329   7.932   6.271   0.011  2.0232  1.5243  1.5694
  343MOL0     H47330   7.559   6.245   0.176  0.7212  0.5225 -1.5835
  343MOL0     H47331   8.328   6.159   0.582 -0.6333  0.5512 -1.2258
  343MOL0     H47332   8.372   5.975   0.845  0.6562  3.1623 -0.7994
  343MOL0     H47333   8.300   6.120   0.787  1.6271  0.1278  0.4260
  343MOL0     H47334   8.190   5.993   0.810 -0.3031 -2.3297 -1.2683
  344MOL0     O47335  11.067   2.685   5.594  0.2074 -0.0631  0.6567
  344MOL0     C47336  10.962   2.748   5.617  0.4251 -0.0351  0.8565
  344MOL0     O47337  10.924   2.772   5.746 -0.1453 -0.2737 -0.0539
  344MOL0     C47338  11.002   2.747   5.854  0.0586  0.0317 -0.0797
  344MOL0     C47339  11.028   2.846   5.947 -0.6067 -0.6051  0.6141
  344MOL0     C47340  11.109   2.819   6.052 -0.9607  0.3272  0.0914
  344MOL0     C47341  11.169   2.689   6.071  0.3273  1.0783  0.9470
  344MOL0     O47342  11.254   2.678   6.172  0.0229  0.0688  0.4505
  344MOL0     C47343  11.345   2.555   6.190  0.4334 -0.8145  0.0224
  344MOL0     C47344  11.446   2.575   6.304  0.2523  0.4644 -0.8539
  344MOL0     C47345  11.573   2.481   6.299  1.1203 -0.0367  0.6298
  344MOL0     C47346  11.677   2.525   6.404  0.5275 -0.3021  0.0161
  344MOL0     C47347  11.792   2.424   6.397 -1.1453  0.2277 -0.0573
  344MOL0     C47348  11.886   2.442   6.516 -0.4887 -0.5473 -0.3212
  344MOL0     C47349  12.003   2.347   6.516 -0.1689 -0.0763  0.6284
  344MOL0     C47350  12.101   2.365   6.392 -0.4503  0.4925 -0.3493
  344MOL0     N47351  12.204   2.254   6.408  0.1433 -0.9333 -0.8599
  344MOL0     C47352  12.334   2.280   6.437 -0.0319 -0.3472  0.9357
  344MOL0     C47353  12.388   2.165   6.470  0.6701 -0.6048 -0.5951
  344MOL0     C47354  12.528   2.133   6.529 -0.2146 -0.5585  0.0480
  344MOL0     C47355  12.639   2.202   6.450  0.3191  0.7556 -0.2345
  344MOL0     C47356  12.777   2.188   6.521  0.0053 -0.4987 -0.2126
  344MOL0     C47357  12.890   2.246   6.436 -0.6960 -0.4345 -0.2127
  344MOL0     O47358  12.997   2.151   6.467  0.2996  0.3528  0.1218
  344MOL0     C47359  13.125   2.196   6.462 -0.4797  0.7828  0.4417
  344MOL0     C47360  13.163   2.331   6.455 -0.4877 -0.7949 -0.1319
  344MOL0     C47361  13.297   2.373   6.441 -0.3092  0.1997  1.5017
  344MOL0     C47362  13.328   2.527   6.419  0.7687  1.0311  0.2271
  344MOL0     C47363  13.401   2.277   6.438 -0.1543  0.6015  0.1839
  344MOL0     C47364  13.545   2.300   6.414 -0.4083  0.5166 -0.0504
  344MOL0     O47365  13.591   2.429   6.450 -0.0344  0.1967  0.2589
  344MOL0     C47366  13.716   2.475   6.419 -0.9167  0.6278  0.3638
  344MOL0     C47367  13.834   2.420   6.461 -0.6499  0.2173  0.6512
  344MOL0     C47368  13.965   2.476   6.433  0.2732  0.4274 -0.1856
  344MOL0     C47369  13.963   2.596   6.350  0.1123 -0.1084 -0.6151
  344MOL0     O47370  14.090   2.650   6.327  0.1649  0.4812 -0.3722
  344MOL0     C47371  14.110   2.736   6.214 -0.2170 -0.2774 -0.9240
  344MOL0     C47372  14.126   2.653   6.086 -1.0481 -0.2730  0.0050
  344MOL0     C47373  14.269   2.587   6.072  0.2021 -0.1067 -0.0260
  344MOL0     C47374  14.387   2.687   6.083 -0.2225  1.1465 -0.3530
  344MOL0     C47375  14.389   2.773   5.962  0.3124 -0.0605 -0.5135
  344MOL0     C47376  14.536   2.827   5.940 -0.8612 -0.6368  0.8570
  344MOL0     C47377  14.551   2.900   5.807 -0.2547 -0.5301  0.1485
  344MOL0     C47378  14.685   2.964   5.784 -0.6363  0.2102  0.0434
  344MOL0    Cl47379  14.816   2.830   5.779  0.6824 -0.6460  0.4980
  344MOL0     C47380  13.834   2.653   6.300  0.3600 -0.0327 -0.0841
  344MOL0     C47381  13.718   2.586   6.333  0.5517 -0.2182  0.4443
  344MOL0     O47382  13.608   2.204   6.384 -0.2632  0.3673 -0.2735
  344MOL0     C47383  13.356   2.142   6.447  0.5009 -0.1144 -0.1024
  344MOL0     C47384  13.222   2.107   6.461 -0.1701 -0.3790 -0.3169
  344MOL0     N47385  12.283   2.072   6.473  0.0249  1.1602 -0.1336
  344MOL0     N47386  12.182   2.120   6.427  0.5223  0.4133  0.4489
  344MOL0     C47387  11.130   2.589   5.978 -0.2015  0.9986 -1.2147
  344MOL0     C47388  11.047   2.616   5.878  1.0406 -0.7485  0.7582
  344MOL0     C47389  10.892   2.815   5.501  0.6287  0.8098 -0.7383
  344MOL0     C47390  10.822   2.934   5.533 -0.2123  0.2274 -0.6288
  344MOL0     C47391  10.740   2.997   5.439 -0.0489 -0.3562  0.0232
  344MOL0     C47392  10.722   2.943   5.310 -0.4701  0.5983 -0.4088
  344MOL0     O47393  10.637   2.996   5.215 -0.4188  0.4200  0.1777
  344MOL0     C47394  10.503   3.024   5.256 -1.4129  0.2649 -0.6290
  344MOL0     C47395  10.452   3.152   5.180 -0.8416  0.5207  0.7074
  344MOL0     C47396  10.380   3.250   5.280 -0.8987 -0.2085 -0.2855
  344MOL0     C47397  10.469   3.331   5.374 -0.9404  0.3772  0.8521
  344MOL0     C47398  10.390   3.437   5.446 -0.0420  0.6770 -0.3871
  344MOL0     C47399  10.336   3.524   5.513  0.0953  0.4297 -0.1419
  344MOL0     C47400  10.798   2.822   5.283  0.1584  0.5452  0.3424
  344MOL0     C47401  10.885   2.763   5.370 -0.4180 -0.2241  0.4685
  344MOL0     C47402  10.952   2.639   5.315  0.0975 -0.1964  1.0087
  344MOL0     H47403  10.984   2.943   5.922  0.0172 -1.2710 -3.8411
  344MOL0     H47404  11.134   2.904   6.115  1.2613  0.5564 -1.0150
  344MOL0     H47405  11.395   2.533   6.095  0.8889  3.1560 -0.8495
  344MOL0     H47406  11.281   2.471   6.218 -3.2142  1.8222  0.4057
  344MOL0     H47407  11.478   2.680   6.299 -0.3740  0.8291  1.4192
  344MOL0     H47408  11.392   2.556   6.397  0.5886 -0.7112 -0.8842
  344MOL0     H47409  11.530   2.381   6.295 -0.3610  0.5823  0.5169
  344MOL0     H47410  11.614   2.481   6.198  0.0390 -0.9307  0.1746
  344MOL0     H47411  11.715   2.624   6.381  1.5387 -1.0857 -1.8770
  344MOL0     H47412  11.629   2.537   6.502 -3.3504 -0.3446 -1.7071
  344MOL0     H47413  11.831   2.429   6.295 -3.5669  0.0014 -1.0777
  344MOL0     H47414  11.748   2.324   6.406  1.7923 -1.4257 -2.2326
  344MOL0     H47415  11.933   2.540   6.503  0.8814 -1.0105  0.9477
  344MOL0     H47416  11.837   2.446   6.614  0.4802  1.0721  0.1432
  344MOL0     H47417  11.961   2.247   6.506 -3.7182  1.4135 -1.1271
  344MOL0     H47418  12.060   2.362   6.608  1.4945  1.0055 -0.5146
  344MOL0     H47419  12.046   2.348   6.299  0.4809  1.3067 -1.0777
  344MOL0     H47420  12.147   2.464   6.396 -0.0349  0.4126 -2.1761
  344MOL0     H47421  12.371   2.382   6.449  0.5804 -0.5670  0.9621
  344MOL0     H47422  12.540   2.024   6.529  3.9151 -0.2730 -0.9408
  344MOL0     H47423  12.520   2.167   6.632  0.3882 -2.4566  0.7600
  344MOL0     H47424  12.645   2.141   6.359 -0.2058 -2.2896  1.6297
  344MOL0     H47425  12.615   2.307   6.435 -0.9877  0.2394 -2.0482
  344MOL0     H47426  12.784   2.238   6.618  0.3113 -0.2977 -0.3387
  344MOL0     H47427  12.793   2.083   6.547  1.6590 -0.1701  0.1743
  344MOL0     H47428  12.859   2.242   6.331 -3.9598  2.2714  0.4633
  344MOL0     H47429  12.911   2.352   6.449  1.0210 -0.6579 -0.8408
  344MOL0     H47430  13.094   2.415   6.448  0.1693 -0.3840 -2.3390
  344MOL0     H47431  13.379   2.563   6.509 -5.0693  4.6058  2.7324
  344MOL0     H47432  13.246   2.599   6.404  0.5801  0.8852  0.5382
  344MOL0     H47433  13.388   2.544   6.330 -1.0558 -0.1560 -1.3299
  344MOL0     H47434  13.835   2.339   6.533  0.9177  0.7902  1.3281
  344MOL0     H47435  14.053   2.433   6.479 -0.3562  1.5834  2.2706
  344MOL0     H47436  14.022   2.801   6.206 -0.9864 -1.5752 -4.8092
  344MOL0     H47437  14.188   2.809   6.235 -0.9665 -0.1780  1.9483
  344MOL0     H47438  14.058   2.568   6.074 -2.0757  0.7290 -1.7273
  344MOL0     H47439  14.110   2.722   6.002  1.7414 -0.5238 -0.8462
  344MOL0     H47440  14.281   2.548   5.970  2.8434  2.2905 -0.7869
  344MOL0     H47441  14.271   2.507   6.147  0.2336  0.1912  0.2929
  344MOL0     H47442  14.478   2.628   6.091 -0.1068  1.5403  3.3673
  344MOL0     H47443  14.383   2.744   6.177  2.1017 -1.4103  1.4810
  344MOL0     H47444  14.357   2.715   5.875 -1.6150 -0.7141  0.5539
  344MOL0     H47445  14.330   2.865   5.969  3.9542  2.5227 -1.0479
  344MOL0     H47446  14.607   2.743   5.944 -0.7129 -0.5879 -0.3819
  344MOL0     H47447  14.563   2.895   6.022  2.1787  0.9196 -1.2525
  344MOL0     H47448  14.484   2.985   5.800  2.2013  1.4976 -0.2908
  344MOL0     H47449  14.536   2.830   5.724  2.9518  2.5291 -3.4020
  344MOL0     H47450  14.714   3.030   5.866 -0.4133  2.1547 -1.5352
  344MOL0     H47451  14.678   3.022   5.692  2.2388  1.4032  0.4706
  344MOL0     H47452  13.830   2.750   6.250 -0.8961  0.3888  0.7772
  344MOL0     H47453  13.621   2.623   6.304  0.3472 -0.1637  1.1875
  344MOL0     H47454  13.434   2.066   6.441  1.5067  0.7039  2.0323
  344MOL0     H47455  13.194   2.004   6.477 -0.8773  0.1019  1.8390
  344MOL0     H47456  11.183   2.494   5.987  1.2461  1.9086  0.4510
  344MOL0     H47457  11.021   2.539   5.806  0.4215 -1.2657  1.5138
  344MOL0     H47458  10.834   2.982   5.630  0.2680 -0.4010 -0.3645
  344MOL0     H47459  10.684   3.088   5.458 -2.2915 -1.7019  0.1944
  344MOL0     H47460  10.444   2.933   5.241  1.3299 -1.8376  0.4995
  344MOL0     H47461  10.501   3.039   5.364 -1.8236 -1.9787 -0.2712
  344MOL0     H47462  10.382   3.117   5.104 -0.6595  3.5379 -0.9915
  344MOL0     H47463  10.532   3.202   5.126  2.5006 -4.6935  0.0854
  344MOL0     H47464  10.308   3.314   5.230 -0.1267  1.3285  0.4934
  344MOL0     H47465  10.324   3.192   5.355 -3.3927  2.3688  0.0171
  344MOL0     H47466  10.544   3.369   5.305 -3.2970 -0.3837 -2.3951
  344MOL0     H47467  10.513   3.259   5.444 -2.6932 -2.4385 -0.7260
  344MOL0     H47468  10.308   3.612   5.568 -2.5265 -0.1081 -0.4513
  344MOL0     H47469  10.791   2.779   5.183  2.8325  1.4481 -0.3351
  344MOL0     H47470  11.050   2.670   5.277 -0.2347 -0.2953  0.0554
  344MOL0     H47471  10.971   2.564   5.393  2.4835  0.5666  1.2498
  344MOL0     H47472  10.895   2.605   5.228 -1.0308  1.6847  0.9617
  345MOL0     O47473  10.802   8.280   6.372  0.4972 -0.3208 -0.3618
  345MOL0     C47474  10.927   8.283   6.384  0.1322 -0.4070 -1.1833
  345MOL0     O47475  11.014   8.202   6.318  1.0981  0.4728  0.6326
  345MOL0     C47476  10.953   8.107   6.238  0.3034  0.0613 -0.5536
  345MOL0     C47477  10.883   8.007   6.308 -0.2560 -0.7931 -0.2576
  345MOL0     C47478  10.819   7.906   6.231 -0.2764  0.0415  0.4891
  345MOL0     C47479  10.827   7.904   6.091  1.1810 -0.6968 -0.1950
  345MOL0     O47480  10.756   7.829   6.007 -0.0148  1.0623 -0.0981
  345MOL0     C47481  10.830   7.743   5.916  0.1260  0.7747 -0.0285
  345MOL0     C47482  10.863   7.605   5.982  0.6070 -0.3388  0.1703
  345MOL0     C47483  10.978   7.596   6.079 -0.4958  0.6960  0.0351
  345MOL0     C47484  11.118   7.623   6.002  0.3930 -0.1916  0.0897
  345MOL0     C47485  11.234   7.674   6.099  0.8731  0.7655  0.3101
  345MOL0     C47486  11.216   7.807   6.170 -0.1266  0.6297  0.4041
  345MOL0     C47487  11.342   7.848   6.243 -0.5931 -0.1973  0.1178
  345MOL0     C47488  11.338   7.993   6.300 -0.0635 -0.1954 -0.8227
  345MOL0     N47489  11.460   8.048   6.366  0.0856  0.9323  0.1217
  345MOL0     C47490  11.584   8.046   6.307 -0.5021 -0.1155 -0.7387
  345MOL0     C47491  11.665   8.094   6.399  0.5969 -0.2438 -0.0503
  345MOL0     C47492  11.803   8.130   6.370 -0.6514  0.0348  0.3150
  345MOL0     C47493  11.822   8.277   6.331 -0.1873  0.6926 -0.2795
  345MOL0     C47494  11.963   8.310   6.291 -0.0449  0.5077 -0.7890
  345MOL0     C47495  11.978   8.448   6.228  0.5493 -0.0653 -0.1088
  345MOL0     O47496  11.943   8.433   6.089  0.0709 -0.5046 -0.0635
  345MOL0     C47497  11.986   8.536   6.008 -0.2092  0.5133  0.5105
  345MOL0     C47498  12.038   8.663   6.039 -0.1141  1.0681  0.1891
  345MOL0     C47499  12.086   8.759   5.953  0.6986  0.0885  0.5863
  345MOL0     C47500  12.144   8.881   6.017 -0.1261 -0.4079  0.9142
  345MOL0     C47501  12.080   8.732   5.817  0.1603 -0.7662 -0.7660
  345MOL0     C47502  12.110   8.832   5.710  0.0188 -0.3353  0.0727
  345MOL0     O47503  12.150   8.775   5.597  0.2225 -0.0593  0.0202
  345MOL0     C47504  12.160   8.848   5.491 -0.3215 -1.0428  0.5032
  345MOL0     C47505  12.216   8.974   5.477 -0.0353  0.7404 -0.2474
  345MOL0     C47506  12.205   9.044   5.357  0.2203  1.0903  0.9122
  345MOL0     C47507  12.132   8.992   5.252 -0.2386  0.1662 -0.2423
  345MOL0     O47508  12.120   9.075   5.136 -0.2554 -0.1517 -0.3908
  345MOL0     C47509  12.079   9.015   5.015 -1.2530  0.3082  0.7708
  345MOL0     C47510  12.121   9.098   4.899 -0.7414  1.2256 -0.3124
  345MOL0     C47511  12.032   9.225   4.887  0.4902 -1.4774 -0.3122
  345MOL0     C47512  11.967   9.242   4.744  0.0164 -0.1858 -0.3640
  345MOL0     C47513  12.071   9.271   4.631 -0.1445  0.0246  0.1529
  345MOL0     C47514  12.000   9.296   4.491 -0.9032  0.1981 -1.8601
  345MOL0     C47515  12.110   9.297   4.377  0.8135 -0.3954 -0.7593
  345MOL0     C47516  12.232   9.384   4.407 -0.7227  0.0806  0.0505
  345MOL0    Cl47517  12.349   9.385   4.264 -0.0060 -0.1134  0.3737
  345MOL0     C47518  12.082   8.862   5.261  0.4702 -0.2191  0.2030
  345MOL0     C47519  12.100   8.796   5.385  0.6934 -0.2016 -0.4520
  345MOL0     O47520  12.086   8.955   5.731 -0.4173  0.8054 -0.0607
  345MOL0     C47521  12.019   8.611   5.778  0.4120 -0.1685 -0.4742
  345MOL0     C47522  11.977   8.517   5.871  0.2659  0.8165  0.6233
  345MOL0     N47523  11.600   8.143   6.501  0.0872  0.0771  0.4910
  345MOL0     N47524  11.472   8.119   6.481 -0.5197  0.6239 -0.0633
  345MOL0     C47525  10.889   8.011   6.023 -0.7168 -0.3530 -0.1711
  345MOL0     C47526  10.964   8.104   6.097 -0.2841 -0.6732 -1.1575
  345MOL0     C47527  11.005   8.374   6.484 -0.3899  0.4528 -0.7665
  345MOL0     C47528  11.147   8.396   6.467 -0.0597 -0.1932  0.2905
  345MOL0     C47529  11.223   8.479   6.551  0.6032 -1.0468 -0.5290
  345MOL0     C47530  11.155   8.562   6.639 -0.1587 -0.1027 -0.0090
  345MOL0     O47531  11.230   8.658   6.723 -0.2505 -0.3796 -0.4698
  345MOL0     C47532  11.369   8.688   6.710  1.3051 -0.1142 -0.4674
  345MOL0     C47533  11.461   8.606   6.789 -0.5206  0.2711  0.0947
  345MOL0     C47534  11.599   8.674   6.817  0.4032  0.8766  0.1008
  345MOL0     C47535  11.676   8.692   6.679 -0.4350 -0.2768  0.0564
  345MOL0     C47536  11.822   8.713   6.690  0.8813  0.8502 -0.1831
  345MOL0     C47537  11.940   8.719   6.707 -0.7739  0.7928  0.3982
  345MOL0     C47538  11.017   8.545   6.652  0.0335  0.4986 -0.1002
  345MOL0     C47539  10.943   8.445   6.589 -0.3163  0.0727  0.8238
  345MOL0     C47540  10.792   8.420   6.620 -0.1605 -0.4692  0.5552
  345MOL0     H47541  10.880   8.021   6.416 -3.2836 -0.1186 -0.3528
  345MOL0     H47542  10.770   7.823   6.281 -0.8893  0.0915 -0.0158
  345MOL0     H47543  10.923   7.785   5.875 -0.1769 -0.9805 -2.8079
  345MOL0     H47544  10.763   7.721   5.832  1.1014 -3.0250 -0.0240
  345MOL0     H47545  10.780   7.586   6.051  1.0401  0.2140  0.8510
  345MOL0     H47546  10.865   7.526   5.906  1.6124 -0.5250  0.3734
  345MOL0     H47547  10.955   7.670   6.156 -0.9137  0.6119 -0.0044
  345MOL0     H47548  10.971   7.499   6.129 -0.1023 -0.0005 -1.2118
  345MOL0     H47549  11.144   7.533   5.946 -4.8650 -1.3523 -0.9705
  345MOL0     H47550  11.107   7.698   5.923 -0.5847  1.9270  2.0923
  345MOL0     H47551  11.325   7.681   6.039  1.8492 -3.0692  1.0529
  345MOL0     H47552  11.250   7.588   6.165 -1.7433 -1.7814 -2.1174
  345MOL0     H47553  11.191   7.886   6.099  2.8661  1.6498  0.3181
  345MOL0     H47554  11.128   7.782   6.230 -2.5255  1.0158 -2.6985
  345MOL0     H47555  11.434   7.836   6.184  0.0480 -1.8448  1.3638
  345MOL0     H47556  11.366   7.773   6.319 -2.8240 -1.4524 -0.3174
  345MOL0     H47557  11.304   8.058   6.219  4.0228 -0.3464 -2.9703
  345MOL0     H47558  11.263   7.998   6.378  1.4789  1.1312  0.6483
  345MOL0     H47559  11.617   8.020   6.208 -0.1718 -2.2348 -0.1257
  345MOL0     H47560  11.826   8.058   6.292  1.5823 -0.2217  1.1539
  345MOL0     H47561  11.868   8.112   6.456 -0.7201 -1.7087  0.0355
  345MOL0     H47562  11.769   8.277   6.236  1.5147 -0.3642 -1.2690
  345MOL0     H47563  11.784   8.354   6.399 -0.0730  0.2447  0.3015
  345MOL0     H47564  12.023   8.312   6.383 -1.4213 -3.7284  0.4504
  345MOL0     H47565  12.005   8.238   6.220 -0.5257 -1.0059  0.3960
  345MOL0     H47566  11.912   8.512   6.287  0.1133 -0.0875 -0.5673
  345MOL0     H47567  12.079   8.488   6.242  0.3250  2.0733 -3.4243
  345MOL0     H47568  12.045   8.686   6.144  2.2891  2.0761 -0.1234
  345MOL0     H47569  12.163   8.864   6.123 -1.5807 -3.4384  0.7725
  345MOL0     H47570  12.070   8.961   6.001 -0.6785 -0.7711  1.5741
  345MOL0     H47571  12.235   8.913   5.966 -0.4172  2.4751  1.9707
  345MOL0     H47572  12.285   9.008   5.554  0.1350 -2.0581  0.9326
  345MOL0     H47573  12.249   9.141   5.334 -1.8327  1.8709  0.0014
  345MOL0     H47574  12.130   8.920   4.996 -0.2447  0.5579  2.1299
  345MOL0     H47575  11.971   8.997   5.012 -0.8316 -2.7976 -1.6341
  345MOL0     H47576  12.227   9.123   4.895 -0.5565  0.4398 -0.4856
  345MOL0     H47577  12.101   9.040   4.808 -2.2916 -0.3035  0.9112
  345MOL0     H47578  12.101   9.308   4.904  1.7241 -2.6199  0.4352
  345MOL0     H47579  11.959   9.240   4.966  1.6600  2.1552  0.2460
  345MOL0     H47580  11.890   9.319   4.740 -0.6633 -0.5823  2.7861
  345MOL0     H47581  11.915   9.147   4.731 -0.0137 -0.0460 -1.3274
  345MOL0     H47582  12.113   9.366   4.668 -0.8530 -0.1492  1.4700
  345MOL0     H47583  12.140   9.186   4.624  1.0503  0.8871  0.9273
  345MOL0     H47584  11.944   9.390   4.487  0.0168  0.9222  0.4987
  345MOL0     H47585  11.932   9.212   4.481  0.3070 -1.2826  1.0155
  345MOL0     H47586  12.061   9.331   4.285  1.4720  0.1423 -0.9245
  345MOL0     H47587  12.152   9.199   4.354 -1.6535 -0.7398 -4.6441
  345MOL0     H47588  12.284   9.367   4.502 -0.0213  0.3175 -0.2799
  345MOL0     H47589  12.182   9.481   4.411 -1.3084 -0.2087 -0.2400
  345MOL0     H47590  12.044   8.808   5.175 -0.9971 -0.0542  0.7301
  345MOL0     H47591  12.058   8.696   5.392  1.4220 -0.4444  0.6036
  345MOL0     H47592  12.000   8.599   5.671  0.0128 -0.4563 -0.3739
  345MOL0     H47593  11.924   8.431   5.832 -0.6179  2.0495 -1.0563
  345MOL0     H47594  10.903   8.012   5.916  0.4945 -1.7997 -0.0628
  345MOL0     H47595  11.026   8.183   6.058  1.1548 -0.8499  0.6313
  345MOL0     H47596  11.209   8.346   6.394 -0.1038  2.5529 -1.7879
  345MOL0     H47597  11.330   8.496   6.542  0.3870  2.3921  1.6673
  345MOL0     H47598  11.397   8.675   6.605  3.9273  3.4117 -0.3786
  345MOL0     H47599  11.372   8.791   6.745 -5.3946  0.0002  1.0091
  345MOL0     H47600  11.484   8.509   6.745  0.9912 -0.5959  2.6014
  345MOL0     H47601  11.418   8.601   6.889  0.5339  1.5024  0.6486
  345MOL0     H47602  11.584   8.771   6.865 -0.0994  0.8763 -0.0467
  345MOL0     H47603  11.641   8.598   6.883  1.8693 -0.2854 -2.0297
  345MOL0     H47604  11.644   8.785   6.632  2.0978  1.6169  1.7922
  345MOL0     H47605  11.643   8.610   6.615 -2.7822  0.4090  0.2887
  345MOL0     H47606  12.039   8.724   6.748 -1.0299  0.4581  1.0634
  345MOL0     H47607  10.965   8.606   6.725 -4.1198 -1.7262 -0.8896
  345MOL0     H47608  10.783   8.438   6.728  0.1273 -1.5833  0.7832
  345MOL0     H47609  10.722   8.476   6.557 -0.7212 -1.4919  0.2456
  345MOL0     H47610  10.757   8.317   6.608 -4.1442  0.8876 -1.3518
  346MOL0     O47611   0.541   6.158  10.522  0.2361  0.0188  0.2856
  346MOL0     C47612   0.575   6.043  10.509 -0.1316  0.4760  0.3370
  346MOL0     O47613   0.687   5.998  10.445  0.6200  0.0158 -0.2196
  346MOL0     C47614   0.787   6.080  10.418 -0.8241  0.1423  0.1923
  346MOL0     C47615   0.855   6.166  10.513  0.2969 -1.2236  1.0234
  346MOL0     C47616   0.964   6.249  10.474  0.2568 -0.4634  0.8529
  346MOL0     C47617   1.010   6.243  10.337 -0.3894  0.3149  0.2441
  346MOL0     O47618   1.120   6.303  10.286 -1.1736 -0.5842 -1.1022
  346MOL0     C47619   1.241   6.236  10.317  1.0965 -0.8949 -0.5012
  346MOL0     C47620   1.293   6.320  10.427 -0.1718 -0.3331 -0.1819
  346MOL0     C47621   1.443   6.295  10.432 -0.7056  0.3988  0.3574
  346MOL0     C47622   1.500   6.376  10.541 -0.4700 -0.8633  0.6883
  346MOL0     C47623   1.649   6.370  10.549  0.1156  0.2913 -0.1681
  346MOL0     C47624   1.710   6.434  10.672 -0.3294 -0.7973  0.3003
  346MOL0     C47625   1.865   6.410  10.689  0.4185  0.2428 -0.0592
  346MOL0     C47626   1.911   6.263  10.710  0.3446 -0.1345  0.3533
  346MOL0     N47627   2.060   6.251  10.718 -0.0740 -0.1782  0.0537
  346MOL0     C47628   2.148   6.314  10.637  0.6500  0.9708  0.8242
  346MOL0     C47629   2.275   6.281  10.691 -0.2557 -0.7898  0.2351
  346MOL0     C47630   2.421   6.301  10.651 -0.3334 -0.2046 -0.3206
  346MOL0     C47631   2.482   6.437  10.698 -0.3084  0.9024  0.1072
  346MOL0     C47632   2.398   6.552  10.637  0.0134 -0.4867  0.0819
  346MOL0     C47633   2.464   6.698  10.633  0.2087  0.0620  0.8463
  346MOL0     O47634   2.372   6.806  10.638 -0.1182 -0.4077  0.7134
  346MOL0     C47635   2.257   6.802  10.563 -0.5709  0.3628  0.9473
  346MOL0     C47636   2.265   6.873  10.448  1.5766  0.3016 -0.3964
  346MOL0     C47637   2.146   6.894  10.373  0.2981 -0.4063  0.2794
  346MOL0     C47638   2.172   6.958  10.246  0.7792 -0.3469 -0.0718
  346MOL0     C47639   2.019   6.838  10.413 -0.1028 -0.4353 -0.2995
  346MOL0     C47640   1.886   6.868  10.352  0.0879  0.7052 -0.7459
  346MOL0     O47641   1.774   6.822  10.431 -0.1768 -0.0564  0.9541
  346MOL0     C47642   1.642   6.843  10.406 -1.2148  0.1763 -0.4806
  346MOL0     C47643   1.547   6.753  10.471 -0.6932  0.4850 -0.1141
  346MOL0     C47644   1.414   6.766  10.445 -0.5953  0.0511 -1.0647
  346MOL0     C47645   1.366   6.866  10.364  0.3829  1.0377  1.0023
  346MOL0     O47646   1.227   6.868  10.346  0.0199  0.6308  0.3153
  346MOL0     C47647   1.176   6.845  10.217  0.6360  0.0399  0.2972
  346MOL0     C47648   1.024   6.856  10.227 -0.2843 -0.9067  0.3777
  346MOL0     C47649   0.953   6.755  10.318  0.0575  0.7170  0.0861
  346MOL0     C47650   0.809   6.747  10.275  0.5325 -1.3010 -0.7248
  346MOL0     C47651   0.734   6.657  10.373 -0.2932  0.2330  0.0529
  346MOL0     C47652   0.590   6.679  10.347  0.7255 -0.1176 -0.1036
  346MOL0     C47653   0.554   6.620  10.217  0.0234 -0.2394 -0.0541
  346MOL0     C47654   0.393   6.622  10.226 -0.2993  0.5465 -0.3767
  346MOL0    Cl47655   0.305   6.507  10.338 -0.0830 -0.2416  0.2601
  346MOL0     C47656   1.453   6.943  10.294  0.5030 -0.1515 -0.6141
  346MOL0     C47657   1.591   6.935  10.312  0.0403 -0.0258 -0.4182
  346MOL0     O47658   1.880   6.931  10.246  0.2301  1.0114  0.1951
  346MOL0     C47659   2.021   6.758  10.532  0.3725  0.1212  0.7461
  346MOL0     C47660   2.137   6.747  10.608  0.2489  0.7954 -0.1026
  346MOL0     N47661   2.247   6.198  10.798 -0.1381 -0.5692 -0.2586
  346MOL0     N47662   2.120   6.192  10.820  0.1370  0.6471  0.1352
  346MOL0     C47663   0.934   6.174  10.246 -0.2669  1.1381  0.1034
  346MOL0     C47664   0.828   6.093  10.288  0.0858  0.0230 -0.7956
  346MOL0     C47665   0.476   5.933  10.544  0.1004  0.8621  0.8448
  346MOL0     C47666   0.359   5.972  10.612 -0.4383 -0.4066  0.1173
  346MOL0     C47667   0.258   5.890  10.651  0.2734  0.3533 -0.2424
  346MOL0     C47668   0.264   5.754  10.624  0.4430  0.9440 -0.5319
  346MOL0     O47669   0.159   5.678  10.657  0.2910  0.2592  0.0049
  346MOL0     C47670   0.166   5.540  10.622  1.0160 -0.3440  0.2836
  346MOL0     C47671   0.043   5.461  10.674 -0.0646  0.7548 -0.4159
  346MOL0     C47672   0.069   5.310  10.645  0.4173  0.1098  1.2330
  346MOL0     C47673  -0.029   5.213  10.705  0.1167  0.0463  0.0909
  346MOL0     C47674  -0.042   5.085  10.627 -0.7983  0.2992 -0.1792
  346MOL0     C47675  -0.045   4.984  10.562  0.0624 -0.9443 -0.5911
  346MOL0     C47676   0.377   5.701  10.551  0.6951 -0.1176 -0.5079
  346MOL0     C47677   0.477   5.795  10.507  0.5846 -0.5420 -0.1856
  346MOL0     C47678   0.581   5.741  10.414  0.3501  0.1271  0.1971
  346MOL0     H47679   0.823   6.151  10.615 -0.0957 -1.3575  0.8819
  346MOL0     H47680   1.018   6.303  10.551  0.0114  2.4432 -0.8903
  346MOL0     H47681   1.309   6.234  10.231  2.0132  1.6481  0.0798
  346MOL0     H47682   1.231   6.135  10.356 -0.1576 -0.2143  1.0488
  346MOL0     H47683   1.283   6.427  10.408 -0.8818 -0.0057  1.7339
  346MOL0     H47684   1.252   6.292  10.525  0.3614 -0.6929 -0.0610
  346MOL0     H47685   1.468   6.192  10.460  1.8302  0.8150 -0.1504
  346MOL0     H47686   1.486   6.306  10.332 -0.8779 -0.8954  0.1141
  346MOL0     H47687   1.480   6.483  10.527 -0.0515 -1.0474 -1.7801
  346MOL0     H47688   1.457   6.332  10.632  0.1795  1.3317  2.1432
  346MOL0     H47689   1.689   6.422  10.461  0.0255 -2.0328 -1.6869
  346MOL0     H47690   1.678   6.264  10.554  1.3359  0.6303  4.5831
  346MOL0     H47691   1.708   6.544  10.673  1.6643 -0.7306  1.3957
  346MOL0     H47692   1.649   6.398  10.755 -0.5463 -1.4000 -0.1200
  346MOL0     H47693   1.901   6.459  10.780 -0.3332 -2.3931  1.7840
  346MOL0     H47694   1.929   6.461  10.617  2.9191  0.6618  2.3185
  346MOL0     H47695   1.866   6.233  10.806 -0.4748  0.5476  0.1903
  346MOL0     H47696   1.859   6.194  10.643 -0.1234  0.0747  0.4944
  346MOL0     H47697   2.133   6.371  10.546 -0.4881  2.5282  1.9433
  346MOL0     H47698   2.430   6.286  10.543  2.3425  2.0553 -0.5126
  346MOL0     H47699   2.460   6.218  10.711  0.5863  0.5842  0.1939
  346MOL0     H47700   2.488   6.446  10.806 -0.2699 -3.7171  0.6904
  346MOL0     H47701   2.582   6.437  10.654 -0.1514 -2.4912  0.2550
  346MOL0     H47702   2.375   6.528  10.533 -3.7816  2.5066  0.0088
  346MOL0     H47703   2.298   6.567  10.679  0.9843 -0.5547  2.5980
  346MOL0     H47704   2.541   6.706  10.710  1.3412 -1.1889 -0.1219
  346MOL0     H47705   2.507   6.701  10.533 -0.8456 -4.2331  0.0456
  346MOL0     H47706   2.359   6.920  10.420  1.4329  1.0540  0.3085
  346MOL0     H47707   2.105   6.923  10.167  0.8727  0.5696 -0.5720
  346MOL0     H47708   2.275   6.944  10.212  1.3115  0.9871  0.8764
  346MOL0     H47709   2.149   7.064  10.260 -1.1462 -1.0458  2.7764
  346MOL0     H47710   1.582   6.680  10.543  1.4949 -0.5778 -2.1099
  346MOL0     H47711   1.334   6.712  10.496 -1.1481  0.0721 -1.8937
  346MOL0     H47712   1.223   6.914  10.146 -1.8175 -0.9369 -2.4521
  346MOL0     H47713   1.201   6.742  10.191  0.1241 -0.0968  0.3499
  346MOL0     H47714   1.005   6.954  10.271 -3.6407 -0.9192 -0.7384
  346MOL0     H47715   0.972   6.861  10.131 -0.1320 -1.6966  0.2397
  346MOL0     H47716   0.968   6.779  10.424  0.5184  0.5922  0.0525
  346MOL0     H47717   0.980   6.649  10.307 -2.5110 -0.2260  1.8378
  346MOL0     H47718   0.792   6.729  10.169  0.3816  0.6444 -1.0616
  346MOL0     H47719   0.761   6.843  10.293 -1.0899 -2.6520  3.5197
  346MOL0     H47720   0.753   6.550  10.361  1.8002  0.4555  1.0251
  346MOL0     H47721   0.747   6.683  10.478 -0.6326 -0.7407  0.3437
  346MOL0     H47722   0.572   6.787  10.350  0.3765 -0.1818  0.3053
  346MOL0     H47723   0.538   6.623  10.425 -0.8214  1.7927  0.3331
  346MOL0     H47724   0.590   6.519  10.196 -1.5010 -1.0360  0.9809
  346MOL0     H47725   0.580   6.680  10.130 -1.1554 -1.7079 -1.4707
  346MOL0     H47726   0.359   6.603  10.123  1.4149  0.2505 -0.9156
  346MOL0     H47727   0.362   6.724  10.251 -0.5304  0.3016  0.3429
  346MOL0     H47728   1.404   7.003  10.217 -2.8212 -0.2415  1.2629
  346MOL0     H47729   1.659   7.005  10.263 -0.0987  2.0240  2.1317
  346MOL0     H47730   1.930   6.725  10.581  1.4070 -0.0636  2.6650
  346MOL0     H47731   2.133   6.703  10.708  0.3927  2.8731  0.8709
  346MOL0     H47732   0.966   6.171  10.142  0.9317 -0.7014  0.4764
  346MOL0     H47733   0.777   6.034  10.212  0.9166 -2.1444  0.2470
  346MOL0     H47734   0.347   6.074  10.649 -0.9430 -0.9562  1.5348
  346MOL0     H47735   0.180   5.946  10.702 -0.1390  2.0837 -2.6066
  346MOL0     H47736   0.171   5.527  10.513 -1.9135 -1.0101  0.1349
  346MOL0     H47737   0.248   5.490  10.673  0.7493 -0.0071  1.0543
  346MOL0     H47738  -0.052   5.494  10.631 -1.9491 -1.1784  2.0061
  346MOL0     H47739   0.043   5.476  10.782 -0.0532  0.3542 -0.3598
  346MOL0     H47740   0.078   5.292  10.537  0.7373  1.0613  1.0890
  346MOL0     H47741   0.169   5.285  10.682  0.6886 -0.6072  0.0671
  346MOL0     H47742  -0.129   5.255  10.717  0.8836  1.2619  3.1790
  346MOL0     H47743   0.003   5.193  10.808  0.6476  3.0887  0.6044
  346MOL0     H47744  -0.052   4.884  10.523  0.5023 -1.4688  0.6266
  346MOL0     H47745   0.387   5.598  10.518 -2.5004 -0.4157 -0.8381
  346MOL0     H47746   0.592   5.781  10.313 -2.2117 -0.1904 -0.2740
  346MOL0     H47747   0.672   5.749  10.474 -1.3094  0.9301  2.7657
  346MOL0     H47748   0.567   5.633  10.400  1.1669  0.2743 -2.1305
  347MOL0     O47749   8.560   5.476   2.841  0.6283  0.5130 -0.0175
  347MOL0     C47750   8.465   5.490   2.921 -0.2530 -0.1171  0.0305
  347MOL0     O47751   8.426   5.616   2.979 -0.5244  0.6381 -0.2148
  347MOL0     C47752   8.479   5.718   2.907  0.3231 -0.5537  0.2661
  347MOL0     C47753   8.585   5.787   2.964 -0.4277 -0.5131 -0.3477
  347MOL0     C47754   8.644   5.887   2.891 -0.2329 -0.0654 -0.2210
  347MOL0     C47755   8.604   5.923   2.767  0.1679 -1.0267 -0.1207
  347MOL0     O47756   8.669   6.024   2.693  0.2049 -0.1598 -0.6384
  347MOL0     C47757   8.780   6.104   2.736  0.8932  0.8424  0.0413
  347MOL0     C47758   8.838   6.176   2.614  0.0213 -0.3459  0.1775
  347MOL0     C47759   8.756   6.301   2.593 -0.2392 -0.8785  0.8644
  347MOL0     C47760   8.768   6.352   2.452 -0.3806 -0.4077  0.0848
  347MOL0     C47761   8.686   6.473   2.439 -1.4058  0.6888 -0.8501
  347MOL0     C47762   8.733   6.564   2.325  0.2147  0.5481  0.0076
  347MOL0     C47763   8.678   6.708   2.335 -0.1794  0.4863  0.3869
  347MOL0     C47764   8.781   6.812   2.275  1.1768  0.1664  0.1464
  347MOL0     N47765   8.727   6.928   2.210  0.6045 -0.2106 -0.2461
  347MOL0     C47766   8.731   6.954   2.076  0.3146 -0.2434 -0.0433
  347MOL0     C47767   8.696   7.080   2.064 -0.3089  0.2568 -0.6841
  347MOL0     C47768   8.674   7.164   1.939 -0.4384  0.1295  0.2732
  347MOL0     C47769   8.807   7.197   1.869  0.3376  0.4597 -0.1825
  347MOL0     C47770   8.881   7.310   1.951  0.2413 -0.0755 -0.2444
  347MOL0     C47771   8.882   7.442   1.887 -0.1854 -0.0091  0.3949
  347MOL0     O47772   8.958   7.528   1.974 -0.2128  0.1237  0.3734
  347MOL0     C47773   9.003   7.650   1.919  0.3934 -0.6182 -0.1361
  347MOL0     C47774   8.972   7.703   1.794 -0.1804  0.1438  0.5051
  347MOL0     C47775   9.006   7.830   1.752 -0.1305  0.9437  0.6614
  347MOL0     C47776   8.942   7.869   1.619 -0.6231  0.0285 -0.3193
  347MOL0     C47777   9.083   7.914   1.832  0.0821  0.4755  0.2760
  347MOL0     C47778   9.128   8.053   1.789 -0.9637 -0.0447 -0.5213
  347MOL0     O47779   9.115   8.155   1.885  0.1772  0.6351  0.0824
  347MOL0     C47780   9.195   8.274   1.856  0.2992  0.5354  0.9773
  347MOL0     C47781   9.129   8.380   1.802 -0.5186  0.4728 -0.9686
  347MOL0     C47782   9.204   8.499   1.769  0.5970  1.0467  0.7042
  347MOL0     C47783   9.341   8.499   1.776  0.2612 -0.2957 -1.3297
  347MOL0     O47784   9.409   8.611   1.732 -0.7170 -0.3389 -0.0489
  347MOL0     C47785   9.383   8.665   1.604 -0.4552  0.1407  0.0957
  347MOL0     C47786   9.482   8.778   1.600 -0.2913  0.9935 -0.6693
  347MOL0     C47787   9.465   8.850   1.467 -0.8775  0.3576  0.0569
  347MOL0     C47788   9.589   8.944   1.454  0.8222  0.2239  0.5830
  347MOL0     C47789   9.570   9.017   1.312  0.5606 -0.0786 -0.1772
  347MOL0     C47790   9.702   9.092   1.277  0.0334 -1.0158 -0.0535
  347MOL0     C47791   9.671   9.188   1.157 -0.3321 -0.7813 -0.4882
  347MOL0     C47792   9.762   9.308   1.164 -0.7244  0.1257 -0.4454
  347MOL0    Cl47793   9.937   9.282   1.209 -0.5458 -0.0943  0.0856
  347MOL0     C47794   9.412   8.393   1.833  0.8342  0.5512 -0.5171
  347MOL0     C47795   9.335   8.272   1.868  0.7218  0.3810  0.1830
  347MOL0     O47796   9.179   8.063   1.678 -0.0066  0.2092 -0.0183
  347MOL0     C47797   9.132   7.861   1.959  0.2012  0.1413  0.8746
  347MOL0     C47798   9.087   7.728   1.998  0.4441  0.1065 -0.5364
  347MOL0     N47799   8.674   7.134   2.194  0.3293 -0.4102  0.7122
  347MOL0     N47800   8.689   7.040   2.274  0.1631  0.3934 -0.1259
  347MOL0     C47801   8.495   5.865   2.709 -0.9997 -0.7580 -0.0368
  347MOL0     C47802   8.431   5.761   2.779 -0.2246  0.8965 -0.5405
  347MOL0     C47803   8.396   5.369   2.976  0.6476  0.7055  0.3573
  347MOL0     C47804   8.265   5.390   3.014 -0.3138  0.2759  0.0338
  347MOL0     C47805   8.187   5.295   3.075 -0.5302  0.6450 -0.2159
  347MOL0     C47806   8.239   5.169   3.097  0.1318 -0.1225  0.5345
  347MOL0     O47807   8.144   5.071   3.135 -0.4867 -0.1649  0.1917
  347MOL0     C47808   8.040   5.110   3.231 -0.8455 -0.0179 -0.5090
  347MOL0     C47809   7.983   4.973   3.284  0.2977 -0.4251 -0.2970
  347MOL0     C47810   8.075   4.891   3.373  0.2225  1.1380  0.8698
  347MOL0     C47811   8.004   4.788   3.462  0.3705 -0.0030 -0.0182
  347MOL0     C47812   8.076   4.665   3.495 -0.3176  0.1623 -0.0305
  347MOL0     C47813   8.105   4.557   3.536  0.5516 -0.7517 -0.2366
  347MOL0     C47814   8.361   5.134   3.045  0.1188 -0.3963 -0.1868
  347MOL0     C47815   8.444   5.234   2.988 -0.7613 -0.8072 -0.4094
  347MOL0     C47816   8.579   5.190   2.946 -1.0679 -0.4784  0.0655
  347MOL0     H47817   8.637   5.768   3.058  2.2835  1.4738 -1.3139
  347MOL0     H47818   8.742   5.923   2.921  0.0418 -0.9479 -0.0510
  347MOL0     H47819   8.856   6.045   2.788 -0.4987 -0.8994  0.1799
  347MOL0     H47820   8.744   6.172   2.815 -0.9588  1.0659 -0.9287
  347MOL0     H47821   8.940   6.211   2.632 -0.6356  2.0344 -0.5024
  347MOL0     H47822   8.835   6.107   2.529 -2.7054 -0.1979  0.0793
  347MOL0     H47823   8.651   6.291   2.618 -0.6176 -2.0272 -0.9867
  347MOL0     H47824   8.808   6.380   2.649 -0.9465  1.0130 -0.9754
  347MOL0     H47825   8.875   6.369   2.439 -0.1171 -1.7588  0.3201
  347MOL0     H47826   8.739   6.280   2.375  0.7816  0.1314 -0.8873
  347MOL0     H47827   8.702   6.539   2.524 -0.1542  1.0482 -1.3497
  347MOL0     H47828   8.586   6.435   2.415 -1.8173  1.6789 -0.7116
  347MOL0     H47829   8.843   6.562   2.329  0.2210 -1.9982  0.2034
  347MOL0     H47830   8.705   6.514   2.232 -0.3335 -2.5746  1.7093
  347MOL0     H47831   8.669   6.731   2.441 -2.2783  1.4309  0.0579
  347MOL0     H47832   8.582   6.710   2.282 -0.9167  3.0223  1.6756
  347MOL0     H47833   8.847   6.833   2.360  0.4740 -1.6711  1.2144
  347MOL0     H47834   8.845   6.763   2.202 -0.9011 -2.0698 -0.2942
  347MOL0     H47835   8.753   6.889   1.992 -4.0841  0.0096 -1.6215
  347MOL0     H47836   8.622   7.259   1.954 -0.2455  0.3500 -0.3980
  347MOL0     H47837   8.599   7.109   1.882 -3.7943  3.5029  1.0236
  347MOL0     H47838   8.864   7.104   1.878 -0.5592  0.0657  2.1807
  347MOL0     H47839   8.800   7.228   1.765 -1.2702  0.0768 -0.2229
  347MOL0     H47840   8.840   7.316   2.052  4.7311  1.0775  1.7429
  347MOL0     H47841   8.984   7.285   1.980 -0.6031 -0.6434  2.5482
  347MOL0     H47842   8.948   7.428   1.801 -0.2541  3.0966 -0.2833
  347MOL0     H47843   8.784   7.475   1.854 -0.5279 -1.1222  0.2614
  347MOL0     H47844   8.901   7.643   1.738 -1.0400  1.9861 -0.4815
  347MOL0     H47845   8.858   7.804   1.596 -1.0650 -0.1083  1.4948
  347MOL0     H47846   9.015   7.855   1.539 -1.0164  2.2326 -1.1385
  347MOL0     H47847   8.902   7.971   1.622 -5.5150 -1.5389  3.9166
  347MOL0     H47848   9.021   8.382   1.798 -0.8468  1.5928  3.2275
  347MOL0     H47849   9.156   8.592   1.737 -0.1082  0.7315  0.8272
  347MOL0     H47850   9.388   8.593   1.522  0.5030  1.9189 -1.4731
  347MOL0     H47851   9.284   8.712   1.600 -0.0266  1.0399 -0.1197
  347MOL0     H47852   9.474   8.841   1.689  1.6943 -1.8376  1.7227
  347MOL0     H47853   9.575   8.721   1.612 -0.7206  0.3917 -0.0936
  347MOL0     H47854   9.385   8.924   1.470  1.5999  3.1844  2.1317
  347MOL0     H47855   9.474   8.779   1.385  1.4550  1.2098 -0.4789
  347MOL0     H47856   9.686   8.895   1.457  1.0936  0.5909 -1.0931
  347MOL0     H47857   9.603   9.019   1.532  1.8321 -0.6117  1.2283
  347MOL0     H47858   9.560   8.947   1.228  1.0516  0.3517 -0.6028
  347MOL0     H47859   9.478   9.075   1.315 -0.2577 -1.3700  0.7684
  347MOL0     H47860   9.782   9.021   1.253  0.1904 -0.8323 -0.0812
  347MOL0     H47861   9.743   9.152   1.359 -0.3057 -1.2902  0.3172
  347MOL0     H47862   9.564   9.209   1.153 -0.4295 -1.3291 -1.0514
  347MOL0     H47863   9.704   9.135   1.067  0.6521 -1.7990  0.4344
  347MOL0     H47864   9.725   9.391   1.226 -0.7444  1.6288 -2.3917
  347MOL0     H47865   9.758   9.349   1.063  1.0862  0.8052 -0.2634
  347MOL0     H47866   9.520   8.393   1.850  1.0101 -4.2069 -0.3434
  347MOL0     H47867   9.382   8.179   1.900 -1.6718 -1.1272 -0.5121
  347MOL0     H47868   9.193   7.911   2.033 -1.1532  1.8028  0.9389
  347MOL0     H47869   9.110   7.683   2.094 -2.8234  2.0193  1.3270
  347MOL0     H47870   8.462   5.892   2.610  1.0622 -1.0422 -0.8497
  347MOL0     H47871   8.335   5.720   2.752 -0.0585 -0.1037  0.3335
  347MOL0     H47872   8.225   5.492   3.015 -3.5306 -0.8657  0.4024
  347MOL0     H47873   8.090   5.329   3.108 -1.2313  2.3547 -3.6212
  347MOL0     H47874   8.082   5.165   3.316  1.4469 -1.1888 -0.8342
  347MOL0     H47875   7.954   5.163   3.189 -2.8702 -2.1076  0.7316
  347MOL0     H47876   7.951   4.911   3.200 -2.2092 -2.4778  2.0113
  347MOL0     H47877   7.885   4.985   3.329 -0.2207  2.1204 -1.8738
  347MOL0     H47878   8.140   4.837   3.304  2.1005  1.6024  2.2164
  347MOL0     H47879   8.146   4.956   3.425  0.5287  2.0353 -0.6162
  347MOL0     H47880   7.907   4.765   3.417  0.0595 -2.1167  1.5547
  347MOL0     H47881   7.976   4.831   3.559  1.4081  1.5167 -0.3586
  347MOL0     H47882   8.152   4.470   3.577  2.2290  0.6695  1.0488
  347MOL0     H47883   8.388   5.031   3.026  3.9448  0.3999  0.0267
  347MOL0     H47884   8.591   5.091   2.992 -0.1313 -1.1914 -1.6094
  347MOL0     H47885   8.587   5.191   2.837 -0.6843 -0.2733  0.0931
  347MOL0     H47886   8.654   5.261   2.982 -1.9937 -0.3566  1.8541
  348MOL0     O47887   1.021   2.547   6.539 -0.2888 -0.0341  0.4017
  348MOL0     C47888   0.967   2.580   6.645  0.6423 -0.1734  0.2305
  348MOL0     O47889   1.009   2.545   6.768 -0.4006 -0.3777  0.1040
  348MOL0     C47890   1.139   2.516   6.778 -1.2837  0.0635  0.4802
  348MOL0     C47891   1.241   2.592   6.706  0.0215 -0.4602 -0.3237
  348MOL0     C47892   1.372   2.553   6.713  0.1157 -0.2267 -1.1765
  348MOL0     C47893   1.410   2.454   6.806 -0.0225 -0.2552 -0.1558
  348MOL0     O47894   1.546   2.436   6.809  0.0681  0.8813 -0.2161
  348MOL0     C47895   1.590   2.330   6.901 -0.1666 -1.7465  0.1708
  348MOL0     C47896   1.741   2.348   6.934  0.9367  0.2495 -0.4359
  348MOL0     C47897   1.839   2.270   6.838  0.2286  0.2061 -0.2175
  348MOL0     C47898   1.981   2.318   6.866 -1.1862 -0.8712  0.5262
  348MOL0     C47899   2.094   2.267   6.777 -0.1989  0.5584 -0.2625
  348MOL0     C47900   2.091   2.122   6.753 -0.7919  0.0036  0.4834
  348MOL0     C47901   2.221   2.061   6.698  0.0358 -0.7774  0.2551
  348MOL0     C47902   2.347   2.131   6.758 -0.3524  0.7122 -0.0222
  348MOL0     N47903   2.467   2.055   6.708  0.1117  0.2713  0.0577
  348MOL0     C47904   2.539   1.945   6.768  0.3684  0.0702 -0.4011
  348MOL0     C47905   2.636   1.925   6.670 -0.6337 -0.3361  0.1687
  348MOL0     C47906   2.745   1.823   6.669  0.6784 -0.9543 -0.4509
  348MOL0     C47907   2.887   1.887   6.704  0.0523 -0.1578 -0.6465
  348MOL0     C47908   3.018   1.805   6.702  0.7356  0.8289  0.1484
  348MOL0     C47909   3.047   1.762   6.556  0.2223  1.1691  0.3131
  348MOL0     O47910   3.109   1.878   6.493  0.1817  0.3190  0.7257
  348MOL0     C47911   3.240   1.892   6.514 -0.1177  0.3689 -0.6379
  348MOL0     C47912   3.304   2.001   6.454 -0.3551 -0.3403  0.4236
  348MOL0     C47913   3.441   2.019   6.446 -0.2780  0.5659  0.3616
  348MOL0     C47914   3.490   2.159   6.411  0.0881  0.2096 -0.2314
  348MOL0     C47915   3.533   1.913   6.486  0.2563 -0.3153 -0.4982
  348MOL0     C47916   3.675   1.916   6.463 -0.1448 -0.1456  1.2868
  348MOL0     O47917   3.742   1.832   6.540  0.4408 -0.5393  0.0213
  348MOL0     C47918   3.882   1.854   6.550  0.4133  0.0308 -0.4856
  348MOL0     C47919   3.941   1.913   6.655 -0.3951 -0.1478  0.0299
  348MOL0     C47920   4.078   1.930   6.652  0.2944 -0.2969 -0.5100
  348MOL0     C47921   4.157   1.859   6.549  0.7719  0.5155 -0.1069
  348MOL0     O47922   4.293   1.876   6.563 -0.3609 -0.3799 -0.0201
  348MOL0     C47923   4.385   1.812   6.473 -0.3454 -0.0501 -0.1947
  348MOL0     C47924   4.505   1.903   6.449  0.3053  0.3430  0.2984
  348MOL0     C47925   4.583   1.947   6.569  0.2279  0.0173  0.4601
  348MOL0     C47926   4.693   2.040   6.528  0.8079 -0.1889 -0.0161
  348MOL0     C47927   4.754   2.110   6.647 -0.2555 -0.3883 -0.4120
  348MOL0     C47928   4.897   2.177   6.636  0.3052 -0.7960  0.5976
  348MOL0     C47929   4.911   2.239   6.503 -0.4529 -0.8129 -0.0445
  348MOL0     C47930   4.825   2.360   6.488 -0.2789 -0.6179  0.0410
  348MOL0    Cl47931   4.923   2.507   6.522 -0.0264 -0.4875 -0.4676
  348MOL0     C47932   4.085   1.786   6.451  0.0873  0.3926 -0.1674
  348MOL0     C47933   3.953   1.791   6.457 -0.5664  1.2328 -0.0878
  348MOL0     O47934   3.731   1.998   6.383 -0.5894  0.0170 -1.1247
  348MOL0     C47935   3.469   1.806   6.550 -0.4122 -0.3706 -0.0072
  348MOL0     C47936   3.331   1.805   6.579 -0.4287 -0.7927  1.0033
  348MOL0     N47937   2.620   2.010   6.564 -0.7720 -0.6158  0.2883
  348MOL0     N47938   2.523   2.084   6.577  0.3461 -0.1301 -0.5944
  348MOL0     C47939   1.315   2.384   6.880 -0.0193  0.6137 -0.1672
  348MOL0     C47940   1.179   2.408   6.859 -0.3026  0.0016 -0.5056
  348MOL0     C47941   0.833   2.641   6.646  0.1059 -0.0579 -0.2812
  348MOL0     C47942   0.808   2.741   6.551  0.0068  0.1722 -0.0809
  348MOL0     C47943   0.679   2.794   6.523 -0.8219  0.7403 -0.0157
  348MOL0     C47944   0.569   2.750   6.602  0.8208 -1.3246  0.7915
  348MOL0     O47945   0.433   2.793   6.596 -1.1019  0.0213 -0.6549
  348MOL0     C47946   0.384   2.872   6.481 -0.2341  0.1159  0.0034
  348MOL0     C47947   0.234   2.901   6.512 -0.5275 -0.1868 -0.4406
  348MOL0     C47948   0.161   2.985   6.406  0.1920 -0.1576  0.1604
  348MOL0     C47949   0.208   3.127   6.396  0.3719 -0.7066  0.3821
  348MOL0     C47950   0.117   3.205   6.317 -0.3085  0.2011  0.0977
  348MOL0     C47951   0.040   3.258   6.241 -0.3376 -0.4242  0.1355
  348MOL0     C47952   0.593   2.643   6.687 -0.6334 -0.8953 -0.9563
  348MOL0     C47953   0.721   2.583   6.709  0.4020 -0.0324  0.5716
  348MOL0     C47954   0.716   2.462   6.808 -0.1782 -1.1185 -0.0253
  348MOL0     H47955   1.224   2.664   6.627  2.8883 -1.3891 -1.9420
  348MOL0     H47956   1.459   2.592   6.661  1.9957 -2.0665  0.4071
  348MOL0     H47957   1.569   2.231   6.860  2.2141 -1.7644 -1.1801
  348MOL0     H47958   1.543   2.335   6.999 -2.4263  3.7632 -0.7825
  348MOL0     H47959   1.776   2.451   6.946  0.3352  0.4151 -0.0448
  348MOL0     H47960   1.747   2.308   7.036 -3.0919  1.9913  0.6584
  348MOL0     H47961   1.839   2.161   6.852  1.3593 -0.1902 -2.7989
  348MOL0     H47962   1.815   2.278   6.732  0.8696  0.8247 -0.3267
  348MOL0     H47963   1.979   2.427   6.865 -1.6338 -0.8726  0.7226
  348MOL0     H47964   2.008   2.306   6.971 -0.6139  2.4439  0.8728
  348MOL0     H47965   2.187   2.292   6.830  0.2541 -1.0442 -0.2605
  348MOL0     H47966   2.094   2.320   6.682 -2.0241 -2.1278 -1.8707
  348MOL0     H47967   2.075   2.075   6.850 -2.7490  1.5011  0.9416
  348MOL0     H47968   2.009   2.098   6.684 -1.8029  0.0736  1.6337
  348MOL0     H47969   2.219   2.063   6.589 -6.1311  1.1822  0.0549
  348MOL0     H47970   2.230   1.957   6.729 -0.5184  0.1343  3.9026
  348MOL0     H47971   2.361   2.236   6.733  0.5822  0.5830 -0.0613
  348MOL0     H47972   2.334   2.126   6.866  1.6379  0.6350  0.2357
  348MOL0     H47973   2.512   1.920   6.870 -3.1928  0.7682 -1.0387
  348MOL0     H47974   2.742   1.772   6.573 -0.9690 -2.4222  0.3274
  348MOL0     H47975   2.720   1.744   6.740 -1.6296 -0.0233 -0.1577
  348MOL0     H47976   2.900   1.970   6.634 -0.2498 -0.5589 -1.1844
  348MOL0     H47977   2.877   1.934   6.803  0.0846  0.5813 -0.9815
  348MOL0     H47978   3.106   1.852   6.746  0.5387 -0.8352  2.5801
  348MOL0     H47979   2.988   1.725   6.771 -4.1051  1.5747 -0.6923
  348MOL0     H47980   3.114   1.675   6.555 -0.6861  0.4063  2.1118
  348MOL0     H47981   2.956   1.733   6.502  0.5492  0.3411  0.1783
  348MOL0     H47982   3.232   2.073   6.417  0.7005 -0.5679 -2.3094
  348MOL0     H47983   3.550   2.156   6.319  0.4528 -2.0817  0.0277
  348MOL0     H47984   3.557   2.196   6.489 -1.1288 -0.3964  1.1527
  348MOL0     H47985   3.406   2.229   6.406  2.0276  2.7770  1.0464
  348MOL0     H47986   3.892   1.955   6.743  2.1032  1.0597  0.9508
  348MOL0     H47987   4.139   1.972   6.731 -0.2555  0.6524 -0.5778
  348MOL0     H47988   4.423   1.721   6.521 -0.2466 -0.0670 -0.3042
  348MOL0     H47989   4.342   1.772   6.381 -2.3674 -0.6545  0.9435
  348MOL0     H47990   4.587   1.859   6.392 -0.2192 -1.4840  0.8998
  348MOL0     H47991   4.469   1.993   6.397 -0.1363 -1.4748 -2.7883
  348MOL0     H47992   4.612   1.864   6.634  1.2034 -1.3688 -1.6517
  348MOL0     H47993   4.513   2.003   6.633 -0.2452  1.0320 -0.9055
  348MOL0     H47994   4.652   2.104   6.450 -0.2450 -1.7957 -0.8243
  348MOL0     H47995   4.775   1.980   6.488  1.3403 -1.7015  3.0613
  348MOL0     H47996   4.691   2.188   6.691  2.9218  2.7604 -1.0178
  348MOL0     H47997   4.782   2.030   6.717 -0.2879  1.2963  1.6203
  348MOL0     H47998   4.978   2.103   6.631  2.0933  1.1525 -1.5925
  348MOL0     H47999   4.916   2.245   6.719 -2.3357 -0.8469  1.3495
  348MOL0     H48000   4.893   2.165   6.424 -0.3215  0.7646 -1.6114
  348MOL0     H48001   5.013   2.275   6.491 -0.8010  0.3950  0.4612
  348MOL0     H48002   4.737   2.352   6.552  0.0813 -3.7213  0.3038
  348MOL0     H48003   4.793   2.377   6.385  0.7032 -0.3290 -0.2277
  348MOL0     H48004   4.122   1.723   6.370 -1.4980  0.4666 -0.9896
  348MOL0     H48005   3.900   1.727   6.387 -3.0361 -1.3330  3.7455
  348MOL0     H48006   3.527   1.727   6.597  0.2905 -0.9220 -1.7372
  348MOL0     H48007   3.325   1.711   6.634 -2.3248 -0.1943  1.9326
  348MOL0     H48008   1.332   2.310   6.958 -1.4486 -0.7259 -1.0499
  348MOL0     H48009   1.104   2.365   6.924  0.1443  3.1887  2.4538
  348MOL0     H48010   0.886   2.781   6.487 -0.3396 -1.4213 -1.5948
  348MOL0     H48011   0.666   2.884   6.462  0.4646  0.8386 -0.1886
  348MOL0     H48012   0.431   2.971   6.480 -1.1546  0.6200 -3.1120
  348MOL0     H48013   0.391   2.831   6.380  0.5766 -1.6304  0.7369
  348MOL0     H48014   0.243   2.940   6.614 -0.9307  0.9959 -0.8392
  348MOL0     H48015   0.185   2.804   6.505  1.1497 -1.0327 -1.1984
  348MOL0     H48016   0.193   2.934   6.314  1.7546 -0.9206  1.0867
  348MOL0     H48017   0.053   2.977   6.426  0.1206 -0.2805 -0.2529
  348MOL0     H48018   0.304   3.125   6.344 -0.0193 -2.7687 -0.3650
  348MOL0     H48019   0.217   3.177   6.493 -2.2805 -0.1049  0.3868
  348MOL0     H48020  -0.022   3.309   6.170  1.6387  1.7892 -0.1085
  348MOL0     H48021   0.506   2.591   6.726  2.5668 -3.5207  3.7710
  348MOL0     H48022   0.778   2.381   6.768  0.9751 -0.8107  1.0679
  348MOL0     H48023   0.760   2.491   6.904  0.3938 -3.1276  0.3768
  348MOL0     H48024   0.613   2.436   6.833 -1.1225  0.9742 -1.4280
  349MOL0     O48025   5.835   2.510   6.705 -0.6465  0.1506 -0.3714
  349MOL0     C48026   5.884   2.402   6.716 -0.8907 -0.2786  0.0667
  349MOL0     O48027   5.810   2.284   6.719 -0.6582 -0.2901  0.0490
  349MOL0     C48028   5.677   2.276   6.711 -0.5952 -0.4714  0.1370
  349MOL0     C48029   5.587   2.365   6.756 -0.7527 -0.9914 -0.7956
  349MOL0     C48030   5.450   2.335   6.754 -0.0605  0.2662 -0.4846
  349MOL0     C48031   5.411   2.211   6.713  0.7494  0.2352 -0.2545
  349MOL0     O48032   5.275   2.179   6.717 -0.1771 -0.7369 -0.5541
  349MOL0     C48033   5.225   2.155   6.843 -0.5651 -0.8444  0.3078
  349MOL0     C48034   5.172   2.271   6.933 -0.1972  0.4967  0.3916
  349MOL0     C48035   5.076   2.206   7.031 -0.3946 -0.1183 -0.5903
  349MOL0     C48036   5.146   2.104   7.134 -0.6992 -0.7661 -0.3760
  349MOL0     C48037   5.284   2.151   7.196 -0.5934 -0.1932  1.1254
  349MOL0     C48038   5.359   2.070   7.298 -0.4129  0.9347  0.8836
  349MOL0     C48039   5.416   2.155   7.407  0.0472 -0.2498 -0.5608
  349MOL0     C48040   5.303   2.221   7.487  0.7407  0.1559  1.0563
  349MOL0     N48041   5.349   2.255   7.620 -0.4684 -0.2522  0.5630
  349MOL0     C48042   5.310   2.194   7.731 -0.8915  0.0855  0.3015
  349MOL0     C48043   5.400   2.235   7.823 -0.8539 -0.1697 -0.6710
  349MOL0     C48044   5.405   2.192   7.968  0.1289  0.2251  0.1003
  349MOL0     C48045   5.464   2.299   8.061 -0.3338 -0.5530  0.1230
  349MOL0     C48046   5.374   2.419   8.082 -0.6920  0.7601  0.1607
  349MOL0     C48047   5.433   2.503   8.202  0.9747  0.2827  0.0659
  349MOL0     O48048   5.413   2.438   8.327  0.2059  0.2301 -0.5262
  349MOL0     C48049   5.463   2.498   8.450  0.3066  0.0885 -0.2237
  349MOL0     C48050   5.487   2.410   8.559  0.1182  0.0279  0.4882
  349MOL0     C48051   5.538   2.464   8.681 -0.7511  0.5207  0.2381
  349MOL0     C48052   5.530   2.366   8.794 -0.3480  0.4591 -0.1679
  349MOL0     C48053   5.585   2.597   8.693 -0.2495 -1.0082  0.5227
  349MOL0     C48054   5.643   2.658   8.814  0.4948  0.7005  0.1301
  349MOL0     O48055   5.714   2.768   8.795 -1.0340  0.1484 -0.1104
  349MOL0     C48056   5.754   2.839   8.908  0.2782  0.5325 -0.3612
  349MOL0     C48057   5.666   2.866   9.011 -0.9788 -0.7438  0.4375
  349MOL0     C48058   5.731   2.948   9.116  0.2636  0.3102  0.5625
  349MOL0     C48059   5.864   2.980   9.116 -0.0408  0.5017  0.0234
  349MOL0     O48060   5.917   3.061   9.217 -0.1412 -0.5504  0.0553
  349MOL0     C48061   5.905   3.014   9.358 -0.5084 -0.0576 -1.1303
  349MOL0     C48062   5.975   2.879   9.383  0.3643  0.2528 -0.6231
  349MOL0     C48063   5.964   2.820   9.524  0.0839  0.4986  0.4197
  349MOL0     C48064   6.070   2.889   9.621 -0.5278  0.3243  0.6781
  349MOL0     C48065   6.054   2.813   9.757 -0.9314  0.6511 -0.6193
  349MOL0     C48066   6.140   2.895   9.869 -0.2208  0.0907 -0.4137
  349MOL0     C48067   6.130   2.803   9.999  0.5554  0.4194 -0.7039
  349MOL0     C48068   6.228   2.833  10.115 -0.5153 -0.6676  0.0201
  349MOL0    Cl48069   6.394   2.767  10.070 -0.4100  0.0397  0.2369
  349MOL0     C48070   5.944   2.940   9.013 -0.1673  0.4463 -0.3416
  349MOL0     C48071   5.884   2.881   8.906  0.1017 -0.5413 -0.2695
  349MOL0     O48072   5.648   2.584   8.906 -0.6568 -0.0692  0.2727
  349MOL0     C48073   5.580   2.677   8.576  0.6163  0.6868  0.1376
  349MOL0     C48074   5.518   2.623   8.459 -0.2833 -0.3566 -0.1849
  349MOL0     N48075   5.488   2.325   7.774 -0.2250  0.0233  0.8258
  349MOL0     N48076   5.457   2.328   7.648 -0.8549 -0.5304 -0.4547
  349MOL0     C48077   5.504   2.115   6.654 -0.2678 -0.1355 -0.5780
  349MOL0     C48078   5.635   2.158   6.651 -0.0282 -0.6490 -0.2428
  349MOL0     C48079   6.025   2.387   6.738 -0.4615 -0.6544  0.1423
  349MOL0     C48080   6.099   2.279   6.682 -0.2913 -0.3602  0.0382
  349MOL0     C48081   6.231   2.266   6.718  0.9851  0.2073  0.2641
  349MOL0     C48082   6.306   2.361   6.777 -0.1924 -0.0782 -0.4259
  349MOL0     O48083   6.440   2.345   6.787  0.2170 -0.1330 -0.4096
  349MOL0     C48084   6.519   2.413   6.893 -0.3370  0.4938  0.5715
  349MOL0     C48085   6.665   2.349   6.879  0.5752 -0.3623  0.0790
  349MOL0     C48086   6.674   2.202   6.921 -0.6281  0.2216 -0.0089
  349MOL0     C48087   6.816   2.158   6.883 -0.6542  0.4399  0.0866
  349MOL0     C48088   6.912   2.194   6.986  0.2653 -0.4371  0.7563
  349MOL0     C48089   7.000   2.230   7.050 -0.5531 -0.6618  0.1276
  349MOL0     C48090   6.236   2.477   6.823  0.0184  0.2574  0.2483
  349MOL0     C48091   6.093   2.486   6.813 -0.8034 -0.2094  0.0110
  349MOL0     C48092   6.026   2.605   6.886  0.1664  0.5133  0.1755
  349MOL0     H48093   5.627   2.460   6.790 -0.9232 -1.2999  0.2809
  349MOL0     H48094   5.371   2.402   6.787 -0.3099 -0.5681  0.6631
  349MOL0     H48095   5.304   2.098   6.894  0.9442  0.5339 -0.3843
  349MOL0     H48096   5.143   2.088   6.818  0.1547 -1.4137 -0.6051
  349MOL0     H48097   5.262   2.327   6.962  0.1039 -1.0826  2.8049
  349MOL0     H48098   5.114   2.338   6.870  0.1268 -0.4410 -0.9442
  349MOL0     H48099   5.022   2.283   7.087  0.6475 -0.2304  0.5997
  349MOL0     H48100   5.002   2.147   6.975  0.1815 -0.6959 -0.7569
  349MOL0     H48101   5.086   2.085   7.224 -1.8182  0.6683 -0.7819
  349MOL0     H48102   5.175   2.009   7.089  1.3046 -0.2009 -0.3774
  349MOL0     H48103   5.265   2.249   7.240 -0.9520  0.0482  0.4563
  349MOL0     H48104   5.359   2.160   7.116 -0.8030 -1.1745  0.8074
  349MOL0     H48105   5.291   1.995   7.341 -0.3412  0.7961  0.7529
  349MOL0     H48106   5.438   2.015   7.246 -1.8447  0.0684 -0.4954
  349MOL0     H48107   5.474   2.235   7.358 -0.6394 -0.6289 -2.0500
  349MOL0     H48108   5.483   2.100   7.473  1.1857  0.9311 -0.6873
  349MOL0     H48109   5.266   2.309   7.432 -0.3217 -0.8118  0.1659
  349MOL0     H48110   5.216   2.155   7.490 -0.5231  1.6210 -0.7084
  349MOL0     H48111   5.234   2.117   7.738  0.5047 -1.2266  3.1191
  349MOL0     H48112   5.464   2.101   7.975  1.8209  1.3482  0.9511
  349MOL0     H48113   5.311   2.165   8.018  1.0630 -0.1698  1.7173
  349MOL0     H48114   5.487   2.258   8.160  1.4669 -1.2840 -0.5536
  349MOL0     H48115   5.563   2.328   8.024 -0.4683 -1.0193 -0.6350
  349MOL0     H48116   5.383   2.484   7.995  1.2228 -0.4111 -0.5829
  349MOL0     H48117   5.271   2.388   8.101  0.0042 -2.0858 -0.2066
  349MOL0     H48118   5.541   2.513   8.188  1.5876  0.3949  3.8734
  349MOL0     H48119   5.396   2.606   8.209  0.7383  0.3504 -1.6517
  349MOL0     H48120   5.463   2.305   8.545  4.0506 -1.1106  1.2963
  349MOL0     H48121   5.609   2.353   8.868 -3.1519 -1.3855  2.7719
  349MOL0     H48122   5.509   2.264   8.760  1.6582 -0.3545  0.8555
  349MOL0     H48123   5.434   2.393   8.838 -0.4727  2.2989 -1.4325
  349MOL0     H48124   5.563   2.831   9.015 -1.1615 -0.1549  1.1398
  349MOL0     H48125   5.673   2.980   9.201  0.7035 -2.2883  1.9350
  349MOL0     H48126   5.946   3.093   9.421 -1.5563 -0.6804  0.3967
  349MOL0     H48127   5.799   3.008   9.385  0.1862 -1.7651  1.6857
  349MOL0     H48128   5.933   2.818   9.303 -0.0068 -2.6773  1.6581
  349MOL0     H48129   6.081   2.879   9.359  0.2507 -2.1923 -1.3063
  349MOL0     H48130   5.977   2.713   9.509  1.4734  0.9013 -1.9161
  349MOL0     H48131   5.866   2.854   9.558  0.1082  0.9809  0.0229
  349MOL0     H48132   6.039   2.993   9.633 -1.7463  0.0874 -0.1077
  349MOL0     H48133   6.172   2.877   9.586  0.2908 -1.3235  3.3462
  349MOL0     H48134   5.948   2.800   9.780 -0.8467 -2.0787 -1.4195
  349MOL0     H48135   6.088   2.710   9.741 -0.6430  0.5223  0.6901
  349MOL0     H48136   6.101   2.994   9.891 -1.1061 -0.6767  1.7258
  349MOL0     H48137   6.246   2.903   9.842 -0.6966  0.3924 -2.3649
  349MOL0     H48138   6.143   2.696   9.982  0.8221  0.4710 -0.8383
  349MOL0     H48139   6.033   2.822  10.044  0.2015  0.6091 -1.5209
  349MOL0     H48140   6.197   2.792  10.212  1.3335 -0.7048  0.6528
  349MOL0     H48141   6.231   2.940  10.140 -0.9304 -0.3156 -1.3821
  349MOL0     H48142   6.051   2.954   9.009 -0.0793  0.6451  1.8383
  349MOL0     H48143   5.942   2.857   8.818  0.9441 -0.9700  0.3894
  349MOL0     H48144   5.627   2.775   8.571  3.3525 -0.6057 -1.2103
  349MOL0     H48145   5.511   2.691   8.375  0.6571  1.6356  1.2589
  349MOL0     H48146   5.461   2.029   6.604  0.1386 -1.7905  1.7439
  349MOL0     H48147   5.697   2.092   6.591 -1.3535 -1.6720 -0.5638
  349MOL0     H48148   6.047   2.210   6.617 -0.4134 -0.7728  0.5699
  349MOL0     H48149   6.286   2.178   6.685  2.1940  1.6262 -1.6859
  349MOL0     H48150   6.527   2.517   6.861 -0.1854  0.6560  1.1423
  349MOL0     H48151   6.481   2.395   6.993 -2.1808  1.9906  0.1940
  349MOL0     H48152   6.728   2.414   6.939 -0.4242  1.5695 -0.8590
  349MOL0     H48153   6.692   2.343   6.773  1.2149 -6.4642  0.2237
  349MOL0     H48154   6.660   2.192   7.029  0.4084 -1.7283 -0.0224
  349MOL0     H48155   6.593   2.142   6.878  0.2581 -2.4096  1.7277
  349MOL0     H48156   6.848   2.188   6.783  0.9162 -3.9419 -0.9545
  349MOL0     H48157   6.795   2.051   6.880 -0.5730  0.4446 -0.7457
  349MOL0     H48158   7.075   2.245   7.125 -2.1089  0.7910  1.4693
  349MOL0     H48159   6.298   2.555   6.866 -0.7000  2.1255 -1.8846
  349MOL0     H48160   5.993   2.677   6.811  0.3069  3.0845  2.4073
  349MOL0     H48161   5.932   2.580   6.937 -0.1871  2.0273  0.3248
  349MOL0     H48162   6.085   2.671   6.951  0.5573  0.1690  0.1738
  350MOL0     O48163   0.332   9.580   8.757 -0.3657 -0.2400  0.0625
  350MOL0     C48164   0.219   9.593   8.805  0.8248  0.0027 -0.1144
  350MOL0     O48165   0.191   9.635   8.931  0.0313  0.0863  0.4768
  350MOL0     C48166   0.287   9.696   8.997 -0.7131  0.0133  0.3825
  350MOL0     C48167   0.305   9.829   8.999  1.1304 -0.0757  0.0915
  350MOL0     C48168   0.402   9.889   9.076 -1.1585 -0.2170 -0.5040
  350MOL0     C48169   0.502   9.813   9.152  0.2322  0.2520 -0.7314
  350MOL0     O48170   0.622   9.860   9.199 -0.1169  0.6323  0.4138
  350MOL0     C48171   0.723   9.887   9.102  0.0859  0.0078  0.0527
  350MOL0     C48172   0.856   9.906   9.193 -0.0934  0.2805  0.3744
  350MOL0     C48173   0.977   9.947   9.119  0.2288  0.1303 -0.2644
  350MOL0     C48174   1.091   9.942   9.218  0.8601  0.2381 -0.4471
  350MOL0     C48175   1.225  10.005   9.166 -0.1126 -0.6454  0.3103
  350MOL0     C48176   1.341   9.975   9.264  0.1401 -0.2535 -0.0379
  350MOL0     C48177   1.476  10.039   9.220  0.1964 -0.6309  0.8615
  350MOL0     C48178   1.589   9.992   9.323 -0.4939  0.2704  0.0248
  350MOL0     N48179   1.700  10.079   9.319 -1.2228 -0.4940 -1.6367
  350MOL0     C48180   1.743  10.170   9.229 -0.6438 -0.1510  0.0892
  350MOL0     C48181   1.857  10.227   9.284  0.5737 -0.3738 -0.1970
  350MOL0     C48182   1.940  10.312   9.198 -0.1502 -0.2355  0.2266
  350MOL0     C48183   2.065  10.235   9.138 -0.1412 -0.1464 -1.1431
  350MOL0     C48184   2.118  10.311   9.017  0.9336 -0.1656  0.5051
  350MOL0     C48185   2.210  10.207   8.946  0.3056 -0.6277  0.1614
  350MOL0     O48186   2.139  10.127   8.854 -0.7701 -0.0140  0.0690
  350MOL0     C48187   2.218  10.034   8.797 -0.8238  0.1591 -0.4010
  350MOL0     C48188   2.306   9.948   8.874  0.0706 -0.0617  0.6970
  350MOL0     C48189   2.396   9.879   8.804  0.3224  0.2642  0.4105
  350MOL0     C48190   2.511   9.823   8.886 -0.4487  0.3109  0.3357
  350MOL0     C48191   2.400   9.869   8.665  0.0064 -0.1707  0.4194
  350MOL0     C48192   2.493   9.787   8.592 -0.9171  0.9052  0.1847
  350MOL0     O48193   2.578   9.852   8.502 -0.0048 -0.2228 -0.4056
  350MOL0     C48194   2.591   9.801   8.373  1.0336  0.7570  0.3161
  350MOL0     C48195   2.650   9.677   8.335 -0.3570 -0.0158 -0.6860
  350MOL0     C48196   2.674   9.639   8.204  0.7449 -0.5779  1.0768
  350MOL0     C48197   2.622   9.719   8.103 -1.0714 -0.2852 -0.3032
  350MOL0     O48198   2.605   9.667   7.976 -0.4694  0.1005 -0.4841
  350MOL0     C48199   2.572   9.522   7.955 -1.1455  0.0449  0.0705
  350MOL0     C48200   2.473   9.511   7.842 -0.0747 -0.3095 -0.4928
  350MOL0     C48201   2.457   9.373   7.778 -0.5459 -1.2231 -0.3604
  350MOL0     C48202   2.347   9.363   7.672  0.1736 -0.4718 -0.2833
  350MOL0     C48203   2.351   9.218   7.607 -0.2301  0.6804 -0.4387
  350MOL0     C48204   2.238   9.181   7.516  0.0576 -0.6781  1.0377
  350MOL0     C48205   2.199   9.287   7.412 -0.1768  0.2431  0.1447
  350MOL0     C48206   2.099   9.242   7.307  0.1443  0.6050 -0.1681
  350MOL0    Cl48207   1.950   9.181   7.380 -0.8035 -0.4171 -0.4201
  350MOL0     C48208   2.560   9.849   8.139  0.9335  0.2549  0.1052
  350MOL0     C48209   2.541   9.883   8.268  0.5377  0.1549  0.1195
  350MOL0     O48210   2.498   9.666   8.613  0.4190 -0.2877 -0.3217
  350MOL0     C48211   2.302   9.938   8.596  0.5894 -0.0189 -0.0689
  350MOL0     C48212   2.220  10.023   8.655 -0.1768 -0.4752 -0.7354
  350MOL0     N48213   1.884  10.169   9.410 -0.0010  0.0443 -0.2130
  350MOL0     N48214   1.783  10.083   9.427  0.1302  0.8129  0.0374
  350MOL0     C48215   0.478   9.672   9.149  0.7061 -0.6338  0.0486
  350MOL0     C48216   0.377   9.613   9.068  0.0480  0.2997 -0.2161
  350MOL0     C48217   0.103   9.537   8.731  0.0914 -0.3900  0.3056
  350MOL0     C48218   0.125   9.428   8.643 -0.5637  0.2306 -0.0682
  350MOL0     C48219   0.018   9.363   8.579 -1.1761 -0.1461  0.4185
  350MOL0     C48220  -0.109   9.426   8.592  0.1493  1.1254 -0.3187
  350MOL0     O48221  -0.213   9.365   8.521  0.2109 -0.1102 -0.0766
  350MOL0     C48222  -0.251   9.235   8.567  0.2801 -0.5393 -0.2375
  350MOL0     C48223  -0.356   9.203   8.468  0.1820  0.2990  0.8614
  350MOL0     C48224  -0.490   9.209   8.533  1.0691  0.1368 -0.6674
  350MOL0     C48225  -0.602   9.197   8.429  0.5171 -0.4342  0.0241
  350MOL0     C48226  -0.585   9.087   8.331  0.3696  0.1102 -0.5163
  350MOL0     C48227  -0.562   8.984   8.262  0.0634 -0.0078 -0.5841
  350MOL0     C48228  -0.131   9.543   8.654 -0.0016 -0.4452  0.4197
  350MOL0     C48229  -0.026   9.598   8.735  0.7118  0.8002 -0.9245
  350MOL0     C48230  -0.059   9.729   8.811 -0.4403 -0.1442 -0.0738
  350MOL0     H48231   0.225   9.890   8.958 -0.1355 -1.2789  0.6715
  350MOL0     H48232   0.410   9.997   9.072 -1.2470 -0.2415 -2.7469
  350MOL0     H48233   0.710   9.976   9.039  0.1766 -2.3730 -3.6554
  350MOL0     H48234   0.744   9.803   9.036  0.5139  1.1467 -1.3185
  350MOL0     H48235   0.836   9.974   9.276 -0.4306  1.2198 -0.4531
  350MOL0     H48236   0.880   9.814   9.247 -1.6064  1.0465  2.5110
  350MOL0     H48237   0.993   9.875   9.038 -0.3259 -0.3273  0.0300
  350MOL0     H48238   0.973  10.050   9.080 -0.9362  0.6659  1.1870
  350MOL0     H48239   1.069  10.005   9.305 -0.3207 -1.4451  0.5252
  350MOL0     H48240   1.116   9.837   9.239 -1.7384 -0.4496 -0.4441
  350MOL0     H48241   1.221  10.113   9.152 -0.2160 -0.5887  0.7669
  350MOL0     H48242   1.238   9.966   9.065 -1.9223  0.4640 -0.3990
  350MOL0     H48243   1.315  10.001   9.367 -1.4066 -3.7664  0.6018
  350MOL0     H48244   1.331   9.866   9.272 -0.2988 -0.4128 -2.1641
  350MOL0     H48245   1.451  10.145   9.228 -0.8081 -0.8156  0.3353
  350MOL0     H48246   1.502  10.014   9.117 -1.8960 -3.1989  0.8725
  350MOL0     H48247   1.551   9.984   9.425 -0.1816 -0.0463  0.1166
  350MOL0     H48248   1.614   9.888   9.301 -1.0441 -0.6999  3.4369
  350MOL0     H48249   1.702  10.190   9.131  0.4825 -0.5939 -0.4844
  350MOL0     H48250   1.971  10.400   9.255 -1.8980  0.9515 -0.5760
  350MOL0     H48251   1.875  10.353   9.120  1.4447  1.4655 -0.2739
  350MOL0     H48252   2.140  10.219   9.216  0.1098  0.2550 -1.3002
  350MOL0     H48253   2.032  10.137   9.104  1.3947 -1.5855  1.2001
  350MOL0     H48254   2.043  10.335   8.941  2.4674  1.4451 -0.5910
  350MOL0     H48255   2.169  10.400   9.054 -0.0254  0.2349  0.8882
  350MOL0     H48256   2.285  10.261   8.888 -0.1924 -0.4473 -0.3195
  350MOL0     H48257   2.251  10.148   9.029 -0.8738  1.3863  2.2962
  350MOL0     H48258   2.304   9.953   8.982 -1.8668  2.8786  0.6411
  350MOL0     H48259   2.609   9.870   8.874  0.1924 -0.7924  1.1194
  350MOL0     H48260   2.536   9.719   8.863  1.2203  0.8305 -0.3097
  350MOL0     H48261   2.480   9.830   8.990 -2.5613 -2.0848 -0.0300
  350MOL0     H48262   2.698   9.615   8.410 -0.2271  0.0868 -0.6832
  350MOL0     H48263   2.739   9.557   8.173  2.6788  0.5600  1.8911
  350MOL0     H48264   2.663   9.473   7.918  0.6237  2.5201  0.8800
  350MOL0     H48265   2.533   9.475   8.045  1.0559  1.0795  1.6621
  350MOL0     H48266   2.374   9.540   7.879  0.0237 -1.6346  0.9330
  350MOL0     H48267   2.505   9.585   7.768 -0.0139 -1.6781 -1.8821
  350MOL0     H48268   2.434   9.298   7.854 -1.4198  0.7442  1.3970
  350MOL0     H48269   2.551   9.345   7.729  0.2500  1.0635 -0.2420
  350MOL0     H48270   2.340   9.442   7.597  2.7681 -0.8925 -1.0860
  350MOL0     H48271   2.254   9.357   7.729 -0.1546 -1.7063 -0.9040
  350MOL0     H48272   2.451   9.202   7.566  0.0440  2.4750 -0.5576
  350MOL0     H48273   2.350   9.145   7.689  3.5962  0.9730  0.0390
  350MOL0     H48274   2.152   9.165   7.581 -0.7333 -1.5542 -0.1641
  350MOL0     H48275   2.263   9.088   7.463 -2.9552 -0.8662 -0.3158
  350MOL0     H48276   2.285   9.327   7.358  0.4374 -0.6170  0.4817
  350MOL0     H48277   2.149   9.373   7.458  1.1110  0.8633  0.4058
  350MOL0     H48278   2.143   9.174   7.234  0.7812  0.0338  0.7153
  350MOL0     H48279   2.062   9.328   7.251 -1.3099  0.1453  0.0455
  350MOL0     H48280   2.507   9.907   8.065  0.6651 -1.1050 -0.8195
  350MOL0     H48281   2.505   9.981   8.298  1.5062  0.9804 -1.3178
  350MOL0     H48282   2.289   9.922   8.489  0.5750 -2.2713  0.2198
  350MOL0     H48283   2.151  10.078   8.592  0.8699  0.7759 -0.8279
  350MOL0     H48284   0.540   9.602   9.205  1.1274  1.2162  2.0189
  350MOL0     H48285   0.383   9.506   9.048 -0.1502 -0.1981  2.1264
  350MOL0     H48286   0.226   9.389   8.631 -0.0390  0.8920  1.7691
  350MOL0     H48287   0.043   9.274   8.523 -2.1586 -0.3115  0.2268
  350MOL0     H48288  -0.168   9.163   8.565  0.7053 -0.0495 -0.2798
  350MOL0     H48289  -0.282   9.240   8.672  2.1929 -1.7629  0.4611
  350MOL0     H48290  -0.352   9.103   8.425 -3.7669  1.3626 -2.7527
  350MOL0     H48291  -0.348   9.270   8.381 -1.9377 -2.2888 -1.5049
  350MOL0     H48292  -0.488   9.126   8.603  0.9863 -1.1084 -2.0946
  350MOL0     H48293  -0.502   9.300   8.593 -1.8423 -2.4394  3.1591
  350MOL0     H48294  -0.625   9.287   8.371 -2.9868  1.0669  3.3110
  350MOL0     H48295  -0.698   9.195   8.481 -0.6373  0.0965 -1.9829
  350MOL0     H48296  -0.532   8.897   8.207  4.2267  0.8442  0.0096
  350MOL0     H48297  -0.233   9.580   8.652 -0.3597 -1.3954 -0.5353
  350MOL0     H48298  -0.141   9.788   8.768 -1.1592  1.0974  2.7528
  350MOL0     H48299  -0.088   9.711   8.915 -2.0881 -0.4140 -0.5518
  350MOL0     H48300   0.030   9.792   8.813 -0.0182 -0.7560  1.7060
  351MOL0     O48301   0.323   2.433   3.464  0.2180  0.7844 -0.4056
  351MOL0     C48302   0.380   2.325   3.485  0.1952 -0.0933 -0.1773
  351MOL0     O48303   0.320   2.209   3.530 -0.9454  1.0614  0.0558
  351MOL0     C48304   0.188   2.220   3.538 -0.6244  0.8650 -0.3520
  351MOL0     C48305   0.135   2.225   3.669 -0.2970  1.1475  0.3029
  351MOL0     C48306  -0.001   2.256   3.686  0.2162 -0.0597  0.1329
  351MOL0     C48307  -0.082   2.273   3.570 -0.3135  0.0642 -0.0525
  351MOL0     O48308  -0.223   2.285   3.604 -0.2860  0.3713 -0.5015
  351MOL0     C48309  -0.321   2.283   3.499 -0.8092 -0.9823  0.1400
  351MOL0     C48310  -0.457   2.310   3.559 -0.0911 -0.1970 -0.0238
  351MOL0     C48311  -0.579   2.315   3.466  0.7627 -0.2973 -0.2499
  351MOL0     C48312  -0.619   2.173   3.431 -0.1576  0.5103 -0.1813
  351MOL0     C48313  -0.736   2.165   3.324  0.7985  0.8281 -0.3866
  351MOL0     C48314  -0.877   2.158   3.397  0.0888 -0.4424 -0.3863
  351MOL0     C48315  -0.995   2.165   3.300 -0.1787 -0.5227 -0.6236
  351MOL0     C48316  -1.009   2.040   3.222  0.1519  1.2746 -0.0635
  351MOL0     N48317  -1.087   2.066   3.100  0.5654 -0.0961 -0.6416
  351MOL0     C48318  -1.219   2.030   3.081 -0.2154  0.5013 -0.8907
  351MOL0     C48319  -1.248   2.076   2.958 -0.0683  0.5988 -0.5486
  351MOL0     C48320  -1.380   2.069   2.880  0.0114 -0.0888 -0.2126
  351MOL0     C48321  -1.467   1.935   2.898 -0.7135 -1.2737 -0.3715
  351MOL0     C48322  -1.411   1.821   2.810 -0.4455 -0.0429 -0.6629
  351MOL0     C48323  -1.477   1.686   2.836  0.0399  0.0056  0.2851
  351MOL0     O48324  -1.623   1.692   2.798  0.3701 -0.0612 -0.2306
  351MOL0     C48325  -1.654   1.640   2.674  0.0815 -0.0620 -0.8075
  351MOL0     C48326  -1.632   1.501   2.647 -1.0029 -0.3024  0.3670
  351MOL0     C48327  -1.661   1.442   2.522 -0.6860 -0.6315 -0.2558
  351MOL0     C48328  -1.632   1.291   2.518  0.1516  0.5023 -0.1518
  351MOL0     C48329  -1.709   1.526   2.418  0.1177 -0.2350  0.0663
  351MOL0     C48330  -1.731   1.477   2.279 -0.5809 -0.9085 -0.1723
  351MOL0     O48331  -1.787   1.576   2.199  0.7562  0.5518  0.5781
  351MOL0     C48332  -1.789   1.557   2.062  0.2013 -0.0352  0.8426
  351MOL0     C48333  -1.872   1.476   1.984  0.1861 -0.2956 -0.2504
  351MOL0     C48334  -1.857   1.470   1.840 -0.0970  0.6568 -0.3194
  351MOL0     C48335  -1.780   1.559   1.774 -0.6938  0.1791  0.0379
  351MOL0     O48336  -1.743   1.562   1.640  0.4693  1.4713  0.8474
  351MOL0     C48337  -1.801   1.458   1.556  0.6412 -0.0877  0.1815
  351MOL0     C48338  -1.740   1.465   1.417 -1.0966  0.6491 -0.3402
  351MOL0     C48339  -1.794   1.355   1.322  0.0046 -0.6822  0.1417
  351MOL0     C48340  -1.731   1.346   1.183  0.0632  0.7977 -0.1528
  351MOL0     C48341  -1.790   1.462   1.090  0.1708 -0.3483 -0.2182
  351MOL0     C48342  -1.844   1.403   0.960  0.0839 -0.2364  0.0191
  351MOL0     C48343  -1.879   1.519   0.868  0.4864  0.8990 -0.0498
  351MOL0     C48344  -1.924   1.480   0.735  0.2463  0.0664  1.0250
  351MOL0    Cl48345  -1.788   1.418   0.641  0.3985  0.1704  0.1865
  351MOL0     C48346  -1.702   1.653   1.847  0.4201 -0.3661 -0.2499
  351MOL0     C48347  -1.712   1.651   1.994  0.4543 -0.9608  0.6387
  351MOL0     O48348  -1.689   1.375   2.229  0.2508 -0.0960  0.3052
  351MOL0     C48349  -1.733   1.666   2.448  0.3090  0.4440  0.4114
  351MOL0     C48350  -1.705   1.719   2.569 -0.4996  1.0111 -0.6627
  351MOL0     N48351  -1.136   2.140   2.905 -0.3162 -0.6789  0.3607
  351MOL0     N48352  -1.037   2.124   2.986  0.3154 -0.5283  0.1092
  351MOL0     C48353  -0.027   2.265   3.441  0.1329 -0.1374  0.0099
  351MOL0     C48354   0.108   2.243   3.423 -0.9797  0.6302 -0.0564
  351MOL0     C48355   0.538   2.342   3.477  0.5724 -0.3155 -0.5628
  351MOL0     C48356   0.592   2.467   3.463 -0.3491 -0.1694  0.0429
  351MOL0     C48357   0.728   2.484   3.445  0.3456 -0.5122 -0.3573
  351MOL0     C48358   0.814   2.380   3.425  0.4810  0.8560 -0.1243
  351MOL0     O48359   0.943   2.412   3.399  0.2606  0.1437 -0.4690
  351MOL0     C48360   1.047   2.309   3.387 -0.3145 -0.1531 -0.6546
  351MOL0     C48361   1.176   2.362   3.323  0.2533  0.0422 -0.8868
  351MOL0     C48362   1.246   2.460   3.420  1.0039  0.2355  0.3791
  351MOL0     C48363   1.207   2.605   3.420 -0.0561  1.3152 -0.2185
  351MOL0     C48364   1.212   2.671   3.294  0.2070  0.8076  0.5523
  351MOL0     C48365   1.212   2.733   3.188  0.3314  0.3686  0.0387
  351MOL0     C48366   0.763   2.252   3.438  0.2603 -0.2255  0.1414
  351MOL0     C48367   0.622   2.229   3.468 -0.0302 -0.3044 -1.3999
  351MOL0     C48368   0.577   2.087   3.477  0.7550  0.5281 -0.3827
  351MOL0     H48369   0.209   2.221   3.749  0.4483  0.5673 -0.4053
  351MOL0     H48370  -0.056   2.256   3.779  1.8360 -1.4133  1.1473
  351MOL0     H48371  -0.315   2.195   3.434  2.4875 -0.0905 -1.0079
  351MOL0     H48372  -0.289   2.366   3.434  1.7825  0.8553  3.4293
  351MOL0     H48373  -0.476   2.229   3.630 -0.9842 -0.0881 -0.1263
  351MOL0     H48374  -0.458   2.409   3.606  0.3022 -0.6048  0.8793
  351MOL0     H48375  -0.665   2.365   3.512 -0.5658 -1.5597 -1.2712
  351MOL0     H48376  -0.557   2.386   3.385 -0.5807  1.7988  1.1407
  351MOL0     H48377  -0.537   2.121   3.379 -1.3753  0.3471 -2.0344
  351MOL0     H48378  -0.646   2.124   3.525  1.8839 -0.2184  0.0916
  351MOL0     H48379  -0.734   2.068   3.274 -1.5171  0.6305 -0.2272
  351MOL0     H48380  -0.738   2.242   3.247 -0.2638  1.0776 -0.1249
  351MOL0     H48381  -0.889   2.079   3.471 -2.5142 -1.3135 -1.6379
  351MOL0     H48382  -0.877   2.247   3.460 -0.7982 -0.2589 -0.6326
  351MOL0     H48383  -0.967   2.246   3.233 -0.4817  1.5057  1.5636
  351MOL0     H48384  -1.091   2.185   3.349  0.2831  0.6574 -0.1531
  351MOL0     H48385  -0.909   2.004   3.195  0.8252  1.2690  2.1909
  351MOL0     H48386  -1.053   1.957   3.278  3.3905 -0.3676  0.2953
  351MOL0     H48387  -1.283   1.980   3.153 -0.6553  1.8244 -0.3382
  351MOL0     H48388  -1.359   2.093   2.776  1.6246 -2.2673 -0.4415
  351MOL0     H48389  -1.441   2.149   2.923 -0.4294 -0.1581 -0.7111
  351MOL0     H48390  -1.486   1.906   3.002 -2.3338  0.0529 -0.2578
  351MOL0     H48391  -1.565   1.974   2.870 -0.2601  1.3512  1.4027
  351MOL0     H48392  -1.432   1.848   2.706 -5.7098 -0.0751  0.1035
  351MOL0     H48393  -1.304   1.812   2.829 -0.3757  2.0747  0.2654
  351MOL0     H48394  -1.417   1.611   2.784  0.5044 -0.3985  1.3580
  351MOL0     H48395  -1.482   1.670   2.944  1.4253 -0.6063  0.2725
  351MOL0     H48396  -1.593   1.435   2.724 -0.8080 -1.2600 -0.5417
  351MOL0     H48397  -1.730   1.242   2.514  0.4241  0.0289 -1.1874
  351MOL0     H48398  -1.586   1.260   2.612  1.0843  0.3192 -0.6567
  351MOL0     H48399  -1.579   1.266   2.425  0.5994  0.7425  0.0344
  351MOL0     H48400  -1.939   1.412   2.041  0.9818  0.7017  1.8954
  351MOL0     H48401  -1.907   1.388   1.789 -0.4708 -0.8175  2.2448
  351MOL0     H48402  -1.782   1.359   1.598  1.5288  0.8031  1.9724
  351MOL0     H48403  -1.907   1.488   1.555  1.1281  1.7464 -0.1752
  351MOL0     H48404  -1.757   1.568   1.386 -1.6292  2.1077  4.0657
  351MOL0     H48405  -1.632   1.457   1.435 -1.3556  1.5917  1.9866
  351MOL0     H48406  -1.897   1.385   1.304  1.0373  1.1825 -3.5372
  351MOL0     H48407  -1.788   1.261   1.378  1.6836  0.8801  2.8341
  351MOL0     H48408  -1.745   1.240   1.161  1.2431  0.6774 -0.4159
  351MOL0     H48409  -1.623   1.367   1.182 -0.1128  1.9499  1.2629
  351MOL0     H48410  -1.874   1.504   1.146 -0.8682 -2.7116  0.1486
  351MOL0     H48411  -1.726   1.547   1.066 -3.6272  2.1432 -2.4306
  351MOL0     H48412  -1.937   1.348   0.976  1.0050 -2.2714 -1.2749
  351MOL0     H48413  -1.776   1.329   0.917 -2.2522 -0.4730 -3.6458
  351MOL0     H48414  -1.790   1.582   0.857  0.3528  1.2775  0.9754
  351MOL0     H48415  -1.947   1.596   0.905  0.1096  1.6260 -2.1147
  351MOL0     H48416  -1.971   1.567   0.689  3.1575  0.0820 -2.3077
  351MOL0     H48417  -2.001   1.403   0.745  1.1735 -1.1146 -0.5941
  351MOL0     H48418  -1.633   1.716   1.792  1.3655 -3.0442 -2.3149
  351MOL0     H48419  -1.653   1.717   2.057 -0.0243 -1.4673  1.6503
  351MOL0     H48420  -1.794   1.734   2.389  1.0586  1.2609  0.5655
  351MOL0     H48421  -1.732   1.819   2.600  1.2422  1.5205 -0.6681
  351MOL0     H48422  -0.087   2.281   3.353  0.6436  2.7788  0.0917
  351MOL0     H48423   0.157   2.248   3.326 -1.2484 -0.6395 -0.2717
  351MOL0     H48424   0.537   2.561   3.464 -0.2634 -0.0985 -1.0845
  351MOL0     H48425   0.761   2.587   3.437 -0.2790 -0.1794  1.0675
  351MOL0     H48426   1.072   2.268   3.485  2.3354  1.6543 -0.4618
  351MOL0     H48427   1.014   2.223   3.329 -1.0796 -0.8433  0.7616
  351MOL0     H48428   1.150   2.400   3.223 -2.3882  0.2549 -0.2052
  351MOL0     H48429   1.243   2.277   3.310  1.5497  0.3645  2.6456
  351MOL0     H48430   1.215   2.431   3.521 -1.0164 -1.5261 -0.6696
  351MOL0     H48431   1.354   2.445   3.416  0.7230 -1.9613 -0.3414
  351MOL0     H48432   1.262   2.665   3.493 -3.5278  0.2653  3.6455
  351MOL0     H48433   1.102   2.608   3.451 -0.3167 -2.1045 -0.3827
  351MOL0     H48434   1.209   2.797   3.102 -3.4714  0.4807  0.0762
  351MOL0     H48435   0.828   2.166   3.427  0.1784 -0.1955 -0.6387
  351MOL0     H48436   0.653   2.022   3.431 -2.5145 -2.1605 -2.4428
  351MOL0     H48437   0.548   2.057   3.578  3.0102  1.5401  0.6472
  351MOL0     H48438   0.489   2.069   3.415  0.8231 -2.3335  0.2083
  352MOL0     O48439   0.468   3.788   3.191  0.0672  0.0943 -0.2073
  352MOL0     C48440   0.523   3.884   3.247  0.4269 -0.1531  0.8762
  352MOL0     O48441   0.646   3.882   3.292 -0.4790  0.4825  0.1798
  352MOL0     C48442   0.748   3.826   3.220  0.6921 -0.2340 -0.7525
  352MOL0     C48443   0.871   3.844   3.272  0.2726 -0.1729 -0.6111
  352MOL0     C48444   0.985   3.814   3.195 -0.3369 -0.3356 -0.5937
  352MOL0     C48445   0.976   3.758   3.069  0.0216  0.2968 -0.6315
  352MOL0     O48446   1.094   3.742   2.999 -0.4580 -0.3069  1.0235
  352MOL0     C48447   1.096   3.658   2.877  0.3685 -0.6382  0.0233
  352MOL0     C48448   1.245   3.624   2.865 -0.0739 -0.0582  0.4829
  352MOL0     C48449   1.273   3.526   2.741  0.7689 -0.7646  0.3480
  352MOL0     C48450   1.172   3.411   2.719  0.9376  0.5671  0.2894
  352MOL0     C48451   1.227   3.283   2.645  1.1686  0.8401 -0.0410
  352MOL0     C48452   1.272   3.314   2.507  0.1217  0.0425 -0.4033
  352MOL0     C48453   1.317   3.185   2.432  0.3061 -0.3763  0.1724
  352MOL0     C48454   1.349   3.213   2.287 -0.4432 -0.0340  0.8370
  352MOL0     N48455   1.469   3.300   2.276  0.5134 -0.9130  0.4293
  352MOL0     C48456   1.596   3.285   2.323  0.9788 -0.4800  1.7253
  352MOL0     C48457   1.671   3.394   2.283  0.0016 -0.2345  0.3959
  352MOL0     C48458   1.811   3.409   2.293  1.4906 -0.3267 -0.1329
  352MOL0     C48459   1.873   3.372   2.428 -0.2958 -0.5151  0.5930
  352MOL0     C48460   2.021   3.401   2.421  0.2416 -0.8086 -0.2848
  352MOL0     C48461   2.076   3.405   2.569  0.0462 -0.1873  0.2162
  352MOL0     O48462   2.189   3.317   2.582 -0.6992  0.4361 -0.0488
  352MOL0     C48463   2.319   3.359   2.561 -0.5252  0.3920  0.2358
  352MOL0     C48464   2.349   3.481   2.507 -0.5380 -0.8161 -0.6913
  352MOL0     C48465   2.483   3.532   2.499 -0.5789  1.0248 -0.4935
  352MOL0     C48466   2.504   3.671   2.454  0.6688  0.8556 -0.0073
  352MOL0     C48467   2.584   3.454   2.554 -0.3245 -0.2554  0.0106
  352MOL0     C48468   2.734   3.493   2.548 -0.3042 -0.1020 -0.6231
  352MOL0     O48469   2.826   3.406   2.610  0.0960  0.1654 -0.8545
  352MOL0     C48470   2.955   3.448   2.625 -0.3362 -0.6401  0.1267
  352MOL0     C48471   3.030   3.457   2.507  0.1605 -0.7514 -0.0219
  352MOL0     C48472   3.154   3.517   2.513 -0.8169  0.2201  0.3669
  352MOL0     C48473   3.211   3.565   2.630 -0.5651  0.5345  0.0462
  352MOL0     O48474   3.321   3.643   2.623 -0.3265  0.2465 -0.0608
  352MOL0     C48475   3.389   3.678   2.741  0.2618 -0.0616  0.2206
  352MOL0     C48476   3.526   3.724   2.712 -0.1537  0.1465 -0.6330
  352MOL0     C48477   3.579   3.779   2.840 -0.4803  0.4681 -0.2588
  352MOL0     C48478   3.735   3.793   2.849 -0.1334 -0.5050 -0.4387
  352MOL0     C48479   3.809   3.669   2.902 -0.0220 -0.3334  0.0723
  352MOL0     C48480   3.949   3.679   2.884  0.0362 -0.3977 -0.1351
  352MOL0     C48481   4.017   3.574   2.967  0.6231  0.1721 -0.2105
  352MOL0     C48482   4.168   3.589   2.948 -0.3396  0.8356 -0.1635
  352MOL0    Cl48483   4.243   3.714   3.049  0.0975  0.0013 -0.3209
  352MOL0     C48484   3.146   3.538   2.748  1.1762  0.2730  0.2279
  352MOL0     C48485   3.015   3.480   2.747 -0.1298  0.6619  0.5744
  352MOL0     O48486   2.766   3.592   2.488  0.2664 -0.2518 -0.9630
  352MOL0     C48487   2.555   3.323   2.597  0.1706  0.0716  0.1773
  352MOL0     C48488   2.423   3.273   2.602 -0.3111 -0.3685  0.3434
  352MOL0     N48489   1.585   3.476   2.218 -0.3260  0.1002 -0.5479
  352MOL0     N48490   1.462   3.422   2.210 -0.0764  0.5608  0.2535
  352MOL0     C48491   0.850   3.736   3.022  0.1325 -0.4327 -0.0246
  352MOL0     C48492   0.734   3.771   3.090 -0.0708  0.6436 -0.6771
  352MOL0     C48493   0.443   4.003   3.283  0.2586 -0.1737 -0.3786
  352MOL0     C48494   0.298   3.988   3.269  0.0648 -0.4522 -0.2616
  352MOL0     C48495   0.217   4.090   3.296 -0.6874  0.6619  0.0201
  352MOL0     C48496   0.269   4.222   3.310  0.5209 -0.3601  0.3221
  352MOL0     O48497   0.199   4.340   3.314  0.5038  0.6001 -0.5846
  352MOL0     C48498   0.064   4.335   3.369 -0.7347  0.2317 -0.3731
  352MOL0     C48499  -0.043   4.353   3.272  0.2139  0.2479 -0.0851
  352MOL0     C48500  -0.190   4.376   3.324 -0.3622  0.4110 -0.4206
  352MOL0     C48501  -0.255   4.261   3.409 -0.3196 -0.0063 -0.1135
  352MOL0     C48502  -0.308   4.154   3.321 -0.6129 -0.0865  0.4360
  352MOL0     C48503  -0.364   4.078   3.246  0.3493 -1.0338 -1.2966
  352MOL0     C48504   0.403   4.243   3.309 -0.3688  0.6874 -0.7472
  352MOL0     C48505   0.495   4.137   3.303  0.6662  0.1559  0.1176
  352MOL0     C48506   0.638   4.169   3.312 -0.6406  0.0843 -0.8119
  352MOL0     H48507   0.892   3.897   3.364 -1.0304  0.0156 -0.3935
  352MOL0     H48508   1.081   3.847   3.233 -0.0197 -0.7393 -1.0311
  352MOL0     H48509   1.063   3.713   2.788  0.7528 -0.3057  0.0790
  352MOL0     H48510   1.032   3.572   2.894 -0.9506 -0.0064 -1.5003
  352MOL0     H48511   1.309   3.713   2.852  1.4281 -1.1530  0.0363
  352MOL0     H48512   1.276   3.578   2.959  0.1221 -3.7179 -1.2316
  352MOL0     H48513   1.263   3.595   2.657 -2.7337 -1.2870  0.1933
  352MOL0     H48514   1.379   3.500   2.739  0.2936 -2.8888  0.9409
  352MOL0     H48515   1.126   3.376   2.811 -2.9431  2.2654 -0.8044
  352MOL0     H48516   1.089   3.458   2.666  1.5642 -1.4517 -2.7834
  352MOL0     H48517   1.141   3.215   2.641  0.5311  1.6257  0.1751
  352MOL0     H48518   1.311   3.228   2.689 -1.2522 -2.4426  0.8467
  352MOL0     H48519   1.192   3.370   2.457 -1.3506 -0.3257  1.4191
  352MOL0     H48520   1.358   3.379   2.525  0.8609 -1.0299  0.0778
  352MOL0     H48521   1.238   3.110   2.432  0.9073 -1.0129  0.5578
  352MOL0     H48522   1.389   3.129   2.492  0.3231 -0.0406  0.4682
  352MOL0     H48523   1.374   3.129   2.222 -2.4168  0.0074 -0.0415
  352MOL0     H48524   1.273   3.272   2.235  1.0226 -0.3026 -1.7672
  352MOL0     H48525   1.619   3.198   2.383 -0.0079 -0.5134  2.0839
  352MOL0     H48526   1.823   3.514   2.267  1.1982 -0.3398 -0.3240
  352MOL0     H48527   1.851   3.346   2.213  1.5203 -1.5670  0.8256
  352MOL0     H48528   1.823   3.446   2.491  3.6272  2.3865  0.6924
  352MOL0     H48529   1.867   3.267   2.459  2.3507 -0.6413  0.9285
  352MOL0     H48530   2.068   3.317   2.370 -0.9952  0.9086 -4.7802
  352MOL0     H48531   2.044   3.495   2.369 -1.4186  1.1054  2.1708
  352MOL0     H48532   2.103   3.507   2.600  0.8295  0.0095 -1.0056
  352MOL0     H48533   1.998   3.365   2.633 -0.8269  1.0278 -0.0453
  352MOL0     H48534   2.271   3.549   2.474  0.3237  0.2826 -0.5002
  352MOL0     H48535   2.539   3.729   2.540  1.7513 -0.7995  0.7108
  352MOL0     H48536   2.405   3.704   2.421  0.4704  0.0334 -0.2571
  352MOL0     H48537   2.581   3.678   2.376  0.9743 -0.3213  0.1707
  352MOL0     H48538   2.994   3.439   2.406 -1.2186  0.1872  0.2731
  352MOL0     H48539   3.203   3.518   2.416 -2.2199 -2.0474 -0.4506
  352MOL0     H48540   3.330   3.756   2.789 -0.2931 -0.1250 -0.3551
  352MOL0     H48541   3.381   3.596   2.814 -0.3998  0.4918  0.7816
  352MOL0     H48542   3.579   3.635   2.677 -2.0992 -0.0441 -3.3810
  352MOL0     H48543   3.538   3.791   2.627 -1.3833  3.6266  1.6885
  352MOL0     H48544   3.542   3.723   2.926 -1.4662  3.4878  1.4504
  352MOL0     H48545   3.543   3.882   2.854 -2.1238 -0.1459  0.3232
  352MOL0     H48546   3.762   3.876   2.915 -2.5658 -2.1136  2.8471
  352MOL0     H48547   3.764   3.806   2.744  2.8239  0.4878  0.3732
  352MOL0     H48548   3.785   3.654   3.008  2.6621  0.1218  0.8036
  352MOL0     H48549   3.774   3.581   2.846  0.4894  1.2305 -2.9315
  352MOL0     H48550   3.985   3.781   2.899 -0.2762 -0.0303 -1.6822
  352MOL0     H48551   3.968   3.665   2.777 -1.1976 -0.9187 -0.3017
  352MOL0     H48552   3.986   3.476   2.931 -1.4162  0.4977  0.5443
  352MOL0     H48553   4.005   3.580   3.076  0.9544 -1.7318 -0.0428
  352MOL0     H48554   4.200   3.590   2.843 -1.2170 -0.6991 -0.4720
  352MOL0     H48555   4.213   3.493   2.972  0.2122  0.8441 -1.0967
  352MOL0     H48556   3.191   3.559   2.845  1.3664 -1.6415  0.5924
  352MOL0     H48557   2.977   3.464   2.847  1.5123  2.0531  1.4634
  352MOL0     H48558   2.631   3.255   2.633 -1.0096 -1.5704 -0.3501
  352MOL0     H48559   2.401   3.179   2.651 -3.8629 -0.1887 -0.6674
  352MOL0     H48560   0.839   3.713   2.917  1.8465 -1.2218 -0.0704
  352MOL0     H48561   0.648   3.759   3.024 -0.0696  2.1917 -0.9970
  352MOL0     H48562   0.259   3.889   3.248 -2.9509  1.0782 -2.6791
  352MOL0     H48563   0.110   4.073   3.297 -0.7102  0.7318  1.9332
  352MOL0     H48564   0.049   4.248   3.433  0.1661 -0.7207 -1.4052
  352MOL0     H48565   0.059   4.423   3.434 -0.9321 -0.0224 -0.0467
  352MOL0     H48566  -0.054   4.259   3.217  2.8664 -0.3706  0.3367
  352MOL0     H48567  -0.013   4.425   3.196 -1.6394  2.2807  0.9947
  352MOL0     H48568  -0.197   4.468   3.383  1.2134 -0.5537  1.3789
  352MOL0     H48569  -0.259   4.396   3.241 -0.9717  2.1003  0.4614
  352MOL0     H48570  -0.336   4.315   3.460 -1.1136 -0.3248 -1.0039
  352MOL0     H48571  -0.186   4.225   3.486 -1.4378 -3.5949 -0.6000
  352MOL0     H48572  -0.400   3.996   3.188  2.0368 -2.6659 -0.1499
  352MOL0     H48573   0.442   4.344   3.306  3.1275 -0.5133 -3.0462
  352MOL0     H48574   0.678   4.175   3.211  0.5227 -1.6016 -0.4926
  352MOL0     H48575   0.653   4.257   3.376 -1.5976 -0.4997  0.2613
  352MOL0     H48576   0.709   4.098   3.354  1.0643  1.9188 -0.4555
  353MOL0     O48577   4.225   1.091   3.818  0.0449  0.0009 -0.0066
  353MOL0     C48578   4.321   1.016   3.862  0.9373  0.4459 -0.9464
  353MOL0     O48579   4.451   1.053   3.876 -0.9344  0.5767 -0.5534
  353MOL0     C48580   4.498   1.171   3.820 -1.3688  0.1338  0.4969
  353MOL0     C48581   4.623   1.225   3.873  0.4891 -0.2172 -0.2721
  353MOL0     C48582   4.677   1.341   3.812  0.0281  0.2352 -0.1627
  353MOL0     C48583   4.622   1.397   3.697  0.4509 -0.1186 -0.0034
  353MOL0     O48584   4.665   1.512   3.638  0.2888 -0.0354  0.4736
  353MOL0     C48585   4.793   1.555   3.692 -0.2197 -1.4553  0.0936
  353MOL0     C48586   4.846   1.685   3.632  0.0520  0.8393 -0.3593
  353MOL0     C48587   4.988   1.705   3.673 -1.0796 -0.3349 -0.0898
  353MOL0     C48588   5.017   1.733   3.821  0.5391  0.6664  0.4231
  353MOL0     C48589   5.154   1.799   3.842 -1.1530 -1.0767  0.1127
  353MOL0     C48590   5.189   1.801   3.993  0.1698 -0.4691 -0.2498
  353MOL0     C48591   5.329   1.860   4.025 -0.6292  0.4525  0.7846
  353MOL0     C48592   5.343   1.884   4.169  1.9683  0.1116  0.2412
  353MOL0     N48593   5.486   1.896   4.208  0.8044  0.0065  0.6032
  353MOL0     C48594   5.552   1.809   4.295  0.0310 -0.5487 -0.0306
  353MOL0     C48595   5.687   1.852   4.292 -0.0970 -0.3467  0.2570
  353MOL0     C48596   5.809   1.774   4.337 -0.1181  0.6896  0.3264
  353MOL0     C48597   5.852   1.667   4.238 -0.4329 -0.2851 -0.7130
  353MOL0     C48598   5.953   1.576   4.294  0.1551  0.0393  0.2614
  353MOL0     C48599   5.981   1.443   4.218  0.3323  0.3551  0.0813
  353MOL0     O48600   6.118   1.459   4.181 -0.2485  0.1905 -0.5432
  353MOL0     C48601   6.171   1.374   4.090  0.2512 -0.8663 -0.6920
  353MOL0     C48602   6.111   1.257   4.046  0.4719 -0.5321 -0.3070
  353MOL0     C48603   6.172   1.172   3.958 -0.2307 -0.4939  0.1542
  353MOL0     C48604   6.100   1.054   3.903  0.9378  0.3698 -0.4037
  353MOL0     C48605   6.306   1.202   3.916 -0.7335 -0.5011  0.5807
  353MOL0     C48606   6.380   1.116   3.820 -0.4880  0.1441 -0.6451
  353MOL0     O48607   6.475   1.184   3.741 -0.3890  0.5201  1.0800
  353MOL0     C48608   6.547   1.108   3.647  1.0626  0.1706  1.2503
  353MOL0     C48609   6.509   1.137   3.511  0.0019  0.0359 -0.1174
  353MOL0     C48610   6.557   1.043   3.416  0.2933 -0.3664  0.3770
  353MOL0     C48611   6.649   0.938   3.454  0.3511 -0.4780  0.3172
  353MOL0     O48612   6.696   0.857   3.349 -0.0795 -0.1908  0.4576
  353MOL0     C48613   6.742   0.729   3.372  0.6711 -0.0310  1.0416
  353MOL0     C48614   6.751   0.660   3.231  0.3001  0.8341 -0.1408
  353MOL0     C48615   6.612   0.606   3.177  0.1637  0.2555 -0.6828
  353MOL0     C48616   6.626   0.578   3.028  0.8946 -0.1480  0.6260
  353MOL0     C48617   6.509   0.499   2.963 -0.0506 -0.0727  0.3753
  353MOL0     C48618   6.516   0.510   2.814  0.8432  0.3834  0.6017
  353MOL0     C48619   6.475   0.644   2.738 -0.3726  0.2501 -0.1239
  353MOL0     C48620   6.444   0.636   2.592  0.8504 -0.0594 -0.3493
  353MOL0    Cl48621   6.588   0.588   2.504 -0.5041 -0.1264  0.3234
  353MOL0     C48622   6.694   0.926   3.586  1.7078  0.4683  0.6120
  353MOL0     C48623   6.635   1.009   3.680 -0.8553 -0.1130  0.1662
  353MOL0     O48624   6.372   0.995   3.808  0.4337  0.5715  0.8078
  353MOL0     C48625   6.370   1.327   3.954 -0.6192  0.5746  0.8021
  353MOL0     C48626   6.301   1.408   4.042 -0.9298 -0.7669  0.6798
  353MOL0     N48627   5.691   1.978   4.227 -0.1959 -0.0235  0.2392
  353MOL0     N48628   5.566   1.999   4.170  0.4679  0.4950  0.1346
  353MOL0     C48629   4.511   1.332   3.640 -1.3910  0.5096  0.3071
  353MOL0     C48630   4.455   1.222   3.698 -0.1247  0.2190 -0.0975
  353MOL0     C48631   4.279   0.880   3.917  0.1793 -1.2922 -0.9867
  353MOL0     C48632   4.162   0.828   3.863  0.3496 -0.9626 -0.2064
  353MOL0     C48633   4.121   0.702   3.890 -0.0322  0.4268  0.5177
  353MOL0     C48634   4.194   0.626   3.979  0.2503  1.1219  0.3556
  353MOL0     O48635   4.155   0.496   4.021  0.7195  0.1744  0.1652
  353MOL0     C48636   4.053   0.431   3.955  0.6356 -0.4979  0.2053
  353MOL0     C48637   4.018   0.304   4.025  0.8103  0.2167  0.1045
  353MOL0     C48638   3.992   0.317   4.182  0.6997 -0.7231 -0.2020
  353MOL0     C48639   3.936   0.193   4.247 -0.5592 -0.7119  0.8179
  353MOL0     C48640   4.042   0.105   4.301 -0.1664 -0.2683 -1.0616
  353MOL0     C48641   4.111   0.016   4.347 -0.8733 -0.5391  0.6418
  353MOL0     C48642   4.308   0.682   4.044  0.0868 -0.3276  0.6665
  353MOL0     C48643   4.356   0.809   4.005 -0.3635  0.9260  0.0478
  353MOL0     C48644   4.485   0.856   4.058 -0.1493 -0.3004 -0.5892
  353MOL0     H48645   4.662   1.182   3.965 -1.0005  1.8182  1.4096
  353MOL0     H48646   4.774   1.371   3.852  0.0060  2.2794 -1.5189
  353MOL0     H48647   4.864   1.473   3.682 -0.8716 -1.8173 -1.8512
  353MOL0     H48648   4.789   1.590   3.796 -1.8733  2.7206 -1.1966
  353MOL0     H48649   4.849   1.678   3.523  0.6025 -0.4640 -0.2757
  353MOL0     H48650   4.785   1.771   3.662  2.7252  1.4942  4.2824
  353MOL0     H48651   5.042   1.628   3.618 -3.1232  1.3121 -4.9324
  353MOL0     H48652   5.025   1.798   3.629  0.6913 -1.0351 -0.1564
  353MOL0     H48653   4.946   1.805   3.864 -0.3155  0.2893 -0.3115
  353MOL0     H48654   5.007   1.645   3.884 -0.7130 -0.4384 -1.2139
  353MOL0     H48655   5.153   1.901   3.804  2.2367 -0.1394  2.1578
  353MOL0     H48656   5.231   1.757   3.776 -0.6796 -3.6433  2.1068
  353MOL0     H48657   5.117   1.859   4.052  0.5430  0.6777 -0.8961
  353MOL0     H48658   5.196   1.702   4.039  0.5124 -0.7599 -0.9199
  353MOL0     H48659   5.359   1.944   3.962  0.3906  0.7255  1.6107
  353MOL0     H48660   5.398   1.779   3.999 -0.1205  0.8020  1.0280
  353MOL0     H48661   5.298   1.984   4.171  1.4297  0.1860 -4.2876
  353MOL0     H48662   5.284   1.815   4.230  1.8220 -0.5358 -0.6129
  353MOL0     H48663   5.516   1.725   4.353  1.7427 -1.8953 -0.8264
  353MOL0     H48664   5.800   1.732   4.437  0.3415  0.5358  0.3043
  353MOL0     H48665   5.888   1.849   4.341 -0.4517  1.0914 -0.3854
  353MOL0     H48666   5.768   1.600   4.218 -0.0669 -1.6852  1.9873
  353MOL0     H48667   5.892   1.717   4.149 -4.9656  1.3919 -2.0826
  353MOL0     H48668   6.045   1.632   4.315 -0.5093  1.2549  0.0474
  353MOL0     H48669   5.920   1.536   4.390 -2.5293 -1.7827 -1.3013
  353MOL0     H48670   5.977   1.361   4.290  1.4551 -0.7960 -1.1028
  353MOL0     H48671   5.915   1.428   4.132  1.7752  1.3673 -1.2835
  353MOL0     H48672   6.010   1.250   4.084  0.8089  3.6323  1.9349
  353MOL0     H48673   6.024   1.013   3.971 -0.2600  2.4193 -0.4441
  353MOL0     H48674   6.162   0.964   3.898  2.5266  1.3385  1.1076
  353MOL0     H48675   6.059   1.064   3.802 -0.3464 -0.2643  0.0272
  353MOL0     H48676   6.438   1.216   3.489 -1.8542 -1.8823 -1.3834
  353MOL0     H48677   6.522   1.050   3.313 -1.0501  0.9870  0.8942
  353MOL0     H48678   6.842   0.731   3.417  2.8931  3.6186 -3.2289
  353MOL0     H48679   6.683   0.677   3.448  0.4076  2.2986  2.5411
  353MOL0     H48680   6.782   0.733   3.155 -1.0915 -0.5916 -2.1967
  353MOL0     H48681   6.829   0.584   3.229  1.8683  2.1801  2.8270
  353MOL0     H48682   6.541   0.689   3.186  0.6891  0.9227 -2.2807
  353MOL0     H48683   6.584   0.520   3.238  0.7863  0.6735  0.2107
  353MOL0     H48684   6.716   0.518   3.014 -0.0841 -1.3534 -0.7798
  353MOL0     H48685   6.646   0.670   2.971  1.0970 -0.4512  0.1986
  353MOL0     H48686   6.514   0.394   2.993 -5.2714 -0.3436  1.2354
  353MOL0     H48687   6.413   0.537   2.999 -0.6276 -1.8146  0.7266
  353MOL0     H48688   6.443   0.436   2.778  0.9033  1.0089 -0.8884
  353MOL0     H48689   6.609   0.465   2.778  0.0172 -0.1299 -0.9812
  353MOL0     H48690   6.557   0.715   2.756 -1.6572  2.0146 -0.9072
  353MOL0     H48691   6.387   0.691   2.783  0.9815  2.7501  0.0964
  353MOL0     H48692   6.401   0.729   2.552 -0.5677 -0.4110  0.3091
  353MOL0     H48693   6.373   0.555   2.577 -0.2067  0.1877  2.5734
  353MOL0     H48694   6.755   0.838   3.603  2.1420  0.5042 -0.6463
  353MOL0     H48695   6.670   1.006   3.783 -0.5048  1.2690  0.0995
  353MOL0     H48696   6.467   1.366   3.925 -1.3195  1.5115 -0.4109
  353MOL0     H48697   6.328   1.509   4.072 -1.5304  0.3309 -2.1253
  353MOL0     H48698   4.466   1.367   3.547  0.1240 -3.2112 -2.0566
  353MOL0     H48699   4.374   1.166   3.653  1.3227 -1.8784 -0.2186
  353MOL0     H48700   4.095   0.890   3.806  0.8138 -0.8007 -0.5810
  353MOL0     H48701   4.033   0.660   3.842  0.0468 -1.9373  2.2401
  353MOL0     H48702   3.961   0.489   3.945  0.2743 -0.3597  3.3869
  353MOL0     H48703   4.071   0.405   3.850  0.4682 -1.6364  0.4416
  353MOL0     H48704   4.093   0.227   4.008 -2.0186 -2.7618  0.1615
  353MOL0     H48705   3.933   0.261   3.972  1.3566 -0.7708  0.0196
  353MOL0     H48706   4.090   0.339   4.226  1.1174  0.1192 -1.5039
  353MOL0     H48707   3.935   0.408   4.203  2.0092 -0.1391  0.9945
  353MOL0     H48708   3.881   0.135   4.173 -0.4837 -1.9406  1.6974
  353MOL0     H48709   3.869   0.223   4.328 -0.6002  2.1350 -0.1634
  353MOL0     H48710   4.191  -0.049   4.378  1.9151  2.2961 -0.0610
  353MOL0     H48711   4.359   0.629   4.123  0.3316 -0.6138  0.3201
  353MOL0     H48712   4.487   0.814   4.159 -3.1805  0.8993  0.0829
  353MOL0     H48713   4.571   0.824   3.999 -0.6189 -0.5579 -1.1389
  353MOL0     H48714   4.490   0.965   4.071  0.0566 -0.4145  0.3834
  354MOL0     O48715   5.276   4.156   7.523 -0.1800 -0.8912  0.3720
  354MOL0     C48716   5.311   4.034   7.522  0.8418  0.5097 -0.1603
  354MOL0     O48717   5.435   3.988   7.478 -0.6477 -0.1531 -0.4788
  354MOL0     C48718   5.519   4.089   7.418  0.1857  0.1822 -0.0004
  354MOL0     C48719   5.629   4.134   7.498 -0.4250 -0.5930  0.4376
  354MOL0     C48720   5.719   4.225   7.445 -0.2152 -0.2109  0.7539
  354MOL0     C48721   5.701   4.274   7.317  0.6734 -0.0306  0.5614
  354MOL0     O48722   5.773   4.377   7.258 -0.4197  0.4489  0.4226
  354MOL0     C48723   5.707   4.509   7.252  0.3032 -0.5460 -0.1092
  354MOL0     C48724   5.819   4.610   7.214  0.3916 -0.0212 -0.3522
  354MOL0     C48725   5.929   4.611   7.332  0.1618 -0.2804  0.8111
  354MOL0     C48726   6.011   4.737   7.324 -0.5949 -0.7418 -0.5160
  354MOL0     C48727   6.123   4.736   7.427 -0.7399  0.9607 -0.4138
  354MOL0     C48728   6.209   4.860   7.436  0.0756  0.2008 -0.6005
  354MOL0     C48729   6.318   4.845   7.548 -0.3176  0.4733 -0.1566
  354MOL0     C48730   6.414   4.959   7.533 -0.5090 -0.0622  0.1740
  354MOL0     N48731   6.503   4.950   7.656  0.2239  0.1683  0.2664
  354MOL0     C48732   6.575   4.842   7.683  0.2671  0.4997  0.0428
  354MOL0     C48733   6.638   4.861   7.803 -0.1249 -0.4593  0.5602
  354MOL0     C48734   6.747   4.769   7.863  0.0192 -0.2714 -0.1605
  354MOL0     C48735   6.873   4.794   7.778 -0.2001  0.2363 -0.0594
  354MOL0     C48736   6.935   4.934   7.769  0.1269  0.2420 -0.1844
  354MOL0     C48737   7.058   4.929   7.670 -0.2728  0.7856  1.1708
  354MOL0     O48738   7.166   4.857   7.729 -0.3943  1.0079 -0.1140
  354MOL0     C48739   7.249   4.934   7.818 -0.0037 -0.5396  0.2644
  354MOL0     C48740   7.361   4.867   7.863 -0.2078  0.4627  0.1797
  354MOL0     C48741   7.457   4.937   7.936  1.1243  0.1510  0.0638
  354MOL0     C48742   7.587   4.865   7.987  0.2304  0.0218 -0.3002
  354MOL0     C48743   7.432   5.066   7.979  0.4181  0.8086 -0.1501
  354MOL0     C48744   7.512   5.139   8.089 -0.0517  0.3350  1.3512
  354MOL0     O48745   7.451   5.244   8.149 -0.2548  0.0539  0.6070
  354MOL0     C48746   7.530   5.356   8.183 -0.1484  0.1049  0.5889
  354MOL0     C48747   7.590   5.354   8.313 -0.0614  0.7219 -0.8756
  354MOL0     C48748   7.661   5.461   8.371 -0.2221  0.0316 -0.0340
  354MOL0     C48749   7.688   5.571   8.286  0.1368 -0.0172  0.4931
  354MOL0     O48750   7.760   5.682   8.320  1.0276 -0.8488  0.5426
  354MOL0     C48751   7.767   5.728   8.460  0.1503  0.7142  0.2698
  354MOL0     C48752   7.708   5.874   8.460 -0.2538  0.2127 -0.3473
  354MOL0     C48753   7.556   5.872   8.431  0.1466 -0.1934 -0.3528
  354MOL0     C48754   7.504   6.016   8.421  0.5225 -0.4286 -0.1784
  354MOL0     C48755   7.352   6.003   8.402 -0.4872  0.0637  0.3209
  354MOL0     C48756   7.290   6.141   8.377 -0.2277 -0.7125 -0.3393
  354MOL0     C48757   7.133   6.131   8.389  0.0131  0.1962 -0.3228
  354MOL0     C48758   7.070   6.263   8.336 -0.1348 -0.0971 -0.4934
  354MOL0    Cl48759   7.110   6.315   8.164  0.1520 -0.6075  0.1190
  354MOL0     C48760   7.640   5.569   8.148 -1.0952 -0.1822  0.2608
  354MOL0     C48761   7.563   5.457   8.097 -0.2942 -1.0825  0.3936
  354MOL0     O48762   7.635   5.117   8.101 -0.5705  1.0445  0.3171
  354MOL0     C48763   7.321   5.133   7.934  0.1458 -0.2002  0.2986
  354MOL0     C48764   7.231   5.069   7.851  0.3631  0.0809 -0.3308
  354MOL0     N48765   6.597   4.985   7.847  0.0081 -0.8720 -0.4572
  354MOL0     N48766   6.514   5.040   7.760 -0.9454  0.2807  0.6582
  354MOL0     C48767   5.589   4.223   7.239  0.3167 -0.5638  0.3084
  354MOL0     C48768   5.504   4.124   7.282  0.2329  0.3967 -0.9917
  354MOL0     C48769   5.225   3.921   7.591  0.5881  0.3719 -0.2220
  354MOL0     C48770   5.294   3.815   7.651 -0.2833 -0.4948 -0.7140
  354MOL0     C48771   5.244   3.712   7.731 -0.5390 -0.3804  0.2428
  354MOL0     C48772   5.104   3.718   7.754  0.8396 -0.8326 -0.3060
  354MOL0     O48773   5.040   3.636   7.834 -0.2908  0.1237 -0.0509
  354MOL0     C48774   5.105   3.586   7.950  0.3862 -0.5114  0.2450
  354MOL0     C48775   5.105   3.696   8.051 -0.3114  0.2683 -0.1559
  354MOL0     C48776   5.204   3.669   8.168 -0.5552 -0.5125  0.3518
  354MOL0     C48777   5.140   3.576   8.278  0.2078  0.3099 -0.0653
  354MOL0     C48778   5.224   3.457   8.303  0.5066  0.3788 -0.3034
  354MOL0     C48779   5.299   3.367   8.313 -0.2940  0.1155 -0.9455
  354MOL0     C48780   5.028   3.828   7.706  0.4848  0.6177  0.2983
  354MOL0     C48781   5.089   3.930   7.627 -0.9193 -0.5573  0.1683
  354MOL0     C48782   4.995   4.039   7.570  0.3417 -0.2906 -0.4732
  354MOL0     H48783   5.635   4.098   7.601 -2.9485  1.7030  1.5110
  354MOL0     H48784   5.795   4.267   7.510  0.4253  0.0764 -0.1644
  354MOL0     H48785   5.673   4.553   7.346 -0.7133  0.9743 -1.1558
  354MOL0     H48786   5.627   4.507   7.179  0.6437 -2.0308 -0.4862
  354MOL0     H48787   5.874   4.577   7.124  1.8438 -2.2806  1.2555
  354MOL0     H48788   5.784   4.713   7.204 -1.2411 -0.5592 -0.4390
  354MOL0     H48789   5.863   4.616   7.419 -4.1407  1.6286 -2.1869
  354MOL0     H48790   5.991   4.521   7.334  0.8179  0.1461  3.2416
  354MOL0     H48791   6.045   4.751   7.221  2.0799  2.2034  0.5984
  354MOL0     H48792   5.952   4.828   7.338  2.4465  1.0412  2.4205
  354MOL0     H48793   6.181   4.646   7.404  0.8956  2.3259 -1.8950
  354MOL0     H48794   6.082   4.730   7.528  1.2263  2.4314  0.5272
  354MOL0     H48795   6.270   4.881   7.348  1.7345  1.8316  0.8599
  354MOL0     H48796   6.149   4.947   7.463 -1.4686 -1.3323  1.2303
  354MOL0     H48797   6.363   4.746   7.542  2.5947  1.7970 -3.4847
  354MOL0     H48798   6.270   4.840   7.647  1.7384 -1.3056  0.8297
  354MOL0     H48799   6.477   4.959   7.444 -1.0941 -1.7108 -0.2656
  354MOL0     H48800   6.356   5.051   7.546  0.0919  0.1560  1.5788
  354MOL0     H48801   6.600   4.765   7.611  1.4615  1.3814 -0.5144
  354MOL0     H48802   6.707   4.667   7.870 -1.4796  0.2573 -0.6295
  354MOL0     H48803   6.764   4.799   7.967  1.8442 -2.7384  0.3507
  354MOL0     H48804   6.943   4.715   7.805 -0.1146  0.7180  1.1895
  354MOL0     H48805   6.845   4.762   7.677 -0.0158 -1.5024  0.4221
  354MOL0     H48806   6.854   5.003   7.740 -1.2067 -1.1518  0.0558
  354MOL0     H48807   6.965   4.967   7.869 -2.2261 -1.7129  1.2970
  354MOL0     H48808   7.031   4.883   7.575  0.1026  1.8978  0.5076
  354MOL0     H48809   7.074   5.034   7.648 -1.8886  1.0297  1.0704
  354MOL0     H48810   7.378   4.760   7.848 -1.7215 -0.4141  3.7294
  354MOL0     H48811   7.605   4.879   8.095  1.0420  1.6786 -0.6113
  354MOL0     H48812   7.676   4.896   7.931  0.8685 -1.8656 -0.3942
  354MOL0     H48813   7.573   4.757   7.985 -0.0790  0.0216  0.7827
  354MOL0     H48814   7.575   5.267   8.376 -0.2493  0.4529 -1.2866
  354MOL0     H48815   7.704   5.465   8.470 -2.1097  2.5286  0.7866
  354MOL0     H48816   7.705   5.669   8.528  1.3640  0.3521  1.1064
  354MOL0     H48817   7.866   5.731   8.507  1.0012  3.1400 -1.4471
  354MOL0     H48818   7.728   5.931   8.551  0.2022 -0.2157 -0.1773
  354MOL0     H48819   7.761   5.929   8.381  2.0910 -1.0278  0.2506
  354MOL0     H48820   7.506   5.804   8.501  0.6133  2.0545  2.3510
  354MOL0     H48821   7.546   5.830   8.330  1.6428  0.9496 -1.0127
  354MOL0     H48822   7.542   6.077   8.339 -0.4596  1.5539  0.7904
  354MOL0     H48823   7.520   6.075   8.511 -2.0632  2.3309 -1.3823
  354MOL0     H48824   7.347   5.961   8.301  2.5947  0.4851 -0.0991
  354MOL0     H48825   7.294   5.941   8.470 -1.3849  1.7669  1.1651
  354MOL0     H48826   7.323   6.185   8.282 -0.9938 -0.1234 -0.3445
  354MOL0     H48827   7.335   6.214   8.445  2.4561 -0.2788 -2.3912
  354MOL0     H48828   7.093   6.105   8.487 -3.1607 -2.4510 -2.1460
  354MOL0     H48829   7.093   6.052   8.324  0.3596  0.8389 -1.3503
  354MOL0     H48830   7.068   6.334   8.419 -2.7404  0.1468 -0.6794
  354MOL0     H48831   6.964   6.249   8.314 -0.0530 -2.0620  0.2107
  354MOL0     H48832   7.660   5.649   8.078  0.2660  0.0797  0.9217
  354MOL0     H48833   7.517   5.461   7.999  3.7755  0.4973 -1.6929
  354MOL0     H48834   7.312   5.235   7.969 -1.4790 -0.0597 -0.4458
  354MOL0     H48835   7.144   5.124   7.815 -1.7231 -0.8782  2.8285
  354MOL0     H48836   5.584   4.239   7.132 -1.3466 -2.2795  0.0959
  354MOL0     H48837   5.428   4.071   7.225 -0.8779  1.8328 -0.9083
  354MOL0     H48838   5.402   3.820   7.652 -0.2394 -0.6665  1.7564
  354MOL0     H48839   5.312   3.637   7.771 -1.3184 -0.4082  1.5563
  354MOL0     H48840   5.053   3.502   7.996 -0.3746  0.1969  0.6976
  354MOL0     H48841   5.207   3.550   7.932  0.8285  1.7219 -2.6331
  354MOL0     H48842   5.001   3.701   8.086 -0.4372  0.0197 -0.4789
  354MOL0     H48843   5.120   3.789   7.995 -1.3668 -0.9712 -2.6690
  354MOL0     H48844   5.296   3.626   8.129 -2.3499 -3.3699 -1.0759
  354MOL0     H48845   5.228   3.767   8.211  2.1468 -1.6951  1.7892
  354MOL0     H48846   5.035   3.551   8.260  0.2622 -0.5022  0.6911
  354MOL0     H48847   5.144   3.637   8.369  0.7575 -1.7154  1.3424
  354MOL0     H48848   5.358   3.278   8.315 -1.8440 -1.0642  2.7284
  354MOL0     H48849   4.923   3.838   7.732  1.1353  1.3437  2.9156
  354MOL0     H48850   5.017   4.038   7.463 -2.0654 -0.5215 -1.0238
  354MOL0     H48851   4.889   4.018   7.585  0.5205 -1.6050 -0.9310
  354MOL0     H48852   5.009   4.138   7.614 -2.2078  1.9670 -4.2119
  355MOL0     O48853   2.957   0.944   9.404  0.0898 -0.8735  0.1131
  355MOL0     C48854   2.859   1.001   9.358 -0.1056  0.0235 -0.6143
  355MOL0     O48855   2.731   0.972   9.399 -0.3793  0.3354 -0.4306
  355MOL0     C48856   2.717   0.885   9.501 -0.1559  0.6577  0.1487
  355MOL0     C48857   2.699   0.758   9.459  1.0957  0.2839  0.4438
  355MOL0     C48858   2.677   0.655   9.556  0.3732 -0.3497 -0.1177
  355MOL0     C48859   2.677   0.683   9.692  0.1653  0.4250 -0.1644
  355MOL0     O48860   2.650   0.571   9.770 -0.2738 -0.4367  0.0131
  355MOL0     C48861   2.668   0.585   9.911  0.4299 -0.5407  0.8027
  355MOL0     C48862   2.666   0.452   9.986 -0.1336 -0.1691 -0.0066
  355MOL0     C48863   2.534   0.375   9.965  0.1309  0.2503 -1.0267
  355MOL0     C48864   2.539   0.255  10.065 -0.8045  0.4374 -0.3276
  355MOL0     C48865   2.415   0.181  10.063  0.7843 -0.8672  0.6048
  355MOL0     C48866   2.380   0.114   9.926  0.1029 -0.9230 -0.7502
  355MOL0     C48867   2.240   0.045   9.942 -0.1562  0.2019  0.7481
  355MOL0     C48868   2.123   0.139   9.964  0.5415 -0.2626  0.4211
  355MOL0     N48869   1.985   0.078   9.964 -0.4746  0.7403 -0.3427
  355MOL0     C48870   1.892   0.082   9.864 -0.1396  0.1588 -0.2493
  355MOL0     C48871   1.793   0.002   9.906 -0.5530 -0.6360  0.0921
  355MOL0     C48872   1.675  -0.015   9.824 -0.3568 -0.2405 -0.0634
  355MOL0     C48873   1.545   0.070   9.870  0.1164  0.0208  0.3785
  355MOL0     C48874   1.579   0.221   9.873 -0.4747 -0.4280  0.1595
  355MOL0     C48875   1.479   0.292   9.964  0.5106 -0.9663 -0.6372
  355MOL0     O48876   1.497   0.290  10.111 -0.0701  0.6504 -0.1160
  355MOL0     C48877   1.622   0.338  10.156  0.0219 -0.6475 -0.4228
  355MOL0     C48878   1.657   0.472  10.151 -0.1073 -0.4383  0.0706
  355MOL0     C48879   1.783   0.515  10.198  0.8121 -0.1337 -0.3307
  355MOL0     C48880   1.808   0.660  10.189  0.0228 -0.6790 -0.4803
  355MOL0     C48881   1.877   0.425  10.243  0.0904  0.0145  1.1314
  355MOL0     C48882   2.017   0.477  10.281  0.5736  1.1747  0.0951
  355MOL0     O48883   2.113   0.462  10.186  0.2268  0.3885 -0.4085
  355MOL0     C48884   2.230   0.531  10.206 -0.4664 -0.8537  0.0283
  355MOL0     C48885   2.330   0.488  10.282 -0.7327  0.2985 -0.2329
  355MOL0     C48886   2.462   0.550  10.285  0.9172  0.6788  0.2574
  355MOL0     C48887   2.475   0.676  10.212  0.8512  0.0362 -0.3745
  355MOL0     O48888   2.602   0.736  10.201 -0.0392 -0.0161 -0.3326
  355MOL0     C48889   2.610   0.882  10.193  1.0869 -0.1783  0.9316
  355MOL0     C48890   2.757   0.931  10.210  0.4901 -0.0623  0.3058
  355MOL0     C48891   2.806   0.887  10.347 -0.8403 -0.4036 -0.6069
  355MOL0     C48892   2.941   0.958  10.386  0.8331 -0.0409  0.0341
  355MOL0     C48893   3.054   0.951  10.284  0.5282 -0.1178 -0.2130
  355MOL0     C48894   3.085   1.097  10.245 -0.2494 -0.3365 -0.0087
  355MOL0     C48895   3.183   1.110  10.132  0.7399  0.3960  0.7109
  355MOL0     C48896   3.115   1.141   9.992 -0.2897  0.2260 -0.5442
  355MOL0    Cl48897   3.250   1.182   9.884  0.0930 -0.1269 -0.3988
  355MOL0     C48898   2.354   0.726  10.153 -1.0020  0.9963  0.1681
  355MOL0     C48899   2.240   0.652  10.135 -0.2541  0.2075  0.0320
  355MOL0     O48900   2.025   0.554  10.378 -0.6459 -0.2674 -0.2942
  355MOL0     C48901   1.844   0.286  10.244 -0.1723  0.4858  0.5516
  355MOL0     C48902   1.714   0.247  10.204  0.1738  0.6587 -0.0364
  355MOL0     N48903   1.815  -0.043  10.035 -0.2834  0.6280  1.0949
  355MOL0     N48904   1.929   0.005  10.069 -0.6498 -0.0325  0.1283
  355MOL0     C48905   2.709   0.809   9.736 -0.2607  0.7492  0.0376
  355MOL0     C48906   2.728   0.912   9.638 -0.5632  0.9559  0.1488
  355MOL0     C48907   2.892   1.108   9.255 -0.5129 -0.5470  0.5567
  355MOL0     C48908   3.029   1.123   9.211 -0.4296  0.6209  0.4776
  355MOL0     C48909   3.059   1.202   9.099  0.2526  0.1592 -0.2414
  355MOL0     C48910   2.966   1.283   9.033 -1.3924  1.1614  1.0518
  355MOL0     O48911   2.989   1.372   8.927  0.1146 -0.1436 -0.0409
  355MOL0     C48912   3.122   1.400   8.894  0.2659 -0.8207 -0.3095
  355MOL0     C48913   3.201   1.486   8.995  0.2662 -0.1187 -0.4487
  355MOL0     C48914   3.132   1.625   8.988 -0.4389 -0.6959 -0.5381
  355MOL0     C48915   3.217   1.735   9.054 -1.0462 -0.5943  0.5462
  355MOL0     C48916   3.148   1.862   9.070  0.3049 -0.4034  0.8343
  355MOL0     C48917   3.085   1.963   9.097 -0.4060  0.4708  0.7619
  355MOL0     C48918   2.834   1.280   9.085  0.0657  0.7457  0.3063
  355MOL0     C48919   2.793   1.200   9.191 -0.0526 -0.2001  0.4662
  355MOL0     C48920   2.654   1.204   9.246 -0.6535 -0.8577  0.0587
  355MOL0     H48921   2.685   0.737   9.354 -1.4614 -1.1237  0.9931
  355MOL0     H48922   2.636   0.560   9.523  0.1273  0.4207 -2.1870
  355MOL0     H48923   2.587   0.654   9.937  0.0842  0.2654 -2.0711
  355MOL0     H48924   2.764   0.633   9.930 -0.1080  1.5420 -1.2977
  355MOL0     H48925   2.747   0.384   9.956  0.0503  0.4890 -1.0731
  355MOL0     H48926   2.673   0.463  10.094  0.8249  0.0834 -0.0839
  355MOL0     H48927   2.458   0.443  10.004  2.8120  0.9950  3.6364
  355MOL0     H48928   2.528   0.347   9.859 -1.1649  2.0993 -1.4979
  355MOL0     H48929   2.626   0.201  10.025  0.7261  3.9052 -2.1386
  355MOL0     H48930   2.561   0.293  10.164 -0.3187  1.0619 -0.6707
  355MOL0     H48931   2.337   0.252  10.091  0.1067 -0.6765 -1.5878
  355MOL0     H48932   2.412   0.100  10.137 -1.1865 -1.6330 -0.2288
  355MOL0     H48933   2.404   0.183   9.846  0.0753  0.5286  0.4567
  355MOL0     H48934   2.441   0.025   9.909  1.3045 -0.0558 -1.0979
  355MOL0     H48935   2.251  -0.032  10.019 -1.9619 -0.7859  0.0734
  355MOL0     H48936   2.225  -0.012   9.850 -1.3967 -4.0573  3.2962
  355MOL0     H48937   2.122   0.193  10.059  0.9018 -2.1191  1.5069
  355MOL0     H48938   2.131   0.208   9.879 -2.6399 -1.9111 -1.3896
  355MOL0     H48939   1.906   0.133   9.769 -0.2612 -2.3150 -1.7018
  355MOL0     H48940   1.640  -0.118   9.819 -4.1973  0.8803  0.4863
  355MOL0     H48941   1.699   0.016   9.722  2.5801  1.3248  0.9786
  355MOL0     H48942   1.456   0.058   9.807  0.0499 -0.4176  0.5491
  355MOL0     H48943   1.525   0.035   9.972  0.2053 -0.4460  0.2361
  355MOL0     H48944   1.679   0.248   9.909  0.1070  0.2631 -1.8314
  355MOL0     H48945   1.566   0.270   9.776  0.8323  1.5349  0.8951
  355MOL0     H48946   1.477   0.398   9.937  1.8583 -0.4356  1.1543
  355MOL0     H48947   1.380   0.250   9.944 -0.3415 -1.0196  3.1333
  355MOL0     H48948   1.581   0.546  10.133  1.8871  1.6246 -0.3524
  355MOL0     H48949   1.712   0.712  10.186  0.0475 -0.4247  1.6201
  355MOL0     H48950   1.875   0.688  10.108 -0.3553  2.9283  0.2906
  355MOL0     H48951   1.846   0.707  10.280  2.8469  1.4839 -2.6328
  355MOL0     H48952   2.314   0.394  10.334 -0.6291 -0.5505 -1.7005
  355MOL0     H48953   2.551   0.512  10.335 -0.2551  0.2255  2.0558
  355MOL0     H48954   2.576   0.903  10.092  1.2933  0.1945  0.9365
  355MOL0     H48955   2.541   0.929  10.264  1.0425  0.9217  0.1873
  355MOL0     H48956   2.829   0.917  10.129 -1.7545  1.4533 -2.1193
  355MOL0     H48957   2.748   1.040  10.212 -0.6375 -0.1166 -0.7267
  355MOL0     H48958   2.822   0.780  10.364 -0.0380  0.2805  4.4159
  355MOL0     H48959   2.735   0.918  10.423 -0.5684 -2.0431  0.3556
  355MOL0     H48960   2.978   0.918  10.481  2.8161  1.0840 -0.2182
  355MOL0     H48961   2.917   1.059  10.419 -0.5867 -0.3174 -0.0662
  355MOL0     H48962   3.139   0.904  10.336  1.0847  1.2989  0.1973
  355MOL0     H48963   3.040   0.881  10.202 -0.9097 -3.0883  2.3294
  355MOL0     H48964   3.138   1.141  10.331  0.4250  1.5421 -1.3193
  355MOL0     H48965   2.993   1.153  10.226  0.9681  1.7366 -0.1825
  355MOL0     H48966   3.222   1.008  10.120 -3.2020 -1.3758  1.4133
  355MOL0     H48967   3.268   1.173  10.160 -0.9243  1.0736  4.8936
  355MOL0     H48968   3.038   1.217  10.006 -1.4057 -0.5205 -2.3133
  355MOL0     H48969   3.061   1.052   9.959 -1.2314 -0.1314  1.7427
  355MOL0     H48970   2.355   0.827  10.112 -2.6140  0.9952  0.0402
  355MOL0     H48971   2.169   0.708  10.075  0.4830  1.0055 -0.1149
  355MOL0     H48972   1.916   0.216  10.286  1.2490  1.4309 -0.2316
  355MOL0     H48973   1.684   0.143  10.219 -2.7110  1.7316  2.5332
  355MOL0     H48974   2.740   0.835   9.837  1.3116 -1.1301  0.0930
  355MOL0     H48975   2.759   1.005   9.683 -2.3938  0.9662  1.4943
  355MOL0     H48976   3.111   1.058   9.239  0.5064  1.1111 -1.0281
  355MOL0     H48977   3.161   1.201   9.062 -0.4016 -1.7153 -2.2274
  355MOL0     H48978   3.180   1.309   8.878  0.2031 -0.6806 -1.4590
  355MOL0     H48979   3.106   1.450   8.797 -2.3966 -1.9697 -0.5505
  355MOL0     H48980   3.304   1.483   8.958  0.7739  1.2501  0.7434
  355MOL0     H48981   3.197   1.441   9.095 -1.9532 -2.6090 -1.5433
  355MOL0     H48982   3.113   1.649   8.883 -2.4719  0.6077  0.0805
  355MOL0     H48983   3.035   1.618   9.038 -0.2502 -1.5516 -0.2702
  355MOL0     H48984   3.311   1.745   8.998  0.4814 -0.2771  3.0068
  355MOL0     H48985   3.254   1.700   9.151  0.9326 -1.1599 -0.3692
  355MOL0     H48986   3.016   2.041   9.121 -0.4503  1.7344 -2.8212
  355MOL0     H48987   2.769   1.347   9.031  3.3620  1.4031 -3.2545
  355MOL0     H48988   2.594   1.114   9.229 -0.5449 -1.7302  3.5860
  355MOL0     H48989   2.662   1.204   9.355 -1.8870  0.0042  0.1722
  355MOL0     H48990   2.613   1.300   9.210  0.8574 -0.4517 -0.6719
  356MOL0     O48991  10.658   9.501   6.050  0.6008  0.3884 -0.9653
  356MOL0     C48992  10.546   9.442   6.042  0.1916 -0.0669  0.3972
  356MOL0     O48993  10.509   9.330   6.104 -0.6597 -0.9234 -0.0104
  356MOL0     C48994  10.602   9.255   6.176  0.6137  0.2085  0.2667
  356MOL0     C48995  10.574   9.217   6.313 -0.0921  0.5642  0.2071
  356MOL0     C48996  10.667   9.156   6.398  0.6579 -0.2750 -0.6130
  356MOL0     C48997  10.794   9.123   6.343  0.2896  0.0035 -0.0982
  356MOL0     O48998  10.901   9.071   6.419  0.9083 -0.1446 -0.6525
  356MOL0     C48999  10.884   9.031   6.555 -0.2970 -0.0608  0.0242
  356MOL0     C49000  11.029   9.004   6.603 -0.3147  0.3034  0.2949
  356MOL0     C49001  11.131   9.126   6.602  0.1234  0.2164  0.1727
  356MOL0     C49002  11.260   9.063   6.660 -0.5408 -0.1726 -0.2946
  356MOL0     C49003  11.367   9.177   6.677 -0.2223  0.2009 -0.4063
  356MOL0     C49004  11.341   9.255   6.801  0.2089  0.1178 -0.7232
  356MOL0     C49005  11.455   9.341   6.862  0.4142 -0.5120  0.1367
  356MOL0     C49006  11.403   9.431   6.974 -1.0755  0.3008  0.7571
  356MOL0     N49007  11.509   9.505   7.045 -0.0244  0.8574  0.6335
  356MOL0     C49008  11.599   9.598   6.991  0.3753 -0.8423 -0.2227
  356MOL0     C49009  11.651   9.658   7.106 -0.1295  0.0063 -0.9705
  356MOL0     C49010  11.759   9.769   7.094  1.0796 -0.5228  0.5737
  356MOL0     C49011  11.896   9.709   7.053  0.8637 -0.0083 -0.1636
  356MOL0     C49012  11.962   9.790   6.942 -0.3852 -0.1931  0.2374
  356MOL0     C49013  12.109   9.786   6.942  0.4144 -0.0875  0.3519
  356MOL0     O49014  12.162   9.860   7.056  0.5407  0.2975  0.4910
  356MOL0     C49015  12.289   9.893   7.074 -0.0769  0.4171 -1.0555
  356MOL0     C49016  12.320  10.001   7.156  0.9466 -0.3565 -0.2782
  356MOL0     C49017  12.447  10.049   7.185  0.4004  0.3695 -0.1811
  356MOL0     C49018  12.446  10.162   7.288 -0.7306 -0.5440  0.6676
  356MOL0     C49019  12.559   9.981   7.133  0.2383 -0.1595  0.3283
  356MOL0     C49020  12.699  10.007   7.154 -0.2292  0.8288  0.4343
  356MOL0     O49021  12.785   9.912   7.108 -0.6926  0.1440 -0.5913
  356MOL0     C49022  12.920   9.930   7.130  1.0250 -0.1445  0.4433
  356MOL0     C49023  12.991   9.845   7.205  0.0774 -0.3370  0.7142
  356MOL0     C49024  13.125   9.869   7.230  0.1562 -0.1915  0.7200
  356MOL0     C49025  13.192   9.972   7.169 -1.1399  0.4556 -0.6012
  356MOL0     O49026  13.334   9.968   7.187 -0.4672  0.0837 -0.1662
  356MOL0     C49027  13.390  10.096   7.178  0.3372 -0.7471  0.4910
  356MOL0     C49028  13.540  10.105   7.224  0.8666 -0.1592 -0.1353
  356MOL0     C49029  13.567  10.032   7.363  0.5609  0.4558  0.6439
  356MOL0     C49030  13.520  10.110   7.488  0.1462 -0.2621  0.9826
  356MOL0     C49031  13.543  10.027   7.605  0.6886 -0.7541  0.2461
  356MOL0     C49032  13.501  10.106   7.737  0.2199 -0.4681  0.2177
  356MOL0     C49033  13.355  10.147   7.762 -0.7838 -0.1569 -0.6675
  356MOL0     C49034  13.355  10.216   7.894 -0.3267 -0.1209  0.2665
  356MOL0    Cl49035  13.187  10.264   7.951 -0.3821 -0.0028  0.2677
  356MOL0     C49036  13.117  10.059   7.077 -0.2124  0.4341 -0.3601
  356MOL0     C49037  12.981  10.032   7.051 -0.9181 -0.2431 -0.2332
  356MOL0     O49038  12.733  10.099   7.224  0.3473  0.7999 -0.2369
  356MOL0     C49039  12.524   9.874   7.041 -0.1336  0.6077  0.1404
  356MOL0     C49040  12.397   9.828   7.020  0.1395 -0.1949  1.0404
  356MOL0     N49041  11.606   9.587   7.215 -0.0060 -0.1013  0.6187
  356MOL0     N49042  11.516   9.500   7.175 -0.0860  0.6013 -0.8619
  356MOL0     C49043  10.820   9.155   6.208 -0.0764 -0.2381  0.3607
  356MOL0     C49044  10.728   9.212   6.126 -0.5434  0.9671  0.4041
  356MOL0     C49045  10.439   9.508   5.967 -0.7378 -0.0927  0.0631
  356MOL0     C49046  10.445   9.650   5.948 -0.8466  0.1248  0.1529
  356MOL0     C49047  10.339   9.727   5.909 -0.0861 -0.9369  0.6733
  356MOL0     C49048  10.229   9.662   5.858 -0.5554 -0.0469  0.4208
  356MOL0     O49049  10.134   9.749   5.809 -0.5771  0.5868  1.0529
  356MOL0     C49050  10.026   9.686   5.744  1.0886  0.3244  0.5994
  356MOL0     C49051   9.960   9.808   5.683 -0.8151  0.9643  0.3702
  356MOL0     C49052   9.818   9.780   5.637 -0.0426 -0.4101  0.0599
  356MOL0     C49053   9.800   9.660   5.545  0.9106  0.1854 -0.1803
  356MOL0     C49054   9.901   9.645   5.435  0.0468  0.8983 -0.4110
  356MOL0     C49055   9.984   9.671   5.344  0.1276  0.5468  0.4582
  356MOL0     C49056  10.221   9.520   5.857  0.5281 -0.0781 -0.2222
  356MOL0     C49057  10.322   9.441   5.917  0.6789  0.5691  0.7236
  356MOL0     C49058  10.314   9.295   5.898 -0.8526 -0.0575  0.3865
  356MOL0     H49059  10.477   9.223   6.362 -0.6125 -1.8214 -0.4123
  356MOL0     H49060  10.646   9.122   6.499  0.3317 -2.1690 -1.2715
  356MOL0     H49061  10.838   8.934   6.574 -0.7606  0.2589  0.5964
  356MOL0     H49062  10.843   9.107   6.622  1.4667  0.9092  0.0585
  356MOL0     H49063  11.023   8.961   6.703  2.3361  2.4729  1.5087
  356MOL0     H49064  11.068   8.929   6.533 -1.4594  0.7243 -0.8426
  356MOL0     H49065  11.132   9.158   6.498  0.2528  1.4389  0.5282
  356MOL0     H49066  11.092   9.204   6.669 -1.4991 -2.3972  2.4497
  356MOL0     H49067  11.243   9.002   6.749  3.0456 -0.4632  0.3593
  356MOL0     H49068  11.296   8.996   6.581 -4.1026  0.5674 -2.7992
  356MOL0     H49069  11.377   9.235   6.585 -0.1937 -0.6414 -0.9543
  356MOL0     H49070  11.462   9.125   6.689  0.6127  1.7687 -0.0426
  356MOL0     H49071  11.250   9.315   6.797  2.4621  3.9621  0.1081
  356MOL0     H49072  11.319   9.182   6.879 -0.0432 -2.5852 -3.1586
  356MOL0     H49073  11.504   9.402   6.785 -0.7609  0.1551 -0.1062
  356MOL0     H49074  11.531   9.278   6.910 -0.8759 -0.0714  2.9366
  356MOL0     H49075  11.336   9.506   6.930 -1.8697 -1.0000 -0.3717
  356MOL0     H49076  11.336   9.372   7.038 -1.5483  0.0880  0.0877
  356MOL0     H49077  11.616   9.628   6.888  1.6803 -1.3776 -0.1880
  356MOL0     H49078  11.756   9.828   7.186  1.6557  3.4112 -1.7022
  356MOL0     H49079  11.721   9.837   7.017  3.4629 -1.9745 -2.1189
  356MOL0     H49080  11.964   9.727   7.137 -0.7227  2.2596  0.7407
  356MOL0     H49081  11.891   9.602   7.034 -4.2339  0.0951 -0.8274
  356MOL0     H49082  11.926   9.742   6.851 -2.5094  1.6007  0.0369
  356MOL0     H49083  11.932   9.894   6.959  1.1681  0.6148 -1.6180
  356MOL0     H49084  12.158   9.689   6.948  1.3454  0.4337  1.6751
  356MOL0     H49085  12.144   9.835   6.850  2.1482 -0.1717  0.9212
  356MOL0     H49086  12.233  10.056   7.191  0.2830  0.0712 -2.4064
  356MOL0     H49087  12.348  10.185   7.331 -0.6002  3.2771 -0.6456
  356MOL0     H49088  12.475  10.257   7.241 -3.0041 -0.7165 -1.3210
  356MOL0     H49089  12.506  10.135   7.375  3.4019  5.0152  0.1117
  356MOL0     H49090  12.941   9.761   7.253 -1.0802 -0.1594 -0.1405
  356MOL0     H49091  13.175   9.804   7.302 -0.6868  1.3092  2.7386
  356MOL0     H49092  13.390  10.107   7.069 -2.2172 -1.4798  0.3592
  356MOL0     H49093  13.333  10.177   7.224 -1.5762 -0.9696 -1.3792
  356MOL0     H49094  13.599  10.049   7.150  0.0915  0.7632 -1.4895
  356MOL0     H49095  13.570  10.210   7.231  2.4321 -0.3157 -2.9063
  356MOL0     H49096  13.675  10.020   7.364  0.6444  1.1519  0.7615
  356MOL0     H49097  13.517   9.935   7.364 -0.7281  1.0492 -0.8966
  356MOL0     H49098  13.417  10.145   7.478  1.2799  2.8114 -2.3533
  356MOL0     H49099  13.579  10.202   7.494 -0.9123  0.3937  1.6408
  356MOL0     H49100  13.487   9.934   7.589  0.0096 -0.0873 -1.4297
  356MOL0     H49101  13.650  10.002   7.613  1.8387  3.1085 -0.9514
  356MOL0     H49102  13.555  10.201   7.730  0.7444 -0.7528  0.3897
  356MOL0     H49103  13.534  10.062   7.832 -1.5651  2.8424  2.6204
  356MOL0     H49104  13.283  10.066   7.770 -1.4931  0.1559 -3.0051
  356MOL0     H49105  13.321  10.209   7.678 -2.2829 -0.5874 -0.4032
  356MOL0     H49106  13.414  10.307   7.885 -2.5224  1.3089 -0.5644
  356MOL0     H49107  13.394  10.141   7.964  0.5829 -0.6260 -0.7518
  356MOL0     H49108  13.170  10.140   7.028 -1.1897  0.8526 -0.7547
  356MOL0     H49109  12.924  10.098   6.986  0.3304  0.5042 -0.6034
  356MOL0     H49110  12.594   9.812   6.987 -0.8848 -0.0479 -0.1058
  356MOL0     H49111  12.372   9.743   6.957  0.6121  1.2150 -1.1813
  356MOL0     H49112  10.922   9.141   6.173  1.1113  2.8572  2.0883
  356MOL0     H49113  10.761   9.254   6.031 -0.7536 -0.9060 -0.5367
  356MOL0     H49114  10.538   9.700   5.970 -0.3820 -0.7917  0.2924
  356MOL0     H49115  10.349   9.835   5.902  0.3486 -1.0791 -1.6623
  356MOL0     H49116  10.061   9.613   5.671 -1.4051  1.5048 -1.9751
  356MOL0     H49117   9.960   9.633   5.814 -0.8140  1.4884 -0.2309
  356MOL0     H49118  10.029   9.837   5.603 -0.8194  1.6820  0.6192
  356MOL0     H49119   9.959   9.896   5.748  1.3300  1.0291  0.3678
  356MOL0     H49120   9.756   9.761   5.725  0.7054 -2.9257  0.1394
  356MOL0     H49121   9.782   9.872   5.590  1.4866  1.6640  2.6438
  356MOL0     H49122   9.695   9.671   5.517 -0.3117  2.6171  4.2300
  356MOL0     H49123   9.796   9.571   5.608  0.7606 -0.7792 -1.5432
  356MOL0     H49124  10.062   9.687   5.272 -0.6850 -1.1835 -0.9106
  356MOL0     H49125  10.143   9.470   5.801  1.6394 -0.7620 -1.1935
  356MOL0     H49126  10.232   9.270   5.831  0.4768 -1.7705 -0.6906
  356MOL0     H49127  10.407   9.249   5.863 -0.4379  0.0981  1.2406
  356MOL0     H49128  10.289   9.249   5.993  2.2270 -1.9346  0.4223
  357MOL0     O49129   7.248   2.454   5.138 -0.2926 -0.0337 -0.6672
  357MOL0     C49130   7.296   2.357   5.195 -0.0368  0.4900 -0.0384
  357MOL0     O49131   7.258   2.225   5.166  0.1017  0.1549 -0.4329
  357MOL0     C49132   7.179   2.202   5.056 -0.5753 -0.0546 -0.4950
  357MOL0     C49133   7.252   2.208   4.936  0.4395 -0.5941  0.4769
  357MOL0     C49134   7.174   2.200   4.817  0.2150  0.4631 -0.0311
  357MOL0     C49135   7.038   2.165   4.810  0.2799 -0.2440  0.0914
  357MOL0     O49136   6.970   2.158   4.692  0.5928  0.3407 -0.0730
  357MOL0     C49137   6.996   2.233   4.579 -0.3610 -0.2348 -0.4929
  357MOL0     C49138   6.867   2.246   4.498  0.3249 -0.0428  0.4368
  357MOL0     C49139   6.890   2.298   4.352 -0.7761  1.0202 -0.1958
  357MOL0     C49140   6.848   2.450   4.342 -0.3575  0.5652  0.4107
  357MOL0     C49141   6.875   2.512   4.194  0.4046 -0.3179  0.3519
  357MOL0     C49142   6.815   2.656   4.190 -0.4718 -0.3735  0.7332
  357MOL0     C49143   6.865   2.739   4.064 -1.0219  0.2803  0.6482
  357MOL0     C49144   6.812   2.877   4.069 -0.0005 -0.3462  0.2780
  357MOL0     N49145   6.839   2.940   3.935  0.6461  0.4460  0.3726
  357MOL0     C49146   6.746   2.995   3.850 -0.0180 -0.4203  0.2029
  357MOL0     C49147   6.807   3.052   3.744 -0.5886  0.0638  0.1923
  357MOL0     C49148   6.738   3.115   3.622  0.1391  0.2917  0.1878
  357MOL0     C49149   6.787   3.049   3.488 -0.7682 -0.7653  1.2257
  357MOL0     C49150   6.738   3.117   3.358 -0.2484 -0.5738 -0.4595
  357MOL0     C49151   6.766   3.275   3.348  0.0445  0.3592 -0.0929
  357MOL0     O49152   6.675   3.315   3.238  0.4458  0.4486  0.3733
  357MOL0     C49153   6.668   3.445   3.207  0.0017  0.7233  0.3366
  357MOL0     C49154   6.544   3.507   3.211 -0.4695  1.1388 -0.4334
  357MOL0     C49155   6.531   3.646   3.200 -0.2183 -0.0086 -0.1218
  357MOL0     C49156   6.387   3.697   3.214 -0.6123  0.3612  0.4339
  357MOL0     C49157   6.648   3.723   3.185  1.1323 -0.3629  0.1596
  357MOL0     C49158   6.646   3.871   3.191 -0.1183  0.1784 -0.9970
  357MOL0     O49159   6.699   3.937   3.079 -0.5666  0.1845  0.5987
  357MOL0     C49160   6.695   4.074   3.073  0.0394 -0.2231 -0.8687
  357MOL0     C49161   6.723   4.165   3.179 -0.6223  0.0040 -0.9056
  357MOL0     C49162   6.734   4.304   3.158  0.0964  0.5971  0.2448
  357MOL0     C49163   6.720   4.353   3.029  0.3051 -0.7637  0.3590
  357MOL0     O49164   6.743   4.481   3.002  0.0732  0.4612 -0.2499
  357MOL0     C49165   6.665   4.584   3.079 -0.2767  0.4520 -0.6058
  357MOL0     C49166   6.642   4.704   2.992 -0.1585 -0.9093  0.4141
  357MOL0     C49167   6.549   4.666   2.868  0.3935  0.6489  0.1286
  357MOL0     C49168   6.469   4.778   2.803  0.3668 -0.2629 -0.1130
  357MOL0     C49169   6.441   4.756   2.654 -0.0024  0.8283  0.9521
  357MOL0     C49170   6.343   4.854   2.595 -0.6161  0.1958  0.3313
  357MOL0     C49171   6.278   4.810   2.464  0.3329 -0.1796  0.2735
  357MOL0     C49172   6.386   4.775   2.361 -0.0705  0.0682 -0.5548
  357MOL0    Cl49173   6.487   4.926   2.324 -0.3104 -0.2314  0.0448
  357MOL0     C49174   6.685   4.265   2.927 -0.8807  0.4212  0.0378
  357MOL0     C49175   6.681   4.128   2.947  0.5603  0.1226 -0.0756
  357MOL0     O49176   6.593   3.923   3.289  0.9791 -0.1899 -0.7383
  357MOL0     C49177   6.774   3.665   3.175  0.1103 -0.3939  0.7128
  357MOL0     C49178   6.783   3.523   3.186  0.2846  0.5812  0.0610
  357MOL0     N49179   6.946   3.033   3.775 -0.3303  0.1679 -0.0460
  357MOL0     N49180   6.961   2.958   3.883  0.9271 -0.7869 -0.3545
  357MOL0     C49181   6.978   2.158   4.932  0.2888 -0.4871  0.9764
  357MOL0     C49182   7.042   2.175   5.057 -0.0441  0.3347  0.5179
  357MOL0     C49183   7.395   2.356   5.305  0.2061  0.5699 -0.4387
  357MOL0     C49184   7.429   2.228   5.368  0.9800  0.0409 -0.2817
  357MOL0     C49185   7.517   2.236   5.476 -1.1170 -1.0649  0.5147
  357MOL0     C49186   7.576   2.361   5.524  0.3039 -0.0989  0.0910
  357MOL0     O49187   7.676   2.355   5.626  0.4882 -0.0481  0.0742
  357MOL0     C49188   7.714   2.226   5.689  0.6967 -1.4376  0.2262
  357MOL0     C49189   7.798   2.242   5.820 -0.2107 -0.5764  0.8219
  357MOL0     C49190   7.935   2.301   5.783 -0.8359 -0.2324  0.9443
  357MOL0     C49191   8.021   2.188   5.713 -0.0398 -0.2709 -0.8351
  357MOL0     C49192   8.169   2.209   5.710  0.4256 -0.0103 -0.2083
  357MOL0     C49193   8.279   2.244   5.701  0.8641 -0.3216 -1.0618
  357MOL0     C49194   7.554   2.475   5.452 -0.1661  0.4266 -0.1800
  357MOL0     C49195   7.465   2.476   5.345 -1.4314  0.4932 -0.2172
  357MOL0     C49196   7.437   2.609   5.290 -0.3026  0.6041 -0.0401
  357MOL0     H49197   7.357   2.232   4.927 -0.3235  2.7220 -1.4143
  357MOL0     H49198   7.227   2.209   4.723 -0.5308  0.4763 -0.4599
  357MOL0     H49199   7.076   2.182   4.526  0.1753  1.0636 -0.9834
  357MOL0     H49200   7.033   2.333   4.603 -1.2037  0.1031 -0.5663
  357MOL0     H49201   6.815   2.149   4.498 -0.6726  0.4571  1.4021
  357MOL0     H49202   6.807   2.323   4.547  0.4917  0.4553 -0.1308
  357MOL0     H49203   6.993   2.295   4.316 -0.5970 -2.1833  0.2502
  357MOL0     H49204   6.832   2.227   4.292 -0.5045 -0.2702  1.0211
  357MOL0     H49205   6.751   2.453   4.392  1.3453 -1.4638  4.3128
  357MOL0     H49206   6.914   2.509   4.407 -0.8916 -1.2195  2.7109
  357MOL0     H49207   6.820   2.445   4.128 -1.6851  1.9665 -0.4102
  357MOL0     H49208   6.981   2.520   4.171  0.5828  1.5717  1.5706
  357MOL0     H49209   6.706   2.660   4.187 -0.5079  2.7691  1.8010
  357MOL0     H49210   6.841   2.705   4.285 -0.8467  0.7684  0.2665
  357MOL0     H49211   6.838   2.695   3.967  1.1982 -0.8977  0.4983
  357MOL0     H49212   6.973   2.749   4.053 -0.7432 -3.8700 -3.6737
  357MOL0     H49213   6.706   2.885   4.096 -0.1448  1.6041 -0.6855
  357MOL0     H49214   6.866   2.933   4.146 -1.8681 -2.1847  3.0875
  357MOL0     H49215   6.638   2.991   3.852 -0.2944  1.8954 -2.9102
  357MOL0     H49216   6.764   3.220   3.638  1.0441 -0.2838  2.9593
  357MOL0     H49217   6.629   3.109   3.630  0.1749 -1.0283 -0.0268
  357MOL0     H49218   6.896   3.043   3.479 -0.9509 -1.2279 -2.2721
  357MOL0     H49219   6.756   2.944   3.483 -1.0034 -0.6843  0.9583
  357MOL0     H49220   6.798   3.065   3.283 -0.3048  0.1724 -1.0302
  357MOL0     H49221   6.636   3.078   3.347  1.7341 -6.8829 -0.4350
  357MOL0     H49222   6.722   3.316   3.439  1.3795  4.0042 -0.9555
  357MOL0     H49223   6.870   3.306   3.342 -0.1687  1.0214 -0.5031
  357MOL0     H49224   6.464   3.436   3.233  0.9393 -0.0461  1.0737
  357MOL0     H49225   6.377   3.805   3.228 -2.8195  0.1792  0.6480
  357MOL0     H49226   6.355   3.663   3.313  1.5636  0.3206  1.1721
  357MOL0     H49227   6.324   3.669   3.129  1.0463  2.2411 -1.5417
  357MOL0     H49228   6.742   4.137   3.282  4.2576  2.6122 -0.8222
  357MOL0     H49229   6.754   4.381   3.232 -0.7624 -0.9710  2.2022
  357MOL0     H49230   6.571   4.534   3.104  0.9349 -1.3329  0.6284
  357MOL0     H49231   6.718   4.599   3.174  0.7295 -0.1592 -1.0510
  357MOL0     H49232   6.590   4.785   3.044 -2.0594 -0.2688 -2.2546
  357MOL0     H49233   6.732   4.751   2.951 -0.1689 -1.9819 -0.9340
  357MOL0     H49234   6.478   4.587   2.893 -1.2097  1.0305 -2.7048
  357MOL0     H49235   6.627   4.627   2.802  0.0141 -1.2433  0.7511
  357MOL0     H49236   6.525   4.872   2.795 -0.6059  0.3569  0.2406
  357MOL0     H49237   6.384   4.800   2.868  0.4952  0.2539 -0.1115
  357MOL0     H49238   6.538   4.757   2.605 -1.6240 -2.1506 -2.8665
  357MOL0     H49239   6.412   4.651   2.640 -0.7606  1.1463 -0.0432
  357MOL0     H49240   6.400   4.946   2.582 -0.0801  0.5016  3.9257
  357MOL0     H49241   6.266   4.887   2.666 -1.3932  0.3984 -0.5799
  357MOL0     H49242   6.228   4.898   2.421 -0.4266 -0.8175 -0.1689
  357MOL0     H49243   6.211   4.726   2.484  0.5653  0.0611  2.3543
  357MOL0     H49244   6.343   4.741   2.267  1.0008 -3.0396 -0.0418
  357MOL0     H49245   6.452   4.696   2.399 -1.5925 -2.1812 -2.3548
  357MOL0     H49246   6.678   4.299   2.824  2.5141  0.5465 -0.2714
  357MOL0     H49247   6.639   4.067   2.869  0.9407 -2.3713  1.5612
  357MOL0     H49248   6.859   3.727   3.148 -1.0306  0.6871 -0.5930
  357MOL0     H49249   6.875   3.465   3.188 -0.2153 -0.2665  3.3961
  357MOL0     H49250   6.871   2.139   4.924  0.3637 -0.3556 -0.9020
  357MOL0     H49251   6.997   2.181   5.156  3.3898 -1.5397  2.4139
  357MOL0     H49252   7.381   2.136   5.339  2.8853 -0.8343 -0.8140
  357MOL0     H49253   7.527   2.140   5.527  1.0175 -1.2789 -0.2380
  357MOL0     H49254   7.630   2.164   5.720  2.4616 -4.3240 -0.3260
  357MOL0     H49255   7.757   2.172   5.603  0.4792 -1.7789  0.3282
  357MOL0     H49256   7.807   2.144   5.868  2.3780 -2.4156 -2.9094
  357MOL0     H49257   7.744   2.311   5.885  1.2520 -0.8305  2.3768
  357MOL0     H49258   7.922   2.378   5.707  0.0638  1.1702  2.1534
  357MOL0     H49259   7.991   2.351   5.863 -4.4065  3.3818  1.4760
  357MOL0     H49260   7.984   2.167   5.612 -0.5739  2.8973 -1.4115
  357MOL0     H49261   7.998   2.093   5.761 -2.6771  0.6780 -0.0348
  357MOL0     H49262   8.373   2.296   5.690  1.4541 -1.1022  0.1496
  357MOL0     H49263   7.619   2.557   5.482  2.0036 -1.4520  0.5360
  357MOL0     H49264   7.494   2.693   5.332  1.4543 -0.9775  0.9367
  357MOL0     H49265   7.450   2.602   5.182  0.7085 -2.7320  0.2048
  357MOL0     H49266   7.335   2.640   5.313 -0.4045  0.4007 -0.2207
  358MOL0     O49267  11.027   4.672   4.648  0.3007  0.1931 -0.5806
  358MOL0     C49268  11.019   4.790   4.698  0.2842 -0.2545  0.7483
  358MOL0     O49269  11.087   4.833   4.809 -0.5442  0.4445 -0.4521
  358MOL0     C49270  11.188   4.750   4.849  0.2872  0.0873  0.4722
  358MOL0     C49271  11.305   4.721   4.774  0.1978  0.0214 -0.0392
  358MOL0     C49272  11.417   4.652   4.825  0.1818 -0.6536  1.0520
  358MOL0     C49273  11.412   4.614   4.958 -0.1197 -0.2307  0.9284
  358MOL0     O49274  11.526   4.570   5.022  0.0719 -0.1291 -0.0031
  358MOL0     C49275  11.574   4.434   4.988  0.0515 -0.5883 -0.2958
  358MOL0     C49276  11.553   4.320   5.083 -0.1354  0.2131 -0.2040
  358MOL0     C49277  11.612   4.343   5.227  0.5938 -0.2331 -0.0732
  358MOL0     C49278  11.759   4.319   5.237  1.0154  0.1627 -0.3109
  358MOL0     C49279  11.793   4.302   5.383 -0.4507  1.0141 -0.2030
  358MOL0     C49280  11.936   4.326   5.423 -0.5197 -0.7185  0.3053
  358MOL0     C49281  12.009   4.216   5.497 -0.3094 -0.2815  0.4802
  358MOL0     C49282  12.087   4.268   5.621 -0.6002 -0.0210 -0.9493
  358MOL0     N49283  12.199   4.354   5.591 -0.0530 -1.0850  0.4094
  358MOL0     C49284  12.220   4.490   5.588 -0.0999  0.5575  0.1660
  358MOL0     C49285  12.340   4.517   5.530  0.1923 -0.6210 -0.5887
  358MOL0     C49286  12.415   4.655   5.515  0.2968 -0.3275  0.1292
  358MOL0     C49287  12.557   4.655   5.565  1.5219  0.2092  0.6456
  358MOL0     C49288  12.547   4.629   5.712 -0.6974 -0.5550 -0.6579
  358MOL0     C49289  12.684   4.650   5.776  0.8920  0.0846 -0.0827
  358MOL0     O49290  12.731   4.779   5.762 -0.1730  0.2445  0.1978
  358MOL0     C49291  12.868   4.801   5.777  0.5827 -0.0987  0.3922
  358MOL0     C49292  12.906   4.935   5.758 -0.6827  0.9450  0.2715
  358MOL0     C49293  13.041   4.975   5.776  0.3754  0.4864 -0.6978
  358MOL0     C49294  13.080   5.117   5.747  0.0976 -0.1425 -0.0670
  358MOL0     C49295  13.137   4.876   5.818  0.5622  0.3159 -0.0690
  358MOL0     C49296  13.279   4.915   5.833 -0.0214  0.1035 -0.6398
  358MOL0     O49297  13.341   4.985   5.733  0.1811  0.0057  0.2400
  358MOL0     C49298  13.464   5.031   5.745  0.2603 -0.0259  1.4241
  358MOL0     C49299  13.477   5.128   5.841 -0.1062  0.1872  0.2044
  358MOL0     C49300  13.606   5.193   5.843  0.7011 -0.1700 -0.9610
  358MOL0     C49301  13.714   5.161   5.760  0.0958 -0.1029  0.3614
  358MOL0     O49302  13.826   5.244   5.764  0.5830  0.0937  0.3972
  358MOL0     C49303  13.905   5.259   5.648 -0.8191  0.5124 -0.4215
  358MOL0     C49304  14.014   5.154   5.646 -0.4407 -0.1271  0.4867
  358MOL0     C49305  14.096   5.149   5.773 -0.5544  0.7715  0.1427
  358MOL0     C49306  14.204   5.265   5.771  0.4240 -1.0884 -0.3409
  358MOL0     C49307  14.284   5.259   5.906  1.1321  0.5852 -0.0344
  358MOL0     C49308  14.391   5.360   5.896 -0.2402  0.3896  0.6688
  358MOL0     C49309  14.490   5.356   6.012 -0.1105  0.4163 -0.2875
  358MOL0     C49310  14.576   5.479   5.998  0.4193  0.1575  1.3589
  358MOL0    Cl49311  14.724   5.452   6.092 -0.1254 -0.2254 -0.1506
  358MOL0     C49312  13.696   5.048   5.669  0.1496  0.5027 -0.6472
  358MOL0     C49313  13.565   4.982   5.668  0.0393  0.2754 -0.3336
  358MOL0     O49314  13.339   4.871   5.937  0.2749 -0.3401 -0.4993
  358MOL0     C49315  13.099   4.743   5.847 -0.3192 -0.0114  1.0731
  358MOL0     C49316  12.963   4.708   5.832 -0.2460  0.2091  0.3443
  358MOL0     N49317  12.376   4.393   5.479 -0.3752  0.0891 -0.7005
  358MOL0     N49318  12.285   4.304   5.508  0.1213  0.3580 -0.3237
  358MOL0     C49319  11.291   4.624   5.028 -0.8199 -0.3690 -1.0518
  358MOL0     C49320  11.180   4.691   4.979  0.1358  0.2859  0.0395
  358MOL0     C49321  10.907   4.864   4.645  0.6337 -1.3646 -0.1299
  358MOL0     C49322  10.877   4.849   4.509  0.5067 -0.3358  1.0468
  358MOL0     C49323  10.768   4.915   4.459  0.3104 -0.1749  0.5513
  358MOL0     C49324  10.701   5.008   4.530 -0.1761 -0.3135 -0.7874
  358MOL0     O49325  10.604   5.071   4.469  0.1862  0.1362 -0.3128
  358MOL0     C49326  10.589   5.213   4.483 -0.6920 -0.5604  0.8007
  358MOL0     C49327  10.441   5.254   4.492  0.3481  1.4346 -0.1856
  358MOL0     C49328  10.346   5.174   4.391  0.4310  0.4511 -0.3534
  358MOL0     C49329  10.379   5.170   4.238 -0.5606 -0.1939  0.2466
  358MOL0     C49330  10.413   5.304   4.185 -0.3768 -0.2670 -0.1650
  358MOL0     C49331  10.443   5.403   4.129 -0.4774 -0.8980 -0.4654
  358MOL0     C49332  10.739   5.038   4.668  0.5098  0.5467  1.0315
  358MOL0     C49333  10.841   4.960   4.722 -0.1542 -0.5075  0.5340
  358MOL0     C49334  10.842   4.978   4.875  0.0716 -0.1071 -0.1327
  358MOL0     H49335  11.288   4.763   4.676 -2.7018 -0.0471  0.3436
  358MOL0     H49336  11.506   4.627   4.768  1.3227 -1.6398  3.1103
  358MOL0     H49337  11.681   4.450   4.969  0.8209  1.8629  4.5864
  358MOL0     H49338  11.525   4.416   4.892  2.5724  0.4288 -1.8916
  358MOL0     H49339  11.446   4.297   5.087  0.1768 -1.2154  0.7094
  358MOL0     H49340  11.603   4.228   5.050  1.0101  1.2572 -1.5500
  358MOL0     H49341  11.594   4.448   5.248 -0.7866 -0.1477 -1.4850
  358MOL0     H49342  11.556   4.285   5.302 -0.4310  0.8429  0.0147
  358MOL0     H49343  11.783   4.226   5.185  1.3933 -1.1064  2.0092
  358MOL0     H49344  11.805   4.399   5.179 -0.1111 -0.1275 -1.6609
  358MOL0     H49345  11.769   4.201   5.418  0.7820  0.0823 -1.9069
  358MOL0     H49346  11.728   4.367   5.442 -0.7849  1.0015 -0.5510
  358MOL0     H49347  11.988   4.336   5.327  1.1010 -2.7798  0.8976
  358MOL0     H49348  11.944   4.425   5.469 -1.5306 -0.0173 -0.9639
  358MOL0     H49349  12.079   4.185   5.419  0.4618 -0.3535  1.1935
  358MOL0     H49350  11.939   4.138   5.530 -2.0648  0.0580 -2.1133
  358MOL0     H49351  12.027   4.326   5.691 -1.3054  1.2591 -2.5487
  358MOL0     H49352  12.126   4.175   5.665  2.0034  1.9985  1.4015
  358MOL0     H49353  12.175   4.562   5.655 -3.4008 -1.7439  0.6256
  358MOL0     H49354  12.352   4.736   5.554 -2.4275 -1.9452 -0.6863
  358MOL0     H49355  12.431   4.674   5.409  2.4345 -2.5975 -0.0519
  358MOL0     H49356  12.606   4.569   5.518 -1.6436 -0.8574 -1.0244
  358MOL0     H49357  12.606   4.746   5.531 -0.0894  0.4531 -1.2381
  358MOL0     H49358  12.482   4.698   5.766 -0.2784  1.1036 -2.1902
  358MOL0     H49359  12.502   4.531   5.733 -0.7417 -0.4468 -0.2371
  358MOL0     H49360  12.671   4.622   5.881  0.0885 -0.6860 -0.3774
  358MOL0     H49361  12.758   4.590   5.722  1.7964 -1.2656  2.4617
  358MOL0     H49362  12.838   5.016   5.732  0.3805  1.2950 -1.5284
  358MOL0     H49363  13.146   5.164   5.820  0.3277 -0.7447  0.1217
  358MOL0     H49364  12.986   5.173   5.743  0.3778  0.7629  3.0296
  358MOL0     H49365  13.127   5.132   5.649 -2.9858  3.7975 -1.2168
  358MOL0     H49366  13.388   5.161   5.892 -3.1216 -0.7353 -3.9717
  358MOL0     H49367  13.615   5.280   5.906  1.8439 -1.1623  0.3021
  358MOL0     H49368  13.837   5.247   5.563 -0.0529 -2.5054 -0.7224
  358MOL0     H49369  13.944   5.361   5.639 -1.6003  0.7317 -1.5049
  358MOL0     H49370  13.963   5.062   5.618 -0.3109 -0.1884  0.4532
  358MOL0     H49371  14.086   5.176   5.567 -0.8543 -0.0142  0.1419
  358MOL0     H49372  14.159   5.060   5.769 -0.4963  0.8760 -1.9917
  358MOL0     H49373  14.047   5.165   5.870  0.9213  1.6940  0.7919
  358MOL0     H49374  14.165   5.366   5.759  2.7702 -0.1104 -0.3862
  358MOL0     H49375  14.275   5.245   5.690 -0.9225  0.2649 -1.9048
  358MOL0     H49376  14.223   5.297   5.990 -3.5725 -0.8539 -2.4547
  358MOL0     H49377  14.327   5.159   5.918 -0.8507 -0.1911  1.0136
  358MOL0     H49378  14.337   5.453   5.915 -0.6725  0.3454 -0.2811
  358MOL0     H49379  14.431   5.367   5.794 -2.3982 -1.8862 -0.4258
  358MOL0     H49380  14.551   5.265   6.011  0.3170  0.7096 -1.8232
  358MOL0     H49381  14.442   5.368   6.110 -0.7184  2.0824 -0.7577
  358MOL0     H49382  14.526   5.568   6.037 -0.6165  0.3722 -0.3682
  358MOL0     H49383  14.611   5.504   5.897  0.0253 -0.6593  1.0181
  358MOL0     H49384  13.765   5.021   5.590 -0.2781  0.1830 -0.9177
  358MOL0     H49385  13.539   4.901   5.601 -1.4162  1.8483 -1.7686
  358MOL0     H49386  13.174   4.677   5.889 -0.1815  0.3453  1.3994
  358MOL0     H49387  12.937   4.604   5.844 -2.1176  0.9091  3.1599
  358MOL0     H49388  11.281   4.601   5.133 -2.0490  3.9343 -0.0326
  358MOL0     H49389  11.094   4.693   5.045 -0.6203 -1.4687 -0.8422
  358MOL0     H49390  10.927   4.775   4.448 -1.1291 -0.0140 -0.7990
  358MOL0     H49391  10.742   4.908   4.354 -0.1394  0.3798  0.6223
  358MOL0     H49392  10.644   5.248   4.571  1.3701 -1.0633 -0.2353
  358MOL0     H49393  10.627   5.249   4.387  1.4972 -0.7810  1.5358
  358MOL0     H49394  10.440   5.362   4.470  1.6723  1.0530 -2.4628
  358MOL0     H49395  10.421   5.230   4.596  0.7518  0.6907 -0.2752
  358MOL0     H49396  10.335   5.071   4.429 -0.6790  1.2902  1.7583
  358MOL0     H49397  10.250   5.226   4.398  1.1693  1.6699  1.1111
  358MOL0     H49398  10.291   5.121   4.196 -0.6899  1.7893 -1.9671
  358MOL0     H49399  10.458   5.097   4.218 -0.8750 -0.0939 -1.4984
  358MOL0     H49400  10.471   5.485   4.065  2.0213 -1.6254 -0.4378
  358MOL0     H49401  10.690   5.113   4.728 -2.0655  0.1048 -0.4102
  358MOL0     H49402  10.855   4.881   4.924  3.0706  0.8524  1.1784
  358MOL0     H49403  10.936   5.029   4.898  1.3218 -2.1490 -0.4472
  358MOL0     H49404  10.753   5.028   4.914  0.4103  0.5582 -0.2067
  359MOL0     O49405   8.484   3.826   7.779  0.0479 -0.0158  0.3753
  359MOL0     C49406   8.527   3.893   7.684  0.0545  0.0270  0.4620
  359MOL0     O49407   8.655   3.958   7.667  0.6382  0.6434  0.1254
  359MOL0     C49408   8.761   3.945   7.752  0.1340  0.6978  0.0076
  359MOL0     C49409   8.743   3.920   7.885  0.3325  0.3837 -0.3948
  359MOL0     C49410   8.848   3.912   7.975  0.2152 -0.1824  0.0292
  359MOL0     C49411   8.973   3.923   7.925 -0.2474  0.3322  0.1829
  359MOL0     O49412   9.072   3.903   8.012  0.2918 -0.6322  0.7511
  359MOL0     C49413   9.205   3.935   7.983 -1.1575  0.0941 -0.2412
  359MOL0     C49414   9.295   3.894   8.096  0.2195  0.4050 -0.3219
  359MOL0     C49415   9.432   3.960   8.092  0.5339 -0.2447 -0.2614
  359MOL0     C49416   9.523   3.871   8.186  0.2659 -1.1512  0.4437
  359MOL0     C49417   9.676   3.900   8.171  1.1140 -0.0351 -1.0219
  359MOL0     C49418   9.712   4.013   8.077  0.0850  0.3176  0.3871
  359MOL0     C49419   9.867   4.037   8.089 -0.1388 -0.7523 -0.8099
  359MOL0     C49420   9.910   4.061   8.229 -0.6188 -0.5902 -1.2096
  359MOL0     N49421  10.046   4.107   8.244  0.5362 -0.2689 -0.9890
  359MOL0     C49422  10.079   4.208   8.327 -0.1640 -0.3939  0.1569
  359MOL0     C49423  10.212   4.208   8.340 -0.7133  1.1338  0.2461
  359MOL0     C49424  10.309   4.287   8.431  0.6375 -0.2292  0.0261
  359MOL0     C49425  10.377   4.394   8.356 -0.1948  0.1776  0.2934
  359MOL0     C49426  10.488   4.356   8.261 -0.0589 -0.3315 -1.0037
  359MOL0     C49427  10.572   4.482   8.229  1.3087  0.1209 -0.3555
  359MOL0     O49428  10.658   4.434   8.131 -0.0411 -1.1673 -0.6759
  359MOL0     C49429  10.767   4.502   8.076  0.7966  0.0653 -0.5984
  359MOL0     C49430  10.800   4.470   7.945  0.1171  0.3987 -0.0505
  359MOL0     C49431  10.921   4.511   7.890  0.0753  0.8400  0.1676
  359MOL0     C49432  10.951   4.468   7.753  1.0001 -0.8566  1.0133
  359MOL0     C49433  11.015   4.590   7.966 -1.0470 -0.1293 -0.2740
  359MOL0     C49434  11.159   4.629   7.926 -0.4034  0.1406 -0.6290
  359MOL0     O49435  11.192   4.619   7.790  0.4457  0.0041 -1.1247
  359MOL0     C49436  11.314   4.660   7.749 -0.7381 -0.4360 -0.0162
  359MOL0     C49437  11.367   4.781   7.783 -0.2021  0.6402  0.6273
  359MOL0     C49438  11.491   4.828   7.739  0.2783 -0.7634  0.0513
  359MOL0     C49439  11.558   4.755   7.639 -0.0421  0.4251  0.4937
  359MOL0     O49440  11.678   4.791   7.575 -0.0850 -0.2353 -0.2922
  359MOL0     C49441  11.745   4.911   7.613  0.3204  0.0601  0.0639
  359MOL0     C49442  11.890   4.929   7.575 -0.2806  0.2432  0.4454
  359MOL0     C49443  11.888   4.912   7.427 -0.2053 -0.0740 -0.0399
  359MOL0     C49444  12.013   4.975   7.363 -0.8447 -0.5674 -1.0124
  359MOL0     C49445  12.019   4.938   7.220  0.4105 -0.1035  0.0710
  359MOL0     C49446  12.149   4.974   7.147 -0.3774 -0.3346  0.0028
  359MOL0     C49447  12.163   4.911   7.005 -1.0740  0.8753 -0.9948
  359MOL0     C49448  12.308   4.938   6.952 -0.1270 -0.6073 -0.6490
  359MOL0    Cl49449  12.431   4.854   7.054  0.0526  0.2967 -0.1893
  359MOL0     C49450  11.496   4.641   7.591  0.8114  1.3363  0.2346
  359MOL0     C49451  11.378   4.593   7.646  0.3921  0.6093 -0.3411
  359MOL0     O49452  11.230   4.664   8.019 -0.2394  0.1046  0.1137
  359MOL0     C49453  10.976   4.627   8.099  0.7121 -0.1703  0.2275
  359MOL0     C49454  10.861   4.577   8.151 -0.7612  0.0244  0.1338
  359MOL0     N49455  10.269   4.102   8.272 -0.0539 -0.8023 -0.1166
  359MOL0     N49456  10.164   4.055   8.206 -0.8268  0.5507 -0.2967
  359MOL0     C49457   8.999   3.944   7.786  0.8635  0.2892  0.0066
  359MOL0     C49458   8.892   3.962   7.700  0.9360  0.3784  0.0495
  359MOL0     C49459   8.431   3.935   7.576 -0.1888  0.4648  0.0411
  359MOL0     C49460   8.438   4.072   7.516  0.0033  0.1840  0.3489
  359MOL0     C49461   8.345   4.109   7.413  1.0774  0.0492 -0.2131
  359MOL0     C49462   8.236   4.022   7.368 -0.1678  0.4891 -1.1501
  359MOL0     O49463   8.146   4.047   7.273  0.4801 -0.4345 -0.2464
  359MOL0     C49464   8.115   4.187   7.249 -0.0076  0.2313  0.7661
  359MOL0     C49465   8.056   4.263   7.363 -0.9337 -1.1402 -0.2347
  359MOL0     C49466   7.972   4.389   7.308  0.3558  0.5475 -0.7631
  359MOL0     C49467   7.922   4.473   7.427 -0.2516  0.4843 -0.2254
  359MOL0     C49468   8.036   4.538   7.494  0.2734 -0.0362 -0.5922
  359MOL0     C49469   8.137   4.583   7.544 -0.9759 -0.4996 -0.1159
  359MOL0     C49470   8.231   3.898   7.433 -0.3423 -0.2507 -0.2615
  359MOL0     C49471   8.320   3.850   7.533  1.1187  0.4915  0.9846
  359MOL0     C49472   8.291   3.709   7.581  0.2070 -0.3167 -0.0355
  359MOL0     H49473   8.648   3.893   7.930 -1.3640 -1.8460 -4.7427
  359MOL0     H49474   8.830   3.890   8.079  2.1796 -0.6315  0.3188
  359MOL0     H49475   9.233   4.039   7.962  1.9644 -0.7141 -0.6602
  359MOL0     H49476   9.236   3.885   7.891 -0.0563  1.0993 -0.4484
  359MOL0     H49477   9.232   3.931   8.178 -0.3983  1.4310 -1.2344
  359MOL0     H49478   9.306   3.785   8.096  1.0204  0.4790 -0.6208
  359MOL0     H49479   9.468   3.960   7.989  1.2092 -2.5311 -0.0780
  359MOL0     H49480   9.417   4.065   8.118 -1.7860 -0.4315 -0.6367
  359MOL0     H49481   9.497   3.892   8.290 -0.5343 -1.3749  0.2928
  359MOL0     H49482   9.515   3.762   8.175 -0.4047 -1.2556  1.8552
  359MOL0     H49483   9.714   3.808   8.126 -0.2383 -1.0055 -0.2916
  359MOL0     H49484   9.713   3.914   8.273  1.3662 -0.9386 -0.9771
  359MOL0     H49485   9.692   3.989   7.973 -0.6165  1.9878  0.1103
  359MOL0     H49486   9.659   4.104   8.106 -2.6149 -0.7215 -0.9620
  359MOL0     H49487   9.894   4.115   8.017  0.3515 -2.3227 -2.3994
  359MOL0     H49488   9.927   3.949   8.063  3.5199  1.4361 -0.5703
  359MOL0     H49489   9.836   4.128   8.274 -0.4495 -1.9473  1.2312
  359MOL0     H49490   9.911   3.973   8.294 -0.5994  0.7644  0.7149
  359MOL0     H49491  10.007   4.274   8.375  0.2569 -0.5984  1.1029
  359MOL0     H49492  10.386   4.222   8.475  0.5282  1.6214  3.3377
  359MOL0     H49493  10.246   4.344   8.501  1.3413  1.2684 -0.5188
  359MOL0     H49494  10.303   4.450   8.298  0.5858  2.0950  1.1043
  359MOL0     H49495  10.408   4.453   8.442 -1.1174  1.1800 -0.0399
  359MOL0     H49496  10.551   4.276   8.302 -0.9904  0.4204  2.1489
  359MOL0     H49497  10.446   4.323   8.165 -3.7302 -0.6729  0.5793
  359MOL0     H49498  10.492   4.549   8.194 -0.6640 -0.3229  2.9613
  359MOL0     H49499  10.623   4.517   8.319 -1.2404  0.8286  0.9100
  359MOL0     H49500  10.735   4.410   7.882  2.0442 -0.7201 -1.0861
  359MOL0     H49501  10.942   4.557   7.691 -1.6871 -0.3105  2.0252
  359MOL0     H49502  10.880   4.390   7.723 -0.2581  0.5297  0.2438
  359MOL0     H49503  11.054   4.434   7.745  1.4312  0.2991  1.3985
  359MOL0     H49504  11.315   4.830   7.864 -0.2579  0.7277  0.5381
  359MOL0     H49505  11.529   4.927   7.763 -1.7389  0.3866 -1.2597
  359MOL0     H49506  11.700   4.999   7.566  1.9746  0.1391 -1.5080
  359MOL0     H49507  11.742   4.906   7.722 -1.5745  0.0308  0.0459
  359MOL0     H49508  11.928   5.030   7.595  0.0186  0.4167 -0.9512
  359MOL0     H49509  11.954   4.857   7.626 -0.7248 -0.1186  0.5027
  359MOL0     H49510  11.807   4.967   7.378 -0.4396  1.3549  1.8460
  359MOL0     H49511  11.883   4.805   7.403  1.5113  0.2552 -2.1552
  359MOL0     H49512  12.097   4.947   7.427 -0.4277 -1.7247 -2.0384
  359MOL0     H49513  12.013   5.084   7.357  0.6815 -0.1826  2.9537
  359MOL0     H49514  12.000   4.831   7.216 -1.1928  0.1703 -0.4510
  359MOL0     H49515  11.933   4.982   7.168 -0.0618 -1.4494 -0.3049
  359MOL0     H49516  12.230   4.938   7.211 -0.3652  0.0036  0.1788
  359MOL0     H49517  12.169   5.081   7.158 -1.5514 -0.1395  0.5159
  359MOL0     H49518  12.081   4.952   6.945 -0.1338  1.3726 -1.9822
  359MOL0     H49519  12.158   4.803   7.025  2.0644  0.5968 -1.2419
  359MOL0     H49520  12.324   5.046   6.950 -2.5402 -0.1392  0.6104
  359MOL0     H49521  12.303   4.904   6.848 -1.0792 -3.3432  0.1980
  359MOL0     H49522  11.549   4.589   7.512  0.5380  0.9853  0.2784
  359MOL0     H49523  11.331   4.504   7.605 -2.1817  1.1425  1.2238
  359MOL0     H49524  11.045   4.683   8.161  0.4504  0.7268 -0.2672
  359MOL0     H49525  10.853   4.597   8.257  1.9351  0.1478  0.4006
  359MOL0     H49526   9.099   3.949   7.743 -0.2204 -0.1565 -2.7683
  359MOL0     H49527   8.889   3.980   7.593  2.1074  2.6054  0.3316
  359MOL0     H49528   8.524   4.136   7.532 -0.4213  0.2922  2.5472
  359MOL0     H49529   8.364   4.208   7.372 -0.2645 -0.6852 -2.8166
  359MOL0     H49530   8.206   4.237   7.215 -0.4306  1.0489  0.8253
  359MOL0     H49531   8.037   4.185   7.172 -2.3890  0.4908  3.0634
  359MOL0     H49532   8.138   4.297   7.426 -0.6410  1.1282 -1.7122
  359MOL0     H49533   7.988   4.204   7.424 -2.8787  1.6769  0.5282
  359MOL0     H49534   8.024   4.450   7.234  1.1597  0.5836 -0.1779
  359MOL0     H49535   7.882   4.347   7.261 -0.5197  0.8192  0.6151
  359MOL0     H49536   7.864   4.408   7.493  2.3148  0.4183  2.1549
  359MOL0     H49537   7.858   4.551   7.386  0.2868  1.5774  0.9230
  359MOL0     H49538   8.224   4.622   7.592  0.2673 -0.4951 -2.2375
  359MOL0     H49539   8.148   3.836   7.402 -1.8594  0.9696  1.1583
  359MOL0     H49540   8.218   3.657   7.518 -2.1510  0.0546  2.2137
  359MOL0     H49541   8.380   3.645   7.579  1.6302  1.6003 -2.2924
  359MOL0     H49542   8.243   3.727   7.678 -1.1304 -0.4575 -0.6373
  360MOL0     O49543  10.899   9.249   0.113 -0.2360 -0.0419  0.7868
  360MOL0     C49544  10.807   9.269   0.184  0.7976 -0.4651 -0.2833
  360MOL0     O49545  10.691   9.338   0.150 -0.4010  0.4182  0.1043
  360MOL0     C49546  10.696   9.405   0.031 -0.3749 -0.6603  0.9821
  360MOL0     C49547  10.630   9.363  -0.083 -0.1294 -0.1350 -0.2100
  360MOL0     C49548  10.616   9.438  -0.198  0.8927  0.2639  0.5923
  360MOL0     C49549  10.670   9.576  -0.193  0.5459  0.5686 -0.0304
  360MOL0     O49550  10.620   9.672  -0.281 -0.2005 -0.0236  0.3549
  360MOL0     C49551  10.714   9.741  -0.358 -0.2033 -0.2859  0.2347
  360MOL0     C49552  10.768   9.651  -0.470 -0.3389 -0.3872  0.7924
  360MOL0     C49553  10.658   9.609  -0.562  0.6109  0.4593  0.1592
  360MOL0     C49554  10.592   9.728  -0.636 -0.5466  0.4723  0.6640
  360MOL0     C49555  10.486   9.672  -0.724 -0.0329  0.3125 -1.0183
  360MOL0     C49556  10.536   9.582  -0.847 -0.0345 -0.0162 -0.8537
  360MOL0     C49557  10.644   9.650  -0.926 -0.3221 -0.2012  0.0486
  360MOL0     C49558  10.594   9.786  -0.993  0.0198  0.2454  0.0917
  360MOL0     N49559  10.624   9.912  -0.927 -0.4508  0.5246 -0.2159
  360MOL0     C49560  10.753   9.967  -0.933  0.9566 -0.2433 -0.4411
  360MOL0     C49561  10.738  10.097  -0.895  0.0175 -0.3875 -0.3785
  360MOL0     C49562  10.824  10.217  -0.922  0.5682  0.1782 -0.6354
  360MOL0     C49563  10.944  10.225  -0.827  0.3375 -1.3124 -0.1055
  360MOL0     C49564  11.045  10.346  -0.831 -0.5202  0.3101  0.0670
  360MOL0     C49565  11.162  10.344  -0.730 -0.6204 -0.2447 -0.5646
  360MOL0     O49566  11.273  10.435  -0.764  0.1169  0.4732  0.3578
  360MOL0     C49567  11.374  10.440  -0.664 -0.0116  0.2870 -0.6094
  360MOL0     C49568  11.382  10.345  -0.556  0.3276 -0.3449 -0.6093
  360MOL0     C49569  11.458  10.363  -0.443 -0.3922 -0.4332 -0.5009
  360MOL0     C49570  11.480  10.250  -0.345  0.0981 -0.7055 -0.1760
  360MOL0     C49571  11.517  10.496  -0.424 -0.1385  0.2805 -0.2755
  360MOL0     C49572  11.594  10.537  -0.300  0.4268 -0.2036 -0.7116
  360MOL0     O49573  11.661  10.652  -0.307  0.9706  0.7666 -0.0865
  360MOL0     C49574  11.713  10.707  -0.190 -0.4263  0.8980  0.1728
  360MOL0     C49575  11.682  10.837  -0.154  0.0019  0.2007 -0.5005
  360MOL0     C49576  11.754  10.892  -0.041 -0.4156 -0.5212  0.2840
  360MOL0     C49577  11.853  10.822   0.022 -0.3326 -0.1824  0.7282
  360MOL0     O49578  11.936  10.873   0.117  0.0755 -0.4041  0.1823
  360MOL0     C49579  11.883  10.992   0.180 -0.5974  0.5875 -0.0535
  360MOL0     C49580  11.984  11.038   0.287  0.2138 -0.8606 -0.6402
  360MOL0     C49581  12.116  11.088   0.216 -0.9192 -1.0309 -0.5024
  360MOL0     C49582  12.207  11.171   0.314  1.4130 -0.0059  0.9874
  360MOL0     C49583  12.343  11.180   0.269 -0.0846 -0.3343 -0.4055
  360MOL0     C49584  12.446  11.236   0.369 -0.3103  0.1426  0.3350
  360MOL0     C49585  12.474  11.377   0.332 -0.6521  0.1802  0.5082
  360MOL0     C49586  12.574  11.435   0.429 -0.2161 -0.6959 -0.3405
  360MOL0    Cl49587  12.489  11.453   0.590 -0.2000 -0.1740 -0.1378
  360MOL0     C49588  11.881  10.691  -0.011  0.5630  0.0485  0.0481
  360MOL0     C49589  11.811  10.629  -0.122  0.2686  1.3499 -0.2076
  360MOL0     O49590  11.571  10.483  -0.193 -0.4204 -0.6627 -0.6469
  360MOL0     C49591  11.515  10.588  -0.531 -0.6711  0.4314  0.3592
  360MOL0     C49592  11.463  10.552  -0.658 -0.4822  0.3238  0.5621
  360MOL0     N49593  10.607  10.113  -0.852  0.4829  0.1589  0.3193
  360MOL0     N49594  10.539  10.004  -0.875  0.6066 -0.9916  0.4410
  360MOL0     C49595  10.744   9.615  -0.085  0.0138 -0.1671 -0.4488
  360MOL0     C49596  10.752   9.535   0.026  1.2519 -0.7631  0.0308
  360MOL0     C49597  10.808   9.247   0.330 -0.7656  0.5651 -0.0398
  360MOL0     C49598  10.683   9.258   0.401  0.3622  0.0645  0.1649
  360MOL0     C49599  10.680   9.249   0.539 -0.0510  0.5415 -0.0041
  360MOL0     C49600  10.799   9.217   0.608  0.9045 -0.5359 -0.7485
  360MOL0     O49601  10.788   9.235   0.748 -0.2071  0.0292 -0.6524
  360MOL0     C49602  10.762   9.104   0.807  0.0287 -0.5166 -0.6937
  360MOL0     C49603  10.761   9.126   0.962 -0.1197  0.6411  0.5123
  360MOL0     C49604  10.656   9.226   1.010  0.0878 -0.2621  0.2368
  360MOL0     C49605  10.512   9.184   0.990  0.6080  0.6156  0.3082
  360MOL0     C49606  10.416   9.270   1.066 -1.0913  0.2811  0.0900
  360MOL0     C49607  10.348   9.354   1.120  0.1198  0.8362  0.0626
  360MOL0     C49608  10.912   9.204   0.539 -0.3970  0.6765 -0.3156
  360MOL0     C49609  10.929   9.223   0.405  0.2623  0.7223 -0.3677
  360MOL0     C49610  11.060   9.195   0.348  0.0434 -0.1411 -0.1102
  360MOL0     H49611  10.575   9.269  -0.077  1.4742 -1.1919 -1.4418
  360MOL0     H49612  10.562   9.400  -0.284  0.7692  2.2272 -0.2468
  360MOL0     H49613  10.791   9.781  -0.292 -1.9767  0.7762  1.7608
  360MOL0     H49614  10.653   9.825  -0.393 -0.2396  0.4060  1.9042
  360MOL0     H49615  10.848   9.695  -0.530 -1.0470 -0.6723 -0.3922
  360MOL0     H49616  10.817   9.566  -0.420 -0.4023  0.0258  1.5716
  360MOL0     H49617  10.698   9.531  -0.628  0.1641  1.6440 -1.5864
  360MOL0     H49618  10.581   9.560  -0.502  0.8171 -3.0414 -2.1641
  360MOL0     H49619  10.549   9.805  -0.571  1.3012 -0.0963  2.7095
  360MOL0     H49620  10.667   9.782  -0.693 -1.5389  2.3293  1.0279
  360MOL0     H49621  10.424   9.748  -0.771 -5.9722 -2.4972  1.2238
  360MOL0     H49622  10.433   9.605  -0.654  2.0368 -0.0548  0.2954
  360MOL0     H49623  10.577   9.484  -0.823  0.3310 -0.4490 -3.0829
  360MOL0     H49624  10.447   9.556  -0.905  0.1457 -0.1531 -1.0678
  360MOL0     H49625  10.673   9.586  -1.010 -1.7185 -1.0399  0.1827
  360MOL0     H49626  10.728   9.675  -0.861 -0.2954 -2.0736  0.7983
  360MOL0     H49627  10.640   9.782  -1.092  1.5407 -3.7053  0.7801
  360MOL0     H49628  10.488   9.787  -1.019  0.5132 -0.5470 -2.1381
  360MOL0     H49629  10.843   9.916  -0.965  0.4549 -0.9375 -0.7807
  360MOL0     H49630  10.761  10.306  -0.914  2.6714  1.6370  1.0251
  360MOL0     H49631  10.863  10.214  -1.024  0.8842 -1.7189 -0.4908
  360MOL0     H49632  10.908  10.221  -0.724 -1.1058 -1.9090 -0.6069
  360MOL0     H49633  11.003  10.133  -0.834 -0.4749 -2.0478  2.0082
  360MOL0     H49634  11.081  10.347  -0.935  1.8789 -0.1029  0.8376
  360MOL0     H49635  10.997  10.442  -0.810 -0.3189  0.8368 -1.7054
  360MOL0     H49636  11.112  10.371  -0.637  3.5435  0.2992  1.7457
  360MOL0     H49637  11.198  10.240  -0.723  1.0118  0.1015 -2.6868
  360MOL0     H49638  11.329  10.252  -0.569 -1.3598  0.5354 -0.3349
  360MOL0     H49639  11.436  10.160  -0.390  3.1370 -1.1973 -2.4872
  360MOL0     H49640  11.431  10.287  -0.254  0.4723  0.1908 -0.3346
  360MOL0     H49641  11.585  10.224  -0.333  0.7397  2.1258  1.1152
  360MOL0     H49642  11.604  10.887  -0.211 -0.3625 -0.7283 -0.8225
  360MOL0     H49643  11.710  10.980   0.004 -1.6251  0.1512 -2.0669
  360MOL0     H49644  11.880  11.075   0.108 -0.1856  0.7884  0.1573
  360MOL0     H49645  11.789  10.966   0.228 -0.6139 -2.5831 -1.5366
  360MOL0     H49646  11.955  11.128   0.343  1.7564 -0.5434 -0.3103
  360MOL0     H49647  11.990  10.963   0.366  0.9702  0.0841  0.2373
  360MOL0     H49648  12.078  11.156   0.140  0.0359  2.1574  1.6571
  360MOL0     H49649  12.166  11.001   0.173  0.4226  0.3745 -1.9361
  360MOL0     H49650  12.208  11.109   0.404 -0.9728 -0.2949  0.9046
  360MOL0     H49651  12.156  11.263   0.345  0.3139 -0.0580 -0.5354
  360MOL0     H49652  12.374  11.077   0.250 -0.4847 -0.0639 -2.7500
  360MOL0     H49653  12.344  11.229   0.171  2.9677 -0.9200 -0.7646
  360MOL0     H49654  12.541  11.186   0.351 -0.1515  0.9959 -1.3827
  360MOL0     H49655  12.414  11.224   0.474 -2.6090 -1.8390 -0.4919
  360MOL0     H49656  12.388  11.444   0.331 -1.6833 -1.0947  1.5403
  360MOL0     H49657  12.522  11.384   0.234  2.0131  0.4148  1.7301
  360MOL0     H49658  12.617  11.534   0.407  3.5361 -1.1749  3.4709
  360MOL0     H49659  12.656  11.372   0.465  1.4461  1.9291  0.7828
  360MOL0     H49660  11.960  10.633   0.036  1.2558 -1.8243 -3.0919
  360MOL0     H49661  11.836  10.527  -0.149 -1.6283  1.2730 -1.8931
  360MOL0     H49662  11.572  10.680  -0.522  0.4340 -0.1006 -0.9071
  360MOL0     H49663  11.453  10.624  -0.738 -2.4860 -0.3543  0.1364
  360MOL0     H49664  10.756   9.723  -0.083 -1.5851  0.0367 -0.8139
  360MOL0     H49665  10.791   9.566   0.122  0.8802 -2.8089  0.8959
  360MOL0     H49666  10.589   9.287   0.354  1.4283  0.4231 -1.8835
  360MOL0     H49667  10.583   9.265   0.585 -0.3049  0.9967 -0.6795
  360MOL0     H49668  10.663   9.070   0.776 -0.5004 -0.0778  0.4448
  360MOL0     H49669  10.838   9.031   0.781 -1.6118 -1.8223 -1.9888
  360MOL0     H49670  10.864   9.155   0.983 -0.1355  0.9387  0.1798
  360MOL0     H49671  10.741   9.024   0.997 -1.1544  0.4696 -0.5198
  360MOL0     H49672  10.671   9.240   1.117 -0.3693 -2.6830  0.6704
  360MOL0     H49673  10.670   9.324   0.962  0.9782 -0.4290  0.1413
  360MOL0     H49674  10.509   9.080   1.025  1.6410  0.9327  1.3847
  360MOL0     H49675  10.483   9.172   0.885  1.4529 -0.3167  0.1683
  360MOL0     H49676  10.291   9.425   1.176 -0.1317  2.1795 -1.8030
  360MOL0     H49677  10.994   9.173   0.602  0.6540  0.7409 -1.6051
  360MOL0     H49678  11.126   9.166   0.430 -1.7735  0.0347  1.4715
  360MOL0     H49679  11.052   9.103   0.288  0.7491 -0.1932 -0.1396
  360MOL0     H49680  11.106   9.273   0.287  0.5698  0.5151  1.1074
  361MOL0     O49681  10.566   2.061   9.175  0.3376  0.0073  0.3272
  361MOL0     C49682  10.551   2.106   9.063  0.6032 -0.4852  1.1801
  361MOL0     O49683  10.647   2.113   8.962  0.1950 -0.2762 -0.2935
  361MOL0     C49684  10.772   2.107   8.998 -0.2427  0.1463 -0.2806
  361MOL0     C49685  10.832   2.207   9.080  0.4462 -0.3018 -0.0536
  361MOL0     C49686  10.962   2.187   9.126 -0.4719 -0.2992 -0.5883
  361MOL0     C49687  11.033   2.072   9.089  0.5147 -0.1019 -0.2168
  361MOL0     O49688  11.163   2.061   9.143 -0.0162  0.7260  0.0557
  361MOL0     C49689  11.254   1.959   9.096 -0.5500  0.4563 -0.5376
  361MOL0     C49690  11.328   2.004   8.963  0.1086  0.1411 -1.1464
  361MOL0     C49691  11.410   1.883   8.897  0.9862 -0.1083  0.4883
  361MOL0     C49692  11.556   1.891   8.925 -0.4837 -0.5631 -0.7768
  361MOL0     C49693  11.632   1.777   8.851  0.3834 -0.0778  0.0229
  361MOL0     C49694  11.683   1.815   8.707 -0.5730  0.3291 -0.7053
  361MOL0     C49695  11.785   1.714   8.660  1.1672 -0.5858  0.6042
  361MOL0     C49696  11.858   1.777   8.545  0.0754  0.1453 -0.5557
  361MOL0     N49697  11.975   1.690   8.508 -0.0314 -0.4775 -0.6206
  361MOL0     C49698  12.068   1.637   8.595 -0.2828 -0.8974 -0.3679
  361MOL0     C49699  12.160   1.571   8.516  0.4605  0.7166  0.0596
  361MOL0     C49700  12.268   1.488   8.579 -1.1354  0.5997 -0.0355
  361MOL0     C49701  12.387   1.472   8.479  0.2406  0.0429  0.4449
  361MOL0     C49702  12.503   1.402   8.539  0.6160  0.2787  0.5831
  361MOL0     C49703  12.630   1.423   8.453 -0.1100  0.5697  0.5530
  361MOL0     O49704  12.738   1.332   8.490 -0.2980 -0.8537 -0.3055
  361MOL0     C49705  12.849   1.381   8.560  0.5683  0.3107  0.1023
  361MOL0     C49706  12.976   1.326   8.533 -0.4756 -0.1889 -0.4448
  361MOL0     C49707  13.094   1.385   8.578  0.8550 -0.8054 -0.1584
  361MOL0     C49708  13.221   1.297   8.552  0.4467 -1.1901 -0.4206
  361MOL0     C49709  13.084   1.493   8.669  0.2951  0.2102 -0.0265
  361MOL0     C49710  13.195   1.571   8.712 -0.6532  1.2875  0.1867
  361MOL0     O49711  13.311   1.558   8.633  0.0833 -0.1277  0.1610
  361MOL0     C49712  13.404   1.659   8.644 -0.6034 -0.5924  0.4615
  361MOL0     C49713  13.390   1.795   8.604  0.6834  0.6129  0.0692
  361MOL0     C49714  13.495   1.878   8.599 -1.4664 -0.5782  0.2113
  361MOL0     C49715  13.627   1.842   8.643  0.0034 -0.8160 -0.6266
  361MOL0     O49716  13.719   1.938   8.666  0.9878  0.5867  0.1991
  361MOL0     C49717  13.759   2.021   8.559 -0.0368  0.3210  0.1663
  361MOL0     C49718  13.909   2.025   8.544  0.3741  0.6543 -0.0173
  361MOL0     C49719  13.963   1.886   8.502  0.3536  0.1594  0.2463
  361MOL0     C49720  14.112   1.891   8.484  0.6937 -0.0701 -0.7777
  361MOL0     C49721  14.145   1.807   8.364 -1.5682 -0.5711  0.7719
  361MOL0     C49722  14.301   1.791   8.358  0.0582 -0.1561  0.2777
  361MOL0     C49723  14.350   1.723   8.227  0.0308  0.1968 -0.4819
  361MOL0     C49724  14.503   1.738   8.221  0.9762 -0.4264  0.5665
  361MOL0    Cl49725  14.550   1.614   8.337  0.0121 -0.3691 -0.1883
  361MOL0     C49726  13.643   1.706   8.680 -0.0681 -0.1087  0.0607
  361MOL0     C49727  13.534   1.608   8.675  0.7413 -0.7900  0.1786
  361MOL0     O49728  13.198   1.632   8.815  0.3328 -0.5648  0.5237
  361MOL0     C49729  12.962   1.547   8.702 -0.1482 -0.1503 -0.1280
  361MOL0     C49730  12.847   1.491   8.649 -1.5881 -0.0300 -0.7467
  361MOL0     N49731  12.112   1.581   8.386  0.4323 -0.4466 -0.2087
  361MOL0     N49732  12.007   1.652   8.379  0.8735  0.6195  0.9100
  361MOL0     C49733  10.972   1.979   8.999  0.6374  0.0714  0.2041
  361MOL0     C49734  10.843   1.998   8.953  0.1900  0.4168  0.2460
  361MOL0     C49735  10.410   2.111   9.018  0.1275 -0.6145 -0.0469
  361MOL0     C49736  10.372   2.022   8.908  0.8677  0.1777 -0.8886
  361MOL0     C49737  10.233   2.020   8.876 -0.7267 -0.3317 -0.0519
  361MOL0     C49738  10.139   2.095   8.949  0.1717 -0.0383  0.6067
  361MOL0     O49739  10.009   2.091   8.911  0.3565  0.2096 -0.0369
  361MOL0     C49740   9.948   1.966   8.943  0.0730 -0.6814 -0.9264
  361MOL0     C49741   9.804   1.988   8.918 -0.5078  0.2787  0.4909
  361MOL0     C49742   9.738   1.857   8.875 -0.5373 -0.4686 -0.7481
  361MOL0     C49743   9.590   1.856   8.901  0.1627  0.3571 -0.9483
  361MOL0     C49744   9.555   1.870   9.043  0.1829  0.8835 -0.2892
  361MOL0     C49745   9.519   1.857   9.162 -0.0143 -0.7274  0.1148
  361MOL0     C49746  10.178   2.181   9.045 -0.1323  0.2726  0.9329
  361MOL0     C49747  10.305   2.179   9.089  0.2653  0.3299 -0.0674
  361MOL0     C49748  10.328   2.276   9.206 -0.4368  0.3449  0.3772
  361MOL0     H49749  10.780   2.299   9.104  1.2930  0.1450  0.0946
  361MOL0     H49750  11.012   2.263   9.184 -1.9073 -0.6152  1.1339
  361MOL0     H49751  11.207   1.861   9.094  0.3972 -0.0085 -0.3847
  361MOL0     H49752  11.341   1.941   9.160 -1.2868  0.2662  0.4362
  361MOL0     H49753  11.243   2.031   8.899 -0.7125  2.0224  0.6295
  361MOL0     H49754  11.395   2.088   8.979  1.8812 -1.5728  1.1077
  361MOL0     H49755  11.374   1.784   8.928  2.2728 -0.4379  0.9567
  361MOL0     H49756  11.386   1.875   8.790  1.8347  0.2091  0.2703
  361MOL0     H49757  11.599   1.984   8.888  2.5119 -2.1059 -1.4994
  361MOL0     H49758  11.582   1.881   9.031 -0.9367  0.7130 -0.5299
  361MOL0     H49759  11.569   1.688   8.852 -0.0264  0.2114  0.1676
  361MOL0     H49760  11.717   1.742   8.910  1.7460 -3.0139 -3.3251
  361MOL0     H49761  11.610   1.822   8.626  2.8310  0.5014 -3.9959
  361MOL0     H49762  11.717   1.919   8.708 -0.5532  0.3735 -2.7032
  361MOL0     H49763  11.748   1.614   8.634 -0.4316  0.3169 -0.7867
  361MOL0     H49764  11.859   1.704   8.740  1.6859 -0.1951  0.1780
  361MOL0     H49765  11.788   1.796   8.463 -1.0878 -0.3877  0.2944
  361MOL0     H49766  11.897   1.876   8.571 -2.4679  1.0943 -0.1599
  361MOL0     H49767  12.060   1.642   8.703  0.9194  1.0533 -0.3185
  361MOL0     H49768  12.211   1.398   8.603  0.1804 -0.2296  0.0878
  361MOL0     H49769  12.308   1.527   8.673  0.8472  1.4470 -1.1779
  361MOL0     H49770  12.348   1.409   8.398 -0.2692  0.8058  0.0822
  361MOL0     H49771  12.412   1.573   8.445 -2.7507 -0.2082 -3.0275
  361MOL0     H49772  12.523   1.445   8.637  1.1648  2.3896 -0.3800
  361MOL0     H49773  12.467   1.301   8.559 -0.7882  0.9217  1.4694
  361MOL0     H49774  12.627   1.383   8.352  0.6547  2.9896 -0.4964
  361MOL0     H49775  12.669   1.525   8.447  0.2795  0.4821  1.4143
  361MOL0     H49776  12.988   1.233   8.478  2.1383 -0.2687  0.1825
  361MOL0     H49777  13.192   1.192   8.545 -3.0595 -0.5280  1.7100
  361MOL0     H49778  13.310   1.306   8.615  0.6041 -1.0531 -0.6600
  361MOL0     H49779  13.247   1.327   8.450  0.2468  0.3782 -0.0381
  361MOL0     H49780  13.292   1.821   8.565 -0.1543 -0.9422  0.9905
  361MOL0     H49781  13.472   1.976   8.559 -2.7698 -0.9347  0.0399
  361MOL0     H49782  13.710   1.996   8.464  1.0129 -0.2927 -0.2234
  361MOL0     H49783  13.728   2.125   8.576 -2.9956 -0.2549 -1.0128
  361MOL0     H49784  13.915   2.093   8.458 -1.4214 -0.8152 -1.3978
  361MOL0     H49785  13.961   2.057   8.635  2.5462 -0.7969 -0.6668
  361MOL0     H49786  13.920   1.868   8.403  0.3792  2.2665 -0.1741
  361MOL0     H49787  13.935   1.807   8.574 -0.6834  1.5068  1.3930
  361MOL0     H49788  14.153   1.844   8.575  1.0185 -0.1453 -0.9605
  361MOL0     H49789  14.143   1.995   8.478  1.4030 -0.2985 -1.2389
  361MOL0     H49790  14.112   1.703   8.369 -0.2149 -1.1660 -1.5354
  361MOL0     H49791  14.114   1.856   8.271  1.1517  0.4537  0.3064
  361MOL0     H49792  14.328   1.728   8.443  0.3498  2.2528  2.0630
  361MOL0     H49793  14.352   1.887   8.358 -3.1531  1.7080 -1.2639
  361MOL0     H49794  14.307   1.776   8.142 -2.3951  0.2893  0.7216
  361MOL0     H49795  14.317   1.619   8.227 -2.1224  0.8279 -0.5826
  361MOL0     H49796  14.531   1.842   8.240  0.2041  0.1185 -1.0574
  361MOL0     H49797  14.555   1.710   8.128 -0.4019  0.7691 -0.6027
  361MOL0     H49798  13.732   1.662   8.725  0.2573 -1.2159 -1.5497
  361MOL0     H49799  13.539   1.502   8.696 -1.9945 -0.3631  4.1691
  361MOL0     H49800  12.963   1.637   8.763  1.3518  0.0809 -0.4555
  361MOL0     H49801  12.751   1.525   8.686 -1.1273 -1.3541  1.9333
  361MOL0     H49802  11.033   1.899   8.958  1.2215 -0.3227  1.7842
  361MOL0     H49803  10.792   1.936   8.881  0.5054 -0.1044  0.4679
  361MOL0     H49804  10.439   1.944   8.874 -0.7078 -0.8363 -1.7934
  361MOL0     H49805  10.206   1.943   8.804  0.0520 -1.9840  1.3541
  361MOL0     H49806   9.980   1.881   8.882 -0.1516  0.0612 -2.0955
  361MOL0     H49807   9.950   1.933   9.048  1.4156  1.4235 -0.2316
  361MOL0     H49808   9.783   2.067   8.846  0.0328 -0.7944 -0.8808
  361MOL0     H49809   9.751   2.021   9.008  0.5249  1.6162  0.6259
  361MOL0     H49810   9.767   1.847   8.769 -1.0966 -2.6354 -0.7556
  361MOL0     H49811   9.781   1.774   8.932 -0.9816  0.4285  0.9295
  361MOL0     H49812   9.546   1.764   8.862 -1.4308  1.1116 -1.0167
  361MOL0     H49813   9.538   1.936   8.847 -2.6429 -0.7970 -0.1308
  361MOL0     H49814   9.500   1.875   9.266 -1.0189 -0.4658 -0.1036
  361MOL0     H49815  10.095   2.235   9.091  0.6757 -0.1457  2.9968
  361MOL0     H49816  10.281   2.243   9.299 -2.9082  2.1560 -0.1362
  361MOL0     H49817  10.437   2.285   9.213 -0.2161 -0.1034 -1.8579
  361MOL0     H49818  10.301   2.377   9.174  1.3309  0.5879 -0.4492
  362MOL0     O49819   2.445   7.699   0.749  0.4892  0.5268  0.0926
  362MOL0     C49820   2.387   7.592   0.746 -0.2405 -0.0939  0.5171
  362MOL0     O49821   2.446   7.472   0.711 -0.1652  0.6414 -0.5874
  362MOL0     C49822   2.580   7.482   0.701 -0.4567 -0.0017 -0.3342
  362MOL0     C49823   2.663   7.484   0.816  0.5524  0.9446  0.0648
  362MOL0     C49824   2.807   7.494   0.811  0.2241 -0.3627  0.1024
  362MOL0     C49825   2.870   7.514   0.685 -0.5434 -0.4211 -0.5024
  362MOL0     O49826   3.012   7.507   0.693 -0.1017 -0.6736  0.5527
  362MOL0     C49827   3.078   7.502   0.567 -0.0100 -0.1788  0.9987
  362MOL0     C49828   3.060   7.358   0.526 -0.0228 -0.1730  0.6985
  362MOL0     C49829   3.118   7.340   0.385 -0.2692  0.0405 -0.5711
  362MOL0     C49830   3.114   7.194   0.330  0.2232  0.1645  0.1913
  362MOL0     C49831   2.989   7.172   0.240  0.2846 -0.3579 -0.3283
  362MOL0     C49832   2.949   7.024   0.201 -0.5654 -0.0155 -0.2013
  362MOL0     C49833   2.922   6.924   0.309 -0.0454  0.1463 -0.1340
  362MOL0     C49834   2.841   6.968   0.426 -0.6671  0.2146 -0.4240
  362MOL0     N49835   2.697   6.987   0.390  0.7086 -0.6381 -0.1892
  362MOL0     C49836   2.606   6.886   0.359  0.7449 -0.8327  0.1124
  362MOL0     C49837   2.494   6.962   0.328 -0.0854 -0.7055  0.1927
  362MOL0     C49838   2.354   6.908   0.296  0.0229  0.9636  0.4684
  362MOL0     C49839   2.369   6.797   0.188  0.2080  0.4053  0.6887
  362MOL0     C49840   2.241   6.761   0.115 -0.0491 -0.4061  0.1849
  362MOL0     C49841   2.153   6.693   0.220  0.3986 -0.3164 -0.0605
  362MOL0     O49842   2.041   6.650   0.141  0.1526  0.3197  0.0099
  362MOL0     C49843   1.941   6.588   0.211 -0.2988  0.1232  0.5249
  362MOL0     C49844   1.958   6.463   0.265  0.4778  0.4272  0.6421
  362MOL0     C49845   1.863   6.398   0.345  0.6905 -0.0389 -0.0907
  362MOL0     C49846   1.893   6.266   0.412 -0.0804  0.2476 -0.2904
  362MOL0     C49847   1.737   6.467   0.362  0.7515  0.1524  1.1319
  362MOL0     C49848   1.613   6.408   0.423  0.0430  0.3170 -0.1868
  362MOL0     O49849   1.497   6.446   0.361  0.0083 -0.4484  0.7214
  362MOL0     C49850   1.377   6.406   0.416  0.6363 -0.0821 -0.1958
  362MOL0     C49851   1.276   6.342   0.343 -0.3473 -0.5968 -0.1445
  362MOL0     C49852   1.168   6.284   0.403  0.3462 -0.1081  0.3399
  362MOL0     C49853   1.139   6.304   0.536 -0.5558  0.4298 -0.5542
  362MOL0     O49854   1.039   6.234   0.604 -0.2242 -0.1168 -0.6607
  362MOL0     C49855   0.913   6.304   0.606  0.3091 -0.2542 -0.1973
  362MOL0     C49856   0.791   6.214   0.623  0.1726  0.1870 -0.0433
  362MOL0     C49857   0.743   6.176   0.768 -0.0229 -0.0096 -0.9606
  362MOL0     C49858   0.858   6.117   0.863  0.0628  0.6111  0.3936
  362MOL0     C49859   0.801   6.062   0.992 -0.4703  1.1446 -0.0282
  362MOL0     C49860   0.915   5.990   1.070  0.5570 -0.0449 -0.1297
  362MOL0     C49861   0.837   5.899   1.172 -0.0835  0.0071 -0.8583
  362MOL0     C49862   0.937   5.849   1.277 -0.1201  0.8295  0.5410
  362MOL0    Cl49863   0.884   5.700   1.363  0.5293 -0.2339  0.3917
  362MOL0     C49864   1.234   6.367   0.610  0.5371 -0.7393  1.1692
  362MOL0     C49865   1.350   6.421   0.553 -0.4286  0.6429 -0.3210
  362MOL0     O49866   1.611   6.328   0.516 -0.1825  0.4227 -0.3332
  362MOL0     C49867   1.721   6.593   0.309  0.3961 -1.1869 -0.3986
  362MOL0     C49868   1.826   6.655   0.239  0.0537  0.0304  0.2548
  362MOL0     N49869   2.520   7.101   0.351  0.4014 -0.2612 -0.0238
  362MOL0     N49870   2.643   7.110   0.393  0.5373 -0.0628 -0.3010
  362MOL0     C49871   2.786   7.530   0.572  0.5662 -0.0659 -0.0611
  362MOL0     C49872   2.645   7.504   0.582 -0.1130  0.3264 -0.4939
  362MOL0     C49873   2.244   7.584   0.798 -0.4558 -0.8650 -0.1468
  362MOL0     C49874   2.196   7.472   0.872  0.5205 -0.5264  0.6254
  362MOL0     C49875   2.069   7.475   0.924  0.4216  0.9580 -0.1796
  362MOL0     C49876   1.981   7.584   0.904  0.9384 -0.2428  0.0475
  362MOL0     O49877   1.853   7.601   0.948 -0.5007 -0.2253  0.3898
  362MOL0     C49878   1.788   7.496   1.023 -0.5059 -0.1970 -0.5572
  362MOL0     C49879   1.689   7.563   1.119  0.5986  0.2522 -0.3114
  362MOL0     C49880   1.779   7.627   1.227  0.3848 -0.7004 -0.1919
  362MOL0     C49881   1.696   7.687   1.336  0.0162  0.3977 -0.5096
  362MOL0     C49882   1.583   7.773   1.280  0.1710  1.2175  0.3467
  362MOL0     C49883   1.488   7.835   1.240  1.3019  0.2137  0.1651
  362MOL0     C49884   2.024   7.687   0.828 -0.7029  0.6599  0.6599
  362MOL0     C49885   2.154   7.690   0.780  0.5381  0.9420 -0.1606
  362MOL0     C49886   2.186   7.806   0.681 -0.0176  0.0366 -0.4449
  362MOL0     H49887   2.625   7.475   0.917  1.3810  1.9483  0.4864
  362MOL0     H49888   2.877   7.487   0.893  1.4366  0.4831 -0.8306
  362MOL0     H49889   3.184   7.523   0.580  0.1612 -1.5878  2.1940
  362MOL0     H49890   3.047   7.568   0.485  0.0949 -1.9851 -0.5723
  362MOL0     H49891   3.135   7.306   0.587 -1.5014 -0.7916  2.0724
  362MOL0     H49892   2.957   7.321   0.536 -0.7305  1.2784 -0.8124
  362MOL0     H49893   3.054   7.402   0.322  0.7773 -0.3979 -2.1232
  362MOL0     H49894   3.224   7.365   0.386 -0.5141  1.2731  2.0077
  362MOL0     H49895   3.202   7.157   0.275 -1.3521 -0.3832 -2.1199
  362MOL0     H49896   3.102   7.128   0.417 -0.8464  1.9775  1.4733
  362MOL0     H49897   3.011   7.230   0.150  0.7258  1.9097  1.1699
  362MOL0     H49898   2.899   7.208   0.291 -1.1962  0.7225 -3.4702
  362MOL0     H49899   2.855   7.048   0.152 -1.7080 -0.8931  1.4662
  362MOL0     H49900   3.022   6.984   0.131  0.3736  2.2312 -0.5913
  362MOL0     H49901   3.021   6.893   0.345 -0.1136 -1.9324 -1.5395
  362MOL0     H49902   2.876   6.833   0.269  2.4586 -1.0430 -0.5029
  362MOL0     H49903   2.842   6.886   0.498 -0.1073 -1.7611 -2.5467
  362MOL0     H49904   2.886   7.053   0.478  0.5120 -0.7588  0.2019
  362MOL0     H49905   2.622   6.779   0.362  2.0000 -0.6480  0.5718
  362MOL0     H49906   2.300   6.999   0.270  2.6696  1.9970 -1.9679
  362MOL0     H49907   2.312   6.872   0.390 -1.1931  0.9633 -0.0663
  362MOL0     H49908   2.447   6.831   0.119 -0.7464  1.2574 -0.0094
  362MOL0     H49909   2.410   6.712   0.243 -2.7561 -0.2589  2.0599
  362MOL0     H49910   2.197   6.853   0.077 -0.6310  0.5461  2.9137
  362MOL0     H49911   2.266   6.694   0.032 -0.7001  0.1651 -0.4873
  362MOL0     H49912   2.199   6.604   0.266 -1.5713 -0.2817  2.2110
  362MOL0     H49913   2.125   6.763   0.299  0.2118 -0.7750  0.2899
  362MOL0     H49914   2.056   6.416   0.257  0.7519  1.1084 -0.2411
  362MOL0     H49915   1.833   6.182   0.376 -2.2214 -0.2716  3.9866
  362MOL0     H49916   1.854   6.269   0.513 -1.9289 -1.1904 -0.9050
  362MOL0     H49917   2.001   6.247   0.412  0.0368  0.8026 -1.5805
  362MOL0     H49918   1.295   6.324   0.238 -2.7245 -1.1426 -0.5599
  362MOL0     H49919   1.104   6.216   0.347 -2.1635  1.1511  1.5200
  362MOL0     H49920   0.915   6.373   0.692 -0.3533  1.3854 -1.4394
  362MOL0     H49921   0.903   6.356   0.510  0.6522  2.0545  0.9263
  362MOL0     H49922   0.709   6.257   0.565 -0.8375 -0.7950  0.6140
  362MOL0     H49923   0.828   6.122   0.578 -0.5359 -1.4494  2.5011
  362MOL0     H49924   0.666   6.098   0.765 -0.3230  0.2103  0.3352
  362MOL0     H49925   0.699   6.260   0.824 -0.6283 -0.5620 -0.5998
  362MOL0     H49926   0.934   6.191   0.887 -1.4444  3.6177 -3.0645
  362MOL0     H49927   0.889   6.043   0.788 -2.2162  0.8896 -0.9259
  362MOL0     H49928   0.748   6.139   1.048 -0.2512  1.6868 -0.5542
  362MOL0     H49929   0.730   5.989   0.952 -1.1878  1.8487 -0.0745
  362MOL0     H49930   0.982   6.057   1.124  0.3037  0.6521 -0.6558
  362MOL0     H49931   0.980   5.931   1.004 -1.2529 -0.7747 -1.3417
  362MOL0     H49932   0.790   5.816   1.118  1.6599 -0.9227 -1.0115
  362MOL0     H49933   0.762   5.961   1.222 -1.1964 -2.7939  1.1985
  362MOL0     H49934   0.965   5.930   1.345 -1.8428 -0.2590  2.6804
  362MOL0     H49935   1.032   5.817   1.232 -1.2454 -1.4273 -0.4285
  362MOL0     H49936   1.231   6.379   0.718  0.8855  3.9576  0.9045
  362MOL0     H49937   1.421   6.462   0.624  1.3672 -1.5583 -0.7222
  362MOL0     H49938   1.633   6.655   0.323  1.9273  1.1924 -0.5866
  362MOL0     H49939   1.809   6.759   0.213  0.3278 -0.0307 -0.1921
  362MOL0     H49940   2.827   7.556   0.475  3.3199  0.7705  1.2052
  362MOL0     H49941   2.595   7.523   0.487 -0.7880  2.1682  0.1917
  362MOL0     H49942   2.246   7.378   0.895 -1.3021 -1.2839  1.6843
  362MOL0     H49943   2.051   7.386   0.984  0.1793  0.9909 -0.2042
  362MOL0     H49944   1.730   7.433   0.954  1.6678 -0.3419 -2.3433
  362MOL0     H49945   1.856   7.432   1.080  0.0688  1.8916  1.2838
  362MOL0     H49946   1.623   7.485   1.157  0.8757  0.5068  0.7304
  362MOL0     H49947   1.617   7.624   1.065 -0.7894  0.2364  1.4443
  362MOL0     H49948   1.846   7.552   1.270 -1.1120  0.0281  3.8586
  362MOL0     H49949   1.832   7.706   1.173 -3.6553  0.8683 -2.3372
  362MOL0     H49950   1.755   7.745   1.408  1.0107 -2.7054  1.4440
  362MOL0     H49951   1.648   7.607   1.393  0.0420  0.1576 -0.8200
  362MOL0     H49952   1.415   7.900   1.196  0.0292 -1.7922 -0.8758
  362MOL0     H49953   1.951   7.766   0.812 -2.7417 -0.0636  4.8331
  362MOL0     H49954   2.092   7.861   0.674 -0.3059 -0.0548  1.9278
  362MOL0     H49955   2.262   7.868   0.730  1.6512 -0.7834 -1.8838
  362MOL0     H49956   2.220   7.768   0.584  1.4039 -2.3935  0.8991
  363MOL0     O49957   9.041   1.446   6.511  0.7001 -0.1724 -0.0092
  363MOL0     C49958   9.004   1.345   6.553 -0.0157  0.1344 -0.2830
  363MOL0     O49959   8.999   1.318   6.686  0.0460  0.1012  0.3026
  363MOL0     C49960   9.012   1.424   6.765  0.3113 -0.5958 -0.4183
  363MOL0     C49961   8.920   1.533   6.747 -0.9130  0.8923 -0.1022
  363MOL0     C49962   8.931   1.637   6.836 -0.1860  0.1420  0.8664
  363MOL0     C49963   9.025   1.644   6.933 -0.0786 -0.5991 -0.3656
  363MOL0     O49964   9.036   1.746   7.032  0.9134  0.5747  0.2322
  363MOL0     C49965   8.907   1.815   7.058  0.5088  0.1639 -0.3198
  363MOL0     C49966   8.913   1.914   7.182 -0.3092  0.1715 -0.4238
  363MOL0     C49967   9.015   2.028   7.148 -0.2727  0.1242  0.3170
  363MOL0     C49968   8.966   2.138   7.047  0.1832 -0.6724  1.0377
  363MOL0     C49969   9.069   2.213   6.971 -0.5318 -0.7986 -0.2847
  363MOL0     C49970   9.172   2.296   7.045  0.5798  1.1354 -0.6369
  363MOL0     C49971   9.266   2.362   6.948 -0.4602  0.3343 -0.0193
  363MOL0     C49972   9.380   2.426   7.027  0.0845 -0.6717 -1.4786
  363MOL0     N49973   9.465   2.499   6.937 -0.1925  0.4258  0.4281
  363MOL0     C49974   9.535   2.615   6.970  0.5867  0.3139  0.0527
  363MOL0     C49975   9.627   2.626   6.863  0.1058 -0.2775  0.1857
  363MOL0     C49976   9.727   2.735   6.858 -0.2509  0.1004  0.1342
  363MOL0     C49977   9.878   2.702   6.822  0.1181 -0.8254 -0.5257
  363MOL0     C49978   9.955   2.618   6.917  0.1580  0.1205 -0.5455
  363MOL0     C49979   9.969   2.691   7.058 -0.3314  0.2524 -0.3924
  363MOL0     O49980   9.965   2.838   7.054 -0.1494 -0.0297 -0.1044
  363MOL0     C49981  10.013   2.910   7.161 -0.3709  0.1068  0.7577
  363MOL0     C49982  10.070   2.865   7.279  0.7590  0.3372 -0.3121
  363MOL0     C49983  10.117   2.949   7.383  0.7128  0.4003 -0.1850
  363MOL0     C49984  10.182   2.893   7.514  0.5137 -0.1156  0.3142
  363MOL0     C49985  10.111   3.086   7.363 -0.0633 -0.9309  0.7895
  363MOL0     C49986  10.144   3.182   7.470  0.1112 -0.2827 -0.1441
  363MOL0     O49987  10.054   3.272   7.519  0.2214  0.0527  0.1997
  363MOL0     C49988   9.918   3.267   7.493 -0.0012 -0.5263  0.2514
  363MOL0     C49989   9.867   3.389   7.460 -0.3922 -0.2620  0.0505
  363MOL0     C49990   9.732   3.394   7.418 -0.2319  2.1193  0.2425
  363MOL0     C49991   9.653   3.281   7.402  0.0250  0.6243  0.2746
  363MOL0     O49992   9.530   3.284   7.342  0.0655  0.1257  0.0027
  363MOL0     C49993   9.438   3.387   7.391  0.3724 -0.6950 -0.0743
  363MOL0     C49994   9.300   3.326   7.441  0.7028  0.3633  0.1376
  363MOL0     C49995   9.316   3.244   7.580  0.2377 -0.1713  0.6518
  363MOL0     C49996   9.186   3.199   7.657 -0.4440 -0.1576  0.3715
  363MOL0     C49997   9.076   3.141   7.566 -0.4057 -0.0857  0.4898
  363MOL0     C49998   8.979   3.052   7.634  0.0703  0.9524  0.1640
  363MOL0     C49999   8.898   3.127   7.736 -0.0549 -0.2690 -0.2918
  363MOL0     C50000   8.812   3.030   7.818  0.4421 -0.7525 -0.1142
  363MOL0    Cl50001   8.661   3.105   7.887 -0.0260  0.3557 -0.6226
  363MOL0     C50002   9.699   3.162   7.454 -0.3361  0.4972 -0.0423
  363MOL0     C50003   9.831   3.155   7.503 -0.2071 -0.3573  0.7149
  363MOL0     O50004  10.255   3.174   7.514  0.4737  0.3328  0.3755
  363MOL0     C50005  10.067   3.142   7.241 -0.9917 -0.2553 -0.6015
  363MOL0     C50006  10.020   3.053   7.137 -0.5019  0.9146 -1.0321
  363MOL0     N50007   9.608   2.523   6.774 -0.1769  0.5196  0.2873
  363MOL0     N50008   9.524   2.441   6.825  0.3314 -0.3070  0.9643
  363MOL0     C50009   9.124   1.543   6.945 -0.8104 -0.2872 -0.0990
  363MOL0     C50010   9.112   1.433   6.862  0.0516  1.1522  0.5383
  363MOL0     C50011   8.975   1.227   6.464  0.2750  0.1295 -0.2028
  363MOL0     C50012   9.010   1.098   6.512  0.4210 -0.2307 -0.3948
  363MOL0     C50013   8.999   0.982   6.440  0.0174  0.0463  0.5403
  363MOL0     C50014   8.944   0.995   6.306 -0.2105  0.1311  0.7612
  363MOL0     O50015   8.933   0.893   6.214  0.7806 -0.0356  0.2742
  363MOL0     C50016   8.958   0.761   6.265 -0.5868 -0.6018  0.0046
  363MOL0     C50017   8.937   0.650   6.163  0.3369 -0.2929 -0.3190
  363MOL0     C50018   8.798   0.586   6.186 -0.0100 -0.3161  1.1140
  363MOL0     C50019   8.810   0.465   6.284 -0.1238 -0.0106 -0.0958
  363MOL0     C50020   8.845   0.490   6.421  0.2740 -0.2505  0.4659
  363MOL0     C50021   8.874   0.509   6.533 -1.1830 -0.5047  0.1927
  363MOL0     C50022   8.906   1.125   6.261 -0.7122 -0.2899 -0.0017
  363MOL0     C50023   8.906   1.232   6.345 -0.6219  0.0035  0.9320
  363MOL0     C50024   8.841   1.364   6.296 -0.6874 -0.2051  0.8449
  363MOL0     H50025   8.843   1.531   6.671 -1.5061  0.7946  0.4911
  363MOL0     H50026   8.855   1.714   6.837 -0.4162 -0.0665  0.0623
  363MOL0     H50027   8.829   1.745   7.090  1.4706 -0.6132  0.3863
  363MOL0     H50028   8.867   1.871   6.973  0.2969  0.8327  0.2119
  363MOL0     H50029   8.814   1.958   7.202  0.4351  0.8979  1.9579
  363MOL0     H50030   8.950   1.857   7.268 -3.4374 -1.3326  0.0876
  363MOL0     H50031   9.041   2.070   7.246 -2.0505  0.6296  0.6042
  363MOL0     H50032   9.103   1.986   7.098  1.0300 -0.2401  2.7369
  363MOL0     H50033   8.903   2.099   6.966  0.1275  0.5593  0.4575
  363MOL0     H50034   8.907   2.213   7.100 -0.5485  0.0636 -0.7274
  363MOL0     H50035   9.022   2.281   6.899 -2.1527  0.9680  2.2736
  363MOL0     H50036   9.123   2.138   6.912  0.5570  0.8188 -1.4376
  363MOL0     H50037   9.126   2.383   7.093  2.2779  0.9951  1.3534
  363MOL0     H50038   9.216   2.236   7.125  0.3475  1.8814  0.0628
  363MOL0     H50039   9.212   2.426   6.878 -2.1365  0.0132  0.9420
  363MOL0     H50040   9.313   2.283   6.888 -1.6395 -0.6677  0.3363
  363MOL0     H50041   9.330   2.493   7.098 -0.9944 -1.5245 -1.4065
  363MOL0     H50042   9.437   2.352   7.084  2.4100  0.4342 -2.2219
  363MOL0     H50043   9.541   2.680   7.058 -0.9002  0.7092 -0.1000
  363MOL0     H50044   9.730   2.790   6.952  0.2440  1.2083 -0.5111
  363MOL0     H50045   9.688   2.811   6.789  0.6530  1.2903  0.9028
  363MOL0     H50046   9.869   2.643   6.730 -2.6994 -2.2967  0.5876
  363MOL0     H50047   9.938   2.789   6.795 -2.8628  2.1409  1.5932
  363MOL0     H50048   9.914   2.519   6.941 -0.3117  0.9862  2.8972
  363MOL0     H50049  10.056   2.602   6.879  0.7536  6.4196 -2.6833
  363MOL0     H50050   9.893   2.647   7.123 -2.7281  0.8600 -2.6078
  363MOL0     H50051  10.071   2.660   7.084  0.1753  0.5820 -1.9290
  363MOL0     H50052  10.071   2.758   7.294 -1.3829  0.1699 -1.0371
  363MOL0     H50053  10.138   2.950   7.597 -2.9420  1.2364 -2.1871
  363MOL0     H50054  10.289   2.915   7.507  0.0817  2.3540  0.3937
  363MOL0     H50055  10.160   2.786   7.525  0.2331  0.1136  2.5787
  363MOL0     H50056   9.920   3.484   7.460  2.1015 -1.5416  0.6861
  363MOL0     H50057   9.694   3.488   7.380 -1.7458  2.1658  1.7306
  363MOL0     H50058   9.478   3.454   7.468  3.2943 -2.1053 -0.2111
  363MOL0     H50059   9.418   3.455   7.309 -0.2182  0.5719  1.0827
  363MOL0     H50060   9.230   3.405   7.469  2.3816  1.6050  1.0158
  363MOL0     H50061   9.255   3.267   7.361  0.2460  0.9959 -0.0770
  363MOL0     H50062   9.367   3.313   7.647  1.0759 -2.0495  2.0540
  363MOL0     H50063   9.381   3.159   7.557  1.6179  1.1484 -0.5535
  363MOL0     H50064   9.144   3.283   7.712  0.7804  0.2772  0.6913
  363MOL0     H50065   9.229   3.133   7.734  2.9158  1.7241  0.3318
  363MOL0     H50066   9.035   3.231   7.519  2.4388 -0.2019 -2.6929
  363MOL0     H50067   9.109   3.084   7.479 -0.0821  1.2245 -0.2895
  363MOL0     H50068   9.035   2.973   7.685 -2.2848 -1.9965 -1.4873
  363MOL0     H50069   8.921   3.004   7.554  1.4887 -2.0194  0.7885
  363MOL0     H50070   8.834   3.192   7.674 -1.8767 -0.9252  0.8228
  363MOL0     H50071   8.960   3.190   7.800 -1.7544  3.2532 -1.7900
  363MOL0     H50072   8.887   2.993   7.889  4.4381  3.0142 -1.9214
  363MOL0     H50073   8.764   2.949   7.762 -3.9906  3.0432 -2.5381
  363MOL0     H50074   9.626   3.084   7.438  0.5609 -0.1615 -0.9641
  363MOL0     H50075   9.864   3.059   7.541  1.8680 -0.6214 -1.5182
  363MOL0     H50076  10.050   3.249   7.234  1.5627  0.4429  1.8660
  363MOL0     H50077   9.982   3.107   7.050 -2.8566  1.0909  0.0209
  363MOL0     H50078   9.208   1.549   7.014 -1.1628  1.6403  0.2265
  363MOL0     H50079   9.175   1.349   6.887  0.8131  1.5426 -0.0210
  363MOL0     H50080   9.056   1.099   6.610  2.5578  1.0054 -1.3369
  363MOL0     H50081   9.037   0.887   6.476 -2.1906 -1.1304 -0.0261
  363MOL0     H50082   9.064   0.757   6.295 -0.9803 -0.4076  1.5282
  363MOL0     H50083   8.897   0.742   6.354 -1.9851 -1.3382 -1.0701
  363MOL0     H50084   9.021   0.579   6.155  3.1518  2.7385  0.0804
  363MOL0     H50085   8.938   0.691   6.061 -0.1331  2.0388  0.5629
  363MOL0     H50086   8.724   0.658   6.225  1.7712  1.4568  1.3703
  363MOL0     H50087   8.766   0.549   6.088  2.2672  1.2137 -0.2918
  363MOL0     H50088   8.878   0.390   6.242  0.9347  0.7248  0.2757
  363MOL0     H50089   8.717   0.407   6.286  0.3989 -1.0455 -2.4316
  363MOL0     H50090   8.888   0.509   6.640 -1.7687 -0.9759  0.2749
  363MOL0     H50091   8.855   1.147   6.167  0.5505 -1.1049 -0.9100
  363MOL0     H50092   8.867   1.457   6.347 -1.1410  0.5413 -0.2433
  363MOL0     H50093   8.843   1.374   6.188 -2.3351  1.8155  0.9136
  363MOL0     H50094   8.733   1.361   6.314 -1.2359  2.6538 -1.3279
  364MOL0     O50095   6.134   5.343   7.781  0.1233 -0.4452  0.5213
  364MOL0     C50096   6.057   5.272   7.713 -0.3738 -0.8773  0.1510
  364MOL0     O50097   5.991   5.314   7.603 -0.4768 -0.0286  0.2616
  364MOL0     C50098   5.953   5.444   7.603 -0.2695  0.0448 -0.0206
  364MOL0     C50099   6.043   5.552   7.576  0.0754  0.0161  0.0682
  364MOL0     C50100   6.003   5.684   7.588  0.2355 -0.4121 -0.4614
  364MOL0     C50101   5.861   5.712   7.611  0.2676  0.4185 -0.1428
  364MOL0     O50102   5.821   5.840   7.613  0.3139  0.1902  0.3759
  364MOL0     C50103   5.905   5.955   7.618 -0.4479 -0.0279  0.6434
  364MOL0     C50104   5.952   5.993   7.752 -0.0619 -0.5220  0.5714
  364MOL0     C50105   6.066   6.094   7.750  0.0723 -0.7225  0.7072
  364MOL0     C50106   6.190   6.044   7.831 -0.0999  0.1240  0.0626
  364MOL0     C50107   6.295   6.145   7.827 -0.6225  0.3246 -0.5021
  364MOL0     C50108   6.423   6.116   7.906 -0.2333  0.2756 -0.1921
  364MOL0     C50109   6.528   6.233   7.918 -0.3287 -0.1624 -1.7058
  364MOL0     C50110   6.607   6.263   7.796  0.0245 -0.8481 -1.3099
  364MOL0     N50111   6.655   6.406   7.813 -0.7633 -0.0429  0.3932
  364MOL0     C50112   6.783   6.444   7.850 -0.1523 -0.2911 -0.4401
  364MOL0     C50113   6.782   6.579   7.829  0.2949 -0.3398 -0.1460
  364MOL0     C50114   6.914   6.665   7.851 -0.0989  0.8408 -0.4355
  364MOL0     C50115   6.916   6.734   7.990  0.3880  0.0820 -0.1962
  364MOL0     C50116   6.962   6.638   8.104 -1.4996 -0.3450  0.3344
  364MOL0     C50117   6.966   6.700   8.241  0.5501 -0.4634 -0.4707
  364MOL0     O50118   7.083   6.780   8.241  0.6762 -0.3122 -0.3587
  364MOL0     C50119   7.106   6.858   8.354  0.3925  0.2148  0.6289
  364MOL0     C50120   7.169   6.971   8.342 -0.6632 -0.0778 -0.1767
  364MOL0     C50121   7.203   7.047   8.452  0.2577  0.5928  0.4043
  364MOL0     C50122   7.282   7.173   8.424 -0.2258 -0.3594  0.4163
  364MOL0     C50123   7.158   7.015   8.573 -0.0420  0.0542  0.2365
  364MOL0     C50124   7.163   7.100   8.697 -0.0921  0.2095  0.9812
  364MOL0     O50125   7.143   7.042   8.819 -0.2082 -0.1479  0.1999
  364MOL0     C50126   7.159   7.127   8.931 -0.2884 -0.3739 -0.2480
  364MOL0     C50127   7.055   7.130   9.028  0.3916  0.7670 -0.0468
  364MOL0     C50128   7.075   7.204   9.140  0.4964 -0.0286 -0.3656
  364MOL0     C50129   7.192   7.285   9.162 -0.8514 -0.6148 -0.1204
  364MOL0     O50130   7.220   7.353   9.283  0.3988  0.1811 -0.2660
  364MOL0     C50131   7.148   7.321   9.403  0.0373 -0.3224  0.1947
  364MOL0     C50132   7.221   7.379   9.524 -0.7765  0.1872 -0.1166
  364MOL0     C50133   7.162   7.332   9.654 -0.3993 -0.1292 -0.3679
  364MOL0     C50134   7.065   7.439   9.708 -0.3721  0.2422 -0.1669
  364MOL0     C50135   7.123   7.571   9.767 -0.5159  0.1370 -0.6113
  364MOL0     C50136   7.030   7.667   9.834 -0.0296  0.8416 -0.8720
  364MOL0     C50137   7.091   7.798   9.886 -0.4614  0.2248  0.4706
  364MOL0     C50138   6.987   7.900   9.922 -0.1626  0.6458  0.8316
  364MOL0    Cl50139   6.928   7.975   9.774  0.0544 -0.1377  0.5759
  364MOL0     C50140   7.285   7.282   9.060 -0.7087  0.4774 -0.1199
  364MOL0     C50141   7.275   7.197   8.948 -0.8489  0.7148  0.0112
  364MOL0     O50142   7.169   7.224   8.680  0.3495 -0.0177  0.8155
  364MOL0     C50143   7.092   6.890   8.594 -0.2585 -0.3264  0.1354
  364MOL0     C50144   7.067   6.816   8.480  0.1595 -0.1299  0.7458
  364MOL0     N50145   6.659   6.628   7.782  0.0975  0.2664 -0.4400
  364MOL0     N50146   6.587   6.518   7.770  0.5415 -0.2014 -0.2556
  364MOL0     C50147   5.772   5.608   7.621  0.6240 -0.1828 -0.2474
  364MOL0     C50148   5.818   5.475   7.617  0.0254 -0.3658 -0.0810
  364MOL0     C50149   6.036   5.125   7.751 -0.3510  0.6304  0.3614
  364MOL0     C50150   6.131   5.065   7.839 -0.1456 -0.0773 -0.0009
  364MOL0     C50151   6.113   4.942   7.893  0.7808 -0.3159  0.8974
  364MOL0     C50152   6.011   4.859   7.846  0.6597 -0.5629 -0.0087
  364MOL0     O50153   6.010   4.730   7.884  0.8546 -0.3582  0.1398
  364MOL0     C50154   6.114   4.646   7.833  0.4036  0.1406 -0.5687
  364MOL0     C50155   6.214   4.598   7.947  0.2348  0.0212  0.2261
  364MOL0     C50156   6.312   4.491   7.891  0.4790 -0.0676  0.0720
  364MOL0     C50157   6.414   4.444   8.001 -0.7447  0.2147 -0.1280
  364MOL0     C50158   6.354   4.347   8.095 -0.3202 -0.1066  0.0477
  364MOL0     C50159   6.302   4.271   8.166 -0.5104 -0.2745 -0.2120
  364MOL0     C50160   5.913   4.917   7.758 -0.2014  0.6285  0.3934
  364MOL0     C50161   5.915   5.046   7.709  0.3814 -0.4140 -0.2223
  364MOL0     C50162   5.807   5.087   7.602  0.8709  0.4932 -0.7022
  364MOL0     H50163   6.144   5.528   7.546 -0.9546 -1.3076 -2.7024
  364MOL0     H50164   6.064   5.771   7.568 -4.6052  3.2864 -1.1515
  364MOL0     H50165   5.847   6.040   7.581 -0.2733 -0.0936  0.2200
  364MOL0     H50166   5.991   5.949   7.551  0.0819  0.5406  1.2561
  364MOL0     H50167   5.860   6.037   7.791 -0.2957 -0.6077  0.1167
  364MOL0     H50168   5.978   5.899   7.802 -1.4787 -1.4385 -0.3424
  364MOL0     H50169   6.095   6.111   7.646  0.6886 -2.6556  0.5153
  364MOL0     H50170   6.025   6.184   7.797 -0.8870  0.4088 -2.1256
  364MOL0     H50171   6.154   6.031   7.933  3.3166  0.7789  1.5000
  364MOL0     H50172   6.245   5.955   7.798  1.1606  1.5017 -1.7604
  364MOL0     H50173   6.253   6.235   7.873 -2.5611 -0.7127 -0.1522
  364MOL0     H50174   6.319   6.170   7.724 -1.3197  0.6900 -0.5811
  364MOL0     H50175   6.393   6.079   8.004 -3.2143  0.5664 -0.9132
  364MOL0     H50176   6.475   6.035   7.855  1.7566  0.5802  1.1884
  364MOL0     H50177   6.584   6.219   8.011  0.6233 -0.7763 -2.3552
  364MOL0     H50178   6.463   6.320   7.934 -0.6224 -0.7892  1.1126
  364MOL0     H50179   6.681   6.190   7.763  1.2087 -0.8743  1.1984
  364MOL0     H50180   6.534   6.254   7.715 -1.6477 -0.6072  0.1223
  364MOL0     H50181   6.867   6.382   7.879 -1.4605 -1.6631  0.5600
  364MOL0     H50182   6.903   6.734   7.767 -1.7889  0.6128 -0.4315
  364MOL0     H50183   6.998   6.595   7.848 -2.4032 -2.4849  2.5928
  364MOL0     H50184   6.982   6.821   7.988 -0.2828  0.7369  2.5730
  364MOL0     H50185   6.819   6.775   8.020  0.0584 -1.2914  0.7007
  364MOL0     H50186   6.895   6.554   8.125 -1.0304 -0.3873  1.7910
  364MOL0     H50187   7.057   6.587   8.087 -1.6094 -0.9305  1.3665
  364MOL0     H50188   6.876   6.759   8.256  0.1393 -1.1681 -0.1144
  364MOL0     H50189   6.984   6.613   8.306  1.4065 -0.4591 -0.6831
  364MOL0     H50190   7.200   7.000   8.241  0.0660 -0.1191  0.0264
  364MOL0     H50191   7.355   7.191   8.503 -1.0205  1.6659  0.7513
  364MOL0     H50192   7.213   7.258   8.418 -1.4656 -1.4481 -3.1981
  364MOL0     H50193   7.341   7.175   8.331  1.8405  0.9447  1.6760
  364MOL0     H50194   6.965   7.072   9.011 -1.6871  2.7736  3.0378
  364MOL0     H50195   7.003   7.199   9.222  0.3658 -0.2935 -0.4936
  364MOL0     H50196   7.044   7.354   9.396 -0.1504 -0.5846  1.4092
  364MOL0     H50197   7.149   7.212   9.412  0.6565 -0.3673 -0.4083
  364MOL0     H50198   7.330   7.365   9.516 -0.2399  2.6271  1.7108
  364MOL0     H50199   7.215   7.488   9.528  2.2553  0.4517  0.2469
  364MOL0     H50200   7.239   7.326   9.731 -1.2184 -0.1047  0.4654
  364MOL0     H50201   7.115   7.236   9.635 -2.3971  0.1076  2.6625
  364MOL0     H50202   7.009   7.384   9.784  1.2349  0.1982  1.0416
  364MOL0     H50203   6.995   7.472   9.630 -1.2029 -0.4624  0.2641
  364MOL0     H50204   7.206   7.553   9.835 -0.4666  1.8428 -0.1582
  364MOL0     H50205   7.158   7.626   9.679  2.2305 -1.2377 -0.4578
  364MOL0     H50206   6.974   7.623   9.916 -0.0743  3.8675  0.8573
  364MOL0     H50207   6.959   7.692   9.754  1.0075 -0.7412 -2.3801
  364MOL0     H50208   7.153   7.839   9.806 -1.5158 -0.8356 -0.9353
  364MOL0     H50209   7.150   7.772   9.975  2.0835 -0.5520 -1.3451
  364MOL0     H50210   7.031   7.976   9.987 -1.0186  1.6374  0.2884
  364MOL0     H50211   6.914   7.851   9.986 -1.6009  1.1285 -0.3658
  364MOL0     H50212   7.383   7.329   9.056  0.4993 -1.8735  0.1110
  364MOL0     H50213   7.349   7.201   8.869  1.0280  1.8669  1.7485
  364MOL0     H50214   7.060   6.857   8.692 -0.0080 -2.2840 -0.3976
  364MOL0     H50215   7.002   6.731   8.497 -3.8920  2.8595  1.6012
  364MOL0     H50216   5.666   5.631   7.629 -0.2441 -3.4088 -0.8457
  364MOL0     H50217   5.748   5.394   7.635  0.0677 -1.1286 -2.9094
  364MOL0     H50218   6.214   5.126   7.873 -1.7329  0.5856  3.0450
  364MOL0     H50219   6.198   4.912   7.954  1.5058  1.8162  1.0120
  364MOL0     H50220   6.064   4.558   7.792  1.5685 -0.9421  0.2575
  364MOL0     H50221   6.162   4.706   7.756 -3.0780  2.7016 -0.9896
  364MOL0     H50222   6.149   4.554   8.023  0.8316 -1.1588  0.0652
  364MOL0     H50223   6.268   4.688   7.979  0.9277  0.2936 -1.6166
  364MOL0     H50224   6.260   4.408   7.843  0.3231  0.5251 -0.8150
  364MOL0     H50225   6.371   4.523   7.804  0.0932  1.7456  0.4328
  364MOL0     H50226   6.452   4.529   8.058 -1.1600  1.0321 -1.0417
  364MOL0     H50227   6.503   4.397   7.957 -0.4449 -2.2230  2.7545
  364MOL0     H50228   6.232   4.216   8.225  0.1442 -2.5818 -1.4756
  364MOL0     H50229   5.830   4.856   7.722 -0.6866  2.5335 -1.9796
  364MOL0     H50230   5.829   5.047   7.503 -0.7748 -1.4654 -0.3597
  364MOL0     H50231   5.704   5.053   7.618  0.2371  1.4087 -2.5861
  364MOL0     H50232   5.793   5.195   7.597  0.5674  0.5113  0.1967
  365MOL0     O50233   2.527   0.338   2.327  0.6643 -0.9831  0.6773
  365MOL0     C50234   2.565   0.403   2.427  0.1552  0.8531  0.3030
  365MOL0     O50235   2.609   0.531   2.420 -0.0783  0.5190  0.1081
  365MOL0     C50236   2.592   0.614   2.315  0.6256  0.3724  0.3725
  365MOL0     C50237   2.686   0.709   2.280 -0.6231 -0.3826  0.2484
  365MOL0     C50238   2.661   0.795   2.172 -0.2581 -0.9505 -0.1294
  365MOL0     C50239   2.541   0.806   2.108 -0.2301  0.3068 -0.5838
  365MOL0     O50240   2.518   0.892   2.011 -0.8019  0.3040 -0.1975
  365MOL0     C50241   2.395   0.944   1.977  1.2755 -0.3510 -0.2774
  365MOL0     C50242   2.396   1.054   1.874  0.0580  0.4134 -0.4594
  365MOL0     C50243   2.467   1.028   1.741  0.7073  1.2693 -0.1565
  365MOL0     C50244   2.380   0.930   1.653 -0.2086 -0.1861  0.1378
  365MOL0     C50245   2.437   0.904   1.514  1.3605  0.1739 -0.2324
  365MOL0     C50246   2.424   1.028   1.426 -0.1073 -0.5372 -0.6237
  365MOL0     C50247   2.447   1.007   1.282 -0.8165  0.0788 -0.0918
  365MOL0     C50248   2.322   0.954   1.209 -0.2019 -0.3039  0.3044
  365MOL0     N50249   2.361   0.887   1.080 -0.4447 -0.9074 -0.3305
  365MOL0     C50250   2.399   0.945   0.962 -0.0168  0.8829 -0.0667
  365MOL0     C50251   2.431   0.837   0.884 -0.7494  0.4672  0.0469
  365MOL0     C50252   2.441   0.841   0.741 -0.7836  0.2110 -0.4201
  365MOL0     C50253   2.572   0.911   0.693  0.4488 -0.1689 -0.1938
  365MOL0     C50254   2.696   0.844   0.742  0.1592  0.1665 -0.4707
  365MOL0     C50255   2.831   0.903   0.670  0.2821  0.1065 -0.2532
  365MOL0     O50256   2.948   0.838   0.721  0.1810 -0.4446  0.9045
  365MOL0     C50257   3.069   0.906   0.694  0.0149  0.2807  0.5998
  365MOL0     C50258   3.183   0.852   0.749  0.7684 -0.2593  0.1163
  365MOL0     C50259   3.308   0.885   0.711 -0.1219 -0.5042  0.1649
  365MOL0     C50260   3.421   0.840   0.799 -0.4356  0.3539 -0.9616
  365MOL0     C50261   3.324   0.986   0.611  0.1948  0.7501  0.4304
  365MOL0     C50262   3.455   1.047   0.569 -0.6530  0.0278  0.4818
  365MOL0     O50263   3.542   1.080   0.677 -0.0161  1.2726 -0.2233
  365MOL0     C50264   3.670   1.128   0.647 -0.8857 -0.3068 -1.0388
  365MOL0     C50265   3.737   1.145   0.520  0.6624  0.2096  0.0247
  365MOL0     C50266   3.866   1.187   0.513  0.5853  0.8677 -0.5004
  365MOL0     C50267   3.937   1.221   0.627  0.6818 -0.4599 -0.7001
  365MOL0     O50268   4.061   1.277   0.609  0.1778 -0.1176  0.5032
  365MOL0     C50269   4.172   1.242   0.702  0.0469  0.2443 -1.3501
  365MOL0     C50270   4.302   1.324   0.668  0.4518 -0.3619 -0.3515
  365MOL0     C50271   4.355   1.304   0.524  0.1712 -0.3474 -0.8588
  365MOL0     C50272   4.362   1.161   0.469  0.4408  0.3070  0.2533
  365MOL0     C50273   4.408   1.166   0.320  0.0509  0.7757  0.7283
  365MOL0     C50274   4.428   1.026   0.260  0.5199  0.2914  0.7838
  365MOL0     C50275   4.525   1.022   0.150  0.7950 -0.0189 -0.0932
  365MOL0     C50276   4.468   1.075   0.016 -0.1539 -0.1061 -0.0391
  365MOL0    Cl50277   4.612   1.124  -0.079 -0.3481  0.1102 -0.0350
  365MOL0     C50278   3.883   1.200   0.752 -0.7248  1.1714  0.9163
  365MOL0     C50279   3.752   1.161   0.757  0.3424  0.7749  0.4007
  365MOL0     O50280   3.468   1.085   0.451 -0.0105 -0.0707  0.6253
  365MOL0     C50281   3.210   1.024   0.547  0.1966  0.3903  0.8962
  365MOL0     C50282   3.083   0.997   0.590  0.3495  0.1326 -0.5800
  365MOL0     N50283   2.419   0.717   0.952  0.0766 -0.3194 -0.2927
  365MOL0     N50284   2.377   0.757   1.070  0.8246  1.2448  0.1302
  365MOL0     C50285   2.448   0.709   2.136  0.0281  0.2669  0.5023
  365MOL0     C50286   2.475   0.613   2.235 -1.1103 -0.2679 -0.2274
  365MOL0     C50287   2.565   0.331   2.557 -0.2720  0.0970 -0.1436
  365MOL0     C50288   2.547   0.398   2.679  0.0496  0.7164  0.6191
  365MOL0     C50289   2.567   0.342   2.808 -0.1337 -0.9530 -0.0988
  365MOL0     C50290   2.594   0.212   2.815  0.3326  0.1517 -0.7277
  365MOL0     O50291   2.591   0.166   2.950  0.4031  0.4506  1.3259
  365MOL0     C50292   2.513   0.048   2.970 -0.0204  0.2702  1.0309
  365MOL0     C50293   2.603  -0.079   2.966 -0.4181 -0.1409 -0.2897
  365MOL0     C50294   2.739  -0.057   3.039 -0.7273  0.4892  0.4889
  365MOL0     C50295   2.831  -0.174   3.070 -0.1665  0.7569  0.0087
  365MOL0     C50296   2.843  -0.254   2.949 -0.6146  0.4528 -0.7235
  365MOL0     C50297   2.858  -0.317   2.847 -0.7566  0.7153 -0.0099
  365MOL0     C50298   2.613   0.137   2.704 -0.5489 -0.8357  0.3892
  365MOL0     C50299   2.604   0.191   2.572  0.0975  0.6724 -0.3745
  365MOL0     C50300   2.629   0.092   2.458 -0.2678 -0.0685 -0.0703
  365MOL0     H50301   2.775   0.708   2.342 -0.4535 -2.0407  0.0285
  365MOL0     H50302   2.747   0.856   2.145  1.5358 -2.5506  1.7250
  365MOL0     H50303   2.349   0.971   2.072  0.2608 -2.2729 -0.1695
  365MOL0     H50304   2.325   0.870   1.937 -1.4963  1.6911  0.4935
  365MOL0     H50305   2.290   1.079   1.863  0.6991  3.5772 -0.3541
  365MOL0     H50306   2.449   1.142   1.911  0.5567  1.7191 -3.9411
  365MOL0     H50307   2.470   1.124   1.689  1.7686  1.2115 -0.2157
  365MOL0     H50308   2.569   0.992   1.753  0.0048 -0.6193  0.6005
  365MOL0     H50309   2.381   0.835   1.706  0.1212 -0.7761 -0.9110
  365MOL0     H50310   2.278   0.970   1.642 -0.7102 -1.6267 -0.6758
  365MOL0     H50311   2.386   0.817   1.472  0.3061  0.2880  0.7520
  365MOL0     H50312   2.538   0.866   1.499  1.5447  1.5144 -3.0595
  365MOL0     H50313   2.329   1.082   1.429  0.6728  0.8760 -0.3882
  365MOL0     H50314   2.497   1.101   1.462 -0.0732 -1.7968  2.0995
  365MOL0     H50315   2.529   0.937   1.262 -0.4158  0.2782  0.8285
  365MOL0     H50316   2.466   1.106   1.240  1.4840 -0.6845 -0.9991
  365MOL0     H50317   2.264   0.890   1.276  0.3214 -0.1876  0.8811
  365MOL0     H50318   2.255   1.036   1.183 -0.8208 -1.0258 -0.4534
  365MOL0     H50319   2.369   1.042   0.923 -0.7655  0.3253 -0.9066
  365MOL0     H50320   2.352   0.890   0.700 -0.2427 -0.4989 -2.5280
  365MOL0     H50321   2.434   0.736   0.709  0.8523 -1.1120  3.0396
  365MOL0     H50322   2.577   0.896   0.584 -0.0017 -1.9958 -0.0030
  365MOL0     H50323   2.570   1.018   0.711 -0.5686 -0.0134 -1.1356
  365MOL0     H50324   2.703   0.864   0.849  0.0035  0.3437 -0.4931
  365MOL0     H50325   2.696   0.735   0.741  0.7461  0.1424 -2.0283
  365MOL0     H50326   2.827   0.886   0.562  0.7002  1.0737 -0.4300
  365MOL0     H50327   2.848   1.007   0.699  0.9809 -0.0839  0.0453
  365MOL0     H50328   3.180   0.771   0.821  0.3288 -1.0168 -0.7357
  365MOL0     H50329   3.385   0.744   0.837 -0.2576 -0.0252 -1.7377
  365MOL0     H50330   3.450   0.912   0.876  1.6960 -3.0810  1.7203
  365MOL0     H50331   3.515   0.829   0.744 -0.1199 -0.2413 -0.3171
  365MOL0     H50332   3.688   1.126   0.425  0.8302  0.3741 -0.0952
  365MOL0     H50333   3.901   1.199   0.411  0.1650  0.8583 -0.6463
  365MOL0     H50334   4.140   1.274   0.801  0.8497 -1.9267 -0.3220
  365MOL0     H50335   4.183   1.133   0.702  0.3308  0.2719 -1.0351
  365MOL0     H50336   4.284   1.427   0.700  2.0399  0.2464 -1.2379
  365MOL0     H50337   4.382   1.293   0.736  1.3150  0.5832 -0.8921
  365MOL0     H50338   4.457   1.342   0.520 -0.3529  1.1335 -0.7899
  365MOL0     H50339   4.303   1.377   0.460  0.6757  0.7573 -0.0408
  365MOL0     H50340   4.261   1.118   0.473 -1.7498  4.7515 -1.2533
  365MOL0     H50341   4.431   1.097   0.525  1.0322 -1.4399 -2.2492
  365MOL0     H50342   4.355   1.236   0.255  2.2419  2.1660  0.3084
  365MOL0     H50343   4.506   1.214   0.324  0.5054 -0.1219  0.6361
  365MOL0     H50344   4.325   0.997   0.233  0.7484 -1.3411  1.5343
  365MOL0     H50345   4.473   0.967   0.340  0.3827  1.4282  1.7065
  365MOL0     H50346   4.541   0.915   0.132  1.8606 -0.0885  1.1537
  365MOL0     H50347   4.622   1.063   0.177  0.3282  1.7580 -0.9800
  365MOL0     H50348   4.413   1.169   0.024  0.3339  0.3849 -1.8919
  365MOL0     H50349   4.404   1.004  -0.038  0.3562 -1.6691  1.3253
  365MOL0     H50350   3.942   1.202   0.843  0.0824  0.0353  0.4385
  365MOL0     H50351   3.708   1.142   0.854  2.9144 -1.7877  1.1889
  365MOL0     H50352   3.224   1.086   0.459 -0.4967 -1.7477 -0.8139
  365MOL0     H50353   2.997   1.042   0.541 -0.1261 -1.0495 -0.8940
  365MOL0     H50354   2.350   0.709   2.089  0.0480  0.0069  0.4592
  365MOL0     H50355   2.398   0.540   2.260 -1.8076  0.5815  0.1497
  365MOL0     H50356   2.516   0.501   2.665  0.3717  0.8043  0.5499
  365MOL0     H50357   2.551   0.404   2.895  2.6231 -1.0600  0.5820
  365MOL0     H50358   2.478   0.058   3.073  0.5730  0.2693  1.2342
  365MOL0     H50359   2.434   0.045   2.893 -1.0893 -0.3110  2.1142
  365MOL0     H50360   2.633  -0.110   2.865  0.9249 -1.7662  0.5600
  365MOL0     H50361   2.550  -0.163   3.012 -0.5806  0.8380  1.3779
  365MOL0     H50362   2.796   0.008   2.973 -0.5280 -1.4336 -1.3258
  365MOL0     H50363   2.736  -0.013   3.139  1.0484 -1.9332  1.7101
  365MOL0     H50364   2.792  -0.225   3.159  0.2694  1.1383  0.4250
  365MOL0     H50365   2.928  -0.135   3.104 -0.8719  1.3226  1.4583
  365MOL0     H50366   2.885  -0.373   2.760  0.5505 -2.4187  2.2255
  365MOL0     H50367   2.653   0.036   2.709  1.2533 -0.2381 -0.9117
  365MOL0     H50368   2.687   0.140   2.378  0.2505 -0.2268  0.2075
  365MOL0     H50369   2.693   0.014   2.500 -3.8684 -1.4934  3.3499
  365MOL0     H50370   2.536   0.056   2.413 -0.2642  0.9015 -0.8921
  366MOL0     O50371   4.811   9.430   8.519 -0.0788 -0.0705 -0.3066
  366MOL0     C50372   4.805   9.521   8.600  0.6479 -0.1405 -0.1319
  366MOL0     O50373   4.901   9.552   8.693 -0.3125  0.2995 -0.5141
  366MOL0     C50374   5.034   9.553   8.665 -0.4557 -1.2091  0.0221
  366MOL0     C50375   5.080   9.570   8.532 -0.4587  0.1663  0.7041
  366MOL0     C50376   5.213   9.565   8.493 -0.8780 -0.2940 -0.0959
  366MOL0     C50377   5.315   9.553   8.591  0.4417  0.3308  1.2595
  366MOL0     O50378   5.449   9.541   8.557  0.2147 -1.1325  0.1883
  366MOL0     C50379   5.545   9.508   8.663  0.0898  0.7371  0.1438
  366MOL0     C50380   5.678   9.483   8.598 -0.3992  0.0884 -0.2902
  366MOL0     C50381   5.707   9.332   8.551  0.4363 -0.3410 -0.7370
  366MOL0     C50382   5.699   9.236   8.678  0.4922  0.5769  0.5742
  366MOL0     C50383   5.792   9.119   8.645  1.0094  0.5759 -1.4400
  366MOL0     C50384   5.770   9.010   8.753 -0.1491  0.3651 -0.0047
  366MOL0     C50385   5.830   8.881   8.692  0.0813 -0.0070  0.0279
  366MOL0     C50386   5.984   8.904   8.696 -0.1169 -0.8943 -0.1112
  366MOL0     N50387   6.020   8.891   8.833 -0.2201 -0.1541 -0.0507
  366MOL0     C50388   6.064   8.979   8.929 -0.0416  0.2186  0.2063
  366MOL0     C50389   6.100   8.898   9.037 -0.1574 -0.3458 -0.1251
  366MOL0     C50390   6.151   8.946   9.172  0.4100 -0.7710 -1.1404
  366MOL0     C50391   6.215   8.839   9.261  0.0997  0.3556  0.6642
  366MOL0     C50392   6.118   8.744   9.328 -0.6936  0.5510 -0.3423
  366MOL0     C50393   5.995   8.821   9.386 -0.0122  0.5590  0.1443
  366MOL0     O50394   6.025   8.928   9.469 -0.3395  0.5749 -0.2511
  366MOL0     C50395   5.940   8.982   9.566  0.1202  0.0436 -0.4306
  366MOL0     C50396   5.974   9.099   9.631 -0.0555 -0.0924  0.3348
  366MOL0     C50397   5.896   9.151   9.735 -0.6645  0.6139  0.2354
  366MOL0     C50398   5.959   9.264   9.809  0.2894 -0.8677 -0.8544
  366MOL0     C50399   5.769   9.095   9.770  0.4780  0.3558  0.2944
  366MOL0     C50400   5.684   9.136   9.881  0.5534 -0.2909  0.0509
  366MOL0     O50401   5.631   9.031   9.960  0.3411  0.1253  0.6231
  366MOL0     C50402   5.548   9.053  10.067 -0.5836  0.0614  0.3243
  366MOL0     C50403   5.511   9.180  10.124 -0.3792  0.2815 -1.4535
  366MOL0     C50404   5.444   9.189  10.244 -0.3550 -0.6930  0.1246
  366MOL0     C50405   5.403   9.072  10.312 -0.1682  0.1454 -0.3186
  366MOL0     O50406   5.345   9.061  10.444  0.1767 -0.2293 -1.1159
  366MOL0     C50407   5.363   9.172  10.536 -0.1078 -0.8408  0.7710
  366MOL0     C50408   5.257   9.158  10.643 -0.1722  0.2689  0.8989
  366MOL0     C50409   5.322   9.079  10.754 -0.2528  0.1053 -0.0927
  366MOL0     C50410   5.214   9.020  10.840 -0.4454  0.8950 -0.6551
  366MOL0     C50411   5.093   9.107  10.882  0.1745 -0.0919  1.0071
  366MOL0     C50412   5.001   9.036  10.984 -0.6977  1.1395  0.1760
  366MOL0     C50413   4.907   8.937  10.927 -0.2282 -0.2802  0.7943
  366MOL0     C50414   4.786   8.903  11.013 -0.8220 -0.6690 -0.3233
  366MOL0    Cl50415   4.676   9.041  11.036  0.1843  0.2882 -0.1642
  366MOL0     C50416   5.431   8.948  10.253  0.1506 -0.6356  0.6831
  366MOL0     C50417   5.499   8.941  10.128 -0.7844 -0.0284  0.6638
  366MOL0     O50418   5.646   9.255   9.892 -0.8326  0.4063 -0.9931
  366MOL0     C50419   5.732   8.983   9.697  0.4550 -0.7740  0.5157
  366MOL0     C50420   5.813   8.926   9.599 -0.2679 -0.0818  0.7926
  366MOL0     N50421   6.090   8.766   8.998  0.6609 -0.2945  0.0948
  366MOL0     N50422   6.042   8.759   8.870 -0.1241 -0.6546 -0.0819
  366MOL0     C50423   5.274   9.534   8.726  0.7326  0.1872  0.1628
  366MOL0     C50424   5.138   9.538   8.758 -0.0562  0.1232 -0.5379
  366MOL0     C50425   4.681   9.593   8.603 -0.0862 -0.2038 -0.0744
  366MOL0     C50426   4.628   9.624   8.726 -0.1798  0.0491 -0.3605
  366MOL0     C50427   4.509   9.696   8.732  0.2757  0.3724  0.9857
  366MOL0     C50428   4.432   9.728   8.620  0.0423  0.0264  0.5860
  366MOL0     O50429   4.311   9.787   8.625  1.0396  0.5145  0.3736
  366MOL0     C50430   4.232   9.773   8.739  0.2825 -0.1653  0.0426
  366MOL0     C50431   4.089   9.820   8.712 -0.2138  0.6660  0.4458
  366MOL0     C50432   3.994   9.782   8.821  0.2758  0.4985 -0.1721
  366MOL0     C50433   3.862   9.851   8.844 -0.0104 -0.3036 -0.1836
  366MOL0     C50434   3.778   9.771   8.939  0.4390  0.4618 -0.4654
  366MOL0     C50435   3.700   9.700   9.010  0.7708  0.0694 -0.4418
  366MOL0     C50436   4.495   9.700   8.498 -0.1171 -0.8162 -0.7023
  366MOL0     C50437   4.608   9.624   8.486 -0.1550  0.3354  0.5790
  366MOL0     C50438   4.657   9.590   8.343 -0.0524  0.3580 -0.0357
  366MOL0     H50439   4.994   9.569   8.465 -1.6611 -1.0308  2.2039
  366MOL0     H50440   5.243   9.571   8.389  0.8954 -1.3783  0.3131
  366MOL0     H50441   5.519   9.418   8.719  2.0823  0.9381  1.4709
  366MOL0     H50442   5.554   9.599   8.723  0.7123  0.8780 -0.1587
  366MOL0     H50443   5.684   9.546   8.510  3.2680 -0.6297 -0.6995
  366MOL0     H50444   5.752   9.514   8.673 -2.4236 -0.7776  2.2523
  366MOL0     H50445   5.639   9.296   8.474 -3.0372 -1.8097  2.6938
  366MOL0     H50446   5.811   9.343   8.518  1.3358  0.6363  2.1007
  366MOL0     H50447   5.732   9.282   8.771  2.4462 -1.4273  0.9440
  366MOL0     H50448   5.602   9.189   8.695  0.4993  0.0429 -0.7445
  366MOL0     H50449   5.898   9.144   8.638  1.2951 -0.5205 -1.3224
  366MOL0     H50450   5.766   9.091   8.543  0.7653  3.1919 -2.1691
  366MOL0     H50451   5.818   9.037   8.847 -0.4958  0.0192  0.2748
  366MOL0     H50452   5.664   8.989   8.768  0.0195 -3.1950 -2.3551
  366MOL0     H50453   5.794   8.865   8.590 -1.2442  0.0003  0.4703
  366MOL0     H50454   5.805   8.792   8.751  1.3091  0.5365  1.4376
  366MOL0     H50455   6.036   8.815   8.658  2.4420  1.1963 -1.9199
  366MOL0     H50456   6.020   8.990   8.639  0.7702 -0.9321  0.3778
  366MOL0     H50457   6.069   9.087   8.934  0.2911  0.2888 -1.1759
  366MOL0     H50458   6.079   9.010   9.224 -1.4229 -2.9211 -0.8948
  366MOL0     H50459   6.230   9.020   9.155  0.0178  0.6883  2.4921
  366MOL0     H50460   6.287   8.787   9.198 -2.3865 -1.6530 -0.7178
  366MOL0     H50461   6.276   8.890   9.336 -0.5841  0.1205  1.3965
  366MOL0     H50462   6.086   8.663   9.262  0.3778 -0.5404  0.4418
  366MOL0     H50463   6.179   8.700   9.407 -0.7443  0.3889 -0.3944
  366MOL0     H50464   5.935   8.839   9.296  1.4635  0.0380 -0.9774
  366MOL0     H50465   5.938   8.749   9.446 -0.4785 -0.8176 -1.8226
  366MOL0     H50466   6.073   9.143   9.630  0.1276 -0.5079 -0.2293
  366MOL0     H50467   5.918   9.291   9.907 -1.2078 -2.2809 -1.0453
  366MOL0     H50468   5.966   9.353   9.746 -0.8154  0.8356  1.3145
  366MOL0     H50469   6.057   9.239   9.851  0.0915  0.4495  0.4492
  366MOL0     H50470   5.544   9.278  10.091 -0.0015  0.1243 -1.5502
  366MOL0     H50471   5.451   9.290  10.285  2.6872 -0.5327 -0.5710
  366MOL0     H50472   5.467   9.158  10.568  0.7742 -2.7754 -2.4472
  366MOL0     H50473   5.347   9.266  10.483  1.2014 -0.9346  0.1723
  366MOL0     H50474   5.225   9.255  10.681 -0.1281  0.1842  1.1532
  366MOL0     H50475   5.171   9.113  10.592 -1.6258  4.5134 -0.7951
  366MOL0     H50476   5.394   9.138  10.813 -0.3967  0.8439 -0.6475
  366MOL0     H50477   5.374   8.992  10.714 -1.4516  1.1002 -4.2176
  366MOL0     H50478   5.244   8.987  10.940 -1.3718  1.0895 -0.3020
  366MOL0     H50479   5.174   8.940  10.777 -0.0397 -0.8676  1.2216
  366MOL0     H50480   5.138   9.194  10.930  0.4917  0.7633 -0.7673
  366MOL0     H50481   5.035   9.139  10.795 -0.6936  0.4559  1.7718
  366MOL0     H50482   4.931   9.108  11.027 -1.3911  0.0370  0.9575
  366MOL0     H50483   5.050   8.986  11.068 -0.5976 -0.6348 -0.8856
  366MOL0     H50484   4.963   8.845  10.911 -2.5077 -1.6611  0.2504
  366MOL0     H50485   4.875   8.978  10.831  2.5551 -1.3726 -0.6948
  366MOL0     H50486   4.829   8.869  11.108  1.4466  1.1508 -0.6339
  366MOL0     H50487   4.729   8.823  10.964  0.8307 -0.2602 -3.1072
  366MOL0     H50488   5.407   8.859  10.310  0.9471 -1.2984  0.0264
  366MOL0     H50489   5.532   8.842  10.097  0.7542 -0.0892  2.3370
  366MOL0     H50490   5.637   8.937   9.722  1.0042 -2.0183  0.3904
  366MOL0     H50491   5.774   8.842   9.543  1.7910 -2.0985  2.2497
  366MOL0     H50492   5.335   9.531   8.816 -0.7571 -1.0404  1.1925
  366MOL0     H50493   5.105   9.516   8.859  1.5367 -0.8125 -0.1832
  366MOL0     H50494   4.685   9.621   8.818  0.2872  2.1972 -0.5194
  366MOL0     H50495   4.477   9.725   8.831 -0.8705  1.3789  0.3444
  366MOL0     H50496   4.217   9.666   8.756 -2.8284 -0.1916 -2.0522
  366MOL0     H50497   4.277   9.826   8.823 -0.6136  1.2864 -0.3466
  366MOL0     H50498   4.046   9.777   8.621 -0.3727  0.3960  0.6489
  366MOL0     H50499   4.093   9.929   8.705  0.9321  0.6959  1.2649
  366MOL0     H50500   3.969   9.676   8.810  0.6333  0.2733  1.0088
  366MOL0     H50501   4.050   9.778   8.915  0.8373 -3.8197 -0.4681
  366MOL0     H50502   3.818   9.873   8.747  2.0457  1.1170 -0.8521
  366MOL0     H50503   3.865   9.944   8.901  0.3184 -1.2727  1.4567
  366MOL0     H50504   3.628   9.640   9.063 -0.2768  3.0948  1.8449
  366MOL0     H50505   4.439   9.734   8.411 -1.1266 -2.4605 -0.7429
  366MOL0     H50506   4.597   9.643   8.269 -1.3729  0.6596  1.1919
  366MOL0     H50507   4.761   9.620   8.329 -0.5659  1.3132 -2.2753
  366MOL0     H50508   4.642   9.482   8.336  1.4883  0.0891  0.3824
  367MOL0     O50509   2.056   4.458   9.460  0.1282 -0.1033  0.5102
  367MOL0     C50510   1.979   4.441   9.549  0.3162 -1.2245  0.8657
  367MOL0     O50511   1.954   4.328   9.608 -0.6232  0.6146 -0.4964
  367MOL0     C50512   2.026   4.208   9.580 -0.3348 -0.5954  0.0832
  367MOL0     C50513   1.955   4.088   9.573  0.3919  0.6966 -1.3754
  367MOL0     C50514   2.015   3.965   9.552 -0.6680  1.0399  0.1703
  367MOL0     C50515   2.148   3.968   9.515 -0.6019 -0.2372 -0.4465
  367MOL0     O50516   2.197   3.852   9.478 -0.0224 -0.0940 -0.0965
  367MOL0     C50517   2.311   3.807   9.559  0.1232  0.2259 -0.1683
  367MOL0     C50518   2.397   3.701   9.485 -0.3381  1.6475 -0.0897
  367MOL0     C50519   2.420   3.725   9.333  0.0365  0.9499  0.5498
  367MOL0     C50520   2.313   3.646   9.251  0.3248 -0.0017  0.4150
  367MOL0     C50521   2.325   3.690   9.103  0.3293 -0.3197  0.1787
  367MOL0     C50522   2.203   3.643   9.017 -0.5514 -0.0505  0.2226
  367MOL0     C50523   2.203   3.703   8.872  1.1423  0.4002  0.0525
  367MOL0     C50524   2.121   3.621   8.763  0.3990  0.0146 -0.3274
  367MOL0     N50525   1.977   3.659   8.752 -0.1085 -0.4385  0.1294
  367MOL0     C50526   1.913   3.708   8.642 -0.5245 -0.5225 -0.3500
  367MOL0     C50527   1.794   3.745   8.687  0.7162 -1.0923 -0.5749
  367MOL0     C50528   1.691   3.827   8.604  0.3084  0.7544  0.2729
  367MOL0     C50529   1.579   3.887   8.690 -0.1067  0.1184  0.6554
  367MOL0     C50530   1.499   3.976   8.593 -0.0576 -0.4569  0.3297
  367MOL0     C50531   1.366   4.021   8.661  0.1118  0.1596 -0.2184
  367MOL0     O50532   1.283   4.108   8.583 -0.3024 -0.0136  0.0530
  367MOL0     C50533   1.160   4.162   8.635 -0.7887 -0.6952 -0.3437
  367MOL0     C50534   1.090   4.257   8.565  0.6977 -0.4892  0.6128
  367MOL0     C50535   0.971   4.313   8.598  0.5184 -0.3274  0.4067
  367MOL0     C50536   0.917   4.412   8.505 -0.0042  0.5867  0.6113
  367MOL0     C50537   0.899   4.264   8.714  0.5438  0.1029 -0.3398
  367MOL0     C50538   0.768   4.317   8.759  0.2334  0.8693 -0.1121
  367MOL0     O50539   0.740   4.297   8.890 -0.4980  0.7561  0.1378
  367MOL0     C50540   0.605   4.321   8.916  0.2362 -0.5822 -0.4244
  367MOL0     C50541   0.509   4.233   8.875  1.2950  0.3224  0.9867
  367MOL0     C50542   0.369   4.256   8.900  0.1861 -0.4228 -0.1543
  367MOL0     C50543   0.343   4.358   8.992 -0.1420  0.0834  0.1875
  367MOL0     O50544   0.216   4.417   9.009 -0.7433  1.0042  0.1059
  367MOL0     C50545   0.099   4.348   8.984 -0.1438  0.4889 -0.2350
  367MOL0     C50546  -0.015   4.451   8.952  0.4023  1.2846 -0.5667
  367MOL0     C50547  -0.130   4.378   8.874  0.7848 -1.2195  0.0274
  367MOL0     C50548  -0.095   4.286   8.757 -0.4267  0.1754  0.0754
  367MOL0     C50549  -0.216   4.220   8.688  0.1083 -0.3580 -0.8857
  367MOL0     C50550  -0.182   4.165   8.546  0.3215 -0.3605  0.1635
  367MOL0     C50551  -0.272   4.042   8.526 -0.1395 -1.2780 -0.1319
  367MOL0     C50552  -0.260   3.995   8.374 -0.3903 -0.0703 -0.0844
  367MOL0    Cl50553  -0.096   3.927   8.326  0.2349  0.5791  0.2689
  367MOL0     C50554   0.443   4.445   9.035 -0.3724  0.2629  0.0003
  367MOL0     C50555   0.574   4.424   8.994  0.0073 -0.3518  0.4513
  367MOL0     O50556   0.695   4.383   8.679 -0.3092 -0.7256  0.5172
  367MOL0     C50557   0.972   4.168   8.787 -0.0457 -0.3100 -0.5971
  367MOL0     C50558   1.099   4.121   8.755  0.1368 -0.0962  0.9396
  367MOL0     N50559   1.779   3.713   8.817 -0.0265  0.7642  0.9130
  367MOL0     N50560   1.886   3.647   8.853 -0.0826  0.5326  0.5513
  367MOL0     C50561   2.222   4.091   9.519 -0.0672 -0.8140  0.7321
  367MOL0     C50562   2.163   4.208   9.546 -0.5126  1.3281 -0.1405
  367MOL0     C50563   1.902   4.556   9.613 -0.2034  0.1801  0.0512
  367MOL0     C50564   1.978   4.661   9.665  0.2544 -0.6280 -0.5023
  367MOL0     C50565   1.911   4.764   9.731 -1.0288  0.0278  0.2737
  367MOL0     C50566   1.770   4.765   9.738  0.0346  0.3486  0.5669
  367MOL0     O50567   1.714   4.859   9.821 -1.6328  0.7412  0.1653
  367MOL0     C50568   1.571   4.890   9.810 -0.9483 -0.0209 -0.1682
  367MOL0     C50569   1.549   5.022   9.895 -0.2688 -0.5589 -0.2484
  367MOL0     C50570   1.595   4.997  10.043  0.7155 -0.6325 -0.3771
  367MOL0     C50571   1.528   5.112  10.122  0.4912 -0.4833  0.5706
  367MOL0     C50572   1.576   5.105  10.258 -0.7227  0.0497  0.6893
  367MOL0     C50573   1.613   5.110  10.376  0.8118  0.1274  1.4135
  367MOL0     C50574   1.694   4.663   9.678 -0.4090  0.2002  0.5421
  367MOL0     C50575   1.764   4.561   9.611  0.1280  0.1784  0.0654
  367MOL0     C50576   1.680   4.461   9.534 -0.8196 -0.8127  0.2458
  367MOL0     H50577   1.857   4.096   9.618  1.5154 -0.3274  1.4858
  367MOL0     H50578   1.962   3.871   9.545 -0.3170  0.6825  1.9187
  367MOL0     H50579   2.289   3.760   9.655  1.9297  1.3148  0.8283
  367MOL0     H50580   2.384   3.887   9.574  0.3786  0.3692 -1.9409
  367MOL0     H50581   2.496   3.698   9.531 -0.7493 -0.3577  0.7391
  367MOL0     H50582   2.343   3.612   9.517  1.6156  0.8759  1.2215
  367MOL0     H50583   2.407   3.830   9.306  0.1347  0.5100 -1.3443
  367MOL0     H50584   2.525   3.704   9.310  0.2890  0.8762  1.6743
  367MOL0     H50585   2.315   3.538   9.269 -1.1126 -0.1432 -0.1206
  367MOL0     H50586   2.209   3.665   9.281  0.7317 -1.2696  2.8478
  367MOL0     H50587   2.414   3.641   9.063 -0.1880 -0.3610 -0.9657
  367MOL0     H50588   2.337   3.799   9.095  0.2720 -0.4280 -2.0054
  367MOL0     H50589   2.204   3.534   9.009 -0.4793  0.0144 -0.8008
  367MOL0     H50590   2.110   3.673   9.067  0.2234  1.9141  0.5625
  367MOL0     H50591   2.306   3.698   8.836  0.7731  0.9647 -1.1471
  367MOL0     H50592   2.178   3.809   8.873  1.8605  0.6049  2.8738
  367MOL0     H50593   2.161   3.651   8.665  1.6870  0.5210  0.3295
  367MOL0     H50594   2.121   3.512   8.774 -0.4132  0.0110 -0.3285
  367MOL0     H50595   1.950   3.737   8.545 -1.0671  1.5733  0.0147
  367MOL0     H50596   1.647   3.760   8.530  1.6111  0.1855 -0.0046
  367MOL0     H50597   1.748   3.914   8.570  1.2898  1.2077  2.8318
  367MOL0     H50598   1.511   3.810   8.730  1.6255 -1.9878 -0.2411
  367MOL0     H50599   1.619   3.954   8.767  3.4505 -0.4670 -0.5063
  367MOL0     H50600   1.561   4.061   8.563  1.3989 -2.7533 -4.1838
  367MOL0     H50601   1.492   3.914   8.503  5.4806 -3.9606  1.7889
  367MOL0     H50602   1.303   3.934   8.680 -0.1014  0.3240 -0.1670
  367MOL0     H50603   1.388   4.084   8.748 -0.3479  1.5032 -1.0450
  367MOL0     H50604   1.130   4.295   8.472 -2.8293  2.3531  0.0523
  367MOL0     H50605   0.881   4.496   8.565  0.0814  1.5506 -0.6513
  367MOL0     H50606   0.828   4.371   8.457  0.9091 -1.7517  0.8041
  367MOL0     H50607   0.993   4.456   8.440  2.2009 -1.3033  1.7713
  367MOL0     H50608   0.521   4.152   8.804 -3.9533  0.6423 -0.7006
  367MOL0     H50609   0.309   4.178   8.855 -0.0462  0.1542 -0.8567
  367MOL0     H50610   0.119   4.285   8.896  2.0162  0.8190 -0.0181
  367MOL0     H50611   0.069   4.289   9.071  2.0024  2.8674  2.2771
  367MOL0     H50612  -0.055   4.475   9.051  3.4402 -0.0688  1.1187
  367MOL0     H50613   0.006   4.540   8.892 -1.7309  2.9481  0.9878
  367MOL0     H50614  -0.199   4.452   8.833  0.2118 -1.8807 -0.2102
  367MOL0     H50615  -0.184   4.322   8.951 -0.2493  0.6028  0.6889
  367MOL0     H50616  -0.033   4.207   8.800 -1.5785  0.3492  2.1823
  367MOL0     H50617  -0.042   4.339   8.678 -0.4184  0.2754  0.1482
  367MOL0     H50618  -0.256   4.144   8.755  0.3730 -0.7402 -1.1568
  367MOL0     H50619  -0.294   4.296   8.676  0.8271  0.7785  1.2201
  367MOL0     H50620  -0.078   4.133   8.538  0.0126 -1.2578 -0.4211
  367MOL0     H50621  -0.190   4.241   8.467  0.3769 -0.0020  0.4974
  367MOL0     H50622  -0.374   4.074   8.549 -0.6224 -0.1572 -3.2931
  367MOL0     H50623  -0.255   3.959   8.595 -0.4246 -0.5539  0.8296
  367MOL0     H50624  -0.288   4.079   8.310 -0.0711  2.9311  3.4562
  367MOL0     H50625  -0.338   3.921   8.352 -0.7275  0.7163 -1.6904
  367MOL0     H50626   0.413   4.534   9.090  0.5297  1.5976 -1.5856
  367MOL0     H50627   0.652   4.494   9.025 -0.8406  1.4744 -1.2997
  367MOL0     H50628   0.931   4.113   8.871  0.4377 -0.9880 -0.8028
  367MOL0     H50629   1.142   4.047   8.822  1.6294 -0.0611  0.0583
  367MOL0     H50630   2.331   4.092   9.514 -0.0727 -1.9280  0.1997
  367MOL0     H50631   2.216   4.301   9.564 -3.0225  2.9308 -0.4445
  367MOL0     H50632   2.083   4.667   9.638 -0.2662 -0.1632 -2.6587
  367MOL0     H50633   1.968   4.835   9.790 -1.4069  0.6148 -0.0523
  367MOL0     H50634   1.563   4.913   9.703 -1.2763 -0.7882 -0.3158
  367MOL0     H50635   1.506   4.809   9.843  2.5483 -3.4103 -0.8088
  367MOL0     H50636   1.440   5.032   9.898 -0.9216 -3.7590 -3.9604
  367MOL0     H50637   1.586   5.111   9.843 -0.5849 -2.1091 -3.3980
  367MOL0     H50638   1.571   4.900  10.087  2.6049  0.6063  3.9589
  367MOL0     H50639   1.702   4.996  10.067  0.0944  3.7030  4.0188
  367MOL0     H50640   1.419   5.115  10.130  0.2864  3.3033 -1.5192
  367MOL0     H50641   1.560   5.210  10.086  1.0030 -0.8357  0.0524
  367MOL0     H50642   1.631   5.108  10.482 -0.0719  0.0111  1.5754
  367MOL0     H50643   1.586   4.656   9.689 -0.5753 -1.3475 -1.4324
  367MOL0     H50644   1.590   4.500   9.485  0.6432  2.6537  0.0155
  367MOL0     H50645   1.736   4.421   9.450 -0.8166  2.4293 -1.4591
  367MOL0     H50646   1.651   4.384   9.606  2.2823  1.7148  4.6872
  368MOL0     O50647   0.141   4.554   0.468 -0.4094  0.4738 -0.1942
  368MOL0     C50648   0.204   4.484   0.546  0.4955 -0.6470  0.3132
  368MOL0     O50649   0.328   4.514   0.606  0.5355 -0.4447 -0.0985
  368MOL0     C50650   0.408   4.612   0.544 -0.3286 -0.0001  0.7621
  368MOL0     C50651   0.496   4.681   0.624 -1.1446 -0.2120 -0.2170
  368MOL0     C50652   0.582   4.779   0.579  0.5033 -0.0041 -0.0856
  368MOL0     C50653   0.577   4.829   0.443 -0.1914 -0.1108 -0.5581
  368MOL0     O50654   0.660   4.929   0.390 -0.5834  0.6853  0.2035
  368MOL0     C50655   0.762   4.979   0.475  0.9283 -0.6523 -1.1732
  368MOL0     C50656   0.812   5.104   0.397 -0.9350  0.1615 -0.3755
  368MOL0     C50657   0.928   5.067   0.302 -0.0640  0.2035 -0.3280
  368MOL0     C50658   0.929   5.156   0.179  0.0749  0.2938  0.0609
  368MOL0     C50659   1.042   5.106   0.084  0.5235  0.1877  0.3517
  368MOL0     C50660   1.031   5.180  -0.058 -0.6228 -1.0571  0.3110
  368MOL0     C50661   1.147   5.145  -0.156  0.5192 -0.2110 -0.5402
  368MOL0     C50662   1.127   5.180  -0.303  0.6619  0.6470  1.1092
  368MOL0     N50663   1.239   5.139  -0.389  0.3437  0.0820 -0.3176
  368MOL0     C50664   1.372   5.174  -0.369  0.1807  0.5514 -0.1964
  368MOL0     C50665   1.430   5.172  -0.486 -0.5086  0.2055  0.3423
  368MOL0     C50666   1.578   5.203  -0.518  0.0819  0.6707  0.3715
  368MOL0     C50667   1.655   5.090  -0.604  0.3893 -0.0369  0.1073
  368MOL0     C50668   1.806   5.108  -0.595 -0.5322  0.2706  0.5188
  368MOL0     C50669   1.868   4.992  -0.667 -0.4750  0.8405 -0.4421
  368MOL0     O50670   2.006   5.029  -0.691  0.0260 -0.0273 -0.0057
  368MOL0     C50671   2.111   5.027  -0.606 -0.5860  0.0959  0.6803
  368MOL0     C50672   2.240   5.053  -0.663 -0.0182 -0.1483 -0.0643
  368MOL0     C50673   2.358   5.042  -0.589 -0.2913  0.1616  0.6479
  368MOL0     C50674   2.485   5.066  -0.671  0.5711  0.9852 -0.1132
  368MOL0     C50675   2.352   4.998  -0.455 -1.0178  0.4776  0.4008
  368MOL0     C50676   2.475   4.994  -0.364  0.0111  0.3889 -0.3081
  368MOL0     O50677   2.454   5.032  -0.233 -0.3705  0.2810  0.4224
  368MOL0     C50678   2.564   5.060  -0.152  0.6729  0.6323  0.5263
  368MOL0     C50679   2.655   4.958  -0.125  0.0462  0.6931  0.7785
  368MOL0     C50680   2.760   4.975  -0.035  0.0450 -0.2819 -0.2512
  368MOL0     C50681   2.768   5.094   0.044 -0.0394 -0.0224  0.8513
  368MOL0     O50682   2.863   5.124   0.133 -0.3559 -0.5147 -0.2332
  368MOL0     C50683   2.980   5.053   0.119 -0.5961  0.3254 -0.4794
  368MOL0     C50684   3.100   5.096   0.202 -1.2297 -0.4458  0.5996
  368MOL0     C50685   3.079   5.083   0.356 -0.7637 -0.0352 -0.2224
  368MOL0     C50686   3.219   5.087   0.425 -0.3674 -0.1041 -0.2945
  368MOL0     C50687   3.206   5.076   0.579 -0.2122 -0.0097  0.0875
  368MOL0     C50688   3.321   5.119   0.652 -0.9499 -0.2767  0.3981
  368MOL0     C50689   3.288   5.123   0.797  0.5463  0.6047 -0.5020
  368MOL0     C50690   3.392   5.178   0.889 -0.7799  0.3084  0.2046
  368MOL0    Cl50691   3.521   5.061   0.928 -0.4551  0.6606 -0.1259
  368MOL0     C50692   2.674   5.193   0.016  0.2889 -0.4706 -0.6264
  368MOL0     C50693   2.582   5.175  -0.078  0.9496  0.2319 -0.0292
  368MOL0     O50694   2.582   4.952  -0.405  0.3635  0.9913  0.4549
  368MOL0     C50695   2.217   4.968  -0.402  0.5919 -0.6604 -0.7019
  368MOL0     C50696   2.102   4.991  -0.479 -0.7589  0.8429 -0.8119
  368MOL0     N50697   1.347   5.115  -0.580 -0.3971 -0.5207  0.6213
  368MOL0     N50698   1.231   5.107  -0.526  1.2967  0.1632  1.4712
  368MOL0     C50699   0.486   4.764   0.358  0.1760 -0.9142 -0.7599
  368MOL0     C50700   0.407   4.659   0.413 -0.0527  0.0645  0.0753
  368MOL0     C50701   0.142   4.357   0.566 -0.1604  0.0362 -0.1906
  368MOL0     C50702   0.003   4.347   0.554 -0.2160 -0.7120  0.2074
  368MOL0     C50703  -0.067   4.229   0.569 -0.2873  0.1471  0.5005
  368MOL0     C50704   0.009   4.113   0.595  1.3784 -1.1504 -0.3428
  368MOL0     O50705  -0.048   3.990   0.619 -0.7088  0.7454  0.3673
  368MOL0     C50706  -0.188   3.969   0.595 -0.3902 -0.5884  0.5331
  368MOL0     C50707  -0.223   3.972   0.447  0.2669 -0.5888 -0.3213
  368MOL0     C50708  -0.376   3.971   0.407  0.4138  0.4764 -0.8016
  368MOL0     C50709  -0.386   3.938   0.258 -0.4632  0.4067 -1.1074
  368MOL0     C50710  -0.521   3.928   0.212 -0.2727 -0.3826  1.1339
  368MOL0     C50711  -0.631   3.923   0.166  0.2458 -1.1720 -0.2571
  368MOL0     C50712   0.150   4.123   0.599 -0.8805 -0.4053 -0.2970
  368MOL0     C50713   0.217   4.243   0.597 -0.9832 -0.1932 -0.3456
  368MOL0     C50714   0.369   4.226   0.603  0.0682  0.0738 -0.0137
  368MOL0     H50715   0.505   4.658   0.729  0.2400 -1.0911 -0.4986
  368MOL0     H50716   0.655   4.823   0.646  0.1911  0.2450  0.0933
  368MOL0     H50717   0.841   4.904   0.489  0.8981 -0.9900 -2.6330
  368MOL0     H50718   0.729   4.997   0.577  2.2824 -2.2079 -0.4079
  368MOL0     H50719   0.722   5.152   0.356 -2.8242 -1.8448  1.1541
  368MOL0     H50720   0.862   5.175   0.463 -4.1119  1.7958  0.4754
  368MOL0     H50721   1.030   5.066   0.340  0.5816 -0.6322 -1.9814
  368MOL0     H50722   0.902   4.966   0.267 -0.1803 -0.0126  0.3678
  368MOL0     H50723   0.829   5.157   0.136  0.1476  0.1379 -0.1115
  368MOL0     H50724   0.946   5.260   0.209 -1.1623  0.5319 -0.0072
  368MOL0     H50725   1.028   5.000   0.066 -1.1962  0.8016 -2.5815
  368MOL0     H50726   1.142   5.122   0.125 -0.6588 -0.8882  4.0216
  368MOL0     H50727   0.929   5.163  -0.095  0.3556 -1.7876 -2.2148
  368MOL0     H50728   1.048   5.288  -0.048  1.0058 -0.9777 -2.2920
  368MOL0     H50729   1.145   5.036  -0.150  1.6783 -0.3001 -1.3991
  368MOL0     H50730   1.242   5.175  -0.111  0.3624 -1.1277  0.4400
  368MOL0     H50731   1.042   5.125  -0.344  1.5413 -2.8624  3.4871
  368MOL0     H50732   1.112   5.287  -0.320  0.4867  0.5064  0.3448
  368MOL0     H50733   1.408   5.206  -0.272  2.2417  0.8777 -1.0318
  368MOL0     H50734   1.636   5.226  -0.429  1.8723  0.4549 -0.6990
  368MOL0     H50735   1.574   5.291  -0.584  0.1079 -1.0960 -2.1162
  368MOL0     H50736   1.628   5.000  -0.548 -1.0205  0.4948  0.3228
  368MOL0     H50737   1.614   5.095  -0.705  1.3092 -0.8535 -0.3166
  368MOL0     H50738   1.838   5.204  -0.636 -2.2706  0.2129 -1.0512
  368MOL0     H50739   1.841   5.103  -0.491  2.8220 -1.4752 -0.5445
  368MOL0     H50740   1.867   4.895  -0.618 -2.1394 -0.4498 -2.8383
  368MOL0     H50741   1.828   4.976  -0.768 -0.6064  0.1870 -0.2865
  368MOL0     H50742   2.245   5.069  -0.770 -0.0508  2.5387  0.2652
  368MOL0     H50743   2.486   4.979  -0.738 -0.0914  0.3083  0.7295
  368MOL0     H50744   2.581   5.086  -0.622  0.1209  0.6024  0.9638
  368MOL0     H50745   2.469   5.148  -0.741 -2.8036  2.0430  1.6477
  368MOL0     H50746   2.653   4.857  -0.165  0.8999  1.1774 -0.5557
  368MOL0     H50747   2.833   4.895  -0.028  3.7170  2.4324 -3.4167
  368MOL0     H50748   2.951   4.959   0.165 -3.1829  1.9439  1.5222
  368MOL0     H50749   3.017   5.041   0.016  1.1631 -0.0535  0.1603
  368MOL0     H50750   3.186   5.035   0.173  1.6509  3.6896 -0.4573
  368MOL0     H50751   3.134   5.198   0.179  1.4386 -1.3093  0.3528
  368MOL0     H50752   3.027   4.989   0.375  0.9228 -0.8006  0.8140
  368MOL0     H50753   3.011   5.163   0.388  0.6333  0.7204  0.9656
  368MOL0     H50754   3.275   5.178   0.401  1.3191 -1.1385 -0.4592
  368MOL0     H50755   3.279   5.004   0.386 -0.5039  0.9415 -2.9208
  368MOL0     H50756   3.111   5.126   0.603 -0.1481 -0.4648  1.3623
  368MOL0     H50757   3.196   4.970   0.601  2.5398 -0.5231 -0.7718
  368MOL0     H50758   3.355   5.215   0.613 -1.6419 -0.6845 -1.3480
  368MOL0     H50759   3.408   5.055   0.633  0.2617  1.2272  0.6656
  368MOL0     H50760   3.274   5.021   0.834 -0.7410 -0.5199 -3.7432
  368MOL0     H50761   3.189   5.170   0.810 -0.3359 -1.0245 -1.1097
  368MOL0     H50762   3.337   5.207   0.979  1.2221 -1.7885  2.2516
  368MOL0     H50763   3.456   5.260   0.854 -1.9367  1.3132  0.3955
  368MOL0     H50764   2.691   5.282   0.075  0.8778 -0.7151 -0.4221
  368MOL0     H50765   2.513   5.259  -0.087  1.0530  0.2062 -1.1531
  368MOL0     H50766   2.209   4.936  -0.298  1.2442  0.8547 -0.1525
  368MOL0     H50767   2.006   4.977  -0.431 -0.0667  0.1773  0.4378
  368MOL0     H50768   0.487   4.792   0.253  1.7844  0.0346 -0.5215
  368MOL0     H50769   0.334   4.615   0.346  2.6627 -2.4984 -1.4350
  368MOL0     H50770  -0.064   4.429   0.529 -1.3719 -1.8111 -0.4379
  368MOL0     H50771  -0.175   4.221   0.559 -0.0968 -0.9533 -1.1027
  368MOL0     H50772  -0.221   3.875   0.641 -1.5184 -1.8870 -2.5867
  368MOL0     H50773  -0.234   4.047   0.656 -0.6522  1.2250 -1.8477
  368MOL0     H50774  -0.169   3.892   0.396  2.6361  1.7247 -1.7169
  368MOL0     H50775  -0.179   4.066   0.413  1.0272 -0.9413 -0.3314
  368MOL0     H50776  -0.437   3.897   0.459  0.1831  1.4449  0.3521
  368MOL0     H50777  -0.423   4.068   0.427 -1.3520 -0.4811 -0.0758
  368MOL0     H50778  -0.345   3.837   0.250 -1.0500 -0.0262  0.8014
  368MOL0     H50779  -0.325   4.003   0.195 -0.3512  1.0782 -0.3281
  368MOL0     H50780  -0.729   3.910   0.126 -0.9589  1.7403  1.4113
  368MOL0     H50781   0.199   4.027   0.615 -1.5978 -0.5261  1.3623
  368MOL0     H50782   0.419   4.269   0.515  2.6892  0.6570  1.6390
  368MOL0     H50783   0.409   4.284   0.686 -1.3276  0.4574  0.4173
  368MOL0     H50784   0.405   4.124   0.622  0.5792  0.5873  1.9832
  369MOL0     O50785   4.703   6.691   6.076 -0.3374 -0.2761 -0.0660
  369MOL0     C50786   4.674   6.752   6.184 -0.2259  0.2457  0.5442
  369MOL0     O50787   4.758   6.803   6.268 -0.1230  0.3535 -0.1294
  369MOL0     C50788   4.900   6.799   6.253 -0.7262 -0.9338 -0.5024
  369MOL0     C50789   4.974   6.917   6.290 -0.0823 -0.0997  0.2027
  369MOL0     C50790   5.114   6.918   6.296  0.3962 -0.3379  0.5996
  369MOL0     C50791   5.180   6.804   6.259 -1.2672  0.4211  0.2481
  369MOL0     O50792   5.322   6.791   6.275  0.1665  0.0134  0.2762
  369MOL0     C50793   5.408   6.905   6.242  0.2307 -0.6074  0.1967
  369MOL0     C50794   5.544   6.886   6.312 -0.9396 -0.0723  0.2296
  369MOL0     C50795   5.657   6.959   6.239  0.6727  0.5015 -0.3973
  369MOL0     C50796   5.791   6.943   6.327  0.2545  0.1234  1.0170
  369MOL0     C50797   5.923   7.013   6.278 -0.1017  0.6338  0.9553
  369MOL0     C50798   6.039   7.016   6.383  1.1028  0.5198  0.4182
  369MOL0     C50799   6.174   7.074   6.339 -0.1926 -0.0990  0.9953
  369MOL0     C50800   6.276   7.061   6.446 -0.3586  0.1148 -0.3169
  369MOL0     N50801   6.405   7.098   6.386  0.0118 -0.0338 -0.7363
  369MOL0     C50802   6.467   7.026   6.282  0.2288  0.0253 -0.0701
  369MOL0     C50803   6.589   7.096   6.263  0.3990 -0.8725 -0.5158
  369MOL0     C50804   6.696   7.076   6.168  0.5439  0.2895  0.3174
  369MOL0     C50805   6.650   7.134   6.033 -0.1249  0.0250  0.4738
  369MOL0     C50806   6.615   7.279   6.031 -0.7937 -0.0583 -0.4295
  369MOL0     C50807   6.506   7.306   5.935 -0.7197 -0.3924 -0.4925
  369MOL0     O50808   6.540   7.271   5.801  0.4279 -0.2950 -0.0194
  369MOL0     C50809   6.446   7.261   5.705 -0.0391 -0.3171  0.4734
  369MOL0     C50810   6.476   7.180   5.600 -0.2628  0.1206 -0.0077
  369MOL0     C50811   6.385   7.160   5.496 -0.3393  0.4286 -0.7234
  369MOL0     C50812   6.434   7.057   5.409 -0.5061  0.1960  0.0901
  369MOL0     C50813   6.262   7.228   5.501  0.9892 -0.1789 -0.1048
  369MOL0     C50814   6.165   7.217   5.399  0.5670  1.0044 -0.2371
  369MOL0     O50815   6.084   7.323   5.393  0.0301  0.2855  0.0949
  369MOL0     C50816   5.978   7.327   5.315 -0.1520  0.3909 -0.1189
  369MOL0     C50817   5.999   7.336   5.171 -0.3998  0.6378  0.0633
  369MOL0     C50818   5.894   7.330   5.073  0.0760 -0.0868 -0.8511
  369MOL0     C50819   5.764   7.331   5.124  0.6057 -0.0778  0.2386
  369MOL0     O50820   5.660   7.348   5.038  0.2149 -0.5515  0.5925
  369MOL0     C50821   5.649   7.252   4.927  0.1367  0.0632  0.3493
  369MOL0     C50822   5.589   7.324   4.805  0.3698  0.0253  0.1784
  369MOL0     C50823   5.534   7.218   4.709  0.4370 -0.3910  0.5348
  369MOL0     C50824   5.473   7.281   4.578 -1.8192 -0.8332 -0.6503
  369MOL0     C50825   5.436   7.179   4.472  0.0136  0.9372 -0.2608
  369MOL0     C50826   5.329   7.069   4.516 -0.0514 -0.3888  0.9228
  369MOL0     C50827   5.204   7.136   4.574 -0.0937 -0.5545  0.2474
  369MOL0     C50828   5.110   7.019   4.605 -0.0590  1.2943  0.2573
  369MOL0    Cl50829   4.946   7.070   4.678 -0.6494  0.4508  0.1658
  369MOL0     C50830   5.741   7.335   5.263 -0.3460 -0.1809 -0.0677
  369MOL0     C50831   5.847   7.324   5.355  0.4344  0.3962  0.0392
  369MOL0     O50832   6.146   7.112   5.340  0.1270  0.1209 -0.1855
  369MOL0     C50833   6.228   7.307   5.608 -0.1388 -0.7862  0.2353
  369MOL0     C50834   6.321   7.320   5.708 -0.6452 -0.6160 -0.0389
  369MOL0     N50835   6.589   7.208   6.355 -0.4005 -0.5000 -0.5120
  369MOL0     N50836   6.484   7.200   6.427  0.1439  0.4570 -0.4331
  369MOL0     C50837   5.114   6.687   6.223  0.2921 -0.3874  0.2871
  369MOL0     C50838   4.975   6.687   6.223 -0.2537  0.0786 -0.1988
  369MOL0     C50839   4.541   6.753   6.223  1.6092 -0.4976  0.2506
  369MOL0     C50840   4.480   6.868   6.273  0.3954  0.3338 -0.1631
  369MOL0     C50841   4.355   6.869   6.334 -0.1790  0.4024 -0.5992
  369MOL0     C50842   4.277   6.751   6.348  0.1255  0.7740 -0.8609
  369MOL0     O50843   4.144   6.745   6.403 -0.5507  0.2758 -0.1671
  369MOL0     C50844   4.090   6.868   6.438  0.6034 -0.2497 -2.0632
  369MOL0     C50845   3.961   6.842   6.535 -0.4473 -0.5874  1.0409
  369MOL0     C50846   3.837   6.791   6.465  0.2792  0.6196 -0.9242
  369MOL0     C50847   3.821   6.649   6.470  0.4435  0.4327 -0.2539
  369MOL0     C50848   3.684   6.609   6.425 -0.1493  0.3126  0.3449
  369MOL0     C50849   3.586   6.588   6.365  0.6204  0.5725  0.5441
  369MOL0     C50850   4.332   6.630   6.290 -0.3709 -0.0558  0.6007
  369MOL0     C50851   4.453   6.637   6.232 -0.4966  0.4975 -0.1127
  369MOL0     C50852   4.518   6.511   6.180  0.1844 -0.2054  0.1388
  369MOL0     H50853   4.921   7.008   6.315  1.7548  1.0230  0.2061
  369MOL0     H50854   5.161   7.013   6.322  1.7822 -0.6317 -0.6268
  369MOL0     H50855   5.370   7.002   6.276  0.0559 -0.5929 -0.0331
  369MOL0     H50856   5.414   6.911   6.133  3.0021  1.0267  0.3343
  369MOL0     H50857   5.535   6.932   6.411  2.4951  0.4490  0.4438
  369MOL0     H50858   5.570   6.780   6.323 -1.3039  0.0809  3.6905
  369MOL0     H50859   5.676   6.935   6.134 -0.7420  1.5270 -0.9255
  369MOL0     H50860   5.627   7.063   6.225 -1.1590 -0.3217 -3.4773
  369MOL0     H50861   5.762   6.978   6.426  1.8774  2.1549  0.8325
  369MOL0     H50862   5.797   6.834   6.337 -2.3609 -0.1026  0.7657
  369MOL0     H50863   5.901   7.111   6.236  0.3999 -0.4979 -2.2498
  369MOL0     H50864   5.960   6.950   6.197 -2.9944 -1.5805  1.1640
  369MOL0     H50865   6.003   7.053   6.479 -0.0362 -0.5721  0.4380
  369MOL0     H50866   6.065   6.911   6.402  0.0013  0.4706  1.8344
  369MOL0     H50867   6.174   7.179   6.307  2.6279 -0.6422 -1.1162
  369MOL0     H50868   6.204   7.021   6.249  1.1521  1.3317  0.5579
  369MOL0     H50869   6.259   7.126   6.532 -0.8102 -0.3845 -0.0271
  369MOL0     H50870   6.270   6.958   6.480  1.2470  0.3010  0.6200
  369MOL0     H50871   6.420   6.937   6.241 -1.7919  1.6155 -1.4097
  369MOL0     H50872   6.705   6.967   6.176 -1.1210 -0.0068 -1.1914
  369MOL0     H50873   6.789   7.123   6.203  2.2972 -1.0124 -2.2974
  369MOL0     H50874   6.709   7.111   5.943 -0.7136  1.1685 -0.2286
  369MOL0     H50875   6.556   7.084   6.008 -0.6028  1.6278 -1.1085
  369MOL0     H50876   6.586   7.314   6.131 -1.0332  1.0507 -0.8710
  369MOL0     H50877   6.710   7.321   5.995  1.1699 -2.4790  1.5315
  369MOL0     H50878   6.416   7.261   5.979  1.9870 -2.5342  3.5631
  369MOL0     H50879   6.507   7.415   5.946  0.9020 -0.1948 -2.1530
  369MOL0     H50880   6.578   7.144   5.596 -0.8716 -1.6153 -1.1426
  369MOL0     H50881   6.491   6.981   5.463  1.1593 -0.4132 -2.3663
  369MOL0     H50882   6.509   7.106   5.346 -0.8950 -0.2387 -0.7160
  369MOL0     H50883   6.361   6.998   5.354  0.5691 -1.8017  0.7114
  369MOL0     H50884   6.104   7.328   5.149 -0.2867  2.1222 -0.0892
  369MOL0     H50885   5.907   7.328   4.966  2.5208 -2.5395 -0.6055
  369MOL0     H50886   5.745   7.206   4.900  1.4974  2.6131  0.5638
  369MOL0     H50887   5.574   7.178   4.954  0.6861  0.0106  1.8281
  369MOL0     H50888   5.505   7.388   4.834  2.8014  2.9488  1.3576
  369MOL0     H50889   5.655   7.389   4.747  0.1279  0.0242 -0.0961
  369MOL0     H50890   5.451   7.163   4.754  1.9266 -1.4029  2.1798
  369MOL0     H50891   5.610   7.147   4.677 -1.8162 -2.5740 -0.2417
  369MOL0     H50892   5.559   7.334   4.536 -0.5249 -0.7186  1.9409
  369MOL0     H50893   5.395   7.354   4.601 -0.1343  0.4273  1.4383
  369MOL0     H50894   5.380   7.233   4.395 -1.2421 -1.5175 -1.1565
  369MOL0     H50895   5.515   7.124   4.421 -1.1600 -1.9208  0.7921
  369MOL0     H50896   5.366   6.998   4.591 -2.8911 -1.0061  1.8780
  369MOL0     H50897   5.310   7.001   4.433  1.6300 -0.1412  0.3208
  369MOL0     H50898   5.160   7.208   4.505 -3.4705 -0.4323  2.3382
  369MOL0     H50899   5.220   7.180   4.673 -2.6405 -2.2771  1.5345
  369MOL0     H50900   5.158   6.953   4.677  0.7542  0.2214 -1.2182
  369MOL0     H50901   5.085   6.954   4.521  1.0721 -2.0631  2.3341
  369MOL0     H50902   5.637   7.338   5.295  0.1757 -0.3927  1.7154
  369MOL0     H50903   5.815   7.327   5.459 -1.7863 -2.4313 -0.4451
  369MOL0     H50904   6.127   7.344   5.622  0.4770  1.6137 -0.9808
  369MOL0     H50905   6.294   7.387   5.790 -0.8921 -0.6541 -0.0889
  369MOL0     H50906   5.171   6.604   6.181 -1.3669 -1.2982 -0.2777
  369MOL0     H50907   4.917   6.598   6.198  0.4024 -0.8481  1.4070
  369MOL0     H50908   4.536   6.960   6.281 -0.6930  1.0957 -0.9708
  369MOL0     H50909   4.319   6.963   6.373 -1.7339 -0.0813 -0.8182
  369MOL0     H50910   4.161   6.937   6.485 -1.1783  0.6916 -0.6512
  369MOL0     H50911   4.058   6.928   6.353 -1.6232  1.5201 -0.0855
  369MOL0     H50912   3.928   6.938   6.574 -1.1890  0.7325 -2.4448
  369MOL0     H50913   3.997   6.787   6.622  1.4778 -1.8015 -0.4290
  369MOL0     H50914   3.749   6.836   6.511  0.9068  2.6250 -1.5604
  369MOL0     H50915   3.840   6.826   6.362  0.1746  0.1710 -1.0805
  369MOL0     H50916   3.837   6.620   6.574 -0.8348  0.0012 -0.1620
  369MOL0     H50917   3.904   6.611   6.410  0.4668 -0.5840  0.3987
  369MOL0     H50918   3.492   6.574   6.317  0.9402 -0.0892  0.0991
  369MOL0     H50919   4.264   6.546   6.284 -1.0677  0.4582  1.1120
  369MOL0     H50920   4.612   6.491   6.233 -1.7077 -1.1685  3.4335
  369MOL0     H50921   4.454   6.426   6.206 -2.6805  0.9411 -2.5144
  369MOL0     H50922   4.533   6.503   6.072 -0.5651  0.4723 -0.0253
  370MOL0     O50923   2.375   7.820   9.792  0.1880 -0.4208 -0.3538
  370MOL0     C50924   2.494   7.840   9.795 -0.2833 -0.2978 -0.2845
  370MOL0     O50925   2.553   7.933   9.884  0.7379  0.2096  0.2338
  370MOL0     C50926   2.479   7.992   9.980 -0.6548 -1.2291 -0.4241
  370MOL0     C50927   2.494   8.128  10.002 -0.1885 -0.7773 -0.2589
  370MOL0     C50928   2.415   8.189  10.103  0.7044  0.3309 -0.1844
  370MOL0     C50929   2.326   8.112  10.183  0.8136  0.2241  0.6860
  370MOL0     O50930   2.272   8.171  10.296 -0.1287 -0.0875 -0.2602
  370MOL0     C50931   2.237   8.311  10.282 -0.1823  0.1023  0.5641
  370MOL0     C50932   2.143   8.337  10.382 -0.7271 -0.0629  0.0462
  370MOL0     C50933   2.184   8.411  10.510  0.8301  1.5376  0.0389
  370MOL0     C50934   2.239   8.555  10.486 -0.4234 -0.0233 -0.7930
  370MOL0     C50935   2.271   8.628  10.613 -0.4182  0.3196 -0.1810
  370MOL0     C50936   2.285   8.771  10.590 -0.5141 -0.3941 -0.4683
  370MOL0     C50937   2.303   8.858  10.723 -0.4442  0.9221 -0.2269
  370MOL0     C50938   2.292   9.010  10.689 -1.0034  0.9368 -0.3012
  370MOL0     N50939   2.356   9.077  10.805 -0.3171  0.1928  0.1837
  370MOL0     C50940   2.493   9.117  10.803 -0.0400  0.3737  0.2805
  370MOL0     C50941   2.523   9.180  10.913  0.0856 -0.5800 -0.6049
  370MOL0     C50942   2.650   9.243  10.937 -0.0446 -0.2601  0.7858
  370MOL0     C50943   2.713   9.166  11.052  0.0114 -0.1642 -0.6904
  370MOL0     C50944   2.857   9.219  11.077  1.0555 -0.6592  0.7837
  370MOL0     C50945   2.943   9.123  11.159  0.4668 -0.8359  0.1442
  370MOL0     O50946   3.073   9.165  11.157 -0.4232  0.7076 -0.2187
  370MOL0     C50947   3.168   9.090  11.234 -0.0239  0.3449  0.5436
  370MOL0     C50948   3.300   9.125  11.214  0.8217  0.4702 -1.0317
  370MOL0     C50949   3.398   9.049  11.283 -0.6467 -0.1053  0.3115
  370MOL0     C50950   3.537   9.077  11.243  0.3715 -0.0568  0.2013
  370MOL0     C50951   3.369   8.932  11.367  0.1632 -0.5806 -0.5621
  370MOL0     C50952   3.477   8.847  11.445  0.5202 -0.4951 -0.2723
  370MOL0     O50953   3.419   8.782  11.547  0.9786  0.4007  0.0911
  370MOL0     C50954   3.484   8.667  11.583  1.4049 -0.0448 -0.7088
  370MOL0     C50955   3.551   8.658  11.702 -0.4591  0.6807 -0.5034
  370MOL0     C50956   3.607   8.543  11.743 -0.1970  0.1537  0.0639
  370MOL0     C50957   3.608   8.428  11.661 -0.0557 -0.1466 -0.5332
  370MOL0     O50958   3.668   8.311  11.701  0.4557 -0.3398 -0.2895
  370MOL0     C50959   3.808   8.301  11.654  0.5933  0.3081  0.3346
  370MOL0     C50960   3.880   8.201  11.738  0.3394  0.1196  0.1057
  370MOL0     C50961   4.017   8.161  11.674 -0.4071 -0.0994  0.0751
  370MOL0     C50962   4.092   8.070  11.763 -0.2723 -0.0163  0.0108
  370MOL0     C50963   4.219   8.019  11.694 -0.9339  0.6337  0.1476
  370MOL0     C50964   4.299   7.907  11.774  0.9810 -0.4179  0.1901
  370MOL0     C50965   4.362   7.976  11.894  0.1411  0.6028 -0.3489
  370MOL0     C50966   4.454   7.882  11.967  0.4146 -0.4317  0.1045
  370MOL0    Cl50967   4.609   7.853  11.891 -0.2521 -0.0208  0.6239
  370MOL0     C50968   3.537   8.442  11.540 -0.1183 -0.0186  0.8256
  370MOL0     C50969   3.469   8.557  11.503 -0.2655 -0.8546  0.1243
  370MOL0     O50970   3.591   8.845  11.411  0.0002 -0.0145  0.0436
  370MOL0     C50971   3.232   8.915  11.393 -0.6036  0.7620 -0.0206
  370MOL0     C50972   3.132   8.987  11.325 -0.2072  0.5113  0.3372
  370MOL0     N50973   2.404   9.202  10.984 -0.0260 -0.2218  0.4371
  370MOL0     N50974   2.306   9.135  10.920 -0.4209  1.3723 -0.2561
  370MOL0     C50975   2.302   7.976  10.152 -0.4261  0.1716  0.2673
  370MOL0     C50976   2.384   7.920  10.057  0.5403 -0.2366  0.3700
  370MOL0     C50977   2.577   7.756   9.700 -0.5182  1.1977 -0.7873
  370MOL0     C50978   2.540   7.627   9.665  0.1010  1.3124  0.1460
  370MOL0     C50979   2.622   7.554   9.563  0.2936  0.1477 -0.5518
  370MOL0     C50980   2.735   7.609   9.500  0.2409  0.7835  0.2211
  370MOL0     O50981   2.810   7.558   9.394  0.0916 -0.9950  0.0058
  370MOL0     C50982   2.822   7.412   9.389  0.0237  0.7729  0.6363
  370MOL0     C50983   2.907   7.356   9.496  0.6291 -1.2233 -0.1817
  370MOL0     C50984   2.944   7.213   9.486 -0.7989 -0.0159  0.3223
  370MOL0     C50985   3.040   7.184   9.371  0.3166 -0.3945  0.6735
  370MOL0     C50986   3.135   7.084   9.411 -0.2772  0.1408  0.4911
  370MOL0     C50987   3.208   7.005   9.463 -0.8610 -0.3785  0.3761
  370MOL0     C50988   2.759   7.743   9.531  0.5535  0.3972 -0.5433
  370MOL0     C50989   2.692   7.808   9.632  0.2496  0.4092 -0.4859
  370MOL0     C50990   2.729   7.948   9.653  0.2225 -0.6623 -0.1835
  370MOL0     H50991   2.565   8.183   9.940  0.0173 -0.6497  0.0882
  370MOL0     H50992   2.425   8.296  10.115 -2.6818  0.7765 -0.3657
  370MOL0     H50993   2.196   8.324  10.182  1.6070 -1.2758 -0.4134
  370MOL0     H50994   2.329   8.370  10.289  1.3931 -1.6470 -2.8923
  370MOL0     H50995   2.066   8.402  10.341 -1.6532 -1.1926 -0.0512
  370MOL0     H50996   2.080   8.250  10.405  0.0409 -0.7220 -0.2991
  370MOL0     H50997   2.099   8.423  10.577  0.2067  2.0093 -0.8173
  370MOL0     H50998   2.264   8.355  10.559 -0.1843  0.5442  0.5963
  370MOL0     H50999   2.325   8.557  10.420  0.3770  0.8919  0.2277
  370MOL0     H51000   2.152   8.606  10.444  0.0705  1.8451  0.3179
  370MOL0     H51001   2.364   8.582  10.648 -0.9208  1.2332  2.6047
  370MOL0     H51002   2.199   8.613  10.694 -2.5383  1.3396 -1.7422
  370MOL0     H51003   2.356   8.793  10.510 -0.7456  0.1148 -0.5388
  370MOL0     H51004   2.196   8.801  10.534 -0.7950 -1.6448 -0.7281
  370MOL0     H51005   2.402   8.841  10.768 -0.2813  0.9003 -0.5841
  370MOL0     H51006   2.219   8.836  10.789 -0.8971  3.0384 -0.0282
  370MOL0     H51007   2.344   9.043  10.599  0.7888  1.6154  0.9386
  370MOL0     H51008   2.194   9.059  10.681 -1.5757 -0.2300 -0.7181
  370MOL0     H51009   2.566   9.095  10.726 -0.4449 -0.6899  0.1959
  370MOL0     H51010   2.638   9.350  10.954 -0.2344 -0.0526 -0.5860
  370MOL0     H51011   2.712   9.236  10.848 -1.5383  1.8853 -0.5085
  370MOL0     H51012   2.648   9.178  11.139 -1.2859 -2.1601 -1.3300
  370MOL0     H51013   2.715   9.061  11.024 -0.8886 -1.0035  2.0701
  370MOL0     H51014   2.908   9.241  10.983  2.1613 -0.0659  1.4988
  370MOL0     H51015   2.866   9.320  11.118  2.3033 -0.2101 -0.5303
  370MOL0     H51016   2.901   9.115  11.259 -0.9670 -0.3280 -0.3846
  370MOL0     H51017   2.934   9.025  11.111 -2.0836  0.9357 -3.5399
  370MOL0     H51018   3.326   9.201  11.140  1.7785  1.0906 -0.0820
  370MOL0     H51019   3.598   9.098  11.331  0.5000  0.9862 -0.1251
  370MOL0     H51020   3.546   9.166  11.180  0.7987 -0.9010 -0.9666
  370MOL0     H51021   3.596   8.993  11.204 -1.3209 -1.2530  0.1091
  370MOL0     H51022   3.565   8.745  11.765 -0.2313 -1.2682  2.2879
  370MOL0     H51023   3.666   8.544  11.834  2.1369 -1.2409 -1.3319
  370MOL0     H51024   3.795   8.278  11.548  1.0275  0.4527  0.2458
  370MOL0     H51025   3.862   8.396  11.658  1.9040 -0.0955 -3.7332
  370MOL0     H51026   3.874   8.246  11.838  0.8299 -0.6671  0.5020
  370MOL0     H51027   3.817   8.112  11.751 -0.4428  0.7409  0.6919
  370MOL0     H51028   4.076   8.248  11.644 -0.6714 -0.7970 -2.8037
  370MOL0     H51029   3.981   8.111  11.584 -2.6514 -0.4572  1.0952
  370MOL0     H51030   4.040   7.980  11.798  2.9858 -1.4386  1.5748
  370MOL0     H51031   4.124   8.122  11.854 -0.7767 -1.3100  0.9535
  370MOL0     H51032   4.201   7.965  11.600  0.8123  0.4140 -0.1106
  370MOL0     H51033   4.294   8.097  11.679  0.5594 -0.9966 -1.3266
  370MOL0     H51034   4.382   7.883  11.708  0.3971  2.6448 -1.8423
  370MOL0     H51035   4.227   7.828  11.798 -1.3238  1.4910 -0.0028
  370MOL0     H51036   4.277   8.000  11.959  0.2803 -0.1478  0.1182
  370MOL0     H51037   4.409   8.069  11.860 -1.4691  0.7160 -2.5219
  370MOL0     H51038   4.399   7.789  11.985  3.3438 -2.4867 -0.9500
  370MOL0     H51039   4.477   7.930  12.063  0.1099 -2.6316  1.3619
  370MOL0     H51040   3.539   8.360  11.469 -0.1047  1.6514 -1.1864
  370MOL0     H51041   3.405   8.559  11.415 -2.8879 -4.3085  1.6948
  370MOL0     H51042   3.183   8.840  11.454 -1.2598  0.4215 -0.9390
  370MOL0     H51043   3.030   8.964  11.354 -1.4066  3.4464 -1.1769
  370MOL0     H51044   2.223   7.921  10.201 -0.8205  0.0621 -0.4701
  370MOL0     H51045   2.374   7.814  10.036  2.2799  0.2677 -4.3554
  370MOL0     H51046   2.451   7.583   9.708 -0.6257  0.6331 -1.9305
  370MOL0     H51047   2.590   7.457   9.526 -3.2401  1.3105 -0.9932
  370MOL0     H51048   2.728   7.356   9.391  1.2620 -1.6434 -1.9846
  370MOL0     H51049   2.860   7.388   9.290 -0.1861 -1.0017  0.9613
  370MOL0     H51050   2.868   7.379   9.596  0.2149 -0.4073 -0.5289
  370MOL0     H51051   2.998   7.416   9.500 -0.0983 -0.0508 -0.8871
  370MOL0     H51052   2.991   7.181   9.580  0.8477  0.2225 -0.3890
  370MOL0     H51053   2.857   7.152   9.462  0.4783 -2.0205  0.5761
  370MOL0     H51054   3.087   7.280   9.348 -1.3374  0.3809  0.3583
  370MOL0     H51055   3.005   7.157   9.271  0.0992 -1.6630  1.0751
  370MOL0     H51056   3.289   6.942   9.494 -0.4271  0.8775  1.9403
  370MOL0     H51057   2.848   7.788   9.488  2.6655  0.2210  3.2005
  370MOL0     H51058   2.645   8.008   9.618 -2.8050 -0.6209  5.8416
  370MOL0     H51059   2.752   7.978   9.756 -0.4338 -0.1130 -0.1887
  370MOL0     H51060   2.818   7.981   9.599 -1.4465  1.4165 -1.8490
  371MOL0     O51061   6.948   3.777  11.327  0.6453  0.2513 -0.2006
  371MOL0     C51062   6.931   3.865  11.404  0.1792 -0.3451 -1.0395
  371MOL0     O51063   6.856   3.865  11.519  0.2088  0.2751  0.3832
  371MOL0     C51064   6.765   3.768  11.525  0.9253  0.0560 -1.2505
  371MOL0     C51065   6.807   3.637  11.554  1.0712  0.0114  0.4615
  371MOL0     C51066   6.717   3.532  11.567 -0.1719 -0.0605  0.1361
  371MOL0     C51067   6.580   3.566  11.544 -0.2833  0.4105 -0.0152
  371MOL0     O51068   6.490   3.467  11.549  0.6885  0.1458 -0.0989
  371MOL0     C51069   6.400   3.460  11.431 -0.1408  1.4109 -0.2617
  371MOL0     C51070   6.465   3.417  11.303  0.4707 -0.3227  0.2634
  371MOL0     C51071   6.362   3.416  11.186  0.8485 -0.2660 -0.3605
  371MOL0     C51072   6.381   3.524  11.074  0.6343  0.4067  0.4893
  371MOL0     C51073   6.388   3.663  11.135  0.3241 -0.3105 -0.0276
  371MOL0     C51074   6.389   3.781  11.039 -0.1045 -0.8500 -0.1677
  371MOL0     C51075   6.372   3.909  11.109  0.1013 -0.2833  0.9292
  371MOL0     C51076   6.367   4.030  11.019  0.7211 -0.2430  0.9001
  371MOL0     N51077   6.377   4.152  11.101 -0.0058  0.7633 -0.2465
  371MOL0     C51078   6.499   4.205  11.129  0.6149 -0.1698  0.3460
  371MOL0     C51079   6.471   4.318  11.192 -0.4801 -0.8586 -0.0606
  371MOL0     C51080   6.560   4.425  11.252  0.2953 -0.4689 -0.4926
  371MOL0     C51081   6.511   4.489  11.388 -0.3021 -0.8803 -0.4430
  371MOL0     C51082   6.593   4.618  11.420 -0.7853  0.8776  0.1290
  371MOL0     C51083   6.654   4.625  11.562  0.1840 -0.2501 -0.6588
  371MOL0     O51084   6.754   4.722  11.549  0.1001  0.1932  0.1890
  371MOL0     C51085   6.838   4.735  11.658 -0.8779  0.3368 -0.0135
  371MOL0     C51086   6.805   4.690  11.784 -0.0752  0.0092  0.0312
  371MOL0     C51087   6.884   4.712  11.899  0.0461  0.8972 -0.4442
  371MOL0     C51088   6.821   4.677  12.029 -0.6061  0.2516  0.4326
  371MOL0     C51089   7.005   4.778  11.891  0.2714 -0.4388  0.4630
  371MOL0     C51090   7.090   4.821  12.006 -0.0927 -0.6581 -0.1464
  371MOL0     O51091   7.096   4.754  12.126 -0.0278 -0.4264 -1.3810
  371MOL0     C51092   7.163   4.811  12.233  0.0406 -0.0058 -0.0690
  371MOL0     C51093   7.267   4.743  12.281 -0.1428  0.5000  0.3364
  371MOL0     C51094   7.341   4.791  12.389 -0.0469 -0.3558  0.6775
  371MOL0     C51095   7.294   4.902  12.471  0.1006 -0.1599  0.8108
  371MOL0     O51096   7.366   4.934  12.580 -0.0522 -0.8375 -0.8879
  371MOL0     C51097   7.330   5.048  12.650 -0.3617 -0.2967 -1.4060
  371MOL0     C51098   7.403   5.037  12.786 -0.2759 -0.2238  1.1813
  371MOL0     C51099   7.370   4.920  12.873 -0.0207 -0.0058 -0.7921
  371MOL0     C51100   7.446   4.945  13.006  0.9917  0.7521  0.6002
  371MOL0     C51101   7.447   4.812  13.096  0.7649 -0.0176  0.5737
  371MOL0     C51102   7.559   4.815  13.209  0.2319  0.2385 -0.4377
  371MOL0     C51103   7.583   4.699  13.305 -0.6335  0.5933 -0.4141
  371MOL0     C51104   7.571   4.556  13.241 -0.0579 -0.4533 -0.3820
  371MOL0    Cl51105   7.678   4.530  13.088  0.0571 -0.2503  0.3443
  371MOL0     C51106   7.180   4.978  12.416 -0.6912  0.4299 -0.4873
  371MOL0     C51107   7.118   4.937  12.295 -0.0054  0.5689 -0.6898
  371MOL0     O51108   7.145   4.926  11.985 -0.2342 -0.7987  0.0700
  371MOL0     C51109   7.037   4.818  11.762  0.1914  0.0399 -0.0919
  371MOL0     C51110   6.955   4.808  11.646 -0.0100  0.1413 -0.0819
  371MOL0     N51111   6.335   4.331  11.209 -0.6475  0.1341 -0.2297
  371MOL0     N51112   6.277   4.229  11.150 -0.4512  0.4541  0.3849
  371MOL0     C51113   6.537   3.692  11.523  0.3738 -0.3049 -0.7457
  371MOL0     C51114   6.624   3.798  11.513  0.7610 -0.4937  0.1801
  371MOL0     C51115   7.002   3.994  11.372  0.6400  0.1308  0.0561
  371MOL0     C51116   6.929   4.110  11.352  0.3968 -0.4798 -0.5144
  371MOL0     C51117   6.991   4.232  11.331  0.7665  0.6377  0.2310
  371MOL0     C51118   7.127   4.246  11.322 -0.8165 -0.6006 -0.4222
  371MOL0     O51119   7.194   4.364  11.299  0.5457  0.1210 -0.3168
  371MOL0     C51120   7.127   4.489  11.327 -0.7996  0.2088  0.2224
  371MOL0     C51121   7.229   4.599  11.344  0.4914 -0.1790 -0.3143
  371MOL0     C51122   7.313   4.575  11.466  0.1762  0.0362  0.5303
  371MOL0     C51123   7.436   4.668  11.463 -0.2805 -0.2878 -0.5295
  371MOL0     C51124   7.407   4.809  11.456  0.7415  0.1351  0.1500
  371MOL0     C51125   7.378   4.927  11.444 -0.0111  0.0146  0.0484
  371MOL0     C51126   7.200   4.135  11.334 -0.5100 -0.0419 -0.4126
  371MOL0     C51127   7.141   4.002  11.360 -0.9650 -0.2349  0.2999
  371MOL0     C51128   7.221   3.883  11.377 -0.5265 -0.0723 -0.1129
  371MOL0     H51129   6.913   3.619  11.564  1.3821  2.3988  2.6558
  371MOL0     H51130   6.745   3.431  11.594 -0.5253 -0.5349 -1.1946
  371MOL0     H51131   6.337   3.549  11.423 -1.3004  0.7060  0.6495
  371MOL0     H51132   6.328   3.380  11.451  2.7407 -1.5639 -0.9799
  371MOL0     H51133   6.548   3.483  11.277  1.4289 -1.6785 -0.1964
  371MOL0     H51134   6.511   3.318  11.313 -1.7753 -1.7861 -2.4613
  371MOL0     H51135   6.369   3.320  11.134  0.1139 -0.2730 -0.4486
  371MOL0     H51136   6.262   3.426  11.229  0.4672 -0.1184 -1.2581
  371MOL0     H51137   6.469   3.496  11.016  1.9117 -0.9497  2.9340
  371MOL0     H51138   6.294   3.524  11.009  1.5241 -2.8376 -0.9118
  371MOL0     H51139   6.476   3.666  11.200 -1.0613 -0.8064  1.9780
  371MOL0     H51140   6.304   3.676  11.204  1.3546  2.6920  0.8040
  371MOL0     H51141   6.489   3.779  10.993 -0.4765 -2.1612 -0.9766
  371MOL0     H51142   6.315   3.774  10.959  0.6841  0.2823 -1.0415
  371MOL0     H51143   6.470   3.918  11.157  1.0929 -1.5837 -0.7172
  371MOL0     H51144   6.301   3.918  11.191  1.0891  2.1603  1.5980
  371MOL0     H51145   6.449   4.032  10.947  0.9589  1.2432  1.1731
  371MOL0     H51146   6.268   4.020  10.973  1.0974 -0.3784  0.1025
  371MOL0     H51147   6.601   4.175  11.108  0.6345  0.9538 -1.3737
  371MOL0     H51148   6.566   4.503  11.176  0.1893  1.4398  1.3588
  371MOL0     H51149   6.662   4.390  11.271  1.1530  1.9214 -0.3105
  371MOL0     H51150   6.403   4.499  11.399 -0.1983 -0.2205  0.0607
  371MOL0     H51151   6.539   4.424  11.472 -2.2173 -1.7475 -0.4278
  371MOL0     H51152   6.679   4.628  11.353 -0.6005 -1.1104 -0.0015
  371MOL0     H51153   6.522   4.700  11.411 -1.9194 -0.1617 -0.6425
  371MOL0     H51154   6.573   4.648  11.631  0.7441 -2.6396  0.9401
  371MOL0     H51155   6.691   4.529  11.600 -1.2722 -0.2234  0.9513
  371MOL0     H51156   6.708   4.645  11.800 -1.0565  2.3667  1.3107
  371MOL0     H51157   6.891   4.641  12.105 -1.0254 -0.5398  0.4451
  371MOL0     H51158   6.755   4.591  12.014  2.1193 -1.5583 -2.3472
  371MOL0     H51159   6.768   4.766  12.064  0.8147  1.0798  0.5742
  371MOL0     H51160   7.305   4.659  12.224  1.1712  0.1451  1.6757
  371MOL0     H51161   7.420   4.729  12.430 -2.6610 -4.3610  0.2222
  371MOL0     H51162   7.351   5.143  12.601 -0.0470  2.1569  2.9504
  371MOL0     H51163   7.223   5.056  12.671 -0.4514 -0.9904 -1.5476
  371MOL0     H51164   7.507   5.026  12.755 -1.4422  1.9446 -5.0210
  371MOL0     H51165   7.398   5.127  12.847  1.7871 -1.0825  2.7424
  371MOL0     H51166   7.422   4.844  12.814  0.1938  0.7372 -1.5784
  371MOL0     H51167   7.262   4.904  12.883 -0.0176 -0.0095 -0.7658
  371MOL0     H51168   7.405   5.024  13.069  1.7451  1.0906  0.6790
  371MOL0     H51169   7.550   4.967  12.979  2.2641 -2.3330  2.4422
  371MOL0     H51170   7.348   4.791  13.138 -1.1974 -0.4637 -3.7171
  371MOL0     H51171   7.462   4.730  13.025  0.7962 -0.0262  0.5902
  371MOL0     H51172   7.527   4.897  13.275  2.0923 -0.5192  1.5317
  371MOL0     H51173   7.656   4.846  13.170  1.4060 -0.3549  1.8706
  371MOL0     H51174   7.506   4.699  13.382 -0.8985  1.6392 -0.6593
  371MOL0     H51175   7.684   4.704  13.345  0.4488 -0.0776 -2.8473
  371MOL0     H51176   7.466   4.530  13.230 -1.2853  3.4686  0.3047
  371MOL0     H51177   7.608   4.490  13.320 -0.5391  2.4900  2.4990
  371MOL0     H51178   7.144   5.067  12.468 -1.6479  0.9361 -1.9309
  371MOL0     H51179   7.026   4.983  12.262 -0.4203  1.6056  1.7444
  371MOL0     H51180   7.133   4.867  11.750 -0.4969  1.7218  0.8794
  371MOL0     H51181   6.998   4.854  11.558  3.1205  0.8856  1.7154
  371MOL0     H51182   6.431   3.707  11.510  0.4795  1.0533 -0.1618
  371MOL0     H51183   6.592   3.900  11.493  0.1838 -0.3213  1.8580
  371MOL0     H51184   6.821   4.104  11.358  0.3979 -0.6638 -0.6698
  371MOL0     H51185   6.925   4.315  11.311 -2.1735 -1.6734 -0.3561
  371MOL0     H51186   7.061   4.502  11.241 -0.4027  2.8928  0.2586
  371MOL0     H51187   7.063   4.484  11.416 -0.0375 -0.9599  0.7261
  371MOL0     H51188   7.170   4.691  11.359  1.8196  0.9927 -1.9310
  371MOL0     H51189   7.290   4.617  11.255  0.3852  1.0309 -0.1581
  371MOL0     H51190   7.252   4.582  11.557 -2.3332 -6.1902 -0.1739
  371MOL0     H51191   7.355   4.474  11.460  3.8505  1.5092 -2.0390
  371MOL0     H51192   7.509   4.635  11.389  1.6327  0.7402  0.8124
  371MOL0     H51193   7.500   4.649  11.549 -1.7682 -0.6181  0.5537
  371MOL0     H51194   7.369   5.033  11.445  1.8252  0.2409  2.3702
  371MOL0     H51195   7.308   4.144  11.338 -0.6469  3.2361 -1.0562
  371MOL0     H51196   7.169   3.808  11.439 -0.0680 -0.4335 -0.1650
  371MOL0     H51197   7.238   3.832  11.282 -3.5401  0.4048 -1.0285
  371MOL0     H51198   7.322   3.912  11.404  0.5063 -1.2861 -2.3958
  372MOL0     O51199   6.273  11.486  10.939 -0.2835 -0.2469  0.2444
  372MOL0     C51200   6.224  11.544  10.841  0.4235 -0.4033  0.1353
  372MOL0     O51201   6.101  11.602  10.842 -0.6009 -0.7281  0.5416
  372MOL0     C51202   6.031  11.629  10.955 -0.4750  0.1329 -0.8016
  372MOL0     C51203   5.997  11.521  11.044  0.1047  0.5968 -0.0258
  372MOL0     C51204   5.921  11.546  11.162 -1.1834 -0.1351  0.8851
  372MOL0     C51205   5.889  11.681  11.194 -0.1942 -0.0351 -0.5847
  372MOL0     O51206   5.818  11.715  11.307 -0.5043 -0.9499 -0.0274
  372MOL0     C51207   5.873  11.653  11.425  0.4183  0.2118 -0.7940
  372MOL0     C51208   5.836  11.740  11.540 -0.0122 -0.8760  0.5593
  372MOL0     C51209   5.866  11.682  11.680 -0.3557  0.9086 -0.4551
  372MOL0     C51210   5.762  11.716  11.789  0.5525  0.1943  0.0875
  372MOL0     C51211   5.796  11.660  11.939  0.1285  0.2097  0.4898
  372MOL0     C51212   5.702  11.719  12.049  1.3493  0.0184  0.5429
  372MOL0     C51213   5.738  11.654  12.194  0.0461  0.0897 -0.5246
  372MOL0     C51214   5.870  11.715  12.243 -0.4472 -0.8699 -0.1032
  372MOL0     N51215   5.947  11.630  12.334  0.2848  0.3848  0.4659
  372MOL0     C51216   5.940  11.627  12.468 -0.5107 -0.0436  0.4152
  372MOL0     C51217   6.022  11.524  12.509 -0.6286 -0.0996 -0.3713
  372MOL0     C51218   6.040  11.462  12.643  0.4127  0.3380  0.8590
  372MOL0     C51219   6.106  11.557  12.741  0.4824 -0.2191 -0.1378
  372MOL0     C51220   6.238  11.606  12.682  0.3028 -0.2536  1.3386
  372MOL0     C51221   6.344  11.497  12.630 -0.3804 -0.8809  0.6927
  372MOL0     O51222   6.373  11.401  12.728  0.1519  0.8148 -0.0873
  372MOL0     C51223   6.490  11.323  12.722 -0.4022  0.4212 -0.0094
  372MOL0     C51224   6.552  11.259  12.839 -0.2559 -0.6620  0.8317
  372MOL0     C51225   6.683  11.216  12.834  0.2854 -0.0497 -0.0535
  372MOL0     C51226   6.740  11.177  12.966  0.8194  0.0456 -1.4430
  372MOL0     C51227   6.747  11.200  12.708  0.2640 -0.2771  0.5074
  372MOL0     C51228   6.873  11.130  12.676  0.2208  0.3592  0.4612
  372MOL0     O51229   6.942  11.163  12.562  0.0085  0.0770 -0.0522
  372MOL0     C51230   7.039  11.077  12.519 -0.3970  0.3793  0.6711
  372MOL0     C51231   7.022  11.003  12.395  0.4141 -0.0502  1.2424
  372MOL0     C51232   7.120  10.936  12.326 -0.6178 -0.8145  0.4593
  372MOL0     C51233   7.249  10.934  12.383  0.2823 -0.1009  0.1209
  372MOL0     O51234   7.351  10.877  12.314 -0.0232  0.3904  0.0866
  372MOL0     C51235   7.486  10.875  12.366  0.6093 -0.8643  0.1539
  372MOL0     C51236   7.571  10.778  12.285  0.6102  1.0515 -0.1282
  372MOL0     C51237   7.498  10.643  12.269 -1.1049 -0.5229  0.5632
  372MOL0     C51238   7.601  10.534  12.270 -0.0560  0.4370  0.0190
  372MOL0     C51239   7.533  10.396  12.232  0.4045 -0.1890  0.3190
  372MOL0     C51240   7.627  10.284  12.226  0.8308  0.1496 -0.1764
  372MOL0     C51241   7.587  10.166  12.134  1.1852  0.4093 -0.4269
  372MOL0     C51242   7.460  10.093  12.187  0.0377  0.4667  0.2263
  372MOL0    Cl51243   7.511  10.002  12.333 -0.6300 -0.4390 -0.1268
  372MOL0     C51244   7.270  11.007  12.508 -0.0310  0.1356 -0.0524
  372MOL0     C51245   7.170  11.079  12.572 -0.4469  0.0259  0.5494
  372MOL0     O51246   6.910  11.042  12.755 -0.6477 -0.0332  0.8216
  372MOL0     C51247   6.678  11.255  12.595 -0.2270 -0.2809  0.5318
  372MOL0     C51248   6.557  11.315  12.604 -0.3406  0.0987  0.1465
  372MOL0     N51249   6.080  11.467  12.399  0.3053  0.1905 -0.2037
  372MOL0     N51250   6.033  11.536  12.293  0.3683  0.0344  0.1107
  372MOL0     C51251   5.916  11.782  11.103 -0.1514  0.3746 -0.3742
  372MOL0     C51252   5.990  11.758  10.992  0.1287  0.7027  0.3894
  372MOL0     C51253   6.299  11.556  10.722 -0.4050 -0.4351  0.2612
  372MOL0     C51254   6.252  11.504  10.603 -0.6975  0.3648  0.6219
  372MOL0     C51255   6.335  11.508  10.485  1.3362 -1.0197 -0.3898
  372MOL0     C51256   6.448  11.585  10.487 -0.1649 -0.1874  0.2152
  372MOL0     O51257   6.529  11.613  10.380 -0.5433  0.3196 -0.5759
  372MOL0     C51258   6.514  11.737  10.312 -0.4371 -0.7277  0.1235
  372MOL0     C51259   6.421  11.731  10.194  1.1320  0.0827 -0.1844
  372MOL0     C51260   6.483  11.696  10.066 -0.0029  0.5233 -0.1848
  372MOL0     C51261   6.539  11.555  10.067 -0.1088  0.0155  0.0162
  372MOL0     C51262   6.620  11.524   9.953  0.9383 -0.6611 -0.1530
  372MOL0     C51263   6.685  11.495   9.860  0.4337 -0.5282 -0.7953
  372MOL0     C51264   6.488  11.636  10.604 -0.9568  0.3893  0.8570
  372MOL0     C51265   6.431  11.615  10.723  0.7334  0.0106 -0.3450
  372MOL0     C51266   6.478  11.678  10.851  0.2522 -0.7432  0.6591
  372MOL0     H51267   6.030  11.418  11.032  0.5324  0.9127 -1.7360
  372MOL0     H51268   5.903  11.464  11.231  0.5033 -0.3902  1.0598
  372MOL0     H51269   5.980  11.634  11.416  0.5104 -1.1168  2.0420
  372MOL0     H51270   5.824  11.555  11.430  2.3815 -0.7548  0.5305
  372MOL0     H51271   5.894  11.832  11.527  0.4516 -1.2774 -0.2870
  372MOL0     H51272   5.730  11.764  11.525  0.2215 -0.6500 -0.8563
  372MOL0     H51273   5.866  11.572  11.676  0.7891  0.8099  1.1062
  372MOL0     H51274   5.956  11.720  11.729  0.1105  0.0728 -0.6392
  372MOL0     H51275   5.748  11.823  11.802  0.6472 -0.1106  3.7662
  372MOL0     H51276   5.671  11.659  11.767  2.6911 -3.4906  0.0217
  372MOL0     H51277   5.895  11.702  11.956 -0.3159  1.0094  1.1793
  372MOL0     H51278   5.791  11.551  11.935  0.7356  0.2075 -0.5182
  372MOL0     H51279   5.711  11.828  12.049 -1.5771  0.4027 -1.7875
  372MOL0     H51280   5.600  11.687  12.026  1.1761  1.6302 -1.2220
  372MOL0     H51281   5.743  11.547  12.175 -0.0490 -0.0667  0.2860
  372MOL0     H51282   5.659  11.678  12.267  0.5120 -2.4585  0.9375
  372MOL0     H51283   5.939  11.743  12.164  2.7799  0.7608  3.0367
  372MOL0     H51284   5.848  11.812  12.288  0.0538 -0.4257 -0.8078
  372MOL0     H51285   5.861  11.675  12.526  0.9171  2.5535  0.3513
  372MOL0     H51286   6.104  11.374  12.635  2.8369  1.7699  2.6655
  372MOL0     H51287   5.940  11.428  12.669 -0.1287  0.1500 -1.3252
  372MOL0     H51288   6.054  11.650  12.766 -0.6157 -0.9563  0.4376
  372MOL0     H51289   6.130  11.510  12.837 -0.0361  0.3168  0.2621
  372MOL0     H51290   6.217  11.664  12.592  2.1388 -0.4498  0.7435
  372MOL0     H51291   6.284  11.679  12.748 -0.4611 -0.8703  2.5872
  372MOL0     H51292   6.311  11.460  12.532  1.1252 -1.1812  0.2806
  372MOL0     H51293   6.427  11.558  12.593  0.0668 -2.1457 -0.4434
  372MOL0     H51294   6.498  11.267  12.932  0.0254 -2.5595  1.1986
  372MOL0     H51295   6.765  11.262  13.031  1.0462 -1.7441  0.9746
  372MOL0     H51296   6.824  11.110  12.947 -1.7191 -2.8055 -3.4737
  372MOL0     H51297   6.675  11.112  13.025  3.2352 -1.4886 -0.3041
  372MOL0     H51298   6.920  11.004  12.357  0.5355 -2.2740  0.7600
  372MOL0     H51299   7.115  10.892  12.227  2.3022 -5.1115  1.9405
  372MOL0     H51300   7.534  10.973  12.350  0.6630 -0.6702  1.4123
  372MOL0     H51301   7.493  10.853  12.473 -1.3250 -2.2153  0.0508
  372MOL0     H51302   7.601  10.827  12.192  0.5580  1.5056  0.0917
  372MOL0     H51303   7.668  10.763  12.332 -0.1512  0.5026  1.3040
  372MOL0     H51304   7.444  10.643  12.173  4.0191  1.6543 -2.7656
  372MOL0     H51305   7.422  10.619  12.343 -1.2999 -0.0136  0.5336
  372MOL0     H51306   7.655  10.528  12.365  1.6487 -2.1832 -1.0167
  372MOL0     H51307   7.669  10.559  12.189 -1.0873 -0.3192 -1.1132
  372MOL0     H51308   7.450  10.365  12.296  1.8780 -1.4502  1.6977
  372MOL0     H51309   7.491  10.419  12.134  2.0198 -0.1030 -0.3817
  372MOL0     H51310   7.641  10.241  12.326 -0.5822 -0.7052 -0.3296
  372MOL0     H51311   7.719  10.324  12.181 -0.8107  0.2988 -3.6660
  372MOL0     H51312   7.663  10.088  12.132  0.2721 -0.5155  0.2216
  372MOL0     H51313   7.569  10.194  12.029 -0.7174  2.2557  0.3166
  372MOL0     H51314   7.436  10.013  12.116 -1.7062  0.6457  0.5597
  372MOL0     H51315   7.372  10.152  12.214 -0.8932 -0.9308  0.3537
  372MOL0     H51316   7.367  11.010  12.558 -0.3666 -0.7581  0.6896
  372MOL0     H51317   7.186  11.133  12.665  1.2257 -1.4484  1.1894
  372MOL0     H51318   6.721  11.234  12.498  0.1503 -2.0354  1.0387
  372MOL0     H51319   6.516  11.360  12.514  4.4871  0.5353 -2.1101
  372MOL0     H51320   5.891  11.885  11.127  0.5515  0.1766  1.3218
  372MOL0     H51321   6.003  11.828  10.910 -1.0235  0.3035 -0.1520
  372MOL0     H51322   6.166  11.438  10.614 -0.1728  0.0636  3.5053
  372MOL0     H51323   6.305  11.452  10.397  2.4323  1.1022 -2.2303
  372MOL0     H51324   6.476  11.809  10.385 -0.7493 -2.2224  1.4972
  372MOL0     H51325   6.614  11.767  10.279 -1.0218  1.7615  0.4055
  372MOL0     H51326   6.384  11.834  10.192  3.9927  1.2346  0.8406
  372MOL0     H51327   6.331  11.673  10.218  1.2425 -0.6789 -1.5350
  372MOL0     H51328   6.407  11.695   9.988  0.7662 -0.0220 -0.9352
  372MOL0     H51329   6.570  11.759  10.045  0.6413 -0.5799 -0.8750
  372MOL0     H51330   6.457  11.482  10.075  2.0763 -2.4262  2.5763
  372MOL0     H51331   6.609  11.529  10.147  2.3253 -0.8960 -2.2609
  372MOL0     H51332   6.748  11.462   9.779  1.3017 -1.1765  0.1282
  372MOL0     H51333   6.584  11.684  10.615  0.5042 -2.5059  1.7002
  372MOL0     H51334   6.521  11.604  10.919 -0.9739 -1.3647  0.7947
  372MOL0     H51335   6.547  11.761  10.831  0.0994 -0.5696  0.8522
  372MOL0     H51336   6.400  11.736  10.901  1.5093 -0.6942  2.6552
  373MOL0     O51337   0.842   0.886  10.936  0.6176 -0.2371 -0.4312
  373MOL0     C51338   0.807   0.768  10.924  0.5831  0.3887  0.4557
  373MOL0     O51339   0.853   0.672  10.833  0.1052 -0.2350 -0.9103
  373MOL0     C51340   0.951   0.707  10.740 -0.3894  0.5784 -0.3787
  373MOL0     C51341   1.063   0.782  10.758 -0.5499 -0.0411 -0.3157
  373MOL0     C51342   1.157   0.812  10.649 -0.3163  0.6525 -0.3912
  373MOL0     C51343   1.151   0.735  10.534 -0.1122  0.6688 -0.2988
  373MOL0     O51344   1.221   0.749  10.416  0.6895 -0.6799 -0.0524
  373MOL0     C51345   1.322   0.850  10.403  1.3654  0.1694  0.2411
  373MOL0     C51346   1.399   0.813  10.274 -0.5365 -0.0249  0.4952
  373MOL0     C51347   1.316   0.843  10.148  0.2926  0.9339  0.4770
  373MOL0     C51348   1.331   0.727  10.054  0.0522  0.1450  0.6664
  373MOL0     C51349   1.213   0.736   9.955  0.6495  0.2824  0.3470
  373MOL0     C51350   1.227   0.614   9.860 -0.7665  0.1223 -0.5594
  373MOL0     C51351   1.110   0.625   9.761  0.3254 -0.0612 -1.2062
  373MOL0     C51352   1.136   0.521   9.659 -0.5095 -0.1235 -0.4031
  373MOL0     N51353   1.127   0.386   9.711 -0.0129 -0.2839 -0.1391
  373MOL0     C51354   1.029   0.332   9.796 -0.1891 -0.7302 -0.2023
  373MOL0     C51355   1.062   0.204   9.814  1.0750 -0.3268  0.8444
  373MOL0     C51356   0.994   0.107   9.908 -0.5450 -0.1115  0.0652
  373MOL0     C51357   0.892   0.012   9.845  1.2929  0.2304  0.2835
  373MOL0     C51358   0.770   0.094   9.793  0.0097 -0.6557 -0.6615
  373MOL0     C51359   0.671   0.025   9.704  0.1833 -0.1443 -0.7390
  373MOL0     O51360   0.723  -0.010   9.573  0.4479  0.6459  0.6995
  373MOL0     C51361   0.634  -0.033   9.469  0.4752  0.1606 -0.7368
  373MOL0     C51362   0.698  -0.034   9.348  0.0774  0.1836  0.4471
  373MOL0     C51363   0.630  -0.037   9.222  1.2098  0.6025 -0.6537
  373MOL0     C51364   0.711  -0.048   9.091 -1.4716 -0.3804 -0.3910
  373MOL0     C51365   0.484  -0.054   9.225 -0.1690 -0.4300  0.0668
  373MOL0     C51366   0.400  -0.076   9.103  0.1403  0.0636  0.2696
  373MOL0     O51367   0.456  -0.124   8.984 -0.3897  1.1054 -1.3730
  373MOL0     C51368   0.403  -0.102   8.859 -0.0745 -0.8430  0.0393
  373MOL0     C51369   0.378  -0.201   8.775 -0.0647  0.3005  0.3223
  373MOL0     C51370   0.322  -0.184   8.659 -0.5341  0.4889  0.1330
  373MOL0     C51371   0.301  -0.051   8.613  0.7881  0.0869  0.3725
  373MOL0     O51372   0.239  -0.031   8.483  0.5521 -0.5820 -0.5069
  373MOL0     C51373   0.095  -0.025   8.508 -0.8670  0.0364  0.2402
  373MOL0     C51374   0.013  -0.003   8.384  0.6532  1.3988  0.6471
  373MOL0     C51375  -0.129   0.039   8.412  1.0612  0.4505 -0.8361
  373MOL0     C51376  -0.200   0.114   8.295 -0.0393 -0.7842  1.5118
  373MOL0     C51377  -0.322   0.196   8.344  0.0487  0.0155  0.8322
  373MOL0     C51378  -0.350   0.310   8.243  0.3767 -0.2798  0.0727
  373MOL0     C51379  -0.412   0.243   8.115  0.9617  0.8102  0.8268
  373MOL0     C51380  -0.443   0.363   8.017 -0.4834 -0.1577 -0.2125
  373MOL0    Cl51381  -0.581   0.470   8.073  0.1886 -0.3585  0.0155
  373MOL0     C51382   0.325   0.055   8.694 -0.8350 -0.4237 -0.3320
  373MOL0     C51383   0.375   0.036   8.821 -0.4887 -0.1697 -0.5866
  373MOL0     O51384   0.278  -0.049   9.113  0.3093 -0.1164 -0.0058
  373MOL0     C51385   0.423  -0.046   9.352 -0.2287 -0.0749  0.4027
  373MOL0     C51386   0.497  -0.033   9.471 -0.7185  0.5159 -0.1475
  373MOL0     N51387   1.184   0.179   9.741  0.8199  0.0454 -0.0803
  373MOL0     N51388   1.209   0.282   9.679  0.1701  0.1040 -0.0176
  373MOL0     C51389   1.048   0.640  10.521  0.7070  0.0784 -0.3945
  373MOL0     C51390   0.949   0.618  10.625  1.0409  0.2676 -0.5003
  373MOL0     C51391   0.708   0.725  11.020  0.4738  0.2057 -0.0435
  373MOL0     C51392   0.591   0.683  10.968 -0.0186  0.0803 -0.3768
  373MOL0     C51393   0.479   0.653  11.046  0.0904 -0.1568  0.3780
  373MOL0     C51394   0.489   0.668  11.184  0.5221  0.0562 -0.1146
  373MOL0     O51395   0.373   0.640  11.251  0.2375  0.9496 -0.0204
  373MOL0     C51396   0.356   0.638  11.394 -0.5357 -0.4335  0.9643
  373MOL0     C51397   0.217   0.589  11.421  0.7139  1.0293 -0.3914
  373MOL0     C51398   0.180   0.446  11.357  0.4849  0.1872  0.8909
  373MOL0     C51399   0.269   0.319  11.398  0.0331 -0.9739 -0.4388
  373MOL0     C51400   0.241   0.299  11.541 -0.5972 -0.2648 -0.4833
  373MOL0     C51401   0.201   0.300  11.656  0.6356  0.2912 -0.6181
  373MOL0     C51402   0.616   0.697  11.239 -0.3201  0.3135  0.0512
  373MOL0     C51403   0.724   0.731  11.158 -1.1538 -0.6483 -0.8473
  373MOL0     C51404   0.856   0.756  11.231 -0.3528 -0.2841 -0.3031
  373MOL0     H51405   1.060   0.845  10.846  1.9545 -1.6761  1.0341
  373MOL0     H51406   1.236   0.886  10.650 -1.2198  1.7845 -3.0035
  373MOL0     H51407   1.390   0.869  10.487  2.2334 -1.3472 -0.0902
  373MOL0     H51408   1.268   0.942  10.378  0.7919 -0.5506 -1.2585
  373MOL0     H51409   1.491   0.871  10.263 -0.0798 -0.1635  2.9940
  373MOL0     H51410   1.431   0.710  10.289  0.0280 -0.0552 -0.7997
  373MOL0     H51411   1.209   0.852  10.167 -0.2808 -2.4249 -0.4823
  373MOL0     H51412   1.353   0.930  10.094 -0.5157  2.6013  2.4560
  373MOL0     H51413   1.431   0.735  10.009  0.6084 -0.6805  1.7010
  373MOL0     H51414   1.321   0.640  10.120 -0.0276 -2.5299 -2.6343
  373MOL0     H51415   1.225   0.831   9.902  3.5900  0.5523  1.2928
  373MOL0     H51416   1.120   0.725  10.011  0.0737 -1.2242 -0.8379
  373MOL0     H51417   1.326   0.620   9.814  0.3909 -0.0404  1.7800
  373MOL0     H51418   1.224   0.520   9.915 -1.6606  0.3581 -0.1773
  373MOL0     H51419   1.107   0.725   9.717 -0.1717 -0.0727 -1.2140
  373MOL0     H51420   1.013   0.598   9.805  1.8313 -1.6946  1.3478
  373MOL0     H51421   1.063   0.527   9.578 -0.2468  1.9382 -0.5367
  373MOL0     H51422   1.236   0.531   9.617  0.2795  0.1580  1.4708
  373MOL0     H51423   0.950   0.378   9.855 -0.8614  0.2081 -1.7515
  373MOL0     H51424   0.943   0.168   9.984 -0.5945  1.3103 -1.0611
  373MOL0     H51425   1.075   0.052   9.956 -1.5848 -1.8189 -0.0540
  373MOL0     H51426   0.934  -0.056   9.770  1.0670  0.9142 -0.4808
  373MOL0     H51427   0.849  -0.042   9.930 -1.1941 -0.1620 -1.1204
  373MOL0     H51428   0.707   0.138   9.870 -1.1103 -4.9746  1.1921
  373MOL0     H51429   0.819   0.161   9.722 -0.6049  1.9813  1.2461
  373MOL0     H51430   0.642  -0.066   9.757  0.2186  0.9790  1.3074
  373MOL0     H51431   0.584   0.090   9.694  1.1356  0.8810 -2.9629
  373MOL0     H51432   0.806  -0.031   9.344  0.0287  2.6834 -1.5268
  373MOL0     H51433   0.812  -0.011   9.111 -0.6636 -2.2482 -0.8595
  373MOL0     H51434   0.668   0.016   9.014  0.7898  0.1867 -1.2611
  373MOL0     H51435   0.704  -0.150   9.054 -0.1250 -0.6141 -0.0673
  373MOL0     H51436   0.393  -0.306   8.799  3.1314  0.6678  0.4565
  373MOL0     H51437   0.305  -0.264   8.587 -0.4574 -0.0874  0.7460
  373MOL0     H51438   0.066  -0.123   8.548  1.4379 -0.3717  1.0729
  373MOL0     H51439   0.072   0.046   8.588  1.5717 -0.6391  1.6707
  373MOL0     H51440   0.062   0.087   8.347  3.1744  0.5452  1.6914
  373MOL0     H51441   0.010  -0.093   8.322 -2.1346  1.2133  0.9296
  373MOL0     H51442  -0.130   0.111   8.494 -2.9035  1.7747 -1.8483
  373MOL0     H51443  -0.191  -0.048   8.436  1.1860  0.1792 -1.4704
  373MOL0     H51444  -0.225   0.032   8.228  2.1572  0.0216 -0.4467
  373MOL0     H51445  -0.126   0.179   8.246 -2.0078  1.3630  1.1899
  373MOL0     H51446  -0.408   0.129   8.344 -1.8458  2.3527  0.7861
  373MOL0     H51447  -0.298   0.238   8.442 -1.1835  0.7839  0.8150
  373MOL0     H51448  -0.253   0.357   8.221  0.9837 -1.0835  0.9675
  373MOL0     H51449  -0.415   0.388   8.282  2.1590  2.6499 -2.3492
  373MOL0     H51450  -0.497   0.177   8.131  0.1536  0.9466 -2.3893
  373MOL0     H51451  -0.340   0.176   8.069 -0.0441  2.4049 -3.4895
  373MOL0     H51452  -0.463   0.309   7.924  1.8314  0.2064 -1.0046
  373MOL0     H51453  -0.355   0.428   8.024 -1.0247  0.4305  1.9219
  373MOL0     H51454   0.302   0.159   8.670 -0.5769 -0.4576 -0.7345
  373MOL0     H51455   0.414   0.115   8.884  0.3226  1.5335 -3.0332
  373MOL0     H51456   0.316  -0.034   9.368 -1.2144  0.5310 -4.9952
  373MOL0     H51457   0.434  -0.025   9.559 -0.5009 -0.3974  0.1091
  373MOL0     H51458   1.056   0.583  10.429 -2.0333  0.1619 -0.7651
  373MOL0     H51459   0.869   0.545  10.613  0.8532  0.2517  0.7327
  373MOL0     H51460   0.580   0.691  10.860 -0.8385  1.7878 -0.1994
  373MOL0     H51461   0.388   0.622  10.995  1.0817 -2.3074 -0.1748
  373MOL0     H51462   0.432   0.589  11.455 -0.9074 -0.5582  1.3328
  373MOL0     H51463   0.349   0.741  11.429 -1.1746 -0.9120  2.3365
  373MOL0     H51464   0.142   0.668  11.408 -0.2595  0.0240 -1.0751
  373MOL0     H51465   0.223   0.567  11.528  1.8185 -3.4686 -1.1996
  373MOL0     H51466   0.073   0.437  11.377  0.4348 -1.7674 -0.0236
  373MOL0     H51467   0.187   0.457  11.249 -0.4371 -1.5800  0.6145
  373MOL0     H51468   0.375   0.338  11.380  0.4752  1.1326  3.3933
  373MOL0     H51469   0.237   0.229  11.344 -1.5198  0.0772 -1.3745
  373MOL0     H51470   0.168   0.276  11.755  0.6772  2.0080 -0.1573
  373MOL0     H51471   0.619   0.707  11.347  2.0226  1.8062 -0.0850
  373MOL0     H51472   0.832   0.786  11.334  1.5243  2.5821 -0.5604
  373MOL0     H51473   0.928   0.674  11.237  0.4913  0.5164  2.8660
  373MOL0     H51474   0.900   0.845  11.185  0.9782 -0.1631  1.1034
  374MOL0     O51475   3.687   4.627   2.921 -0.0705 -0.4333  0.3256
  374MOL0     C51476   3.580   4.571   2.902  0.6067  0.5138  0.7954
  374MOL0     O51477   3.494   4.592   2.803  0.8331  0.0710 -0.2820
  374MOL0     C51478   3.541   4.619   2.682 -0.0959 -0.2182  0.2490
  374MOL0     C51479   3.512   4.542   2.574  0.1460  0.0385 -0.0586
  374MOL0     C51480   3.565   4.578   2.450 -0.7571  0.9731  0.0159
  374MOL0     C51481   3.644   4.690   2.432  0.1283  0.1631 -1.1580
  374MOL0     O51482   3.711   4.713   2.317 -0.4102  0.5432 -0.3068
  374MOL0     C51483   3.773   4.605   2.242 -0.0692  0.3789 -0.9368
  374MOL0     C51484   3.913   4.644   2.210  0.6187 -0.6817  0.1816
  374MOL0     C51485   3.911   4.735   2.075 -1.1905  0.2455  0.1322
  374MOL0     C51486   4.036   4.815   2.049  0.0910  0.4894  0.3457
  374MOL0     C51487   4.158   4.721   2.039 -0.7881  0.1003  0.2051
  374MOL0     C51488   4.300   4.792   2.022  0.3378  0.3724  0.0773
  374MOL0     C51489   4.307   4.865   1.887  0.5406 -0.2736 -1.1365
  374MOL0     C51490   4.272   5.010   1.909  0.5537 -0.4903  0.0528
  374MOL0     N51491   4.396   5.091   1.929  0.5325  0.3627 -0.2957
  374MOL0     C51492   4.509   5.087   1.859 -0.1893  0.0274  0.5340
  374MOL0     C51493   4.588   5.185   1.915  0.9659  0.2999  0.0534
  374MOL0     C51494   4.729   5.211   1.873  0.0340  0.8435 -0.1451
  374MOL0     C51495   4.736   5.310   1.762  0.5406  0.2792 -0.8915
  374MOL0     C51496   4.873   5.375   1.740  0.3023 -0.1145  0.1276
  374MOL0     C51497   4.979   5.264   1.716  0.4976 -1.1941  0.5575
  374MOL0     O51498   5.020   5.211   1.847  0.6927 -0.4654  0.6082
  374MOL0     C51499   5.126   5.130   1.860 -1.3093  0.7544 -0.9750
  374MOL0     C51500   5.177   5.103   1.991  0.7283  0.2027  0.2272
  374MOL0     C51501   5.294   5.022   2.012  0.3956 -0.2261 -0.4668
  374MOL0     C51502   5.344   5.032   2.151  1.0663  0.5993  0.1501
  374MOL0     C51503   5.348   4.952   1.901  0.4397  0.8451 -0.4008
  374MOL0     C51504   5.454   4.847   1.911  0.2433  1.2470  0.4291
  374MOL0     O51505   5.461   4.755   1.811 -0.3945 -0.0718 -0.5251
  374MOL0     C51506   5.555   4.654   1.828 -0.0979  0.1979  0.2042
  374MOL0     C51507   5.694   4.681   1.849  1.2660  0.5676  0.6202
  374MOL0     C51508   5.792   4.574   1.862  0.2315  0.0192  0.2662
  374MOL0     C51509   5.754   4.444   1.850  0.9304 -0.1110  0.5494
  374MOL0     O51510   5.832   4.328   1.872 -0.1818 -0.2687 -0.7759
  374MOL0     C51511   5.977   4.344   1.864 -0.7723 -0.7502 -0.3181
  374MOL0     C51512   6.036   4.339   1.719 -0.6415  0.3134  1.2307
  374MOL0     C51513   6.165   4.419   1.708  0.2104 -0.4062 -0.2004
  374MOL0     C51514   6.213   4.395   1.555  0.3522 -0.7380 -1.0342
  374MOL0     C51515   6.320   4.506   1.531  0.3952  0.6314 -0.3688
  374MOL0     C51516   6.405   4.476   1.403  0.4516 -0.2976 -0.3370
  374MOL0     C51517   6.325   4.515   1.287 -0.4498  0.6651 -0.4979
  374MOL0     C51518   6.405   4.510   1.160 -0.0528  0.2267  0.3955
  374MOL0    Cl51519   6.526   4.642   1.165 -0.3347  0.1779  0.3977
  374MOL0     C51520   5.619   4.415   1.835  1.0149 -0.0354 -0.1848
  374MOL0     C51521   5.527   4.516   1.819 -0.7857  0.1114 -0.3697
  374MOL0     O51522   5.528   4.855   2.013  0.1704  0.5840  0.8335
  374MOL0     C51523   5.290   4.970   1.773 -0.3906  0.3910  1.4642
  374MOL0     C51524   5.191   5.059   1.760  1.4939 -0.1902  0.3844
  374MOL0     N51525   4.519   5.260   2.012  0.1846 -0.0881 -0.8701
  374MOL0     N51526   4.397   5.206   2.009 -0.2591  0.0314 -0.3578
  374MOL0     C51527   3.659   4.775   2.539 -0.0492  0.3295 -0.1465
  374MOL0     C51528   3.613   4.745   2.662  0.2969 -0.0112 -0.3903
  374MOL0     C51529   3.524   4.480   3.005 -0.3014  0.3982 -0.4193
  374MOL0     C51530   3.386   4.474   3.026 -0.2633 -0.2324  0.2289
  374MOL0     C51531   3.327   4.386   3.114  0.5461 -0.4839  0.0676
  374MOL0     C51532   3.404   4.301   3.202  0.0685 -0.6426 -0.5436
  374MOL0     O51533   3.350   4.221   3.295  0.2655 -0.1638  0.3058
  374MOL0     C51534   3.208   4.230   3.333 -0.3933  1.1079  0.4766
  374MOL0     C51535   3.170   4.357   3.411  0.0230  0.8810 -0.2726
  374MOL0     C51536   3.231   4.364   3.562  0.1194  0.2337  0.7634
  374MOL0     C51537   3.187   4.477   3.643 -0.0009 -0.1187 -0.0836
  374MOL0     C51538   3.040   4.509   3.624  0.5376  0.5805 -0.0870
  374MOL0     C51539   2.924   4.535   3.601 -0.1895 -0.2341 -1.1783
  374MOL0     C51540   3.542   4.311   3.182  0.5982 -0.4437 -0.0834
  374MOL0     C51541   3.605   4.398   3.085  0.1662  0.1335 -0.7084
  374MOL0     C51542   3.759   4.383   3.082 -0.0140 -0.2937 -1.1612
  374MOL0     H51543   3.459   4.448   2.589  3.3691 -1.8342  0.5655
  374MOL0     H51544   3.551   4.528   2.355  1.2399  2.0000 -0.8648
  374MOL0     H51545   3.723   4.581   2.147 -1.1248 -0.6696 -0.1664
  374MOL0     H51546   3.768   4.513   2.303 -1.6853 -0.0666 -1.6628
  374MOL0     H51547   3.945   4.702   2.297 -1.6894 -0.8193  1.2018
  374MOL0     H51548   3.984   4.562   2.194  1.9471  0.4775 -0.1089
  374MOL0     H51549   3.893   4.681   1.981  2.9017 -0.7645 -0.2479
  374MOL0     H51550   3.837   4.815   2.084  0.1314  1.2233  4.1835
  374MOL0     H51551   4.030   4.863   1.951  1.1001  1.1939  0.6099
  374MOL0     H51552   4.044   4.897   2.121 -0.6517 -0.7278  1.8621
  374MOL0     H51553   4.139   4.649   1.959 -2.6304  2.4145 -1.6104
  374MOL0     H51554   4.166   4.660   2.129  0.0971 -1.7765 -1.0916
  374MOL0     H51555   4.313   4.859   2.108  2.8311 -0.5035  0.4563
  374MOL0     H51556   4.381   4.719   2.027 -0.7124 -0.7992  0.3384
  374MOL0     H51557   4.234   4.811   1.825  0.5879  0.2980 -1.6967
  374MOL0     H51558   4.403   4.838   1.841  1.6235  0.3344  0.6956
  374MOL0     H51559   4.230   5.045   1.814  1.6446 -0.9918 -0.6348
  374MOL0     H51560   4.198   5.031   1.987  0.8284  2.5171 -0.3790
  374MOL0     H51561   4.527   5.021   1.775  3.1036  1.3369  0.0743
  374MOL0     H51562   4.777   5.118   1.840 -0.4145  1.2183 -2.0063
  374MOL0     H51563   4.773   5.247   1.966 -0.8321 -1.1509  1.1165
  374MOL0     H51564   4.695   5.265   1.672  0.4878 -6.1054  1.8058
  374MOL0     H51565   4.671   5.392   1.795  2.0122  1.3513 -0.4993
  374MOL0     H51566   4.864   5.433   1.647  2.4190  1.3184  0.7432
  374MOL0     H51567   4.907   5.429   1.829 -0.7568 -1.1705  1.1983
  374MOL0     H51568   4.946   5.193   1.640 -0.9389  2.0823 -2.1364
  374MOL0     H51569   5.060   5.317   1.666  1.8361 -0.7643  3.0245
  374MOL0     H51570   5.128   5.152   2.074 -1.5948 -1.6497  0.0503
  374MOL0     H51571   5.436   5.091   2.156  0.6355  1.1415  2.9515
  374MOL0     H51572   5.374   4.935   2.190  2.9170  1.6510  1.5328
  374MOL0     H51573   5.280   5.078   2.226 -1.4060 -2.7932  0.3681
  374MOL0     H51574   5.741   4.778   1.839  0.9105  0.5413 -1.8417
  374MOL0     H51575   5.894   4.606   1.882  1.6589 -2.1713 -2.5941
  374MOL0     H51576   6.016   4.429   1.920 -1.8970 -0.0204 -0.5983
  374MOL0     H51577   6.018   4.259   1.919 -0.5828 -0.5471 -0.1430
  374MOL0     H51578   6.054   4.236   1.689  1.6189  0.4839  1.8124
  374MOL0     H51579   5.961   4.378   1.649  0.5865 -0.1608 -0.4162
  374MOL0     H51580   6.245   4.376   1.770  0.0661 -2.1592 -1.1820
  374MOL0     H51581   6.136   4.522   1.728  1.5140  0.2475 -1.5393
  374MOL0     H51582   6.124   4.420   1.496  0.0412 -3.4108 -1.8190
  374MOL0     H51583   6.248   4.295   1.528 -0.8275 -1.2130 -0.9108
  374MOL0     H51584   6.286   4.610   1.537 -1.9316 -0.1521  2.0839
  374MOL0     H51585   6.388   4.492   1.616 -0.3681 -3.3029 -0.1897
  374MOL0     H51586   6.439   4.373   1.394  2.0097 -0.1947  2.8100
  374MOL0     H51587   6.497   4.536   1.409  1.5100 -1.8574 -0.3429
  374MOL0     H51588   6.286   4.615   1.305 -2.6384 -0.0252 -1.1090
  374MOL0     H51589   6.240   4.446   1.287  1.6049 -2.0389 -0.8905
  374MOL0     H51590   6.331   4.518   1.080 -2.5029  2.1235  2.6711
  374MOL0     H51591   6.457   4.415   1.145  0.3817  0.3774  0.9019
  374MOL0     H51592   5.595   4.309   1.834 -1.7583  0.4248  2.5157
  374MOL0     H51593   5.426   4.497   1.784 -0.5116  1.6839 -2.1869
  374MOL0     H51594   5.340   4.928   1.687 -1.5157 -0.7541  1.3430
  374MOL0     H51595   5.170   5.085   1.657 -0.2709 -1.6932  0.3246
  374MOL0     H51596   3.716   4.865   2.520 -1.1991  0.8888 -1.0739
  374MOL0     H51597   3.630   4.800   2.754 -3.7408  0.6337  0.1578
  374MOL0     H51598   3.331   4.543   2.963  2.0103  0.7222 -0.8243
  374MOL0     H51599   3.219   4.387   3.117  0.5288 -0.4831 -0.4623
  374MOL0     H51600   3.145   4.203   3.247  1.2184 -0.8185 -0.1595
  374MOL0     H51601   3.184   4.138   3.387 -2.0837 -0.2937 -2.4021
  374MOL0     H51602   3.061   4.365   3.414 -0.1842 -1.1642 -0.9631
  374MOL0     H51603   3.200   4.448   3.360  0.1893  0.2321 -1.3645
  374MOL0     H51604   3.191   4.280   3.620  0.8565  0.1752  1.1896
  374MOL0     H51605   3.338   4.344   3.564  0.0141 -1.3886 -2.5619
  374MOL0     H51606   3.254   4.561   3.621 -1.0413  0.6395 -0.4381
  374MOL0     H51607   3.214   4.453   3.746  0.2989  0.3570 -0.0469
  374MOL0     H51608   2.823   4.571   3.589 -0.3656 -0.0773  0.5301
  374MOL0     H51609   3.609   4.250   3.242  1.0151 -0.2676 -0.3637
  374MOL0     H51610   3.805   4.457   3.148  1.2349 -1.9298 -0.1164
  374MOL0     H51611   3.794   4.282   3.104  1.0193 -0.1475 -2.0461
  374MOL0     H51612   3.794   4.405   2.981  1.2723 -0.2340 -0.7208
  375MOL0     O51613   4.693  11.459   1.341 -0.1487 -0.5633 -0.0783
  375MOL0     C51614   4.798  11.391   1.327  0.3585  0.7443  0.2326
  375MOL0     O51615   4.803  11.255   1.295  0.5083 -0.3386  0.7074
  375MOL0     C51616   4.702  11.175   1.252  1.0012  0.3950 -0.0328
  375MOL0     C51617   4.728  11.064   1.162 -0.8170  0.2476 -0.3771
  375MOL0     C51618   4.628  10.975   1.129 -0.6970 -0.1038 -0.2866
  375MOL0     C51619   4.500  10.993   1.176  0.4335  0.2380 -0.6772
  375MOL0     O51620   4.393  10.903   1.160 -0.1936 -0.2110  0.2641
  375MOL0     C51621   4.416  10.792   1.075  0.8372  0.4068 -0.6847
  375MOL0     C51622   4.405  10.811   0.922 -0.0509 -0.0656 -0.0397
  375MOL0     C51623   4.469  10.693   0.847 -0.4851 -0.0839  0.1375
  375MOL0     C51624   4.401  10.691   0.701  0.3394 -0.2563  0.1374
  375MOL0     C51625   4.461  10.566   0.640 -0.9992  0.1825  0.2643
  375MOL0     C51626   4.601  10.578   0.571  0.2764  0.6871 -0.4816
  375MOL0     C51627   4.641  10.449   0.493  0.0380 -0.4631 -0.1417
  375MOL0     C51628   4.789  10.424   0.492 -0.0385 -0.2616  0.9818
  375MOL0     N51629   4.849  10.401   0.624 -0.1904  0.0270 -0.1572
  375MOL0     C51630   4.984  10.378   0.641 -0.5247  0.7140 -0.1126
  375MOL0     C51631   5.001  10.337   0.766 -0.2519 -0.2445 -0.4146
  375MOL0     C51632   5.128  10.296   0.832 -0.9640  0.3248 -0.6204
  375MOL0     C51633   5.123  10.149   0.880 -0.4357 -0.2293  0.8931
  375MOL0     C51634   5.252  10.084   0.925  0.4317  0.4604 -0.2697
  375MOL0     C51635   5.330  10.162   1.034 -0.5115 -0.4543 -0.0117
  375MOL0     O51636   5.423  10.246   0.957  0.1677  0.3325 -0.1379
  375MOL0     C51637   5.512  10.308   1.038  0.0520  0.1006 -0.6126
  375MOL0     C51638   5.594  10.402   0.970 -0.1699 -0.2073 -0.4845
  375MOL0     C51639   5.691  10.483   1.030  0.0839  0.1973 -0.6411
  375MOL0     C51640   5.774  10.563   0.942 -0.1729 -0.4632  0.1915
  375MOL0     C51641   5.695  10.469   1.174  0.3084  0.2676 -0.5076
  375MOL0     C51642   5.782  10.540   1.255  0.3062  0.0947  0.1124
  375MOL0     O51643   5.847  10.466   1.351 -0.0886 -0.3342 -0.8385
  375MOL0     C51644   5.924  10.532   1.449 -0.1599  0.4172  0.5086
  375MOL0     C51645   5.978  10.431   1.531  0.1178  0.6146 -0.1917
  375MOL0     C51646   6.077  10.458   1.627 -0.2410  0.4356  0.8473
  375MOL0     C51647   6.110  10.593   1.636 -0.2613 -0.7093 -0.3426
  375MOL0     O51648   6.205  10.631   1.730 -0.0042 -0.3161 -0.3624
  375MOL0     C51649   6.236  10.772   1.735 -0.0645  0.3727  0.3128
  375MOL0     C51650   6.339  10.799   1.835  0.6110  0.0787 -0.1719
  375MOL0     C51651   6.320  10.945   1.897  0.7720  0.2367 -0.8741
  375MOL0     C51652   6.440  10.988   1.972  0.3258 -0.7507 -0.1406
  375MOL0     C51653   6.471  10.907   2.106  0.3662  0.6733  0.2627
  375MOL0     C51654   6.580  10.967   2.180  1.4164  0.0056  0.0685
  375MOL0     C51655   6.604  10.910   2.321 -0.1320  0.4110  0.2480
  375MOL0     C51656   6.750  10.938   2.362 -0.3924 -0.0622  0.2055
  375MOL0    Cl51657   6.786  11.114   2.401  0.5799  0.2266  0.3048
  375MOL0     C51658   6.042  10.692   1.558 -0.8902  0.0079 -0.4956
  375MOL0     C51659   5.948  10.670   1.465 -0.1881  0.0471  1.0518
  375MOL0     O51660   5.794  10.659   1.226 -0.7587 -0.3029  0.1797
  375MOL0     C51661   5.610  10.387   1.246 -0.1470  0.4864 -0.5393
  375MOL0     C51662   5.516  10.304   1.182 -0.0454 -0.2204 -0.2346
  375MOL0     N51663   4.879  10.366   0.830  0.1407 -0.2443  0.3159
  375MOL0     N51664   4.790  10.389   0.746 -0.0405 -0.4505  0.7374
  375MOL0     C51665   4.472  11.100   1.256  0.5329  0.2477 -0.1224
  375MOL0     C51666   4.570  11.192   1.300 -0.3272  0.3774  0.2080
  375MOL0     C51667   4.923  11.472   1.368 -0.2080 -0.1913 -0.7778
  375MOL0     C51668   4.907  11.593   1.437 -0.0617  0.2369 -0.0671
  375MOL0     C51669   5.002  11.671   1.503 -0.2633 -0.6256 -0.3755
  375MOL0     C51670   5.138  11.642   1.483  0.4194 -1.3127 -0.7572
  375MOL0     O51671   5.225  11.725   1.550  0.4628 -0.1260  0.6769
  375MOL0     C51672   5.365  11.715   1.531  0.5780  0.7232  0.0993
  375MOL0     C51673   5.402  11.797   1.416 -0.8516  0.0953 -0.5059
  375MOL0     C51674   5.554  11.804   1.419 -0.8526  0.1292 -0.1480
  375MOL0     C51675   5.616  11.862   1.292  0.0683 -1.0507 -0.3086
  375MOL0     C51676   5.591  11.776   1.174 -0.1819  0.1606  0.3289
  375MOL0     C51677   5.548  11.722   1.069 -0.4375 -0.0359  0.4126
  375MOL0     C51678   5.157  11.525   1.415  0.2704  0.6535 -0.3344
  375MOL0     C51679   5.062  11.436   1.361  0.1421  0.2357 -0.0461
  375MOL0     C51680   5.106  11.299   1.308 -0.3497 -0.1605 -0.1319
  375MOL0     H51681   4.825  11.043   1.118 -1.5807  0.1355 -2.0850
  375MOL0     H51682   4.653  10.903   1.052  2.0512  0.8695 -0.3997
  375MOL0     H51683   4.349  10.710   1.101  0.0935  0.1753 -3.0754
  375MOL0     H51684   4.517  10.758   1.100  1.1325  1.8259  0.1518
  375MOL0     H51685   4.302  10.835   0.895  0.3619 -0.1295 -1.8037
  375MOL0     H51686   4.460  10.902   0.897 -1.5413  1.5109  2.0452
  375MOL0     H51687   4.578  10.699   0.852 -0.5846  2.0238  0.6605
  375MOL0     H51688   4.429  10.601   0.890 -0.6411 -1.1778 -2.1807
  375MOL0     H51689   4.292  10.687   0.706  0.3611 -0.0300  0.8518
  375MOL0     H51690   4.427  10.783   0.647  1.8629 -0.1942  0.9199
  375MOL0     H51691   4.381  10.537   0.572 -0.8679  1.2948 -0.3850
  375MOL0     H51692   4.480  10.493   0.719  4.5406 -0.0482 -0.8416
  375MOL0     H51693   4.600  10.665   0.505 -1.3245  2.3645  1.5997
  375MOL0     H51694   4.682  10.606   0.640  0.9478 -3.4671  0.6940
  375MOL0     H51695   4.611  10.460   0.388 -1.8620 -1.3276  0.2803
  375MOL0     H51696   4.584  10.370   0.543 -0.9353 -0.0147 -0.5181
  375MOL0     H51697   4.808  10.335   0.431 -0.2334 -1.9236  3.2205
  375MOL0     H51698   4.828  10.517   0.450  0.4640 -0.9630 -0.1482
  375MOL0     H51699   5.055  10.376   0.559 -2.5401  2.8079 -2.0412
  375MOL0     H51700   5.123  10.357   0.923  3.4294 -1.9858  1.4643
  375MOL0     H51701   5.218  10.302   0.770 -0.7773 -1.6787 -0.6152
  375MOL0     H51702   5.036  10.140   0.946 -2.4019 -1.4775 -1.6702
  375MOL0     H51703   5.094  10.083   0.798  1.8546 -1.1008  0.7075
  375MOL0     H51704   5.223   9.988   0.968 -2.5166  1.1512 -0.4944
  375MOL0     H51705   5.326  10.077   0.845  2.4954 -0.2322  1.6147
  375MOL0     H51706   5.265  10.211   1.107 -0.0960 -1.6839  1.2269
  375MOL0     H51707   5.391  10.088   1.087  0.3780 -1.5173 -2.3836
  375MOL0     H51708   5.571  10.402   0.864  0.7233 -3.0091 -0.7768
  375MOL0     H51709   5.740  10.667   0.939 -2.6584 -1.1920  0.8693
  375MOL0     H51710   5.764  10.526   0.839 -2.7834  1.1413 -0.2335
  375MOL0     H51711   5.878  10.550   0.972 -0.5771 -3.6413  0.5371
  375MOL0     H51712   5.941  10.329   1.522 -0.1911  0.7297 -0.2392
  375MOL0     H51713   6.118  10.394   1.705  1.8908 -0.3467 -0.8202
  375MOL0     H51714   6.254  10.809   1.634 -1.9558 -2.6025 -1.2620
  375MOL0     H51715   6.144  10.826   1.758 -0.3148  0.3692 -0.6480
  375MOL0     H51716   6.317  10.724   1.911  0.0130  1.4577  1.0876
  375MOL0     H51717   6.439  10.774   1.800  0.1190 -1.7670 -0.3634
  375MOL0     H51718   6.231  10.940   1.961 -0.1853 -1.1919 -2.2392
  375MOL0     H51719   6.306  11.023   1.822  0.9112  2.3198  1.1422
  375MOL0     H51720   6.425  11.094   1.994 -2.1675 -1.1275  0.2508
  375MOL0     H51721   6.531  10.971   1.913  2.1172 -4.1394  3.1390
  375MOL0     H51722   6.380  10.904   2.167  0.1436  1.8206  0.0006
  375MOL0     H51723   6.492  10.802   2.082 -4.1254 -0.1624 -1.0771
  375MOL0     H51724   6.563  11.075   2.187 -0.2297 -0.2834  1.0061
  375MOL0     H51725   6.667  10.973   2.114 -0.6702  2.6056 -2.7269
  375MOL0     H51726   6.586  10.802   2.320 -0.3946  0.4571  0.0102
  375MOL0     H51727   6.535  10.960   2.388  0.0315  1.7519 -0.5450
  375MOL0     H51728   6.825  10.909   2.288  1.3049  0.9157  1.4398
  375MOL0     H51729   6.772  10.879   2.451 -0.1654  0.3601  0.4359
  375MOL0     H51730   6.073  10.795   1.569  1.4215 -0.6464 -0.3506
  375MOL0     H51731   5.891  10.749   1.419  0.2744  0.6976  1.5769
  375MOL0     H51732   5.615  10.386   1.354 -1.5551  1.5183 -0.4497
  375MOL0     H51733   5.449  10.233   1.229  1.8160 -1.2936  0.8740
  375MOL0     H51734   4.370  11.110   1.292  0.4787  3.7884 -0.9254
  375MOL0     H51735   4.540  11.278   1.360 -0.9809  0.2548  0.0704
  375MOL0     H51736   4.807  11.632   1.455  0.0500  0.5869 -0.1956
  375MOL0     H51737   4.985  11.766   1.553  2.0397  0.9157 -2.3196
  375MOL0     H51738   5.415  11.757   1.619  1.3096  0.9322 -0.4075
  375MOL0     H51739   5.394  11.609   1.528  0.9328  0.8347 -0.6172
  375MOL0     H51740   5.373  11.903   1.424  0.7636  0.5574 -0.4341
  375MOL0     H51741   5.356  11.759   1.324 -0.8811  0.6097 -0.7104
  375MOL0     H51742   5.586  11.859   1.507 -1.4556 -2.1192  1.5774
  375MOL0     H51743   5.583  11.698   1.420  0.4400  0.4666  0.1718
  375MOL0     H51744   5.723  11.874   1.313  0.2706  2.3107 -2.5653
  375MOL0     H51745   5.573  11.961   1.276  0.9568 -0.2641  1.7526
  375MOL0     H51746   5.519  11.662   0.985  0.8273  3.8119 -3.0912
  375MOL0     H51747   5.260  11.496   1.397  1.8838  2.8602  3.8097
  375MOL0     H51748   5.103  11.232   1.395  2.5441 -1.4368 -0.9052
  375MOL0     H51749   5.042  11.263   1.227 -1.1704  3.1506 -1.1037
  375MOL0     H51750   5.205  11.295   1.262 -0.1391  1.1665  0.1698
  376MOL0     O51751   9.740   0.687   0.794 -0.4996  0.5156 -1.0986
  376MOL0     C51752   9.639   0.752   0.771 -0.2609 -0.5842  0.5581
  376MOL0     O51753   9.626   0.860   0.683  0.0039  0.3725  0.7448
  376MOL0     C51754   9.731   0.898   0.607 -1.0376 -1.0687 -0.0141
  376MOL0     C51755   9.807   0.810   0.517 -0.3078 -0.6310  1.1686
  376MOL0     C51756   9.914   0.859   0.439 -1.3990 -0.3138 -0.6742
  376MOL0     C51757   9.959   0.992   0.458  0.2707 -0.2075 -0.1734
  376MOL0     O51758  10.074   1.030   0.398 -0.1973 -0.1175 -0.0745
  376MOL0     C51759  10.041   1.119   0.293 -0.5565 -0.4005  0.0244
  376MOL0     C51760  10.176   1.161   0.232  1.3328 -0.6323 -0.2897
  376MOL0     C51761  10.249   1.270   0.318 -0.1197  0.2182  0.7083
  376MOL0     C51762  10.361   1.331   0.233 -0.6427  0.5438 -0.1443
  376MOL0     C51763  10.408   1.472   0.272  0.2233 -0.5806  0.1078
  376MOL0     C51764  10.507   1.487   0.400 -0.1799  0.1910  0.4028
  376MOL0     C51765  10.454   1.441   0.536  0.4493  0.2401 -1.0352
  376MOL0     C51766  10.551   1.469   0.658 -0.2368  0.7031  1.2472
  376MOL0     N51767  10.605   1.605   0.663 -0.3442 -0.3083  0.3323
  376MOL0     C51768  10.722   1.653   0.610 -0.1728 -0.5803  0.5120
  376MOL0     C51769  10.710   1.786   0.615 -1.6315  0.6361  0.5043
  376MOL0     C51770  10.809   1.886   0.565  0.2652  0.5393  0.3667
  376MOL0     C51771  10.890   1.831   0.444  0.2183 -0.8712  0.3778
  376MOL0     C51772  10.785   1.828   0.326  1.0722 -0.6159  0.7540
  376MOL0     C51773  10.857   1.829   0.189  1.2749  0.7624 -0.2208
  376MOL0     O51774  10.757   1.812   0.089  0.5173  0.3125  0.4345
  376MOL0     C51775  10.803   1.839  -0.038 -0.4216 -0.5041 -0.0873
  376MOL0     C51776  10.761   1.750  -0.141 -1.3184  0.1240  0.2607
  376MOL0     C51777  10.794   1.769  -0.277  1.3100 -0.4475  0.4192
  376MOL0     C51778  10.734   1.675  -0.375 -0.6129  0.3380  0.5546
  376MOL0     C51779  10.893   1.863  -0.318  0.7074  0.4462  0.3504
  376MOL0     C51780  10.935   1.874  -0.460  0.1421  0.1130  0.2738
  376MOL0     O51781  10.980   1.763  -0.532  0.3960 -0.0088 -0.8068
  376MOL0     C51782  10.977   1.781  -0.661 -0.0383 -0.7859  0.2427
  376MOL0     C51783  11.088   1.835  -0.720  0.0782 -0.3831  0.5354
  376MOL0     C51784  11.089   1.870  -0.854 -0.3163 -0.7995  0.0319
  376MOL0     C51785  10.986   1.840  -0.942  0.2289 -0.0533  0.8834
  376MOL0     O51786  11.004   1.874  -1.078 -0.3572  0.9165 -0.2326
  376MOL0     C51787  10.887   1.906  -1.154  0.5392  0.5230 -0.2323
  376MOL0     C51788  10.925   1.965  -1.288 -0.2649  0.3998  0.3535
  376MOL0     C51789  10.816   2.053  -1.351  0.5019 -1.1366  0.3870
  376MOL0     C51790  10.884   2.144  -1.458 -0.5584  0.1825 -0.0409
  376MOL0     C51791  10.781   2.241  -1.518  0.4420 -0.0557  0.1652
  376MOL0     C51792  10.820   2.297  -1.652 -0.4247 -0.4074  0.4967
  376MOL0     C51793  10.912   2.419  -1.644 -0.6432 -0.2065 -0.8531
  376MOL0     C51794  10.997   2.442  -1.767 -0.1173 -0.2479 -0.1220
  376MOL0    Cl51795  11.067   2.292  -1.821  0.2352  0.2074  0.5461
  376MOL0     C51796  10.874   1.778  -0.885  0.1903 -0.6200 -0.7739
  376MOL0     C51797  10.868   1.762  -0.745 -0.4396 -0.0476 -0.3082
  376MOL0     O51798  10.937   1.988  -0.498  0.5627 -0.2275  0.2234
  376MOL0     C51799  10.940   1.945  -0.211 -0.9430 -1.0180 -0.2434
  376MOL0     C51800  10.904   1.926  -0.078  0.5787  0.3882  0.7588
  376MOL0     N51801  10.592   1.829   0.664 -0.0067  0.8616 -1.0040
  376MOL0     N51802  10.524   1.719   0.685  0.1550  0.0764 -0.4189
  376MOL0     C51803   9.884   1.076   0.530 -0.1055  0.8309 -0.7375
  376MOL0     C51804   9.774   1.033   0.601  0.7821 -0.1718 -0.1036
  376MOL0     C51805   9.509   0.710   0.830  0.8216  0.3509 -0.0288
  376MOL0     C51806   9.513   0.594   0.909  0.0825  0.0201  0.2490
  376MOL0     C51807   9.409   0.556   0.990 -1.1364 -0.4572 -0.1445
  376MOL0     C51808   9.282   0.612   0.975 -0.2568 -0.4435  0.8558
  376MOL0     O51809   9.165   0.569   1.031 -0.4879 -0.4159 -0.5237
  376MOL0     C51810   9.132   0.438   1.053  0.7048 -0.1758 -0.3074
  376MOL0     C51811   9.142   0.342   0.937 -0.2898 -1.0824 -0.0904
  376MOL0     C51812   9.060   0.380   0.816 -0.6593 -0.1746 -0.0711
  376MOL0     C51813   9.047   0.254   0.725  0.1922  0.2947 -0.2619
  376MOL0     C51814   8.947   0.273   0.625  1.5431  0.9608 -0.3545
  376MOL0     C51815   8.853   0.293   0.544  0.3561  0.7241  0.5716
  376MOL0     C51816   9.273   0.727   0.897  0.0570  0.1138 -0.0910
  376MOL0     C51817   9.380   0.775   0.824  0.0719 -0.2339  0.0177
  376MOL0     C51818   9.354   0.898   0.732  0.2079  0.5628  0.4302
  376MOL0     H51819   9.781   0.706   0.498 -1.8020  0.2787 -2.8383
  376MOL0     H51820   9.975   0.806   0.367  0.2009  2.2156 -1.3079
  376MOL0     H51821   9.981   1.205   0.322  0.4093  0.2721  0.0945
  376MOL0     H51822   9.992   1.077   0.205 -2.3519  2.0470 -0.2182
  376MOL0     H51823  10.243   1.078   0.209  0.6122 -1.2194 -0.2885
  376MOL0     H51824  10.145   1.200   0.134  0.1707 -2.8035 -0.8428
  376MOL0     H51825  10.178   1.344   0.356 -0.1475  1.9544 -2.3794
  376MOL0     H51826  10.286   1.223   0.410 -1.5574 -0.8334  0.7763
  376MOL0     H51827  10.442   1.259   0.213 -0.1600  1.4217 -1.4320
  376MOL0     H51828  10.319   1.346   0.133 -0.3698 -0.9239 -0.5108
  376MOL0     H51829  10.315   1.524   0.299  0.8792  0.5029  0.3422
  376MOL0     H51830  10.444   1.525   0.184  1.3854  2.8219  2.4157
  376MOL0     H51831  10.596   1.431   0.374  0.7207  0.4087  2.7473
  376MOL0     H51832  10.523   1.594   0.420 -1.3690  0.3280  0.7375
  376MOL0     H51833  10.425   1.335   0.537 -3.0570  1.0605 -0.1724
  376MOL0     H51834  10.362   1.496   0.559  0.0035 -0.2588 -1.5609
  376MOL0     H51835  10.507   1.442   0.755 -0.1219  2.2292  1.7544
  376MOL0     H51836  10.636   1.403   0.642 -0.9223 -0.0064  0.3955
  376MOL0     H51837  10.809   1.600   0.573 -2.1593 -2.7762 -1.3973
  376MOL0     H51838  10.877   1.899   0.650  0.1413  0.0812  0.5372
  376MOL0     H51839  10.765   1.985   0.549  0.0456  0.4654  0.5129
  376MOL0     H51840  10.963   1.906   0.411  0.1543 -1.2100 -0.5716
  376MOL0     H51841  10.933   1.731   0.453 -1.7986 -1.7197  1.1006
  376MOL0     H51842  10.728   1.735   0.329  0.0207 -0.0725 -0.8702
  376MOL0     H51843  10.726   1.920   0.327  1.4777 -0.2905 -1.1190
  376MOL0     H51844  10.908   1.925   0.179  1.1115  0.6308 -2.8421
  376MOL0     H51845  10.930   1.748   0.184 -0.3113 -0.6768 -1.3027
  376MOL0     H51846  10.687   1.676  -0.111 -1.0010 -0.8228 -1.1607
  376MOL0     H51847  10.663   1.605  -0.331 -0.5831  0.4062  0.7089
  376MOL0     H51848  10.817   1.619  -0.419  0.0528  0.3690  1.7220
  376MOL0     H51849  10.682   1.719  -0.461 -2.1415  0.4701  1.5193
  376MOL0     H51850  11.178   1.850  -0.661  0.6501  0.2432 -0.4631
  376MOL0     H51851  11.177   1.923  -0.888 -2.6091  2.5781 -1.1528
  376MOL0     H51852  10.821   1.820  -1.160  0.1002  0.5690  2.4689
  376MOL0     H51853  10.840   1.986  -1.096 -1.3907  0.0680 -1.1011
  376MOL0     H51854  11.017   2.025  -1.279  0.1001  0.1336 -1.1699
  376MOL0     H51855  10.945   1.883  -1.358  2.6823 -0.4094  1.9578
  376MOL0     H51856  10.773   2.118  -1.274  1.5996 -1.5631  1.3982
  376MOL0     H51857  10.734   1.994  -1.394  1.5884 -2.2219 -0.2689
  376MOL0     H51858  10.921   2.069  -1.528  0.2903  1.1765 -0.6775
  376MOL0     H51859  10.968   2.204  -1.421 -1.3197  2.6356 -2.0440
  376MOL0     H51860  10.697   2.174  -1.540  1.2466 -1.9699  2.4460
  376MOL0     H51861  10.748   2.328  -1.460  0.3966 -0.5749  0.9340
  376MOL0     H51862  10.727   2.335  -1.696  0.2437 -0.6380 -1.1732
  376MOL0     H51863  10.853   2.213  -1.713 -2.7703 -0.3526 -0.9414
  376MOL0     H51864  10.973   2.414  -1.553 -1.6366  3.8537  0.2355
  376MOL0     H51865  10.849   2.507  -1.628  1.1985  0.6587  2.8666
  376MOL0     H51866  11.072   2.521  -1.768 -0.5800  0.2762  1.6829
  376MOL0     H51867  10.924   2.483  -1.837 -2.0353 -0.9472  1.3608
  376MOL0     H51868  10.803   1.735  -0.956  0.8518  1.2899 -2.6881
  376MOL0     H51869  10.773   1.726  -0.708 -2.2895  2.0173 -2.6333
  376MOL0     H51870  11.009   2.028  -0.228  0.2741 -1.9625 -0.0482
  376MOL0     H51871  10.957   1.992  -0.010  0.8705  2.8461 -1.7090
  376MOL0     H51872   9.917   1.179   0.534  1.1680  0.3896  1.2874
  376MOL0     H51873   9.728   1.109   0.663 -0.5740 -0.2300 -0.9828
  376MOL0     H51874   9.610   0.547   0.922  1.3244  1.9326 -1.4922
  376MOL0     H51875   9.418   0.461   1.043 -1.5625 -1.1132 -1.2120
  376MOL0     H51876   9.197   0.401   1.134 -0.1066 -0.2786  0.3114
  376MOL0     H51877   9.026   0.432   1.079 -0.3728  2.2553 -3.6059
  376MOL0     H51878   9.122   0.245   0.982 -0.5970 -1.6433 -1.3984
  376MOL0     H51879   9.247   0.331   0.907  0.3967 -1.4464  2.2114
  376MOL0     H51880   8.964   0.407   0.862  1.1053  0.2820  3.7209
  376MOL0     H51881   9.111   0.460   0.762  2.6877 -0.8179  1.8950
  376MOL0     H51882   9.006   0.175   0.789  1.1972 -1.5320 -1.7573
  376MOL0     H51883   9.147   0.226   0.689  1.7069  0.2905  3.4938
  376MOL0     H51884   8.770   0.300   0.477  0.1181  0.2815  0.8201
  376MOL0     H51885   9.175   0.773   0.886 -1.3105 -2.2458  1.3034
  376MOL0     H51886   9.341   0.870   0.627  0.9994  3.0733 -0.4048
  376MOL0     H51887   9.259   0.937   0.768  1.1878  2.1520  1.4020
  376MOL0     H51888   9.427   0.980   0.734  1.4049 -0.2538 -2.9947
  377MOL0     O51889   7.126   4.048  10.505 -0.2418  0.0514  0.4087
  377MOL0     C51890   7.122   3.988  10.401  0.8941 -0.9583  0.2985
  377MOL0     O51891   7.230   3.956  10.331  0.6228  0.1407  0.4921
  377MOL0     C51892   7.352   4.009  10.348 -0.3281 -0.0303 -0.8241
  377MOL0     C51893   7.457   3.926  10.345 -0.1519 -0.3250  0.6737
  377MOL0     C51894   7.590   3.969  10.376  0.0974  0.0521  0.4372
  377MOL0     C51895   7.620   4.104  10.407  0.6922 -0.5859  0.3296
  377MOL0     O51896   7.750   4.145  10.417 -0.4078 -0.1183 -0.2111
  377MOL0     C51897   7.767   4.283  10.470 -0.2766 -0.6838  0.1545
  377MOL0     C51898   7.907   4.302  10.523  0.0817 -0.0732  0.4654
  377MOL0     C51899   8.019   4.302  10.417 -0.4763  0.1298  0.4425
  377MOL0     C51900   8.054   4.442  10.367  0.0571  0.4451  0.0775
  377MOL0     C51901   8.162   4.502  10.462 -0.4112  0.0198  0.7775
  377MOL0     C51902   8.306   4.460  10.435  0.1060 -0.3655 -0.1707
  377MOL0     C51903   8.390   4.519  10.552  0.5566 -0.2961  0.2622
  377MOL0     C51904   8.539   4.462  10.549 -0.5715 -0.2679  0.2061
  377MOL0     N51905   8.622   4.498  10.668 -0.7323  0.4973  0.0065
  377MOL0     C51906   8.709   4.602  10.671 -0.2215  0.6667  0.2080
  377MOL0     C51907   8.776   4.603  10.785 -0.9405 -1.1011  1.3599
  377MOL0     C51908   8.892   4.695  10.838  0.8070  0.5878 -0.6365
  377MOL0     C51909   8.999   4.718  10.733 -0.5499  0.3343 -0.5730
  377MOL0     C51910   9.117   4.799  10.783  0.1645 -0.0641  0.1927
  377MOL0     C51911   9.221   4.827  10.665  0.2518 -0.6115  0.7297
  377MOL0     O51912   9.259   4.707  10.588  0.6680  0.3759  0.1087
  377MOL0     C51913   9.337   4.712  10.475  0.3791 -0.2959  0.1947
  377MOL0     C51914   9.368   4.832  10.397 -0.7986 -0.8980 -0.5917
  377MOL0     C51915   9.460   4.825  10.291  0.1802 -0.4528 -1.0325
  377MOL0     C51916   9.468   4.959  10.210 -0.7043  0.9221 -0.1190
  377MOL0     C51917   9.520   4.700  10.251  0.1554 -0.4254  0.0456
  377MOL0     C51918   9.597   4.674  10.130 -0.1802 -0.3517 -0.0333
  377MOL0     O51919   9.683   4.776  10.081  0.0653 -0.3353 -0.2573
  377MOL0     C51920   9.751   4.758   9.967  0.2593 -0.4654 -0.3511
  377MOL0     C51921   9.894   4.754   9.960  0.3561  0.4256  1.1467
  377MOL0     C51922   9.964   4.738   9.838  0.6100  0.2968  0.2395
  377MOL0     C51923   9.899   4.731   9.714 -0.4884  0.7788 -0.9484
  377MOL0     O51924   9.961   4.727   9.594 -0.8497  1.1015  0.7731
  377MOL0     C51925  10.099   4.709   9.582  0.5165 -0.5025  0.0953
  377MOL0     C51926  10.147   4.689   9.433 -0.2412 -0.0983  0.4245
  377MOL0     C51927  10.298   4.674   9.420 -0.1766 -0.8728 -0.0640
  377MOL0     C51928  10.336   4.531   9.456  0.2191  0.7263  0.0240
  377MOL0     C51929  10.484   4.517   9.446 -0.4060  0.6023  0.1785
  377MOL0     C51930  10.525   4.371   9.503 -0.3937 -0.6368  0.1347
  377MOL0     C51931  10.671   4.339   9.471 -0.3568 -0.1520 -0.0399
  377MOL0     C51932  10.711   4.197   9.518 -0.2126  0.1995  0.1348
  377MOL0    Cl51933  10.893   4.210   9.480  0.0205 -0.1105 -0.1591
  377MOL0     C51934   9.758   4.751   9.726  0.0059  0.6065  1.0976
  377MOL0     C51935   9.685   4.756   9.848  0.6198 -0.9563 -0.5006
  377MOL0     O51936   9.590   4.562  10.087 -0.0845 -0.0639  0.4903
  377MOL0     C51937   9.482   4.581  10.331  0.8417 -0.2698  0.5942
  377MOL0     C51938   9.399   4.591  10.439 -0.1854 -0.8114  0.5792
  377MOL0     N51939   8.726   4.497  10.853  0.4288  0.1783  0.1871
  377MOL0     N51940   8.644   4.425  10.782  0.3146  0.2105 -0.2745
  377MOL0     C51941   7.508   4.188  10.417 -0.2972 -0.7015  1.0987
  377MOL0     C51942   7.379   4.142  10.385 -0.2010 -0.0678 -0.7685
  377MOL0     C51943   6.988   3.966  10.331  0.5093 -0.2250  0.6034
  377MOL0     C51944   6.981   3.962  10.188 -0.3269  0.0747  0.6070
  377MOL0     C51945   6.861   3.927  10.124  0.4132  0.6639  1.4644
  377MOL0     C51946   6.754   3.884  10.192  0.6974 -0.7205 -0.5222
  377MOL0     O51947   6.641   3.848  10.124 -0.0803  0.7624  0.7965
  377MOL0     C51948   6.534   3.777  10.192  0.0529 -0.2044 -0.3695
  377MOL0     C51949   6.573   3.642  10.243 -0.3637  0.1716  0.5505
  377MOL0     C51950   6.511   3.530  10.151 -0.2539  1.1117  0.2299
  377MOL0     C51951   6.540   3.390  10.207 -0.3697 -0.5019  0.1701
  377MOL0     C51952   6.484   3.282  10.120 -0.2294 -0.4321 -0.2876
  377MOL0     C51953   6.424   3.199  10.050 -0.7411  0.0677 -1.1926
  377MOL0     C51954   6.755   3.901  10.331  0.3155  0.3454 -0.0578
  377MOL0     C51955   6.871   3.941  10.408  0.3425 -0.0795 -0.0593
  377MOL0     C51956   6.852   3.940  10.559 -0.0712 -0.0759 -0.0570
  377MOL0     H51957   7.458   3.820  10.320 -0.7500 -0.2020  0.1029
  377MOL0     H51958   7.663   3.889  10.368  2.2827  2.0995 -1.7151
  377MOL0     H51959   7.695   4.309  10.548  0.6300  2.5154  0.0784
  377MOL0     H51960   7.746   4.360  10.395  2.8688  2.3747  2.1198
  377MOL0     H51961   7.894   4.396  10.576 -0.1785 -0.6160  1.3875
  377MOL0     H51962   7.934   4.227  10.598  1.5316  1.5719  1.6513
  377MOL0     H51963   8.111   4.253  10.450 -0.5955  0.9125  2.0006
  377MOL0     H51964   7.980   4.244  10.333 -2.5176  1.2084  0.5857
  377MOL0     H51965   8.081   4.434  10.262 -0.6210 -1.2101 -0.0019
  377MOL0     H51966   7.970   4.512  10.370 -0.6398 -0.3591 -0.3209
  377MOL0     H51967   8.124   4.478  10.562 -1.0813 -1.0887  0.2812
  377MOL0     H51968   8.170   4.611  10.457  5.0430 -0.1636 -1.3159
  377MOL0     H51969   8.312   4.351  10.436  2.2874 -0.3978 -3.2253
  377MOL0     H51970   8.343   4.497  10.339  0.7256 -1.0519 -0.2017
  377MOL0     H51971   8.350   4.494  10.651 -1.8837 -0.8661 -0.7790
  377MOL0     H51972   8.395   4.628  10.548 -1.9418 -0.1597 -1.0136
  377MOL0     H51973   8.514   4.356  10.546 -2.6371  0.1941 -1.3843
  377MOL0     H51974   8.595   4.496  10.461  1.9796  0.1511  1.9059
  377MOL0     H51975   8.728   4.668  10.588  3.5177 -1.8886 -1.2286
  377MOL0     H51976   8.940   4.653  10.927  0.3544  1.6968  0.1529
  377MOL0     H51977   8.844   4.789  10.865 -1.3160  0.0059 -2.1124
  377MOL0     H51978   9.036   4.622  10.697  0.7980  0.3923  0.5567
  377MOL0     H51979   8.951   4.762  10.645 -3.0856  0.4986  0.8020
  377MOL0     H51980   9.096   4.901  10.819  1.5293  0.0668  0.6978
  377MOL0     H51981   9.151   4.739  10.868 -0.6971 -1.6669 -0.5522
  377MOL0     H51982   9.169   4.897  10.599  0.2910 -1.1968  0.0640
  377MOL0     H51983   9.313   4.859  10.716  0.7735 -0.4434 -0.2798
  377MOL0     H51984   9.321   4.927  10.420 -1.1281 -1.5065  1.4306
  377MOL0     H51985   9.421   5.042  10.264 -0.1786  0.5297  0.9815
  377MOL0     H51986   9.424   4.944  10.111 -0.4555 -1.3973  0.0776
  377MOL0     H51987   9.573   4.990  10.198 -0.0220  0.5338  3.5440
  377MOL0     H51988   9.947   4.770  10.053  1.6523  0.4024  0.4405
  377MOL0     H51989  10.072   4.747   9.834  0.6186 -0.1878 -1.2309
  377MOL0     H51990  10.149   4.798   9.620 -0.3694  0.0980 -0.1262
  377MOL0     H51991  10.132   4.625   9.644 -1.4988 -3.4305 -2.4881
  377MOL0     H51992  10.099   4.609   9.376  3.5839 -1.7375 -0.7894
  377MOL0     H51993  10.106   4.777   9.382 -0.7497 -0.5846 -0.0304
  377MOL0     H51994  10.357   4.743   9.481  1.1739 -3.7301  2.0938
  377MOL0     H51995  10.316   4.694   9.314 -0.3259  1.6655  0.3316
  377MOL0     H51996  10.287   4.456   9.394 -1.0941  0.9557  0.7612
  377MOL0     H51997  10.317   4.516   9.562  1.6879 -1.4999  0.0419
  377MOL0     H51998  10.513   4.525   9.341 -0.0778  0.2489  0.2421
  377MOL0     H51999  10.545   4.586   9.506  0.0467  1.4675 -1.2412
  377MOL0     H52000  10.453   4.301   9.460  0.4706 -0.6562 -1.3492
  377MOL0     H52001  10.512   4.363   9.611  2.8783 -0.4335  0.6383
  377MOL0     H52002  10.734   4.408   9.528 -2.6978  0.7089  1.6506
  377MOL0     H52003  10.686   4.343   9.363 -1.3151  1.1514 -0.1524
  377MOL0     H52004  10.673   4.116   9.456 -0.1889  1.1690 -1.1809
  377MOL0     H52005  10.679   4.195   9.623 -0.5105  2.1368  0.1257
  377MOL0     H52006   9.702   4.753   9.634 -1.3637  0.9162  1.9021
  377MOL0     H52007   9.581   4.786   9.840  0.1630 -1.5769  2.1873
  377MOL0     H52008   9.555   4.503  10.312 -1.0326 -1.7005 -1.0728
  377MOL0     H52009   9.374   4.491  10.473 -0.5351 -2.2930 -3.4867
  377MOL0     H52010   7.517   4.291  10.449 -2.4485  0.1800 -0.8379
  377MOL0     H52011   7.299   4.215  10.379 -0.5035 -0.4871 -2.2669
  377MOL0     H52012   7.076   3.969  10.136  0.4403 -1.4732  1.7165
  377MOL0     H52013   6.860   3.920  10.016  1.4128  3.1012  1.2317
  377MOL0     H52014   6.498   3.842  10.273  4.1354 -0.6629  2.0811
  377MOL0     H52015   6.458   3.746  10.120 -1.0407 -4.0302  2.1588
  377MOL0     H52016   6.539   3.635  10.346 -1.2464 -1.1039  0.2070
  377MOL0     H52017   6.683   3.641  10.241 -0.3077 -1.5990  1.7747
  377MOL0     H52018   6.404   3.548  10.157  0.0008  2.6348  0.6765
  377MOL0     H52019   6.540   3.532  10.045 -2.4258 -0.0082 -0.4495
  377MOL0     H52020   6.479   3.396  10.297 -3.2034 -1.4633 -1.5536
  377MOL0     H52021   6.645   3.373  10.234  0.4211  1.6705 -1.3009
  377MOL0     H52022   6.358   3.140   9.991 -1.9487 -0.8620  1.0033
  377MOL0     H52023   6.664   3.867  10.380 -0.6539 -0.7880 -2.4569
  377MOL0     H52024   6.764   3.877  10.575  1.0653 -1.3260  1.5149
  377MOL0     H52025   6.936   3.895  10.613  0.2025  1.6924  1.0923
  377MOL0     H52026   6.841   4.041  10.600 -1.2417 -0.6892  1.2123
  378MOL0     O52027   8.693   6.678   4.921 -1.2440  0.0459  0.3333
  378MOL0     C52028   8.756   6.689   5.026  0.4630  0.7431 -0.5695
  378MOL0     O52029   8.888   6.659   5.048 -0.2369 -0.3744  0.1269
  378MOL0     C52030   8.954   6.583   4.953 -0.3509  0.0771  0.0300
  378MOL0     C52031   9.008   6.647   4.840  0.0082  0.2875 -0.0432
  378MOL0     C52032   9.060   6.566   4.732  0.6954 -0.4297 -1.4010
  378MOL0     C52033   9.075   6.430   4.750 -0.4048 -0.3003 -0.4085
  378MOL0     O52034   9.139   6.370   4.643  0.2355  0.6572  0.5481
  378MOL0     C52035   9.178   6.229   4.664  0.5395  0.6091 -0.5757
  378MOL0     C52036   9.048   6.143   4.648 -0.6117  0.9550  0.1777
  378MOL0     C52037   9.020   6.101   4.501  0.0112 -0.7097  0.8813
  378MOL0     C52038   9.106   6.154   4.377  0.2582 -0.0705 -0.9744
  378MOL0     C52039   9.042   6.110   4.244 -0.0633  1.6725  0.4373
  378MOL0     C52040   9.119   6.173   4.133 -0.0415 -0.2700 -0.2440
  378MOL0     C52041   9.079   6.136   3.996 -0.9754  0.6655 -0.1371
  378MOL0     C52042   9.157   6.212   3.897 -0.1348  0.5970 -0.0193
  378MOL0     N52043   9.126   6.168   3.763  0.3025  1.3696 -0.3774
  378MOL0     C52044   9.015   6.197   3.687 -0.4471 -0.3498  0.1541
  378MOL0     C52045   9.040   6.165   3.559  0.5541 -0.1348 -0.5035
  378MOL0     C52046   8.964   6.191   3.436  0.7717 -0.9125  0.9079
  378MOL0     C52047   8.969   6.078   3.336 -0.2208 -0.2288 -0.1234
  378MOL0     C52048   8.849   6.072   3.246 -0.0095  0.5041  0.8797
  378MOL0     C52049   8.851   6.194   3.153 -0.8594 -1.1095  0.7773
  378MOL0     O52050   8.970   6.212   3.065  0.1388  0.0697 -0.3906
  378MOL0     C52051   8.950   6.317   2.972  0.6836 -0.1766 -0.6505
  378MOL0     C52052   9.056   6.342   2.896 -1.5296 -0.6567  1.1772
  378MOL0     C52053   9.072   6.453   2.813  0.9195 -0.2137  0.1373
  378MOL0     C52054   9.190   6.474   2.728 -0.1065 -0.0289  0.5594
  378MOL0     C52055   8.956   6.547   2.810 -0.9634 -0.5270  0.5361
  378MOL0     C52056   8.957   6.680   2.740  0.8856 -0.0522 -0.2805
  378MOL0     O52057   8.868   6.782   2.791 -0.0870  0.3873 -0.4177
  378MOL0     C52058   8.862   6.912   2.747 -0.2901 -0.5531 -0.1559
  378MOL0     C52059   8.904   6.956   2.622 -0.6364 -0.5057  0.5372
  378MOL0     C52060   8.881   7.087   2.587  0.3071 -0.0461 -0.1849
  378MOL0     C52061   8.826   7.180   2.676 -0.4283  0.1055 -0.4736
  378MOL0     O52062   8.807   7.310   2.642 -0.9214 -0.3641 -0.0331
  378MOL0     C52063   8.781   7.332   2.504  0.8248 -0.3019  0.3900
  378MOL0     C52064   8.737   7.479   2.495 -0.5252  0.8725 -0.1936
  378MOL0     C52065   8.851   7.579   2.541  0.0970 -0.7202 -0.0884
  378MOL0     C52066   8.778   7.712   2.575 -0.2051 -0.0325  0.4303
  378MOL0     C52067   8.871   7.828   2.599  0.5002  0.0307 -0.3970
  378MOL0     C52068   8.934   7.894   2.476  0.5251 -0.5502 -0.4791
  378MOL0     C52069   9.026   8.002   2.525 -0.3451  0.6049  0.0541
  378MOL0     C52070   9.119   8.053   2.413 -0.4947  0.6319  0.3890
  378MOL0    Cl52071   9.051   8.072   2.250 -0.5726 -0.0400 -0.0531
  378MOL0     C52072   8.780   7.142   2.793  0.2137  0.3095 -0.6569
  378MOL0     C52073   8.802   7.006   2.829  0.1283 -0.2619  0.2100
  378MOL0     O52074   9.030   6.698   2.648 -0.3545  0.2968  0.1556
  378MOL0     C52075   8.842   6.520   2.886  0.5816  0.2480 -0.6607
  378MOL0     C52076   8.843   6.405   2.963 -0.0052  0.1825 -0.4462
  378MOL0     N52077   9.155   6.092   3.555  0.3127  0.0510 -0.6244
  378MOL0     N52078   9.208   6.099   3.677 -0.3181 -0.2918 -0.7243
  378MOL0     C52079   9.034   6.373   4.870 -0.0492 -0.3963 -0.6046
  378MOL0     C52080   8.970   6.447   4.972  0.6984  0.6565  0.3901
  378MOL0     C52081   8.686   6.713   5.154  0.2906  0.0718  0.4661
  378MOL0     C52082   8.541   6.702   5.153 -0.5055 -0.5964  0.6931
  378MOL0     C52083   8.465   6.695   5.267 -0.7131  0.2363 -0.7589
  378MOL0     C52084   8.533   6.702   5.389  1.1901 -0.2895 -0.7283
  378MOL0     O52085   8.464   6.695   5.509 -0.2033 -0.1688 -0.3890
  378MOL0     C52086   8.322   6.727   5.511 -0.4407  0.2100 -0.7299
  378MOL0     C52087   8.234   6.612   5.551 -0.1229  0.0079  0.0033
  378MOL0     C52088   8.237   6.496   5.458  0.2622  0.4203 -0.3646
  378MOL0     C52089   8.129   6.392   5.496 -0.1602 -0.1671 -0.6653
  378MOL0     C52090   8.169   6.246   5.496  0.2442 -1.8550  0.9291
  378MOL0     C52091   8.202   6.137   5.529 -0.0181  0.5441  0.4557
  378MOL0     C52092   8.663   6.741   5.399 -0.2519  0.1529 -0.1203
  378MOL0     C52093   8.739   6.736   5.278  0.0526 -0.4146  0.0185
  378MOL0     C52094   8.883   6.789   5.298 -0.3525  0.4804  0.6145
  378MOL0     H52095   9.006   6.755   4.830 -0.0576  0.3964  1.0346
  378MOL0     H52096   9.104   6.599   4.639 -1.2556 -1.0490 -2.5954
  378MOL0     H52097   9.231   6.216   4.759  1.7525  0.5957 -1.2258
  378MOL0     H52098   9.256   6.198   4.593 -0.2366 -0.3757 -1.0287
  378MOL0     H52099   9.082   6.058   4.707  1.0558  3.5770  3.3659
  378MOL0     H52100   8.955   6.174   4.697 -0.6910 -3.1125  3.0953
  378MOL0     H52101   9.027   5.992   4.514 -0.2883 -0.5905  2.2461
  378MOL0     H52102   8.918   6.132   4.475 -0.2660 -2.5671 -0.4861
  378MOL0     H52103   9.116   6.263   4.379 -0.2921  0.0327 -2.5272
  378MOL0     H52104   9.207   6.114   4.391 -0.0816 -1.1144 -1.4650
  378MOL0     H52105   8.935   6.134   4.238 -0.1868  0.8304 -1.3091
  378MOL0     H52106   9.033   6.001   4.237 -0.0902  1.4769  2.7994
  378MOL0     H52107   9.098   6.280   4.139  2.5963  0.2647  0.3629
  378MOL0     H52108   9.225   6.162   4.156  0.5323  2.6544 -1.0780
  378MOL0     H52109   8.971   6.143   3.984 -1.0580  1.7134  1.0450
  378MOL0     H52110   9.110   6.031   3.991 -1.2100  0.4887  1.4253
  378MOL0     H52111   9.148   6.320   3.911  2.3851  0.7644  0.9346
  378MOL0     H52112   9.262   6.181   3.908 -1.2047 -3.5182  0.4539
  378MOL0     H52113   8.924   6.247   3.718  1.6192  1.9298  3.1059
  378MOL0     H52114   9.012   6.274   3.383  1.3561 -1.2046  0.9690
  378MOL0     H52115   8.859   6.213   3.457  0.7767  0.4553 -0.3633
  378MOL0     H52116   9.062   6.086   3.279  0.4730  0.9595  1.1156
  378MOL0     H52117   8.969   5.982   3.388 -1.8532 -0.3340 -0.2737
  378MOL0     H52118   8.856   5.985   3.180  5.7426  1.0132  0.3228
  378MOL0     H52119   8.758   6.076   3.308  0.2317  1.4698  1.1883
  378MOL0     H52120   8.764   6.185   3.086 -1.0728  1.2662  0.6604
  378MOL0     H52121   8.844   6.285   3.212 -2.5798 -0.6234 -0.0929
  378MOL0     H52122   9.147   6.282   2.901  0.9803  2.6185 -0.8900
  378MOL0     H52123   9.260   6.397   2.760 -2.4547 -1.8677  1.5657
  378MOL0     H52124   9.235   6.573   2.743 -3.5376  1.7671  0.1590
  378MOL0     H52125   9.166   6.451   2.624 -1.1011 -0.4680  0.8694
  378MOL0     H52126   8.950   6.891   2.548  0.3182  1.1456 -0.3696
  378MOL0     H52127   8.922   7.138   2.500  0.0651  2.2989  1.0034
  378MOL0     H52128   8.867   7.318   2.437 -0.2768 -0.6890 -0.9839
  378MOL0     H52129   8.693   7.275   2.475  0.8650 -1.2675  2.0609
  378MOL0     H52130   8.717   7.508   2.392 -1.6537  2.8370  0.5292
  378MOL0     H52131   8.646   7.492   2.554  1.0911 -0.2943  2.8502
  378MOL0     H52132   8.926   7.601   2.465 -0.5015 -1.1848 -0.8165
  378MOL0     H52133   8.894   7.534   2.631  0.0441 -0.7302 -0.0677
  378MOL0     H52134   8.705   7.692   2.653 -0.9342 -0.0113 -0.2396
  378MOL0     H52135   8.730   7.747   2.483  0.4480  0.1188  0.1365
  378MOL0     H52136   8.817   7.909   2.649  2.0313 -0.8633  2.9655
  378MOL0     H52137   8.946   7.797   2.672  0.3914  0.9234  0.1052
  378MOL0     H52138   8.860   7.932   2.406  0.4286 -1.2578 -0.7748
  378MOL0     H52139   8.994   7.813   2.432 -1.8497 -1.1577 -2.8417
  378MOL0     H52140   9.093   7.963   2.602 -0.0435  0.7891 -0.1114
  378MOL0     H52141   8.987   8.084   2.585 -1.3046  0.8325 -0.8527
  378MOL0     H52142   9.201   7.982   2.408 -3.0767 -2.4341 -3.0076
  378MOL0     H52143   9.162   8.150   2.442 -2.8097  1.7754  0.2265
  378MOL0     H52144   8.725   7.209   2.858 -0.5054 -0.9740  0.1026
  378MOL0     H52145   8.766   6.969   2.925  0.3781  0.3030  0.5237
  378MOL0     H52146   8.755   6.584   2.877 -0.4067 -0.9752 -0.0587
  378MOL0     H52147   8.744   6.394   3.007 -0.3856  1.1541 -1.0211
  378MOL0     H52148   9.047   6.268   4.891  2.2809 -0.5550 -2.4093
  378MOL0     H52149   8.932   6.415   5.068  0.4746  1.0933  0.4524
  378MOL0     H52150   8.492   6.691   5.057  1.1975  1.5142 -0.5237
  378MOL0     H52151   8.359   6.683   5.249 -1.1368 -0.7017  1.9006
  378MOL0     H52152   8.309   6.803   5.588 -1.8949  1.4689 -2.1321
  378MOL0     H52153   8.292   6.781   5.420 -1.0664  0.3649 -0.4377
  378MOL0     H52154   8.130   6.641   5.568 -0.7324  0.6245 -3.9416
  378MOL0     H52155   8.283   6.580   5.643  2.1986  0.0660 -1.1380
  378MOL0     H52156   8.221   6.532   5.356  1.1910  2.7527  0.2506
  378MOL0     H52157   8.340   6.459   5.470 -0.5616 -1.6669  0.7960
  378MOL0     H52158   8.047   6.395   5.423 -1.2161  2.6669  0.5015
  378MOL0     H52159   8.084   6.415   5.593 -0.0633  0.8886 -0.8613
  378MOL0     H52160   8.196   6.039   5.573 -0.5330 -0.8030 -2.3869
  378MOL0     H52161   8.711   6.750   5.496 -1.3670  0.0070  0.4680
  378MOL0     H52162   8.909   6.871   5.230 -1.9862 -0.5541 -1.3641
  378MOL0     H52163   8.895   6.812   5.404  0.3998 -2.4428  1.2612
  378MOL0     H52164   8.955   6.708   5.281 -0.8061  0.2254 -0.1411
  379MOL0     O52165  10.779   9.615   4.344  0.5837 -0.0417 -0.1134
  379MOL0     C52166  10.792   9.729   4.394 -1.1297  0.0881  0.7198
  379MOL0     O52167  10.843   9.839   4.328 -0.1402 -0.1490 -0.6074
  379MOL0     C52168  10.883   9.836   4.195 -0.4015 -0.2122  0.2298
  379MOL0     C52169  10.950   9.729   4.132 -0.8919 -0.4740  0.4580
  379MOL0     C52170  11.014   9.748   4.008 -0.2885  0.0146 -1.4260
  379MOL0     C52171  11.015   9.878   3.957 -0.5553  0.2002 -0.3579
  379MOL0     O52172  11.095   9.909   3.852 -0.2521 -0.6657  0.2277
  379MOL0     C52173  11.095   9.801   3.750  0.6826 -0.7063  0.0707
  379MOL0     C52174  11.169   9.852   3.631 -0.2896 -0.3140  0.1686
  379MOL0     C52175  11.323   9.857   3.667 -0.1327  0.1133 -0.2957
  379MOL0     C52176  11.402   9.889   3.534 -0.4745  0.3104  0.2286
  379MOL0     C52177  11.551   9.891   3.555  0.1958 -0.5383 -0.1076
  379MOL0     C52178  11.614   9.948   3.428  0.2908  0.0209  0.2828
  379MOL0     C52179  11.772   9.960   3.434 -0.7237 -0.8753 -0.6342
  379MOL0     C52180  11.836   9.998   3.301  0.3477  0.6194 -0.1007
  379MOL0     N52181  11.986  10.012   3.313  0.2260 -0.7266  0.1958
  379MOL0     C52182  12.058  10.065   3.211  0.9410  0.0932 -0.1468
  379MOL0     C52183  12.183  10.084   3.266 -0.0591 -0.0519  0.4615
  379MOL0     C52184  12.299  10.125   3.186 -0.7361 -0.3580  0.6938
  379MOL0     C52185  12.435  10.072   3.235  0.2586 -0.0518 -0.5478
  379MOL0     C52186  12.546  10.115   3.133 -0.3217 -0.1861  0.0616
  379MOL0     C52187  12.680  10.069   3.182 -0.3300 -0.0966  0.3357
  379MOL0     O52188  12.767  10.126   3.082  0.3278  0.1804 -0.1558
  379MOL0     C52189  12.899  10.089   3.087 -1.3009  0.5379 -0.3312
  379MOL0     C52190  12.967  10.015   3.193 -1.0873  0.5113  0.3447
  379MOL0     C52191  13.106   9.993   3.204 -0.0665  0.9307  0.1145
  379MOL0     C52192  13.158   9.909   3.312  1.1731 -0.5935 -0.4316
  379MOL0     C52193  13.189  10.060   3.107 -0.2823  0.4706  0.2817
  379MOL0     C52194  13.331  10.082   3.119 -0.3277  0.8703  1.2433
  379MOL0     O52195  13.401  10.093   2.990 -0.0369 -0.0141 -0.6469
  379MOL0     C52196  13.533  10.122   2.999 -1.1245  0.3132 -0.4550
  379MOL0     C52197  13.642  10.036   3.048 -1.1239 -0.0998  0.1947
  379MOL0     C52198  13.774  10.092   3.050  0.1711 -0.8624  0.4079
  379MOL0     C52199  13.800  10.225   3.009 -0.6524  0.5757 -0.8601
  379MOL0     O52200  13.939  10.257   3.016 -0.1998  0.4765 -0.0864
  379MOL0     C52201  13.978  10.388   2.981 -0.0154 -0.6049  1.6004
  379MOL0     C52202  13.954  10.471   3.109  0.6680  0.4729  0.6652
  379MOL0     C52203  13.961  10.628   3.087  0.6188  0.1229 -0.8414
  379MOL0     C52204  14.116  10.657   3.053  0.2659 -0.3728 -0.6148
  379MOL0     C52205  14.131  10.791   2.979  0.6880  0.2748 -0.0202
  379MOL0     C52206  14.272  10.801   2.923 -0.8828 -0.6461 -0.0649
  379MOL0     C52207  14.379  10.843   3.026  0.4863 -0.4175  0.3516
  379MOL0     C52208  14.513  10.867   2.957 -0.2655  1.3583  0.0119
  379MOL0    Cl52209  14.557  10.714   2.865  0.3300 -0.3071 -0.2562
  379MOL0     C52210  13.697  10.303   2.969 -0.0436 -0.6550 -0.3238
  379MOL0     C52211  13.567  10.257   2.959 -0.3359  0.6014 -0.7801
  379MOL0     O52212  13.384  10.086   3.229 -0.0927  0.4326 -0.0162
  379MOL0     C52213  13.117  10.116   2.991 -0.1649  0.0157  0.2422
  379MOL0     C52214  12.982  10.125   2.978  0.0607 -0.6464  0.0605
  379MOL0     N52215  12.187  10.035   3.402 -0.4406 -0.9907  0.0113
  379MOL0     N52216  12.066   9.998   3.425 -1.0912  0.6834  0.1164
  379MOL0     C52217  10.950   9.974   4.017  0.2315 -0.6400 -0.5647
  379MOL0     C52218  10.882   9.961   4.138 -0.3585  0.1325  0.3662
  379MOL0     C52219  10.759   9.736   4.534  0.2123  0.4712 -0.5089
  379MOL0     C52220  10.807   9.628   4.612 -0.0412 -0.8674  0.0532
  379MOL0     C52221  10.788   9.619   4.745 -0.0248  1.3613  0.6792
  379MOL0     C52222  10.721   9.727   4.812 -0.4634  0.5453 -0.8636
  379MOL0     O52223  10.693   9.721   4.953 -0.1063  0.4572  0.4632
  379MOL0     C52224  10.789   9.797   5.026 -0.2130 -0.7268 -0.0241
  379MOL0     C52225  10.926   9.734   5.036  0.0456 -0.4271  0.7597
  379MOL0     C52226  10.934   9.634   5.155  0.2792 -0.4390 -0.1857
  379MOL0     C52227  10.847   9.507   5.142  0.1111 -0.2505 -1.3663
  379MOL0     C52228  10.868   9.415   5.252 -0.1187 -0.5046  0.3109
  379MOL0     C52229  10.873   9.335   5.347  0.8530  0.5534 -0.4976
  379MOL0     C52230  10.673   9.838   4.738 -0.0894 -0.1086  0.1634
  379MOL0     C52231  10.689   9.842   4.598  0.2476  0.1775  0.7033
  379MOL0     C52232  10.637   9.956   4.517  0.0772  0.5499  1.0265
  379MOL0     H52233  10.966   9.640   4.192  0.8715 -0.4120  0.1305
  379MOL0     H52234  11.058   9.662   3.960 -0.4136  0.5517 -2.5426
  379MOL0     H52235  10.993   9.788   3.715  0.9848 -1.9634 -0.3887
  379MOL0     H52236  11.150   9.712   3.782  2.8911  0.9306  1.1727
  379MOL0     H52237  11.154   9.784   3.547  1.9250  0.6323 -1.0631
  379MOL0     H52238  11.137   9.952   3.603  1.4453 -0.0648 -1.0641
  379MOL0     H52239  11.334   9.923   3.754  0.4085 -0.8141  0.3536
  379MOL0     H52240  11.356   9.761   3.707  1.3168  0.4175 -0.6892
  379MOL0     H52241  11.378   9.801   3.472 -1.0364 -1.1408  2.3984
  379MOL0     H52242  11.359   9.982   3.497  2.1696  2.0904  1.3756
  379MOL0     H52243  11.584   9.790   3.580 -0.0106  0.0065  2.7469
  379MOL0     H52244  11.585   9.950   3.641  1.1330  0.0002 -0.8271
  379MOL0     H52245  11.578   9.879   3.351 -1.9951  1.5124 -0.0732
  379MOL0     H52246  11.562  10.041   3.402  0.2312  0.9825  3.3926
  379MOL0     H52247  11.814   9.863   3.461  0.5015 -0.6507 -1.6556
  379MOL0     H52248  11.789  10.035   3.511 -1.2513 -0.6690 -0.7123
  379MOL0     H52249  11.812   9.911   3.240 -0.8305 -0.4137  1.7247
  379MOL0     H52250  11.803  10.092   3.255  1.5635  0.0940 -2.1745
  379MOL0     H52251  12.027  10.077   3.108  0.5726  4.7764  0.2803
  379MOL0     H52252  12.303  10.234   3.194  1.0289 -0.1206 -2.0734
  379MOL0     H52253  12.276  10.087   3.086 -1.1048 -0.7953  0.9375
  379MOL0     H52254  12.462  10.119   3.330 -1.2522 -0.7415  0.2556
  379MOL0     H52255  12.427   9.966   3.257  1.8770 -1.1132 -4.2874
  379MOL0     H52256  12.534  10.065   3.037  0.9756  0.2048 -0.3320
  379MOL0     H52257  12.552  10.224   3.123  3.1629 -0.0063  2.2453
  379MOL0     H52258  12.711  10.113   3.278  0.6827 -2.8607  1.3751
  379MOL0     H52259  12.682   9.960   3.189  2.0180 -0.0554  1.0972
  379MOL0     H52260  12.915   9.970   3.277  2.4111 -1.1306  1.8729
  379MOL0     H52261  13.207   9.973   3.385 -0.7135 -0.8626  1.1504
  379MOL0     H52262  13.229   9.835   3.272 -1.4728 -2.3080 -2.3172
  379MOL0     H52263  13.076   9.860   3.364 -0.1018  0.8093 -1.0556
  379MOL0     H52264  13.637   9.932   3.077  0.9096  0.0239  1.1663
  379MOL0     H52265  13.858  10.024   3.058  1.3128  0.5662  1.0903
  379MOL0     H52266  14.085  10.380   2.963 -0.6337 -1.1594 -3.2495
  379MOL0     H52267  13.922  10.426   2.895 -1.1398  1.9627  3.3444
  379MOL0     H52268  13.853  10.452   3.145 -0.3943  2.4332 -1.0667
  379MOL0     H52269  14.026  10.441   3.186 -0.5121 -3.3679  0.4905
  379MOL0     H52270  13.918  10.678   3.175  0.4770 -0.3703 -0.6275
  379MOL0     H52271  13.904  10.666   3.002  2.1969  5.3163  0.0696
  379MOL0     H52272  14.144  10.578   2.983  1.2837  1.8252 -2.8385
  379MOL0     H52273  14.180  10.654   3.142 -1.4638  3.5242  1.0202
  379MOL0     H52274  14.064  10.789   2.893 -0.6907  3.2393  0.8728
  379MOL0     H52275  14.096  10.881   3.030 -2.1022  0.5215 -2.1128
  379MOL0     H52276  14.265  10.867   2.836  0.8617  0.4320  0.5706
  379MOL0     H52277  14.296  10.706   2.874  0.4528 -0.5170  0.3092
  379MOL0     H52278  14.396  10.766   3.102 -0.0369  0.8280  1.7886
  379MOL0     H52279  14.352  10.930   3.086 -4.0817 -1.4384  0.0884
  379MOL0     H52280  14.582  10.894   3.036  1.3361  1.8892 -1.5104
  379MOL0     H52281  14.506  10.950   2.886 -1.1286 -0.4690 -2.2128
  379MOL0     H52282  13.710  10.410   2.954 -1.9977 -0.3004  0.1378
  379MOL0     H52283  13.487  10.319   2.920 -2.4616 -1.2233  0.4522
  379MOL0     H52284  13.181  10.145   2.909  2.3835 -4.0689  0.5248
  379MOL0     H52285  12.947  10.169   2.886  0.2255 -1.0537 -0.2001
  379MOL0     H52286  10.942  10.075   3.977 -2.3875 -0.9329 -0.9266
  379MOL0     H52287  10.844  10.047   4.192  2.9811  0.7380  2.0166
  379MOL0     H52288  10.845   9.543   4.556  0.8059 -0.2635 -0.3096
  379MOL0     H52289  10.810   9.529   4.801  0.3663  0.2729 -1.1599
  379MOL0     H52290  10.799   9.899   4.987  0.8970 -0.6027  0.5358
  379MOL0     H52291  10.749   9.821   5.125  0.9676  0.2006  0.2598
  379MOL0     H52292  11.012   9.801   5.042  1.4814 -2.2430  1.6045
  379MOL0     H52293  10.952   9.686   4.941  1.4433  0.0868  0.8593
  379MOL0     H52294  11.038   9.604   5.171  0.0112 -0.8056  0.9628
  379MOL0     H52295  10.889   9.674   5.246 -0.8819 -0.7238 -0.6166
  379MOL0     H52296  10.877   9.456   5.050 -2.9421 -2.4283 -1.2708
  379MOL0     H52297  10.741   9.530   5.136  0.0405 -0.1999 -0.1014
  379MOL0     H52298  10.871   9.270   5.433  0.4899  0.4252 -0.5982
  379MOL0     H52299  10.620   9.922   4.781 -0.1322  0.2632 -0.5904
  379MOL0     H52300  10.623   9.947   4.409  0.3793  4.0569  0.5915
  379MOL0     H52301  10.533   9.976   4.546 -1.0201 -1.4570 -1.1524
  379MOL0     H52302  10.701  10.043   4.529  0.6995  0.4417 -1.0890
  380MOL0     O52303   3.162   4.718   3.155 -0.3533  0.1997  0.6902
  380MOL0     C52304   3.103   4.687   3.050 -1.2455 -0.2323 -0.1434
  380MOL0     O52305   3.120   4.754   2.922 -0.3616  0.0856 -1.0352
  380MOL0     C52306   3.228   4.835   2.895  1.1665  0.6648  0.6382
  380MOL0     C52307   3.257   4.851   2.761  0.7103  0.9973 -0.8653
  380MOL0     C52308   3.366   4.925   2.716 -0.5574 -0.0005 -0.5966
  380MOL0     C52309   3.441   4.995   2.810 -0.4050 -0.3662 -0.2351
  380MOL0     O52310   3.546   5.067   2.755 -0.2978  0.0872 -0.4194
  380MOL0     C52311   3.628   5.147   2.843 -0.4032 -0.4885 -0.5454
  380MOL0     C52312   3.740   5.191   2.754 -0.1063 -0.4353  0.8541
  380MOL0     C52313   3.853   5.263   2.821 -0.2778 -0.3766  0.6540
  380MOL0     C52314   3.800   5.409   2.843 -0.5816 -0.9143  0.3168
  380MOL0     C52315   3.901   5.499   2.921 -0.5047 -0.7914  0.2918
  380MOL0     C52316   3.854   5.645   2.932  0.4531  0.2486  0.3230
  380MOL0     C52317   3.954   5.726   3.010  0.5509 -1.3034 -0.2488
  380MOL0     C52318   3.889   5.855   3.054 -0.4025 -0.7743 -0.3802
  380MOL0     N52319   3.821   5.842   3.191 -0.2819 -0.4453  0.3658
  380MOL0     C52320   3.880   5.818   3.318 -0.5124 -0.1929  0.5251
  380MOL0     C52321   3.778   5.820   3.408 -0.5606 -0.6048  0.4542
  380MOL0     C52322   3.783   5.796   3.556  0.1657  0.0632 -0.0001
  380MOL0     C52323   3.801   5.648   3.587  0.4723  0.1593  0.3193
  380MOL0     C52324   3.668   5.580   3.575  0.2064 -1.2707  0.1905
  380MOL0     C52325   3.678   5.434   3.629  0.5708  0.1958  0.2547
  380MOL0     O52326   3.694   5.436   3.772 -0.5667  0.2182  0.0474
  380MOL0     C52327   3.583   5.445   3.845  0.4529 -0.3026 -0.4807
  380MOL0     C52328   3.607   5.417   3.977  0.5984  0.6453  0.5373
  380MOL0     C52329   3.510   5.439   4.078 -0.4183 -0.2039  0.8396
  380MOL0     C52330   3.550   5.397   4.219 -0.7401  0.1060 -0.1845
  380MOL0     C52331   3.384   5.500   4.047 -0.1353  0.2576  0.1124
  380MOL0     C52332   3.287   5.549   4.151 -0.4960 -0.2558  0.6379
  380MOL0     O52333   3.336   5.625   4.251  0.0903  0.2201  0.2143
  380MOL0     C52334   3.243   5.686   4.325  0.5511  0.4719  0.1110
  380MOL0     C52335   3.186   5.622   4.433 -0.4233 -1.0214  0.1748
  380MOL0     C52336   3.103   5.695   4.517  0.2084  0.3241  0.0652
  380MOL0     C52337   3.059   5.815   4.471 -0.1131  0.2767 -0.5313
  380MOL0     O52338   2.950   5.863   4.549 -0.1552  0.1051 -0.2228
  380MOL0     C52339   2.889   5.991   4.517 -0.3800 -0.7475  0.3188
  380MOL0     C52340   2.784   6.039   4.620  0.4037  0.3726 -0.0633
  380MOL0     C52341   2.754   6.189   4.594 -0.9739  0.6757  0.6620
  380MOL0     C52342   2.701   6.215   4.450  0.2075  0.1857 -1.0505
  380MOL0     C52343   2.609   6.336   4.443  0.0701  0.4628  0.1649
  380MOL0     C52344   2.595   6.387   4.302 -1.2229  0.2629 -0.2146
  380MOL0     C52345   2.554   6.300   4.180  0.8601 -0.4424  0.4103
  380MOL0     C52346   2.421   6.229   4.189  0.3305 -0.1592  0.3703
  380MOL0    Cl52347   2.298   6.356   4.224 -0.2309 -0.4340  0.1264
  380MOL0     C52348   3.107   5.874   4.355 -0.0154  0.4384  0.0026
  380MOL0     C52349   3.212   5.818   4.285  0.9786  0.3209  1.0600
  380MOL0     O52350   3.169   5.518   4.136 -0.3260  0.2205 -0.3158
  380MOL0     C52351   3.356   5.522   3.916  0.4558 -0.1524  0.5294
  380MOL0     C52352   3.445   5.488   3.816 -0.6146  0.1495  0.6430
  380MOL0     N52353   3.654   5.832   3.335 -0.8674  0.6228  0.5517
  380MOL0     N52354   3.688   5.847   3.209 -0.1584 -0.3565  0.3493
  380MOL0     C52355   3.400   4.992   2.943 -0.5329  1.0211 -0.7095
  380MOL0     C52356   3.293   4.911   2.981 -0.2667 -0.8661 -0.1304
  380MOL0     C52357   2.991   4.584   3.063 -1.3109 -0.7578  0.1543
  380MOL0     C52358   2.925   4.585   3.188 -0.4088 -0.0699 -0.7061
  380MOL0     C52359   2.802   4.527   3.190 -0.6863 -0.4412  0.5429
  380MOL0     C52360   2.751   4.445   3.091 -0.3812  0.1352  0.0358
  380MOL0     O52361   2.628   4.389   3.102  0.6184  0.8933  0.5053
  380MOL0     C52362   2.601   4.284   3.005  0.1879  0.6680  0.3525
  380MOL0     C52363   2.489   4.194   3.069 -1.4435  0.8808 -0.6836
  380MOL0     C52364   2.442   4.070   2.992  0.5032  0.7463 -0.4173
  380MOL0     C52365   2.287   4.079   2.962  0.7085  0.4508  0.1044
  380MOL0     C52366   2.215   4.024   3.085  1.0162 -0.6585 -1.0165
  380MOL0     C52367   2.164   3.983   3.188  0.8238 -0.0603 -0.0976
  380MOL0     C52368   2.831   4.440   2.973 -0.1580  0.3388 -0.1600
  380MOL0     C52369   2.946   4.503   2.958  0.0886 -0.4912  0.0583
  380MOL0     C52370   3.029   4.472   2.825  0.0647  0.1384 -0.3166
  380MOL0     H52371   3.198   4.791   2.691  0.3368  1.7734 -1.2304
  380MOL0     H52372   3.391   4.929   2.611  0.6459 -0.6513 -0.3535
  380MOL0     H52373   3.676   5.082   2.917 -0.7020  0.5300  0.5920
  380MOL0     H52374   3.573   5.233   2.883  0.6363  2.3889 -4.6645
  380MOL0     H52375   3.780   5.103   2.703  0.2936  0.1316  0.1581
  380MOL0     H52376   3.710   5.249   2.666  1.2704  0.1242  0.7206
  380MOL0     H52377   3.872   5.210   2.915 -0.3226 -1.0958  0.2600
  380MOL0     H52378   3.936   5.269   2.751 -1.0960  0.3119 -0.3030
  380MOL0     H52379   3.794   5.473   2.754 -0.1573 -0.2583  0.7466
  380MOL0     H52380   3.707   5.419   2.901 -1.5258 -0.1638 -1.2549
  380MOL0     H52381   3.998   5.484   2.873 -1.1002  0.3451 -1.3516
  380MOL0     H52382   3.909   5.457   3.022 -0.6114 -0.4034  0.4629
  380MOL0     H52383   3.828   5.696   2.839 -1.6223 -1.1785  0.0531
  380MOL0     H52384   3.758   5.641   2.984 -1.3479 -2.4771 -2.8221
  380MOL0     H52385   4.042   5.749   2.949 -1.3096  1.7270 -2.0499
  380MOL0     H52386   3.984   5.675   3.102  2.1126  2.5967  1.6550
  380MOL0     H52387   3.961   5.938   3.056 -1.4419  0.1811  2.7829
  380MOL0     H52388   3.810   5.883   2.983 -0.8255 -0.0768  0.3561
  380MOL0     H52389   3.987   5.823   3.338 -0.3535 -0.7215 -0.1350
  380MOL0     H52390   3.696   5.844   3.603 -0.3934 -2.2555  1.5421
  380MOL0     H52391   3.875   5.846   3.588  2.0718 -2.6232 -0.8960
  380MOL0     H52392   3.870   5.591   3.525  1.1898  0.9924  0.3286
  380MOL0     H52393   3.822   5.634   3.693  0.5693 -2.7362 -0.0058
  380MOL0     H52394   3.594   5.635   3.634  1.0523 -2.8186  2.9032
  380MOL0     H52395   3.635   5.582   3.471 -2.8366  2.5560  1.0187
  380MOL0     H52396   3.600   5.363   3.603  0.9800 -0.2213  0.1560
  380MOL0     H52397   3.763   5.385   3.580  0.6888  1.6383 -1.0463
  380MOL0     H52398   3.701   5.384   4.018  0.1760  0.5608  1.4648
  380MOL0     H52399   3.625   5.317   4.216  0.5260  1.2775 -0.7889
  380MOL0     H52400   3.465   5.360   4.279  0.8769 -2.6107  0.6204
  380MOL0     H52401   3.599   5.485   4.262 -0.9189 -0.7226  1.8475
  380MOL0     H52402   3.236   5.532   4.465  0.8250  0.3104  2.2355
  380MOL0     H52403   3.064   5.643   4.604 -0.8811 -0.6590 -0.9572
  380MOL0     H52404   2.964   6.071   4.520 -2.5538  1.3749  2.1257
  380MOL0     H52405   2.842   5.995   4.418 -1.1673 -3.1973  0.5558
  380MOL0     H52406   2.698   5.972   4.610  2.9655 -4.0484  3.4350
  380MOL0     H52407   2.821   6.030   4.722  2.4561  0.6554 -0.7446
  380MOL0     H52408   2.838   6.250   4.628  0.2725 -0.8220  0.4099
  380MOL0     H52409   2.685   6.215   4.675  0.9808 -1.5408  3.2010
  380MOL0     H52410   2.630   6.143   4.410 -1.0554  1.6831 -1.6139
  380MOL0     H52411   2.785   6.228   4.382  1.3474  0.6297  0.3831
  380MOL0     H52412   2.515   6.299   4.486  0.1308 -1.2870 -1.0734
  380MOL0     H52413   2.660   6.406   4.509 -0.5175 -2.7579  4.4039
  380MOL0     H52414   2.690   6.434   4.274 -0.4968 -0.7831  0.4363
  380MOL0     H52415   2.523   6.469   4.316 -1.4774 -0.5510  5.5176
  380MOL0     H52416   2.609   6.207   4.164 -0.3067 -1.0910  0.0441
  380MOL0     H52417   2.556   6.362   4.089 -0.7164 -1.5915 -0.4572
  380MOL0     H52418   2.426   6.152   4.266  2.6010 -2.2498 -1.6862
  380MOL0     H52419   2.392   6.181   4.095  0.5261 -1.3898  0.9212
  380MOL0     H52420   3.066   5.969   4.322  3.7426  0.9580 -4.2399
  380MOL0     H52421   3.254   5.862   4.195 -2.0592 -0.3057 -0.8018
  380MOL0     H52422   3.260   5.569   3.901  0.9392  0.6991  0.0125
  380MOL0     H52423   3.424   5.512   3.712  2.0901  1.0821  0.2250
  380MOL0     H52424   3.447   5.058   3.015 -2.0553  2.1427 -0.7033
  380MOL0     H52425   3.267   4.925   3.086 -1.0654  3.6836 -0.7226
  380MOL0     H52426   2.963   4.636   3.276  0.9158  2.4358 -2.5633
  380MOL0     H52427   2.734   4.553   3.271  0.1018  0.9636  0.7793
  380MOL0     H52428   2.568   4.324   2.908 -0.4751 -1.8375 -0.5301
  380MOL0     H52429   2.688   4.221   2.988 -0.4060 -0.7531  2.2914
  380MOL0     H52430   2.403   4.260   3.087 -1.9860 -0.2145  1.0138
  380MOL0     H52431   2.525   4.171   3.170  0.9516  1.3449 -1.3849
  380MOL0     H52432   2.498   4.045   2.902  0.6268 -2.0853  0.3396
  380MOL0     H52433   2.467   3.983   3.054 -0.0520  2.6029  2.6577
  380MOL0     H52434   2.271   4.013   2.876 -2.1548  0.2337  0.7267
  380MOL0     H52435   2.256   4.180   2.935  0.2885  0.0747 -0.8417
  380MOL0     H52436   2.122   3.930   3.272  2.0385 -2.2076 -0.7770
  380MOL0     H52437   2.788   4.389   2.887 -0.4831  3.6204 -2.0815
  380MOL0     H52438   3.014   4.547   2.747 -0.3558  1.6497  1.1410
  380MOL0     H52439   3.136   4.460   2.842 -0.2390  0.8262  2.6243
  380MOL0     H52440   2.987   4.379   2.785  0.0415  0.9730 -2.3310
  381MOL0     O52441   2.462   0.528   1.640  0.3308 -0.2838 -0.1234
  381MOL0     C52442   2.522   0.466   1.728 -0.1608 -0.4703  0.6930
  381MOL0     O52443   2.469   0.410   1.838  0.0844 -0.2491 -0.1395
  381MOL0     C52444   2.346   0.446   1.892 -0.5035  0.0116  0.2864
  381MOL0     C52445   2.297   0.384   2.010  0.0851 -0.5842 -0.5414
  381MOL0     C52446   2.190   0.427   2.086  0.6725 -0.2505 -0.2851
  381MOL0     C52447   2.114   0.530   2.030 -0.4450 -0.0070  0.0516
  381MOL0     O52448   2.013   0.575   2.100  0.4479 -0.4946 -0.1701
  381MOL0     C52449   1.971   0.710   2.084 -0.0090  0.6619 -0.0816
  381MOL0     C52450   1.881   0.743   2.205 -0.6247 -0.1424  0.5244
  381MOL0     C52451   1.969   0.768   2.333 -0.3485  0.0647 -0.4508
  381MOL0     C52452   1.877   0.775   2.459 -0.3521 -0.1168 -0.3129
  381MOL0     C52453   1.938   0.861   2.575  0.5049 -0.1672 -0.4730
  381MOL0     C52454   1.848   0.826   2.691 -0.0205  0.3083 -0.0856
  381MOL0     C52455   1.911   0.901   2.815  0.4018  0.2711 -0.5401
  381MOL0     C52456   1.805   0.924   2.935  0.3928 -0.0210  0.2880
  381MOL0     N52457   1.882   0.947   3.060  0.3333  0.6320  0.0881
  381MOL0     C52458   1.971   1.046   3.074  0.5492  0.2942  0.4966
  381MOL0     C52459   2.018   1.033   3.201  1.5162 -0.0601  0.1444
  381MOL0     C52460   2.112   1.129   3.268  0.3477  0.3160  0.1704
  381MOL0     C52461   2.175   1.069   3.392  0.1490  0.2579  0.0139
  381MOL0     C52462   2.315   1.131   3.446  0.1211 -0.9146  1.0692
  381MOL0     C52463   2.299   1.250   3.534  0.1082  0.0741 -0.2210
  381MOL0     O52464   2.285   1.370   3.452  0.1599 -0.8845 -1.0035
  381MOL0     C52465   2.394   1.460   3.434 -0.1409 -0.2281 -0.1634
  381MOL0     C52466   2.364   1.596   3.409  0.2474  0.1101 -0.3474
  381MOL0     C52467   2.453   1.697   3.400 -0.5274 -0.0002 -0.4057
  381MOL0     C52468   2.392   1.836   3.391 -0.2282  0.8077 -0.1356
  381MOL0     C52469   2.590   1.667   3.394  0.1860 -1.1158 -0.1847
  381MOL0     C52470   2.702   1.760   3.372  0.2593  0.3632  0.8277
  381MOL0     O52471   2.667   1.890   3.412  0.6571 -0.0032  0.2028
  381MOL0     C52472   2.766   1.983   3.434 -0.1454 -0.0880  0.6255
  381MOL0     C52473   2.725   2.115   3.440 -0.1361  0.2043 -0.7260
  381MOL0     C52474   2.811   2.225   3.456  0.4268 -0.9178  0.2442
  381MOL0     C52475   2.950   2.215   3.473 -0.2727  0.2893 -0.3058
  381MOL0     O52476   3.024   2.334   3.486 -0.0589 -0.0575 -0.1185
  381MOL0     C52477   3.013   2.412   3.364  0.0413  0.2340 -0.8348
  381MOL0     C52478   3.096   2.541   3.378  0.0637  0.3477 -0.9099
  381MOL0     C52479   3.103   2.620   3.247 -0.0571 -0.2890 -0.8716
  381MOL0     C52480   2.961   2.670   3.219 -0.5048  0.3332  1.6507
  381MOL0     C52481   2.941   2.805   3.151 -0.4799 -0.0582  0.0268
  381MOL0     C52482   2.979   2.929   3.232 -0.1217 -0.6992 -0.7197
  381MOL0     C52483   2.906   2.944   3.367 -1.1248 -0.4141  0.9936
  381MOL0     C52484   2.949   3.070   3.443  0.0804 -0.5216  0.4493
  381MOL0    Cl52485   2.936   3.220   3.351 -0.1993  0.2001  0.1450
  381MOL0     C52486   2.994   2.084   3.473 -0.4213  0.2554 -0.3325
  381MOL0     C52487   2.911   1.966   3.455  0.7023  0.5987  0.3020
  381MOL0     O52488   2.801   1.727   3.304  1.0326  0.6336 -0.0903
  381MOL0     C52489   2.628   1.534   3.415 -0.0537 -0.1970 -0.2634
  381MOL0     C52490   2.531   1.431   3.434 -0.1680  0.2600  0.4978
  381MOL0     N52491   1.971   0.912   3.248 -0.6933  0.1491  0.0264
  381MOL0     N52492   1.894   0.862   3.159  0.2404  0.4403 -0.8352
  381MOL0     C52493   2.150   0.600   1.912  0.0126  0.8775 -0.5986
  381MOL0     C52494   2.269   0.556   1.851 -0.3591 -0.0987 -0.3690
  381MOL0     C52495   2.660   0.435   1.694 -0.3995  0.1503  0.0631
  381MOL0     C52496   2.706   0.304   1.687  0.2454  0.6327 -0.4454
  381MOL0     C52497   2.840   0.272   1.650  0.0391 -0.2848 -1.2052
  381MOL0     C52498   2.926   0.368   1.612  0.2718 -0.1461 -0.0970
  381MOL0     O52499   3.055   0.334   1.572  0.5516  0.1771 -0.5155
  381MOL0     C52500   3.140   0.426   1.502  0.0647  0.2794  0.5590
  381MOL0     C52501   3.262   0.355   1.461  0.6381  0.7129  0.3240
  381MOL0     C52502   3.360   0.309   1.562 -1.0876  0.0660 -0.3106
  381MOL0     C52503   3.497   0.315   1.493  0.7417  0.1894 -0.6485
  381MOL0     C52504   3.593   0.254   1.582  0.3182  0.0503 -0.1063
  381MOL0     C52505   3.685   0.209   1.643  0.0538  0.5664 -0.3161
  381MOL0     C52506   2.894   0.499   1.637 -1.1164  1.5977 -0.6261
  381MOL0     C52507   2.763   0.533   1.684 -0.1503  0.5997  0.5428
  381MOL0     C52508   2.737   0.681   1.702  0.4260  0.8397  0.0247
  381MOL0     H52509   2.371   0.314   2.046 -0.5734 -0.7141  0.6002
  381MOL0     H52510   2.175   0.376   2.180  2.1617 -0.7646 -0.3140
  381MOL0     H52511   1.914   0.734   1.994 -0.9590  2.0345  0.8445
  381MOL0     H52512   2.063   0.770   2.085  1.9701 -2.1741  0.7182
  381MOL0     H52513   1.828   0.838   2.201 -1.3291 -0.5399  0.2494
  381MOL0     H52514   1.818   0.653   2.210  2.5341 -2.4710  2.3113
  381MOL0     H52515   2.046   0.692   2.348  0.4818  0.8049 -0.8408
  381MOL0     H52516   2.027   0.861   2.319 -0.5273  0.2759  0.2043
  381MOL0     H52517   1.781   0.820   2.432 -0.8089 -1.8247 -1.6963
  381MOL0     H52518   1.856   0.673   2.492 -1.0378  0.5923  1.5740
  381MOL0     H52519   1.932   0.967   2.546 -1.4868  0.0682  0.5769
  381MOL0     H52520   2.043   0.837   2.588  0.2762 -0.4009  1.1412
  381MOL0     H52521   1.754   0.877   2.669  0.2818  1.8018  1.7521
  381MOL0     H52522   1.838   0.718   2.706  0.6903  0.2948  0.3632
  381MOL0     H52523   1.942   1.005   2.801 -0.7790  1.0337  1.9760
  381MOL0     H52524   2.002   0.847   2.844  1.4478  0.6309 -2.8950
  381MOL0     H52525   1.741   1.009   2.910 -2.9737 -2.6078 -0.6625
  381MOL0     H52526   1.748   0.833   2.954  2.6273 -1.9820 -1.6759
  381MOL0     H52527   1.989   1.134   3.013  2.3846 -0.0349  0.5202
  381MOL0     H52528   2.058   1.222   3.286 -1.4940  0.3083 -4.1409
  381MOL0     H52529   2.186   1.152   3.191 -1.7263  0.1760 -1.9847
  381MOL0     H52530   2.093   1.076   3.464 -0.7776 -1.4705 -0.8080
  381MOL0     H52531   2.184   0.962   3.376  0.9738  0.4746 -1.1144
  381MOL0     H52532   2.375   1.056   3.499  1.3058  1.0548  2.6370
  381MOL0     H52533   2.380   1.149   3.360  1.8773 -0.0708  2.5136
  381MOL0     H52534   2.212   1.242   3.600  0.7457  1.3260  0.8182
  381MOL0     H52535   2.382   1.252   3.604 -1.2907  3.6058  1.5886
  381MOL0     H52536   2.256   1.610   3.402 -0.5102 -2.6551  2.9418
  381MOL0     H52537   2.411   1.894   3.481 -0.4295  0.8958 -0.1490
  381MOL0     H52538   2.283   1.837   3.377 -0.2758  0.9651  0.2455
  381MOL0     H52539   2.437   1.894   3.309 -0.0585  0.8716  0.0031
  381MOL0     H52540   2.619   2.125   3.421 -0.5230 -1.5358  0.2819
  381MOL0     H52541   2.770   2.325   3.459  4.4339  1.0090 -1.5617
  381MOL0     H52542   3.053   2.356   3.279  1.3881  3.4018 -2.4787
  381MOL0     H52543   2.909   2.442   3.353 -0.2731 -0.9326 -1.1846
  381MOL0     H52544   3.050   2.597   3.461  1.7203 -0.5630  0.6834
  381MOL0     H52545   3.199   2.537   3.415  0.7567  2.2336 -2.4761
  381MOL0     H52546   3.149   2.564   3.164  0.4650 -0.7514 -0.2821
  381MOL0     H52547   3.184   2.693   3.259  1.0778 -1.4816 -0.9750
  381MOL0     H52548   2.888   2.677   3.300 -2.9191 -0.0463 -0.3573
  381MOL0     H52549   2.915   2.592   3.158  1.1528 -1.5197  2.6331
  381MOL0     H52550   2.993   2.824   3.057  0.9193  4.5951  1.4810
  381MOL0     H52551   2.838   2.830   3.125 -0.8617 -1.5399  0.0630
  381MOL0     H52552   2.963   3.015   3.167 -1.3570 -0.1085  0.3063
  381MOL0     H52553   3.085   2.914   3.253 -0.7399 -2.2406  1.6282
  381MOL0     H52554   2.918   2.855   3.430  1.2388 -3.1633 -2.9110
  381MOL0     H52555   2.801   2.952   3.338 -1.0984  0.2773  1.0656
  381MOL0     H52556   3.049   3.059   3.484 -0.3277 -1.5653  1.2282
  381MOL0     H52557   2.875   3.075   3.524 -0.2317 -0.2578  0.1508
  381MOL0     H52558   3.101   2.071   3.485 -0.6883 -0.9375  1.0359
  381MOL0     H52559   2.940   1.861   3.457  2.6060  1.0820 -0.0432
  381MOL0     H52560   2.729   1.495   3.420 -0.8530 -2.2622  1.1468
  381MOL0     H52561   2.562   1.327   3.440 -2.2503 -0.3718  1.2212
  381MOL0     H52562   2.100   0.677   1.855 -0.4988 -0.0342 -1.4032
  381MOL0     H52563   2.296   0.617   1.765 -1.0006  1.4549  0.4923
  381MOL0     H52564   2.638   0.222   1.704  1.3731 -1.0322 -3.2856
  381MOL0     H52565   2.884   0.174   1.635 -0.0655 -0.3638 -0.9874
  381MOL0     H52566   3.094   0.465   1.411 -2.7134 -2.1168  0.7740
  381MOL0     H52567   3.178   0.503   1.570  0.3850 -1.2773  2.2350
  381MOL0     H52568   3.304   0.405   1.373 -0.8539 -0.4124 -1.0810
  381MOL0     H52569   3.234   0.261   1.414  1.0049  1.7891 -2.2354
  381MOL0     H52570   3.360   0.372   1.651  3.9883 -0.0930  0.1132
  381MOL0     H52571   3.344   0.203   1.584  3.2685 -1.0759 -1.6197
  381MOL0     H52572   3.525   0.416   1.462  0.8965  0.4975  0.4720
  381MOL0     H52573   3.490   0.244   1.410  1.6636  1.0996 -1.5408
  381MOL0     H52574   3.777   0.179   1.688 -0.1458  1.3186  0.6171
  381MOL0     H52575   2.976   0.569   1.627  1.5282 -0.5779  3.1643
  381MOL0     H52576   2.637   0.701   1.662 -0.5652 -1.1334  1.3443
  381MOL0     H52577   2.729   0.697   1.810  1.5646 -1.0478  0.4355
  381MOL0     H52578   2.816   0.749   1.668  2.1054  0.8467  3.4834
  382MOL0     O52579   1.810   5.418   1.421  0.5086 -0.3374  0.0868
  382MOL0     C52580   1.725   5.339   1.478 -0.6984 -0.7714  0.8173
  382MOL0     O52581   1.706   5.210   1.450 -0.1238  0.0630  0.5448
  382MOL0     C52582   1.792   5.134   1.376 -0.4885  0.4357  0.0796
  382MOL0     C52583   1.932   5.150   1.359 -0.0585  0.2619 -1.1884
  382MOL0     C52584   2.000   5.054   1.286 -0.2506  0.0480  0.7908
  382MOL0     C52585   1.937   4.939   1.244 -0.0118 -0.5446  0.2937
  382MOL0     O52586   2.012   4.853   1.167 -0.0434  0.0864  0.0836
  382MOL0     C52587   1.968   4.836   1.034 -0.4617 -0.2351  0.0326
  382MOL0     C52588   2.034   4.718   0.977  0.1708  0.0837 -0.7580
  382MOL0     C52589   1.980   4.596   1.051  0.7612 -0.0426 -0.0197
  382MOL0     C52590   2.080   4.476   1.047  0.0080  0.7765  0.1567
  382MOL0     C52591   2.074   4.405   0.911 -0.0949 -0.0182 -0.8003
  382MOL0     C52592   1.938   4.318   0.896  0.1827 -1.0699  0.4680
  382MOL0     C52593   1.945   4.257   0.756  0.5847 -0.1312 -0.0790
  382MOL0     C52594   1.820   4.161   0.735 -0.4560 -0.0194  0.3002
  382MOL0     N52595   1.699   4.247   0.718 -0.3349  0.1745  0.2571
  382MOL0     C52596   1.603   4.270   0.809 -0.3225 -0.2982 -0.0438
  382MOL0     C52597   1.535   4.377   0.769  0.8942 -0.8266 -0.8801
  382MOL0     C52598   1.408   4.447   0.828 -0.6203  0.1548 -0.7147
  382MOL0     C52599   1.417   4.443   0.985 -0.0304 -0.0025  0.1449
  382MOL0     C52600   1.314   4.533   1.054  0.3023 -0.4633 -0.5140
  382MOL0     C52601   1.169   4.505   1.009  0.6769  0.8309 -0.1142
  382MOL0     O52602   1.134   4.367   1.037  0.3205  0.4507 -0.0697
  382MOL0     C52603   0.996   4.345   1.014 -0.4232  0.1088 -0.4744
  382MOL0     C52604   0.896   4.432   0.966 -0.2225 -0.0233  0.1343
  382MOL0     C52605   0.767   4.382   0.935 -0.1537 -0.6807 -0.3221
  382MOL0     C52606   0.663   4.466   0.861 -0.5213 -0.0835  0.1305
  382MOL0     C52607   0.728   4.258   0.989  0.5879  0.6004  0.0134
  382MOL0     C52608   0.584   4.189   0.977 -0.1540  0.7428  0.1503
  382MOL0     O52609   0.567   4.073   1.054  0.5014 -0.2732  0.5176
  382MOL0     C52610   0.447   3.998   1.040  1.0249 -0.4671  0.0939
  382MOL0     C52611   0.402   3.922   1.148 -1.2162 -0.3179 -0.2081
  382MOL0     C52612   0.290   3.838   1.136 -0.2734 -0.9295  0.3311
  382MOL0     C52613   0.221   3.837   1.019 -0.8039 -0.0203  0.0932
  382MOL0     O52614   0.111   3.756   1.026 -0.0084 -0.7826 -0.1924
  382MOL0     C52615   0.061   3.705   0.902  0.8204 -0.3922 -0.8904
  382MOL0     C52616   0.148   3.597   0.833  0.2633  0.9896 -0.7238
  382MOL0     C52617   0.139   3.469   0.926  0.2717 -0.0328  0.6434
  382MOL0     C52618   0.228   3.361   0.871  1.0853 -0.6029  0.3541
  382MOL0     C52619   0.265   3.256   0.978 -0.5402  0.2242 -1.3165
  382MOL0     C52620   0.338   3.309   1.108 -0.3580  1.0104  0.1785
  382MOL0     C52621   0.473   3.377   1.086  0.1695  0.4440 -0.3572
  382MOL0     C52622   0.573   3.289   1.012  0.1602  0.9805 -0.0228
  382MOL0    Cl52623   0.571   3.122   1.090 -0.0191 -0.0155  0.2184
  382MOL0     C52624   0.265   3.908   0.907 -0.1933 -0.3997  0.2996
  382MOL0     C52625   0.377   3.991   0.918 -0.0536  0.0951 -0.3197
  382MOL0     O52626   0.493   4.246   0.914  0.2406 -0.5386  0.5820
  382MOL0     C52627   0.824   4.180   1.058 -0.0178  0.1592  1.1929
  382MOL0     C52628   0.956   4.227   1.077  1.1238 -0.1242  0.8439
  382MOL0     N52629   1.588   4.427   0.643 -0.7636  0.0885  0.5032
  382MOL0     N52630   1.692   4.347   0.616  0.3089  0.0550 -0.1317
  382MOL0     C52631   1.806   4.914   1.272 -0.6182  0.4735  1.1371
  382MOL0     C52632   1.729   5.017   1.324 -0.1568  0.3109  0.3028
  382MOL0     C52633   1.633   5.403   1.573  0.1293 -0.6519  0.2402
  382MOL0     C52634   1.499   5.363   1.587 -0.1190  0.0907  0.0642
  382MOL0     C52635   1.406   5.421   1.672 -0.1964 -0.3534 -0.5315
  382MOL0     C52636   1.431   5.537   1.739  0.0214  0.4552  0.7711
  382MOL0     O52637   1.340   5.612   1.812 -0.3388 -0.0996 -0.0374
  382MOL0     C52638   1.213   5.557   1.858 -1.3306  0.4052 -0.4215
  382MOL0     C52639   1.235   5.438   1.960 -0.3428  0.2742 -0.0741
  382MOL0     C52640   1.287   5.496   2.102  0.4659  0.2644  0.2673
  382MOL0     C52641   1.356   5.399   2.190 -0.9154 -0.1602  0.2624
  382MOL0     C52642   1.292   5.274   2.212  0.4303 -0.3506  0.7675
  382MOL0     C52643   1.233   5.167   2.235  0.4910  0.1323  0.1541
  382MOL0     C52644   1.563   5.589   1.735  0.3270 -0.1149 -0.0390
  382MOL0     C52645   1.665   5.520   1.659  0.7118  0.8166 -0.0289
  382MOL0     C52646   1.803   5.585   1.646  0.0374 -0.7197  0.2299
  382MOL0     H52647   1.977   5.235   1.408 -1.1841  0.1931  0.0233
  382MOL0     H52648   2.106   5.070   1.267 -0.0729 -0.5461  1.2601
  382MOL0     H52649   2.004   4.927   0.984 -0.1508 -1.3582 -1.8643
  382MOL0     H52650   1.861   4.850   1.011 -0.8458 -0.8761  1.3456
  382MOL0     H52651   2.006   4.712   0.871 -3.3954 -0.8316  0.1084
  382MOL0     H52652   2.143   4.726   0.983  0.1300 -0.0519  0.2556
  382MOL0     H52653   1.972   4.616   1.158  0.4698  1.8130 -0.3676
  382MOL0     H52654   1.883   4.574   1.005  0.0155  0.4510  1.2732
  382MOL0     H52655   2.180   4.502   1.083 -0.7080 -0.5100  3.4743
  382MOL0     H52656   2.044   4.402   1.120 -1.6283  0.3783 -0.9882
  382MOL0     H52657   2.165   4.344   0.918  3.0035  4.2482 -0.1187
  382MOL0     H52658   2.090   4.468   0.823 -2.3752 -0.1029 -1.3541
  382MOL0     H52659   1.913   4.248   0.976  0.7783 -2.2576 -0.3508
  382MOL0     H52660   1.853   4.388   0.894  0.7263 -0.4060 -1.0827
  382MOL0     H52661   2.032   4.191   0.758  1.4311  0.9558 -0.0099
  382MOL0     H52662   1.957   4.334   0.680 -1.0702  1.6459  1.3495
  382MOL0     H52663   1.830   4.120   0.634  0.2410  0.8652 -0.0047
  382MOL0     H52664   1.810   4.070   0.795  2.2874 -0.7568 -0.2271
  382MOL0     H52665   1.590   4.201   0.892 -1.7059 -0.9061 -0.7352
  382MOL0     H52666   1.324   4.381   0.803 -1.3444  0.6034  0.4531
  382MOL0     H52667   1.402   4.553   0.804  2.0348  1.8490  4.5695
  382MOL0     H52668   1.415   4.339   1.017 -0.7091 -0.6413 -1.8200
  382MOL0     H52669   1.522   4.472   1.000  0.7613 -2.0987 -0.9194
  382MOL0     H52670   1.328   4.523   1.162 -3.1384  2.0075  0.3499
  382MOL0     H52671   1.331   4.638   1.029  2.1823 -1.0565 -1.9182
  382MOL0     H52672   1.100   4.578   1.052 -3.4141 -3.1023  0.7889
  382MOL0     H52673   1.158   4.513   0.901 -0.0937 -2.1241 -0.3570
  382MOL0     H52674   0.932   4.526   0.925  2.3008  0.2489  2.6116
  382MOL0     H52675   0.567   4.465   0.914 -0.8647 -0.1383 -0.4737
  382MOL0     H52676   0.631   4.413   0.771  0.0654 -2.3327  1.1897
  382MOL0     H52677   0.691   4.569   0.835 -2.0627  0.3841  0.1794
  382MOL0     H52678   0.452   3.927   1.244 -0.7120 -0.9073 -0.4344
  382MOL0     H52679   0.262   3.787   1.227  2.1428 -0.9646  1.1230
  382MOL0     H52680  -0.039   3.666   0.927  0.5100 -1.2154 -3.1858
  382MOL0     H52681   0.047   3.797   0.844  1.6299 -0.4384 -1.1710
  382MOL0     H52682   0.120   3.582   0.728  1.8867 -2.2068 -0.8181
  382MOL0     H52683   0.252   3.631   0.836  0.2666  1.0585 -1.4263
  382MOL0     H52684   0.036   3.434   0.935 -1.3063  3.9578  0.3305
  382MOL0     H52685   0.180   3.509   1.020 -3.0413  2.3891  1.2188
  382MOL0     H52686   0.318   3.412   0.836  1.5724 -1.5780  0.1384
  382MOL0     H52687   0.188   3.308   0.784  3.5674 -5.5560  1.8870
  382MOL0     H52688   0.178   3.196   1.006  1.2975 -3.3314 -2.6374
  382MOL0     H52689   0.334   3.184   0.932 -1.0798 -1.1614 -0.0390
  382MOL0     H52690   0.351   3.223   1.174  1.7301  0.4769 -0.8519
  382MOL0     H52691   0.269   3.372   1.165 -0.4760  0.1942  0.9627
  382MOL0     H52692   0.520   3.388   1.185  2.2247 -1.8389 -0.9777
  382MOL0     H52693   0.453   3.466   1.025  1.1495  2.2564  1.8106
  382MOL0     H52694   0.676   3.325   1.018  0.0571  1.1510  0.9256
  382MOL0     H52695   0.535   3.281   0.910  0.6378  0.0669 -0.1383
  382MOL0     H52696   0.213   3.907   0.812 -1.2157 -1.8321  0.8387
  382MOL0     H52697   0.401   4.040   0.824 -1.4696  0.6190 -0.4430
  382MOL0     H52698   0.799   4.085   1.106 -0.9885 -0.5960 -0.6978
  382MOL0     H52699   1.025   4.171   1.139  2.4383  0.7874  0.2395
  382MOL0     H52700   1.751   4.824   1.245  0.1897  0.6864 -1.5411
  382MOL0     H52701   1.624   5.006   1.347 -0.7637  1.7157 -1.5747
  382MOL0     H52702   1.467   5.276   1.531  3.8072  0.2584 -2.8340
  382MOL0     H52703   1.307   5.377   1.669 -0.3005 -0.4636  2.1313
  382MOL0     H52704   1.155   5.632   1.912 -0.9865 -0.4659  1.2473
  382MOL0     H52705   1.164   5.516   1.770  1.2352 -1.1053 -1.2590
  382MOL0     H52706   1.309   5.366   1.924 -0.3351 -0.3646  1.1919
  382MOL0     H52707   1.138   5.387   1.961  0.3897 -1.3156 -1.9661
  382MOL0     H52708   1.353   5.579   2.078  1.4241 -0.8736 -1.1762
  382MOL0     H52709   1.200   5.534   2.157  0.9143 -2.8378  3.4850
  382MOL0     H52710   1.374   5.441   2.289 -1.1577 -0.5772  0.4867
  382MOL0     H52711   1.455   5.395   2.144 -1.3835  2.2872 -1.1510
  382MOL0     H52712   1.185   5.071   2.246 -0.4428  0.6897  1.1668
  382MOL0     H52713   1.595   5.681   1.782  2.4907 -0.8753  0.1124
  382MOL0     H52714   1.801   5.652   1.560 -3.1241  1.2000  1.6265
  382MOL0     H52715   1.820   5.646   1.736 -2.3643 -0.4730  0.5830
  382MOL0     H52716   1.884   5.512   1.636  1.6939  1.0217  0.1733
  383MOL0     O52717  10.435   7.744   6.414 -0.2725 -0.4411 -0.3610
  383MOL0     C52718  10.425   7.646   6.347 -0.4092  0.1140  0.0666
  383MOL0     O52719  10.532   7.546   6.327  0.2891  0.2657  0.3707
  383MOL0     C52720  10.633   7.540   6.423 -0.3329 -0.0016  0.0302
  383MOL0     C52721  10.764   7.502   6.375  0.1102  0.3038  0.5868
  383MOL0     C52722  10.878   7.518   6.453  0.3225  1.4965  0.0388
  383MOL0     C52723  10.863   7.541   6.584 -0.0731 -0.3737  0.4081
  383MOL0     O52724  10.974   7.558   6.672  0.2143  0.2585 -0.7386
  383MOL0     C52725  11.105   7.525   6.629  1.0595  0.0346  0.3060
  383MOL0     C52726  11.148   7.647   6.547 -0.5832 -0.2403  0.0073
  383MOL0     C52727  11.294   7.671   6.580 -0.6797 -0.1706 -0.6834
  383MOL0     C52728  11.391   7.560   6.541  0.7572 -0.3838  1.0862
  383MOL0     C52729  11.534   7.568   6.617 -0.2096  0.7678 -0.3645
  383MOL0     C52730  11.595   7.698   6.583 -0.0403  0.2387 -1.1939
  383MOL0     C52731  11.732   7.702   6.652 -0.8372 -0.1529  0.8705
  383MOL0     C52732  11.800   7.841   6.630  0.2547 -0.2331  0.5599
  383MOL0     N52733  11.876   7.835   6.505 -0.1663 -0.7087 -0.1806
  383MOL0     C52734  12.004   7.874   6.493 -0.3602 -0.0073 -0.5043
  383MOL0     C52735  12.043   7.830   6.365  0.5420 -0.3864 -0.3506
  383MOL0     C52736  12.176   7.837   6.300  0.8399 -0.4910  0.4019
  383MOL0     C52737  12.191   7.979   6.244  0.2476 -0.1147  0.3285
  383MOL0     C52738  12.336   7.997   6.201  0.7454 -0.6151  0.1004
  383MOL0     C52739  12.370   8.146   6.162  0.1234  0.6011  0.6086
  383MOL0     O52740  12.484   8.160   6.071 -0.0049 -0.8322 -0.0055
  383MOL0     C52741  12.615   8.174   6.120  0.9921 -0.5635 -0.4968
  383MOL0     C52742  12.638   8.163   6.256 -0.4312  1.0229 -0.1730
  383MOL0     C52743  12.771   8.153   6.307 -0.4956 -0.5094  0.5894
  383MOL0     C52744  12.794   8.128   6.459  0.3572 -0.5049  0.1165
  383MOL0     C52745  12.881   8.154   6.224  0.3686 -0.3427  0.3216
  383MOL0     C52746  13.015   8.156   6.268 -0.0876 -0.4537 -0.1671
  383MOL0     O52747  13.088   8.055   6.203 -0.2780 -0.2364 -0.4333
  383MOL0     C52748  13.216   8.027   6.246  0.3504  0.1386  0.0032
  383MOL0     C52749  13.271   8.043   6.383  0.4183  0.8206  0.5992
  383MOL0     C52750  13.407   8.009   6.399  0.6622  0.0546 -0.1594
  383MOL0     C52751  13.482   7.962   6.295  0.1961 -1.0761 -0.3753
  383MOL0     O52752  13.609   7.918   6.306  0.2122 -0.0144 -0.0050
  383MOL0     C52753  13.684   7.994   6.399  0.0053 -0.2609  0.3993
  383MOL0     C52754  13.827   7.979   6.358 -1.1788 -0.2809 -0.3283
  383MOL0     C52755  13.889   7.838   6.384  0.0259 -0.0476  0.0385
  383MOL0     C52756  14.021   7.838   6.322  0.6025 -0.0946  0.2858
  383MOL0     C52757  14.099   7.710   6.344 -0.1230  0.0809  0.2605
  383MOL0     C52758  14.224   7.723   6.249 -0.1781 -1.0645 -0.0140
  383MOL0     C52759  14.316   7.607   6.266  0.0512 -0.4963 -0.5718
  383MOL0     C52760  14.427   7.612   6.160 -0.1710  0.4438  0.2257
  383MOL0    Cl52761  14.532   7.752   6.181 -0.5069 -0.3117  0.2762
  383MOL0     C52762  13.426   7.936   6.168  0.0691 -0.0924 -0.3678
  383MOL0     C52763  13.295   7.973   6.150 -0.6287  0.5776 -0.1035
  383MOL0     O52764  13.063   8.243   6.345  0.2410  0.5101 -0.2248
  383MOL0     C52765  12.852   8.172   6.086 -0.0370 -0.2940  0.4784
  383MOL0     C52766  12.717   8.182   6.034 -1.3227 -0.7741 -0.3696
  383MOL0     N52767  11.926   7.781   6.306  0.8196  0.2225  0.4763
  383MOL0     N52768  11.827   7.783   6.389 -0.1433  0.6134  0.2137
  383MOL0     C52769  10.737   7.573   6.631 -1.2030  0.7266  0.6032
  383MOL0     C52770  10.620   7.577   6.560 -0.7765  0.7892  0.1750
  383MOL0     C52771  10.310   7.631   6.263  0.0645  0.1097  1.0688
  383MOL0     C52772  10.186   7.672   6.323  0.5733 -0.2904 -0.3779
  383MOL0     C52773  10.074   7.661   6.243  0.1809 -0.2468  0.5517
  383MOL0     C52774  10.061   7.598   6.122  0.1152 -0.9318  0.5826
  383MOL0     O52775   9.942   7.577   6.063  0.2695  0.5448  0.2681
  383MOL0     C52776   9.827   7.659   6.104 -0.4155 -0.0657  0.5092
  383MOL0     C52777   9.707   7.643   6.003 -0.3800 -0.6700 -1.0185
  383MOL0     C52778   9.635   7.512   6.006 -0.1299  0.1203 -0.9094
  383MOL0     C52779   9.652   7.409   5.905 -0.2191  0.0172  0.2086
  383MOL0     C52780   9.567   7.422   5.782 -0.0974  0.0012  1.1342
  383MOL0     C52781   9.495   7.412   5.675  0.1531 -0.2411 -0.4789
  383MOL0     C52782  10.183   7.552   6.068 -0.9070 -0.9550  0.3941
  383MOL0     C52783  10.306   7.577   6.135  0.2846  0.0524  0.3683
  383MOL0     C52784  10.423   7.518   6.066 -0.5879 -0.5323  0.4932
  383MOL0     H52785  10.788   7.459   6.278 -0.1998 -0.0036  0.6455
  383MOL0     H52786  10.981   7.492   6.429 -0.4860 -1.2301 -0.8369
  383MOL0     H52787  11.107   7.432   6.571  1.7371  0.6185 -0.6454
  383MOL0     H52788  11.168   7.506   6.716  1.9847  3.3657  0.4830
  383MOL0     H52789  11.141   7.628   6.440  2.1994 -3.4411  0.2054
  383MOL0     H52790  11.082   7.729   6.576 -2.1497 -1.6919  0.7992
  383MOL0     H52791  11.315   7.773   6.545 -2.1257  1.5566  2.9160
  383MOL0     H52792  11.302   7.681   6.689  0.0678 -0.4463 -0.7036
  383MOL0     H52793  11.357   7.456   6.550 -2.3574  0.3779 -0.5263
  383MOL0     H52794  11.405   7.565   6.433  1.9060  1.5155  1.2716
  383MOL0     H52795  11.595   7.481   6.589 -1.1840  0.9824 -3.5335
  383MOL0     H52796  11.504   7.570   6.723 -2.2327  1.4076 -0.9147
  383MOL0     H52797  11.602   7.694   6.474  1.1787 -2.2509 -1.0736
  383MOL0     H52798  11.527   7.779   6.613  0.0860  0.9360 -2.6534
  383MOL0     H52799  11.803   7.625   6.618  2.5166  3.3024 -0.7322
  383MOL0     H52800  11.702   7.687   6.756 -0.2998 -2.2379  0.7726
  383MOL0     H52801  11.716   7.907   6.609 -0.8534 -2.0978 -1.2300
  383MOL0     H52802  11.871   7.867   6.709 -0.6020  0.4329  1.1268
  383MOL0     H52803  12.071   7.923   6.563 -1.0595  0.8806 -0.4350
  383MOL0     H52804  12.199   7.757   6.228 -0.8078  2.2340 -3.4970
  383MOL0     H52805  12.250   7.826   6.379 -0.5545 -1.7681  1.6197
  383MOL0     H52806  12.120   8.009   6.166  1.8925 -0.2513 -1.2875
  383MOL0     H52807  12.170   8.053   6.322 -2.2612  1.7393 -1.8977
  383MOL0     H52808  12.407   7.979   6.283  1.2431  0.8916  0.0310
  383MOL0     H52809  12.355   7.926   6.119 -2.2071  0.2287 -1.4518
  383MOL0     H52810  12.287   8.186   6.103 -2.2133 -0.4967  2.9175
  383MOL0     H52811  12.359   8.213   6.249 -1.3426 -0.0368  0.9622
  383MOL0     H52812  12.558   8.150   6.328 -0.1679  3.3696  0.6183
  383MOL0     H52813  12.864   8.049   6.488  1.1150  0.2817  0.4975
  383MOL0     H52814  12.700   8.109   6.510 -0.8565 -0.8076 -2.1156
  383MOL0     H52815  12.832   8.219   6.508 -0.2366 -0.5862  0.7350
  383MOL0     H52816  13.209   8.082   6.462  2.1622 -1.1256  3.1095
  383MOL0     H52817  13.456   8.015   6.496  0.0924 -0.7407  0.1824
  383MOL0     H52818  13.660   8.100   6.388  0.4619 -0.4751 -4.6306
  383MOL0     H52819  13.671   7.958   6.502 -1.1960  2.2297  1.1955
  383MOL0     H52820  13.828   8.003   6.251 -0.4622  3.7857  0.4398
  383MOL0     H52821  13.896   8.056   6.395 -0.4427 -0.5480 -1.1129
  383MOL0     H52822  13.826   7.758   6.344 -2.3680  1.0297  1.4425
  383MOL0     H52823  13.906   7.826   6.491  1.3707  3.4955  0.3570
  383MOL0     H52824  14.088   7.918   6.354  3.4368 -0.3019 -4.1481
  383MOL0     H52825  14.014   7.863   6.216  1.3378  1.2499  0.5400
  383MOL0     H52826  14.119   7.687   6.449  0.2370 -1.7804 -0.1725
  383MOL0     H52827  14.039   7.629   6.301  0.6872  1.1689 -3.1682
  383MOL0     H52828  14.275   7.820   6.253 -3.0986  0.6667 -1.3727
  383MOL0     H52829  14.185   7.718   6.147 -1.2585  1.0080  0.2461
  383MOL0     H52830  14.261   7.515   6.244 -1.3056  0.1629 -0.0129
  383MOL0     H52831  14.349   7.595   6.370 -3.5128 -1.8832  0.5392
  383MOL0     H52832  14.380   7.614   6.061  1.6860  1.0233 -0.7092
  383MOL0     H52833  14.482   7.519   6.178 -0.5134  0.5565  1.9828
  383MOL0     H52834  13.493   7.883   6.101 -0.2602  0.3700 -1.0779
  383MOL0     H52835  13.254   7.959   6.050  1.8360 -0.4707 -1.0392
  383MOL0     H52836  12.924   8.195   6.008 -0.7622 -2.6780 -0.9926
  383MOL0     H52837  12.691   8.198   5.930 -3.1701  1.5938  0.3596
  383MOL0     H52838  10.730   7.604   6.735 -0.3168 -0.5214  1.0559
  383MOL0     H52839  10.532   7.596   6.619 -1.8254  0.7849 -1.3253
  383MOL0     H52840  10.175   7.732   6.413 -1.8989 -1.0759 -0.0929
  383MOL0     H52841   9.979   7.692   6.285 -1.5262 -1.9465 -1.7549
  383MOL0     H52842   9.783   7.645   6.204 -1.5584 -0.4208 -0.0243
  383MOL0     H52843   9.856   7.764   6.098  0.8114 -0.4412 -0.5832
  383MOL0     H52844   9.748   7.649   5.901  1.0600 -2.7870 -0.6242
  383MOL0     H52845   9.638   7.727   6.019 -0.1587 -0.4682 -1.1149
  383MOL0     H52846   9.667   7.469   6.101 -0.4761  1.6354 -0.0597
  383MOL0     H52847   9.527   7.531   6.007 -0.0558  0.7486 -2.4140
  383MOL0     H52848   9.635   7.309   5.946 -1.5617  0.4366  0.7157
  383MOL0     H52849   9.757   7.398   5.876 -0.2127 -2.3908  0.9437
  383MOL0     H52850   9.441   7.397   5.584 -0.9275 -3.7665  0.5918
  383MOL0     H52851  10.175   7.501   5.972  2.1219 -0.2701 -0.3341
  383MOL0     H52852  10.508   7.588   6.069 -1.2953  0.3398  0.5967
  383MOL0     H52853  10.452   7.428   6.122 -0.3953  1.0519  3.1297
  383MOL0     H52854  10.403   7.492   5.962 -2.1615  1.5931  0.1932
  384MOL0     O52855   3.498   4.149   4.075  0.0841 -0.4088 -0.0935
  384MOL0     C52856   3.524   4.173   3.953 -0.2336 -0.4028 -0.4655
  384MOL0     O52857   3.431   4.205   3.860  0.4526  0.6304  0.6286
  384MOL0     C52858   3.297   4.203   3.888 -0.7566 -0.0763 -0.7098
  384MOL0     C52859   3.201   4.115   3.828  0.9541 -1.1930  0.3343
  384MOL0     C52860   3.072   4.121   3.868 -0.0523 -0.2108  0.1734
  384MOL0     C52861   3.025   4.207   3.967  0.0787 -0.2333  0.9416
  384MOL0     O52862   2.900   4.210   4.008  0.2652  0.5034  0.3894
  384MOL0     C52863   2.842   4.344   4.017  0.3916  0.2342  0.5411
  384MOL0     C52864   2.697   4.324   4.031  0.4987  0.5478  0.5022
  384MOL0     C52865   2.643   4.460   4.092 -0.3351  0.4090  0.8241
  384MOL0     C52866   2.674   4.577   3.999  0.6303  0.5992  0.8563
  384MOL0     C52867   2.624   4.575   3.849 -0.0888 -0.2001 -0.0977
  384MOL0     C52868   2.609   4.718   3.790  0.3603  0.7809 -0.8420
  384MOL0     C52869   2.529   4.702   3.660  0.3558 -0.0517  0.2230
  384MOL0     C52870   2.503   4.837   3.579 -0.0492 -0.8523  0.5520
  384MOL0     N52871   2.630   4.859   3.511  0.0870  0.2738 -0.2513
  384MOL0     C52872   2.730   4.959   3.540 -0.1560 -0.1804  0.1959
  384MOL0     C52873   2.828   4.928   3.450  0.1352 -0.0781  0.6124
  384MOL0     C52874   2.966   4.984   3.472 -0.5844  0.3124 -0.5157
  384MOL0     C52875   3.073   4.921   3.382 -0.4838  0.2797 -1.1071
  384MOL0     C52876   3.216   4.944   3.440 -0.1671 -0.3641  0.1759
  384MOL0     C52877   3.307   4.825   3.414  0.0356 -0.2921 -0.1867
  384MOL0     O52878   3.423   4.864   3.487  0.1841 -0.0764 -0.6911
  384MOL0     C52879   3.536   4.789   3.474 -0.4457  0.3183 -0.0201
  384MOL0     C52880   3.656   4.850   3.503  1.2080  0.1542 -0.0747
  384MOL0     C52881   3.773   4.775   3.498 -0.6916  0.3409 -0.2298
  384MOL0     C52882   3.901   4.859   3.513 -0.4292  0.2441  0.2002
  384MOL0     C52883   3.771   4.635   3.470 -0.3377  0.3659 -1.8062
  384MOL0     C52884   3.892   4.542   3.474  0.0775 -0.3240 -0.2688
  384MOL0     O52885   4.006   4.576   3.535  0.7658  0.0391 -0.7668
  384MOL0     C52886   4.112   4.497   3.512 -0.5254  0.5150 -0.2209
  384MOL0     C52887   4.149   4.373   3.568  0.1754 -0.4091 -0.8756
  384MOL0     C52888   4.271   4.314   3.541  0.0337 -0.5522  0.5835
  384MOL0     C52889   4.365   4.374   3.461 -0.1147  0.1958  0.3787
  384MOL0     O52890   4.488   4.319   3.418  0.4446 -0.3874 -0.1043
  384MOL0     C52891   4.528   4.197   3.479 -0.8511  0.0457  0.1287
  384MOL0     C52892   4.616   4.121   3.378  0.0741 -0.0026 -0.0526
  384MOL0     C52893   4.519   4.028   3.295 -0.1059  0.4879  0.0962
  384MOL0     C52894   4.599   3.959   3.179  0.4590  0.9502 -0.0394
  384MOL0     C52895   4.505   3.866   3.101  0.8922  0.2669 -0.9241
  384MOL0     C52896   4.586   3.813   2.977 -0.5288  0.0999 -0.1556
  384MOL0     C52897   4.505   3.757   2.864 -0.3077  0.3645  0.0338
  384MOL0     C52898   4.591   3.711   2.745  0.1626  0.0488  1.1480
  384MOL0    Cl52899   4.710   3.833   2.681 -0.5134  0.1619 -0.2767
  384MOL0     C52900   4.334   4.497   3.413  0.2197  0.2791  0.0106
  384MOL0     C52901   4.210   4.559   3.433  0.2170 -0.2083 -0.1109
  384MOL0     O52902   3.869   4.438   3.419 -0.0103  0.1013 -0.3806
  384MOL0     C52903   3.644   4.577   3.442 -0.1018 -0.1234 -0.0287
  384MOL0     C52904   3.529   4.653   3.447 -0.2280 -0.5134  0.0686
  384MOL0     N52905   2.792   4.821   3.370  0.4176  1.3467 -0.0194
  384MOL0     N52906   2.678   4.779   3.411  0.1781 -0.2897 -0.7733
  384MOL0     C52907   3.116   4.293   4.023 -0.6549 -0.1603  0.2389
  384MOL0     C52908   3.251   4.297   3.987  0.5659  0.0508 -0.2932
  384MOL0     C52909   3.669   4.168   3.924 -0.0194 -1.6010 -0.7287
  384MOL0     C52910   3.751   4.097   4.009  0.0506  0.1401  0.1189
  384MOL0     C52911   3.882   4.076   3.974  0.2397  0.1692  0.1364
  384MOL0     C52912   3.940   4.138   3.864 -0.5064  0.2483 -0.5881
  384MOL0     O52913   4.079   4.131   3.844  0.0439  0.0668 -0.2850
  384MOL0     C52914   4.164   4.073   3.944  0.1094 -0.2427 -0.2698
  384MOL0     C52915   4.306   4.105   3.927  0.6298  0.1850  0.2798
  384MOL0     C52916   4.322   4.260   3.940 -0.6449 -0.1112  0.1996
  384MOL0     C52917   4.459   4.296   3.996 -0.3106  0.5154 -0.2662
  384MOL0     C52918   4.556   4.230   3.904 -0.2925  0.2953 -0.2615
  384MOL0     C52919   4.640   4.192   3.828  0.3777  1.1770 -0.7183
  384MOL0     C52920   3.858   4.215   3.772  0.4451  0.9923 -0.6087
  384MOL0     C52921   3.729   4.230   3.807  0.6598  0.5338 -0.2156
  384MOL0     C52922   3.647   4.300   3.701  0.3265 -0.0122  0.0235
  384MOL0     H52923   3.241   4.045   3.755  1.0789 -2.4179  1.5241
  384MOL0     H52924   3.001   4.049   3.829  0.3096 -0.8776  0.7127
  384MOL0     H52925   2.854   4.403   3.925 -0.5898  2.1921  1.5943
  384MOL0     H52926   2.886   4.401   4.099  1.8704  0.4507 -0.3609
  384MOL0     H52927   2.659   4.292   3.934  2.4692 -2.2183  0.5078
  384MOL0     H52928   2.682   4.236   4.095 -0.4979 -0.1054 -0.5983
  384MOL0     H52929   2.534   4.450   4.090 -0.3471 -0.1498 -2.6947
  384MOL0     H52930   2.680   4.482   4.193 -1.8748 -0.5397  1.6304
  384MOL0     H52931   2.638   4.673   4.038 -2.1969 -0.2498  0.5033
  384MOL0     H52932   2.782   4.593   3.988  0.5612 -0.0634 -1.1746
  384MOL0     H52933   2.529   4.525   3.830  0.7417 -0.7961 -3.2018
  384MOL0     H52934   2.685   4.507   3.789  0.3920  0.7702 -0.7327
  384MOL0     H52935   2.559   4.787   3.859  2.1366 -1.3949  2.9436
  384MOL0     H52936   2.704   4.769   3.769  0.7150  1.1090  1.3596
  384MOL0     H52937   2.425   4.679   3.689 -0.2382  2.2830  0.1050
  384MOL0     H52938   2.557   4.619   3.595 -0.9022 -1.0821  0.9338
  384MOL0     H52939   2.419   4.828   3.510  1.1633  2.5819 -1.5952
  384MOL0     H52940   2.484   4.911   3.657  0.5097 -0.5056  0.3631
  384MOL0     H52941   2.726   5.041   3.611 -2.0139  0.8507 -0.9958
  384MOL0     H52942   2.997   4.970   3.576  2.4307  1.2856 -1.1880
  384MOL0     H52943   2.962   5.090   3.444 -1.7185  1.7277  4.2156
  384MOL0     H52944   3.052   4.813   3.374 -1.7049  0.4731 -0.8098
  384MOL0     H52945   3.063   4.955   3.278 -1.4434  1.2033 -0.7360
  384MOL0     H52946   3.260   5.037   3.401 -1.1456  0.3096  0.6309
  384MOL0     H52947   3.217   4.957   3.548 -0.6346  1.7276 -0.0166
  384MOL0     H52948   3.265   4.735   3.461 -1.3303  0.9876  1.1987
  384MOL0     H52949   3.329   4.809   3.309 -2.5397 -0.5362 -0.7529
  384MOL0     H52950   3.659   4.955   3.530 -0.8267  0.6773 -1.7122
  384MOL0     H52951   3.988   4.815   3.463 -1.4378 -1.1909 -0.3454
  384MOL0     H52952   3.924   4.878   3.619 -1.4014  1.8987  0.1517
  384MOL0     H52953   3.881   4.959   3.473 -0.6140  1.4943  3.1182
  384MOL0     H52954   4.086   4.322   3.640 -1.8901  2.3414 -0.5841
  384MOL0     H52955   4.301   4.225   3.596 -0.0506 -0.8364  0.1692
  384MOL0     H52956   4.580   4.240   3.565 -2.2999  0.4624  0.8249
  384MOL0     H52957   4.455   4.120   3.505  0.5582 -1.5668 -0.5125
  384MOL0     H52958   4.674   4.191   3.316 -0.2026  1.4464  1.2603
  384MOL0     H52959   4.692   4.059   3.428 -0.3915 -0.9585 -0.5195
  384MOL0     H52960   4.436   4.081   3.246 -0.5383  0.8025  1.1457
  384MOL0     H52961   4.475   3.950   3.357 -0.6036  0.6327 -0.0649
  384MOL0     H52962   4.689   3.908   3.214  1.7579  2.8205 -0.5042
  384MOL0     H52963   4.632   4.041   3.115  1.5896  1.0721  0.6657
  384MOL0     H52964   4.487   3.778   3.163  1.4960  1.4931  1.1125
  384MOL0     H52965   4.411   3.913   3.070  0.6207 -0.5887 -1.4127
  384MOL0     H52966   4.652   3.731   3.007 -3.4183 -3.1614 -1.9293
  384MOL0     H52967   4.637   3.897   2.929  1.9727 -1.6345 -0.7309
  384MOL0     H52968   4.442   3.835   2.820 -3.6932 -2.5296 -0.7156
  384MOL0     H52969   4.426   3.684   2.886  0.6358 -0.6079  0.2679
  384MOL0     H52970   4.514   3.686   2.672 -0.4403 -1.0958  2.1293
  384MOL0     H52971   4.649   3.625   2.779  0.9605 -0.1828 -0.6821
  384MOL0     H52972   4.406   4.550   3.352 -0.7315  0.3671 -1.0613
  384MOL0     H52973   4.180   4.659   3.407 -0.7312  0.7587  4.0004
  384MOL0     H52974   3.638   4.474   3.410 -1.3321 -1.0435  2.8387
  384MOL0     H52975   3.437   4.598   3.435  0.9243 -2.4205 -0.3986
  384MOL0     H52976   3.090   4.355   4.108 -0.2007 -0.6459  0.7364
  384MOL0     H52977   3.322   4.362   4.037 -1.1584  0.9172  1.1735
  384MOL0     H52978   3.712   4.035   4.089  0.5394  1.6895  1.6092
  384MOL0     H52979   3.940   4.005   4.033  0.8968  0.8357  0.3100
  384MOL0     H52980   4.139   4.108   4.044  1.6622  3.0455 -0.8811
  384MOL0     H52981   4.155   3.964   3.937 -0.9807 -0.0590 -2.7571
  384MOL0     H52982   4.330   4.062   3.829  2.0578 -0.5447  0.9043
  384MOL0     H52983   4.354   4.053   4.010 -2.5054 -2.1543  0.7955
  384MOL0     H52984   4.328   4.309   3.842  0.2356  0.1231  0.3667
  384MOL0     H52985   4.234   4.302   3.991 -0.2293 -1.7346  2.4055
  384MOL0     H52986   4.474   4.251   4.094 -2.4742  0.3984  0.0645
  384MOL0     H52987   4.480   4.403   3.984  3.2014 -0.2622 -2.6929
  384MOL0     H52988   4.715   4.149   3.765 -0.6180 -0.8027 -0.6238
  384MOL0     H52989   3.902   4.254   3.680 -3.7005 -0.1836 -3.3410
  384MOL0     H52990   3.700   4.376   3.642 -0.1543 -1.9294 -3.1464
  384MOL0     H52991   3.612   4.230   3.624 -1.2067  0.0659  0.6196
  384MOL0     H52992   3.557   4.346   3.741  0.2538 -0.6337  0.5818
  385MOL0     O52993   0.814  10.300  10.729 -1.1068 -0.1739 -0.8529
  385MOL0     C52994   0.808  10.293  10.608 -0.7151 -0.4235  0.5756
  385MOL0     O52995   0.794  10.399  10.517 -0.0821  0.4384  0.5891
  385MOL0     C52996   0.818  10.535  10.553 -0.3782 -0.3756  0.5602
  385MOL0     C52997   0.855  10.613  10.442  0.8714  0.0747  0.6594
  385MOL0     C52998   0.856  10.755  10.455  0.3788  1.0006 -0.4582
  385MOL0     C52999   0.852  10.812  10.587  0.0040 -0.7591 -0.1947
  385MOL0     O53000   0.880  10.940  10.588  0.6696 -0.8281  0.2248
  385MOL0     C53001   0.924  11.005  10.711  0.5012 -0.1110  0.6522
  385MOL0     C53002   0.975  11.150  10.680  0.5099 -0.6552  0.7228
  385MOL0     C53003   1.043  11.216  10.802 -0.5987 -0.7765 -1.0783
  385MOL0     C53004   1.186  11.167  10.826 -0.2075 -0.2167 -0.5074
  385MOL0     C53005   1.256  11.231  10.953 -1.1976 -0.2328 -0.3302
  385MOL0     C53006   1.404  11.201  10.977 -0.1132 -0.2999 -0.6610
  385MOL0     C53007   1.449  11.258  11.104 -0.9276  0.3774 -0.3474
  385MOL0     C53008   1.607  11.259  11.111 -0.1277  0.0741 -0.9928
  385MOL0     N53009   1.658  11.286  11.246  0.3015  1.5810  0.0185
  385MOL0     C53010   1.657  11.203  11.362  0.3952  0.2350 -0.3845
  385MOL0     C53011   1.706  11.281  11.461  0.6041 -0.2999 -0.0438
  385MOL0     C53012   1.725  11.234  11.591 -1.2994  0.4584  0.0410
  385MOL0     C53013   1.870  11.260  11.634  0.8105 -0.2896  0.4635
  385MOL0     C53014   1.978  11.205  11.541  0.2396 -0.0809  0.5166
  385MOL0     C53015   2.116  11.267  11.573 -0.5647  0.8039  0.4738
  385MOL0     O53016   2.155  11.227  11.706 -0.2207 -0.5920 -0.3272
  385MOL0     C53017   2.282  11.271  11.752  0.2735 -0.1317  1.2219
  385MOL0     C53018   2.356  11.383  11.699 -0.1517  0.3735 -0.2113
  385MOL0     C53019   2.483  11.420  11.746  0.8879  0.5844  0.2421
  385MOL0     C53020   2.551  11.534  11.675 -0.6411  0.2096 -0.5152
  385MOL0     C53021   2.546  11.335  11.841 -0.4343 -0.2873 -0.4159
  385MOL0     C53022   2.691  11.342  11.879 -0.2803 -0.7530  0.0253
  385MOL0     O53023   2.771  11.440  11.815  0.6755 -0.2929  0.3227
  385MOL0     C53024   2.902  11.432  11.852 -0.3876  1.0443 -0.0807
  385MOL0     C53025   2.930  11.488  11.969  0.6781  0.4279  0.1347
  385MOL0     C53026   3.058  11.490  12.028  0.0559 -0.4447 -0.3172
  385MOL0     C53027   3.162  11.432  11.957  0.4002  0.4880  0.0244
  385MOL0     O53028   3.293  11.443  11.986 -0.4478 -0.3532  0.1005
  385MOL0     C53029   3.332  11.529  12.095  0.7033 -0.6651 -0.5443
  385MOL0     C53030   3.485  11.535  12.100  0.0889  0.3590 -0.0432
  385MOL0     C53031   3.549  11.660  12.043 -0.2278  0.6457  0.0404
  385MOL0     C53032   3.696  11.658  12.077  0.6591 -0.1231 -0.2682
  385MOL0     C53033   3.772  11.791  12.041 -0.4534 -0.1795 -0.1325
  385MOL0     C53034   3.914  11.779  12.098  0.7887  0.5731 -0.5640
  385MOL0     C53035   3.995  11.906  12.073 -0.1011  0.2379 -0.0157
  385MOL0     C53036   4.075  11.891  11.943 -0.2187 -0.2653  0.4043
  385MOL0    Cl53037   4.227  11.795  11.970  0.1849  0.2186 -0.1806
  385MOL0     C53038   3.143  11.382  11.838 -0.1581  0.4790  0.2798
  385MOL0     C53039   3.010  11.370  11.785 -0.1151 -0.9273 -0.9290
  385MOL0     O53040   2.727  11.258  11.963 -0.7705 -0.6793 -0.6867
  385MOL0     C53041   2.457  11.239  11.909 -1.0209 -0.6276  0.2578
  385MOL0     C53042   2.334  11.209  11.869  0.3206 -0.1050  0.8609
  385MOL0     N53043   1.722  11.405  11.403 -0.2033 -0.8124 -1.1260
  385MOL0     N53044   1.701  11.415  11.284  0.5911 -0.0914  0.0511
  385MOL0     C53045   0.821  10.729  10.693 -0.1806 -0.0669  0.2656
  385MOL0     C53046   0.805  10.593  10.678  0.1288 -0.3255 -0.3491
  385MOL0     C53047   0.804  10.158  10.535 -0.0409 -0.8374 -0.7795
  385MOL0     C53048   0.710  10.160  10.435 -1.1834  1.0552  0.5847
  385MOL0     C53049   0.709  10.055  10.342  1.2572  0.6158 -0.6624
  385MOL0     C53050   0.783   9.937  10.361  0.8142  0.5618  0.1411
  385MOL0     O53051   0.779   9.831  10.269  0.2926 -0.2782 -0.3638
  385MOL0     C53052   0.655   9.822  10.195 -0.2441  0.1898 -0.1003
  385MOL0     C53053   0.636   9.687  10.138 -0.7958 -0.0514 -0.9831
  385MOL0     C53054   0.749   9.658  10.035 -0.7228  0.0353 -0.8501
  385MOL0     C53055   0.699   9.565   9.924  0.4477  0.2144  0.7343
  385MOL0     C53056   0.763   9.428   9.938  0.1135  0.3697  0.6861
  385MOL0     C53057   0.821   9.323   9.961  0.1683  0.5323  0.6433
  385MOL0     C53058   0.870   9.927  10.466 -0.4628 -0.4079 -0.3588
  385MOL0     C53059   0.882  10.041  10.552 -0.7860  0.1353  0.1837
  385MOL0     C53060   0.986  10.021  10.661 -0.2489  0.8603  0.0179
  385MOL0     H53061   0.860  10.575  10.341  0.3832 -0.2024  0.7354
  385MOL0     H53062   0.871  10.805  10.360  2.3181  1.5808  0.1046
  385MOL0     H53063   1.002  10.942  10.757  1.2930 -0.7803 -1.4896
  385MOL0     H53064   0.839  11.016  10.779 -1.0295 -0.9847 -1.0553
  385MOL0     H53065   1.042  11.143  10.593  1.9267  1.9409  1.5042
  385MOL0     H53066   0.895  11.216  10.645 -0.2921 -0.3707  2.9387
  385MOL0     H53067   1.057  11.324  10.808  3.1393 -1.1987  2.2666
  385MOL0     H53068   0.981  11.195  10.890  3.1591 -1.8017  1.5894
  385MOL0     H53069   1.184  11.058  10.838 -1.2299 -0.1818 -0.1892
  385MOL0     H53070   1.254  11.188  10.743 -0.2464  0.1755 -0.4403
  385MOL0     H53071   1.202  11.206  11.044  1.4486 -0.5746  1.2637
  385MOL0     H53072   1.240  11.339  10.947  1.2834  0.3347  1.7661
  385MOL0     H53073   1.424  11.093  10.972 -0.4151 -0.3143 -1.6014
  385MOL0     H53074   1.455  11.242  10.890  2.6494  0.4534  1.1750
  385MOL0     H53075   1.417  11.196  11.188  0.3709  2.4643  1.8337
  385MOL0     H53076   1.407  11.357  11.127 -1.2914  0.3810 -0.9984
  385MOL0     H53077   1.643  11.157  11.100  2.5472  0.8240 -0.0172
  385MOL0     H53078   1.656  11.325  11.039  0.5830  0.1957 -0.4084
  385MOL0     H53079   1.616  11.104  11.378 -0.4348  0.8263  1.4357
  385MOL0     H53080   1.696  11.129  11.598 -2.0680  0.5000 -1.8573
  385MOL0     H53081   1.655  11.284  11.659 -2.0385 -0.9427  0.3525
  385MOL0     H53082   1.888  11.367  11.650  1.7031 -0.6257  1.9615
  385MOL0     H53083   1.886  11.224  11.737  0.8327  0.2294  0.6449
  385MOL0     H53084   1.963  11.098  11.558  0.8945 -0.2411  0.0813
  385MOL0     H53085   1.959  11.249  11.443  0.2597  1.1912  1.0484
  385MOL0     H53086   2.193  11.221  11.511 -1.8323 -1.3296  0.3786
  385MOL0     H53087   2.113  11.376  11.559  1.9559  1.0925  1.6610
  385MOL0     H53088   2.317  11.452  11.624  2.0185  2.0023  0.0289
  385MOL0     H53089   2.587  11.605  11.750  0.4447 -2.6192  1.8020
  385MOL0     H53090   2.502  11.600  11.602  5.0387  2.1716 -3.2304
  385MOL0     H53091   2.636  11.501  11.615  0.3276 -0.0496  0.9457
  385MOL0     H53092   2.862  11.562  12.009  1.2914  1.5982 -0.9489
  385MOL0     H53093   3.060  11.543  12.122 -0.6720  0.2636 -0.6885
  385MOL0     H53094   3.293  11.630  12.081  0.3431 -0.4875  1.4825
  385MOL0     H53095   3.283  11.503  12.189 -1.5267  0.7112 -1.2727
  385MOL0     H53096   3.500  11.528  12.208 -0.4094 -0.3867 -0.0136
  385MOL0     H53097   3.526  11.440  12.064 -1.3706 -0.7736  1.1531
  385MOL0     H53098   3.496  11.747  12.082 -0.4312 -0.0865  1.4413
  385MOL0     H53099   3.538  11.660  11.934 -0.5181  1.9886  0.0576
  385MOL0     H53100   3.740  11.575  12.022 -0.6634 -1.8139  1.1296
  385MOL0     H53101   3.707  11.647  12.185 -0.0999  0.5281 -0.1142
  385MOL0     H53102   3.767  11.811  11.934  2.6393  0.6782 -0.2044
  385MOL0     H53103   3.725  11.875  12.092  0.6579  0.0091  0.6066
  385MOL0     H53104   3.970  11.691  12.065  0.8074  1.0518 -1.8848
  385MOL0     H53105   3.893  11.774  12.205  0.2269  0.9805 -0.6518
  385MOL0     H53106   4.071  11.922  12.151  0.8309  1.2501 -1.0976
  385MOL0     H53107   3.929  11.993  12.067 -0.2793  0.1118  0.1115
  385MOL0     H53108   4.096  11.994  11.915  0.7153 -0.7982 -0.9838
  385MOL0     H53109   4.014  11.827  11.878 -1.8917  1.4337  0.2351
  385MOL0     H53110   3.229  11.345  11.782 -0.4551 -2.4964  1.5894
  385MOL0     H53111   2.999  11.326  11.687  3.3435 -2.6326 -0.6815
  385MOL0     H53112   2.489  11.194  12.003  0.8388  1.1570  0.5331
  385MOL0     H53113   2.270  11.145  11.928  1.5067 -1.2550  0.9366
  385MOL0     H53114   0.795  10.774  10.788  1.0933  3.5164 -0.9037
  385MOL0     H53115   0.762  10.540  10.762 -0.0775 -2.5956 -1.8066
  385MOL0     H53116   0.636  10.239  10.428 -3.6397 -1.1872 -0.8270
  385MOL0     H53117   0.641  10.069  10.259 -1.4097 -0.5341  1.1797
  385MOL0     H53118   0.571   9.847  10.261 -0.0298  3.4623 -0.8774
  385MOL0     H53119   0.646   9.896  10.115 -0.1053  0.3948  0.0725
  385MOL0     H53120   0.533   9.687  10.100 -1.1367  0.8220 -0.1073
  385MOL0     H53121   0.637   9.617  10.222 -2.7225  1.8019  0.7050
  385MOL0     H53122   0.763   9.745   9.969  0.5131  0.1515 -0.4459
  385MOL0     H53123   0.844   9.644  10.086 -2.1230 -1.6106  1.4992
  385MOL0     H53124   0.733   9.602   9.827  0.6093  0.1570  0.7688
  385MOL0     H53125   0.592   9.553   9.944  0.4391  0.2491  0.7082
  385MOL0     H53126   0.884   9.239   9.982  0.8499  0.5337 -1.1825
  385MOL0     H53127   0.952   9.857  10.477  1.7864  2.2181  0.9012
  385MOL0     H53128   1.023  10.117  10.699  1.5030 -0.2380  1.2264
  385MOL0     H53129   0.936   9.976  10.747 -0.4459 -0.7343 -0.8884
  385MOL0     H53130   1.070   9.956  10.636  0.6472  0.9036  2.5838
  386MOL0     O53131   0.514   7.245   6.398  0.5246  0.0441  0.7732
  386MOL0     C53132   0.533   7.299   6.505  0.5494  0.0867 -0.5382
  386MOL0     O53133   0.458   7.282   6.623  0.0959  0.8720 -0.0489
  386MOL0     C53134   0.345   7.204   6.621  0.6993 -0.3371  0.9751
  386MOL0     C53135   0.337   7.071   6.571  0.2471 -0.1754  0.2715
  386MOL0     C53136   0.214   7.002   6.578  0.6460  0.5649 -0.2035
  386MOL0     C53137   0.102   7.058   6.642 -0.4514 -0.8309 -0.1880
  386MOL0     O53138  -0.017   6.988   6.670  0.1965 -0.9378  0.4278
  386MOL0     C53139  -0.027   6.847   6.636 -0.2115 -0.2151 -0.7544
  386MOL0     C53140   0.049   6.757   6.733  0.0882  0.0141  0.4838
  386MOL0     C53141  -0.010   6.741   6.882 -0.2999  0.5083  0.5681
  386MOL0     C53142  -0.015   6.864   6.975  0.4298 -0.4544 -0.0789
  386MOL0     C53143   0.121   6.925   7.010 -0.4000 -0.8223  0.0348
  386MOL0     C53144   0.195   6.830   7.103 -0.2500  0.3277 -0.2724
  386MOL0     C53145   0.340   6.870   7.148  0.5731  0.7607  0.4735
  386MOL0     C53146   0.380   6.811   7.286 -0.7858  0.2646 -0.9845
  386MOL0     N53147   0.467   6.701   7.262  0.0971  0.8063 -0.7946
  386MOL0     C53148   0.601   6.705   7.294  0.1571 -0.2244  0.2163
  386MOL0     C53149   0.662   6.589   7.267  1.2671  0.5424 -0.1148
  386MOL0     C53150   0.803   6.559   7.298  0.2204 -0.7724  0.2502
  386MOL0     C53151   0.884   6.547   7.166 -0.6812  0.5682  0.3909
  386MOL0     C53152   0.882   6.676   7.075 -0.1195 -0.2746 -0.4786
  386MOL0     C53153   1.002   6.772   7.107 -0.0727  0.2091 -0.1373
  386MOL0     O53154   0.978   6.846   7.225  0.4565 -0.2281 -0.4474
  386MOL0     C53155   1.078   6.932   7.274  0.8754 -1.4151 -0.1002
  386MOL0     C53156   1.036   7.014   7.373 -0.4022 -0.7346  0.6050
  386MOL0     C53157   1.103   7.118   7.424 -0.3220 -0.0898  0.5014
  386MOL0     C53158   1.041   7.209   7.535  0.4137  0.1278  0.4185
  386MOL0     C53159   1.237   7.138   7.370  0.1213  0.7489 -1.0063
  386MOL0     C53160   1.318   7.253   7.413 -0.8286 -0.5077 -0.0542
  386MOL0     O53161   1.457   7.240   7.420 -0.2564 -0.6354  0.0250
  386MOL0     C53162   1.522   7.349   7.466 -0.1297 -0.1246  0.7605
  386MOL0     C53163   1.560   7.462   7.389 -0.4594 -0.3019  0.0590
  386MOL0     C53164   1.627   7.575   7.445 -0.0397  1.2031 -0.1639
  386MOL0     C53165   1.658   7.568   7.581  0.1617 -0.1106  0.2702
  386MOL0     O53166   1.716   7.668   7.646 -0.3461 -0.4983 -0.1144
  386MOL0     C53167   1.693   7.800   7.588  0.4137  0.4298  0.1705
  386MOL0     C53168   1.731   7.908   7.692  0.8940 -0.4487 -0.4786
  386MOL0     C53169   1.650   7.896   7.824 -0.0025  0.1323 -0.3458
  386MOL0     C53170   1.503   7.910   7.823 -0.4589 -0.8405  0.2082
  386MOL0     C53171   1.470   7.907   7.970 -0.2619  0.3348 -0.2286
  386MOL0     C53172   1.320   7.917   7.991  0.0376 -0.4412 -0.4314
  386MOL0     C53173   1.283   7.877   8.130 -0.4279  0.6856  0.8085
  386MOL0     C53174   1.128   7.904   8.161  0.5172 -0.0317  0.0612
  386MOL0    Cl53175   1.091   7.842   8.327  0.0140  0.3101  0.3506
  386MOL0     C53176   1.643   7.444   7.654 -0.3069 -0.2169  0.3529
  386MOL0     C53177   1.579   7.338   7.595 -0.2229  0.8857  0.0253
  386MOL0     O53178   1.262   7.364   7.437  0.9857  0.0136 -0.2445
  386MOL0     C53179   1.281   7.049   7.275 -0.0728  0.3055  0.0047
  386MOL0     C53180   1.207   6.938   7.225 -1.2552 -0.6046 -0.5627
  386MOL0     N53181   0.564   6.506   7.213  0.1993  0.5618  0.4568
  386MOL0     N53182   0.448   6.580   7.204  0.1489 -0.6187  0.4866
  386MOL0     C53183   0.108   7.192   6.685  0.1915  0.0285  0.4284
  386MOL0     C53184   0.228   7.270   6.673  0.2375  0.1119 -0.7076
  386MOL0     C53185   0.660   7.385   6.527  0.3656 -0.5765  0.1072
  386MOL0     C53186   0.702   7.413   6.659  1.2283 -0.6080  0.1638
  386MOL0     C53187   0.802   7.498   6.684  0.1169  0.8744 -0.0468
  386MOL0     C53188   0.878   7.543   6.580 -0.4795  0.0795  0.2871
  386MOL0     O53189   0.993   7.598   6.625  0.2503 -0.3944  0.1592
  386MOL0     C53190   1.097   7.651   6.538 -0.0389 -0.0007  0.2366
  386MOL0     C53191   1.200   7.544   6.502  0.0742  0.4205 -0.6106
  386MOL0     C53192   1.286   7.563   6.376 -0.2247 -0.2825  0.7222
  386MOL0     C53193   1.354   7.706   6.365  0.6156 -0.2885  0.3887
  386MOL0     C53194   1.469   7.702   6.449 -0.6432 -0.0902  0.5246
  386MOL0     C53195   1.556   7.693   6.538  0.4272 -0.3120 -0.3323
  386MOL0     C53196   0.849   7.521   6.448 -0.1288 -0.2404  0.9153
  386MOL0     C53197   0.740   7.436   6.417 -1.0156  0.1471 -0.5719
  386MOL0     C53198   0.717   7.410   6.267 -0.3502 -0.2921  0.3049
  386MOL0     H53199   0.416   7.022   6.516 -1.4653 -1.1256 -1.4705
  386MOL0     H53200   0.202   6.905   6.530  2.0270  0.0890  0.3822
  386MOL0     H53201  -0.005   6.827   6.531 -1.6378  0.7649 -1.2681
  386MOL0     H53202  -0.132   6.817   6.650 -0.5347  0.9096 -0.6818
  386MOL0     H53203   0.051   6.660   6.682  1.4620  0.5431 -0.5347
  386MOL0     H53204   0.156   6.782   6.737  0.2879 -0.6323 -0.4154
  386MOL0     H53205  -0.108   6.694   6.872 -0.0394  0.4140 -2.5975
  386MOL0     H53206   0.047   6.660   6.929 -0.6150  0.4473  0.8483
  386MOL0     H53207  -0.060   6.932   6.903  0.1186 -1.7327 -1.1209
  386MOL0     H53208  -0.087   6.848   7.056 -2.0553 -0.5207 -2.1755
  386MOL0     H53209   0.107   7.020   7.063  0.1281 -0.0863 -1.1046
  386MOL0     H53210   0.163   6.950   6.913 -0.8641 -0.8393 -0.1746
  386MOL0     H53211   0.140   6.827   7.198  0.8421 -1.6019  0.3633
  386MOL0     H53212   0.213   6.737   7.047 -0.7382  1.9815 -3.4235
  386MOL0     H53213   0.359   6.977   7.161 -0.7460  0.8618  1.9574
  386MOL0     H53214   0.406   6.835   7.068 -0.6908 -0.0169 -0.2733
  386MOL0     H53215   0.439   6.889   7.337  1.2758 -0.5407 -2.0044
  386MOL0     H53216   0.294   6.781   7.346  0.3954 -1.2319  0.0399
  386MOL0     H53217   0.657   6.787   7.338 -1.1485  1.2760 -0.8191
  386MOL0     H53218   0.813   6.465   7.353 -3.4392 -0.6115  1.4617
  386MOL0     H53219   0.850   6.644   7.348  0.1568  0.5145 -1.7514
  386MOL0     H53220   0.987   6.543   7.204  0.3843  2.1324 -2.1165
  386MOL0     H53221   0.869   6.454   7.110  1.1980  1.0978 -1.1139
  386MOL0     H53222   0.889   6.645   6.970  1.1399 -0.6075 -0.3157
  386MOL0     H53223   0.788   6.724   7.104 -0.4463 -1.7098  0.9851
  386MOL0     H53224   1.092   6.711   7.112  0.7513  1.3051 -0.9944
  386MOL0     H53225   1.005   6.835   7.017 -2.6806  1.4153  0.4980
  386MOL0     H53226   0.937   6.988   7.410  0.6070 -1.6167  2.8877
  386MOL0     H53227   1.024   7.312   7.502  0.2375 -0.4947 -1.5798
  386MOL0     H53228   1.098   7.220   7.627  1.4946  2.7194 -0.4594
  386MOL0     H53229   0.946   7.165   7.567 -0.0481  0.1716 -0.8409
  386MOL0     H53230   1.513   7.458   7.291 -1.4482 -3.2452  0.5763
  386MOL0     H53231   1.643   7.655   7.373 -2.1869  0.9086 -1.0382
  386MOL0     H53232   1.762   7.819   7.505  0.2588  2.2399  0.4197
  386MOL0     H53233   1.587   7.818   7.567 -0.8003 -0.7554  4.3229
  386MOL0     H53234   1.836   7.897   7.718  0.8413  2.4690  1.3523
  386MOL0     H53235   1.719   8.008   7.649 -0.6806 -1.2128 -1.9597
  386MOL0     H53236   1.691   7.973   7.890  0.8853 -0.1771 -0.5207
  386MOL0     H53237   1.690   7.806   7.872  0.4864  0.8495  0.6413
  386MOL0     H53238   1.455   7.819   7.787  0.4856 -1.5343  0.6736
  386MOL0     H53239   1.472   8.007   7.783  1.1887 -0.5757 -0.5109
  386MOL0     H53240   1.507   7.812   8.012  1.9035  2.0550  2.0645
  386MOL0     H53241   1.517   7.986   8.029  2.1936  1.4161 -3.3965
  386MOL0     H53242   1.256   7.862   7.921 -2.5991  0.9037  0.7773
  386MOL0     H53243   1.288   8.020   7.973  2.0001  1.0111  3.4489
  386MOL0     H53244   1.358   7.911   8.202 -0.1988  1.4908  0.2044
  386MOL0     H53245   1.283   7.767   8.129 -1.0024  0.6692 -0.9249
  386MOL0     H53246   1.067   7.864   8.081  1.6126  0.3870 -1.0165
  386MOL0     H53247   1.111   8.012   8.163  0.1402 -0.0818 -0.3887
  386MOL0     H53248   1.689   7.429   7.751  2.6862  2.0191 -0.5551
  386MOL0     H53249   1.573   7.242   7.645 -0.7992  0.9007 -0.0058
  386MOL0     H53250   1.377   7.076   7.233 -1.1076  2.9049 -0.8762
  386MOL0     H53251   1.249   6.883   7.141  0.9475 -1.4885  1.0391
  386MOL0     H53252   0.024   7.239   6.736  0.0347  0.4632 -0.2158
  386MOL0     H53253   0.242   7.371   6.711 -1.2383  0.6434 -1.5138
  386MOL0     H53254   0.649   7.368   6.742  1.5510  0.6449  1.0839
  386MOL0     H53255   0.839   7.520   6.784  0.6666 -3.4274  0.8601
  386MOL0     H53256   1.049   7.687   6.446  3.2571  2.3667 -0.7320
  386MOL0     H53257   1.150   7.739   6.574  0.8086 -0.6827  0.6974
  386MOL0     H53258   1.145   7.450   6.488  0.5005  0.0122  0.3884
  386MOL0     H53259   1.273   7.531   6.581  1.4552 -1.3600 -2.0967
  386MOL0     H53260   1.368   7.493   6.358  0.3666  0.2388  1.3058
  386MOL0     H53261   1.232   7.552   6.281 -0.5659  0.9927  0.7477
  386MOL0     H53262   1.293   7.791   6.397  0.4587 -0.7541  1.3846
  386MOL0     H53263   1.379   7.731   6.262  1.1643  1.2994  0.8782
  386MOL0     H53264   1.636   7.688   6.609 -0.0003 -0.0098  0.1818
  386MOL0     H53265   0.918   7.541   6.367  0.7070  3.3196  2.3559
  386MOL0     H53266   0.635   7.475   6.235 -1.6633 -1.3351  1.4284
  386MOL0     H53267   0.791   7.457   6.202 -1.4777  1.4991  0.2609
  386MOL0     H53268   0.703   7.306   6.236 -2.9145  0.6228 -1.9332
  387MOL0     O53269   2.481   7.726   7.497  0.2859  0.0631  0.1313
  387MOL0     C53270   2.579   7.681   7.557 -0.3313 -0.9129 -0.3162
  387MOL0     O53271   2.615   7.542   7.566  0.5294  0.3718 -0.0016
  387MOL0     C53272   2.565   7.477   7.449  0.3149  0.3855 -1.0642
  387MOL0     C53273   2.652   7.458   7.342 -0.5534  0.2271 -0.0929
  387MOL0     C53274   2.614   7.382   7.238  0.3448  0.5888  0.3085
  387MOL0     C53275   2.480   7.338   7.231 -0.3002  0.6297  0.9706
  387MOL0     O53276   2.443   7.257   7.125  0.4882 -0.4222 -0.1734
  387MOL0     C53277   2.527   7.202   7.031  0.0366  0.3199  0.0769
  387MOL0     C53278   2.458   7.127   6.919 -0.4798 -0.1846 -0.1764
  387MOL0     C53279   2.343   7.206   6.861  0.7199 -0.0230 -0.0846
  387MOL0     C53280   2.278   7.119   6.749  0.5022  0.0423  1.0959
  387MOL0     C53281   2.129   7.141   6.745  0.0494 -0.2987 -0.8563
  387MOL0     C53282   2.070   7.085   6.622 -1.2816 -0.9697  0.8308
  387MOL0     C53283   1.921   7.122   6.606  0.2612  0.1420 -0.4256
  387MOL0     C53284   1.822   7.059   6.697  0.5948 -0.2850 -0.8458
  387MOL0     N53285   1.817   6.915   6.686  0.5013  0.2568  0.5164
  387MOL0     C53286   1.825   6.839   6.566 -0.6171 -0.3479  0.6187
  387MOL0     C53287   1.854   6.710   6.602  0.8905 -0.6355  0.9273
  387MOL0     C53288   1.901   6.590   6.510 -1.4973 -0.3136 -0.3694
  387MOL0     C53289   1.801   6.479   6.523 -0.2457  0.3828  0.0089
  387MOL0     C53290   1.833   6.362   6.429  0.1750 -0.4898 -0.6885
  387MOL0     C53291   1.735   6.243   6.446  0.4454  0.7567 -0.2549
  387MOL0     O53292   1.776   6.136   6.343 -0.4471  0.2137 -0.2886
  387MOL0     C53293   1.881   6.057   6.384 -0.0967 -0.0664 -0.0901
  387MOL0     C53294   1.956   6.054   6.504  0.0449 -0.3526  0.5910
  387MOL0     C53295   2.067   5.964   6.516 -0.6670  1.0682 -1.2568
  387MOL0     C53296   2.138   5.967   6.650  0.5678 -0.1391 -0.0773
  387MOL0     C53297   2.103   5.873   6.408 -0.0779 -1.5043  0.2423
  387MOL0     C53298   2.223   5.787   6.416  0.0851  0.5188 -0.4910
  387MOL0     O53299   2.325   5.837   6.502  0.0047 -0.8342 -0.0329
  387MOL0     C53300   2.437   5.763   6.524  1.0182  0.8472 -0.1168
  387MOL0     C53301   2.458   5.680   6.643  0.2530 -0.7039  0.5027
  387MOL0     C53302   2.588   5.628   6.672  0.8396  0.0138  0.0421
  387MOL0     C53303   2.697   5.654   6.589 -0.0730 -0.0348  0.8943
  387MOL0     O53304   2.820   5.603   6.604 -0.7154 -0.0382  0.4513
  387MOL0     C53305   2.848   5.525   6.724  0.1109 -0.6091 -0.5721
  387MOL0     C53306   3.000   5.492   6.733 -0.1766 -0.2439 -0.5398
  387MOL0     C53307   3.066   5.562   6.853  0.0570  0.2760 -0.6703
  387MOL0     C53308   3.218   5.568   6.834 -0.6693  0.1926 -0.4620
  387MOL0     C53309   3.287   5.646   6.953 -0.1172  0.0701  0.3996
  387MOL0     C53310   3.279   5.804   6.938 -0.3453  1.5184 -0.1357
  387MOL0     C53311   3.336   5.870   7.058  0.9052 -0.3034 -0.8757
  387MOL0     C53312   3.291   6.015   7.072 -0.1143 -0.4890 -0.3974
  387MOL0    Cl53313   3.378   6.106   6.945  0.3764  0.0033  0.2283
  387MOL0     C53314   2.679   5.738   6.477  1.0234 -0.4650  0.1217
  387MOL0     C53315   2.550   5.793   6.449 -0.0890  0.8835  0.1380
  387MOL0     O53316   2.232   5.680   6.360 -0.0381  0.0909  0.1139
  387MOL0     C53317   2.016   5.877   6.293 -0.4469  0.4698  0.2047
  387MOL0     C53318   1.907   5.962   6.287  0.7680 -0.3843 -0.7414
  387MOL0     N53319   1.841   6.707   6.735 -0.2436  1.5386 -0.8466
  387MOL0     N53320   1.810   6.821   6.785 -0.4039 -0.3050 -0.7211
  387MOL0     C53321   2.391   7.360   7.335 -0.2768 -0.3488  0.7369
  387MOL0     C53322   2.436   7.434   7.445  0.3553  0.4771 -0.4779
  387MOL0     C53323   2.666   7.775   7.638  0.1316  1.1207 -0.2897
  387MOL0     C53324   2.771   7.727   7.720  0.3021 -0.5286  0.7107
  387MOL0     C53325   2.861   7.804   7.788  0.0041  0.2462  0.9724
  387MOL0     C53326   2.843   7.938   7.783 -0.1765 -0.7398 -0.6921
  387MOL0     O53327   2.952   8.008   7.834  0.1532 -0.9614 -0.1539
  387MOL0     C53328   2.940   8.152   7.864 -0.2495 -0.0023  0.8193
  387MOL0     C53329   3.073   8.212   7.905  0.0127 -0.2370 -0.4345
  387MOL0     C53330   3.122   8.288   7.779 -0.0799  0.3830 -0.9197
  387MOL0     C53331   3.240   8.386   7.804 -0.1604 -0.0183 -0.0895
  387MOL0     C53332   3.357   8.333   7.880  0.1150 -0.3537  0.8325
  387MOL0     C53333   3.452   8.294   7.939 -0.3529  0.3350 -0.1677
  387MOL0     C53334   2.730   7.998   7.720  0.2211  0.3915  0.2709
  387MOL0     C53335   2.644   7.914   7.649 -0.3118  0.0749  0.8532
  387MOL0     C53336   2.521   7.981   7.588 -0.1573 -0.6974 -0.6571
  387MOL0     H53337   2.756   7.489   7.345 -1.0309  1.8501  0.9419
  387MOL0     H53338   2.683   7.358   7.158 -1.2369  0.1794 -0.9696
  387MOL0     H53339   2.595   7.132   7.081  0.3276 -0.0763 -0.8652
  387MOL0     H53340   2.580   7.280   6.976  0.2873  1.5685  1.9955
  387MOL0     H53341   2.527   7.104   6.837  1.1037  2.7402  0.2082
  387MOL0     H53342   2.422   7.028   6.950 -3.7058  1.1272  0.5935
  387MOL0     H53343   2.271   7.226   6.940 -1.4126  1.7222 -2.2961
  387MOL0     H53344   2.364   7.300   6.809  1.3727 -1.4395 -2.5858
  387MOL0     H53345   2.314   7.149   6.650 -0.3008  0.7967  1.0141
  387MOL0     H53346   2.300   7.013   6.767  0.1860 -0.6985 -2.2125
  387MOL0     H53347   2.110   7.246   6.766  1.8748 -0.3049  1.1881
  387MOL0     H53348   2.095   7.084   6.833  1.4357  0.0015 -0.1001
  387MOL0     H53349   2.128   7.119   6.536 -0.5344  0.5495  1.8867
  387MOL0     H53350   2.091   6.977   6.618  0.4934 -0.6090 -0.2981
  387MOL0     H53351   1.889   7.101   6.504  1.4483 -0.9562 -0.5963
  387MOL0     H53352   1.913   7.231   6.613  0.3673  0.1595 -0.5664
  387MOL0     H53353   1.845   7.076   6.803 -0.3026  1.4859 -0.9011
  387MOL0     H53354   1.728   7.109   6.673 -0.3087 -0.8947  1.1922
  387MOL0     H53355   1.820   6.867   6.461  1.1195 -1.2740  0.2435
  387MOL0     H53356   1.994   6.568   6.562 -2.3642  0.8489  1.7956
  387MOL0     H53357   1.918   6.626   6.408 -1.2754  0.6449 -0.0035
  387MOL0     H53358   1.802   6.437   6.624  0.9619 -2.2585 -0.9828
  387MOL0     H53359   1.711   6.530   6.489  1.9853  2.6587 -3.0443
  387MOL0     H53360   1.818   6.395   6.326 -1.6963 -2.2230 -1.0251
  387MOL0     H53361   1.939   6.335   6.437  0.4452  0.9940  1.4387
  387MOL0     H53362   1.733   6.191   6.543 -0.5664 -0.4620 -0.8900
  387MOL0     H53363   1.635   6.286   6.432 -0.3677 -0.5434  1.1303
  387MOL0     H53364   1.940   6.133   6.576 -1.8604  1.3549 -1.5609
  387MOL0     H53365   2.074   6.017   6.724 -0.3128 -0.8138 -0.3681
  387MOL0     H53366   2.230   6.024   6.634 -0.2648  1.0037 -0.9991
  387MOL0     H53367   2.163   5.870   6.693  0.2039  0.7095  2.1984
  387MOL0     H53368   2.376   5.651   6.708  0.1745 -2.0247 -0.1594
  387MOL0     H53369   2.586   5.550   6.747 -0.9945  0.4894  0.5251
  387MOL0     H53370   2.819   5.573   6.818  0.3337 -1.4197 -0.0760
  387MOL0     H53371   2.790   5.432   6.720 -0.0022 -0.4992 -1.8815
  387MOL0     H53372   3.006   5.386   6.759 -0.7286  0.7214  4.7243
  387MOL0     H53373   3.053   5.506   6.638  2.7349  0.3697  1.0721
  387MOL0     H53374   3.052   5.508   6.947 -3.7517  0.8927 -0.7253
  387MOL0     H53375   3.037   5.667   6.861  1.0312  0.5016  0.1659
  387MOL0     H53376   3.256   5.601   6.737  3.3791 -0.5699  0.6893
  387MOL0     H53377   3.250   5.464   6.832 -2.9259 -0.5557 -1.0032
  387MOL0     H53378   3.238   5.617   7.047 -1.6730  0.1465 -0.3501
  387MOL0     H53379   3.390   5.612   6.967  0.1128  1.0993  1.4000
  387MOL0     H53380   3.172   5.825   6.936 -1.2627 -2.0824  2.2458
  387MOL0     H53381   3.329   5.837   6.846  1.3155 -3.3308 -1.2859
  387MOL0     H53382   3.443   5.849   7.059  0.8343 -0.7524 -2.0793
  387MOL0     H53383   3.300   5.824   7.151  0.0973  0.1950 -0.9301
  387MOL0     H53384   3.312   6.059   7.169  2.2398 -1.8515 -0.2034
  387MOL0     H53385   3.183   6.024   7.054 -0.2091 -0.1936  0.3035
  387MOL0     H53386   2.766   5.757   6.414 -0.0851  0.9922 -1.0522
  387MOL0     H53387   2.533   5.854   6.360  0.1047 -0.4698 -0.8544
  387MOL0     H53388   2.028   5.812   6.207  2.6425  2.1717 -0.7800
  387MOL0     H53389   1.834   5.958   6.208 -1.7420 -1.2890  1.4544
  387MOL0     H53390   2.287   7.331   7.328 -0.4277  0.3165  0.1870
  387MOL0     H53391   2.364   7.468   7.518 -2.4415  0.4579 -3.0113
  387MOL0     H53392   2.780   7.619   7.728 -0.5011 -1.0627 -3.4789
  387MOL0     H53393   2.947   7.765   7.840  0.1672 -0.3845  0.2509
  387MOL0     H53394   2.885   8.213   7.791  1.5122  0.5686 -0.0858
  387MOL0     H53395   2.874   8.152   7.951 -0.2152  0.7701  0.8466
  387MOL0     H53396   3.135   8.125   7.931 -0.9535 -0.6653  0.5044
  387MOL0     H53397   3.054   8.276   7.991 -0.9052  1.5019 -1.8541
  387MOL0     H53398   3.151   8.219   7.699  0.5044 -0.1248 -0.2742
  387MOL0     H53399   3.041   8.353   7.744  2.2627  2.9722 -1.9106
  387MOL0     H53400   3.205   8.466   7.870 -0.7408  1.9358 -2.5868
  387MOL0     H53401   3.280   8.441   7.719  1.9606  0.5778  1.2210
  387MOL0     H53402   3.541   8.267   7.992 -1.1938 -1.0352  0.6290
  387MOL0     H53403   2.723   8.105   7.705 -1.5119 -0.1017 -3.6115
  387MOL0     H53404   2.532   8.083   7.625 -0.6789 -1.3354  1.4174
  387MOL0     H53405   2.528   7.990   7.479  0.2265 -2.2086 -0.7855
  387MOL0     H53406   2.424   7.944   7.623  0.1380  0.0986  1.1088
  388MOL0     O53407   1.141   7.059   1.638 -0.0530 -0.0402  0.3839
  388MOL0     C53408   1.090   7.109   1.733  0.5647 -0.5376  0.4052
  388MOL0     O53409   1.150   7.125   1.858 -0.3397  0.1609 -0.3291
  388MOL0     C53410   1.273   7.059   1.865  0.6425  0.0555 -0.8260
  388MOL0     C53411   1.266   6.921   1.879 -0.7128 -0.4158 -0.4735
  388MOL0     C53412   1.391   6.860   1.894 -0.0278 -0.8846 -0.9296
  388MOL0     C53413   1.519   6.927   1.893 -0.2787 -0.5680 -0.1818
  388MOL0     O53414   1.635   6.857   1.904  0.6123  0.1189  0.2847
  388MOL0     C53415   1.761   6.913   1.870 -0.0500 -0.2050  0.0334
  388MOL0     C53416   1.830   6.997   1.981 -0.6573 -0.6937  1.0801
  388MOL0     C53417   1.953   7.083   1.939  0.4755  0.2697 -0.0745
  388MOL0     C53418   1.914   7.178   1.820 -0.1333  0.0501 -0.2374
  388MOL0     C53419   2.018   7.288   1.794  0.1463  0.9960  0.4794
  388MOL0     C53420   2.153   7.230   1.748  0.6737 -1.1056 -0.3313
  388MOL0     C53421   2.146   7.171   1.617  0.3496 -0.4980  0.1176
  388MOL0     C53422   2.150   7.018   1.617 -0.8865 -0.1064  0.0871
  388MOL0     N53423   2.056   6.970   1.524  0.1112  0.1009 -0.3788
  388MOL0     C53424   1.942   6.915   1.558 -0.2991  0.2031  0.0614
  388MOL0     C53425   1.894   6.856   1.443 -0.0741 -0.3586 -0.2987
  388MOL0     C53426   1.764   6.786   1.435 -0.1774  0.0671 -0.1301
  388MOL0     C53427   1.788   6.640   1.483  0.0687  0.0541 -0.8176
  388MOL0     C53428   1.656   6.551   1.471 -0.9454 -0.4375 -0.2600
  388MOL0     C53429   1.699   6.396   1.476 -0.5961  0.8894 -0.9098
  388MOL0     O53430   1.586   6.309   1.476 -0.0999 -0.3978 -0.8353
  388MOL0     C53431   1.488   6.320   1.576 -0.1179  0.5106  0.1533
  388MOL0     C53432   1.527   6.348   1.710 -0.3173  0.0661  0.0520
  388MOL0     C53433   1.436   6.369   1.810 -0.2580  0.3285  0.2663
  388MOL0     C53434   1.476   6.395   1.954  1.2813 -0.7024 -0.2853
  388MOL0     C53435   1.297   6.353   1.778  0.7839  0.3249  0.1056
  388MOL0     C53436   1.185   6.373   1.870 -0.2842  0.2550  0.0114
  388MOL0     O53437   1.077   6.292   1.859  0.0338  0.3491 -0.0641
  388MOL0     C53438   0.950   6.318   1.900 -0.3465 -0.7503 -0.1658
  388MOL0     C53439   0.905   6.448   1.931 -0.1601 -0.0983 -0.4285
  388MOL0     C53440   0.766   6.478   1.950 -0.1760 -0.6342 -0.5608
  388MOL0     C53441   0.671   6.374   1.947 -0.4078 -0.0699  0.3129
  388MOL0     O53442   0.538   6.386   1.977 -0.3699  0.0784 -0.0759
  388MOL0     C53443   0.496   6.495   2.060  0.7495  0.2445 -0.1450
  388MOL0     C53444   0.385   6.564   1.982  0.7559 -0.3075 -0.5792
  388MOL0     C53445   0.330   6.671   2.083  0.6302  0.1926  0.6360
  388MOL0     C53446   0.182   6.698   2.057 -0.0980 -0.6935  0.0504
  388MOL0     C53447   0.089   6.582   2.119 -0.3858 -0.9890  0.5151
  388MOL0     C53448  -0.046   6.643   2.157  0.4124 -0.5282 -0.2185
  388MOL0     C53449  -0.045   6.732   2.285 -0.3208 -0.2669  0.0894
  388MOL0     C53450  -0.160   6.826   2.291 -0.3040 -0.0741 -0.0838
  388MOL0    Cl53451  -0.315   6.728   2.298 -0.1644 -0.3362 -0.4975
  388MOL0     C53452   0.720   6.240   1.915  0.3066  0.6639  0.5786
  388MOL0     C53453   0.858   6.214   1.900 -0.1901  0.4984 -0.4077
  388MOL0     O53454   1.188   6.477   1.935  0.2393  0.3154  0.4088
  388MOL0     C53455   1.261   6.317   1.643  0.2787 -0.5885 -0.3619
  388MOL0     C53456   1.358   6.305   1.541 -0.4658 -0.1666 -0.5624
  388MOL0     N53457   1.984   6.868   1.342 -0.2174 -0.3350  0.8688
  388MOL0     N53458   2.073   6.948   1.387 -1.0904 -0.0617  0.3322
  388MOL0     C53459   1.515   7.065   1.870  0.3262  0.6543  0.1679
  388MOL0     C53460   1.397   7.130   1.847 -0.3652  0.6892  1.3564
  388MOL0     C53461   0.963   7.176   1.714  0.5038 -0.7004 -0.1233
  388MOL0     C53462   0.943   7.224   1.583  0.3637 -0.4645  0.8433
  388MOL0     C53463   0.817   7.272   1.540 -0.8174 -0.7511  0.1365
  388MOL0     C53464   0.707   7.278   1.627 -0.0161  0.1553  0.8113
  388MOL0     O53465   0.592   7.340   1.585  1.3219 -0.0139  0.4582
  388MOL0     C53466   0.567   7.414   1.461 -0.8594 -1.3862  0.3070
  388MOL0     C53467   0.656   7.543   1.459  0.2075  0.2473 -0.4731
  388MOL0     C53468   0.604   7.652   1.364  0.9149  0.3266  0.2551
  388MOL0     C53469   0.665   7.782   1.402 -0.0408 -0.0586 -0.1320
  388MOL0     C53470   0.623   7.845   1.523 -0.6319  0.5785 -0.5573
  388MOL0     C53471   0.612   7.905   1.627 -0.2005  0.2229  0.5165
  388MOL0     C53472   0.727   7.234   1.758 -0.6851 -0.4253  0.0105
  388MOL0     C53473   0.851   7.181   1.801 -0.1416 -0.1704  0.0929
  388MOL0     C53474   0.868   7.153   1.949 -0.2390  0.7481  0.5524
  388MOL0     H53475   1.175   6.861   1.887 -0.2154 -1.1223  0.0470
  388MOL0     H53476   1.400   6.754   1.915  1.3106  0.0270  4.7984
  388MOL0     H53477   1.753   6.969   1.776 -2.2256 -1.0280 -0.3173
  388MOL0     H53478   1.829   6.829   1.858  1.0025  0.6904 -0.5007
  388MOL0     H53479   1.754   7.066   2.019 -0.9163  0.2001 -0.9204
  388MOL0     H53480   1.862   6.926   2.057  1.1910 -1.1837 -0.0929
  388MOL0     H53481   1.967   7.159   2.017 -3.8740 -0.0800  1.3178
  388MOL0     H53482   2.044   7.023   1.927 -0.8757 -1.7276 -0.9092
  388MOL0     H53483   1.896   7.121   1.729 -1.1574 -0.1447  0.0713
  388MOL0     H53484   1.820   7.222   1.857  0.2568  0.3373  0.4243
  388MOL0     H53485   2.030   7.341   1.889  0.7196  1.5972  0.0707
  388MOL0     H53486   1.985   7.371   1.731  1.8841  2.1433  1.0277
  388MOL0     H53487   2.233   7.304   1.758 -0.3107  0.1787 -1.3756
  388MOL0     H53488   2.182   7.153   1.819 -2.1826 -1.8989  0.1009
  388MOL0     H53489   2.229   7.214   1.560  2.8421 -2.5871  1.8518
  388MOL0     H53490   2.050   7.201   1.576 -0.8806 -3.5851  0.4154
  388MOL0     H53491   2.244   6.974   1.582 -1.6958  0.5488 -3.2671
  388MOL0     H53492   2.121   6.982   1.717  4.3133 -1.1467  1.5475
  388MOL0     H53493   1.904   6.883   1.654  2.0288  1.1009  1.3620
  388MOL0     H53494   1.737   6.791   1.329 -0.2388 -0.8200 -0.1622
  388MOL0     H53495   1.681   6.833   1.488 -0.5083  1.0409 -1.4405
  388MOL0     H53496   1.874   6.601   1.428 -0.1242 -1.8562  0.1655
  388MOL0     H53497   1.810   6.655   1.589  0.5740  1.2666 -1.0785
  388MOL0     H53498   1.597   6.569   1.561 -1.2426 -1.7262 -0.1763
  388MOL0     H53499   1.601   6.576   1.380  0.7815  1.6184 -0.8237
  388MOL0     H53500   1.765   6.356   1.399  0.6099 -0.6583  0.8675
  388MOL0     H53501   1.760   6.381   1.565 -1.1568  1.5769 -0.3998
  388MOL0     H53502   1.632   6.345   1.736 -0.1916  1.6502 -0.1695
  388MOL0     H53503   1.470   6.501   1.981  0.6846 -0.5763 -0.8948
  388MOL0     H53504   1.582   6.371   1.966  1.0601 -0.6094  2.8603
  388MOL0     H53505   1.422   6.325   2.018 -1.2794 -0.6574 -2.2378
  388MOL0     H53506   0.966   6.538   1.924  2.2287 -1.3049  2.5387
  388MOL0     H53507   0.738   6.581   1.966  2.0820  0.0691 -0.8315
  388MOL0     H53508   0.448   6.454   2.150 -2.9330  0.6705 -1.7148
  388MOL0     H53509   0.573   6.564   2.095  0.5052  0.3814  0.1276
  388MOL0     H53510   0.431   6.611   1.895 -2.9845  0.8670 -2.1063
  388MOL0     H53511   0.308   6.496   1.943  2.1080 -0.7143 -2.7511
  388MOL0     H53512   0.393   6.759   2.068  0.0231  0.1943 -2.7753
  388MOL0     H53513   0.332   6.642   2.188 -0.5570 -0.4599  0.4904
  388MOL0     H53514   0.164   6.700   1.949  1.7707 -4.3558 -0.4817
  388MOL0     H53515   0.159   6.796   2.100 -1.6291 -0.7086 -0.6544
  388MOL0     H53516   0.078   6.489   2.062 -1.0961 -0.1862 -0.6839
  388MOL0     H53517   0.135   6.555   2.214 -1.6850 -2.7271  0.7187
  388MOL0     H53518  -0.109   6.554   2.161 -1.3689  0.4252 -3.2935
  388MOL0     H53519  -0.092   6.699   2.075 -2.1700  1.5853  2.4672
  388MOL0     H53520   0.045   6.793   2.298  2.0844 -3.8580  1.9713
  388MOL0     H53521  -0.044   6.668   2.374  0.6851  0.8302  0.8982
  388MOL0     H53522  -0.161   6.901   2.211 -1.3402  2.1344  1.9014
  388MOL0     H53523  -0.145   6.866   2.391 -0.0168  3.1256 -1.2643
  388MOL0     H53524   0.645   6.163   1.922  0.4425  0.1621 -2.2536
  388MOL0     H53525   0.889   6.112   1.878  0.0287  0.4257  0.2144
  388MOL0     H53526   1.156   6.307   1.619 -0.1528 -0.7254  1.4791
  388MOL0     H53527   1.342   6.287   1.435  1.4413 -1.3718 -0.6968
  388MOL0     H53528   1.606   7.125   1.873  1.5029 -1.0721  0.1283
  388MOL0     H53529   1.393   7.234   1.816  2.9082 -0.0956 -2.4657
  388MOL0     H53530   1.021   7.229   1.508 -3.0936 -0.3401 -3.1020
  388MOL0     H53531   0.815   7.284   1.432  1.8065  2.6446  0.2870
  388MOL0     H53532   0.590   7.355   1.371 -0.7298 -1.2551  0.2528
  388MOL0     H53533   0.463   7.448   1.457 -0.4743 -0.2482 -0.8425
  388MOL0     H53534   0.744   7.492   1.418 -1.6093 -1.3450 -2.6493
  388MOL0     H53535   0.653   7.571   1.564 -1.1693 -1.3040 -0.0629
  388MOL0     H53536   0.629   7.622   1.262  0.4362 -4.5688  1.3284
  388MOL0     H53537   0.498   7.676   1.368  1.1392  1.4441 -0.0968
  388MOL0     H53538   0.626   7.852   1.327 -0.9482  0.4435  0.7791
  388MOL0     H53539   0.773   7.776   1.386 -0.4485 -0.1756 -3.8273
  388MOL0     H53540   0.592   7.937   1.727 -0.1151 -0.0994  0.6360
  388MOL0     H53541   0.642   7.239   1.825 -1.4585 -1.4983 -0.8509
  388MOL0     H53542   0.954   7.207   1.989  2.4763 -0.5526 -2.9788
  388MOL0     H53543   0.775   7.175   2.002 -2.1635 -1.6171 -1.5646
  388MOL0     H53544   0.890   7.046   1.957 -1.1037  0.6319  1.5382
  389MOL0     O53545   1.940   0.655   5.883  0.6987  0.5015 -0.4912
  389MOL0     C53546   1.964   0.750   5.954  0.2609 -0.4407  0.5250
  389MOL0     O53547   1.867   0.846   5.991 -1.0099  0.3644 -0.4850
  389MOL0     C53548   1.748   0.859   5.929 -0.6975  0.1807  0.0601
  389MOL0     C53549   1.737   0.834   5.789  0.3709  0.2510 -0.6573
  389MOL0     C53550   1.622   0.860   5.718  0.0770 -0.2322  0.3175
  389MOL0     C53551   1.514   0.926   5.777 -0.6737  0.0509  0.1251
  389MOL0     O53552   1.400   0.960   5.714  0.0767  0.5837  0.7613
  389MOL0     C53553   1.322   0.862   5.634  0.3724 -0.2516 -0.1413
  389MOL0     C53554   1.174   0.887   5.623  0.0908  0.2542 -0.1767
  389MOL0     C53555   1.136   0.988   5.522  0.6407 -0.6117  0.5386
  389MOL0     C53556   1.116   0.931   5.377 -0.4981 -0.3527  0.6951
  389MOL0     C53557   1.090   1.045   5.271  1.2597 -0.0192  0.0403
  389MOL0     C53558   1.020   1.170   5.325  0.1244  0.6212  0.8306
  389MOL0     C53559   0.993   1.278   5.232  0.2163 -0.8047  0.1202
  389MOL0     C53560   1.123   1.338   5.198  0.0656 -0.5657  0.0753
  389MOL0     N53561   1.123   1.460   5.102  0.2159  0.2492  0.3200
  389MOL0     C53562   1.184   1.576   5.117 -0.8144 -0.5599 -0.3799
  389MOL0     C53563   1.156   1.655   5.011  0.2491 -0.3433  1.1571
  389MOL0     C53564   1.200   1.799   4.976  0.5475 -0.2683 -0.7295
  389MOL0     C53565   1.348   1.823   5.014  0.1125  0.5764 -0.0527
  389MOL0     C53566   1.437   1.720   4.949 -0.8085  0.1896  0.4651
  389MOL0     C53567   1.586   1.737   4.989 -0.5553  1.1327  0.2793
  389MOL0     O53568   1.641   1.842   4.909  0.7420  0.2500  0.5533
  389MOL0     C53569   1.662   1.967   4.953 -1.1801 -0.1703 -0.3632
  389MOL0     C53570   1.714   2.058   4.859  0.4795  1.0138 -0.5345
  389MOL0     C53571   1.751   2.193   4.885 -0.6630  1.1075  0.4206
  389MOL0     C53572   1.820   2.254   4.772 -0.3249 -0.7357  0.1379
  389MOL0     C53573   1.720   2.237   5.019  0.9197  0.1269 -0.5256
  389MOL0     C53574   1.735   2.369   5.064 -0.2718 -0.5025  0.7844
  389MOL0     O53575   1.734   2.391   5.203  0.3816  0.6694 -0.2530
  389MOL0     C53576   1.750   2.522   5.244  0.7640  0.5969  0.4654
  389MOL0     C53577   1.870   2.594   5.225 -0.5998 -0.0943 -0.4248
  389MOL0     C53578   1.886   2.722   5.270 -0.4972 -0.0787  0.4022
  389MOL0     C53579   1.765   2.788   5.317 -0.0576  0.7951 -0.2622
  389MOL0     O53580   1.757   2.916   5.346  0.0118 -0.4728  0.6965
  389MOL0     C53581   1.868   2.975   5.418 -0.0991  0.1691 -0.2922
  389MOL0     C53582   1.805   3.070   5.520  0.1420  0.1526  0.2305
  389MOL0     C53583   1.899   3.165   5.600  0.5198  0.3320 -0.1240
  389MOL0     C53584   1.974   3.110   5.722  0.4500  0.7094 -0.4238
  389MOL0     C53585   2.055   3.214   5.812 -1.2830 -0.2164  0.1829
  389MOL0     C53586   2.216   3.220   5.794  0.2854  0.8519  0.1389
  389MOL0     C53587   2.271   3.082   5.842 -0.4471  0.6137  0.0117
  389MOL0     C53588   2.405   3.109   5.906 -0.9695 -0.0906 -0.1398
  389MOL0    Cl53589   2.483   2.959   5.972 -0.2625 -0.2754 -0.2539
  389MOL0     C53590   1.649   2.716   5.356 -0.5978  0.1537  0.0419
  389MOL0     C53591   1.643   2.587   5.314  0.4992  0.4635 -0.5350
  389MOL0     O53592   1.728   2.453   4.983 -0.0648  0.2651 -0.2129
  389MOL0     C53593   1.659   2.144   5.108 -0.7835  0.6822  0.3079
  389MOL0     C53594   1.637   2.008   5.083 -0.3962 -0.2046 -0.1711
  389MOL0     N53595   1.064   1.581   4.937 -0.0245  0.1267  0.0963
  389MOL0     N53596   1.039   1.469   4.998 -0.9096 -0.0441  0.1791
  389MOL0     C53597   1.526   0.955   5.912 -0.2703  0.5261 -0.8541
  389MOL0     C53598   1.641   0.925   5.991 -0.7274  1.3882 -0.1168
  389MOL0     C53599   2.096   0.772   5.986  0.3849 -1.0258 -0.2721
  389MOL0     C53600   2.120   0.792   6.126 -0.9271  0.4527  0.0112
  389MOL0     C53601   2.247   0.815   6.183  0.5694  0.0504 -0.5638
  389MOL0     C53602   2.360   0.804   6.099 -0.1943 -0.4379  0.1043
  389MOL0     O53603   2.487   0.817   6.148  0.3907 -0.3111  0.6782
  389MOL0     C53604   2.551   0.692   6.175  0.3123  0.3041  0.8236
  389MOL0     C53605   2.644   0.725   6.290 -0.5754  0.2427 -0.1801
  389MOL0     C53606   2.584   0.808   6.409  0.9356  1.0592 -0.5627
  389MOL0     C53607   2.686   0.800   6.526  0.2037 -1.1078 -0.1103
  389MOL0     C53608   2.662   0.896   6.640  0.2621 -0.8971 -0.6446
  389MOL0     C53609   2.657   0.975   6.729 -0.2309 -0.5045 -0.2071
  389MOL0     C53610   2.337   0.787   5.961  0.3026 -0.2330 -0.2754
  389MOL0     C53611   2.206   0.773   5.906  0.3183 -0.4542 -1.0239
  389MOL0     C53612   2.185   0.760   5.760  0.4862 -0.1355  0.6403
  389MOL0     H53613   1.811   0.776   5.736 -4.0902 -3.1023 -4.0235
  389MOL0     H53614   1.612   0.832   5.614 -0.2347 -2.8457  0.9710
  389MOL0     H53615   1.330   0.768   5.689  0.2590  1.5028  3.1472
  389MOL0     H53616   1.363   0.849   5.533 -0.5700 -2.6847 -0.2647
  389MOL0     H53617   1.125   0.791   5.605  3.0566 -0.8860 -3.2803
  389MOL0     H53618   1.140   0.922   5.721 -0.0004  0.2089 -0.1917
  389MOL0     H53619   1.039   1.030   5.549 -0.1530 -0.7713 -1.7728
  389MOL0     H53620   1.212   1.066   5.520 -1.3236  1.3821 -0.4987
  389MOL0     H53621   1.206   0.893   5.329 -1.7606 -0.4882 -1.7179
  389MOL0     H53622   1.045   0.848   5.383 -0.3969 -0.8636 -2.7712
  389MOL0     H53623   1.037   1.007   5.183 -0.9107  1.5441  0.5889
  389MOL0     H53624   1.182   1.085   5.226 -0.0088  2.7460 -0.3405
  389MOL0     H53625   0.924   1.130   5.361 -0.7170  1.4037 -0.4472
  389MOL0     H53626   1.083   1.212   5.403  0.6938  0.4290  0.4774
  389MOL0     H53627   0.917   1.345   5.275  1.0172 -1.7662  3.3191
  389MOL0     H53628   0.951   1.237   5.139 -2.2145  0.3680  0.6123
  389MOL0     H53629   1.161   1.368   5.297  0.6127 -1.0694  0.0287
  389MOL0     H53630   1.185   1.258   5.155  0.3585 -1.1173  1.4319
  389MOL0     H53631   1.252   1.602   5.197 -2.8557 -1.4852  1.7631
  389MOL0     H53632   1.148   1.872   5.039 -0.3165 -0.4069 -1.2691
  389MOL0     H53633   1.170   1.820   4.873 -3.4200 -0.6378  0.1957
  389MOL0     H53634   1.389   1.919   4.981 -0.3088  0.2625 -1.5444
  389MOL0     H53635   1.350   1.819   5.123 -1.4072 -3.1291 -0.0342
  389MOL0     H53636   1.406   1.620   4.980 -0.1533 -0.5117 -1.0441
  389MOL0     H53637   1.433   1.732   4.840  0.2409  1.8433  0.5750
  389MOL0     H53638   1.594   1.738   5.098 -0.5953 -2.3143  0.4040
  389MOL0     H53639   1.640   1.650   4.952 -0.7401  1.0147  0.2863
  389MOL0     H53640   1.729   2.016   4.760  2.0041 -2.7367  1.0969
  389MOL0     H53641   1.830   2.189   4.684  0.1579 -1.5463  0.7799
  389MOL0     H53642   1.916   2.293   4.809 -1.6912 -0.0117  3.2814
  389MOL0     H53643   1.765   2.343   4.739  0.9332  0.3888  0.9509
  389MOL0     H53644   1.964   2.547   5.197  1.9961  0.7701  5.4201
  389MOL0     H53645   1.985   2.766   5.264 -0.9271  0.8056 -0.6447
  389MOL0     H53646   1.923   2.903   5.479 -0.1653  1.2727  1.1216
  389MOL0     H53647   1.934   3.033   5.353 -2.4965  1.0612 -2.1187
  389MOL0     H53648   1.741   3.123   5.450  1.8392  0.1832 -1.3749
  389MOL0     H53649   1.740   3.015   5.588 -0.4596 -0.9219 -1.1663
  389MOL0     H53650   1.848   3.260   5.618 -0.6742 -0.6240  1.9765
  389MOL0     H53651   1.976   3.191   5.527 -1.0604  0.1173 -1.9429
  389MOL0     H53652   2.043   3.040   5.675  0.5524  0.9541 -0.6434
  389MOL0     H53653   1.900   3.065   5.787  1.1295 -0.7953 -0.6627
  389MOL0     H53654   2.012   3.312   5.787  1.7148  1.6018  1.5713
  389MOL0     H53655   2.046   3.193   5.919  2.1612 -2.2737  0.1840
  389MOL0     H53656   2.241   3.300   5.864 -0.0460  2.0424 -1.0625
  389MOL0     H53657   2.261   3.243   5.697  0.0028  0.9013  0.0213
  389MOL0     H53658   2.265   3.001   5.769  1.1512  0.6547 -0.2081
  389MOL0     H53659   2.208   3.037   5.920  0.9025 -0.8489  0.3174
  389MOL0     H53660   2.399   3.188   5.981 -0.3131 -2.6326  2.8312
  389MOL0     H53661   2.471   3.144   5.826  1.0257 -2.0128  0.5400
  389MOL0     H53662   1.571   2.781   5.393  1.6516  0.7093  4.5231
  389MOL0     H53663   1.559   2.521   5.337  0.9951  0.0077 -0.0074
  389MOL0     H53664   1.647   2.164   5.214  3.0182 -0.0050  1.0071
  389MOL0     H53665   1.579   1.953   5.156  3.3323 -1.1400  2.4199
  389MOL0     H53666   1.451   1.004   5.974 -0.8207 -0.4908 -0.6953
  389MOL0     H53667   1.648   0.958   6.094  1.0779  0.9422 -0.0562
  389MOL0     H53668   2.038   0.776   6.195 -2.1881 -0.6536 -1.6624
  389MOL0     H53669   2.252   0.824   6.292 -2.7428 -2.5183 -0.0509
  389MOL0     H53670   2.479   0.620   6.214 -0.4152 -0.2819 -1.4428
  389MOL0     H53671   2.596   0.645   6.088 -0.6958  0.3564  0.2622
  389MOL0     H53672   2.727   0.785   6.251  1.0607 -0.9445  1.2997
  389MOL0     H53673   2.702   0.635   6.314  2.4084  2.1500  0.3926
  389MOL0     H53674   2.539   0.901   6.372 -4.3213 -1.7782 -2.4082
  389MOL0     H53675   2.499   0.749   6.443  1.9957 -0.4272 -0.4085
  389MOL0     H53676   2.785   0.803   6.480  1.2731  2.0824  2.0279
  389MOL0     H53677   2.679   0.701   6.572  0.7423 -0.7556  0.7512
  389MOL0     H53678   2.664   1.049   6.806 -1.8628 -1.7493  1.2412
  389MOL0     H53679   2.427   0.790   5.900 -0.3604  0.2225 -1.2500
  389MOL0     H53680   2.150   0.664   5.721 -3.0884  1.1554  0.2475
  389MOL0     H53681   2.106   0.833   5.738  0.7062 -0.2235 -0.5251
  389MOL0     H53682   2.275   0.794   5.708  0.0076  1.3877  0.7732
  390MOL0     O53683  11.225   4.272   7.595  0.0738  0.3946 -0.0722
  390MOL0     C53684  11.295   4.209   7.518 -0.2233  0.4062 -0.4519
  390MOL0     O53685  11.265   4.093   7.447 -0.5417  0.2742  0.1122
  390MOL0     C53686  11.140   4.050   7.465 -0.3003  0.3796 -0.0237
  390MOL0     C53687  11.122   3.942   7.548 -0.6993  0.4919 -0.4554
  390MOL0     C53688  10.995   3.899   7.578  0.0764 -0.8042 -0.5634
  390MOL0     C53689  10.886   3.954   7.514 -0.4111  0.2523 -0.4026
  390MOL0     O53690  10.766   3.883   7.518 -0.2754  0.2394 -0.1775
  390MOL0     C53691  10.666   3.914   7.422 -0.0142 -0.6233  0.0109
  390MOL0     C53692  10.538   3.831   7.451 -0.9703  0.2271  0.0518
  390MOL0     C53693  10.421   3.860   7.355  0.6899 -0.6960 -1.1130
  390MOL0     C53694  10.311   3.768   7.375 -0.0195  0.0440 -0.6343
  390MOL0     C53695  10.184   3.796   7.285 -0.6658  0.5863 -0.2825
  390MOL0     C53696  10.070   3.696   7.304  0.6027 -1.0932 -0.2408
  390MOL0     C53697   9.952   3.739   7.221 -0.7922  0.3889 -0.2573
  390MOL0     C53698   9.963   3.698   7.078  0.2717  0.4334  0.6028
  390MOL0     N53699   9.937   3.555   7.061 -0.0581  0.3932 -0.7902
  390MOL0     C53700   9.819   3.496   7.083  0.5593  0.2729 -0.1586
  390MOL0     C53701   9.828   3.368   7.026 -0.1406 -0.9242  0.5698
  390MOL0     C53702   9.717   3.258   7.014 -0.6046 -1.1796  0.2446
  390MOL0     C53703   9.654   3.241   6.873 -0.1716  0.1746  0.0198
  390MOL0     C53704   9.756   3.147   6.799 -0.3417  0.9327 -0.7815
  390MOL0     C53705   9.702   3.117   6.665 -0.3726 -0.2719  0.2811
  390MOL0     O53706   9.657   3.237   6.595 -0.0503 -0.1961  0.0858
  390MOL0     C53707   9.741   3.322   6.523 -0.6758  0.1102  0.4002
  390MOL0     C53708   9.680   3.408   6.428  0.2028  0.3157  0.2661
  390MOL0     C53709   9.766   3.479   6.333  0.0399 -1.0514 -0.5898
  390MOL0     C53710   9.680   3.559   6.237 -0.9454 -0.3926 -0.1028
  390MOL0     C53711   9.907   3.455   6.325 -0.7409 -0.2810  0.1688
  390MOL0     C53712  10.005   3.532   6.241 -0.6573 -0.5791 -0.4900
  390MOL0     O53713  10.138   3.503   6.254 -0.6657  0.0378 -0.0626
  390MOL0     C53714  10.239   3.571   6.194  0.1653 -0.1425 -0.0360
  390MOL0     C53715  10.351   3.590   6.277 -0.5833  0.8017 -0.4058
  390MOL0     C53716  10.468   3.661   6.230 -0.2392  0.3495 -0.2820
  390MOL0     C53717  10.482   3.695   6.098  0.0554 -0.4201 -0.6327
  390MOL0     O53718  10.594   3.755   6.048 -0.4422 -1.0002 -0.0691
  390MOL0     C53719  10.624   3.877   6.122  0.6925 -0.1528  0.8374
  390MOL0     C53720  10.773   3.890   6.148  0.4343  0.5535 -0.2487
  390MOL0     C53721  10.870   3.890   6.031 -0.5235  0.6533  0.9780
  390MOL0     C53722  11.004   3.940   6.085  0.3717 -0.6805  0.5258
  390MOL0     C53723  11.124   3.950   5.982  0.1583  0.2903  0.4656
  390MOL0     C53724  11.174   3.809   5.940 -0.5504  0.1188  0.4467
  390MOL0     C53725  11.314   3.818   5.872 -0.0135  0.1292  0.0640
  390MOL0     C53726  11.341   3.688   5.795  0.2262  0.2097  0.8517
  390MOL0    Cl53727  11.499   3.666   5.753 -0.4638 -0.2513  0.2362
  390MOL0     C53728  10.378   3.659   6.012 -0.1233 -0.3231 -0.0772
  390MOL0     C53729  10.251   3.613   6.058  0.0428  0.9181 -0.6391
  390MOL0     O53730   9.955   3.635   6.194 -0.3830 -0.0111  0.1666
  390MOL0     C53731   9.958   3.370   6.425  0.7557  0.0739  0.3875
  390MOL0     C53732   9.881   3.300   6.511 -0.0548 -1.1764 -0.4528
  390MOL0     N53733   9.958   3.344   6.985 -0.2532 -0.1153 -0.7457
  390MOL0     N53734  10.021   3.452   7.019 -0.0337 -0.5127 -0.7831
  390MOL0     C53735  10.903   4.062   7.431  0.0293 -0.5383 -0.7313
  390MOL0     C53736  11.031   4.112   7.403  0.5104  0.1023 -0.6157
  390MOL0     C53737  11.434   4.261   7.495  0.0333 -0.1315  0.0672
  390MOL0     C53738  11.475   4.304   7.369 -0.7742  0.5105 -0.3982
  390MOL0     C53739  11.603   4.355   7.341  0.2462 -0.0105 -0.9060
  390MOL0     C53740  11.690   4.370   7.456 -0.0973 -0.3993  0.6602
  390MOL0     O53741  11.815   4.425   7.453  0.4509 -0.5627 -0.5320
  390MOL0     C53742  11.873   4.451   7.322  0.2220  0.7964  0.2867
  390MOL0     C53743  12.017   4.496   7.323  0.6786  0.2768 -0.4231
  390MOL0     C53744  12.110   4.389   7.360 -0.2047  0.9709 -0.0306
  390MOL0     C53745  12.266   4.442   7.356  0.0721 -0.2617 -0.1776
  390MOL0     C53746  12.307   4.483   7.225 -1.2875  0.6672  0.3513
  390MOL0     C53747  12.346   4.513   7.114 -0.1378  0.3982 -0.0321
  390MOL0     C53748  11.653   4.338   7.582  0.4982 -0.2196  0.5160
  390MOL0     C53749  11.523   4.276   7.608  0.1239 -0.2280  0.3446
  390MOL0     C53750  11.487   4.222   7.742  0.2272  0.6443 -0.7847
  390MOL0     H53751  11.207   3.887   7.588  1.7092  2.5538 -2.3996
  390MOL0     H53752  10.978   3.809   7.637  1.4209 -1.1679 -0.6874
  390MOL0     H53753  10.702   3.905   7.320 -2.5123 -0.5190 -0.9527
  390MOL0     H53754  10.622   4.014   7.429  1.0476  0.1485 -3.0555
  390MOL0     H53755  10.565   3.726   7.466 -0.3315  0.6426  2.1758
  390MOL0     H53756  10.518   3.864   7.554  2.7185 -1.6085  1.5533
  390MOL0     H53757  10.393   3.963   7.379 -1.1622 -1.5346  0.6974
  390MOL0     H53758  10.457   3.856   7.252  2.9149  1.3718 -0.5057
  390MOL0     H53759  10.348   3.665   7.370  1.0229  0.3493  0.4521
  390MOL0     H53760  10.271   3.781   7.476  1.2208 -0.9348  0.0089
  390MOL0     H53761  10.208   3.773   7.180  0.8897 -0.1320  0.2032
  390MOL0     H53762  10.151   3.899   7.302  0.0379  0.3528  3.1105
  390MOL0     H53763  10.108   3.593   7.294  4.5293 -0.1434  2.2874
  390MOL0     H53764  10.050   3.705   7.411  0.4784 -3.6185  0.0181
  390MOL0     H53765   9.951   3.848   7.230 -0.9765  0.5041 -1.4807
  390MOL0     H53766   9.857   3.706   7.263 -0.4189 -1.5768 -0.8616
  390MOL0     H53767   9.879   3.751   7.031  0.0286 -2.4483 -2.6337
  390MOL0     H53768  10.050   3.737   7.026 -0.5188  1.1282 -0.2363
  390MOL0     H53769   9.723   3.541   7.103 -0.7028 -1.7408 -1.2471
  390MOL0     H53770   9.641   3.285   7.088  0.0389  0.1858  0.4364
  390MOL0     H53771   9.760   3.166   7.055  1.1254 -0.5430 -0.0318
  390MOL0     H53772   9.565   3.178   6.880  2.1049 -3.4441 -0.9358
  390MOL0     H53773   9.643   3.335   6.817 -1.1655  0.8663  1.3418
  390MOL0     H53774   9.855   3.192   6.789 -0.5513  2.3167  2.0853
  390MOL0     H53775   9.768   3.053   6.854  2.3708  0.9046 -1.2891
  390MOL0     H53776   9.785   3.067   6.614  0.4185 -1.6468  2.7613
  390MOL0     H53777   9.624   3.041   6.672  2.6108 -3.5532  1.1216
  390MOL0     H53778   9.573   3.404   6.417  0.1319 -0.0094  1.0417
  390MOL0     H53779   9.673   3.493   6.150  0.5843 -2.4549  1.2585
  390MOL0     H53780   9.716   3.658   6.208 -0.2689  1.2622  5.2861
  390MOL0     H53781   9.574   3.565   6.264 -0.9065 -0.5296  0.0798
  390MOL0     H53782  10.343   3.555   6.380  0.8958  1.8166  0.0920
  390MOL0     H53783  10.548   3.684   6.299 -1.6056 -0.7275  1.7998
  390MOL0     H53784  10.595   3.967   6.068  0.0858  0.0035  1.4163
  390MOL0     H53785  10.575   3.878   6.220  0.9799  0.2367  0.9812
  390MOL0     H53786  10.796   3.968   6.222  1.8120 -1.1427  1.1963
  390MOL0     H53787  10.802   3.801   6.204  0.0341  0.0174 -0.8772
  390MOL0     H53788  10.829   3.946   5.946 -4.5309 -1.3371  1.3539
  390MOL0     H53789  10.886   3.787   5.998  0.7122  1.5394 -1.3900
  390MOL0     H53790  11.029   3.888   6.178 -0.9026  0.5236  1.5877
  390MOL0     H53791  10.991   4.044   6.117 -1.5574 -1.3490  2.1825
  390MOL0     H53792  11.089   4.015   5.902  0.4237  2.1357  1.7695
  390MOL0     H53793  11.200   4.002   6.042 -1.2633  0.8898  1.8412
  390MOL0     H53794  11.105   3.765   5.867 -1.0190 -1.0244  1.5405
  390MOL0     H53795  11.177   3.744   6.028 -1.3404 -0.3080  0.1635
  390MOL0     H53796  11.387   3.817   5.954 -0.8783 -1.5141  0.8677
  390MOL0     H53797  11.319   3.900   5.800  0.1775  1.2053  1.2589
  390MOL0     H53798  11.279   3.687   5.705 -0.7595 -1.9220  1.4911
  390MOL0     H53799  11.314   3.591   5.837 -0.4662 -0.5453 -1.2324
  390MOL0     H53800  10.390   3.681   5.906 -0.0608  3.1286  0.5548
  390MOL0     H53801  10.177   3.608   5.978  0.7176  1.8089 -1.3405
  390MOL0     H53802  10.066   3.356   6.428  0.6856 -0.8747 -0.8757
  390MOL0     H53803   9.929   3.228   6.577  0.4821  0.3574  0.8870
  390MOL0     H53804  10.820   4.117   7.387  1.6570  4.1483  1.3807
  390MOL0     H53805  11.046   4.196   7.336 -0.5509  2.3974  1.8188
  390MOL0     H53806  11.414   4.293   7.279 -0.1811  0.2873 -0.7807
  390MOL0     H53807  11.625   4.364   7.235  2.3370 -1.9753 -0.7301
  390MOL0     H53808  11.862   4.355   7.270 -0.9411  0.1869  1.5792
  390MOL0     H53809  11.813   4.532   7.279  0.2101  2.3189  2.9345
  390MOL0     H53810  12.014   4.588   7.382  0.2177  0.7561 -1.1717
  390MOL0     H53811  12.043   4.525   7.221  2.2692  0.5724  0.0371
  390MOL0     H53812  12.089   4.349   7.460  2.7014  1.9865  1.0880
  390MOL0     H53813  12.112   4.299   7.297 -0.7840 -1.1206  2.7217
  390MOL0     H53814  12.324   4.367   7.412 -0.3515 -1.6240 -1.5023
  390MOL0     H53815  12.265   4.537   7.410 -0.3923 -0.9179  1.0008
  390MOL0     H53816  12.373   4.531   7.012 -0.8076  4.1857  0.3046
  390MOL0     H53817  11.706   4.374   7.670  0.4868  0.9898  0.0406
  390MOL0     H53818  11.577   4.236   7.803  0.6594  2.7899 -1.8187
  390MOL0     H53819  11.405   4.283   7.783 -0.7243 -1.0068 -0.1541
  390MOL0     H53820  11.466   4.116   7.730  0.4978  0.7147 -2.0097
  391MOL0     O53821   2.824   1.836   0.584  0.3269 -0.1475  0.4592
  391MOL0     C53822   2.895   1.778   0.499 -1.3974 -0.3874  0.3272
  391MOL0     O53823   3.026   1.748   0.515 -0.0559 -0.4592 -0.1077
  391MOL0     C53824   3.081   1.778   0.637  0.2095 -0.1611 -0.4102
  391MOL0     C53825   3.133   1.679   0.717 -0.1373  0.1142  0.6894
  391MOL0     C53826   3.213   1.707   0.830 -0.2898 -0.1402  0.6213
  391MOL0     C53827   3.220   1.844   0.875 -0.2367 -0.1935 -0.4799
  391MOL0     O53828   3.296   1.875   0.990  0.2342 -0.2788 -0.0460
  391MOL0     C53829   3.311   2.004   1.050 -0.3575 -0.0648 -0.8068
  391MOL0     C53830   3.445   2.053   1.016  0.3789 -0.2045 -0.1626
  391MOL0     C53831   3.444   2.210   1.017 -0.7657  0.1226 -0.2684
  391MOL0     C53832   3.546   2.290   0.916  0.3014  1.3399  0.1497
  391MOL0     C53833   3.688   2.258   0.953 -0.6813 -0.4004 -0.5346
  391MOL0     C53834   3.788   2.324   0.861 -0.1279 -0.7102 -0.2347
  391MOL0     C53835   3.932   2.290   0.896 -0.3293 -0.4557  0.0376
  391MOL0     C53836   3.988   2.382   1.004  0.2168  0.2528  0.1239
  391MOL0     N53837   4.014   2.517   0.943 -0.4735 -0.0723 -0.8367
  391MOL0     C53838   4.078   2.545   0.825 -0.6164  0.1457 -0.3343
  391MOL0     C53839   4.025   2.670   0.790  0.7080  0.3843  0.4457
  391MOL0     C53840   4.049   2.724   0.654  1.0765 -0.3240  0.6743
  391MOL0     C53841   4.133   2.845   0.650 -0.2655  0.0798 -0.6473
  391MOL0     C53842   4.272   2.799   0.694 -0.0225  0.2124  0.3579
  391MOL0     C53843   4.362   2.911   0.762  0.1463 -0.2004  0.2686
  391MOL0     O53844   4.339   2.934   0.902 -0.5187 -0.0785 -0.0698
  391MOL0     C53845   4.427   3.029   0.961  0.2342  1.4095  0.1033
  391MOL0     C53846   4.421   3.026   1.106  0.2698 -0.2319  0.1212
  391MOL0     C53847   4.480   3.124   1.182 -0.9346 -0.3414  0.0621
  391MOL0     C53848   4.472   3.126   1.334 -0.1420 -0.8638  0.3136
  391MOL0     C53849   4.572   3.211   1.122 -0.2326  0.9335 -0.3322
  391MOL0     C53850   4.682   3.297   1.188 -0.2246 -0.0443 -0.4109
  391MOL0     O53851   4.796   3.317   1.110 -0.3859  0.2371 -0.5858
  391MOL0     C53852   4.897   3.394   1.154  0.5118  0.0635 -0.3012
  391MOL0     C53853   4.947   3.365   1.272 -0.0005 -0.3943 -0.2123
  391MOL0     C53854   5.050   3.436   1.339  0.1860  0.3907 -0.4605
  391MOL0     C53855   5.093   3.551   1.269  1.2569  0.7905  0.7721
  391MOL0     O53856   5.170   3.652   1.324 -0.3466 -0.3398 -0.0586
  391MOL0     C53857   5.099   3.727   1.426  0.2461 -0.2128 -0.2543
  391MOL0     C53858   5.052   3.866   1.373 -0.5397  0.6494  0.4524
  391MOL0     C53859   5.159   3.930   1.296  0.2722 -0.9450 -0.6721
  391MOL0     C53860   5.095   4.071   1.243  0.2485 -0.1619  0.6929
  391MOL0     C53861   5.201   4.164   1.189  0.1565  0.4107  0.1830
  391MOL0     C53862   5.155   4.284   1.121 -0.2495 -0.6440  0.0374
  391MOL0     C53863   5.284   4.355   1.052 -0.4889  0.0356 -0.4521
  391MOL0     C53864   5.234   4.453   0.950  0.1463  0.8055 -0.3041
  391MOL0    Cl53865   5.122   4.584   1.011 -0.3681  0.0302  0.0678
  391MOL0     C53866   5.036   3.584   1.142 -0.5089 -0.9425 -0.3362
  391MOL0     C53867   4.944   3.504   1.081  0.2554 -0.3398 -0.0742
  391MOL0     O53868   4.655   3.347   1.293  0.4808 -1.1163  0.3014
  391MOL0     C53869   4.586   3.209   0.978  0.8689  0.8694 -0.2039
  391MOL0     C53870   4.513   3.121   0.899 -0.6319 -0.0459  0.7156
  391MOL0     N53871   3.933   2.708   0.891  0.5818  0.0666 -0.0492
  391MOL0     N53872   3.932   2.618   0.978 -0.4168  0.4157 -0.0427
  391MOL0     C53873   3.164   1.949   0.796 -0.7694 -0.1402  0.1769
  391MOL0     C53874   3.101   1.910   0.675  0.0184 -0.3074 -0.2616
  391MOL0     C53875   2.832   1.724   0.375 -0.0288 -0.6166 -0.2070
  391MOL0     C53876   2.720   1.636   0.394  0.3061  0.2160  0.6781
  391MOL0     C53877   2.628   1.604   0.283  0.0425  0.0455  0.3204
  391MOL0     C53878   2.657   1.656   0.157 -0.9952 -0.3580  0.2797
  391MOL0     O53879   2.569   1.622   0.055  0.0723 -0.5414 -0.9684
  391MOL0     C53880   2.623   1.543  -0.055  0.0959 -0.4610 -0.3474
  391MOL0     C53881   2.639   1.399  -0.010 -0.6207 -0.3961  0.8819
  391MOL0     C53882   2.522   1.335   0.066  0.6280  0.2804 -1.1100
  391MOL0     C53883   2.387   1.349  -0.000  0.1254 -0.0769  0.3516
  391MOL0     C53884   2.294   1.264   0.065  0.0222 -0.0651 -0.2759
  391MOL0     C53885   2.211   1.187   0.124 -0.0105 -0.9777 -0.2735
  391MOL0     C53886   2.771   1.737   0.137  0.4294  0.4804 -0.2932
  391MOL0     C53887   2.846   1.775   0.245 -0.6806 -0.0765  0.8893
  391MOL0     C53888   2.967   1.857   0.217 -0.6268 -0.3052  0.0203
  391MOL0     H53889   3.125   1.575   0.685  0.7264  0.3118 -0.2082
  391MOL0     H53890   3.268   1.627   0.879 -0.1573  0.9100  2.2707
  391MOL0     H53891   3.297   1.997   1.158  0.8807  1.0226 -0.5488
  391MOL0     H53892   3.236   2.080   1.027  0.3449  0.8082 -0.3138
  391MOL0     H53893   3.527   2.022   1.080  0.3449  2.6381  1.4728
  391MOL0     H53894   3.470   2.018   0.916  1.4154 -0.0876  0.0441
  391MOL0     H53895   3.345   2.248   0.990 -1.1945 -2.1877 -2.3293
  391MOL0     H53896   3.461   2.252   1.117  0.8014  1.8512 -1.2042
  391MOL0     H53897   3.527   2.254   0.815  2.3770  0.0460  0.1716
  391MOL0     H53898   3.519   2.395   0.931  0.1095  0.8964  4.0425
  391MOL0     H53899   3.711   2.151   0.959  0.0492 -0.4383 -2.8781
  391MOL0     H53900   3.705   2.304   1.051 -2.2498  3.0123 -1.6876
  391MOL0     H53901   3.763   2.287   0.761  1.0205  0.3140 -0.9172
  391MOL0     H53902   3.771   2.432   0.851 -1.7100 -0.6591  2.1987
  391MOL0     H53903   3.988   2.301   0.803 -0.7025  2.8571  0.1160
  391MOL0     H53904   3.944   2.187   0.933 -2.3625 -1.6678 -2.3321
  391MOL0     H53905   3.921   2.383   1.091 -1.0085  2.4979 -0.7851
  391MOL0     H53906   4.087   2.344   1.032  0.7027  2.6913  2.0835
  391MOL0     H53907   4.137   2.476   0.765 -1.0175 -0.1918 -0.3511
  391MOL0     H53908   3.950   2.738   0.610  1.0191 -2.8768 -0.1507
  391MOL0     H53909   4.086   2.642   0.592  2.0236 -0.3857  1.2957
  391MOL0     H53910   4.134   2.885   0.549  1.2728  0.9084 -0.3309
  391MOL0     H53911   4.099   2.914   0.728  2.7074 -0.7423  1.5232
  391MOL0     H53912   4.265   2.715   0.765  2.0332  0.3056  0.7176
  391MOL0     H53913   4.311   2.760   0.600 -0.1845 -1.0394  0.7943
  391MOL0     H53914   4.469   2.893   0.759  0.3765  1.1450 -0.2820
  391MOL0     H53915   4.348   3.004   0.706 -1.1114  0.6873  1.9811
  391MOL0     H53916   4.343   2.964   1.150 -0.9762 -0.0319 -1.6620
  391MOL0     H53917   4.476   3.229   1.372  2.0101 -0.2618 -1.3392
  391MOL0     H53918   4.559   3.077   1.379 -0.8428 -1.6569  0.8316
  391MOL0     H53919   4.375   3.086   1.366 -1.1064  0.4794 -0.7953
  391MOL0     H53920   4.905   3.281   1.327  1.6516 -1.9570 -1.2271
  391MOL0     H53921   5.081   3.400   1.436 -2.7476 -1.6895 -0.1624
  391MOL0     H53922   5.022   3.667   1.476  3.2473 -4.6892 -0.4560
  391MOL0     H53923   5.167   3.745   1.509  2.4506 -0.1061 -1.9892
  391MOL0     H53924   4.974   3.853   1.297  1.0161  0.9510 -1.2788
  391MOL0     H53925   5.013   3.933   1.450 -1.2238  0.6898  0.0831
  391MOL0     H53926   5.186   3.874   1.206 -2.0975 -0.2882 -1.8844
  391MOL0     H53927   5.253   3.945   1.349  0.6102 -0.9209 -1.2593
  391MOL0     H53928   5.048   4.118   1.330 -2.2537 -2.7337  0.8809
  391MOL0     H53929   5.008   4.053   1.178  2.1521  0.8609 -2.3277
  391MOL0     H53930   5.273   4.190   1.267 -0.4473  0.3958  0.7490
  391MOL0     H53931   5.245   4.107   1.106  1.1597  0.3317  0.7572
  391MOL0     H53932   5.101   4.353   1.187 -1.0084 -0.5915 -0.6237
  391MOL0     H53933   5.075   4.260   1.050  0.2666  2.0538 -1.5915
  391MOL0     H53934   5.340   4.276   1.002 -1.0124  0.1865 -1.3114
  391MOL0     H53935   5.349   4.412   1.119 -0.7683 -0.8060  0.5472
  391MOL0     H53936   5.175   4.394   0.879 -0.9555  0.8275  0.5596
  391MOL0     H53937   5.307   4.506   0.888 -1.3363  1.4908 -1.5274
  391MOL0     H53938   5.065   3.680   1.100 -2.9186 -0.0822 -0.1768
  391MOL0     H53939   4.893   3.537   0.991 -0.4131  1.5629  0.9572
  391MOL0     H53940   4.656   3.271   0.923  0.6982  0.6934 -0.6272
  391MOL0     H53941   4.539   3.118   0.794 -0.5850  1.9283  0.6304
  391MOL0     H53942   3.188   2.053   0.815  4.3136 -0.7896 -1.1492
  391MOL0     H53943   3.066   1.992   0.614  4.3332 -0.5871 -3.5619
  391MOL0     H53944   2.703   1.589   0.490 -1.1672 -1.7543 -0.4917
  391MOL0     H53945   2.551   1.529   0.301  0.5427 -0.2127  1.5202
  391MOL0     H53946   2.559   1.556  -0.143  2.0705  0.0550 -1.7963
  391MOL0     H53947   2.719   1.578  -0.096 -1.0883  1.3175 -1.7309
  391MOL0     H53948   2.736   1.390   0.040  0.6050  2.4850 -0.7154
  391MOL0     H53949   2.654   1.344  -0.104  1.0581 -1.2660  1.6124
  391MOL0     H53950   2.545   1.229   0.079 -2.0145 -0.2760 -0.3666
  391MOL0     H53951   2.514   1.367   0.170  1.3432  0.7756 -1.2022
  391MOL0     H53952   2.389   1.304  -0.100  1.8843 -0.4120  0.5019
  391MOL0     H53953   2.351   1.452  -0.006 -0.2963 -0.2664 -4.4581
  391MOL0     H53954   2.150   1.110   0.167 -2.9009  0.7277 -1.0272
  391MOL0     H53955   2.791   1.773   0.036 -3.0139  0.3373 -1.1492
  391MOL0     H53956   2.957   1.956   0.263 -1.4496 -0.3174 -0.1127
  391MOL0     H53957   3.056   1.815   0.265 -1.7117 -2.8134 -0.0094
  391MOL0     H53958   2.968   1.874   0.109 -1.1164 -1.2401 -0.1357
  392MOL0     O53959   5.628   0.550   7.974  0.3687 -0.4818  0.0752
  392MOL0     C53960   5.581   0.478   7.889  0.8355  0.5350 -0.7435
  392MOL0     O53961   5.654   0.390   7.812  0.5031  0.2546  0.7122
  392MOL0     C53962   5.781   0.373   7.847 -0.4210 -0.2706  0.2023
  392MOL0     C53963   5.889   0.465   7.816 -0.2628  0.6141 -0.2768
  392MOL0     C53964   6.020   0.443   7.862  0.7026 -0.5258  0.2749
  392MOL0     C53965   6.057   0.322   7.927 -0.5287 -0.1190 -0.0696
  392MOL0     O53966   6.183   0.280   7.965  0.2561  0.2950  0.1289
  392MOL0     C53967   6.290   0.376   7.954 -1.1690 -0.5937 -0.3578
  392MOL0     C53968   6.426   0.304   7.936 -0.5008  0.0021 -0.8268
  392MOL0     C53969   6.544   0.392   7.977  0.5906  0.1289 -0.1619
  392MOL0     C53970   6.675   0.358   7.898  0.7790 -0.1130 -0.5941
  392MOL0     C53971   6.768   0.257   7.967 -0.1969 -0.7622  0.0067
  392MOL0     C53972   6.705   0.117   7.963 -0.0209  0.1783  0.1279
  392MOL0     C53973   6.807   0.005   8.004 -0.3645 -1.0758  0.0991
  392MOL0     C53974   6.864   0.024   8.148 -0.3867 -0.4725 -0.2068
  392MOL0     N53975   6.969  -0.074   8.188  0.8360 -0.1739 -0.3816
  392MOL0     C53976   7.075  -0.118   8.115 -0.3807 -0.2818  0.1689
  392MOL0     C53977   7.126  -0.227   8.188  0.5895  0.2004  0.9767
  392MOL0     C53978   7.253  -0.287   8.140 -0.4162 -0.1094  0.0048
  392MOL0     C53979   7.375  -0.190   8.158 -0.5954  0.8964  0.4068
  392MOL0     C53980   7.378  -0.159   8.315  0.4516 -0.4551 -1.2632
  392MOL0     C53981   7.516  -0.154   8.377 -0.8643 -0.4975 -0.2113
  392MOL0     O53982   7.520  -0.081   8.499  0.3172  0.1671  0.7596
  392MOL0     C53983   7.628  -0.074   8.579 -0.5957 -1.2262  0.6130
  392MOL0     C53984   7.738  -0.167   8.605 -0.2439  0.2035  0.6126
  392MOL0     C53985   7.826  -0.148   8.712  1.2003  1.4912  0.2511
  392MOL0     C53986   7.918  -0.271   8.723 -1.0893 -0.1868 -0.1996
  392MOL0     C53987   7.821  -0.025   8.788  0.2980  0.0388 -0.3821
  392MOL0     C53988   7.910   0.013   8.902 -0.2584  0.7121 -0.6725
  392MOL0     O53989   7.872   0.118   8.976 -0.2628 -0.0905 -0.7867
  392MOL0     C53990   7.932   0.131   9.097  0.4561 -0.3013 -0.5264
  392MOL0     C53991   7.904   0.056   9.215  0.1676 -0.2643  0.1143
  392MOL0     C53992   7.970   0.077   9.335 -0.3641 -0.1697 -0.1908
  392MOL0     C53993   8.078   0.168   9.347  0.5399 -0.0548  0.8807
  392MOL0     O53994   8.149   0.173   9.463  0.0902  0.4100  0.1885
  392MOL0     C53995   8.205   0.297   9.499  0.4529  0.3381  0.1226
  392MOL0     C53996   8.266   0.282   9.638 -0.1007 -0.5231 -0.6313
  392MOL0     C53997   8.313   0.419   9.684 -0.5546  0.6606  0.9592
  392MOL0     C53998   8.348   0.417   9.831  0.2804  0.0831 -0.8302
  392MOL0     C53999   8.416   0.541   9.885  0.5822  0.1818 -0.2326
  392MOL0     C54000   8.367   0.582  10.023 -0.4213 -0.0029  0.4023
  392MOL0     C54001   8.434   0.500  10.136  0.3737 -1.0912  0.2955
  392MOL0     C54002   8.380   0.567  10.262  0.6718  0.2507 -0.6718
  392MOL0    Cl54003   8.458   0.718  10.292  0.3930 -0.0866 -0.2061
  392MOL0     C54004   8.105   0.245   9.228  0.5726 -0.8342 -0.2587
  392MOL0     C54005   8.032   0.228   9.108 -0.6216  0.5441 -0.6199
  392MOL0     O54006   7.994  -0.068   8.937 -0.2460  0.1679  0.3445
  392MOL0     C54007   7.721   0.071   8.752  0.3683  0.6236 -0.2175
  392MOL0     C54008   7.623   0.042   8.662 -0.2791  0.5301 -0.2456
  392MOL0     N54009   7.040  -0.256   8.298 -0.8673 -0.3960  0.6869
  392MOL0     N54010   6.952  -0.162   8.291  0.3695 -0.8260 -0.2835
  392MOL0     C54011   5.956   0.231   7.947  0.2495  1.1025  0.6219
  392MOL0     C54012   5.818   0.256   7.914  0.5996 -0.9684 -0.1321
  392MOL0     C54013   5.434   0.474   7.878  0.4985 -0.1164  0.6492
  392MOL0     C54014   5.375   0.460   7.754  0.4124 -0.1788 -0.6442
  392MOL0     C54015   5.240   0.466   7.728  0.6710 -0.7480  0.5816
  392MOL0     C54016   5.156   0.492   7.830 -0.7416  0.5451  0.0739
  392MOL0     O54017   5.027   0.473   7.808  0.1629  0.5471 -0.5395
  392MOL0     C54018   4.933   0.583   7.805 -0.1331 -0.1049  0.5895
  392MOL0     C54019   4.944   0.666   7.678 -0.0591  0.5566  0.2222
  392MOL0     C54020   4.861   0.616   7.562  0.2197 -0.4388 -0.0256
  392MOL0     C54021   4.895   0.479   7.525  0.5575 -0.3234  0.9557
  392MOL0     C54022   4.814   0.425   7.416  0.3265 -0.5549 -0.8547
  392MOL0     C54023   4.741   0.386   7.327 -0.2450  0.0230 -0.1190
  392MOL0     C54024   5.200   0.504   7.965  0.8838 -0.8585  0.8833
  392MOL0     C54025   5.341   0.508   7.982 -0.5137  0.3661 -0.9481
  392MOL0     C54026   5.379   0.535   8.123 -0.3300 -0.4058  0.0492
  392MOL0     H54027   5.875   0.553   7.755 -0.1290  2.1742  1.8084
  392MOL0     H54028   6.093   0.515   7.827  0.0085 -0.4387 -1.0237
  392MOL0     H54029   6.292   0.425   8.051 -2.9430  0.8114 -0.9790
  392MOL0     H54030   6.275   0.446   7.871 -1.3478  0.3938  0.4953
  392MOL0     H54031   6.426   0.210   7.992 -0.0927 -1.0026 -2.4420
  392MOL0     H54032   6.426   0.282   7.829 -3.4897  0.1973 -0.9495
  392MOL0     H54033   6.523   0.498   7.966 -1.5353 -0.4172 -1.9974
  392MOL0     H54034   6.572   0.389   8.083 -1.8745  2.2797  0.6400
  392MOL0     H54035   6.637   0.329   7.800 -1.2398  2.9931 -0.8653
  392MOL0     H54036   6.731   0.450   7.884  0.0676 -0.1426 -4.7268
  392MOL0     H54037   6.803   0.284   8.067  0.8093  1.4702 -0.8823
  392MOL0     H54038   6.860   0.263   7.907 -0.1163  1.5557  0.2885
  392MOL0     H54039   6.629   0.118   8.041 -0.2320 -2.1127  0.0313
  392MOL0     H54040   6.683   0.083   7.861  3.1142 -1.2469 -0.1997
  392MOL0     H54041   6.893   0.003   7.936 -1.0290  0.1629 -0.8207
  392MOL0     H54042   6.773  -0.098   7.991 -1.0229 -0.6021 -2.5398
  392MOL0     H54043   6.912   0.122   8.153 -1.6944  0.1472  1.0763
  392MOL0     H54044   6.781   0.031   8.219 -2.1523  1.8076 -2.3428
  392MOL0     H54045   7.112  -0.079   8.021 -1.2649 -0.9641 -0.4841
  392MOL0     H54046   7.241  -0.321   8.037 -0.2123 -0.8588  0.2220
  392MOL0     H54047   7.268  -0.379   8.198  0.6953 -0.5657 -0.9688
  392MOL0     H54048   7.471  -0.235   8.133 -0.1500  1.8796  0.3190
  392MOL0     H54049   7.360  -0.097   8.102 -1.3650  1.6599  1.8129
  392MOL0     H54050   7.346  -0.056   8.335  0.0221 -1.1208  2.0672
  392MOL0     H54051   7.311  -0.224   8.373 -0.4030  1.1142 -0.4046
  392MOL0     H54052   7.554  -0.256   8.381 -0.8104 -0.4707 -0.0056
  392MOL0     H54053   7.585  -0.106   8.307 -1.2184 -1.4804 -1.2602
  392MOL0     H54054   7.760  -0.247   8.535 -1.3775  2.0918 -2.0882
  392MOL0     H54055   7.912  -0.324   8.819 -2.2741  0.5750  0.1701
  392MOL0     H54056   8.020  -0.234   8.707 -1.0800 -0.1839 -0.1317
  392MOL0     H54057   7.905  -0.347   8.645  0.6863 -1.1046  0.3362
  392MOL0     H54058   7.837  -0.028   9.197  0.9819 -0.8332 -0.3055
  392MOL0     H54059   7.948   0.009   9.416  0.0436  0.1024  0.1550
  392MOL0     H54060   8.296   0.316   9.442  1.5321 -1.2019  1.2379
  392MOL0     H54061   8.126   0.372   9.483 -0.6682 -1.0636 -1.1671
  392MOL0     H54062   8.191   0.248   9.711 -0.3394 -1.2955 -1.2204
  392MOL0     H54063   8.345   0.208   9.634  2.9466  2.4894 -0.7591
  392MOL0     H54064   8.243   0.495   9.649 -0.7709 -0.2577 -0.6978
  392MOL0     H54065   8.400   0.447   9.624 -1.6471  2.9548  0.3230
  392MOL0     H54066   8.392   0.318   9.852 -0.2383  0.5670  3.3610
  392MOL0     H54067   8.254   0.415   9.886  2.2265  0.4148  2.8372
  392MOL0     H54068   8.526   0.540   9.891  0.5255 -0.7968  1.6284
  392MOL0     H54069   8.387   0.627   9.824  2.5762 -0.7545 -2.6809
  392MOL0     H54070   8.258   0.573  10.031 -0.2629 -3.5535  0.3431
  392MOL0     H54071   8.381   0.690  10.034  0.6513 -0.1903  0.9725
  392MOL0     H54072   8.543   0.501  10.135  0.4435  1.9856 -1.2092
  392MOL0     H54073   8.403   0.396  10.125 -0.1701 -0.9188  0.1156
  392MOL0     H54074   8.398   0.499  10.346  2.3727 -1.5564 -2.3953
  392MOL0     H54075   8.276   0.598  10.255  0.2247 -1.3522 -1.6543
  392MOL0     H54076   8.182   0.323   9.228  0.8775 -1.0176 -3.5182
  392MOL0     H54077   8.063   0.276   9.016 -0.4970  3.2615  0.7449
  392MOL0     H54078   7.725   0.173   8.788  1.1944  1.3763 -2.3058
  392MOL0     H54079   7.549   0.121   8.656  1.7529  2.5691  0.3310
  392MOL0     H54080   5.994   0.137   7.988  1.5857  1.7556  0.9280
  392MOL0     H54081   5.737   0.186   7.932 -0.6062  0.4853  0.2683
  392MOL0     H54082   5.444   0.440   7.673  1.0229  3.0221 -1.0684
  392MOL0     H54083   5.218   0.456   7.622  0.4581 -0.9235  0.6430
  392MOL0     H54084   4.831   0.545   7.805 -1.1883  2.4520 -0.7127
  392MOL0     H54085   4.947   0.648   7.892 -1.1672 -0.9447  1.4020
  392MOL0     H54086   5.048   0.672   7.644 -0.0724  0.3359  0.1419
  392MOL0     H54087   4.911   0.767   7.705  0.8722  1.7246 -2.6489
  392MOL0     H54088   4.761   0.619   7.606  0.8926 -2.0694  1.7906
  392MOL0     H54089   4.877   0.682   7.476  1.8064 -2.2429 -1.2011
  392MOL0     H54090   4.877   0.415   7.611  1.1507 -0.3619  1.0548
  392MOL0     H54091   4.997   0.465   7.488  0.7881  1.8813  0.5627
  392MOL0     H54092   4.690   0.352   7.239  1.0769 -1.9214 -0.2053
  392MOL0     H54093   5.131   0.540   8.041  2.1514  2.6586  0.5409
  392MOL0     H54094   5.422   0.444   8.165  2.6671  0.4032 -1.0115
  392MOL0     H54095   5.458   0.609   8.138 -0.1017 -0.2157 -1.8602
  392MOL0     H54096   5.293   0.561   8.186 -0.4921 -1.1840  0.1653
  393MOL0     O54097  10.305   2.986   2.340 -0.1949  0.3876 -0.0011
  393MOL0     C54098  10.416   3.036   2.305 -0.7219 -1.1464  0.4112
  393MOL0     O54099  10.480   3.010   2.193 -1.1503  0.2638  0.4433
  393MOL0     C54100  10.447   2.893   2.133  1.0793 -0.1250 -0.4415
  393MOL0     C54101  10.357   2.882   2.030  0.0115 -0.7367  0.4504
  393MOL0     C54102  10.329   2.770   1.955  0.3297  0.5788  0.0680
  393MOL0     C54103  10.393   2.638   1.990 -0.5481 -0.3046 -0.0364
  393MOL0     O54104  10.368   2.536   1.907 -0.0885  0.2562  0.0469
  393MOL0     C54105  10.392   2.410   1.962  0.7006 -0.0269  0.1336
  393MOL0     C54106  10.335   2.307   1.863 -0.0870 -0.9908  0.2791
  393MOL0     C54107  10.338   2.160   1.893 -0.1164 -0.3677 -0.2780
  393MOL0     C54108  10.282   2.123   2.030  0.2972  0.3609  0.2781
  393MOL0     C54109  10.310   1.979   2.072 -0.9331  0.0034 -0.6173
  393MOL0     C54110  10.194   1.931   2.162 -0.1624  0.1374  0.3579
  393MOL0     C54111  10.223   1.792   2.207 -0.1287 -0.8556  0.4046
  393MOL0     C54112  10.102   1.741   2.297 -0.0004 -0.2231  0.1980
  393MOL0     N54113  10.134   1.629   2.379  0.0253  0.4658  0.5318
  393MOL0     C54114  10.184   1.506   2.339  0.1670 -0.4196 -1.1779
  393MOL0     C54115  10.210   1.439   2.455  0.3120 -0.4966 -0.3424
  393MOL0     C54116  10.274   1.306   2.473  0.1233 -0.8626 -0.3356
  393MOL0     C54117  10.421   1.283   2.427 -1.1759  0.0030 -0.8359
  393MOL0     C54118  10.519   1.355   2.518  0.9750  0.2987 -0.2471
  393MOL0     C54119  10.650   1.373   2.453 -0.7339 -0.4154 -0.1147
  393MOL0     O54120  10.711   1.239   2.426 -0.2535  0.4705  0.4358
  393MOL0     C54121  10.843   1.235   2.378 -1.2505 -0.2641  0.4730
  393MOL0     C54122  10.893   1.106   2.365 -0.4855 -0.5246 -0.0559
  393MOL0     C54123  11.013   1.084   2.300 -0.5536  0.0695 -0.0853
  393MOL0     C54124  11.065   0.945   2.325  0.1395 -0.3120 -0.1941
  393MOL0     C54125  11.089   1.187   2.243 -0.2012  0.1477  0.0033
  393MOL0     C54126  11.236   1.179   2.186  0.5504 -0.4850 -0.3362
  393MOL0     O54127  11.314   1.293   2.183 -0.6329  0.0544  0.2900
  393MOL0     C54128  11.447   1.301   2.155  0.9226 -0.2704  0.4387
  393MOL0     C54129  11.518   1.185   2.128 -0.9728  0.4435 -0.1213
  393MOL0     C54130  11.660   1.202   2.122  0.6198  0.7366 -0.7913
  393MOL0     C54131  11.716   1.325   2.098  0.1500  0.8960  0.6445
  393MOL0     O54132  11.850   1.321   2.063  0.2549  0.3234  0.1660
  393MOL0     C54133  11.914   1.426   1.998  0.2409 -0.0665 -0.7160
  393MOL0     C54134  11.849   1.450   1.859  0.0702  0.6870 -1.0610
  393MOL0     C54135  11.925   1.552   1.778  0.3725 -0.2128 -0.2606
  393MOL0     C54136  11.938   1.690   1.851 -1.4145 -0.5293  0.3395
  393MOL0     C54137  12.020   1.787   1.761 -0.8461 -0.4316  0.1109
  393MOL0     C54138  11.985   1.941   1.798 -0.4637 -0.4137  0.5745
  393MOL0     C54139  12.041   2.041   1.696  0.3158  0.4148  0.4818
  393MOL0     C54140  11.949   2.055   1.574 -0.0095  0.5249  0.1300
  393MOL0    Cl54141  12.019   2.172   1.466  0.0489 -0.4461 -0.3536
  393MOL0     C54142  11.645   1.434   2.117  0.3693 -0.3450  0.1616
  393MOL0     C54143  11.514   1.426   2.152  0.0648  0.4562  0.6467
  393MOL0     O54144  11.263   1.074   2.133  0.7679 -0.4204 -0.7254
  393MOL0     C54145  11.028   1.318   2.255 -0.4210  0.3662  0.6799
  393MOL0     C54146  10.910   1.348   2.317  0.4027  0.1137 -0.2715
  393MOL0     N54147  10.194   1.526   2.559  0.0199  0.0506 -0.2773
  393MOL0     N54148  10.143   1.639   2.511  0.5765  0.0782 -0.1680
  393MOL0     C54149  10.472   2.646   2.106  0.1201  0.3020 -0.2358
  393MOL0     C54150  10.502   2.774   2.172  0.5770  0.0819 -0.2611
  393MOL0     C54151  10.481   3.136   2.398  0.7811 -0.3005  1.7856
  393MOL0     C54152  10.620   3.121   2.418  0.7482  0.1823 -0.0194
  393MOL0     C54153  10.689   3.187   2.521  0.1059  0.2834  1.0879
  393MOL0     C54154  10.625   3.268   2.607  0.8561 -1.1418  0.5088
  393MOL0     O54155  10.697   3.323   2.715  0.2405  0.0530  0.3803
  393MOL0     C54156  10.694   3.466   2.714  0.1004  0.3492 -0.0774
  393MOL0     C54157  10.822   3.519   2.644  1.8572 -0.0686  0.4608
  393MOL0     C54158  10.935   3.513   2.736  0.1270  0.2750 -0.0475
  393MOL0     C54159  10.979   3.374   2.777 -0.9440  0.3168  0.4619
  393MOL0     C54160  11.108   3.371   2.836 -0.5566  0.1909  0.0797
  393MOL0     C54161  11.224   3.352   2.870 -0.8007  0.4595  0.1502
  393MOL0     C54162  10.480   3.287   2.591  0.2892  0.7504 -0.0288
  393MOL0     C54163  10.408   3.219   2.490  0.8816  0.4305  0.1088
  393MOL0     C54164  10.267   3.253   2.471  0.1980  0.3507 -0.5275
  393MOL0     H54165  10.302   2.973   2.010 -0.3421 -1.8002 -5.0349
  393MOL0     H54166  10.267   2.783   1.867  0.2324  2.4732  0.3882
  393MOL0     H54167  10.354   2.395   2.063  2.9986 -1.1749  0.8880
  393MOL0     H54168  10.498   2.391   1.977  0.0997 -2.5602  1.8806
  393MOL0     H54169  10.230   2.332   1.843 -0.5455 -1.2540  2.1398
  393MOL0     H54170  10.385   2.310   1.766  1.6394  2.9070  1.0871
  393MOL0     H54171  10.285   2.106   1.814 -1.4619 -0.5817  0.7358
  393MOL0     H54172  10.445   2.146   1.878  0.3946  4.4773 -2.7953
  393MOL0     H54173  10.309   2.191   2.111  0.8067  4.1229 -2.7945
  393MOL0     H54174  10.174   2.126   2.017 -0.0479 -1.3993  2.0739
  393MOL0     H54175  10.401   1.983   2.132 -0.7504  1.3500 -0.9661
  393MOL0     H54176  10.321   1.899   1.998  2.1612 -1.1395  0.8932
  393MOL0     H54177  10.186   1.993   2.253 -0.2732  1.4047 -0.4902
  393MOL0     H54178  10.106   1.921   2.098  0.5302 -0.7669 -0.4558
  393MOL0     H54179  10.307   1.809   2.275 -0.0822  0.4663  0.0449
  393MOL0     H54180  10.255   1.716   2.135  3.1410  1.6055 -0.9894
  393MOL0     H54181  10.064   1.825   2.355 -0.0533 -1.2546  1.7069
  393MOL0     H54182  10.022   1.715   2.227  1.8845 -0.0627 -2.1870
  393MOL0     H54183  10.201   1.478   2.235  1.8454  0.1746 -1.0965
  393MOL0     H54184  10.210   1.234   2.420  0.1816  0.4191 -2.2421
  393MOL0     H54185  10.264   1.285   2.580  3.7604 -0.4314  0.2209
  393MOL0     H54186  10.435   1.174   2.420 -2.5837 -0.2125 -0.7074
  393MOL0     H54187  10.427   1.319   2.324  1.4444  0.7284 -0.5044
  393MOL0     H54188  10.486   1.456   2.543 -0.7350 -0.1785 -0.4782
  393MOL0     H54189  10.532   1.299   2.611 -0.3017  0.7165  0.1962
  393MOL0     H54190  10.626   1.438   2.369  2.3287  0.4386 -0.4111
  393MOL0     H54191  10.709   1.428   2.528 -1.4375  0.5066 -0.2110
  393MOL0     H54192  10.843   1.025   2.417  0.1245 -0.5086  0.5766
  393MOL0     H54193  11.076   0.892   2.230 -3.6913  0.0175 -0.9831
  393MOL0     H54194  10.991   0.894   2.387 -1.5790  3.1188  0.8384
  393MOL0     H54195  11.162   0.944   2.376 -1.3055 -0.9423  2.7218
  393MOL0     H54196  11.487   1.085   2.154  3.5445 -0.7332  1.8652
  393MOL0     H54197  11.722   1.114   2.132  1.9769  1.9121  2.8408
  393MOL0     H54198  11.909   1.514   2.063  1.6091 -1.9862  2.1559
  393MOL0     H54199  12.017   1.392   1.985 -0.3484 -1.8531 -0.9325
  393MOL0     H54200  11.854   1.355   1.804  2.9858 -0.9788  1.7232
  393MOL0     H54201  11.747   1.485   1.873 -0.0569 -0.4094  1.2020
  393MOL0     H54202  11.884   1.572   1.679  0.7960  0.6327 -0.2753
  393MOL0     H54203  12.029   1.522   1.763  0.1256 -0.6714 -1.0785
  393MOL0     H54204  11.996   1.678   1.943  1.3538 -0.3724 -1.2915
  393MOL0     H54205  11.838   1.736   1.851 -0.2783  2.1219 -0.0243
  393MOL0     H54206  12.128   1.770   1.753 -0.7302  0.4696 -0.5514
  393MOL0     H54207  11.980   1.771   1.660 -2.7901  0.3829  0.7089
  393MOL0     H54208  12.036   1.955   1.894 -1.3322 -2.1332  1.3473
  393MOL0     H54209  11.878   1.956   1.814 -0.3383  0.5681  0.5518
  393MOL0     H54210  12.142   2.009   1.671  0.2231  0.2165  0.3571
  393MOL0     H54211  12.057   2.133   1.754  5.1080  0.2480 -0.1858
  393MOL0     H54212  11.854   2.085   1.618 -0.2561 -0.7306  0.5092
  393MOL0     H54213  11.929   1.962   1.519  2.4464  1.1018 -1.9485
  393MOL0     H54214  11.696   1.530   2.118  1.4306 -0.8883  0.0006
  393MOL0     H54215  11.464   1.520   2.171 -0.8640  0.8786 -3.1719
  393MOL0     H54216  11.079   1.398   2.202  0.0260 -0.2799  0.1251
  393MOL0     H54217  10.887   1.453   2.331  0.3866 -0.0450  0.9949
  393MOL0     H54218  10.541   2.569   2.140  1.2510  1.6440  0.6199
  393MOL0     H54219  10.570   2.771   2.257  0.3435 -0.6269 -0.0823
  393MOL0     H54220  10.669   3.046   2.355 -3.9309 -2.8975 -0.4956
  393MOL0     H54221  10.795   3.170   2.533  0.1504  0.1727  0.5765
  393MOL0     H54222  10.602   3.503   2.668 -1.9351 -1.6961  2.0632
  393MOL0     H54223  10.692   3.492   2.820  1.2946  0.0914  0.0227
  393MOL0     H54224  10.805   3.624   2.619 -1.7050 -0.5952  0.1041
  393MOL0     H54225  10.839   3.464   2.551 -1.5846  1.0518 -1.0010
  393MOL0     H54226  11.007   3.579   2.688 -0.0741 -0.8803 -2.0440
  393MOL0     H54227  10.898   3.568   2.823  1.8342  2.4246 -0.6009
  393MOL0     H54228  10.974   3.298   2.698  0.2307 -0.2449  0.8989
  393MOL0     H54229  10.912   3.343   2.858 -1.1628  1.4681  0.7367
  393MOL0     H54230  11.325   3.344   2.906 -0.5080 -2.1079 -0.9518
  393MOL0     H54231  10.426   3.354   2.657 -3.5445 -1.5361 -0.5658
  393MOL0     H54232  10.244   3.346   2.524 -3.9248 -1.4109  1.2247
  393MOL0     H54233  10.249   3.264   2.364 -1.7365  0.5968 -0.2035
  393MOL0     H54234  10.191   3.177   2.493 -2.0497  2.0962 -1.8189
  394MOL0     O54235  10.286   0.672   6.049  0.5334 -0.1425 -0.1936
  394MOL0     C54236  10.198   0.758   6.086 -0.1767 -0.2936  0.2060
  394MOL0     O54237  10.197   0.838   6.191 -0.4595 -0.8117  0.5948
  394MOL0     C54238  10.321   0.893   6.224 -0.2392  0.6638 -0.4209
  394MOL0     C54239  10.327   0.949   6.363 -0.3093  0.3907 -0.3265
  394MOL0     C54240  10.455   0.985   6.411  0.0065  0.4489  0.3024
  394MOL0     C54241  10.563   0.980   6.324 -0.2801 -0.1145  0.4933
  394MOL0     O54242  10.683   1.007   6.379 -0.1877  0.0623  0.1945
  394MOL0     C54243  10.765   0.896   6.428  0.2938 -1.1132  0.6844
  394MOL0     C54244  10.840   0.835   6.324  0.7047  0.9519 -0.0100
  394MOL0     C54245  10.964   0.913   6.276  0.1217  0.0067  0.2728
  394MOL0     C54246  11.069   0.946   6.393 -0.2632 -0.0436  0.5270
  394MOL0     C54247  11.206   0.984   6.336 -0.0975 -0.1356 -0.3875
  394MOL0     C54248  11.312   1.003   6.436  0.0890 -0.7061  0.3789
  394MOL0     C54249  11.446   1.026   6.366  0.1622  1.0396  0.2754
  394MOL0     C54250  11.577   1.018   6.461  0.6312  0.0605  0.0181
  394MOL0     N54251  11.596   0.881   6.504 -0.4593  0.6627 -0.6022
  394MOL0     C54252  11.635   0.778   6.418  0.1167 -0.2756  0.2330
  394MOL0     C54253  11.642   0.663   6.500  0.5685 -1.2246  0.8644
  394MOL0     C54254  11.694   0.529   6.464  0.5286  0.0588 -0.2714
  394MOL0     C54255  11.592   0.449   6.387  0.0022 -0.1912  0.4347
  394MOL0     C54256  11.647   0.313   6.343  0.4875  0.5903  0.2423
  394MOL0     C54257  11.565   0.259   6.222  0.7202 -0.2162 -0.3807
  394MOL0     O54258  11.615   0.137   6.164 -0.0749 -0.1744 -0.4657
  394MOL0     C54259  11.526   0.038   6.121  1.0931  0.1608  0.0078
  394MOL0     C54260  11.503   0.019   5.983 -0.0696 -0.6518 -0.1773
  394MOL0     C54261  11.402  -0.073   5.937  0.1928 -0.9728  0.3086
  394MOL0     C54262  11.403  -0.105   5.785 -0.0481 -0.4650 -0.7792
  394MOL0     C54263  11.310  -0.144   6.023  0.4110 -0.1187 -1.1369
  394MOL0     C54264  11.220  -0.255   5.981  0.5646  0.0353  0.1553
  394MOL0     O54265  11.199  -0.289   5.854  0.2879  0.4471  0.4516
  394MOL0     C54266  11.114  -0.394   5.827 -0.9281  0.0790  0.1988
  394MOL0     C54267  10.973  -0.383   5.822 -0.2625  0.4824  0.2779
  394MOL0     C54268  10.888  -0.493   5.795 -0.3163  0.4343 -0.4431
  394MOL0     C54269  10.932  -0.617   5.760 -0.3495 -0.4577 -0.1599
  394MOL0     O54270  10.862  -0.737   5.741 -0.3745  0.0148 -0.6560
  394MOL0     C54271  10.738  -0.736   5.666 -0.0666  1.0663 -0.3857
  394MOL0     C54272  10.669  -0.879   5.660 -0.7841  0.5058  0.0747
  394MOL0     C54273  10.763  -0.975   5.579  0.5615  0.6374  1.1018
  394MOL0     C54274  10.804  -1.092   5.658 -0.7834  0.6039 -0.4616
  394MOL0     C54275  10.903  -1.054   5.770 -0.8221  0.5742 -0.6504
  394MOL0     C54276  10.961  -1.175   5.832 -0.1054  0.0190 -0.3120
  394MOL0     C54277  11.060  -1.133   5.943 -0.3122 -0.3568 -0.2093
  394MOL0     C54278  11.173  -1.233   5.969  0.3430  0.0440 -0.8439
  394MOL0    Cl54279  11.105  -1.394   5.992 -0.5688 -0.0984 -0.2216
  394MOL0     C54280  11.079  -0.624   5.751 -0.9066  0.2045 -0.7247
  394MOL0     C54281  11.164  -0.522   5.798  0.2087  0.6930 -0.1146
  394MOL0     O54282  11.177  -0.318   6.075 -0.3991  0.5327 -0.3743
  394MOL0     C54283  11.342  -0.119   6.162 -0.3443 -0.2963  0.3076
  394MOL0     C54284  11.448  -0.039   6.207 -0.0580 -0.0495  0.4063
  394MOL0     N54285  11.607   0.703   6.630  0.3262 -0.1639  0.3961
  394MOL0     N54286  11.584   0.821   6.632 -0.1205 -0.1187 -0.0775
  394MOL0     C54287  10.548   0.941   6.192 -1.0057 -1.0400 -0.2730
  394MOL0     C54288  10.425   0.918   6.136 -0.4251  0.6732 -0.6452
  394MOL0     C54289  10.075   0.761   6.018 -0.2159 -1.4423 -0.0824
  394MOL0     C54290  10.033   0.891   5.970 -0.4769  0.3415 -0.3628
  394MOL0     C54291   9.923   0.915   5.897 -0.2456  0.2904  0.4525
  394MOL0     C54292   9.837   0.806   5.861 -0.3434 -0.4274 -0.2712
  394MOL0     O54293   9.732   0.837   5.777  0.4317 -0.4584  0.0985
  394MOL0     C54294   9.674   0.726   5.710 -1.4017  0.1451 -0.2726
  394MOL0     C54295   9.758   0.692   5.588  0.7290  1.0225  0.2931
  394MOL0     C54296   9.739   0.809   5.482  0.2848 -0.3529  0.6931
  394MOL0     C54297   9.817   0.774   5.366 -0.8266  0.7803  0.2277
  394MOL0     C54298   9.781   0.872   5.268  0.1840 -0.3420  0.4869
  394MOL0     C54299   9.753   0.969   5.194 -0.4135  0.9244 -0.4911
  394MOL0     C54300   9.862   0.688   5.930  0.4362  0.5082  0.7171
  394MOL0     C54301   9.981   0.660   5.999 -0.0064  0.6423 -0.0702
  394MOL0     C54302   9.991   0.524   6.074  0.0494  0.4549  0.2572
  394MOL0     H54303  10.244   0.956   6.432  0.7794 -0.7436  1.1530
  394MOL0     H54304  10.471   1.018   6.513 -0.2572  0.3471  0.3782
  394MOL0     H54305  10.712   0.819   6.485  1.4015 -0.6199  2.4382
  394MOL0     H54306  10.829   0.941   6.504  1.7123 -1.3895 -0.2916
  394MOL0     H54307  10.865   0.738   6.369 -1.2461  0.9704  1.2149
  394MOL0     H54308  10.777   0.814   6.237  1.4786 -1.7667 -0.0043
  394MOL0     H54309  11.006   0.849   6.198 -0.3528  1.8925 -1.6108
  394MOL0     H54310  10.938   1.005   6.224  2.6470 -0.4963 -2.1207
  394MOL0     H54311  11.037   1.024   6.462  3.4680  0.2027  2.1950
  394MOL0     H54312  11.074   0.853   6.450 -3.7893 -0.7747 -0.1095
  394MOL0     H54313  11.204   1.076   6.276  0.6197 -1.1964 -2.1363
  394MOL0     H54314  11.228   0.909   6.259  3.0635 -1.7667  1.8748
  394MOL0     H54315  11.291   1.092   6.496  1.0836 -3.1569  4.7379
  394MOL0     H54316  11.322   0.918   6.503  0.8312 -2.7924 -2.2115
  394MOL0     H54317  11.445   1.128   6.326  0.2473  0.3713 -1.4977
  394MOL0     H54318  11.461   0.965   6.277  0.5485  1.1885  0.2362
  394MOL0     H54319  11.664   1.054   6.406 -1.5355  0.8346 -3.2117
  394MOL0     H54320  11.558   1.061   6.560  0.4919 -1.2129  0.5619
  394MOL0     H54321  11.643   0.786   6.310 -1.4565 -4.2446 -0.3600
  394MOL0     H54322  11.724   0.462   6.545 -1.3851 -0.1773  0.2789
  394MOL0     H54323  11.790   0.551   6.416  1.3110 -1.2143  0.6465
  394MOL0     H54324  11.496   0.426   6.434  0.5370 -0.4322  1.4408
  394MOL0     H54325  11.575   0.503   6.293 -1.9283  0.9010  1.3522
  394MOL0     H54326  11.752   0.308   6.312  0.6174  2.1542  0.3942
  394MOL0     H54327  11.635   0.242   6.426 -2.0343 -1.7458 -1.9400
  394MOL0     H54328  11.462   0.255   6.258  1.3562  0.4035  1.6363
  394MOL0     H54329  11.565   0.332   6.139  2.5860 -2.6154 -2.6735
  394MOL0     H54330  11.567   0.074   5.915 -0.6617  0.1567 -0.0959
  394MOL0     H54331  11.488  -0.046   5.747 -1.1805  2.9186  1.4305
  394MOL0     H54332  11.306  -0.076   5.743  0.7125  0.5803 -1.8979
  394MOL0     H54333  11.425  -0.212   5.776 -0.3623 -0.5857 -0.1784
  394MOL0     H54334  10.924  -0.288   5.840 -0.1817  0.5578  0.1046
  394MOL0     H54335  10.781  -0.475   5.801 -0.5316 -0.4551 -1.4089
  394MOL0     H54336  10.672  -0.662   5.712 -0.8739  0.1010  0.0443
  394MOL0     H54337  10.767  -0.711   5.563 -1.8810  3.8199 -0.3460
  394MOL0     H54338  10.643  -0.919   5.758  2.1393  2.2908  1.7259
  394MOL0     H54339  10.580  -0.874   5.597  0.2372 -1.4163 -1.6684
  394MOL0     H54340  10.860  -0.937   5.547  0.3170 -1.8887 -3.5308
  394MOL0     H54341  10.719  -1.008   5.484 -0.1134 -1.8393  2.2096
  394MOL0     H54342  10.853  -1.162   5.588 -0.5544  0.4927 -0.1913
  394MOL0     H54343  10.717  -1.134   5.707 -0.7595  0.3978 -0.5936
  394MOL0     H54344  10.992  -1.006   5.728  0.1812  0.2608  1.0395
  394MOL0     H54345  10.864  -0.983   5.843  1.6435 -1.9060  3.5413
  394MOL0     H54346  11.007  -1.240   5.758  0.3569  1.4260 -1.3204
  394MOL0     H54347  10.881  -1.236   5.873  0.6098 -0.4397  0.4208
  394MOL0     H54348  11.002  -1.108   6.032  0.1466  0.3542 -0.1054
  394MOL0     H54349  11.113  -1.042   5.911  1.1514 -1.0375  0.2208
  394MOL0     H54350  11.227  -1.202   6.058 -0.4518  0.7611 -0.5996
  394MOL0     H54351  11.241  -1.239   5.884  0.7133 -3.1003 -0.4581
  394MOL0     H54352  11.115  -0.717   5.709  0.0395  1.3572 -2.5923
  394MOL0     H54353  11.272  -0.528   5.801  0.5891  2.5490 -3.9387
  394MOL0     H54354  11.277  -0.170   6.233 -0.1946  1.4970  1.8246
  394MOL0     H54355  11.471  -0.036   6.313 -1.3106 -0.2659  0.7013
  394MOL0     H54356  10.641   0.936   6.136 -1.1507  0.6493 -0.7214
  394MOL0     H54357  10.415   0.885   6.033 -1.7419  1.7402 -0.8841
  394MOL0     H54358  10.102   0.973   5.992  1.0513 -0.8707 -0.5011
  394MOL0     H54359   9.889   1.008   5.854 -0.1459  0.2982  0.3927
  394MOL0     H54360   9.666   0.643   5.780 -2.4812 -0.0975 -0.6720
  394MOL0     H54361   9.569   0.743   5.686 -1.4578 -3.3361 -3.5332
  394MOL0     H54362   9.725   0.593   5.555 -0.5017  1.2326  0.8465
  394MOL0     H54363   9.865   0.692   5.609  0.6526  2.3041  0.7719
  394MOL0     H54364   9.636   0.815   5.448  0.3679 -1.6116  0.1661
  394MOL0     H54365   9.770   0.905   5.526 -0.6838 -0.7295  2.2642
  394MOL0     H54366   9.795   0.677   5.320  1.0033 -0.1168  1.1315
  394MOL0     H54367   9.923   0.767   5.393  0.3158 -1.9623 -4.0015
  394MOL0     H54368   9.736   1.055   5.133  2.0952  1.9193  0.1155
  394MOL0     H54369   9.795   0.604   5.918 -0.2765  1.4427 -4.0414
  394MOL0     H54370   9.918   0.457   6.028 -0.0662  1.9584 -1.9205
  394MOL0     H54371  10.092   0.481   6.067 -1.0075 -2.0698 -0.6744
  394MOL0     H54372   9.970   0.533   6.180  1.5603 -1.2502  0.7685
  395MOL0     O54373  11.498   2.740   3.003 -0.2140  0.2697 -0.7762
  395MOL0     C54374  11.453   2.650   3.066  0.1228 -0.6666  0.7312
  395MOL0     O54375  11.516   2.535   3.091  0.4693  0.8248 -0.0259
  395MOL0     C54376  11.646   2.529   3.069 -0.2896 -0.9253  0.9032
  395MOL0     C54377  11.706   2.493   2.948 -0.5860 -0.7690  0.1339
  395MOL0     C54378  11.842   2.482   2.938 -0.8167 -0.3959 -0.0369
  395MOL0     C54379  11.927   2.522   3.049 -0.8268 -0.2200 -0.0711
  395MOL0     O54380  12.065   2.517   3.032 -0.7548 -0.1724 -0.4367
  395MOL0     C54381  12.144   2.625   3.097  0.1960  0.4957  0.4601
  395MOL0     C54382  12.290   2.580   3.107 -1.6451 -0.3275  0.4378
  395MOL0     C54383  12.340   2.503   2.984 -0.9556 -0.2547  0.2738
  395MOL0     C54384  12.490   2.499   2.974  0.7345 -0.5093  0.1837
  395MOL0     C54385  12.530   2.419   2.861  0.5511 -0.0024  0.2124
  395MOL0     C54386  12.681   2.382   2.885 -0.6157  0.0798  0.6858
  395MOL0     C54387  12.763   2.510   2.895 -0.1252  0.2019  0.0276
  395MOL0     C54388  12.916   2.495   2.873 -0.5633  0.8637 -0.7460
  395MOL0     N54389  12.941   2.418   2.755  0.1750 -0.3551 -0.2507
  395MOL0     C54390  12.942   2.458   2.623  0.3678  0.3271 -0.3599
  395MOL0     C54391  12.986   2.351   2.554  0.8308 -0.4060  0.5770
  395MOL0     C54392  13.021   2.370   2.410  0.4812  0.1262 -0.2436
  395MOL0     C54393  13.172   2.380   2.400 -0.5949  0.0615  1.0232
  395MOL0     C54394  13.198   2.377   2.248 -0.8114  0.9805 -0.0622
  395MOL0     C54395  13.345   2.408   2.226  0.6309  0.5763  0.3691
  395MOL0     O54396  13.423   2.291   2.249 -0.7991 -0.3499  0.1251
  395MOL0     C54397  13.554   2.303   2.206 -0.2122  0.2331 -0.4192
  395MOL0     C54398  13.616   2.415   2.163  0.1431 -0.3868  0.6844
  395MOL0     C54399  13.756   2.412   2.137  0.3796  0.2431 -0.4486
  395MOL0     C54400  13.812   2.550   2.113  0.1993  0.3015 -0.9615
  395MOL0     C54401  13.839   2.298   2.141  0.7331  0.3707  0.3694
  395MOL0     C54402  13.980   2.288   2.116 -0.4461 -0.3266  0.0147
  395MOL0     O54403  14.025   2.164   2.075 -0.1462  0.3649 -0.0556
  395MOL0     C54404  14.158   2.146   2.043 -0.1580 -0.1837 -0.3494
  395MOL0     C54405  14.213   2.148   1.918  0.6367 -0.2677 -0.3454
  395MOL0     C54406  14.352   2.144   1.893  0.2535  0.4678 -0.0127
  395MOL0     C54407  14.444   2.132   1.988  1.0397 -0.0835  0.2778
  395MOL0     O54408  14.573   2.128   1.945 -0.0998  0.6657 -1.0044
  395MOL0     C54409  14.670   2.087   2.050  0.7086 -0.0614 -0.2990
  395MOL0     C54410  14.804   2.067   1.984  0.4959 -0.2086 -0.8431
  395MOL0     C54411  14.922   2.077   2.081  0.1032 -0.8767 -0.6469
  395MOL0     C54412  15.058   2.068   2.012 -0.9256 -0.2246  0.8178
  395MOL0     C54413  15.172   2.040   2.109  0.2932 -0.5162  0.1754
  395MOL0     C54414  15.191   2.139   2.228 -0.2536  0.1387  0.3880
  395MOL0     C54415  15.307   2.115   2.325 -0.3686  0.0274  0.2623
  395MOL0     C54416  15.440   2.091   2.269  0.7631 -0.7616  0.4983
  395MOL0    Cl54417  15.498   2.214   2.140  0.0759 -0.0106 -0.2443
  395MOL0     C54418  14.396   2.121   2.115  0.2574  0.0322 -0.7200
  395MOL0     C54419  14.255   2.128   2.144 -0.2153  0.0099 -0.0631
  395MOL0     O54420  14.054   2.390   2.122 -0.1602 -0.2387 -0.3819
  395MOL0     C54421  13.762   2.179   2.172 -0.2299 -0.0841 -0.0080
  395MOL0     C54422  13.629   2.188   2.206 -0.0396  1.0139 -0.6158
  395MOL0     N54423  13.020   2.251   2.636  0.1709  0.6902 -0.5219
  395MOL0     N54424  12.984   2.286   2.758 -0.5302 -0.0059 -1.1482
  395MOL0     C54425  11.867   2.559   3.170 -0.0949 -0.3180  0.2833
  395MOL0     C54426  11.724   2.567   3.178  0.3611  0.4799 -0.0229
  395MOL0     C54427  11.310   2.669   3.097 -0.1391  0.3752 -0.5925
  395MOL0     C54428  11.254   2.795   3.105 -0.8808  0.1947  0.6022
  395MOL0     C54429  11.119   2.817   3.142 -0.2168  0.0286 -0.0595
  395MOL0     C54430  11.037   2.713   3.166  0.8996  0.6675 -0.1426
  395MOL0     O54431  10.907   2.760   3.204 -0.3794 -0.8320 -0.0083
  395MOL0     C54432  10.813   2.653   3.227  0.5143 -0.3237  0.0941
  395MOL0     C54433  10.676   2.716   3.215  0.5441  0.9340  0.8291
  395MOL0     C54434  10.550   2.624   3.209  0.2803  0.0753  0.6360
  395MOL0     C54435  10.483   2.585   3.333 -0.6905  0.3081  0.2790
  395MOL0     C54436  10.440   2.699   3.414 -0.1945 -0.9413  0.0622
  395MOL0     C54437  10.423   2.807   3.480 -1.1566  0.3402 -0.1036
  395MOL0     C54438  11.091   2.580   3.149  0.4108 -0.1501 -0.4886
  395MOL0     C54439  11.223   2.556   3.117 -0.0227  0.2071  0.1515
  395MOL0     C54440  11.274   2.414   3.117 -0.0914  0.1377 -0.4941
  395MOL0     H54441  11.639   2.454   2.871 -2.6073 -3.1997  2.8783
  395MOL0     H54442  11.888   2.452   2.845  0.3213 -1.1621  0.7574
  395MOL0     H54443  12.110   2.653   3.197  1.3271 -1.5247  1.4864
  395MOL0     H54444  12.142   2.716   3.036 -3.4405  0.3955  0.1849
  395MOL0     H54445  12.361   2.662   3.115 -0.6380 -0.9539 -1.3940
  395MOL0     H54446  12.307   2.515   3.193  1.3735  1.4658  1.3436
  395MOL0     H54447  12.302   2.402   3.002  1.9171 -1.3773  0.5265
  395MOL0     H54448  12.289   2.546   2.896  1.2889  2.5017  0.1882
  395MOL0     H54449  12.528   2.600   2.957 -1.8182  0.6025  0.5656
  395MOL0     H54450  12.520   2.454   3.069  1.8498 -3.7496 -1.5365
  395MOL0     H54451  12.522   2.475   2.767  1.3814 -0.7039 -0.2867
  395MOL0     H54452  12.474   2.325   2.867  2.0087 -0.8905  0.1574
  395MOL0     H54453  12.685   2.328   2.980  3.7768  1.0175  1.2450
  395MOL0     H54454  12.702   2.322   2.796 -2.7551 -1.4979  1.1622
  395MOL0     H54455  12.748   2.556   2.993  1.3218  0.5051  0.1410
  395MOL0     H54456  12.738   2.588   2.822 -2.6306  1.4119  2.0432
  395MOL0     H54457  12.977   2.586   2.882  2.9046 -1.5004  3.7615
  395MOL0     H54458  12.938   2.433   2.961 -1.8591  1.8586  0.3298
  395MOL0     H54459  12.929   2.556   2.578  3.4007  1.0366  0.1297
  395MOL0     H54460  12.968   2.454   2.365  3.9658  1.3883 -2.3454
  395MOL0     H54461  12.987   2.282   2.354  3.0922 -0.7824 -0.5336
  395MOL0     H54462  13.201   2.475   2.445  1.4792 -1.5249  3.3191
  395MOL0     H54463  13.232   2.305   2.453 -1.1121  0.4031  2.1289
  395MOL0     H54464  13.172   2.281   2.203  1.2594  0.5895 -0.5627
  395MOL0     H54465  13.133   2.456   2.209  0.2887  1.6080 -0.6797
  395MOL0     H54466  13.358   2.441   2.122 -3.8932  0.1088 -0.5469
  395MOL0     H54467  13.371   2.497   2.284 -0.9730  0.6257  1.0414
  395MOL0     H54468  13.559   2.507   2.161  0.4745 -0.1498 -1.9144
  395MOL0     H54469  13.820   2.552   2.004 -0.1405 -2.2696 -1.0951
  395MOL0     H54470  13.903   2.585   2.164  0.8447  2.5114 -3.3871
  395MOL0     H54471  13.744   2.627   2.151 -1.5756  0.3880 -3.9400
  395MOL0     H54472  14.141   2.171   1.839  1.5509 -2.1230 -1.7911
  395MOL0     H54473  14.396   2.172   1.798 -0.4901  0.8024 -0.2645
  395MOL0     H54474  14.675   2.170   2.122  0.5183 -0.9010  0.7027
  395MOL0     H54475  14.648   1.993   2.101  0.8785 -0.1609 -0.4095
  395MOL0     H54476  14.813   1.967   1.941  1.4162 -0.6534  0.3103
  395MOL0     H54477  14.817   2.135   1.899 -2.1837 -2.4848 -3.2927
  395MOL0     H54478  14.928   1.998   2.156  2.8113  0.5549  0.8032
  395MOL0     H54479  14.922   2.161   2.151  0.0668 -1.8645  0.5716
  395MOL0     H54480  15.079   2.162   1.960 -0.6094 -0.5754  0.3043
  395MOL0     H54481  15.046   1.980   1.948 -1.7581  0.9148 -0.6593
  395MOL0     H54482  15.184   1.935   2.135  1.7172 -0.3795  0.1386
  395MOL0     H54483  15.260   2.061   2.049  0.2300  3.9724  1.2572
  395MOL0     H54484  15.100   2.143   2.290 -0.4110 -1.7450  0.3402
  395MOL0     H54485  15.196   2.245   2.203 -0.9370 -0.2070 -1.2979
  395MOL0     H54486  15.269   2.037   2.392 -2.4704  0.4506 -0.3853
  395MOL0     H54487  15.324   2.200   2.391  1.1988  0.4581 -0.6395
  395MOL0     H54488  15.444   1.987   2.235  0.0904 -1.3556  2.1452
  395MOL0     H54489  15.515   2.102   2.348  4.4889  0.6654 -2.9131
  395MOL0     H54490  14.449   2.087   2.203  0.1281  0.3029 -0.5343
  395MOL0     H54491  14.225   2.132   2.249  0.5630 -0.1917  0.1772
  395MOL0     H54492  13.821   2.088   2.174  0.5734  0.3549  3.4425
  395MOL0     H54493  13.592   2.092   2.240  1.0073  0.6828 -0.3773
  395MOL0     H54494  11.922   2.587   3.259 -0.9077  0.4036  0.5774
  395MOL0     H54495  11.680   2.605   3.269 -0.4612  2.6194 -1.2506
  395MOL0     H54496  11.314   2.885   3.096  2.2914 -1.6647  1.4656
  395MOL0     H54497  11.092   2.922   3.148  0.6586  0.5348 -3.1360
  395MOL0     H54498  10.826   2.582   3.145 -2.2507 -0.2323 -0.5432
  395MOL0     H54499  10.846   2.613   3.323 -1.7389  1.3159  1.6717
  395MOL0     H54500  10.667   2.767   3.119 -1.5380 -0.2039  0.3711
  395MOL0     H54501  10.651   2.787   3.295 -2.1582 -1.0624  1.9032
  395MOL0     H54502  10.485   2.670   3.133  0.2846 -1.4254 -0.3238
  395MOL0     H54503  10.579   2.532   3.158  0.5998  0.9316 -0.7907
  395MOL0     H54504  10.553   2.531   3.397 -1.2453  3.4300  3.8719
  395MOL0     H54505  10.402   2.519   3.300 -2.2970  2.1228  0.4513
  395MOL0     H54506  10.417   2.892   3.544  0.8476  0.2818  0.2404
  395MOL0     H54507  11.023   2.496   3.162 -0.9336  1.0377  0.3734
  395MOL0     H54508  11.182   2.355   3.122 -1.1553  1.7425 -0.5450
  395MOL0     H54509  11.316   2.386   3.020  3.3226 -0.9592  1.1626
  395MOL0     H54510  11.347   2.383   3.192 -0.0781 -2.2739 -1.3998
  396MOL0     O54511   8.140  10.731   2.259 -0.0205 -0.6080 -0.0937
  396MOL0     C54512   8.147  10.785   2.151  0.1957 -0.1798  0.2508
  396MOL0     O54513   8.255  10.783   2.074 -0.7074  0.3377 -0.0361
  396MOL0     C54514   8.383  10.758   2.113  0.7793  0.5459 -0.3511
  396MOL0     C54515   8.471  10.854   2.155 -0.7302 -0.5004  0.1602
  396MOL0     C54516   8.605  10.834   2.199  0.0877  0.4098 -0.4979
  396MOL0     C54517   8.652  10.704   2.203 -0.4696 -0.3269 -0.0094
  396MOL0     O54518   8.784  10.689   2.233  0.3836 -0.3643  0.2205
  396MOL0     C54519   8.848  10.571   2.195  0.0289 -0.3044 -0.8127
  396MOL0     C54520   8.993  10.593   2.228  0.6553 -0.2087  1.3471
  396MOL0     C54521   9.097  10.496   2.182  0.7244 -0.4884  0.8054
  396MOL0     C54522   9.042  10.348   2.192 -0.2559 -0.4746  0.4236
  396MOL0     C54523   9.160  10.267   2.136 -0.4881  0.1874 -0.4153
  396MOL0     C54524   9.177  10.146   2.232 -0.2084 -0.0908  1.2688
  396MOL0     C54525   9.288  10.042   2.200 -0.8230  0.1300 -0.3608
  396MOL0     C54526   9.309  10.029   2.053  0.4700 -0.8853  0.4141
  396MOL0     N54527   9.413   9.930   2.022  0.2573  0.5988 -0.1182
  396MOL0     C54528   9.402   9.799   2.058  0.1395 -0.2397  0.2212
  396MOL0     C54529   9.527   9.753   2.058 -0.7045 -0.0604 -0.5626
  396MOL0     C54530   9.557   9.603   2.098 -0.2500 -0.7482 -0.3920
  396MOL0     C54531   9.704   9.546   2.081  0.6469 -0.6015  0.5150
  396MOL0     C54532   9.713   9.417   2.143 -0.4092  0.4663 -0.0719
  396MOL0     C54533   9.845   9.332   2.110 -0.3268  0.0792  0.5262
  396MOL0     O54534   9.848   9.297   1.970  0.2723 -0.2419  0.7205
  396MOL0     C54535   9.958   9.314   1.890  0.4513 -0.0691  0.2898
  396MOL0     C54536   9.933   9.295   1.757  0.2946  0.9287 -0.0729
  396MOL0     C54537  10.034   9.294   1.664  0.0702 -0.4605 -0.4720
  396MOL0     C54538  10.000   9.271   1.523 -0.5433  0.1387  0.4643
  396MOL0     C54539  10.172   9.320   1.710 -0.0059 -0.5344 -0.7730
  396MOL0     C54540  10.292   9.324   1.628 -0.6929  1.1756 -0.5289
  396MOL0     O54541  10.414   9.340   1.687 -0.5238  0.7981 -0.4482
  396MOL0     C54542  10.527   9.371   1.620 -0.0505  0.4278 -0.7295
  396MOL0     C54543  10.635   9.416   1.696 -0.0128  0.6841  0.3443
  396MOL0     C54544  10.757   9.462   1.650 -0.2937 -0.1767  0.1229
  396MOL0     C54545  10.780   9.472   1.510 -0.0524 -0.8109  0.4248
  396MOL0     O54546  10.891   9.549   1.473  0.5280  0.2787  0.1212
  396MOL0     C54547  10.917   9.557   1.331 -0.2272 -1.6281 -0.9316
  396MOL0     C54548  11.041   9.624   1.306 -1.2045 -0.5802  0.8296
  396MOL0     C54549  11.037   9.770   1.350 -0.1183 -0.3665  0.8824
  396MOL0     C54550  11.158   9.849   1.297  0.7168  0.1230  0.0937
  396MOL0     C54551  11.138   9.997   1.335  0.5730 -1.0552  0.1496
  396MOL0     C54552  11.249  10.091   1.298 -0.2223  0.3368  0.3325
  396MOL0     C54553  11.377  10.069   1.381  1.0732  0.4244  0.7332
  396MOL0     C54554  11.494  10.138   1.320  0.4021 -0.3740  0.3500
  396MOL0    Cl54555  11.527  10.062   1.159  0.4356 -0.0028  0.0497
  396MOL0     C54556  10.670   9.433   1.423 -0.5867  0.8683  0.1956
  396MOL0     C54557  10.553   9.376   1.478 -0.3065  0.2594 -0.5251
  396MOL0     O54558  10.273   9.304   1.510  0.0467  0.6804 -0.1530
  396MOL0     C54559  10.190   9.326   1.857 -0.3059 -0.9547  0.7070
  396MOL0     C54560  10.084   9.309   1.941 -0.2373  0.2894 -0.6876
  396MOL0     N54561   9.611   9.855   2.017  0.1954 -0.3345 -0.0838
  396MOL0     N54562   9.538   9.965   1.990 -0.1072  0.4925 -0.9135
  396MOL0     C54563   8.566  10.597   2.155  0.1670 -0.1940 -0.4907
  396MOL0     C54564   8.433  10.624   2.106  0.2784  0.0253  0.1814
  396MOL0     C54565   8.038  10.861   2.097  0.0067 -0.2244  0.1710
  396MOL0     C54566   7.942  10.900   2.185  0.0378  0.5444 -0.2076
  396MOL0     C54567   7.832  10.979   2.151 -0.2773  0.1749  0.8756
  396MOL0     C54568   7.812  11.016   2.021  0.9575  0.9406  0.3777
  396MOL0     O54569   7.698  11.078   1.968  0.0082 -0.2194  0.2333
  396MOL0     C54570   7.592  11.101   2.059  0.0332 -0.3086  0.7492
  396MOL0     C54571   7.603  11.234   2.137  0.5140  0.6967  0.0911
  396MOL0     C54572   7.617  11.363   2.047  0.3798 -0.1100 -0.8656
  396MOL0     C54573   7.611  11.496   2.129  0.9222 -0.0523 -0.6983
  396MOL0     C54574   7.713  11.501   2.237  0.4271  0.0874  1.1340
  396MOL0     C54575   7.795  11.492   2.324  0.2514  0.3148  0.2596
  396MOL0     C54576   7.913  10.986   1.929 -0.6950  0.4126  0.3242
  396MOL0     C54577   8.022  10.911   1.961 -0.4953 -0.7898 -0.1960
  396MOL0     C54578   8.123  10.878   1.848 -0.5894 -0.7983  0.2087
  396MOL0     H54579   8.448  10.960   2.159  0.3039  0.0355 -3.7625
  396MOL0     H54580   8.666  10.912   2.245 -0.8299  0.0900  1.3667
  396MOL0     H54581   8.839  10.556   2.087 -0.2955 -0.7716 -0.7228
  396MOL0     H54582   8.816  10.480   2.246 -0.1132 -1.8723 -3.5190
  396MOL0     H54583   9.010  10.682   2.168  1.7003 -4.2047 -5.3238
  396MOL0     H54584   9.014  10.617   2.332  2.3999  2.7602  0.4119
  396MOL0     H54585   9.122  10.522   2.078 -0.4308  3.5079  1.3593
  396MOL0     H54586   9.197  10.498   2.226  0.4249 -3.9603  1.9682
  396MOL0     H54587   9.002  10.323   2.291 -0.0520 -2.7359 -0.0195
  396MOL0     H54588   8.959  10.341   2.121 -0.7695  0.4518  0.9057
  396MOL0     H54589   9.258  10.314   2.120  0.2301 -0.6610  1.2397
  396MOL0     H54590   9.130  10.229   2.038 -3.7591  1.7811 -0.1452
  396MOL0     H54591   9.200  10.190   2.330 -0.1783  0.5605  0.9760
  396MOL0     H54592   9.087  10.085   2.240  0.5792 -1.8623 -1.7984
  396MOL0     H54593   9.260   9.942   2.235  0.1624 -0.6798 -1.7699
  396MOL0     H54594   9.375  10.074   2.258 -0.5531  0.4602 -0.9348
  396MOL0     H54595   9.221  10.009   1.992  0.5111  1.2329 -0.4295
  396MOL0     H54596   9.351  10.126   2.024 -3.1983 -0.3930 -4.3399
  396MOL0     H54597   9.315   9.742   2.090  0.8414 -0.4673  1.7789
  396MOL0     H54598   9.496   9.538   2.035 -0.9311 -1.0170  0.5218
  396MOL0     H54599   9.529   9.599   2.203  1.6511  0.0749  0.1961
  396MOL0     H54600   9.727   9.558   1.975 -1.9637  1.2050  0.0863
  396MOL0     H54601   9.776   9.609   2.135  1.3537 -0.3710 -0.6400
  396MOL0     H54602   9.723   9.433   2.251 -0.2309  0.0002 -0.0117
  396MOL0     H54603   9.622   9.360   2.121  0.2308 -0.8007  0.4495
  396MOL0     H54604   9.938   9.382   2.138 -0.4172  1.3554 -1.2511
  396MOL0     H54605   9.840   9.239   2.168 -4.3083  0.7497  1.5654
  396MOL0     H54606   9.834   9.263   1.724 -0.9866  0.6833  3.6120
  396MOL0     H54607  10.038   9.349   1.456  1.6211 -0.9154  0.3932
  396MOL0     H54608   9.891   9.266   1.509 -0.7399 -1.2674  2.2219
  396MOL0     H54609  10.046   9.182   1.480 -0.8878 -0.1089  0.5980
  396MOL0     H54610  10.616   9.410   1.803  1.5632  1.0323  0.6692
  396MOL0     H54611  10.826   9.494   1.728 -0.9547 -1.6792  1.3646
  396MOL0     H54612  10.909   9.457   1.288 -0.5631 -1.1196 -2.1101
  396MOL0     H54613  10.836   9.617   1.288 -0.3336 -0.6904  0.5236
  396MOL0     H54614  11.127   9.564   1.337 -0.4422 -0.6640 -1.2385
  396MOL0     H54615  11.041   9.617   1.196 -4.7130 -2.6503  0.8192
  396MOL0     H54616  11.026   9.770   1.458  1.0303  2.5727  1.0708
  396MOL0     H54617  10.945   9.805   1.302  1.4985  0.3948 -1.9120
  396MOL0     H54618  11.154   9.849   1.188  2.2489  1.0776  0.0176
  396MOL0     H54619  11.255   9.805   1.318  1.8033  2.6202  0.7107
  396MOL0     H54620  11.049  10.031   1.282 -0.1305  0.7619  2.3038
  396MOL0     H54621  11.115  10.009   1.442 -0.7459  1.0784 -0.3240
  396MOL0     H54622  11.225  10.197   1.311  2.4266  0.8833  1.5125
  396MOL0     H54623  11.267  10.073   1.192  0.0224 -0.2226  0.4632
  396MOL0     H54624  11.389   9.961   1.388  1.0307  0.4250  0.8270
  396MOL0     H54625  11.353  10.096   1.485  1.6972 -2.2292  1.6323
  396MOL0     H54626  11.578  10.138   1.390 -0.4937 -1.2850  1.4639
  396MOL0     H54627  11.464  10.241   1.298 -0.6601 -0.8143 -0.3646
  396MOL0     H54628  10.680   9.435   1.315 -0.6687 -3.3197 -0.0410
  396MOL0     H54629  10.483   9.330   1.409  0.2872 -4.1083  1.4441
  396MOL0     H54630  10.287   9.339   1.904  0.0531 -2.1235  0.3258
  396MOL0     H54631  10.096   9.308   2.049 -1.3226  1.9059 -0.5216
  396MOL0     H54632   8.604  10.496   2.162 -2.5476 -1.1912  1.4650
  396MOL0     H54633   8.382  10.537   2.065 -1.1882  1.0381 -0.2299
  396MOL0     H54634   7.949  10.867   2.289  0.5234  1.8049  0.1907
  396MOL0     H54635   7.757  10.987   2.229 -1.9359 -2.8808 -0.2167
  396MOL0     H54636   7.504  11.121   1.999  3.1275 -0.2322 -4.3081
  396MOL0     H54637   7.568  11.023   2.133  0.6671 -0.0849  1.2047
  396MOL0     H54638   7.698  11.224   2.191  0.1685 -1.2491  0.4183
  396MOL0     H54639   7.521  11.241   2.210  0.8141  2.3528  0.3025
  396MOL0     H54640   7.712  11.357   1.995  1.7302 -1.9524  1.5932
  396MOL0     H54641   7.537  11.373   1.973 -3.1008 -4.6268  1.7228
  396MOL0     H54642   7.518  11.519   2.182  0.9847 -1.1629 -0.0731
  396MOL0     H54643   7.617  11.578   2.056 -0.2335 -1.4014 -2.4209
  396MOL0     H54644   7.861  11.469   2.405 -0.8257 -0.2664  1.0036
  396MOL0     H54645   7.897  11.017   1.827  1.5491 -3.7648 -1.5301
  396MOL0     H54646   8.126  10.769   1.840  0.5326 -0.6639 -2.1676
  396MOL0     H54647   8.090  10.906   1.748  0.7197 -0.6143 -0.1924
  396MOL0     H54648   8.221  10.921   1.868 -1.2012  1.1445 -0.7686
  397MOL0     O54649   0.052   4.577   5.918  0.0092  0.2819  0.7349
  397MOL0     C54650   0.053   4.609   6.033 -0.0917  1.8614 -0.2163
  397MOL0     O54651   0.160   4.592   6.122  0.1222  0.9019  0.4175
  397MOL0     C54652   0.279   4.563   6.057  0.6955  0.1662 -0.1315
  397MOL0     C54653   0.335   4.645   5.957 -0.0495 -0.3845 -0.3690
  397MOL0     C54654   0.462   4.617   5.919 -0.7186 -0.5107  1.0664
  397MOL0     C54655   0.536   4.503   5.959  0.9384  0.4739 -0.4847
  397MOL0     O54656   0.653   4.476   5.899  0.1055 -0.4922  0.0554
  397MOL0     C54657   0.735   4.365   5.946  0.0417  0.3671 -0.3549
  397MOL0     C54658   0.825   4.387   6.075 -0.3193  0.5337  0.5251
  397MOL0     C54659   0.932   4.493   6.052 -0.2334 -0.3003 -0.6034
  397MOL0     C54660   1.029   4.476   6.171 -0.0910 -0.0056 -0.9457
  397MOL0     C54661   1.115   4.601   6.200 -0.5171 -0.0052  0.0868
  397MOL0     C54662   1.243   4.559   6.277 -0.1464 -0.7816  0.5776
  397MOL0     C54663   1.320   4.695   6.296  0.2166 -0.1411 -0.6096
  397MOL0     C54664   1.451   4.675   6.372 -0.1670  0.1590  0.3023
  397MOL0     N54665   1.547   4.584   6.302 -0.0410 -0.0763 -0.3268
  397MOL0     C54666   1.643   4.627   6.217  0.3785  0.1673 -0.0633
  397MOL0     C54667   1.718   4.516   6.197 -0.0095 -0.8826  0.0798
  397MOL0     C54668   1.857   4.504   6.136 -0.4547 -0.2139 -0.1664
  397MOL0     C54669   1.951   4.432   6.226  0.8225  0.5305 -0.2526
  397MOL0     C54670   1.967   4.494   6.366 -0.6173 -0.2518 -0.4007
  397MOL0     C54671   2.030   4.392   6.465 -0.1251  0.8360 -0.0985
  397MOL0     O54672   2.172   4.375   6.435  0.2222 -0.3240 -0.3985
  397MOL0     C54673   2.272   4.444   6.515  0.0392  0.9132 -0.3273
  397MOL0     C54674   2.250   4.535   6.624  0.5566 -0.3522  0.7542
  397MOL0     C54675   2.360   4.601   6.689  0.2820 -0.1045  0.4365
  397MOL0     C54676   2.325   4.711   6.791 -0.5088 -0.0367 -0.1281
  397MOL0     C54677   2.490   4.554   6.658  0.4778 -0.2235 -0.4169
  397MOL0     C54678   2.611   4.585   6.744 -1.3786  1.2544 -0.5293
  397MOL0     O54679   2.596   4.673   6.844 -0.9126 -0.1943  0.1526
  397MOL0     C54680   2.693   4.698   6.940  0.2404  0.1444 -0.2279
  397MOL0     C54681   2.676   4.822   7.000 -0.6728 -0.6253 -0.3374
  397MOL0     C54682   2.759   4.868   7.102  0.6159 -0.6011  0.1624
  397MOL0     C54683   2.863   4.781   7.144 -0.5154 -0.4678 -0.7095
  397MOL0     O54684   2.941   4.838   7.247  0.2113 -0.2571  0.0938
  397MOL0     C54685   3.047   4.762   7.311  1.0687  0.6348 -0.2892
  397MOL0     C54686   3.111   4.868   7.396  0.3034  0.7814 -0.2639
  397MOL0     C54687   3.218   4.804   7.499 -0.1075  0.8197  0.8700
  397MOL0     C54688   3.272   4.912   7.590 -0.9562 -0.0316 -0.0723
  397MOL0     C54689   3.384   4.980   7.512  1.0109 -0.3694 -0.3149
  397MOL0     C54690   3.456   5.088   7.596 -0.5742  1.3629  0.5332
  397MOL0     C54691   3.366   5.197   7.646 -0.6920 -0.3927 -0.3607
  397MOL0     C54692   3.441   5.297   7.738  0.0454  0.3183  1.0723
  397MOL0    Cl54693   3.503   5.434   7.626 -0.3088  0.5812  0.1881
  397MOL0     C54694   2.884   4.652   7.088 -0.7053  0.4402  0.1874
  397MOL0     C54695   2.792   4.608   6.989  0.7417 -0.1252 -0.0764
  397MOL0     O54696   2.727   4.543   6.708 -0.4231 -0.3481 -0.7242
  397MOL0     C54697   2.515   4.456   6.556 -0.1047 -0.8939 -0.7339
  397MOL0     C54698   2.406   4.408   6.496 -0.6349  0.0121 -0.6838
  397MOL0     N54699   1.663   4.416   6.268 -0.3443  0.1408  0.0204
  397MOL0     N54700   1.575   4.461   6.344  0.2440 -0.0866 -0.0411
  397MOL0     C54701   0.476   4.423   6.063 -0.0263 -0.5841  1.0510
  397MOL0     C54702   0.346   4.451   6.104 -0.6335 -0.2722 -0.1893
  397MOL0     C54703  -0.062   4.682   6.074 -0.0554 -0.8249  0.7981
  397MOL0     C54704  -0.079   4.817   6.057 -0.2256  0.1425 -0.5007
  397MOL0     C54705  -0.182   4.895   6.110  0.5505 -0.6166  0.2566
  397MOL0     C54706  -0.274   4.826   6.188 -0.3053  0.0335 -0.2097
  397MOL0     O54707  -0.391   4.882   6.235 -0.4934 -0.3024  0.1020
  397MOL0     C54708  -0.398   4.899   6.378  0.3320  0.4494 -0.0089
  397MOL0     C54709  -0.544   4.918   6.422 -0.1216  0.4818 -0.2573
  397MOL0     C54710  -0.639   4.992   6.327 -0.6551  0.4176 -0.5112
  397MOL0     C54711  -0.756   5.068   6.396 -0.1153  0.7660  0.3088
  397MOL0     C54712  -0.839   5.138   6.301 -1.2134 -0.0476  0.2105
  397MOL0     C54713  -0.914   5.204   6.229 -0.1904  0.6657 -0.8016
  397MOL0     C54714  -0.261   4.687   6.204 -0.0362  0.1776 -0.5722
  397MOL0     C54715  -0.154   4.617   6.158  0.6703 -0.2244  0.0548
  397MOL0     C54716  -0.137   4.467   6.188 -0.5919  0.3190 -0.2740
  397MOL0     H54717   0.290   4.726   5.901  1.9950  0.1621 -1.3335
  397MOL0     H54718   0.524   4.682   5.858 -1.5898 -1.4226 -0.8947
  397MOL0     H54719   0.809   4.343   5.869  1.2902  0.3654  0.8009
  397MOL0     H54720   0.675   4.275   5.959  0.1555 -0.0094 -2.1850
  397MOL0     H54721   0.770   4.425   6.161 -0.5500  0.2964  0.4827
  397MOL0     H54722   0.871   4.298   6.119  1.3910  0.5601 -1.1014
  397MOL0     H54723   0.974   4.469   5.953 -0.3200  1.1660 -1.0180
  397MOL0     H54724   0.889   4.594   6.048 -1.3775 -0.7188  0.4502
  397MOL0     H54725   0.977   4.448   6.263  2.1494  2.1131  1.1245
  397MOL0     H54726   1.096   4.396   6.136  2.3392  1.0444  1.0178
  397MOL0     H54727   1.053   4.672   6.256  1.3775  1.2634  0.6490
  397MOL0     H54728   1.152   4.644   6.106 -1.7150  0.7719 -0.0533
  397MOL0     H54729   1.225   4.502   6.369 -0.9420 -4.0338 -1.4151
  397MOL0     H54730   1.296   4.492   6.209 -2.2949 -4.0068  1.8295
  397MOL0     H54731   1.258   4.766   6.351  0.7839  1.2248 -1.7042
  397MOL0     H54732   1.359   4.735   6.203  2.5348  0.0967  0.3889
  397MOL0     H54733   1.507   4.769   6.369  2.2132 -1.1569 -4.0060
  397MOL0     H54734   1.445   4.627   6.470  1.4982  0.3213  0.5136
  397MOL0     H54735   1.673   4.724   6.179  0.6449  0.4277  0.7760
  397MOL0     H54736   1.904   4.599   6.109  1.5205 -0.6754  1.4364
  397MOL0     H54737   1.856   4.443   6.045  1.8456  0.3170 -0.6000
  397MOL0     H54738   1.909   4.331   6.232  0.5556  0.6056 -0.7859
  397MOL0     H54739   2.046   4.430   6.173 -0.6115 -0.5299 -2.9954
  397MOL0     H54740   2.037   4.577   6.352 -1.3097  0.8081  1.8795
  397MOL0     H54741   1.874   4.530   6.411  1.0574  4.3511 -0.1143
  397MOL0     H54742   2.013   4.419   6.570  1.3442 -0.5945  0.5458
  397MOL0     H54743   1.977   4.296   6.455  0.9590  0.0920  1.0093
  397MOL0     H54744   2.149   4.564   6.651 -0.0340  0.7850 -2.3640
  397MOL0     H54745   2.386   4.798   6.765 -1.0978  0.1794 -0.8460
  397MOL0     H54746   2.343   4.679   6.893  1.4954 -0.5325 -0.5951
  397MOL0     H54747   2.224   4.746   6.767 -0.0890  0.3523 -1.4322
  397MOL0     H54748   2.602   4.892   6.964  1.1634  0.5878 -1.9739
  397MOL0     H54749   2.748   4.968   7.142 -4.8899 -1.3748  1.4055
  397MOL0     H54750   2.994   4.695   7.379  1.1145  1.9967  1.1632
  397MOL0     H54751   3.125   4.725   7.243  1.1728  0.5439 -0.1182
  397MOL0     H54752   3.146   4.938   7.320 -1.0835  0.1682 -1.5207
  397MOL0     H54753   3.031   4.919   7.450 -1.0205  2.0465 -3.2248
  397MOL0     H54754   3.304   4.759   7.447  0.4992  1.2427  1.4854
  397MOL0     H54755   3.167   4.728   7.559  1.1519 -0.7645  0.0280
  397MOL0     H54756   3.311   4.877   7.685 -0.6367  0.8642  0.1350
  397MOL0     H54757   3.205   4.997   7.610  2.0907  2.8490 -1.1312
  397MOL0     H54758   3.454   4.899   7.490 -3.0543 -4.7521  1.1660
  397MOL0     H54759   3.349   5.014   7.414 -0.3929  0.3662  0.4111
  397MOL0     H54760   3.534   5.126   7.529  1.0208 -4.1550 -1.2862
  397MOL0     H54761   3.507   5.032   7.675 -1.1678  1.5853  1.0842
  397MOL0     H54762   3.289   5.146   7.704  0.3930 -1.1246  0.4861
  397MOL0     H54763   3.320   5.260   7.569  0.4995  0.3940 -0.4592
  397MOL0     H54764   3.525   5.244   7.783  0.6581  2.4916  2.6455
  397MOL0     H54765   3.384   5.339   7.821 -0.3715  0.4852  0.7077
  397MOL0     H54766   2.967   4.589   7.118  0.1802  1.5188  0.0642
  397MOL0     H54767   2.787   4.507   6.951 -4.1478 -1.0547  2.2507
  397MOL0     H54768   2.613   4.428   6.521 -0.2097 -0.1662 -1.6337
  397MOL0     H54769   2.425   4.339   6.414 -1.0288 -0.1704 -0.6229
  397MOL0     H54770   0.532   4.342   6.109  0.4717  0.0828  1.6515
  397MOL0     H54771   0.295   4.394   6.181  0.3822 -0.7887  0.1141
  397MOL0     H54772  -0.002   4.869   6.001  1.6730 -1.5571  0.3669
  397MOL0     H54773  -0.195   5.001   6.091  0.7358 -0.7810 -0.8484
  397MOL0     H54774  -0.339   4.825   6.432  1.6667  0.6465 -1.1421
  397MOL0     H54775  -0.339   4.991   6.389  1.9446 -0.2955 -2.0159
  397MOL0     H54776  -0.538   4.979   6.513 -1.0356 -0.4216  0.4245
  397MOL0     H54777  -0.591   4.824   6.453  1.9909 -0.4912  0.1940
  397MOL0     H54778  -0.585   5.071   6.273 -0.0795 -0.9152 -1.9810
  397MOL0     H54779  -0.671   4.917   6.254 -0.5693  0.5704 -0.7100
  397MOL0     H54780  -0.716   5.140   6.468  4.0951  1.3585 -2.2821
  397MOL0     H54781  -0.817   4.990   6.441  2.0480 -1.4721 -0.4372
  397MOL0     H54782  -0.992   5.236   6.163  0.4527  2.0929 -0.8941
  397MOL0     H54783  -0.334   4.629   6.259  0.1200 -0.5287 -1.0998
  397MOL0     H54784  -0.164   4.420   6.093  0.3903  3.5792 -2.3018
  397MOL0     H54785  -0.034   4.441   6.213 -0.9346  0.2923  1.2091
  397MOL0     H54786  -0.203   4.426   6.266 -1.5518  0.1457 -1.1561
  398MOL0     O54787   9.226   2.743   2.947  0.1381  0.2676  0.0441
  398MOL0     C54788   9.174   2.722   2.831  0.2521 -0.3576 -1.0200
  398MOL0     O54789   9.228   2.633   2.734  0.2528 -0.1917 -1.0251
  398MOL0     C54790   9.354   2.592   2.758  0.6196 -0.0469 -0.4488
  398MOL0     C54791   9.387   2.472   2.833  0.3018 -0.3295  0.1796
  398MOL0     C54792   9.523   2.426   2.834  0.3004 -0.2008  0.2557
  398MOL0     C54793   9.628   2.496   2.768  0.3826  0.3116 -0.7132
  398MOL0     O54794   9.752   2.442   2.760  0.3370 -0.0442 -0.0998
  398MOL0     C54795   9.857   2.531   2.778  0.3760 -0.7227  0.4229
  398MOL0     C54796   9.987   2.449   2.772 -0.4721  0.6585  0.9951
  398MOL0     C54797  10.106   2.532   2.817  0.5917 -0.2050 -0.1263
  398MOL0     C54798  10.232   2.453   2.792  0.2822  1.2823 -0.3264
  398MOL0     C54799  10.349   2.516   2.872 -0.0043  0.8545  0.2448
  398MOL0     C54800  10.481   2.449   2.832  0.0218 -0.0333  0.0836
  398MOL0     C54801  10.592   2.556   2.839 -0.1369  0.7065  0.1541
  398MOL0     C54802  10.731   2.510   2.793 -0.0170  0.2789 -0.2740
  398MOL0     N54803  10.798   2.403   2.861  0.7746  0.3478  0.4186
  398MOL0     C54804  10.762   2.268   2.844 -1.4095 -0.1048  1.3798
  398MOL0     C54805  10.863   2.200   2.914  0.4975  0.5331  1.0808
  398MOL0     C54806  10.873   2.053   2.914 -0.3524 -0.1998 -0.0588
  398MOL0     C54807  11.011   2.006   2.858 -0.4465 -0.1229  0.2824
  398MOL0     C54808  11.039   2.025   2.703  0.4533 -0.1299  1.0480
  398MOL0     C54809  11.172   2.043   2.648 -0.1590 -0.2481  0.4679
  398MOL0     O54810  11.245   1.917   2.663  0.3475 -0.2973 -0.2571
  398MOL0     C54811  11.382   1.920   2.668  0.1121 -0.8852 -0.0806
  398MOL0     C54812  11.461   1.807   2.708 -0.6565 -0.0532  0.0970
  398MOL0     C54813  11.596   1.805   2.719 -0.4077 -0.1244  1.0680
  398MOL0     C54814  11.644   1.679   2.778 -0.5222 -0.0795  0.0403
  398MOL0     C54815  11.669   1.916   2.685  0.8269 -0.4299  0.3594
  398MOL0     C54816  11.812   1.918   2.684  0.5820 -0.3676  0.1307
  398MOL0     O54817  11.879   2.035   2.709 -0.4367 -0.5900 -0.1431
  398MOL0     C54818  12.011   2.053   2.683  0.4868  0.7335  0.3155
  398MOL0     C54819  12.107   1.959   2.675 -0.5480  0.4933  0.0464
  398MOL0     C54820  12.236   1.992   2.637 -0.0422  0.4555  0.1138
  398MOL0     C54821  12.273   2.120   2.609  0.2389  0.1818  0.4749
  398MOL0     O54822  12.394   2.151   2.550 -0.2473 -0.7233 -0.5512
  398MOL0     C54823  12.507   2.060   2.560  0.2074  0.0322  0.4630
  398MOL0     C54824  12.641   2.107   2.505  0.8990  0.6690 -0.2449
  398MOL0     C54825  12.708   1.988   2.430 -0.3646  0.3343  0.2671
  398MOL0     C54826  12.856   2.009   2.418 -0.5824 -0.1527 -0.3807
  398MOL0     C54827  12.926   1.878   2.391 -0.0406 -0.3768 -0.2038
  398MOL0     C54828  13.073   1.895   2.386  0.0025 -0.6280  0.3409
  398MOL0     C54829  13.136   1.766   2.336  0.3375 -0.1309 -0.5630
  398MOL0     C54830  13.286   1.770   2.363 -0.0329  0.4598  0.3817
  398MOL0    Cl54831  13.354   1.651   2.241 -0.2592  0.3893 -0.2642
  398MOL0     C54832  12.171   2.215   2.610  0.6024  0.1767 -0.2013
  398MOL0     C54833  12.043   2.182   2.646  0.1042  0.4604 -0.8472
  398MOL0     O54834  11.864   1.813   2.649 -0.5854 -0.3512  0.1262
  398MOL0     C54835  11.599   2.027   2.638 -0.5528 -0.2366 -0.1015
  398MOL0     C54836  11.465   2.033   2.638 -0.1908  0.2515  0.2533
  398MOL0     N54837  10.944   2.291   2.972 -0.5367 -0.1637  0.0501
  398MOL0     N54838  10.900   2.407   2.949 -0.5719 -0.6334 -0.2893
  398MOL0     C54839   9.592   2.609   2.692  0.6135 -0.5801  0.3815
  398MOL0     C54840   9.456   2.660   2.697 -0.6927 -0.5892  0.0785
  398MOL0     C54841   9.045   2.786   2.808  0.5210 -0.4597 -1.0860
  398MOL0     C54842   8.950   2.774   2.910  0.2791 -0.0662  0.1962
  398MOL0     C54843   8.833   2.849   2.892 -0.6811 -0.8027 -1.0672
  398MOL0     C54844   8.812   2.941   2.786  0.1569  1.0164 -0.1109
  398MOL0     O54845   8.706   3.021   2.795  0.3601 -0.2315 -0.0677
  398MOL0     C54846   8.694   3.111   2.683  0.7227  0.2094 -0.8449
  398MOL0     C54847   8.561   3.189   2.699  0.7181  0.2903 -0.1210
  398MOL0     C54848   8.557   3.316   2.615  0.5374 -0.8943  0.0680
  398MOL0     C54849   8.425   3.391   2.636 -0.2419 -0.1787  0.1426
  398MOL0     C54850   8.418   3.501   2.537  0.7086 -0.4982 -0.4688
  398MOL0     C54851   8.398   3.593   2.459  0.5852 -0.3713 -0.3930
  398MOL0     C54852   8.906   2.931   2.677  0.6996  0.3429 -0.8073
  398MOL0     C54853   9.023   2.853   2.686  0.3895 -0.3922 -0.6522
  398MOL0     C54854   9.127   2.859   2.571 -0.3747  0.3419  0.8181
  398MOL0     H54855   9.305   2.414   2.876  0.4852  1.7515  3.7665
  398MOL0     H54856   9.555   2.331   2.876  3.3224  1.6367  2.5658
  398MOL0     H54857   9.846   2.564   2.882  1.5251 -1.2609  0.7325
  398MOL0     H54858   9.859   2.614   2.707 -0.5552  1.4027  2.6952
  398MOL0     H54859   9.965   2.363   2.836  2.2073 -2.6179 -2.0050
  398MOL0     H54860  10.002   2.419   2.667 -1.1946  1.0941  0.7607
  398MOL0     H54861  10.113   2.631   2.772 -2.1537 -1.0561 -2.7569
  398MOL0     H54862  10.095   2.539   2.926 -2.4853  2.1469 -0.4430
  398MOL0     H54863  10.225   2.347   2.818 -0.6055  1.4199  0.0423
  398MOL0     H54864  10.250   2.451   2.685 -4.0761  0.0057 -1.2328
  398MOL0     H54865  10.327   2.499   2.978 -1.0262  1.5454  0.1596
  398MOL0     H54866  10.346   2.625   2.863  0.2258  0.7626 -1.2153
  398MOL0     H54867  10.506   2.372   2.905 -0.4869  1.0392  1.4326
  398MOL0     H54868  10.470   2.401   2.734  1.7959  2.3375 -1.3898
  398MOL0     H54869  10.600   2.596   2.940  0.8140 -0.1186  0.4186
  398MOL0     H54870  10.553   2.626   2.765 -1.9947 -1.9260 -1.5688
  398MOL0     H54871  10.710   2.486   2.689 -1.7021  0.1755  0.0677
  398MOL0     H54872  10.792   2.601   2.800  2.0843 -0.8947 -2.2092
  398MOL0     H54873  10.675   2.224   2.796 -0.1573 -0.6870 -0.4638
  398MOL0     H54874  10.795   2.010   2.851  0.6783  0.4402 -1.8508
  398MOL0     H54875  10.859   2.021   3.018 -2.8854 -0.2754 -0.3556
  398MOL0     H54876  11.083   2.061   2.919 -1.9193  2.4338 -0.1466
  398MOL0     H54877  11.023   1.902   2.888 -1.0512  0.3830  2.4173
  398MOL0     H54878  11.001   1.934   2.655  0.2531  0.7865 -0.5816
  398MOL0     H54879  10.979   2.108   2.664 -1.8380 -1.9727  0.4091
  398MOL0     H54880  11.163   2.059   2.540 -1.2026 -1.2862  0.3886
  398MOL0     H54881  11.235   2.119   2.695  2.9826 -2.9730  1.0366
  398MOL0     H54882  11.406   1.717   2.734  1.3482 -0.3928  3.6393
  398MOL0     H54883  11.737   1.695   2.834  1.3547 -5.8016 -0.8059
  398MOL0     H54884  11.671   1.613   2.695 -2.6565  1.3864 -1.9318
  398MOL0     H54885  11.571   1.635   2.847  0.6142 -1.2186  0.5615
  398MOL0     H54886  12.076   1.856   2.687 -1.0212  0.7179  0.8046
  398MOL0     H54887  12.297   1.907   2.609  1.1046  1.1495  0.4402
  398MOL0     H54888  12.532   2.047   2.665  1.2648 -1.8187  0.0200
  398MOL0     H54889  12.472   1.971   2.507  2.1384 -0.6540  0.2458
  398MOL0     H54890  12.634   2.195   2.439  0.7448  0.1293 -0.9657
  398MOL0     H54891  12.710   2.136   2.584  2.0319  4.3468 -2.3550
  398MOL0     H54892  12.660   1.978   2.332 -2.0508 -2.2980  1.2448
  398MOL0     H54893  12.692   1.892   2.481 -2.2664 -1.2530 -2.9642
  398MOL0     H54894  12.895   2.060   2.507 -1.0038  2.0996 -1.4081
  398MOL0     H54895  12.873   2.072   2.331  1.5019  0.2894  0.2933
  398MOL0     H54896  12.905   1.821   2.482  3.7192  1.8400  2.3521
  398MOL0     H54897  12.898   1.823   2.301  1.4829 -1.3463 -0.1185
  398MOL0     H54898  13.109   1.928   2.484 -1.3908 -2.4610  1.5416
  398MOL0     H54899  13.088   1.974   2.313 -2.0547  1.0632  1.6178
  398MOL0     H54900  13.121   1.764   2.227  1.4868 -0.5560 -0.7240
  398MOL0     H54901  13.087   1.674   2.369  2.1729 -0.4849  1.3198
  398MOL0     H54902  13.320   1.744   2.464  0.3126  0.4611  0.2660
  398MOL0     H54903  13.331   1.864   2.332 -0.2799  0.1415 -0.9977
  398MOL0     H54904  12.200   2.315   2.580  3.3097 -0.3942  0.2845
  398MOL0     H54905  11.968   2.260   2.645  1.5478  1.9752  1.2928
  398MOL0     H54906  11.645   2.122   2.613 -0.0565  0.5884  3.3729
  398MOL0     H54907  11.428   2.129   2.602  0.6645  0.3058 -0.5100
  398MOL0     H54908   9.671   2.664   2.643 -0.1676  0.9278  0.7492
  398MOL0     H54909   9.436   2.756   2.650 -0.6874 -1.5660 -2.0498
  398MOL0     H54910   8.959   2.711   2.998 -2.8389 -0.9424 -0.0140
  398MOL0     H54911   8.766   2.847   2.977  0.9711 -0.4366  0.3138
  398MOL0     H54912   8.768   3.192   2.687  1.2786 -0.3409  0.4661
  398MOL0     H54913   8.701   3.072   2.581 -0.2575 -0.2422 -0.7493
  398MOL0     H54914   8.563   3.211   2.806  0.6111 -0.8161  0.1199
  398MOL0     H54915   8.479   3.123   2.669  0.8910  0.4298 -0.9135
  398MOL0     H54916   8.644   3.384   2.612 -1.5462  2.0222  0.8088
  398MOL0     H54917   8.555   3.286   2.511 -0.1150 -0.4646 -0.0508
  398MOL0     H54918   8.413   3.431   2.738  1.6388  0.7884  0.0313
  398MOL0     H54919   8.340   3.325   2.616  1.3536 -1.2871 -4.0484
  398MOL0     H54920   8.377   3.665   2.382  2.0050 -2.1081 -2.5281
  398MOL0     H54921   8.896   2.993   2.589  4.2380  1.7266 -0.4012
  398MOL0     H54922   9.105   2.927   2.488  2.0527  0.0433 -0.1561
  398MOL0     H54923   9.223   2.891   2.612  0.5095 -2.9887  1.6722
  398MOL0     H54924   9.144   2.767   2.514 -2.8654  0.6638 -0.5880
  399MOL0     O54925   9.408   4.993   0.150  0.3525 -0.6496 -0.7821
  399MOL0     C54926   9.395   5.100   0.216  0.2734 -0.2636 -0.7110
  399MOL0     O54927   9.469   5.127   0.330  0.0761  0.2461  0.2003
  399MOL0     C54928   9.571   5.041   0.370  1.2362 -0.2550  0.0422
  399MOL0     C54929   9.668   4.985   0.283 -0.5094 -0.4667  1.2675
  399MOL0     C54930   9.769   4.904   0.331 -0.4979  0.6600 -0.4517
  399MOL0     C54931   9.789   4.880   0.469  0.7033  0.1391 -0.5869
  399MOL0     O54932   9.892   4.814   0.533 -0.5876  0.2497  0.6719
  399MOL0     C54933  10.011   4.799   0.455 -0.0580 -0.1919  0.5248
  399MOL0     C54934  10.124   4.732   0.538  0.1178  0.3299 -0.2940
  399MOL0     C54935  10.082   4.589   0.577  0.2121 -0.1374 -0.6954
  399MOL0     C54936  10.174   4.483   0.515  0.6367  0.1540  0.3624
  399MOL0     C54937  10.179   4.355   0.590  0.3007  0.8169 -0.7040
  399MOL0     C54938  10.223   4.358   0.736 -0.1945 -0.0719  0.4669
  399MOL0     C54939  10.359   4.404   0.775 -0.5851 -0.8443 -0.0783
  399MOL0     C54940  10.482   4.346   0.697 -0.2586  0.8189 -0.2989
  399MOL0     N54941  10.493   4.196   0.712  0.2688 -0.0074  0.4450
  399MOL0     C54942  10.465   4.094   0.621  0.1071 -0.2470  0.1820
  399MOL0     C54943  10.502   3.978   0.682 -0.1844 -0.0786  0.5551
  399MOL0     C54944  10.499   3.842   0.620  0.1058  0.8411 -0.9250
  399MOL0     C54945  10.628   3.807   0.545 -0.1496 -0.8378  0.0191
  399MOL0     C54946  10.647   3.663   0.545  0.5400  0.0926  0.4552
  399MOL0     C54947  10.764   3.630   0.449  0.0289  0.2532 -0.1481
  399MOL0     O54948  10.891   3.651   0.533  0.9191  0.3445  0.1447
  399MOL0     C54949  11.007   3.613   0.467 -0.0466 -0.1325 -0.1949
  399MOL0     C54950  11.123   3.630   0.534  0.5182 -0.0304 -0.0549
  399MOL0     C54951  11.248   3.589   0.489  0.3933  0.2510 -0.5687
  399MOL0     C54952  11.365   3.590   0.578 -0.0439 -0.7269 -0.2056
  399MOL0     C54953  11.261   3.543   0.359 -0.1181 -0.2339 -0.0486
  399MOL0     C54954  11.388   3.488   0.300 -0.5251 -0.0823  0.1980
  399MOL0     O54955  11.374   3.386   0.206  0.8951  0.0057  0.3511
  399MOL0     C54956  11.482   3.313   0.174 -1.3063  0.8239  0.0854
  399MOL0     C54957  11.486   3.180   0.214 -0.3144  0.6909  0.4712
  399MOL0     C54958  11.591   3.096   0.186  0.0056 -0.1624  0.1329
  399MOL0     C54959  11.710   3.141   0.110 -0.8844  0.1994 -0.0992
  399MOL0     O54960  11.807   3.064   0.061  0.0238  0.6270  0.6492
  399MOL0     C54961  11.832   2.942   0.128 -0.2987  0.7235 -0.6631
  399MOL0     C54962  11.786   2.843   0.018 -0.3612 -0.7210  0.5948
  399MOL0     C54963  11.796   2.881  -0.133 -0.7967 -0.1057  0.0081
  399MOL0     C54964  11.732   2.763  -0.202  0.1500 -0.1516  0.4158
  399MOL0     C54965  11.796   2.761  -0.355  0.1349 -0.4128 -0.4502
  399MOL0     C54966  11.725   2.661  -0.441 -0.2380  0.0518  0.0235
  399MOL0     C54967  11.745   2.519  -0.395 -0.0449  0.1540  1.1375
  399MOL0     C54968  11.695   2.419  -0.506 -0.5292 -0.0022 -0.7599
  399MOL0    Cl54969  11.713   2.248  -0.468  0.0426  0.0974 -0.0966
  399MOL0     C54970  11.705   3.276   0.059  0.2345 -0.2034 -0.5046
  399MOL0     C54971  11.592   3.356   0.094  0.4907 -0.3211 -0.4917
  399MOL0     O54972  11.500   3.528   0.336  0.3547  0.5981  0.5001
  399MOL0     C54973  11.149   3.557   0.276 -0.2133 -0.7716  0.1897
  399MOL0     C54974  11.015   3.577   0.331 -1.1740 -0.2734 -0.0828
  399MOL0     N54975  10.552   4.001   0.808  0.7349  1.1599  0.7003
  399MOL0     N54976  10.549   4.130   0.817 -0.1430  0.1939  0.8996
  399MOL0     C54977   9.681   4.927   0.550  0.0918  0.2195 -0.8611
  399MOL0     C54978   9.590   5.018   0.506  0.5748 -0.9503  0.8647
  399MOL0     C54979   9.277   5.194   0.192  0.7238  0.3681  1.0135
  399MOL0     C54980   9.206   5.247   0.303  0.4135 -0.6020  0.4162
  399MOL0     C54981   9.095   5.325   0.291 -0.2789  0.4421  0.5220
  399MOL0     C54982   9.032   5.347   0.176  0.2079  0.6867  0.4588
  399MOL0     O54983   8.914   5.402   0.182 -0.4563  0.1442  0.1949
  399MOL0     C54984   8.849   5.460   0.063  0.6075  0.0651  0.2928
  399MOL0     C54985   8.754   5.569   0.102  0.8133  0.2977 -0.0359
  399MOL0     C54986   8.807   5.692   0.169  0.1774 -0.2244 -0.6697
  399MOL0     C54987   8.708   5.807   0.200  0.2230  0.1151  0.1961
  399MOL0     C54988   8.618   5.847   0.090 -0.3831 -0.2986  0.2753
  399MOL0     C54989   8.559   5.890  -0.006 -0.6664 -0.0314 -0.3170
  399MOL0     C54990   9.093   5.291   0.063  0.1908  0.7272  0.0007
  399MOL0     C54991   9.209   5.220   0.067 -0.6526 -0.1889 -0.6054
  399MOL0     C54992   9.268   5.161  -0.060  1.5056  0.1567 -0.2526
  399MOL0     H54993   9.674   5.019   0.180  1.4616  3.2985  2.4630
  399MOL0     H54994   9.839   4.860   0.261  0.3625  0.4581  0.5100
  399MOL0     H54995  10.051   4.900   0.442  1.5304 -0.4163  3.0483
  399MOL0     H54996   9.995   4.764   0.353 -0.5485  1.0224  0.1662
  399MOL0     H54997  10.223   4.731   0.490  1.1558  1.0509  1.7289
  399MOL0     H54998  10.151   4.784   0.630  1.0470  1.5266 -1.2098
  399MOL0     H54999  10.092   4.577   0.685  1.8705 -2.6130 -1.0306
  399MOL0     H55000   9.976   4.569   0.557 -1.3402  1.9557  3.9408
  399MOL0     H55001  10.144   4.473   0.411  0.1202 -1.0779  0.6087
  399MOL0     H55002  10.275   4.523   0.510  0.5435  0.5930  1.6441
  399MOL0     H55003  10.244   4.282   0.539 -0.8635 -1.4704  0.9016
  399MOL0     H55004  10.083   4.304   0.590  0.0640  1.0082  2.8193
  399MOL0     H55005  10.146   4.406   0.797 -3.1608  0.0319 -2.9986
  399MOL0     H55006  10.223   4.251   0.757 -0.7341 -0.1194  0.2540
  399MOL0     H55007  10.366   4.360   0.875 -0.8600  2.3075  1.4495
  399MOL0     H55008  10.370   4.512   0.789  1.7382 -0.9779 -0.5210
  399MOL0     H55009  10.460   4.365   0.592 -2.8665  2.8224  0.4999
  399MOL0     H55010  10.573   4.395   0.733 -1.1898 -0.2705  4.1853
  399MOL0     H55011  10.422   4.095   0.522  1.0723 -2.1568 -0.3029
  399MOL0     H55012  10.412   3.836   0.553 -0.2432  0.3679 -0.4352
  399MOL0     H55013  10.463   3.771   0.694 -1.0819  0.7354 -1.5734
  399MOL0     H55014  10.637   3.851   0.445 -1.0246  0.5913  0.5352
  399MOL0     H55015  10.703   3.853   0.610 -0.9713  0.3561  0.1657
  399MOL0     H55016  10.666   3.618   0.643 -0.8862  0.3630  0.8780
  399MOL0     H55017  10.556   3.627   0.496  0.4907  0.6786  0.1028
  399MOL0     H55018  10.747   3.529   0.410 -1.2208 -0.6979  2.5850
  399MOL0     H55019  10.770   3.693   0.360  0.3756  1.2916  0.5898
  399MOL0     H55020  11.115   3.676   0.632 -0.4963  1.5113 -0.8127
  399MOL0     H55021  11.408   3.489   0.575  2.5788  0.3041 -3.3001
  399MOL0     H55022  11.322   3.597   0.678  2.3712 -2.7276  1.0619
  399MOL0     H55023  11.446   3.661   0.557  0.1094 -1.3359 -1.7892
  399MOL0     H55024  11.396   3.147   0.264  0.3900 -1.3894  0.4882
  399MOL0     H55025  11.577   2.993   0.216  2.8148 -0.5608  0.3349
  399MOL0     H55026  11.939   2.933   0.151 -0.2250  1.6086 -0.6178
  399MOL0     H55027  11.776   2.911   0.216 -0.4579 -1.0456 -1.3499
  399MOL0     H55028  11.824   2.741   0.028 -1.4227 -0.9624  2.7341
  399MOL0     H55029  11.678   2.839   0.036 -0.8591 -1.7753 -2.1545
  399MOL0     H55030  11.899   2.891  -0.168 -0.9381 -1.1074 -0.7229
  399MOL0     H55031  11.748   2.978  -0.146  1.5201  0.8172 -2.6541
  399MOL0     H55032  11.624   2.779  -0.216  0.0830 -0.6518  0.3205
  399MOL0     H55033  11.732   2.666  -0.151 -2.4078 -1.1738 -1.2797
  399MOL0     H55034  11.786   2.862  -0.396 -2.7905 -0.2007  0.5741
  399MOL0     H55035  11.904   2.745  -0.344  0.5716  1.4255 -1.5132
  399MOL0     H55036  11.764   2.675  -0.542  0.0137  0.6262  0.1984
  399MOL0     H55037  11.617   2.676  -0.448 -0.4165 -0.9999  0.3138
  399MOL0     H55038  11.701   2.498  -0.297 -3.1733  0.5053 -0.0537
  399MOL0     H55039  11.854   2.519  -0.392  0.0169  2.0936  0.3215
  399MOL0     H55040  11.752   2.435  -0.597  0.4088  0.7945 -0.0547
  399MOL0     H55041  11.592   2.427  -0.542 -0.7932 -0.2878 -0.1033
  399MOL0     H55042  11.791   3.316   0.006 -0.6332  2.2743 -0.1988
  399MOL0     H55043  11.587   3.460   0.065 -0.5387 -0.1912  0.1022
  399MOL0     H55044  11.165   3.545   0.169  0.0748 -1.6246  0.3179
  399MOL0     H55045  10.937   3.579   0.256  1.3541  2.0286 -2.8881
  399MOL0     H55046   9.693   4.890   0.651 -0.6485 -1.9937 -1.5445
  399MOL0     H55047   9.530   5.081   0.571  1.8594  3.2861 -1.6739
  399MOL0     H55048   9.238   5.218   0.402  0.0117  1.0789  1.0754
  399MOL0     H55049   9.043   5.360   0.380 -0.2048  0.1524  0.6810
  399MOL0     H55050   8.919   5.513  -0.002  0.6872  0.0372  0.3554
  399MOL0     H55051   8.790   5.383   0.012  2.3928 -1.3134  0.1926
  399MOL0     H55052   8.686   5.527   0.176  1.7225  0.3041  0.8322
  399MOL0     H55053   8.702   5.595   0.009 -0.6574 -3.6800 -0.5100
  399MOL0     H55054   8.842   5.661   0.268 -0.2017  0.7460 -0.2244
  399MOL0     H55055   8.893   5.729   0.113  0.2052  1.7916  0.6087
  399MOL0     H55056   8.757   5.897   0.238  0.1462  0.8405 -1.3525
  399MOL0     H55057   8.663   5.780   0.296 -1.2787  0.1205 -0.4796
  399MOL0     H55058   8.514   5.916  -0.100  2.8336 -0.9590 -2.4305
  399MOL0     H55059   9.043   5.291  -0.033 -0.4928 -1.6649  0.2821
  399MOL0     H55060   9.373   5.189  -0.068  1.7748 -0.0546  1.8697
  399MOL0     H55061   9.259   5.052  -0.055  1.3609  0.1545 -0.5101
  399MOL0     H55062   9.215   5.203  -0.146  1.1291  4.5685  1.8297
  400MOL0     O55063   6.941   5.822   6.549 -0.3768 -0.2198  0.7412
  400MOL0     C55064   6.897   5.924   6.598 -0.3684 -0.0942 -0.4458
  400MOL0     O55065   6.956   5.988   6.704  0.6157 -0.1028 -0.2840
  400MOL0     C55066   7.089   5.962   6.736  0.4370  0.2182  0.3312
  400MOL0     C55067   7.123   5.854   6.814  0.0956 -0.0034 -0.3076
  400MOL0     C55068   7.256   5.820   6.839  0.0733  0.3594 -0.1906
  400MOL0     C55069   7.351   5.907   6.807  0.2526 -0.2804  1.9209
  400MOL0     O55070   7.475   5.876   6.848  0.3016  0.1486  0.5952
  400MOL0     C55071   7.588   5.960   6.832  1.0588  0.6352  0.3376
  400MOL0     C55072   7.677   5.966   6.954 -0.9422  0.0776 -0.9021
  400MOL0     C55073   7.604   6.034   7.077 -0.1330  0.5858 -0.3500
  400MOL0     C55074   7.696   6.062   7.190  0.4261  0.8464  0.4360
  400MOL0     C55075   7.637   6.152   7.298 -0.7264 -0.9789 -0.5087
  400MOL0     C55076   7.694   6.300   7.309 -0.5381  0.3736 -0.8357
  400MOL0     C55077   7.822   6.305   7.382  0.3412  0.7697  0.3695
  400MOL0     C55078   7.899   6.433   7.355  0.5313  0.7586  0.6439
  400MOL0     N55079   8.026   6.447   7.423  0.5445 -0.3957  1.2289
  400MOL0     C55080   8.154   6.455   7.364  0.6595  0.3084 -0.2184
  400MOL0     C55081   8.240   6.423   7.468 -0.5785  0.0815  0.0201
  400MOL0     C55082   8.391   6.408   7.453  0.1522 -0.2592  0.1059
  400MOL0     C55083   8.467   6.538   7.454 -1.1527 -0.7545 -0.7995
  400MOL0     C55084   8.462   6.610   7.588  0.8969 -0.1642  0.6113
  400MOL0     C55085   8.521   6.527   7.702 -0.1400  0.5700 -1.2756
  400MOL0     O55086   8.654   6.503   7.667 -0.0891 -0.8272  0.2733
  400MOL0     C55087   8.748   6.505   7.761 -0.1453  0.4065  0.0574
  400MOL0     C55088   8.788   6.631   7.798  0.1173  0.4740  0.7962
  400MOL0     C55089   8.897   6.650   7.885 -0.3128 -0.1776  0.3712
  400MOL0     C55090   8.925   6.802   7.924 -0.3304 -0.0204  0.6470
  400MOL0     C55091   8.988   6.539   7.925 -0.0149  0.2226 -0.1105
  400MOL0     C55092   9.115   6.543   8.005 -0.3007 -0.2312 -0.3670
  400MOL0     O55093   9.185   6.660   8.010 -0.1047 -0.4975  0.6616
  400MOL0     C55094   9.319   6.668   8.048 -0.2670  0.6527  0.2084
  400MOL0     C55095   9.399   6.733   7.954  0.5032  0.2652  0.3302
  400MOL0     C55096   9.539   6.744   7.966  0.1294  0.8435  0.3504
  400MOL0     C55097   9.600   6.695   8.084 -0.0640 -0.7239 -0.0254
  400MOL0     O55098   9.743   6.693   8.099  0.6063 -0.2490 -0.5540
  400MOL0     C55099   9.822   6.772   8.002 -1.1061  0.0782  0.8393
  400MOL0     C55100   9.967   6.731   8.021 -0.0697 -0.1714 -0.6796
  400MOL0     C55101  10.006   6.610   7.937  0.1086 -0.0087  0.6239
  400MOL0     C55102  10.153   6.578   7.969 -0.5490 -0.0400 -0.3405
  400MOL0     C55103  10.214   6.463   7.882  0.0221  0.3316 -0.1190
  400MOL0     C55104  10.176   6.320   7.917 -0.0188  0.4827  0.0871
  400MOL0     C55105  10.261   6.211   7.864 -0.5134 -0.1495 -0.1172
  400MOL0     C55106  10.196   6.078   7.912  0.3513 -0.0360 -0.7676
  400MOL0    Cl55107  10.294   5.930   7.865  0.2464 -0.1702 -0.2645
  400MOL0     C55108   9.523   6.629   8.178 -0.5756  0.2678  0.4908
  400MOL0     C55109   9.382   6.610   8.160 -0.1794  0.0393 -0.3649
  400MOL0     O55110   9.154   6.436   8.045 -0.2675 -0.3244  0.0737
  400MOL0     C55111   8.936   6.415   7.891  0.0522  0.2788  0.0215
  400MOL0     C55112   8.829   6.395   7.801  0.6306 -0.2763  0.8406
  400MOL0     N55113   8.164   6.411   7.583  0.6984 -1.0415 -0.4408
  400MOL0     N55114   8.033   6.421   7.556  0.2463  0.9481  0.4095
  400MOL0     C55115   7.323   6.016   6.721  0.5071  0.5842 -0.5221
  400MOL0     C55116   7.194   6.042   6.677  0.1890 -0.3402 -0.6813
  400MOL0     C55117   6.766   5.962   6.546  0.5297  0.0169  0.1368
  400MOL0     C55118   6.747   6.081   6.459  0.0421  1.0276  0.4784
  400MOL0     C55119   6.628   6.099   6.391  0.1514 -1.1254 -0.2192
  400MOL0     C55120   6.523   6.010   6.417  1.1927 -0.1170 -0.6205
  400MOL0     O55121   6.397   6.032   6.372  0.3777 -0.6740 -0.2753
  400MOL0     C55122   6.386   6.069   6.233 -0.5202 -0.1046  1.0424
  400MOL0     C55123   6.295   5.975   6.166  0.4808  0.1161  0.0338
  400MOL0     C55124   6.273   5.992   6.011 -0.3538  0.0509 -0.2418
  400MOL0     C55125   6.171   5.893   5.948 -0.3474  0.6245  0.0357
  400MOL0     C55126   6.147   5.921   5.803 -0.1416 -0.2194 -0.3104
  400MOL0     C55127   6.120   5.930   5.687 -0.7332  0.1789  0.3018
  400MOL0     C55128   6.537   5.897   6.501 -0.3067 -0.3363  0.8212
  400MOL0     C55129   6.658   5.875   6.566 -0.4065 -0.1279 -0.3421
  400MOL0     C55130   6.667   5.765   6.671 -0.3760  0.9644 -0.3011
  400MOL0     H55131   7.052   5.786   6.860  3.5810 -2.7761  1.5263
  400MOL0     H55132   7.285   5.733   6.897 -1.0826 -1.6626 -2.4557
  400MOL0     H55133   7.553   6.063   6.819  2.4524  1.2548  1.2479
  400MOL0     H55134   7.654   5.913   6.759  0.7790  1.4925 -0.4968
  400MOL0     H55135   7.729   5.873   6.976 -2.0739  0.2245  3.3387
  400MOL0     H55136   7.756   6.039   6.933 -2.0033  1.9638  1.1989
  400MOL0     H55137   7.561   6.133   7.058 -2.0846  0.6059  3.2671
  400MOL0     H55138   7.532   5.958   7.109 -0.5769  1.7006  1.4437
  400MOL0     H55139   7.738   5.971   7.232  0.2013  0.2491 -0.5972
  400MOL0     H55140   7.791   6.106   7.158  1.6984 -2.4843 -0.7155
  400MOL0     H55141   7.667   6.102   7.390  1.4218  3.0211  1.2044
  400MOL0     H55142   7.530   6.168   7.283 -0.8241 -1.6501 -0.5490
  400MOL0     H55143   7.703   6.346   7.210 -1.0703 -2.0223 -2.0789
  400MOL0     H55144   7.621   6.355   7.370  0.3740  1.2063 -0.4796
  400MOL0     H55145   7.876   6.216   7.348 -3.7306 -3.1662  3.0342
  400MOL0     H55146   7.791   6.285   7.485  1.0011  0.0609  0.4337
  400MOL0     H55147   7.910   6.440   7.247 -2.7965 -1.3765  0.0098
  400MOL0     H55148   7.833   6.511   7.393 -0.2113 -0.4425  1.9282
  400MOL0     H55149   8.179   6.455   7.258  3.0951  1.8475  0.2734
  400MOL0     H55150   8.405   6.361   7.356 -0.3089  0.2002 -0.1898
  400MOL0     H55151   8.431   6.340   7.529 -1.8210 -1.2294  0.3226
  400MOL0     H55152   8.574   6.523   7.435 -0.2196  3.7100 -0.1435
  400MOL0     H55153   8.429   6.605   7.376  0.5300 -0.8715 -1.7648
  400MOL0     H55154   8.523   6.700   7.581 -0.1913  0.4543 -4.7014
  400MOL0     H55155   8.366   6.658   7.610  0.3567 -1.1040  0.3573
  400MOL0     H55156   8.503   6.591   7.789  1.0649  2.1571 -2.1455
  400MOL0     H55157   8.479   6.430   7.732 -1.6139  1.2830 -0.9343
  400MOL0     H55158   8.741   6.718   7.752 -0.2920 -0.1216  0.0623
  400MOL0     H55159   8.937   6.806   8.032  4.6684  3.1818  0.2975
  400MOL0     H55160   8.842   6.861   7.883  2.5163  2.1971 -2.5512
  400MOL0     H55161   9.014   6.844   7.876  1.5761 -1.2855  2.8797
  400MOL0     H55162   9.351   6.767   7.863 -3.7465  0.0223  2.2480
  400MOL0     H55163   9.603   6.792   7.893  0.7699  3.0457  2.2311
  400MOL0     H55164   9.795   6.759   7.897 -0.9489 -0.8341  0.9003
  400MOL0     H55165   9.813   6.880   8.016  2.3329  0.2961  2.3264
  400MOL0     H55166  10.034   6.805   7.975  0.6565 -3.2306 -5.1675
  400MOL0     H55167   9.984   6.722   8.129  1.3440 -2.8052 -1.0595
  400MOL0     H55168   9.987   6.624   7.831  2.6146  2.9479  0.4118
  400MOL0     H55169   9.944   6.526   7.971 -2.7288  1.1813 -1.2214
  400MOL0     H55170  10.165   6.557   8.076 -1.2993 -0.0845 -0.2576
  400MOL0     H55171  10.209   6.670   7.948  0.6239  0.3094  3.4665
  400MOL0     H55172  10.223   6.488   7.776  2.5682 -0.1909 -0.0843
  400MOL0     H55173  10.317   6.477   7.916 -0.9065 -0.6048  3.5783
  400MOL0     H55174  10.074   6.303   7.883 -0.1005  2.8062 -1.0635
  400MOL0     H55175  10.194   6.325   8.025  3.9552  0.3643 -0.4222
  400MOL0     H55176  10.369   6.212   7.885  0.0535 -2.9468 -2.3346
  400MOL0     H55177  10.257   6.218   7.755 -1.1725  1.6631 -0.0158
  400MOL0     H55178  10.094   6.065   7.874 -0.0305  1.5127 -0.3501
  400MOL0     H55179  10.187   6.078   8.022 -2.9395 -1.8315 -0.8993
  400MOL0     H55180   9.584   6.601   8.263  1.2530  3.6710  0.4754
  400MOL0     H55181   9.328   6.546   8.229 -0.8382  0.0640 -0.8562
  400MOL0     H55182   8.980   6.324   7.929 -2.8604 -0.9664  0.6549
  400MOL0     H55183   8.789   6.307   7.753 -1.8019  1.8726 -1.4581
  400MOL0     H55184   7.397   6.094   6.703  1.5152 -0.1648  0.2971
  400MOL0     H55185   7.167   6.134   6.626 -3.8204 -1.2534 -0.5608
  400MOL0     H55186   6.828   6.152   6.446  0.6312  0.7050  2.2068
  400MOL0     H55187   6.610   6.179   6.320  0.7340  0.2686  1.1530
  400MOL0     H55188   6.340   6.166   6.214 -0.6702 -0.4730 -0.6223
  400MOL0     H55189   6.485   6.061   6.186  0.0707 -0.3164  2.2797
  400MOL0     H55190   6.201   5.981   6.222  0.0513  0.6124 -0.7331
  400MOL0     H55191   6.343   5.878   6.184 -1.8115 -0.7571  2.0048
  400MOL0     H55192   6.228   6.091   5.999  2.1244  1.2684 -0.1428
  400MOL0     H55193   6.372   5.992   5.965  0.7487  1.9563  1.8914
  400MOL0     H55194   6.073   5.899   5.996 -0.1395 -1.3732  0.8215
  400MOL0     H55195   6.212   5.792   5.953 -0.1085  0.7709  1.4706
  400MOL0     H55196   6.102   5.923   5.581 -1.1703  0.9219  0.3212
  400MOL0     H55197   6.459   5.827   6.529  0.6624 -2.4914 -1.4884
  400MOL0     H55198   6.749   5.771   6.743  1.6234 -0.1195 -2.3190
  400MOL0     H55199   6.575   5.741   6.724 -0.0311 -3.1887 -1.1830
  400MOL0     H55200   6.689   5.673   6.615 -0.3617  1.7938 -1.7121
  401MOL0     O55201  11.147   0.457   2.642  0.1555  0.1124  1.0292
  401MOL0     C55202  11.178   0.572   2.606 -0.4065  1.0573 -0.0059
  401MOL0     O55203  11.098   0.668   2.573  0.2461  0.7278 -0.1785
  401MOL0     C55204  10.958   0.640   2.593 -0.0126  0.3640  0.3696
  401MOL0     C55205  10.898   0.677   2.712  0.6398 -0.4119  0.3572
  401MOL0     C55206  10.756   0.677   2.732  0.0799 -0.3083 -0.1845
  401MOL0     C55207  10.681   0.618   2.633 -0.6554 -0.0509  0.8981
  401MOL0     O55208  10.547   0.597   2.660 -0.2052 -0.5016  0.4400
  401MOL0     C55209  10.484   0.474   2.628  0.0490 -0.1437  0.1454
  401MOL0     C55210  10.544   0.359   2.712  0.2705  0.8698  0.5529
  401MOL0     C55211  10.490   0.221   2.666  0.0469  0.6955 -0.4693
  401MOL0     C55212  10.522   0.113   2.765  1.5168 -0.5287  0.6406
  401MOL0     C55213  10.664   0.075   2.761 -1.2629 -0.3204  0.0097
  401MOL0     C55214  10.700  -0.050   2.853 -0.5288  0.1110 -0.3048
  401MOL0     C55215  10.853  -0.051   2.868 -0.6888  0.0804  0.9884
  401MOL0     C55216  10.922  -0.125   2.765 -0.1042 -0.1724 -1.0663
  401MOL0     N55217  11.066  -0.113   2.782 -0.1747 -0.1448  0.0275
  401MOL0     C55218  11.141   0.000   2.784 -0.0268  0.1221 -1.6174
  401MOL0     C55219  11.271  -0.038   2.803  0.4461 -0.5243  0.5406
  401MOL0     C55220  11.387   0.035   2.851  0.3245  0.1328 -0.1401
  401MOL0     C55221  11.469   0.116   2.741  1.0129  0.0355 -0.3665
  401MOL0     C55222  11.591   0.195   2.806 -0.0287 -0.0052  0.0403
  401MOL0     C55223  11.700   0.096   2.861  0.3855 -1.0065  0.1883
  401MOL0     O55224  11.745   0.004   2.761 -0.2691 -0.6191 -0.4540
  401MOL0     C55225  11.821   0.068   2.672  0.5320  0.2257 -0.4151
  401MOL0     C55226  11.944   0.128   2.689  0.5362  0.9045  0.6744
  401MOL0     C55227  12.032   0.168   2.584  0.0315  0.1869  0.0532
  401MOL0     C55228  12.162   0.217   2.618 -0.2588 -0.0166  0.0879
  401MOL0     C55229  11.980   0.151   2.449 -0.2197  0.9680 -0.4277
  401MOL0     C55230  12.054   0.191   2.331  0.6895  0.3828 -0.0157
  401MOL0     O55231  12.096   0.326   2.319 -0.4516 -0.3499  0.2080
  401MOL0     C55232  12.175   0.357   2.209 -0.1007  0.1714 -0.1556
  401MOL0     C55233  12.111   0.362   2.079  0.2099 -1.5042 -0.1611
  401MOL0     C55234  12.184   0.387   1.957 -0.3555  0.1868 -0.2936
  401MOL0     C55235  12.327   0.383   1.970  0.0106 -0.2556 -0.1004
  401MOL0     O55236  12.410   0.380   1.863 -0.3035  0.0055 -0.0258
  401MOL0     C55237  12.417   0.249   1.800 -0.3869  0.1541  0.0063
  401MOL0     C55238  12.546   0.214   1.748  0.0132  0.3294  0.2810
  401MOL0     C55239  12.647   0.178   1.857 -0.6121  0.3409  0.8514
  401MOL0     C55240  12.781   0.131   1.785 -0.5078 -0.2467  0.1119
  401MOL0     C55241  12.906   0.112   1.876 -0.3049  0.2389  0.0001
  401MOL0     C55242  12.883  -0.011   1.965 -0.2533 -0.2199 -0.6093
  401MOL0     C55243  13.002  -0.038   2.060  0.1095  0.0791  0.5251
  401MOL0     C55244  13.127  -0.083   1.980  0.0312 -0.7216  0.4685
  401MOL0    Cl55245  13.086  -0.249   1.919  0.3409 -0.0105  0.0750
  401MOL0     C55246  12.386   0.381   2.095  0.0791 -0.4464 -0.2613
  401MOL0     C55247  12.315   0.378   2.212  0.1794 -0.6246  0.3918
  401MOL0     O55248  12.081   0.102   2.251  0.2777  0.0275 -0.4503
  401MOL0     C55249  11.844   0.098   2.429  0.2927 -0.1675  0.0470
  401MOL0     C55250  11.780   0.043   2.540 -0.8316  0.1039 -0.2372
  401MOL0     N55251  11.280  -0.173   2.795 -0.1658 -0.4543  0.1822
  401MOL0     N55252  11.163  -0.219   2.777  0.7370  0.1557 -0.0193
  401MOL0     C55253  10.740   0.596   2.506 -0.6290 -0.6616  0.5755
  401MOL0     C55254  10.878   0.592   2.488 -0.3181  1.1388 -0.4624
  401MOL0     C55255  11.334   0.599   2.617  0.3524  1.2308 -0.2345
  401MOL0     C55256  11.422   0.492   2.591  0.0471 -0.2645  0.6971
  401MOL0     C55257  11.559   0.514   2.602 -0.1521  0.1680 -0.9946
  401MOL0     C55258  11.617   0.629   2.646  0.0570  0.4138 -0.8418
  401MOL0     O55259  11.757   0.627   2.650  0.4815  0.1097  0.4507
  401MOL0     C55260  11.823   0.725   2.727 -0.3952 -0.2195 -0.5519
  401MOL0     C55261  11.950   0.773   2.662  0.3401  0.2017  0.7837
  401MOL0     C55262  12.053   0.664   2.630 -0.9220  0.7061  0.3438
  401MOL0     C55263  12.179   0.734   2.572  0.2210 -0.4006 -0.2571
  401MOL0     C55264  12.272   0.629   2.547 -0.4071  0.1421 -0.6790
  401MOL0     C55265  12.366   0.554   2.514 -0.2292 -0.1838  0.4456
  401MOL0     C55266  11.529   0.736   2.676 -0.0120  0.0245  0.0580
  401MOL0     C55267  11.391   0.726   2.651  0.1087  0.9769  0.6775
  401MOL0     C55268  11.321   0.855   2.683  0.4132  0.8138 -0.1145
  401MOL0     H55269  10.961   0.725   2.786 -0.2406  0.6371  0.4626
  401MOL0     H55270  10.711   0.717   2.822  2.3508 -0.4391  1.0677
  401MOL0     H55271  10.486   0.456   2.520  0.8838  2.1738 -0.2793
  401MOL0     H55272  10.377   0.487   2.647 -0.2976 -1.5349 -0.7002
  401MOL0     H55273  10.652   0.356   2.697  0.0335  0.6032 -1.2812
  401MOL0     H55274  10.526   0.378   2.818  1.3142 -0.3828  0.9814
  401MOL0     H55275  10.381   0.220   2.657 -0.0106 -2.1010 -0.2692
  401MOL0     H55276  10.543   0.189   2.576  0.0555 -2.0892  0.4101
  401MOL0     H55277  10.478   0.144   2.860 -1.7689  0.2437 -1.0076
  401MOL0     H55278  10.456   0.032   2.734  1.3776 -0.0059 -0.4881
  401MOL0     H55279  10.725   0.158   2.798  1.6551  0.5587 -5.7619
  401MOL0     H55280  10.710   0.054   2.664 -1.8171  2.6567 -1.0133
  401MOL0     H55281  10.651  -0.047   2.950  0.6739 -0.4791  0.3487
  401MOL0     H55282  10.668  -0.146   2.812 -0.6938  0.1059 -0.1654
  401MOL0     H55283  10.872  -0.107   2.960  2.7570 -2.1175 -0.8316
  401MOL0     H55284  10.892   0.050   2.876 -4.5691  1.8396 -0.1504
  401MOL0     H55285  10.903  -0.232   2.767 -1.4472  0.0215  1.3969
  401MOL0     H55286  10.894  -0.092   2.665  1.2816 -2.9361 -2.4775
  401MOL0     H55287  11.103   0.102   2.788 -2.5379 -0.6911  3.6334
  401MOL0     H55288  11.463  -0.038   2.882  0.3339 -0.2594 -1.0533
  401MOL0     H55289  11.362   0.106   2.930 -2.2844  1.8102 -2.3226
  401MOL0     H55290  11.502   0.042   2.668 -0.6810 -1.3373  0.1953
  401MOL0     H55291  11.396   0.190   2.706  1.8988  0.1603 -2.0426
  401MOL0     H55292  11.633   0.253   2.724 -0.8463  1.4028  0.5739
  401MOL0     H55293  11.568   0.268   2.884 -1.9350 -0.2879 -0.1988
  401MOL0     H55294  11.786   0.146   2.907  1.0748 -0.8500 -1.2232
  401MOL0     H55295  11.648   0.037   2.937 -0.2005 -2.7790 -1.5126
  401MOL0     H55296  11.980   0.139   2.790  2.1107 -2.0188  0.5322
  401MOL0     H55297  12.199   0.206   2.721  2.5024  3.3637 -0.3389
  401MOL0     H55298  12.170   0.323   2.594  2.0417  0.6668  3.2389
  401MOL0     H55299  12.234   0.161   2.557 -0.7008  0.2345 -0.6676
  401MOL0     H55300  12.004   0.345   2.078  0.0540 -1.1647  2.6768
  401MOL0     H55301  12.128   0.384   1.865  2.0728  0.5082 -1.8698
  401MOL0     H55302  12.387   0.182   1.881 -0.5037  1.4865  1.1096
  401MOL0     H55303  12.335   0.248   1.729 -1.3968  1.3489  1.1017
  401MOL0     H55304  12.533   0.130   1.679 -1.8021  0.6821  0.1634
  401MOL0     H55305  12.592   0.292   1.688 -1.7513  0.4922 -0.9230
  401MOL0     H55306  12.601   0.094   1.909  0.4992  0.2859  1.7755
  401MOL0     H55307  12.663   0.266   1.919  0.9175 -0.0021  0.9956
  401MOL0     H55308  12.814   0.217   1.727  0.8687 -1.2408 -0.6506
  401MOL0     H55309  12.775   0.045   1.719  2.4032 -1.2004  0.9224
  401MOL0     H55310  12.988   0.084   1.810 -1.1392 -1.2774 -0.4356
  401MOL0     H55311  12.929   0.197   1.941 -1.3618 -0.6583  1.6296
  401MOL0     H55312  12.860  -0.095   1.899 -1.2785  1.2180 -2.1644
  401MOL0     H55313  12.792   0.004   2.024  0.9893  2.8087  0.7528
  401MOL0     H55314  12.984  -0.124   2.126  1.1101 -0.3756  0.2172
  401MOL0     H55315  13.024   0.049   2.123  0.0494 -0.2591  1.0231
  401MOL0     H55316  13.220  -0.106   2.034  2.3152  0.8809 -2.4612
  401MOL0     H55317  13.153  -0.014   1.899 -1.4276 -3.8513 -2.9540
  401MOL0     H55318  12.494   0.399   2.094 -0.0800  0.5729 -0.8803
  401MOL0     H55319  12.369   0.361   2.304  1.2011  5.1453  1.2477
  401MOL0     H55320  11.802   0.093   2.330  0.9657  0.3417 -0.2779
  401MOL0     H55321  11.684  -0.008   2.535 -0.0037 -1.4943 -0.5936
  401MOL0     H55322  10.678   0.561   2.424 -1.2759 -0.2464  0.8892
  401MOL0     H55323  10.914   0.574   2.387 -3.1985  0.6868 -1.5144
  401MOL0     H55324  11.389   0.394   2.559  1.1916 -0.3082 -0.3790
  401MOL0     H55325  11.628   0.431   2.590 -1.1139 -1.6362  3.8663
  401MOL0     H55326  11.761   0.810   2.757 -2.8049 -1.8732 -0.5726
  401MOL0     H55327  11.846   0.671   2.820  0.6802 -1.5431 -1.5361
  401MOL0     H55328  12.003   0.850   2.719 -0.2419  2.6421 -1.7734
  401MOL0     H55329  11.917   0.823   2.571 -0.3702 -0.1668  0.8375
  401MOL0     H55330  12.076   0.625   2.730 -3.4564  2.8770  1.9000
  401MOL0     H55331  12.017   0.584   2.565  0.1989  0.6638 -0.2558
  401MOL0     H55332  12.220   0.815   2.633 -2.6611 -0.0600  1.4029
  401MOL0     H55333  12.151   0.781   2.477 -1.0052 -0.1739  0.2019
  401MOL0     H55334  12.448   0.490   2.488  2.9766  2.5734  2.9303
  401MOL0     H55335  11.580   0.824   2.714 -1.0595  0.3645  0.7123
  401MOL0     H55336  11.394   0.934   2.704  0.3533  0.9697 -0.4963
  401MOL0     H55337  11.255   0.877   2.599 -1.3533 -0.5179  0.8518
  401MOL0     H55338  11.272   0.834   2.779  1.2856 -0.8743 -0.0131
  402MOL0     O55339   7.629   7.551   0.882 -0.3544  0.3839  0.2221
  402MOL0     C55340   7.682   7.568   0.771  0.0640 -1.5039 -0.4098
  402MOL0     O55341   7.784   7.491   0.716 -0.7621 -0.7414  0.0828
  402MOL0     C55342   7.855   7.418   0.806  0.0214 -1.1908  0.4632
  402MOL0     C55343   7.912   7.465   0.922 -0.3606 -0.0645  0.6199
  402MOL0     C55344   7.989   7.393   1.009 -1.0824  0.0073  0.1978
  402MOL0     C55345   8.006   7.255   0.984 -0.4589  0.2069 -0.2334
  402MOL0     O55346   8.086   7.166   1.063 -0.3780  0.4202  0.0804
  402MOL0     C55347   8.126   7.224   1.187 -0.2348 -0.2488  0.2658
  402MOL0     C55348   8.214   7.123   1.259  1.3945 -0.3378 -0.4203
  402MOL0     C55349   8.212   7.160   1.409 -1.1465 -1.0304 -0.3779
  402MOL0     C55350   8.174   7.049   1.509 -0.6522 -0.6467  0.2693
  402MOL0     C55351   8.216   7.100   1.648 -0.0247 -1.4518  0.0244
  402MOL0     C55352   8.218   6.998   1.749  0.2954  0.0190 -0.5847
  402MOL0     C55353   8.249   7.046   1.886 -0.4455 -0.2295 -0.2643
  402MOL0     C55354   8.246   6.934   1.992 -0.8170 -0.2601 -0.1627
  402MOL0     N55355   8.227   6.982   2.132 -0.2091 -0.5698 -0.2374
  402MOL0     C55356   8.332   7.003   2.215  0.1912  0.9264  0.2519
  402MOL0     C55357   8.285   7.038   2.340  0.0889  0.6947  0.9517
  402MOL0     C55358   8.373   7.086   2.453 -0.2537  0.1618 -0.8595
  402MOL0     C55359   8.368   6.980   2.561 -0.2650  0.2741 -0.4547
  402MOL0     C55360   8.231   6.967   2.628  0.7054 -0.5093 -0.7560
  402MOL0     C55361   8.240   6.903   2.769  0.4300 -0.2700 -0.8702
  402MOL0     O55362   8.339   6.967   2.859  0.8675 -0.2487  0.7090
  402MOL0     C55363   8.385   6.888   2.954  0.6702  0.7630  0.3543
  402MOL0     C55364   8.318   6.777   3.008  0.5802 -0.2658  0.0913
  402MOL0     C55365   8.377   6.687   3.102  0.2964 -0.2551 -0.3203
  402MOL0     C55366   8.281   6.580   3.150  0.6620 -0.4330  0.2833
  402MOL0     C55367   8.502   6.716   3.158 -0.2042  0.8315 -0.3408
  402MOL0     C55368   8.554   6.641   3.280 -0.7072  0.3098  0.2823
  402MOL0     O55369   8.695   6.643   3.295  0.0012 -0.5473  0.3317
  402MOL0     C55370   8.761   6.609   3.411  0.9477  0.8984  0.7947
  402MOL0     C55371   8.710   6.652   3.536 -0.9964  0.4092  0.1124
  402MOL0     C55372   8.791   6.634   3.651  1.0514  0.8778  0.3609
  402MOL0     C55373   8.918   6.575   3.640  0.8406  0.5036 -1.2652
  402MOL0     O55374   9.000   6.545   3.750  0.3434 -0.1723  0.0300
  402MOL0     C55375   8.991   6.637   3.857 -0.1385 -0.7065  0.6083
  402MOL0     C55376   9.124   6.639   3.936 -0.3255  0.7382 -0.1335
  402MOL0     C55377   9.120   6.710   4.071  0.3235 -0.4351 -0.5639
  402MOL0     C55378   9.022   6.655   4.173 -0.3942 -0.3803 -0.3985
  402MOL0     C55379   9.061   6.688   4.318 -0.6787 -0.1761 -0.0788
  402MOL0     C55380   9.067   6.835   4.348  0.6607  0.7490 -0.1088
  402MOL0     C55381   9.087   6.854   4.504  0.2354 -0.0116 -0.4259
  402MOL0     C55382   9.034   6.994   4.537  0.5011 -0.5428  0.2712
  402MOL0    Cl55383   9.031   6.999   4.715 -0.1777 -0.7354 -0.6780
  402MOL0     C55384   8.959   6.521   3.518 -0.2293 -0.6260 -0.3591
  402MOL0     C55385   8.882   6.536   3.404  0.7347 -0.3482 -0.3088
  402MOL0     O55386   8.478   6.583   3.353  0.3427  0.2152 -0.3974
  402MOL0     C55387   8.569   6.831   3.110 -0.7883  0.4109 -0.2613
  402MOL0     C55388   8.513   6.905   3.007 -0.2351 -0.7588 -0.3069
  402MOL0     N55389   8.146   7.042   2.330  0.8743 -0.9772  1.0644
  402MOL0     N55390   8.117   6.998   2.211 -0.4465  0.0805  0.4347
  402MOL0     C55391   7.946   7.205   0.869  0.1693 -0.4948  0.2054
  402MOL0     C55392   7.873   7.282   0.777 -0.2165 -0.5844  0.6749
  402MOL0     C55393   7.624   7.662   0.662  0.1719  0.2303  0.0677
  402MOL0     C55394   7.672   7.658   0.531  0.2427 -0.4167  0.0615
  402MOL0     C55395   7.640   7.755   0.434  0.1132 -0.2571  1.1081
  402MOL0     C55396   7.543   7.847   0.462  0.3298 -0.1731  1.1421
  402MOL0     O55397   7.502   7.951   0.376  0.9949  0.6476  0.7533
  402MOL0     C55398   7.519   7.930   0.231  0.6183  0.2936  0.0800
  402MOL0     C55399   7.430   8.015   0.141 -1.3318  0.3740 -0.0427
  402MOL0     C55400   7.280   8.037   0.190 -0.6061  0.2973 -0.0791
  402MOL0     C55401   7.225   8.179   0.174  0.4424  0.3436  0.1685
  402MOL0     C55402   7.252   8.225   0.038  0.5248  0.6906  0.3018
  402MOL0     C55403   7.287   8.265  -0.070 -0.6473 -0.6877 -0.4227
  402MOL0     C55404   7.495   7.860   0.596  0.6292  0.1769  0.2787
  402MOL0     C55405   7.537   7.769   0.698  0.1391  0.4968  0.2408
  402MOL0     C55406   7.470   7.788   0.837  0.1655  0.6155 -0.5581
  402MOL0     H55407   7.905   7.563   0.969  1.3470 -0.1878  1.2147
  402MOL0     H55408   8.020   7.436   1.104 -1.4870  3.5455 -1.1238
  402MOL0     H55409   8.040   7.251   1.248  0.7060  1.6635  0.8307
  402MOL0     H55410   8.182   7.316   1.167 -0.8257  0.6745  2.5666
  402MOL0     H55411   8.182   7.019   1.251 -0.0778 -0.0398  1.1280
  402MOL0     H55412   8.314   7.125   1.215  0.8787  1.1812 -1.6039
  402MOL0     H55413   8.314   7.197   1.422 -0.8929 -2.0170  0.5689
  402MOL0     H55414   8.149   7.246   1.435  1.5673  0.4957  1.7291
  402MOL0     H55415   8.069   7.024   1.496 -0.7920  0.3432 -0.6524
  402MOL0     H55416   8.238   6.964   1.484  1.8853  1.1425  0.2577
  402MOL0     H55417   8.143   7.178   1.669  0.9789 -0.4744 -0.0392
  402MOL0     H55418   8.309   7.158   1.650  0.0330 -1.4752 -1.2268
  402MOL0     H55419   8.119   6.952   1.750  0.1839  0.1903 -1.6988
  402MOL0     H55420   8.302   6.935   1.717  1.0875  0.5211  0.4332
  402MOL0     H55421   8.178   7.124   1.912 -0.3945 -0.0122 -0.7599
  402MOL0     H55422   8.345   7.098   1.899 -1.2088  0.6603  2.5044
  402MOL0     H55423   8.162   6.865   1.979  1.7271 -3.6530  0.0236
  402MOL0     H55424   8.337   6.874   1.983 -0.7617 -0.0701 -0.9597
  402MOL0     H55425   8.438   6.991   2.193  0.5519  1.8798  1.3370
  402MOL0     H55426   8.337   7.180   2.496 -1.4480 -0.2037 -1.0241
  402MOL0     H55427   8.472   7.104   2.411 -1.0903  2.1910 -2.1701
  402MOL0     H55428   8.389   6.877   2.529  0.2111 -0.0407  0.8169
  402MOL0     H55429   8.448   6.999   2.633 -0.1474 -0.2618 -0.4380
  402MOL0     H55430   8.178   7.062   2.637  0.6039 -0.7452  1.9408
  402MOL0     H55431   8.169   6.896   2.572  3.3861 -2.3652 -1.5836
  402MOL0     H55432   8.144   6.905   2.820  0.6459  1.4495 -0.4901
  402MOL0     H55433   8.263   6.798   2.745  1.4625  0.5473 -3.9234
  402MOL0     H55434   8.212   6.774   2.986  0.7318 -0.9887 -0.6043
  402MOL0     H55435   8.240   6.594   3.251 -1.9558 -5.4750  0.2408
  402MOL0     H55436   8.335   6.486   3.166  3.6111  1.3242  1.6418
  402MOL0     H55437   8.200   6.573   3.077  1.0584  1.9510 -0.4806
  402MOL0     H55438   8.616   6.706   3.537 -1.0903  0.2607  1.3225
  402MOL0     H55439   8.746   6.670   3.743 -0.5190 -1.1215  0.4419
  402MOL0     H55440   8.978   6.740   3.822  1.0460 -0.0925  1.8850
  402MOL0     H55441   8.911   6.605   3.924  1.2016 -1.8684  1.7442
  402MOL0     H55442   9.153   6.538   3.965 -1.7391  1.2803  3.7152
  402MOL0     H55443   9.203   6.686   3.877 -0.1573 -0.1578 -0.6363
  402MOL0     H55444   9.097   6.816   4.055 -0.6388 -0.2876  1.5186
  402MOL0     H55445   9.218   6.705   4.120  0.5297  1.8538 -0.6379
  402MOL0     H55446   9.024   6.546   4.168  3.9675 -0.7111  2.7807
  402MOL0     H55447   8.920   6.692   4.155 -0.6859 -1.6659 -1.5145
  402MOL0     H55448   9.006   6.632   4.395  0.8487  0.7320  1.7750
  402MOL0     H55449   9.160   6.644   4.335 -1.4372 -1.0962  2.5962
  402MOL0     H55450   8.967   6.862   4.315 -1.0972 -1.7043  2.6293
  402MOL0     H55451   9.142   6.885   4.286  0.3315 -0.0439 -1.1806
  402MOL0     H55452   9.189   6.836   4.537  0.1800 -1.9594 -1.1921
  402MOL0     H55453   9.035   6.780   4.565  1.9318 -0.9097 -0.0291
  402MOL0     H55454   8.940   7.012   4.484  0.1465 -2.2270  0.2787
  402MOL0     H55455   9.102   7.067   4.493 -0.5499 -0.5672 -1.4978
  402MOL0     H55456   9.054   6.469   3.509  0.6438  0.8692 -0.1877
  402MOL0     H55457   8.923   6.504   3.309 -0.5057 -2.6082 -0.1368
  402MOL0     H55458   8.670   6.861   3.135 -0.3764  1.2467 -2.7161
  402MOL0     H55459   8.557   6.995   2.965 -1.3582  0.2813  0.6830
  402MOL0     H55460   7.978   7.104   0.845  2.6222  0.8709 -3.1463
  402MOL0     H55461   7.832   7.243   0.684  1.7965  3.8834 -2.4252
  402MOL0     H55462   7.741   7.584   0.493 -2.0877 -2.4009 -0.5933
  402MOL0     H55463   7.690   7.743   0.338  3.1285 -0.7842  2.6146
  402MOL0     H55464   7.622   7.957   0.208  0.1858 -0.5106 -3.2884
  402MOL0     H55465   7.497   7.823   0.218 -3.2880  0.6680  2.0677
  402MOL0     H55466   7.432   7.976   0.039  0.7852  2.5769 -0.9527
  402MOL0     H55467   7.480   8.112   0.127 -1.7987  0.4872 -1.0083
  402MOL0     H55468   7.220   7.960   0.140  0.2081  0.4452 -1.3154
  402MOL0     H55469   7.270   8.019   0.298  0.8601  1.0367  0.1923
  402MOL0     H55470   7.272   8.248   0.244 -1.4273  1.4549  0.4023
  402MOL0     H55471   7.118   8.176   0.199  0.6104 -0.1922  0.8437
  402MOL0     H55472   7.328   8.290  -0.166 -0.2534 -3.4477 -1.0762
  402MOL0     H55473   7.418   7.932   0.623  2.3733  1.5429  1.9183
  402MOL0     H55474   7.396   7.870   0.837  0.7305  1.1302 -0.0202
  402MOL0     H55475   7.435   7.689   0.868 -2.8399  1.6409 -0.2578
  402MOL0     H55476   7.549   7.817   0.906  0.6585 -2.7439  0.4602
  403MOL0     O55477   8.447   4.896   0.491  0.8367 -0.0962  0.0598
  403MOL0     C55478   8.458   4.925   0.370  0.2916 -0.0186 -0.1474
  403MOL0     O55479   8.542   4.872   0.281 -0.2979  0.1602 -0.2149
  403MOL0     C55480   8.623   4.771   0.327 -0.4251 -0.8614 -0.4944
  403MOL0     C55481   8.600   4.640   0.291 -0.2847  0.9156  0.0348
  403MOL0     C55482   8.667   4.535   0.357 -0.2810  0.4590 -0.5135
  403MOL0     C55483   8.761   4.559   0.456  0.8507  0.5912 -0.2008
  403MOL0     O55484   8.808   4.443   0.504 -0.1906  0.4087 -0.2212
  403MOL0     C55485   8.904   4.453   0.610  0.1533 -0.7971  0.7004
  403MOL0     C55486   8.953   4.321   0.639  0.0142 -0.2123 -0.3296
  403MOL0     C55487   9.027   4.251   0.524  0.7667  0.6507 -0.0045
  403MOL0     C55488   9.053   4.112   0.571 -0.3498 -1.0996  0.3618
  403MOL0     C55489   9.149   4.042   0.481  0.6958 -0.4804  0.4342
  403MOL0     C55490   9.295   4.088   0.512 -0.2999  0.3950  0.0075
  403MOL0     C55491   9.400   3.988   0.456  0.8735 -0.1618  0.4133
  403MOL0     C55492   9.411   4.019   0.306  0.5931  0.3339  0.3245
  403MOL0     N55493   9.442   3.907   0.227 -0.0395  0.5057  0.1342
  403MOL0     C55494   9.355   3.802   0.209 -0.2052 -1.3181  0.0062
  403MOL0     C55495   9.436   3.698   0.180 -0.9711 -0.5785 -0.2917
  403MOL0     C55496   9.382   3.563   0.135  0.8635 -1.0796  1.1122
  403MOL0     C55497   9.400   3.457   0.242  0.2103  0.1757  1.3328
  403MOL0     C55498   9.355   3.311   0.190 -0.1130 -0.1327  0.4386
  403MOL0     C55499   9.402   3.200   0.275 -0.0778  1.0182  0.6028
  403MOL0     O55500   9.343   3.192   0.410 -0.1252 -0.1020 -0.4297
  403MOL0     C55501   9.362   3.082   0.491 -0.5601  1.4307  0.7521
  403MOL0     C55502   9.465   2.982   0.489  0.3625 -0.0403 -0.5909
  403MOL0     C55503   9.479   2.885   0.589 -0.6073  0.0507 -0.2069
  403MOL0     C55504   9.594   2.780   0.567 -0.1248 -0.1978 -0.3100
  403MOL0     C55505   9.387   2.879   0.702 -0.2502 -0.4545  0.2461
  403MOL0     C55506   9.399   2.786   0.824 -0.6146  0.0388  0.1153
  403MOL0     O55507   9.306   2.806   0.922  0.2601 -0.0387  0.3065
  403MOL0     C55508   9.309   2.726   1.033 -1.0435 -0.3862  1.0402
  403MOL0     C55509   9.338   2.587   1.046  0.3979  0.6043  0.0737
  403MOL0     C55510   9.317   2.514   1.161 -0.3549  0.2348  0.1805
  403MOL0     C55511   9.293   2.583   1.286 -0.2294  0.6166  0.0913
  403MOL0     O55512   9.280   2.512   1.405  0.2023  0.0236  0.5898
  403MOL0     C55513   9.408   2.472   1.452  0.6182  0.1173  0.1061
  403MOL0     C55514   9.479   2.580   1.533  0.0667 -0.4721  0.1218
  403MOL0     C55515   9.431   2.621   1.674  0.1574 -0.0533 -0.8197
  403MOL0     C55516   9.476   2.762   1.734 -0.2323 -0.1943  0.6673
  403MOL0     C55517   9.495   2.760   1.883  0.0127  0.5943  0.2934
  403MOL0     C55518   9.450   2.889   1.946  0.0568  0.0597  0.5534
  403MOL0     C55519   9.472   2.892   2.093 -0.1768 -0.6947 -0.6433
  403MOL0     C55520   9.358   2.814   2.162 -0.4403  0.6244  0.7929
  403MOL0    Cl55521   9.376   2.844   2.344 -0.4663  0.0160 -0.0280
  403MOL0     C55522   9.283   2.720   1.288  0.7288 -0.3215  1.3092
  403MOL0     C55523   9.291   2.786   1.161  0.8975 -0.6585 -0.2594
  403MOL0     O55524   9.487   2.706   0.829 -0.8398 -0.3313 -0.1937
  403MOL0     C55525   9.290   2.970   0.695 -0.0877 -0.3469 -0.2296
  403MOL0     C55526   9.274   3.070   0.593  0.7272 -0.5623  0.2483
  403MOL0     N55527   9.567   3.746   0.189  1.0389 -0.0982 -0.2586
  403MOL0     N55528   9.569   3.867   0.212 -0.4094  0.7287  0.8326
  403MOL0     C55529   8.788   4.688   0.492 -0.2185 -1.1210  0.1208
  403MOL0     C55530   8.728   4.794   0.421  0.4431 -0.7945  0.2034
  403MOL0     C55531   8.397   5.057   0.331  0.1725 -0.0375 -0.4652
  403MOL0     C55532   8.300   5.117   0.411 -0.8979 -0.2120  0.0055
  403MOL0     C55533   8.234   5.243   0.391 -0.6877  0.4733  0.8212
  403MOL0     C55534   8.282   5.321   0.278  0.2033  0.8048  0.1796
  403MOL0     O55535   8.239   5.447   0.257  0.4335 -0.0368  0.3026
  403MOL0     C55536   8.113   5.493   0.314 -0.0278 -0.0920 -0.4025
  403MOL0     C55537   8.065   5.624   0.247 -0.8187  0.6343 -1.0241
  403MOL0     C55538   8.066   5.623   0.089  0.3076 -0.1424 -0.2163
  403MOL0     C55539   8.010   5.756   0.030 -0.5063  0.3085  0.6771
  403MOL0     C55540   7.876   5.777   0.069  0.8542  0.0144  0.5466
  403MOL0     C55541   7.760   5.798   0.111 -0.6157  0.8057 -0.1503
  403MOL0     C55542   8.388   5.262   0.194 -0.6455 -0.1875 -0.8887
  403MOL0     C55543   8.448   5.136   0.222 -0.2807 -0.1288 -0.1261
  403MOL0     C55544   8.547   5.091   0.119  0.5984  0.8747 -0.5323
  403MOL0     H55545   8.525   4.624   0.215  1.7650 -0.4298 -1.8212
  403MOL0     H55546   8.638   4.436   0.324 -3.6528  1.8861 -2.3149
  403MOL0     H55547   8.857   4.498   0.698 -1.7257  1.9313 -1.5271
  403MOL0     H55548   8.987   4.518   0.583 -1.3230  1.6568  1.7748
  403MOL0     H55549   9.020   4.335   0.724 -1.3401  0.4978  0.6746
  403MOL0     H55550   8.868   4.261   0.673 -0.3724  1.0601  1.0750
  403MOL0     H55551   8.965   4.235   0.435  2.7350 -0.7283 -1.2314
  403MOL0     H55552   9.124   4.297   0.502  0.8533 -1.0676 -4.1564
  403MOL0     H55553   9.095   4.126   0.671 -0.6050  2.7647  0.0991
  403MOL0     H55554   8.959   4.058   0.588 -1.9423  1.5043  0.4383
  403MOL0     H55555   9.119   4.058   0.377 -1.1415 -3.0319  0.4695
  403MOL0     H55556   9.139   3.935   0.504  0.7408 -0.8840 -1.2750
  403MOL0     H55557   9.320   4.186   0.470 -1.4626  1.3175  1.4002
  403MOL0     H55558   9.309   4.096   0.620  0.3125 -0.2978 -0.0162
  403MOL0     H55559   9.361   3.889   0.482  1.6438 -0.4981  0.3173
  403MOL0     H55560   9.496   4.000   0.506  1.3358  0.4202 -0.5900
  403MOL0     H55561   9.307   4.045   0.282  0.5639  1.5644  1.6001
  403MOL0     H55562   9.482   4.101   0.290 -0.4030  0.9685 -1.0716
  403MOL0     H55563   9.248   3.799   0.197 -0.4179  0.4035  1.1476
  403MOL0     H55564   9.433   3.538   0.041 -0.9617 -2.2733  0.3852
  403MOL0     H55565   9.276   3.579   0.112  1.3003 -0.3741 -0.5641
  403MOL0     H55566   9.507   3.440   0.258 -0.2307 -3.0047  1.6787
  403MOL0     H55567   9.340   3.469   0.333 -2.2012 -1.5216  0.0736
  403MOL0     H55568   9.246   3.307   0.179 -0.0323 -0.0651 -0.4271
  403MOL0     H55569   9.402   3.282   0.096  1.3141  2.3323  0.3072
  403MOL0     H55570   9.381   3.108   0.219 -1.0202  0.5903  1.5980
  403MOL0     H55571   9.510   3.190   0.287  0.1328 -1.0050 -1.9774
  403MOL0     H55572   9.544   2.998   0.417  3.2740 -1.1350  2.1232
  403MOL0     H55573   9.574   2.674   0.552  3.7230 -0.9294 -1.4351
  403MOL0     H55574   9.665   2.782   0.650  1.6592 -2.8627 -1.6610
  403MOL0     H55575   9.655   2.809   0.480 -2.6101  1.0082 -1.7654
  403MOL0     H55576   9.351   2.528   0.955  3.0514  0.4993  0.4382
  403MOL0     H55577   9.316   2.406   1.163 -0.3471  0.2038 -0.7246
  403MOL0     H55578   9.382   2.391   1.521 -3.3730 -1.5987 -2.9744
  403MOL0     H55579   9.477   2.426   1.381  2.8113  2.0215  0.8733
  403MOL0     H55580   9.585   2.564   1.552  0.1550 -1.7667 -1.1856
  403MOL0     H55581   9.479   2.669   1.468 -0.2221  0.6313  1.5940
  403MOL0     H55582   9.453   2.538   1.742  4.1220 -1.0023 -2.9432
  403MOL0     H55583   9.323   2.628   1.662  0.1035 -1.2139 -1.1811
  403MOL0     H55584   9.391   2.829   1.715 -0.3784 -0.3681  0.7046
  403MOL0     H55585   9.568   2.798   1.687  0.4350 -1.0256  1.3307
  403MOL0     H55586   9.420   2.695   1.928 -0.4837  0.8160 -0.1932
  403MOL0     H55587   9.591   2.715   1.906 -0.8771 -0.8258  1.4098
  403MOL0     H55588   9.355   2.920   1.900  2.8761  3.5150 -3.8155
  403MOL0     H55589   9.506   2.977   1.914 -0.1372  0.3006  0.8779
  403MOL0     H55590   9.470   2.993   2.135 -2.7475 -1.2252  0.7533
  403MOL0     H55591   9.571   2.853   2.116 -1.6685 -2.8160  2.9526
  403MOL0     H55592   9.359   2.707   2.142 -2.5630  0.9034 -1.2853
  403MOL0     H55593   9.262   2.846   2.121  0.1300 -0.2540 -1.3616
  403MOL0     H55594   9.263   2.775   1.379 -2.1286  0.0169  0.5610
  403MOL0     H55595   9.281   2.894   1.166 -2.0940 -0.9119  1.3052
  403MOL0     H55596   9.211   2.961   0.768  0.8727  0.2911  0.9156
  403MOL0     H55597   9.193   3.140   0.609  0.2119 -1.4550  1.7207
  403MOL0     H55598   8.852   4.716   0.575 -2.8912 -1.4440  2.4617
  403MOL0     H55599   8.755   4.897   0.446  1.2495 -1.2803  1.4482
  403MOL0     H55600   8.273   5.068   0.503  1.1400 -1.3755  0.0383
  403MOL0     H55601   8.157   5.286   0.454 -1.9960  0.2082 -0.5531
  403MOL0     H55602   8.032   5.421   0.301  1.2784 -1.7628  0.2379
  403MOL0     H55603   8.125   5.520   0.419 -0.7580  0.1587 -0.3849
  403MOL0     H55604   8.129   5.701   0.291  0.0904 -0.1723 -0.9002
  403MOL0     H55605   7.967   5.649   0.289 -0.5507  1.5652 -0.9367
  403MOL0     H55606   8.167   5.611   0.048  0.8485 -0.9904  1.2875
  403MOL0     H55607   8.008   5.536   0.056  1.1177 -0.6998 -0.1876
  403MOL0     H55608   8.017   5.743  -0.078  2.5335  0.6243  0.7448
  403MOL0     H55609   8.077   5.838   0.059  2.2981 -1.5892  0.0272
  403MOL0     H55610   7.665   5.830   0.149  0.3309  1.8167  1.4609
  403MOL0     H55611   8.440   5.323   0.122  0.2323  1.4818  1.0590
  403MOL0     H55612   8.582   5.172   0.055  0.7519  0.5081 -0.9132
  403MOL0     H55613   8.632   5.042   0.167  2.4324  0.9324 -3.4825
  403MOL0     H55614   8.503   5.016   0.053  0.8028  0.5894 -0.3504
  404MOL0     O55615   6.714   4.059   2.530 -0.4961  0.5178 -0.7192
  404MOL0     C55616   6.732   4.071   2.405  0.3279 -1.0723 -0.0768
  404MOL0     O55617   6.745   3.963   2.319  0.4893  0.0486  0.8989
  404MOL0     C55618   6.738   3.829   2.366  0.3779 -0.4881 -0.9257
  404MOL0     C55619   6.611   3.779   2.403  0.2841  0.0302  1.1086
  404MOL0     C55620   6.601   3.645   2.449 -0.2782 -0.3305 -1.0568
  404MOL0     C55621   6.713   3.563   2.431  0.0719  0.4523  0.6513
  404MOL0     O55622   6.714   3.422   2.443 -0.1373  0.0875 -0.7037
  404MOL0     C55623   6.582   3.362   2.437 -0.7686  0.0573 -0.4296
  404MOL0     C55624   6.590   3.231   2.365  0.5164 -0.0728 -0.5978
  404MOL0     C55625   6.621   3.238   2.212 -0.2888  0.1969 -0.5188
  404MOL0     C55626   6.507   3.216   2.112  0.1597  0.0706 -0.5847
  404MOL0     C55627   6.527   3.232   1.964 -0.0196  0.0185 -0.5394
  404MOL0     C55628   6.397   3.225   1.884 -0.3094 -0.0049 -0.5636
  404MOL0     C55629   6.429   3.245   1.746 -0.3362 -0.0307 -0.0797
  404MOL0     C55630   6.499   3.130   1.676 -0.6964 -0.1843  0.7106
  404MOL0     N55631   6.507   3.138   1.525 -0.6571 -0.1503  0.7398
  404MOL0     C55632   6.406   3.161   1.435  0.6800  0.1635  0.8517
  404MOL0     C55633   6.473   3.144   1.316  0.5144 -1.2037 -0.1247
  404MOL0     C55634   6.420   3.162   1.170  0.0458 -0.6002  0.5128
  404MOL0     C55635   6.471   3.052   1.078  0.3769  0.1250 -1.7880
  404MOL0     C55636   6.418   2.908   1.108 -0.1702  0.3325  0.3331
  404MOL0     C55637   6.516   2.812   1.166 -0.5660  0.1572 -0.2794
  404MOL0     O55638   6.616   2.768   1.076 -0.2742  0.0041 -0.3879
  404MOL0     C55639   6.728   2.693   1.112  0.1745 -0.8365  0.1529
  404MOL0     C55640   6.813   2.653   1.003  0.3364 -0.1547  0.4885
  404MOL0     C55641   6.918   2.561   1.021 -0.7429 -0.6737 -0.5917
  404MOL0     C55642   6.993   2.519   0.898 -0.8662 -0.1195  0.6571
  404MOL0     C55643   6.940   2.503   1.150  0.1301  0.0225  0.3864
  404MOL0     C55644   7.045   2.411   1.188 -0.3246  0.5492 -0.6411
  404MOL0     O55645   7.068   2.399   1.328  0.0014  0.6507 -0.7595
  404MOL0     C55646   7.160   2.328   1.394 -0.1095  0.1450  0.5524
  404MOL0     C55647   7.275   2.263   1.341  0.3298 -0.6491  0.2948
  404MOL0     C55648   7.341   2.168   1.408  0.1023 -0.4152 -1.0526
  404MOL0     C55649   7.311   2.147   1.545  0.2945  0.2076  0.5767
  404MOL0     O55650   7.388   2.064   1.623  0.1049  0.2419  0.2445
  404MOL0     C55651   7.409   1.928   1.587  0.1662  0.3955  0.6764
  404MOL0     C55652   7.448   1.836   1.706  0.4857 -0.1560 -0.4733
  404MOL0     C55653   7.393   1.688   1.676  0.7368 -0.9708 -0.4327
  404MOL0     C55654   7.490   1.610   1.592 -0.3536  0.3348 -0.7901
  404MOL0     C55655   7.453   1.459   1.593 -0.1480 -0.7400  0.1614
  404MOL0     C55656   7.531   1.372   1.490 -0.7028  0.0029  0.3813
  404MOL0     C55657   7.471   1.234   1.491 -0.1119  0.1907  0.4156
  404MOL0     C55658   7.497   1.151   1.361 -0.3205  0.5168  0.0686
  404MOL0    Cl55659   7.381   1.023   1.359  0.0165 -0.0434 -0.0370
  404MOL0     C55660   7.209   2.226   1.603  0.1015 -0.5235 -0.3581
  404MOL0     C55661   7.132   2.315   1.530 -0.0408 -0.4192 -0.1929
  404MOL0     O55662   7.104   2.357   1.101 -0.1484  0.3380 -0.1619
  404MOL0     C55663   6.864   2.549   1.257  0.0688  0.3827  0.2118
  404MOL0     C55664   6.758   2.642   1.237 -0.3646 -0.7277  0.3496
  404MOL0     N55665   6.607   3.128   1.332  0.7525  0.3483  0.4034
  404MOL0     N55666   6.623   3.118   1.458  0.7170 -0.3370  0.5308
  404MOL0     C55667   6.832   3.611   2.377 -0.7648 -0.4856  0.1813
  404MOL0     C55668   6.844   3.747   2.344 -0.1599 -0.6771 -0.5652
  404MOL0     C55669   6.732   4.202   2.336 -0.5244  0.3515 -0.8702
  404MOL0     C55670   6.746   4.202   2.192 -1.1649  0.0709  0.0644
  404MOL0     C55671   6.757   4.322   2.123  0.2724  0.0725 -0.1221
  404MOL0     C55672   6.740   4.443   2.188  0.2585 -1.2262  0.6226
  404MOL0     O55673   6.740   4.564   2.126 -0.1658  0.0584 -0.5671
  404MOL0     C55674   6.674   4.579   2.001 -0.0066  0.2481 -0.0786
  404MOL0     C55675   6.572   4.690   1.999 -0.1290 -0.3170 -0.3650
  404MOL0     C55676   6.485   4.689   1.868 -0.3971  0.0446 -0.3617
  404MOL0     C55677   6.568   4.729   1.751  0.3428 -0.4371  0.6498
  404MOL0     C55678   6.627   4.606   1.703  0.0464  0.6195  0.2426
  404MOL0     C55679   6.683   4.506   1.664  0.6043 -0.2794  0.2683
  404MOL0     C55680   6.739   4.440   2.327  1.1933  0.0581 -0.0100
  404MOL0     C55681   6.735   4.321   2.404 -0.4374 -0.4722  0.4407
  404MOL0     C55682   6.742   4.343   2.553  0.3873  0.5430 -0.0105
  404MOL0     H55683   6.521   3.840   2.409  0.1631  0.0037 -0.1364
  404MOL0     H55684   6.512   3.611   2.501 -0.0593  1.9090  0.9669
  404MOL0     H55685   6.519   3.419   2.368 -2.0706  0.2021  0.8259
  404MOL0     H55686   6.533   3.361   2.535  2.0206  2.8959  1.1985
  404MOL0     H55687   6.665   3.171   2.419  1.8114  2.2029  0.3187
  404MOL0     H55688   6.487   3.199   2.382 -0.2833  1.6181 -1.9629
  404MOL0     H55689   6.664   3.336   2.188 -0.4756  0.1144 -1.2185
  404MOL0     H55690   6.694   3.157   2.202 -2.6060 -1.9062 -1.3791
  404MOL0     H55691   6.486   3.109   2.121 -0.4697  0.1870 -0.6067
  404MOL0     H55692   6.418   3.276   2.136 -0.4412 -0.7325 -0.7602
  404MOL0     H55693   6.586   3.147   1.928  0.3165  0.2284 -0.4883
  404MOL0     H55694   6.566   3.331   1.936 -1.8802  0.4785 -1.6811
  404MOL0     H55695   6.353   3.125   1.884 -0.8881  0.2345 -1.1811
  404MOL0     H55696   6.316   3.293   1.914 -0.9568  0.7863 -3.6689
  404MOL0     H55697   6.489   3.335   1.729 -0.2386 -0.3474 -1.6423
  404MOL0     H55698   6.334   3.262   1.696 -1.1274  2.1991  2.0041
  404MOL0     H55699   6.596   3.114   1.724  0.4543 -6.2914 -2.6315
  404MOL0     H55700   6.448   3.036   1.700 -1.3662  0.2813  1.1691
  404MOL0     H55701   6.304   3.191   1.456  0.9148  0.5086  1.5427
  404MOL0     H55702   6.445   3.266   1.144 -2.5013  0.2348  1.0704
  404MOL0     H55703   6.311   3.154   1.176 -0.2198  0.5646 -1.5844
  404MOL0     H55704   6.445   3.070   0.973  0.6337 -1.1866 -2.0880
  404MOL0     H55705   6.580   3.062   1.088  0.2707 -0.2551  0.3878
  404MOL0     H55706   6.337   2.922   1.180  1.1374  4.3455  1.3149
  404MOL0     H55707   6.386   2.867   1.012 -2.8582  0.0263  1.2832
  404MOL0     H55708   6.566   2.863   1.248 -0.3279  0.1010 -0.3889
  404MOL0     H55709   6.458   2.727   1.201 -0.7824  0.6833  0.6860
  404MOL0     H55710   6.784   2.697   0.908  1.0355  0.4857  0.5590
  404MOL0     H55711   6.969   2.588   0.817 -0.3048 -0.8983 -0.1933
  404MOL0     H55712   6.973   2.415   0.870 -0.3160  0.1651 -0.8996
  404MOL0     H55713   7.101   2.533   0.906 -0.6280  1.8056 -3.4200
  404MOL0     H55714   7.313   2.280   1.241  1.8908 -1.1742  0.7670
  404MOL0     H55715   7.429   2.113   1.376  1.5809  1.1856  0.1546
  404MOL0     H55716   7.325   1.895   1.526  0.8375 -0.5265  0.2162
  404MOL0     H55717   7.497   1.925   1.522 -0.4473  2.6051 -0.3324
  404MOL0     H55718   7.554   1.839   1.735  0.2512 -3.9916  1.3626
  404MOL0     H55719   7.393   1.869   1.794  0.7341  1.8251 -1.0090
  404MOL0     H55720   7.295   1.679   1.627  0.3758 -0.1562  0.1133
  404MOL0     H55721   7.390   1.651   1.779 -3.3097  0.7972  0.2792
  404MOL0     H55722   7.594   1.625   1.623  0.1746 -0.5592 -2.0488
  404MOL0     H55723   7.474   1.643   1.489 -2.0744  0.3631 -0.5420
  404MOL0     H55724   7.451   1.417   1.694 -2.3383  1.1560  1.0047
  404MOL0     H55725   7.346   1.449   1.570 -0.7647 -0.5112  2.6303
  404MOL0     H55726   7.636   1.353   1.513 -0.3284 -0.3726 -1.4837
  404MOL0     H55727   7.523   1.410   1.388  0.6931  1.1982  0.6836
  404MOL0     H55728   7.362   1.234   1.501 -0.0642 -0.3964  0.9931
  404MOL0     H55729   7.515   1.166   1.565 -3.6148 -1.0863  1.5482
  404MOL0     H55730   7.601   1.122   1.345 -0.1202  2.7794 -3.8510
  404MOL0     H55731   7.468   1.218   1.280 -2.4909 -0.3816  0.0041
  404MOL0     H55732   7.185   2.204   1.707  0.6523  1.2586  0.1861
  404MOL0     H55733   7.044   2.365   1.571 -1.4353 -0.5308 -2.8259
  404MOL0     H55734   6.869   2.509   1.357  0.9777  0.3940  0.1837
  404MOL0     H55735   6.701   2.680   1.321 -0.6828  2.3845 -1.1446
  404MOL0     H55736   6.902   3.529   2.368 -1.0710 -0.9629  1.8087
  404MOL0     H55737   6.942   3.785   2.316  0.5095 -3.0262 -1.7082
  404MOL0     H55738   6.760   4.112   2.132  0.7017  0.9500 -0.9086
  404MOL0     H55739   6.770   4.322   2.016 -0.6153 -0.0624 -0.2409
  404MOL0     H55740   6.746   4.591   1.919  0.2810  0.2629  0.1719
  404MOL0     H55741   6.615   4.488   1.992  0.0787  0.2041 -0.2058
  404MOL0     H55742   6.623   4.785   2.017  0.6280 -0.8415  0.3507
  404MOL0     H55743   6.504   4.670   2.081  3.1555 -2.6111  2.0731
  404MOL0     H55744   6.435   4.592   1.864 -1.8316  0.6880  1.0175
  404MOL0     H55745   6.407   4.764   1.883 -0.3948  0.2138 -1.1670
  404MOL0     H55746   6.638   4.813   1.748 -1.4810  1.2181 -3.5060
  404MOL0     H55747   6.497   4.757   1.673 -0.6964  1.2946  2.1310
  404MOL0     H55748   6.747   4.430   1.624 -0.4077 -2.1087  1.9307
  404MOL0     H55749   6.751   4.538   2.374  1.5649  0.6602 -1.3131
  404MOL0     H55750   6.826   4.289   2.597 -0.4848 -1.2234 -0.4072
  404MOL0     H55751   6.740   4.445   2.592  0.2503 -0.5799  3.2732
  404MOL0     H55752   6.653   4.297   2.597  2.8887 -2.1475  2.7038
  405MOL0     O55753   2.335   9.043   1.246  0.2300  0.0395  0.1860
  405MOL0     C55754   2.276   9.083   1.150 -0.4290 -0.1101 -0.8949
  405MOL0     O55755   2.225   9.009   1.054  0.4040  0.0622 -0.4671
  405MOL0     C55756   2.261   8.883   1.029  1.3234  0.3259  0.3244
  405MOL0     C55757   2.162   8.787   0.989 -0.2655 -0.4478  1.1947
  405MOL0     C55758   2.204   8.655   0.965  0.5334 -0.0087 -0.2076
  405MOL0     C55759   2.336   8.620   0.974 -0.3502  0.1926 -0.6619
  405MOL0     O55760   2.374   8.493   0.947 -0.2258 -0.1413  0.2955
  405MOL0     C55761   2.351   8.433   0.817 -0.6531  0.8257  0.1776
  405MOL0     C55762   2.366   8.278   0.823 -0.7720 -0.2502  0.6166
  405MOL0     C55763   2.277   8.210   0.939  1.2659 -0.9027  0.0253
  405MOL0     C55764   2.128   8.207   0.883 -0.9708 -0.4597 -0.4618
  405MOL0     C55765   2.030   8.137   0.981 -0.7307  0.0307  0.3574
  405MOL0     C55766   1.880   8.137   0.939 -0.4261  0.0362  0.0645
  405MOL0     C55767   1.797   8.084   1.060 -0.3266  0.9235  0.9047
  405MOL0     C55768   1.653   8.089   1.019  0.1068 -1.0731 -0.0271
  405MOL0     N55769   1.611   8.027   0.898 -0.0834 -0.3539  0.2590
  405MOL0     C55770   1.626   7.889   0.870  1.3240 -0.3922  0.2940
  405MOL0     C55771   1.600   7.870   0.744 -0.6322 -1.1539  0.0343
  405MOL0     C55772   1.611   7.745   0.666  0.2211 -0.0895  0.2589
  405MOL0     C55773   1.671   7.771   0.526  0.0618  0.1418 -0.1849
  405MOL0     C55774   1.804   7.853   0.521  0.3265  0.8913  0.2088
  405MOL0     C55775   1.857   7.829   0.380 -0.8755  0.1795  0.4485
  405MOL0     O55776   1.981   7.898   0.350  0.1153 -0.1662 -1.0104
  405MOL0     C55777   2.010   7.921   0.223  0.5635 -0.0999 -0.4358
  405MOL0     C55778   2.050   8.045   0.179 -0.7857 -0.3763 -0.1931
  405MOL0     C55779   2.080   8.079   0.045  0.7121 -0.1271 -0.0374
  405MOL0     C55780   2.125   8.223   0.021 -0.9585 -0.5991 -0.7831
  405MOL0     C55781   2.057   7.982  -0.058  0.3074  0.1531 -0.3210
  405MOL0     C55782   2.101   8.005  -0.205 -0.1743  0.1804  0.2159
  405MOL0     O55783   2.133   7.893  -0.279 -0.4637 -0.2663  0.7452
  405MOL0     C55784   2.211   7.911  -0.392  0.4485  0.0368 -0.0979
  405MOL0     C55785   2.342   7.946  -0.396 -0.6136 -0.0635 -0.0243
  405MOL0     C55786   2.412   7.958  -0.516 -0.2308 -0.5688 -0.6906
  405MOL0     C55787   2.354   7.922  -0.640  0.8045  1.0610 -0.4397
  405MOL0     O55788   2.427   7.929  -0.750 -0.5659 -0.9886  0.6121
  405MOL0     C55789   2.389   7.847  -0.863  0.4053  0.2738  0.3268
  405MOL0     C55790   2.504   7.831  -0.959 -0.4938 -0.1045 -0.1723
  405MOL0     C55791   2.492   7.719  -1.067  0.3676  0.4620 -0.4162
  405MOL0     C55792   2.615   7.700  -1.156  0.8041 -0.4371 -0.4164
  405MOL0     C55793   2.603   7.571  -1.235  0.5007 -0.4647 -0.0257
  405MOL0     C55794   2.725   7.547  -1.333  0.0559  0.1842 -0.0565
  405MOL0     C55795   2.720   7.425  -1.427 -0.1789 -0.1065  0.1821
  405MOL0     C55796   2.819   7.436  -1.540  0.0084 -0.1986 -1.1938
  405MOL0    Cl55797   2.776   7.302  -1.643 -0.0772  0.3608 -0.4207
  405MOL0     C55798   2.228   7.866  -0.630  0.1511  0.5232  0.0920
  405MOL0     C55799   2.150   7.866  -0.510 -0.0484 -0.1821 -0.2913
  405MOL0     O55800   2.107   8.120  -0.246 -0.2197  0.0511 -0.6900
  405MOL0     C55801   2.014   7.860  -0.019 -0.5503 -0.1842  0.6553
  405MOL0     C55802   1.984   7.823   0.117  0.4460 -0.3313 -0.3931
  405MOL0     N55803   1.566   7.990   0.686  0.5595 -0.1451 -0.5407
  405MOL0     N55804   1.574   8.084   0.781  0.1546  0.5262  0.4744
  405MOL0     C55805   2.428   8.709   1.030 -0.0570  0.6194  0.1241
  405MOL0     C55806   2.395   8.840   1.052  0.5914 -0.0313  0.1672
  405MOL0     C55807   2.246   9.227   1.139 -0.8276  0.8379  0.2624
  405MOL0     C55808   2.118   9.270   1.134  0.2526 -1.4592 -0.8663
  405MOL0     C55809   2.089   9.405   1.150 -0.3326  0.4920  0.2041
  405MOL0     C55810   2.191   9.502   1.162 -0.4732 -0.3350  1.1214
  405MOL0     O55811   2.180   9.636   1.170 -0.2801  0.0260  0.3579
  405MOL0     C55812   2.047   9.689   1.140 -0.4954  0.7493  1.1864
  405MOL0     C55813   1.959   9.677   1.270  0.2519  0.0940  0.3096
  405MOL0     C55814   1.816   9.726   1.246 -0.4681 -0.3480 -0.0044
  405MOL0     C55815   1.721   9.709   1.363  0.4018 -0.8775  0.0045
  405MOL0     C55816   1.714   9.568   1.401  0.2789 -0.2971  0.0499
  405MOL0     C55817   1.677   9.457   1.451 -0.3348 -0.1141  0.5473
  405MOL0     C55818   2.321   9.457   1.157  0.4538  1.0974 -0.1874
  405MOL0     C55819   2.350   9.319   1.139 -0.0147  0.1163 -1.0822
  405MOL0     C55820   2.488   9.288   1.180 -0.3262  0.0271 -0.3657
  405MOL0     H55821   2.064   8.832   0.988  1.1481  3.0274  2.1588
  405MOL0     H55822   2.131   8.578   0.943  0.3904  0.5337 -1.7410
  405MOL0     H55823   2.429   8.467   0.749  1.1545  0.0513  1.7629
  405MOL0     H55824   2.252   8.455   0.778 -0.9317 -0.8403 -0.1523
  405MOL0     H55825   2.359   8.239   0.721  1.5388 -0.2620  0.4202
  405MOL0     H55826   2.469   8.248   0.843 -0.8156 -1.8519 -1.2465
  405MOL0     H55827   2.323   8.116   0.970 -0.0048 -1.4296  0.3669
  405MOL0     H55828   2.286   8.270   1.030 -0.0174 -1.0449  0.2605
  405MOL0     H55829   2.102   8.312   0.869  2.4822  0.4805 -0.9356
  405MOL0     H55830   2.112   8.161   0.786  0.4669 -1.0449 -0.4560
  405MOL0     H55831   2.037   8.178   1.082  1.9151 -0.2649  0.3574
  405MOL0     H55832   2.054   8.030   0.983 -0.8470 -0.1589 -2.9221
  405MOL0     H55833   1.855   8.242   0.922 -2.6200 -0.2992  0.9832
  405MOL0     H55834   1.857   8.079   0.849 -1.0476  0.9027 -0.3548
  405MOL0     H55835   1.810   8.128   1.160  0.4637  0.7573  0.8890
  405MOL0     H55836   1.801   7.976   1.080 -1.1486  0.6118 -0.4946
  405MOL0     H55837   1.586   8.060   1.101 -0.6321 -0.4512 -0.3879
  405MOL0     H55838   1.626   8.192   0.992  0.6392 -1.6156 -2.9596
  405MOL0     H55839   1.668   7.815   0.938  0.0606  0.7417  2.4215
  405MOL0     H55840   1.512   7.699   0.660 -0.0780  0.7494 -2.7710
  405MOL0     H55841   1.685   7.675   0.706 -0.5381 -1.6812 -1.0284
  405MOL0     H55842   1.684   7.674   0.476 -2.5916 -1.6201  2.2377
  405MOL0     H55843   1.596   7.814   0.460 -0.8516 -0.2557  0.5759
  405MOL0     H55844   1.779   7.958   0.540 -1.7076  1.1464 -3.0098
  405MOL0     H55845   1.882   7.810   0.584  1.8864  0.0955 -2.0955
  405MOL0     H55846   1.876   7.722   0.367 -0.5391  0.4945 -2.0360
  405MOL0     H55847   1.779   7.873   0.317 -0.5419  2.2827  1.4192
  405MOL0     H55848   2.061   8.113   0.262  1.3171 -0.4502 -0.3499
  405MOL0     H55849   2.129   8.286   0.110 -1.5379  3.0891 -3.1574
  405MOL0     H55850   2.058   8.286  -0.038  1.1988  2.1697 -0.4939
  405MOL0     H55851   2.226   8.228  -0.021 -0.2185  0.4064  1.0060
  405MOL0     H55852   2.395   7.969  -0.304  1.5828 -0.2190 -1.1952
  405MOL0     H55853   2.515   7.989  -0.508 -0.4518  0.1047 -0.3045
  405MOL0     H55854   2.358   7.749  -0.825 -0.0445  1.1076  2.2696
  405MOL0     H55855   2.307   7.894  -0.918  2.1965 -0.5557 -3.3403
  405MOL0     H55856   2.517   7.930  -1.006  0.8282  0.3662  1.1112
  405MOL0     H55857   2.599   7.814  -0.909  0.1879 -0.0661 -1.3983
  405MOL0     H55858   2.407   7.740  -1.132  0.6311  1.9922 -0.2875
  405MOL0     H55859   2.480   7.628  -1.007 -2.5475 -0.1115 -1.7085
  405MOL0     H55860   2.709   7.694  -1.101 -0.3629 -2.9686  1.5022
  405MOL0     H55861   2.622   7.779  -1.232  1.4386 -0.4468 -0.3667
  405MOL0     H55862   2.585   7.479  -1.178 -1.1576 -0.4113 -0.3959
  405MOL0     H55863   2.508   7.584  -1.289  0.5545 -1.5821 -0.4210
  405MOL0     H55864   2.818   7.551  -1.275  0.6753  0.0202 -1.0131
  405MOL0     H55865   2.724   7.635  -1.397  0.7237 -0.7995 -1.4602
  405MOL0     H55866   2.621   7.405  -1.467 -0.1364 -2.4944  1.0791
  405MOL0     H55867   2.755   7.335  -1.375 -0.5328 -1.7737 -2.3095
  405MOL0     H55868   2.924   7.430  -1.509 -1.4069 -0.5702  4.5333
  405MOL0     H55869   2.805   7.531  -1.593  0.3686  2.0547  2.3941
  405MOL0     H55870   2.199   7.800  -0.711  2.4017 -0.0721 -0.3005
  405MOL0     H55871   2.053   7.819  -0.498 -0.7210  1.3657  0.5631
  405MOL0     H55872   2.020   7.780  -0.093  1.3722  1.4299 -1.0602
  405MOL0     H55873   1.934   7.729   0.137  0.3872  0.2978  3.0691
  405MOL0     H55874   2.525   8.672   1.060 -0.7042 -2.5966 -1.3804
  405MOL0     H55875   2.467   8.911   1.094  1.5987 -1.3620  0.7480
  405MOL0     H55876   2.032   9.205   1.121 -0.2033 -0.1916 -5.9687
  405MOL0     H55877   1.984   9.429   1.160 -0.2940  0.9806 -0.4946
  405MOL0     H55878   2.058   9.794   1.112  4.7570  0.2979  0.5160
  405MOL0     H55879   2.006   9.628   1.059  1.5166  0.2801  0.4730
  405MOL0     H55880   1.984   9.741   1.356  2.7512 -1.0543  0.5209
  405MOL0     H55881   1.955   9.577   1.315  0.6808  2.1310  5.6094
  405MOL0     H55882   1.799   9.830   1.217 -0.7194  0.6515  3.2878
  405MOL0     H55883   1.772   9.660   1.170 -0.7396 -0.7285  0.4811
  405MOL0     H55884   1.622   9.754   1.349  1.9434  2.6772 -0.7256
  405MOL0     H55885   1.752   9.766   1.451 -0.8125  1.5094 -1.0104
  405MOL0     H55886   1.631   9.365   1.480 -1.7034 -0.6153 -2.7633
  405MOL0     H55887   2.405   9.525   1.153  0.2553  1.3036 -1.3735
  405MOL0     H55888   2.529   9.199   1.130 -2.5946 -1.4556  0.2668
  405MOL0     H55889   2.555   9.373   1.164  3.0201 -2.0906  1.2015
  405MOL0     H55890   2.488   9.274   1.288  2.8027 -0.7966 -0.3778
  406MOL0     O55891   8.253  10.647   4.627 -0.0452 -0.5669 -0.7172
  406MOL0     C55892   8.298  10.534   4.647 -0.9418 -0.0536  0.0748
  406MOL0     O55893   8.220  10.422   4.671  0.3884  0.4495  0.7805
  406MOL0     C55894   8.087  10.437   4.637  0.4275  0.6338 -0.1464
  406MOL0     C55895   8.057  10.469   4.510 -0.1840 -0.1166 -0.2489
  406MOL0     C55896   7.918  10.505   4.478 -0.6135  0.1407 -0.9072
  406MOL0     C55897   7.819  10.505   4.574 -0.5668 -0.2783  1.0900
  406MOL0     O55898   7.686  10.516   4.549  0.4494 -0.0248  0.5981
  406MOL0     C55899   7.632  10.561   4.419 -0.0020  0.4652 -0.3811
  406MOL0     C55900   7.563  10.697   4.460  0.2892  0.3727  0.8557
  406MOL0     C55901   7.649  10.787   4.545 -1.4187  0.6975  0.1982
  406MOL0     C55902   7.751  10.867   4.467 -0.0773  0.1206  0.3577
  406MOL0     C55903   7.855  10.927   4.562  0.4219  0.5344  1.4054
  406MOL0     C55904   7.979  10.843   4.584  0.8395  0.9092  0.2391
  406MOL0     C55905   8.084  10.935   4.648  1.2929  0.9430 -0.0797
  406MOL0     C55906   8.081  10.945   4.807  0.0891 -0.3214 -0.4354
  406MOL0     N55907   8.164  11.039   4.880 -0.2370 -1.0158 -0.1184
  406MOL0     C55908   8.286  11.087   4.832 -0.6675  0.2836  0.2163
  406MOL0     C55909   8.358  11.135   4.934  0.1305 -0.0207 -0.3265
  406MOL0     C55910   8.499  11.191   4.936 -0.9002 -0.0261 -0.2731
  406MOL0     C55911   8.603  11.104   4.854 -0.2175 -0.4579 -0.0412
  406MOL0     C55912   8.735  11.182   4.853  0.5979 -0.5675  0.3929
  406MOL0     C55913   8.788  11.188   4.999 -0.7294  0.3284  0.7769
  406MOL0     O55914   8.923  11.236   5.011  0.3999  0.4480 -0.4795
  406MOL0     C55915   9.034  11.153   5.003 -0.2364  0.0427 -0.1152
  406MOL0     C55916   9.032  11.023   4.956  0.0701 -0.3490 -0.7281
  406MOL0     C55917   9.149  10.947   4.932  0.7919  0.1045  0.4301
  406MOL0     C55918   9.141  10.814   4.869  0.1203 -0.7875  0.1054
  406MOL0     C55919   9.270  11.008   4.989 -1.0269 -0.6230 -0.5352
  406MOL0     C55920   9.410  10.943   4.990  0.5736 -0.5799  0.3785
  406MOL0     O55921   9.417  10.811   4.992 -0.2567  0.6666  0.3629
  406MOL0     C55922   9.535  10.757   4.939 -0.4490 -0.4052 -0.1987
  406MOL0     C55923   9.635  10.700   5.018  0.4000 -0.1845 -0.0266
  406MOL0     C55924   9.749  10.653   4.953  0.5355  0.4201 -0.1175
  406MOL0     C55925   9.773  10.655   4.820  0.1197 -0.4381  0.5201
  406MOL0     O55926   9.878  10.606   4.753  0.1576 -0.6389 -0.4431
  406MOL0     C55927   9.932  10.474   4.778  0.6619  0.0984 -0.3949
  406MOL0     C55928  10.058  10.424   4.692  0.4261  0.1353 -0.2404
  406MOL0     C55929  10.182  10.508   4.735 -0.4221  0.2188 -0.3361
  406MOL0     C55930  10.300  10.472   4.647  0.4929  0.1553 -0.5181
  406MOL0     C55931  10.388  10.594   4.618 -0.1111  0.2643 -0.2089
  406MOL0     C55932  10.528  10.561   4.573  0.1688 -0.5284  0.6417
  406MOL0     C55933  10.613  10.685   4.544  0.5187 -0.4243 -0.1404
  406MOL0     C55934  10.761  10.658   4.527  0.6783  0.7398 -0.0136
  406MOL0    Cl55935  10.839  10.814   4.517  0.4805 -0.4889  0.0441
  406MOL0     C55936   9.685  10.730   4.741  0.2866  0.0911  0.2110
  406MOL0     C55937   9.567  10.773   4.800 -0.0368  0.2349 -1.0613
  406MOL0     O55938   9.507  11.014   4.998 -0.3697 -0.5757  0.1098
  406MOL0     C55939   9.275  11.148   5.024 -0.9770 -0.5996 -0.2391
  406MOL0     C55940   9.153  11.211   5.026  0.8204  0.3966 -0.7236
  406MOL0     N55941   8.273  11.136   5.039 -1.1717 -0.3590 -0.0841
  406MOL0     N55942   8.161  11.085   5.008  0.6799 -0.1534  0.2806
  406MOL0     C55943   7.858  10.471   4.701 -0.0152  0.2734 -0.4184
  406MOL0     C55944   7.990  10.444   4.736 -0.2695 -0.3401 -0.8490
  406MOL0     C55945   8.446  10.521   4.625  0.1597 -0.1406 -0.4271
  406MOL0     C55946   8.502  10.412   4.560 -0.1753 -0.1908 -0.2789
  406MOL0     C55947   8.642  10.408   4.542 -0.5084 -0.1811  0.3711
  406MOL0     C55948   8.728  10.498   4.604  0.1853 -1.1528  0.4124
  406MOL0     O55949   8.865  10.494   4.574 -0.9356 -0.2099  0.5192
  406MOL0     C55950   8.905  10.445   4.445 -0.2549  0.1172  0.7470
  406MOL0     C55951   9.043  10.496   4.404  0.5223 -0.3139  1.0722
  406MOL0     C55952   9.161  10.435   4.486 -0.1960 -0.3956  0.0919
  406MOL0     C55953   9.194  10.509   4.617  0.9681  0.0988  0.4039
  406MOL0     C55954   9.335  10.492   4.645  0.7707 -0.0222 -0.1521
  406MOL0     C55955   9.441  10.457   4.702  0.4133  0.0060  0.1420
  406MOL0     C55956   8.676  10.601   4.682  0.3358 -0.9858 -0.2771
  406MOL0     C55957   8.536  10.620   4.686  0.8882 -0.2812  0.2299
  406MOL0     C55958   8.481  10.745   4.768 -0.0138  0.3612  0.3672
  406MOL0     H55959   8.135  10.461   4.436  1.5938  1.6873  1.3196
  406MOL0     H55960   7.892  10.505   4.372  1.8946  2.5920 -1.6294
  406MOL0     H55961   7.563  10.483   4.386 -2.8436  1.7557  2.0269
  406MOL0     H55962   7.702  10.565   4.334 -0.8123 -0.9984 -1.1629
  406MOL0     H55963   7.529  10.751   4.371 -0.3918 -0.8519  0.3385
  406MOL0     H55964   7.473  10.672   4.518  0.9541 -1.1121  1.3088
  406MOL0     H55965   7.587  10.855   4.604 -0.7472 -0.2706  2.0870
  406MOL0     H55966   7.702  10.728   4.620 -0.2131  0.2100 -0.9921
  406MOL0     H55967   7.809  10.796   4.408  0.4689  0.0323  0.9850
  406MOL0     H55968   7.701  10.941   4.404  0.3177 -0.9902 -1.3270
  406MOL0     H55969   7.803  10.946   4.657 -0.9431  0.3613  0.7264
  406MOL0     H55970   7.870  11.030   4.529  0.5806  0.2165  0.4557
  406MOL0     H55971   7.950  10.761   4.650  0.0227 -1.0189 -2.3095
  406MOL0     H55972   8.019  10.805   4.489  0.7338  0.8476  0.2192
  406MOL0     H55973   8.086  11.035   4.604  1.3715  1.1769  0.4473
  406MOL0     H55974   8.177  10.882   4.629  1.7459 -0.1920  4.3062
  406MOL0     H55975   7.977  10.974   4.828  0.7601  0.9574  1.3129
  406MOL0     H55976   8.091  10.843   4.847  1.8302 -0.0673 -0.1701
  406MOL0     H55977   8.323  11.080   4.730  0.4761  2.9582  0.3678
  406MOL0     H55978   8.534  11.197   5.040 -0.9989 -2.8265  0.0093
  406MOL0     H55979   8.492  11.287   4.885 -0.6603 -0.9896 -2.2196
  406MOL0     H55980   8.612  11.001   4.889 -2.7054 -1.0444 -0.9025
  406MOL0     H55981   8.551  11.102   4.758 -0.3056  2.3519 -0.1321
  406MOL0     H55982   8.807  11.140   4.781  1.3452 -1.1023  1.4234
  406MOL0     H55983   8.723  11.285   4.818 -0.0588 -1.4436 -2.2003
  406MOL0     H55984   8.728  11.256   5.061  2.3906  1.5073  2.7559
  406MOL0     H55985   8.793  11.093   5.053  1.0771  0.4684  0.9190
  406MOL0     H55986   8.936  10.976   4.936  0.0660 -1.6327  1.9009
  406MOL0     H55987   9.041  10.785   4.838  0.0612  1.0097 -1.5504
  406MOL0     H55988   9.187  10.735   4.929  0.8581 -0.8725 -0.5495
  406MOL0     H55989   9.187  10.819   4.770  0.4811 -1.2978  0.2411
  406MOL0     H55990   9.622  10.697   5.126  1.2910  0.2680  0.1011
  406MOL0     H55991   9.830  10.629   5.021 -0.2340 -2.4719 -0.1065
  406MOL0     H55992   9.969  10.469   4.881 -3.6753  0.0380  1.4130
  406MOL0     H55993   9.850  10.402   4.779  2.2769 -1.8186  0.2264
  406MOL0     H55994  10.064  10.321   4.729 -0.9316  0.5307  1.1997
  406MOL0     H55995  10.034  10.434   4.586 -2.1313 -1.3554  0.1141
  406MOL0     H55996  10.204  10.480   4.838 -1.4782 -3.2773 -0.9217
  406MOL0     H55997  10.154  10.613   4.736 -2.2202 -0.1909 -1.6603
  406MOL0     H55998  10.271  10.422   4.554  0.6659  0.6884 -0.8664
  406MOL0     H55999  10.359  10.403   4.707  0.0741  0.2020 -0.0472
  406MOL0     H56000  10.347  10.675   4.558  1.3650  1.5359  0.4381
  406MOL0     H56001  10.392  10.654   4.710 -1.7668 -0.2276  0.2219
  406MOL0     H56002  10.522  10.502   4.480 -0.3485  0.4617  0.0318
  406MOL0     H56003  10.579  10.494   4.643 -0.9390 -1.4329  0.6181
  406MOL0     H56004  10.609  10.751   4.631  1.9429  0.9897 -1.0882
  406MOL0     H56005  10.569  10.738   4.459 -0.8648 -1.4664 -0.1097
  406MOL0     H56006  10.785  10.599   4.438  0.1691 -0.4980  0.6541
  406MOL0     H56007  10.793  10.610   4.619 -0.5517  1.1901  0.6705
  406MOL0     H56008   9.706  10.764   4.640  0.1747  1.4324  0.6296
  406MOL0     H56009   9.491  10.824   4.742 -1.4059  0.3160  0.7176
  406MOL0     H56010   9.361  11.210   5.049 -0.1999 -1.7088 -0.0642
  406MOL0     H56011   9.155  11.317   5.047  0.6206  0.0640  1.1903
  406MOL0     H56012   7.783  10.457   4.778  0.2472  0.4803 -0.1189
  406MOL0     H56013   8.016  10.424   4.839  4.2418  2.1945 -1.2608
  406MOL0     H56014   8.432  10.336   4.528 -1.7627  1.0215  0.1873
  406MOL0     H56015   8.697  10.328   4.493  2.3121  1.8512 -0.0267
  406MOL0     H56016   8.918  10.337   4.453  0.1477 -0.3718 -3.7934
  406MOL0     H56017   8.842  10.478   4.363  0.5488 -0.3316 -0.0682
  406MOL0     H56018   9.036  10.605   4.397 -2.8397 -0.5303 -3.4399
  406MOL0     H56019   9.058  10.466   4.300 -0.8256 -0.6873  0.9679
  406MOL0     H56020   9.130  10.334   4.514 -1.0690 -0.1604 -0.0046
  406MOL0     H56021   9.251  10.427   4.424 -0.7400  2.8079 -1.2878
  406MOL0     H56022   9.125  10.475   4.695 -0.4831  3.5498  0.7936
  406MOL0     H56023   9.171  10.616   4.612  1.9346  0.3461  1.0241
  406MOL0     H56024   9.535  10.427   4.742  0.8228  1.1526  0.0800
  406MOL0     H56025   8.741  10.674   4.727  0.7301 -1.2688 -0.3800
  406MOL0     H56026   8.444  10.823   4.701  0.9999 -0.6059 -1.3870
  406MOL0     H56027   8.395  10.715   4.829  0.2111 -0.4833  0.2825
  406MOL0     H56028   8.555  10.791   4.834  0.9834  1.0778 -1.1666
  407MOL0     O56029   7.149   9.985   0.557 -0.5541 -0.5932 -0.1012
  407MOL0     C56030   7.088   9.958   0.455  2.0402 -0.0571 -0.3025
  407MOL0     O56031   6.950   9.982   0.444  0.1759  0.4619 -0.1649
  407MOL0     C56032   6.879  10.013   0.552 -0.3647 -0.3950  0.1799
  407MOL0     C56033   6.792  10.124   0.550  0.1423  0.1720  0.4712
  407MOL0     C56034   6.714  10.153   0.663 -0.1350 -0.4468  0.3718
  407MOL0     C56035   6.712  10.074   0.772 -0.2358  0.1634  0.0397
  407MOL0     O56036   6.633  10.105   0.879 -0.9190 -0.2158  0.2420
  407MOL0     C56037   6.696  10.112   1.001  0.4842  1.0412  0.3397
  407MOL0     C56038   6.642  10.247   1.063 -0.7910  0.5442 -0.1251
  407MOL0     C56039   6.744  10.361   1.014 -0.5359 -0.0507 -0.0301
  407MOL0     C56040   6.682  10.495   1.019 -0.7197  0.0990  0.0576
  407MOL0     C56041   6.770  10.591   0.938  0.0354 -0.9202  0.5500
  407MOL0     C56042   6.703  10.612   0.798  0.5696  0.5847 -0.1271
  407MOL0     C56043   6.786  10.692   0.710  1.1602 -0.1634 -0.1415
  407MOL0     C56044   6.716  10.716   0.574  0.8940 -0.7173 -0.1680
  407MOL0     N56045   6.806  10.783   0.481 -0.5562 -0.5777  0.2150
  407MOL0     C56046   6.927  10.723   0.444  0.1303 -0.2576  0.1250
  407MOL0     C56047   6.987  10.827   0.378  0.0064 -0.1639 -0.4751
  407MOL0     C56048   7.128  10.813   0.318 -0.0187 -0.5019  0.4405
  407MOL0     C56049   7.216  10.920   0.394 -0.4248 -0.1172 -0.3756
  407MOL0     C56050   7.368  10.894   0.371  0.0250  1.2776  0.0073
  407MOL0     C56051   7.462  10.991   0.434  0.2768 -0.3239  0.2846
  407MOL0     O56052   7.591  10.947   0.403  1.1655  0.9274 -1.0052
  407MOL0     C56053   7.704  10.999   0.457 -0.4479 -0.7704  0.6334
  407MOL0     C56054   7.818  10.971   0.383 -0.4740  0.0969  0.6659
  407MOL0     C56055   7.944  11.020   0.422 -0.0657  0.1411  0.4948
  407MOL0     C56056   8.060  11.002   0.312  0.0072 -0.2256 -0.6046
  407MOL0     C56057   7.959  11.090   0.543  0.7209 -0.0000  0.0361
  407MOL0     C56058   8.082  11.161   0.585  0.1561 -0.2788  1.0947
  407MOL0     O56059   8.076  11.253   0.681 -0.5440  0.4405  0.6414
  407MOL0     C56060   8.186  11.323   0.719 -0.4053 -0.2529  0.3307
  407MOL0     C56061   8.157  11.457   0.743 -0.2653  0.0814 -0.3088
  407MOL0     C56062   8.261  11.543   0.774  0.4443 -0.4285  0.2568
  407MOL0     C56063   8.393  11.498   0.800  0.7510  1.0680 -0.1994
  407MOL0     O56064   8.492  11.565   0.857  0.4151  0.1178 -0.1193
  407MOL0     C56065   8.535  11.686   0.785 -0.4240 -0.0070 -0.4283
  407MOL0     C56066   8.638  11.769   0.867  0.0024  0.4597  0.8505
  407MOL0     C56067   8.573  11.805   0.997 -1.9798  0.4409 -0.1215
  407MOL0     C56068   8.436  11.882   0.974  0.2081 -0.2292 -0.5644
  407MOL0     C56069   8.371  11.943   1.099  0.2356 -0.8187 -0.3146
  407MOL0     C56070   8.242  12.021   1.073  0.0477 -0.3190  0.5499
  407MOL0     C56071   8.179  12.076   1.205  0.0782 -0.4292  0.2901
  407MOL0     C56072   8.235  12.218   1.238 -0.4865  0.1993 -0.3223
  407MOL0    Cl56073   8.211  12.322   1.098 -0.6292  0.1142  0.4512
  407MOL0     C56074   8.413  11.360   0.793  0.8660 -0.1243 -1.3869
  407MOL0     C56075   8.317  11.275   0.739 -0.5118  0.9302 -0.0030
  407MOL0     O56076   8.179  11.129   0.519  0.1824 -0.3715 -0.4179
  407MOL0     C56077   7.840  11.121   0.614 -0.4572 -0.0597  0.0863
  407MOL0     C56078   7.712  11.083   0.574 -0.2224  0.3703 -0.3595
  407MOL0     N56079   6.899  10.934   0.362 -0.0280  0.6783 -0.2086
  407MOL0     N56080   6.791  10.904   0.433 -0.1422  0.0034 -0.2431
  407MOL0     C56081   6.788   9.955   0.771  0.7494 -0.8041  0.0982
  407MOL0     C56082   6.874   9.933   0.669 -0.3030 -0.3096  0.4049
  407MOL0     C56083   7.164   9.915   0.334 -0.2018  0.0044 -0.0632
  407MOL0     C56084   7.295   9.867   0.349  0.3709 -0.2032  1.0508
  407MOL0     C56085   7.379   9.842   0.240 -0.0133 -0.4249 -0.5792
  407MOL0     C56086   7.328   9.846   0.116  0.0353  0.9065 -0.7995
  407MOL0     O56087   7.405   9.805   0.015 -0.0486 -0.2317  0.1106
  407MOL0     C56088   7.435   9.661   0.014  0.4560 -0.3755  0.0807
  407MOL0     C56089   7.584   9.646   0.028  0.6030 -0.0589 -1.1090
  407MOL0     C56090   7.659   9.679  -0.103 -0.7433 -0.2596 -0.9224
  407MOL0     C56091   7.755   9.570  -0.153  0.5196  0.8585 -0.4455
  407MOL0     C56092   7.688   9.485  -0.248 -0.0889 -0.2283 -1.5964
  407MOL0     C56093   7.630   9.418  -0.329 -0.6794  0.4584  1.2175
  407MOL0     C56094   7.199   9.879   0.089  0.3193  0.0465 -0.6154
  407MOL0     C56095   7.117   9.919   0.201 -0.3961 -0.7590 -0.6366
  407MOL0     C56096   6.990   9.991   0.160 -0.1543 -0.6802  0.4965
  407MOL0     H56097   6.786  10.185   0.460  2.6534  0.0761  0.1770
  407MOL0     H56098   6.656  10.244   0.675  0.9692  0.4440 -0.6809
  407MOL0     H56099   6.805  10.103   1.003  0.4709  0.9301  0.5894
  407MOL0     H56100   6.650  10.031   1.059 -2.1414  1.9113 -0.3543
  407MOL0     H56101   6.548  10.280   1.019 -0.5626  1.3977  0.0128
  407MOL0     H56102   6.620  10.236   1.170 -4.4556 -0.9807 -0.8760
  407MOL0     H56103   6.832  10.356   1.078  1.8595  0.2312 -3.0582
  407MOL0     H56104   6.781  10.343   0.913  3.0548  1.7095  0.7971
  407MOL0     H56105   6.582  10.494   0.974 -0.5532  0.7854 -0.3417
  407MOL0     H56106   6.672  10.529   1.123  0.1688  0.0450  0.1703
  407MOL0     H56107   6.865  10.546   0.908  1.1557  1.6410 -0.0103
  407MOL0     H56108   6.786  10.684   0.994 -0.9778 -0.9546  0.9226
  407MOL0     H56109   6.691  10.517   0.746  1.1116  0.3472  0.1663
  407MOL0     H56110   6.609  10.665   0.817  0.3557  0.4631 -0.8449
  407MOL0     H56111   6.885  10.650   0.689  1.4341  1.3983 -2.3644
  407MOL0     H56112   6.800  10.788   0.760 -1.4351  0.0595  0.2675
  407MOL0     H56113   6.695  10.622   0.522  2.1728 -1.9203  1.3931
  407MOL0     H56114   6.623  10.772   0.585 -0.4028 -2.2900 -2.4980
  407MOL0     H56115   6.954  10.618   0.453 -0.8262 -0.5595 -0.3169
  407MOL0     H56116   7.122  10.835   0.211 -1.3322 -1.3234  0.3122
  407MOL0     H56117   7.178  10.717   0.336  4.9757  1.4233 -1.5062
  407MOL0     H56118   7.197  11.020   0.354 -0.3191  0.2885  0.5640
  407MOL0     H56119   7.205  10.899   0.501  0.5290 -0.5410 -0.3522
  407MOL0     H56120   7.385  10.798   0.419 -3.3573  0.9656  0.8374
  407MOL0     H56121   7.380  10.899   0.262  0.5530 -0.4794 -0.0402
  407MOL0     H56122   7.449  11.095   0.405  2.8402 -0.3749 -1.3203
  407MOL0     H56123   7.439  10.977   0.541  0.4071 -0.5555  0.2835
  407MOL0     H56124   7.809  10.918   0.289 -0.3737  2.4026 -0.7477
  407MOL0     H56125   8.026  10.956   0.219  2.4146 -0.1345 -1.6184
  407MOL0     H56126   8.143  10.941   0.348 -2.5145 -3.5101  0.0937
  407MOL0     H56127   8.086  11.106   0.287 -2.0363 -0.0382 -2.2569
  407MOL0     H56128   8.058  11.500   0.733 -0.3861  0.0663  0.6853
  407MOL0     H56129   8.237  11.648   0.792  0.4311 -0.4397  0.3040
  407MOL0     H56130   8.592  11.657   0.696  0.9362  2.4049 -0.4201
  407MOL0     H56131   8.451  11.742   0.744  1.1802  1.2296 -2.2110
  407MOL0     H56132   8.731  11.721   0.898 -1.0009 -1.7870  0.5750
  407MOL0     H56133   8.658  11.862   0.813 -0.2777 -0.4812 -0.9294
  407MOL0     H56134   8.633  11.880   1.049 -1.5767  0.0825 -0.0681
  407MOL0     H56135   8.565  11.712   1.053 -1.2885 -0.1170 -0.9252
  407MOL0     H56136   8.358  11.819   0.931 -1.8028 -0.7519  3.4153
  407MOL0     H56137   8.456  11.970   0.911  2.6503  0.5341  1.1353
  407MOL0     H56138   8.335  11.864   1.166 -0.1036 -0.8884 -0.5764
  407MOL0     H56139   8.436  12.004   1.163 -1.5221 -1.3365  2.1317
  407MOL0     H56140   8.169  11.953   1.028  0.4798  0.4969 -1.4722
  407MOL0     H56141   8.271  12.099   1.002  0.5813 -2.6236 -1.9071
  407MOL0     H56142   8.205  12.005   1.284  1.8895  0.4840  0.5496
  407MOL0     H56143   8.071  12.085   1.187  0.0963 -1.4518 -0.4545
  407MOL0     H56144   8.338  12.223   1.273 -0.9981  2.2193  1.0244
  407MOL0     H56145   8.187  12.280   1.313 -0.2888  1.6072 -1.3171
  407MOL0     H56146   8.510  11.316   0.819  1.2077  0.9918 -0.7311
  407MOL0     H56147   8.343  11.170   0.736  1.6539  1.4515 -2.0375
  407MOL0     H56148   7.857  11.185   0.700 -1.2722  0.1346  0.1110
  407MOL0     H56149   7.627  11.117   0.633 -1.2653 -0.2923 -1.4366
  407MOL0     H56150   6.783   9.892   0.859  0.8437 -1.6843 -0.5174
  407MOL0     H56151   6.930   9.840   0.674  2.1718  0.9396 -1.5310
  407MOL0     H56152   7.333   9.859   0.450  0.4390 -1.1212  0.9622
  407MOL0     H56153   7.485   9.825   0.254  0.7231  4.4903  1.8832
  407MOL0     H56154   7.397   9.614   0.106  0.8636  1.2320  1.1094
  407MOL0     H56155   7.400   9.614  -0.078  1.1104  1.4427 -1.1510
  407MOL0     H56156   7.605   9.540   0.045  1.1108  0.3696  1.1477
  407MOL0     H56157   7.622   9.699   0.115  0.4246 -1.1394 -0.3625
  407MOL0     H56158   7.578   9.706  -0.171 -1.8108 -1.4872 -0.1929
  407MOL0     H56159   7.720   9.767  -0.079  0.9315 -2.0809  2.3109
  407MOL0     H56160   7.800   9.509  -0.074  0.7919 -0.7014 -1.7494
  407MOL0     H56161   7.835   9.610  -0.215  1.8806 -1.4382 -0.2793
  407MOL0     H56162   7.584   9.356  -0.404  0.1541  1.1488  0.1105
  407MOL0     H56163   7.166   9.881  -0.014  4.1596  0.3778 -2.0031
  407MOL0     H56164   6.980   9.985   0.052  0.6908  0.2983  0.3511
  407MOL0     H56165   6.894   9.970   0.208 -1.4137  2.0098 -0.6660
  407MOL0     H56166   7.011  10.097   0.171  0.2391 -0.5741 -1.1196
  408MOL0     O56167   8.966  11.332   2.720 -0.3322  0.6291  0.7268
  408MOL0     C56168   8.906  11.309   2.817  0.5628 -0.9003  0.5105
  408MOL0     O56169   8.965  11.284   2.935  0.2046  0.1993 -0.4073
  408MOL0     C56170   9.084  11.228   2.952 -1.3548  0.6401 -0.3635
  408MOL0     C56171   9.103  11.179   3.081 -0.2958 -0.0852 -0.0918
  408MOL0     C56172   9.220  11.109   3.117 -0.5893  0.1337  0.6670
  408MOL0     C56173   9.311  11.071   3.013  0.1878  0.8771  0.1758
  408MOL0     O56174   9.428  10.999   3.023 -0.6243  0.1106  0.1237
  408MOL0     C56175   9.436  10.890   3.119  1.0011 -0.1579  0.9491
  408MOL0     C56176   9.339  10.776   3.086 -0.5138  0.6839  0.0558
  408MOL0     C56177   9.359  10.646   3.171 -0.2245 -0.4515 -0.0810
  408MOL0     C56178   9.289  10.531   3.109  0.5278 -0.0054  0.6903
  408MOL0     C56179   9.334  10.395   3.175  0.9236 -0.0300 -0.1790
  408MOL0     C56180   9.449  10.327   3.110 -0.8268 -0.2328  0.0717
  408MOL0     C56181   9.497  10.206   3.193  0.6780 -0.3643 -0.4760
  408MOL0     C56182   9.650  10.187   3.194 -0.5693 -0.2698 -1.0372
  408MOL0     N56183   9.681  10.049   3.228  0.2577 -0.6675  0.2410
  408MOL0     C56184   9.675   9.996   3.357 -0.1429 -1.0355  0.5864
  408MOL0     C56185   9.725   9.874   3.336  0.8466  0.8486 -0.3664
  408MOL0     C56186   9.725   9.755   3.430  0.0790  0.6127 -0.2266
  408MOL0     C56187   9.604   9.769   3.540  0.7067  0.1387 -0.1221
  408MOL0     C56188   9.577   9.642   3.616  0.2769  0.2168 -0.6892
  408MOL0     C56189   9.529   9.516   3.533  0.2961  1.2697 -0.5608
  408MOL0     O56190   9.515   9.400   3.616 -0.2331 -0.4209 -0.5351
  408MOL0     C56191   9.400   9.400   3.687  0.3056 -0.4719  0.6752
  408MOL0     C56192   9.305   9.504   3.701 -0.2531  0.3439  0.0584
  408MOL0     C56193   9.181   9.500   3.771  0.2775  0.5891 -0.7658
  408MOL0     C56194   9.094   9.620   3.773  0.0533  0.4959 -0.5981
  408MOL0     C56195   9.152   9.375   3.840  0.0395  0.2104  0.5402
  408MOL0     C56196   9.036   9.349   3.927  0.2651 -0.1212  1.2339
  408MOL0     O56197   9.014   9.215   3.959 -0.2995  0.4238  0.0514
  408MOL0     C56198   8.913   9.189   4.048 -0.0807  0.1361 -0.7088
  408MOL0     C56199   8.919   9.063   4.127  0.4627  0.6301 -0.1961
  408MOL0     C56200   8.808   9.008   4.186  0.2888 -0.2468 -0.6211
  408MOL0     C56201   8.689   9.086   4.195  0.1474  1.7894  1.1615
  408MOL0     O56202   8.580   9.034   4.268 -0.0480  0.5396 -0.3565
  408MOL0     C56203   8.454   9.086   4.222 -0.0830 -0.4258  0.7034
  408MOL0     C56204   8.339   9.006   4.288  0.4565  0.5115 -0.6662
  408MOL0     C56205   8.202   9.070   4.248 -0.1837 -0.4677  0.5679
  408MOL0     C56206   8.091   8.986   4.294  1.0720  0.6309 -0.0963
  408MOL0     C56207   7.957   9.050   4.279  0.4903 -0.8879 -0.6762
  408MOL0     C56208   7.908   9.065   4.136  1.2996  0.2297 -0.6823
  408MOL0     C56209   7.887   8.927   4.069 -0.2616  0.5613 -0.1519
  408MOL0     C56210   7.970   8.919   3.942 -0.0137 -0.8386 -0.5352
  408MOL0    Cl56211   7.894   8.798   3.830 -0.1750 -0.4314  0.3765
  408MOL0     C56212   8.684   9.206   4.126 -0.0422 -0.5897  0.3361
  408MOL0     C56213   8.788   9.258   4.054 -0.3941  0.3596  0.5202
  408MOL0     O56214   8.991   9.443   3.984 -0.2373 -0.4615  0.6209
  408MOL0     C56215   9.249   9.275   3.826  0.5489  0.1468 -0.1894
  408MOL0     C56216   9.367   9.283   3.750 -0.0217 -0.1820  0.1722
  408MOL0     N56217   9.773   9.866   3.207  0.2193  0.2921  0.1167
  408MOL0     N56218   9.757   9.979   3.142 -0.9858  0.1882 -0.2578
  408MOL0     C56219   9.293  11.113   2.886 -0.2431 -0.5335 -0.8740
  408MOL0     C56220   9.175  11.185   2.850 -1.0889  0.5884 -0.6226
  408MOL0     C56221   8.757  11.344   2.820 -0.2343  0.8940 -0.4268
  408MOL0     C56222   8.686  11.319   2.940  0.5870  0.2579  0.2680
  408MOL0     C56223   8.542  11.347   2.950 -0.3394 -0.4282  0.9320
  408MOL0     C56224   8.480  11.402   2.841  0.7055  0.0446 -0.4385
  408MOL0     O56225   8.348  11.447   2.832 -0.3679  0.0718 -0.0187
  408MOL0     C56226   8.239  11.386   2.904 -0.3426 -0.2939  0.3412
  408MOL0     C56227   8.094  11.407   2.852  0.2699 -0.2412  0.0107
  408MOL0     C56228   8.069  11.559   2.846 -0.4447 -0.1103  0.3872
  408MOL0     C56229   7.922  11.601   2.884 -0.0339  0.7841  0.5144
  408MOL0     C56230   7.827  11.560   2.785 -0.2346 -0.1761  0.9013
  408MOL0     C56231   7.753  11.498   2.705 -0.4451  0.1535  0.9702
  408MOL0     C56232   8.553  11.422   2.732  0.1964  0.0135  0.3216
  408MOL0     C56233   8.691  11.392   2.713 -0.4317 -0.6326 -0.6490
  408MOL0     C56234   8.745  11.428   2.575  0.9419  1.2229 -0.1895
  408MOL0     H56235   9.029  11.191   3.160  0.5256 -0.3245  0.7321
  408MOL0     H56236   9.242  11.064   3.213  0.0470  0.3122  0.6108
  408MOL0     H56237   9.411  10.932   3.217 -0.8645  1.7080 -0.2405
  408MOL0     H56238   9.536  10.844   3.116 -0.3164 -3.2128 -2.1912
  408MOL0     H56239   9.238  10.815   3.100 -1.5502 -1.6424 -0.5571
  408MOL0     H56240   9.363  10.754   2.981  1.6909 -1.4796  0.9204
  408MOL0     H56241   9.466  10.625   3.173  0.4753  2.5161 -0.8823
  408MOL0     H56242   9.305  10.658   3.266  0.1884  4.2445 -0.1851
  408MOL0     H56243   9.181  10.543   3.122  0.3704  2.9901 -2.0904
  408MOL0     H56244   9.308  10.530   3.001  1.3551 -1.6381  0.8225
  408MOL0     H56245   9.247  10.328   3.180  1.9275 -1.3339  0.2805
  408MOL0     H56246   9.359  10.420   3.278 -2.2149  0.4600  0.5702
  408MOL0     H56247   9.404  10.284   3.021 -1.5917 -1.5903  1.0831
  408MOL0     H56248   9.526  10.403   3.090  1.6047 -2.1525  1.4432
  408MOL0     H56249   9.431  10.123   3.167 -2.4542  0.8336  2.7766
  408MOL0     H56250   9.477  10.225   3.299  2.1533 -1.3165 -0.0143
  408MOL0     H56251   9.707  10.220   3.106  0.1124  0.6184 -0.2803
  408MOL0     H56252   9.686  10.247   3.278  0.6835 -2.9558  0.4585
  408MOL0     H56253   9.636  10.050   3.442  3.1419 -0.0946  1.6281
  408MOL0     H56254   9.823   9.734   3.476 -0.3659  3.1338  2.1726
  408MOL0     H56255   9.712   9.661   3.376  3.8716  0.1702 -0.6578
  408MOL0     H56256   9.618   9.842   3.620 -0.3840  0.0577  0.1550
  408MOL0     H56257   9.503   9.786   3.503 -1.3648 -1.5489  4.0962
  408MOL0     H56258   9.679   9.625   3.654 -0.9369 -2.4029  1.8224
  408MOL0     H56259   9.515   9.666   3.703  3.5834 -3.4367  3.2178
  408MOL0     H56260   9.435   9.526   3.478 -0.5502 -2.3304 -0.0287
  408MOL0     H56261   9.602   9.488   3.456  2.1507  0.8549  1.2479
  408MOL0     H56262   9.327   9.599   3.654 -2.3838  1.6320  1.4473
  408MOL0     H56263   8.988   9.597   3.786  0.1092 -2.0666 -3.4878
  408MOL0     H56264   9.105   9.680   3.683 -1.3707 -0.4239 -1.4250
  408MOL0     H56265   9.136   9.669   3.861 -0.8786  1.9785 -0.9556
  408MOL0     H56266   8.999   8.990   4.118 -1.3746 -1.3635 -1.2191
  408MOL0     H56267   8.795   8.905   4.215 -2.0709  0.0362 -0.4566
  408MOL0     H56268   8.456   9.194   4.240  1.2845 -0.1378 -0.9103
  408MOL0     H56269   8.432   9.065   4.117  0.4925  0.0688  0.4824
  408MOL0     H56270   8.350   8.900   4.262  1.3152 -0.5518  3.3113
  408MOL0     H56271   8.352   9.023   4.395  2.3080  0.5587 -0.8576
  408MOL0     H56272   8.195   9.091   4.141  3.5533 -3.3943 -0.5127
  408MOL0     H56273   8.196   9.164   4.304  1.2480 -0.2593  0.4133
  408MOL0     H56274   8.091   8.978   4.403  0.8402 -0.3697 -0.1616
  408MOL0     H56275   8.101   8.885   4.252  3.2308  1.9762 -3.3120
  408MOL0     H56276   7.888   8.982   4.330 -3.4177 -0.4386 -4.7336
  408MOL0     H56277   7.958   9.149   4.323 -0.5760 -1.4552  0.6970
  408MOL0     H56278   7.975   9.125   4.074  1.3754 -2.2876 -3.2638
  408MOL0     H56279   7.812   9.116   4.132  1.0351 -0.3145 -1.6367
  408MOL0     H56280   7.781   8.908   4.056 -0.7526  3.0490 -0.3656
  408MOL0     H56281   7.934   8.844   4.122  3.9944  0.7368 -3.1346
  408MOL0     H56282   8.069   8.886   3.973  0.2049  0.8903  0.7295
  408MOL0     H56283   7.985   9.017   3.896  0.8002 -1.0889 -0.8172
  408MOL0     H56284   8.595   9.265   4.109  0.6951  2.1979  4.5520
  408MOL0     H56285   8.780   9.334   3.977 -1.0455 -1.4538 -1.3016
  408MOL0     H56286   9.229   9.179   3.871 -1.1960 -0.5208 -2.2035
  408MOL0     H56287   9.434   9.198   3.738  0.1085 -0.6578  3.3793
  408MOL0     H56288   9.365  11.092   2.808 -0.7087 -0.2937 -1.3758
  408MOL0     H56289   9.158  11.204   2.744 -0.7961 -3.9316 -1.6627
  408MOL0     H56290   8.733  11.268   3.024  1.9543  2.0722  0.6608
  408MOL0     H56291   8.493  11.321   3.043  0.0387  2.4610  2.0499
  408MOL0     H56292   8.252  11.278   2.898 -0.5272 -0.2941 -0.0950
  408MOL0     H56293   8.249  11.414   3.009  2.2147 -0.7056  0.2783
  408MOL0     H56294   8.022  11.350   2.912  0.8149  1.0599  2.0169
  408MOL0     H56295   8.087  11.376   2.748 -0.2054 -0.9509  0.2437
  408MOL0     H56296   8.140  11.612   2.911 -0.6824  1.0756 -0.2882
  408MOL0     H56297   8.082  11.590   2.742  1.1570 -0.3282  0.4952
  408MOL0     H56298   7.911  11.710   2.892  3.2007  1.1385  2.2084
  408MOL0     H56299   7.901  11.546   2.977  0.4459 -3.2343 -1.5398
  408MOL0     H56300   7.691  11.448   2.634  1.6755 -1.4309  0.1346
  408MOL0     H56301   8.506  11.460   2.643  1.9023 -0.1851 -0.7006
  408MOL0     H56302   8.676  11.497   2.526 -1.3450 -0.3812  0.6313
  408MOL0     H56303   8.844  11.475   2.578  0.9862  1.1980 -1.1203
  408MOL0     H56304   8.742  11.330   2.528 -1.8970 -0.0965  2.3889
  409MOL0     O56305   1.967   3.619   1.268  0.2288 -0.5416 -0.4499
  409MOL0     C56306   1.895   3.516   1.269 -0.1053 -0.7769  0.0262
  409MOL0     O56307   1.948   3.392   1.261  0.1801  0.1723 -0.7457
  409MOL0     C56308   2.052   3.389   1.177  0.1067 -0.5403 -0.0325
  409MOL0     C56309   2.040   3.394   1.035 -0.0375 -0.7508  0.3750
  409MOL0     C56310   2.161   3.411   0.950 -0.2062  0.3959 -0.8541
  409MOL0     C56311   2.280   3.429   1.017 -0.2958  0.7273 -0.4557
  409MOL0     O56312   2.397   3.461   0.951  0.0165 -0.0689 -0.3569
  409MOL0     C56313   2.388   3.487   0.811  0.4165 -0.5366  0.7546
  409MOL0     C56314   2.533   3.525   0.777 -0.7904  0.0433 -0.3691
  409MOL0     C56315   2.560   3.542   0.628 -0.1485  0.5356  0.0367
  409MOL0     C56316   2.704   3.511   0.594 -0.0544  0.3854  0.3486
  409MOL0     C56317   2.746   3.582   0.467  0.2609  0.0540  0.7654
  409MOL0     C56318   2.887   3.555   0.424 -0.2243 -0.5014  0.5860
  409MOL0     C56319   2.913   3.615   0.283  0.1902 -0.6859 -0.7109
  409MOL0     C56320   2.875   3.761   0.270 -0.6158  0.0154 -0.3073
  409MOL0     N56321   2.955   3.858   0.345  0.0845 -0.5355  0.6649
  409MOL0     C56322   3.062   3.932   0.295 -0.3870 -0.1252 -0.0978
  409MOL0     C56323   3.100   3.998   0.404 -1.0485  0.2309  0.0349
  409MOL0     C56324   3.221   4.083   0.421 -0.1426  0.7483  0.3523
  409MOL0     C56325   3.352   4.016   0.372  0.2074  0.3836 -0.2368
  409MOL0     C56326   3.388   3.884   0.443  0.5101 -0.1702 -0.7077
  409MOL0     C56327   3.519   3.832   0.395 -0.7206 -0.3304  0.7662
  409MOL0     O56328   3.495   3.771   0.267  0.2072  0.2984 -0.7195
  409MOL0     C56329   3.609   3.723   0.204  0.0054 -1.0282 -0.1911
  409MOL0     C56330   3.745   3.768   0.216 -0.0897 -0.4095 -0.0330
  409MOL0     C56331   3.841   3.722   0.118 -0.5037  0.2484 -0.0767
  409MOL0     C56332   3.987   3.758   0.149  0.1654 -0.5347  0.4771
  409MOL0     C56333   3.798   3.644   0.007 -0.2570  0.5004 -1.1055
  409MOL0     C56334   3.892   3.613  -0.105  0.8389  0.4863  1.6157
  409MOL0     O56335   3.858   3.671  -0.228 -0.0220 -0.2641 -0.1499
  409MOL0     C56336   3.961   3.706  -0.306  0.5680 -0.6043  0.4692
  409MOL0     C56337   3.995   3.843  -0.304  0.8005 -0.3287  0.0453
  409MOL0     C56338   4.089   3.891  -0.388  0.0983 -0.7563 -0.1541
  409MOL0     C56339   4.165   3.798  -0.467  0.0195  0.1423  0.3396
  409MOL0     O56340   4.262   3.828  -0.554  0.0896  0.2582 -0.9029
  409MOL0     C56341   4.350   3.939  -0.515  1.1995  0.4052 -0.3381
  409MOL0     C56342   4.324   4.079  -0.561  0.3774  0.0136  0.1286
  409MOL0     C56343   4.335   4.085  -0.712 -0.3143 -0.8337 -0.6599
  409MOL0     C56344   4.237   4.188  -0.777  0.4121 -0.7530  0.1147
  409MOL0     C56345   4.316   4.313  -0.815 -0.0696  0.5462 -0.0539
  409MOL0     C56346   4.211   4.421  -0.854 -0.2294  0.2237  0.6419
  409MOL0     C56347   4.179   4.498  -0.725  0.6430 -0.0827 -0.2544
  409MOL0     C56348   4.044   4.573  -0.748 -0.6273 -0.1713  0.0482
  409MOL0    Cl56349   4.085   4.709  -0.852 -0.0637  0.1512 -0.0318
  409MOL0     C56350   4.114   3.661  -0.479 -0.0214 -0.9936  0.0716
  409MOL0     C56351   4.015   3.621  -0.388 -0.2344 -0.3141  0.7572
  409MOL0     O56352   3.988   3.543  -0.088 -0.1078  0.0591  0.6147
  409MOL0     C56353   3.665   3.594   0.005 -1.1705  0.4092  0.1161
  409MOL0     C56354   3.580   3.637   0.108  0.4613 -0.2456  0.1494
  409MOL0     N56355   3.035   3.963   0.522 -0.9918  0.4005  0.3884
  409MOL0     N56356   2.942   3.883   0.481 -0.7310  0.3265  0.2036
  409MOL0     C56357   2.287   3.414   1.162  0.1620 -0.6625 -0.0130
  409MOL0     C56358   2.176   3.392   1.238 -1.3341 -0.1200 -0.7132
  409MOL0     C56359   1.748   3.529   1.291  0.2004 -0.2754  0.1755
  409MOL0     C56360   1.685   3.652   1.249 -0.4890 -0.0057 -0.0254
  409MOL0     C56361   1.550   3.662   1.264  0.1618  0.4605 -1.1314
  409MOL0     C56362   1.474   3.561   1.323 -0.2881  0.5356  0.4487
  409MOL0     O56363   1.348   3.583   1.371 -0.3958 -0.9664 -0.4995
  409MOL0     C56364   1.244   3.628   1.279 -0.6055  0.7070  0.3467
  409MOL0     C56365   1.112   3.590   1.344 -0.1612 -0.3187 -0.3212
  409MOL0     C56366   0.994   3.657   1.272  0.4981  0.8006  0.2522
  409MOL0     C56367   0.938   3.549   1.178 -0.1379 -0.3524 -0.0403
  409MOL0     C56368   0.809   3.611   1.125 -0.8560 -0.1815 -0.0559
  409MOL0     C56369   0.713   3.674   1.092 -0.7783 -0.5941  0.6092
  409MOL0     C56370   1.537   3.440   1.363 -1.4410  0.4589  0.1025
  409MOL0     C56371   1.671   3.418   1.341 -0.1842  0.1464  0.0654
  409MOL0     C56372   1.732   3.292   1.413  0.1845 -1.0735 -0.0755
  409MOL0     H56373   1.947   3.394   0.978  1.0169  0.2728 -1.4220
  409MOL0     H56374   2.146   3.410   0.842 -0.9021  2.0908 -0.7920
  409MOL0     H56375   2.325   3.575   0.795  3.0497  1.4610  0.7033
  409MOL0     H56376   2.354   3.401   0.753  0.6910 -0.4944  0.5306
  409MOL0     H56377   2.556   3.614   0.836 -0.5513 -1.1271  1.4007
  409MOL0     H56378   2.586   3.440   0.822 -1.7576 -0.7248 -0.6328
  409MOL0     H56379   2.502   3.471   0.568  1.6050 -0.1380 -0.9388
  409MOL0     H56380   2.561   3.644   0.590  1.5000 -0.2935 -2.3766
  409MOL0     H56381   2.764   3.534   0.683  1.6596 -1.6768 -0.1905
  409MOL0     H56382   2.718   3.402   0.591 -0.9276  0.2481  0.9113
  409MOL0     H56383   2.716   3.687   0.467  2.4548  0.8293 -2.7755
  409MOL0     H56384   2.690   3.540   0.383  1.0620  1.4378 -0.5081
  409MOL0     H56385   2.953   3.605   0.495  2.0949  0.2800 -1.9392
  409MOL0     H56386   2.904   3.447   0.419 -1.3580 -1.0335  4.5904
  409MOL0     H56387   2.865   3.547   0.212 -0.6015 -0.4048 -0.4528
  409MOL0     H56388   3.021   3.618   0.264  0.7102  2.3191  1.9659
  409MOL0     H56389   2.891   3.794   0.167  1.1459  0.6915  0.1543
  409MOL0     H56390   2.768   3.772   0.291 -0.8335 -0.2953 -1.2155
  409MOL0     H56391   3.109   3.924   0.198 -2.4824 -2.0935 -1.0504
  409MOL0     H56392   3.235   4.106   0.527 -1.7334  1.9764  0.3387
  409MOL0     H56393   3.201   4.171   0.359 -0.1929 -0.9978 -2.2740
  409MOL0     H56394   3.343   3.996   0.265  1.8163 -0.9376 -0.1716
  409MOL0     H56395   3.434   4.086   0.393  1.4403 -1.1612  0.3200
  409MOL0     H56396   3.390   3.902   0.551 -1.6665  0.6526 -0.7402
  409MOL0     H56397   3.308   3.810   0.428  1.7100 -1.5180 -0.6385
  409MOL0     H56398   3.596   3.910   0.393  2.6712 -3.4586  0.7637
  409MOL0     H56399   3.552   3.749   0.458 -0.9130 -0.6235  0.4847
  409MOL0     H56400   3.763   3.847   0.289  2.7717 -0.0203 -1.0457
  409MOL0     H56401   4.011   3.844   0.211  2.0691 -0.3355 -0.4556
  409MOL0     H56402   4.035   3.766   0.051 -4.9053 -0.8682 -2.4230
  409MOL0     H56403   4.020   3.664   0.194 -1.0948 -0.4486  1.6421
  409MOL0     H56404   3.943   3.906  -0.232  2.6951 -1.2433  2.3253
  409MOL0     H56405   4.107   3.997  -0.376 -1.7495 -0.6689  3.0384
  409MOL0     H56406   4.346   3.942  -0.406  0.3429 -2.5232 -0.2309
  409MOL0     H56407   4.451   3.912  -0.546  0.4796 -0.8509 -1.7020
  409MOL0     H56408   4.225   4.103  -0.521  0.2017 -0.5519  0.0321
  409MOL0     H56409   4.406   4.146  -0.530  2.8305 -1.4153 -2.7196
  409MOL0     H56410   4.312   3.984  -0.750 -4.3005  0.5153 -2.3769
  409MOL0     H56411   4.437   4.109  -0.743  0.0971  2.6777  2.7034
  409MOL0     H56412   4.157   4.209  -0.705  1.2296 -1.4070  1.2582
  409MOL0     H56413   4.204   4.135  -0.866 -3.1423 -0.7049  1.2623
  409MOL0     H56414   4.379   4.347  -0.733  1.4801  2.9239 -2.1021
  409MOL0     H56415   4.382   4.298  -0.900 -0.7649 -2.5022 -0.1854
  409MOL0     H56416   4.121   4.370  -0.887 -2.0435  2.0971  2.3960
  409MOL0     H56417   4.238   4.481  -0.942 -1.0779 -0.3591 -0.0354
  409MOL0     H56418   4.265   4.563  -0.704 -0.6647  1.9760 -0.9676
  409MOL0     H56419   4.162   4.435  -0.637  0.8290  3.6569  2.6977
  409MOL0     H56420   4.012   4.618  -0.653  3.1270 -0.1518  1.4955
  409MOL0     H56421   3.979   4.495  -0.787 -0.8739 -1.1661  2.2880
  409MOL0     H56422   4.172   3.584  -0.530  2.4239 -0.4334  1.7873
  409MOL0     H56423   3.985   3.517  -0.395 -0.0600 -0.2578 -1.4180
  409MOL0     H56424   3.653   3.522  -0.075  2.1067 -1.0953  0.7998
  409MOL0     H56425   3.474   3.616   0.099 -0.5430  3.6189  1.0897
  409MOL0     H56426   2.390   3.423   1.195  1.0080  0.3049 -2.6268
  409MOL0     H56427   2.187   3.379   1.345  1.8007  0.9870 -0.7940
  409MOL0     H56428   1.739   3.731   1.196 -0.1438  0.4130  0.9348
  409MOL0     H56429   1.492   3.743   1.220  0.3653  0.6706 -1.0118
  409MOL0     H56430   1.253   3.734   1.254  2.4620  0.1461 -1.4758
  409MOL0     H56431   1.251   3.574   1.184  0.0935  0.9734  0.2461
  409MOL0     H56432   1.115   3.626   1.447 -1.0487  1.2121 -0.8012
  409MOL0     H56433   1.104   3.481   1.344  1.3201 -0.4516  0.2218
  409MOL0     H56434   0.920   3.686   1.347  0.1071  1.0964 -0.2344
  409MOL0     H56435   1.029   3.750   1.225 -0.8050  0.1765 -2.1513
  409MOL0     H56436   0.904   3.458   1.229 -3.4131  0.5150 -0.4741
  409MOL0     H56437   1.011   3.501   1.112  0.5570  1.2453 -0.4712
  409MOL0     H56438   0.632   3.741   1.070 -1.1315 -0.3460  2.4964
  409MOL0     H56439   1.483   3.363   1.415 -1.8287 -0.2853 -1.3615
  409MOL0     H56440   1.668   3.203   1.402 -1.1883 -0.0865 -0.4180
  409MOL0     H56441   1.835   3.271   1.384 -0.0285  2.1044 -4.1403
  409MOL0     H56442   1.725   3.308   1.521 -0.3514 -3.4267  0.2923
  410MOL0     O56443   4.137   3.218   7.909 -0.1902  0.4481 -0.2937
  410MOL0     C56444   4.101   3.281   7.810 -0.2965  1.5336  0.3628
  410MOL0     O56445   3.970   3.280   7.755  0.0548  0.7890  0.4103
  410MOL0     C56446   3.883   3.195   7.810  0.2747 -0.1403  0.4888
  410MOL0     C56447   3.895   3.060   7.795  0.1045 -0.4536 -0.5714
  410MOL0     C56448   3.789   2.976   7.836 -0.1624  0.3486 -0.6754
  410MOL0     C56449   3.674   3.030   7.905  0.1933 -0.0676 -0.2284
  410MOL0     O56450   3.576   2.952   7.960  0.4258 -0.2784  0.1728
  410MOL0     C56451   3.586   2.812   7.956  0.7365 -0.3798 -0.1293
  410MOL0     C56452   3.471   2.771   8.044  0.1267 -0.1052 -0.2953
  410MOL0     C56453   3.498   2.797   8.205  0.2363  0.0277  0.4357
  410MOL0     C56454   3.560   2.676   8.274  0.2468  0.5293 -0.2253
  410MOL0     C56455   3.542   2.680   8.430 -0.4185 -0.2126 -0.8265
  410MOL0     C56456   3.622   2.556   8.476  0.1722 -0.8461  0.0918
  410MOL0     C56457   3.772   2.579   8.508 -0.9303 -0.2922  0.4392
  410MOL0     C56458   3.846   2.447   8.527  0.0725  0.1556 -0.7705
  410MOL0     N56459   3.990   2.458   8.500  0.2221 -0.2138 -0.5452
  410MOL0     C56460   4.055   2.555   8.420  0.9618  1.0249 -0.5664
  410MOL0     C56461   4.187   2.550   8.461 -0.2060  0.6547 -1.0606
  410MOL0     C56462   4.307   2.615   8.405  0.3323  0.3459 -0.1584
  410MOL0     C56463   4.357   2.528   8.288 -0.3250  0.2381 -0.5267
  410MOL0     C56464   4.419   2.626   8.191  0.6355 -1.6686 -0.4186
  410MOL0     C56465   4.508   2.540   8.086  0.5923  0.1852 -0.3289
  410MOL0     O56466   4.455   2.536   7.954  0.4573  0.4727 -0.2786
  410MOL0     C56467   4.333   2.495   7.938  0.1973 -0.1491 -0.7441
  410MOL0     C56468   4.233   2.589   7.930 -0.6235  0.4462  0.0053
  410MOL0     C56469   4.097   2.547   7.920  0.7584 -0.0045 -0.1788
  410MOL0     C56470   3.985   2.651   7.916 -0.3854  0.2740  0.1044
  410MOL0     C56471   4.064   2.411   7.927  0.3951  0.2528 -0.0218
  410MOL0     C56472   3.920   2.355   7.924 -0.6440  1.0322 -0.0033
  410MOL0     O56473   3.844   2.413   7.836 -0.2723  0.7031 -0.3033
  410MOL0     C56474   3.709   2.411   7.860  1.5833 -0.9279  1.2006
  410MOL0     C56475   3.636   2.425   7.733 -0.6922 -0.0585 -0.6563
  410MOL0     C56476   3.494   2.415   7.732 -1.4040  0.1294  1.0429
  410MOL0     C56477   3.435   2.436   7.854 -0.4570 -0.0414 -0.1414
  410MOL0     O56478   3.302   2.452   7.841  0.1795 -0.6637 -0.1957
  410MOL0     C56479   3.207   2.485   7.947  0.0057  0.4886 -0.1671
  410MOL0     C56480   3.071   2.507   7.874  0.3723 -0.4567  0.7435
  410MOL0     C56481   2.997   2.379   7.815 -0.7745  0.4503  0.0210
  410MOL0     C56482   3.061   2.335   7.682 -0.2844 -0.0836 -0.7960
  410MOL0     C56483   2.964   2.281   7.577  0.5242  0.4495 -0.1641
  410MOL0     C56484   3.017   2.254   7.443 -0.1487  0.3528  0.1217
  410MOL0     C56485   3.062   2.383   7.363 -1.3327  0.1924 -0.2543
  410MOL0     C56486   3.101   2.340   7.227  0.8022 -0.2440  0.3038
  410MOL0    Cl56487   3.236   2.237   7.215 -0.3802 -0.0807 -0.3617
  410MOL0     C56488   3.504   2.428   7.973  0.3199 -0.2923 -0.2083
  410MOL0     C56489   3.646   2.406   7.982 -0.2138 -0.8376 -0.3417
  410MOL0     O56490   3.892   2.254   7.992 -0.9413 -0.1383  0.7298
  410MOL0     C56491   4.175   2.319   7.937 -0.9754  0.1323  0.3110
  410MOL0     C56492   4.311   2.361   7.944 -0.2739  0.7798 -0.3267
  410MOL0     N56493   4.204   2.451   8.553 -0.2501 -0.0059  0.4812
  410MOL0     N56494   4.085   2.388   8.568  0.2029  0.0569 -0.6350
  410MOL0     C56495   3.669   3.171   7.933 -0.2589  0.1854  0.6480
  410MOL0     C56496   3.769   3.249   7.880  0.2553  0.1075 -0.2238
  410MOL0     C56497   4.198   3.360   7.731  0.1259  0.1870  0.7749
  410MOL0     C56498   4.172   3.395   7.594  0.4253  0.7634  0.3057
  410MOL0     C56499   4.269   3.460   7.518 -0.5249 -0.7188 -0.2246
  410MOL0     C56500   4.397   3.484   7.568 -0.4248 -0.3400 -0.4984
  410MOL0     O56501   4.497   3.548   7.499 -0.1153 -0.1380  0.3709
  410MOL0     C56502   4.461   3.655   7.405  0.6580  0.6848 -0.4740
  410MOL0     C56503   4.534   3.781   7.436 -0.5357  0.9869  0.0036
  410MOL0     C56504   4.564   3.858   7.312 -0.0312  0.0148 -0.0440
  410MOL0     C56505   4.654   3.980   7.338 -1.3136 -0.2514  0.2050
  410MOL0     C56506   4.581   4.097   7.377  0.6296 -0.0330 -0.4066
  410MOL0     C56507   4.509   4.186   7.413  0.3943 -0.2157  0.0137
  410MOL0     C56508   4.429   3.446   7.694 -0.0657 -0.1641  0.5699
  410MOL0     C56509   4.334   3.388   7.780 -0.5885  0.2184 -0.7807
  410MOL0     C56510   4.373   3.368   7.919 -1.1059 -0.6005 -0.2782
  410MOL0     H56511   3.981   3.031   7.736 -0.7352 -0.1578 -1.9909
  410MOL0     H56512   3.793   2.873   7.799  0.6075  0.1920 -0.1895
  410MOL0     H56513   3.680   2.772   7.993  0.6147  0.9635  1.7666
  410MOL0     H56514   3.578   2.776   7.853  1.4451 -0.5195 -0.1398
  410MOL0     H56515   3.383   2.831   8.019  0.1160 -0.4660 -1.1675
  410MOL0     H56516   3.443   2.669   8.018 -0.4831  0.1015 -0.4693
  410MOL0     H56517   3.557   2.890   8.202 -2.1789  1.6595 -3.2930
  410MOL0     H56518   3.408   2.816   8.264 -0.3034 -0.9976 -0.0398
  410MOL0     H56519   3.502   2.590   8.238  0.8236 -0.9079  2.0649
  410MOL0     H56520   3.663   2.657   8.244 -0.0201 -2.5709  0.4432
  410MOL0     H56521   3.436   2.675   8.454 -1.0091  2.9817 -2.2962
  410MOL0     H56522   3.596   2.766   8.472  1.8988 -1.4782 -1.0140
  410MOL0     H56523   3.593   2.525   8.577  1.4726 -2.2669  0.0730
  410MOL0     H56524   3.604   2.472   8.409 -1.7777 -2.1925  2.1651
  410MOL0     H56525   3.777   2.638   8.600  0.5011  0.7332 -0.2544
  410MOL0     H56526   3.817   2.642   8.431 -2.5830 -0.9033 -1.1134
  410MOL0     H56527   3.841   2.415   8.631  0.9241  0.1626 -0.7153
  410MOL0     H56528   3.807   2.366   8.465  0.5701 -0.0729 -0.7904
  410MOL0     H56529   4.018   2.623   8.344 -0.9770  2.1174  1.2539
  410MOL0     H56530   4.383   2.622   8.483  0.6254 -1.6442 -0.2164
  410MOL0     H56531   4.276   2.715   8.373 -0.6466  0.5137  1.1981
  410MOL0     H56532   4.411   2.446   8.336 -0.8436  0.5913  0.7209
  410MOL0     H56533   4.267   2.484   8.246 -0.0980 -1.7707  0.9134
  410MOL0     H56534   4.339   2.687   8.147 -0.0917  0.4587  3.3816
  410MOL0     H56535   4.485   2.704   8.230 -1.6678  2.0264 -3.2011
  410MOL0     H56536   4.606   2.589   8.077 -0.5084  2.1557 -2.6976
  410MOL0     H56537   4.527   2.438   8.122 -1.0106  0.4802  1.5221
  410MOL0     H56538   4.264   2.693   7.928  3.0370 -0.3674  3.1628
  410MOL0     H56539   4.037   2.745   7.934 -0.1444 -0.1518  1.7781
  410MOL0     H56540   3.917   2.643   8.001  2.3874 -1.2219  2.3565
  410MOL0     H56541   3.929   2.653   7.822 -0.0319 -1.1056 -0.1667
  410MOL0     H56542   3.687   2.416   7.638 -1.6987 -1.8375 -1.0813
  410MOL0     H56543   3.430   2.410   7.645  0.9443  1.9981 -0.9373
  410MOL0     H56544   3.189   2.400   8.014  2.6486  1.3218  1.7245
  410MOL0     H56545   3.236   2.575   8.000  1.8616  0.5409 -1.1994
  410MOL0     H56546   3.002   2.546   7.950  0.1995  1.4927 -0.3456
  410MOL0     H56547   3.095   2.585   7.802 -0.0525 -0.8664  0.1482
  410MOL0     H56548   2.894   2.405   7.790 -0.9086 -2.0815 -2.5641
  410MOL0     H56549   3.010   2.293   7.882  1.4700  0.9762  0.3476
  410MOL0     H56550   3.133   2.256   7.704 -1.2737 -0.5799  0.8601
  410MOL0     H56551   3.122   2.417   7.641  1.0835  0.9620  2.9185
  410MOL0     H56552   2.908   2.196   7.618  0.1405  0.6634 -0.2334
  410MOL0     H56553   2.885   2.355   7.561 -0.9752 -1.0889 -0.2291
  410MOL0     H56554   2.936   2.207   7.387 -0.2373  0.9803 -0.2865
  410MOL0     H56555   3.109   2.197   7.460  0.2517  0.9730  0.0542
  410MOL0     H56556   3.154   2.422   7.408 -1.4155 -0.7968  0.8340
  410MOL0     H56557   2.989   2.464   7.355  1.5706  2.7815 -3.9308
  410MOL0     H56558   3.114   2.430   7.166 -0.2636  0.0539  0.4841
  410MOL0     H56559   3.015   2.289   7.183  0.8815 -2.0731  2.1137
  410MOL0     H56560   3.442   2.449   8.059  1.5339 -0.5045  0.7340
  410MOL0     H56561   3.702   2.405   8.075  2.6744 -0.1341 -1.9555
  410MOL0     H56562   4.164   2.212   7.926  2.5246 -0.3248 -0.0328
  410MOL0     H56563   4.399   2.298   7.941  0.1554  1.3450  0.1096
  410MOL0     H56564   3.577   3.211   7.974 -1.3899 -2.1212  0.5420
  410MOL0     H56565   3.758   3.357   7.885 -0.6760  0.0388 -0.5513
  410MOL0     H56566   4.075   3.374   7.550  1.1113 -1.7455 -0.1611
  410MOL0     H56567   4.244   3.477   7.414 -1.4956  0.3748  0.1592
  410MOL0     H56568   4.497   3.616   7.309  2.9573  0.0142  0.5708
  410MOL0     H56569   4.357   3.685   7.420  1.6330  2.4516  5.1334
  410MOL0     H56570   4.630   3.768   7.487  0.0978  2.2828 -0.7993
  410MOL0     H56571   4.473   3.844   7.502  0.0390  1.0532  0.4800
  410MOL0     H56572   4.609   3.800   7.230 -0.5816 -1.8133  0.8939
  410MOL0     H56573   4.472   3.900   7.271  0.2489  0.2846 -0.4013
  410MOL0     H56574   4.708   3.995   7.245 -0.4629  0.1964  0.7615
  410MOL0     H56575   4.732   3.967   7.414 -0.4360  2.1163 -0.2213
  410MOL0     H56576   4.445   4.271   7.426 -1.7083 -1.7460  0.0628
  410MOL0     H56577   4.525   3.473   7.736 -0.3347 -1.2617  1.9341
  410MOL0     H56578   4.459   3.426   7.955 -0.4870 -1.0424 -1.0241
  410MOL0     H56579   4.290   3.406   7.981 -0.9529 -0.0491 -0.4032
  410MOL0     H56580   4.395   3.263   7.940  1.5460  0.2360  1.6809
  411MOL0     O56581   8.685  10.319   4.965  0.9219  0.2286 -0.8104
  411MOL0     C56582   8.764  10.264   4.881  0.5680  0.3731 -0.3087
  411MOL0     O56583   8.896  10.277   4.885  0.3009  0.6546  0.1156
  411MOL0     C56584   8.953  10.345   4.988  0.1830 -1.1224 -0.6389
  411MOL0     C56585   8.915  10.475   5.036  0.9760  0.1605  0.5997
  411MOL0     C56586   8.987  10.525   5.143 -0.3190 -0.0034 -1.0032
  411MOL0     C56587   9.090  10.462   5.211 -0.3160  0.7066  0.1176
  411MOL0     O56588   9.148  10.526   5.314  0.3259 -0.0529 -0.9077
  411MOL0     C56589   9.187  10.443   5.426 -0.5249 -0.4918 -0.5534
  411MOL0     C56590   9.189  10.521   5.554 -0.1034  0.0101 -0.1469
  411MOL0     C56591   9.232  10.440   5.673 -0.1447  0.2499  0.4159
  411MOL0     C56592   9.379  10.405   5.677  0.5657  0.3769  0.0383
  411MOL0     C56593   9.406  10.292   5.766 -1.1163 -0.0564 -0.0117
  411MOL0     C56594   9.552  10.264   5.800 -0.0110  0.0857  0.0448
  411MOL0     C56595   9.561  10.143   5.890 -0.0942 -0.5058  0.5595
  411MOL0     C56596   9.541  10.010   5.822 -0.2753 -1.1646 -1.1392
  411MOL0     N56597   9.541   9.901   5.922 -0.6685  0.0737  0.3401
  411MOL0     C56598   9.437   9.858   5.998 -1.0260 -0.4543 -0.1262
  411MOL0     C56599   9.489   9.764   6.080 -0.1497 -0.0262 -0.0583
  411MOL0     C56600   9.442   9.708   6.206 -0.1828 -0.4823  0.3466
  411MOL0     C56601   9.417   9.555   6.211  0.9610 -0.4911 -0.0209
  411MOL0     C56602   9.332   9.511   6.330 -0.2214 -0.2524 -0.4902
  411MOL0     C56603   9.386   9.552   6.467 -0.2298 -0.5699 -0.5513
  411MOL0     O56604   9.295   9.503   6.563 -0.0085 -0.2414  0.3861
  411MOL0     C56605   9.348   9.486   6.690  0.4042  1.2658  0.1512
  411MOL0     C56606   9.270   9.411   6.769 -0.5161 -0.4115  0.1083
  411MOL0     C56607   9.285   9.402   6.909 -0.5080  0.3520  0.1923
  411MOL0     C56608   9.181   9.333   6.999  0.2576 -0.0829  0.3565
  411MOL0     C56609   9.397   9.467   6.967 -0.0672 -1.3402 -0.4963
  411MOL0     C56610   9.424   9.485   7.107  0.3387 -0.5717  0.1953
  411MOL0     O56611   9.317   9.511   7.190  0.7906 -0.4980 -0.7467
  411MOL0     C56612   9.330   9.536   7.326 -0.0765 -0.2196 -0.5031
  411MOL0     C56613   9.293   9.445   7.412  1.3298  0.7489 -0.6276
  411MOL0     C56614   9.310   9.468   7.552 -0.3741  0.1173  0.1451
  411MOL0     C56615   9.350   9.594   7.597 -0.0687 -0.4456 -0.4386
  411MOL0     O56616   9.350   9.612   7.732 -0.1808  0.3130  0.0429
  411MOL0     C56617   9.424   9.721   7.787 -0.0001 -0.4759 -0.1624
  411MOL0     C56618   9.405   9.724   7.934 -0.7471 -0.2682 -0.4159
  411MOL0     C56619   9.265   9.785   7.975  1.1774 -0.2775 -0.5837
  411MOL0     C56620   9.180   9.704   8.064  0.0286  0.1550  0.5522
  411MOL0     C56621   9.037   9.768   8.083  0.8202  0.7016 -0.3741
  411MOL0     C56622   9.048   9.879   8.188  0.4917 -0.1301  0.6416
  411MOL0     C56623   8.911   9.938   8.207 -0.1344  0.3383 -0.2827
  411MOL0     C56624   8.910  10.062   8.293 -0.0927  0.2356  0.5946
  411MOL0    Cl56625   9.028  10.038   8.428  0.1621 -0.1076  0.1059
  411MOL0     C56626   9.389   9.695   7.496  0.1784  0.8230 -0.0546
  411MOL0     C56627   9.394   9.659   7.362  0.7063  0.1659 -0.3084
  411MOL0     O56628   9.538   9.483   7.143 -0.1846  1.0291 -0.7087
  411MOL0     C56629   9.485   9.539   6.884  0.2242 -0.5568  0.2260
  411MOL0     C56630   9.456   9.551   6.749 -1.1753 -0.8448  0.4676
  411MOL0     N56631   9.611   9.733   6.028  0.5835 -0.2841  0.0666
  411MOL0     N56632   9.654   9.819   5.944  0.4783 -0.2517  0.8986
  411MOL0     C56633   9.127  10.327   5.169 -0.5422 -0.2191 -0.0631
  411MOL0     C56634   9.055  10.275   5.054 -0.8273 -0.9033  0.4721
  411MOL0     C56635   8.714  10.176   4.769 -0.2311  0.3402 -0.3273
  411MOL0     C56636   8.804  10.142   4.674 -0.2801  0.4411 -0.2703
  411MOL0     C56637   8.773  10.066   4.563 -0.5874  0.4574  0.3090
  411MOL0     C56638   8.646  10.007   4.552  1.3359 -0.3408  0.2716
  411MOL0     O56639   8.608   9.924   4.447  0.4257 -0.2902  0.4881
  411MOL0     C56640   8.489   9.949   4.376  0.5494 -1.6830 -0.0220
  411MOL0     C56641   8.513  10.035   4.253 -0.0777  0.6542 -0.2511
  411MOL0     C56642   8.441  10.163   4.249  0.0205 -0.6256 -0.2171
  411MOL0     C56643   8.432  10.221   4.117  0.2443  1.2220  0.0277
  411MOL0     C56644   8.334  10.162   4.025  0.0073 -0.1386 -0.0445
  411MOL0     C56645   8.241  10.103   3.974 -0.3983 -0.1725  0.2077
  411MOL0     C56646   8.552  10.037   4.645 -0.4109 -0.7862  0.0010
  411MOL0     C56647   8.582  10.116   4.758  0.1077  0.3818 -0.5606
  411MOL0     C56648   8.464  10.124   4.861  0.1434 -0.5975  0.3986
  411MOL0     H56649   8.839  10.533   4.985  0.1362 -2.2135 -1.0056
  411MOL0     H56650   8.953  10.621   5.179  1.4659 -0.2885  1.7301
  411MOL0     H56651   9.283  10.401   5.397  0.4224  2.6493 -2.5622
  411MOL0     H56652   9.119  10.358   5.435 -2.2554  0.9210  0.4568
  411MOL0     H56653   9.262  10.601   5.541 -2.0009  1.7180 -0.9378
  411MOL0     H56654   9.094  10.566   5.586 -0.8900 -1.8149  0.1991
  411MOL0     H56655   9.206  10.501   5.760  2.9073  1.9208  0.3050
  411MOL0     H56656   9.191  10.339   5.682 -1.5306  0.4053 -2.9026
  411MOL0     H56657   9.411  10.379   5.576  4.2005 -4.1431  1.9994
  411MOL0     H56658   9.443  10.489   5.707 -0.1554  0.6393  0.8817
  411MOL0     H56659   9.367  10.207   5.710 -1.2483  2.4454 -4.1694
  411MOL0     H56660   9.351  10.299   5.860  1.9398 -3.1650  2.2433
  411MOL0     H56661   9.615  10.255   5.710 -0.3528  3.6502 -0.7060
  411MOL0     H56662   9.586  10.360   5.839 -0.4981  0.5496 -0.6558
  411MOL0     H56663   9.488  10.153   5.971 -1.1055  1.0215 -0.4827
  411MOL0     H56664   9.657  10.142   5.943 -0.9943  1.1537  2.3463
  411MOL0     H56665   9.450   9.998   5.762 -1.5957 -2.7427  1.0474
  411MOL0     H56666   9.624  10.013   5.749 -0.2129  1.8494 -1.0579
  411MOL0     H56667   9.345   9.915   6.003  0.0152  1.2028  1.7533
  411MOL0     H56668   9.346   9.755   6.232 -0.0992  0.4560 -0.9623
  411MOL0     H56669   9.502   9.731   6.295 -0.0878 -0.1795  0.2057
  411MOL0     H56670   9.356   9.527   6.124  0.9157 -0.0518 -0.1344
  411MOL0     H56671   9.507   9.493   6.205  0.5202 -1.0076 -2.4442
  411MOL0     H56672   9.228   9.543   6.316 -0.2024  0.3157  0.5703
  411MOL0     H56673   9.338   9.402   6.328 -1.1134 -0.3548  1.1483
  411MOL0     H56674   9.481   9.500   6.483  0.2302  0.0050 -1.3530
  411MOL0     H56675   9.409   9.657   6.483  5.7363 -1.0156 -3.5584
  411MOL0     H56676   9.183   9.358   6.732  0.1156 -1.2461 -0.2290
  411MOL0     H56677   9.104   9.408   7.017  1.1382  1.8183 -3.0941
  411MOL0     H56678   9.224   9.293   7.092 -1.0500  0.9096  1.4154
  411MOL0     H56679   9.138   9.242   6.957  0.9420  0.4868 -1.6614
  411MOL0     H56680   9.251   9.347   7.392  0.4182  1.2054 -0.9899
  411MOL0     H56681   9.287   9.390   7.623 -0.2881 -0.5953 -0.5936
  411MOL0     H56682   9.531   9.716   7.762  0.8371  4.2688  1.4410
  411MOL0     H56683   9.382   9.812   7.744 -1.2531 -2.0473 -2.4723
  411MOL0     H56684   9.422   9.620   7.964  0.4382  0.0052 -0.0861
  411MOL0     H56685   9.484   9.785   7.979 -0.0472 -2.2644  1.2141
  411MOL0     H56686   9.211   9.829   7.890  0.0243  0.3912  0.4505
  411MOL0     H56687   9.291   9.876   8.031  3.6934 -1.3968  0.2062
  411MOL0     H56688   9.224   9.679   8.161  0.3536  1.2428  0.6912
  411MOL0     H56689   9.173   9.607   8.014  0.6741  0.1561  0.4450
  411MOL0     H56690   8.998   9.787   7.983 -0.7164  0.0629  0.0726
  411MOL0     H56691   8.984   9.681   8.122  4.8660 -2.3102 -0.8654
  411MOL0     H56692   9.119   9.959   8.162 -0.0661  0.9727  2.3666
  411MOL0     H56693   9.091   9.839   8.280  0.7016 -0.3253  0.4615
  411MOL0     H56694   8.842   9.868   8.255  0.6068 -1.3748 -1.5797
  411MOL0     H56695   8.869   9.973   8.112  0.9523 -1.2087 -1.3867
  411MOL0     H56696   8.803  10.080   8.313 -0.1728 -1.4686  1.9490
  411MOL0     H56697   8.955  10.150   8.246 -0.3663 -0.5761 -1.2760
  411MOL0     H56698   9.440   9.785   7.526  1.3742  0.5280 -1.1020
  411MOL0     H56699   9.423   9.728   7.283 -0.1769  1.5771  0.5461
  411MOL0     H56700   9.575   9.587   6.922 -1.0151  2.7310 -0.5942
  411MOL0     H56701   9.532   9.604   6.692 -1.9238 -0.5351 -0.2544
  411MOL0     H56702   9.201  10.273   5.226 -1.4120  0.2866  1.6100
  411MOL0     H56703   9.083  10.180   5.010  1.4716 -1.0751  2.1314
  411MOL0     H56704   8.899  10.194   4.680 -0.7774  1.2091  2.7817
  411MOL0     H56705   8.836  10.046   4.477 -0.2263  1.9900  0.1886
  411MOL0     H56706   8.438   9.857   4.349 -2.4760  0.6428 -3.1834
  411MOL0     H56707   8.420  10.006   4.438 -2.1720 -2.7903 -1.8844
  411MOL0     H56708   8.496   9.972   4.164  0.8843  0.7312 -0.5029
  411MOL0     H56709   8.622  10.044   4.254  0.1092 -1.1402 -0.2496
  411MOL0     H56710   8.338  10.151   4.285  0.0070 -0.3219 -0.1545
  411MOL0     H56711   8.491  10.238   4.311  0.3114  1.3245 -2.6567
  411MOL0     H56712   8.531  10.206   4.073  0.1584 -1.9857  0.6571
  411MOL0     H56713   8.409  10.328   4.119 -2.2161  0.7398  1.1075
  411MOL0     H56714   8.159  10.043   3.939 -1.4262  0.1405  1.9286
  411MOL0     H56715   8.458   9.983   4.636 -1.0566  0.5009 -1.3180
  411MOL0     H56716   8.495  10.099   4.963 -0.0984 -0.4986  0.4964
  411MOL0     H56717   8.455  10.233   4.866  1.9921 -0.4284  0.5124
  411MOL0     H56718   8.372  10.079   4.822 -0.5333  0.7320  0.4109
  412MOL0     O56719  10.709   3.482   6.430  0.0832  0.4795 -0.3920
  412MOL0     C56720  10.763   3.552   6.519  1.5944  0.2522  0.4012
  412MOL0     O56721  10.838   3.508   6.626 -0.3165  0.1358 -0.1236
  412MOL0     C56722  10.863   3.375   6.641  0.3642 -1.1086 -1.2842
  412MOL0     C56723  10.994   3.336   6.673  0.2549 -0.1912  0.3494
  412MOL0     C56724  11.029   3.205   6.688 -0.5098 -0.1533 -0.0753
  412MOL0     C56725  10.934   3.106   6.674 -1.2877  0.2021  0.1114
  412MOL0     O56726  10.951   2.969   6.697 -0.4134  0.3910 -0.3608
  412MOL0     C56727  11.086   2.917   6.665 -0.6336 -0.1610 -1.2037
  412MOL0     C56728  11.095   2.773   6.692 -0.3195  0.2878  0.1957
  412MOL0     C56729  11.014   2.691   6.586  1.0312 -0.3761 -0.2578
  412MOL0     C56730  11.062   2.547   6.595 -0.4562 -0.0856 -0.3094
  412MOL0     C56731  11.035   2.466   6.464  0.1808 -1.0874 -0.0250
  412MOL0     C56732  11.086   2.326   6.470  0.0321 -0.1791 -0.0207
  412MOL0     C56733  11.055   2.240   6.349  0.0400 -1.4611 -0.2800
  412MOL0     C56734  11.105   2.094   6.364 -0.2834 -0.2171  0.0196
  412MOL0     N56735  11.253   2.092   6.371 -0.3081  0.1808  0.1804
  412MOL0     C56736  11.328   2.020   6.461 -0.4087 -0.0028 -0.1281
  412MOL0     C56737  11.460   2.046   6.420 -0.7356 -0.0358 -0.4751
  412MOL0     C56738  11.585   1.973   6.475  0.3105  0.7706 -0.3272
  412MOL0     C56739  11.574   1.983   6.624  0.4539  0.6878  0.3418
  412MOL0     C56740  11.704   1.954   6.703 -0.5521  0.5889 -0.0847
  412MOL0     C56741  11.732   1.802   6.671  0.0425 -1.0687  0.4051
  412MOL0     O56742  11.823   1.760   6.775  0.3418  0.3876 -0.5432
  412MOL0     C56743  11.955   1.726   6.744  0.5168 -0.6341 -0.3707
  412MOL0     C56744  12.018   1.666   6.846 -0.3024  0.2147  0.5576
  412MOL0     C56745  12.155   1.626   6.829 -1.1848 -0.4060  0.1287
  412MOL0     C56746  12.223   1.576   6.957 -0.4475  0.7382 -1.2239
  412MOL0     C56747  12.222   1.651   6.709  0.0686  0.2314 -0.0506
  412MOL0     C56748  12.363   1.628   6.680 -0.4099 -0.2255 -0.2430
  412MOL0     O56749  12.415   1.662   6.552  0.1082  0.2419 -0.0035
  412MOL0     C56750  12.548   1.635   6.535  0.3480 -0.6149 -0.0625
  412MOL0     C56751  12.623   1.743   6.495 -0.4173 -0.3687  0.3203
  412MOL0     C56752  12.761   1.734   6.474 -0.2222 -0.7872 -0.0126
  412MOL0     C56753  12.825   1.607   6.495 -0.1520  0.8600 -0.7019
  412MOL0     O56754  12.959   1.581   6.482  0.1266 -0.2544  0.3795
  412MOL0     C56755  13.040   1.685   6.428  0.5498  0.1160  0.1724
  412MOL0     C56756  13.184   1.625   6.438  0.6769 -0.1105 -0.5066
  412MOL0     C56757  13.278   1.707   6.345 -0.2065 -0.8253 -0.0656
  412MOL0     C56758  13.419   1.715   6.385  0.5850 -0.3449  0.5980
  412MOL0     C56759  13.502   1.807   6.290 -0.0929 -0.0039  0.2293
  412MOL0     C56760  13.644   1.756   6.262 -0.2957  0.0552 -0.3740
  412MOL0     C56761  13.726   1.770   6.396  0.0197 -0.1269  0.2995
  412MOL0     C56762  13.871   1.773   6.353 -0.7360 -0.1543 -0.8061
  412MOL0    Cl56763  13.989   1.691   6.471  0.1239  0.2186  0.2114
  412MOL0     C56764  12.753   1.498   6.541 -0.8308  0.2584  0.1253
  412MOL0     C56765  12.614   1.510   6.555 -0.6579 -0.8498  0.4575
  412MOL0     O56766  12.430   1.586   6.774 -0.6830 -0.0767  0.4448
  412MOL0     C56767  12.149   1.706   6.596 -0.4830  0.4710 -0.5708
  412MOL0     C56768  12.016   1.734   6.620 -0.4404 -0.4217  0.1695
  412MOL0     N56769  11.464   2.123   6.310  0.8879  0.2210 -0.0673
  412MOL0     N56770  11.336   2.138   6.273  0.5287 -0.1340 -0.0213
  412MOL0     C56771  10.796   3.139   6.662 -1.0716  0.2515 -0.0526
  412MOL0     C56772  10.769   3.275   6.637  0.6277  0.6323  0.2740
  412MOL0     C56773  10.730   3.696   6.515 -0.2757 -0.0461 -0.1079
  412MOL0     C56774  10.598   3.724   6.553 -0.4717 -0.0441  0.5210
  412MOL0     C56775  10.562   3.855   6.573 -0.0375 -0.5271  0.1167
  412MOL0     C56776  10.658   3.960   6.560  0.1723  0.3207 -0.7607
  412MOL0     O56777  10.634   4.090   6.574  1.4566 -0.6869  0.1957
  412MOL0     C56778  10.495   4.132   6.599 -0.7920 -0.1360  0.4589
  412MOL0     C56779  10.495   4.275   6.622 -0.1088  0.3751 -0.0396
  412MOL0     C56780  10.359   4.343   6.667 -0.1280 -0.4224 -0.1933
  412MOL0     C56781  10.241   4.304   6.577  1.0709  0.7446  0.0130
  412MOL0     C56782  10.135   4.399   6.594  0.5210 -0.1098 -1.1351
  412MOL0     C56783  10.059   4.481   6.639 -0.4723  0.2465  0.4473
  412MOL0     C56784  10.785   3.927   6.533 -0.6610 -0.5563 -0.5949
  412MOL0     C56785  10.829   3.795   6.500  0.3276  0.0350 -0.4346
  412MOL0     C56786  10.974   3.764   6.491 -0.2267  0.2201 -0.2724
  412MOL0     H56787  11.075   3.408   6.686  1.6101 -1.8797  1.6723
  412MOL0     H56788  11.133   3.179   6.707 -0.6950  1.3020  3.8105
  412MOL0     H56789  11.156   2.971   6.729 -2.0296  2.8240 -2.0320
  412MOL0     H56790  11.109   2.935   6.559  1.4342 -1.2332 -1.0095
  412MOL0     H56791  11.201   2.745   6.691 -0.3135 -0.8081 -6.1298
  412MOL0     H56792  11.049   2.748   6.788 -0.3115 -0.0907  0.1030
  412MOL0     H56793  10.907   2.696   6.606  1.1494 -3.4423  1.9261
  412MOL0     H56794  11.027   2.727   6.484 -1.4626  0.3661 -0.3582
  412MOL0     H56795  11.170   2.545   6.608 -0.2442  3.6085 -0.6169
  412MOL0     H56796  11.005   2.501   6.677 -0.9131  1.7248  0.4270
  412MOL0     H56797  11.067   2.523   6.376 -3.4223  0.2537 -0.6105
  412MOL0     H56798  10.926   2.462   6.458  0.0135 -0.0984  1.6384
  412MOL0     H56799  11.194   2.319   6.491  0.6786  1.2306 -2.4485
  412MOL0     H56800  11.032   2.278   6.552  0.6912 -0.6934  0.1257
  412MOL0     H56801  11.092   2.286   6.257  0.9753  0.8697  1.1869
  412MOL0     H56802  10.947   2.248   6.332 -0.2513 -0.2490  1.7906
  412MOL0     H56803  11.072   2.060   6.463 -0.3551 -0.5967 -0.1311
  412MOL0     H56804  11.065   2.027   6.287  3.6076  1.0483 -3.4881
  412MOL0     H56805  11.284   1.951   6.533 -0.3892 -0.4344 -0.5262
  412MOL0     H56806  11.676   2.025   6.443  1.2393  0.5330  1.7664
  412MOL0     H56807  11.587   1.869   6.443 -3.7572  0.9045 -1.5869
  412MOL0     H56808  11.546   2.083   6.658 -0.4581  0.3280  0.6903
  412MOL0     H56809  11.496   1.919   6.665  2.4434 -0.9487  1.7797
  412MOL0     H56810  11.790   2.009   6.665 -0.5932  0.9042  0.2773
  412MOL0     H56811  11.691   1.962   6.811  5.9415  0.5972  1.0650
  412MOL0     H56812  11.640   1.746   6.685 -2.1010  2.3874  1.1900
  412MOL0     H56813  11.775   1.780   6.573  0.6227  0.6298  0.2316
  412MOL0     H56814  11.961   1.632   6.932 -1.5750 -2.6343 -1.2569
  412MOL0     H56815  12.281   1.656   7.003 -1.9774  0.5900  1.1775
  412MOL0     H56816  12.293   1.495   6.932 -2.5155 -1.3318 -0.6604
  412MOL0     H56817  12.152   1.515   7.013  0.6042 -2.9072 -3.4909
  412MOL0     H56818  12.580   1.841   6.476  0.0641 -0.2608 -0.2583
  412MOL0     H56819  12.811   1.825   6.441  0.6697 -1.5659 -0.8703
  412MOL0     H56820  13.003   1.698   6.326 -1.5761  0.5987  0.9407
  412MOL0     H56821  13.033   1.778   6.485 -2.4543  0.1459 -0.0637
  412MOL0     H56822  13.216   1.628   6.542 -1.6984  0.8331  0.2802
  412MOL0     H56823  13.181   1.523   6.399  1.5156  0.4666 -2.1966
  412MOL0     H56824  13.245   1.811   6.340  2.1723  0.0203  0.4377
  412MOL0     H56825  13.264   1.667   6.244  0.7457  1.9718 -1.3943
  412MOL0     H56826  13.458   1.613   6.381 -0.2258 -0.6666 -3.6335
  412MOL0     H56827  13.416   1.759   6.485  0.6495  0.2734  0.3308
  412MOL0     H56828  13.444   1.802   6.197  0.4300 -2.0439 -0.0352
  412MOL0     H56829  13.504   1.914   6.313  1.4301 -0.5270  3.0473
  412MOL0     H56830  13.692   1.813   6.182 -1.0273  1.0854 -0.0980
  412MOL0     H56831  13.643   1.653   6.224  1.8186 -0.5298  0.9943
  412MOL0     H56832  13.707   1.675   6.446  0.5139 -0.2233  0.3056
  412MOL0     H56833  13.695   1.860   6.449 -0.5880  0.7021 -1.3831
  412MOL0     H56834  13.898   1.879   6.346 -0.1618 -0.2074  0.3293
  412MOL0     H56835  13.891   1.708   6.268 -1.1356 -3.7521  1.6274
  412MOL0     H56836  12.804   1.405   6.564 -1.0301 -0.2068 -1.2267
  412MOL0     H56837  12.553   1.426   6.589 -0.7400  0.4028  3.7744
  412MOL0     H56838  12.205   1.731   6.506  1.3665 -0.6117  0.2157
  412MOL0     H56839  11.975   1.778   6.530 -0.1407 -1.4167 -0.4679
  412MOL0     H56840  10.723   3.059   6.659  0.2203 -0.9664 -0.0236
  412MOL0     H56841  10.664   3.288   6.612  0.8530 -0.8192 -1.5914
  412MOL0     H56842  10.522   3.648   6.563 -1.0201  0.5777  1.2637
  412MOL0     H56843  10.459   3.885   6.587  0.1381  0.2834 -0.3104
  412MOL0     H56844  10.437   4.107   6.510 -0.7910 -1.6243  0.8490
  412MOL0     H56845  10.442   4.072   6.673 -3.7717 -1.7936 -2.7249
  412MOL0     H56846  10.530   4.325   6.532 -0.4010  2.7099  1.0656
  412MOL0     H56847  10.565   4.289   6.705  0.4799 -3.3247  0.2871
  412MOL0     H56848  10.334   4.306   6.767  0.6995 -1.1244 -0.2427
  412MOL0     H56849  10.366   4.452   6.663 -0.4713 -0.4298 -1.2613
  412MOL0     H56850  10.198   4.206   6.599  1.0144  0.6454 -0.5355
  412MOL0     H56851  10.257   4.296   6.469 -1.2825 -0.7023 -0.2974
  412MOL0     H56852   9.989   4.557   6.668  1.5005  2.1292  0.4930
  412MOL0     H56853  10.853   4.009   6.513 -0.7289 -0.9858 -2.9714
  412MOL0     H56854  11.024   3.772   6.588  3.6264 -0.7420 -1.9871
  412MOL0     H56855  10.989   3.664   6.450 -0.1656  0.3040 -0.4566
  412MOL0     H56856  11.026   3.836   6.427  1.7766 -0.6283  0.3420
  413MOL0     O56857   6.359   8.710   3.411 -0.0736 -0.6095  0.1555
  413MOL0     C56858   6.466   8.763   3.392 -0.9721  0.0797  0.0751
  413MOL0     O56859   6.585   8.705   3.361  0.3075  0.8770  0.0130
  413MOL0     C56860   6.595   8.572   3.406  0.1985 -0.6317 -0.2620
  413MOL0     C56861   6.615   8.477   3.308  0.1815  0.1512 -0.0901
  413MOL0     C56862   6.628   8.339   3.338  0.2170  1.3347  0.2366
  413MOL0     C56863   6.624   8.304   3.471  0.2550 -0.1188  0.0724
  413MOL0     O56864   6.631   8.170   3.492 -0.7591 -0.5760  0.1156
  413MOL0     C56865   6.542   8.119   3.595 -0.5832  0.5122  0.3841
  413MOL0     C56866   6.587   7.976   3.637  0.1587  0.4324 -0.8880
  413MOL0     C56867   6.695   7.991   3.759 -0.3189 -0.8581 -0.1084
  413MOL0     C56868   6.834   8.048   3.708 -0.1828  0.2241  1.3695
  413MOL0     C56869   6.957   8.014   3.806 -0.0745 -0.1802 -0.0386
  413MOL0     C56870   7.089   8.035   3.728  0.5684 -0.3917  0.1455
  413MOL0     C56871   7.213   8.006   3.809 -0.7907 -0.0880 -0.2584
  413MOL0     C56872   7.256   7.858   3.789 -0.4917  0.0416  0.7195
  413MOL0     N56873   7.176   7.773   3.870  0.0128  0.1934 -0.9344
  413MOL0     C56874   7.174   7.779   4.012  0.7183  0.4561  0.4806
  413MOL0     C56875   7.105   7.670   4.053 -0.2860  0.5329  0.3522
  413MOL0     C56876   7.080   7.632   4.195 -0.0922  0.4758 -0.6746
  413MOL0     C56877   6.931   7.650   4.238 -0.0176  1.1619 -0.0879
  413MOL0     C56878   6.892   7.803   4.248 -0.9592  0.1708 -1.4630
  413MOL0     C56879   6.971   7.890   4.340 -0.1804 -0.2334 -0.4189
  413MOL0     O56880   6.902   7.999   4.396 -0.3877 -0.4880  0.8953
  413MOL0     C56881   6.892   8.118   4.320  1.1893  1.0475  0.4436
  413MOL0     C56882   6.805   8.222   4.367 -0.0757 -0.0115 -1.1442
  413MOL0     C56883   6.812   8.352   4.326 -0.1358 -0.4410 -0.0108
  413MOL0     C56884   6.713   8.449   4.396 -0.2379 -0.7201  0.6447
  413MOL0     C56885   6.893   8.384   4.213  0.7901 -0.9091  0.0506
  413MOL0     C56886   6.898   8.527   4.169 -0.2542  0.0270  0.7188
  413MOL0     O56887   6.874   8.539   4.041  0.2190 -0.0009  0.1166
  413MOL0     C56888   6.832   8.662   3.995 -1.0319  0.5678  0.6957
  413MOL0     C56889   6.772   8.774   4.062  0.7528  0.0394 -0.2751
  413MOL0     C56890   6.732   8.889   4.005  0.1534  0.3479  0.5072
  413MOL0     C56891   6.765   8.906   3.865  0.6688 -1.4182 -0.2891
  413MOL0     O56892   6.735   9.014   3.793  0.6888 -0.0345  0.3994
  413MOL0     C56893   6.691   9.137   3.853 -0.9764 -0.1231  0.2151
  413MOL0     C56894   6.535   9.150   3.853 -1.7045  1.7606  0.1460
  413MOL0     C56895   6.489   9.282   3.907  0.9326 -0.3668  0.1153
  413MOL0     C56896   6.339   9.301   3.874  0.2523 -0.0031  0.0947
  413MOL0     C56897   6.292   9.439   3.926  0.3380  0.0975 -0.9065
  413MOL0     C56898   6.145   9.458   3.884  0.3736  0.3625 -0.5136
  413MOL0     C56899   6.053   9.333   3.920 -1.2842  0.0101  0.6168
  413MOL0     C56900   5.904   9.374   3.923 -0.5255  0.1970  0.4188
  413MOL0    Cl56901   5.815   9.249   3.994  0.4264 -0.3385 -0.0539
  413MOL0     C56902   6.827   8.809   3.791  0.5622 -0.0649  0.4784
  413MOL0     C56903   6.864   8.694   3.854  0.5315  0.7024 -0.1902
  413MOL0     O56904   6.912   8.615   4.251 -0.0255 -0.2560  0.0001
  413MOL0     C56905   6.982   8.283   4.165 -0.1778  0.1143 -0.3773
  413MOL0     C56906   6.980   8.154   4.217  0.3130  0.7543  0.0213
  413MOL0     N56907   7.085   7.591   3.936  0.6851  0.0479 -0.3626
  413MOL0     N56908   7.119   7.659   3.830  0.9946 -0.0208  0.1163
  413MOL0     C56909   6.618   8.403   3.570  0.3959 -0.3114 -0.2928
  413MOL0     C56910   6.606   8.536   3.539 -0.9111 -0.0788  0.5422
  413MOL0     C56911   6.477   8.911   3.400 -0.4254 -0.3596  0.6311
  413MOL0     C56912   6.354   8.977   3.428  0.6476  0.9853  0.2120
  413MOL0     C56913   6.348   9.115   3.453 -0.7314  0.5109  0.5139
  413MOL0     C56914   6.462   9.191   3.449  0.3000  0.5262 -0.8671
  413MOL0     O56915   6.437   9.321   3.484  0.0256 -0.4711  0.2747
  413MOL0     C56916   6.542   9.415   3.460 -0.6238  0.4246  0.3814
  413MOL0     C56917   6.499   9.546   3.521  0.1508  0.2962 -0.6310
  413MOL0     C56918   6.370   9.601   3.462  0.5474  0.4954 -0.4377
  413MOL0     C56919   6.317   9.714   3.552 -0.5896 -0.7372  0.2465
  413MOL0     C56920   6.404   9.831   3.555  0.0194 -1.4552 -0.6686
  413MOL0     C56921   6.482   9.930   3.563  0.3537  1.0706 -0.1304
  413MOL0     C56922   6.587   9.120   3.429  0.2148  0.2907  0.2492
  413MOL0     C56923   6.597   8.990   3.398 -0.4284 -0.2683  0.5397
  413MOL0     C56924   6.737   8.942   3.378  0.2516 -0.7330  0.0541
  413MOL0     H56925   6.589   8.503   3.206  1.7697  0.1128 -0.5326
  413MOL0     H56926   6.621   8.260   3.264  4.9822  0.5374  0.3409
  413MOL0     H56927   6.440   8.122   3.554  0.3425  0.5997 -2.1032
  413MOL0     H56928   6.538   8.172   3.690  2.9419 -0.6130  1.2908
  413MOL0     H56929   6.497   7.926   3.675  0.4334 -0.0407 -0.8509
  413MOL0     H56930   6.627   7.916   3.555 -0.5960 -1.5621  0.1129
  413MOL0     H56931   6.656   8.060   3.834  0.8045  1.4059 -1.4987
  413MOL0     H56932   6.707   7.894   3.808 -3.3058 -0.6365  1.2613
  413MOL0     H56933   6.844   7.993   3.614 -0.3644  0.4736  1.1990
  413MOL0     H56934   6.840   8.154   3.680 -0.0879  0.4391  2.1913
  413MOL0     H56935   6.947   7.911   3.840  0.5879 -0.1966  0.1124
  413MOL0     H56936   6.964   8.078   3.895 -0.3041  0.7505 -0.6689
  413MOL0     H56937   7.088   7.993   3.627  0.5259 -0.6157  0.2396
  413MOL0     H56938   7.077   8.139   3.694 -1.7240  0.3852  2.9637
  413MOL0     H56939   7.194   8.026   3.915  1.8942 -0.2568  0.3132
  413MOL0     H56940   7.291   8.078   3.784  0.6478 -1.1036  1.0746
  413MOL0     H56941   7.261   7.835   3.682  0.1280 -0.9319  0.9448
  413MOL0     H56942   7.359   7.836   3.819 -1.1234 -4.3886  0.2680
  413MOL0     H56943   7.225   7.841   4.085 -0.8547  0.6106  1.4888
  413MOL0     H56944   7.148   7.680   4.266 -2.3311  1.2894  1.0508
  413MOL0     H56945   7.096   7.524   4.196 -2.0789  0.0720 -2.6772
  413MOL0     H56946   6.868   7.613   4.157 -0.5982  0.4272  0.6773
  413MOL0     H56947   6.912   7.588   4.326 -0.9584 -0.1559 -1.1872
  413MOL0     H56948   6.900   7.858   4.154 -1.0145  2.9648  0.0691
  413MOL0     H56949   6.788   7.811   4.281 -1.0726 -0.3021 -1.6983
  413MOL0     H56950   7.007   7.830   4.424  1.1390  0.2104 -0.6381
  413MOL0     H56951   7.072   7.906   4.302 -0.6645 -0.8442 -2.0822
  413MOL0     H56952   6.727   8.186   4.434  2.4095 -2.4498  0.6698
  413MOL0     H56953   6.667   8.519   4.325  0.1598 -1.4651 -0.3716
  413MOL0     H56954   6.770   8.513   4.463  0.5273  0.8925 -1.4224
  413MOL0     H56955   6.635   8.394   4.450 -2.0409  1.2440  0.2138
  413MOL0     H56956   6.738   8.757   4.164 -0.7182 -1.8192 -1.0053
  413MOL0     H56957   6.669   8.953   4.065 -0.0362 -0.2767  0.9819
  413MOL0     H56958   6.727   9.151   3.956 -0.6767  2.4249 -0.1755
  413MOL0     H56959   6.738   9.222   3.803  1.7466 -0.1004  2.5416
  413MOL0     H56960   6.515   9.145   3.745  0.1768  0.7815 -0.2008
  413MOL0     H56961   6.503   9.062   3.909  3.9605 -2.0424 -1.6898
  413MOL0     H56962   6.558   9.358   3.871  1.8322 -1.6527 -0.9864
  413MOL0     H56963   6.492   9.280   4.016  0.0363 -2.1003  0.1464
  413MOL0     H56964   6.282   9.218   3.917  1.9347  0.5905  3.8878
  413MOL0     H56965   6.331   9.301   3.765  4.8921 -0.9384 -0.4711
  413MOL0     H56966   6.302   9.445   4.035  2.1726  1.1368 -1.1036
  413MOL0     H56967   6.341   9.526   3.881 -0.7734  2.2809  1.7482
  413MOL0     H56968   6.135   9.471   3.776  2.0676  2.3394 -0.4878
  413MOL0     H56969   6.107   9.544   3.940 -1.7825 -0.5840 -0.4486
  413MOL0     H56970   6.087   9.275   4.007  1.5767 -0.2166 -0.5250
  413MOL0     H56971   6.065   9.257   3.842  3.2803  0.6225  0.4084
  413MOL0     H56972   5.867   9.398   3.823  1.8069  0.3107 -0.4684
  413MOL0     H56973   5.883   9.468   3.977 -2.0094  1.9497 -2.9301
  413MOL0     H56974   6.832   8.820   3.683 -0.2887  0.7613  0.5119
  413MOL0     H56975   6.911   8.615   3.796  0.2857  0.7082 -0.3969
  413MOL0     H56976   7.055   8.313   4.090 -0.3034  0.9586 -0.1688
  413MOL0     H56977   7.039   8.074   4.173 -0.4864 -0.0012  0.2881
  413MOL0     H56978   6.612   8.363   3.671  2.2367 -0.5365 -0.2494
  413MOL0     H56979   6.609   8.609   3.618  0.1742  2.8361 -1.9871
  413MOL0     H56980   6.262   8.919   3.431  1.1357  0.2505  2.1769
  413MOL0     H56981   6.248   9.156   3.460 -1.6496 -1.5208  0.1377
  413MOL0     H56982   6.640   9.385   3.500  1.0476  0.9125 -3.0163
  413MOL0     H56983   6.563   9.430   3.354  1.1195 -3.4041  0.0378
  413MOL0     H56984   6.572   9.622   3.493  0.4044  0.2047 -0.2289
  413MOL0     H56985   6.514   9.544   3.630  1.4256 -0.1152 -0.7961
  413MOL0     H56986   6.395   9.645   3.365  2.5410 -0.0096 -0.2080
  413MOL0     H56987   6.289   9.530   3.443 -0.4137  1.4912 -0.1533
  413MOL0     H56988   6.305   9.674   3.653 -0.2621 -1.9572 -0.1799
  413MOL0     H56989   6.216   9.741   3.524 -0.7855 -2.0758 -0.4187
  413MOL0     H56990   6.552  10.010   3.565  0.8893  0.7773 -2.8290
  413MOL0     H56991   6.678   9.179   3.433  1.8653 -2.0664 -0.4416
  413MOL0     H56992   6.747   8.862   3.304  3.9436  0.1360 -0.5903
  413MOL0     H56993   6.799   9.028   3.353  0.1159 -0.6395  0.0389
  413MOL0     H56994   6.770   8.910   3.478  2.5026  0.0460 -0.3831
  414MOL0     O56995   0.877  11.007   8.600 -0.9655 -0.0520  0.2062
  414MOL0     C56996   0.806  11.092   8.649  0.4666  0.6571  0.8249
  414MOL0     O56997   0.774  11.106   8.785  0.6607 -0.4514  0.3033
  414MOL0     C56998   0.858  11.044   8.871 -0.7688  0.0004 -1.4783
  414MOL0     C56999   0.835  10.910   8.899  0.3743  0.5909 -0.1017
  414MOL0     C57000   0.914  10.850   8.994 -0.2020 -0.4595 -0.1903
  414MOL0     C57001   1.007  10.918   9.068 -0.5012 -0.4077 -0.1487
  414MOL0     O57002   1.075  10.860   9.173 -0.2323  0.5638 -1.0481
  414MOL0     C57003   1.017  10.915   9.301  1.1307  0.7982 -0.1010
  414MOL0     C57004   1.071  10.832   9.427  0.1085 -0.7156  0.1679
  414MOL0     C57005   1.056  10.683   9.393  0.3370  0.5221  0.6391
  414MOL0     C57006   1.150  10.604   9.495 -0.2128  0.2624  0.6533
  414MOL0     C57007   1.187  10.463   9.441  0.5326  0.7766  0.1396
  414MOL0     C57008   1.290  10.376   9.525  0.5841 -0.4340  0.4447
  414MOL0     C57009   1.427  10.449   9.528 -0.4245  1.0395  0.3990
  414MOL0     C57010   1.549  10.351   9.565  1.0451  0.4816  0.2081
  414MOL0     N57011   1.670  10.410   9.623  0.0602 -0.0896 -0.3653
  414MOL0     C57012   1.777  10.335   9.657 -0.5362 -0.9587 -0.3476
  414MOL0     C57013   1.872  10.422   9.699  0.9070 -0.0346 -1.1158
  414MOL0     C57014   2.016  10.390   9.740 -0.3457 -0.0843  0.3482
  414MOL0     C57015   2.043  10.441   9.880 -0.0606  0.3604 -0.2649
  414MOL0     C57016   2.186  10.457   9.924 -0.1066  0.7672  0.5750
  414MOL0     C57017   2.277  10.345   9.881  0.1036  0.7958 -0.0369
  414MOL0     O57018   2.416  10.366   9.929  0.4288  0.0390  0.2908
  414MOL0     C57019   2.424  10.364  10.073  0.0370  0.6283  0.7206
  414MOL0     C57020   2.520  10.457  10.116  0.2845 -0.3141 -0.1895
  414MOL0     C57021   2.531  10.480  10.261 -0.2616  1.3907 -0.3929
  414MOL0     C57022   2.596  10.600  10.302 -0.9734  0.8134  0.0763
  414MOL0     C57023   2.463  10.399  10.349  0.7184 -0.5783 -0.5021
  414MOL0     C57024   2.456  10.414  10.505  0.0394  0.1515 -0.4973
  414MOL0     O57025   2.337  10.371  10.561 -0.2377  0.1164  0.3434
  414MOL0     C57026   2.325  10.329  10.692 -0.6993  0.5866 -0.4870
  414MOL0     C57027   2.265  10.411  10.793  0.4907  0.2291  0.3256
  414MOL0     C57028   2.268  10.369  10.921  1.6471  0.9409 -0.4174
  414MOL0     C57029   2.331  10.251  10.965  0.1750  0.3053  0.1407
  414MOL0     O57030   2.326  10.220  11.100 -0.3882 -0.3849  0.2073
  414MOL0     C57031   2.408  10.117  11.153  0.4655 -0.6175 -0.3782
  414MOL0     C57032   2.404  10.125  11.306  0.0172  0.2128 -0.8932
  414MOL0     C57033   2.455   9.998  11.377 -0.1302 -0.5422 -0.1034
  414MOL0     C57034   2.590   9.953  11.326 -0.8768  0.1029 -0.7195
  414MOL0     C57035   2.670   9.859  11.421  0.3171  0.9336 -0.5556
  414MOL0     C57036   2.731   9.943  11.532 -0.1020 -0.0697  0.4115
  414MOL0     C57037   2.837   9.860  11.607  0.9733  0.0875  0.6264
  414MOL0     C57038   2.935   9.962  11.673 -0.5438  0.9026 -0.5849
  414MOL0    Cl57039   3.059   9.864  11.753 -0.7447  0.4544  0.4936
  414MOL0     C57040   2.389  10.173  10.871 -0.7023  0.0648  0.2660
  414MOL0     C57041   2.393  10.214  10.738 -0.2580  0.7106  0.2902
  414MOL0     O57042   2.556  10.441  10.569  0.2379 -0.3127 -0.0233
  414MOL0     C57043   2.376  10.310  10.293  0.1073  0.4916  1.1622
  414MOL0     C57044   2.357  10.284  10.155 -0.0237 -0.0358 -0.5726
  414MOL0     N57045   1.813  10.549   9.686 -0.5585 -0.2408  0.0160
  414MOL0     N57046   1.696  10.543   9.649  0.3525 -0.0770 -0.3942
  414MOL0     C57047   1.040  11.056   9.037 -0.3853  0.6134 -0.8714
  414MOL0     C57048   0.959  11.118   8.940  0.7752 -0.2727  0.8531
  414MOL0     C57049   0.746  11.196   8.561  0.7374  0.2787 -0.9505
  414MOL0     C57050   0.692  11.310   8.631  0.3374  0.2341  0.1869
  414MOL0     C57051   0.633  11.419   8.564 -0.5025 -0.9072 -0.5792
  414MOL0     C57052   0.623  11.415   8.427  0.6901 -0.6830 -0.4216
  414MOL0     O57053   0.561  11.526   8.375 -0.0774  0.4642 -0.3372
  414MOL0     C57054   0.510  11.538   8.238 -0.1012 -0.4628 -0.2280
  414MOL0     C57055   0.442  11.683   8.205  0.8313 -0.1533  0.0328
  414MOL0     C57056   0.532  11.801   8.232  0.0924 -0.0943 -0.3054
  414MOL0     C57057   0.658  11.798   8.143 -0.3989 -0.1798 -0.2351
  414MOL0     C57058   0.757  11.897   8.179 -0.4187 -0.4923  0.2134
  414MOL0     C57059   0.835  11.985   8.189 -0.3641 -0.5912 -0.8646
  414MOL0     C57060   0.682  11.309   8.362  0.4103  0.6426  0.2375
  414MOL0     C57061   0.738  11.195   8.424  0.6685 -0.2402  0.4122
  414MOL0     C57062   0.794  11.085   8.338  0.3952 -0.0436 -0.8679
  414MOL0     H57063   0.758  10.863   8.840 -0.0741 -0.3860  1.2098
  414MOL0     H57064   0.911  10.742   9.003  2.7892 -0.5125  1.6391
  414MOL0     H57065   0.911  10.886   9.298  1.3928 -0.1086 -2.2498
  414MOL0     H57066   1.035  11.022   9.311 -0.3543  1.1503 -0.8431
  414MOL0     H57067   1.177  10.859   9.434  0.3242 -0.6499 -2.4745
  414MOL0     H57068   1.002  10.858   9.508  1.6720  0.9224  1.0606
  414MOL0     H57069   0.952  10.655   9.414  0.8353 -1.0496  1.1414
  414MOL0     H57070   1.078  10.658   9.289 -2.5211 -1.1489  0.3382
  414MOL0     H57071   1.243  10.662   9.497  1.9499 -2.9875  0.4555
  414MOL0     H57072   1.094  10.609   9.589 -0.3786  5.0815  0.5836
  414MOL0     H57073   1.248  10.469   9.350  2.0307 -1.5605  0.9030
  414MOL0     H57074   1.099  10.408   9.405  0.4807  0.9449  0.0067
  414MOL0     H57075   1.249  10.366   9.626 -2.3886 -1.9042 -0.7831
  414MOL0     H57076   1.293  10.276   9.479  0.4738  0.7420 -2.3491
  414MOL0     H57077   1.417  10.518   9.612 -1.7971 -1.0154  1.9952
  414MOL0     H57078   1.451  10.503   9.436 -0.5159 -1.0572 -0.9180
  414MOL0     H57079   1.505  10.282   9.637  2.6717 -0.6838  0.1354
  414MOL0     H57080   1.562  10.293   9.474 -1.8469  0.9392 -0.5961
  414MOL0     H57081   1.791  10.228   9.650  0.8905 -0.9133  1.1322
  414MOL0     H57082   2.087  10.443   9.677 -0.1830  0.7402  1.1978
  414MOL0     H57083   2.032  10.283   9.725 -0.3558  0.0264 -0.4992
  414MOL0     H57084   1.994  10.539   9.878  0.2455  0.5350  0.4982
  414MOL0     H57085   1.991  10.382   9.957  3.4948 -1.6219  0.8207
  414MOL0     H57086   2.225  10.547   9.875 -2.0296  1.2619 -0.1665
  414MOL0     H57087   2.195  10.470  10.032  1.0803  1.0407  0.4582
  414MOL0     H57088   2.247  10.244   9.911 -1.8100  1.4684  0.4361
  414MOL0     H57089   2.274  10.335   9.772  0.9725  0.9873 -0.0834
  414MOL0     H57090   2.559  10.528  10.044 -0.4513  0.8927  0.5546
  414MOL0     H57091   2.581  10.630  10.406  1.8405 -0.1376  0.8251
  414MOL0     H57092   2.554  10.684  10.246 -1.7487 -0.5065 -1.4098
  414MOL0     H57093   2.704  10.593  10.285 -0.5237  0.6901  2.5974
  414MOL0     H57094   2.224  10.506  10.758 -2.6960 -1.1637 -0.1335
  414MOL0     H57095   2.233  10.423  11.008  2.0845  0.3892  0.1087
  414MOL0     H57096   2.377  10.014  11.130 -0.9077 -0.6811  1.5037
  414MOL0     H57097   2.509  10.139  11.119  0.3989 -0.2453 -0.3356
  414MOL0     H57098   2.461  10.213  11.335 -1.3456  1.6067 -2.1963
  414MOL0     H57099   2.301  10.136  11.343 -0.0306 -0.7856 -0.7254
  414MOL0     H57100   2.393   9.909  11.370  2.0676 -2.0901 -1.5361
  414MOL0     H57101   2.464  10.016  11.484  2.2435  2.7964 -0.6686
  414MOL0     H57102   2.649  10.043  11.303 -1.4737  1.4240  2.4053
  414MOL0     H57103   2.576   9.885  11.241 -2.7676 -0.6487  0.1512
  414MOL0     H57104   2.606   9.779  11.460  1.5326  1.4046  2.6979
  414MOL0     H57105   2.744   9.802  11.365 -0.4874 -0.1921 -0.5226
  414MOL0     H57106   2.660   9.973  11.610  1.2557  1.8779  0.9650
  414MOL0     H57107   2.770  10.040  11.499  0.3573 -0.9449 -1.7957
  414MOL0     H57108   2.877   9.790  11.533 -2.5602 -1.0848 -0.3709
  414MOL0     H57109   2.785   9.792  11.675  0.8959 -2.6537 -2.0121
  414MOL0     H57110   2.885  10.011  11.757 -0.9367 -1.7625  0.8687
  414MOL0     H57111   2.981  10.029  11.600  0.7463 -1.4311 -2.0661
  414MOL0     H57112   2.447  10.087  10.900  2.2716  1.8799  0.1324
  414MOL0     H57113   2.447  10.167  10.656 -1.3624  0.9484 -0.6040
  414MOL0     H57114   2.315  10.238  10.347 -1.6196  0.0613 -1.1720
  414MOL0     H57115   2.300  10.202  10.114  1.3841 -0.5272 -1.6377
  414MOL0     H57116   1.115  11.106   9.097 -1.6559  0.3053  1.0742
  414MOL0     H57117   0.977  11.218   8.901 -0.7597  0.3277  1.5608
  414MOL0     H57118   0.674  11.314   8.738  1.1277 -2.1545  0.4719
  414MOL0     H57119   0.592  11.509   8.608  1.5172  0.8146 -1.9864
  414MOL0     H57120   0.592  11.507   8.173 -0.1888 -2.0060  0.3498
  414MOL0     H57121   0.432  11.463   8.224 -0.9986  0.4350 -0.1425
  414MOL0     H57122   0.347  11.686   8.258 -0.2236 -1.3943 -1.6694
  414MOL0     H57123   0.408  11.688   8.101 -1.1577  1.2339  0.7020
  414MOL0     H57124   0.475  11.893   8.219  0.7473  1.0722  3.8050
  414MOL0     H57125   0.554  11.804   8.339 -3.0362 -3.3225  0.6329
  414MOL0     H57126   0.632  11.812   8.038 -0.4029  0.5907 -0.1322
  414MOL0     H57127   0.711  11.704   8.162  0.6926  0.8907  2.4336
  414MOL0     H57128   0.918  12.050   8.208  1.6299 -2.2182 -3.3397
  414MOL0     H57129   0.679  11.304   8.253  1.5697  0.8217  0.1935
  414MOL0     H57130   0.774  10.981   8.364  2.6230 -0.4049 -0.3423
  414MOL0     H57131   0.759  11.104   8.236 -3.7845  1.6847  0.6924
  414MOL0     H57132   0.902  11.100   8.327  0.1060  1.3426 -2.3172
  415MOL0     O57133   7.714   6.122  10.470  0.8143  0.0708  0.1329
  415MOL0     C57134   7.630   6.061  10.400 -0.4517 -0.3625 -0.3170
  415MOL0     O57135   7.658   6.001  10.281 -0.6846  0.1909  0.5856
  415MOL0     C57136   7.756   6.042  10.189 -0.2461  0.6047 -0.6599
  415MOL0     C57137   7.821   6.170  10.187  0.6426  0.1230 -0.5760
  415MOL0     C57138   7.911   6.209  10.090 -0.0667 -0.3136 -0.1419
  415MOL0     C57139   7.946   6.115   9.996 -0.6717  0.0041 -0.3591
  415MOL0     O57140   8.030   6.159   9.903  1.2015 -0.0370  0.2862
  415MOL0     C57141   8.076   6.085   9.795  0.0218  0.5498 -0.1686
  415MOL0     C57142   8.168   6.173   9.709 -0.2411 -0.2149  0.0785
  415MOL0     C57143   8.131   6.320   9.692 -0.5545  0.0877  0.8329
  415MOL0     C57144   8.244   6.417   9.724 -0.8169 -0.0980 -0.2187
  415MOL0     C57145   8.268   6.430   9.877  0.5214 -0.1523  0.0442
  415MOL0     C57146   8.404   6.497   9.907 -0.0237 -0.0455 -0.3383
  415MOL0     C57147   8.517   6.399   9.881 -0.1602  0.6769 -0.0539
  415MOL0     C57148   8.646   6.466   9.940  0.0774  0.4611 -0.6104
  415MOL0     N57149   8.764   6.387   9.901 -0.9642 -0.3130  0.2926
  415MOL0     C57150   8.826   6.368   9.773  0.0592 -0.8466  0.3562
  415MOL0     C57151   8.912   6.265   9.787  0.0013 -0.8283 -0.2814
  415MOL0     C57152   9.001   6.195   9.682  0.9703  0.9023  0.1585
  415MOL0     C57153   9.089   6.295   9.612 -0.3716 -0.3634  0.0450
  415MOL0     C57154   9.175   6.224   9.516  0.6793 -0.3937  1.5595
  415MOL0     C57155   9.318   6.191   9.576 -0.3092 -0.1558 -0.0648
  415MOL0     O57156   9.314   6.117   9.697 -0.2507  0.1048  0.1791
  415MOL0     C57157   9.308   5.979   9.688  0.0993  0.8043  0.4122
  415MOL0     C57158   9.290   5.904   9.566 -0.0854  0.5548  0.4605
  415MOL0     C57159   9.289   5.762   9.563 -0.2438 -0.0673  0.2398
  415MOL0     C57160   9.301   5.697   9.430 -0.8166  0.1202 -0.5151
  415MOL0     C57161   9.300   5.693   9.682 -0.0528 -0.2395 -0.7273
  415MOL0     C57162   9.309   5.551   9.694  0.3102  0.4782 -0.6002
  415MOL0     O57163   9.404   5.494   9.779  0.2701  0.4973  0.7510
  415MOL0     C57164   9.405   5.361   9.804 -0.2751  0.2594  0.0826
  415MOL0     C57165   9.457   5.265   9.716 -0.9703  0.2726 -0.0439
  415MOL0     C57166   9.437   5.132   9.733  0.4139 -0.4960 -0.1456
  415MOL0     C57167   9.375   5.083   9.850 -0.4484 -0.0793 -0.0846
  415MOL0     O57168   9.354   4.948   9.867 -0.3554 -0.2863 -0.6039
  415MOL0     C57169   9.282   4.882   9.760 -0.8293  0.0521  0.3252
  415MOL0     C57170   9.141   4.918   9.768  0.2390  0.2790  0.2626
  415MOL0     C57171   9.060   4.828   9.682 -0.6586  0.3009  0.5010
  415MOL0     C57172   8.919   4.865   9.665 -0.5219  0.0612  0.2394
  415MOL0     C57173   8.836   4.888   9.797  0.3194 -0.3192 -0.1695
  415MOL0     C57174   8.813   4.758   9.866 -0.0419  0.2053  0.1341
  415MOL0     C57175   8.720   4.778   9.992 -0.2800  0.0488 -0.7969
  415MOL0     C57176   8.698   4.657  10.086 -0.0950  0.0008  0.0588
  415MOL0    Cl57177   8.644   4.701  10.253 -0.2012 -0.3362 -0.4544
  415MOL0     C57178   9.339   5.177   9.950 -0.0423  0.3217  0.2370
  415MOL0     C57179   9.350   5.310   9.925 -0.0790  0.0914 -1.0473
  415MOL0     O57180   9.227   5.485   9.622 -0.1685 -0.8290 -0.2838
  415MOL0     C57181   9.326   5.769   9.804 -0.7833  0.0503  0.4879
  415MOL0     C57182   9.328   5.903   9.802  0.0401 -0.7337 -0.3732
  415MOL0     N57183   8.911   6.229   9.921  0.1237 -0.0431 -0.6181
  415MOL0     N57184   8.825   6.297   9.988 -0.9688 -0.1864 -0.0126
  415MOL0     C57185   7.901   5.981  10.001  0.9246 -0.2282 -0.6121
  415MOL0     C57186   7.801   5.950  10.093  1.2883  0.2010  0.6948
  415MOL0     C57187   7.501   6.037  10.469  0.1522  0.6589  0.7778
  415MOL0     C57188   7.421   5.930  10.412  0.0035  0.1778 -0.1112
  415MOL0     C57189   7.304   5.888  10.471  0.2032 -0.1583 -0.6261
  415MOL0     C57190   7.251   5.974  10.568  0.1107  0.3098  0.3272
  415MOL0     O57191   7.130   5.970  10.630 -0.0834  0.6955 -0.6755
  415MOL0     C57192   7.016   5.906  10.572 -0.2982  0.0817  0.3689
  415MOL0     C57193   6.891   5.944  10.650  0.1890 -0.0043 -0.8103
  415MOL0     C57194   6.891   5.908  10.802  0.3038  0.3641 -0.6854
  415MOL0     C57195   6.911   5.760  10.841  0.3077  0.2849  0.6084
  415MOL0     C57196   6.794   5.680  10.794  0.2113 -0.4577 -0.2770
  415MOL0     C57197   6.691   5.629  10.752 -0.1767  0.6234  0.1725
  415MOL0     C57198   7.322   6.087  10.604  1.9174  0.5903  0.9198
  415MOL0     C57199   7.448   6.123  10.563  0.1999 -0.1601 -0.0339
  415MOL0     C57200   7.507   6.260  10.611 -0.4655  1.3124  1.2344
  415MOL0     H57201   7.798   6.244  10.262  5.0964  0.1999  1.0398
  415MOL0     H57202   7.944   6.312  10.082 -1.4488  0.2368  0.9325
  415MOL0     H57203   7.996   6.032   9.742  0.5695 -1.2441  0.7141
  415MOL0     H57204   8.140   6.007   9.836 -0.6316  0.2297  0.2680
  415MOL0     H57205   8.268   6.175   9.753  0.2902  3.5587 -0.9502
  415MOL0     H57206   8.171   6.129   9.609 -2.5447 -0.2363 -0.0353
  415MOL0     H57207   8.091   6.340   9.592  0.5859 -1.0300  0.1280
  415MOL0     H57208   8.053   6.340   9.767  1.6279  4.3517  2.2871
  415MOL0     H57209   8.334   6.385   9.670 -1.2610  1.2722 -1.8467
  415MOL0     H57210   8.209   6.509   9.678 -1.2674 -0.1039  0.1138
  415MOL0     H57211   8.250   6.334   9.924  1.8771  0.4916  1.9921
  415MOL0     H57212   8.193   6.502   9.911 -0.6301 -1.8620  1.2330
  415MOL0     H57213   8.414   6.586   9.844 -2.7493 -0.5495 -1.6454
  415MOL0     H57214   8.401   6.524  10.013 -2.0627 -3.0705  0.5072
  415MOL0     H57215   8.531   6.375   9.775 -1.7819 -0.8898  0.0351
  415MOL0     H57216   8.493   6.306   9.934  0.4276 -0.1466 -1.1765
  415MOL0     H57217   8.655   6.562   9.888  2.7160 -0.4013 -1.9238
  415MOL0     H57218   8.639   6.481  10.048  1.4533  1.1201 -0.5894
  415MOL0     H57219   8.810   6.420   9.679  0.7724 -0.0033  0.6825
  415MOL0     H57220   8.940   6.141   9.608 -1.2300  2.3694  0.7872
  415MOL0     H57221   9.058   6.117   9.733  0.5476  0.8236  0.5169
  415MOL0     H57222   9.032   6.366   9.553 -1.1097 -0.2554  0.8659
  415MOL0     H57223   9.144   6.364   9.676  0.8733 -0.5083 -0.8338
  415MOL0     H57224   9.127   6.132   9.482  0.6999  0.3576 -0.6464
  415MOL0     H57225   9.180   6.286   9.426 -1.2956 -1.0989  0.8936
  415MOL0     H57226   9.370   6.136   9.498  1.4631  0.0567  0.9096
  415MOL0     H57227   9.385   6.278   9.575  2.2024 -2.0070  0.0972
  415MOL0     H57228   9.279   5.964   9.476  0.0365 -0.2897 -0.1341
  415MOL0     H57229   9.305   5.777   9.355 -0.4095 -1.6033 -2.3991
  415MOL0     H57230   9.213   5.643   9.395 -0.7439  1.2888 -2.6879
  415MOL0     H57231   9.389   5.634   9.440 -2.5996 -2.1596  3.3399
  415MOL0     H57232   9.492   5.298   9.619 -0.5809 -0.9623 -0.3480
  415MOL0     H57233   9.472   5.057   9.664  0.1107 -1.3065  0.5695
  415MOL0     H57234   9.313   4.911   9.660  0.8481 -1.2557  0.4403
  415MOL0     H57235   9.306   4.776   9.759  4.8220  1.0487  0.3547
  415MOL0     H57236   9.095   4.909   9.867 -1.5156 -1.4969 -0.6417
  415MOL0     H57237   9.139   5.022   9.736  0.8219  0.8859  2.0750
  415MOL0     H57238   9.057   4.722   9.708  1.0638  0.8572  3.5593
  415MOL0     H57239   9.118   4.838   9.590  1.1548  0.8505  1.6411
  415MOL0     H57240   8.871   4.805   9.587 -2.3662  2.9975 -1.0613
  415MOL0     H57241   8.912   4.964   9.621 -0.6662  0.4967  1.2233
  415MOL0     H57242   8.885   4.957   9.865 -1.6215  1.7926 -0.7800
  415MOL0     H57243   8.744   4.941   9.771 -0.9940 -2.6363 -0.5378
  415MOL0     H57244   8.908   4.715   9.899  0.3768  0.1581 -1.1048
  415MOL0     H57245   8.768   4.692   9.792  0.1620  1.5615 -1.2432
  415MOL0     H57246   8.624   4.819   9.959 -0.7925  0.1993  0.8001
  415MOL0     H57247   8.763   4.858  10.053 -1.6789 -0.8558  1.5143
  415MOL0     H57248   8.789   4.596  10.081  1.4827  2.3353 -2.8319
  415MOL0     H57249   8.621   4.584  10.059  1.1775 -1.8233  1.1141
  415MOL0     H57250   9.303   5.155  10.050  2.4190 -2.1502  0.6921
  415MOL0     H57251   9.318   5.388   9.993 -1.5336  0.8128 -2.4936
  415MOL0     H57252   9.339   5.705   9.892  1.6959 -0.9683 -0.5282
  415MOL0     H57253   9.332   5.947   9.901 -0.7499 -2.6606  0.5863
  415MOL0     H57254   7.940   5.907   9.932  1.7460 -1.2601  0.8932
  415MOL0     H57255   7.763   5.849  10.080  0.7936  0.2652  1.5845
  415MOL0     H57256   7.468   5.861  10.343 -2.8757 -2.3057  0.1815
  415MOL0     H57257   7.256   5.796  10.441  0.4393 -1.3613  2.3168
  415MOL0     H57258   6.997   5.945  10.472 -1.2824  2.6041  1.4402
  415MOL0     H57259   7.032   5.798  10.571  1.5441  0.3014 -1.2863
  415MOL0     H57260   6.803   5.905  10.597 -0.1074  1.3590 -1.3628
  415MOL0     H57261   6.873   6.051  10.641  1.2526  0.3871  1.2354
  415MOL0     H57262   6.949   5.971  10.870  0.4146 -1.4077  0.9474
  415MOL0     H57263   6.788   5.929  10.832 -0.4015 -4.5841  1.3152
  415MOL0     H57264   6.904   5.746  10.949 -2.4388  2.3634  0.8196
  415MOL0     H57265   7.011   5.728  10.810 -0.6128 -0.1479 -2.1299
  415MOL0     H57266   6.608   5.571  10.719 -1.1085  2.5092 -0.9955
  415MOL0     H57267   7.263   6.166  10.650  1.7914  0.5537  0.8212
  415MOL0     H57268   7.556   6.303  10.523 -1.0290 -3.0441 -1.5015
  415MOL0     H57269   7.431   6.325  10.654 -0.1297  3.1125 -0.7162
  415MOL0     H57270   7.583   6.231  10.684  0.9191 -2.9445 -1.4977
  416MOL0     O57271  10.249   5.662  10.147  0.4206  0.8579  0.4406
  416MOL0     C57272  10.222   5.544  10.161  0.4156 -0.5333  0.3314
  416MOL0     O57273  10.099   5.488  10.130 -0.4341 -0.2452 -0.0304
  416MOL0     C57274  10.002   5.570  10.083 -0.3522 -0.1959 -0.0449
  416MOL0     C57275   9.873   5.526  10.112 -0.8861 -0.9745 -0.5844
  416MOL0     C57276   9.761   5.611  10.074 -0.9161 -0.7247 -0.2468
  416MOL0     C57277   9.781   5.716   9.992  0.0304 -1.1076 -0.5960
  416MOL0     O57278   9.671   5.787   9.944  0.3777  0.5764 -0.5220
  416MOL0     C57279   9.681   5.895   9.857  0.0630 -0.2488  0.3185
  416MOL0     C57280   9.694   6.017   9.937 -0.3499  0.4949 -0.4959
  416MOL0     C57281   9.679   6.148   9.867 -0.1508  0.4987  1.1043
  416MOL0     C57282   9.658   6.253   9.973  0.0483 -0.2224 -0.6502
  416MOL0     C57283   9.646   6.390   9.918  0.9928 -0.3174 -0.5564
  416MOL0     C57284   9.526   6.407   9.835  0.9393 -0.1852  1.4383
  416MOL0     C57285   9.470   6.555   9.825  0.0093  0.4070 -0.5768
  416MOL0     C57286   9.405   6.596   9.960 -0.2730  0.6092 -0.3695
  416MOL0     N57287   9.369   6.735   9.972  0.1055 -0.3873 -0.3107
  416MOL0     C57288   9.431   6.819  10.051 -0.7981  0.0506  0.0429
  416MOL0     C57289   9.350   6.927  10.064  0.2537 -0.0918 -0.5643
  416MOL0     C57290   9.372   7.054  10.133 -0.2478  0.3353 -0.2318
  416MOL0     C57291   9.407   7.163  10.021  0.2214 -0.4199  0.0711
  416MOL0     C57292   9.359   7.298  10.065 -0.4519 -0.0284  0.0333
  416MOL0     C57293   9.439   7.339  10.192  0.7961  0.1432 -0.3898
  416MOL0     O57294   9.378   7.464  10.228  1.1135 -0.8751  0.0603
  416MOL0     C57295   9.449   7.538  10.315  0.5631  0.3404 -0.3959
  416MOL0     C57296   9.438   7.677  10.299 -1.2381  0.1089 -0.2533
  416MOL0     C57297   9.510   7.771  10.373  0.4066  0.4688  0.6561
  416MOL0     C57298   9.508   7.917  10.339  0.2959  0.5038  0.1109
  416MOL0     C57299   9.597   7.718  10.470 -0.1933  0.6855 -0.0357
  416MOL0     C57300   9.681   7.802  10.559  0.0251 -0.3254 -0.6961
  416MOL0     O57301   9.695   7.746  10.690  0.2425 -0.4786  0.3866
  416MOL0     C57302   9.798   7.811  10.755  0.5750 -1.0647  0.8137
  416MOL0     C57303   9.932   7.789  10.742 -0.4161  0.2927  0.0524
  416MOL0     C57304  10.026   7.874  10.802 -0.5781  0.3858 -0.4650
  416MOL0     C57305   9.991   7.978  10.882 -0.7190 -0.0126  0.1173
  416MOL0     O57306  10.083   8.050  10.954 -0.2599 -0.2718 -0.3679
  416MOL0     C57307  10.161   7.969  11.045  0.8186  0.2674 -0.7804
  416MOL0     C57308  10.270   8.042  11.120 -1.0344  0.6899 -0.0934
  416MOL0     C57309  10.414   8.050  11.055 -0.0987 -0.1468  0.8540
  416MOL0     C57310  10.514   8.116  11.143 -0.3400  0.2501  0.0609
  416MOL0     C57311  10.650   8.132  11.067  0.0941  0.1434 -0.7918
  416MOL0     C57312  10.641   8.232  10.957 -0.2211  0.0535 -0.3844
  416MOL0     C57313  10.781   8.274  10.906  0.0085 -0.4141 -0.2084
  416MOL0     C57314  10.772   8.388  10.804  0.3025  0.6474  0.4746
  416MOL0    Cl57315  10.714   8.320  10.656 -0.3059  0.3184  0.0261
  416MOL0     C57316   9.858   8.011  10.889 -0.9082  0.3388  0.7123
  416MOL0     C57317   9.760   7.930  10.828  0.1285  0.6975  0.0631
  416MOL0     O57318   9.743   7.896  10.510  0.5519  0.3166  0.7580
  416MOL0     C57319   9.602   7.573  10.491 -0.1544 -0.3249  1.0415
  416MOL0     C57320   9.524   7.489  10.414 -0.3904  0.1994 -0.3285
  416MOL0     N57321   9.238   6.906   9.988  0.5625 -0.1923  0.0796
  416MOL0     N57322   9.247   6.786   9.941 -0.3955  0.8403  0.8364
  416MOL0     C57323   9.908   5.741   9.947  0.1207  0.4186  0.6917
  416MOL0     C57324  10.014   5.677   9.994  0.7833  0.8669 -0.1550
  416MOL0     C57325  10.306   5.457  10.233  0.0296 -0.4588 -0.6170
  416MOL0     C57326  10.237   5.359  10.310 -0.1641 -0.3600  0.8388
  416MOL0     C57327  10.313   5.282  10.405  0.3420  0.0694 -0.1470
  416MOL0     C57328  10.452   5.302  10.413 -0.2606 -0.5388 -0.4370
  416MOL0     O57329  10.520   5.222  10.508  0.5860  0.2384 -0.2407
  416MOL0     C57330  10.660   5.231  10.519 -0.1822  0.0470  0.5240
  416MOL0     C57331  10.720   5.102  10.577 -0.0688  0.4308  0.0471
  416MOL0     C57332  10.874   5.105  10.598 -0.1451  0.5769  0.7535
  416MOL0     C57333  10.920   5.167  10.731  0.4799 -0.3484  0.8244
  416MOL0     C57334  10.942   5.317  10.709 -0.3159  0.8379  0.6675
  416MOL0     C57335  10.936   5.432  10.689 -1.1985  0.0977 -0.3359
  416MOL0     C57336  10.520   5.400  10.335 -0.6737  0.6448  1.0472
  416MOL0     C57337  10.453   5.476  10.242 -0.0060  0.4003  0.3857
  416MOL0     C57338  10.536   5.582  10.166  0.1365 -0.3258  0.7064
  416MOL0     H57339   9.862   5.436  10.172 -2.2617  0.6227  1.7296
  416MOL0     H57340   9.660   5.595  10.109 -0.9082 -1.2618 -0.4574
  416MOL0     H57341   9.584   5.890   9.807 -1.1044  0.8449  2.3263
  416MOL0     H57342   9.755   5.880   9.778 -1.2354  0.0819 -1.0055
  416MOL0     H57343   9.611   6.007  10.008 -1.3119  2.5800 -1.2363
  416MOL0     H57344   9.788   6.018   9.992 -0.8003 -2.8772  0.5958
  416MOL0     H57345   9.762   6.179   9.803 -2.1097 -1.1209 -2.5225
  416MOL0     H57346   9.589   6.147   9.806  0.1425  2.8592  0.5170
  416MOL0     H57347   9.571   6.230  10.036  0.2537  0.6537 -0.0240
  416MOL0     H57348   9.749   6.255  10.033  0.5929  0.0138 -1.4607
  416MOL0     H57349   9.725   6.420   9.849  0.9649  1.5928  0.1982
  416MOL0     H57350   9.652   6.466   9.996  0.8805  1.2170 -1.9990
  416MOL0     H57351   9.538   6.354   9.740  0.6708 -0.7586  1.7161
  416MOL0     H57352   9.450   6.347   9.885  1.0366  0.1141  1.9492
  416MOL0     H57353   9.391   6.569   9.750  0.2628 -0.0705 -0.9423
  416MOL0     H57354   9.549   6.626   9.802 -1.0988  1.4374 -1.3222
  416MOL0     H57355   9.312   6.539   9.969  0.2618 -0.7635 -2.4987
  416MOL0     H57356   9.460   6.556  10.046 -0.6387 -1.6292 -1.1030
  416MOL0     H57357   9.529   6.809  10.098 -2.3074 -1.1642  3.1601
  416MOL0     H57358   9.453   7.039  10.204 -1.2551 -3.1486  0.3907
  416MOL0     H57359   9.277   7.073  10.184  0.4239 -0.1614  1.2467
  416MOL0     H57360   9.513   7.155   9.995  0.2038 -0.7081  0.0929
  416MOL0     H57361   9.346   7.144   9.933  0.7087  2.5631 -1.0161
  416MOL0     H57362   9.377   7.366   9.981  0.8637 -0.6171 -0.1808
  416MOL0     H57363   9.252   7.299  10.088 -0.7869  1.5954 -1.3933
  416MOL0     H57364   9.417   7.269  10.274 -1.9106  1.6712  0.3115
  416MOL0     H57365   9.547   7.356  10.194  1.2559 -1.8975  3.5881
  416MOL0     H57366   9.364   7.705  10.224 -1.7320 -1.2320 -0.2965
  416MOL0     H57367   9.436   7.941  10.259  1.4761 -0.4410 -1.2862
  416MOL0     H57368   9.604   7.942  10.293  0.2048 -1.4164 -1.2548
  416MOL0     H57369   9.502   7.976  10.431  0.1839  0.0281  0.4140
  416MOL0     H57370   9.972   7.714  10.674 -5.3468 -2.2262 -0.5444
  416MOL0     H57371  10.134   7.863  10.806 -0.3415  2.7589  2.2274
  416MOL0     H57372  10.092   7.921  11.116  0.4912  0.6356 -0.8475
  416MOL0     H57373  10.216   7.884  11.004  2.0481  0.9890 -0.6537
  416MOL0     H57374  10.241   8.147  11.131  3.1096  1.9107  0.8533
  416MOL0     H57375  10.286   7.995  11.217 -3.9596  0.3192  0.3191
  416MOL0     H57376  10.393   8.107  10.964 -1.8058  0.2475  1.4553
  416MOL0     H57377  10.445   7.953  11.015 -0.6028  0.1902 -0.3936
  416MOL0     H57378  10.532   8.053  11.231  1.8844 -0.4650 -0.8330
  416MOL0     H57379  10.473   8.209  11.182  1.2388  0.0603  2.3684
  416MOL0     H57380  10.728   8.159  11.138 -1.1731  0.9191  0.3494
  416MOL0     H57381  10.677   8.035  11.025 -1.0805 -0.3297 -0.5108
  416MOL0     H57382  10.599   8.325  10.997  0.5788  0.7879 -1.2190
  416MOL0     H57383  10.581   8.202  10.871  1.4872  0.3724 -1.7381
  416MOL0     H57384  10.827   8.187  10.858  1.8364 -0.2514  1.1381
  416MOL0     H57385  10.852   8.294  10.987 -0.2388 -2.7338  0.6532
  416MOL0     H57386  10.871   8.430  10.781  0.8639 -0.4843  0.7185
  416MOL0     H57387  10.716   8.473  10.842  2.8162  3.3515 -1.4084
  416MOL0     H57388   9.831   8.094  10.954 -2.3436 -1.1547  2.1165
  416MOL0     H57389   9.659   7.947  10.865 -0.8897 -1.5910 -1.3708
  416MOL0     H57390   9.669   7.529  10.564  0.5722 -1.4113 -0.2317
  416MOL0     H57391   9.530   7.382  10.431 -5.0944 -0.1710  0.0774
  416MOL0     H57392   9.938   5.815   9.874  0.5338  1.6369  2.0621
  416MOL0     H57393  10.112   5.704   9.955  0.7308  1.7977  0.3041
  416MOL0     H57394  10.131   5.345  10.293 -0.0286  0.5289 -0.9089
  416MOL0     H57395  10.252   5.212  10.460 -2.1192  0.4007 -2.2863
  416MOL0     H57396  10.718   5.249  10.429  0.4602 -1.1750  0.6765
  416MOL0     H57397  10.677   5.313  10.589  0.0007  0.8991 -0.4985
  416MOL0     H57398  10.695   5.016  10.513  1.8628  0.7920 -1.2530
  416MOL0     H57399  10.678   5.084  10.677 -0.2658 -2.4871 -0.4776
  416MOL0     H57400  10.905   5.000  10.602  1.9254  1.1028 -0.4093
  416MOL0     H57401  10.915   5.149  10.507 -1.4229 -2.1839 -1.2866
  416MOL0     H57402  11.007   5.121  10.778  0.9142 -2.4669 -1.7690
  416MOL0     H57403  10.837   5.149  10.799  0.6353  0.2300  1.1795
  416MOL0     H57404  10.935   5.532  10.652 -2.4952  0.9442  1.8238
  416MOL0     H57405  10.625   5.425  10.347 -0.8462  0.9515  1.9418
  416MOL0     H57406  10.499   5.587  10.063 -0.5694  1.0289  0.9948
  416MOL0     H57407  10.534   5.685  10.203 -0.6436  0.4668 -1.3969
  416MOL0     H57408  10.638   5.543  10.173  1.6464  3.2902  0.8193
  417MOL0     O57409   6.643   6.141   4.724  0.0948 -0.1644 -0.1061
  417MOL0     C57410   6.572   6.211   4.798 -0.4674  1.6531 -0.2575
  417MOL0     O57411   6.445   6.178   4.841  0.3348  0.4086  0.0045
  417MOL0     C57412   6.386   6.066   4.780  0.0884  0.2748 -0.7751
  417MOL0     C57413   6.418   5.942   4.812  0.5517  0.7129 -0.7186
  417MOL0     C57414   6.375   5.835   4.734  0.6465 -0.6215 -0.7318
  417MOL0     C57415   6.282   5.853   4.630  0.0137  0.3150  0.3781
  417MOL0     O57416   6.236   5.736   4.574 -0.0686  0.3764  0.2346
  417MOL0     C57417   6.255   5.728   4.435  0.4932  0.3241  0.9187
  417MOL0     C57418   6.396   5.677   4.401 -0.4384  1.0494  0.2394
  417MOL0     C57419   6.421   5.521   4.452 -0.6050  0.4343 -0.7288
  417MOL0     C57420   6.555   5.451   4.427 -0.8618  0.8665 -0.6641
  417MOL0     C57421   6.606   5.463   4.281  0.2336  0.3242 -0.0480
  417MOL0     C57422   6.508   5.407   4.183  1.1443  0.2384  0.9412
  417MOL0     C57423   6.582   5.330   4.069 -0.6516  0.6246 -0.2175
  417MOL0     C57424   6.543   5.355   3.928 -0.1713  0.3037 -0.1686
  417MOL0     N57425   6.403   5.367   3.914  0.3530  0.3169  0.8442
  417MOL0     C57426   6.310   5.265   3.879 -0.3666  0.1718 -0.4321
  417MOL0     C57427   6.198   5.319   3.833  0.7572  0.4936  0.5416
  417MOL0     C57428   6.070   5.251   3.798  0.9342  0.1821 -0.2694
  417MOL0     C57429   6.081   5.184   3.652  0.1930 -0.7812 -0.3302
  417MOL0     C57430   6.141   5.044   3.624  0.6208  0.3326  0.1794
  417MOL0     C57431   6.092   4.938   3.728 -0.6974  0.3043  0.4526
  417MOL0     O57432   6.134   4.805   3.693  0.6969  0.1784  0.6496
  417MOL0     C57433   6.044   4.707   3.665 -0.1629  0.2082  0.1090
  417MOL0     C57434   6.077   4.573   3.679 -0.0635  0.7916  0.2964
  417MOL0     C57435   5.997   4.458   3.635  0.6038  0.4201  0.6476
  417MOL0     C57436   6.061   4.319   3.638 -0.8411  0.0068 -0.0358
  417MOL0     C57437   5.875   4.485   3.578  0.8275 -0.9395 -0.0800
  417MOL0     C57438   5.785   4.384   3.528 -0.5488  0.0411  0.5102
  417MOL0     O57439   5.790   4.251   3.576  0.3112 -0.3075  0.1065
  417MOL0     C57440   5.672   4.182   3.602 -0.2308  0.0519 -0.2407
  417MOL0     C57441   5.707   4.064   3.663 -0.4006  0.2737 -0.2032
  417MOL0     C57442   5.605   3.989   3.715 -0.0967  1.3141  0.3662
  417MOL0     C57443   5.464   4.018   3.699  0.3733  0.8101 -0.2299
  417MOL0     O57444   5.372   3.936   3.774  0.5079 -0.0669 -0.4961
  417MOL0     C57445   5.235   3.940   3.739 -0.1217  1.0127 -0.3962
  417MOL0     C57446   5.207   3.828   3.636  1.2178  1.1512  0.4003
  417MOL0     C57447   5.216   3.696   3.709 -0.3823 -0.2566 -0.0042
  417MOL0     C57448   5.186   3.573   3.622 -0.2629  0.8291 -0.7996
  417MOL0     C57449   5.184   3.443   3.718  0.2613  0.3017  0.3283
  417MOL0     C57450   5.101   3.339   3.636 -0.7439 -0.2704 -0.5239
  417MOL0     C57451   5.145   3.314   3.496 -1.0579  0.0386 -0.6158
  417MOL0     C57452   5.087   3.183   3.455 -0.6424  1.0722  0.3829
  417MOL0    Cl57453   4.905   3.205   3.452  0.1247 -0.1471  0.5988
  417MOL0     C57454   5.440   4.144   3.635  0.3473 -0.0328 -0.2568
  417MOL0     C57455   5.543   4.231   3.583  0.4614  0.3471  0.2753
  417MOL0     O57456   5.710   4.419   3.434 -0.2244  0.2875  0.9634
  417MOL0     C57457   5.837   4.620   3.561  0.0727 -0.2730  0.1375
  417MOL0     C57458   5.922   4.730   3.596 -0.1952  0.1778  0.1972
  417MOL0     N57459   6.220   5.453   3.821 -0.3289 -0.2051 -0.2170
  417MOL0     N57460   6.335   5.480   3.872  0.6119 -0.2664 -0.5976
  417MOL0     C57461   6.239   5.980   4.609  0.4718 -0.5609  0.0684
  417MOL0     C57462   6.288   6.088   4.690 -0.7646 -0.2789  0.8389
  417MOL0     C57463   6.631   6.338   4.851 -0.8584 -1.0245 -0.0921
  417MOL0     C57464   6.767   6.360   4.838 -0.8707 -0.9019  0.6008
  417MOL0     C57465   6.837   6.479   4.886  0.7762 -0.1476 -0.2156
  417MOL0     C57466   6.754   6.578   4.948  0.7299  1.9736 -0.1286
  417MOL0     O57467   6.818   6.678   5.016 -0.2818  0.7296 -0.4244
  417MOL0     C57468   6.898   6.768   4.934 -0.5343 -0.4451 -0.0014
  417MOL0     C57469   6.935   6.909   4.998 -0.0981  0.4166  0.1912
  417MOL0     C57470   6.803   6.989   4.995  0.9063  0.1970 -0.0295
  417MOL0     C57471   6.720   6.958   5.125  0.4692  0.9334 -1.2066
  417MOL0     C57472   6.588   6.908   5.104  1.0889  1.3610 -0.1292
  417MOL0     C57473   6.475   6.873   5.063  0.4837 -0.9274  0.1231
  417MOL0     C57474   6.622   6.548   4.971 -0.3530  0.4478 -0.1757
  417MOL0     C57475   6.558   6.437   4.925 -0.1225  0.1672 -0.7558
  417MOL0     C57476   6.406   6.434   4.958  0.0995 -0.1581 -0.2101
  417MOL0     H57477   6.479   5.913   4.897 -0.7337  2.6640  0.9369
  417MOL0     H57478   6.408   5.739   4.774 -3.0482 -1.5170  0.6115
  417MOL0     H57479   6.241   5.823   4.383  0.5421 -1.5676 -2.8646
  417MOL0     H57480   6.170   5.679   4.386  2.0114  0.0364 -1.5923
  417MOL0     H57481   6.422   5.695   4.297 -1.2729  0.9019  0.0005
  417MOL0     H57482   6.470   5.727   4.465  2.4515 -0.4721 -1.6506
  417MOL0     H57483   6.413   5.533   4.561  2.5042 -0.6897 -0.2755
  417MOL0     H57484   6.349   5.450   4.412  0.0997 -0.7548  0.0372
  417MOL0     H57485   6.635   5.478   4.497 -0.9023 -5.2885  2.5300
  417MOL0     H57486   6.544   5.348   4.465 -0.4879  1.9493  2.7503
  417MOL0     H57487   6.699   5.406   4.271 -0.1958 -0.2838 -0.6154
  417MOL0     H57488   6.614   5.571   4.262 -4.9220  0.4401 -3.4324
  417MOL0     H57489   6.430   5.342   4.222  1.0836  0.9349  2.0361
  417MOL0     H57490   6.453   5.495   4.149  2.7763  0.4050 -1.6029
  417MOL0     H57491   6.571   5.222   4.084  0.0129  0.8685  2.4664
  417MOL0     H57492   6.689   5.355   4.076 -0.9002  1.1292  2.7574
  417MOL0     H57493   6.598   5.444   3.895  1.0187  0.1729  1.3593
  417MOL0     H57494   6.575   5.274   3.861 -2.4965 -1.3179  0.5492
  417MOL0     H57495   6.324   5.162   3.908  0.9075  0.8773  1.6607
  417MOL0     H57496   5.985   5.319   3.796 -0.4758 -1.4832  0.3713
  417MOL0     H57497   6.054   5.173   3.873 -0.4814  0.1802 -0.5470
  417MOL0     H57498   5.979   5.178   3.612 -0.1130  0.4657  0.1953
  417MOL0     H57499   6.147   5.251   3.596 -0.5714  3.2380  3.0059
  417MOL0     H57500   6.107   5.002   3.528  1.5590  1.8707 -0.8764
  417MOL0     H57501   6.249   5.052   3.639  0.3674 -2.0372  4.6660
  417MOL0     H57502   6.141   4.952   3.824  1.9404 -2.8155 -0.2248
  417MOL0     H57503   5.984   4.940   3.737 -0.9967 -0.4767 -1.9930
  417MOL0     H57504   6.172   4.540   3.720 -1.7554 -4.1586  0.9261
  417MOL0     H57505   6.016   4.254   3.713 -1.1769  2.6240  2.2141
  417MOL0     H57506   6.169   4.331   3.653 -0.8016 -0.3949 -0.0111
  417MOL0     H57507   6.052   4.275   3.538  0.3309 -1.2280  0.3677
  417MOL0     H57508   5.814   4.055   3.675 -0.5243  0.0145  0.7527
  417MOL0     H57509   5.639   3.899   3.765  1.9045  2.0968  0.4907
  417MOL0     H57510   5.181   3.928   3.833 -0.1568 -1.1915 -0.6417
  417MOL0     H57511   5.197   4.031   3.693 -1.6198  0.7172  0.2176
  417MOL0     H57512   5.104   3.835   3.601  1.2413 -0.7431 -0.1354
  417MOL0     H57513   5.280   3.828   3.554  0.3378  2.6695 -0.4270
  417MOL0     H57514   5.158   3.703   3.801 -0.5763 -0.6856 -0.0944
  417MOL0     H57515   5.319   3.690   3.747 -0.6342  0.8399  0.8777
  417MOL0     H57516   5.255   3.558   3.538  0.2268  1.9536 -0.6162
  417MOL0     H57517   5.090   3.590   3.572 -0.9295 -1.6497 -0.5206
  417MOL0     H57518   5.288   3.409   3.727 -0.4397 -1.8991  0.6247
  417MOL0     H57519   5.131   3.465   3.811 -2.0662 -1.8994 -0.3840
  417MOL0     H57520   4.999   3.379   3.634  0.4814  3.4143  1.8640
  417MOL0     H57521   5.110   3.242   3.685 -0.9541  0.9011  1.9425
  417MOL0     H57522   5.253   3.298   3.482 -1.1619 -0.9375 -0.3810
  417MOL0     H57523   5.107   3.383   3.420 -2.4429  0.5989  0.5518
  417MOL0     H57524   5.113   3.097   3.516  0.5202  0.8785 -0.3508
  417MOL0     H57525   5.128   3.155   3.358  3.7744 -0.0504  2.3604
  417MOL0     H57526   5.345   4.197   3.638 -1.3873 -2.9187 -0.1846
  417MOL0     H57527   5.526   4.323   3.529  0.8935  0.2025 -0.1127
  417MOL0     H57528   5.745   4.648   3.512  0.1098 -0.4482 -0.0322
  417MOL0     H57529   5.882   4.830   3.580 -1.2074  0.0811  1.8673
  417MOL0     H57530   6.154   6.002   4.545  1.0106  0.4966 -0.3186
  417MOL0     H57531   6.247   6.187   4.673  0.0472 -0.2935 -1.4987
  417MOL0     H57532   6.829   6.286   4.789  0.6823  1.1738 -0.7595
  417MOL0     H57533   6.946   6.482   4.883  0.8691 -0.1827  1.5816
  417MOL0     H57534   6.997   6.721   4.934 -1.1848 -1.8603  0.7738
  417MOL0     H57535   6.865   6.773   4.830 -0.6075 -3.5892 -0.2175
  417MOL0     H57536   7.017   6.951   4.939 -1.0628  1.0794 -0.7164
  417MOL0     H57537   6.980   6.909   5.098 -2.4469  2.1859  1.3688
  417MOL0     H57538   6.830   7.094   4.983  1.8325  0.1597  1.4855
  417MOL0     H57539   6.749   6.963   4.903  0.3301 -0.4850  0.4867
  417MOL0     H57540   6.720   7.043   5.194 -0.5397 -1.0141  1.3867
  417MOL0     H57541   6.772   6.883   5.186 -0.3440  2.5226  1.6406
  417MOL0     H57542   6.381   6.848   5.018 -0.0036  2.4751 -1.0893
  417MOL0     H57543   6.572   6.620   5.035  0.7277 -1.7884  3.4695
  417MOL0     H57544   6.340   6.401   4.877  0.4816 -0.8654 -0.2435
  417MOL0     H57545   6.400   6.373   5.049  1.7073  0.1156  0.0993
  417MOL0     H57546   6.362   6.531   4.985 -0.6112 -0.6045  0.2836
  418MOL0     O57547   3.813   4.390   4.837 -0.3840  0.1279  0.4283
  418MOL0     C57548   3.788   4.319   4.936  0.0873 -0.0143  0.1028
  418MOL0     O57549   3.763   4.188   4.937  0.1001 -0.0194 -0.2697
  418MOL0     C57550   3.732   4.132   4.817 -0.0790 -0.4056  0.2359
  418MOL0     C57551   3.839   4.092   4.738 -0.6824 -0.8342 -0.0615
  418MOL0     C57552   3.816   4.010   4.627  0.4601 -0.4316  1.1985
  418MOL0     C57553   3.686   3.978   4.588 -0.0442  0.1852 -0.1283
  418MOL0     O57554   3.673   3.902   4.477  0.1729  0.3117 -1.1358
  418MOL0     C57555   3.590   3.784   4.495 -0.2711 -0.5760  0.2356
  418MOL0     C57556   3.630   3.660   4.407  0.2349 -0.6451 -0.4534
  418MOL0     C57557   3.520   3.579   4.350 -0.0096  0.2882  0.1618
  418MOL0     C57558   3.444   3.500   4.456 -0.2903 -0.9464 -0.1105
  418MOL0     C57559   3.325   3.437   4.382  0.2048  0.0257 -0.1174
  418MOL0     C57560   3.245   3.333   4.461  0.6463 -0.8893 -0.3371
  418MOL0     C57561   3.152   3.254   4.377  0.4401  0.1148  0.3224
  418MOL0     C57562   3.100   3.143   4.472  1.2247  0.3396  0.5645
  418MOL0     N57563   2.966   3.169   4.536  0.5801  0.1721 -0.0505
  418MOL0     C57564   2.846   3.134   4.497  0.5931 -0.0371  1.2109
  418MOL0     C57565   2.766   3.181   4.602  0.5475 -0.4023  0.8500
  418MOL0     C57566   2.622   3.175   4.577  0.5375  0.6281 -0.9748
  418MOL0     C57567   2.561   3.298   4.506 -0.5180  0.9511  0.5028
  418MOL0     C57568   2.539   3.417   4.595  0.4715  0.4163 -0.4666
  418MOL0     C57569   2.483   3.529   4.512  0.8421 -0.3873 -0.2206
  418MOL0     O57570   2.342   3.516   4.492  0.4652  1.1106 -0.0360
  418MOL0     C57571   2.266   3.623   4.449 -0.0464  0.1198  0.2039
  418MOL0     C57572   2.315   3.747   4.399 -0.0994 -0.6424 -0.8753
  418MOL0     C57573   2.229   3.846   4.356 -0.5478 -0.2696 -0.2426
  418MOL0     C57574   2.290   3.972   4.313  0.6663 -0.7757  0.4174
  418MOL0     C57575   2.090   3.824   4.360  0.0091 -0.1046  0.1271
  418MOL0     C57576   2.001   3.917   4.295  0.2740  0.1157  0.0818
  418MOL0     O57577   1.913   3.969   4.386 -0.4266 -0.1964 -0.8530
  418MOL0     C57578   1.854   4.085   4.352  1.4919  0.3411  1.4336
  418MOL0     C57579   1.715   4.078   4.355  0.7763 -0.3974 -0.0615
  418MOL0     C57580   1.636   4.183   4.320 -0.1432 -0.4381 -0.4251
  418MOL0     C57581   1.686   4.312   4.298 -0.1637 -1.1346  1.4816
  418MOL0     O57582   1.606   4.415   4.289 -0.0174  0.0255 -0.2261
  418MOL0     C57583   1.570   4.479   4.410 -0.4586 -1.5821  0.1386
  418MOL0     C57584   1.548   4.624   4.377 -0.6499  0.2321 -0.2711
  418MOL0     C57585   1.681   4.708   4.357  0.0023  0.6632  0.1825
  418MOL0     C57586   1.657   4.848   4.296 -0.0037 -0.9790  1.1720
  418MOL0     C57587   1.774   4.946   4.261 -0.3989  0.4624 -0.4974
  418MOL0     C57588   1.830   5.035   4.376  0.7736 -0.0714 -0.1615
  418MOL0     C57589   1.963   5.099   4.321  0.8538 -0.5534  0.1672
  418MOL0     C57590   1.931   5.174   4.191 -0.7001  0.0547 -0.5736
  418MOL0    Cl57591   2.039   5.320   4.173 -0.3566  0.0182 -0.1501
  418MOL0     C57592   1.826   4.329   4.295 -0.1428  0.7381  0.1597
  418MOL0     C57593   1.903   4.218   4.320 -0.9536  0.5494 -0.1235
  418MOL0     O57594   2.010   3.946   4.176  0.2369  0.1177  0.5118
  418MOL0     C57595   2.044   3.692   4.391 -0.8772  1.0163  0.5529
  418MOL0     C57596   2.129   3.594   4.434  0.4483  0.0641 -0.5056
  418MOL0     N57597   2.841   3.255   4.691 -0.4390 -0.2613 -0.5139
  418MOL0     N57598   2.961   3.251   4.649 -0.2313 -0.8959  0.5013
  418MOL0     C57599   3.577   4.030   4.660 -0.8384 -0.4821 -0.8017
  418MOL0     C57600   3.601   4.108   4.773 -0.3451 -0.2910  0.2296
  418MOL0     C57601   3.766   4.389   5.063 -0.0991 -0.7666  0.8254
  418MOL0     C57602   3.672   4.337   5.161 -0.7688 -0.1602  0.0648
  418MOL0     C57603   3.639   4.426   5.274 -0.3024 -0.1337 -0.4907
  418MOL0     C57604   3.700   4.552   5.292  0.3958 -0.1746  0.3156
  418MOL0     O57605   3.644   4.621   5.398 -0.8268 -0.6408  0.6673
  418MOL0     C57606   3.647   4.768   5.386 -0.3832  0.7987  0.0484
  418MOL0     C57607   3.506   4.816   5.429  0.3459 -0.1987  0.8679
  418MOL0     C57608   3.387   4.762   5.347  0.2096 -0.4051  0.5920
  418MOL0     C57609   3.260   4.828   5.396  0.3119  0.8734 -0.4571
  418MOL0     C57610   3.134   4.773   5.337 -0.3166 -0.5978  0.2409
  418MOL0     C57611   3.032   4.730   5.284 -0.0514  0.0343  0.5772
  418MOL0     C57612   3.801   4.594   5.210 -0.3528 -0.2567  0.7315
  418MOL0     C57613   3.839   4.513   5.097  0.2337  0.3071  0.0886
  418MOL0     C57614   3.971   4.567   5.034  0.0955  0.1806 -0.5274
  418MOL0     H57615   3.940   4.115   4.770 -0.0948  2.1793 -3.4310
  418MOL0     H57616   3.896   3.960   4.573  0.2546 -0.9260  1.3423
  418MOL0     H57617   3.484   3.804   4.475 -0.6579 -1.9808  0.7661
  418MOL0     H57618   3.597   3.752   4.599  0.9739  1.4223  0.8425
  418MOL0     H57619   3.670   3.712   4.320 -3.2646  1.4807 -0.9543
  418MOL0     H57620   3.703   3.605   4.467  0.6522  0.4446  0.0594
  418MOL0     H57621   3.450   3.646   4.301  0.5876  1.2304  0.5716
  418MOL0     H57622   3.549   3.511   4.270 -2.2990  0.9008 -1.2737
  418MOL0     H57623   3.503   3.415   4.490 -0.5655 -2.4458 -3.0529
  418MOL0     H57624   3.423   3.564   4.542  0.8100  1.2867 -1.4089
  418MOL0     H57625   3.370   3.391   4.294  4.1453 -1.1555  2.2675
  418MOL0     H57626   3.270   3.527   4.351  1.8801  0.9387 -0.6003
  418MOL0     H57627   3.316   3.260   4.500  0.3024 -1.2888 -0.4512
  418MOL0     H57628   3.195   3.389   4.540  3.1928 -1.3822  1.7643
  418MOL0     H57629   3.186   3.214   4.281 -1.3871 -0.8910  0.0423
  418MOL0     H57630   3.074   3.327   4.353  0.8844  0.4437 -0.1715
  418MOL0     H57631   3.080   3.059   4.404 -0.7411  1.8838 -0.8992
  418MOL0     H57632   3.177   3.121   4.546 -0.7036  1.4953  3.0542
  418MOL0     H57633   2.807   3.078   4.412  0.0566 -1.0757  2.1219
  418MOL0     H57634   2.568   3.165   4.671  1.0702  0.9125 -0.6327
  418MOL0     H57635   2.615   3.078   4.526  1.7819  0.8412 -1.5873
  418MOL0     H57636   2.624   3.319   4.419  2.7310  1.0851  2.6843
  418MOL0     H57637   2.465   3.261   4.469  0.9380 -1.7389 -0.9093
  418MOL0     H57638   2.466   3.400   4.674  0.7354  4.3059  0.8299
  418MOL0     H57639   2.636   3.434   4.642  0.2624 -0.5272  0.3210
  418MOL0     H57640   2.486   3.626   4.562 -3.4232 -0.0165 -0.2665
  418MOL0     H57641   2.531   3.523   4.414  0.2848  1.4655 -0.6484
  418MOL0     H57642   2.423   3.754   4.394  0.0336 -2.4876 -1.0658
  418MOL0     H57643   2.261   4.051   4.383  0.6112  2.0908 -2.5442
  418MOL0     H57644   2.256   4.011   4.216 -3.6978 -0.5023  1.8251
  418MOL0     H57645   2.399   3.962   4.319  0.4744 -2.3308  2.1474
  418MOL0     H57646   1.672   3.982   4.380  2.3288 -1.1949 -0.2951
  418MOL0     H57647   1.528   4.172   4.330 -0.3042  1.6030  0.9448
  418MOL0     H57648   1.484   4.436   4.462 -0.3749  0.1317  1.7817
  418MOL0     H57649   1.655   4.473   4.479 -0.7297 -2.2892  0.4242
  418MOL0     H57650   1.479   4.640   4.293 -1.3016 -1.8222 -0.1900
  418MOL0     H57651   1.487   4.666   4.457  1.1850  1.7874  0.3912
  418MOL0     H57652   1.760   4.661   4.297 -0.5050  3.1619 -2.6329
  418MOL0     H57653   1.721   4.728   4.457 -0.9249  1.1500  0.4729
  418MOL0     H57654   1.596   4.910   4.363  2.7540  0.5997  2.4047
  418MOL0     H57655   1.611   4.827   4.199  1.5306  0.0507  0.1773
  418MOL0     H57656   1.854   4.874   4.241 -1.0873 -1.1244  1.9733
  418MOL0     H57657   1.738   4.993   4.169 -1.5830 -1.4940 -1.0841
  418MOL0     H57658   1.851   4.968   4.460  0.3058 -2.7208 -2.0111
  418MOL0     H57659   1.756   5.112   4.401  0.2332 -0.4053 -0.6866
  418MOL0     H57660   2.035   5.022   4.293  0.6344 -1.0982  1.0531
  418MOL0     H57661   1.999   5.165   4.401 -0.7837 -0.1350  0.6137
  418MOL0     H57662   1.827   5.209   4.197 -0.2033  1.3461  0.8959
  418MOL0     H57663   1.939   5.112   4.101 -0.4999 -1.1056  0.2193
  418MOL0     H57664   1.880   4.421   4.276  1.7480 -0.5649 -1.2412
  418MOL0     H57665   2.011   4.233   4.327 -0.4885 -1.9930 -0.7020
  418MOL0     H57666   1.936   3.675   4.389 -0.7696  0.3501 -0.8162
  418MOL0     H57667   2.090   3.501   4.473  0.6190  0.3989  0.5233
  418MOL0     H57668   3.481   3.985   4.639 -0.4489 -2.2691  0.9434
  418MOL0     H57669   3.516   4.130   4.838 -0.4321  1.3569 -0.3774
  418MOL0     H57670   3.620   4.243   5.145 -0.5299  0.1211 -3.0350
  418MOL0     H57671   3.558   4.397   5.341 -2.9114 -0.4044 -3.5124
  418MOL0     H57672   3.723   4.814   5.450 -1.2222  1.2063  0.7736
  418MOL0     H57673   3.655   4.787   5.278  2.6504 -1.2050 -0.2026
  418MOL0     H57674   3.510   4.924   5.411  0.4352 -0.0968  1.4521
  418MOL0     H57675   3.490   4.803   5.537  2.4686  0.7709  1.3501
  418MOL0     H57676   3.403   4.762   5.239 -0.3288  1.8790  0.4661
  418MOL0     H57677   3.383   4.653   5.359  1.6920 -0.7802 -1.6719
  418MOL0     H57678   3.260   4.935   5.375 -2.0868  0.9460 -0.3776
  418MOL0     H57679   3.249   4.826   5.505 -0.6730 -0.9490 -0.5432
  418MOL0     H57680   2.958   4.690   5.218  1.3474 -2.3231  0.3386
  418MOL0     H57681   3.847   4.692   5.224 -5.4586  2.9167 -1.6644
  418MOL0     H57682   3.991   4.538   4.930 -1.0988  2.3824 -1.4409
  418MOL0     H57683   3.961   4.676   5.028 -1.2455  0.0400 -5.3427
  418MOL0     H57684   4.057   4.528   5.090  2.2402  2.5170 -1.9448
  419MOL0     O57685   2.236  10.751   7.942 -0.2658 -0.8351 -0.2761
  419MOL0     C57686   2.239  10.658   8.021  0.6464 -0.8720 -1.0355
  419MOL0     O57687   2.140  10.564   8.041  0.0053 -0.1534  0.5016
  419MOL0     C57688   2.057  10.549   7.933 -0.0596 -0.3460 -0.1705
  419MOL0     C57689   1.923  10.593   7.946  0.0567  0.3078  0.0852
  419MOL0     C57690   1.836  10.578   7.846 -0.6592  0.0622 -0.0580
  419MOL0     C57691   1.877  10.509   7.731  0.5855 -0.8287  0.4821
  419MOL0     O57692   1.807  10.479   7.623 -0.0964  0.3107 -0.1270
  419MOL0     C57693   1.666  10.511   7.607  0.4848 -0.4727 -0.1229
  419MOL0     C57694   1.618  10.446   7.469  1.0040 -0.4626 -0.5311
  419MOL0     C57695   1.469  10.477   7.447 -0.4713  0.5876 -0.6218
  419MOL0     C57696   1.416  10.409   7.322  0.6406  0.9101 -0.3933
  419MOL0     C57697   1.260  10.433   7.307 -0.5760  0.0624 -0.0714
  419MOL0     C57698   1.230  10.575   7.262  0.0582  0.2233  0.2078
  419MOL0     C57699   1.074  10.587   7.252  0.5952  0.0750  0.6615
  419MOL0     C57700   1.017  10.702   7.168 -0.2157 -0.7904  0.2007
  419MOL0     N57701   0.872  10.708   7.175  0.3993  0.3796  0.4390
  419MOL0     C57702   0.797  10.679   7.285  1.2671  0.0533  1.0095
  419MOL0     C57703   0.671  10.682   7.240  0.2162 -0.2049  0.6031
  419MOL0     C57704   0.552  10.624   7.316  0.1509  0.3987  0.1519
  419MOL0     C57705   0.540  10.466   7.292  1.1060 -0.4632 -0.3697
  419MOL0     C57706   0.604  10.397   7.411 -0.9339  0.3340 -1.0253
  419MOL0     C57707   0.586  10.240   7.416  0.6844 -0.3905 -0.0816
  419MOL0     O57708   0.555  10.180   7.289  0.7660 -0.1100 -0.3336
  419MOL0     C57709   0.424  10.180   7.237  1.6105 -0.1883  0.0219
  419MOL0     C57710   0.299  10.192   7.305 -0.4289  0.2587  1.0276
  419MOL0     C57711   0.172  10.188   7.245  0.3362 -0.4170 -0.2033
  419MOL0     C57712   0.053  10.211   7.333 -0.6601 -0.1041  0.9851
  419MOL0     C57713   0.163  10.163   7.108  0.8793 -0.5076  0.8219
  419MOL0     C57714   0.034  10.142   7.034 -0.3593 -0.2490  0.6871
  419MOL0     O57715  -0.001  10.007   7.018 -0.1414 -0.3731 -0.1146
  419MOL0     C57716  -0.129   9.982   6.967  0.2566 -1.4530  0.4123
  419MOL0     C57717  -0.136   9.901   6.849  0.6847 -0.4769 -0.7679
  419MOL0     C57718  -0.257   9.891   6.788 -0.6823 -0.8115  0.4052
  419MOL0     C57719  -0.364   9.952   6.844 -0.1182 -0.8997  0.2511
  419MOL0     O57720  -0.476   9.940   6.763 -0.4127 -0.2784 -0.1375
  419MOL0     C57721  -0.608   9.971   6.798  1.1444 -0.2664 -0.0463
  419MOL0     C57722  -0.624  10.120   6.783  0.5419 -0.6556 -0.1660
  419MOL0     C57723  -0.765  10.157   6.800  0.4926  0.1041 -0.4108
  419MOL0     C57724  -0.850  10.117   6.687 -0.0331  0.8626 -0.9685
  419MOL0     C57725  -0.994  10.182   6.695  0.7080 -0.6886 -0.1977
  419MOL0     C57726  -1.076  10.129   6.583  0.8412 -0.2550 -0.4564
  419MOL0     C57727  -1.224  10.186   6.586 -0.1568 -0.3565 -0.2669
  419MOL0     C57728  -1.246  10.327   6.516  0.1739  0.1995  0.1075
  419MOL0    Cl57729  -1.213  10.298   6.342 -0.1112 -0.3098 -0.2539
  419MOL0     C57730  -0.362  10.011   6.968  0.5052  0.4282  0.4407
  419MOL0     C57731  -0.239  10.036   7.020  0.6548  0.6310  0.2844
  419MOL0     O57732  -0.021  10.245   6.984  0.6150  0.1844 -0.7370
  419MOL0     C57733   0.288  10.156   7.042 -0.4273  0.8362  0.0521
  419MOL0     C57734   0.409  10.158   7.102  0.0666 -0.4523 -0.5284
  419MOL0     N57735   0.673  10.724   7.104 -0.4203  0.3007 -1.0103
  419MOL0     N57736   0.797  10.754   7.073 -0.0219 -0.2433 -0.3845
  419MOL0     C57737   2.011  10.478   7.708  0.8069  0.1638  0.1827
  419MOL0     C57738   2.099  10.484   7.820  0.0444  0.2241  0.1080
  419MOL0     C57739   2.352  10.640   8.113 -0.7852  0.6172 -0.2876
  419MOL0     C57740   2.321  10.573   8.237 -0.4481  0.5389  1.0832
  419MOL0     C57741   2.411  10.566   8.334  0.2668  0.4896  0.4956
  419MOL0     C57742   2.531  10.631   8.332 -0.1925  0.3045  0.0006
  419MOL0     O57743   2.626  10.633   8.431  0.2867  0.4480  0.0301
  419MOL0     C57744   2.603  10.619   8.572 -0.3005  0.4832 -0.6458
  419MOL0     C57745   2.510  10.732   8.632 -0.2635  1.3067  0.4261
  419MOL0     C57746   2.568  10.875   8.619  0.7981  0.8434  1.1634
  419MOL0     C57747   2.492  10.966   8.720  0.3889 -0.7682  0.9885
  419MOL0     C57748   2.540  11.108   8.689 -0.8746  1.1917  0.1970
  419MOL0     C57749   2.577  11.220   8.670 -0.7327  0.3492 -1.0142
  419MOL0     C57750   2.553  10.710   8.211 -0.4720  0.5654 -0.5749
  419MOL0     C57751   2.477  10.701   8.100 -0.0053  0.4766  0.1601
  419MOL0     C57752   2.539  10.740   7.962 -0.0635  1.1312  1.4545
  419MOL0     H57753   1.890  10.649   8.033  0.9940  1.0764 -0.0404
  419MOL0     H57754   1.736  10.620   7.858 -0.8571 -1.0734  3.5433
  419MOL0     H57755   1.659  10.620   7.596  0.6345 -0.3071  1.2443
  419MOL0     H57756   1.604  10.480   7.692 -0.0688  0.4134 -0.1820
  419MOL0     H57757   1.673  10.477   7.380  0.2665 -1.9427 -1.5389
  419MOL0     H57758   1.629  10.338   7.484  2.3084 -0.1474  1.0990
  419MOL0     H57759   1.420  10.442   7.538 -0.6937  1.1514 -0.5162
  419MOL0     H57760   1.449  10.583   7.425 -0.3270  0.8183  0.3087
  419MOL0     H57761   1.474  10.442   7.235  7.5157 -4.1442  1.4253
  419MOL0     H57762   1.444  10.303   7.320  0.4385  0.8584 -0.9656
  419MOL0     H57763   1.210  10.417   7.403  1.8277 -1.7655  0.9905
  419MOL0     H57764   1.232  10.362   7.230  1.8731 -1.9266  0.7206
  419MOL0     H57765   1.273  10.655   7.322  1.2501 -0.9244  0.9084
  419MOL0     H57766   1.278  10.588   7.164 -0.1091  2.7179  0.3901
  419MOL0     H57767   1.038  10.610   7.353 -0.5587 -0.4727  0.3947
  419MOL0     H57768   1.025  10.495   7.219 -0.3210  1.0566 -0.8314
  419MOL0     H57769   1.059  10.799   7.196  1.2953  0.0484 -4.2433
  419MOL0     H57770   1.046  10.697   7.063 -0.5271 -0.8046  0.1173
  419MOL0     H57771   0.833  10.626   7.373 -0.6152 -1.3990  0.9639
  419MOL0     H57772   0.460  10.672   7.281  0.9924  1.7645 -0.2663
  419MOL0     H57773   0.563  10.633   7.425 -3.0860 -0.5307  0.6712
  419MOL0     H57774   0.432  10.450   7.291  1.1658 -0.8889 -0.0732
  419MOL0     H57775   0.579  10.438   7.193 -0.5069  0.4124 -1.3105
  419MOL0     H57776   0.713  10.407   7.408 -0.6615 -2.2171 -1.2829
  419MOL0     H57777   0.561  10.433   7.505  1.7658 -0.2880  0.5581
  419MOL0     H57778   0.671  10.191   7.462 -0.0864 -0.7971  0.9462
  419MOL0     H57779   0.501  10.216   7.480  0.5242  0.5679  0.0921
  419MOL0     H57780   0.298  10.216   7.411 -0.7461 -0.9294  1.3021
  419MOL0     H57781   0.086  10.277   7.413  0.6821 -0.6488  0.9162
  419MOL0     H57782   0.012  10.118   7.372  2.3449 -1.9434  0.1436
  419MOL0     H57783  -0.023  10.267   7.278 -1.7978 -1.8387  0.6922
  419MOL0     H57784  -0.047   9.874   6.794  0.7518  3.1615 -2.7621
  419MOL0     H57785  -0.260   9.837   6.694  0.5827  1.0005 -0.7366
  419MOL0     H57786  -0.680   9.924   6.730  0.9110  0.3103 -0.2034
  419MOL0     H57787  -0.640   9.945   6.900 -3.4049 -1.9401 -1.6501
  419MOL0     H57788  -0.553  10.164   6.855 -0.2339 -0.7893  0.7043
  419MOL0     H57789  -0.589  10.163   6.689 -0.5189 -2.2954 -1.3425
  419MOL0     H57790  -0.768  10.264   6.822 -1.5999 -0.3217  1.8862
  419MOL0     H57791  -0.804  10.112   6.892  1.2376  2.1470  0.9550
  419MOL0     H57792  -0.864  10.009   6.679 -1.1594  0.7494  1.4708
  419MOL0     H57793  -0.799  10.154   6.598  1.8510  0.3679 -0.1569
  419MOL0     H57794  -1.037  10.152   6.791 -0.4825  3.9512  0.9890
  419MOL0     H57795  -0.994  10.291   6.688 -1.8788 -0.6995 -1.7989
  419MOL0     H57796  -1.089  10.021   6.574  0.6519 -0.2722  0.0128
  419MOL0     H57797  -1.026  10.167   6.493 -1.4820  1.0675 -1.2682
  419MOL0     H57798  -1.265  10.198   6.686  1.3065 -0.8625  0.4084
  419MOL0     H57799  -1.296  10.112   6.550 -0.5657 -2.3954  4.1138
  419MOL0     H57800  -1.177  10.398   6.562 -0.4152  1.0095 -0.2501
  419MOL0     H57801  -1.341  10.376   6.537  0.7559  0.7620  1.5391
  419MOL0     H57802  -0.457  10.033   7.016 -1.1102 -3.1929 -0.7670
  419MOL0     H57803  -0.234  10.090   7.114  1.3928 -1.4316  1.4982
  419MOL0     H57804   0.292  10.153   6.933  2.0754  2.8047  0.0113
  419MOL0     H57805   0.504  10.140   7.052  2.7445  1.9173  3.1544
  419MOL0     H57806   2.037  10.434   7.613 -1.0624 -2.6682  0.8373
  419MOL0     H57807   2.204  10.454   7.827 -0.9551 -3.7306  0.7834
  419MOL0     H57808   2.220  10.538   8.257 -1.5476  0.9042 -3.0236
  419MOL0     H57809   2.377  10.513   8.422 -2.0156  0.3683 -0.3996
  419MOL0     H57810   2.554  10.522   8.585 -2.9454  1.5759 -1.7082
  419MOL0     H57811   2.700  10.624   8.622 -1.5430 -2.4292  2.4686
  419MOL0     H57812   2.507  10.712   8.740  0.4979  0.2397  0.2682
  419MOL0     H57813   2.409  10.733   8.590 -0.7428  0.5120  1.4900
  419MOL0     H57814   2.675  10.890   8.632  0.8954  1.6718 -0.3738
  419MOL0     H57815   2.540  10.906   8.517  2.6068 -0.0961  0.3453
  419MOL0     H57816   2.514  10.929   8.821  0.9480 -0.5932  0.9375
  419MOL0     H57817   2.383  10.971   8.715  0.4296  3.2186  0.4815
  419MOL0     H57818   2.612  11.321   8.678 -0.1526  0.0077  3.8050
  419MOL0     H57819   2.647  10.764   8.211 -1.2758  2.3164  3.7085
  419MOL0     H57820   2.646  10.718   7.958 -0.5416 -1.3653  0.5445
  419MOL0     H57821   2.492  10.677   7.886  1.2548 -0.9509  2.2655
  419MOL0     H57822   2.504  10.838   7.930 -2.0948  0.0851  0.2744
  420MOL0     O57823   5.024   9.775   1.008  0.5700  0.9225  0.4105
  420MOL0     C57824   4.950   9.735   1.092  0.3643 -0.9003 -0.8163
  420MOL0     O57825   4.822   9.771   1.102  0.9242  0.6003 -0.3788
  420MOL0     C57826   4.739   9.824   1.014 -0.8087  0.3165  0.6823
  420MOL0     C57827   4.601   9.796   1.042 -0.0581  0.4950 -0.6464
  420MOL0     C57828   4.503   9.846   0.960  0.1519 -0.6219 -0.0394
  420MOL0     C57829   4.537   9.923   0.845 -0.4554  0.3047  0.1986
  420MOL0     O57830   4.461   9.989   0.761  0.0778 -0.2091  0.1966
  420MOL0     C57831   4.332  10.038   0.804  0.7811 -0.1652 -0.4297
  420MOL0     C57832   4.279  10.149   0.715 -0.6184 -0.7229 -0.8444
  420MOL0     C57833   4.142  10.199   0.752  0.8799 -0.6898 -0.8013
  420MOL0     C57834   4.115  10.336   0.681 -0.5098  0.3337 -0.8485
  420MOL0     C57835   3.980  10.390   0.698  1.1704  0.0639  0.8930
  420MOL0     C57836   3.930  10.409   0.843  0.2080  0.0225  0.0930
  420MOL0     C57837   3.981  10.545   0.900 -0.1204  0.2138 -0.4391
  420MOL0     C57838   3.986  10.538   1.057  0.5360  0.5490 -0.2347
  420MOL0     N57839   4.077  10.427   1.096  0.5830 -0.1548 -0.4226
  420MOL0     C57840   4.215  10.442   1.080 -0.1134  0.7888  0.5848
  420MOL0     C57841   4.271  10.345   1.156  0.4286 -1.7808 -0.5591
  420MOL0     C57842   4.421  10.328   1.193  0.7650  0.2358  0.1525
  420MOL0     C57843   4.494  10.298   1.064  0.9544  0.4221 -0.2842
  420MOL0     C57844   4.614  10.200   1.082 -0.2364 -1.2489 -0.4881
  420MOL0     C57845   4.741  10.268   1.133 -0.8710 -0.7422 -0.2383
  420MOL0     O57846   4.757  10.265   1.279  0.3788 -0.0748 -0.1361
  420MOL0     C57847   4.859  10.348   1.320 -0.6067  0.1518  0.4090
  420MOL0     C57848   4.974  10.391   1.246  0.3344 -0.4412  0.1510
  420MOL0     C57849   5.074  10.465   1.308  0.1575 -1.7245  0.5771
  420MOL0     C57850   5.185  10.507   1.203  0.9895  1.3390  0.1518
  420MOL0     C57851   5.071  10.499   1.447 -0.4875 -0.6171  0.8267
  420MOL0     C57852   5.189  10.566   1.512  0.7923  0.4929 -0.3373
  420MOL0     O57853   5.312  10.521   1.480 -0.4915  0.4273  0.3431
  420MOL0     C57854   5.418  10.516   1.561 -0.3512 -0.2577 -0.4522
  420MOL0     C57855   5.539  10.587   1.537 -0.3753  1.3618 -0.3229
  420MOL0     C57856   5.633  10.592   1.637 -0.1803  1.0322  0.6953
  420MOL0     C57857   5.603  10.534   1.766 -0.2953  0.2861 -0.7404
  420MOL0     O57858   5.696  10.567   1.861 -0.3525  0.1896 -1.0276
  420MOL0     C57859   5.733  10.458   1.953 -0.3170 -0.4260 -0.6282
  420MOL0     C57860   5.841  10.516   2.051 -0.6630  0.2537 -0.5176
  420MOL0     C57861   5.815  10.633   2.148  0.2888  0.1931  0.6813
  420MOL0     C57862   5.743  10.582   2.271  0.3750 -0.1610 -0.7335
  420MOL0     C57863   5.729  10.691   2.383 -0.5286 -0.2538 -0.5720
  420MOL0     C57864   5.708  10.612   2.515 -0.0576 -0.2913  0.3233
  420MOL0     C57865   5.666  10.690   2.638  0.1938 -0.7744  0.1344
  420MOL0     C57866   5.671  10.604   2.756  0.1327  0.1857  0.3498
  420MOL0    Cl57867   5.840  10.551   2.792 -0.1689 -0.0617  0.0017
  420MOL0     C57868   5.480  10.463   1.788  0.0779 -0.1110  0.0530
  420MOL0     C57869   5.383  10.459   1.692 -0.3668  0.1541  0.3282
  420MOL0     O57870   5.167  10.649   1.604  0.7518 -0.3210  1.0284
  420MOL0     C57871   4.959  10.453   1.514  0.4155  0.9240 -0.0708
  420MOL0     C57872   4.851  10.382   1.456  0.0403 -0.0221  0.6394
  420MOL0     N57873   4.166  10.272   1.200 -0.4040 -0.5917  0.1847
  420MOL0     N57874   4.052  10.319   1.175  1.1356  0.1710 -0.3045
  420MOL0     C57875   4.667   9.939   0.818 -0.4049  1.1555  0.4743
  420MOL0     C57876   4.771   9.894   0.900  0.4588  0.8729  0.4463
  420MOL0     C57877   5.014   9.663   1.208 -0.2051 -0.4523 -0.2343
  420MOL0     C57878   4.933   9.615   1.316 -0.0977  0.9486  0.5470
  420MOL0     C57879   4.992   9.551   1.421  0.2246  0.5218 -0.5059
  420MOL0     C57880   5.131   9.534   1.433  0.2794 -0.1119  0.1483
  420MOL0     O57881   5.198   9.470   1.536  0.7349 -0.3269 -0.6088
  420MOL0     C57882   5.125   9.366   1.613  0.4009  0.3806  0.2707
  420MOL0     C57883   5.096   9.242   1.521  0.2960 -0.6071 -0.5952
  420MOL0     C57884   5.210   9.167   1.463  0.5117  1.0452  0.4854
  420MOL0     C57885   5.268   9.070   1.564 -0.5212 -0.1819 -0.4677
  420MOL0     C57886   5.396   9.015   1.513 -0.1581 -0.3530 -0.1857
  420MOL0     C57887   5.502   8.963   1.473  0.7722  0.2101  0.1679
  420MOL0     C57888   5.208   9.594   1.336  0.7461 -0.9388 -0.0781
  420MOL0     C57889   5.159   9.648   1.223 -0.0538 -0.7013  0.5177
  420MOL0     C57890   5.272   9.716   1.134  0.2630 -0.1741  0.2206
  420MOL0     H57891   4.583   9.732   1.128  3.9895  0.1518  0.1332
  420MOL0     H57892   4.394   9.838   0.962  0.0267  0.4304 -1.3195
  420MOL0     H57893   4.324  10.061   0.911  2.4450 -1.7153  0.0775
  420MOL0     H57894   4.273   9.946   0.795  1.3449 -0.8474  1.9829
  420MOL0     H57895   4.341  10.239   0.717 -0.5571 -0.6896 -2.8849
  420MOL0     H57896   4.291  10.110   0.614  0.3637  0.3142 -1.1485
  420MOL0     H57897   4.070  10.138   0.697  2.4266 -2.3162 -1.1048
  420MOL0     H57898   4.124  10.204   0.860  1.4139 -2.5003 -0.6087
  420MOL0     H57899   4.190  10.407   0.719  1.6397 -0.6556 -3.0260
  420MOL0     H57900   4.141  10.336   0.575  3.6105 -0.0854 -0.0427
  420MOL0     H57901   3.923  10.308   0.652  2.6169 -0.0839 -0.7280
  420MOL0     H57902   3.973  10.479   0.636  3.3794 -1.2197 -1.3973
  420MOL0     H57903   3.820  10.414   0.839  0.2513  0.9702 -3.4695
  420MOL0     H57904   3.944  10.330   0.917 -0.4509  0.9703  1.2739
  420MOL0     H57905   3.915  10.625   0.864  0.9708  1.7282  0.8066
  420MOL0     H57906   4.080  10.565   0.859  0.2690  0.0766  0.4237
  420MOL0     H57907   4.017  10.632   1.104  1.7309  0.6554 -1.1913
  420MOL0     H57908   3.882  10.516   1.084  0.7471  1.7944  1.7644
  420MOL0     H57909   4.273  10.522   1.035  1.3607 -0.3380  0.3692
  420MOL0     H57910   4.425  10.244   1.264  1.5422  0.8896  0.9045
  420MOL0     H57911   4.459  10.410   1.255 -1.9710  0.7627  1.2612
  420MOL0     H57912   4.425  10.247   0.996  0.2744  0.9476  0.0040
  420MOL0     H57913   4.535  10.388   1.018  2.4543 -1.8177 -3.8424
  420MOL0     H57914   4.588  10.119   1.151  1.3105 -1.0021  0.4105
  420MOL0     H57915   4.625  10.155   0.983 -0.6397 -0.4089 -0.9206
  420MOL0     H57916   4.833  10.237   1.082  0.4255 -0.2538  1.6683
  420MOL0     H57917   4.739  10.369   1.090  1.0025 -0.2399  0.7245
  420MOL0     H57918   4.986  10.353   1.144 -0.9695 -0.4618 -0.0101
  420MOL0     H57919   5.274  10.445   1.216 -0.1553 -0.0113  2.0522
  420MOL0     H57920   5.214  10.609   1.228  0.3351  1.8223 -0.9828
  420MOL0     H57921   5.131  10.500   1.108 -4.8699  3.0386  2.8882
  420MOL0     H57922   5.562  10.641   1.446  3.1077  0.4605 -0.1101
  420MOL0     H57923   5.722  10.653   1.630  0.8234 -0.1566  2.2646
  420MOL0     H57924   5.644  10.438   2.014  1.2958 -0.0624  2.0002
  420MOL0     H57925   5.772  10.371   1.900  1.9931  0.6357 -0.7743
  420MOL0     H57926   5.885  10.439   2.116  0.9577  2.4099  1.1097
  420MOL0     H57927   5.929  10.538   1.990 -0.1520  0.5057  0.2854
  420MOL0     H57928   5.753  10.711   2.102 -2.3757 -2.2174 -0.1197
  420MOL0     H57929   5.912  10.673   2.181  0.9178 -2.2415  2.0623
  420MOL0     H57930   5.799  10.496   2.308 -1.2036 -1.1835 -0.6065
  420MOL0     H57931   5.647  10.542   2.235 -0.8980  1.3462  0.8285
  420MOL0     H57932   5.829  10.735   2.392 -0.7246  0.6983 -2.6425
  420MOL0     H57933   5.663  10.777   2.369 -0.6845 -0.0908  0.9167
  420MOL0     H57934   5.803  10.565   2.541  0.9225  0.8858 -1.0145
  420MOL0     H57935   5.631  10.534   2.505 -1.7069  1.2222  0.6001
  420MOL0     H57936   5.567  10.736   2.632 -0.3853 -1.5685  2.5772
  420MOL0     H57937   5.737  10.772   2.655 -0.6201  0.0186 -0.1975
  420MOL0     H57938   5.605  10.520   2.733  1.3347 -0.2740 -1.6462
  420MOL0     H57939   5.629  10.648   2.847 -0.9629 -1.5096  0.7163
  420MOL0     H57940   5.461  10.423   1.887 -1.3239 -1.1757 -0.6188
  420MOL0     H57941   5.291  10.408   1.718  0.4178 -3.3219 -2.7612
  420MOL0     H57942   4.948  10.469   1.621  1.7618  0.2359  0.1922
  420MOL0     H57943   4.768  10.347   1.517 -0.2884 -2.0111 -0.8606
  420MOL0     H57944   4.695   9.991   0.727 -1.7467  1.1356  0.0280
  420MOL0     H57945   4.878   9.894   0.879  0.5525 -1.0415  0.7535
  420MOL0     H57946   4.827   9.640   1.319 -0.0367  2.7607 -4.2332
  420MOL0     H57947   4.926   9.520   1.500  1.0126  4.1149  1.7878
  420MOL0     H57948   5.172   9.335   1.707 -1.7487 -1.2433  0.8790
  420MOL0     H57949   5.029   9.410   1.639 -0.4995  1.0183 -3.5532
  420MOL0     H57950   5.022   9.274   1.446 -0.6306  3.2274  1.6604
  420MOL0     H57951   5.032   9.173   1.577 -1.6308  0.4301 -1.3889
  420MOL0     H57952   5.186   9.119   1.368  1.4855 -0.9111  1.1523
  420MOL0     H57953   5.285   9.239   1.429  0.3429  1.2392  0.5239
  420MOL0     H57954   5.205   8.981   1.572 -0.2665 -0.6545 -2.9659
  420MOL0     H57955   5.280   9.114   1.664 -0.6979 -1.9358  0.3553
  420MOL0     H57956   5.600   8.924   1.456  0.3785 -0.9676  0.5457
  420MOL0     H57957   5.315   9.592   1.355  0.5206 -1.4055  1.2505
  420MOL0     H57958   5.249   9.695   1.030  0.6362 -0.5074  0.2033
  420MOL0     H57959   5.262   9.825   1.141 -0.9669 -0.3588  2.1237
  420MOL0     H57960   5.371   9.679   1.162  1.4510  1.6336 -1.3173
  421MOL0     O57961  11.134   3.767   9.747 -0.2362  0.5987 -0.1346
  421MOL0     C57962  11.089   3.671   9.683 -0.8918  0.3428 -0.6107
  421MOL0     O57963  10.952   3.642   9.656 -0.5178  0.2093  0.2945
  421MOL0     C57964  10.856   3.729   9.692 -0.0009 -1.0155  0.7986
  421MOL0     C57965  10.737   3.671   9.733  0.5781 -0.0924 -0.5443
  421MOL0     C57966  10.628   3.746   9.784  0.5343  0.2227 -0.1776
  421MOL0     C57967  10.642   3.891   9.786 -0.2443  0.7195 -0.1724
  421MOL0     O57968  10.549   3.977   9.833  0.6917  0.0509  0.1395
  421MOL0     C57969  10.483   3.927   9.952  0.5957 -0.5105  0.3807
  421MOL0     C57970  10.401   4.051  10.004 -0.3642  0.2471 -0.6245
  421MOL0     C57971  10.309   4.116   9.892  0.6961  0.0961  0.2233
  421MOL0     C57972  10.194   4.194   9.958 -0.4679  0.1137  0.4711
  421MOL0     C57973  10.132   4.297   9.864  0.2846  0.4791  0.5584
  421MOL0     C57974   9.990   4.263   9.813 -0.9658 -0.4618 -0.1117
  421MOL0     C57975   9.881   4.244   9.921  0.0260  0.5744 -0.0682
  421MOL0     C57976   9.845   4.375   9.984  0.1100  0.1940 -0.3971
  421MOL0     N57977   9.890   4.382  10.126 -0.3132  0.2685  0.2059
  421MOL0     C57978   9.801   4.359  10.232  0.3416 -0.1840  0.4586
  421MOL0     C57979   9.870   4.403  10.343  0.4188 -0.6470  0.1665
  421MOL0     C57980   9.833   4.404  10.483  0.0243 -0.5258 -0.3616
  421MOL0     C57981   9.788   4.545  10.529 -0.2520  0.5500 -0.5969
  421MOL0     C57982   9.760   4.550  10.686  0.2952 -0.3767 -0.0784
  421MOL0     C57983   9.891   4.557  10.767  0.5802  0.7242  1.0127
  421MOL0     O57984   9.873   4.492  10.896 -0.0631 -0.2126 -0.3956
  421MOL0     C57985   9.987   4.451  10.960  0.4600  0.1931 -0.3358
  421MOL0     C57986   9.973   4.333  11.043 -0.2443 -0.1491 -0.6029
  421MOL0     C57987  10.082   4.293  11.126  0.3672 -0.9685 -0.2965
  421MOL0     C57988  10.048   4.178  11.218  0.0693 -0.1417 -1.1592
  421MOL0     C57989  10.214   4.345  11.106 -0.3205 -0.0307 -0.2182
  421MOL0     C57990  10.342   4.293  11.169  0.4193 -0.3453 -0.0726
  421MOL0     O57991  10.456   4.355  11.137 -0.5527 -0.7848  0.7844
  421MOL0     C57992  10.585   4.319  11.185 -0.5454 -0.1897  0.2152
  421MOL0     C57993  10.618   4.316  11.316  0.2206 -0.0412  0.9763
  421MOL0     C57994  10.754   4.291  11.358  0.0284 -0.7457  0.2948
  421MOL0     C57995  10.855   4.270  11.269 -0.2454  0.3376 -0.5241
  421MOL0     O57996  10.988   4.256  11.299 -0.5114  0.3155 -0.4271
  421MOL0     C57997  11.029   4.254  11.436  0.3279 -0.0858 -0.1746
  421MOL0     C57998  11.180   4.232  11.445  0.2461  0.6212  0.0644
  421MOL0     C57999  11.253   4.357  11.398 -0.0981  1.0521  0.6823
  421MOL0     C58000  11.369   4.329  11.295 -0.3576  0.6776  0.4848
  421MOL0     C58001  11.449   4.457  11.240 -0.4320  0.2583  0.3745
  421MOL0     C58002  11.590   4.406  11.189  0.2479 -0.5678 -0.0923
  421MOL0     C58003  11.671   4.526  11.132  0.3383  0.8802 -0.5500
  421MOL0     C58004  11.602   4.580  11.013 -0.9001  0.3699 -0.4117
  421MOL0    Cl58005  11.706   4.708  10.940 -0.1175 -0.6122  0.4667
  421MOL0     C58006  10.820   4.266  11.137  0.9280 -0.4947 -0.7686
  421MOL0     C58007  10.689   4.302  11.088 -0.7236 -0.3082 -0.2192
  421MOL0     O58008  10.336   4.194  11.244  0.3846  0.1208 -0.4563
  421MOL0     C58009  10.233   4.450  11.018 -0.4062  0.1874  0.1647
  421MOL0     C58010  10.120   4.506  10.951  0.5433  0.2358 -0.1645
  421MOL0     N58011   9.999   4.440  10.303  0.7598 -0.7493  0.4353
  421MOL0     N58012  10.005   4.434  10.172 -1.0314 -0.3526 -0.0525
  421MOL0     C58013  10.758   3.950   9.749 -0.7315  0.1885 -0.0527
  421MOL0     C58014  10.871   3.871   9.707  0.1605 -0.3371  0.7249
  421MOL0     C58015  11.175   3.564   9.622 -0.4897  0.2816 -0.0713
  421MOL0     C58016  11.127   3.476   9.529 -0.1768 -0.0095 -0.2439
  421MOL0     C58017  11.213   3.391   9.464  0.7310  0.4538 -1.2085
  421MOL0     C58018  11.357   3.390   9.485  0.6574 -0.5226 -0.3349
  421MOL0     O58019  11.448   3.326   9.409  0.0239  0.1714  0.0059
  421MOL0     C58020  11.406   3.245   9.291 -0.8334  0.1862  0.3843
  421MOL0     C58021  11.500   3.143   9.253 -0.1765  0.6162  0.4928
  421MOL0     C58022  11.648   3.153   9.307  0.1835 -0.1301  0.2072
  421MOL0     C58023  11.732   3.037   9.243  0.4334  0.3768  0.2174
  421MOL0     C58024  11.738   3.040   9.094  0.6334  0.1684  0.4345
  421MOL0     C58025  11.735   3.025   8.976 -0.2840  0.4529  0.5886
  421MOL0     C58026  11.405   3.463   9.597  0.3688 -0.2186  0.9611
  421MOL0     C58027  11.313   3.542   9.664 -1.0630 -0.9593  0.6364
  421MOL0     C58028  11.354   3.611   9.791 -0.1683  0.6433 -0.5395
  421MOL0     H58029  10.718   3.566   9.711  0.0297 -0.4440  1.3949
  421MOL0     H58030  10.536   3.695   9.810  2.1611 -2.7721  0.1656
  421MOL0     H58031  10.567   3.903  10.018  2.6675  0.8258 -1.6437
  421MOL0     H58032  10.411   3.846   9.936 -1.0994  1.3575 -2.3555
  421MOL0     H58033  10.346   4.014  10.091 -0.1697 -0.5059 -0.8109
  421MOL0     H58034  10.473   4.124  10.041  0.7158 -0.6948 -0.8012
  421MOL0     H58035  10.363   4.181   9.822 -2.0701 -0.0745 -2.2732
  421MOL0     H58036  10.262   4.051   9.818 -2.1663  1.6762  0.5003
  421MOL0     H58037  10.124   4.128  10.011  0.4777 -1.3683 -0.0645
  421MOL0     H58038  10.233   4.256  10.040  0.7323  0.4995 -0.3757
  421MOL0     H58039  10.188   4.306   9.771  0.2489  1.3206  0.6133
  421MOL0     H58040  10.130   4.398   9.906 -1.6761  0.2353  1.1788
  421MOL0     H58041   9.965   4.331   9.731  0.3100 -1.7518 -1.6325
  421MOL0     H58042   9.997   4.162   9.773 -3.8703 -0.5111 -0.7512
  421MOL0     H58043   9.905   4.171   9.999 -2.7862 -2.3058 -1.6565
  421MOL0     H58044   9.791   4.198   9.879 -1.5325  2.0476  1.4502
  421MOL0     H58045   9.882   4.462   9.928  0.6055 -1.0748 -2.1616
  421MOL0     H58046   9.737   4.390   9.992  0.5122  2.6103  1.7517
  421MOL0     H58047   9.707   4.306  10.229  0.3325 -0.1829  0.7144
  421MOL0     H58048   9.922   4.386  10.543  1.5487  4.5177 -0.7050
  421MOL0     H58049   9.749   4.336  10.505 -2.2196  2.3393  0.5772
  421MOL0     H58050   9.871   4.611  10.502 -0.3709  2.6915  3.4250
  421MOL0     H58051   9.701   4.583  10.474  0.9651  3.7087 -0.5742
  421MOL0     H58052   9.704   4.641  10.709  0.1561  0.1127 -2.0982
  421MOL0     H58053   9.697   4.473  10.730  0.2970  0.9724  2.4217
  421MOL0     H58054   9.971   4.513  10.706 -0.8731 -2.9077  1.4591
  421MOL0     H58055   9.921   4.662  10.776 -0.8325  1.3222 -0.8148
  421MOL0     H58056   9.873   4.294  11.059  0.4391 -1.6110  0.3004
  421MOL0     H58057  10.089   4.082  11.184  0.6261 -1.2123  2.2044
  421MOL0     H58058   9.943   4.165  11.244 -0.2134  2.3871 -0.7648
  421MOL0     H58059  10.088   4.201  11.317 -2.3144 -2.7894  0.5638
  421MOL0     H58060  10.557   4.340  11.402  2.5253 -1.5554  3.1790
  421MOL0     H58061  10.782   4.286  11.463  4.0363 -1.2492 -0.6435
  421MOL0     H58062  10.997   4.340  11.495  0.5496 -1.6866  2.4365
  421MOL0     H58063  10.983   4.166  11.481  1.3296 -0.8175 -0.5412
  421MOL0     H58064  11.219   4.229  11.547  1.2887  5.4486  0.0263
  421MOL0     H58065  11.206   4.151  11.375  1.8926  2.3238 -1.4154
  421MOL0     H58066  11.299   4.414  11.479 -0.7992  1.3501  0.8744
  421MOL0     H58067  11.179   4.424  11.353 -0.2873 -0.6557 -1.7063
  421MOL0     H58068  11.334   4.264  11.214  1.8981 -2.2327  1.6205
  421MOL0     H58069  11.437   4.269  11.356  1.1117  2.2168  0.4327
  421MOL0     H58070  11.396   4.503  11.157 -1.0631  0.8728  1.1038
  421MOL0     H58071  11.463   4.532  11.318 -3.1688  1.6321 -0.3396
  421MOL0     H58072  11.575   4.338  11.105 -0.1418  0.6134 -1.0024
  421MOL0     H58073  11.632   4.363  11.281  0.3004  1.5772  0.9578
  421MOL0     H58074  11.775   4.503  11.107 -0.3012  0.4441 -3.0584
  421MOL0     H58075  11.676   4.608  11.205  0.5659 -0.0737  0.5479
  421MOL0     H58076  11.500   4.615  11.027 -2.4883 -4.4059  2.3320
  421MOL0     H58077  11.590   4.496  10.943 -1.4142  1.0437 -1.1475
  421MOL0     H58078  10.902   4.239  11.071 -1.4693 -3.5931 -2.7477
  421MOL0     H58079  10.672   4.299  10.981  0.4582 -3.2323 -0.4286
  421MOL0     H58080  10.336   4.483  11.008 -0.2451  0.0065  1.1401
  421MOL0     H58081  10.149   4.582  10.880  0.1036 -0.7183 -1.4011
  421MOL0     H58082  10.778   4.055   9.765 -1.0880  0.1748  0.4907
  421MOL0     H58083  10.970   3.914   9.696  1.0443 -2.0914  1.2711
  421MOL0     H58084  11.029   3.483   9.484  0.9706  1.7725 -2.7146
  421MOL0     H58085  11.171   3.319   9.395 -0.8296  0.6834 -0.5277
  421MOL0     H58086  11.307   3.200   9.299  0.0703 -1.6926  1.6979
  421MOL0     H58087  11.394   3.313   9.207 -1.9002  1.3387  1.4282
  421MOL0     H58088  11.486   3.126   9.145 -3.6984  3.2261  0.3471
  421MOL0     H58089  11.460   3.049   9.291  1.9683 -1.1803 -1.4435
  421MOL0     H58090  11.692   3.249   9.276 -0.2660 -0.0297 -0.1334
  421MOL0     H58091  11.647   3.149   9.416  1.3334  3.4795  0.4984
  421MOL0     H58092  11.681   2.945   9.277  0.2459  0.7968  1.1100
  421MOL0     H58093  11.832   3.029   9.285  0.3194 -1.6166  0.2440
  421MOL0     H58094  11.738   3.019   8.869  0.4192 -1.1856  0.6777
  421MOL0     H58095  11.504   3.440   9.634  1.0679  0.5270 -0.3477
  421MOL0     H58096  11.426   3.544   9.840 -0.3958 -1.3848 -2.8145
  421MOL0     H58097  11.383   3.716   9.785 -3.9101  1.8611  0.2210
  421MOL0     H58098  11.269   3.599   9.858 -0.3068 -1.3341 -0.9918
  422MOL0     O58099   5.795   1.727   1.879 -0.3020  0.2368  0.8827
  422MOL0     C58100   5.835   1.845   1.885 -0.2604 -0.3510  0.2106
  422MOL0     O58101   5.771   1.951   1.948 -1.3587  0.3580 -0.1566
  422MOL0     C58102   5.641   1.922   1.986  0.8262 -0.1878 -0.5291
  422MOL0     C58103   5.546   1.918   1.892 -0.1403  0.1373  0.8964
  422MOL0     C58104   5.411   1.891   1.924  0.7096  0.6571 -0.4072
  422MOL0     C58105   5.374   1.857   2.061 -0.0611  0.4559 -0.6408
  422MOL0     O58106   5.244   1.836   2.110 -0.4029 -0.6715 -0.1582
  422MOL0     C58107   5.141   1.912   2.048  0.0935 -0.5966  0.6920
  422MOL0     C58108   5.010   1.902   2.134 -0.0116 -0.1178 -0.0005
  422MOL0     C58109   4.896   1.960   2.053 -0.7939  0.2868 -1.1538
  422MOL0     C58110   4.785   2.012   2.149  0.0039  0.7188  0.1607
  422MOL0     C58111   4.666   2.061   2.069 -0.6393  0.4247 -0.1312
  422MOL0     C58112   4.574   2.135   2.157 -0.4157 -0.1940 -0.5820
  422MOL0     C58113   4.458   2.195   2.078 -0.9042  0.5818 -0.1040
  422MOL0     C58114   4.360   2.266   2.171  0.0629  0.1590 -0.1294
  422MOL0     N58115   4.395   2.398   2.228  0.1262 -0.3892 -0.1826
  422MOL0     C58116   4.351   2.518   2.179  0.3334  0.1610  0.6482
  422MOL0     C58117   4.421   2.617   2.246  0.2757  0.5417 -0.9108
  422MOL0     C58118   4.397   2.763   2.214 -0.5471  0.0509  0.0691
  422MOL0     C58119   4.506   2.803   2.117  0.0522 -0.7457 -0.4865
  422MOL0     C58120   4.623   2.892   2.169 -0.2229 -0.4349 -0.2875
  422MOL0     C58121   4.581   3.033   2.181  0.5685 -0.2952 -0.9741
  422MOL0     O58122   4.577   3.104   2.059  0.2046  0.6621  0.1879
  422MOL0     C58123   4.690   3.141   1.990 -0.4918  0.2767  0.0610
  422MOL0     C58124   4.686   3.130   1.852  0.0686  0.1358 -0.9884
  422MOL0     C58125   4.784   3.169   1.771  0.2433 -0.7558 -0.7048
  422MOL0     C58126   4.751   3.162   1.624  0.7224 -0.4326  0.3991
  422MOL0     C58127   4.906   3.218   1.822  0.9653 -0.1236 -0.0045
  422MOL0     C58128   5.030   3.236   1.741 -0.4579 -0.7475 -0.1785
  422MOL0     O58129   5.142   3.306   1.794  0.1548 -0.0830  0.2520
  422MOL0     C58130   5.246   3.319   1.712 -0.6614  0.7822  0.1671
  422MOL0     C58131   5.259   3.439   1.640 -0.6372 -0.1136 -1.0554
  422MOL0     C58132   5.376   3.472   1.578  0.1345 -0.1489 -0.7693
  422MOL0     C58133   5.479   3.374   1.561  0.9848  0.3591  0.0241
  422MOL0     O58134   5.598   3.409   1.492  0.7019 -0.1764 -0.2152
  422MOL0     C58135   5.718   3.329   1.489  1.1768 -0.5166  0.7590
  422MOL0     C58136   5.780   3.358   1.353  0.4546 -0.2629 -0.7276
  422MOL0     C58137   5.803   3.513   1.330 -0.3460  0.3989 -0.1884
  422MOL0     C58138   5.893   3.520   1.202 -0.5278  0.6801 -0.4358
  422MOL0     C58139   5.919   3.664   1.163 -0.4220 -0.5920  0.4578
  422MOL0     C58140   5.860   3.699   1.026 -0.6775  0.5117  1.5730
  422MOL0     C58141   5.898   3.838   0.968  0.1513  0.1320 -0.3521
  422MOL0     C58142   5.821   3.835   0.835  0.1777  0.1246 -0.9538
  422MOL0    Cl58143   5.872   3.967   0.729 -0.3851 -0.1097  0.2409
  422MOL0     C58144   5.470   3.260   1.632 -0.2917  0.2172 -0.7331
  422MOL0     C58145   5.357   3.226   1.707  0.6273 -0.4868  0.4629
  422MOL0     O58146   5.037   3.159   1.642 -0.2287 -0.0953 -0.5151
  422MOL0     C58147   4.915   3.222   1.969  0.9418  0.9459 -0.4032
  422MOL0     C58148   4.809   3.176   2.054 -0.0628  0.6134  0.1556
  422MOL0     N58149   4.502   2.549   2.337 -0.2643 -0.0850  0.2476
  422MOL0     N58150   4.479   2.418   2.333 -0.4807 -0.0591  0.1080
  422MOL0     C58151   5.480   1.848   2.153 -0.4093 -0.2224 -0.1984
  422MOL0     C58152   5.610   1.882   2.121 -0.3306 -0.0208  0.1240
  422MOL0     C58153   5.979   1.856   1.835 -0.4556  0.1634  0.0059
  422MOL0     C58154   5.996   1.967   1.756 -0.2319  0.1941  0.1251
  422MOL0     C58155   6.116   1.989   1.686 -0.3227  0.7710 -0.6253
  422MOL0     C58156   6.217   1.886   1.670 -0.0673 -0.6034 -0.4511
  422MOL0     O58157   6.322   1.892   1.584  0.1238  0.8532  0.8178
  422MOL0     C58158   6.355   2.010   1.502  0.0224 -0.6368  0.1783
  422MOL0     C58159   6.464   1.975   1.398 -0.5106  0.5335 -0.2409
  422MOL0     C58160   6.439   1.851   1.320 -0.0189 -0.2058 -1.0530
  422MOL0     C58161   6.322   1.864   1.225 -0.3725  0.7783  0.3321
  422MOL0     C58162   6.359   1.958   1.124  0.3750  0.3868 -0.9967
  422MOL0     C58163   6.409   2.037   1.045 -1.0795  0.8764  0.3721
  422MOL0     C58164   6.196   1.767   1.747  0.5065 -0.6296  0.5869
  422MOL0     C58165   6.089   1.762   1.832  0.5097  0.0506 -0.2086
  422MOL0     C58166   6.080   1.641   1.916 -0.3058  1.0142 -0.0356
  422MOL0     H58167   5.568   1.951   1.791  0.9321 -0.4335  0.9226
  422MOL0     H58168   5.325   1.896   1.857 -1.8180  1.4474  2.6646
  422MOL0     H58169   5.129   1.876   1.945 -1.5957 -2.4947  1.4955
  422MOL0     H58170   5.160   2.019   2.052 -1.7821 -0.1868  5.3996
  422MOL0     H58171   4.974   1.800   2.147 -0.6706  0.1767  0.5445
  422MOL0     H58172   5.029   1.962   2.223 -0.1742 -0.1255  0.0385
  422MOL0     H58173   4.941   2.047   2.005  0.6279  0.2247  0.0134
  422MOL0     H58174   4.847   1.886   1.989  0.3190 -0.7583 -0.8398
  422MOL0     H58175   4.741   1.925   2.200 -0.0453  0.1445 -0.8278
  422MOL0     H58176   4.825   2.089   2.215  1.8090 -2.6051  3.2853
  422MOL0     H58177   4.620   1.972   2.027  2.7847 -0.1919 -3.1494
  422MOL0     H58178   4.706   2.121   1.986  2.0510 -2.3434 -1.0201
  422MOL0     H58179   4.547   2.074   2.243  1.2157  2.3725  1.9175
  422MOL0     H58180   4.629   2.217   2.204 -2.7615  0.6212  0.9373
  422MOL0     H58181   4.390   2.127   2.027 -1.8815  2.7039 -1.7371
  422MOL0     H58182   4.487   2.255   1.992  2.5820 -1.5149 -0.6270
  422MOL0     H58183   4.267   2.278   2.114 -0.7190  3.2341  1.5578
  422MOL0     H58184   4.336   2.201   2.256  1.6474  0.8196  0.8475
  422MOL0     H58185   4.289   2.542   2.093  1.5188  0.1213 -0.2543
  422MOL0     H58186   4.402   2.816   2.310  0.3774 -0.9494  0.6028
  422MOL0     H58187   4.303   2.770   2.160  0.6274 -2.2212 -2.5076
  422MOL0     H58188   4.555   2.711   2.083 -1.3333 -2.8680  2.7478
  422MOL0     H58189   4.451   2.855   2.038 -2.8772  0.8276  2.3483
  422MOL0     H58190   4.670   2.860   2.262  3.3456  0.9525 -1.4676
  422MOL0     H58191   4.705   2.885   2.097 -1.2418  0.1974 -1.5519
  422MOL0     H58192   4.482   3.048   2.224  0.5545  2.7776 -1.8409
  422MOL0     H58193   4.652   3.082   2.248 -1.4896  0.8676  0.4785
  422MOL0     H58194   4.592   3.092   1.813  0.9954 -1.5577 -1.6525
  422MOL0     H58195   4.814   3.095   1.564  2.1757  2.7973 -1.9689
  422MOL0     H58196   4.760   3.263   1.582 -1.1216 -0.4285 -0.0828
  422MOL0     H58197   4.642   3.150   1.615  0.4010  2.9598 -2.2822
  422MOL0     H58198   5.173   3.505   1.645  0.0378  0.7914 -1.1634
  422MOL0     H58199   5.380   3.571   1.533  1.6063 -0.6887 -1.9282
  422MOL0     H58200   5.783   3.366   1.569 -0.0207  0.0125  1.5155
  422MOL0     H58201   5.698   3.222   1.502  0.6911 -0.0674  4.8974
  422MOL0     H58202   5.858   3.286   1.328 -1.0272 -1.2307 -2.9420
  422MOL0     H58203   5.711   3.317   1.278  0.6038  2.0498 -2.2152
  422MOL0     H58204   5.860   3.549   1.416  0.3060 -1.3526  0.1676
  422MOL0     H58205   5.704   3.560   1.329 -0.5846 -0.0312  0.9859
  422MOL0     H58206   5.855   3.464   1.116 -0.8738  1.7713 -1.0028
  422MOL0     H58207   5.985   3.470   1.235 -2.4771 -0.7430  3.6254
  422MOL0     H58208   5.890   3.739   1.237  1.1184  1.7468 -1.1711
  422MOL0     H58209   6.026   3.670   1.140 -0.3311 -2.7166  0.1670
  422MOL0     H58210   5.752   3.683   1.022 -0.7818  1.2461  1.1820
  422MOL0     H58211   5.903   3.633   0.950  1.3129  3.3997 -0.0179
  422MOL0     H58212   6.004   3.839   0.941  0.1790 -0.6244 -0.2958
  422MOL0     H58213   5.878   3.922   1.036  2.0221  1.0120 -0.8180
  422MOL0     H58214   5.714   3.852   0.849 -0.6900 -3.5549 -1.9318
  422MOL0     H58215   5.836   3.743   0.777  1.5250  1.5935 -3.0823
  422MOL0     H58216   5.547   3.183   1.636 -0.8453 -0.2836  2.5311
  422MOL0     H58217   5.348   3.138   1.769  3.4393 -1.1785  0.0016
  422MOL0     H58218   5.009   3.259   2.009  1.7849 -1.9251  0.4941
  422MOL0     H58219   4.824   3.174   2.162 -1.8330 -1.1185  0.4302
  422MOL0     H58220   5.452   1.823   2.255 -2.0513 -2.2219 -1.0815
  422MOL0     H58221   5.692   1.872   2.191 -0.5123  2.8929  0.8928
  422MOL0     H58222   5.917   2.040   1.754 -0.0604  0.3973 -1.8793
  422MOL0     H58223   6.142   2.083   1.640 -2.7677  1.5564 -0.5620
  422MOL0     H58224   6.265   2.046   1.452 -0.9145 -1.5745  1.1418
  422MOL0     H58225   6.388   2.092   1.567  1.4345  1.6670 -3.1805
  422MOL0     H58226   6.560   1.947   1.443 -0.1860 -3.8142 -3.0141
  422MOL0     H58227   6.482   2.067   1.341 -2.0464  2.2657  1.9005
  422MOL0     H58228   6.529   1.823   1.264  1.0888  0.8745  0.1404
  422MOL0     H58229   6.422   1.774   1.396 -0.8473  1.4434  0.5137
  422MOL0     H58230   6.231   1.890   1.279 -0.5209  1.0393 -0.0380
  422MOL0     H58231   6.299   1.764   1.189 -1.8882 -0.0026  3.1869
  422MOL0     H58232   6.441   2.103   0.968 -1.8891 -1.9858 -2.6300
  422MOL0     H58233   6.273   1.692   1.731  2.6466  1.6922 -0.7254
  422MOL0     H58234   6.038   1.655   2.016  1.9867 -1.7795  1.4670
  422MOL0     H58235   6.009   1.573   1.868 -0.8669 -0.8851  3.1653
  422MOL0     H58236   6.175   1.587   1.919 -0.0848  1.1604 -2.4975
  423MOL0     O58237   5.300   0.296  10.859  0.3477 -0.0210  0.9188
  423MOL0     C58238   5.222   0.216  10.898  0.1245  0.2137 -0.5390
  423MOL0     O58239   5.207   0.091  10.855  0.0197  0.0519  0.1945
  423MOL0     C58240   5.264   0.047  10.740 -0.4980  0.7214  0.6546
  423MOL0     C58241   5.285   0.130  10.623 -0.1916  0.4806 -0.4585
  423MOL0     C58242   5.325   0.079  10.502 -0.2812 -0.0301  0.0251
  423MOL0     C58243   5.365  -0.054  10.492  0.4643 -0.5676  0.6222
  423MOL0     O58244   5.398  -0.090  10.361  0.4536  0.4904  0.0654
  423MOL0     C58245   5.493  -0.197  10.348  0.1890 -0.0614 -0.0568
  423MOL0     C58246   5.414  -0.328  10.306 -0.9256 -1.1407  0.4037
  423MOL0     C58247   5.515  -0.450  10.296 -0.2576 -0.9149 -0.1026
  423MOL0     C58248   5.448  -0.578  10.249 -0.8238  0.4982 -0.3436
  423MOL0     C58249   5.547  -0.675  10.177  0.1125  0.5993 -0.0327
  423MOL0     C58250   5.491  -0.815  10.175  0.8420 -0.4808 -0.0327
  423MOL0     C58251   5.546  -0.899  10.062  0.0032  0.2066 -0.3906
  423MOL0     C58252   5.533  -1.050  10.102 -0.0304 -0.5061 -0.2308
  423MOL0     N58253   5.636  -1.085  10.198  0.3268  0.0457  0.6920
  423MOL0     C58254   5.774  -1.093  10.165  0.2123  0.3353  0.1103
  423MOL0     C58255   5.820  -1.150  10.280 -0.1270  0.3273 -0.1592
  423MOL0     C58256   5.962  -1.166  10.321  0.6667  0.0537  0.2786
  423MOL0     C58257   5.994  -1.293  10.406  0.6330 -0.4072 -0.8430
  423MOL0     C58258   6.017  -1.267  10.555  0.0045 -0.1396  0.2231
  423MOL0     C58259   5.918  -1.202  10.650 -0.1974 -0.2660  0.3747
  423MOL0     O58260   5.993  -1.150  10.755 -0.2700  0.4517 -0.5497
  423MOL0     C58261   5.916  -1.104  10.859 -0.0245 -0.1069 -0.1623
  423MOL0     C58262   5.987  -1.049  10.962 -0.3676  0.1706  0.7453
  423MOL0     C58263   5.928  -1.020  11.081 -1.0969 -0.4203  0.5510
  423MOL0     C58264   6.027  -0.981  11.187 -0.3122 -0.9619 -0.3785
  423MOL0     C58265   5.796  -1.030  11.091  1.0911 -0.2466  1.3399
  423MOL0     C58266   5.734  -1.005  11.222 -0.5444 -0.2129  1.0042
  423MOL0     O58267   5.766  -0.881  11.280  0.2608 -0.6061  0.0327
  423MOL0     C58268   5.713  -0.851  11.406 -0.0747 -1.6092  0.7499
  423MOL0     C58269   5.705  -0.943  11.506 -0.8972  0.3443 -0.2612
  423MOL0     C58270   5.678  -0.911  11.635  0.2454 -0.8763 -1.0850
  423MOL0     C58271   5.652  -0.772  11.666  0.6829  0.2700  0.1187
  423MOL0     O58272   5.598  -0.728  11.793  0.2383  0.5129  0.0694
  423MOL0     C58273   5.550  -0.832  11.875  0.1301 -0.1651  0.5972
  423MOL0     C58274   5.482  -0.764  11.996  0.1338  0.5452  0.5255
  423MOL0     C58275   5.363  -0.672  11.958 -0.1246  0.7888 -0.1223
  423MOL0     C58276   5.225  -0.741  11.983  0.5633  0.6775  0.9377
  423MOL0     C58277   5.198  -0.768  12.130  0.4543  0.6107 -0.2069
  423MOL0     C58278   5.052  -0.762  12.179 -0.5046  0.0639 -0.5522
  423MOL0     C58279   5.060  -0.742  12.333  0.4294 -0.5348  0.7912
  423MOL0     C58280   4.916  -0.742  12.392 -0.2672 -0.3066  0.1173
  423MOL0    Cl58281   4.806  -0.615  12.336 -0.2590  0.1629 -0.1245
  423MOL0     C58282   5.652  -0.681  11.566  1.2452 -1.2400 -0.0171
  423MOL0     C58283   5.684  -0.720  11.439 -0.5700  0.2250 -0.5337
  423MOL0     O58284   5.660  -1.086  11.271 -0.0249 -1.0578  0.3405
  423MOL0     C58285   5.717  -1.069  10.981 -0.4424  0.1287  0.1546
  423MOL0     C58286   5.776  -1.103  10.859 -1.1114  0.3204 -0.4314
  423MOL0     N58287   5.721  -1.180  10.369  0.3980  0.2449  0.0887
  423MOL0     N58288   5.606  -1.146  10.315  0.4958  0.2502  0.0596
  423MOL0     C58289   5.350  -0.143  10.604 -0.0746 -0.4922  0.2250
  423MOL0     C58290   5.304  -0.093  10.727 -0.1747  0.1504 -0.0568
  423MOL0     C58291   5.135   0.260  11.008  0.4405 -0.3665 -0.0083
  423MOL0     C58292   5.091   0.156  11.097 -0.1035 -1.2629  0.3262
  423MOL0     C58293   5.002   0.187  11.206  0.0056 -0.0390 -0.1354
  423MOL0     C58294   4.953   0.318  11.223 -0.4790  0.3678 -0.4615
  423MOL0     O58295   4.883   0.367  11.337 -0.3299  0.8593 -0.5023
  423MOL0     C58296   4.781   0.278  11.387 -0.2590 -0.4355 -0.0754
  423MOL0     C58297   4.709   0.345  11.506  0.2620 -0.9011  0.5647
  423MOL0     C58298   4.807   0.362  11.620 -0.8314  0.7128  1.0735
  423MOL0     C58299   4.757   0.451  11.732 -0.3317  0.1079  0.6808
  423MOL0     C58300   4.652   0.390  11.809  0.3621  0.0658 -0.3288
  423MOL0     C58301   4.557   0.343  11.876 -0.6705  0.0518 -0.1374
  423MOL0     C58302   4.995   0.409  11.134  0.3664 -0.3177 -0.0667
  423MOL0     C58303   5.065   0.380  11.012  0.1382 -0.4332 -0.0723
  423MOL0     C58304   5.069   0.497  10.913 -0.2456  0.1317 -0.4687
  423MOL0     H58305   5.264   0.236  10.629 -1.6364  0.1503  1.6707
  423MOL0     H58306   5.320   0.143  10.415  1.3611 -0.1708 -0.1906
  423MOL0     H58307   5.551  -0.217  10.438 -0.3361 -0.0403  0.2898
  423MOL0     H58308   5.569  -0.164  10.276  1.1213 -0.5195  0.6932
  423MOL0     H58309   5.336  -0.342  10.381 -1.2407  0.5303  0.4201
  423MOL0     H58310   5.370  -0.312  10.208  2.0134  1.4347 -0.6543
  423MOL0     H58311   5.603  -0.437  10.232 -1.1914 -0.2494 -1.2784
  423MOL0     H58312   5.549  -0.459  10.400 -0.8578  0.4467  0.2403
  423MOL0     H58313   5.406  -0.624  10.339  0.7535 -1.7666 -0.6773
  423MOL0     H58314   5.358  -0.562  10.188 -2.3487  0.8913  1.9194
  423MOL0     H58315   5.646  -0.677  10.224 -0.7516 -4.6674  2.2193
  423MOL0     H58316   5.557  -0.637  10.075  0.6314  0.6110  0.0201
  423MOL0     H58317   5.513  -0.856  10.275  0.5094  3.3578  1.7774
  423MOL0     H58318   5.382  -0.810  10.164  0.7028  1.3317  1.6417
  423MOL0     H58319   5.647  -0.867  10.034 -0.9128  0.9800 -3.1613
  423MOL0     H58320   5.490  -0.873   9.971 -2.8116  3.6422  2.0340
  423MOL0     H58321   5.437  -1.073  10.149  0.3512 -0.0155  0.8301
  423MOL0     H58322   5.533  -1.103  10.007 -1.6006  1.2226 -1.2713
  423MOL0     H58323   5.829  -1.049  10.083  1.1770 -0.5572  0.2650
  423MOL0     H58324   5.984  -1.074  10.375 -2.4700  0.7017  0.6386
  423MOL0     H58325   6.022  -1.166  10.230 -1.6090  1.7896 -1.3490
  423MOL0     H58326   5.917  -1.368  10.392 -0.3865  0.8362 -2.2213
  423MOL0     H58327   6.082  -1.329  10.352 -0.0437 -2.3932 -0.6775
  423MOL0     H58328   6.046  -1.364  10.597  1.8138  0.3776  0.2492
  423MOL0     H58329   6.106  -1.205  10.564  0.2371 -0.7091  2.3868
  423MOL0     H58330   5.859  -1.122  10.604 -1.0894 -1.1744 -0.1125
  423MOL0     H58331   5.848  -1.280  10.682 -1.5163 -0.0656 -1.8220
  423MOL0     H58332   6.095  -1.049  10.953 -0.4792 -1.8417 -1.7898
  423MOL0     H58333   6.132  -0.986  11.157  1.1591  3.9791  2.6456
  423MOL0     H58334   6.014  -1.048  11.273  1.8842 -1.1124 -0.1009
  423MOL0     H58335   6.016  -0.875  11.213  1.0945 -0.8755 -0.0622
  423MOL0     H58336   5.722  -1.048  11.483 -1.7828  0.5588 -2.1443
  423MOL0     H58337   5.662  -0.996  11.701  0.4316 -2.2545 -2.7282
  423MOL0     H58338   5.468  -0.879  11.820 -1.0677  1.5614  0.8298
  423MOL0     H58339   5.623  -0.907  11.906 -1.4212 -2.7444 -1.5912
  423MOL0     H58340   5.445  -0.823  12.080 -1.1690 -1.1972 -1.1761
  423MOL0     H58341   5.559  -0.699  12.037  0.3933  1.1075 -0.7864
  423MOL0     H58342   5.361  -0.655  11.850  0.7522 -0.0855 -0.2850
  423MOL0     H58343   5.371  -0.577  12.011  2.0506  0.6411 -0.1033
  423MOL0     H58344   5.199  -0.826  11.919 -2.7102  0.7846  1.9664
  423MOL0     H58345   5.154  -0.661  11.962  2.0884  2.5835  2.6879
  423MOL0     H58346   5.237  -0.868  12.151  1.0761  0.6174 -1.2778
  423MOL0     H58347   5.250  -0.691  12.188  0.2700  0.6074 -0.0362
  423MOL0     H58348   5.007  -0.860  12.167  2.3064 -1.7218  1.9080
  423MOL0     H58349   4.995  -0.684  12.128 -0.5363 -0.0860 -0.7478
  423MOL0     H58350   5.117  -0.656  12.372  0.8514 -0.9943  1.2089
  423MOL0     H58351   5.116  -0.828  12.370  1.9031 -0.0644 -0.2554
  423MOL0     H58352   4.909  -0.761  12.500  0.6014 -0.0385  0.2251
  423MOL0     H58353   4.868  -0.835  12.359 -3.8043  1.6087 -0.7409
  423MOL0     H58354   5.624  -0.584  11.605  1.5333 -1.3526  0.4862
  423MOL0     H58355   5.699  -0.652  11.355  3.3773 -2.8182 -2.6534
  423MOL0     H58356   5.611  -1.051  10.997 -0.9076 -0.3857 -1.9973
  423MOL0     H58357   5.714  -1.127  10.773  0.1549 -1.5487 -0.8717
  423MOL0     H58358   5.364  -0.250  10.599 -0.6160 -0.6171  1.1620
  423MOL0     H58359   5.296  -0.161  10.812  1.3424 -2.1808 -1.6509
  423MOL0     H58360   5.136   0.057  11.094 -0.9834 -1.6857  0.8419
  423MOL0     H58361   4.980   0.114  11.284  1.6084  3.0332  3.5236
  423MOL0     H58362   4.714   0.242  11.308  1.2823 -2.2218 -0.6394
  423MOL0     H58363   4.827   0.186  11.424  0.2670 -0.0167  0.3273
  423MOL0     H58364   4.615   0.300  11.539  0.7638 -1.4567  1.2762
  423MOL0     H58365   4.689   0.446  11.469  0.1073 -1.2326 -0.2892
  423MOL0     H58366   4.825   0.262  11.663  1.6843  0.1957 -0.8708
  423MOL0     H58367   4.907   0.394  11.588 -0.6001  0.4905  1.5560
  423MOL0     H58368   4.715   0.544  11.694 -1.8579  0.2686  2.6126
  423MOL0     H58369   4.832   0.487  11.804 -1.7736 -1.1655  2.9556
  423MOL0     H58370   4.476   0.295  11.928  0.0319 -0.1133  0.8432
  423MOL0     H58371   4.954   0.510  11.145  0.0378 -0.5353  0.7302
  423MOL0     H58372   5.087   0.599  10.950  0.2049 -0.8205  2.1716
  423MOL0     H58373   5.143   0.487  10.834  1.3669 -0.6750  1.0771
  423MOL0     H58374   4.974   0.495  10.859 -1.0511 -1.5853  0.8984
  424MOL0     O58375   7.170   8.742   2.302  0.8138 -0.1932  0.3882
  424MOL0     C58376   7.077   8.676   2.262  0.2548 -0.3701  0.0638
  424MOL0     O58377   7.093   8.553   2.197  0.1895 -0.5484 -0.1692
  424MOL0     C58378   7.217   8.499   2.178  0.9795  0.4398  0.2705
  424MOL0     C58379   7.253   8.393   2.253 -0.0390  0.4990  0.3441
  424MOL0     C58380   7.384   8.338   2.233  0.3810 -0.7380 -0.7390
  424MOL0     C58381   7.468   8.373   2.124  0.3711 -0.9987  0.0004
  424MOL0     O58382   7.598   8.329   2.094 -0.1581  0.5154 -0.1578
  424MOL0     C58383   7.652   8.247   2.192 -1.4068  0.0937 -0.4020
  424MOL0     C58384   7.797   8.204   2.172 -0.1905  0.2836  0.0775
  424MOL0     C58385   7.895   8.313   2.192  0.1940 -0.6929 -0.0362
  424MOL0     C58386   8.036   8.280   2.135 -0.1366 -1.0936 -0.0288
  424MOL0     C58387   8.109   8.163   2.203  0.5968  0.1121 -1.1877
  424MOL0     C58388   8.114   8.178   2.356  0.5318  0.1026 -0.0572
  424MOL0     C58389   8.159   8.058   2.438 -0.2356 -0.1052  1.0891
  424MOL0     C58390   8.070   7.936   2.438  0.2878 -0.2936 -0.1398
  424MOL0     N58391   8.143   7.806   2.428 -0.1372  0.1433  0.0228
  424MOL0     C58392   8.135   7.719   2.326  0.2642  0.2585 -0.7240
  424MOL0     C58393   8.189   7.607   2.372 -0.0276 -0.0348  0.7445
  424MOL0     C58394   8.201   7.479   2.299 -0.8024  0.1164 -0.2782
  424MOL0     C58395   8.350   7.437   2.291 -1.0697  0.8738  0.0929
  424MOL0     C58396   8.425   7.490   2.165  0.0690 -0.6923 -0.1036
  424MOL0     C58397   8.349   7.468   2.037 -0.4918 -0.2382  0.1881
  424MOL0     O58398   8.451   7.474   1.932 -0.4777 -0.7001  0.0113
  424MOL0     C58399   8.410   7.484   1.798  0.3558 -0.0853 -0.4628
  424MOL0     C58400   8.505   7.462   1.700  0.2290 -1.1893 -0.4518
  424MOL0     C58401   8.479   7.464   1.562  0.3286  0.1137 -0.0209
  424MOL0     C58402   8.598   7.471   1.468 -0.1228 -0.5413 -0.1527
  424MOL0     C58403   8.342   7.481   1.509 -0.5010 -0.0084 -0.8034
  424MOL0     C58404   8.313   7.489   1.370 -0.3695 -0.5733 -1.5286
  424MOL0     O58405   8.398   7.425   1.288 -0.3077 -0.3094  0.1826
  424MOL0     C58406   8.410   7.445   1.154  0.5223  0.2161  0.0952
  424MOL0     C58407   8.489   7.345   1.095  0.0230 -0.7891  0.6168
  424MOL0     C58408   8.513   7.350   0.957 -0.9603 -0.0915  0.6133
  424MOL0     C58409   8.464   7.465   0.885  0.0478  0.1813  0.1452
  424MOL0     O58410   8.473   7.474   0.752 -0.2617 -0.3004 -1.0180
  424MOL0     C58411   8.486   7.351   0.673 -0.4969 -0.2221  1.2645
  424MOL0     C58412   8.402   7.364   0.544 -0.0271 -0.3047 -0.1928
  424MOL0     C58413   8.261   7.371   0.590  0.4499 -0.1597  0.6479
  424MOL0     C58414   8.169   7.361   0.465  0.2799 -1.2038 -0.6228
  424MOL0     C58415   8.034   7.434   0.491  0.1395  0.2447 -0.3531
  424MOL0     C58416   7.926   7.368   0.400  0.0112 -0.1168 -0.9828
  424MOL0     C58417   7.955   7.385   0.242 -0.3919 -0.5475 -0.0247
  424MOL0     C58418   7.963   7.526   0.191  0.0393 -0.1509 -0.5542
  424MOL0    Cl58419   7.810   7.602   0.200 -0.3371  0.0710  0.4126
  424MOL0     C58420   8.392   7.570   0.944 -0.6240  0.6394  0.1193
  424MOL0     C58421   8.363   7.560   1.080  0.5054 -0.3660  0.5112
  424MOL0     O58422   8.206   7.542   1.341  0.2676  0.3546  0.4299
  424MOL0     C58423   8.241   7.498   1.615 -0.4506 -0.0991 -0.0520
  424MOL0     C58424   8.280   7.502   1.751 -0.2365  0.2992 -0.0658
  424MOL0     N58425   8.239   7.617   2.492 -0.5236  0.9536 -0.0669
  424MOL0     N58426   8.216   7.744   2.528  0.4280 -0.3786 -0.0373
  424MOL0     C58427   7.411   8.475   2.044 -0.8564 -0.3643  1.3426
  424MOL0     C58428   7.287   8.536   2.067  0.6086 -0.8001  0.3371
  424MOL0     C58429   6.939   8.691   2.318 -0.0970 -0.4091 -0.1464
  424MOL0     C58430   6.850   8.578   2.318 -0.2450  0.6619  0.4305
  424MOL0     C58431   6.718   8.581   2.354 -0.5911  0.0003  0.2053
  424MOL0     C58432   6.662   8.699   2.400 -0.0585  0.8675  0.2610
  424MOL0     O58433   6.535   8.714   2.444 -0.6544 -0.4224 -0.3058
  424MOL0     C58434   6.456   8.607   2.475 -0.2143 -0.2949 -0.6032
  424MOL0     C58435   6.383   8.556   2.352  0.6479 -0.6972  0.3071
  424MOL0     C58436   6.289   8.668   2.289 -0.4655  0.1730 -0.1689
  424MOL0     C58437   6.181   8.605   2.208  0.2163  0.0345 -0.8104
  424MOL0     C58438   6.081   8.541   2.299  0.3809  0.6306  0.0410
  424MOL0     C58439   6.000   8.496   2.379  0.6329 -0.4217  0.6746
  424MOL0     C58440   6.746   8.813   2.408  0.0211  0.4656 -0.1906
  424MOL0     C58441   6.881   8.806   2.371 -0.2421 -0.2592  0.8470
  424MOL0     C58442   6.961   8.933   2.378 -0.7601 -0.6530 -0.1682
  424MOL0     H58443   7.195   8.355   2.337  0.3592 -0.8886  0.0310
  424MOL0     H58444   7.426   8.265   2.301 -0.0022 -1.4923 -1.2931
  424MOL0     H58445   7.590   8.158   2.201 -0.1217 -1.0387 -2.2604
  424MOL0     H58446   7.660   8.291   2.292  2.5154 -0.5813 -0.2842
  424MOL0     H58447   7.816   8.134   2.254 -3.7185 -1.1293 -0.1077
  424MOL0     H58448   7.790   8.156   2.075  0.7407 -1.3588  0.7850
  424MOL0     H58449   7.864   8.400   2.132 -0.1388  1.8532  3.4852
  424MOL0     H58450   7.894   8.346   2.297 -1.1389 -1.2208  0.1418
  424MOL0     H58451   8.022   8.259   2.028 -0.0736 -1.2417 -0.0075
  424MOL0     H58452   8.105   8.365   2.135 -0.6169 -0.6438 -2.0660
  424MOL0     H58453   8.210   8.160   2.159  1.5351 -1.9648  0.9327
  424MOL0     H58454   8.082   8.064   2.168  0.1622 -0.7931  1.4913
  424MOL0     H58455   8.169   8.267   2.389  0.4539  0.5036 -0.9744
  424MOL0     H58456   8.012   8.194   2.392  1.0604  3.3342  0.3805
  424MOL0     H58457   8.181   8.091   2.539 -0.6584 -0.1880  1.2103
  424MOL0     H58458   8.247   8.017   2.387 -0.8582 -0.2010  0.0514
  424MOL0     H58459   8.027   7.927   2.538  1.7649  0.4719  0.5950
  424MOL0     H58460   8.003   7.953   2.354 -0.5006 -0.5266  0.4294
  424MOL0     H58461   8.082   7.741   2.233  0.5245 -0.1278 -0.9690
  424MOL0     H58462   8.152   7.481   2.201 -0.1510  0.4305 -0.6011
  424MOL0     H58463   8.142   7.416   2.367 -4.4757  2.6300 -0.8130
  424MOL0     H58464   8.413   7.453   2.379  0.6332  1.2851 -1.1460
  424MOL0     H58465   8.356   7.328   2.277 -1.4107  0.7986  0.5176
  424MOL0     H58466   8.449   7.594   2.186  2.0158 -1.0509 -0.3688
  424MOL0     H58467   8.521   7.439   2.171  0.4734  0.0504 -0.1818
  424MOL0     H58468   8.306   7.368   2.051 -0.6998 -0.3173 -0.9110
  424MOL0     H58469   8.273   7.547   2.032 -1.7655 -1.2463  2.2316
  424MOL0     H58470   8.606   7.445   1.736  0.3146 -0.7476 -0.4877
  424MOL0     H58471   8.589   7.564   1.410  0.7551 -2.6276 -4.0356
  424MOL0     H58472   8.603   7.388   1.396  0.5073 -1.4140  0.8629
  424MOL0     H58473   8.693   7.476   1.521 -0.3963  1.5008  0.2180
  424MOL0     H58474   8.523   7.249   1.134 -0.9072 -0.4017  2.4591
  424MOL0     H58475   8.574   7.274   0.910  0.7880  2.3941 -1.4167
  424MOL0     H58476   8.589   7.338   0.641 -0.2532  1.8831  1.0831
  424MOL0     H58477   8.452   7.263   0.729 -1.1875 -0.9327 -0.2118
  424MOL0     H58478   8.434   7.451   0.486  0.5938  0.5820  1.4111
  424MOL0     H58479   8.426   7.270   0.495 -0.0964 -0.8984  0.8904
  424MOL0     H58480   8.239   7.465   0.643 -0.4533  0.7674 -1.2625
  424MOL0     H58481   8.228   7.297   0.663 -0.3623 -0.7840 -0.3355
  424MOL0     H58482   8.159   7.254   0.446 -2.8760 -1.5067  1.9261
  424MOL0     H58483   8.222   7.423   0.392 -0.3812 -1.5740 -1.4352
  424MOL0     H58484   8.008   7.409   0.594 -2.1430  1.0915 -0.6697
  424MOL0     H58485   8.032   7.543   0.479 -0.4937  0.2597 -0.1522
  424MOL0     H58486   7.832   7.410   0.438 -0.5247 -3.1962  1.4629
  424MOL0     H58487   7.927   7.265   0.437  0.5274  1.2145  3.1294
  424MOL0     H58488   7.901   7.325   0.169 -1.3404 -2.1676  1.9148
  424MOL0     H58489   8.056   7.349   0.220  0.7420  3.4094 -2.3229
  424MOL0     H58490   8.016   7.531   0.095  1.4126  1.8573  0.2328
  424MOL0     H58491   8.033   7.579   0.256 -0.4424  2.5423 -2.0727
  424MOL0     H58492   8.356   7.650   0.880 -0.1742  1.4060  0.8035
  424MOL0     H58493   8.306   7.641   1.125  0.1449  1.1506 -2.4477
  424MOL0     H58494   8.138   7.502   1.581  0.2197 -0.7541 -2.3790
  424MOL0     H58495   8.201   7.495   1.825 -0.8885 -4.6105 -0.8612
  424MOL0     H58496   7.473   8.509   1.962  0.0157  3.2426  3.3007
  424MOL0     H58497   7.250   8.617   2.004 -2.8239 -2.7684 -0.4251
  424MOL0     H58498   6.889   8.489   2.271 -2.1171  2.5975 -5.7399
  424MOL0     H58499   6.663   8.488   2.355 -2.4778  1.0518  1.4229
  424MOL0     H58500   6.520   8.532   2.522  3.3575  3.2623  0.8200
  424MOL0     H58501   6.382   8.635   2.551  1.0990 -0.7172  0.8941
  424MOL0     H58502   6.326   8.466   2.374 -0.0690 -0.6369 -1.2287
  424MOL0     H58503   6.460   8.528   2.280  1.4720  0.7955  0.5532
  424MOL0     H58504   6.255   8.744   2.360 -1.6032 -0.4928  0.0135
  424MOL0     H58505   6.356   8.726   2.225  2.7498 -2.1635  0.8240
  424MOL0     H58506   6.227   8.536   2.137 -3.3623 -2.5835 -0.8823
  424MOL0     H58507   6.140   8.683   2.143 -0.3642  2.9304  2.7607
  424MOL0     H58508   5.917   8.443   2.423 -0.7288  0.6488 -0.4863
  424MOL0     H58509   6.713   8.912   2.440  1.7054  0.2993  2.3138
  424MOL0     H58510   7.041   8.926   2.452  0.1257  1.8466 -0.7767
  424MOL0     H58511   7.014   8.957   2.285 -0.0339 -0.9458  0.1656
  424MOL0     H58512   6.894   9.012   2.414 -1.1782 -1.5473  1.0709
  425MOL0     O58513   2.773   9.918   2.894  0.7094 -0.7235 -0.5771
  425MOL0     C58514   2.736   9.829   2.824  0.8211  0.1116  0.4803
  425MOL0     O58515   2.800   9.708   2.807 -0.3509  1.0910  0.6893
  425MOL0     C58516   2.926   9.707   2.858  0.4521 -0.2261  0.5666
  425MOL0     C58517   2.953   9.627   2.965 -0.4074  0.7992 -0.5689
  425MOL0     C58518   3.086   9.606   3.008  0.3338  0.0256 -0.4009
  425MOL0     C58519   3.194   9.656   2.929  0.6426  0.4988  0.0945
  425MOL0     O58520   3.328   9.622   2.949 -0.3269 -0.0217  0.8791
  425MOL0     C58521   3.381   9.547   3.064  0.4534  0.6392 -0.7009
  425MOL0     C58522   3.515   9.495   3.012 -0.4137  0.1111 -0.5636
  425MOL0     C58523   3.578   9.406   3.125 -0.0244  0.0083 -0.0431
  425MOL0     C58524   3.722   9.389   3.097  0.3716 -0.3855  1.6027
  425MOL0     C58525   3.763   9.269   3.015  0.0057  0.1771  0.6856
  425MOL0     C58526   3.731   9.145   3.090  0.2944 -0.1591  0.2002
  425MOL0     C58527   3.800   9.016   3.043 -0.8569 -0.6407 -0.7417
  425MOL0     C58528   3.787   8.996   2.888 -0.6340 -0.0599 -0.0958
  425MOL0     N58529   3.854   8.857   2.867 -0.1500 -0.4626  0.0700
  425MOL0     C58530   3.990   8.836   2.898  0.4235  0.6517  0.1796
  425MOL0     C58531   4.006   8.701   2.881 -0.1962  0.0213 -0.7493
  425MOL0     C58532   4.121   8.615   2.938  0.2790  0.2744 -0.1868
  425MOL0     C58533   4.261   8.644   2.895  0.1966 -0.4778  0.7649
  425MOL0     C58534   4.284   8.594   2.751  0.1544  0.7935  0.4557
  425MOL0     C58535   4.424   8.617   2.699 -1.0448  0.0897 -0.2237
  425MOL0     O58536   4.534   8.578   2.795  0.5217 -0.7083 -0.8772
  425MOL0     C58537   4.663   8.612   2.764  0.0476 -0.6117  0.8114
  425MOL0     C58538   4.697   8.746   2.742 -0.5453  1.0155  0.1034
  425MOL0     C58539   4.826   8.783   2.705 -0.8094  0.8730  0.6171
  425MOL0     C58540   4.850   8.925   2.683  0.3313  0.2140  0.5563
  425MOL0     C58541   4.925   8.684   2.701  0.3167 -0.7243  0.1510
  425MOL0     C58542   5.069   8.713   2.698  0.5484 -0.4096 -0.3640
  425MOL0     O58543   5.102   8.820   2.622 -1.1628  0.2525 -0.5300
  425MOL0     C58544   5.238   8.852   2.616  0.7350 -0.2118  0.5562
  425MOL0     C58545   5.345   8.763   2.593  0.3584  0.9432  0.1405
  425MOL0     C58546   5.478   8.800   2.563  0.2937 -0.2279 -0.0352
  425MOL0     C58547   5.512   8.943   2.569 -0.2212  1.2907 -0.2033
  425MOL0     O58548   5.637   8.989   2.544 -1.0581  0.4720  0.1453
  425MOL0     C58549   5.667   9.129   2.580 -0.5235  0.1278  0.6823
  425MOL0     C58550   5.808   9.152   2.528  0.4567  0.2328 -0.7113
  425MOL0     C58551   5.827   9.301   2.534 -0.1708 -0.7734  0.0074
  425MOL0     C58552   5.953   9.362   2.475 -0.1478 -0.3724  0.3112
  425MOL0     C58553   6.069   9.349   2.576  0.3124  0.6026 -0.3216
  425MOL0     C58554   6.205   9.395   2.521 -0.0462  0.3242 -0.4792
  425MOL0     C58555   6.292   9.440   2.635  0.2825 -0.0015  1.0212
  425MOL0     C58556   6.421   9.501   2.576  0.7415 -0.5323  0.8552
  425MOL0    Cl58557   6.377   9.659   2.499  0.3488  0.4582 -0.0272
  425MOL0     C58558   5.401   9.030   2.601  0.4983  0.8334  0.1672
  425MOL0     C58559   5.271   8.988   2.609  0.0135 -0.2969 -0.0095
  425MOL0     O58560   5.141   8.645   2.770 -0.0945  0.5810 -0.0751
  425MOL0     C58561   4.880   8.552   2.729 -0.1639  0.3067  0.2939
  425MOL0     C58562   4.752   8.511   2.757  0.8435  0.0382 -0.2228
  425MOL0     N58563   3.885   8.646   2.844  0.1716  1.5147  0.7241
  425MOL0     N58564   3.793   8.740   2.832 -0.5476  0.0076 -0.3020
  425MOL0     C58565   3.164   9.738   2.817 -0.3582 -0.7906 -0.6436
  425MOL0     C58566   3.035   9.763   2.787  0.9685  0.3061  0.2829
  425MOL0     C58567   2.599   9.858   2.767  0.1781  0.3069 -0.5619
  425MOL0     C58568   2.547   9.984   2.775 -0.2459  0.2945  0.9584
  425MOL0     C58569   2.419  10.015   2.723  0.3433  0.7535 -1.4523
  425MOL0     C58570   2.341   9.920   2.659  1.1495 -0.2725 -0.2744
  425MOL0     O58571   2.227   9.941   2.586 -0.3556  0.3623 -0.5725
  425MOL0     C58572   2.126  10.014   2.663 -0.3624  0.4080  0.7880
  425MOL0     C58573   2.010  10.055   2.572  1.2646 -0.0423  0.3405
  425MOL0     C58574   1.910  10.140   2.646 -0.0306 -0.6405 -0.7805
  425MOL0     C58575   1.805  10.202   2.560  0.0163  1.3089 -0.1579
  425MOL0     C58576   1.694  10.273   2.619 -0.4169 -0.6819 -0.4207
  425MOL0     C58577   1.609  10.326   2.688  0.9487  0.2227  0.1313
  425MOL0     C58578   2.394   9.794   2.650 -0.6418  0.3365  1.0236
  425MOL0     C58579   2.524   9.768   2.697 -0.7606 -0.4576  1.2130
  425MOL0     C58580   2.571   9.633   2.647 -0.7295 -0.2931  0.1721
  425MOL0     H58581   2.867   9.593   3.021  2.3423 -1.7784  2.5416
  425MOL0     H58582   3.106   9.533   3.087 -0.1744  1.1739  0.8284
  425MOL0     H58583   3.321   9.459   3.086  0.5993  0.4225 -1.1539
  425MOL0     H58584   3.386   9.610   3.154  2.2670  0.7398 -0.8354
  425MOL0     H58585   3.501   9.430   2.925 -0.4095 -0.0163 -0.4698
  425MOL0     H58586   3.583   9.578   2.990  2.8204 -2.0126  0.6844
  425MOL0     H58587   3.576   9.467   3.216  0.3987  0.6444 -0.4505
  425MOL0     H58588   3.528   9.310   3.143  2.4514 -1.0094  2.0238
  425MOL0     H58589   3.763   9.469   3.034  4.1656 -4.0532 -1.1744
  425MOL0     H58590   3.778   9.400   3.191  3.0190 -0.6461  0.1563
  425MOL0     H58591   3.872   9.262   3.007  0.1861  0.9623  2.0484
  425MOL0     H58592   3.714   9.265   2.918  1.0618  1.8643  0.0269
  425MOL0     H58593   3.750   9.159   3.197  1.3108 -0.5834  0.0878
  425MOL0     H58594   3.624   9.124   3.079  0.1869 -1.9742  3.4233
  425MOL0     H58595   3.770   8.935   3.111  0.4168  1.2723  2.3127
  425MOL0     H58596   3.907   9.029   3.062 -1.1547 -1.1114  1.6346
  425MOL0     H58597   3.686   9.003   2.848 -0.1094  0.2055 -1.4328
  425MOL0     H58598   3.844   9.063   2.823 -1.9214  0.4613 -0.7109
  425MOL0     H58599   4.062   8.899   2.950  0.9349 -0.1317  0.4410
  425MOL0     H58600   4.096   8.515   2.900 -1.6435 -0.5600  2.8598
  425MOL0     H58601   4.126   8.610   3.047 -1.2091 -1.4769 -0.1487
  425MOL0     H58602   4.268   8.752   2.903 -0.2080 -0.4593  0.8814
  425MOL0     H58603   4.323   8.597   2.973 -3.1727 -5.0715  1.1010
  425MOL0     H58604   4.267   8.486   2.748  4.8082 -0.1992  1.4412
  425MOL0     H58605   4.208   8.644   2.691 -0.8736 -0.3362  0.7751
  425MOL0     H58606   4.431   8.549   2.613  2.0160 -0.2211  0.1645
  425MOL0     H58607   4.425   8.723   2.672 -2.6336  0.3840  0.7628
  425MOL0     H58608   4.620   8.819   2.764  0.2663  1.6939  0.7625
  425MOL0     H58609   4.757   8.982   2.688 -0.7375 -0.9747 -2.8138
  425MOL0     H58610   4.892   8.942   2.583  0.3000 -1.4013  0.2483
  425MOL0     H58611   4.917   8.971   2.757  3.4659 -0.3847 -1.6904
  425MOL0     H58612   5.323   8.657   2.602 -1.5182  1.1298 -1.5352
  425MOL0     H58613   5.562   8.732   2.549  0.7903  0.5114 -0.8013
  425MOL0     H58614   5.608   9.204   2.527 -0.9866  0.6050  1.8318
  425MOL0     H58615   5.656   9.151   2.687 -1.4566 -1.9670  1.0648
  425MOL0     H58616   5.892   9.113   2.587 -0.3070 -0.4795 -0.0846
  425MOL0     H58617   5.817   9.107   2.429 -0.1133 -1.0111 -0.2063
  425MOL0     H58618   5.812   9.340   2.636 -0.8555  0.3425 -0.4969
  425MOL0     H58619   5.749   9.351   2.477  1.6986  0.0062 -1.9992
  425MOL0     H58620   5.936   9.470   2.467  0.2437 -0.1504  1.9750
  425MOL0     H58621   5.991   9.317   2.383 -1.1460  0.3647 -0.4811
  425MOL0     H58622   6.051   9.403   2.670  0.4000 -0.3768  0.2733
  425MOL0     H58623   6.090   9.250   2.616  4.7672  1.8179  0.9395
  425MOL0     H58624   6.194   9.477   2.449  0.2418 -0.9510 -2.0390
  425MOL0     H58625   6.257   9.314   2.469  2.6981 -0.7528  3.4655
  425MOL0     H58626   6.322   9.364   2.708 -1.2282  1.2145  3.0241
  425MOL0     H58627   6.243   9.507   2.706  0.6204 -2.7651  4.1446
  425MOL0     H58628   6.456   9.442   2.490 -2.1235  2.7980 -3.0212
  425MOL0     H58629   6.499   9.509   2.652  1.8732 -2.2687 -0.0520
  425MOL0     H58630   5.413   9.138   2.595 -1.6473  1.0347 -1.7580
  425MOL0     H58631   5.192   9.061   2.616  1.2464  0.9453  1.9661
  425MOL0     H58632   4.956   8.475   2.727  0.8269  1.2527  0.4473
  425MOL0     H58633   4.708   8.412   2.766  2.4086 -0.7354 -0.6200
  425MOL0     H58634   3.246   9.780   2.760  0.8473  0.2385  1.6794
  425MOL0     H58635   3.023   9.823   2.697  1.5198 -1.1674 -0.8341
  425MOL0     H58636   2.606  10.069   2.807  0.9556 -1.2712  3.2086
  425MOL0     H58637   2.386  10.119   2.727 -1.5490  0.1483 -0.2241
  425MOL0     H58638   2.082   9.953   2.742  1.5031 -0.7197  1.0147
  425MOL0     H58639   2.174  10.105   2.699 -0.7476  1.0611 -0.2788
  425MOL0     H58640   1.962   9.964   2.535 -0.1138 -1.0202  4.0610
  425MOL0     H58641   2.064  10.120   2.503 -0.9615  2.5261  0.8761
  425MOL0     H58642   1.867  10.069   2.717  0.1198 -2.1511 -2.1423
  425MOL0     H58643   1.968  10.216   2.699  2.8481 -1.8533 -1.9700
  425MOL0     H58644   1.765  10.121   2.499 -1.8395  0.2765  2.2441
  425MOL0     H58645   1.849  10.267   2.484  2.5094 -1.9405 -1.7205
  425MOL0     H58646   1.533  10.365   2.752 -2.1790 -1.0423 -2.5280
  425MOL0     H58647   2.340   9.727   2.585  0.1708  0.8736 -0.2485
  425MOL0     H58648   2.673   9.636   2.607 -2.3748  0.4855 -4.5766
  425MOL0     H58649   2.565   9.558   2.727 -1.4990 -0.0450  0.3549
  425MOL0     H58650   2.518   9.611   2.554 -0.1318 -2.8876  0.3616
  426MOL0     O58651   3.780   5.192   3.378  0.2461  0.3228  0.9399
  426MOL0     C58652   3.733   5.142   3.272 -1.3831  0.1411 -0.1271
  426MOL0     O58653   3.613   5.166   3.215  0.4061  0.5349 -0.9936
  426MOL0     C58654   3.535   5.270   3.262 -0.0505 -0.2247 -0.2036
  426MOL0     C58655   3.450   5.251   3.372  0.0251  0.1577 -0.2422
  426MOL0     C58656   3.376   5.363   3.427 -0.5457  0.0589 -0.9043
  426MOL0     C58657   3.383   5.492   3.365  0.8978  0.1893  0.8130
  426MOL0     O58658   3.317   5.596   3.436 -0.1110  1.3090 -0.2983
  426MOL0     C58659   3.298   5.732   3.374 -0.0487 -0.1629 -0.6044
  426MOL0     C58660   3.229   5.819   3.475  0.3632  0.0964 -0.3406
  426MOL0     C58661   3.086   5.766   3.491  0.2317  0.0336  1.4908
  426MOL0     C58662   2.995   5.864   3.551 -0.3297  0.4362  0.0577
  426MOL0     C58663   2.858   5.799   3.566 -0.3755  0.0323  0.3115
  426MOL0     C58664   2.760   5.874   3.652  0.5188  0.2421  0.6780
  426MOL0     C58665   2.791   5.851   3.801  0.5969 -0.2728 -0.7286
  426MOL0     C58666   2.712   5.952   3.887 -0.2530  0.0482  0.9189
  426MOL0     N58667   2.686   5.893   4.024  0.8665 -0.0765  0.2581
  426MOL0     C58668   2.770   5.809   4.100 -0.1158 -0.3016 -0.1701
  426MOL0     C58669   2.709   5.793   4.218  0.5690 -0.4417 -0.7210
  426MOL0     C58670   2.745   5.709   4.336  0.0624 -0.0016  0.9115
  426MOL0     C58671   2.650   5.586   4.340  0.0011 -0.3069 -0.0792
  426MOL0     C58672   2.700   5.500   4.451  0.5021  0.2114 -0.0489
  426MOL0     C58673   2.679   5.557   4.586  0.6759 -0.1780 -0.6063
  426MOL0     O58674   2.537   5.562   4.630  0.6208  0.1177  0.0789
  426MOL0     C58675   2.479   5.441   4.682  0.5322  0.1629 -0.1274
  426MOL0     C58676   2.551   5.324   4.720  1.1737 -0.2238  0.4385
  426MOL0     C58677   2.472   5.207   4.757 -0.2096 -1.1344 -0.7988
  426MOL0     C58678   2.550   5.081   4.795  0.6788  0.1271 -0.1548
  426MOL0     C58679   2.326   5.210   4.753 -1.1254 -0.3043  0.4346
  426MOL0     C58680   2.243   5.090   4.789  0.4427  0.8027 -0.3802
  426MOL0     O58681   2.114   5.101   4.757 -0.4948 -0.7252  0.1615
  426MOL0     C58682   2.035   4.998   4.789  1.0904  0.3169  0.7935
  426MOL0     C58683   2.030   4.882   4.708  0.1391 -1.3158 -0.4480
  426MOL0     C58684   1.929   4.788   4.729  0.6428  0.7018 -0.0718
  426MOL0     C58685   1.829   4.808   4.837 -0.3432 -0.3337  0.8549
  426MOL0     O58686   1.722   4.724   4.863  0.0581  0.0734  0.2925
  426MOL0     C58687   1.710   4.608   4.785 -0.0955  0.4202 -0.7325
  426MOL0     C58688   1.614   4.510   4.854 -0.4294  0.3880 -0.6285
  426MOL0     C58689   1.568   4.390   4.774  0.3516 -0.5936 -0.0721
  426MOL0     C58690   1.673   4.281   4.767  0.1131  0.0397 -0.3585
  426MOL0     C58691   1.616   4.148   4.710  0.4236 -0.0119 -0.9282
  426MOL0     C58692   1.702   4.033   4.757 -0.4904 -0.6919  0.2729
  426MOL0     C58693   1.837   4.034   4.702  0.5221  0.3783 -0.0983
  426MOL0     C58694   1.935   3.952   4.788  0.1158 -0.1447  0.2592
  426MOL0    Cl58695   1.941   4.027   4.953 -0.0185  0.4727 -0.1728
  426MOL0     C58696   1.839   4.926   4.918  0.8173  0.2538  0.4385
  426MOL0     C58697   1.939   5.014   4.889 -0.2738  0.3386  0.3562
  426MOL0     O58698   2.298   4.987   4.835  0.4311  0.1007  0.2534
  426MOL0     C58699   2.260   5.333   4.718 -0.4877 -0.0291  0.9746
  426MOL0     C58700   2.337   5.444   4.684  0.7042 -0.2648 -0.1043
  426MOL0     N58701   2.597   5.872   4.217  0.1994 -0.2915 -0.7081
  426MOL0     N58702   2.578   5.928   4.103 -0.7135  0.6013  0.8163
  426MOL0     C58703   3.461   5.505   3.245  0.0554  0.8667 -0.8353
  426MOL0     C58704   3.538   5.396   3.201  0.3501  0.7958 -0.1988
  426MOL0     C58705   3.831   5.060   3.196  0.0201  0.3284  0.5649
  426MOL0     C58706   3.960   5.102   3.179 -0.2187  1.5372 -0.1471
  426MOL0     C58707   4.055   5.030   3.110  0.0858  0.5770 -0.0595
  426MOL0     C58708   4.016   4.907   3.050  0.2199 -0.2000 -0.8200
  426MOL0     O58709   4.123   4.848   2.979  1.4490  0.7010  0.0664
  426MOL0     C58710   4.126   4.705   2.949 -0.6841  0.3978 -0.6260
  426MOL0     C58711   4.155   4.629   3.086 -0.2234  0.4804 -0.1823
  426MOL0     C58712   4.160   4.476   3.084 -0.4965 -0.0955  0.6482
  426MOL0     C58713   4.241   4.418   2.962  0.2832  1.3495 -0.1746
  426MOL0     C58714   4.382   4.412   3.002  0.0066  0.0002  0.5591
  426MOL0     C58715   4.497   4.407   3.035  0.0024  0.2061  0.3392
  426MOL0     C58716   3.878   4.863   3.059  0.4569  0.3388  0.4680
  426MOL0     C58717   3.786   4.948   3.123  0.9101 -0.0343 -0.7230
  426MOL0     C58718   3.644   4.883   3.137 -0.9186  0.0298  0.1929
  426MOL0     H58719   3.458   5.154   3.419 -0.0960  0.4027  0.2924
  426MOL0     H58720   3.313   5.354   3.515  0.1879 -0.3450 -0.4106
  426MOL0     H58721   3.255   5.726   3.274  2.0807  0.4839 -1.6294
  426MOL0     H58722   3.398   5.771   3.351  1.2843 -1.6826  2.1071
  426MOL0     H58723   3.277   5.822   3.574  1.8845 -2.6683 -0.8762
  426MOL0     H58724   3.227   5.920   3.434 -0.7669 -0.7148 -2.3959
  426MOL0     H58725   3.047   5.738   3.393  0.8652  2.8135  0.3696
  426MOL0     H58726   3.092   5.678   3.557 -0.9809  1.1545  3.1869
  426MOL0     H58727   3.027   5.890   3.652  1.3324 -2.1627  0.3026
  426MOL0     H58728   2.983   5.954   3.491  0.6483 -0.6697 -1.9137
  426MOL0     H58729   2.868   5.699   3.610 -3.8352  0.8697  3.4518
  426MOL0     H58730   2.815   5.792   3.466 -2.7886  0.1192  1.2965
  426MOL0     H58731   2.767   5.979   3.622 -0.8053 -0.3589 -2.0534
  426MOL0     H58732   2.660   5.837   3.626  0.0285  0.4852  2.1342
  426MOL0     H58733   2.899   5.844   3.818  0.4752 -0.8389 -0.1590
  426MOL0     H58734   2.744   5.756   3.831 -0.0473  0.8161  2.0090
  426MOL0     H58735   2.772   6.043   3.896 -0.9045  0.3466  2.6683
  426MOL0     H58736   2.620   5.987   3.839  2.3864  1.5427 -3.5950
  426MOL0     H58737   2.863   5.762   4.069  0.4885  0.5020  0.3985
  426MOL0     H58738   2.748   5.766   4.429  1.5151 -0.7577  1.3648
  426MOL0     H58739   2.850   5.682   4.317  0.7308  2.9773 -0.1362
  426MOL0     H58740   2.544   5.604   4.358  0.5360  1.1957  1.9816
  426MOL0     H58741   2.663   5.526   4.250 -0.5785 -0.3993 -0.1035
  426MOL0     H58742   2.640   5.409   4.450  1.5890 -0.5535  1.1198
  426MOL0     H58743   2.805   5.471   4.439 -0.0571 -3.5706  2.7092
  426MOL0     H58744   2.733   5.485   4.648  0.9189  1.8001  1.5672
  426MOL0     H58745   2.726   5.655   4.595 -0.6615  0.3127  2.0322
  426MOL0     H58746   2.660   5.321   4.721  1.2240 -1.8869  3.5757
  426MOL0     H58747   2.533   5.038   4.894  0.9431  0.1475 -0.1002
  426MOL0     H58748   2.656   5.108   4.791  0.4603  0.8984 -1.3851
  426MOL0     H58749   2.536   5.006   4.716 -0.3945  0.7563 -0.5875
  426MOL0     H58750   2.098   4.867   4.625 -0.5411 -1.4375 -0.9958
  426MOL0     H58751   1.927   4.706   4.657 -3.9925 -0.8298  1.4127
  426MOL0     H58752   1.674   4.639   4.686  0.5140  1.0167 -0.7738
  426MOL0     H58753   1.808   4.561   4.773  0.3242  1.4963 -1.7274
  426MOL0     H58754   1.655   4.466   4.945 -3.2019  1.2038  1.1453
  426MOL0     H58755   1.527   4.574   4.872 -1.4799 -1.3459  0.7566
  426MOL0     H58756   1.539   4.436   4.679  0.4835  1.8561  0.9945
  426MOL0     H58757   1.484   4.350   4.832 -2.2808  3.9714 -0.2870
  426MOL0     H58758   1.701   4.261   4.871 -0.3689  0.1016 -0.2137
  426MOL0     H58759   1.761   4.319   4.714 -0.3425 -1.3144 -2.1908
  426MOL0     H58760   1.519   4.134   4.757  0.6648  3.4671  0.9401
  426MOL0     H58761   1.617   4.139   4.601 -0.5657  0.5727 -0.9958
  426MOL0     H58762   1.648   3.946   4.719  1.9548 -1.9713 -0.4787
  426MOL0     H58763   1.702   4.025   4.866  0.7297  0.6594  0.3968
  426MOL0     H58764   1.872   4.137   4.697 -1.2256  1.0931  1.4374
  426MOL0     H58765   1.845   3.992   4.601  4.4367 -2.1933  1.0441
  426MOL0     H58766   2.036   3.959   4.746  0.5011 -2.2842  0.7580
  426MOL0     H58767   1.914   3.845   4.793  0.5060 -0.1734  4.2494
  426MOL0     H58768   1.772   4.939   5.003  2.0798  0.0763  1.4852
  426MOL0     H58769   1.951   5.100   4.954 -1.7254  1.5351 -0.8770
  426MOL0     H58770   2.152   5.343   4.725 -0.4002  1.8375  0.2478
  426MOL0     H58771   2.284   5.532   4.651  0.1929 -0.7683 -0.6296
  426MOL0     H58772   3.469   5.597   3.189 -2.5942  2.1533  0.7032
  426MOL0     H58773   3.622   5.400   3.132  0.3610  1.3948 -0.1586
  426MOL0     H58774   3.989   5.194   3.229 -0.2677  0.9085  1.0490
  426MOL0     H58775   4.158   5.061   3.096  0.6252 -0.8410  0.5485
  426MOL0     H58776   4.035   4.660   2.908 -1.5085  0.0438  1.4909
  426MOL0     H58777   4.200   4.707   2.867 -2.6047  4.8204 -2.5819
  426MOL0     H58778   4.080   4.647   3.164  0.3142 -4.4013  1.7871
  426MOL0     H58779   4.249   4.672   3.123 -0.0273 -0.5140  0.5368
  426MOL0     H58780   4.198   4.434   3.177  1.2662 -1.7333 -0.7417
  426MOL0     H58781   4.058   4.436   3.090 -0.7403  0.2712 -0.6040
  426MOL0     H58782   4.224   4.491   2.883 -2.9054  0.5088 -0.4230
  426MOL0     H58783   4.208   4.319   2.930  1.4010  1.1731 -0.8149
  426MOL0     H58784   4.600   4.403   3.065 -0.9481 -0.9746  3.9299
  426MOL0     H58785   3.845   4.768   3.019  0.8307  0.4442 -0.1088
  426MOL0     H58786   3.659   4.787   3.186 -0.2049  0.0221 -0.0354
  426MOL0     H58787   3.573   4.934   3.203 -2.5021 -2.4281  0.5355
  426MOL0     H58788   3.587   4.866   3.044 -0.1966 -1.1985 -0.0508
  427MOL0     O58789   9.863   9.008   9.983  0.0995 -0.4622  0.4383
  427MOL0     C58790   9.763   9.081  10.003 -0.6067  0.4511 -0.0876
  427MOL0     O58791   9.637   9.041   9.991  0.3052 -0.5904 -0.5891
  427MOL0     C58792   9.603   8.905  10.000  0.5689  0.5625  0.1574
  427MOL0     C58793   9.516   8.873  10.108 -0.2890  0.3417  0.6478
  427MOL0     C58794   9.495   8.745  10.130 -0.0001 -0.4684 -0.2639
  427MOL0     C58795   9.545   8.639  10.046  0.1267 -0.0295 -1.1807
  427MOL0     O58796   9.523   8.514  10.094 -0.1732 -0.2341  0.2274
  427MOL0     C58797   9.615   8.411  10.060  0.5990  1.0872  0.2281
  427MOL0     C58798   9.555   8.280  10.110 -0.6981 -0.1156  0.3253
  427MOL0     C58799   9.631   8.157  10.044 -0.4509 -0.1407 -0.1768
  427MOL0     C58800   9.655   8.161   9.887 -0.4603 -0.0681 -0.1515
  427MOL0     C58801   9.521   8.159   9.819  0.2629  0.3299 -0.0297
  427MOL0     C58802   9.549   8.171   9.670  0.5834  0.2380 -1.5253
  427MOL0     C58803   9.426   8.182   9.577 -0.2903  0.1871  0.7149
  427MOL0     C58804   9.467   8.187   9.428 -0.2866 -0.3410 -0.4108
  427MOL0     N58805   9.362   8.147   9.340  0.1628  0.7435  0.2903
  427MOL0     C58806   9.365   8.022   9.263 -0.2353 -0.1127  0.3728
  427MOL0     C58807   9.256   8.040   9.179  0.4858  0.0231 -0.3359
  427MOL0     C58808   9.239   7.937   9.070 -0.0794 -0.5798 -0.8541
  427MOL0     C58809   9.208   7.795   9.114 -0.0207  0.2102  1.5070
  427MOL0     C58810   9.205   7.702   8.994 -0.5591 -0.3993 -0.7891
  427MOL0     C58811   9.119   7.744   8.874 -0.0347  0.6749  0.0096
  427MOL0     O58812   8.985   7.759   8.920  0.1832  0.2080  0.2434
  427MOL0     C58813   8.902   7.659   8.882  0.5124 -0.2291  0.0681
  427MOL0     C58814   8.883   7.541   8.960 -0.0742 -0.3474  0.4715
  427MOL0     C58815   8.787   7.446   8.920  0.3366  0.6523 -0.3758
  427MOL0     C58816   8.767   7.342   9.026  0.4203 -0.1759  0.0137
  427MOL0     C58817   8.716   7.460   8.800 -0.4463  0.3394 -0.7131
  427MOL0     C58818   8.629   7.358   8.746  0.3235 -0.0093  1.0171
  427MOL0     O58819   8.527   7.399   8.670 -0.2943 -0.3069  0.0419
  427MOL0     C58820   8.459   7.315   8.593  0.2376  0.9433 -0.2436
  427MOL0     C58821   8.403   7.197   8.645 -0.3670 -0.9131 -0.5054
  427MOL0     C58822   8.318   7.123   8.557 -0.5528 -0.3315  0.3843
  427MOL0     C58823   8.284   7.172   8.432 -0.8021  0.3950 -0.3738
  427MOL0     O58824   8.186   7.111   8.366 -0.4642 -0.3987 -0.0652
  427MOL0     C58825   8.053   7.154   8.365 -0.3698  0.1524 -0.6441
  427MOL0     C58826   7.987   7.133   8.223 -0.5141  0.5156  0.0075
  427MOL0     C58827   8.045   7.214   8.105  0.4985  0.4583  0.9829
  427MOL0     C58828   7.966   7.185   7.977  0.7613  0.1205  0.0481
  427MOL0     C58829   7.830   7.246   7.972 -0.0628 -1.0943  0.0201
  427MOL0     C58830   7.791   7.256   7.824  0.1338 -0.5119  0.2294
  427MOL0     C58831   7.649   7.307   7.802  0.2669  0.1468 -0.1911
  427MOL0     C58832   7.628   7.456   7.820 -0.4751 -0.1304 -0.5350
  427MOL0    Cl58833   7.455   7.494   7.774  0.1043 -0.1877 -0.2305
  427MOL0     C58834   8.329   7.292   8.381 -0.5142 -0.0739 -0.5564
  427MOL0     C58835   8.417   7.367   8.468 -0.1922  0.4051  0.3230
  427MOL0     O58836   8.673   7.247   8.745  0.5886  0.4600  0.1963
  427MOL0     C58837   8.738   7.579   8.722  0.6153  0.4911 -0.3209
  427MOL0     C58838   8.833   7.665   8.762 -0.4273 -0.7069 -0.5681
  427MOL0     N58839   9.183   8.148   9.218  0.1169 -0.3734  0.0246
  427MOL0     N58840   9.250   8.215   9.305 -0.0170 -0.6638 -0.1837
  427MOL0     C58841   9.629   8.672   9.943  0.4025  0.7615  0.2288
  427MOL0     C58842   9.647   8.807   9.921 -0.4179  0.2994 -0.7098
  427MOL0     C58843   9.779   9.227  10.036  0.5195  1.0351 -0.1436
  427MOL0     C58844   9.680   9.294  10.114 -0.0551  0.1076 -0.5213
  427MOL0     C58845   9.691   9.436  10.139  0.0108  0.1527  1.0202
  427MOL0     C58846   9.780   9.516  10.065 -0.0474 -0.3277 -0.3288
  427MOL0     O58847   9.779   9.655  10.059  0.0545 -0.1449 -0.3155
  427MOL0     C58848   9.684   9.715  10.147 -0.1504 -0.4570 -0.3799
  427MOL0     C58849   9.685   9.864  10.127  0.4591  0.9663  0.1853
  427MOL0     C58850   9.814   9.937  10.177 -0.1232  1.2725 -0.3239
  427MOL0     C58851   9.779  10.076  10.230  0.3243  0.2153  0.2492
  427MOL0     C58852   9.732  10.083  10.371 -0.7431  0.2591  0.1808
  427MOL0     C58853   9.714  10.100  10.488  0.9378  0.4270 -0.0507
  427MOL0     C58854   9.875   9.447   9.988 -0.2833 -0.0812 -0.5037
  427MOL0     C58855   9.875   9.306   9.971 -0.0806  0.7059 -0.1167
  427MOL0     C58856   9.995   9.249   9.890  0.7804 -0.5981 -0.6105
  427MOL0     H58857   9.468   8.939  10.180 -1.9530  1.0089 -0.9787
  427MOL0     H58858   9.430   8.719  10.213 -0.9737 -2.2506 -1.5383
  427MOL0     H58859   9.706   8.434  10.116  1.7918  0.3060 -1.3030
  427MOL0     H58860   9.647   8.415   9.955  4.8232 -2.0008  1.1092
  427MOL0     H58861   9.549   8.278  10.219 -0.1531 -4.6001  0.4544
  427MOL0     H58862   9.450   8.273  10.083 -1.2036  1.0315  1.8397
  427MOL0     H58863   9.730   8.154  10.088 -2.0489 -1.8698  3.7192
  427MOL0     H58864   9.591   8.060  10.075  2.1375 -1.5965 -1.1050
  427MOL0     H58865   9.722   8.245   9.867 -2.6685  3.8406  5.9182
  427MOL0     H58866   9.708   8.072   9.853 -0.8852 -0.9983  1.5103
  427MOL0     H58867   9.461   8.246   9.848 -1.5657 -0.1302 -2.1115
  427MOL0     H58868   9.467   8.067   9.843 -0.3511  0.2807 -1.5021
  427MOL0     H58869   9.592   8.271   9.664 -2.0185  1.9247  3.2230
  427MOL0     H58870   9.628   8.103   9.637 -0.8781 -1.9087 -0.8559
  427MOL0     H58871   9.349   8.256   9.600 -4.0541 -3.1464  0.0375
  427MOL0     H58872   9.384   8.081   9.580  1.9203 -0.9187 -1.5032
  427MOL0     H58873   9.481   8.291   9.397 -0.0179  0.5182  2.3101
  427MOL0     H58874   9.548   8.120   9.400 -2.0444 -2.9058  0.2922
  427MOL0     H58875   9.437   7.941   9.265  0.9130  0.8902  1.9096
  427MOL0     H58876   9.338   7.938   9.023  1.3588  1.1112  1.9057
  427MOL0     H58877   9.160   7.980   9.008  0.1444  2.2712  0.6567
  427MOL0     H58878   9.287   7.766   9.184  1.4574 -0.5713 -0.3916
  427MOL0     H58879   9.118   7.791   9.176 -1.8892  3.0564 -0.7226
  427MOL0     H58880   9.308   7.689   8.960 -0.8270 -1.2454 -1.3090
  427MOL0     H58881   9.169   7.602   9.019  3.9848 -2.6888 -2.2706
  427MOL0     H58882   9.155   7.836   8.828 -0.9479  2.6648  2.9418
  427MOL0     H58883   9.121   7.664   8.800  1.3474  0.2316  0.4955
  427MOL0     H58884   8.938   7.522   9.052  0.1556  1.9245  0.8680
  427MOL0     H58885   8.685   7.279   8.990 -0.9999  1.0280  1.0217
  427MOL0     H58886   8.748   7.390   9.122  1.1444 -0.6351  0.4013
  427MOL0     H58887   8.853   7.276   9.040  0.9983  0.3820 -0.8411
  427MOL0     H58888   8.434   7.169   8.745  3.3602 -0.8196 -1.4739
  427MOL0     H58889   8.274   7.032   8.596  0.6625 -0.4596  1.5188
  427MOL0     H58890   7.998   7.100   8.442  0.0512  0.3492 -0.2000
  427MOL0     H58891   8.047   7.256   8.403  0.5554 -0.3059  0.8650
  427MOL0     H58892   8.002   7.029   8.193  0.8224  1.3495 -2.5521
  427MOL0     H58893   7.881   7.156   8.235 -0.9139 -0.9096 -0.5463
  427MOL0     H58894   8.146   7.175   8.087  0.5447  1.6808 -1.9800
  427MOL0     H58895   8.056   7.321   8.127  0.5526 -0.2299  5.3527
  427MOL0     H58896   7.964   7.078   7.955  0.4850 -0.1557  1.3060
  427MOL0     H58897   8.025   7.219   7.891 -3.2310  0.9241 -2.6255
  427MOL0     H58898   7.759   7.181   8.024 -1.6494 -0.0978 -0.7923
  427MOL0     H58899   7.834   7.344   8.022  2.2580 -2.1819  2.2112
  427MOL0     H58900   7.802   7.155   7.783 -0.4979 -0.0060 -1.2701
  427MOL0     H58901   7.850   7.327   7.766 -3.1649  3.1768  0.9355
  427MOL0     H58902   7.579   7.258   7.871  1.5497 -1.9537 -0.2877
  427MOL0     H58903   7.619   7.266   7.706  0.3553  0.2148 -0.2479
  427MOL0     H58904   7.704   7.508   7.761  0.6045  0.4674  1.2961
  427MOL0     H58905   7.647   7.482   7.925 -1.1268  1.0049 -0.6795
  427MOL0     H58906   8.298   7.321   8.281 -0.9689  2.0021  0.1308
  427MOL0     H58907   8.460   7.458   8.428  3.8005 -1.7207 -0.7263
  427MOL0     H58908   8.689   7.595   8.626  1.0180  3.3982 -0.1252
  427MOL0     H58909   8.856   7.743   8.691  2.1610 -0.0423  0.8437
  427MOL0     H58910   9.684   8.603   9.879 -0.8717 -0.7106  0.6450
  427MOL0     H58911   9.720   8.821   9.841 -0.1147 -0.9190 -0.6617
  427MOL0     H58912   9.605   9.241  10.171 -0.9009 -0.3253 -1.9781
  427MOL0     H58913   9.617   9.480  10.206 -0.5809 -0.7054  0.9495
  427MOL0     H58914   9.583   9.676  10.132  0.0507 -2.7181  2.9820
  427MOL0     H58915   9.699   9.679  10.249 -0.3846  0.0264 -0.1749
  427MOL0     H58916   9.607   9.903  10.194  2.4531  0.6939  2.8415
  427MOL0     H58917   9.666   9.900  10.026  1.2417  5.6107  1.4502
  427MOL0     H58918   9.865   9.895  10.264  0.0827  1.9934 -0.0874
  427MOL0     H58919   9.884   9.954  10.094  1.1824 -2.5136 -0.1697
  427MOL0     H58920   9.713  10.135  10.167  0.3938  0.6823  0.6118
  427MOL0     H58921   9.871  10.135  10.220  0.0523  0.3073 -2.4944
  427MOL0     H58922   9.708  10.123  10.593 -0.8772 -0.9375  0.1887
  427MOL0     H58923   9.950   9.512   9.943  1.2943 -1.6585 -0.2887
  427MOL0     H58924  10.057   9.334   9.858 -0.3687  1.1482  1.5360
  427MOL0     H58925  10.057   9.184   9.954 -1.0501  0.2643  2.2229
  427MOL0     H58926   9.966   9.185   9.806  1.0490 -2.5627  0.7236
  428MOL0     O58927   1.033   2.974   3.933  0.6682  1.0539 -0.5066
  428MOL0     C58928   0.999   3.041   3.838  0.3340 -0.2028 -0.5006
  428MOL0     O58929   1.061   3.046   3.720 -1.1263  0.5951  0.5953
  428MOL0     C58930   1.174   2.967   3.692 -0.1356  0.2674 -0.1469
  428MOL0     C58931   1.267   3.021   3.597 -0.2922  0.0268 -0.6506
  428MOL0     C58932   1.391   2.957   3.559  0.0132  0.2710  0.0709
  428MOL0     C58933   1.417   2.834   3.628 -0.8345  0.1454  0.6737
  428MOL0     O58934   1.529   2.762   3.585  0.4223 -0.3649  0.1441
  428MOL0     C58935   1.650   2.833   3.611  0.5900  0.3098 -0.7757
  428MOL0     C58936   1.757   2.736   3.651 -0.3405 -0.1967 -0.7443
  428MOL0     C58937   1.746   2.607   3.559  0.3440 -0.2809  1.1136
  428MOL0     C58938   1.870   2.519   3.592  0.1877  0.2693  0.4393
  428MOL0     C58939   1.876   2.396   3.501 -0.2979  0.6457 -0.2388
  428MOL0     C58940   1.994   2.308   3.525 -0.7066  0.8387 -0.0787
  428MOL0     C58941   1.980   2.166   3.447  0.0966 -0.7757  0.1759
  428MOL0     C58942   2.106   2.070   3.467 -0.2851 -0.5991 -0.6833
  428MOL0     N58943   2.234   2.110   3.391  1.0631  0.0025 -0.0738
  428MOL0     C58944   2.237   2.101   3.256 -0.7589 -0.4698  0.2733
  428MOL0     C58945   2.352   2.161   3.225  0.0918 -0.5877  1.2433
  428MOL0     C58946   2.412   2.169   3.081  0.5048  0.2780  0.5916
  428MOL0     C58947   2.551   2.227   3.068  0.1470 -0.5131 -0.1172
  428MOL0     C58948   2.569   2.271   2.922 -0.2102 -0.0507 -0.0540
  428MOL0     C58949   2.696   2.348   2.886  0.5459 -0.1236  0.7627
  428MOL0     O58950   2.702   2.450   2.981  1.0171  0.0251  0.0737
  428MOL0     C58951   2.622   2.559   2.950 -0.0053  0.3612 -0.1884
  428MOL0     C58952   2.621   2.660   3.049  0.5557 -0.0129 -0.9240
  428MOL0     C58953   2.540   2.775   3.047  0.2275  0.1711  0.5663
  428MOL0     C58954   2.555   2.865   3.169 -0.1648 -0.0603  0.0006
  428MOL0     C58955   2.464   2.796   2.926  0.1238 -0.6333  0.2060
  428MOL0     C58956   2.375   2.915   2.919 -0.0684  0.2798  0.8836
  428MOL0     O58957   2.276   2.931   3.001 -0.5013 -0.7031  0.0561
  428MOL0     C58958   2.209   3.053   3.007 -0.4802 -0.6073 -0.2874
  428MOL0     C58959   2.078   3.049   3.051 -0.4347  0.3685 -0.3083
  428MOL0     C58960   2.009   3.172   3.067  0.7244 -0.4212  0.1236
  428MOL0     C58961   2.064   3.296   3.034 -0.8699 -0.4612  0.4756
  428MOL0     O58962   2.005   3.421   3.047 -0.3296 -0.2239  0.2253
  428MOL0     C58963   1.934   3.430   3.168 -1.2838 -0.4483  0.2046
  428MOL0     C58964   1.909   3.580   3.197 -0.0373  0.9688  0.0036
  428MOL0     C58965   1.770   3.637   3.148 -0.5522  0.1829  0.5351
  428MOL0     C58966   1.656   3.601   3.239  0.1113  0.3337  0.5425
  428MOL0     C58967   1.515   3.650   3.203  0.1289  0.9661  0.3687
  428MOL0     C58968   1.411   3.611   3.313  0.1760  0.0016 -0.1838
  428MOL0     C58969   1.417   3.710   3.430 -0.1824  0.1536 -0.0106
  428MOL0     C58970   1.359   3.856   3.404 -0.3020 -0.0465 -0.2750
  428MOL0    Cl58971   1.419   3.966   3.532 -0.0447  0.1585 -0.2114
  428MOL0     C58972   2.194   3.298   2.977  0.4454  0.7144  0.1039
  428MOL0     C58973   2.269   3.180   2.964  1.1398  0.3025 -0.0726
  428MOL0     O58974   2.400   2.979   2.817 -0.4847 -0.0869 -0.4226
  428MOL0     C58975   2.482   2.700   2.821 -0.2088 -0.2213 -1.5165
  428MOL0     C58976   2.547   2.583   2.833 -0.6484 -0.0546  0.3855
  428MOL0     N58977   2.408   2.213   3.340 -0.5490 -0.2011  0.8288
  428MOL0     N58978   2.341   2.170   3.441 -0.4080  0.2687 -0.3764
  428MOL0     C58979   1.327   2.778   3.716 -0.3509 -0.0286 -0.0906
  428MOL0     C58980   1.209   2.840   3.747  0.3276  0.1886  0.5401
  428MOL0     C58981   0.875   3.124   3.853  0.1674 -1.0832 -0.4370
  428MOL0     C58982   0.771   3.116   3.755  0.2740 -0.6017 -0.1699
  428MOL0     C58983   0.663   3.200   3.754  0.5648  0.3994  0.4022
  428MOL0     C58984   0.655   3.310   3.845  0.5587  0.9802 -0.6306
  428MOL0     O58985   0.551   3.388   3.837  0.1876 -1.1994  0.8219
  428MOL0     C58986   0.573   3.526   3.844  0.5380  0.3697 -0.1921
  428MOL0     C58987   0.485   3.576   3.964  0.7344 -0.7155  1.1353
  428MOL0     C58988   0.467   3.728   3.980 -0.5982  0.1394 -0.0935
  428MOL0     C58989   0.418   3.782   4.120  0.3794 -0.8667  0.1079
  428MOL0     C58990   0.524   3.774   4.211 -0.8694  0.6065 -0.8418
  428MOL0     C58991   0.612   3.757   4.294 -0.7896  0.6792  0.9968
  428MOL0     C58992   0.742   3.309   3.949  0.0161 -0.1586 -0.2223
  428MOL0     C58993   0.852   3.216   3.954  0.1663 -0.0579 -0.0710
  428MOL0     C58994   0.947   3.238   4.073 -1.1092  0.0716 -0.1112
  428MOL0     H58995   1.220   3.108   3.550 -3.1572 -0.3580  1.2565
  428MOL0     H58996   1.462   2.984   3.482  0.5719 -0.6006  0.2728
  428MOL0     H58997   1.633   2.912   3.685  3.1140  1.8462 -1.6855
  428MOL0     H58998   1.688   2.889   3.524  2.0453  3.0844  1.4602
  428MOL0     H58999   1.853   2.784   3.628 -1.4738  2.5061 -0.1733
  428MOL0     H59000   1.736   2.708   3.754 -1.0348 -1.2897 -1.1661
  428MOL0     H59001   1.654   2.552   3.579 -0.9794 -0.5509 -4.2099
  428MOL0     H59002   1.750   2.619   3.450  0.2472 -2.5559  0.8235
  428MOL0     H59003   1.963   2.577   3.591 -0.8745  2.0613  0.3008
  428MOL0     H59004   1.853   2.489   3.696 -1.4468 -1.8811 -0.3661
  428MOL0     H59005   1.885   2.428   3.397  1.5558  3.0126  0.5548
  428MOL0     H59006   1.789   2.331   3.508 -0.7962  0.8965 -3.1918
  428MOL0     H59007   2.081   2.370   3.500 -0.7299  0.6859 -0.5434
  428MOL0     H59008   1.995   2.287   3.632  1.0517  1.5039  0.0589
  428MOL0     H59009   1.982   2.189   3.340  2.9781 -3.1619 -0.4042
  428MOL0     H59010   1.886   2.117   3.472 -1.4100  1.0709 -1.5060
  428MOL0     H59011   2.124   2.047   3.572  0.9909  0.5653 -0.6214
  428MOL0     H59012   2.080   1.972   3.425  2.1855 -1.9953  0.7863
  428MOL0     H59013   2.172   2.049   3.186  0.6595  0.2234 -1.6185
  428MOL0     H59014   2.349   2.240   3.026  3.0012  1.0888 -1.4059
  428MOL0     H59015   2.423   2.068   3.041  2.3268  0.6895 -0.0039
  428MOL0     H59016   2.565   2.301   3.148  0.0484 -0.8584  0.2218
  428MOL0     H59017   2.620   2.144   3.085  1.9255  0.6414 -1.3304
  428MOL0     H59018   2.546   2.185   2.860  2.4480  0.8250 -2.4889
  428MOL0     H59019   2.482   2.333   2.897 -1.5643 -0.6498  2.7556
  428MOL0     H59020   2.776   2.275   2.901  0.2818 -0.2971  1.3718
  428MOL0     H59021   2.701   2.388   2.784  3.3710  1.4676  1.4350
  428MOL0     H59022   2.684   2.645   3.137 -5.3488  1.4885  4.3098
  428MOL0     H59023   2.595   2.806   3.251 -3.1547  0.7671  2.2615
  428MOL0     H59024   2.461   2.901   3.212 -0.1841 -0.9301  0.7158
  428MOL0     H59025   2.622   2.948   3.146 -1.1121  1.4452  2.2291
  428MOL0     H59026   2.019   2.962   3.077  0.1915  0.6381  2.3224
  428MOL0     H59027   1.909   3.167   3.109  1.1664 -2.7788  1.0332
  428MOL0     H59028   1.843   3.376   3.142 -0.6683  0.3314 -4.5733
  428MOL0     H59029   1.988   3.385   3.252  1.5585  2.4915  0.1577
  428MOL0     H59030   1.911   3.594   3.305 -2.2638  0.7116  0.1196
  428MOL0     H59031   1.991   3.631   3.147  1.6296 -1.0342  0.5557
  428MOL0     H59032   1.748   3.613   3.043  2.2093  1.2607 -0.3857
  428MOL0     H59033   1.784   3.744   3.133  1.4207 -0.2344 -1.0558
  428MOL0     H59034   1.684   3.645   3.335  2.0915 -0.7815  0.5298
  428MOL0     H59035   1.645   3.493   3.252  1.1870  0.1436 -0.0425
  428MOL0     H59036   1.503   3.755   3.177  0.5192  0.9022 -0.0940
  428MOL0     H59037   1.494   3.603   3.106  1.0507  1.6743 -0.1999
  428MOL0     H59038   1.425   3.511   3.355  1.1209  0.1677 -0.0588
  428MOL0     H59039   1.308   3.610   3.278  0.5781 -1.9277 -1.5057
  428MOL0     H59040   1.520   3.704   3.465  0.0872 -3.7211 -0.9702
  428MOL0     H59041   1.360   3.671   3.515 -0.4816 -3.4699 -1.6939
  428MOL0     H59042   1.250   3.850   3.394 -0.3052  0.7754 -0.8226
  428MOL0     H59043   1.401   3.891   3.310  2.2073  2.3173  1.5835
  428MOL0     H59044   2.230   3.400   2.964 -3.5267  2.1140 -1.3295
  428MOL0     H59045   2.368   3.187   2.921  2.0803  0.1294  1.9134
  428MOL0     H59046   2.424   2.726   2.733 -3.6047  1.2285  0.9001
  428MOL0     H59047   2.552   2.515   2.749 -0.9648 -1.1455  1.2240
  428MOL0     H59048   1.339   2.675   3.748 -1.6079 -0.4065 -0.7774
  428MOL0     H59049   1.156   2.786   3.825  1.2424  1.2525  1.9517
  428MOL0     H59050   0.785   3.053   3.668 -1.1289 -0.4811 -0.5197
  428MOL0     H59051   0.601   3.204   3.665  3.5268  1.1958 -1.7729
  428MOL0     H59052   0.678   3.554   3.852  0.2307  1.4485  0.2584
  428MOL0     H59053   0.531   3.580   3.759  1.9245 -0.2713 -1.3134
  428MOL0     H59054   0.520   3.531   4.058  0.3228 -2.3048  0.5649
  428MOL0     H59055   0.382   3.544   3.947  0.9965 -0.9169 -0.1595
  428MOL0     H59056   0.557   3.776   3.942 -0.0942 -2.2039 -2.0747
  428MOL0     H59057   0.394   3.760   3.905  0.3117  0.2158 -0.9639
  428MOL0     H59058   0.332   3.719   4.142 -0.9561  0.6555 -0.5047
  428MOL0     H59059   0.373   3.882   4.117 -2.3167 -1.9977  0.5318
  428MOL0     H59060   0.700   3.760   4.355 -1.6293 -0.2273  2.2957
  428MOL0     H59061   0.731   3.384   4.027 -0.9764  2.2612 -2.5330
  428MOL0     H59062   0.889   3.190   4.151  0.2509  0.6655  1.3114
  428MOL0     H59063   1.045   3.191   4.057 -1.8137 -1.9729  1.2086
  428MOL0     H59064   0.954   3.342   4.104  0.1688  0.0171 -0.1670
  429MOL0     O59065   4.269   8.899  10.882 -0.3287  0.4498  0.1616
  429MOL0     C59066   4.364   8.929  10.813 -0.0485  0.2571 -0.4307
  429MOL0     O59067   4.463   8.844  10.786  0.0394  0.7364  0.2969
  429MOL0     C59068   4.423   8.709  10.776  0.5372 -0.1673  0.4599
  429MOL0     C59069   4.459   8.623  10.877  0.4580 -0.5175  0.0140
  429MOL0     C59070   4.416   8.495  10.870  0.0320 -0.5828 -1.0157
  429MOL0     C59071   4.336   8.447  10.767 -0.1942 -0.1967  0.1540
  429MOL0     O59072   4.296   8.318  10.763  0.0294 -0.6263  0.1463
  429MOL0     C59073   4.182   8.295  10.853 -0.6027  0.5911 -0.1072
  429MOL0     C59074   4.054   8.352  10.815 -0.2268 -0.2901 -0.3204
  429MOL0     C59075   3.955   8.324  10.930  0.0761  0.1784  0.9791
  429MOL0     C59076   3.882   8.193  10.916  0.3243  0.8469  0.0505
  429MOL0     C59077   3.763   8.192  11.003  0.3666  0.4466  0.2766
  429MOL0     C59078   3.781   8.253  11.148 -1.0676  0.0604  0.0898
  429MOL0     C59079   3.871   8.170  11.247  0.1200 -0.5381 -0.4535
  429MOL0     C59080   3.855   8.025  11.248  0.1334 -0.2453  0.6127
  429MOL0     N59081   3.971   7.950  11.198  0.3231 -0.4592 -0.2910
  429MOL0     C59082   4.083   7.930  11.271  0.2764  1.1797  0.4269
  429MOL0     C59083   4.157   7.857  11.189  0.0245  0.0116  0.5376
  429MOL0     C59084   4.302   7.823  11.214  0.8702  0.3575  0.0995
  429MOL0     C59085   4.403   7.944  11.205 -0.1877  0.8855  0.1874
  429MOL0     C59086   4.391   8.033  11.078  0.7057 -0.0406 -0.1508
  429MOL0     C59087   4.504   8.126  11.055 -0.2672 -0.2055 -0.6403
  429MOL0     O59088   4.609   8.044  10.998 -0.5687 -0.3351 -0.4470
  429MOL0     C59089   4.728   8.110  11.012 -0.7409  0.6840  0.5534
  429MOL0     C59090   4.763   8.236  10.968  0.1146  0.9158 -0.3966
  429MOL0     C59091   4.893   8.293  10.979 -0.1450  0.7657  0.0769
  429MOL0     C59092   4.915   8.431  10.920 -0.4495 -0.6094  0.1534
  429MOL0     C59093   4.996   8.221  11.038 -0.7302 -0.1203  0.1298
  429MOL0     C59094   5.137   8.283  11.066 -0.4376  0.3609 -0.2600
  429MOL0     O59095   5.228   8.194  11.111 -0.2915  0.0557  0.2931
  429MOL0     C59096   5.353   8.226  11.151 -0.5815 -0.6485 -0.1907
  429MOL0     C59097   5.422   8.110  11.171  0.6431  0.5397 -0.1045
  429MOL0     C59098   5.558   8.108  11.203  1.6388 -0.2807 -0.1341
  429MOL0     C59099   5.627   8.224  11.225 -0.0511  0.2146 -0.4553
  429MOL0     O59100   5.756   8.206  11.248 -0.5594  0.0138  0.6255
  429MOL0     C59101   5.833   8.168  11.134  0.1573 -0.2994  0.5187
  429MOL0     C59102   5.912   8.042  11.159  0.6159  0.4771  0.9471
  429MOL0     C59103   6.021   8.014  11.049 -0.0077  0.6337 -0.9511
  429MOL0     C59104   6.083   7.866  11.065 -0.6568  0.4532 -0.4199
  429MOL0     C59105   6.148   7.836  11.208  0.1595 -0.4216  0.8803
  429MOL0     C59106   6.283   7.912  11.227  0.3158  0.6768  0.0848
  429MOL0     C59107   6.292   7.970  11.366 -0.4884  0.1554  0.2916
  429MOL0     C59108   6.396   8.085  11.363  0.0421 -0.0265  0.5494
  429MOL0    Cl59109   6.330   8.212  11.257 -0.3276  0.2260  0.0250
  429MOL0     C59110   5.556   8.342  11.206  0.3911 -0.0969 -1.4104
  429MOL0     C59111   5.419   8.350  11.168 -0.2719 -0.8654 -0.2295
  429MOL0     O59112   5.158   8.403  11.051  0.2030 -0.1129  0.3345
  429MOL0     C59113   4.958   8.098  11.095  0.3316  0.0822  0.5823
  429MOL0     C59114   4.830   8.040  11.076  0.1391  0.5715  0.8997
  429MOL0     N59115   4.078   7.811  11.081 -0.7232 -0.1461 -0.4581
  429MOL0     N59116   3.969   7.867  11.095  0.4506  0.3759  0.3519
  429MOL0     C59117   4.294   8.536  10.668 -0.2671  0.1569  0.0322
  429MOL0     C59118   4.339   8.671  10.673 -0.9272 -0.3198 -0.2431
  429MOL0     C59119   4.388   9.070  10.780  0.4609  0.8574 -0.7837
  429MOL0     C59120   4.519   9.104  10.739 -1.3913 -0.1920  0.3306
  429MOL0     C59121   4.565   9.233  10.721 -0.6176 -0.8769  1.2928
  429MOL0     C59122   4.473   9.342  10.726 -0.1123 -0.5564 -0.3011
  429MOL0     O59123   4.507   9.472  10.718  0.0551  0.2520 -0.0496
  429MOL0     C59124   4.578   9.529  10.606 -0.4494 -0.2428 -0.6135
  429MOL0     C59125   4.494   9.514  10.470 -0.1187  0.2767 -0.2115
  429MOL0     C59126   4.354   9.571  10.478 -0.0786  0.3332  0.0031
  429MOL0     C59127   4.357   9.720  10.454 -0.4504  0.5338 -0.2216
  429MOL0     C59128   4.302   9.749  10.324  0.4438  0.4336  0.4983
  429MOL0     C59129   4.257   9.764  10.209 -0.1903  0.0111  0.1748
  429MOL0     C59130   4.340   9.311  10.767 -0.8454  0.4274 -0.1106
  429MOL0     C59131   4.300   9.179  10.792 -0.7442  0.3416 -0.0523
  429MOL0     C59132   4.166   9.153  10.843  0.3165  0.8755  0.0018
  429MOL0     H59133   4.525   8.656  10.956  1.7391 -0.5549 -1.0110
  429MOL0     H59134   4.445   8.428  10.951 -1.7358 -1.8905 -1.4030
  429MOL0     H59135   4.204   8.321  10.957 -4.4078 -0.6100  1.1566
  429MOL0     H59136   4.178   8.186  10.858  2.0837  0.4287 -0.2154
  429MOL0     H59137   4.056   8.460  10.801  2.1241 -0.3480 -0.9031
  429MOL0     H59138   4.027   8.302  10.721  3.2279 -1.8323 -0.6372
  429MOL0     H59139   4.009   8.319  11.025 -0.9216 -2.0403  1.4899
  429MOL0     H59140   3.880   8.402  10.947  1.1887  0.8711  3.0098
  429MOL0     H59141   3.862   8.166  10.812  0.5993  0.3212  0.1323
  429MOL0     H59142   3.958   8.125  10.953 -0.4052  1.3200  2.6134
  429MOL0     H59143   3.716   8.094  11.016 -0.9545  1.0087 -0.0437
  429MOL0     H59144   3.685   8.253  10.956  0.1594 -0.2895 -0.3656
  429MOL0     H59145   3.813   8.357  11.154  1.4263 -0.6675  0.8273
  429MOL0     H59146   3.682   8.262  11.192 -1.6666  2.4114 -1.5988
  429MOL0     H59147   3.844   8.201  11.349 -2.0660  0.5228 -1.2949
  429MOL0     H59148   3.977   8.187  11.226  0.3594 -2.9726 -1.5322
  429MOL0     H59149   3.839   7.986  11.349 -0.4342 -0.2476  0.5242
  429MOL0     H59150   3.763   8.000  11.194  0.1684  0.0333  0.4221
  429MOL0     H59151   4.102   7.963  11.373  3.3181  0.9569  0.0257
  429MOL0     H59152   4.323   7.761  11.127  0.4694  1.6823 -0.9814
  429MOL0     H59153   4.314   7.764  11.305 -0.8853 -0.1582  0.0205
  429MOL0     H59154   4.401   8.003  11.297 -1.2148  2.1557 -0.6186
  429MOL0     H59155   4.503   7.898  11.202  0.7196  2.7856 -0.4057
  429MOL0     H59156   4.388   7.964  10.994  2.0475 -1.1453  0.6772
  429MOL0     H59157   4.294   8.083  11.069  1.0733  0.5164 -1.1844
  429MOL0     H59158   4.472   8.215  11.000 -3.0151  0.1100  1.2493
  429MOL0     H59159   4.538   8.159  11.154  1.0790 -0.4164 -1.0248
  429MOL0     H59160   4.686   8.296  10.922  1.2824  0.5217 -3.0532
  429MOL0     H59161   5.002   8.431  10.854 -0.6761 -4.2818 -0.3631
  429MOL0     H59162   4.914   8.505  11.001 -0.6392 -2.8092  2.3067
  429MOL0     H59163   4.836   8.449  10.847  0.0422  1.5961  0.0982
  429MOL0     H59164   5.379   8.011  11.160 -0.2892  0.8400  0.6298
  429MOL0     H59165   5.592   8.005  11.209  0.1040 -0.7969  5.0243
  429MOL0     H59166   5.771   8.165  11.044 -2.3800 -0.2037  2.1545
  429MOL0     H59167   5.901   8.250  11.109  1.3224 -1.0187  1.2529
  429MOL0     H59168   5.967   8.049  11.253  1.3457  2.0488  0.4262
  429MOL0     H59169   5.845   7.955  11.159  2.2486 -0.8505  0.1571
  429MOL0     H59170   6.107   8.082  11.057  2.4637 -2.4313  1.0786
  429MOL0     H59171   5.972   8.020  10.952  0.3836  2.2895 -1.0891
  429MOL0     H59172   6.151   7.849  10.982 -0.8223  0.7561 -0.6223
  429MOL0     H59173   6.011   7.785  11.053 -0.8734  0.3687  1.2059
  429MOL0     H59174   6.074   7.857  11.286  0.0013  2.2800  0.1203
  429MOL0     H59175   6.175   7.730  11.201  1.9926  0.0431  0.3323
  429MOL0     H59176   6.283   7.993  11.154  1.6127 -0.9050 -1.7747
  429MOL0     H59177   6.367   7.846  11.204 -2.4358 -2.9287 -0.4012
  429MOL0     H59178   6.334   7.884  11.421  0.1086  0.2578  0.0002
  429MOL0     H59179   6.194   8.005  11.401 -0.1432  2.9961 -1.3541
  429MOL0     H59180   6.497   8.063  11.325  0.5838  0.3766  1.7014
  429MOL0     H59181   6.416   8.129  11.461 -2.8973 -0.2408  1.3397
  429MOL0     H59182   5.608   8.437  11.219  1.0454 -0.4712 -1.2948
  429MOL0     H59183   5.367   8.445  11.170 -0.3225 -0.8592  2.4267
  429MOL0     H59184   5.035   8.040  11.144 -0.7772 -1.0331  1.0324
  429MOL0     H59185   4.783   7.959  11.131 -2.0352  0.9919 -0.2378
  429MOL0     H59186   4.233   8.502  10.585 -1.3910  1.7413  0.1733
  429MOL0     H59187   4.318   8.746  10.598  2.3755 -0.9218 -1.9505
  429MOL0     H59188   4.599   9.033  10.722 -2.6440 -0.7344 -4.8443
  429MOL0     H59189   4.669   9.246  10.695 -0.5201  0.3514  2.2013
  429MOL0     H59190   4.602   9.631  10.636  2.2319 -1.2675  1.0791
  429MOL0     H59191   4.671   9.473  10.597 -1.0557 -1.2361 -0.8580
  429MOL0     H59192   4.477   9.407  10.452  0.3699 -0.1494  1.6287
  429MOL0     H59193   4.540   9.562  10.383 -1.7874  0.9048 -0.7991
  429MOL0     H59194   4.291   9.523  10.403 -0.1386  0.0140  0.2527
  429MOL0     H59195   4.321   9.541  10.578 -1.8687 -1.0544 -0.9471
  429MOL0     H59196   4.462   9.752  10.458  0.3936 -1.9446 -0.7128
  429MOL0     H59197   4.297   9.774  10.527  0.9724  1.7108  0.1355
  429MOL0     H59198   4.226   9.791  10.109 -2.8741  0.6744  1.0965
  429MOL0     H59199   4.278   9.400  10.779  0.1881  1.2030 -0.3982
  429MOL0     H59200   4.100   9.238  10.824 -0.8079 -0.1300 -0.7952
  429MOL0     H59201   4.117   9.074  10.785 -0.0606  1.4472 -0.4686
  429MOL0     H59202   4.165   9.146  10.952 -0.2967  2.0961  0.0955
  430MOL0     O59203   1.646   8.800   1.170  0.0565  0.3578 -0.9944
  430MOL0     C59204   1.645   8.911   1.221 -0.4928 -0.4287 -0.8010
  430MOL0     O59205   1.589   8.928   1.339  0.2523 -0.3765  0.6576
  430MOL0     C59206   1.558   8.835   1.427  0.3649  0.2888  0.1615
  430MOL0     C59207   1.479   8.722   1.391  0.4242 -0.0872  0.0690
  430MOL0     C59208   1.411   8.652   1.498 -0.1836 -0.8579  0.1135
  430MOL0     C59209   1.452   8.675   1.628 -0.0136 -0.0379 -0.2125
  430MOL0     O59210   1.403   8.608   1.732  0.0507  0.2598  0.0065
  430MOL0     C59211   1.373   8.466   1.726 -0.4990  0.3127 -0.6168
  430MOL0     C59212   1.301   8.425   1.852  0.4398  0.7692  0.5664
  430MOL0     C59213   1.165   8.504   1.874 -0.4051  0.2413 -0.4157
  430MOL0     C59214   1.163   8.538   2.027  0.2865  0.3657  0.6434
  430MOL0     C59215   1.039   8.623   2.064 -0.2577 -0.2811  0.5501
  430MOL0     C59216   1.016   8.635   2.217 -0.7371 -0.1566  0.4217
  430MOL0     C59217   0.869   8.677   2.251  0.0758  0.7747  0.5337
  430MOL0     C59218   0.838   8.625   2.393 -0.3020 -0.9824  0.1628
  430MOL0     N59219   0.692   8.613   2.414 -0.6313 -0.3457 -0.2927
  430MOL0     C59220   0.593   8.708   2.391  0.3993  0.3323  0.7549
  430MOL0     C59221   0.472   8.655   2.439 -0.7055  0.2604 -0.4222
  430MOL0     C59222   0.349   8.737   2.459  0.0793 -0.1197 -0.3355
  430MOL0     C59223   0.225   8.652   2.433 -0.2131 -0.5858  0.6352
  430MOL0     C59224   0.099   8.731   2.429 -0.1593  0.5312 -0.2597
  430MOL0     C59225   0.051   8.809   2.552  0.6330  0.1032  0.1987
  430MOL0     O59226   0.043   8.721   2.675 -0.8804  0.0777 -0.2560
  430MOL0     C59227  -0.007   8.773   2.787 -0.0310 -0.0140  0.0744
  430MOL0     C59228  -0.030   8.908   2.806  0.6484 -1.0140 -0.3886
  430MOL0     C59229  -0.076   8.954   2.939  0.0663  0.2245  1.4314
  430MOL0     C59230  -0.102   9.105   2.944 -0.0113  0.4093  0.4054
  430MOL0     C59231  -0.098   8.860   3.048 -0.6570 -0.8603  0.0888
  430MOL0     C59232  -0.143   8.907   3.182  0.3397  0.9557  0.2631
  430MOL0     O59233  -0.199   8.806   3.266 -0.8692  0.2187 -0.3288
  430MOL0     C59234  -0.240   8.847   3.390  0.0546 -0.3602 -0.5231
  430MOL0     C59235  -0.375   8.836   3.424 -0.5532  0.4238 -0.0311
  430MOL0     C59236  -0.414   8.861   3.558 -0.1083 -0.0077 -0.2822
  430MOL0     C59237  -0.317   8.890   3.652  0.0819 -0.3860  0.0873
  430MOL0     O59238  -0.362   8.920   3.776 -0.7130 -0.2098  0.3899
  430MOL0     C59239  -0.281   8.865   3.886 -0.2381  0.1422  0.5796
  430MOL0     C59240  -0.389   8.794   3.973 -0.7859  0.1747  0.9756
  430MOL0     C59241  -0.333   8.697   4.065  0.6952  0.1558  0.2957
  430MOL0     C59242  -0.434   8.599   4.121  0.0704 -0.4429  0.4480
  430MOL0     C59243  -0.421   8.571   4.270 -0.0056 -0.0178 -0.2215
  430MOL0     C59244  -0.479   8.668   4.359 -0.4825 -0.5481 -0.1354
  430MOL0     C59245  -0.632   8.672   4.364  0.1689 -0.0336  0.4541
  430MOL0     C59246  -0.694   8.757   4.469 -0.0855 -0.2932 -1.4859
  430MOL0    Cl59247  -0.631   8.922   4.449 -0.2030  0.4284 -0.1354
  430MOL0     C59248  -0.183   8.915   3.619 -0.2205 -0.1405 -0.4374
  430MOL0     C59249  -0.149   8.885   3.480  0.3185  1.0153 -0.7013
  430MOL0     O59250  -0.114   9.019   3.216  0.1198 -0.0254  0.6380
  430MOL0     C59251  -0.089   8.723   3.016 -0.5247 -0.9195  1.3022
  430MOL0     C59252  -0.038   8.687   2.895 -0.1303  0.8763  1.3512
  430MOL0     N59253   0.506   8.523   2.480 -0.6312 -0.6728 -0.4199
  430MOL0     N59254   0.634   8.497   2.464  0.4265 -0.3348 -0.7289
  430MOL0     C59255   1.533   8.776   1.664  0.3608  0.0034  0.2735
  430MOL0     C59256   1.593   8.857   1.565 -0.0041  0.3432 -0.8615
  430MOL0     C59257   1.688   9.031   1.151 -0.4693  0.6072 -0.1355
  430MOL0     C59258   1.669   9.158   1.207  0.1457  0.2528  0.3995
  430MOL0     C59259   1.702   9.282   1.138 -0.5745  0.4907  0.0555
  430MOL0     C59260   1.756   9.266   1.008  0.2250 -0.6020 -0.0764
  430MOL0     O59261   1.800   9.373   0.938  0.0494 -0.2733 -0.4019
  430MOL0     C59262   1.716   9.489   0.915 -0.0906 -0.2392  0.0204
  430MOL0     C59263   1.794   9.587   0.833 -0.0621  0.1184 -0.1121
  430MOL0     C59264   1.805   9.546   0.686 -0.5814 -0.2636  0.4163
  430MOL0     C59265   1.762   9.646   0.582  0.2691  0.4591 -0.5405
  430MOL0     C59266   1.736   9.568   0.460  0.5883  1.0207 -0.1243
  430MOL0     C59267   1.744   9.514   0.351  0.6308  0.3617 -0.5436
  430MOL0     C59268   1.784   9.135   0.950  0.3883  0.4885 -0.0491
  430MOL0     C59269   1.746   9.018   1.016  0.4263  0.1757  0.1480
  430MOL0     C59270   1.772   8.891   0.933  0.8853  0.0551  0.2290
  430MOL0     H59271   1.457   8.695   1.289 -0.8577  0.9609  0.0478
  430MOL0     H59272   1.332   8.583   1.471 -2.6139  1.3776  1.1085
  430MOL0     H59273   1.465   8.408   1.729 -0.6710 -0.0794  3.8090
  430MOL0     H59274   1.308   8.434   1.644  0.6920 -0.6849 -1.1963
  430MOL0     H59275   1.289   8.317   1.846  3.7049  0.3713 -0.3644
  430MOL0     H59276   1.372   8.447   1.932  0.9277  0.2965  0.2650
  430MOL0     H59277   1.150   8.595   1.815 -0.2135 -0.3388 -1.3809
  430MOL0     H59278   1.095   8.425   1.846  2.3341 -2.4000 -0.3336
  430MOL0     H59279   1.156   8.446   2.085 -1.3382 -0.7422 -1.1745
  430MOL0     H59280   1.261   8.580   2.050  1.5687 -1.2403 -1.5169
  430MOL0     H59281   0.947   8.580   2.022  0.4464 -0.6744 -0.6583
  430MOL0     H59282   1.048   8.718   2.010 -0.0951 -2.1626 -3.0722
  430MOL0     H59283   1.033   8.533   2.254  2.3136  0.7026  1.7100
  430MOL0     H59284   1.081   8.709   2.262 -1.9559  0.7751  0.7016
  430MOL0     H59285   0.805   8.608   2.195  2.5140 -0.9358 -0.3227
  430MOL0     H59286   0.844   8.780   2.227 -2.8809 -0.1801 -0.9830
  430MOL0     H59287   0.878   8.526   2.418 -0.0896 -1.4063 -1.7118
  430MOL0     H59288   0.868   8.703   2.464 -4.3325  0.2318  0.7998
  430MOL0     H59289   0.616   8.799   2.336  2.9915 -1.4150 -1.2978
  430MOL0     H59290   0.346   8.824   2.393 -2.9588  0.2442  0.1568
  430MOL0     H59291   0.348   8.775   2.562  3.1797 -0.6705  0.0167
  430MOL0     H59292   0.243   8.601   2.338  2.1459 -2.6001  2.0355
  430MOL0     H59293   0.211   8.576   2.510  0.1777 -0.2642  1.0334
  430MOL0     H59294   0.102   8.792   2.338  1.0126  0.3693 -0.3513
  430MOL0     H59295   0.023   8.656   2.408  0.8758 -0.5703 -0.1745
  430MOL0     H59296   0.112   8.897   2.575 -0.7095  0.9388  0.7725
  430MOL0     H59297  -0.050   8.847   2.531  1.1607  1.6713  0.3596
  430MOL0     H59298  -0.014   8.981   2.727  1.3151 -0.9048 -0.1662
  430MOL0     H59299  -0.030   9.156   3.009  0.0544  1.8342 -0.7491
  430MOL0     H59300  -0.200   9.130   2.986 -2.3080  0.5298 -4.4215
  430MOL0     H59301  -0.104   9.150   2.845 -0.8375  0.2957  0.3620
  430MOL0     H59302  -0.438   8.815   3.339  1.2231  0.7375 -1.5017
  430MOL0     H59303  -0.518   8.874   3.585  0.0148 -0.3839  0.3803
  430MOL0     H59304  -0.201   8.793   3.866  0.9611  0.9465  2.2105
  430MOL0     H59305  -0.231   8.948   3.936  0.0413  0.4627 -0.2209
  430MOL0     H59306  -0.438   8.873   4.031  0.6368  2.0048 -0.1886
  430MOL0     H59307  -0.457   8.740   3.906  1.9074 -2.2088 -0.0895
  430MOL0     H59308  -0.294   8.756   4.148 -1.7295 -0.7520  2.1897
  430MOL0     H59309  -0.259   8.633   4.015 -1.7325 -2.0180 -0.7307
  430MOL0     H59310  -0.427   8.512   4.056  1.1678  1.6983 -2.4693
  430MOL0     H59311  -0.530   8.646   4.100  0.5950  2.0184  2.9984
  430MOL0     H59312  -0.457   8.470   4.291  2.4606 -0.6284  1.6656
  430MOL0     H59313  -0.316   8.573   4.301 -0.2267  3.2503  0.7396
  430MOL0     H59314  -0.443   8.766   4.325 -0.6733 -1.1142 -2.0332
  430MOL0     H59315  -0.432   8.660   4.458 -0.4992 -0.2998 -0.1057
  430MOL0     H59316  -0.670   8.574   4.392  0.1864  0.5354  2.5938
  430MOL0     H59317  -0.675   8.695   4.266  4.1565  0.8380 -1.2995
  430MOL0     H59318  -0.674   8.716   4.568  2.4558 -0.3675 -1.9623
  430MOL0     H59319  -0.802   8.768   4.454 -0.0799  2.1166 -0.2674
  430MOL0     H59320  -0.117   8.944   3.700  0.0251  0.6451 -0.9057
  430MOL0     H59321  -0.044   8.882   3.453  0.8672 -3.7382  0.8763
  430MOL0     H59322  -0.107   8.653   3.097 -0.8029 -0.3681  1.7205
  430MOL0     H59323  -0.036   8.580   2.876  1.6227  0.8991  1.2015
  430MOL0     H59324   1.558   8.794   1.768 -0.0686  1.4214  0.1485
  430MOL0     H59325   1.654   8.941   1.596 -0.3354  0.8569 -1.5725
  430MOL0     H59326   1.625   9.169   1.306 -0.0929  0.7898  0.2335
  430MOL0     H59327   1.697   9.371   1.200  0.5618 -2.2329  4.5098
  430MOL0     H59328   1.627   9.463   0.857 -0.7675 -1.1049  1.3820
  430MOL0     H59329   1.691   9.533   1.012  0.3360  0.0775 -0.0124
  430MOL0     H59330   1.892   9.593   0.882  1.6836 -2.9295 -2.7926
  430MOL0     H59331   1.755   9.688   0.848  0.0248  0.0364  0.6925
  430MOL0     H59332   1.912   9.525   0.678 -0.5334  0.1841 -0.1883
  430MOL0     H59333   1.753   9.453   0.665 -3.2036  1.5344 -1.7572
  430MOL0     H59334   1.842   9.718   0.566  1.5756 -0.4054  1.6819
  430MOL0     H59335   1.663   9.689   0.603 -0.9495 -1.1358 -2.5307
  430MOL0     H59336   1.754   9.461   0.259 -2.9593  1.6620 -1.8381
  430MOL0     H59337   1.829   9.138   0.851 -2.0772 -0.0895 -1.2798
  430MOL0     H59338   1.834   8.812   0.978 -0.4648 -0.7567  0.7076
  430MOL0     H59339   1.673   8.854   0.905  1.7257 -0.1557 -2.8189
  430MOL0     H59340   1.828   8.907   0.840  1.8037  1.2248  0.9542
  431MOL0     O59341   6.156  10.827   2.319 -0.0675  0.0671  0.1013
  431MOL0     C59342   6.173  10.782   2.431 -0.1820  0.8286 -0.4228
  431MOL0     O59343   6.222  10.654   2.458  0.1022 -0.2375 -0.5711
  431MOL0     C59344   6.265  10.585   2.350 -0.8094  0.5569  0.2393
  431MOL0     C59345   6.399  10.589   2.308 -0.1653  0.0051  0.3814
  431MOL0     C59346   6.439  10.504   2.209 -0.4294  0.4293  0.0184
  431MOL0     C59347   6.352  10.439   2.125  0.3141 -0.4532 -0.2413
  431MOL0     O59348   6.406  10.359   2.029 -0.0518  0.1921  0.1412
  431MOL0     C59349   6.395  10.421   1.901  0.1062 -0.1621 -0.0992
  431MOL0     C59350   6.518  10.381   1.823  0.4512  1.1557 -0.1759
  431MOL0     C59351   6.526  10.450   1.693 -0.3533  0.5196 -0.4012
  431MOL0     C59352   6.446  10.383   1.586 -0.3420  0.0457 -0.3421
  431MOL0     C59353   6.480  10.419   1.445 -0.7616 -0.1335  0.1153
  431MOL0     C59354   6.351  10.466   1.374  1.1669  0.6553 -0.3535
  431MOL0     C59355   6.376  10.471   1.227  0.7327 -0.2640 -0.1602
  431MOL0     C59356   6.244  10.511   1.146  0.1154  0.6206 -0.5284
  431MOL0     N59357   6.287  10.495   1.006  0.1489 -0.1259 -0.1644
  431MOL0     C59358   6.308  10.379   0.943 -0.3667 -0.0054  0.7940
  431MOL0     C59359   6.336  10.416   0.815  0.3687  0.6166 -0.7594
  431MOL0     C59360   6.368  10.325   0.698 -1.0875  0.2154 -0.2852
  431MOL0     C59361   6.284  10.198   0.713 -0.1174 -0.2850 -0.0810
  431MOL0     C59362   6.265  10.135   0.576 -0.4924 -0.3586 -0.2357
  431MOL0     C59363   6.392  10.089   0.499 -0.5737  0.1978  0.0524
  431MOL0     O59364   6.342  10.007   0.392 -0.9688 -0.3004  0.0317
  431MOL0     C59365   6.425   9.994   0.283 -0.2078 -0.3350  0.1297
  431MOL0     C59366   6.351   9.954   0.165 -0.4703  0.4733 -0.8556
  431MOL0     C59367   6.424   9.964   0.043  0.4436  0.2526 -0.1544
  431MOL0     C59368   6.357   9.897  -0.083  0.2591 -0.0341 -0.4434
  431MOL0     C59369   6.554  10.007   0.026 -0.6055  0.1612 -1.0764
  431MOL0     C59370   6.639  10.015  -0.098 -1.2261  0.0258 -0.5113
  431MOL0     O59371   6.731  10.111  -0.107  0.1610 -0.2082  0.3519
  431MOL0     C59372   6.811  10.110  -0.219  1.2438 -0.5034 -0.5819
  431MOL0     C59373   6.784  10.206  -0.315 -0.9806 -0.3005 -0.2652
  431MOL0     C59374   6.871  10.207  -0.426 -0.1091 -0.2045 -0.0061
  431MOL0     C59375   6.971  10.115  -0.448  0.6309  0.2501 -0.4313
  431MOL0     O59376   7.037  10.085  -0.561  0.0957 -0.0921  0.4681
  431MOL0     C59377   7.021  10.184  -0.662  0.5770  0.4622  0.0694
  431MOL0     C59378   7.092  10.143  -0.792  0.3419 -0.1159 -0.1954
  431MOL0     C59379   7.236  10.114  -0.773 -0.3421 -0.4883 -0.0595
  431MOL0     C59380   7.298  10.064  -0.908 -0.0888  0.0995 -0.3948
  431MOL0     C59381   7.446  10.040  -0.902 -1.1426 -0.2411 -0.2058
  431MOL0     C59382   7.492   9.978  -1.037 -0.7091  0.1775 -0.0841
  431MOL0     C59383   7.637   9.931  -1.018 -0.6801  0.3317  0.3476
  431MOL0     C59384   7.676   9.826  -1.134  0.5464 -0.3468 -1.6914
  431MOL0    Cl59385   7.579   9.836  -1.290 -0.2886 -0.1688  0.4048
  431MOL0     C59386   6.993  10.020  -0.342  0.3961  0.0893  0.6736
  431MOL0     C59387   6.916  10.011  -0.232  0.4844  0.0660 -0.3469
  431MOL0     O59388   6.629   9.923  -0.179 -0.9574  0.2193 -0.5389
  431MOL0     C59389   6.614  10.060   0.137  0.0749  0.3188 -0.2407
  431MOL0     C59390   6.551  10.048   0.261 -0.2101 -0.6492 -0.2206
  431MOL0     N59391   6.330  10.551   0.806 -0.2303  0.4671  0.6561
  431MOL0     N59392   6.302  10.597   0.927  0.1954 -0.0844  0.0257
  431MOL0     C59393   6.216  10.429   2.167  0.5531  0.1050  0.5816
  431MOL0     C59394   6.173  10.504   2.280  0.3421 -0.4214  0.3316
  431MOL0     C59395   6.135  10.856   2.549 -0.0301 -0.6728 -0.6182
  431MOL0     C59396   6.092  10.786   2.662  0.6529 -0.1140 -0.0367
  431MOL0     C59397   6.042  10.847   2.776  0.7135  0.6285 -0.1106
  431MOL0     C59398   6.031  10.985   2.786  0.6537 -0.7288 -0.0928
  431MOL0     O59399   5.989  11.031   2.913 -0.5766  0.4328  0.2147
  431MOL0     C59400   6.003  11.171   2.932 -0.8780  0.5876 -1.0561
  431MOL0     C59401   5.978  11.217   3.075 -0.2204 -0.7870  0.2419
  431MOL0     C59402   6.117  11.214   3.152 -0.3488 -0.7521 -0.4173
  431MOL0     C59403   6.099  11.226   3.300 -0.0679  0.1101 -0.4158
  431MOL0     C59404   6.226  11.244   3.368 -0.1727  0.3270 -0.4093
  431MOL0     C59405   6.337  11.256   3.422 -0.5910  0.8694 -1.1670
  431MOL0     C59406   6.068  11.056   2.673 -0.4727 -0.2797  0.3714
  431MOL0     C59407   6.120  10.999   2.553 -0.1734  1.1338 -0.1534
  431MOL0     C59408   6.166  11.089   2.436  0.3249 -0.6022 -0.3221
  431MOL0     H59409   6.461  10.649   2.375 -2.9795  0.2935  2.9717
  431MOL0     H59410   6.544  10.477   2.198  0.2945  3.1110 -0.2619
  431MOL0     H59411   6.401  10.528   1.919  0.0695 -0.4890  2.1371
  431MOL0     H59412   6.305  10.391   1.846 -0.0555 -0.2935  0.2349
  431MOL0     H59413   6.606  10.400   1.885  0.6751 -0.4729  0.0532
  431MOL0     H59414   6.512  10.272   1.815 -2.2308  1.1306  0.8912
  431MOL0     H59415   6.497  10.555   1.702  3.7453  1.8997 -1.0435
  431MOL0     H59416   6.630  10.466   1.665  0.3241 -0.5186  1.3536
  431MOL0     H59417   6.457  10.274   1.588 -0.6605  0.0269  0.9721
  431MOL0     H59418   6.341  10.407   1.607 -0.4609 -0.0122 -0.8604
  431MOL0     H59419   6.521  10.328   1.400 -0.9820 -0.5031  0.6512
  431MOL0     H59420   6.563  10.489   1.438 -0.6453 -0.4173 -1.8125
  431MOL0     H59421   6.267  10.398   1.390 -1.1907  3.0699 -1.7380
  431MOL0     H59422   6.322  10.564   1.413 -1.2557 -0.3657  0.5642
  431MOL0     H59423   6.416  10.372   1.205  1.6333  0.0926 -0.1933
  431MOL0     H59424   6.455  10.545   1.213  1.4678 -0.4870  2.2450
  431MOL0     H59425   6.162  10.441   1.165 -1.6066  1.9483 -2.5279
  431MOL0     H59426   6.213  10.613   1.170  0.2447  0.9221 -1.5682
  431MOL0     H59427   6.307  10.278   0.985 -1.8440 -0.9321 -1.2786
  431MOL0     H59428   6.476  10.312   0.697 -0.5157  3.8582  0.0552
  431MOL0     H59429   6.347  10.385   0.609 -1.2966 -0.1740 -0.5058
  431MOL0     H59430   6.342  10.129   0.774 -0.7065 -0.3727  0.3852
  431MOL0     H59431   6.185  10.223   0.752  0.7456 -0.7854  2.6322
  431MOL0     H59432   6.185  10.060   0.579 -1.3763  0.5236 -0.9722
  431MOL0     H59433   6.222  10.206   0.505 -1.3407  0.1863  0.7769
  431MOL0     H59434   6.439  10.179   0.459 -0.9712  1.0551  1.4462
  431MOL0     H59435   6.467  10.050   0.567  0.3696  2.2810  0.2918
  431MOL0     H59436   6.249   9.920   0.174  0.0732 -1.1096 -0.3477
  431MOL0     H59437   6.369   9.788  -0.093 -0.5717 -0.3905  1.7955
  431MOL0     H59438   6.393   9.937  -0.177 -0.4394 -1.6647 -1.4618
  431MOL0     H59439   6.251   9.924  -0.074  0.2520 -0.4422  0.9664
  431MOL0     H59440   6.709  10.283  -0.299  0.7323  1.3052  0.5302
  431MOL0     H59441   6.870  10.293  -0.493 -0.5384  0.7932  1.2279
  431MOL0     H59442   6.915  10.196  -0.686 -0.0021 -3.1465  0.3081
  431MOL0     H59443   7.059  10.279  -0.624 -0.6325  1.6431 -1.5359
  431MOL0     H59444   7.054  10.049  -0.834  2.2498 -0.3818 -1.4434
  431MOL0     H59445   7.084  10.220  -0.869  1.7765 -0.0533 -0.3030
  431MOL0     H59446   7.262  10.049  -0.689  1.3727  0.0974 -0.0779
  431MOL0     H59447   7.289  10.203  -0.738 -1.8987 -1.1394  4.6312
  431MOL0     H59448   7.280  10.131  -0.993 -1.4802 -1.1146 -1.1056
  431MOL0     H59449   7.250   9.968  -0.924  0.7495 -0.4944  0.5154
  431MOL0     H59450   7.503  10.132  -0.887  0.1978 -0.6567 -2.2182
  431MOL0     H59451   7.477   9.978  -0.817  2.3925  0.1238 -1.0787
  431MOL0     H59452   7.475  10.039  -1.126  0.5295 -1.7089 -1.6967
  431MOL0     H59453   7.422   9.896  -1.056  0.7714 -1.0512 -0.4535
  431MOL0     H59454   7.658   9.890  -0.919 -1.9840  1.5358  1.1599
  431MOL0     H59455   7.705  10.015  -1.039  0.5080 -0.5593  0.4938
  431MOL0     H59456   7.660   9.728  -1.088  0.9563  1.0619  1.8218
  431MOL0     H59457   7.780   9.819  -1.165  0.8670 -6.4153 -0.6101
  431MOL0     H59458   7.077   9.951  -0.347  1.3841  1.1880  1.3399
  431MOL0     H59459   6.951   9.948  -0.150 -0.7364  0.9389  0.8908
  431MOL0     H59460   6.707  10.115   0.147 -0.1724  0.7780 -0.4183
  431MOL0     H59461   6.601  10.073   0.354 -2.0223 -2.5112  1.3379
  431MOL0     H59462   6.151  10.365   2.109 -0.5197  0.8204  0.9718
  431MOL0     H59463   6.073  10.486   2.318  0.3776 -2.9761 -0.5673
  431MOL0     H59464   6.069  10.680   2.664 -3.2552  0.4901  3.7883
  431MOL0     H59465   6.008  10.784   2.859 -1.3490 -1.3346 -2.2947
  431MOL0     H59466   6.104  11.200   2.901  0.6774 -1.5943  1.5130
  431MOL0     H59467   5.925  11.209   2.866 -0.9832 -1.5342 -2.2589
  431MOL0     H59468   5.906  11.151   3.124 -0.6547 -0.9107 -0.5517
  431MOL0     H59469   5.939  11.319   3.075 -1.4260 -1.1997 -1.7674
  431MOL0     H59470   6.181  11.129   3.128 -0.5847 -1.3144  0.8489
  431MOL0     H59471   6.174  11.303   3.127 -1.3231  0.2138  0.6482
  431MOL0     H59472   6.046  11.142   3.346  1.6170  0.2641  1.9917
  431MOL0     H59473   6.039  11.316   3.319 -3.2518 -1.6539 -1.3176
  431MOL0     H59474   6.429  11.284   3.468 -2.6511  2.9010  2.2397
  431MOL0     H59475   6.072  11.164   2.669  4.3601 -0.2503 -2.8285
  431MOL0     H59476   6.255  11.048   2.387  1.4761  1.3225  0.0738
  431MOL0     H59477   6.082  11.101   2.367  1.3210 -1.3376 -1.6911
  431MOL0     H59478   6.184  11.184   2.486 -1.5888  0.4067 -1.4449
  432MOL0     O59479   5.894   1.313   3.785 -0.1377  0.1452 -0.1807
  432MOL0     C59480   5.841   1.355   3.687  0.3694  0.8038  0.6633
  432MOL0     O59481   5.837   1.292   3.567 -1.1160  0.1766 -0.1947
  432MOL0     C59482   5.918   1.183   3.551 -0.2562 -0.3718  1.1479
  432MOL0     C59483   5.857   1.061   3.580 -0.7444  0.5048 -0.2922
  432MOL0     C59484   5.930   0.944   3.565 -0.1686  0.1214 -0.1677
  432MOL0     C59485   6.066   0.942   3.518 -0.1495 -0.6148  0.9766
  432MOL0     O59486   6.125   0.821   3.499  0.2091  0.2073 -0.3924
  432MOL0     C59487   6.260   0.820   3.480 -0.5162  0.0406 -0.6440
  432MOL0     C59488   6.301   0.673   3.451 -0.1500 -0.4720 -0.4957
  432MOL0     C59489   6.251   0.587   3.567 -0.6751 -0.2235 -0.3740
  432MOL0     C59490   6.269   0.434   3.537  0.3411 -1.0963 -0.0848
  432MOL0     C59491   6.228   0.361   3.666 -0.0225  0.9710 -0.3388
  432MOL0     C59492   6.246   0.215   3.661 -0.1312  0.9353  0.1197
  432MOL0     C59493   6.228   0.141   3.794 -0.0501 -0.3862  0.2863
  432MOL0     C59494   6.293   0.005   3.796 -0.9262 -0.1996  0.6089
  432MOL0     N59495   6.442   0.004   3.807 -0.5270  0.2936  1.1186
  432MOL0     C59496   6.517   0.045   3.911 -0.6418  0.2631 -0.1646
  432MOL0     C59497   6.642   0.044   3.858  0.3479 -0.3631 -0.1064
  432MOL0     C59498   6.765   0.085   3.932  0.2784  0.0603  0.3518
  432MOL0     C59499   6.892   0.089   3.852 -0.7969 -0.0157  0.5141
  432MOL0     C59500   7.014   0.121   3.938 -0.2832 -0.1547  1.4337
  432MOL0     C59501   7.145   0.112   3.857 -0.7317 -0.2618  0.2109
  432MOL0     O59502   7.253   0.131   3.947  0.3794 -0.1196 -0.6661
  432MOL0     C59503   7.370   0.131   3.903 -0.7413 -0.5628  0.2985
  432MOL0     C59504   7.398   0.155   3.770 -0.8711 -0.6763 -0.8485
  432MOL0     C59505   7.527   0.172   3.715 -0.0413 -0.4266 -0.0898
  432MOL0     C59506   7.541   0.168   3.561 -0.5048 -1.2350 -0.3789
  432MOL0     C59507   7.639   0.176   3.804  0.9551  0.4482  0.3735
  432MOL0     C59508   7.787   0.194   3.764  0.2761  0.4485 -0.2495
  432MOL0     O59509   7.885   0.155   3.848  0.3030  0.6854  0.5901
  432MOL0     C59510   8.019   0.173   3.795 -0.0086 -0.2246 -0.5910
  432MOL0     C59511   8.082   0.086   3.715 -0.2262 -0.2823  0.6056
  432MOL0     C59512   8.216   0.096   3.679 -0.1638  0.1427 -0.3960
  432MOL0     C59513   8.290   0.211   3.729  0.9699 -0.3626  0.0808
  432MOL0     O59514   8.418   0.235   3.701  0.0227 -0.0952 -0.0409
  432MOL0     C59515   8.456   0.214   3.566  0.1757 -0.7573 -0.1724
  432MOL0     C59516   8.552   0.320   3.526 -0.6873  0.2129  0.1219
  432MOL0     C59517   8.687   0.258   3.575  0.0317  0.0095  0.3788
  432MOL0     C59518   8.792   0.346   3.516 -0.3370 -0.0364  0.1048
  432MOL0     C59519   8.795   0.488   3.575  0.6025  0.1611 -0.1041
  432MOL0     C59520   8.928   0.559   3.544  0.6869 -0.0676  0.2145
  432MOL0     C59521   8.944   0.716   3.572  1.1170  0.3406  0.8905
  432MOL0     C59522   8.818   0.777   3.495 -0.3768  0.1813 -0.0038
  432MOL0    Cl59523   8.850   0.956   3.489  0.1052 -0.0964 -0.6500
  432MOL0     C59524   8.228   0.305   3.816 -0.6086  0.7980  0.1273
  432MOL0     C59525   8.087   0.288   3.838 -0.5704  0.0966  0.0259
  432MOL0     O59526   7.804   0.259   3.659  0.2214 -0.5442  0.1306
  432MOL0     C59527   7.609   0.178   3.940  0.5164 -0.4993 -0.8468
  432MOL0     C59528   7.480   0.160   3.986  0.4519 -0.0896 -0.1292
  432MOL0     N59529   6.641   0.001   3.729 -0.6440  0.2311 -0.1192
  432MOL0     N59530   6.522  -0.026   3.699 -0.0087 -0.4339 -0.5880
  432MOL0     C59531   6.120   1.068   3.476  0.4114 -0.2280  0.4955
  432MOL0     C59532   6.048   1.188   3.496 -0.0490 -0.1758  0.4710
  432MOL0     C59533   5.772   1.487   3.709 -0.0609 -0.5958  0.2296
  432MOL0     C59534   5.827   1.569   3.819 -0.5749  1.8225 -0.5598
  432MOL0     C59535   5.772   1.691   3.847  1.1419 -0.1546  0.8995
  432MOL0     C59536   5.662   1.739   3.782  0.8147  0.4494 -0.1397
  432MOL0     O59537   5.611   1.855   3.819  0.7199 -0.7596 -0.4079
  432MOL0     C59538   5.702   1.965   3.785  0.7863  0.2754  0.1884
  432MOL0     C59539   5.614   2.087   3.750 -0.2057 -0.1469 -0.1322
  432MOL0     C59540   5.511   2.056   3.635  1.1897  0.2107  0.2328
  432MOL0     C59541   5.577   2.036   3.498  0.4189  0.1768 -0.5095
  432MOL0     C59542   5.693   2.118   3.476  0.3480  0.0529 -0.3151
  432MOL0     C59543   5.797   2.173   3.463 -0.3829  0.3161  0.5944
  432MOL0     C59544   5.602   1.666   3.676  0.3500 -0.5373  0.3516
  432MOL0     C59545   5.660   1.542   3.638  0.2534 -0.0661  0.5401
  432MOL0     C59546   5.601   1.466   3.520 -0.4216  0.0487 -0.9336
  432MOL0     H59547   5.755   1.067   3.618  1.2121  2.0949  5.7090
  432MOL0     H59548   5.884   0.848   3.586 -0.8381  0.5454  0.3265
  432MOL0     H59549   6.307   0.855   3.573 -0.4027  0.1974 -0.7603
  432MOL0     H59550   6.297   0.890   3.405 -2.8364  0.9457 -1.0509
  432MOL0     H59551   6.271   0.634   3.354  1.0331 -2.2868 -0.1899
  432MOL0     H59552   6.410   0.673   3.440 -0.1042  2.4480 -0.6748
  432MOL0     H59553   6.305   0.611   3.659 -0.2306 -0.1157 -0.6602
  432MOL0     H59554   6.143   0.595   3.582 -0.6263 -2.0451  1.3398
  432MOL0     H59555   6.208   0.404   3.452  0.9055  0.3153 -1.0206
  432MOL0     H59556   6.375   0.419   3.514  0.6253 -1.1343  1.1763
  432MOL0     H59557   6.124   0.372   3.699  0.4699  1.6547  1.0951
  432MOL0     H59558   6.293   0.393   3.748 -0.2158 -0.1463  0.2769
  432MOL0     H59559   6.185   0.170   3.582  2.7643  1.7332 -2.7605
  432MOL0     H59560   6.347   0.192   3.626 -0.1568  0.3894  0.3863
  432MOL0     H59561   6.125   0.142   3.832  0.4513  0.2947  1.6856
  432MOL0     H59562   6.289   0.197   3.866 -0.1480 -0.3240  0.3214
  432MOL0     H59563   6.264  -0.036   3.894  1.9581 -2.6315  0.5779
  432MOL0     H59564   6.263  -0.070   3.722  1.4175 -1.3275  0.7210
  432MOL0     H59565   6.503   0.080   4.013  0.8167  0.6387 -0.0649
  432MOL0     H59566   6.767   0.011   4.013  1.3176 -2.1301 -1.5593
  432MOL0     H59567   6.746   0.181   3.981  0.8443  0.2738  0.1574
  432MOL0     H59568   6.909  -0.002   3.793  1.0486  1.2312 -0.9599
  432MOL0     H59569   6.887   0.160   3.770 -1.3291 -2.3261 -1.5696
  432MOL0     H59570   7.006   0.223   3.975 -0.4122  0.3987 -0.0539
  432MOL0     H59571   7.026   0.045   4.016  1.9299 -0.5641  0.7756
  432MOL0     H59572   7.165   0.015   3.812 -0.3539  1.0691 -2.7232
  432MOL0     H59573   7.139   0.179   3.771  4.3931 -2.9312 -2.7453
  432MOL0     H59574   7.325   0.165   3.691  0.7553  1.5400 -2.1965
  432MOL0     H59575   7.499   0.258   3.514 -0.9001 -1.7551 -1.0288
  432MOL0     H59576   7.464   0.097   3.530 -2.8988  1.4671 -1.0900
  432MOL0     H59577   7.638   0.162   3.511 -1.3404  2.1904 -2.8004
  432MOL0     H59578   8.030   0.002   3.669 -2.0846  0.0778  1.9507
  432MOL0     H59579   8.255   0.036   3.598 -3.1273  0.1799 -2.0083
  432MOL0     H59580   8.490   0.111   3.550  1.6853 -0.2414 -0.4643
  432MOL0     H59581   8.375   0.236   3.495 -0.2187  1.7727  0.9860
  432MOL0     H59582   8.560   0.322   3.417  0.0018 -2.4141  0.0495
  432MOL0     H59583   8.518   0.417   3.563 -0.6910  0.0167  0.6478
  432MOL0     H59584   8.703   0.158   3.535  1.4816  1.2785 -2.5172
  432MOL0     H59585   8.687   0.245   3.684  0.6366  0.7306  0.4747
  432MOL0     H59586   8.781   0.345   3.407  0.2873  0.7954  0.0246
  432MOL0     H59587   8.889   0.301   3.538 -0.4405  1.4553  4.8345
  432MOL0     H59588   8.718   0.550   3.528  2.3789  1.8692 -0.8569
  432MOL0     H59589   8.782   0.481   3.683 -2.7526 -1.7120 -0.4700
  432MOL0     H59590   8.950   0.537   3.439 -2.0589  2.0070 -0.9140
  432MOL0     H59591   9.004   0.506   3.601 -0.0456  0.2944  1.5491
  432MOL0     H59592   9.036   0.750   3.525 -0.3910 -0.2076 -2.8210
  432MOL0     H59593   8.936   0.734   3.680 -3.5279  1.4958  0.5848
  432MOL0     H59594   8.732   0.766   3.561  1.0964  1.9015  2.3976
  432MOL0     H59595   8.801   0.743   3.393  1.7506 -1.2822  0.0705
  432MOL0     H59596   8.271   0.393   3.863  1.1130  2.4444 -3.9598
  432MOL0     H59597   8.032   0.360   3.897 -1.9661  0.2658 -1.3982
  432MOL0     H59598   7.690   0.182   4.012  0.2176  0.6889 -0.5426
  432MOL0     H59599   7.460   0.173   4.092  3.0081 -0.6960  0.4857
  432MOL0     H59600   6.222   1.081   3.440  0.2413 -1.3572 -0.4445
  432MOL0     H59601   6.079   1.288   3.467 -0.4393 -0.2423 -0.2011
  432MOL0     H59602   5.908   1.528   3.878 -1.9154 -1.4908 -0.8384
  432MOL0     H59603   5.805   1.746   3.935 -2.0218  1.5137  1.1801
  432MOL0     H59604   5.755   1.987   3.878 -1.6379  1.4506  1.3918
  432MOL0     H59605   5.771   1.940   3.703  0.8384 -0.7547  0.5385
  432MOL0     H59606   5.678   2.172   3.722 -2.0539  0.6935 -2.1029
  432MOL0     H59607   5.567   2.132   3.838 -0.0980  2.8715 -1.4666
  432MOL0     H59608   5.447   1.972   3.664  0.4560 -0.1738 -2.2289
  432MOL0     H59609   5.454   2.150   3.634  3.5518  1.7115 -0.4583
  432MOL0     H59610   5.501   2.063   3.425 -0.4845  1.6081  0.9089
  432MOL0     H59611   5.603   1.930   3.486  1.8207  0.5515 -0.9489
  432MOL0     H59612   5.877   2.244   3.464  0.7962 -0.9623  2.1008
  432MOL0     H59613   5.517   1.699   3.618  2.4431 -0.2198 -2.8123
  432MOL0     H59614   5.599   1.360   3.544  0.2209 -0.0117 -1.1305
  432MOL0     H59615   5.496   1.488   3.501 -1.0846 -1.9461  0.1804
  432MOL0     H59616   5.663   1.473   3.429  2.3225 -0.6436  0.7539
  433MOL0     O59617   8.139   3.135   7.182  0.3212  0.1450 -0.1109
  433MOL0     C59618   8.028   3.145   7.237 -0.4084 -0.9612 -0.4257
  433MOL0     O59619   7.947   3.247   7.222  0.1226 -0.9493 -0.9419
  433MOL0     C59620   7.988   3.350   7.137  0.2504  0.1365 -0.8144
  433MOL0     C59621   7.995   3.479   7.188  0.2788 -0.0254  0.2101
  433MOL0     C59622   8.040   3.588   7.100  0.8105 -0.0882 -1.3635
  433MOL0     C59623   8.057   3.559   6.967 -1.1445  0.3161 -0.3961
  433MOL0     O59624   8.094   3.661   6.886 -0.0309  0.1397 -0.1489
  433MOL0     C59625   8.221   3.640   6.826  0.1470 -0.3690 -0.8260
  433MOL0     C59626   8.276   3.781   6.780  0.9661 -0.0281 -0.3549
  433MOL0     C59627   8.398   3.760   6.687  0.3043  0.1269 -0.5848
  433MOL0     C59628   8.479   3.895   6.679  0.7172  0.5709  0.1046
  433MOL0     C59629   8.581   3.896   6.565 -0.1104  0.1123  1.1109
  433MOL0     C59630   8.674   4.017   6.581  0.5546  0.7494  0.4468
  433MOL0     C59631   8.741   4.051   6.456  1.3798 -0.1067  0.5207
  433MOL0     C59632   8.658   4.125   6.353  0.6008 -1.0084  0.1299
  433MOL0     N59633   8.733   4.163   6.230  0.2639  0.7444 -0.0507
  433MOL0     C59634   8.867   4.139   6.204  0.6054 -0.6735  0.0731
  433MOL0     C59635   8.893   4.182   6.076  0.7874  0.0706  0.0703
  433MOL0     C59636   9.012   4.177   5.987  0.2669 -0.3990  0.5956
  433MOL0     C59637   9.116   4.298   6.004  0.1439  0.2316 -0.1547
  433MOL0     C59638   9.102   4.427   5.933  0.7454 -0.6673 -0.1179
  433MOL0     C59639   9.234   4.499   5.945  0.0307  0.1529  0.2919
  433MOL0     O59640   9.204   4.618   5.862  0.3098  1.0713 -0.0147
  433MOL0     C59641   9.286   4.721   5.860  0.1248 -0.3762 -0.3438
  433MOL0     C59642   9.263   4.826   5.773  0.6996 -0.7862 -0.5426
  433MOL0     C59643   9.360   4.930   5.759  0.1205 -0.1427 -1.0039
  433MOL0     C59644   9.327   5.030   5.664  0.2560 -0.9541 -0.3496
  433MOL0     C59645   9.481   4.926   5.838  0.8029 -1.0859  0.0708
  433MOL0     C59646   9.591   5.028   5.825  0.1074  0.5217 -0.4985
  433MOL0     O59647   9.699   5.006   5.923 -0.4812  0.1413  0.8947
  433MOL0     C59648   9.807   5.088   5.912  0.4804 -0.7690  0.0739
  433MOL0     C59649   9.828   5.203   5.996  0.1564 -0.2432  0.3551
  433MOL0     C59650   9.942   5.286   5.970 -0.0588  0.0582  0.3438
  433MOL0     C59651  10.024   5.269   5.854  0.3732 -0.0772  0.2397
  433MOL0     O59652  10.126   5.346   5.816 -0.0186  0.0100  0.1964
  433MOL0     C59653  10.215   5.403   5.910 -0.6703 -0.3516  0.1469
  433MOL0     C59654  10.360   5.367   5.878  0.4463  0.4354  0.0026
  433MOL0     C59655  10.378   5.214   5.864 -0.3227 -0.3737 -0.3678
  433MOL0     C59656  10.527   5.177   5.831  0.1273 -0.7791 -0.0341
  433MOL0     C59657  10.550   5.032   5.837  0.4157  0.6584 -0.7621
  433MOL0     C59658  10.696   4.984   5.804  1.3893  0.2414  0.0002
  433MOL0     C59659  10.800   5.059   5.878 -1.0124 -0.0442 -0.0613
  433MOL0     C59660  10.952   5.014   5.860 -0.2775 -0.4594 -0.8772
  433MOL0    Cl59661  11.010   4.846   5.909  0.6639 -0.6170  0.3859
  433MOL0     C59662   9.999   5.158   5.776  0.4437  0.8340  1.6188
  433MOL0     C59663   9.898   5.066   5.814 -0.3998  0.3219  0.1667
  433MOL0     O59664   9.593   5.119   5.737 -0.7698  0.4396 -0.8958
  433MOL0     C59665   9.500   4.817   5.930 -0.2827  0.4374 -0.8365
  433MOL0     C59666   9.408   4.717   5.932  0.5103 -0.4679 -0.4209
  433MOL0     N59667   8.772   4.240   6.029  0.5883  0.5447 -0.0262
  433MOL0     N59668   8.679   4.221   6.120  0.6019  0.2551  0.5263
  433MOL0     C59669   8.025   3.423   6.912  0.1156  0.2437 -0.2660
  433MOL0     C59670   7.985   3.331   7.004  0.9786  0.9244 -0.5555
  433MOL0     C59671   7.996   3.041   7.332 -0.5468 -0.8271 -0.0179
  433MOL0     C59672   7.940   3.076   7.458  0.0712  0.9880  0.4596
  433MOL0     C59673   7.914   2.984   7.563  0.0474  0.9237  0.6054
  433MOL0     C59674   7.943   2.853   7.534 -0.6290  0.7093  0.3204
  433MOL0     O59675   7.921   2.766   7.638 -0.5406 -0.1995  0.3675
  433MOL0     C59676   8.001   2.656   7.660  0.3352 -0.1143 -0.0712
  433MOL0     C59677   8.005   2.604   7.799 -0.0077  0.0603 -0.1346
  433MOL0     C59678   7.869   2.539   7.821 -0.2913  0.5835 -0.3689
  433MOL0     C59679   7.768   2.636   7.872 -1.5755 -0.2555 -0.4826
  433MOL0     C59680   7.644   2.563   7.904 -0.2591 -0.5730  0.7437
  433MOL0     C59681   7.537   2.515   7.936  0.9418  0.0906  0.2066
  433MOL0     C59682   7.975   2.810   7.399  0.0451  0.1149  0.3441
  433MOL0     C59683   8.006   2.901   7.303  0.6181 -0.8951 -0.4195
  433MOL0     C59684   8.047   2.837   7.171 -0.5097  0.0073  0.3181
  433MOL0     H59685   7.974   3.483   7.295  3.3813 -2.0627  1.0507
  433MOL0     H59686   8.064   3.687   7.139 -1.5567  0.6578 -1.6148
  433MOL0     H59687   8.216   3.566   6.746  0.7860 -2.7654  1.2053
  433MOL0     H59688   8.290   3.599   6.901  0.6128 -0.4705 -1.3068
  433MOL0     H59689   8.208   3.831   6.710  0.8471  0.7132  0.2826
  433MOL0     H59690   8.297   3.849   6.862  2.2962  1.4624 -1.8611
  433MOL0     H59691   8.464   3.683   6.728  0.5764  1.4973  1.6822
  433MOL0     H59692   8.383   3.726   6.584 -0.1532 -2.0122  0.1196
  433MOL0     H59693   8.402   3.965   6.648  0.3436 -0.0862 -0.4720
  433MOL0     H59694   8.531   3.928   6.770  3.5963 -1.5289 -0.6236
  433MOL0     H59695   8.526   3.896   6.471  0.2945  2.8387  0.7966
  433MOL0     H59696   8.632   3.800   6.553  1.1535  0.6025  2.2689
  433MOL0     H59697   8.620   4.103   6.622  0.1229 -0.1132  1.7652
  433MOL0     H59698   8.756   3.998   6.652  1.1960  4.8672  1.0958
  433MOL0     H59699   8.779   3.962   6.405  1.1655  0.7966 -1.2930
  433MOL0     H59700   8.824   4.117   6.484  0.1991  1.8617 -0.3391
  433MOL0     H59701   8.579   4.057   6.320 -2.2901  0.9571  2.4590
  433MOL0     H59702   8.594   4.204   6.393 -1.1665 -0.9412 -2.6216
  433MOL0     H59703   8.935   4.100   6.279 -1.2220 -0.6661  1.8127
  433MOL0     H59704   8.998   4.152   5.881  1.5877 -0.6212  0.4554
  433MOL0     H59705   9.070   4.094   6.027  2.1786  0.4929 -0.2042
  433MOL0     H59706   9.131   4.320   6.110 -0.8574  1.0924 -0.1772
  433MOL0     H59707   9.214   4.259   5.973 -0.1896 -0.5008 -0.2809
  433MOL0     H59708   9.072   4.414   5.828 -0.8665 -1.6707  0.4400
  433MOL0     H59709   9.016   4.468   5.986  0.5613 -1.2631  0.0421
  433MOL0     H59710   9.266   4.523   6.047  3.7763  0.2854 -0.7831
  433MOL0     H59711   9.315   4.445   5.895  2.1373  4.2460 -1.1877
  433MOL0     H59712   9.171   4.814   5.717  0.4634 -2.5301  0.1370
  433MOL0     H59713   9.412   5.036   5.595 -0.9946 -3.7247 -2.3139
  433MOL0     H59714   9.308   5.126   5.712 -2.1308 -2.5479  2.1826
  433MOL0     H59715   9.236   5.005   5.609 -1.3661 -1.9603  2.5864
  433MOL0     H59716   9.757   5.223   6.075  1.1087  2.2778  0.6569
  433MOL0     H59717   9.965   5.365   6.042 -2.3295 -0.5650  1.8435
  433MOL0     H59718  10.195   5.510   5.921  0.4539  0.0823 -1.8093
  433MOL0     H59719  10.196   5.362   6.010  0.8840  2.4412  1.6940
  433MOL0     H59720  10.396   5.425   5.792 -1.9151  1.3703 -0.4373
  433MOL0     H59721  10.424   5.398   5.960  0.6624  2.3037 -0.8182
  433MOL0     H59722  10.311   5.172   5.788 -0.6647  3.2060 -2.2511
  433MOL0     H59723  10.344   5.170   5.958 -0.9827 -2.0612 -1.3529
  433MOL0     H59724  10.580   5.230   5.911 -1.7797  0.3684  0.5303
  433MOL0     H59725  10.554   5.215   5.732  2.1856 -1.5439  0.1909
  433MOL0     H59726  10.529   5.014   5.943  0.2751  0.8976 -0.7499
  433MOL0     H59727  10.490   4.965   5.775  0.8732  0.3258 -0.8512
  433MOL0     H59728  10.711   5.004   5.697 -0.2943  1.2349 -0.0937
  433MOL0     H59729  10.705   4.876   5.814 -0.5302  0.2020  1.7623
  433MOL0     H59730  10.778   5.062   5.985 -0.8551  0.9763 -0.0496
  433MOL0     H59731  10.798   5.162   5.842 -0.7968  0.1863  0.5780
  433MOL0     H59732  11.018   5.091   5.900 -1.8275  1.9388 -2.6197
  433MOL0     H59733  10.976   5.026   5.754 -3.5635  2.2515 -1.5031
  433MOL0     H59734  10.072   5.128   5.703 -1.8753 -1.3317  0.0291
  433MOL0     H59735   9.891   4.969   5.765  3.7861 -0.6029  0.9623
  433MOL0     H59736   9.590   4.792   5.985 -0.9574  0.0549  0.1199
  433MOL0     H59737   9.442   4.646   6.007  2.3437  0.3884 -0.3829
  433MOL0     H59738   8.026   3.407   6.805  0.3567 -0.7049 -0.1309
  433MOL0     H59739   7.954   3.230   6.980 -0.5155  0.9708  1.0465
  433MOL0     H59740   7.917   3.182   7.464 -0.7259  0.9008 -0.6583
  433MOL0     H59741   7.880   3.012   7.662 -3.7679 -1.3818  0.1350
  433MOL0     H59742   7.969   2.571   7.598  2.2409 -0.7031 -0.3161
  433MOL0     H59743   8.103   2.676   7.624  0.5075 -1.0793 -0.1544
  433MOL0     H59744   8.006   2.689   7.867  2.0830 -0.7722  0.9468
  433MOL0     H59745   8.090   2.540   7.824  0.1522  0.4753  0.4034
  433MOL0     H59746   7.820   2.487   7.738 -1.8730  0.3656  0.6654
  433MOL0     H59747   7.882   2.466   7.902 -0.4391  0.1649 -0.7239
  433MOL0     H59748   7.738   2.708   7.795 -0.7814 -1.3649 -1.8890
  433MOL0     H59749   7.807   2.693   7.956 -0.2250  0.4891 -1.5784
  433MOL0     H59750   7.442   2.469   7.959  0.6236  1.3097  1.4658
  433MOL0     H59751   8.005   2.708   7.377  0.8720  0.7569 -1.8479
  433MOL0     H59752   8.157   2.831   7.170 -0.3139  2.4260  1.2522
  433MOL0     H59753   7.997   2.739   7.172  1.2298 -0.9194  0.8633
  433MOL0     H59754   8.024   2.900   7.084 -0.3173  1.7686  1.4996
  434MOL0     O59755   9.817   6.729   8.620 -0.2428  0.1916  0.0507
  434MOL0     C59756   9.925   6.777   8.647  0.1898  0.0526  0.0211
  434MOL0     O59757   9.995   6.750   8.759 -0.6693  0.4610 -0.0594
  434MOL0     C59758   9.933   6.681   8.865 -0.7048 -0.1608 -0.3847
  434MOL0     C59759   9.923   6.545   8.866 -0.4306  0.5858 -0.1059
  434MOL0     C59760   9.868   6.480   8.972  0.0576 -1.1896 -0.6227
  434MOL0     C59761   9.810   6.549   9.078  0.3015 -0.4241 -0.5649
  434MOL0     O59762   9.737   6.482   9.178  1.0709  0.3665  0.5070
  434MOL0     C59763   9.792   6.362   9.241 -1.2809  0.3510 -0.4975
  434MOL0     C59764   9.746   6.353   9.387  0.0908  0.3116 -0.3338
  434MOL0     C59765   9.761   6.219   9.470  0.1454  0.0014  0.0499
  434MOL0     C59766   9.717   6.091   9.394 -0.7425 -0.3478  0.8138
  434MOL0     C59767   9.731   5.960   9.470  0.3366  0.5544 -0.3537
  434MOL0     C59768   9.665   5.852   9.380  0.1990  0.3711 -0.4755
  434MOL0     C59769   9.666   5.715   9.455 -0.1961 -0.3090 -0.9174
  434MOL0     C59770   9.816   5.673   9.440 -0.0166  0.5792 -0.1458
  434MOL0     N59771   9.844   5.561   9.525 -0.3576  0.0607  0.7203
  434MOL0     C59772   9.826   5.559   9.660  0.0326 -0.2014 -0.0624
  434MOL0     C59773   9.852   5.429   9.702 -0.7896 -0.0550 -0.0425
  434MOL0     C59774   9.833   5.368   9.844 -0.5413  0.2161  0.2971
  434MOL0     C59775   9.794   5.218   9.858 -0.6264 -1.1115  0.1886
  434MOL0     C59776   9.760   5.180  10.002  0.7821 -0.1894 -0.3704
  434MOL0     C59777   9.883   5.123  10.080  1.0563 -0.5119 -0.0717
  434MOL0     O59778   9.840   5.054  10.205 -0.3069 -0.4865  0.1291
  434MOL0     C59779   9.932   4.992  10.286 -1.1353 -0.1732  0.4378
  434MOL0     C59780  10.068   4.997  10.267 -0.5473  0.1418 -0.0090
  434MOL0     C59781  10.156   4.930  10.353  0.0659  0.9521 -0.2673
  434MOL0     C59782  10.301   4.946  10.304 -0.0823  0.2602  0.5155
  434MOL0     C59783  10.120   4.851  10.463 -0.9443 -0.5056 -0.0756
  434MOL0     C59784  10.218   4.766  10.554 -0.1714 -0.5401  0.4551
  434MOL0     O59785  10.356   4.784  10.530 -0.7282 -0.3163  0.7925
  434MOL0     C59786  10.462   4.744  10.604 -0.2594  0.2473 -0.5515
  434MOL0     C59787  10.464   4.698  10.737  0.2160  0.4527 -0.4967
  434MOL0     C59788  10.575   4.666  10.802 -0.3945 -0.9648  0.0093
  434MOL0     C59789  10.705   4.682  10.735  1.5284  0.0210 -0.3969
  434MOL0     O59790  10.819   4.659  10.809  0.1741 -0.1305  0.7418
  434MOL0     C59791  10.825   4.538  10.903  0.3591 -0.3279 -0.0603
  434MOL0     C59792  10.977   4.500  10.926 -0.3826 -0.3040  0.2771
  434MOL0     C59793  11.037   4.570  11.044  0.1800 -0.4014  0.4570
  434MOL0     C59794  11.039   4.722  11.013  0.4662 -0.4388  0.6188
  434MOL0     C59795  11.105   4.822  11.111  0.9727 -0.2218 -0.3989
  434MOL0     C59796  11.247   4.816  11.097 -0.0195 -0.4135  0.8485
  434MOL0     C59797  11.315   4.944  11.163 -0.1656  0.4945 -0.5625
  434MOL0     C59798  11.473   4.943  11.163  0.1586  0.0023 -0.1346
  434MOL0    Cl59799  11.554   4.851  11.286 -0.3549 -0.0870  0.1771
  434MOL0     C59800  10.706   4.738  10.612 -0.1443 -0.2016  0.5918
  434MOL0     C59801  10.584   4.751  10.540 -0.5902 -0.2361 -0.0297
  434MOL0     O59802  10.170   4.701  10.644 -0.3969 -0.5056 -0.1355
  434MOL0     C59803   9.984   4.856  10.483  0.1595  0.2554 -0.0640
  434MOL0     C59804   9.892   4.924  10.398 -0.7806  0.1447  0.7158
  434MOL0     N59805   9.907   5.365   9.593  0.2669 -0.2462  0.6137
  434MOL0     N59806   9.915   5.447   9.489 -0.1312 -0.0004  0.4310
  434MOL0     C59807   9.809   6.691   9.075  0.5876  0.0792  0.9190
  434MOL0     C59808   9.881   6.755   8.969  0.4436 -0.3950 -0.5040
  434MOL0     C59809  10.003   6.837   8.535  0.1950  0.3672 -0.6260
  434MOL0     C59810  10.144   6.816   8.546 -0.4999 -0.2960  0.3135
  434MOL0     C59811  10.224   6.858   8.432 -0.1238  0.7854 -0.3322
  434MOL0     C59812  10.169   6.920   8.315 -0.6970 -0.0311 -0.0589
  434MOL0     O59813  10.237   6.960   8.205  0.8233 -0.4071 -0.1111
  434MOL0     C59814  10.379   6.977   8.198  0.5014 -0.0358 -0.4266
  434MOL0     C59815  10.461   6.852   8.184  0.1651  0.3233  0.4892
  434MOL0     C59816  10.459   6.811   8.037  0.4586  0.2916 -0.5138
  434MOL0     C59817  10.524   6.672   8.011 -0.3393  0.0401 -0.0682
  434MOL0     C59818  10.666   6.670   7.997 -0.6942  0.0597 -0.4258
  434MOL0     C59819  10.788   6.650   7.975 -0.1137 -0.2799 -0.2347
  434MOL0     C59820  10.036   6.949   8.317  0.3289 -0.7708 -0.8117
  434MOL0     C59821   9.954   6.919   8.424  0.2024  0.1177  0.4309
  434MOL0     C59822   9.803   6.956   8.418 -1.1195 -0.7362 -0.0841
  434MOL0     H59823   9.960   6.484   8.784  1.4564  0.7520  0.5947
  434MOL0     H59824   9.862   6.373   8.990  1.8798 -1.0041  1.4523
  434MOL0     H59825   9.901   6.360   9.231 -1.1484 -1.7941  0.7491
  434MOL0     H59826   9.747   6.274   9.194 -0.3312 -0.7840  0.6307
  434MOL0     H59827   9.782   6.434   9.450  0.0010  0.1326 -0.0493
  434MOL0     H59828   9.638   6.367   9.373  0.1904  0.8162 -0.5937
  434MOL0     H59829   9.866   6.197   9.489  0.6707  0.9346 -1.6224
  434MOL0     H59830   9.707   6.220   9.565  1.1097 -2.5023  0.7127
  434MOL0     H59831   9.612   6.109   9.368 -0.1295  3.9871  0.5613
  434MOL0     H59832   9.772   6.087   9.300  2.0740 -1.0603  2.3973
  434MOL0     H59833   9.676   5.974   9.563  1.7619  2.8071  0.2202
  434MOL0     H59834   9.837   5.942   9.488 -0.2920 -3.5952  0.1341
  434MOL0     H59835   9.561   5.878   9.359 -0.7310 -2.1241  0.6577
  434MOL0     H59836   9.710   5.841   9.281  2.1494 -0.2394  0.4223
  434MOL0     H59837   9.603   5.639   9.408  2.5411 -0.9122 -3.9390
  434MOL0     H59838   9.627   5.750   9.551 -1.6522  1.7455 -2.1838
  434MOL0     H59839   9.840   5.650   9.336  1.5148  1.6154 -0.0526
  434MOL0     H59840   9.891   5.747   9.469  0.5825 -0.3521  0.7443
  434MOL0     H59841   9.790   5.641   9.722 -1.8835  0.0074 -1.3800
  434MOL0     H59842   9.754   5.433   9.884  0.0903  2.5879 -1.9950
  434MOL0     H59843   9.926   5.392   9.897 -0.8252  1.3133  0.3249
  434MOL0     H59844   9.710   5.202   9.790 -1.0152 -2.2609  0.9190
  434MOL0     H59845   9.876   5.160   9.815  0.1877 -0.4044  0.7234
  434MOL0     H59846   9.718   5.266  10.055 -0.1902 -0.9214  0.0743
  434MOL0     H59847   9.685   5.101  10.003  1.0612 -0.4547 -0.2454
  434MOL0     H59848   9.940   5.051  10.020  0.8248  0.2565 -1.2426
  434MOL0     H59849   9.946   5.207  10.107  2.5857 -1.3294 -0.9578
  434MOL0     H59850  10.104   5.060  10.186  1.5981 -0.7221  0.2053
  434MOL0     H59851  10.315   4.992  10.206 -2.0919 -0.7106 -0.2878
  434MOL0     H59852  10.346   4.847  10.291  1.0341  0.9287 -1.0614
  434MOL0     H59853  10.365   5.011  10.365 -0.1067  0.6180  0.1600
  434MOL0     H59854  10.370   4.673  10.784  0.8453 -1.5778 -0.2092
  434MOL0     H59855  10.571   4.630  10.904  1.3312  2.3694  1.4036
  434MOL0     H59856  10.765   4.545  10.994  1.9364 -0.0908  1.0089
  434MOL0     H59857  10.783   4.450  10.853 -3.4648  0.2383  1.8276
  434MOL0     H59858  11.000   4.399  10.961  1.7522  0.0406 -0.0010
  434MOL0     H59859  11.050   4.516  10.846 -0.4510  2.4244  0.6490
  434MOL0     H59860  11.140   4.545  11.070 -0.5798 -1.5180  2.6376
  434MOL0     H59861  10.974   4.543  11.129 -2.1007 -2.2136 -1.6591
  434MOL0     H59862  10.938   4.764  11.009  0.4929 -0.4408 -2.4233
  434MOL0     H59863  11.084   4.736  10.915 -3.4538  1.6485 -1.1196
  434MOL0     H59864  11.082   4.924  11.080 -2.3404 -0.5194  0.7333
  434MOL0     H59865  11.080   4.801  11.215 -0.7738  2.1592 -0.2666
  434MOL0     H59866  11.282   4.809  10.993 -0.8508 -2.9751  0.6627
  434MOL0     H59867  11.284   4.720  11.135  1.4532 -1.3895 -2.6227
  434MOL0     H59868  11.273   4.957  11.263  0.9339 -1.0338  0.1412
  434MOL0     H59869  11.286   5.030  11.103 -1.5128 -0.5906 -1.5229
  434MOL0     H59870  11.509   5.044  11.183  0.6273 -0.1282 -0.3011
  434MOL0     H59871  11.513   4.913  11.065  0.6490  0.8047 -0.1916
  434MOL0     H59872  10.799   4.769  10.563 -0.0815  1.6918  1.7914
  434MOL0     H59873  10.585   4.782  10.436  3.7450  0.7207  0.1127
  434MOL0     H59874   9.938   4.799  10.564 -0.9569 -0.1724 -0.9764
  434MOL0     H59875   9.791   4.931  10.435 -0.3868  2.7827  1.4544
  434MOL0     H59876   9.764   6.753   9.152 -2.7178  1.0551 -1.5271
  434MOL0     H59877   9.899   6.862   8.968 -0.9852 -0.1261 -0.1084
  434MOL0     H59878  10.195   6.775   8.633 -0.6511 -1.6751 -0.2083
  434MOL0     H59879  10.332   6.846   8.427 -0.1290 -1.0056  1.9375
  434MOL0     H59880  10.392   7.028   8.103 -2.3241 -1.0822 -1.4905
  434MOL0     H59881  10.403   7.033   8.289  0.5907 -0.8358  0.0543
  434MOL0     H59882  10.422   6.769   8.243  0.0876 -0.9175 -1.2342
  434MOL0     H59883  10.565   6.870   8.212  1.8878 -1.8926 -3.6369
  434MOL0     H59884  10.351   6.812   8.021  0.6515  3.4587 -2.6747
  434MOL0     H59885  10.497   6.889   7.969 -1.1034  1.9262  0.4004
  434MOL0     H59886  10.487   6.634   7.915 -2.4876 -1.2146  1.1826
  434MOL0     H59887  10.490   6.600   8.086 -2.0485 -0.8092 -1.5695
  434MOL0     H59888  10.892   6.630   7.957 -0.5224 -2.5318 -0.3626
  434MOL0     H59889  10.001   7.006   8.232 -1.7839 -0.3234  0.2829
  434MOL0     H59890   9.777   7.024   8.336 -1.5071 -0.1014  0.5522
  434MOL0     H59891   9.742   6.866   8.412  0.8812 -2.1808  0.1896
  434MOL0     H59892   9.774   7.013   8.507  0.6395  2.0433 -1.1541
  435MOL0     O59893   1.507  10.750   8.805  0.2953 -0.0433 -0.2186
  435MOL0     C59894   1.489  10.633   8.790  0.2889 -0.6390  0.3893
  435MOL0     O59895   1.570  10.535   8.846  0.5106  0.4706  0.6556
  435MOL0     C59896   1.660  10.579   8.943 -0.2861 -0.2276  0.1389
  435MOL0     C59897   1.633  10.560   9.079 -0.4193  0.1436  0.1063
  435MOL0     C59898   1.719  10.599   9.188 -0.0176  0.2390  1.0083
  435MOL0     C59899   1.838  10.661   9.154  0.2110 -0.3131  0.4914
  435MOL0     O59900   1.909  10.692   9.260 -0.8645 -0.4358 -1.1115
  435MOL0     C59901   2.017  10.793   9.252 -0.0816  0.4711 -0.0545
  435MOL0     C59902   2.109  10.769   9.374  0.0630 -0.0773  0.3648
  435MOL0     C59903   2.176  10.639   9.363 -0.1615  0.1293 -0.4565
  435MOL0     C59904   2.278  10.619   9.481  0.3911  0.2497  0.8367
  435MOL0     C59905   2.353  10.493   9.458  0.3974 -0.2240  0.4270
  435MOL0     C59906   2.472  10.494   9.555  0.5717  0.0520 -0.2705
  435MOL0     C59907   2.554  10.363   9.534 -0.9364 -0.6033  0.3890
  435MOL0     C59908   2.652  10.355   9.650 -0.5447 -0.4482 -0.6686
  435MOL0     N59909   2.688  10.212   9.675  0.0842  0.0984 -1.7015
  435MOL0     C59910   2.611  10.126   9.742  0.0269 -0.2039  0.1860
  435MOL0     C59911   2.677  10.008   9.734 -0.4265 -0.0451  0.0565
  435MOL0     C59912   2.636   9.879   9.812  0.1116 -0.1744  0.5924
  435MOL0     C59913   2.708   9.877   9.953  0.0941 -0.7918  0.0404
  435MOL0     C59914   2.858   9.835   9.939  0.6953 -0.0053  0.5175
  435MOL0     C59915   2.922   9.834  10.076 -0.0455  0.0395 -0.5433
  435MOL0     O59916   2.925   9.961  10.147 -0.5072 -0.5300 -0.3410
  435MOL0     C59917   3.019   9.966  10.248  0.5231 -0.3689  0.8720
  435MOL0     C59918   3.160   9.960  10.231  0.2794 -0.0979 -0.2629
  435MOL0     C59919   3.244   9.969  10.337  0.1113 -0.2232 -0.3623
  435MOL0     C59920   3.386  10.004  10.312  0.2850  0.9307 -0.7577
  435MOL0     C59921   3.195   9.952  10.469 -0.1369 -0.5604 -0.5622
  435MOL0     C59922   3.278   9.974  10.590 -0.8711  0.0630  0.8529
  435MOL0     O59923   3.403   9.916  10.585 -0.1403  0.0399 -1.0810
  435MOL0     C59924   3.478   9.944  10.697  0.2197  0.4809  0.6659
  435MOL0     C59925   3.533  10.066  10.703 -0.1802  0.1541 -1.3534
  435MOL0     C59926   3.621  10.081  10.814  0.7524 -0.7580  0.8277
  435MOL0     C59927   3.655   9.973  10.895 -0.4172  0.8494 -0.5046
  435MOL0     O59928   3.758  10.005  10.985 -0.4509  1.0494 -0.1659
  435MOL0     C59929   3.723   9.981  11.122  0.2869  0.6288  1.1399
  435MOL0     C59930   3.828  10.017  11.230  0.0471 -0.0911  0.3953
  435MOL0     C59931   3.957   9.934  11.220 -0.9365  0.7372 -0.1761
  435MOL0     C59932   4.065  10.000  11.307 -0.0160 -0.4302  0.6981
  435MOL0     C59933   4.193   9.921  11.295 -0.7086 -0.1907 -0.8285
  435MOL0     C59934   4.286   9.968  11.184 -0.3263  0.2721 -0.3281
  435MOL0     C59935   4.381   9.852  11.141 -0.1937  0.6628  0.8545
  435MOL0     C59936   4.488   9.828  11.245  0.5890  0.3369  0.9869
  435MOL0    Cl59937   4.583   9.971  11.295 -0.1779 -0.4617  0.3561
  435MOL0     C59938   3.588   9.841  10.883 -0.1688  0.3892 -0.3221
  435MOL0     C59939   3.505   9.834  10.776  0.5451  0.0035  0.6248
  435MOL0     O59940   3.240  10.050  10.678 -0.3023  0.7189 -0.6928
  435MOL0     C59941   3.057   9.945  10.487 -0.4245 -0.6237  0.7070
  435MOL0     C59942   2.968   9.966  10.378 -0.9176 -0.1115 -0.0728
  435MOL0     N59943   2.793  10.029   9.657  0.9182  0.3267  0.1068
  435MOL0     N59944   2.790  10.150   9.609  0.2082 -0.0313  0.6764
  435MOL0     C59945   1.867  10.687   9.015 -0.0042  0.7232  0.2786
  435MOL0     C59946   1.791  10.623   8.918 -0.5357  0.5139 -0.4390
  435MOL0     C59947   1.389  10.600   8.683 -1.1278  0.8915  0.2048
  435MOL0     C59948   1.418  10.483   8.603  0.5208  0.1322 -0.4308
  435MOL0     C59949   1.335  10.448   8.499 -0.5144 -0.1999  0.3301
  435MOL0     C59950   1.215  10.509   8.480  0.2170 -0.3567 -0.3915
  435MOL0     O59951   1.136  10.478   8.374  0.6226 -0.1302  0.3941
  435MOL0     C59952   1.151  10.350   8.299  0.4474  0.5147 -0.1131
  435MOL0     C59953   1.021  10.294   8.245  0.1924 -0.2272 -0.1730
  435MOL0     C59954   0.951  10.391   8.147  0.5383 -0.8588  0.3002
  435MOL0     C59955   0.825  10.345   8.075  0.1126  0.1693  1.0333
  435MOL0     C59956   0.838  10.213   8.016  0.1477  0.7667 -0.2709
  435MOL0     C59957   0.850  10.096   7.978 -0.4080 -1.0024  0.0878
  435MOL0     C59958   1.185  10.615   8.563 -0.1701  0.0793  0.3141
  435MOL0     C59959   1.270  10.669   8.655 -0.2196  0.8100 -1.2358
  435MOL0     C59960   1.211  10.774   8.739  0.1586 -0.5085  0.8792
  435MOL0     H59961   1.537  10.519   9.111  1.7623 -3.5101  2.7021
  435MOL0     H59962   1.687  10.575   9.288  2.1657 -3.0538  1.0978
  435MOL0     H59963   1.984  10.897   9.262 -0.9182  0.6175 -3.1708
  435MOL0     H59964   2.074  10.782   9.159 -3.4336  1.2525 -2.3826
  435MOL0     H59965   2.177  10.855   9.375  1.3223 -1.0573  0.7121
  435MOL0     H59966   2.046  10.763   9.463 -0.3784  3.8471  0.4918
  435MOL0     H59967   2.102  10.558   9.371  1.1015 -0.9327  1.0661
  435MOL0     H59968   2.227  10.624   9.267  0.5067 -0.2719 -0.0432
  435MOL0     H59969   2.345  10.705   9.474  0.0012  0.4280 -1.8109
  435MOL0     H59970   2.224  10.612   9.575 -0.6718 -3.6934  0.1369
  435MOL0     H59971   2.388  10.490   9.355 -0.8244  2.0513 -0.1289
  435MOL0     H59972   2.283  10.409   9.466  2.0781 -1.9669 -1.7401
  435MOL0     H59973   2.524  10.586   9.528  1.4112 -0.8568 -1.9085
  435MOL0     H59974   2.431  10.502   9.656 -1.1892  4.2304 -1.1006
  435MOL0     H59975   2.611  10.372   9.440 -2.4084  1.8483 -0.3579
  435MOL0     H59976   2.485  10.279   9.537 -0.8419 -0.7919  5.4201
  435MOL0     H59977   2.745  10.405   9.622  1.4379 -1.2452  3.7164
  435MOL0     H59978   2.623  10.411   9.740 -1.1798 -1.2435 -0.3716
  435MOL0     H59979   2.518  10.149   9.793  0.3202  4.4503 -0.9162
  435MOL0     H59980   2.672   9.800   9.745  1.7495  0.1653  1.0240
  435MOL0     H59981   2.528   9.865   9.819  0.3698 -1.5005  2.7903
  435MOL0     H59982   2.690   9.976   9.996 -0.4646  0.7611 -3.4904
  435MOL0     H59983   2.653   9.803  10.013 -0.2989 -2.3189 -2.1037
  435MOL0     H59984   2.863   9.735   9.894 -3.5858 -0.1092 -0.2099
  435MOL0     H59985   2.912   9.908   9.879  1.5077  0.4651  1.7726
  435MOL0     H59986   2.877   9.764  10.146 -1.7038  4.2305  3.0795
  435MOL0     H59987   3.024   9.801  10.057  0.9694  2.7881 -0.3965
  435MOL0     H59988   3.197   9.951  10.130  2.5416 -4.8518  0.7357
  435MOL0     H59989   3.439   9.909  10.323 -1.3931  0.0138 -0.2316
  435MOL0     H59990   3.427  10.088  10.367  2.2785  0.3250 -1.2346
  435MOL0     H59991   3.405  10.025  10.206  1.9866 -2.9750 -1.4093
  435MOL0     H59992   3.504  10.150  10.640 -1.2061  0.9985  0.1712
  435MOL0     H59993   3.672  10.177  10.824  1.0936 -0.6889 -1.2782
  435MOL0     H59994   3.640  10.048  11.147  2.5182  3.6154  1.1410
  435MOL0     H59995   3.687   9.878  11.133  0.6337  0.3294 -0.3338
  435MOL0     H59996   3.847  10.125  11.227 -1.7936  0.2494 -0.8369
  435MOL0     H59997   3.776  10.002  11.326 -0.3227  3.8503  0.9808
  435MOL0     H59998   3.987   9.930  11.114  0.3283 -0.3952  0.1806
  435MOL0     H59999   3.932   9.832  11.252  1.4056  0.6387  1.6546
  435MOL0     H60000   4.034   9.985  11.410  0.2088 -4.1222  0.3371
  435MOL0     H60001   4.073  10.105  11.275  3.0635 -0.1964  1.9349
  435MOL0     H60002   4.242   9.920  11.393 -1.0752 -4.4049 -0.4770
  435MOL0     H60003   4.162   9.817  11.281 -0.5110 -0.4014  0.2480
  435MOL0     H60004   4.335  10.060  11.217  0.3760  0.4531 -1.8145
  435MOL0     H60005   4.226  10.004  11.100  1.0348  0.7557 -1.1131
  435MOL0     H60006   4.432   9.870  11.045 -2.4696 -0.8863 -0.7674
  435MOL0     H60007   4.321   9.762  11.124  0.5240  0.2705  0.3249
  435MOL0     H60008   4.547   9.750  11.195  0.3333  2.0008 -2.2252
  435MOL0     H60009   4.438   9.779  11.329 -1.7848  0.7448 -0.1066
  435MOL0     H60010   3.613   9.760  10.952  0.3164  0.2586 -0.6417
  435MOL0     H60011   3.451   9.740  10.771  1.1231 -0.4316  1.9266
  435MOL0     H60012   3.025   9.940  10.591 -0.1417  2.1390  1.0038
  435MOL0     H60013   2.862   9.951  10.398 -1.0299 -0.9923 -1.2361
  435MOL0     H60014   1.954  10.735   8.972  0.1338 -0.7330 -1.1694
  435MOL0     H60015   1.818  10.628   8.813 -0.3132 -4.9381 -0.9229
  435MOL0     H60016   1.521  10.454   8.618  1.2885  2.7749 -0.0367
  435MOL0     H60017   1.365  10.372   8.428 -0.9007  0.2608 -0.3291
  435MOL0     H60018   1.219  10.355   8.213  1.1720  2.4336  0.5154
  435MOL0     H60019   1.194  10.276   8.367 -0.4731  0.2445  0.1823
  435MOL0     H60020   0.955  10.264   8.327 -1.4026  2.0683 -0.5390
  435MOL0     H60021   1.036  10.200   8.190 -0.3553  0.5623 -1.7381
  435MOL0     H60022   0.922  10.480   8.204  2.5349 -0.9790  1.6021
  435MOL0     H60023   1.030  10.431   8.082  1.9299 -2.9784  0.6060
  435MOL0     H60024   0.813  10.409   7.987 -1.4148  0.9875  1.8058
  435MOL0     H60025   0.741  10.354   8.143 -1.8556 -3.2033 -0.6593
  435MOL0     H60026   0.857   9.995   7.943  1.0965 -0.8950  0.0081
  435MOL0     H60027   1.087  10.657   8.543 -0.9153 -1.7295 -0.0900
  435MOL0     H60028   1.157  10.735   8.826 -0.4929 -0.0620  0.6892
  435MOL0     H60029   1.284  10.845   8.779 -1.0998  0.8517  0.8541
  435MOL0     H60030   1.138  10.836   8.685  0.0540 -1.0321  0.4115
  436MOL0     O60031   7.619   0.359   7.642  0.3612 -0.1317  0.2131
  436MOL0     C60032   7.613   0.306   7.531  0.6559  0.7926  0.1333
  436MOL0     O60033   7.682   0.189   7.511  0.0576  0.5817  0.0715
  436MOL0     C60034   7.735   0.127   7.626  0.3747  0.9338 -0.5608
  436MOL0     C60035   7.650   0.052   7.712  0.0069  0.2932  0.8753
  436MOL0     C60036   7.709  -0.020   7.814  0.6092  0.4129 -0.1593
  436MOL0     C60037   7.850  -0.029   7.828 -0.2301 -0.1773 -0.7028
  436MOL0     O60038   7.928  -0.096   7.920  0.5167  0.0534  0.0724
  436MOL0     C60039   7.866  -0.137   8.038  0.3160  0.3590  0.0844
  436MOL0     C60040   7.979  -0.196   8.124 -0.3220 -0.1033  0.9040
  436MOL0     C60041   7.928  -0.239   8.263 -0.3717 -0.2414 -0.6749
  436MOL0     C60042   8.040  -0.308   8.349  0.5534 -0.4345  0.2786
  436MOL0     C60043   8.118  -0.191   8.421 -0.1214  0.1233  0.1352
  436MOL0     C60044   8.233  -0.243   8.501 -0.2303 -0.7785 -0.6663
  436MOL0     C60045   8.282  -0.155   8.619  0.1067 -0.2492  0.9832
  436MOL0     C60046   8.362  -0.244   8.710  0.9788 -0.4420 -0.3690
  436MOL0     N60047   8.409  -0.165   8.824  0.1147 -1.0551 -0.3304
  436MOL0     C60048   8.333  -0.104   8.922  0.7776  0.1539  0.7163
  436MOL0     C60049   8.420  -0.054   9.011 -0.4527 -0.0963 -0.2092
  436MOL0     C60050   8.395   0.041   9.133  0.3235  1.2413  0.2922
  436MOL0     C60051   8.403  -0.030   9.271 -0.6447  0.1616 -0.6183
  436MOL0     C60052   8.507   0.048   9.363 -1.0424  0.1839  0.1147
  436MOL0     C60053   8.554  -0.046   9.479 -0.1308 -0.3468  0.0380
  436MOL0     O60054   8.538   0.025   9.604  0.3217  0.1760  0.5429
  436MOL0     C60055   8.638   0.086   9.666  1.6230 -0.6303  0.1591
  436MOL0     C60056   8.766   0.122   9.632 -1.0945  0.5043  0.0816
  436MOL0     C60057   8.863   0.200   9.693 -0.0364 -0.5495 -0.1958
  436MOL0     C60058   9.005   0.210   9.642  0.5038  0.0399  0.1148
  436MOL0     C60059   8.825   0.246   9.822  0.6481 -0.2243  0.2915
  436MOL0     C60060   8.905   0.321   9.915  0.7766 -0.4387  0.7185
  436MOL0     O60061   8.826   0.401  10.006  0.3362 -0.0146 -0.0137
  436MOL0     C60062   8.891   0.502  10.074  1.3694 -0.0421 -0.1489
  436MOL0     C60063   8.992   0.488  10.167 -0.0886  0.7433 -0.3119
  436MOL0     C60064   9.045   0.594  10.240  0.1978 -0.4886 -1.0011
  436MOL0     C60065   9.004   0.725  10.217 -0.3121  0.7975 -0.1990
  436MOL0     O60066   9.061   0.834  10.282 -0.3540  1.0345  0.3269
  436MOL0     C60067   9.175   0.808  10.366 -0.6982 -0.6059  0.4329
  436MOL0     C60068   9.203   0.950  10.417  0.1709 -0.4401  0.1951
  436MOL0     C60069   9.320   0.963  10.513  0.5577 -0.5714 -0.2231
  436MOL0     C60070   9.293   0.901  10.653 -0.0150 -0.1257 -0.0573
  436MOL0     C60071   9.414   0.895  10.736 -0.0867 -0.2915  0.0135
  436MOL0     C60072   9.378   0.807  10.853 -0.7257  0.5839  0.2592
  436MOL0     C60073   9.487   0.828  10.967  0.2280 -0.8629 -0.2594
  436MOL0     C60074   9.606   0.739  10.954  0.4387 -0.2486  0.6586
  436MOL0    Cl60075   9.550   0.564  10.958 -0.0501 -0.1576  0.0053
  436MOL0     C60076   8.899   0.740  10.126 -0.6073 -0.8936  0.5158
  436MOL0     C60077   8.842   0.634  10.059 -0.2022 -0.0415  0.0802
  436MOL0     O60078   9.019   0.291   9.928 -0.7265 -0.3393 -0.1542
  436MOL0     C60079   8.690   0.211   9.865  0.5162  0.0682  0.2549
  436MOL0     C60080   8.602   0.140   9.790 -0.3446  0.2540  0.2082
  436MOL0     N60081   8.552  -0.077   8.965  0.1070 -0.6277  0.8457
  436MOL0     N60082   8.544  -0.146   8.852  0.1781  0.4030 -0.0100
  436MOL0     C60083   7.933   0.050   7.749 -0.2231  0.7561 -0.1437
  436MOL0     C60084   7.876   0.131   7.649  0.8268 -0.6249 -0.2726
  436MOL0     C60085   7.520   0.379   7.433  0.8774  1.5213  0.2210
  436MOL0     C60086   7.506   0.518   7.446 -0.1700  0.8126 -0.0160
  436MOL0     C60087   7.430   0.595   7.355  0.9681  0.7061 -0.2008
  436MOL0     C60088   7.352   0.533   7.259 -0.6566 -0.1572 -0.9040
  436MOL0     O60089   7.268   0.591   7.169 -0.1881 -0.5318 -0.0254
  436MOL0     C60090   7.200   0.705   7.212 -0.4835 -0.1123  0.0560
  436MOL0     C60091   7.096   0.762   7.113  0.0359  0.1919  0.3738
  436MOL0     C60092   6.965   0.679   7.102  0.1130  0.2360 -0.4170
  436MOL0     C60093   6.884   0.761   7.003 -0.0878  0.6034 -0.0372
  436MOL0     C60094   6.764   0.687   6.963  1.0343 -0.9967  0.1211
  436MOL0     C60095   6.652   0.645   6.917 -0.1574 -0.0685 -0.2049
  436MOL0     C60096   7.351   0.390   7.252 -0.6568  0.9315  0.0151
  436MOL0     C60097   7.435   0.316   7.339 -0.4829 -0.2558 -0.8595
  436MOL0     C60098   7.451   0.172   7.313 -0.0520  0.4218  0.8075
  436MOL0     H60099   7.545   0.076   7.699 -0.8033 -2.1747  2.1830
  436MOL0     H60100   7.646  -0.090   7.869  1.7490 -2.9037 -2.7359
  436MOL0     H60101   7.792  -0.217   8.025 -3.2622  3.5289 -0.7180
  436MOL0     H60102   7.804  -0.059   8.083 -1.7171 -0.6639 -0.8389
  436MOL0     H60103   8.018  -0.282   8.069  4.6963  1.0524  2.2073
  436MOL0     H60104   8.057  -0.122   8.143 -0.8291  0.3097  1.4371
  436MOL0     H60105   7.875  -0.158   8.315  0.3315 -1.3053  1.8134
  436MOL0     H60106   7.859  -0.316   8.226 -0.5876 -0.7837  0.8035
  436MOL0     H60107   7.988  -0.368   8.425  0.6387 -0.4201  0.3476
  436MOL0     H60108   8.097  -0.364   8.274 -0.6771  1.0581 -1.8759
  436MOL0     H60109   8.045  -0.139   8.484  0.3445  0.7466  0.1655
  436MOL0     H60110   8.147  -0.114   8.349  0.3319 -0.6777 -0.5575
  436MOL0     H60111   8.187  -0.329   8.550 -1.7601 -0.5037 -1.5762
  436MOL0     H60112   8.310  -0.279   8.432  0.1201 -1.0190 -0.1589
  436MOL0     H60113   8.200  -0.105   8.671 -1.8767 -1.1840 -1.0704
  436MOL0     H60114   8.345  -0.074   8.582 -0.7410 -0.2464 -0.5284
  436MOL0     H60115   8.295  -0.317   8.756  0.7482 -0.3678 -0.5846
  436MOL0     H60116   8.438  -0.302   8.656 -1.6466 -3.7420 -0.8413
  436MOL0     H60117   8.228  -0.082   8.933  1.2525  2.8280  0.6202
  436MOL0     H60118   8.292   0.075   9.117 -1.1861 -2.6879  0.3653
  436MOL0     H60119   8.465   0.124   9.135  0.5503  1.0443  2.1746
  436MOL0     H60120   8.306  -0.033   9.321 -0.1115  0.5651  0.4895
  436MOL0     H60121   8.443  -0.131   9.261  2.8062  1.4137 -0.6865
  436MOL0     H60122   8.600   0.063   9.308 -1.6787 -0.3420 -1.1576
  436MOL0     H60123   8.462   0.139   9.404  0.1427  0.3706  1.0346
  436MOL0     H60124   8.493  -0.137   9.480 -0.1017 -0.4054 -1.5252
  436MOL0     H60125   8.659  -0.075   9.470  0.0785  0.4512 -0.2034
  436MOL0     H60126   8.815   0.079   9.545  0.9197  0.7534  1.0360
  436MOL0     H60127   9.010   0.162   9.544 -1.3440 -0.4537  0.2186
  436MOL0     H60128   9.076   0.172   9.715  1.9499  1.8166 -0.2994
  436MOL0     H60129   9.025   0.314   9.615 -1.6914  0.0482 -1.8308
  436MOL0     H60130   9.023   0.387  10.190 -2.0432  0.1507 -0.0994
  436MOL0     H60131   9.116   0.569  10.318 -0.4449 -2.9598 -1.1040
  436MOL0     H60132   9.151   0.736  10.444 -2.5245 -2.0512 -1.3563
  436MOL0     H60133   9.256   0.768  10.303  0.2158  1.7586  0.0044
  436MOL0     H60134   9.230   1.019  10.336 -0.9229  0.6743  0.7337
  436MOL0     H60135   9.119   0.989  10.475  0.0429 -2.2594  1.3100
  436MOL0     H60136   9.334   1.071  10.524  1.3951 -0.6382 -0.5350
  436MOL0     H60137   9.409   0.919  10.466 -0.0919 -0.1389 -1.9309
  436MOL0     H60138   9.256   0.800  10.635  0.8675 -1.4853  4.5596
  436MOL0     H60139   9.214   0.957  10.705  1.5160  2.0693  0.0568
  436MOL0     H60140   9.507   0.851  10.698  0.0029 -1.0647  1.0768
  436MOL0     H60141   9.432   0.997  10.770  0.1935 -0.4903  0.4778
  436MOL0     H60142   9.360   0.705  10.819  0.1147  0.8118 -0.9348
  436MOL0     H60143   9.276   0.818  10.890  0.0489  1.7149  2.3064
  436MOL0     H60144   9.428   0.802  11.054 -1.5406 -1.5068 -1.5990
  436MOL0     H60145   9.530   0.928  10.979  0.8898 -1.1363 -0.2851
  436MOL0     H60146   9.671   0.759  11.040  1.0567 -3.5795  1.1089
  436MOL0     H60147   9.646   0.787  10.865 -1.1388  0.0667  0.0879
  436MOL0     H60148   8.868   0.843  10.112 -0.0746 -0.5939  1.4428
  436MOL0     H60149   8.768   0.644   9.980  1.7957  1.7801 -1.7127
  436MOL0     H60150   8.665   0.256   9.960 -0.6169  0.7549 -0.3511
  436MOL0     H60151   8.502   0.119   9.827 -0.6311  1.1015 -0.0534
  436MOL0     H60152   8.039   0.049   7.770  0.3028 -2.9192 -2.1655
  436MOL0     H60153   7.939   0.197   7.590  3.2141  1.7280  4.3230
  436MOL0     H60154   7.572   0.566   7.517 -0.4354 -2.3826  2.6453
  436MOL0     H60155   7.420   0.702   7.366 -0.5980  0.6489 -0.8582
  436MOL0     H60156   7.139   0.682   7.300  1.2001 -4.4259  0.3809
  436MOL0     H60157   7.277   0.778   7.237 -0.3147 -0.0905 -0.5041
  436MOL0     H60158   7.149   0.762   7.018 -0.1939 -1.0477  0.2227
  436MOL0     H60159   7.081   0.867   7.139  0.2586  0.1495  0.6781
  436MOL0     H60160   6.973   0.575   7.070  0.7852  0.0403  0.3626
  436MOL0     H60161   6.903   0.680   7.192  1.3928  1.2056  0.4812
  436MOL0     H60162   6.938   0.773   6.909  0.6226 -0.1114  0.2660
  436MOL0     H60163   6.851   0.857   7.045 -1.6940  0.1433 -0.1896
  436MOL0     H60164   6.558   0.621   6.872  0.4922  1.9378 -2.8919
  436MOL0     H60165   7.307   0.348   7.162 -0.1447  4.2089 -1.9263
  436MOL0     H60166   7.558   0.147   7.309 -0.4888 -1.5008 -0.3518
  436MOL0     H60167   7.400   0.105   7.383  4.1229 -0.9215  2.8996
  436MOL0     H60168   7.427   0.155   7.208  1.7325  1.3203  0.2048
  437MOL0     O60169  10.207   9.737   1.068 -0.4245 -0.6697  0.3907
  437MOL0     C60170  10.088   9.728   1.088  0.7588 -0.5103  1.0324
  437MOL0     O60171  10.031   9.722   1.206 -0.4211  0.0141 -0.2168
  437MOL0     C60172  10.108   9.746   1.310  0.2510 -0.5496 -0.0755
  437MOL0     C60173  10.094   9.878   1.366 -0.5067 -0.3068  0.0306
  437MOL0     C60174  10.178   9.905   1.481  0.3542  0.4183 -0.0844
  437MOL0     C60175  10.269   9.819   1.532  0.0914  0.4229  0.0760
  437MOL0     O60176  10.358   9.868   1.628 -0.0588  0.2176 -0.2286
  437MOL0     C60177  10.477   9.785   1.672  0.4840 -0.7937 -0.4834
  437MOL0     C60178  10.566   9.890   1.736 -0.7438  0.7017 -0.7498
  437MOL0     C60179  10.698   9.831   1.785 -0.4394  0.4615 -0.1102
  437MOL0     C60180  10.672   9.739   1.904 -0.7508  0.4598  0.3249
  437MOL0     C60181  10.805   9.729   1.984 -0.1474 -0.3380  0.7237
  437MOL0     C60182  10.792   9.674   2.127 -0.0387  0.2972 -0.0887
  437MOL0     C60183  10.679   9.733   2.222 -0.2397  0.0212 -0.9028
  437MOL0     C60184  10.630   9.643   2.335 -0.2618 -0.4164  0.9293
  437MOL0     N60185  10.728   9.626   2.437 -0.2711 -0.2706 -1.1932
  437MOL0     C60186  10.775   9.727   2.518  0.1834 -0.2948  0.1843
  437MOL0     C60187  10.858   9.669   2.608 -0.3298 -0.7772  0.4032
  437MOL0     C60188  10.932   9.737   2.724 -0.5511  0.1518 -0.0315
  437MOL0     C60189  11.075   9.671   2.734  0.5048 -0.4181  0.6253
  437MOL0     C60190  11.180   9.750   2.817 -0.1072  1.0128 -0.0710
  437MOL0     C60191  11.324   9.705   2.772 -0.4675 -0.4649  0.1131
  437MOL0     O60192  11.343   9.572   2.812  0.3273  0.0794 -0.2178
  437MOL0     C60193  11.388   9.503   2.708  0.6617 -1.0614 -0.5953
  437MOL0     C60194  11.332   9.384   2.694 -0.1883  0.8220  0.0157
  437MOL0     C60195  11.374   9.287   2.595 -0.3805 -0.5787  0.4522
  437MOL0     C60196  11.288   9.163   2.590  0.5234  0.4326  0.3656
  437MOL0     C60197  11.493   9.310   2.524  0.3872  0.1184 -0.5490
  437MOL0     C60198  11.559   9.209   2.441 -0.2144 -0.5036 -0.2556
  437MOL0     O60199  11.693   9.241   2.410 -0.6665 -0.1475  0.0806
  437MOL0     C60200  11.762   9.167   2.318 -0.3970 -0.7712  0.4291
  437MOL0     C60201  11.710   9.133   2.194  0.3498  1.0624 -0.9386
  437MOL0     C60202  11.784   9.055   2.105  0.8096  0.1027 -0.3829
  437MOL0     C60203  11.914   9.018   2.130  0.1503  0.4380 -1.1214
  437MOL0     O60204  11.982   8.954   2.032 -0.7982  0.2418  0.5232
  437MOL0     C60205  12.122   8.978   2.019  1.6258 -0.2567  0.7024
  437MOL0     C60206  12.175   8.948   1.884 -0.4553 -0.4935 -0.3025
  437MOL0     C60207  12.168   8.803   1.849 -0.0879 -1.1218 -0.6879
  437MOL0     C60208  12.248   8.763   1.715  0.0300 -1.0129 -1.1923
  437MOL0     C60209  12.392   8.734   1.732 -0.3222 -0.0629  0.0206
  437MOL0     C60210  12.460   8.708   1.595 -0.0739  0.0435  0.0452
  437MOL0     C60211  12.412   8.577   1.529 -0.4585  0.0967 -0.0131
  437MOL0     C60212  12.492   8.542   1.400  0.5743  0.2057 -0.3613
  437MOL0    Cl60213  12.433   8.649   1.266 -0.1905  0.2930  0.1496
  437MOL0     C60214  11.970   9.058   2.257  0.8300  1.3744 -0.3585
  437MOL0     C60215  11.890   9.128   2.347  0.3377 -0.5995 -0.4977
  437MOL0     O60216  11.495   9.108   2.410 -0.0038 -0.4356 -0.0760
  437MOL0     C60217  11.554   9.438   2.543 -0.5680  0.5795 -0.7842
  437MOL0     C60218  11.514   9.525   2.646  0.2401 -0.0503 -1.0265
  437MOL0     N60219  10.875   9.538   2.567  0.4342 -0.0191  0.2708
  437MOL0     N60220  10.799   9.515   2.461  0.0846 -0.0833  0.6594
  437MOL0     C60221  10.273   9.679   1.480 -0.2350  0.3623 -0.1631
  437MOL0     C60222  10.188   9.647   1.370 -0.6846 -0.4180 -0.4973
  437MOL0     C60223   9.990   9.704   0.968  0.5025 -1.6033 -1.4629
  437MOL0     C60224  10.001   9.585   0.893  1.5074  0.3221 -0.9185
  437MOL0     C60225   9.903   9.562   0.791 -0.0038 -0.2205  0.4094
  437MOL0     C60226   9.803   9.657   0.765  0.4703  0.6284 -0.6731
  437MOL0     O60227   9.697   9.644   0.679  0.1529 -0.3339  0.3694
  437MOL0     C60228   9.639   9.515   0.650  0.2337  0.3550  1.2430
  437MOL0     C60229   9.544   9.523   0.528 -0.3132  0.4344  0.2848
  437MOL0     C60230   9.466   9.664   0.514 -0.0969  0.0738  0.3545
  437MOL0     C60231   9.341   9.638   0.428 -0.3025 -0.3305 -0.9590
  437MOL0     C60232   9.291   9.767   0.381  0.8539  0.4963 -0.3265
  437MOL0     C60233   9.244   9.869   0.349 -0.8775 -0.8053 -0.5208
  437MOL0     C60234   9.807   9.767   0.845  0.1598  0.7546  0.7603
  437MOL0     C60235   9.890   9.788   0.949  0.7852 -0.0331 -1.1567
  437MOL0     C60236   9.874   9.911   1.038  0.4362  0.7165  0.1208
  437MOL0     H60237  10.020   9.951   1.334 -2.0425  1.3231  6.0197
  437MOL0     H60238  10.195  10.009   1.510 -3.6786  1.2035  0.1127
  437MOL0     H60239  10.528   9.726   1.595  2.5226  1.0503 -0.6441
  437MOL0     H60240  10.437   9.718   1.749 -4.8987  2.8040  0.3927
  437MOL0     H60241  10.593   9.965   1.661 -1.1062  1.8083  0.1872
  437MOL0     H60242  10.533   9.948   1.823  3.0787  4.2551 -1.3433
  437MOL0     H60243  10.754   9.786   1.703  0.3333  1.7637 -0.3212
  437MOL0     H60244  10.757   9.917   1.817  0.3549 -0.6060  1.4827
  437MOL0     H60245  10.592   9.780   1.966 -0.0570  2.6974 -0.1666
  437MOL0     H60246  10.642   9.638   1.874  3.4709 -0.5923 -1.1152
  437MOL0     H60247  10.863   9.821   1.992  1.4794 -0.7978 -3.4087
  437MOL0     H60248  10.871   9.666   1.924  2.0480  1.8848  0.6824
  437MOL0     H60249  10.768   9.568   2.117 -2.7211  0.8759 -0.3767
  437MOL0     H60250  10.886   9.677   2.183 -1.7454  0.5644  2.9633
  437MOL0     H60251  10.585   9.759   2.174 -1.6158  0.9878  2.0830
  437MOL0     H60252  10.725   9.823   2.263  2.8553 -2.0666  0.6161
  437MOL0     H60253  10.531   9.677   2.366 -1.3477  1.0036 -3.3539
  437MOL0     H60254  10.614   9.541   2.297  0.1048 -0.3073  0.4679
  437MOL0     H60255  10.736   9.828   2.516  0.1621 -0.1676  2.9919
  437MOL0     H60256  10.883   9.710   2.818 -0.9877 -0.4814 -0.4300
  437MOL0     H60257  10.938   9.845   2.708  1.5077 -0.1179 -1.4726
  437MOL0     H60258  11.064   9.568   2.768  2.4349 -0.4073  1.4061
  437MOL0     H60259  11.100   9.671   2.628  1.0776 -1.8144  0.7489
  437MOL0     H60260  11.165   9.858   2.809 -1.0182  0.9097  0.0847
  437MOL0     H60261  11.164   9.722   2.922  1.2837  1.5619  0.3143
  437MOL0     H60262  11.341   9.727   2.666 -1.0834 -0.0520  0.0971
  437MOL0     H60263  11.403   9.760   2.824  0.2250 -0.1681 -1.2093
  437MOL0     H60264  11.252   9.362   2.765  0.0492  2.0410  0.6751
  437MOL0     H60265  11.188   9.176   2.632 -1.1454 -0.9386 -2.8598
  437MOL0     H60266  11.338   9.079   2.639 -2.1647 -1.1253  0.6128
  437MOL0     H60267  11.264   9.128   2.489  4.3870  1.8875 -1.2695
  437MOL0     H60268  11.603   9.150   2.180 -0.3852 -0.7485  1.7560
  437MOL0     H60269  11.741   9.017   2.013  0.4212  1.7300 -0.9066
  437MOL0     H60270  12.132   9.086   2.036 -0.8531 -0.2093  2.3995
  437MOL0     H60271  12.180   8.925   2.096 -0.1926 -0.2114  2.1729
  437MOL0     H60272  12.126   9.013   1.811 -0.9744 -1.2302 -0.6214
  437MOL0     H60273  12.279   8.979   1.896 -1.5270  2.8192  2.1017
  437MOL0     H60274  12.063   8.810   1.819 -0.0555  1.1137 -0.5075
  437MOL0     H60275  12.179   8.741   1.938 -1.0344  0.9119  0.9335
  437MOL0     H60276  12.249   8.847   1.645  1.7626  0.1694  0.1919
  437MOL0     H60277  12.194   8.674   1.680 -1.9569 -0.4156  0.1598
  437MOL0     H60278  12.444   8.824   1.768 -2.0333  0.4781  1.2717
  437MOL0     H60279  12.410   8.660   1.810 -1.7464  0.7236  1.1674
  437MOL0     H60280  12.568   8.701   1.611 -0.1258  0.5579  0.6238
  437MOL0     H60281  12.438   8.785   1.521  1.1483  1.4801  1.1302
  437MOL0     H60282  12.306   8.573   1.500  0.0099 -0.2220 -1.7809
  437MOL0     H60283  12.418   8.490   1.594 -4.3274  1.5843  2.7221
  437MOL0     H60284  12.466   8.438   1.379  0.9154  0.2827 -1.2071
  437MOL0     H60285  12.598   8.554   1.422  0.8328 -2.8439  0.4507
  437MOL0     H60286  12.065   9.019   2.293  0.1237 -1.8706 -1.5966
  437MOL0     H60287  11.919   9.147   2.450 -1.5466 -2.7846  0.5188
  437MOL0     H60288  11.646   9.457   2.487 -0.4023  0.0949 -0.6794
  437MOL0     H60289  11.570   9.608   2.687 -1.8592  0.3677  1.2790
  437MOL0     H60290  10.347   9.607   1.513 -0.9412 -0.0481  0.5733
  437MOL0     H60291  10.183   9.555   1.312 -4.1612  1.3339 -3.4066
  437MOL0     H60292  10.065   9.502   0.920 -0.6291 -1.9334 -2.3373
  437MOL0     H60293   9.901   9.481   0.719 -1.5818  1.1341 -1.1544
  437MOL0     H60294   9.717   9.442   0.629  2.2746  2.5349  0.7377
  437MOL0     H60295   9.591   9.482   0.742  0.5581 -1.3150  0.8391
  437MOL0     H60296   9.472   9.442   0.532  1.9398 -2.1131 -3.7264
  437MOL0     H60297   9.593   9.507   0.431 -2.2071 -3.0965 -0.2392
  437MOL0     H60298   9.433   9.696   0.613 -2.8844 -0.1514 -0.4127
  437MOL0     H60299   9.528   9.740   0.465  0.5335 -0.8857 -0.3573
  437MOL0     H60300   9.264   9.578   0.478 -0.7550 -0.1479 -1.4237
  437MOL0     H60301   9.359   9.577   0.339  0.2166 -0.4723 -0.7583
  437MOL0     H60302   9.217   9.972   0.336 -0.8649 -0.8381 -0.8175
  437MOL0     H60303   9.732   9.837   0.811 -1.3527 -0.9993  0.3858
  437MOL0     H60304   9.825   9.885   1.133  0.5199  4.3366  1.3021
  437MOL0     H60305   9.973   9.946   1.067  0.1448  0.2263  1.8185
  437MOL0     H60306   9.811   9.984   0.987  0.5571  1.1334  0.5586
  438MOL0     O60307  11.326   2.338   0.165 -0.0158 -0.2048 -0.4072
  438MOL0     C60308  11.251   2.267   0.109  0.8542  0.2399 -0.3552
  438MOL0     O60309  11.138   2.215   0.150  0.3663  0.2411 -0.5661
  438MOL0     C60310  11.095   2.224   0.281 -0.0300 -1.0455  0.4211
  438MOL0     C60311  11.011   2.332   0.308  0.0837 -0.0216 -0.7164
  438MOL0     C60312  10.969   2.347   0.440 -0.4621  0.1436 -0.1955
  438MOL0     C60313  11.020   2.271   0.540 -0.6991  0.6331 -0.3702
  438MOL0     O60314  10.968   2.278   0.670 -0.3350  0.5310  0.4220
  438MOL0     C60315  10.829   2.276   0.694  0.0250 -0.0465  0.7782
  438MOL0     C60316  10.775   2.416   0.709  0.6254  0.4274 -0.6813
  438MOL0     C60317  10.865   2.502   0.800 -0.4923  0.5268  0.4044
  438MOL0     C60318  10.792   2.627   0.837  1.1296 -0.3467 -0.4298
  438MOL0     C60319  10.864   2.719   0.924 -0.9284 -0.1793 -0.1319
  438MOL0     C60320  10.821   2.868   0.923 -0.6628  0.8169 -0.4134
  438MOL0     C60321  10.863   2.933   1.054  0.9718 -0.7884  0.0302
  438MOL0     C60322  10.989   3.015   1.022  0.3090 -0.3563  0.3631
  438MOL0     N60323  11.022   3.100   1.140 -0.0713 -0.2095 -0.0660
  438MOL0     C60324  11.123   3.081   1.233 -0.0726  0.4824 -0.7704
  438MOL0     C60325  11.137   3.193   1.305  0.9607 -0.3833 -1.0488
  438MOL0     C60326  11.253   3.210   1.404 -0.1105  0.5121  0.5956
  438MOL0     C60327  11.384   3.285   1.367  0.2633  0.3573 -0.3731
  438MOL0     C60328  11.480   3.293   1.492  0.0044  0.0403  0.2670
  438MOL0     C60329  11.626   3.338   1.462 -0.0274 -0.5124 -0.5561
  438MOL0     O60330  11.709   3.278   1.564 -0.2764  0.2944  0.3790
  438MOL0     C60331  11.845   3.296   1.562 -0.0573 -0.0897 -0.3181
  438MOL0     C60332  11.901   3.414   1.536  0.2556 -0.4425 -0.1449
  438MOL0     C60333  12.035   3.430   1.502  0.1671  0.1955 -0.6608
  438MOL0     C60334  12.072   3.565   1.467  0.6858 -0.4859  0.0679
  438MOL0     C60335  12.120   3.320   1.501 -0.0680  0.5956 -0.4017
  438MOL0     C60336  12.263   3.319   1.468 -0.1994 -0.2223 -0.2204
  438MOL0     O60337  12.314   3.200   1.434 -0.3697 -0.6799 -0.4784
  438MOL0     C60338  12.439   3.193   1.369  0.4294  0.4000  0.2804
  438MOL0     C60339  12.431   3.171   1.234 -0.3008  0.2318  0.3913
  438MOL0     C60340  12.550   3.143   1.158  0.1246  0.0008 -1.0656
  438MOL0     C60341  12.678   3.151   1.213 -0.8388  0.0333 -0.0760
  438MOL0     O60342  12.796   3.119   1.148  0.2373 -0.3785  0.3905
  438MOL0     C60343  12.798   3.071   1.009 -0.7241 -0.6393 -0.8459
  438MOL0     C60344  12.801   3.209   0.942  0.4207 -0.4842 -0.6976
  438MOL0     C60345  12.932   3.299   0.960 -0.4247  0.3307 -0.2322
  438MOL0     C60346  12.974   3.393   0.843 -0.1512  0.1758 -0.4562
  438MOL0     C60347  13.125   3.443   0.847  0.3424 -0.4611 -0.6264
  438MOL0     C60348  13.134   3.549   0.741 -0.1428 -0.1129  0.2081
  438MOL0     C60349  13.272   3.617   0.765  0.4436 -0.3814  0.1474
  438MOL0     C60350  13.308   3.717   0.659  0.2747 -0.6455  0.5290
  438MOL0    Cl60351  13.260   3.670   0.488 -0.1652 -0.0267  0.3360
  438MOL0     C60352  12.686   3.179   1.349  0.4187  0.0924 -0.3708
  438MOL0     C60353  12.570   3.203   1.421 -0.3741 -0.3850 -0.3596
  438MOL0     O60354  12.330   3.423   1.471 -0.3253  0.7233  0.4571
  438MOL0     C60355  12.055   3.191   1.518  0.1333 -0.1511 -0.8882
  438MOL0     C60356  11.921   3.178   1.562 -0.4916 -0.2228  0.3543
  438MOL0     N60357  11.040   3.278   1.254  0.4629  0.4826 -0.2803
  438MOL0     N60358  10.979   3.226   1.156  0.1064  1.0094 -0.1536
  438MOL0     C60359  11.114   2.177   0.515 -0.1695  0.4217 -0.1441
  438MOL0     C60360  11.156   2.151   0.387  0.0915 -0.3101  1.3405
  438MOL0     C60361  11.276   2.235  -0.036  0.1872  0.4521 -0.4160
  438MOL0     C60362  11.273   2.106  -0.074  0.4585  0.5228  0.5393
  438MOL0     C60363  11.292   2.061  -0.205  0.8094 -0.6500  0.1605
  438MOL0     C60364  11.314   2.153  -0.309  0.6029  0.2894  0.0736
  438MOL0     O60365  11.332   2.098  -0.436 -0.1734 -0.4110  0.0613
  438MOL0     C60366  11.294   2.180  -0.544  0.4026  0.4392  1.3523
  438MOL0     C60367  11.315   2.128  -0.688  0.2129  0.6464 -1.1136
  438MOL0     C60368  11.444   2.173  -0.759 -0.1864  0.3469 -0.3918
  438MOL0     C60369  11.456   2.091  -0.896 -0.5501  0.4436 -0.2601
  438MOL0     C60370  11.577   2.123  -0.977 -0.5234 -0.4057  0.2870
  438MOL0     C60371  11.663   2.146  -1.064  0.2700  0.0276  0.3915
  438MOL0     C60372  11.323   2.289  -0.268  0.1893  0.9006  0.7047
  438MOL0     C60373  11.309   2.324  -0.135  0.0330 -0.0789  0.6551
  438MOL0     C60374  11.299   2.471  -0.117  0.2762  0.1751 -0.5074
  438MOL0     H60375  10.965   2.386   0.227 -2.7063 -0.9048  0.1487
  438MOL0     H60376  10.896   2.425   0.461  0.3901  1.1236 -0.8214
  438MOL0     H60377  10.808   2.222   0.787  3.3853 -3.6163 -0.2735
  438MOL0     H60378  10.780   2.221   0.613 -0.1490  1.1790  0.0280
  438MOL0     H60379  10.768   2.462   0.610  1.5464  4.9326  1.1129
  438MOL0     H60380  10.679   2.410   0.760  0.3904  3.5096 -0.6038
  438MOL0     H60381  10.896   2.450   0.891 -0.1332 -1.8436 -1.0069
  438MOL0     H60382  10.951   2.521   0.735 -0.1502 -0.7547  0.4680
  438MOL0     H60383  10.769   2.678   0.743 -2.0064  2.7765  1.7748
  438MOL0     H60384  10.696   2.599   0.880  1.4379  1.8395  1.9158
  438MOL0     H60385  10.970   2.713   0.898 -0.8034 -2.4744  0.6226
  438MOL0     H60386  10.868   2.673   1.023  2.0870  0.0864 -0.0469
  438MOL0     H60387  10.862   2.912   0.832  0.9709  2.7681  1.1806
  438MOL0     H60388  10.712   2.873   0.914 -0.9801 -0.1543  2.1234
  438MOL0     H60389  10.882   2.868   1.140 -0.1153 -2.0163 -0.6235
  438MOL0     H60390  10.794   3.014   1.079  1.3202  0.2134 -2.0334
  438MOL0     H60391  11.072   2.950   0.994  1.4200  1.2175 -0.1724
  438MOL0     H60392  10.975   3.084   0.938 -0.2362 -0.0895  0.6682
  438MOL0     H60393  11.180   2.990   1.250  0.9465  0.4717 -3.5807
  438MOL0     H60394  11.265   3.112   1.451 -2.9622 -1.4850 -2.3808
  438MOL0     H60395  11.213   3.270   1.486  1.7180  3.5130 -0.5139
  438MOL0     H60396  11.421   3.225   1.284 -4.1824 -3.4403 -0.0378
  438MOL0     H60397  11.370   3.392   1.350  3.8641  0.8644 -0.8634
  438MOL0     H60398  11.423   3.364   1.553 -0.5107  0.5668 -0.8028
  438MOL0     H60399  11.490   3.200   1.549  2.2443  0.6039  0.8942
  438MOL0     H60400  11.654   3.293   1.367  0.8872  2.1431 -1.6511
  438MOL0     H60401  11.639   3.447   1.463  0.3649 -0.5445  1.2020
  438MOL0     H60402  11.833   3.499   1.543 -0.4824 -1.0715  0.5142
  438MOL0     H60403  12.178   3.589   1.478  0.0647  3.3330 -0.8208
  438MOL0     H60404  12.017   3.627   1.538 -0.0681  1.0892 -1.8000
  438MOL0     H60405  12.047   3.589   1.363  1.8550 -1.7860 -0.5402
  438MOL0     H60406  12.335   3.156   1.186  0.3260 -0.5437 -0.6922
  438MOL0     H60407  12.542   3.112   1.055 -1.8407  0.5624 -1.1181
  438MOL0     H60408  12.886   3.010   0.987  2.6245  2.8565  1.5647
  438MOL0     H60409  12.709   3.013   0.984 -0.3126 -1.9453  0.5924
  438MOL0     H60410  12.776   3.189   0.837  1.2039  1.1018 -1.2393
  438MOL0     H60411  12.721   3.268   0.987  0.8011 -1.7022  1.7308
  438MOL0     H60412  13.016   3.233   0.986 -0.2030 -0.8464 -3.4359
  438MOL0     H60413  12.930   3.363   1.049 -2.8316 -1.5014  1.1503
  438MOL0     H60414  12.909   3.482   0.845  1.2530  1.2610 -1.3100
  438MOL0     H60415  12.964   3.342   0.747  1.5307 -1.1558  0.0333
  438MOL0     H60416  13.147   3.483   0.946  4.5205 -0.5190 -1.3506
  438MOL0     H60417  13.201   3.365   0.834  1.0335  0.5594 -3.1493
  438MOL0     H60418  13.060   3.628   0.758 -2.2278 -2.1112  0.9529
  438MOL0     H60419  13.122   3.503   0.643  2.5850  0.2882 -0.3784
  438MOL0     H60420  13.353   3.544   0.775  2.1578  1.3100 -0.7811
  438MOL0     H60421  13.274   3.665   0.864 -1.8945 -1.3308  0.7135
  438MOL0     H60422  13.416   3.730   0.656  0.5357 -2.3422 -2.7622
  438MOL0     H60423  13.267   3.816   0.683  1.3783 -0.2139  0.6864
  438MOL0     H60424  12.785   3.184   1.391  0.3875 -1.7057  0.0295
  438MOL0     H60425  12.585   3.232   1.524  0.6325  0.0631 -0.6228
  438MOL0     H60426  12.113   3.100   1.508 -0.0212 -0.4161  0.4924
  438MOL0     H60427  11.870   3.084   1.574  0.6229 -0.8143  0.6062
  438MOL0     H60428  11.159   2.111   0.589  1.0977  2.8647  1.4304
  438MOL0     H60429  11.238   2.083   0.370 -0.4535 -0.1684 -2.9134
  438MOL0     H60430  11.253   2.032   0.002 -0.8839  1.8191  1.5277
  438MOL0     H60431  11.301   1.954  -0.221 -0.3346 -0.7475  0.1213
  438MOL0     H60432  11.188   2.205  -0.529  0.9577  2.7152  1.8800
  438MOL0     H60433  11.347   2.275  -0.534  0.2252  0.5143  1.5909
  438MOL0     H60434  11.221   2.149  -0.740 -1.5937  0.3251  1.7784
  438MOL0     H60435  11.316   2.019  -0.685  3.2059  0.5089  3.8157
  438MOL0     H60436  11.447   2.281  -0.774 -0.6707  0.2810 -1.0361
  438MOL0     H60437  11.522   2.152  -0.686  0.3500 -0.5164 -1.1934
  438MOL0     H60438  11.369   2.117  -0.958 -0.8690 -0.4349 -0.1965
  438MOL0     H60439  11.458   1.983  -0.879  0.3975  0.4988  0.0181
  438MOL0     H60440  11.731   2.174  -1.142 -0.6250 -0.0694 -0.4393
  438MOL0     H60441  11.351   2.355  -0.350 -1.3113 -0.9063 -1.3843
  438MOL0     H60442  11.304   2.522  -0.214  3.3987 -1.2585 -1.2326
  438MOL0     H60443  11.203   2.495  -0.071  0.9247 -0.3670  1.1866
  438MOL0     H60444  11.374   2.506  -0.046 -0.8602  0.6661  0.4807
  439MOL0     O60445  10.234  10.372  11.285  0.2341  0.1618  0.3210
  439MOL0     C60446  10.337  10.411  11.222 -0.5816 -0.2389 -0.9292
  439MOL0     O60447  10.377  10.379  11.096  0.0845 -0.0551 -0.4686
  439MOL0     C60448  10.287  10.305  11.014 -0.2053 -0.1583 -0.5264
  439MOL0     C60449  10.144  10.314  11.013  0.2646 -0.3785 -0.4897
  439MOL0     C60450  10.074  10.227  10.921  0.2486  0.2388  0.1627
  439MOL0     C60451  10.141  10.137  10.841  0.9414 -0.1196  1.4203
  439MOL0     O60452  10.067  10.041  10.775  0.0994  0.8856  0.2999
  439MOL0     C60453  10.132   9.947  10.681 -0.9612 -0.7529 -0.1323
  439MOL0     C60454  10.017   9.896  10.600  0.0585 -0.0977 -0.2701
  439MOL0     C60455  10.046   9.779  10.502  0.2092 -0.1019 -0.2963
  439MOL0     C60456  10.127   9.662  10.565  0.0114  0.4970  0.0637
  439MOL0     C60457  10.155   9.546  10.464  0.1112  0.0460  0.3124
  439MOL0     C60458  10.036   9.439  10.474 -0.2228  0.5109  0.2537
  439MOL0     C60459  10.034   9.350  10.356 -0.1477 -0.4216  0.2590
  439MOL0     C60460   9.922   9.244  10.372  0.3113  0.5983 -0.3531
  439MOL0     N60461   9.952   9.148  10.468  0.2093  1.0005 -0.7372
  439MOL0     C60462  10.023   9.032  10.443 -0.0397  0.2364  0.0476
  439MOL0     C60463  10.035   8.968  10.564 -0.1188  0.1724  0.3016
  439MOL0     C60464  10.091   8.829  10.580 -0.9764 -0.6883 -0.7770
  439MOL0     C60465   9.994   8.732  10.629  0.5134 -0.0344 -0.0371
  439MOL0     C60466  10.029   8.585  10.609 -1.1978 -1.0544  0.6112
  439MOL0     C60467   9.916   8.498  10.641  0.1282 -0.4933 -0.9958
  439MOL0     O60468   9.903   8.484  10.780 -0.0458 -0.0716  0.2732
  439MOL0     C60469   9.797   8.408  10.823 -0.1971 -0.8335 -0.7032
  439MOL0     C60470   9.705   8.340  10.741 -0.4467 -0.3942 -1.0233
  439MOL0     C60471   9.586   8.285  10.793 -0.0957 -0.4284  0.4375
  439MOL0     C60472   9.495   8.217  10.693 -0.0330 -0.0378  0.1772
  439MOL0     C60473   9.558   8.300  10.923  0.6573  0.9895  0.1777
  439MOL0     C60474   9.431   8.250  10.989 -0.1325 -0.0404 -0.0500
  439MOL0     O60475   9.411   8.292  11.122  0.0533 -0.0356 -0.1955
  439MOL0     C60476   9.292   8.271  11.193 -0.6620 -0.6634 -0.7765
  439MOL0     C60477   9.200   8.169  11.184 -0.1801  0.7510 -0.9698
  439MOL0     C60478   9.098   8.142  11.281  0.0146  0.1497  0.0608
  439MOL0     C60479   9.089   8.221  11.396 -0.7860 -0.7338 -0.3087
  439MOL0     O60480   9.001   8.197  11.501  0.5562  0.3400  0.2530
  439MOL0     C60481   8.895   8.287  11.528 -0.4010 -0.4528  0.0847
  439MOL0     C60482   8.801   8.227  11.633 -0.6771  0.4907  0.3474
  439MOL0     C60483   8.714   8.340  11.689  0.6568  0.3199  0.2277
  439MOL0     C60484   8.683   8.315  11.829  0.0735 -0.4897  0.0801
  439MOL0     C60485   8.581   8.419  11.881  0.5451  0.1642  0.9784
  439MOL0     C60486   8.523   8.360  12.008 -0.5038 -1.0133 -0.3785
  439MOL0     C60487   8.427   8.463  12.077  0.6526  0.2631 -0.1537
  439MOL0     C60488   8.282   8.458  12.026  1.4233  0.0536 -0.7756
  439MOL0    Cl60489   8.253   8.528  11.867 -0.0199 -0.3822 -0.1302
  439MOL0     C60490   9.183   8.329  11.407 -0.3396 -0.4508  0.6283
  439MOL0     C60491   9.277   8.357  11.310  0.9190  0.4328  0.2258
  439MOL0     O60492   9.350   8.181  10.935 -0.3961  0.1145  0.5306
  439MOL0     C60493   9.650   8.363  11.001  0.5277 -0.2170  0.2339
  439MOL0     C60494   9.768   8.424  10.950  0.4633 -0.0866 -0.7138
  439MOL0     N60495   9.987   9.055  10.662  0.4933 -0.3768 -0.1472
  439MOL0     N60496   9.937   9.162  10.602 -0.0658  0.9918 -0.1557
  439MOL0     C60497  10.276  10.132  10.843  0.0516 -0.0091 -0.3847
  439MOL0     C60498  10.348  10.218  10.929 -0.5083 -0.1215 -0.3649
  439MOL0     C60499  10.415  10.520  11.300 -0.4491  0.7184  0.4752
  439MOL0     C60500  10.504  10.600  11.226  1.0508 -0.0409  0.3449
  439MOL0     C60501  10.563  10.703  11.282 -0.3832 -0.1888 -0.2821
  439MOL0     C60502  10.551  10.732  11.420  0.7128 -0.3320  0.4207
  439MOL0     O60503  10.622  10.845  11.451 -0.3008 -0.5098 -0.3213
  439MOL0     C60504  10.614  10.892  11.578  0.2103  0.5035  0.1063
  439MOL0     C60505  10.485  10.970  11.605  0.0006  0.6668 -1.3054
  439MOL0     C60506  10.491  11.107  11.540  0.7648 -0.4589 -0.1423
  439MOL0     C60507  10.370  11.129  11.444 -0.3073 -0.0206  0.0654
  439MOL0     C60508  10.243  11.115  11.523  0.2709 -0.0202  0.2966
  439MOL0     C60509  10.139  11.110  11.579 -0.4943 -0.3843  0.0861
  439MOL0     C60510  10.486  10.640  11.502  0.1675 -0.3935 -1.0969
  439MOL0     C60511  10.416  10.537  11.439  0.4282 -0.0477  0.2958
  439MOL0     C60512  10.345  10.449  11.539  0.1890 -0.6849 -0.2981
  439MOL0     H60513  10.084  10.376  11.078  0.6684 -0.4028 -0.0958
  439MOL0     H60514   9.966  10.222  10.919  0.0257  3.2772 -0.9991
  439MOL0     H60515  10.185   9.862  10.725  3.0327  0.5803 -1.8444
  439MOL0     H60516  10.207   9.998  10.620  1.2934 -1.6671  1.7321
  439MOL0     H60517   9.946   9.862  10.676 -0.7996 -0.6139 -1.2772
  439MOL0     H60518   9.968   9.982  10.552 -0.1941  0.4122  0.8748
  439MOL0     H60519   9.949   9.748  10.461  0.2954  0.3217 -0.8187
  439MOL0     H60520  10.101   9.817  10.416  2.8015 -2.1998  0.2847
  439MOL0     H60521  10.226   9.703  10.589 -0.3458 -0.1500  3.1496
  439MOL0     H60522  10.078   9.628  10.657  1.3646 -2.1871 -0.1025
  439MOL0     H60523  10.246   9.486  10.473 -1.8129 -3.0075  1.0496
  439MOL0     H60524  10.146   9.586  10.363 -2.4733  0.1615  0.5184
  439MOL0     H60525  10.053   9.391  10.571  2.4808  0.2706 -0.2607
  439MOL0     H60526   9.938   9.485  10.488 -1.6131 -1.9021 -0.8801
  439MOL0     H60527  10.127   9.294  10.340  0.6067  0.7486  0.3938
  439MOL0     H60528  10.025   9.400  10.259 -1.3394 -2.1335 -0.5424
  439MOL0     H60529   9.827   9.299  10.377  0.7660  1.8635 -3.5665
  439MOL0     H60530   9.904   9.189  10.279 -3.6058  2.3785 -0.8553
  439MOL0     H60531  10.058   8.998  10.346  0.2332  0.3609  0.1029
  439MOL0     H60532  10.169   8.826  10.656 -2.3510 -0.5948  0.7006
  439MOL0     H60533  10.153   8.806  10.493  2.8823 -2.6515  2.2070
  439MOL0     H60534   9.984   8.758  10.735 -0.9455  0.1098 -0.1854
  439MOL0     H60535   9.894   8.752  10.589  0.1288 -0.6261  0.5900
  439MOL0     H60536  10.077   8.562  10.513  1.9987  1.2519  1.4928
  439MOL0     H60537  10.115   8.566  10.673  0.5158  0.3435 -1.1567
  439MOL0     H60538   9.820   8.522  10.595 -1.4457 -3.3416  0.4954
  439MOL0     H60539   9.937   8.410  10.580 -2.0347 -0.1447 -2.3680
  439MOL0     H60540   9.730   8.325  10.636  1.8235 -0.8617 -0.4621
  439MOL0     H60541   9.540   8.206  10.594 -1.0122 -0.9020 -0.1984
  439MOL0     H60542   9.401   8.273  10.687  0.7071  1.5742  2.3666
  439MOL0     H60543   9.478   8.113  10.724  0.7839 -0.8237 -1.8578
  439MOL0     H60544   9.219   8.094  11.108 -0.0266 -0.5007  0.2515
  439MOL0     H60545   9.040   8.051  11.278 -1.0324  0.8326 -1.2503
  439MOL0     H60546   8.935   8.383  11.563  1.0086 -0.4701 -1.3333
  439MOL0     H60547   8.830   8.300  11.441 -1.9562  2.7069  1.5791
  439MOL0     H60548   8.736   8.159  11.577  1.5357 -1.0178 -0.5882
  439MOL0     H60549   8.861   8.168  11.704  3.1926  1.6394 -1.6927
  439MOL0     H60550   8.621   8.352  11.632 -0.4261  2.7238  2.3073
  439MOL0     H60551   8.760   8.439  11.681 -0.3372  0.8372  0.6970
  439MOL0     H60552   8.770   8.334  11.892 -0.6358 -2.1498  1.6633
  439MOL0     H60553   8.655   8.210  11.845  0.8167 -0.6741  0.2377
  439MOL0     H60554   8.627   8.518  11.894  0.6295  0.1244  0.9879
  439MOL0     H60555   8.505   8.431  11.803 -0.6443  1.6244  2.3071
  439MOL0     H60556   8.604   8.329  12.074 -1.4663 -1.5749  0.5678
  439MOL0     H60557   8.459   8.272  11.994 -1.6420 -0.3360  0.4384
  439MOL0     H60558   8.462   8.566  12.091  4.2674 -0.7636 -0.6076
  439MOL0     H60559   8.436   8.424  12.179 -0.5173 -1.1197 -0.5559
  439MOL0     H60560   8.218   8.521  12.088  1.9018  2.5868 -2.6901
  439MOL0     H60561   8.247   8.355  12.018 -1.6634  1.0328 -1.4098
  439MOL0     H60562   9.187   8.381  11.503  0.1777  0.6276  0.0416
  439MOL0     H60563   9.345   8.441  11.323 -1.8016  2.8036  0.0834
  439MOL0     H60564   9.628   8.373  11.106 -2.7878 -0.5576 -0.3259
  439MOL0     H60565   9.839   8.475  11.014  0.5254 -2.2162  0.9994
  439MOL0     H60566  10.325  10.071  10.767  0.7142 -1.0881  0.8781
  439MOL0     H60567  10.455  10.225  10.916 -0.4465 -0.2554  0.0768
  439MOL0     H60568  10.506  10.602  11.117  0.7456  1.0832  0.3415
  439MOL0     H60569  10.612  10.769  11.211  0.2653 -0.8076 -0.4229
  439MOL0     H60570  10.605  10.809  11.649 -1.5870  1.0072  0.5152
  439MOL0     H60571  10.702  10.953  11.600  0.2449  0.7003 -0.5504
  439MOL0     H60572  10.472  10.991  11.711 -4.8619 -1.8030 -1.1262
  439MOL0     H60573  10.398  10.909  11.580 -0.6876  1.1479 -0.1422
  439MOL0     H60574  10.503  11.185  11.617  1.4123  0.1732 -0.8724
  439MOL0     H60575  10.575  11.120  11.472  0.7250 -0.5050 -0.2007
  439MOL0     H60576  10.368  11.042  11.376 -0.4443 -2.3926  2.9175
  439MOL0     H60577  10.379  11.230  11.403 -1.6432  0.5342  1.0949
  439MOL0     H60578  10.041  11.101  11.619 -1.0010 -2.6690 -1.4750
  439MOL0     H60579  10.476  10.644  11.610 -1.8174  0.3287 -1.2668
  439MOL0     H60580  10.393  10.462  11.637  1.6665  0.1332 -1.0864
  439MOL0     H60581  10.242  10.483  11.549  0.9245  1.8677 -0.5398
  439MOL0     H60582  10.358  10.346  11.505 -0.3341 -1.0129  0.4607
  440MOL0     O60583   5.237  10.894   8.101  0.2645 -0.4776 -0.1313
  440MOL0     C60584   5.141  10.873   8.174 -0.1484  1.2766  0.3340
  440MOL0     O60585   5.074  10.965   8.241  0.9195  0.7798  0.0001
  440MOL0     C60586   5.126  11.089   8.248  0.3226 -0.5340 -0.7170
  440MOL0     C60587   5.205  11.137   8.355 -0.2027  0.2815  0.6073
  440MOL0     C60588   5.254  11.270   8.361  0.5721  0.9250 -0.4327
  440MOL0     C60589   5.220  11.354   8.257  0.0340 -0.6909 -0.2658
  440MOL0     O60590   5.259  11.483   8.250 -0.1712 -0.2634  0.5766
  440MOL0     C60591   5.388  11.517   8.296 -0.5574 -0.2252 -0.4139
  440MOL0     C60592   5.424  11.666   8.268  0.0567 -0.0324  0.3091
  440MOL0     C60593   5.557  11.705   8.339 -1.0779 -0.1842 -0.7039
  440MOL0     C60594   5.670  11.717   8.233 -1.0272 -0.0362 -0.8351
  440MOL0     C60595   5.803  11.747   8.304 -0.1971 -0.3865  0.2437
  440MOL0     C60596   5.860  11.628   8.382  0.5854 -1.1239  0.4796
  440MOL0     C60597   5.920  11.523   8.292 -1.5307  0.4433  0.0331
  440MOL0     C60598   5.983  11.407   8.373 -0.4320 -0.4160  0.4763
  440MOL0     N60599   6.048  11.301   8.300 -0.0055  0.2571  1.1133
  440MOL0     C60600   6.037  11.166   8.324  0.1249 -0.0338  0.4851
  440MOL0     C60601   6.133  11.105   8.238  0.7973 -0.8016  0.0340
  440MOL0     C60602   6.164  10.957   8.215 -0.6054 -0.3286 -0.1828
  440MOL0     C60603   6.251  10.910   8.335 -0.3443 -0.3001  0.4835
  440MOL0     C60604   6.272  10.756   8.353  0.7878 -0.4242 -0.6871
  440MOL0     C60605   6.142  10.695   8.397  0.5328  0.7767 -1.1011
  440MOL0     O60606   6.166  10.604   8.513 -0.1435  0.1805 -0.8476
  440MOL0     C60607   6.053  10.579   8.593 -0.9144 -0.2278  0.0864
  440MOL0     C60608   6.072  10.512   8.714  0.4607  0.5189  0.1047
  440MOL0     C60609   5.962  10.478   8.797  0.0430  0.2034  0.0410
  440MOL0     C60610   5.996  10.394   8.926  0.2659 -0.2283 -0.2816
  440MOL0     C60611   5.830  10.512   8.760 -0.8150 -0.2200 -0.1577
  440MOL0     C60612   5.707  10.490   8.841  0.3085  0.3921 -0.0160
  440MOL0     O60613   5.720  10.451   8.968  0.2885  0.2021 -0.0578
  440MOL0     C60614   5.620  10.447   9.062  0.8286  0.0489 -0.1403
  440MOL0     C60615   5.482  10.465   9.040  1.0373  0.1269  0.8203
  440MOL0     C60616   5.404  10.429   9.151  0.9883 -0.1751  0.0108
  440MOL0     C60617   5.448  10.415   9.282  0.2858 -0.0088  0.3169
  440MOL0     O60618   5.363  10.391   9.393 -0.9061 -0.6119 -0.0675
  440MOL0     C60619   5.220  10.412   9.362 -0.0350 -0.5162 -0.3080
  440MOL0     C60620   5.155  10.283   9.309  0.6924  0.0671  0.6236
  440MOL0     C60621   5.006  10.285   9.318  0.1564 -0.3595 -0.2657
  440MOL0     C60622   4.924  10.176   9.245  0.3444 -0.7379 -0.2616
  440MOL0     C60623   4.783  10.173   9.285  0.3568 -0.2181 -0.6715
  440MOL0     C60624   4.705  10.063   9.226  0.8027  0.1521 -1.2860
  440MOL0     C60625   4.668  10.091   9.075 -0.0310  1.3254  0.3075
  440MOL0     C60626   4.572   9.989   9.013 -0.0307  0.9719  0.2735
  440MOL0    Cl60627   4.571  10.023   8.832 -0.0872 -0.0262  0.0054
  440MOL0     C60628   5.586  10.400   9.301 -0.0464 -0.1402 -0.1747
  440MOL0     C60629   5.670  10.418   9.191 -0.6338 -0.4551  0.6973
  440MOL0     O60630   5.605  10.507   8.787 -0.2589  0.5863  0.1989
  440MOL0     C60631   5.821  10.581   8.640 -0.4295 -0.0973  0.2276
  440MOL0     C60632   5.928  10.624   8.560  0.0342 -0.2712  0.8394
  440MOL0     N60633   6.182  11.211   8.158 -0.0588 -0.5391  0.1465
  440MOL0     N60634   6.136  11.325   8.200  0.0711 -0.4843 -0.2055
  440MOL0     C60635   5.143  11.310   8.153 -0.5800 -0.2182 -0.1913
  440MOL0     C60636   5.092  11.181   8.149 -0.4863  0.0490  0.0394
  440MOL0     C60637   5.096  10.728   8.168  0.0949  0.1807 -0.6099
  440MOL0     C60638   5.182  10.629   8.123  0.4249  0.4500 -0.4427
  440MOL0     C60639   5.150  10.498   8.112  0.3933 -0.3564  0.6156
  440MOL0     C60640   5.030  10.460   8.165 -0.5329  0.3761 -0.1441
  440MOL0     O60641   5.008  10.325   8.182 -0.1291 -0.0222  1.0425
  440MOL0     C60642   4.871  10.273   8.189 -0.7310 -0.3408  0.1650
  440MOL0     C60643   4.870  10.119   8.189  0.6130  0.2401 -0.3920
  440MOL0     C60644   4.974  10.071   8.305  0.8161  0.3033  0.2621
  440MOL0     C60645   4.940  10.126   8.447 -0.6272 -0.0087 -0.4746
  440MOL0     C60646   4.824  10.050   8.506 -0.4956 -0.3903  0.2453
  440MOL0     C60647   4.724   9.992   8.546 -0.6990  0.2849  0.5894
  440MOL0     C60648   4.934  10.554   8.205 -0.1848  0.9555  0.0884
  440MOL0     C60649   4.965  10.691   8.213  0.5592 -0.3361  0.2611
  440MOL0     C60650   4.857  10.784   8.256 -0.3039 -0.5112  0.1962
  440MOL0     H60651   5.234  11.082   8.444  4.0028  0.7450 -0.2453
  440MOL0     H60652   5.312  11.314   8.441  0.8966  0.3942 -0.3782
  440MOL0     H60653   5.467  11.456   8.251  1.3903  2.4371 -0.7976
  440MOL0     H60654   5.388  11.503   8.405 -3.7030  1.4841 -0.0957
  440MOL0     H60655   5.447  11.688   8.163  4.4034 -2.3765  0.5367
  440MOL0     H60656   5.348  11.727   8.317 -0.8451 -1.9115  1.3538
  440MOL0     H60657   5.544  11.804   8.383  1.4808 -0.5632  1.0688
  440MOL0     H60658   5.576  11.630   8.416  3.5346 -0.0943 -1.4613
  440MOL0     H60659   5.685  11.622   8.181 -0.1571 -0.4135  0.0658
  440MOL0     H60660   5.650  11.794   8.158  0.9616 -1.4893 -2.9922
  440MOL0     H60661   5.796  11.840   8.361  0.4944 -0.5479  0.6029
  440MOL0     H60662   5.871  11.779   8.224 -0.7942 -1.3041 -0.6564
  440MOL0     H60663   5.941  11.661   8.448 -0.6037 -1.5724  2.2526
  440MOL0     H60664   5.783  11.597   8.454 -0.1431 -2.0656 -0.6676
  440MOL0     H60665   5.998  11.564   8.227  0.4007 -0.0164  1.9611
  440MOL0     H60666   5.849  11.473   8.225 -1.0988 -1.2833  0.7984
  440MOL0     H60667   6.063  11.451   8.434  0.9063 -0.8337 -0.8975
  440MOL0     H60668   5.922  11.353   8.446  1.2678 -2.5281  0.4241
  440MOL0     H60669   5.979  11.119   8.403  0.7371 -0.7635  0.5068
  440MOL0     H60670   6.224  10.939   8.125  1.4818 -1.1682  1.3093
  440MOL0     H60671   6.077  10.891   8.211 -1.8572  1.1746  0.9251
  440MOL0     H60672   6.348  10.952   8.310 -0.2089  0.6300  2.4168
  440MOL0     H60673   6.222  10.948   8.434  3.0297 -2.7159  2.6109
  440MOL0     H60674   6.295  10.711   8.256  1.2865  2.9676 -2.2926
  440MOL0     H60675   6.342  10.726   8.432 -0.1328  0.5058  0.5238
  440MOL0     H60676   6.076  10.776   8.427 -1.3032 -1.1982  0.5317
  440MOL0     H60677   6.084  10.644   8.318 -1.7075 -0.8731  1.4174
  440MOL0     H60678   6.168  10.464   8.735 -0.6987 -4.5312 -4.0159
  440MOL0     H60679   5.968  10.292   8.901  1.2742 -0.3489 -1.0080
  440MOL0     H60680   5.957  10.438   9.018  0.8436  2.2457 -1.1150
  440MOL0     H60681   6.105  10.394   8.940  0.3820  2.3653 -0.5511
  440MOL0     H60682   5.433  10.498   8.949  1.1683  2.7610  1.6370
  440MOL0     H60683   5.299  10.408   9.132  1.4654 -1.3954 -1.4590
  440MOL0     H60684   5.163  10.432   9.453 -2.5856  2.2288 -2.3222
  440MOL0     H60685   5.200  10.500   9.301  1.5686 -1.5802 -2.4901
  440MOL0     H60686   5.155  10.271   9.200 -1.7826  0.7349  0.5022
  440MOL0     H60687   5.197  10.191   9.352  0.5179 -0.5997 -0.5823
  440MOL0     H60688   4.969  10.382   9.281 -0.6730 -0.8621 -0.7851
  440MOL0     H60689   4.980  10.284   9.425 -0.8068  4.2700 -0.2146
  440MOL0     H60690   4.979  10.082   9.257  1.6802  0.0613  0.1176
  440MOL0     H60691   4.921  10.203   9.139  2.0556  4.2686  0.7138
  440MOL0     H60692   4.781  10.146   9.391 -3.6122  1.4603 -0.1243
  440MOL0     H60693   4.722  10.264   9.279 -1.8074 -1.5002  0.4627
  440MOL0     H60694   4.618  10.042   9.288  2.2673 -0.0210  0.8244
  440MOL0     H60695   4.773   9.979   9.240  0.2803  0.1447  1.9745
  440MOL0     H60696   4.765  10.092   9.023  0.2487  3.4757  0.7693
  440MOL0     H60697   4.619  10.188   9.067 -0.5145  0.9417 -2.2155
  440MOL0     H60698   4.471   9.995   9.055 -0.8088  0.9401 -1.4933
  440MOL0     H60699   4.615   9.890   9.029 -0.2884  0.9244  0.6740
  440MOL0     H60700   5.616  10.372   9.402 -3.4740  0.9560  1.3056
  440MOL0     H60701   5.774  10.389   9.194 -0.8017 -1.0062  1.6192
  440MOL0     H60702   5.721  10.614   8.611 -0.9975 -2.0321 -0.1712
  440MOL0     H60703   5.898  10.679   8.471 -2.7643  1.3832  2.6606
  440MOL0     H60704   5.113  11.381   8.077  0.7260  1.5445  0.8554
  440MOL0     H60705   5.038  11.146   8.061 -1.2224  0.5027  0.3064
  440MOL0     H60706   5.287  10.651   8.108  0.7463  0.7125  1.7589
  440MOL0     H60707   5.223  10.423   8.084  0.2443 -0.5404  0.7219
  440MOL0     H60708   4.808  10.318   8.266 -0.4603 -0.0893  0.2403
  440MOL0     H60709   4.819  10.308   8.099 -1.0575  0.2076  0.5620
  440MOL0     H60710   4.905  10.082   8.093  2.8552  1.6778 -0.2164
  440MOL0     H60711   4.769  10.078   8.198  0.3504  0.5984 -1.5361
  440MOL0     H60712   4.972   9.962   8.312  0.7127  0.3235  0.5702
  440MOL0     H60713   5.069  10.105   8.262  1.0145  0.3754  0.7547
  440MOL0     H60714   4.924  10.233   8.439  0.7014  0.3665  1.2160
  440MOL0     H60715   5.026  10.107   8.512 -0.2444  1.4685 -0.5221
  440MOL0     H60716   4.635   9.945   8.583 -1.7997  1.3957 -0.5320
  440MOL0     H60717   4.840  10.522   8.249  0.3307 -0.5199  0.1717
  440MOL0     H60718   4.875  10.827   8.354  0.4536 -1.2317  0.3866
  440MOL0     H60719   4.855  10.873   8.193  0.2959  0.7707  1.9056
  440MOL0     H60720   4.760  10.735   8.261 -0.8376  0.6610  2.8541
  441MOL0     O60721   6.247   3.898   4.455 -0.8437  1.4929 -0.1886
  441MOL0     C60722   6.151   3.960   4.502 -0.1294  0.7656 -0.3150
  441MOL0     O60723   6.025   3.918   4.500 -0.4089  0.1673 -0.3239
  441MOL0     C60724   5.995   3.808   4.421  0.5192  0.1254  0.1131
  441MOL0     C60725   6.016   3.810   4.288  0.2674 -0.5467  0.3668
  441MOL0     C60726   5.994   3.704   4.208 -0.4582  0.4664 -0.3436
  441MOL0     C60727   5.943   3.581   4.270 -0.9941  0.1557  0.7413
  441MOL0     O60728   5.913   3.467   4.198  0.1620  0.7537 -0.6733
  441MOL0     C60729   5.987   3.452   4.071 -0.5753  0.6239 -0.3907
  441MOL0     C60730   5.959   3.305   4.021 -0.2502 -0.2781 -0.9540
  441MOL0     C60731   6.069   3.270   3.919  0.4265  0.4450  0.1242
  441MOL0     C60732   6.034   3.134   3.845  1.2681 -0.6650  0.1138
  441MOL0     C60733   6.103   3.120   3.705 -0.8785  0.6149  0.5000
  441MOL0     C60734   6.074   2.983   3.649 -0.1918  0.0946  0.6632
  441MOL0     C60735   6.095   2.973   3.498 -0.4200 -0.6224  0.6423
  441MOL0     C60736   6.241   2.988   3.450  0.0402 -1.1094 -0.1872
  441MOL0     N60737   6.337   2.877   3.476  0.7549  0.0451 -0.5356
  441MOL0     C60738   6.342   2.752   3.418  0.4249  0.5605  0.9646
  441MOL0     C60739   6.442   2.693   3.475 -0.2935  0.5920 -0.3312
  441MOL0     C60740   6.487   2.554   3.445 -0.0960 -0.2294 -0.6592
  441MOL0     C60741   6.584   2.546   3.328  0.2932 -1.8580  0.1381
  441MOL0     C60742   6.618   2.395   3.313 -0.5747  0.5289  0.6098
  441MOL0     C60743   6.691   2.390   3.175 -0.6146 -0.1337 -0.5803
  441MOL0     O60744   6.772   2.275   3.161  0.3643 -0.2129 -0.0164
  441MOL0     C60745   6.709   2.152   3.136 -0.0456  0.9239 -0.5052
  441MOL0     C60746   6.607   2.134   3.036 -0.2922 -0.4748 -0.6441
  441MOL0     C60747   6.546   2.006   3.013  0.2582  0.1378  0.4017
  441MOL0     C60748   6.448   1.991   2.896 -0.7097 -0.7263  0.2539
  441MOL0     C60749   6.599   1.899   3.081 -0.0145  0.5605  0.2884
  441MOL0     C60750   6.560   1.761   3.061 -0.1032 -0.3737 -0.2369
  441MOL0     O60751   6.561   1.682   3.171  0.3137  0.3857  0.1405
  441MOL0     C60752   6.488   1.563   3.169  0.6185 -0.4251  0.0639
  441MOL0     C60753   6.548   1.437   3.185 -0.2526 -1.1268  0.0714
  441MOL0     C60754   6.465   1.327   3.189 -0.0954  0.7793 -0.7692
  441MOL0     C60755   6.330   1.343   3.179 -0.9510 -0.1610  1.0363
  441MOL0     O60756   6.277   1.218   3.188 -0.9281  0.0830  0.5478
  441MOL0     C60757   6.151   1.189   3.142  0.1860  0.2867 -0.3647
  441MOL0     C60758   6.161   1.040   3.119 -0.1050 -0.6922 -0.0715
  441MOL0     C60759   6.030   0.973   3.078  0.8379  0.2586 -0.1911
  441MOL0     C60760   5.948   0.929   3.203 -0.5161  0.2157  0.1708
  441MOL0     C60761   5.834   0.836   3.153  0.2167  0.1956  0.1196
  441MOL0     C60762   5.724   0.836   3.265 -0.3376 -1.2151  0.2828
  441MOL0     C60763   5.590   0.783   3.219  0.8304 -0.1630 -0.5818
  441MOL0     C60764   5.476   0.818   3.310  0.6182  0.0929 -2.1891
  441MOL0    Cl60765   5.312   0.763   3.242 -0.1913 -0.0490 -0.2272
  441MOL0     C60766   6.268   1.467   3.163  0.4291 -0.8871  0.6014
  441MOL0     C60767   6.346   1.582   3.157 -1.3594 -0.4584 -0.1390
  441MOL0     O60768   6.552   1.720   2.946  0.5296 -0.3872  0.2517
  441MOL0     C60769   6.708   1.911   3.175  0.2812  0.5496  0.7746
  441MOL0     C60770   6.761   2.039   3.200 -0.3794  0.2273 -0.3433
  441MOL0     N60771   6.489   2.772   3.579 -0.6867 -0.6619  0.6182
  441MOL0     N60772   6.426   2.887   3.581  0.2137  0.2612  0.2818
  441MOL0     C60773   5.918   3.578   4.405  0.0423  0.1018 -0.4774
  441MOL0     C60774   5.945   3.696   4.481  0.5571  0.0662  0.3450
  441MOL0     C60775   6.179   4.092   4.562 -0.3676 -0.5470 -0.7765
  441MOL0     C60776   6.075   4.135   4.646  0.3207 -0.6296  0.8439
  441MOL0     C60777   6.082   4.261   4.705  0.3458 -0.4760 -0.7430
  441MOL0     C60778   6.183   4.349   4.684  0.0456 -0.1491  0.3367
  441MOL0     O60779   6.183   4.474   4.733 -0.0520 -0.1495 -0.1718
  441MOL0     C60780   6.127   4.505   4.862 -0.2988  0.1711 -0.1725
  441MOL0     C60781   5.998   4.587   4.854 -0.7620 -0.5372  0.0840
  441MOL0     C60782   5.931   4.585   5.001 -0.5171  0.1418  0.4898
  441MOL0     C60783   5.853   4.464   5.018  0.1418 -0.0436 -0.9700
  441MOL0     C60784   5.786   4.459   5.147  0.5646 -0.3744  0.2480
  441MOL0     C60785   5.729   4.446   5.252 -0.7110 -0.2724 -0.6836
  441MOL0     C60786   6.293   4.290   4.622 -0.0881 -0.0481 -0.2674
  441MOL0     C60787   6.301   4.165   4.559  0.0629 -0.6030 -0.7204
  441MOL0     C60788   6.426   4.141   4.473  0.6473 -0.0949  0.3683
  441MOL0     H60789   6.063   3.896   4.241  1.4594 -1.3912 -0.0599
  441MOL0     H60790   6.001   3.721   4.101  2.2553  1.3220 -0.1039
  441MOL0     H60791   6.093   3.478   4.071  0.6668 -3.4325 -3.0879
  441MOL0     H60792   5.944   3.526   4.004 -1.3180 -0.9115 -1.6829
  441MOL0     H60793   5.966   3.233   4.103  3.7393  0.4566 -0.4343
  441MOL0     H60794   5.858   3.304   3.980 -0.3141 -1.1496 -0.7750
  441MOL0     H60795   6.089   3.349   3.846  2.9086 -0.3800 -0.2034
  441MOL0     H60796   6.167   3.248   3.963 -0.3970 -1.6687  1.0655
  441MOL0     H60797   6.065   3.060   3.920 -0.5699  1.2024  2.8876
  441MOL0     H60798   5.925   3.124   3.838  0.7962  2.8510  0.6846
  441MOL0     H60799   6.212   3.122   3.714 -0.7664 -1.7087  0.4625
  441MOL0     H60800   6.062   3.205   3.650  1.6357  2.4398  1.2441
  441MOL0     H60801   6.123   2.902   3.704 -2.3992 -1.0383  1.0760
  441MOL0     H60802   5.967   2.967   3.663 -0.3675  0.6462  0.0352
  441MOL0     H60803   6.028   3.041   3.445  0.1248 -3.4056 -4.2948
  441MOL0     H60804   6.057   2.879   3.457 -0.5170 -0.1960 -0.2621
  441MOL0     H60805   6.227   3.007   3.343 -4.5412  1.1646  0.5722
  441MOL0     H60806   6.288   3.082   3.480  2.6107 -1.1533 -3.4594
  441MOL0     H60807   6.286   2.708   3.337  1.4519 -0.1263  0.6155
  441MOL0     H60808   6.402   2.489   3.427  1.2319 -1.7121 -1.8711
  441MOL0     H60809   6.536   2.507   3.531 -2.8853 -2.9695 -0.3870
  441MOL0     H60810   6.528   2.588   3.243  1.4305  1.9617  1.0492
  441MOL0     H60811   6.672   2.605   3.357 -0.0974  0.8105 -3.3874
  441MOL0     H60812   6.681   2.374   3.400  3.1300  3.9352 -0.9546
  441MOL0     H60813   6.526   2.336   3.308  1.0931 -2.0969 -1.0660
  441MOL0     H60814   6.611   2.387   3.100 -3.2874  1.9005  1.9529
  441MOL0     H60815   6.748   2.481   3.156 -0.2594 -0.0988  0.6006
  441MOL0     H60816   6.584   2.203   2.956 -3.2432 -1.9397 -1.1964
  441MOL0     H60817   6.357   1.940   2.928 -1.6668 -0.3808 -1.7825
  441MOL0     H60818   6.497   1.933   2.817 -1.3787  0.2254 -0.8884
  441MOL0     H60819   6.422   2.090   2.858 -0.1822 -0.5297  0.3897
  441MOL0     H60820   6.656   1.425   3.187 -0.2933 -1.5908 -0.3427
  441MOL0     H60821   6.511   1.230   3.200 -1.5024  0.0289 -1.2954
  441MOL0     H60822   6.067   1.202   3.210  0.5139  1.1063 -0.1109
  441MOL0     H60823   6.127   1.243   3.050  2.3372 -2.3690 -2.6719
  441MOL0     H60824   6.245   1.022   3.052  1.5122  3.4056  0.5208
  441MOL0     H60825   6.182   0.988   3.213  0.6700 -1.5383 -0.7035
  441MOL0     H60826   6.044   0.899   2.999  1.7199  1.0801 -0.8318
  441MOL0     H60827   5.964   1.049   3.035  0.1442  0.6146  1.4469
  441MOL0     H60828   5.910   1.014   3.260  1.3730  1.2583 -0.0355
  441MOL0     H60829   6.018   0.864   3.257 -1.7811  1.0992  3.0913
  441MOL0     H60830   5.784   0.876   3.064 -0.3327  2.5666  1.4215
  441MOL0     H60831   5.868   0.734   3.129  0.5149  0.1865  0.5747
  441MOL0     H60832   5.714   0.935   3.310  0.7088 -1.3080  0.7488
  441MOL0     H60833   5.753   0.764   3.342 -1.0912 -0.6038  1.1645
  441MOL0     H60834   5.593   0.675   3.206  0.7068 -0.4577  1.4193
  441MOL0     H60835   5.576   0.822   3.118  1.7356 -1.1587 -1.1030
  441MOL0     H60836   5.465   0.927   3.307  1.2421  0.9943  5.6434
  441MOL0     H60837   5.487   0.803   3.418 -0.4339 -0.4264 -2.1417
  441MOL0     H60838   6.160   1.464   3.157 -0.0720 -2.5211  5.7080
  441MOL0     H60839   6.307   1.680   3.130 -1.4660 -0.5711 -0.3985
  441MOL0     H60840   6.755   1.824   3.220 -2.8260 -1.8185 -0.1419
  441MOL0     H60841   6.838   2.064   3.272  0.4808  1.2537 -1.5909
  441MOL0     H60842   5.901   3.479   4.447 -0.9103  0.6260  0.4199
  441MOL0     H60843   5.914   3.675   4.583 -1.5056  1.6954  0.1259
  441MOL0     H60844   5.982   4.084   4.667 -2.0628  1.8126 -2.5974
  441MOL0     H60845   5.995   4.292   4.762  2.0258 -0.5272  2.0284
  441MOL0     H60846   6.103   4.409   4.907 -2.3095 -0.0250 -1.5429
  441MOL0     H60847   6.206   4.548   4.925 -0.7600  3.3349 -1.5507
  441MOL0     H60848   5.930   4.539   4.783 -1.6224 -0.2886  0.7203
  441MOL0     H60849   6.018   4.692   4.831  0.9069 -0.3320  2.0843
  441MOL0     H60850   6.003   4.597   5.082  0.4353 -0.7993 -0.1861
  441MOL0     H60851   5.868   4.674   5.013 -1.2043 -0.0086 -1.5960
  441MOL0     H60852   5.904   4.368   5.004 -0.3034  0.0186 -3.5297
  441MOL0     H60853   5.777   4.457   4.939 -0.1883 -1.0330 -0.5798
  441MOL0     H60854   5.679   4.442   5.347  0.8082  2.3080  0.3503
  441MOL0     H60855   6.369   4.368   4.611  1.4674 -1.2228  1.6237
  441MOL0     H60856   6.471   4.237   4.444  1.9003 -1.1259 -1.2528
  441MOL0     H60857   6.495   4.081   4.533  1.0681  0.1972  0.1871
  441MOL0     H60858   6.390   4.085   4.386 -2.3459 -0.4579  1.7307
  442MOL0     O60859   2.248   7.394   6.201 -0.4625 -0.1864 -0.5122
  442MOL0     C60860   2.248   7.398   6.325 -0.4109 -0.1488 -0.6670
  442MOL0     O60861   2.142   7.442   6.398 -0.7549 -0.2645 -0.7549
  442MOL0     C60862   2.032   7.471   6.337  0.2602  0.2394  0.9273
  442MOL0     C60863   1.961   7.364   6.279 -0.0302 -0.5894 -0.2108
  442MOL0     C60864   1.842   7.397   6.213 -0.3295  0.5025 -0.2698
  442MOL0     C60865   1.787   7.524   6.207  0.4135 -0.6596 -0.4754
  442MOL0     O60866   1.661   7.565   6.158  0.3307  0.0826  0.3343
  442MOL0     C60867   1.569   7.470   6.100  0.3571 -0.3966  0.4281
  442MOL0     C60868   1.449   7.539   6.028  1.3643  0.1621 -0.4749
  442MOL0     C60869   1.342   7.432   6.013 -0.0150  0.0913  0.6639
  442MOL0     C60870   1.266   7.476   5.894 -0.0428 -0.3114  0.0457
  442MOL0     C60871   1.153   7.380   5.870  0.4490 -0.4562 -0.3181
  442MOL0     C60872   1.060   7.426   5.760 -1.2313 -0.4363  0.0677
  442MOL0     C60873   0.929   7.341   5.754  0.7146 -0.0875  0.3869
  442MOL0     C60874   0.917   7.291   5.607 -0.3288  0.1987  0.7404
  442MOL0     N60875   0.896   7.405   5.516 -0.5085  0.1961 -0.1931
  442MOL0     C60876   0.782   7.481   5.514 -0.4763  0.3230 -0.2953
  442MOL0     C60877   0.810   7.588   5.443 -0.0619 -0.9119  0.5279
  442MOL0     C60878   0.726   7.715   5.430 -0.7925  0.5927  0.0424
  442MOL0     C60879   0.647   7.720   5.301  0.5175 -0.7235  0.2946
  442MOL0     C60880   0.523   7.623   5.326  0.5234 -0.2600  0.1454
  442MOL0     C60881   0.393   7.637   5.241 -0.1808 -0.0947  0.1352
  442MOL0     O60882   0.380   7.763   5.188 -0.5436  0.5158 -0.0530
  442MOL0     C60883   0.351   7.874   5.267 -0.1476  1.1217  1.1691
  442MOL0     C60884   0.263   7.877   5.372  0.7256  0.1419 -0.9248
  442MOL0     C60885   0.217   7.995   5.432 -0.8177 -0.2843  0.8352
  442MOL0     C60886   0.117   7.974   5.542 -0.0748  0.6222 -0.4452
  442MOL0     C60887   0.260   8.119   5.373 -0.4370  0.1232  1.2591
  442MOL0     C60888   0.227   8.255   5.433 -0.1044  0.0781 -0.0959
  442MOL0     O60889   0.287   8.371   5.377  0.2563  0.2464  0.3784
  442MOL0     C60890   0.267   8.499   5.419 -0.2305  0.3925 -0.4366
  442MOL0     C60891   0.258   8.530   5.551  0.3152  0.6740  0.0260
  442MOL0     C60892   0.220   8.660   5.589 -0.3371 -0.0813  0.2727
  442MOL0     C60893   0.204   8.760   5.494  0.2821 -0.8537 -0.0186
  442MOL0     O60894   0.176   8.893   5.529  0.2360 -0.2043 -0.0194
  442MOL0     C60895   0.280   8.979   5.503  0.5895  0.0896  0.2928
  442MOL0     C60896   0.246   9.106   5.573  0.3899  1.2650  0.8043
  442MOL0     C60897   0.105   9.161   5.545  0.4229  0.2319  0.2207
  442MOL0     C60898   0.096   9.223   5.401  0.1765  0.0062 -1.0888
  442MOL0     C60899  -0.023   9.320   5.388  0.1379 -0.0316 -0.4091
  442MOL0     C60900  -0.142   9.295   5.485 -0.1390  0.3603  0.5522
  442MOL0     C60901  -0.270   9.358   5.431 -0.0311 -0.4692  0.8680
  442MOL0     C60902  -0.274   9.507   5.423 -0.2565 -0.6768  0.3137
  442MOL0    Cl60903  -0.268   9.568   5.601  0.2761  0.1070  0.2954
  442MOL0     C60904   0.227   8.728   5.357 -0.3093 -0.2674 -0.8237
  442MOL0     C60905   0.258   8.600   5.319  0.9053  0.4756  0.0848
  442MOL0     O60906   0.144   8.254   5.526  1.0820  0.1846  0.3174
  442MOL0     C60907   0.347   8.114   5.266  1.1386  0.3682  0.6415
  442MOL0     C60908   0.401   7.996   5.222  0.3218 -0.4877 -0.2271
  442MOL0     N60909   0.939   7.583   5.403 -0.8603  0.5509 -0.1080
  442MOL0     N60910   0.992   7.466   5.433  0.0892 -0.1795  0.0199
  442MOL0     C60911   1.850   7.624   6.275  0.1707  0.2603  0.4857
  442MOL0     C60912   1.980   7.601   6.323 -0.5259 -0.2727 -0.2124
  442MOL0     C60913   2.377   7.360   6.394 -0.3663  0.5137  0.7068
  442MOL0     C60914   2.404   7.443   6.504 -0.1742  0.3749  0.4559
  442MOL0     C60915   2.526   7.427   6.569 -0.4721 -0.0265 -0.4078
  442MOL0     C60916   2.629   7.349   6.518  1.3179 -0.0667 -0.7738
  442MOL0     O60917   2.743   7.317   6.582 -0.7127  0.4021 -0.4694
  442MOL0     C60918   2.781   7.401   6.698  0.6780 -0.2212 -0.6261
  442MOL0     C60919   2.834   7.543   6.659  0.5384 -0.4459  0.1898
  442MOL0     C60920   2.881   7.626   6.779 -0.6126 -0.5137 -0.3732
  442MOL0     C60921   3.013   7.706   6.754  0.5412 -0.5344  0.5975
  442MOL0     C60922   2.996   7.794   6.632 -1.2397 -0.5465 -0.7050
  442MOL0     C60923   2.993   7.849   6.530 -0.1096 -0.1591 -0.6624
  442MOL0     C60924   2.601   7.261   6.417  0.4051  0.8124  0.3124
  442MOL0     C60925   2.475   7.260   6.349  0.6043 -0.1643 -0.8472
  442MOL0     C60926   2.440   7.159   6.248 -0.1441  0.1201  0.6274
  442MOL0     H60927   1.987   7.260   6.294 -2.1127 -1.1400 -0.1031
  442MOL0     H60928   1.792   7.314   6.164 -1.0107  0.0433  1.1601
  442MOL0     H60929   1.523   7.404   6.174 -0.1552  0.1021  0.5604
  442MOL0     H60930   1.627   7.412   6.027  2.0530  1.5664  0.1173
  442MOL0     H60931   1.408   7.619   6.091 -0.5812 -2.8863  2.4090
  442MOL0     H60932   1.491   7.584   5.937 -0.8234 -1.0822 -2.1981
  442MOL0     H60933   1.383   7.332   5.998  2.3217  1.1604 -0.7373
  442MOL0     H60934   1.271   7.437   6.095 -0.9371 -0.0519 -0.1062
  442MOL0     H60935   1.218   7.572   5.911 -0.2043 -0.4650  0.4636
  442MOL0     H60936   1.331   7.474   5.806  0.0040  1.3351  0.0192
  442MOL0     H60937   1.094   7.364   5.961  0.2242 -2.4883 -0.7597
  442MOL0     H60938   1.191   7.283   5.836  0.7920  0.4607 -2.7408
  442MOL0     H60939   1.020   7.526   5.781 -0.8159 -0.5692  1.6138
  442MOL0     H60940   1.113   7.429   5.664 -3.3298  1.3106 -1.1471
  442MOL0     H60941   0.849   7.405   5.793  0.3994 -1.2981  1.7770
  442MOL0     H60942   0.950   7.249   5.808  1.0192 -2.2182 -3.0559
  442MOL0     H60943   1.015   7.248   5.581 -0.1607  0.3820  1.0676
  442MOL0     H60944   0.840   7.215   5.591  0.4110 -0.0902 -2.0326
  442MOL0     H60945   0.690   7.469   5.570 -0.8256  2.5297 -0.3148
  442MOL0     H60946   0.802   7.792   5.418  1.0065 -1.3947 -2.4097
  442MOL0     H60947   0.662   7.733   5.517 -0.2992 -1.2073  0.8236
  442MOL0     H60948   0.615   7.822   5.278 -0.3893 -0.9490  0.5176
  442MOL0     H60949   0.708   7.681   5.218  1.5465 -1.1711  1.2385
  442MOL0     H60950   0.554   7.519   5.316  0.0850 -0.3572 -0.1955
  442MOL0     H60951   0.482   7.641   5.426 -3.1789  3.8009 -1.7612
  442MOL0     H60952   0.408   7.562   5.163  1.9261 -3.4089  3.3815
  442MOL0     H60953   0.310   7.599   5.301 -0.9568  1.1234 -0.1514
  442MOL0     H60954   0.218   7.783   5.400 -1.1025 -0.7339 -5.8881
  442MOL0     H60955   0.012   7.973   5.509  0.6140  0.6031 -2.8585
  442MOL0     H60956   0.136   8.031   5.633  0.1412 -1.2092  0.6913
  442MOL0     H60957   0.118   7.870   5.577  1.9743  0.9601  0.6414
  442MOL0     H60958   0.271   8.445   5.616  0.5268  1.1887  0.6745
  442MOL0     H60959   0.196   8.682   5.693  1.0825 -1.6395  0.9705
  442MOL0     H60960   0.372   8.934   5.540  0.6230  2.9197  4.2879
  442MOL0     H60961   0.285   8.998   5.395  0.3513 -0.7174  0.1306
  442MOL0     H60962   0.262   9.087   5.680  2.7754  1.0396  0.4492
  442MOL0     H60963   0.322   9.180   5.547  0.0521  1.5808  0.7202
  442MOL0     H60964   0.100   9.236   5.625 -1.0503  1.5292 -1.0313
  442MOL0     H60965   0.025   9.089   5.565  1.0173 -0.5083 -0.0174
  442MOL0     H60966   0.066   9.135   5.345 -1.8322  0.0329 -0.1610
  442MOL0     H60967   0.191   9.268   5.373  1.0041 -0.4790  0.7805
  442MOL0     H60968   0.022   9.419   5.399 -1.2243  0.3933  1.9403
  442MOL0     H60969  -0.058   9.314   5.284  1.5813 -3.4392 -0.8484
  442MOL0     H60970  -0.121   9.347   5.580 -0.1188  0.8073  0.3077
  442MOL0     H60971  -0.154   9.188   5.501  2.1244 -0.0504 -0.1747
  442MOL0     H60972  -0.350   9.332   5.501  2.6164 -0.6214  4.1309
  442MOL0     H60973  -0.289   9.326   5.329  0.7370 -1.7493  1.1004
  442MOL0     H60974  -0.370   9.542   5.384 -2.0655 -5.2294  0.1357
  442MOL0     H60975  -0.193   9.545   5.359 -1.9694  0.1794 -1.4668
  442MOL0     H60976   0.226   8.802   5.278  1.1715 -1.8218 -2.3868
  442MOL0     H60977   0.261   8.555   5.220 -1.7929 -0.0016  0.1389
  442MOL0     H60978   0.385   8.205   5.221  1.7237 -0.4712 -0.6468
  442MOL0     H60979   0.466   8.001   5.135  0.1886 -0.3795 -0.3216
  442MOL0     H60980   1.799   7.719   6.264  1.2834  1.1354  2.3776
  442MOL0     H60981   2.039   7.678   6.371 -0.2216 -0.2217 -0.6639
  442MOL0     H60982   2.316   7.493   6.542 -0.0018 -0.4812  2.0702
  442MOL0     H60983   2.538   7.470   6.668  0.3314 -0.7861 -0.1617
  442MOL0     H60984   2.704   7.413   6.774  1.5175  1.1389  0.0537
  442MOL0     H60985   2.859   7.350   6.755  1.5473  1.5011 -0.1854
  442MOL0     H60986   2.762   7.603   6.602 -0.1707 -0.0571  1.4784
  442MOL0     H60987   2.921   7.517   6.597 -1.3222 -1.7402 -2.0156
  442MOL0     H60988   2.795   7.689   6.806 -0.6605 -1.0115  0.6946
  442MOL0     H60989   2.895   7.562   6.866 -0.8563 -0.2670 -0.1488
  442MOL0     H60990   3.090   7.632   6.731 -1.2730 -2.2050 -0.3978
  442MOL0     H60991   3.043   7.780   6.829  0.0379  0.6646 -0.3438
  442MOL0     H60992   2.988   7.912   6.443 -0.7514  1.9319  0.8056
  442MOL0     H60993   2.673   7.184   6.391 -1.4838 -0.1396 -2.5056
  442MOL0     H60994   2.385   7.211   6.169  2.2561  1.5024 -0.2419
  442MOL0     H60995   2.527   7.112   6.201 -0.4545 -0.0201  0.1829
  442MOL0     H60996   2.372   7.081   6.282 -0.7435 -0.3270 -1.4472
  443MOL0     O60997   9.106  10.245  11.360  0.3627  0.1978  0.2932
  443MOL0     C60998   9.083  10.126  11.374  0.8868  0.3718 -0.6223
  443MOL0     O60999   9.165  10.043  11.447 -0.6363 -0.1774 -0.2089
  443MOL0     C61000   9.279  10.103  11.498  0.9260  0.3665 -0.4415
  443MOL0     C61001   9.406  10.081  11.446  0.2715  0.5174  0.4794
  443MOL0     C61002   9.519  10.135  11.502 -0.0636  0.9176 -0.6478
  443MOL0     C61003   9.503  10.236  11.607 -0.2395 -0.5755  0.1228
  443MOL0     O61004   9.608  10.300  11.664 -1.4344 -0.7225  0.9839
  443MOL0     C61005   9.712  10.228  11.723 -0.2897 -0.9097  0.3055
  443MOL0     C61006   9.714  10.259  11.876  0.5250 -0.2672  0.2503
  443MOL0     C61007   9.817  10.159  11.945  0.1114 -0.6503  1.1812
  443MOL0     C61008   9.750  10.017  11.967  0.4503  1.2681 -0.2943
  443MOL0     C61009   9.847   9.920  12.046 -0.9982  0.1840  0.8705
  443MOL0     C61010   9.953   9.874  11.952  0.1538  0.2484 -0.1212
  443MOL0     C61011  10.038   9.746  12.002  0.5446 -0.2075  0.4301
  443MOL0     C61012  10.122   9.779  12.133  0.2117  0.0185  0.9868
  443MOL0     N61013  10.224   9.671  12.161  0.0340  0.1225  0.4009
  443MOL0     C61014  10.322   9.675  12.255 -0.1798 -0.2854 -0.8285
  443MOL0     C61015  10.406   9.572  12.250  1.0724 -0.2990 -0.1857
  443MOL0     C61016  10.513   9.524  12.343  0.7809 -0.5204 -0.1931
  443MOL0     C61017  10.648   9.579  12.314  0.9686 -0.3049 -0.1302
  443MOL0     C61018  10.760   9.570  12.419 -0.1381  0.2027  0.2841
  443MOL0     C61019  10.864   9.666  12.391 -0.3100  0.6852  0.3940
  443MOL0     O61020  10.980   9.615  12.458 -0.5589  0.2615 -0.1003
  443MOL0     C61021  11.067   9.541  12.386 -0.3792 -0.0613  0.1708
  443MOL0     C61022  11.181   9.513  12.454 -0.7452  0.6766  0.0455
  443MOL0     C61023  11.290   9.451  12.385  0.6425 -0.7257 -0.4232
  443MOL0     C61024  11.420   9.432  12.463  0.8241 -0.3599  0.2083
  443MOL0     C61025  11.272   9.405  12.251 -0.3425  1.0196 -0.8248
  443MOL0     C61026  11.378   9.340  12.162  0.0311  0.5356  0.3575
  443MOL0     O61027  11.344   9.319  12.034  0.1880  0.5550 -0.5210
  443MOL0     C61028  11.408   9.264  11.937 -0.1710  0.3414 -0.4164
  443MOL0     C61029  11.390   9.316  11.807  0.5278  0.5445 -0.0376
  443MOL0     C61030  11.440   9.259  11.696 -1.1191 -0.3930  0.3950
  443MOL0     C61031  11.515   9.145  11.705 -0.4226 -0.1491  0.1419
  443MOL0     O61032  11.534   9.088  11.589 -0.1552  0.1755 -0.0964
  443MOL0     C61033  11.612   8.962  11.587  0.7038 -0.0718 -0.6014
  443MOL0     C61034  11.618   8.903  11.450 -0.0100  0.0437  0.3122
  443MOL0     C61035  11.725   8.967  11.365 -0.2978 -0.5709  0.4755
  443MOL0     C61036  11.738   8.921  11.219 -0.4952 -0.2272  0.2245
  443MOL0     C61037  11.832   9.016  11.135  0.2423  0.2793  0.2063
  443MOL0     C61038  11.967   8.939  11.130  0.6632  0.8668 -0.0543
  443MOL0     C61039  12.065   9.002  11.039 -0.4656 -0.1810 -0.0686
  443MOL0     C61040  12.192   8.911  11.017 -0.3714 -0.7550 -0.4236
  443MOL0    Cl61041  12.240   8.904  10.845  0.4888  0.1577 -0.3136
  443MOL0     C61042  11.551   9.089  11.830  2.2297  0.2907 -1.6381
  443MOL0     C61043  11.492   9.150  11.941 -0.1999  0.3973 -0.7450
  443MOL0     O61044  11.486   9.296  12.206  0.4538  0.2662 -0.1965
  443MOL0     C61045  11.154   9.437  12.187  0.0959 -1.0281 -1.1140
  443MOL0     C61046  11.045   9.495  12.259  0.2319 -0.2122 -0.1983
  443MOL0     N61047  10.354   9.503  12.142 -0.0089  1.0642  0.9120
  443MOL0     N61048  10.242   9.555  12.100 -0.7199 -0.3682  0.0429
  443MOL0     C61049   9.378  10.260  11.656  0.0290 -0.7712 -0.4990
  443MOL0     C61050   9.269  10.191  11.602 -0.7409  0.4291 -0.6555
  443MOL0     C61051   8.953  10.076  11.333 -0.2506  0.0621  0.2067
  443MOL0     C61052   8.891  10.152  11.226  0.2525  0.1707  0.6041
  443MOL0     C61053   8.776  10.113  11.170  0.1054 -0.1447  0.3883
  443MOL0     C61054   8.700  10.007  11.222  0.1396 -0.5561  0.2557
  443MOL0     O61055   8.584   9.974  11.169  0.5443 -0.4231  1.0019
  443MOL0     C61056   8.468   9.973  11.258  0.4393  0.5729  0.5870
  443MOL0     C61057   8.413  10.105  11.294 -0.2532 -0.4648 -0.1263
  443MOL0     C61058   8.395  10.202  11.175  0.3556 -0.5036  0.9906
  443MOL0     C61059   8.295  10.312  11.206  0.2418  1.3371  0.1814
  443MOL0     C61060   8.333  10.391  11.319  0.1948  1.0842 -0.5602
  443MOL0     C61061   8.351  10.454  11.418  0.6247 -0.1715 -0.1335
  443MOL0     C61062   8.757   9.932  11.322  0.4282  1.3434  0.3270
  443MOL0     C61063   8.882   9.962  11.375 -0.3209  0.2027 -1.0486
  443MOL0     C61064   8.927   9.868  11.484 -0.5096  0.1650  0.7013
  443MOL0     H61065   9.408  10.007  11.366  1.6208  0.7211  0.2999
  443MOL0     H61066   9.618  10.108  11.467  0.0726  2.8843 -1.8997
  443MOL0     H61067   9.808  10.263  11.683 -1.4805  1.2184 -0.8528
  443MOL0     H61068   9.709  10.120  11.709  0.2502 -1.2278  2.2882
  443MOL0     H61069   9.735  10.364  11.897  3.8349 -0.8846  0.6663
  443MOL0     H61070   9.618  10.242  11.925  1.2691  0.7254  2.1877
  443MOL0     H61071   9.906  10.140  11.884  1.0755  1.4173  1.8646
  443MOL0     H61072   9.855  10.207  12.036  1.6800  3.8326 -1.5551
  443MOL0     H61073   9.667  10.037  12.035  1.0565  1.7417  0.3218
  443MOL0     H61074   9.701   9.970  11.882 -1.5200  2.1084  0.3298
  443MOL0     H61075   9.781   9.840  12.079 -2.0196 -0.5043 -2.5013
  443MOL0     H61076   9.899   9.978  12.123  3.1114  3.0361 -3.4389
  443MOL0     H61077   9.907   9.848  11.856  3.1178  1.9488 -2.1577
  443MOL0     H61078  10.018   9.957  11.923 -3.6651  3.8601  0.7095
  443MOL0     H61079  10.112   9.726  11.923 -0.6245  2.6172 -1.5332
  443MOL0     H61080   9.970   9.665  12.028 -4.6333  2.6005 -2.7965
  443MOL0     H61081  10.173   9.875  12.117  0.0536  0.1340  1.1783
  443MOL0     H61082  10.066   9.788  12.226  0.1988 -2.3745  1.2617
  443MOL0     H61083  10.325   9.755  12.328  1.3345  0.9453 -2.1799
  443MOL0     H61084  10.522   9.415  12.334 -3.9210 -1.0929 -0.5742
  443MOL0     H61085  10.477   9.545  12.444 -3.6558 -1.4618 -1.3627
  443MOL0     H61086  10.680   9.533  12.220  0.2496 -0.2891 -0.3900
  443MOL0     H61087  10.633   9.685  12.288  1.1262 -0.8480 -2.6789
  443MOL0     H61088  10.714   9.587  12.517  0.8898  1.7612  0.5394
  443MOL0     H61089  10.796   9.468  12.403 -0.0310 -0.0364  1.8357
  443MOL0     H61090  10.872   9.665  12.282 -1.9359  2.2014  0.2098
  443MOL0     H61091  10.850   9.770  12.421 -0.3677  0.2719  1.8750
  443MOL0     H61092  11.197   9.543  12.557 -1.6258  0.1086  0.3599
  443MOL0     H61093  11.424   9.343  12.527  0.6469  0.1137  0.8886
  443MOL0     H61094  11.441   9.519  12.526  0.3367 -0.0185 -0.0921
  443MOL0     H61095  11.505   9.426  12.394 -0.7468 -4.9739 -1.7247
  443MOL0     H61096  11.342   9.413  11.794  0.6338  0.5602 -0.3021
  443MOL0     H61097  11.429   9.306  11.599  0.4484  0.3790  0.5662
  443MOL0     H61098  11.711   8.982  11.628  0.4591  0.8913 -0.4581
  443MOL0     H61099  11.564   8.888  11.652  2.4027 -0.6267  0.0864
  443MOL0     H61100  11.637   8.796  11.460  2.5906  0.5788  2.0822
  443MOL0     H61101  11.517   8.909  11.408 -0.4727 -1.9425  1.0596
  443MOL0     H61102  11.824   8.949  11.410 -0.5866  1.1020  1.8528
  443MOL0     H61103  11.702   9.073  11.363  0.5947 -0.3497  1.0902
  443MOL0     H61104  11.634   8.945  11.196 -1.1693 -1.5132  1.7597
  443MOL0     H61105  11.750   8.813  11.206  0.3303 -0.5272  2.8881
  443MOL0     H61106  11.784   9.024  11.037  0.4366  2.2068  0.2246
  443MOL0     H61107  11.838   9.117  11.176  0.5630 -0.6347  2.5898
  443MOL0     H61108  11.951   8.838  11.092 -1.2123  1.4222 -0.8436
  443MOL0     H61109  12.012   8.945  11.229  0.2774  0.7299  0.1299
  443MOL0     H61110  12.095   9.094  11.089  0.9619 -1.3410  1.3435
  443MOL0     H61111  12.013   9.024  10.945 -0.9957 -1.6875 -0.1552
  443MOL0     H61112  12.170   8.811  11.055  2.6434 -1.5756 -0.6181
  443MOL0     H61113  12.280   8.949  11.069  0.7188 -1.0636 -1.9687
  443MOL0     H61114  11.602   8.994  11.837 -0.3218 -1.0105  1.9919
  443MOL0     H61115  11.507   9.105  12.039 -0.9924 -0.2310 -0.8974
  443MOL0     H61116  11.133   9.421  12.081 -1.7669  0.2238 -0.9827
  443MOL0     H61117  10.957   9.515  12.199  0.7730  1.7464 -0.4093
  443MOL0     H61118   9.364  10.328  11.739  0.7539 -0.2462 -0.7897
  443MOL0     H61119   9.168  10.223  11.627 -1.9828 -2.0084 -2.1299
  443MOL0     H61120   8.943  10.230  11.171 -2.8655  2.3498  0.5162
  443MOL0     H61121   8.744  10.165  11.080  1.7802  0.8750  0.3357
  443MOL0     H61122   8.391   9.904  11.222  2.9213 -3.0674  1.7414
  443MOL0     H61123   8.495   9.923  11.352  0.7363 -0.9104 -0.2620
  443MOL0     H61124   8.482  10.151  11.365  0.5860  1.9966 -2.3325
  443MOL0     H61125   8.313  10.101  11.338 -0.2732  1.6348  0.1500
  443MOL0     H61126   8.488  10.254  11.151  0.5077 -1.9944 -2.1125
  443MOL0     H61127   8.365  10.139  11.091 -0.8821 -1.4074  2.0551
  443MOL0     H61128   8.202  10.259  11.227 -0.6114  0.4710 -4.6734
  443MOL0     H61129   8.277  10.387  11.129 -2.9027  1.2868  0.7275
  443MOL0     H61130   8.378  10.516  11.501  2.8170 -0.4690 -0.5844
  443MOL0     H61131   8.696   9.847  11.348 -2.6222  3.1502 -0.3708
  443MOL0     H61132   8.977   9.924  11.564 -0.1337 -0.8604  1.1942
  443MOL0     H61133   8.850   9.811  11.536 -0.8714  1.1272  1.2593
  443MOL0     H61134   8.999   9.792  11.453 -2.0947 -2.7767  3.6167
  444MOL0     O61135   1.706   7.520   9.338  0.1840  0.1017  0.3066
  444MOL0     C61136   1.587   7.549   9.307 -0.5626 -0.4163  0.4625
  444MOL0     O61137   1.483   7.520   9.380 -0.3665 -0.3402 -0.3805
  444MOL0     C61138   1.488   7.428   9.481  0.1565 -0.3586 -0.3730
  444MOL0     C61139   1.455   7.302   9.449  0.2274 -0.6638  0.2175
  444MOL0     C61140   1.432   7.201   9.542  1.0453  0.3463  0.5342
  444MOL0     C61141   1.447   7.231   9.679 -0.5093  0.0085  1.0362
  444MOL0     O61142   1.424   7.144   9.780  0.5401 -0.8300 -0.1068
  444MOL0     C61143   1.449   7.000   9.767  0.0805 -0.4329 -0.1404
  444MOL0     C61144   1.440   6.940   9.906 -0.2785  0.1542 -0.8225
  444MOL0     C61145   1.444   6.794   9.917  0.6170  0.5898 -0.0383
  444MOL0     C61146   1.586   6.737   9.942 -0.4291  0.6755 -0.3785
  444MOL0     C61147   1.563   6.583   9.961 -0.5958  0.4762  0.7596
  444MOL0     C61148   1.546   6.552  10.106  0.5295  0.1675  0.3463
  444MOL0     C61149   1.679   6.564  10.184 -0.9247  0.3459  0.6310
  444MOL0     C61150   1.768   6.438  10.171  0.7201 -0.6431 -0.6357
  444MOL0     N61151   1.906   6.461  10.217 -0.0719  0.0858  0.4689
  444MOL0     C61152   1.996   6.509  10.123 -0.3216  1.2033  0.1817
  444MOL0     C61153   2.112   6.524  10.197  0.0583  0.7608  0.1144
  444MOL0     C61154   2.242   6.574  10.151  0.2167 -0.8583  0.1283
  444MOL0     C61155   2.340   6.478  10.116 -0.6335  0.2090  0.2139
  444MOL0     C61156   2.352   6.358  10.213  0.6733  0.2994  1.2757
  444MOL0     C61157   2.459   6.259  10.190  0.2316 -0.0601  0.4360
  444MOL0     O61158   2.585   6.315  10.249 -0.3579  0.4202  1.0219
  444MOL0     C61159   2.665   6.404  10.179  0.6588 -1.5968  0.2915
  444MOL0     C61160   2.656   6.436  10.045 -0.5395 -0.1572  0.4061
  444MOL0     C61161   2.742   6.521   9.979 -0.6249  0.0973  0.0026
  444MOL0     C61162   2.717   6.547   9.833 -0.1828 -0.6003 -0.1514
  444MOL0     C61163   2.861   6.561  10.044 -0.8593 -0.4767 -0.2106
  444MOL0     C61164   2.982   6.614   9.977  0.5598  0.7063 -0.8157
  444MOL0     O61165   2.986   6.596   9.838  0.9868 -0.4990  0.1517
  444MOL0     C61166   3.088   6.627   9.756  0.1796 -0.7541 -0.1054
  444MOL0     C61167   3.070   6.597   9.623 -0.0677  0.5234 -0.1995
  444MOL0     C61168   3.178   6.607   9.538 -0.4716 -0.5900  0.1743
  444MOL0     C61169   3.300   6.670   9.578 -0.9516 -0.5186  0.8736
  444MOL0     O61170   3.400   6.705   9.499 -0.4337 -0.3469 -0.5158
  444MOL0     C61171   3.389   6.690   9.351 -0.3034 -0.3022 -0.2549
  444MOL0     C61172   3.532   6.688   9.302 -0.0353 -0.2975  0.5042
  444MOL0     C61173   3.632   6.795   9.328  0.0685  0.4278 -0.6814
  444MOL0     C61174   3.583   6.922   9.262  0.5477  0.1142 -0.2834
  444MOL0     C61175   3.649   7.055   9.294 -0.1905  0.3109 -0.2882
  444MOL0     C61176   3.615   7.125   9.424  0.2162  0.4763  0.4316
  444MOL0     C61177   3.721   7.230   9.456 -0.1456  0.0959 -0.6714
  444MOL0     C61178   3.706   7.296   9.595  0.6959 -0.0932  0.0552
  444MOL0    Cl61179   3.784   7.181   9.717  0.0220  0.2131 -0.4563
  444MOL0     C61180   3.309   6.709   9.705 -0.7161  0.0483 -0.9551
  444MOL0     C61181   3.211   6.685   9.799  1.1933 -0.4510  0.1497
  444MOL0     O61182   3.041   6.703  10.042 -0.2200  0.0155  0.3651
  444MOL0     C61183   2.872   6.539  10.182  0.3465  0.6316 -0.5920
  444MOL0     C61184   2.777   6.456  10.245 -0.1924 -0.5786  0.1407
  444MOL0     N61185   2.089   6.480  10.328 -0.1723 -0.3518 -0.1209
  444MOL0     N61186   1.958   6.454  10.339 -0.3113 -0.3501  0.0797
  444MOL0     C61187   1.490   7.357   9.715 -0.0156  0.1545  0.2150
  444MOL0     C61188   1.509   7.465   9.621 -0.2650 -0.4148  0.5449
  444MOL0     C61189   1.573   7.625   9.183  0.5305  0.4163 -0.6498
  444MOL0     C61190   1.441   7.616   9.130  0.1771 -0.0639 -0.6279
  444MOL0     C61191   1.408   7.668   9.007 -0.4794  0.0220 -0.1275
  444MOL0     C61192   1.506   7.735   8.933 -0.0194  0.6793 -0.6422
  444MOL0     O61193   1.483   7.796   8.813 -0.2279  0.2780 -0.9272
  444MOL0     C61194   1.377   7.743   8.724 -0.0796 -0.2083  0.7586
  444MOL0     C61195   1.421   7.753   8.570  0.3473 -0.4246 -0.3281
  444MOL0     C61196   1.542   7.676   8.547  0.5990 -0.2751 -0.1908
  444MOL0     C61197   1.600   7.710   8.410 -0.0161  0.2819 -0.5947
  444MOL0     C61198   1.517   7.645   8.310 -0.5295 -0.8524  0.1086
  444MOL0     C61199   1.455   7.591   8.224  0.1607  0.1147  0.5276
  444MOL0     C61200   1.639   7.748   8.982  0.1797 -0.6292  0.3877
  444MOL0     C61201   1.674   7.698   9.101  0.0924  0.3409 -0.2128
  444MOL0     C61202   1.819   7.718   9.137 -1.1946  0.1901  0.3142
  444MOL0     H61203   1.431   7.281   9.345 -2.4766 -0.7242  0.7750
  444MOL0     H61204   1.401   7.102   9.511 -0.5298  0.7183  0.8517
  444MOL0     H61205   1.542   6.974   9.715 -0.8438 -4.3026 -0.1858
  444MOL0     H61206   1.365   6.950   9.719  1.2540 -2.6082 -0.0614
  444MOL0     H61207   1.523   6.974   9.968  0.3810 -2.0097 -0.4271
  444MOL0     H61208   1.347   6.979   9.948  0.7211 -0.0551  1.7673
  444MOL0     H61209   1.383   6.765  10.003  4.2544  0.0766  2.5994
  444MOL0     H61210   1.408   6.756   9.821  1.5112  1.2257 -0.6418
  444MOL0     H61211   1.644   6.752   9.850  0.1593  0.4495 -0.0436
  444MOL0     H61212   1.629   6.784  10.030  0.2665  0.2748 -0.4973
  444MOL0     H61213   1.645   6.525   9.920  0.2952  1.7679  0.6556
  444MOL0     H61214   1.468   6.555   9.915 -1.9209  0.9609  3.0064
  444MOL0     H61215   1.481   6.630  10.148  1.2586  1.5371 -0.9612
  444MOL0     H61216   1.506   6.451  10.115  0.6086  0.0225 -0.7842
  444MOL0     H61217   1.654   6.583  10.288 -1.6984  0.2501  0.4671
  444MOL0     H61218   1.734   6.654  10.155  0.4391  0.8231  4.1702
  444MOL0     H61219   1.717   6.362  10.230  1.2234  0.4430  1.2719
  444MOL0     H61220   1.780   6.411  10.066  0.8570  1.1874 -1.1334
  444MOL0     H61221   1.966   6.540  10.024  3.0443  2.9986 -0.4165
  444MOL0     H61222   2.281   6.638  10.231  0.2171 -1.1113  0.3320
  444MOL0     H61223   2.231   6.634  10.060 -0.2412 -0.6728  0.2984
  444MOL0     H61224   2.315   6.448  10.014 -3.0162  1.1305  0.4683
  444MOL0     H61225   2.428   6.542  10.112  0.8406 -1.7420  0.0757
  444MOL0     H61226   2.368   6.395  10.315  1.9619 -0.3321  1.3263
  444MOL0     H61227   2.255   6.309  10.202  1.2104 -0.5162 -0.1037
  444MOL0     H61228   2.439   6.166  10.243 -2.6042  1.4141  2.1489
  444MOL0     H61229   2.474   6.243  10.083  0.4949  2.3041  0.0597
  444MOL0     H61230   2.572   6.397   9.989 -0.5724 -0.1285  0.4342
  444MOL0     H61231   2.769   6.472   9.773  0.2573 -0.0756 -0.4366
  444MOL0     H61232   2.739   6.651   9.808 -0.2073 -0.5898 -0.1298
  444MOL0     H61233   2.609   6.530   9.825 -0.3556  0.8375 -1.3673
  444MOL0     H61234   2.980   6.541   9.599 -0.0499 -1.5083  3.6860
  444MOL0     H61235   3.174   6.584   9.432  2.9757  0.4918 -0.3110
  444MOL0     H61236   3.342   6.598   9.316  1.0009 -0.4513 -1.7274
  444MOL0     H61237   3.337   6.779   9.314  1.4008  1.0806  0.4962
  444MOL0     H61238   3.581   6.593   9.327  0.3975 -0.1365  0.2705
  444MOL0     H61239   3.526   6.678   9.193  1.4627 -0.1014  0.3881
  444MOL0     H61240   3.733   6.765   9.296 -0.7399 -2.6336 -0.6750
  444MOL0     H61241   3.631   6.817   9.436 -1.5079 -1.7338 -0.1834
  444MOL0     H61242   3.475   6.933   9.278  0.9228  0.3906  2.4099
  444MOL0     H61243   3.598   6.911   9.154  0.6561  1.8458 -0.4668
  444MOL0     H61244   3.758   7.048   9.294 -0.0615 -0.2600  3.5422
  444MOL0     H61245   3.607   7.122   9.219 -3.0772 -2.7755 -1.7182
  444MOL0     H61246   3.640   7.052   9.501  4.1302  0.4491 -0.6781
  444MOL0     H61247   3.510   7.154   9.435 -0.0405 -0.9208  1.9873
  444MOL0     H61248   3.732   7.308   9.381  0.2492  2.0043  1.2815
  444MOL0     H61249   3.814   7.172   9.453 -1.6579 -2.4854 -3.3906
  444MOL0     H61250   3.601   7.313   9.620  0.3859  1.0750 -1.8957
  444MOL0     H61251   3.744   7.398   9.601  0.1613  0.0430  3.8126
  444MOL0     H61252   3.404   6.749   9.740 -0.6094 -0.3246 -0.8127
  444MOL0     H61253   3.225   6.734   9.895 -0.0363  0.4616 -0.0925
  444MOL0     H61254   2.959   6.583  10.231  0.4048  0.0553 -0.1591
  444MOL0     H61255   2.804   6.425  10.345 -0.3429 -1.0330  0.0418
  444MOL0     H61256   1.501   7.380   9.821  1.4152 -0.8980  0.3318
  444MOL0     H61257   1.535   7.563   9.659  0.4623 -0.0141 -0.9029
  444MOL0     H61258   1.359   7.570   9.184 -0.6768  1.6729 -0.3780
  444MOL0     H61259   1.304   7.661   8.975 -0.6902 -0.5903  0.6506
  444MOL0     H61260   1.364   7.639   8.754 -2.5229  0.0018  0.6410
  444MOL0     H61261   1.283   7.797   8.736  0.4440  1.0327 -0.3713
  444MOL0     H61262   1.428   7.859   8.546  0.5273  0.6849  3.7769
  444MOL0     H61263   1.352   7.703   8.501  2.4502 -0.6071 -2.4243
  444MOL0     H61264   1.612   7.699   8.628  0.4940 -3.2272  0.8300
  444MOL0     H61265   1.507   7.573   8.553 -1.0682 -0.0727 -3.7256
  444MOL0     H61266   1.693   7.651   8.407 -0.7717 -0.8990 -1.6951
  444MOL0     H61267   1.613   7.818   8.397 -1.4530  0.6430  0.6870
  444MOL0     H61268   1.398   7.556   8.140  0.2834 -0.7108  0.7754
  444MOL0     H61269   1.702   7.812   8.921  0.6817 -0.1267  1.4063
  444MOL0     H61270   1.836   7.740   9.243  2.5271 -1.4041  0.2018
  444MOL0     H61271   1.875   7.627   9.110  0.2520  1.5875 -1.6559
  444MOL0     H61272   1.849   7.800   9.072 -2.2343 -1.2284 -2.0772
  445MOL0     O61273   9.013   5.057   1.113 -0.0984 -0.6672 -0.2717
  445MOL0     C61274   8.940   4.985   1.041  0.7383 -0.2271 -0.4912
  445MOL0     O61275   8.883   4.870   1.088 -0.0931  0.9619 -0.4161
  445MOL0     C61276   8.949   4.797   1.185 -0.0949  0.3826 -0.9390
  445MOL0     C61277   8.885   4.770   1.307  0.4716 -0.4108 -0.2891
  445MOL0     C61278   8.938   4.678   1.396 -1.3200  0.4020  0.1612
  445MOL0     C61279   9.066   4.622   1.370 -0.7755  0.5759 -0.7034
  445MOL0     O61280   9.134   4.537   1.464  0.1200  0.3933  0.1963
  445MOL0     C61281   9.051   4.453   1.545 -0.3922  0.7682  0.1365
  445MOL0     C61282   9.116   4.346   1.637  0.9539 -0.5736  0.1139
  445MOL0     C61283   9.187   4.232   1.555 -0.0605 -0.2335  0.3196
  445MOL0     C61284   9.170   4.098   1.633 -0.2823  0.3577  0.0258
  445MOL0     C61285   9.222   3.982   1.555 -0.2715  0.2504 -0.1167
  445MOL0     C61286   9.373   3.962   1.537  0.1444  0.7960  0.2164
  445MOL0     C61287   9.466   3.962   1.651 -0.1681 -0.0082 -0.1429
  445MOL0     C61288   9.611   3.935   1.625  0.2286 -0.2638 -0.1065
  445MOL0     N61289   9.671   3.905   1.755 -0.2006  0.5426  0.8191
  445MOL0     C61290   9.709   4.002   1.844 -0.0527  0.0410  0.2947
  445MOL0     C61291   9.780   3.930   1.932  0.2137  0.7247 -0.2223
  445MOL0     C61292   9.824   3.975   2.072 -0.3179 -0.6303 -0.1321
  445MOL0     C61293   9.696   3.991   2.162 -0.5244 -0.5889  0.2159
  445MOL0     C61294   9.664   3.850   2.208  0.3667  0.1572 -0.8369
  445MOL0     C61295   9.539   3.858   2.302 -0.2234  0.5095  0.0287
  445MOL0     O61296   9.422   3.888   2.226  0.1950  0.7222  0.1791
  445MOL0     C61297   9.355   3.783   2.164 -0.7443  0.1737 -0.2257
  445MOL0     C61298   9.258   3.823   2.074 -0.2904 -0.3065  0.8431
  445MOL0     C61299   9.167   3.742   2.021  0.3636 -0.1250 -0.6092
  445MOL0     C61300   9.064   3.813   1.935 -0.0337 -0.2736 -0.7990
  445MOL0     C61301   9.174   3.601   2.044  1.1670 -0.1179  0.1114
  445MOL0     C61302   9.089   3.490   1.990  0.2033 -0.4809 -0.6753
  445MOL0     O61303   9.119   3.360   2.028 -0.0463 -0.2917 -0.2404
  445MOL0     C61304   9.019   3.266   2.015  0.1100 -0.7125  0.2437
  445MOL0     C61305   8.939   3.244   1.902  0.9754 -0.2670 -0.7464
  445MOL0     C61306   8.832   3.155   1.901  0.2517 -0.5475 -0.1537
  445MOL0     C61307   8.804   3.090   2.017 -0.6659 -0.7428 -0.8014
  445MOL0     O61308   8.677   3.041   2.011  0.2941  0.1934  0.2706
  445MOL0     C61309   8.606   3.001   2.129 -1.0245  0.0336 -0.5730
  445MOL0     C61310   8.470   2.948   2.097 -0.5098 -0.2566 -0.4254
  445MOL0     C61311   8.379   2.914   2.217 -0.1921  0.5865  0.9287
  445MOL0     C61312   8.370   3.035   2.317 -0.0124  0.0210  0.4241
  445MOL0     C61313   8.244   3.045   2.399 -1.1308 -0.9237 -1.0528
  445MOL0     C61314   8.194   2.914   2.455  0.5046 -0.5438  0.4360
  445MOL0     C61315   8.053   2.937   2.521  0.6981  0.9063 -0.1178
  445MOL0     C61316   8.010   2.807   2.593  0.2004  0.2761  0.0122
  445MOL0    Cl61317   7.857   2.834   2.684  0.4006  0.1364 -0.3084
  445MOL0     C61318   8.893   3.091   2.122 -0.9577 -0.6611 -0.2135
  445MOL0     C61319   9.011   3.170   2.113  0.1914 -0.5537 -0.4366
  445MOL0     O61320   8.980   3.522   1.946 -0.2154  0.6214  0.9211
  445MOL0     C61321   9.282   3.559   2.121 -0.1281  0.3683 -0.2845
  445MOL0     C61322   9.376   3.646   2.180  0.0715  0.6216  0.2232
  445MOL0     N61323   9.783   3.800   1.898  0.0700 -0.1821 -0.2585
  445MOL0     N61324   9.724   3.783   1.786 -0.9101 -0.6363 -0.1359
  445MOL0     C61325   9.126   4.654   1.254 -0.6380 -0.9875  1.0893
  445MOL0     C61326   9.070   4.735   1.159  0.3373 -0.7390  0.2765
  445MOL0     C61327   8.894   5.041   0.908 -0.2905  0.7209 -0.1561
  445MOL0     C61328   8.763   5.017   0.864 -0.6114 -0.9957  0.1109
  445MOL0     C61329   8.721   5.067   0.740 -0.8210  0.4035  0.6132
  445MOL0     C61330   8.820   5.124   0.655 -0.6801 -1.1478  0.1297
  445MOL0     O61331   8.795   5.162   0.523  0.9022  0.3805 -0.5103
  445MOL0     C61332   8.663   5.190   0.485  0.0008 -0.3531 -0.2332
  445MOL0     C61333   8.611   5.327   0.539 -0.8329 -0.0361  1.2917
  445MOL0     C61334   8.668   5.439   0.453  0.3694 -0.2957 -0.3703
  445MOL0     C61335   8.588   5.568   0.476  0.5835  0.5225  0.1960
  445MOL0     C61336   8.641   5.676   0.564  0.0147  1.0778 -0.7690
  445MOL0     C61337   8.663   5.756   0.652  0.3520 -0.6769  0.1455
  445MOL0     C61338   8.951   5.150   0.707 -0.4822 -0.0542 -0.3072
  445MOL0     C61339   8.985   5.119   0.832  0.5594  0.7737  0.3827
  445MOL0     C61340   9.122   5.171   0.868 -0.5708 -0.2354  0.3910
  445MOL0     H61341   8.788   4.814   1.325 -0.0873 -2.6853  3.3310
  445MOL0     H61342   8.900   4.654   1.495 -0.2420 -0.8888  0.2919
  445MOL0     H61343   8.992   4.398   1.471  1.6192  0.8917 -1.6723
  445MOL0     H61344   8.995   4.517   1.614  0.5387 -1.9136  3.6189
  445MOL0     H61345   9.185   4.398   1.704 -2.9496  3.6923  1.3279
  445MOL0     H61346   9.039   4.293   1.693  3.9700 -1.0734  4.2439
  445MOL0     H61347   9.145   4.220   1.455  0.5106  3.5270 -0.5242
  445MOL0     H61348   9.292   4.260   1.540  0.2231 -1.2608  0.3539
  445MOL0     H61349   9.225   4.113   1.726  0.5425  1.6071 -0.6394
  445MOL0     H61350   9.066   4.075   1.659  0.7867 -3.2323  1.8223
  445MOL0     H61351   9.166   3.972   1.462 -1.6482 -2.0524  0.8792
  445MOL0     H61352   9.181   3.900   1.616  1.0924  0.2602  0.8589
  445MOL0     H61353   9.385   3.872   1.477 -0.5347 -0.1479  1.4359
  445MOL0     H61354   9.409   4.037   1.466  1.8518  0.3670  0.5745
  445MOL0     H61355   9.433   3.884   1.721 -0.4735 -0.8902 -1.2357
  445MOL0     H61356   9.453   4.058   1.701 -0.2060 -0.5881  0.9756
  445MOL0     H61357   9.631   3.851   1.558  1.5937 -0.7795  0.8937
  445MOL0     H61358   9.641   4.031   1.581 -0.9967  0.3224  0.2906
  445MOL0     H61359   9.683   4.106   1.854 -0.5959 -0.2802  3.3822
  445MOL0     H61360   9.879   4.069   2.062 -0.4595 -0.6895 -1.9187
  445MOL0     H61361   9.882   3.903   2.130 -0.1167  1.2625  2.1622
  445MOL0     H61362   9.716   4.046   2.255 -2.6044  2.6766 -1.0731
  445MOL0     H61363   9.620   4.058   2.121 -0.9372 -0.1509  1.6229
  445MOL0     H61364   9.629   3.785   2.127  0.4406 -0.9461 -0.0055
  445MOL0     H61365   9.750   3.804   2.258  0.4318  1.0978 -0.0484
  445MOL0     H61366   9.534   3.774   2.371  0.5964 -0.3389 -0.9159
  445MOL0     H61367   9.557   3.940   2.372 -3.4272 -0.6091  2.3946
  445MOL0     H61368   9.257   3.926   2.040 -0.3194 -0.2827  0.9161
  445MOL0     H61369   9.000   3.881   1.993  1.6850  0.9275 -0.2300
  445MOL0     H61370   9.006   3.737   1.881 -0.3266  0.2515 -1.2401
  445MOL0     H61371   9.112   3.865   1.852  1.7303 -3.7762 -2.1583
  445MOL0     H61372   8.956   3.314   1.821  0.6933  2.1946  1.2010
  445MOL0     H61373   8.773   3.132   1.813  2.1003 -3.7458 -0.7082
  445MOL0     H61374   8.662   2.919   2.176 -2.1235 -2.1942 -2.9280
  445MOL0     H61375   8.610   3.083   2.201  3.0510 -0.4461 -0.0041
  445MOL0     H61376   8.406   3.006   2.030 -2.7092 -2.7799 -0.6523
  445MOL0     H61377   8.486   2.859   2.036 -0.8347  1.2371 -2.7793
  445MOL0     H61378   8.419   2.821   2.258 -0.8625 -1.3142 -2.4012
  445MOL0     H61379   8.276   2.897   2.183 -0.7338 -2.8122  3.6981
  445MOL0     H61380   8.381   3.124   2.254 -2.1264  0.8064  1.0775
  445MOL0     H61381   8.453   3.029   2.389 -0.5507  1.3131  1.1941
  445MOL0     H61382   8.248   3.120   2.479 -4.4666 -1.3546 -0.3395
  445MOL0     H61383   8.175   3.095   2.330 -0.6359  1.1726 -0.1066
  445MOL0     H61384   8.261   2.887   2.537 -1.5232  0.5352  2.5727
  445MOL0     H61385   8.190   2.834   2.381  2.2363 -0.3702  0.1012
  445MOL0     H61386   7.976   2.959   2.446 -1.6525 -2.2016  1.1268
  445MOL0     H61387   8.044   3.014   2.598 -1.7480 -2.2039  3.0215
  445MOL0     H61388   8.097   2.763   2.644 -0.3333 -1.9078 -0.8537
  445MOL0     H61389   7.975   2.742   2.513  0.6410  2.0918 -1.7210
  445MOL0     H61390   8.891   3.026   2.209  0.0527 -1.0403 -0.4597
  445MOL0     H61391   9.087   3.172   2.191  0.4268 -2.3049 -0.6000
  445MOL0     H61392   9.304   3.453   2.131  2.9583  0.8827 -0.5111
  445MOL0     H61393   9.453   3.607   2.245 -1.4912 -0.0927  1.7491
  445MOL0     H61394   9.220   4.603   1.238  0.5336  1.2670  0.4357
  445MOL0     H61395   9.129   4.761   1.072  3.7626  1.2860  2.9810
  445MOL0     H61396   8.696   4.954   0.922  0.7213 -0.9478  1.7572
  445MOL0     H61397   8.615   5.058   0.715 -0.3146 -2.3008 -1.0153
  445MOL0     H61398   8.667   5.199   0.376  0.5774  0.8131 -0.1414
  445MOL0     H61399   8.587   5.118   0.516  0.0593  0.5392  2.3007
  445MOL0     H61400   8.645   5.353   0.640 -1.6747  1.1111  1.2931
  445MOL0     H61401   8.503   5.318   0.527 -0.6482  0.5177 -1.3241
  445MOL0     H61402   8.770   5.463   0.483  0.4464 -2.6073  1.4723
  445MOL0     H61403   8.672   5.408   0.348 -1.2928 -1.6306 -0.0773
  445MOL0     H61404   8.488   5.535   0.509  1.2938 -3.4494 -1.1176
  445MOL0     H61405   8.569   5.610   0.377 -1.4582 -0.2387  0.1977
  445MOL0     H61406   8.679   5.832   0.726 -3.0223  0.9181 -0.5566
  445MOL0     H61407   9.020   5.197   0.639 -0.4374  0.2870 -0.0251
  445MOL0     H61408   9.109   5.261   0.930 -1.7225 -0.6991  0.8519
  445MOL0     H61409   9.178   5.100   0.930  2.0894  0.1745 -1.4171
  445MOL0     H61410   9.179   5.192   0.778 -0.3633 -2.7065 -0.1280
  446MOL0     O61411   0.795   7.979  10.864  0.7247  0.4807 -0.0835
  446MOL0     C61412   0.743   7.931  10.963 -0.1841  0.2949  0.0891
  446MOL0     O61413   0.805   7.866  11.053  0.1893 -0.3093 -0.1805
  446MOL0     C61414   0.943   7.877  11.062  0.1278 -0.0636 -0.3641
  446MOL0     C61415   1.005   7.998  11.111 -0.1195  1.4566 -0.1276
  446MOL0     C61416   1.148   8.013  11.099 -1.0478  0.0959 -0.3472
  446MOL0     C61417   1.223   7.917  11.038 -0.3131 -0.1726 -0.0621
  446MOL0     O61418   1.357   7.942  11.016 -1.1637  0.1546  0.0215
  446MOL0     C61419   1.434   7.848  10.930 -0.3320 -0.3902 -0.7099
  446MOL0     C61420   1.576   7.893  10.929 -0.5452 -0.4911  0.2404
  446MOL0     C61421   1.663   7.780  10.872 -0.1028 -0.0658  0.5259
  446MOL0     C61422   1.736   7.691  10.980 -0.8999 -0.2606 -0.8321
  446MOL0     C61423   1.843   7.600  10.920  0.1835 -0.1531 -0.3231
  446MOL0     C61424   1.908   7.506  11.031 -0.5862  0.3181  0.2784
  446MOL0     C61425   2.025   7.564  11.113 -0.1424 -0.2046  0.0477
  446MOL0     C61426   2.059   7.459  11.220 -0.4944  0.6220 -0.7374
  446MOL0     N61427   2.179   7.489  11.298  0.4649 -0.0072 -0.1014
  446MOL0     C61428   2.307   7.445  11.288  0.3925  0.1873 -0.0009
  446MOL0     C61429   2.378   7.501  11.383 -0.7810 -0.2156 -0.3320
  446MOL0     C61430   2.528   7.468  11.410 -0.5812 -0.0983 -0.8350
  446MOL0     C61431   2.565   7.445  11.561  0.6146  0.4247  1.2332
  446MOL0     C61432   2.699   7.372  11.582 -0.3777 -0.2830 -0.0778
  446MOL0     C61433   2.812   7.421  11.487  0.0665 -0.6040  0.2926
  446MOL0     O61434   2.824   7.558  11.492  0.7503  0.6509 -0.5472
  446MOL0     C61435   2.904   7.626  11.406  0.6345  0.1923  0.1574
  446MOL0     C61436   2.968   7.566  11.301 -0.7020 -0.2587  1.2227
  446MOL0     C61437   3.061   7.640  11.217 -0.4730 -0.1997  0.3050
  446MOL0     C61438   3.113   7.568  11.084 -0.0794 -0.3801  0.0583
  446MOL0     C61439   3.083   7.782  11.249  0.3786 -0.1937  0.4404
  446MOL0     C61440   3.170   7.873  11.179 -0.0146  0.0873  0.2707
  446MOL0     O61441   3.167   8.006  11.218  0.2573 -0.6458 -0.3100
  446MOL0     C61442   3.252   8.099  11.160  0.1254 -0.1892 -0.4276
  446MOL0     C61443   3.245   8.117  11.023 -0.1045  1.2740 -0.1935
  446MOL0     C61444   3.319   8.226  10.969 -0.5251  0.3195 -0.3122
  446MOL0     C61445   3.399   8.305  11.046 -0.2330  0.4471  1.1230
  446MOL0     O61446   3.446   8.423  10.988  0.0385 -0.2964 -0.1092
  446MOL0     C61447   3.504   8.535  11.058 -0.5227 -0.3476 -0.9866
  446MOL0     C61448   3.405   8.627  11.132 -0.2089  0.2645 -0.8280
  446MOL0     C61449   3.317   8.716  11.035  0.0648  0.7381 -0.4420
  446MOL0     C61450   3.391   8.744  10.903  0.1370  0.2043 -0.2750
  446MOL0     C61451   3.321   8.859  10.833  0.5716 -1.3028  0.3028
  446MOL0     C61452   3.405   8.911  10.716  1.1574  0.7650  0.5347
  446MOL0     C61453   3.331   9.037  10.665 -0.1406 -0.0047 -0.5995
  446MOL0     C61454   3.205   9.012  10.578  0.6739 -1.1153 -0.1811
  446MOL0    Cl61455   3.159   9.176  10.490 -0.2138 -0.1578 -0.0402
  446MOL0     C61456   3.403   8.284  11.181 -0.1492 -0.7075 -0.9514
  446MOL0     C61457   3.335   8.177  11.243  0.0267  1.0002  0.3370
  446MOL0     O61458   3.255   7.827  11.104  0.4655  0.1863  0.6473
  446MOL0     C61459   3.010   7.834  11.361  0.2054 -1.2119  0.9057
  446MOL0     C61460   2.929   7.756  11.433  1.6440 -0.5577 -0.2816
  446MOL0     N61461   2.291   7.576  11.466 -0.3730 -0.2305 -0.0383
  446MOL0     N61462   2.174   7.576  11.409 -0.0153  0.1816 -0.6610
  446MOL0     C61463   1.165   7.800  10.994  0.6031  0.3910  0.5793
  446MOL0     C61464   1.026   7.776  11.018 -0.0555 -0.5619 -0.1704
  446MOL0     C61465   0.602   7.956  10.989  0.4548 -0.0320  0.2667
  446MOL0     C61466   0.538   7.856  11.070 -0.1620 -0.5259  0.4248
  446MOL0     C61467   0.403   7.870  11.100  0.7230 -1.1493 -0.5453
  446MOL0     C61468   0.331   7.983  11.066  0.2741  0.1878 -1.5499
  446MOL0     O61469   0.195   7.995  11.089  0.3229 -0.5246  0.3124
  446MOL0     C61470   0.142   7.941  11.215  0.4518 -0.6371  0.3584
  446MOL0     C61471   0.224   7.985  11.338 -0.7345 -0.4759 -0.4637
  446MOL0     C61472   0.156   7.969  11.470 -0.1605  0.2439 -0.5979
  446MOL0     C61473   0.251   7.997  11.589 -0.6358 -0.1385  0.4907
  446MOL0     C61474   0.333   7.877  11.628 -0.7806 -0.4720  0.5004
  446MOL0     C61475   0.399   7.772  11.636  0.8610  0.7431 -1.2005
  446MOL0     C61476   0.396   8.096  11.007  0.9482 -0.0725  0.4236
  446MOL0     C61477   0.539   8.082  10.963 -0.6944 -0.9603 -0.1809
  446MOL0     C61478   0.612   8.198  10.901  0.5109 -0.6091  0.4436
  446MOL0     H61479   0.948   8.085  11.142 -0.0954  2.1750 -2.0212
  446MOL0     H61480   1.185   8.110  11.132  0.8400 -0.6104 -0.2393
  446MOL0     H61481   1.394   7.845  10.828  1.1800  1.5411 -1.4214
  446MOL0     H61482   1.422   7.760  10.995 -1.4310  1.6591  2.0792
  446MOL0     H61483   1.596   7.985  10.874  1.4911 -0.5279  0.8348
  446MOL0     H61484   1.615   7.913  11.030  3.3998  1.0404 -1.4049
  446MOL0     H61485   1.599   7.710  10.818 -2.7015  2.2605  0.3535
  446MOL0     H61486   1.733   7.823  10.801  0.7214  2.6983  2.8382
  446MOL0     H61487   1.773   7.766  11.050  1.1872 -1.2690 -0.7860
  446MOL0     H61488   1.662   7.629  11.032 -1.6343 -0.2898 -1.8666
  446MOL0     H61489   1.922   7.657  10.870 -0.4364  0.2338 -0.8756
  446MOL0     H61490   1.797   7.537  10.844  0.9171 -1.6192  0.4186
  446MOL0     H61491   1.833   7.475  11.104  1.1527  1.6933  2.7773
  446MOL0     H61492   1.939   7.417  10.976 -2.8240 -1.1443  1.2474
  446MOL0     H61493   2.001   7.657  11.165  0.2946 -0.9116  1.5979
  446MOL0     H61494   2.112   7.581  11.049 -0.6231  2.5086 -0.0057
  446MOL0     H61495   1.985   7.461  11.300 -0.3249  3.0169 -0.5487
  446MOL0     H61496   2.067   7.362  11.170  0.6321 -0.1624  0.8453
  446MOL0     H61497   2.343   7.386  11.204  0.3334  1.9456 -1.3048
  446MOL0     H61498   2.579   7.554  11.366 -2.5452  0.9847 -1.1128
  446MOL0     H61499   2.556   7.385  11.344 -3.7193 -1.7079 -0.3632
  446MOL0     H61500   2.565   7.544  11.607  0.6319  1.3204 -0.6297
  446MOL0     H61501   2.485   7.398  11.618  0.7858  0.5164  1.5530
  446MOL0     H61502   2.723   7.406  11.684  1.5213  1.1386 -0.9323
  446MOL0     H61503   2.688   7.263  11.582  0.2329 -0.3431 -0.2654
  446MOL0     H61504   2.897   7.366  11.528  1.0857  0.2263 -0.6583
  446MOL0     H61505   2.787   7.374  11.391 -0.7288 -2.5538  1.3888
  446MOL0     H61506   2.958   7.460  11.281  1.6029 -0.1479 -0.9470
  446MOL0     H61507   3.069   7.626  11.003 -3.2721 -2.7936 -0.1209
  446MOL0     H61508   3.088   7.462  11.075 -1.3329  0.0955 -3.2092
  446MOL0     H61509   3.222   7.575  11.073 -0.2098  3.2432 -0.1390
  446MOL0     H61510   3.179   8.057  10.961  0.2007 -1.6003  2.0669
  446MOL0     H61511   3.310   8.256  10.865  0.3988  0.9888 -0.2033
  446MOL0     H61512   3.579   8.497  11.128 -0.5273  0.6021 -0.4561
  446MOL0     H61513   3.569   8.592  10.991 -1.3537  1.5405 -0.2361
  446MOL0     H61514   3.338   8.561  11.188 -0.6850  0.4443 -1.1883
  446MOL0     H61515   3.469   8.674  11.208  1.4098 -3.6723  0.5349
  446MOL0     H61516   3.299   8.815  11.079 -1.4400  0.4132 -0.3002
  446MOL0     H61517   3.220   8.670  11.019  0.5728 -0.6397  0.2423
  446MOL0     H61518   3.387   8.657  10.837 -1.0527 -1.2367  1.6118
  446MOL0     H61519   3.493   8.771  10.933 -0.3629 -1.1140  3.0671
  446MOL0     H61520   3.225   8.823  10.795  0.1567 -0.6816  0.7578
  446MOL0     H61521   3.308   8.941  10.905  1.9516 -1.5352  0.8596
  446MOL0     H61522   3.397   8.837  10.636 -0.4040  2.4505 -0.9668
  446MOL0     H61523   3.510   8.937  10.730  0.0074  4.3867  4.1301
  446MOL0     H61524   3.404   9.093  10.606  2.4507  0.2673  2.5781
  446MOL0     H61525   3.306   9.106  10.746 -3.4850 -2.2306  0.5125
  446MOL0     H61526   3.127   8.964  10.638  0.5145 -0.2746  0.2865
  446MOL0     H61527   3.238   8.938  10.503  1.5371 -1.0650  0.1424
  446MOL0     H61528   3.454   8.354  11.246 -0.4999  1.0447 -2.4896
  446MOL0     H61529   3.321   8.154  11.348 -3.2820 -1.7489 -0.5326
  446MOL0     H61530   3.032   7.934  11.397 -0.0355 -0.2726 -1.4015
  446MOL0     H61531   2.865   7.797  11.511 -0.2815 -4.1683  0.2290
  446MOL0     H61532   1.222   7.727  10.937  3.6050 -1.6037  5.4656
  446MOL0     H61533   0.996   7.674  10.997  3.9899 -2.3373  1.5233
  446MOL0     H61534   0.597   7.771  11.104  2.5371  1.3039  0.5639
  446MOL0     H61535   0.354   7.780  11.137  2.8342 -2.2897 -0.4190
  446MOL0     H61536   0.044   7.985  11.234  1.5387  1.6146  1.1563
  446MOL0     H61537   0.129   7.833  11.212 -0.0582 -0.5709 -2.9254
  446MOL0     H61538   0.251   8.090  11.323 -2.7754 -0.1260 -2.4331
  446MOL0     H61539   0.310   7.917  11.338  1.1034  1.7192 -1.6523
  446MOL0     H61540   0.076   8.042  11.483  2.3383  3.5162 -2.1856
  446MOL0     H61541   0.118   7.867  11.476  0.7668 -0.1129 -0.4910
  446MOL0     H61542   0.192   8.033  11.674 -0.3479  2.1754 -0.2129
  446MOL0     H61543   0.315   8.083  11.569 -1.2127  0.3369  0.6520
  446MOL0     H61544   0.455   7.681  11.641 -0.6755 -0.2669 -1.5160
  446MOL0     H61545   0.335   8.182  10.981 -3.9166 -3.4978 -0.7740
  446MOL0     H61546   0.648   8.190  10.798  1.2337  0.0294  0.6363
  446MOL0     H61547   0.534   8.274  10.897  0.3486 -0.6301  2.2934
  446MOL0     H61548   0.693   8.246  10.956  2.4547 -1.3918 -1.5966
  447MOL0     O61549   1.978   0.858   9.191 -1.0722 -0.0160 -0.4910
  447MOL0     C61550   1.872   0.823   9.149 -0.2154 -0.5097  0.4416
  447MOL0     O61551   1.745   0.838   9.212 -0.1259  0.2346  0.6592
  447MOL0     C61552   1.752   0.918   9.335  0.9930  0.7693 -0.1609
  447MOL0     C61553   1.843   0.890   9.439 -0.1824 -0.3406  0.6714
  447MOL0     C61554   1.853   0.971   9.551 -0.3746 -0.4453 -0.6029
  447MOL0     C61555   1.780   1.093   9.551  0.4106 -0.8682 -0.5023
  447MOL0     O61556   1.793   1.188   9.647  0.9707 -0.4935 -0.6943
  447MOL0     C61557   1.865   1.177   9.773 -0.0613 -0.4197  0.1609
  447MOL0     C61558   1.878   1.315   9.842  0.6536 -0.3077 -0.0544
  447MOL0     C61559   1.942   1.420   9.760 -0.3358  0.2501 -0.7115
  447MOL0     C61560   2.092   1.394   9.754 -0.0342  1.0054  0.1395
  447MOL0     C61561   2.151   1.496   9.660 -0.2401  0.5671  0.3577
  447MOL0     C61562   2.121   1.648   9.675  0.3006 -1.2823 -0.1712
  447MOL0     C61563   2.202   1.745   9.591  0.6563  0.8617 -0.1444
  447MOL0     C61564   2.353   1.743   9.625  0.2846 -0.0789 -0.6201
  447MOL0     N61565   2.412   1.823   9.519  0.2921 -0.7083 -0.4988
  447MOL0     C61566   2.439   1.767   9.398  0.1458  0.6685 -0.1809
  447MOL0     C61567   2.501   1.865   9.335 -0.0956  0.6781  0.1466
  447MOL0     C61568   2.547   1.872   9.194 -0.6428  0.1287  0.8048
  447MOL0     C61569   2.696   1.899   9.181 -0.6027 -0.1683  0.4924
  447MOL0     C61570   2.785   1.811   9.257 -0.0827  0.1192 -1.0592
  447MOL0     C61571   2.767   1.660   9.227  0.7350 -0.0859 -0.5271
  447MOL0     O61572   2.865   1.582   9.297  0.1437  1.3539  0.0190
  447MOL0     C61573   2.840   1.534   9.420  0.1656 -0.0975 -0.6614
  447MOL0     C61574   2.914   1.424   9.462  0.0572 -0.4261  0.1360
  447MOL0     C61575   2.896   1.360   9.581 -0.2407 -0.0763  0.0542
  447MOL0     C61576   2.977   1.238   9.615 -0.6254  0.0637 -0.1026
  447MOL0     C61577   2.809   1.417   9.675  0.6428 -0.4482  0.2113
  447MOL0     C61578   2.772   1.357   9.804  0.2390 -0.0566 -0.1584
  447MOL0     O61579   2.724   1.451   9.883 -0.3418 -0.1461  0.2829
  447MOL0     C61580   2.651   1.422  10.002 -0.7932  0.6825 -0.2697
  447MOL0     C61581   2.691   1.332  10.106  0.0507  0.5389 -1.0512
  447MOL0     C61582   2.604   1.320  10.221  0.3139  0.1036 -0.0352
  447MOL0     C61583   2.475   1.390  10.217  0.3484 -0.4616 -0.6393
  447MOL0     O61584   2.392   1.389  10.327 -0.4701  0.2997 -0.3478
  447MOL0     C61585   2.380   1.497  10.419  0.3331 -0.0594  0.4413
  447MOL0     C61586   2.490   1.471  10.528 -0.4126  0.3038 -0.3048
  447MOL0     C61587   2.492   1.579  10.628  0.3611 -0.0725 -0.1523
  447MOL0     C61588   2.570   1.699  10.583  0.8469  0.8121 -0.3560
  447MOL0     C61589   2.658   1.760  10.697  0.1015 -0.3898  0.3171
  447MOL0     C61590   2.730   1.879  10.623 -0.0315  0.4932 -0.7102
  447MOL0     C61591   2.662   2.020  10.642 -0.9022 -1.1167  0.8254
  447MOL0     C61592   2.685   2.104  10.512 -0.1462  0.2871  0.8208
  447MOL0    Cl61593   2.856   2.158  10.507 -0.2981 -0.2010 -0.1573
  447MOL0     C61594   2.448   1.482  10.112  0.7085 -0.3715  0.3254
  447MOL0     C61595   2.539   1.495  10.012  0.8194  0.1172  0.6151
  447MOL0     O61596   2.770   1.239   9.829 -0.2606  0.0898 -0.1392
  447MOL0     C61597   2.727   1.526   9.633 -0.1934 -0.1472  0.4097
  447MOL0     C61598   2.745   1.586   9.505 -0.1662  0.1627 -0.3413
  447MOL0     N61599   2.529   1.970   9.424  0.7986  1.0538 -0.2578
  447MOL0     N61600   2.477   1.940   9.538 -0.0669 -0.2354 -0.5347
  447MOL0     C61601   1.685   1.120   9.452  0.5813 -0.8159  0.4425
  447MOL0     C61602   1.660   1.020   9.352  0.1112  0.4759 -0.1240
  447MOL0     C61603   1.866   0.769   9.007  0.0603  0.1539 -0.3144
  447MOL0     C61604   1.988   0.732   8.947 -0.8086 -0.8703 -0.5712
  447MOL0     C61605   1.990   0.696   8.818  0.1143 -0.3686 -0.1530
  447MOL0     C61606   1.873   0.677   8.747 -0.1123  0.3734 -0.0520
  447MOL0     O61607   1.877   0.624   8.620  0.5346  0.8305  0.2522
  447MOL0     C61608   1.980   0.536   8.570  0.1366 -1.0335 -0.3385
  447MOL0     C61609   1.941   0.396   8.503 -0.1512 -1.3518 -0.9983
  447MOL0     C61610   1.830   0.401   8.397  0.1166 -0.1413 -0.3129
  447MOL0     C61611   1.800   0.269   8.320 -0.8672 -0.3593 -1.1690
  447MOL0     C61612   1.767   0.159   8.418  0.0835 -0.0918  0.0976
  447MOL0     C61613   1.726   0.066   8.489 -0.9001 -1.0249 -0.1708
  447MOL0     C61614   1.750   0.701   8.803  0.6760  0.9278  0.0250
  447MOL0     C61615   1.745   0.755   8.937 -0.1021 -0.5550  0.0598
  447MOL0     C61616   1.613   0.809   8.981  0.2852  0.3374  1.0745
  447MOL0     H61617   1.896   0.796   9.425 -0.1400  0.0200 -2.4932
  447MOL0     H61618   1.920   0.946   9.633  0.7841 -3.1058 -2.2029
  447MOL0     H61619   1.965   1.139   9.748  0.3359  0.7393 -0.0841
  447MOL0     H61620   1.818   1.113   9.847  0.3297  0.6731  1.3981
  447MOL0     H61621   1.774   1.345   9.857  0.8213 -0.2317  1.0047
  447MOL0     H61622   1.920   1.306   9.943  1.0663  0.2305 -0.1732
  447MOL0     H61623   1.894   1.426   9.662  1.0220 -1.9233 -1.5839
  447MOL0     H61624   1.929   1.513   9.815  2.8415  0.6428 -0.4505
  447MOL0     H61625   2.132   1.407   9.855  0.7404 -1.3496  0.2028
  447MOL0     H61626   2.124   1.294   9.722 -0.4225 -0.1077  3.0111
  447MOL0     H61627   2.124   1.478   9.555  3.4910  0.7895 -0.7877
  447MOL0     H61628   2.259   1.481   9.660 -0.3998 -0.9155 -0.7701
  447MOL0     H61629   2.017   1.649   9.643  0.7294  0.6981 -1.6341
  447MOL0     H61630   2.130   1.666   9.783  0.0645 -2.0706 -0.0115
  447MOL0     H61631   2.154   1.843   9.598 -0.5066  0.3451 -0.5823
  447MOL0     H61632   2.174   1.708   9.492 -1.2611  1.2155  0.2161
  447MOL0     H61633   2.379   1.780   9.724  2.0962 -2.0643 -0.2564
  447MOL0     H61634   2.390   1.640   9.614 -1.3908 -1.1621  2.5967
  447MOL0     H61635   2.410   1.673   9.353  1.0067 -0.3664  1.3571
  447MOL0     H61636   2.489   1.953   9.147  0.1860  0.8282  0.9535
  447MOL0     H61637   2.526   1.778   9.142 -0.8133  0.7927 -0.3670
  447MOL0     H61638   2.732   1.895   9.078  0.3809 -1.4119  0.8528
  447MOL0     H61639   2.718   2.002   9.214  0.0166 -0.3921  0.7924
  447MOL0     H61640   2.881   1.839   9.212 -0.0308  0.4521 -0.7431
  447MOL0     H61641   2.784   1.820   9.366 -1.6990  0.3058 -1.0696
  447MOL0     H61642   2.662   1.643   9.252  0.5028  4.0116  2.1781
  447MOL0     H61643   2.779   1.643   9.120 -0.0421 -0.0220 -0.6312
  447MOL0     H61644   2.987   1.374   9.400  3.3337  3.4655  0.4344
  447MOL0     H61645   2.995   1.241   9.723 -0.8131 -1.9372  0.0281
  447MOL0     H61646   3.073   1.248   9.563  1.0101  0.4351  2.8027
  447MOL0     H61647   2.930   1.141   9.594 -0.0911  0.0682 -1.4412
  447MOL0     H61648   2.786   1.281  10.109  0.4005  0.6777 -4.7361
  447MOL0     H61649   2.634   1.264  10.309 -0.5679  0.4314  0.4887
  447MOL0     H61650   2.368   1.597  10.378 -0.9725  0.4063  1.8384
  447MOL0     H61651   2.283   1.480  10.469  0.1928 -2.8807 -0.5727
  447MOL0     H61652   2.470   1.373  10.573  0.2882 -0.3664 -1.3795
  447MOL0     H61653   2.591   1.467  10.485 -0.8410  1.4274 -1.4557
  447MOL0     H61654   2.521   1.547  10.729  1.2366  0.6674 -0.1604
  447MOL0     H61655   2.389   1.611  10.647  0.4406  2.1816 -2.9697
  447MOL0     H61656   2.492   1.765  10.545 -1.2473 -0.1273  1.9928
  447MOL0     H61657   2.646   1.674  10.508  1.2333  3.0730 -0.7846
  447MOL0     H61658   2.587   1.787  10.776  1.4371  0.3829  1.3039
  447MOL0     H61659   2.731   1.685  10.731  0.6962 -0.1178 -0.3316
  447MOL0     H61660   2.742   1.850  10.519  2.8512 -0.4612 -0.2173
  447MOL0     H61661   2.834   1.895  10.655  0.1982  0.9398 -1.6566
  447MOL0     H61662   2.709   2.070  10.728  0.5436  1.1744 -1.1647
  447MOL0     H61663   2.555   2.005  10.654 -1.4077  1.0066 -0.4717
  447MOL0     H61664   2.632   2.199  10.528 -0.9764  0.4882 -2.3259
  447MOL0     H61665   2.655   2.054  10.419  1.4739  1.0640 -0.1668
  447MOL0     H61666   2.350   1.528  10.109  1.6047  1.6462  0.8209
  447MOL0     H61667   2.497   1.553   9.930 -2.1856 -0.9602  1.2669
  447MOL0     H61668   2.643   1.577   9.680 -1.2936  0.6063 -2.2078
  447MOL0     H61669   2.681   1.669   9.477  2.1195  2.3379  0.5665
  447MOL0     H61670   1.620   1.207   9.458 -0.7719 -1.8823  3.2590
  447MOL0     H61671   1.585   1.033   9.275 -0.2309  1.5403  0.3553
  447MOL0     H61672   2.078   0.742   9.006  0.2273 -1.8464 -1.9483
  447MOL0     H61673   2.091   0.688   8.778  0.7623  1.6057  0.9655
  447MOL0     H61674   2.034   0.597   8.497 -1.9961 -0.0421 -1.1617
  447MOL0     H61675   2.059   0.521   8.645 -1.5409 -1.9264  1.3304
  447MOL0     H61676   1.926   0.329   8.589  0.1161  1.8941  1.8076
  447MOL0     H61677   2.025   0.347   8.454  1.9132 -0.2049  1.1693
  447MOL0     H61678   1.745   0.444   8.452  2.0191  1.4246  1.5969
  447MOL0     H61679   1.864   0.476   8.325 -1.6784  0.5174 -0.5429
  447MOL0     H61680   1.888   0.239   8.263  1.8998  0.2953  2.3582
  447MOL0     H61681   1.713   0.272   8.254 -2.0737 -1.6731  0.2857
  447MOL0     H61682   1.708  -0.028   8.538 -0.1929 -0.4986  1.1209
  447MOL0     H61683   1.669   0.689   8.731  0.4763 -0.8091  0.4969
  447MOL0     H61684   1.560   0.734   9.041 -2.0341  0.2930 -0.8935
  447MOL0     H61685   1.634   0.908   9.023  0.0434  1.5940 -1.5813
  447MOL0     H61686   1.557   0.831   8.890  2.3564  0.2060 -0.3180
  448MOL0     O61687   2.960   8.125   5.339  0.1599  0.2700 -0.2360
  448MOL0     C61688   2.969   8.005   5.333 -0.3796 -0.2902  0.5183
  448MOL0     O61689   3.089   7.934   5.302  1.0274 -0.5331 -0.2375
  448MOL0     C61690   3.201   7.995   5.258 -0.5812 -0.4503 -0.3550
  448MOL0     C61691   3.255   8.118   5.301  0.2377 -0.4869  0.1701
  448MOL0     C61692   3.371   8.176   5.251  0.8994 -0.8361  0.6853
  448MOL0     C61693   3.446   8.105   5.149  0.2430 -0.3623 -0.3336
  448MOL0     O61694   3.579   8.139   5.111  0.2726 -0.3700 -0.2236
  448MOL0     C61695   3.659   8.210   5.214  0.1866  0.7245  0.1528
  448MOL0     C61696   3.806   8.203   5.203 -0.6481  0.7490  0.3694
  448MOL0     C61697   3.859   8.294   5.094  0.3603 -0.0657 -0.5139
  448MOL0     C61698   4.003   8.324   5.086 -0.6135  0.5713 -0.6510
  448MOL0     C61699   4.041   8.420   4.974  0.3622 -0.4316 -0.5916
  448MOL0     C61700   4.185   8.468   4.983  0.1174 -0.3432  0.8064
  448MOL0     C61701   4.235   8.539   4.863  0.4383 -0.6417  0.1201
  448MOL0     C61702   4.371   8.615   4.895  0.6340 -0.5338  0.3418
  448MOL0     N61703   4.474   8.517   4.873 -0.5446 -0.0007 -0.5688
  448MOL0     C61704   4.549   8.452   4.964 -0.4864 -0.5266  0.7555
  448MOL0     C61705   4.646   8.386   4.898 -0.4849 -1.5424 -0.0731
  448MOL0     C61706   4.757   8.313   4.963  0.8973 -0.3808  0.7550
  448MOL0     C61707   4.901   8.367   4.932  0.4852 -0.6933 -0.6391
  448MOL0     C61708   4.918   8.486   5.028  0.7914 -0.2012 -0.5697
  448MOL0     C61709   5.041   8.578   4.994 -0.3204  1.0692 -0.4407
  448MOL0     O61710   5.158   8.519   5.045  0.4961  0.1633  0.0434
  448MOL0     C61711   5.276   8.581   5.018 -0.3096 -0.0071  0.3807
  448MOL0     C61712   5.376   8.493   4.992 -0.6150  0.0894 -0.6874
  448MOL0     C61713   5.506   8.536   4.968 -0.3197  0.0204 -0.1895
  448MOL0     C61714   5.606   8.425   4.952  0.8548 -0.3266  0.2692
  448MOL0     C61715   5.537   8.676   4.981 -0.1266 -0.3936 -0.2917
  448MOL0     C61716   5.676   8.729   4.957 -0.7751  0.0766 -0.1953
  448MOL0     O61717   5.706   8.846   5.009 -0.5327  0.6997 -1.2293
  448MOL0     C61718   5.839   8.888   5.022  1.4072 -0.1766 -0.5421
  448MOL0     C61719   5.852   9.003   5.098 -0.0115  0.0151 -0.0697
  448MOL0     C61720   5.983   9.064   5.120  0.4604  0.1000 -0.6211
  448MOL0     C61721   6.102   8.994   5.082 -0.1498  0.2312 -0.3165
  448MOL0     O61722   6.233   9.033   5.095  0.0457 -0.6760  0.1979
  448MOL0     C61723   6.259   9.155   5.166  0.3978 -0.3577 -0.4494
  448MOL0     C61724   6.409   9.161   5.194  0.6771  0.0050  0.4038
  448MOL0     C61725   6.455   9.052   5.285 -0.4400  0.2990 -0.1497
  448MOL0     C61726   6.597   9.088   5.335 -0.7162 -0.1201 -0.0135
  448MOL0     C61727   6.662   9.002   5.447 -0.0982  0.3343 -0.5310
  448MOL0     C61728   6.636   9.060   5.586  1.0186 -0.4806  0.3184
  448MOL0     C61729   6.708   9.002   5.701 -0.1097 -0.3201  0.5982
  448MOL0     C61730   6.683   9.071   5.833  0.0428 -0.2911  0.0365
  448MOL0    Cl61731   6.514   9.065   5.888 -0.1788 -0.1824  0.1698
  448MOL0     C61732   6.084   8.874   5.013  0.2808 -0.1366 -0.1370
  448MOL0     C61733   5.956   8.832   4.972 -0.6520 -0.5840  0.4477
  448MOL0     O61734   5.733   8.681   4.858 -0.2445 -0.6907  0.0255
  448MOL0     C61735   5.437   8.764   5.020  1.0877  0.1588 -0.3408
  448MOL0     C61736   5.305   8.719   5.023 -0.3046 -0.1784 -0.1333
  448MOL0     N61737   4.628   8.411   4.757 -0.3217 -0.0053 -0.4048
  448MOL0     N61738   4.520   8.488   4.751 -0.7563 -0.3009 -0.6286
  448MOL0     C61739   3.394   7.984   5.107  0.4308  0.5541  0.5197
  448MOL0     C61740   3.271   7.937   5.159 -0.0703 -0.0287  0.0118
  448MOL0     C61741   2.852   7.924   5.350 -0.3649 -0.4348  0.4170
  448MOL0     C61742   2.753   7.988   5.420  0.6123  0.1742 -0.0480
  448MOL0     C61743   2.644   7.920   5.474 -0.8083 -0.4008 -0.2679
  448MOL0     C61744   2.624   7.793   5.435 -0.1609  0.3948 -0.0753
  448MOL0     O61745   2.519   7.720   5.479 -0.0269 -0.1635  0.4266
  448MOL0     C61746   2.392   7.736   5.398 -0.1533 -0.5606 -1.0276
  448MOL0     C61747   2.333   7.873   5.399 -0.7301  0.1668  0.1731
  448MOL0     C61748   2.303   7.948   5.525  0.0821 -0.6567 -0.2010
  448MOL0     C61749   2.250   8.084   5.521 -0.0986 -0.0968  0.5192
  448MOL0     C61750   2.125   8.101   5.445 -0.4592 -0.4775 -0.5144
  448MOL0     C61751   2.012   8.109   5.398  0.1803  0.5740 -0.2566
  448MOL0     C61752   2.714   7.732   5.354 -0.0214 -0.6909 -0.1262
  448MOL0     C61753   2.832   7.789   5.314 -0.3669 -0.5605  0.6907
  448MOL0     C61754   2.946   7.703   5.255  0.2973 -0.9458 -0.6237
  448MOL0     H61755   3.197   8.172   5.375  3.2921  2.0218  0.9467
  448MOL0     H61756   3.379   8.276   5.291  1.1450 -0.8560  0.6867
  448MOL0     H61757   3.650   8.163   5.313  4.2246 -2.2677 -0.6266
  448MOL0     H61758   3.624   8.312   5.232 -3.7144 -0.4196 -0.1562
  448MOL0     H61759   3.856   8.225   5.298 -0.5850 -0.1577  0.5546
  448MOL0     H61760   3.825   8.099   5.173 -0.0809  1.2298 -1.0201
  448MOL0     H61761   3.824   8.262   4.996  0.8240 -0.1012 -0.6671
  448MOL0     H61762   3.806   8.388   5.117  1.4532  0.5294 -0.3597
  448MOL0     H61763   4.031   8.364   5.184  0.3815 -1.7796  0.1008
  448MOL0     H61764   4.053   8.227   5.085 -0.5462  0.6107 -2.0077
  448MOL0     H61765   3.979   8.509   4.988 -1.7792 -1.9505  0.0089
  448MOL0     H61766   4.014   8.377   4.877 -1.3221  2.0839 -1.3521
  448MOL0     H61767   4.206   8.530   5.071  3.4937 -1.2981  0.7942
  448MOL0     H61768   4.249   8.381   4.998 -1.4385 -1.7616 -0.3845
  448MOL0     H61769   4.173   8.625   4.837  1.6195  1.0356  2.5204
  448MOL0     H61770   4.245   8.478   4.773 -0.3538  0.6060 -0.8536
  448MOL0     H61771   4.387   8.696   4.823 -2.1985  0.6489  0.9046
  448MOL0     H61772   4.377   8.659   4.996  1.1985  0.7178 -0.2099
  448MOL0     H61773   4.537   8.454   5.072 -0.9032  0.5932  0.7004
  448MOL0     H61774   4.759   8.207   4.940  0.2294 -0.3142  0.3779
  448MOL0     H61775   4.739   8.315   5.071  1.3478 -2.8030  0.9120
  448MOL0     H61776   4.977   8.293   4.958  4.6381  3.1351 -0.6543
  448MOL0     H61777   4.910   8.396   4.827  2.5002  1.1410 -0.0145
  448MOL0     H61778   4.830   8.550   5.027  1.4657  0.7431 -1.5561
  448MOL0     H61779   4.928   8.452   5.131  7.0001  3.1179  0.3884
  448MOL0     H61780   5.055   8.578   4.885 -0.1368  0.1421 -0.4281
  448MOL0     H61781   5.015   8.672   5.043 -3.1714 -1.2648  3.0352
  448MOL0     H61782   5.347   8.388   4.987 -0.9455 -0.0643  2.2754
  448MOL0     H61783   5.629   8.422   4.845 -0.0514  2.7522 -0.1192
  448MOL0     H61784   5.568   8.329   4.987 -0.2440  1.0650  3.2753
  448MOL0     H61785   5.693   8.455   5.012  2.5451 -1.5053 -1.4940
  448MOL0     H61786   5.767   9.058   5.137  1.0293  2.0664 -0.5412
  448MOL0     H61787   5.987   9.152   5.184 -2.5300 -0.6256  0.7425
  448MOL0     H61788   6.217   9.235   5.104 -1.5400 -1.5388 -0.7672
  448MOL0     H61789   6.200   9.156   5.258 -0.7854  2.3312 -1.1550
  448MOL0     H61790   6.455   9.164   5.095  0.2734 -0.7592  0.1846
  448MOL0     H61791   6.434   9.254   5.247  1.7246 -1.6668  3.0573
  448MOL0     H61792   6.471   8.956   5.235 -1.1591 -0.0983  0.3597
  448MOL0     H61793   6.387   9.032   5.368 -1.4500  2.7783 -0.2979
  448MOL0     H61794   6.593   9.191   5.373  0.0674 -0.1059  0.0494
  448MOL0     H61795   6.671   9.089   5.255  0.3291 -1.2406  0.9123
  448MOL0     H61796   6.621   8.901   5.446  1.0126 -0.1737  1.2011
  448MOL0     H61797   6.771   9.001   5.438  0.0672  0.5980  1.1051
  448MOL0     H61798   6.530   9.064   5.614  1.2857  0.9436  1.2618
  448MOL0     H61799   6.660   9.167   5.592 -2.4208  0.4247  0.3919
  448MOL0     H61800   6.814   9.005   5.672 -0.3313  1.1595 -0.1757
  448MOL0     H61801   6.683   8.897   5.719  3.1881 -1.2907  0.2457
  448MOL0     H61802   6.707   9.177   5.839  4.5678 -1.2064  1.6832
  448MOL0     H61803   6.742   9.029   5.914  0.9345  0.3846 -0.2569
  448MOL0     H61804   6.172   8.813   4.992 -0.0364 -1.7789  2.7271
  448MOL0     H61805   5.962   8.736   4.922  1.8913 -0.0897 -0.3301
  448MOL0     H61806   5.449   8.871   5.033  0.2863  0.2226 -0.0904
  448MOL0     H61807   5.215   8.780   5.030 -1.3064 -1.5239 -0.7852
  448MOL0     H61808   3.456   7.938   5.031 -1.2617 -2.5456  0.8482
  448MOL0     H61809   3.236   7.836   5.139 -1.8203  0.3545  0.9256
  448MOL0     H61810   2.764   8.095   5.436  2.1368  0.2168 -1.1733
  448MOL0     H61811   2.578   7.975   5.541  0.8559  2.5437 -0.8856
  448MOL0     H61812   2.413   7.705   5.295 -1.3176 -3.2611 -0.5468
  448MOL0     H61813   2.319   7.664   5.437 -2.0875  0.5431 -2.4552
  448MOL0     H61814   2.243   7.849   5.342  0.1808 -3.1333 -0.0625
  448MOL0     H61815   2.408   7.937   5.350 -1.2353  1.6528  1.2585
  448MOL0     H61816   2.225   7.892   5.579  1.0251  0.8598  2.9799
  448MOL0     H61817   2.383   7.948   5.600 -2.3135  2.0723  2.6396
  448MOL0     H61818   2.329   8.147   5.478 -2.0863  1.1253 -1.5497
  448MOL0     H61819   2.222   8.116   5.621 -0.3392  0.4508  0.2803
  448MOL0     H61820   1.912   8.129   5.365  0.1425 -1.0768 -1.2466
  448MOL0     H61821   2.696   7.627   5.333 -4.1698  0.0031 -0.9864
  448MOL0     H61822   3.022   7.684   5.331  0.3322  3.0210  0.5359
  448MOL0     H61823   2.915   7.604   5.219  2.8085 -2.6571  1.5302
  448MOL0     H61824   2.981   7.749   5.162 -3.3968 -0.1478 -1.8013
  449MOL0     O61825   5.016   2.859   4.125 -0.0504 -0.2345 -0.0001
  449MOL0     C61826   4.933   2.920   4.194 -0.4556 -0.6083  0.4137
  449MOL0     O61827   4.950   3.046   4.227 -0.4759 -0.5641 -0.2961
  449MOL0     C61828   5.073   3.101   4.189  1.2281  0.7596 -0.5008
  449MOL0     C61829   5.058   3.211   4.103  0.0114 -0.7365  0.0590
  449MOL0     C61830   5.173   3.292   4.072 -0.3742  0.5292  0.1858
  449MOL0     C61831   5.299   3.272   4.137  0.7685 -0.3663  0.0850
  449MOL0     O61832   5.412   3.350   4.116  0.0710  0.7624 -0.4133
  449MOL0     C61833   5.402   3.481   4.061  0.8773  0.1713 -0.2041
  449MOL0     C61834   5.523   3.565   4.119 -0.2678  1.0078 -1.4336
  449MOL0     C61835   5.496   3.713   4.091  0.1582 -0.3725  0.0962
  449MOL0     C61836   5.611   3.809   4.079  0.0862 -1.0085  0.1230
  449MOL0     C61837   5.666   3.841   4.218  0.4311  0.1670  0.5850
  449MOL0     C61838   5.590   3.948   4.302 -0.7179  0.0856 -0.3900
  449MOL0     C61839   5.663   3.979   4.433  0.2271 -0.0451 -0.0309
  449MOL0     C61840   5.593   4.097   4.504  0.3088 -0.1212  0.4216
  449MOL0     N61841   5.669   4.119   4.629  0.1597  1.0539 -0.0395
  449MOL0     C61842   5.686   4.024   4.725 -0.0236  0.0247  0.2194
  449MOL0     C61843   5.747   4.084   4.831 -0.6086 -0.7889  0.1622
  449MOL0     C61844   5.799   4.022   4.963  0.0527 -0.0785  0.5266
  449MOL0     C61845   5.714   4.082   5.081 -0.2898 -0.3140  0.7664
  449MOL0     C61846   5.710   3.986   5.202  0.2790  0.4300 -0.2255
  449MOL0     C61847   5.613   4.035   5.313 -0.3417  0.5195 -0.2897
  449MOL0     O61848   5.478   4.052   5.272 -0.3486 -0.0195  0.4150
  449MOL0     C61849   5.392   4.105   5.351  1.2905 -0.3434 -0.4683
  449MOL0     C61850   5.421   4.150   5.483  0.3148  0.5601  0.5952
  449MOL0     C61851   5.327   4.209   5.561  0.3232  0.2556  0.1627
  449MOL0     C61852   5.363   4.252   5.694 -0.0702 -0.3909 -1.3381
  449MOL0     C61853   5.191   4.219   5.524 -0.5823  0.2902  0.7933
  449MOL0     C61854   5.078   4.252   5.612 -0.3036  0.0354  0.8328
  449MOL0     O61855   5.104   4.311   5.737  0.4585  0.5989  0.3984
  449MOL0     C61856   4.998   4.338   5.816  0.3475  0.1255  0.0083
  449MOL0     C61857   4.923   4.231   5.859  0.3758  0.0566 -1.2702
  449MOL0     C61858   4.812   4.254   5.948  0.2037  0.4427  0.6600
  449MOL0     C61859   4.784   4.386   6.005  0.1759  0.1961 -0.4762
  449MOL0     O61860   4.702   4.404   6.115  0.2096 -0.5658 -0.1857
  449MOL0     C61861   4.612   4.520   6.103 -0.6794  0.2864 -0.3297
  449MOL0     C61862   4.481   4.474   6.157  0.1424  0.4399  0.3949
  449MOL0     C61863   4.409   4.379   6.064 -0.2914  0.2983 -0.6497
  449MOL0     C61864   4.255   4.381   6.104 -0.5524  0.2993  0.7516
  449MOL0     C61865   4.178   4.277   6.022 -0.2353  0.2212 -0.1604
  449MOL0     C61866   4.235   4.130   6.021  0.4369 -0.3263 -0.2912
  449MOL0     C61867   4.266   4.058   6.156 -0.3407 -1.4800 -0.0527
  449MOL0     C61868   4.304   3.908   6.145 -0.3444 -0.2824 -0.4194
  449MOL0    Cl61869   4.392   3.864   5.988 -0.2177  0.4874  0.2516
  449MOL0     C61870   4.868   4.483   5.957  0.5887  0.0905  0.4416
  449MOL0     C61871   4.969   4.459   5.863 -0.3969 -0.4002  0.5382
  449MOL0     O61872   4.968   4.217   5.569  0.1699  0.0173 -0.0786
  449MOL0     C61873   5.158   4.161   5.399 -0.4184  1.3075 -0.5842
  449MOL0     C61874   5.260   4.115   5.310  0.4071 -0.7855  0.7680
  449MOL0     N61875   5.773   4.213   4.781 -0.5383  0.8626 -0.0851
  449MOL0     N61876   5.707   4.240   4.674 -0.3097  0.1196  0.0960
  449MOL0     C61877   5.310   3.162   4.220 -0.4150 -0.7049  1.3717
  449MOL0     C61878   5.200   3.079   4.250  0.5405 -0.0913  1.0312
  449MOL0     C61879   4.797   2.867   4.204  0.0842 -1.0504 -0.3599
  449MOL0     C61880   4.742   2.799   4.093  0.1506 -0.1110 -0.0750
  449MOL0     C61881   4.617   2.739   4.105  0.2341  0.2276  0.0720
  449MOL0     C61882   4.541   2.744   4.221 -0.7389  0.4401 -0.1092
  449MOL0     O61883   4.416   2.694   4.230  0.2587  0.9472 -0.3884
  449MOL0     C61884   4.311   2.783   4.252 -0.3375  0.6665  0.3391
  449MOL0     C61885   4.188   2.761   4.161  0.3662 -0.0496  0.1374
  449MOL0     C61886   4.152   2.611   4.164  0.2833  0.6606  0.1352
  449MOL0     C61887   4.013   2.585   4.102 -1.2200 -0.3362  0.1369
  449MOL0     C61888   3.910   2.652   4.180  0.0991 -0.4441  1.2146
  449MOL0     C61889   3.822   2.707   4.235  0.9875  0.4115  0.8893
  449MOL0     C61890   4.592   2.820   4.327  0.7702  0.3778  0.0300
  449MOL0     C61891   4.719   2.873   4.326  0.6818  0.2733  1.0174
  449MOL0     C61892   4.778   2.934   4.459  0.8572  0.4870  0.3509
  449MOL0     H61893   4.961   3.231   4.059 -0.6638  0.6045  2.0429
  449MOL0     H61894   5.159   3.367   3.995 -2.2650 -0.5633 -0.6043
  449MOL0     H61895   5.309   3.521   4.101  1.3184  0.3965  0.6187
  449MOL0     H61896   5.391   3.479   3.952  0.3711 -0.4841 -0.1506
  449MOL0     H61897   5.524   3.569   4.228  1.1885  2.6332 -1.4557
  449MOL0     H61898   5.615   3.518   4.083 -0.2271 -0.8334  0.8035
  449MOL0     H61899   5.448   3.729   3.994 -0.5692  0.7387  0.6112
  449MOL0     H61900   5.427   3.759   4.162  1.0580  0.9686  0.1398
  449MOL0     H61901   5.686   3.780   4.005  0.4068  1.3817 -0.5704
  449MOL0     H61902   5.576   3.904   4.038 -0.0324 -1.3794 -0.6628
  449MOL0     H61903   5.761   3.895   4.208 -0.0856  1.5178  2.3643
  449MOL0     H61904   5.685   3.746   4.268  0.1068  0.3039  0.9731
  449MOL0     H61905   5.594   4.036   4.237  1.8838 -0.7011 -1.4137
  449MOL0     H61906   5.485   3.921   4.320 -0.1385 -2.1585 -0.0605
  449MOL0     H61907   5.769   4.007   4.426 -0.0985  0.7921 -3.3561
  449MOL0     H61908   5.667   3.887   4.493  0.2776  0.6646  1.0923
  449MOL0     H61909   5.591   4.185   4.439 -1.2422  2.0314  3.1511
  449MOL0     H61910   5.490   4.074   4.530  0.3711 -1.4122 -0.4002
  449MOL0     H61911   5.663   3.918   4.713 -0.8017  0.2538 -0.4290
  449MOL0     H61912   5.907   4.029   4.974  0.4585 -2.8397 -0.8872
  449MOL0     H61913   5.784   3.914   4.957  0.5629 -0.3374  2.7553
  449MOL0     H61914   5.751   4.183   5.102 -1.2239  1.2134 -3.7945
  449MOL0     H61915   5.610   4.095   5.049  0.5729  1.0276 -1.7401
  449MOL0     H61916   5.683   3.888   5.161 -0.2935  1.1889 -1.7369
  449MOL0     H61917   5.805   3.979   5.255  0.0016  0.3532  0.2657
  449MOL0     H61918   5.604   3.959   5.392  4.9904 -0.7432 -0.5407
  449MOL0     H61919   5.654   4.125   5.359 -0.7278  0.3101  0.4851
  449MOL0     H61920   5.521   4.145   5.524  0.2446 -2.5554  0.5554
  449MOL0     H61921   5.302   4.187   5.756 -2.9559  3.5874  0.4412
  449MOL0     H61922   5.337   4.356   5.715  1.2538 -0.3291  0.1811
  449MOL0     H61923   5.470   4.247   5.717 -0.0409  4.0650  0.5519
  449MOL0     H61924   4.933   4.134   5.813 -0.6761 -0.0103 -1.3644
  449MOL0     H61925   4.760   4.165   5.982 -1.2752  1.3074  0.7445
  449MOL0     H61926   4.655   4.599   6.164  0.1793  1.0003 -1.8060
  449MOL0     H61927   4.602   4.547   5.998  2.4989 -0.5451 -0.9378
  449MOL0     H61928   4.492   4.422   6.253 -0.7565 -0.4596  0.0355
  449MOL0     H61929   4.418   4.562   6.175 -0.9303  0.2016 -1.8322
  449MOL0     H61930   4.448   4.281   6.093 -1.0505  0.5512  1.3824
  449MOL0     H61931   4.433   4.401   5.960  1.2425  3.7342  0.2841
  449MOL0     H61932   4.224   4.484   6.085  3.6216  1.2958 -2.2927
  449MOL0     H61933   4.246   4.358   6.210 -1.6483 -0.1147  0.5700
  449MOL0     H61934   4.075   4.271   6.057 -0.1212 -0.5934  0.0543
  449MOL0     H61935   4.179   4.302   5.916  1.6592  1.6924  0.1571
  449MOL0     H61936   4.330   4.131   5.966  0.1890 -1.4477 -0.7560
  449MOL0     H61937   4.174   4.067   5.957  3.6903 -3.3166 -0.7274
  449MOL0     H61938   4.175   4.078   6.213  2.5884  0.0329  4.7161
  449MOL0     H61939   4.345   4.119   6.202 -0.4666 -1.3793  0.0299
  449MOL0     H61940   4.210   3.853   6.150  1.3943 -3.6219 -1.4096
  449MOL0     H61941   4.367   3.875   6.229  2.8883  1.4405 -1.9411
  449MOL0     H61942   4.848   4.586   5.985 -0.4840  0.3424 -1.1561
  449MOL0     H61943   5.014   4.550   5.824 -1.7660  1.3509  2.7813
  449MOL0     H61944   5.058   4.137   5.365  0.4747 -2.9460 -0.7779
  449MOL0     H61945   5.235   4.075   5.213  2.2182 -1.2601  0.4714
  449MOL0     H61946   5.404   3.143   4.270  1.1272 -1.3365 -1.5953
  449MOL0     H61947   5.200   2.999   4.324  1.3902 -0.5166  0.5965
  449MOL0     H61948   4.785   2.807   3.994 -0.1829  1.3177 -0.1376
  449MOL0     H61949   4.567   2.707   4.015 -1.1697  1.5654  0.3352
  449MOL0     H61950   4.294   2.775   4.360  1.8255 -0.6909  0.6378
  449MOL0     H61951   4.349   2.882   4.229  0.3531  0.2943 -0.1383
  449MOL0     H61952   4.221   2.781   4.059  1.8519  1.0097  0.7876
  449MOL0     H61953   4.102   2.826   4.184  0.7101  0.4523  0.0164
  449MOL0     H61954   4.227   2.551   4.112  0.0319  1.0278 -0.6731
  449MOL0     H61955   4.152   2.567   4.264 -1.8335  3.0273  1.2853
  449MOL0     H61956   4.000   2.477   4.093  1.3114 -0.8383  1.6286
  449MOL0     H61957   4.009   2.612   3.996  2.1171  1.0342  0.2343
  449MOL0     H61958   3.745   2.769   4.276  0.8408 -0.1412  1.4724
  449MOL0     H61959   4.545   2.818   4.425  1.8057  2.9930  0.6588
  449MOL0     H61960   4.727   3.026   4.490 -0.2643 -0.0487  0.1223
  449MOL0     H61961   4.768   2.864   4.542  0.5116 -1.9973 -1.6781
  449MOL0     H61962   4.888   2.941   4.458  0.8209  1.1230 -0.1652
  450MOL0     O61963   0.075   5.618   8.670 -0.6060 -0.3676 -0.5691
  450MOL0     C61964   0.053   5.547   8.573 -0.0398 -0.4778  0.6995
  450MOL0     O61965   0.075   5.413   8.568 -0.0304 -0.3666 -0.2121
  450MOL0     C61966   0.148   5.347   8.661  0.0893 -0.1889 -0.2773
  450MOL0     C61967   0.088   5.298   8.779  0.5026  0.1360  0.5845
  450MOL0     C61968   0.158   5.229   8.881 -0.5886 -0.1155 -0.5406
  450MOL0     C61969   0.292   5.198   8.854  0.4129 -0.5330  0.3267
  450MOL0     O61970   0.372   5.121   8.935  0.4224 -0.4286  0.1950
  450MOL0     C61971   0.324   4.988   8.947 -0.5534  0.6423 -0.2826
  450MOL0     C61972   0.442   4.898   9.001 -0.7151  0.5259 -0.2430
  450MOL0     C61973   0.464   4.916   9.149 -0.1419  1.1170 -0.0911
  450MOL0     C61974   0.582   4.841   9.205 -0.7477 -0.0019  0.0800
  450MOL0     C61975   0.597   4.853   9.358  0.3166  0.0397 -0.1732
  450MOL0     C61976   0.742   4.815   9.396  0.5644  0.4111  0.2017
  450MOL0     C61977   0.759   4.785   9.550 -0.0151 -0.0436 -0.4737
  450MOL0     C61978   0.899   4.743   9.595 -0.5527 -0.2828  1.2654
  450MOL0     N61979   0.933   4.606   9.563  0.4199 -0.2458  0.6593
  450MOL0     C61980   1.057   4.552   9.606  0.0628  1.0578 -0.6068
  450MOL0     C61981   1.028   4.413   9.633 -1.1778 -0.0236  0.6956
  450MOL0     C61982   1.127   4.308   9.687  0.1674  0.0689 -0.4321
  450MOL0     C61983   1.128   4.321   9.839  0.0537 -0.1081 -0.3250
  450MOL0     C61984   1.188   4.197   9.912  0.0473 -0.1259 -0.0302
  450MOL0     C61985   1.329   4.170   9.870 -0.9436  0.5475  1.1691
  450MOL0     O61986   1.400   4.099   9.975  0.6811  0.2167 -0.3228
  450MOL0     C61987   1.533   4.125   9.988  0.1467  0.5463  0.2351
  450MOL0     C61988   1.590   4.112  10.118 -0.3169 -0.1063 -0.2077
  450MOL0     C61989   1.716   4.135  10.139  0.1943  0.1056  0.6875
  450MOL0     C61990   1.761   4.101  10.283 -0.3752 -0.2481  0.6954
  450MOL0     C61991   1.806   4.178  10.036 -0.5496 -0.7023  0.1208
  450MOL0     C61992   1.947   4.217  10.055  0.0342 -0.0359 -0.6182
  450MOL0     O61993   2.016   4.246   9.947  0.2508  0.3649  0.3874
  450MOL0     C61994   2.158   4.256   9.947 -0.3632  0.6542  0.0021
  450MOL0     C61995   2.233   4.175  10.038  0.3878  0.8685  0.3970
  450MOL0     C61996   2.371   4.188  10.045  0.4141  0.6097 -0.3909
  450MOL0     C61997   2.437   4.275   9.958 -0.1459  0.1253  0.8446
  450MOL0     O61998   2.580   4.289   9.959 -0.5023  0.5490  0.9138
  450MOL0     C61999   2.657   4.254  10.075 -0.8037 -0.7907  0.5158
  450MOL0     C62000   2.807   4.273  10.052 -0.0020  0.3717 -0.0101
  450MOL0     C62001   2.865   4.184   9.940 -0.9013  1.0378 -0.3520
  450MOL0     C62002   2.953   4.076  10.000  0.2403 -0.0114 -0.5118
  450MOL0     C62003   3.072   4.050   9.911 -0.9573  1.3890 -0.6750
  450MOL0     C62004   3.126   3.907   9.922  0.2683  1.0099 -0.4755
  450MOL0     C62005   3.202   3.875  10.053 -0.3101  0.2212 -0.2042
  450MOL0     C62006   3.327   3.788  10.039  0.3600  0.6636  0.1568
  450MOL0    Cl62007   3.269   3.631   9.988 -0.4086  0.0626  0.4099
  450MOL0     C62008   2.369   4.351   9.862 -0.5419  0.2618 -0.8206
  450MOL0     C62009   2.226   4.340   9.855  0.4936  0.0775  0.3359
  450MOL0     O62010   1.994   4.222  10.171 -0.4995  0.8683 -0.9508
  450MOL0     C62011   1.746   4.185   9.901  0.2799 -0.0100 -0.1721
  450MOL0     C62012   1.616   4.154   9.884  0.2809 -0.0073  0.0702
  450MOL0     N62013   0.896   4.404   9.582 -0.4475 -0.6360  0.8422
  450MOL0     N62014   0.834   4.512   9.542 -0.2429 -0.7684 -0.8914
  450MOL0     C62015   0.351   5.246   8.734  0.0630  0.3730  0.0836
  450MOL0     C62016   0.278   5.314   8.639  0.4808 -0.4154 -0.3908
  450MOL0     C62017  -0.007   5.603   8.454 -0.5413 -0.1926 -0.6399
  450MOL0     C62018  -0.062   5.727   8.464  0.7448  0.0290 -0.8807
  450MOL0     C62019  -0.141   5.778   8.355 -0.4269 -0.2643  0.1058
  450MOL0     C62020  -0.160   5.702   8.243  0.7065 -0.0991  0.0442
  450MOL0     O62021  -0.231   5.740   8.132 -0.0425  0.3027  0.3452
  450MOL0     C62022  -0.313   5.852   8.144 -0.2396 -0.4662 -0.3895
  450MOL0     C62023  -0.417   5.844   8.031 -0.6833  0.0158  0.5585
  450MOL0     C62024  -0.510   5.726   8.049  0.3952  0.8485  0.6832
  450MOL0     C62025  -0.614   5.714   7.946  0.0950  1.2479 -0.4572
  450MOL0     C62026  -0.735   5.793   7.976 -0.2566 -0.1253 -0.4033
  450MOL0     C62027  -0.840   5.854   7.975  0.1747 -1.0064  0.2249
  450MOL0     C62028  -0.092   5.587   8.226 -0.4571 -0.9205  0.0981
  450MOL0     C62029  -0.005   5.542   8.325 -0.7920 -0.2559  0.1533
  450MOL0     C62030   0.062   5.416   8.290  0.1428  0.3031 -0.6134
  450MOL0     H62031  -0.017   5.327   8.785  0.7304  2.1644 -2.7198
  450MOL0     H62032   0.104   5.190   8.966 -0.5742  1.2374  0.1238
  450MOL0     H62033   0.272   4.944   8.861 -1.1362  0.1513  0.3044
  450MOL0     H62034   0.238   4.996   9.013 -1.0785  2.0391 -1.0873
  450MOL0     H62035   0.414   4.793   8.989 -0.6011  0.2078  1.8592
  450MOL0     H62036   0.534   4.934   8.956  0.1968 -0.7286  0.5426
  450MOL0     H62037   0.487   5.023   9.160 -1.1808  1.4917 -1.2583
  450MOL0     H62038   0.367   4.894   9.195 -0.9427  0.1028 -2.1506
  450MOL0     H62039   0.574   4.736   9.175 -0.5221  0.0195 -0.0587
  450MOL0     H62040   0.672   4.887   9.164 -1.1738  0.5123 -0.2949
  450MOL0     H62041   0.516   4.802   9.411  1.2976  0.5921  1.9810
  450MOL0     H62042   0.588   4.959   9.381 -0.1353  0.0944 -0.6049
  450MOL0     H62043   0.764   4.719   9.348 -0.4850  1.3901 -2.4080
  450MOL0     H62044   0.803   4.893   9.351 -1.2470 -0.1529 -3.6062
  450MOL0     H62045   0.692   4.705   9.581  1.3508 -0.8250  0.5882
  450MOL0     H62046   0.742   4.883   9.595 -1.7729  1.1434 -3.4076
  450MOL0     H62047   0.966   4.811   9.541 -2.5156  0.0963 -0.8086
  450MOL0     H62048   0.911   4.761   9.703  0.2353 -0.2886  1.1866
  450MOL0     H62049   1.152   4.593   9.638 -0.3760  0.8094  1.0839
  450MOL0     H62050   1.228   4.324   9.648  0.2232 -0.8384 -0.6914
  450MOL0     H62051   1.093   4.207   9.660  1.4186 -0.2300 -0.9381
  450MOL0     H62052   1.185   4.409   9.871  1.1364  0.1311 -2.6832
  450MOL0     H62053   1.030   4.346   9.879  0.4859  1.1556  0.0082
  450MOL0     H62054   1.191   4.213  10.020 -1.7164 -3.1491  0.5825
  450MOL0     H62055   1.119   4.113   9.902 -2.2453  1.3060  2.3117
  450MOL0     H62056   1.341   4.119   9.775  1.5104  2.8560  0.1086
  450MOL0     H62057   1.377   4.266   9.848 -1.2581  0.1574 -1.4732
  450MOL0     H62058   1.524   4.093  10.202 -0.0342 -1.1832 -0.2126
  450MOL0     H62059   1.796   4.194  10.329 -0.0598  1.5500 -2.8801
  450MOL0     H62060   1.851   4.038  10.282  0.7130  1.2420  1.1144
  450MOL0     H62061   1.688   4.038  10.335 -1.2468 -2.1515 -2.5199
  450MOL0     H62062   2.179   4.101  10.097  0.3696  0.8978  0.4182
  450MOL0     H62063   2.427   4.126  10.115 -0.6730 -0.2679 -0.2752
  450MOL0     H62064   2.622   4.315  10.159 -1.1906 -1.5244  0.8937
  450MOL0     H62065   2.644   4.153  10.114  0.7705  0.5265  5.1571
  450MOL0     H62066   2.826   4.379  10.037 -0.6723  0.9240  2.5798
  450MOL0     H62067   2.865   4.245  10.140 -0.7587 -1.4170 -0.0306
  450MOL0     H62068   2.920   4.252   9.873 -2.7016  2.3674 -0.5740
  450MOL0     H62069   2.792   4.126   9.882 -0.6950 -0.6735  1.0139
  450MOL0     H62070   2.901   3.984  10.028  3.0095 -0.8862  2.3764
  450MOL0     H62071   2.989   4.094  10.102 -1.0430  2.3649 -0.4090
  450MOL0     H62072   3.042   4.071   9.808 -0.9292 -0.2133 -1.0351
  450MOL0     H62073   3.152   4.118   9.941 -0.6413  0.9533 -0.5008
  450MOL0     H62074   3.188   3.894   9.833 -0.6397  1.4987 -1.2062
  450MOL0     H62075   3.038   3.842   9.915  0.4307  0.6985  0.2809
  450MOL0     H62076   3.132   3.826  10.120 -0.2731 -2.2529 -1.8485
  450MOL0     H62077   3.219   3.972  10.100  1.8473 -0.9994  1.7491
  450MOL0     H62078   3.388   3.794  10.130 -0.0516  3.4845  0.3137
  450MOL0     H62079   3.380   3.844   9.963 -1.4004  2.4928  0.1998
  450MOL0     H62080   2.424   4.433   9.816  2.1240 -0.0908  1.4417
  450MOL0     H62081   2.172   4.403   9.785  2.2505 -0.4719 -1.5902
  450MOL0     H62082   1.792   4.197   9.804  0.7770 -3.2245 -0.4247
  450MOL0     H62083   1.584   4.167   9.781  3.4794 -0.8591 -1.1563
  450MOL0     H62084   0.454   5.214   8.719 -0.3969 -3.1444  2.9286
  450MOL0     H62085   0.315   5.350   8.544 -2.2086 -0.4355 -1.5488
  450MOL0     H62086  -0.053   5.785   8.556  0.7700 -1.3326  0.0145
  450MOL0     H62087  -0.174   5.879   8.371  0.7382  0.5595 -2.1972
  450MOL0     H62088  -0.367   5.843   8.238 -1.6504 -3.3549 -1.3716
  450MOL0     H62089  -0.254   5.944   8.148  0.2401 -0.8109  1.8385
  450MOL0     H62090  -0.368   5.848   7.933 -0.5724  3.2546  0.6242
  450MOL0     H62091  -0.475   5.937   8.031  0.2958  0.6527  1.3482
  450MOL0     H62092  -0.449   5.636   8.036 -0.4920  0.2790  0.3757
  450MOL0     H62093  -0.553   5.717   8.149 -0.8439 -0.9069  0.0470
  450MOL0     H62094  -0.630   5.607   7.964 -1.3568  1.6047  0.5870
  450MOL0     H62095  -0.577   5.719   7.843 -2.7315 -1.1103 -1.7422
  450MOL0     H62096  -0.934   5.901   7.958  1.6755  1.7152 -1.2111
  450MOL0     H62097  -0.089   5.534   8.131  0.9808 -0.4038 -0.1763
  450MOL0     H62098   0.164   5.411   8.330  1.4241  0.9305 -3.5020
  450MOL0     H62099   0.002   5.335   8.333  0.8713 -0.0839 -0.2940
  450MOL0     H62100   0.073   5.412   8.181 -0.4752 -0.1548 -0.6647
  451MOL0     O62101   7.224   1.662   1.159 -0.5466 -0.0954 -0.5925
  451MOL0     C62102   7.217   1.787   1.174  1.2189  0.0356 -0.5816
  451MOL0     O62103   7.117   1.846   1.249 -0.1409  0.9066 -0.0411
  451MOL0     C62104   7.041   1.761   1.323 -0.4793 -0.5245  0.0718
  451MOL0     C62105   7.109   1.666   1.406 -0.1721 -0.2485  0.4430
  451MOL0     C62106   7.036   1.607   1.505 -0.6172 -0.1203  0.0868
  451MOL0     C62107   6.899   1.634   1.521 -0.4150 -0.5018 -0.2232
  451MOL0     O62108   6.818   1.576   1.616  0.1795  0.1962 -0.7807
  451MOL0     C62109   6.839   1.434   1.632 -0.0170 -0.3044  0.4943
  451MOL0     C62110   6.709   1.361   1.665  0.9019 -0.0354 -0.5861
  451MOL0     C62111   6.613   1.373   1.556  0.1829 -0.0381  0.4777
  451MOL0     C62112   6.474   1.320   1.599  1.3815 -0.4975  0.0848
  451MOL0     C62113   6.365   1.290   1.505  0.0265  0.4104 -0.5146
  451MOL0     C62114   6.316   1.396   1.408 -0.2184  0.1719 -0.3291
  451MOL0     C62115   6.254   1.519   1.486  0.0952  0.1681 -0.7885
  451MOL0     C62116   6.167   1.588   1.380 -0.5124 -0.4949  0.2149
  451MOL0     N62117   6.025   1.558   1.402 -1.1512 -0.4957 -1.4817
  451MOL0     C62118   5.954   1.576   1.524 -0.0474  1.2944  0.2639
  451MOL0     C62119   5.827   1.531   1.496 -0.3190 -0.5132  0.5635
  451MOL0     C62120   5.709   1.509   1.589  0.4621  0.2516 -0.0132
  451MOL0     C62121   5.617   1.634   1.581  0.3197  0.2445 -0.6735
  451MOL0     C62122   5.539   1.635   1.447 -0.3878  0.5204 -0.3675
  451MOL0     C62123   5.449   1.518   1.424  0.3720  0.3604  0.1036
  451MOL0     O62124   5.343   1.542   1.330 -0.7501  0.3658 -0.0757
  451MOL0     C62125   5.238   1.453   1.332 -0.0053  0.7131 -0.1432
  451MOL0     C62126   5.111   1.501   1.328 -0.6846  0.2580  0.3688
  451MOL0     C62127   4.996   1.414   1.322 -0.4174  0.0906  0.2259
  451MOL0     C62128   4.871   1.488   1.308  0.6366  0.7897 -0.3908
  451MOL0     C62129   5.017   1.272   1.323 -0.8383  0.0375 -0.7757
  451MOL0     C62130   4.912   1.175   1.326 -0.1472  0.0415 -0.5754
  451MOL0     O62131   4.938   1.042   1.333  0.1221  0.0436  0.0621
  451MOL0     C62132   4.846   0.963   1.391  0.1509 -1.2110 -0.1112
  451MOL0     C62133   4.817   0.992   1.523  0.4394 -0.7431 -0.5687
  451MOL0     C62134   4.719   0.920   1.593 -0.4038  1.0238 -0.5144
  451MOL0     C62135   4.656   0.821   1.523  0.0774  0.2065 -0.3096
  451MOL0     O62136   4.563   0.749   1.589 -0.0232 -0.1547  0.1559
  451MOL0     C62137   4.428   0.798   1.563  0.0616  0.0328 -0.7692
  451MOL0     C62138   4.335   0.679   1.576 -0.1627  0.3950  0.1808
  451MOL0     C62139   4.373   0.565   1.478  0.0051  1.0868  0.1971
  451MOL0     C62140   4.277   0.440   1.489 -0.0422 -0.3240 -0.7769
  451MOL0     C62141   4.136   0.461   1.426  0.0207 -0.3939  0.2311
  451MOL0     C62142   4.036   0.343   1.442 -0.2873  0.0718 -1.3789
  451MOL0     C62143   4.091   0.214   1.372 -0.4697  1.0467  0.7460
  451MOL0     C62144   3.988   0.107   1.344 -1.1543 -0.8715  0.1181
  451MOL0    Cl62145   3.890   0.062   1.495  0.6032  0.0436  0.1178
  451MOL0     C62146   4.681   0.792   1.390 -0.6905 -0.3170 -1.1253
  451MOL0     C62147   4.776   0.870   1.319  0.3442 -0.9669 -0.5804
  451MOL0     O62148   4.802   1.221   1.329 -0.3011 -0.4106 -0.2930
  451MOL0     C62149   5.152   1.230   1.342 -0.3220 -0.6743  0.6147
  451MOL0     C62150   5.260   1.317   1.336  0.3320 -0.0872  1.0612
  451MOL0     N62151   5.829   1.504   1.358  1.1217 -0.7167  0.1256
  451MOL0     N62152   5.938   1.537   1.302  0.2672 -0.0824 -0.3034
  451MOL0     C62153   6.837   1.722   1.444 -0.1080  0.8183  0.1134
  451MOL0     C62154   6.903   1.780   1.339  0.0858 -0.1790 -0.9538
  451MOL0     C62155   7.314   1.877   1.129 -0.0612 -0.1347 -0.3120
  451MOL0     C62156   7.278   1.978   1.043 -0.4496 -0.6329  0.3322
  451MOL0     C62157   7.382   2.050   0.974 -0.1475  0.5890 -0.0564
  451MOL0     C62158   7.513   2.026   1.001  0.4381  0.3647  0.4016
  451MOL0     O62159   7.613   2.086   0.934 -0.5820  1.0452 -0.2360
  451MOL0     C62160   7.582   2.200   0.849 -0.6676  0.4639  0.4303
  451MOL0     C62161   7.518   2.320   0.924 -0.1346  0.1024 -0.0090
  451MOL0     C62162   7.611   2.373   1.042  0.1906 -0.0133  0.2913
  451MOL0     C62163   7.588   2.509   1.091 -0.0637  0.1455 -0.8943
  451MOL0     C62164   7.452   2.560   1.099  0.2152 -0.0562 -0.5488
  451MOL0     C62165   7.332   2.588   1.103  0.2387 -0.9146 -0.5934
  451MOL0     C62166   7.542   1.935   1.103  0.1502 -0.4952  0.8635
  451MOL0     C62167   7.447   1.853   1.170  0.0915  0.2723 -0.2590
  451MOL0     C62168   7.477   1.761   1.284 -0.1705  0.1798 -0.2876
  451MOL0     H62169   7.217   1.666   1.414 -0.0142 -1.7867 -1.0402
  451MOL0     H62170   7.090   1.549   1.580  0.3422  1.5689  0.7570
  451MOL0     H62171   6.907   1.428   1.718 -0.8926  3.5809  1.6421
  451MOL0     H62172   6.886   1.389   1.544 -1.0032  0.0191 -0.2130
  451MOL0     H62173   6.729   1.256   1.691  0.1548 -0.4284 -1.5342
  451MOL0     H62174   6.663   1.409   1.752  2.0163  0.0923 -0.0379
  451MOL0     H62175   6.610   1.476   1.521  2.3432  0.7604  2.3926
  451MOL0     H62176   6.644   1.305   1.476  2.5582  2.5053 -0.9126
  451MOL0     H62177   6.484   1.228   1.656 -0.4828  0.0517  1.3833
  451MOL0     H62178   6.420   1.391   1.662  0.6537 -0.0430 -1.0328
  451MOL0     H62179   6.285   1.243   1.562  1.4076 -1.5193 -0.0746
  451MOL0     H62180   6.412   1.211   1.445 -0.5830  0.6115 -1.2685
  451MOL0     H62181   6.397   1.425   1.341 -0.1016 -0.1461 -0.3257
  451MOL0     H62182   6.238   1.360   1.341 -2.0480  5.2959 -1.4606
  451MOL0     H62183   6.335   1.585   1.520  0.1661 -0.8734  1.2296
  451MOL0     H62184   6.185   1.488   1.565 -0.0838  0.6168 -0.7700
  451MOL0     H62185   6.163   1.697   1.375  0.3622 -0.4403  0.5277
  451MOL0     H62186   6.201   1.557   1.281  3.1203  0.0411  1.1445
  451MOL0     H62187   6.001   1.619   1.612  0.9079  1.3529 -0.2695
  451MOL0     H62188   5.741   1.502   1.693 -2.9350 -0.9093  1.1019
  451MOL0     H62189   5.664   1.412   1.566  1.9364 -0.5017  0.1704
  451MOL0     H62190   5.565   1.633   1.677  1.7357 -2.7421  0.2016
  451MOL0     H62191   5.678   1.724   1.594 -0.4585  0.8829 -1.3831
  451MOL0     H62192   5.490   1.732   1.460 -0.0575  0.4474  1.8147
  451MOL0     H62193   5.603   1.641   1.358 -2.6389 -1.8766 -2.3153
  451MOL0     H62194   5.515   1.440   1.386  0.0393  0.6364 -1.0956
  451MOL0     H62195   5.409   1.483   1.520  2.4988  0.5048  1.0807
  451MOL0     H62196   5.106   1.609   1.338  0.6123  0.6820 -2.4862
  451MOL0     H62197   4.897   1.592   1.330  0.5902  0.3678  1.9152
  451MOL0     H62198   4.797   1.453   1.380 -2.5975  0.2935 -3.6713
  451MOL0     H62199   4.819   1.472   1.213 -1.2560 -0.5413  0.7963
  451MOL0     H62200   4.867   1.069   1.581 -2.2468 -0.3705  1.4199
  451MOL0     H62201   4.691   0.932   1.697 -0.6985 -1.0695 -0.3126
  451MOL0     H62202   4.398   0.854   1.651 -3.1346 -2.3330 -0.1467
  451MOL0     H62203   4.416   0.860   1.474 -1.9942  0.5611 -0.1685
  451MOL0     H62204   4.343   0.638   1.677  1.6968 -0.8918 -0.4422
  451MOL0     H62205   4.235   0.722   1.563 -0.3005 -0.0756 -0.3368
  451MOL0     H62206   4.473   0.528   1.500 -0.1467 -0.4523 -1.4910
  451MOL0     H62207   4.369   0.590   1.371 -0.8518 -2.2096 -0.6394
  451MOL0     H62208   4.266   0.429   1.597 -2.3459 -2.5881 -1.1443
  451MOL0     H62209   4.315   0.350   1.441  0.1763 -1.9272  2.1807
  451MOL0     H62210   4.095   0.552   1.471  2.1096 -0.7905  3.1864
  451MOL0     H62211   4.152   0.481   1.319 -1.3820 -1.1062 -0.1381
  451MOL0     H62212   3.936   0.369   1.406 -0.4673  1.8517  0.2863
  451MOL0     H62213   4.021   0.325   1.549 -0.0932 -0.8879 -1.5043
  451MOL0     H62214   4.177   0.170   1.423 -0.3934  0.4593  0.1212
  451MOL0     H62215   4.132   0.246   1.276 -1.2629 -0.2906 -0.0714
  451MOL0     H62216   4.031   0.024   1.287 -1.8232  1.8088 -4.8464
  451MOL0     H62217   3.906   0.139   1.278 -2.3945 -4.2335 -0.1872
  451MOL0     H62218   4.623   0.711   1.347  0.2627 -1.7405  0.2037
  451MOL0     H62219   4.780   0.846   1.214 -6.1880 -3.1790 -0.7656
  451MOL0     H62220   5.173   1.128   1.372  2.2296 -0.7773 -1.2051
  451MOL0     H62221   5.362   1.282   1.343  0.6381  0.0842 -1.4438
  451MOL0     H62222   6.734   1.752   1.463 -0.9850 -1.1238 -1.2844
  451MOL0     H62223   6.847   1.856   1.286  2.3251  0.4565 -2.6097
  451MOL0     H62224   7.172   2.000   1.035 -0.4990 -0.7374  0.6865
  451MOL0     H62225   7.359   2.112   0.887  0.4114  1.4299  0.3817
  451MOL0     H62226   7.673   2.212   0.790  0.1924 -1.9013  1.1426
  451MOL0     H62227   7.516   2.150   0.777 -0.4407  1.4593 -0.4891
  451MOL0     H62228   7.422   2.296   0.970  1.7062 -2.7333  2.7393
  451MOL0     H62229   7.510   2.400   0.849 -0.7792  0.8925  0.8937
  451MOL0     H62230   7.598   2.307   1.128  3.3729 -0.9219  0.2114
  451MOL0     H62231   7.717   2.362   1.018  0.7743  0.2379  2.4904
  451MOL0     H62232   7.653   2.568   1.026 -0.4965 -2.7666 -4.2664
  451MOL0     H62233   7.635   2.516   1.190  1.2052  1.6531 -1.5538
  451MOL0     H62234   7.230   2.617   1.091 -0.6113 -3.0035  0.9896
  451MOL0     H62235   7.649   1.929   1.117  0.5891  0.4168 -1.6634
  451MOL0     H62236   7.392   1.759   1.353  1.1669  0.4922  1.4585
  451MOL0     H62237   7.498   1.661   1.244  1.5707 -0.1624  1.3126
  451MOL0     H62238   7.567   1.798   1.335 -0.4486 -0.4566  0.7036
  452MOL0     O62239   0.665   2.929  10.862  0.6135  0.4154  0.8114
  452MOL0     C62240   0.711   3.011  10.775  0.5373  0.1263 -0.3433
  452MOL0     O62241   0.753   3.135  10.804 -0.4916  0.2499 -0.5144
  452MOL0     C62242   0.717   3.207  10.919  0.7822 -0.1149 -0.5945
  452MOL0     C62243   0.589   3.184  10.983 -1.3284  0.7824  0.2289
  452MOL0     C62244   0.563   3.247  11.106  0.2027  0.6249 -0.4518
  452MOL0     C62245   0.654   3.342  11.159 -0.3935  0.1329  0.1488
  452MOL0     O62246   0.622   3.403  11.275  0.3009  0.8772 -0.6869
  452MOL0     C62247   0.587   3.534  11.270  0.1825  0.4277 -0.5316
  452MOL0     C62248   0.437   3.565  11.272 -0.3572  0.1233 -0.8054
  452MOL0     C62249   0.399   3.716  11.267  0.3563  0.7049  0.2399
  452MOL0     C62250   0.447   3.812  11.383 -0.6970  0.3109  0.3738
  452MOL0     C62251   0.329   3.807  11.486  0.3046  0.1029 -0.2893
  452MOL0     C62252   0.361   3.879  11.623  0.3421 -0.0705 -0.0427
  452MOL0     C62253   0.287   3.831  11.748  0.1586  0.0098  0.2422
  452MOL0     C62254   0.129   3.856  11.746 -0.0283  1.0943 -0.4799
  452MOL0     N62255   0.085   3.987  11.689 -0.2047 -0.1567 -0.4949
  452MOL0     C62256   0.111   4.106  11.740 -0.7315  0.1565  0.3481
  452MOL0     C62257   0.075   4.191  11.643 -0.0049  0.0304 -0.0995
  452MOL0     C62258   0.073   4.340  11.656 -0.5360  0.4030 -0.8445
  452MOL0     C62259   0.193   4.397  11.581  0.5756 -0.3986 -0.5427
  452MOL0     C62260   0.202   4.557  11.583 -0.2142 -0.1120  0.5364
  452MOL0     C62261   0.338   4.606  11.524 -0.1207 -0.1601 -0.0270
  452MOL0     O62262   0.435   4.535  11.587 -0.1503  0.5928  0.3648
  452MOL0     C62263   0.561   4.555  11.534  0.5873  0.0974  0.0393
  452MOL0     C62264   0.670   4.616  11.613  0.4910  0.0463 -0.2136
  452MOL0     C62265   0.795   4.647  11.562  0.4378  0.4877 -0.9068
  452MOL0     C62266   0.894   4.711  11.654 -0.1215  0.4945 -0.7986
  452MOL0     C62267   0.816   4.613  11.425  0.5079  0.3629 -0.6022
  452MOL0     C62268   0.943   4.644  11.353 -0.7976 -0.3374  0.5635
  452MOL0     O62269   1.030   4.748  11.383 -0.0887 -0.0504 -0.0610
  452MOL0     C62270   1.150   4.742  11.315 -0.8223  1.1164  0.1305
  452MOL0     C62271   1.238   4.635  11.348  0.4936  0.7877 -0.1786
  452MOL0     C62272   1.350   4.621  11.277  0.6295 -0.4093 -1.0588
  452MOL0     C62273   1.367   4.695  11.155  0.1690 -0.1284  0.5522
  452MOL0     O62274   1.470   4.689  11.065 -1.1798 -0.7427 -0.6483
  452MOL0     C62275   1.579   4.600  11.098 -0.4193 -0.7969  0.0991
  452MOL0     C62276   1.668   4.610  10.975  0.0803 -0.5909  0.2021
  452MOL0     C62277   1.770   4.494  10.976  0.2531  0.2851  0.2696
  452MOL0     C62278   1.879   4.523  10.865 -0.3398 -0.1609 -0.2128
  452MOL0     C62279   1.979   4.413  10.839  0.1696  0.3072 -0.4187
  452MOL0     C62280   1.918   4.285  10.789  0.4715  0.0477 -0.3958
  452MOL0     C62281   1.856   4.297  10.640 -0.2483  0.5336  0.0479
  452MOL0     C62282   1.962   4.298  10.527  0.3576  0.4803 -1.0632
  452MOL0    Cl62283   2.048   4.152  10.511 -0.4407  0.2902 -0.3263
  452MOL0     C62284   1.281   4.799  11.121  0.5299 -0.2246 -0.1394
  452MOL0     C62285   1.177   4.818  11.201  0.2904  0.2289 -0.4043
  452MOL0     O62286   0.969   4.564  11.262 -0.1352  1.0268  0.6629
  452MOL0     C62287   0.721   4.547  11.358  0.0637 -0.0326 -0.3899
  452MOL0     C62288   0.593   4.530  11.405  0.1682 -0.0852 -0.3526
  452MOL0     N62289   0.027   4.125  11.533  0.6575  0.3082 -0.9442
  452MOL0     N62290   0.034   4.003  11.569  0.2480  0.0579  0.4862
  452MOL0     C62291   0.772   3.373  11.084 -0.6485 -0.3289  0.0551
  452MOL0     C62292   0.809   3.296  10.975  1.2419  0.1954  0.4704
  452MOL0     C62293   0.745   2.957  10.639  0.7944 -0.7682 -0.4822
  452MOL0     C62294   0.856   3.031  10.585 -0.9559 -0.2357 -0.0886
  452MOL0     C62295   0.886   3.010  10.453 -0.3560  1.2486 -0.1651
  452MOL0     C62296   0.820   2.899  10.383  0.3045 -0.3326  0.4883
  452MOL0     O62297   0.833   2.857  10.252  0.2616 -0.2054 -0.1486
  452MOL0     C62298   0.927   2.924  10.172  0.4096 -0.0307  0.0352
  452MOL0     C62299   0.964   2.843  10.050  0.1279 -0.4042  0.3894
  452MOL0     C62300   0.844   2.783   9.979  0.1298  0.3227  0.3907
  452MOL0     C62301   0.873   2.707   9.840  0.0505 -0.8311 -0.4621
  452MOL0     C62302   0.943   2.580   9.864 -0.2121 -0.6484 -0.4469
  452MOL0     C62303   1.010   2.478   9.893  0.6684  0.1890  0.0400
  452MOL0     C62304   0.720   2.833  10.443 -0.8080 -0.4673  0.0273
  452MOL0     C62305   0.670   2.860  10.566  0.8523 -0.8433  0.0334
  452MOL0     C62306   0.548   2.786  10.611  0.6182  0.0514  0.2110
  452MOL0     H62307   0.515   3.120  10.935  0.1666 -2.2085  1.6360
  452MOL0     H62308   0.478   3.212  11.164  0.6033  1.5717  0.7393
  452MOL0     H62309   0.632   3.590  11.187  1.5299  2.2813  1.3383
  452MOL0     H62310   0.630   3.583  11.359 -0.9747  0.8903 -0.2110
  452MOL0     H62311   0.399   3.529  11.176  1.0860 -0.9320 -1.0098
  452MOL0     H62312   0.377   3.509  11.344  0.4426 -1.3055 -1.2102
  452MOL0     H62313   0.436   3.761  11.174  2.6694  0.0654  0.7899
  452MOL0     H62314   0.292   3.725  11.246  0.9784  1.7904 -3.1070
  452MOL0     H62315   0.537   3.788  11.439  1.1338  1.5424 -1.8664
  452MOL0     H62316   0.461   3.909  11.335 -0.8141  0.5846  0.8879
  452MOL0     H62317   0.304   3.706  11.521  1.7904  0.0342  0.6802
  452MOL0     H62318   0.234   3.840  11.443 -0.9500 -4.8187 -2.0363
  452MOL0     H62319   0.465   3.853  11.643  0.2545 -0.7843 -0.4915
  452MOL0     H62320   0.354   3.988  11.615 -2.0034 -0.0517  1.3365
  452MOL0     H62321   0.350   3.879  11.824  0.8156 -1.4383  0.6414
  452MOL0     H62322   0.305   3.725  11.762  0.6833  0.3585  2.5087
  452MOL0     H62323   0.079   3.786  11.679  0.1125  1.4510 -0.9623
  452MOL0     H62324   0.098   3.837  11.850 -0.1839  0.0665 -0.7014
  452MOL0     H62325   0.155   4.132  11.836  3.4682  1.1601 -1.6102
  452MOL0     H62326   0.070   4.360  11.764 -4.0759 -1.9258 -0.3372
  452MOL0     H62327  -0.016   4.388  11.616 -0.9855  1.1135  0.9008
  452MOL0     H62328   0.272   4.359  11.646  0.4157  0.9025  0.4557
  452MOL0     H62329   0.189   4.348  11.483 -1.8950 -2.3250  0.3966
  452MOL0     H62330   0.121   4.587  11.516  0.9420 -2.5367 -2.2087
  452MOL0     H62331   0.197   4.582  11.689  1.0185 -3.0032  1.3693
  452MOL0     H62332   0.348   4.591  11.416 -0.0751 -0.1931 -0.0182
  452MOL0     H62333   0.357   4.708  11.558  1.8656 -1.1813  2.1795
  452MOL0     H62334   0.639   4.638  11.715 -2.2288  0.3822 -1.0319
  452MOL0     H62335   0.852   4.740  11.750 -3.7737 -1.2338 -1.6819
  452MOL0     H62336   0.944   4.799  11.614  0.6095 -0.6339 -2.4947
  452MOL0     H62337   0.978   4.644  11.676  0.6894  1.7153 -0.0596
  452MOL0     H62338   1.203   4.565  11.423  0.3782  0.3804 -0.6074
  452MOL0     H62339   1.426   4.554  11.316 -1.4962 -1.2487  1.9330
  452MOL0     H62340   1.627   4.644  11.186 -2.2385 -0.6485  1.0620
  452MOL0     H62341   1.557   4.495  11.117  0.3855 -1.4571 -2.2860
  452MOL0     H62342   1.598   4.607  10.891  0.9639 -2.2591 -0.5291
  452MOL0     H62343   1.721   4.706  10.969  0.8616 -1.1010 -2.4990
  452MOL0     H62344   1.723   4.396  10.965  1.9008 -0.6990  1.5201
  452MOL0     H62345   1.813   4.501  11.076 -0.1108  1.0303  0.3808
  452MOL0     H62346   1.934   4.617  10.879  0.3764 -0.4628 -0.9157
  452MOL0     H62347   1.823   4.543  10.773 -1.8428 -1.5095  0.3761
  452MOL0     H62348   2.059   4.451  10.775  1.5090  0.7980  1.4766
  452MOL0     H62349   2.039   4.387  10.926 -0.1897 -0.0694 -0.2784
  452MOL0     H62350   1.834   4.257  10.852 -1.1283  1.4304 -1.8305
  452MOL0     H62351   1.993   4.205  10.794  0.5619  0.1522 -0.0622
  452MOL0     H62352   1.777   4.371  10.627 -0.7031  0.1600  0.5914
  452MOL0     H62353   1.794   4.207  10.631 -1.0181  1.1342 -0.7884
  452MOL0     H62354   2.035   4.375  10.552 -0.9802  2.1173 -1.9732
  452MOL0     H62355   1.914   4.326  10.432 -0.1300 -1.7071 -1.5161
  452MOL0     H62356   1.292   4.863  11.034  2.6506  3.9074  2.7754
  452MOL0     H62357   1.095   4.888  11.184  0.1414 -0.0222 -0.7253
  452MOL0     H62358   0.734   4.520  11.254 -0.0599  0.7803 -0.6269
  452MOL0     H62359   0.520   4.470  11.352 -1.2141  0.2935  1.0336
  452MOL0     H62360   0.839   3.447  11.127  1.4433 -0.5486 -2.5844
  452MOL0     H62361   0.908   3.313  10.934  2.1949  1.4533  3.0427
  452MOL0     H62362   0.926   3.094  10.639 -0.6042  0.3769 -1.2360
  452MOL0     H62363   0.964   3.064  10.400  1.9226 -3.1268 -1.7722
  452MOL0     H62364   0.876   3.017  10.144 -1.0931  0.4436  3.7442
  452MOL0     H62365   1.017   2.942  10.231  0.6985 -0.8968 -0.1213
  452MOL0     H62366   1.032   2.761  10.071  2.8969  1.4456 -0.6935
  452MOL0     H62367   1.012   2.912   9.980 -0.2153 -0.5697 -0.0164
  452MOL0     H62368   0.804   2.703  10.042 -0.1628 -1.2762 -1.7314
  452MOL0     H62369   0.774   2.866   9.964  0.0291  0.3053  0.7683
  452MOL0     H62370   0.924   2.765   9.762 -2.5495  0.9173 -0.9804
  452MOL0     H62371   0.775   2.682   9.799 -0.1318  2.0384 -2.0295
  452MOL0     H62372   1.058   2.382   9.899  2.7112  1.1682  0.2730
  452MOL0     H62373   0.679   2.746  10.392 -1.6537  0.6919 -1.3392
  452MOL0     H62374   0.506   2.824  10.704 -2.1168  5.1189 -2.6592
  452MOL0     H62375   0.473   2.803  10.532 -0.9778 -1.5587  1.2927
  452MOL0     H62376   0.575   2.680  10.614  2.1404  0.4138  0.0405
  453MOL0     O62377   2.054   7.631   8.921 -0.0772 -0.0002  0.3605
  453MOL0     C62378   2.128   7.583   8.830 -0.1624 -0.1724  0.9942
  453MOL0     O62379   2.084   7.521   8.718  0.0496  0.0514 -0.3094
  453MOL0     C62380   1.951   7.483   8.683 -0.9291 -0.4561 -0.1791
  453MOL0     C62381   1.929   7.451   8.549  0.1739 -1.5641 -0.1809
  453MOL0     C62382   1.804   7.403   8.504 -0.0167  0.2901 -0.7635
  453MOL0     C62383   1.700   7.396   8.598 -0.0085  1.2295 -0.1184
  453MOL0     O62384   1.584   7.330   8.573  0.7209 -0.7996  0.5394
  453MOL0     C62385   1.552   7.324   8.434  0.3550 -0.6149 -0.9318
  453MOL0     C62386   1.397   7.318   8.428  0.2062  0.6487 -0.5266
  453MOL0     C62387   1.339   7.227   8.540 -0.5299  0.4419 -0.4945
  453MOL0     C62388   1.370   7.074   8.508 -0.5442 -1.1085  0.1295
  453MOL0     C62389   1.322   6.983   8.613 -0.6621 -0.9772  0.0875
  453MOL0     C62390   1.433   6.964   8.716 -0.1105 -0.4199  0.3697
  453MOL0     C62391   1.370   6.879   8.834  0.0553 -0.9737  0.2933
  453MOL0     C62392   1.457   6.887   8.964  0.5675  0.1336  0.6332
  453MOL0     N62393   1.447   6.761   9.033  0.3362 -0.2279  0.7026
  453MOL0     C62394   1.332   6.730   9.101 -0.2367  0.3173  0.1429
  453MOL0     C62395   1.346   6.601   9.139 -0.4790  0.0356 -0.2596
  453MOL0     C62396   1.235   6.518   9.202 -0.1272  0.8282 -0.3371
  453MOL0     C62397   1.257   6.362   9.173  0.0620  0.8717 -0.3489
  453MOL0     C62398   1.169   6.276   9.257  0.3930 -0.8073  0.4416
  453MOL0     C62399   1.011   6.298   9.238  0.2729 -0.1269 -0.3902
  453MOL0     O62400   0.979   6.306   9.099  0.3941  0.1762  0.2690
  453MOL0     C62401   1.001   6.202   9.011 -0.9582 -0.6076 -0.2610
  453MOL0     C62402   1.043   6.069   9.049  0.9453 -0.0068  0.3754
  453MOL0     C62403   1.065   5.970   8.962 -0.7612  0.3560 -0.0681
  453MOL0     C62404   1.100   5.828   9.014 -0.3696  0.2729 -0.6983
  453MOL0     C62405   1.055   6.001   8.825  0.0404  0.0632  0.2089
  453MOL0     C62406   1.093   5.908   8.716 -0.9052  0.1726  0.2717
  453MOL0     O62407   1.146   5.970   8.603 -0.0326 -0.7390 -0.0269
  453MOL0     C62408   1.221   5.914   8.498  0.4631  0.1206 -1.2239
  453MOL0     C62409   1.238   5.992   8.391 -0.1312  0.0004  0.1243
  453MOL0     C62410   1.326   5.952   8.285  0.0003  0.5695 -0.6332
  453MOL0     C62411   1.386   5.823   8.284  0.1935 -0.1063 -0.1458
  453MOL0     O62412   1.453   5.765   8.176  0.9378 -0.2719 -0.9397
  453MOL0     C62413   1.553   5.835   8.111 -0.2923  0.5776  0.4898
  453MOL0     C62414   1.515   5.884   7.974  0.0769 -0.1719 -0.4860
  453MOL0     C62415   1.630   5.931   7.898 -0.0523 -0.1079 -0.1863
  453MOL0     C62416   1.610   5.925   7.741 -0.5022 -0.7368 -0.6609
  453MOL0     C62417   1.613   5.781   7.694 -0.3794  0.1895  0.3983
  453MOL0     C62418   1.606   5.768   7.540 -0.6003 -0.4516  0.1188
  453MOL0     C62419   1.626   5.622   7.481 -0.7226  0.7444 -0.3334
  453MOL0     C62420   1.562   5.606   7.340 -0.8356 -0.3576  0.4696
  453MOL0    Cl62421   1.582   5.738   7.225  0.0545  0.1408  0.1612
  453MOL0     C62422   1.362   5.744   8.397  0.1900 -0.0320 -0.8285
  453MOL0     C62423   1.276   5.787   8.503  0.3106 -0.0375 -1.2176
  453MOL0     O62424   1.087   5.784   8.736  0.2266  0.8598 -0.9436
  453MOL0     C62425   1.006   6.127   8.785  1.0634  0.7539 -0.5194
  453MOL0     C62426   0.981   6.228   8.873  0.3385 -0.0637 -0.0951
  453MOL0     N62427   1.455   6.544   9.076 -0.4203 -0.1077  0.3910
  453MOL0     N62428   1.521   6.644   9.024 -0.2078 -0.7478 -0.6406
  453MOL0     C62429   1.721   7.432   8.730 -0.5507  0.1283  0.0324
  453MOL0     C62430   1.845   7.484   8.777 -0.4417  0.6269  0.6969
  453MOL0     C62431   2.275   7.607   8.835  0.2022  0.0328 -0.0179
  453MOL0     C62432   2.367   7.494   8.814 -0.5947 -0.1058  0.3334
  453MOL0     C62433   2.506   7.519   8.833  0.7847  0.0040 -0.6262
  453MOL0     C62434   2.555   7.648   8.888  0.1666 -0.0335 -0.4389
  453MOL0     O62435   2.685   7.663   8.928 -0.2098  0.1885 -0.0433
  453MOL0     C62436   2.749   7.790   8.912 -0.9842 -0.1550  0.1143
  453MOL0     C62437   2.900   7.781   8.948  0.0266  0.1573  0.4061
  453MOL0     C62438   2.975   7.678   8.868  0.4897 -0.1333 -0.4836
  453MOL0     C62439   3.121   7.651   8.922  0.1308 -0.7650 -0.2811
  453MOL0     C62440   3.226   7.748   8.874 -0.2682 -0.4468 -0.3905
  453MOL0     C62441   3.307   7.825   8.827  0.0221 -0.4703 -0.5620
  453MOL0     C62442   2.462   7.743   8.919  0.0645 -0.2886 -0.1120
  453MOL0     C62443   2.328   7.730   8.886 -0.1626 -0.2877 -0.5492
  453MOL0     C62444   2.250   7.853   8.903  0.6166 -0.7643 -0.4497
  453MOL0     H62445   2.005   7.469   8.473 -1.0676 -0.2667 -1.1614
  453MOL0     H62446   1.801   7.366   8.402 -0.5795  1.2828 -1.1211
  453MOL0     H62447   1.604   7.241   8.385 -0.2969 -0.2588 -2.2521
  453MOL0     H62448   1.583   7.421   8.394  0.9761  0.7385  2.4672
  453MOL0     H62449   1.354   7.418   8.429 -2.7497 -0.3185  4.2318
  453MOL0     H62450   1.369   7.275   8.332 -0.7166 -0.3342  0.1623
  453MOL0     H62451   1.370   7.247   8.643 -0.7562 -0.9554 -0.1274
  453MOL0     H62452   1.231   7.246   8.549 -0.3804  1.9999 -1.5938
  453MOL0     H62453   1.323   7.057   8.411 -4.2376 -0.8907  1.7178
  453MOL0     H62454   1.477   7.054   8.492  0.5660 -1.3326  5.8933
  453MOL0     H62455   1.318   6.886   8.563  0.0057 -1.5424  1.0726
  453MOL0     H62456   1.228   7.019   8.657 -1.6096 -0.8976 -1.8975
  453MOL0     H62457   1.519   6.921   8.665  0.7127  2.5806 -1.0394
  453MOL0     H62458   1.463   7.061   8.759 -1.0570  0.8202 -1.6301
  453MOL0     H62459   1.365   6.777   8.796 -3.2879 -0.9171  0.2158
  453MOL0     H62460   1.269   6.915   8.857 -0.1354 -0.1514 -1.5701
  453MOL0     H62461   1.564   6.907   8.951  0.7833 -1.4762 -0.3489
  453MOL0     H62462   1.412   6.965   9.026 -1.1556  0.4279 -0.9095
  453MOL0     H62463   1.254   6.802   9.126 -0.1961 -0.3501  2.4129
  453MOL0     H62464   1.138   6.552   9.166 -1.2489 -1.7029  0.1397
  453MOL0     H62465   1.244   6.522   9.311  0.2427 -0.7271 -0.2935
  453MOL0     H62466   1.236   6.334   9.069 -0.1861 -0.5142  0.0449
  453MOL0     H62467   1.360   6.336   9.198  0.1288 -0.7764 -2.0729
  453MOL0     H62468   1.199   6.173   9.234 -1.1544 -0.9244 -1.3414
  453MOL0     H62469   1.187   6.280   9.365 -1.0560 -3.1160  0.8510
  453MOL0     H62470   0.959   6.209   9.273 -2.1085 -0.0478 -3.3523
  453MOL0     H62471   0.979   6.396   9.275 -0.6796  0.5129 -2.7442
  453MOL0     H62472   1.044   6.044   9.155  0.5436 -0.7367  0.2130
  453MOL0     H62473   1.006   5.774   8.996  0.5766 -0.4338 -4.2734
  453MOL0     H62474   1.112   5.830   9.122 -2.4585 -2.6390 -0.2963
  453MOL0     H62475   1.182   5.770   8.972 -1.4209 -2.3428  0.6168
  453MOL0     H62476   1.193   6.091   8.383 -0.0844  0.0359  0.2944
  453MOL0     H62477   1.348   6.025   8.208 -1.8447  0.1371 -1.6393
  453MOL0     H62478   1.597   5.916   8.171  2.1940 -0.1197 -0.2379
  453MOL0     H62479   1.644   5.774   8.099 -0.5139  0.5060 -1.0504
  453MOL0     H62480   1.475   5.802   7.913  0.7230  0.8217 -2.3345
  453MOL0     H62481   1.438   5.959   7.990 -0.6892 -0.9160 -0.6391
  453MOL0     H62482   1.710   5.858   7.914 -1.9909 -1.6226  4.0477
  453MOL0     H62483   1.655   6.034   7.927  1.6220 -0.2499 -0.9649
  453MOL0     H62484   1.696   5.971   7.692 -0.9284  2.0939  0.9873
  453MOL0     H62485   1.516   5.969   7.706 -0.9416 -1.9163 -0.9872
  453MOL0     H62486   1.698   5.723   7.729 -0.4302  0.2010  0.5396
  453MOL0     H62487   1.518   5.744   7.734 -1.8039  1.9782 -1.1212
  453MOL0     H62488   1.674   5.835   7.487 -0.4975 -2.4073 -2.3705
  453MOL0     H62489   1.504   5.793   7.510 -0.2907  0.7341 -0.0069
  453MOL0     H62490   1.590   5.542   7.546  1.6169 -0.2867 -0.1702
  453MOL0     H62491   1.734   5.603   7.474 -1.0865 -1.9321  0.3459
  453MOL0     H62492   1.455   5.586   7.348 -0.9981  0.6980  0.9836
  453MOL0     H62493   1.613   5.519   7.295 -1.5134 -1.1669  1.2363
  453MOL0     H62494   1.417   5.651   8.412  0.9451  0.3833 -0.9773
  453MOL0     H62495   1.267   5.721   8.589 -1.8679  1.1202 -0.4678
  453MOL0     H62496   0.989   6.153   8.681 -3.0464 -0.2147 -0.2653
  453MOL0     H62497   0.943   6.313   8.817  0.8858  0.4244  0.2574
  453MOL0     H62498   1.633   7.425   8.794 -2.1824 -0.8430 -2.1599
  453MOL0     H62499   1.844   7.513   8.882 -1.3251  0.4996  0.7280
  453MOL0     H62500   2.319   7.401   8.787  0.2872 -0.1886 -1.0362
  453MOL0     H62501   2.580   7.441   8.818  0.5846 -0.8166  2.0397
  453MOL0     H62502   2.734   7.829   8.811 -2.0754 -1.4972 -0.2756
  453MOL0     H62503   2.715   7.858   8.990 -0.5993  1.2768 -0.9278
  453MOL0     H62504   2.898   7.769   9.057 -0.3086  0.3872  0.4259
  453MOL0     H62505   2.939   7.882   8.930 -2.7939  1.4726  1.0888
  453MOL0     H62506   2.913   7.588   8.865 -0.0704  0.1068  1.8215
  453MOL0     H62507   2.990   7.717   8.767 -1.5958 -1.8204 -1.5476
  453MOL0     H62508   3.143   7.549   8.891 -1.8864 -1.4603  0.3640
  453MOL0     H62509   3.124   7.646   9.031  0.2825 -3.7400 -0.3517
  453MOL0     H62510   3.383   7.898   8.808  0.9917 -0.4053  2.8385
  453MOL0     H62511   2.507   7.829   8.969 -0.5202 -0.2481  0.3559
  453MOL0     H62512   2.158   7.870   8.847  0.0316  0.6024  0.8610
  453MOL0     H62513   2.220   7.854   9.008  2.2337  0.5028  0.0350
  453MOL0     H62514   2.315   7.938   8.881 -1.2906  0.6602 -0.8482
  454MOL0     O62515   5.541   7.596   2.375  1.2565  0.2173  0.2767
  454MOL0     C62516   5.427   7.593   2.423 -0.2204 -0.4851 -0.1411
  454MOL0     O62517   5.354   7.709   2.447 -0.2157  0.7958 -0.5175
  454MOL0     C62518   5.365   7.800   2.350 -0.4234  0.6351  0.3078
  454MOL0     C62519   5.357   7.757   2.209 -0.2160 -0.0428  0.7999
  454MOL0     C62520   5.362   7.857   2.104 -0.2502  0.5291 -0.8554
  454MOL0     C62521   5.389   7.994   2.148  0.4552 -0.0592  0.8736
  454MOL0     O62522   5.399   8.103   2.067  0.4900 -0.2274 -0.1242
  454MOL0     C62523   5.469   8.093   1.945  0.2083 -0.5358  0.1742
  454MOL0     C62524   5.516   8.236   1.904 -0.0182 -0.5750 -0.4094
  454MOL0     C62525   5.647   8.288   1.978  0.5075 -0.3190 -0.1570
  454MOL0     C62526   5.694   8.422   1.929  0.2304  0.5133  0.4194
  454MOL0     C62527   5.815   8.464   2.012 -0.2219 -0.6585 -0.8966
  454MOL0     C62528   5.835   8.620   2.014 -0.0161 -1.0537  0.3523
  454MOL0     C62529   5.884   8.671   1.878  0.0780 -0.1756 -0.2828
  454MOL0     C62530   5.763   8.738   1.811  0.4328  0.1516  0.3057
  454MOL0     N62531   5.814   8.774   1.677  0.2106 -0.4667 -0.1417
  454MOL0     C62532   5.797   8.688   1.569  0.3524  0.0048  0.2594
  454MOL0     C62533   5.868   8.749   1.467 -0.0738  0.0007  0.2825
  454MOL0     C62534   5.882   8.719   1.314 -0.3388  0.4371 -1.0936
  454MOL0     C62535   5.788   8.814   1.243  0.1518 -0.3221  0.2620
  454MOL0     C62536   5.751   8.778   1.094  0.2718 -0.6437  0.0746
  454MOL0     C62537   5.876   8.784   1.004  0.0837 -0.3617  0.2379
  454MOL0     O62538   5.862   8.729   0.873 -0.2975  0.3695 -0.3262
  454MOL0     C62539   5.980   8.730   0.798  0.7246  0.3601  0.0010
  454MOL0     C62540   5.965   8.646   0.680 -0.0653 -0.6671  0.0143
  454MOL0     C62541   6.067   8.603   0.606  0.8828  0.9379 -0.1587
  454MOL0     C62542   6.028   8.518   0.497 -0.0864  0.5774  0.4205
  454MOL0     C62543   6.196   8.652   0.624  0.2613 -0.0913  0.3524
  454MOL0     C62544   6.312   8.624   0.550 -0.3767  0.6979  0.5670
  454MOL0     O62545   6.367   8.738   0.481  0.0918 -0.2266 -0.2289
  454MOL0     C62546   6.472   8.721   0.399  0.0449 -0.0312  1.0208
  454MOL0     C62547   6.590   8.792   0.411 -0.1206  0.5782 -0.3824
  454MOL0     C62548   6.697   8.784   0.314  0.7354  0.2416  0.2260
  454MOL0     C62549   6.688   8.702   0.206 -0.6231 -0.1805 -0.3384
  454MOL0     O62550   6.794   8.671   0.128 -0.1955 -0.9124 -0.1248
  454MOL0     C62551   6.914   8.658   0.195 -0.5852 -0.0690 -0.4796
  454MOL0     C62552   7.017   8.589   0.105 -0.4728  0.2583  0.3898
  454MOL0     C62553   7.157   8.641   0.140  0.1011  0.0087 -0.1647
  454MOL0     C62554   7.253   8.637   0.014 -0.5731  0.2488  0.4756
  454MOL0     C62555   7.378   8.726   0.018  0.1793  0.3373 -0.5351
  454MOL0     C62556   7.497   8.684   0.109 -0.2794  0.0353 -0.6508
  454MOL0     C62557   7.552   8.547   0.075 -0.0358  0.3860 -0.7552
  454MOL0     C62558   7.638   8.524  -0.048  0.3046 -0.2615  0.4076
  454MOL0    Cl62559   7.768   8.647  -0.060 -0.1591  0.3807 -0.1262
  454MOL0     C62560   6.566   8.638   0.186 -0.6686 -0.1134  0.1627
  454MOL0     C62561   6.458   8.650   0.279  0.3535  0.5938  0.9922
  454MOL0     O62562   6.364   8.518   0.573  0.0759 -0.1010  0.2407
  454MOL0     C62563   6.220   8.741   0.726  0.0071 -1.1098 -0.4926
  454MOL0     C62564   6.114   8.778   0.825 -0.0402 -0.9818  0.3549
  454MOL0     N62565   5.931   8.855   1.530  0.2127 -0.0125  0.3197
  454MOL0     N62566   5.910   8.860   1.657 -0.1406 -0.1580 -0.3167
  454MOL0     C62567   5.396   8.029   2.282 -0.2177  0.5416  0.2630
  454MOL0     C62568   5.391   7.934   2.381 -0.0064 -0.3980 -0.2873
  454MOL0     C62569   5.368   7.461   2.477 -0.0380 -0.2944  0.1351
  454MOL0     C62570   5.261   7.467   2.568  0.2935  0.5734 -0.6303
  454MOL0     C62571   5.219   7.355   2.645 -0.1680 -0.6758 -0.1609
  454MOL0     C62572   5.279   7.230   2.622  0.4064 -0.3818  0.9953
  454MOL0     O62573   5.219   7.123   2.683 -0.1049  0.3754 -0.2653
  454MOL0     C62574   5.295   7.069   2.799  0.0780  0.0457  0.0129
  454MOL0     C62575   5.210   7.037   2.919 -0.7689 -0.2910  0.5927
  454MOL0     C62576   5.089   6.953   2.881 -0.9363  0.0585 -0.4935
  454MOL0     C62577   4.994   6.950   3.003 -0.2925  0.3082  0.3330
  454MOL0     C62578   4.934   7.084   3.006  0.2323  0.0035 -0.2490
  454MOL0     C62579   4.893   7.199   3.020  0.3446  0.2662 -0.7280
  454MOL0     C62580   5.379   7.223   2.524  0.2344 -0.0894 -0.4826
  454MOL0     C62581   5.427   7.334   2.458 -0.0639 -0.0503 -0.0523
  454MOL0     C62582   5.547   7.300   2.369 -0.3510 -0.2901  0.6613
  454MOL0     H62583   5.334   7.653   2.186  2.7043 -0.7172  0.5272
  454MOL0     H62584   5.344   7.834   2.000 -0.9960  0.6177 -0.7485
  454MOL0     H62585   5.416   8.042   1.864  1.3971 -1.3442 -0.1124
  454MOL0     H62586   5.565   8.044   1.959  0.8718  1.2236  2.2191
  454MOL0     H62587   5.546   8.247   1.800  0.8458  3.2949  0.0983
  454MOL0     H62588   5.431   8.304   1.913  0.1319 -0.5791  1.4096
  454MOL0     H62589   5.613   8.302   2.081  0.7964 -0.9021  0.0232
  454MOL0     H62590   5.726   8.212   1.973  0.8736 -0.1292  1.9291
  454MOL0     H62591   5.715   8.427   1.821  1.4253  1.6215  0.6616
  454MOL0     H62592   5.614   8.490   1.958  1.0840  2.2702 -1.0490
  454MOL0     H62593   5.904   8.409   1.980  1.7427  1.6762  0.2439
  454MOL0     H62594   5.785   8.429   2.111  3.1180 -0.9110  0.1332
  454MOL0     H62595   5.742   8.672   2.040  0.2127 -1.0693  1.2383
  454MOL0     H62596   5.908   8.639   2.094  0.5727 -0.6743 -0.2630
  454MOL0     H62597   5.922   8.577   1.838  3.3572  0.3866  1.1479
  454MOL0     H62598   5.965   8.742   1.896  0.0443 -0.5260  1.4607
  454MOL0     H62599   5.684   8.663   1.809  0.6817 -0.1527  1.5587
  454MOL0     H62600   5.733   8.833   1.857 -1.5359  0.3630 -1.2611
  454MOL0     H62601   5.744   8.594   1.573  1.2293 -0.8303 -3.5546
  454MOL0     H62602   5.854   8.617   1.288 -0.8374  0.7516 -1.8275
  454MOL0     H62603   5.981   8.738   1.271 -0.4738  1.4001 -1.0011
  454MOL0     H62604   5.690   8.814   1.292 -1.3287  3.1684 -2.3057
  454MOL0     H62605   5.834   8.913   1.251 -0.8863  0.0685  2.4323
  454MOL0     H62606   5.709   8.677   1.093  0.9195 -0.9225  0.3369
  454MOL0     H62607   5.685   8.853   1.051  1.0324 -1.4155 -2.5887
  454MOL0     H62608   5.901   8.890   0.994 -2.1768  0.6774  3.4932
  454MOL0     H62609   5.956   8.730   1.055 -0.3794 -0.9042  0.3999
  454MOL0     H62610   5.864   8.613   0.658  0.1965 -1.6010  0.1583
  454MOL0     H62611   6.037   8.419   0.541  4.2664  0.3347 -0.5486
  454MOL0     H62612   6.109   8.524   0.423 -0.6392 -0.7855 -0.3290
  454MOL0     H62613   5.932   8.541   0.450 -1.6947 -1.2985  2.6050
  454MOL0     H62614   6.595   8.862   0.494 -0.8424  0.6630 -0.4006
  454MOL0     H62615   6.781   8.839   0.356  1.3764 -0.5806  0.0541
  454MOL0     H62616   6.943   8.759   0.226 -1.9693 -0.2844  1.7386
  454MOL0     H62617   6.914   8.595   0.284 -0.4104  0.6706  0.0568
  454MOL0     H62618   7.000   8.482   0.123  0.1907 -0.2557 -1.7662
  454MOL0     H62619   6.996   8.611   0.000  1.8017  0.7752 -0.0187
  454MOL0     H62620   7.190   8.579   0.225  0.8851 -0.5934 -0.8900
  454MOL0     H62621   7.155   8.744   0.177  0.0882 -0.1723  0.3454
  454MOL0     H62622   7.198   8.681  -0.069 -1.6391  0.5682  1.3156
  454MOL0     H62623   7.271   8.530  -0.003 -0.8186  0.3279 -0.2978
  454MOL0     H62624   7.417   8.724  -0.085 -3.0007 -2.1087 -1.8604
  454MOL0     H62625   7.351   8.830   0.038  0.7374  0.6786 -1.4997
  454MOL0     H62626   7.453   8.678   0.209 -1.4469 -1.1287 -1.1964
  454MOL0     H62627   7.566   8.768   0.095  0.8440 -0.2522  2.4549
  454MOL0     H62628   7.477   8.467   0.077  0.5923 -0.2405 -1.6121
  454MOL0     H62629   7.615   8.517   0.159 -1.9243 -0.9784  0.2688
  454MOL0     H62630   7.584   8.538  -0.143  2.6966 -0.8021 -1.1333
  454MOL0     H62631   7.681   8.424  -0.046  0.4719 -0.1803  1.4953
  454MOL0     H62632   6.569   8.574   0.098  0.3766  0.4893 -0.2576
  454MOL0     H62633   6.366   8.600   0.252  1.6204 -1.3175  0.0355
  454MOL0     H62634   6.321   8.776   0.745  0.1617 -1.9837  0.3672
  454MOL0     H62635   6.132   8.842   0.911  0.2321  1.6567 -1.5290
  454MOL0     H62636   5.427   8.126   2.319 -1.0591  0.9004  0.0485
  454MOL0     H62637   5.421   7.971   2.478 -0.9107  1.8239 -0.7677
  454MOL0     H62638   5.208   7.560   2.584 -1.4984 -0.5352  0.2306
  454MOL0     H62639   5.133   7.372   2.710  0.1787  0.9323 -0.0682
  454MOL0     H62640   5.359   6.988   2.764  1.3078  1.1973 -0.5010
  454MOL0     H62641   5.362   7.144   2.843  2.7769 -1.0827 -1.9184
  454MOL0     H62642   5.180   7.132   2.964 -2.0712  0.3057 -1.4161
  454MOL0     H62643   5.274   6.981   2.988 -1.7302 -2.9678 -0.5130
  454MOL0     H62644   5.049   6.993   2.787  0.6032  2.4355 -0.2348
  454MOL0     H62645   5.130   6.854   2.860  0.5216  0.3514  0.7471
  454MOL0     H62646   5.051   6.925   3.092  2.9869  2.0654 -1.0609
  454MOL0     H62647   4.921   6.871   2.981  1.2603 -0.7515 -1.2974
  454MOL0     H62648   4.874   7.300   3.049  0.1584  0.4418 -1.4342
  454MOL0     H62649   5.428   7.127   2.526  2.2996  0.9150  1.3494
  454MOL0     H62650   5.540   7.200   2.324  0.1516  0.0846 -0.2865
  454MOL0     H62651   5.546   7.374   2.288  0.4524 -1.4853 -0.4921
  454MOL0     H62652   5.642   7.322   2.417 -1.4954  1.2919  2.3419
  455MOL0     O62653   3.118   1.450   4.732  0.3329  0.0586 -0.6408
  455MOL0     C62654   3.122   1.547   4.808  0.0601 -0.5149  0.3347
  455MOL0     O62655   3.091   1.549   4.944  0.0917 -0.2525  0.7024
  455MOL0     C62656   3.056   1.424   5.001  0.5433 -0.8906 -0.0007
  455MOL0     C62657   2.933   1.415   5.064 -0.5997  0.4132 -0.6525
  455MOL0     C62658   2.899   1.295   5.137 -0.0356 -0.2029 -0.5597
  455MOL0     C62659   2.980   1.181   5.113  0.2187  0.1821  0.1171
  455MOL0     O62660   2.930   1.069   5.169 -0.7781  0.5918 -0.5866
  455MOL0     C62661   3.008   0.952   5.175  0.0617  0.0582 -1.4490
  455MOL0     C62662   2.923   0.831   5.223  0.2138  0.1851  0.7938
  455MOL0     C62663   2.821   0.806   5.114  0.1310 -0.1404 -0.1259
  455MOL0     C62664   2.745   0.681   5.155  0.9434 -0.0821 -0.6185
  455MOL0     C62665   2.631   0.640   5.064  0.2091  0.7500 -0.9251
  455MOL0     C62666   2.560   0.508   5.103 -0.1958 -0.1587 -0.7125
  455MOL0     C62667   2.433   0.486   5.020 -0.0478 -0.2595 -0.2552
  455MOL0     C62668   2.306   0.553   5.058  0.4668  0.2406 -0.5363
  455MOL0     N62669   2.262   0.503   5.190 -0.1825  0.7386  0.5080
  455MOL0     C62670   2.179   0.390   5.215  0.6735 -0.1310  0.6919
  455MOL0     C62671   2.158   0.396   5.354 -0.7769  0.0265  0.4784
  455MOL0     C62672   2.080   0.302   5.443  0.4837  0.1387  0.1780
  455MOL0     C62673   2.122   0.290   5.593  0.0970 -0.5664  1.2422
  455MOL0     C62674   2.028   0.228   5.677 -0.7326  0.7292  0.5638
  455MOL0     C62675   2.032   0.255   5.837  0.0780  0.7346 -0.3560
  455MOL0     O62676   1.937   0.171   5.908 -0.3909  0.1749  0.0486
  455MOL0     C62677   1.804   0.199   5.889 -0.7478  0.7384 -0.4694
  455MOL0     C62678   1.758   0.332   5.849  0.0993  0.4088  0.3805
  455MOL0     C62679   1.619   0.356   5.852  0.8457 -1.0561  0.3234
  455MOL0     C62680   1.578   0.511   5.828 -0.2018  0.4936  0.5671
  455MOL0     C62681   1.524   0.255   5.878  0.2120  0.9760  0.0671
  455MOL0     C62682   1.376   0.269   5.871  0.0475 -0.0734 -0.2048
  455MOL0     O62683   1.308   0.153   5.864  0.1522 -0.3649 -0.3008
  455MOL0     C62684   1.179   0.143   5.867  0.7070  0.0860 -0.5104
  455MOL0     C62685   1.089   0.228   5.935 -0.0350  0.4522  0.1461
  455MOL0     C62686   0.952   0.227   5.910 -0.3331 -0.2313  0.4065
  455MOL0     C62687   0.900   0.121   5.824  0.2262 -0.7304 -0.0840
  455MOL0     O62688   0.761   0.116   5.814  0.3058  0.0900 -0.5006
  455MOL0     C62689   0.702   0.030   5.713 -0.3166 -0.5941 -0.1698
  455MOL0     C62690   0.554   0.064   5.712  0.3687  0.7614 -0.0429
  455MOL0     C62691   0.489  -0.013   5.834  0.1765 -0.6565  0.8536
  455MOL0     C62692   0.402  -0.134   5.805 -0.1701  0.6164  0.7316
  455MOL0     C62693   0.319  -0.181   5.917 -0.9204  0.4995 -0.8624
  455MOL0     C62694   0.235  -0.305   5.876  0.1385  0.2048  0.0432
  455MOL0     C62695   0.192  -0.390   6.001 -0.5262 -0.1331  0.2759
  455MOL0     C62696   0.060  -0.467   5.990  1.0242 -0.1539  0.8760
  455MOL0    Cl62697   0.048  -0.569   5.841  0.1719 -0.0534 -0.0693
  455MOL0     C62698   0.992   0.032   5.777 -0.0301  0.2212  0.9161
  455MOL0     C62699   1.130   0.035   5.794 -0.0014 -0.3512  0.2727
  455MOL0     O62700   1.330   0.387   5.863  0.5488  0.2847 -0.3632
  455MOL0     C62701   1.586   0.130   5.911  1.3505 -0.6466 -0.2244
  455MOL0     C62702   1.716   0.102   5.916  0.3766 -0.1787  0.0093
  455MOL0     N62703   2.229   0.505   5.408  0.7178  1.5001  0.4428
  455MOL0     N62704   2.282   0.567   5.308  0.1407 -0.6805  0.1951
  455MOL0     C62705   3.105   1.190   5.050 -0.0511  0.0234  0.3877
  455MOL0     C62706   3.142   1.315   4.996  0.4297  0.9913 -0.1314
  455MOL0     C62707   3.199   1.664   4.763  0.6690 -0.2660  0.0521
  455MOL0     C62708   3.216   1.764   4.863 -1.0511  0.0073  0.1068
  455MOL0     C62709   3.300   1.873   4.842  0.2342 -0.0265 -0.1360
  455MOL0     C62710   3.351   1.893   4.719 -1.3808 -0.0986  0.1212
  455MOL0     O62711   3.442   2.001   4.706  0.2332 -0.3611 -0.0004
  455MOL0     C62712   3.586   1.993   4.708  0.0210  0.3710 -1.2001
  455MOL0     C62713   3.650   2.133   4.686 -0.1901  0.5431 -1.0504
  455MOL0     C62714   3.620   2.219   4.816  0.0356 -0.2145  0.1983
  455MOL0     C62715   3.673   2.360   4.820 -0.2785  0.2073  0.5494
  455MOL0     C62716   3.579   2.436   4.740 -0.3898 -0.4288  0.7549
  455MOL0     C62717   3.497   2.508   4.680 -0.4497  0.0119 -0.3465
  455MOL0     C62718   3.334   1.808   4.616 -0.6669  0.0951  0.5756
  455MOL0     C62719   3.253   1.691   4.634 -0.2129 -0.2417  0.3766
  455MOL0     C62720   3.213   1.610   4.507  0.8664  0.5790 -0.5114
  455MOL0     H62721   2.872   1.504   5.071 -0.5619  0.4140 -0.3346
  455MOL0     H62722   2.807   1.291   5.195 -0.8391  1.0743 -1.6740
  455MOL0     H62723   3.081   0.950   5.256  0.1866 -4.2138 -1.4340
  455MOL0     H62724   3.054   0.922   5.080 -1.4901  0.7201 -2.4596
  455MOL0     H62725   2.987   0.743   5.231 -0.2290 -0.1270  0.9184
  455MOL0     H62726   2.883   0.837   5.325 -1.7325  0.2332  0.0786
  455MOL0     H62727   2.752   0.889   5.101  0.7637  0.7298  1.6758
  455MOL0     H62728   2.862   0.789   5.014  1.2256 -1.4769  0.5070
  455MOL0     H62729   2.818   0.600   5.163  0.4047 -0.6346 -1.1721
  455MOL0     H62730   2.702   0.706   5.252  0.2176  2.0315 -1.4370
  455MOL0     H62731   2.674   0.616   4.966  0.6714 -0.1910 -0.5047
  455MOL0     H62732   2.557   0.720   5.060  0.4638  0.9827 -0.9863
  455MOL0     H62733   2.629   0.427   5.079  0.1216 -0.1838  0.2405
  455MOL0     H62734   2.547   0.498   5.211  1.8607 -2.5687 -0.6003
  455MOL0     H62735   2.416   0.378   5.031  0.8182 -0.5237 -1.1918
  455MOL0     H62736   2.461   0.500   4.915  0.9603 -2.0775 -0.2839
  455MOL0     H62737   2.320   0.660   5.075 -0.3483  0.4657 -1.1906
  455MOL0     H62738   2.220   0.531   4.995 -2.5569  0.9922  3.0019
  455MOL0     H62739   2.153   0.303   5.156  4.5044 -2.4543  2.0794
  455MOL0     H62740   2.094   0.202   5.399 -2.3766 -0.4117  0.3123
  455MOL0     H62741   1.972   0.311   5.431  0.7169 -0.2585 -2.9323
  455MOL0     H62742   2.212   0.229   5.598  0.5566  0.1220  1.4781
  455MOL0     H62743   2.133   0.390   5.636  0.1529 -1.2156  2.8009
  455MOL0     H62744   1.929   0.234   5.632 -1.2684 -3.4212  0.7927
  455MOL0     H62745   2.054   0.122   5.667  0.7212  1.0870  0.2507
  455MOL0     H62746   2.132   0.226   5.869  1.3921  1.6895 -3.2495
  455MOL0     H62747   2.025   0.362   5.860  1.2890  0.6607  0.4341
  455MOL0     H62748   1.825   0.411   5.817 -1.7502  1.4109 -1.1560
  455MOL0     H62749   1.669   0.559   5.791  1.0695 -1.6157  0.7341
  455MOL0     H62750   1.519   0.557   5.908 -0.1613  1.4313  0.0584
  455MOL0     H62751   1.512   0.499   5.741  1.7409  3.0179 -1.3955
  455MOL0     H62752   1.135   0.313   5.984 -0.0343  1.2336 -1.1477
  455MOL0     H62753   0.880   0.300   5.944  1.0929 -0.3751  4.2068
  455MOL0     H62754   0.732   0.063   5.613 -2.3865 -0.4575 -0.7850
  455MOL0     H62755   0.729  -0.076   5.719 -0.8366 -0.6439  2.4041
  455MOL0     H62756   0.533   0.171   5.726 -1.3501  0.7159 -1.9499
  455MOL0     H62757   0.514   0.027   5.618  2.4176  0.0958 -0.7059
  455MOL0     H62758   0.410   0.052   5.872 -3.4256 -3.1094 -1.7296
  455MOL0     H62759   0.561  -0.042   5.911  1.0909 -3.3205 -0.8398
  455MOL0     H62760   0.466  -0.214   5.766 -0.0566  1.1831 -0.2811
  455MOL0     H62761   0.334  -0.103   5.726  2.0791  2.5161 -0.5798
  455MOL0     H62762   0.381  -0.209   6.003 -0.4249  0.3525 -1.2619
  455MOL0     H62763   0.252  -0.098   5.940  1.6902  3.4577 -2.9774
  455MOL0     H62764   0.304  -0.366   5.817  1.1867  0.9375  0.4944
  455MOL0     H62765   0.152  -0.274   5.812 -0.4115 -1.5746 -0.1776
  455MOL0     H62766   0.180  -0.326   6.089 -1.2227 -2.6588  2.1520
  455MOL0     H62767   0.275  -0.459   6.018 -0.0829  0.8337  2.3345
  455MOL0     H62768  -0.026  -0.400   5.997  0.3291 -0.9296 -0.0552
  455MOL0     H62769   0.040  -0.527   6.079 -0.4737 -0.4954  0.3305
  455MOL0     H62770   0.965  -0.064   5.732  3.6664  0.3342 -2.1347
  455MOL0     H62771   1.188  -0.041   5.744 -0.1423 -0.3394  0.0896
  455MOL0     H62772   1.518   0.052   5.944 -0.4034  1.2024  0.7123
  455MOL0     H62773   1.745   0.000   5.939 -0.8473 -0.3959  0.6921
  455MOL0     H62774   3.170   1.104   5.039 -1.4183 -0.9520 -0.4968
  455MOL0     H62775   3.241   1.321   4.952 -0.3271 -1.4129 -2.4072
  455MOL0     H62776   3.167   1.762   4.960 -0.4454 -0.2864  0.4095
  455MOL0     H62777   3.325   1.952   4.912 -0.7217 -0.6615  0.9648
  455MOL0     H62778   3.630   1.958   4.802  0.7725  0.4843 -1.5009
  455MOL0     H62779   3.624   1.922   4.633  2.7897 -0.0273  0.4271
  455MOL0     H62780   3.598   2.176   4.600 -3.8499  0.0406  0.7461
  455MOL0     H62781   3.758   2.125   4.671  0.1617  0.5644  1.1254
  455MOL0     H62782   3.513   2.223   4.839  0.0390  0.2290  0.1602
  455MOL0     H62783   3.679   2.176   4.897  2.1959 -0.4782 -1.4338
  455MOL0     H62784   3.776   2.356   4.783  0.7272 -0.2780  3.1142
  455MOL0     H62785   3.675   2.403   4.921 -2.1076 -1.7704  1.4853
  455MOL0     H62786   3.416   2.555   4.627 -1.3116  3.7336  3.7124
  455MOL0     H62787   3.371   1.834   4.518 -0.5767 -1.6184  0.1236
  455MOL0     H62788   3.244   1.505   4.503  0.1659  0.3784 -0.8547
  455MOL0     H62789   3.106   1.602   4.488 -0.2119  1.0448  4.2415
  455MOL0     H62790   3.263   1.651   4.418  1.4843 -4.8088 -3.0226
  456MOL0     O62791   3.625   9.414   1.424  0.0682  0.7370 -0.5417
  456MOL0     C62792   3.530   9.478   1.470 -0.7766 -0.4108  0.2661
  456MOL0     O62793   3.545   9.573   1.564 -0.4194 -0.0602 -0.0054
  456MOL0     C62794   3.665   9.601   1.622 -0.6718  1.2770 -0.7139
  456MOL0     C62795   3.692   9.549   1.749  0.1516 -0.9906  1.0304
  456MOL0     C62796   3.818   9.578   1.799 -0.0083 -0.9846 -0.6417
  456MOL0     C62797   3.900   9.674   1.737 -0.9420 -0.0218  0.7009
  456MOL0     O62798   4.009   9.725   1.815 -0.4692 -0.1145  0.0663
  456MOL0     C62799   4.133   9.756   1.748  0.8668  0.4472  0.1419
  456MOL0     C62800   4.249   9.744   1.852 -0.1231 -0.7003  0.3994
  456MOL0     C62801   4.268   9.599   1.896  0.3627  0.0820  0.1229
  456MOL0     C62802   4.397   9.590   1.995  0.0267 -0.2302 -0.1279
  456MOL0     C62803   4.527   9.643   1.929  0.1818 -0.3532 -0.4745
  456MOL0     C62804   4.646   9.649   2.025  0.0958  1.1420  1.0279
  456MOL0     C62805   4.774   9.666   1.942 -0.7306  0.9267  0.9045
  456MOL0     C62806   4.842   9.534   1.902 -0.2207  0.5793  0.2750
  456MOL0     N62807   4.991   9.540   1.873  0.2976  0.0602  0.1609
  456MOL0     C62808   5.054   9.620   1.787 -0.5055 -0.3929  0.2427
  456MOL0     C62809   5.190   9.612   1.821  0.4791 -0.5713 -0.4888
  456MOL0     C62810   5.286   9.700   1.743  0.5095 -0.2632 -0.2662
  456MOL0     C62811   5.425   9.653   1.742  0.1192  0.8710  0.0709
  456MOL0     C62812   5.491   9.698   1.615 -0.3312 -0.0115  0.1918
  456MOL0     C62813   5.645   9.694   1.618 -0.2447  0.1758  0.1782
  456MOL0     O62814   5.692   9.565   1.581 -0.3788  0.2086  0.0536
  456MOL0     C62815   5.822   9.527   1.627  0.4677 -0.6111 -0.7945
  456MOL0     C62816   5.857   9.394   1.612 -0.1027  0.1718 -0.1182
  456MOL0     C62817   5.991   9.348   1.636  0.1630 -0.1521  0.6571
  456MOL0     C62818   6.008   9.206   1.597  0.3509  0.3995 -0.1303
  456MOL0     C62819   6.091   9.442   1.678  0.3003  0.1593 -0.8561
  456MOL0     C62820   6.226   9.388   1.714  0.1094 -0.1984  0.4009
  456MOL0     O62821   6.243   9.256   1.725  0.1234  0.5246 -0.4280
  456MOL0     C62822   6.353   9.190   1.752  0.3686  0.0485 -0.4072
  456MOL0     C62823   6.344   9.083   1.831 -0.1016  0.3840 -0.3349
  456MOL0     C62824   6.461   9.018   1.880  0.3318 -0.6823 -0.0909
  456MOL0     C62825   6.589   9.061   1.854 -0.2220  0.5581 -0.1244
  456MOL0     O62826   6.707   9.007   1.909  0.3344  0.8683  0.0312
  456MOL0     C62827   6.708   8.924   2.032  0.2018  0.3203  1.0499
  456MOL0     C62828   6.702   8.769   2.013 -0.4652 -0.0835  0.3235
  456MOL0     C62829   6.815   8.730   1.919  0.2021  0.7007 -0.3999
  456MOL0     C62830   6.829   8.574   1.932  0.2372  0.5979 -0.7560
  456MOL0     C62831   6.940   8.527   1.839  0.1051 -0.0386 -1.6317
  456MOL0     C62832   6.970   8.390   1.894 -0.0785 -0.3969 -0.2132
  456MOL0     C62833   7.080   8.357   1.792  0.1415  0.2721 -0.2197
  456MOL0     C62834   7.157   8.233   1.819  0.1919  0.1168  0.2691
  456MOL0    Cl62835   7.061   8.098   1.892 -0.4713  0.2012  0.0389
  456MOL0     C62836   6.587   9.176   1.771 -0.4988  0.4004 -1.0962
  456MOL0     C62837   6.475   9.242   1.727 -0.0784  0.9192 -0.1652
  456MOL0     O62838   6.317   9.472   1.738 -0.3550  0.1726 -0.2439
  456MOL0     C62839   6.058   9.574   1.692  0.3744 -0.0776 -0.5661
  456MOL0     C62840   5.921   9.614   1.654  0.2823 -0.2527 -0.4655
  456MOL0     N62841   5.208   9.517   1.930  0.0434  0.1984 -0.6926
  456MOL0     N62842   5.089   9.468   1.942  0.0636  0.1653 -0.2709
  456MOL0     C62843   3.882   9.720   1.606  0.0239 -0.1464  0.1679
  456MOL0     C62844   3.755   9.685   1.554 -1.2422 -0.2328  0.0677
  456MOL0     C62845   3.391   9.454   1.420  1.5834  0.7955 -0.0950
  456MOL0     C62846   3.282   9.521   1.475 -0.2496  0.2087  0.0777
  456MOL0     C62847   3.151   9.506   1.438 -0.9016  0.6896  0.0217
  456MOL0     C62848   3.117   9.414   1.338  0.2343  0.2682 -0.5152
  456MOL0     O62849   2.980   9.384   1.318 -0.7171  0.0712 -0.0930
  456MOL0     C62850   2.926   9.262   1.377 -0.6510  0.0537 -0.3563
  456MOL0     C62851   2.811   9.220   1.291  0.5354  0.0608  1.2724
  456MOL0     C62852   2.876   9.138   1.169 -0.2968 -0.2719 -0.0436
  456MOL0     C62853   2.771   9.059   1.095 -0.6198  0.1077  0.1221
  456MOL0     C62854   2.828   8.979   0.986 -0.9981 -0.2392 -0.3865
  456MOL0     C62855   2.878   8.921   0.892 -0.3668 -0.0353 -0.2943
  456MOL0     C62856   3.216   9.348   1.275 -0.2794  0.8031 -0.0071
  456MOL0     C62857   3.351   9.369   1.307 -0.4754  0.2358 -1.4178
  456MOL0     C62858   3.451   9.309   1.209  0.2906 -0.2919  0.0365
  456MOL0     H62859   3.618   9.487   1.798 -1.4179 -1.9079 -2.2055
  456MOL0     H62860   3.855   9.538   1.893 -0.4476  2.8979  1.3934
  456MOL0     H62861   4.135   9.861   1.716  1.6888 -0.2253 -2.1922
  456MOL0     H62862   4.139   9.684   1.667 -1.1931  0.6891 -0.2849
  456MOL0     H62863   4.336   9.776   1.794 -1.7342  0.9336 -1.2605
  456MOL0     H62864   4.231   9.813   1.935 -0.7729  0.6324 -0.8030
  456MOL0     H62865   4.179   9.563   1.947 -1.0379  1.5759 -1.1784
  456MOL0     H62866   4.273   9.542   1.803  1.2162 -0.3870  0.4380
  456MOL0     H62867   4.373   9.651   2.083 -4.5402 -0.0253 -1.2429
  456MOL0     H62868   4.406   9.491   2.040  1.2807 -0.4418 -0.8097
  456MOL0     H62869   4.524   9.751   1.909  1.2680 -0.0006  1.1314
  456MOL0     H62870   4.549   9.585   1.839  2.2062 -0.3414 -0.0210
  456MOL0     H62871   4.632   9.741   2.082  1.9389  0.0405  3.4217
  456MOL0     H62872   4.645   9.557   2.084  0.2454  2.5210  3.2975
  456MOL0     H62873   4.844   9.706   2.016  0.5667 -0.1474  0.3022
  456MOL0     H62874   4.768   9.732   1.855  3.9112 -0.1065 -0.4552
  456MOL0     H62875   4.835   9.463   1.985  1.5785 -0.3518 -0.3252
  456MOL0     H62876   4.795   9.491   1.813  0.9717  1.2501 -0.6885
  456MOL0     H62877   5.000   9.684   1.718 -1.5690 -2.5166 -1.0165
  456MOL0     H62878   5.289   9.800   1.786  0.0030 -0.5158  0.3677
  456MOL0     H62879   5.246   9.719   1.642  0.3388  3.4715  0.3713
  456MOL0     H62880   5.479   9.701   1.824  0.6524  0.0309  0.2187
  456MOL0     H62881   5.440   9.546   1.754  0.7119  1.0870  1.3984
  456MOL0     H62882   5.463   9.631   1.533  1.0118 -0.8195  0.3672
  456MOL0     H62883   5.455   9.796   1.583  0.6881 -0.4846 -2.7346
  456MOL0     H62884   5.684   9.768   1.547 -0.5955  0.5988  0.4232
  456MOL0     H62885   5.678   9.727   1.716 -5.4977  2.1439  1.6308
  456MOL0     H62886   5.776   9.323   1.600 -0.3593  0.6990 -1.6829
  456MOL0     H62887   5.954   9.182   1.506  0.1139  1.4690 -0.2815
  456MOL0     H62888   5.958   9.149   1.676 -2.1546  0.2137 -1.7525
  456MOL0     H62889   6.107   9.164   1.574  0.5840  1.0067 -0.2437
  456MOL0     H62890   6.257   9.020   1.844 -0.5111  1.1090  0.5364
  456MOL0     H62891   6.429   8.930   1.935 -3.4864  0.3900 -0.3164
  456MOL0     H62892   6.804   8.940   2.083  0.9360 -2.0432  0.5241
  456MOL0     H62893   6.627   8.950   2.101 -2.0404  2.7198 -2.1921
  456MOL0     H62894   6.721   8.731   2.114  1.8337 -1.7345 -0.6500
  456MOL0     H62895   6.606   8.741   1.969 -0.9089  2.8696 -0.8419
  456MOL0     H62896   6.904   8.781   1.956  0.1683  2.7968 -2.9238
  456MOL0     H62897   6.792   8.760   1.817  2.0457  0.3991 -0.9383
  456MOL0     H62898   6.736   8.520   1.912 -0.2033  1.8173 -2.1870
  456MOL0     H62899   6.855   8.560   2.037  2.0277  2.6738 -0.8435
  456MOL0     H62900   6.912   8.519   1.734  0.5703  2.0320 -1.9432
  456MOL0     H62901   7.022   8.599   1.848 -0.9790  1.0212  0.5139
  456MOL0     H62902   6.882   8.326   1.896 -0.8173  0.3382  4.5736
  456MOL0     H62903   7.024   8.385   1.989  0.8463 -1.5169 -0.7652
  456MOL0     H62904   7.151   8.440   1.785 -0.9787  1.2113 -0.9630
  456MOL0     H62905   7.038   8.343   1.691 -0.0741 -0.7293 -0.0035
  456MOL0     H62906   7.236   8.258   1.890  1.2531  2.6083 -1.6342
  456MOL0     H62907   7.199   8.198   1.724 -1.3304 -1.5723  0.1615
  456MOL0     H62908   6.691   9.200   1.750  0.0907 -1.5903 -0.6551
  456MOL0     H62909   6.491   9.334   1.672  0.5458  2.4621  2.4433
  456MOL0     H62910   6.134   9.645   1.722  0.1981  0.7255 -1.9366
  456MOL0     H62911   5.887   9.717   1.662 -0.8150 -0.7489  3.9267
  456MOL0     H62912   3.944   9.791   1.553 -1.5494  1.4516  0.3678
  456MOL0     H62913   3.725   9.718   1.455 -0.1382 -0.9888 -0.5543
  456MOL0     H62914   3.294   9.602   1.547  2.2450 -0.0265 -0.0080
  456MOL0     H62915   3.069   9.560   1.484 -1.8876  0.4341 -1.3949
  456MOL0     H62916   3.016   9.202   1.390  0.6711  2.0924  0.3456
  456MOL0     H62917   2.887   9.278   1.478  1.3969 -1.4635  0.7531
  456MOL0     H62918   2.758   9.308   1.255 -3.1771 -2.2603  0.5700
  456MOL0     H62919   2.745   9.152   1.346  2.2142 -0.8541  2.2565
  456MOL0     H62920   2.914   9.215   1.102 -2.3151  2.3129  1.5472
  456MOL0     H62921   2.952   9.074   1.213 -0.7403  0.6998  2.2868
  456MOL0     H62922   2.715   9.140   1.048 -0.7912  1.0096  1.7870
  456MOL0     H62923   2.710   8.996   1.161  0.7468  0.1414  1.4805
  456MOL0     H62924   2.926   8.858   0.820 -0.5443 -1.7173  0.9950
  456MOL0     H62925   3.186   9.287   1.191  2.6112  0.0758 -0.6345
  456MOL0     H62926   3.517   9.240   1.263 -2.5669 -0.0528  4.3803
  456MOL0     H62927   3.406   9.261   1.122 -1.3853  2.9237 -1.0423
  456MOL0     H62928   3.512   9.394   1.178 -1.0486  1.4315  1.8421
  457MOL0     O62929   5.194   2.400   4.167 -0.1351  0.0835  0.3782
  457MOL0     C62930   5.169   2.409   4.045  0.1733 -0.3488 -0.0030
  457MOL0     O62931   5.048   2.391   3.990 -0.2692  0.4990 -0.0845
  457MOL0     C62932   4.949   2.331   4.066 -1.2970  1.3155 -0.6931
  457MOL0     C62933   4.957   2.192   4.104 -0.1826  0.1044 -0.1254
  457MOL0     C62934   4.847   2.138   4.167 -0.1570  0.3307 -0.1173
  457MOL0     C62935   4.744   2.216   4.208  0.0379  0.6404  0.1284
  457MOL0     O62936   4.640   2.177   4.283 -0.3171  0.0451  0.3202
  457MOL0     C62937   4.664   2.080   4.383 -0.4855 -0.2114 -0.2411
  457MOL0     C62938   4.523   2.057   4.417  1.0518  0.5372 -1.1696
  457MOL0     C62939   4.465   2.139   4.537  0.8813 -1.1555 -0.5025
  457MOL0     C62940   4.406   2.279   4.505 -0.0619 -0.2417 -0.5868
  457MOL0     C62941   4.504   2.390   4.499  0.8558  0.3447 -0.6156
  457MOL0     C62942   4.619   2.404   4.603 -0.8967  0.1821  0.1444
  457MOL0     C62943   4.684   2.545   4.574 -0.1895  0.2951 -1.5767
  457MOL0     C62944   4.777   2.526   4.450 -0.8653 -0.2806 -0.0058
  457MOL0     N62945   4.918   2.571   4.495  0.3904  0.4731 -0.6440
  457MOL0     C62946   5.019   2.612   4.411  0.1036 -0.2920 -0.1191
  457MOL0     C62947   5.134   2.628   4.495  0.0659 -0.3788  0.3308
  457MOL0     C62948   5.270   2.677   4.456 -0.0157 -0.3847 -0.0841
  457MOL0     C62949   5.355   2.728   4.575  0.7171  0.1252 -0.5074
  457MOL0     C62950   5.478   2.813   4.528  0.3057  0.5153 -0.3322
  457MOL0     C62951   5.581   2.839   4.635  0.7798  0.0333 -0.3777
  457MOL0     O62952   5.529   2.927   4.738 -0.0277 -0.4578  0.7852
  457MOL0     C62953   5.597   2.953   4.857  0.6726 -0.1168  0.2094
  457MOL0     C62954   5.725   2.891   4.878  0.5785 -0.0491  0.2757
  457MOL0     C62955   5.789   2.919   4.995 -0.3931 -0.0037  0.1148
  457MOL0     C62956   5.924   2.845   5.005 -0.1689  0.0365 -1.0251
  457MOL0     C62957   5.736   3.016   5.086  0.7143  0.5301  0.5817
  457MOL0     C62958   5.811   3.065   5.195 -0.0746  0.0045 -0.0738
  457MOL0     O62959   5.745   3.128   5.297  0.6267 -0.8546  0.0822
  457MOL0     C62960   5.797   3.177   5.415 -0.1666 -0.0635  0.6457
  457MOL0     C62961   5.924   3.147   5.467 -0.2001  0.6109  0.1996
  457MOL0     C62962   5.968   3.199   5.587 -0.0300  0.1489 -0.7164
  457MOL0     C62963   5.883   3.265   5.679  0.5147  0.8478  0.6312
  457MOL0     O62964   5.916   3.328   5.797 -0.1450  0.6113 -0.3445
  457MOL0     C62965   6.052   3.357   5.820  0.3639 -0.0669  0.0749
  457MOL0     C62966   6.063   3.397   5.965 -0.5623  0.2874  0.3481
  457MOL0     C62967   5.984   3.528   5.994 -0.0630 -1.1693 -0.7214
  457MOL0     C62968   6.029   3.656   5.913 -0.3479  0.3632 -0.7618
  457MOL0     C62969   5.968   3.783   5.978 -0.5444  0.2640  0.7706
  457MOL0     C62970   5.810   3.780   5.975  0.0328 -0.7209 -0.3082
  457MOL0     C62971   5.750   3.910   6.029 -0.7013 -0.0925 -0.2701
  457MOL0     C62972   5.759   4.029   5.927  0.3590  0.6975  0.2674
  457MOL0    Cl62973   5.624   4.016   5.804  0.1604 -0.5524 -0.0175
  457MOL0     C62974   5.754   3.289   5.634 -0.0527  0.1153  0.7639
  457MOL0     C62975   5.721   3.250   5.501 -0.0124  0.7565  0.0795
  457MOL0     O62976   5.936   3.050   5.195  0.3724  0.4830  0.3709
  457MOL0     C62977   5.607   3.071   5.067 -0.1740 -0.6435 -0.2184
  457MOL0     C62978   5.536   3.027   4.954 -0.5489 -0.0105 -0.2719
  457MOL0     N62979   5.091   2.595   4.620  0.0739 -0.0521 -0.6628
  457MOL0     N62980   4.970   2.557   4.620  0.0087 -1.2711 -0.3005
  457MOL0     C62981   4.745   2.351   4.168 -0.3367 -0.0979  0.1266
  457MOL0     C62982   4.845   2.413   4.100 -0.0855  0.2332  0.8229
  457MOL0     C62983   5.276   2.425   3.946  0.2146 -0.2181 -0.1252
  457MOL0     C62984   5.256   2.512   3.839  1.3952 -0.3932  0.5570
  457MOL0     C62985   5.359   2.540   3.751 -0.2949 -0.1315  0.1784
  457MOL0     C62986   5.492   2.500   3.769  0.7061 -0.1621 -0.7675
  457MOL0     O62987   5.598   2.539   3.686 -0.2928  0.3138  0.3480
  457MOL0     C62988   5.654   2.659   3.724 -0.8220  0.0463 -0.0182
  457MOL0     C62989   5.787   2.672   3.652  0.2354  0.7655 -0.3646
  457MOL0     C62990   5.896   2.576   3.704 -1.2652 -0.2382 -0.7020
  457MOL0     C62991   6.035   2.591   3.652  0.2473 -0.2339  0.0118
  457MOL0     C62992   6.039   2.550   3.512 -0.2784  0.2951 -0.4876
  457MOL0     C62993   6.047   2.508   3.397  0.1344  0.5507 -0.1569
  457MOL0     C62994   5.508   2.412   3.878 -0.4245  0.7711  0.8749
  457MOL0     C62995   5.408   2.375   3.962 -0.4811  0.2536 -0.1939
  457MOL0     C62996   5.446   2.282   4.080 -0.2039 -1.0423  0.6881
  457MOL0     H62997   5.042   2.131   4.077 -0.3870 -0.8113  1.2107
  457MOL0     H62998   4.865   2.036   4.198  1.7214  0.4662 -0.6390
  457MOL0     H62999   4.732   2.121   4.459 -1.5924  3.8691 -1.1979
  457MOL0     H63000   4.698   1.983   4.347 -3.1772 -1.7139  1.0290
  457MOL0     H63001   4.462   2.067   4.326 -1.3490  1.6912  0.4509
  457MOL0     H63002   4.523   1.951   4.442 -0.7726  0.0239 -3.0468
  457MOL0     H63003   4.375   2.092   4.577  1.9683 -0.2617  3.4648
  457MOL0     H63004   4.538   2.154   4.617  0.2572 -0.2425 -0.0854
  457MOL0     H63005   4.360   2.268   4.406 -1.3939 -2.3129  0.2055
  457MOL0     H63006   4.336   2.295   4.587 -2.1670  0.0425 -2.3648
  457MOL0     H63007   4.446   2.482   4.487  1.3126  0.6389 -0.5950
  457MOL0     H63008   4.557   2.379   4.404  1.4958  1.1026 -0.3568
  457MOL0     H63009   4.580   2.392   4.705 -0.2181 -1.7484  0.2239
  457MOL0     H63010   4.682   2.314   4.599 -0.9227  0.1523  0.3925
  457MOL0     H63011   4.732   2.575   4.668 -1.9455  0.7804 -0.7999
  457MOL0     H63012   4.605   2.619   4.560 -1.6341 -0.6353  0.9869
  457MOL0     H63013   4.794   2.428   4.405  0.4376  0.3920 -1.0348
  457MOL0     H63014   4.734   2.592   4.375 -0.9476 -0.3360 -0.0082
  457MOL0     H63015   5.012   2.615   4.303  0.0628 -1.6425 -0.1680
  457MOL0     H63016   5.264   2.759   4.384  0.2697 -0.2574  0.0320
  457MOL0     H63017   5.325   2.593   4.414  0.4406 -0.3932  0.5116
  457MOL0     H63018   5.302   2.797   4.640  3.9775  3.0499 -0.6556
  457MOL0     H63019   5.390   2.644   4.636  3.0587  1.9004  0.7519
  457MOL0     H63020   5.521   2.751   4.449 -1.1943 -0.9911 -0.0230
  457MOL0     H63021   5.452   2.908   4.481  1.0913  0.1676 -1.5208
  457MOL0     H63022   5.593   2.739   4.678  1.9719 -0.3863 -1.6361
  457MOL0     H63023   5.677   2.877   4.600  0.9309  3.0348  2.7619
  457MOL0     H63024   5.763   2.813   4.813 -2.0641 -3.2304  2.2311
  457MOL0     H63025   6.012   2.909   5.015  0.8219 -1.0840 -2.0932
  457MOL0     H63026   5.955   2.795   4.913  2.1468 -1.7157  0.5813
  457MOL0     H63027   5.921   2.768   5.082  0.8761 -1.9018 -2.7968
  457MOL0     H63028   5.981   3.064   5.428 -1.4853 -0.7869  1.2007
  457MOL0     H63029   6.065   3.172   5.626 -1.4108 -0.1851  2.9052
  457MOL0     H63030   6.123   3.274   5.811 -1.8396 -1.8203 -3.1655
  457MOL0     H63031   6.085   3.431   5.746  3.5548 -1.8536 -0.4695
  457MOL0     H63032   6.031   3.315   6.029 -1.4641  0.0935 -0.3233
  457MOL0     H63033   6.164   3.410   6.005 -0.5706  0.3893  0.3378
  457MOL0     H63034   6.005   3.549   6.099 -0.5624  0.7988 -0.9810
  457MOL0     H63035   5.876   3.513   5.980 -1.4949  1.3380  4.9082
  457MOL0     H63036   5.988   3.633   5.814 -1.9913 -0.3044  0.0405
  457MOL0     H63037   6.138   3.664   5.910 -0.3265  0.0181 -0.9792
  457MOL0     H63038   6.002   3.799   6.081  0.7801  0.3888  0.3257
  457MOL0     H63039   6.007   3.872   5.927 -1.5609  1.2127  1.5828
  457MOL0     H63040   5.777   3.714   6.056  0.8109  0.0388  0.6496
  457MOL0     H63041   5.767   3.752   5.878 -0.5783 -0.0924 -0.2261
  457MOL0     H63042   5.805   3.935   6.121  0.7951  0.9897 -1.4015
  457MOL0     H63043   5.646   3.888   6.056  0.0249  1.9014  5.4477
  457MOL0     H63044   5.849   4.022   5.866  0.7132  0.6607  0.7926
  457MOL0     H63045   5.756   4.130   5.969  0.8050  2.3552 -3.2381
  457MOL0     H63046   5.693   3.356   5.692 -0.7737  3.0356 -2.9888
  457MOL0     H63047   5.620   3.274   5.471 -1.3848 -3.2623  0.9661
  457MOL0     H63048   5.570   3.142   5.142 -1.3429 -1.4244 -0.0223
  457MOL0     H63049   5.439   3.067   4.925 -1.5273 -2.6115 -0.7828
  457MOL0     H63050   4.661   2.408   4.207  0.6063  0.2793  1.6982
  457MOL0     H63051   4.853   2.515   4.065  3.0153 -0.3110 -0.4601
  457MOL0     H63052   5.155   2.547   3.820  0.7611 -1.6969  1.4148
  457MOL0     H63053   5.340   2.611   3.672  2.2919  1.9789  1.2860
  457MOL0     H63054   5.593   2.742   3.686 -1.1649 -0.9290 -1.7200
  457MOL0     H63055   5.672   2.669   3.831 -0.6487 -0.4830  0.0039
  457MOL0     H63056   5.820   2.772   3.682 -0.7031  0.9200  0.1929
  457MOL0     H63057   5.773   2.672   3.544 -2.6145  0.1996 -0.0803
  457MOL0     H63058   5.901   2.604   3.809  1.4465 -0.0318 -0.8223
  457MOL0     H63059   5.870   2.471   3.687  0.1622 -0.8291  0.5672
  457MOL0     H63060   6.105   2.534   3.715 -2.2296 -1.8780  1.4370
  457MOL0     H63061   6.073   2.693   3.648  0.3584 -0.2040  1.3100
  457MOL0     H63062   6.058   2.481   3.294  0.0942  2.0031 -0.5714
  457MOL0     H63063   5.604   2.370   3.906 -2.5890 -2.9186  3.7132
  457MOL0     H63064   5.554   2.261   4.078 -0.7243 -4.1875  1.3620
  457MOL0     H63065   5.434   2.343   4.171 -0.2014 -0.2098  0.1441
  457MOL0     H63066   5.385   2.192   4.080 -0.4663 -0.9760  3.8573
  458MOL0     O63067  11.425   1.452  10.028  0.0573 -0.2162 -0.4604
  458MOL0     C63068  11.376   1.522   9.945  1.0745  0.0232  0.7222
  458MOL0     O63069  11.434   1.639   9.898  0.2713  0.0938 -0.0506
  458MOL0     C63070  11.567   1.637   9.924 -0.0758 -0.6081  0.1016
  458MOL0     C63071  11.655   1.552   9.860 -0.1813  0.3451 -0.0756
  458MOL0     C63072  11.794   1.546   9.884  0.0716  0.4165  0.3344
  458MOL0     C63073  11.849   1.638   9.975 -0.6155  0.6268  0.8228
  458MOL0     O63074  11.985   1.631  10.010  0.1639  0.0628 -0.0075
  458MOL0     C63075  12.085   1.644   9.906  0.5410  0.0201  0.8822
  458MOL0     C63076  12.229   1.623   9.964  0.4373 -0.6578  0.0825
  458MOL0     C63077  12.289   1.755  10.028  0.7028 -0.7995 -0.5085
  458MOL0     C63078  12.221   1.800  10.164 -1.2190  1.1559  1.3928
  458MOL0     C63079  12.316   1.772  10.284 -0.7296 -0.2139 -0.0961
  458MOL0     C63080  12.257   1.765  10.434  0.1041  0.3081 -0.9660
  458MOL0     C63081  12.209   1.905  10.470  0.0377  0.2236  0.3793
  458MOL0     C63082  12.061   1.936  10.454  0.3272 -0.6836  0.8798
  458MOL0     N63083  12.014   2.064  10.521 -0.5167  0.2237 -0.9636
  458MOL0     C63084  12.085   2.179  10.506 -0.2314  1.1077 -0.5039
  458MOL0     C63085  12.046   2.251  10.616 -0.3073  0.2992  0.3800
  458MOL0     C63086  12.102   2.387  10.644 -0.7317 -0.1379 -0.9144
  458MOL0     C63087  12.239   2.373  10.713 -0.2703 -0.6895 -1.0677
  458MOL0     C63088  12.229   2.338  10.871  0.1664 -0.3438 -0.2061
  458MOL0     C63089  12.210   2.456  10.963  0.5293 -0.3361 -0.8484
  458MOL0     O63090  12.242   2.422  11.094  0.1622 -0.8366 -0.0535
  458MOL0     C63091  12.243   2.526  11.192 -0.4412 -1.0853  0.5660
  458MOL0     C63092  12.293   2.489  11.320  0.2013 -0.0120  0.5709
  458MOL0     C63093  12.284   2.576  11.427 -0.3532  0.5782  0.8573
  458MOL0     C63094  12.357   2.521  11.547 -1.0184 -0.5161 -1.1091
  458MOL0     C63095  12.222   2.702  11.414 -0.0269  0.2454 -0.2037
  458MOL0     C63096  12.214   2.810  11.515 -0.7749  0.1699 -0.4482
  458MOL0     O63097  12.224   2.941  11.476 -0.6690 -0.2192  0.0865
  458MOL0     C63098  12.267   3.033  11.567  0.2015  0.2117 -0.2346
  458MOL0     C63099  12.203   3.162  11.562 -0.2834 -0.2134  0.3846
  458MOL0     C63100  12.259   3.266  11.645  0.1733 -0.0983  0.8849
  458MOL0     C63101  12.350   3.233  11.748  0.8028 -0.2200 -0.2861
  458MOL0     O63102  12.367   3.326  11.846 -0.3530  0.3761  0.5326
  458MOL0     C63103  12.441   3.303  11.974 -0.5791 -0.7545  0.5766
  458MOL0     C63104  12.399   3.409  12.071  0.5239  0.2394 -0.5253
  458MOL0     C63105  12.485   3.533  12.050  0.7427 -0.3620 -0.1880
  458MOL0     C63106  12.485   3.618  12.174 -0.8076  0.0645  0.5782
  458MOL0     C63107  12.556   3.752  12.142 -0.2594 -0.7438 -0.1791
  458MOL0     C63108  12.572   3.827  12.272 -0.7003 -0.4421 -0.0197
  458MOL0     C63109  12.635   3.957  12.252  0.7880 -0.3426  0.0172
  458MOL0     C63110  12.644   4.040  12.379 -0.1610  0.9422 -0.2027
  458MOL0    Cl63111  12.740   3.963  12.505  0.4979  0.1042  0.2937
  458MOL0     C63112  12.397   3.101  11.752  0.9400 -0.3841 -0.1843
  458MOL0     C63113  12.365   3.005  11.661  0.9910  0.8768 -0.0806
  458MOL0     O63114  12.202   2.774  11.632  0.2659 -0.0206  0.3357
  458MOL0     C63115  12.176   2.740  11.286 -0.2929  0.8623 -0.2867
  458MOL0     C63116  12.188   2.654  11.178 -0.2796 -0.0482 -0.0624
  458MOL0     N63117  11.963   2.177  10.695  0.1223  0.0465 -1.2409
  458MOL0     N63118  11.944   2.069  10.639  0.0105  0.1117  0.9019
  458MOL0     C63119  11.763   1.713  10.043 -0.1303 -0.4491 -0.4892
  458MOL0     C63120  11.626   1.722  10.022 -0.0415 -0.0332  0.2277
  458MOL0     C63121  11.246   1.491   9.884 -0.0742  0.3752 -0.0907
  458MOL0     C63122  11.216   1.361   9.840 -0.3952  0.3345 -0.8012
  458MOL0     C63123  11.094   1.323   9.783  0.4299  0.4803 -0.3885
  458MOL0     C63124  10.997   1.420   9.781  0.6216 -0.6108  0.9688
  458MOL0     O63125  10.874   1.374   9.743 -0.3622 -0.0385  0.0852
  458MOL0     C63126  10.783   1.466   9.674  0.2420  0.0421  0.4684
  458MOL0     C63127  10.664   1.392   9.621  0.6895 -0.5071 -0.0614
  458MOL0     C63128  10.567   1.367   9.739 -0.7024 -0.5282 -0.2110
  458MOL0     C63129  10.445   1.291   9.689 -0.4895 -0.6933 -0.1984
  458MOL0     C63130  10.342   1.293   9.790 -0.3183 -0.6514  1.0516
  458MOL0     C63131  10.252   1.275   9.867 -0.9574 -0.7005 -0.4900
  458MOL0     C63132  11.023   1.541   9.822  0.2167 -1.1359  0.2518
  458MOL0     C63133  11.147   1.581   9.879  0.3221  0.0933 -0.4109
  458MOL0     C63134  11.157   1.723   9.928 -0.5130  0.2298  0.6941
  458MOL0     H63135  11.610   1.490   9.783 -2.1793  1.4047  0.1815
  458MOL0     H63136  11.859   1.476   9.833 -1.4872 -1.2900  0.5617
  458MOL0     H63137  12.083   1.739   9.852  0.3270 -0.2616  0.3770
  458MOL0     H63138  12.075   1.564   9.832  0.9824  0.9574 -0.2234
  458MOL0     H63139  12.214   1.544  10.039  0.4963 -0.6698  0.0821
  458MOL0     H63140  12.295   1.574   9.891  0.2982 -0.6262 -0.0640
  458MOL0     H63141  12.395   1.740  10.052  0.0512  0.2307  3.7959
  458MOL0     H63142  12.284   1.836   9.955  0.1181 -0.4594 -0.0985
  458MOL0     H63143  12.178   1.901  10.164 -2.1724  0.8379 -1.4223
  458MOL0     H63144  12.134   1.737  10.179 -0.2562 -0.5859 -0.0251
  458MOL0     H63145  12.396   1.847  10.289 -1.8869  1.0089  0.9439
  458MOL0     H63146  12.373   1.684  10.253  0.8200  1.5912 -2.8934
  458MOL0     H63147  12.175   1.694  10.447  0.8370 -0.1760  1.6366
  458MOL0     H63148  12.331   1.729  10.505  0.1423  1.2860 -0.4904
  458MOL0     H63149  12.267   1.974  10.407 -0.4279  0.7381  0.5079
  458MOL0     H63150  12.235   1.930  10.574  0.6857  1.1389  0.0167
  458MOL0     H63151  12.029   1.947  10.350 -0.5166  7.6253  1.3650
  458MOL0     H63152  12.013   1.843  10.488  2.1615 -1.6139  1.0571
  458MOL0     H63153  12.171   2.208  10.445 -0.4237 -1.9187 -2.4278
  458MOL0     H63154  12.037   2.446  10.709 -0.8156  2.6315 -3.2879
  458MOL0     H63155  12.100   2.440  10.548  1.7763 -0.7463 -1.3803
  458MOL0     H63156  12.299   2.300  10.657 -1.7040 -0.6045 -2.8366
  458MOL0     H63157  12.292   2.468  10.703 -2.6472  0.8967  0.5049
  458MOL0     H63158  12.156   2.260  10.893  3.0347 -2.8060  1.1532
  458MOL0     H63159  12.323   2.287  10.893 -0.9757 -3.5614 -2.1015
  458MOL0     H63160  12.267   2.549  10.949  1.0224 -0.6576 -0.9852
  458MOL0     H63161  12.103   2.480  10.961  0.2761 -1.2408 -4.0927
  458MOL0     H63162  12.347   2.395  11.324  2.2255  1.1139  1.1320
  458MOL0     H63163  12.347   2.413  11.550  0.6443 -0.6882  0.2794
  458MOL0     H63164  12.319   2.558  11.643  0.0634  0.2313 -0.9406
  458MOL0     H63165  12.460   2.558  11.549 -1.4321  0.6824 -1.0853
  458MOL0     H63166  12.130   3.198  11.490 -1.4451  0.6777  1.9351
  458MOL0     H63167  12.219   3.366  11.651  0.2312  0.0798 -1.1220
  458MOL0     H63168  12.430   3.201  12.013  0.6251 -1.3040 -0.4619
  458MOL0     H63169  12.547   3.313  11.949 -0.3341  1.6701  2.2466
  458MOL0     H63170  12.294   3.436  12.062  1.2410  3.2764 -1.2131
  458MOL0     H63171  12.417   3.378  12.175  0.7764 -1.2997 -1.0068
  458MOL0     H63172  12.453   3.603  11.971 -0.4647  0.9348  1.3668
  458MOL0     H63173  12.586   3.499  12.029 -0.1674 -2.5283 -1.4126
  458MOL0     H63174  12.537   3.577  12.261  0.9496  1.6539  0.3331
  458MOL0     H63175  12.381   3.628  12.206 -0.7473  0.2677  0.7123
  458MOL0     H63176  12.649   3.736  12.088  0.4215 -1.8814  1.2996
  458MOL0     H63177  12.490   3.809  12.075 -1.0779  0.2768  1.4137
  458MOL0     H63178  12.630   3.775  12.349 -0.8378  1.7276  1.6681
  458MOL0     H63179  12.473   3.842  12.317 -1.2882 -0.9392 -1.1054
  458MOL0     H63180  12.562   4.009  12.189 -3.1705 -3.5329  1.4927
  458MOL0     H63181  12.737   3.951  12.215  0.4624 -0.9944 -0.8248
  458MOL0     H63182  12.546   4.054  12.426  0.0990  2.3546 -0.0126
  458MOL0     H63183  12.684   4.134  12.339  0.4334  0.2729 -1.2494
  458MOL0     H63184  12.468   3.075  11.830 -0.2144 -0.0554  1.0193
  458MOL0     H63185  12.410   2.906  11.661 -0.8821 -0.0636  1.9781
  458MOL0     H63186  12.128   2.837  11.278 -1.3097  0.3740 -0.3227
  458MOL0     H63187  12.147   2.684  11.082 -2.4675  1.6035  1.2915
  458MOL0     H63188  11.803   1.765  10.130  2.1850 -0.0941 -1.6923
  458MOL0     H63189  11.570   1.787  10.087 -0.8628 -0.1548 -0.3389
  458MOL0     H63190  11.303   1.296   9.850 -0.3001  0.7095  1.2877
  458MOL0     H63191  11.074   1.226   9.738  1.1647  0.0504  0.2007
  458MOL0     H63192  10.760   1.552   9.737  1.5150  1.9844 -1.5678
  458MOL0     H63193  10.827   1.510   9.584  0.1037  1.3575  1.0258
  458MOL0     H63194  10.695   1.309   9.557  3.8683 -1.2195  2.1540
  458MOL0     H63195  10.607   1.452   9.550  0.0930 -0.7368  0.2088
  458MOL0     H63196  10.609   1.311   9.824 -0.1657  0.6130  0.2888
  458MOL0     H63197  10.552   1.459   9.795  4.4024  0.5194 -0.0820
  458MOL0     H63198  10.469   1.185   9.678 -2.1050 -1.3246  1.6629
  458MOL0     H63199  10.401   1.337   9.600  0.8661  2.7913  0.7615
  458MOL0     H63200  10.173   1.275   9.939 -0.0017  3.3941  0.8125
  458MOL0     H63201  10.941   1.613   9.820  0.4740 -0.8255  0.5855
  458MOL0     H63202  11.250   1.776   9.907 -0.4043 -0.2764 -0.1787
  458MOL0     H63203  11.080   1.784   9.880  0.5963 -0.4244 -2.0938
  458MOL0     H63204  11.153   1.713  10.037 -1.6195 -5.1641  0.4486
  459MOL0     O63205   8.319  11.139   3.072 -0.4141 -0.6350 -0.5074
  459MOL0     C63206   8.279  11.060   3.160  0.2004 -0.0990  0.8460
  459MOL0     O63207   8.356  10.985   3.249 -0.0328 -0.1072  1.0030
  459MOL0     C63208   8.485  10.963   3.217  0.3155 -0.4241 -1.0125
  459MOL0     C63209   8.512  10.914   3.087  0.4209 -0.5674 -0.1604
  459MOL0     C63210   8.643  10.899   3.046 -0.3737  0.1730 -0.4703
  459MOL0     C63211   8.748  10.925   3.137 -0.7762  0.3581  0.5572
  459MOL0     O63212   8.879  10.915   3.106 -0.5937  0.8781 -0.0399
  459MOL0     C63213   8.915  10.832   2.992 -0.5994 -0.3276  0.4473
  459MOL0     C63214   8.881  10.677   3.018  0.8648  0.0021  0.7882
  459MOL0     C63215   8.947  10.568   2.925 -1.0411 -0.5376  0.3834
  459MOL0     C63216   8.929  10.418   2.973  0.6405 -0.1499 -0.8125
  459MOL0     C63217   8.788  10.390   3.041  0.0886 -1.0040  0.7811
  459MOL0     C63218   8.753  10.251   3.104 -0.3455  0.2437  0.4902
  459MOL0     C63219   8.796  10.132   3.009 -0.1561 -0.4461  0.1684
  459MOL0     C63220   8.690  10.114   2.906  0.2647  0.4581 -0.6828
  459MOL0     N63221   8.707   9.986   2.842  0.9399 -0.2554  0.1226
  459MOL0     C63222   8.803   9.969   2.753 -0.4208 -0.4796 -0.7863
  459MOL0     C63223   8.769   9.856   2.680 -0.1101  0.3607  0.5956
  459MOL0     C63224   8.833   9.799   2.556  0.2792 -0.0010 -0.1975
  459MOL0     C63225   8.976   9.779   2.576 -1.0062 -0.4021  0.4822
  459MOL0     C63226   9.025   9.704   2.448 -0.8494  0.2502  0.2945
  459MOL0     C63227   9.168   9.652   2.476  1.2838  1.0205  0.2101
  459MOL0     O63228   9.244   9.742   2.544  0.5277 -0.2619 -0.2606
  459MOL0     C63229   9.373   9.718   2.530 -0.3169 -0.7774  0.2307
  459MOL0     C63230   9.449   9.799   2.456  0.1277 -0.9359 -0.0554
  459MOL0     C63231   9.591   9.772   2.442  1.0563 -0.0536 -0.0010
  459MOL0     C63232   9.674   9.882   2.367  0.9931  0.5218  0.8405
  459MOL0     C63233   9.651   9.660   2.506 -0.5685  0.0685 -0.1817
  459MOL0     C63234   9.798   9.647   2.521 -0.5112 -0.2021  0.6300
  459MOL0     O63235   9.854   9.530   2.483  0.7072 -0.6726  0.8277
  459MOL0     C63236   9.984   9.504   2.516 -0.7343 -0.1823 -0.4943
  459MOL0     C63237  10.018   9.428   2.624 -0.1441  1.0881  0.2183
  459MOL0     C63238  10.152   9.384   2.643  0.1293  0.3636 -0.6663
  459MOL0     C63239  10.255   9.439   2.568 -0.2913 -0.4283 -0.4581
  459MOL0     O63240  10.390   9.436   2.592 -0.1355 -0.0082  0.1700
  459MOL0     C63241  10.434   9.426   2.728 -0.0830  0.8599 -0.0160
  459MOL0     C63242  10.587   9.448   2.748 -0.0926 -0.6557  0.1306
  459MOL0     C63243  10.671   9.327   2.740 -0.1392 -0.0044  0.1622
  459MOL0     C63244  10.643   9.234   2.618  0.5209 -0.0071 -0.5246
  459MOL0     C63245  10.738   9.122   2.613 -0.1176  0.7149  0.2732
  459MOL0     C63246  10.677   9.018   2.525  0.1834  0.0756 -0.1620
  459MOL0     C63247  10.768   8.898   2.516 -0.3629  0.6212 -0.2826
  459MOL0     C63248  10.709   8.781   2.431  0.5234 -0.2814 -0.5567
  459MOL0    Cl63249  10.547   8.758   2.483  0.2530  0.1831  0.3377
  459MOL0     C63250  10.227   9.522   2.464 -0.0962  0.1921  0.4228
  459MOL0     C63251  10.095   9.557   2.432  0.1445  0.0848 -0.0496
  459MOL0     O63252   9.864   9.737   2.572 -0.4564 -0.1931 -0.1302
  459MOL0     C63253   9.566   9.579   2.580 -0.1099 -0.7595  0.5898
  459MOL0     C63254   9.428   9.610   2.587 -0.9134 -0.2789  0.9175
  459MOL0     N63255   8.656   9.803   2.741 -0.2108  0.1857  0.5435
  459MOL0     N63256   8.624   9.877   2.847 -0.7076  0.4530  0.8524
  459MOL0     C63257   8.720  10.964   3.261 -0.5525 -0.3997  0.1616
  459MOL0     C63258   8.592  10.987   3.310 -0.5040  0.3455 -0.2543
  459MOL0     C63259   8.133  11.053   3.165  0.6410  0.3825 -0.2968
  459MOL0     C63260   8.055  11.166   3.151 -0.8880 -0.1032  0.0737
  459MOL0     C63261   7.920  11.158   3.187 -0.4376 -0.1822  0.7515
  459MOL0     C63262   7.857  11.043   3.229  0.7536  0.0858 -0.3478
  459MOL0     O63263   7.720  11.028   3.245 -0.2637 -0.3974  0.6172
  459MOL0     C63264   7.636  11.136   3.221 -0.8350 -0.7404 -0.4121
  459MOL0     C63265   7.601  11.154   3.070  0.2377  0.4128  0.3422
  459MOL0     C63266   7.444  11.199   3.057 -0.2161 -0.0840  0.3348
  459MOL0     C63267   7.369  11.070   3.031  1.2576 -0.0891 -0.6193
  459MOL0     C63268   7.229  11.089   3.064  0.0723 -0.7468 -0.0664
  459MOL0     C63269   7.119  11.128   3.077 -0.1349 -0.1682  0.9293
  459MOL0     C63270   7.933  10.926   3.235 -0.4126 -0.1836  0.3208
  459MOL0     C63271   8.069  10.929   3.194  0.1380  0.3589 -0.4002
  459MOL0     C63272   8.151  10.799   3.179  0.7107  0.0885 -0.6066
  459MOL0     H63273   8.430  10.890   3.020  0.3953 -3.7918  0.8904
  459MOL0     H63274   8.645  10.840   2.956 -2.4452 -2.8148  1.2743
  459MOL0     H63275   9.023  10.846   2.981 -0.3468 -1.5459  1.1845
  459MOL0     H63276   8.874  10.868   2.897  2.2168  1.3591 -0.2403
  459MOL0     H63277   8.893  10.664   3.125  0.0802  2.1501  1.1869
  459MOL0     H63278   8.774  10.664   2.998 -0.4376  5.3058  2.8118
  459MOL0     H63279   8.917  10.576   2.820  2.8012 -1.2333 -0.9168
  459MOL0     H63280   9.052  10.595   2.915 -1.0461 -0.7749 -0.4151
  459MOL0     H63281   8.941  10.350   2.888  0.0650 -1.2730 -0.0209
  459MOL0     H63282   9.018  10.398   3.034  0.3837  0.3650 -0.2567
  459MOL0     H63283   8.720  10.411   2.957 -0.2318 -1.7545  0.8404
  459MOL0     H63284   8.778  10.461   3.124 -4.8117 -1.3571  0.7964
  459MOL0     H63285   8.822  10.240   3.187  3.6448 -0.8065 -2.6403
  459MOL0     H63286   8.651  10.249   3.144  0.0695  1.3790  1.6877
  459MOL0     H63287   8.811  10.037   3.061 -0.6277  0.5243  2.1752
  459MOL0     H63288   8.893  10.148   2.960  0.7232  0.9699  2.2266
  459MOL0     H63289   8.595  10.122   2.959  2.0620 -1.1714  3.2223
  459MOL0     H63290   8.684  10.199   2.836  1.4364 -0.5434 -2.0583
  459MOL0     H63291   8.877  10.044   2.728  0.9251  0.2087  4.1181
  459MOL0     H63292   8.817   9.855   2.463 -0.3509  0.3384  0.1071
  459MOL0     H63293   8.786   9.700   2.547 -1.7908  0.8047  1.1363
  459MOL0     H63294   9.019   9.878   2.589 -1.7122 -0.0790  0.4189
  459MOL0     H63295   8.994   9.709   2.659  0.6230 -0.4178  0.1460
  459MOL0     H63296   8.961   9.620   2.419 -0.6195  0.4762 -0.9158
  459MOL0     H63297   9.023   9.776   2.366 -0.4769  0.3677  0.3865
  459MOL0     H63298   9.156   9.555   2.526 -1.8566  0.0095 -2.1396
  459MOL0     H63299   9.209   9.624   2.379  0.9050 -0.6073  0.4876
  459MOL0     H63300   9.417   9.876   2.388 -0.1935 -2.6935 -1.9985
  459MOL0     H63301   9.755   9.910   2.435  0.0332 -1.8067  3.1133
  459MOL0     H63302   9.612   9.966   2.335 -1.0340 -0.0060  3.1565
  459MOL0     H63303   9.720   9.840   2.277 -3.2827  0.2062 -1.4131
  459MOL0     H63304   9.937   9.387   2.685  1.5969 -1.2485  1.0969
  459MOL0     H63305  10.182   9.335   2.734  0.6505  1.1363 -0.4107
  459MOL0     H63306  10.384   9.494   2.798  0.3242  0.0702  1.0743
  459MOL0     H63307  10.419   9.324   2.764  1.3233  0.3770 -0.7437
  459MOL0     H63308  10.623   9.521   2.675  1.2302 -1.1072  0.2998
  459MOL0     H63309  10.608   9.492   2.845 -1.9258  0.9398 -0.1432
  459MOL0     H63310  10.652   9.269   2.831 -1.9812  0.4545  0.0949
  459MOL0     H63311  10.779   9.345   2.737  0.1376 -1.0576  2.0395
  459MOL0     H63312  10.644   9.285   2.521  2.7370  1.0418 -0.0175
  459MOL0     H63313  10.541   9.194   2.629  0.8854 -0.8992 -0.2834
  459MOL0     H63314  10.835   9.151   2.571  0.2028 -1.9374 -1.0656
  459MOL0     H63315  10.761   9.078   2.711 -0.7867  1.0198  0.5747
  459MOL0     H63316  10.644   9.065   2.432 -3.2666 -1.0890  0.3077
  459MOL0     H63317  10.583   8.992   2.575 -1.1378  0.4728 -2.3435
  459MOL0     H63318  10.786   8.869   2.619  4.2407  3.3077 -0.0793
  459MOL0     H63319  10.869   8.922   2.481 -0.6261 -0.6187 -2.0088
  459MOL0     H63320  10.773   8.695   2.450  0.6648  0.0665  0.5822
  459MOL0     H63321  10.706   8.808   2.325  1.5784  0.8371 -0.3159
  459MOL0     H63322  10.297   9.560   2.391 -1.2740 -1.7918 -1.8678
  459MOL0     H63323  10.073   9.619   2.346  2.3880  1.2603  0.1452
  459MOL0     H63324   9.607   9.496   2.637  4.0291  0.5131 -0.2020
  459MOL0     H63325   9.370   9.545   2.650  1.7247 -1.9353  1.7801
  459MOL0     H63326   8.812  10.969   3.318  1.4679 -2.3655 -2.6905
  459MOL0     H63327   8.586  11.010   3.416 -1.4129  0.4272 -0.3107
  459MOL0     H63328   8.101  11.256   3.112 -1.2154  0.3287  0.6652
  459MOL0     H63329   7.856  11.245   3.176 -0.2547 -0.1666 -0.3382
  459MOL0     H63330   7.538  11.118   3.268 -1.0882 -2.4708 -1.5525
  459MOL0     H63331   7.674  11.225   3.273 -0.9378 -2.4838  2.9764
  459MOL0     H63332   7.606  11.057   3.021 -3.7176  0.4632 -0.5023
  459MOL0     H63333   7.671  11.229   3.032  0.2675  0.1491 -0.1180
  459MOL0     H63334   7.405  11.250   3.145 -3.9780 -0.5610 -0.8707
  459MOL0     H63335   7.434  11.271   2.974  0.8685  2.8339  2.5505
  459MOL0     H63336   7.402  10.988   3.096 -1.7567 -1.2010 -0.3027
  459MOL0     H63337   7.380  11.035   2.928  0.2888 -0.3055 -0.6641
  459MOL0     H63338   7.025  11.180   3.078  2.1456  4.6273 -0.7755
  459MOL0     H63339   7.887  10.829   3.255 -2.5226  0.6378 -0.3295
  459MOL0     H63340   8.081  10.716   3.161  0.4685 -0.3369  1.9237
  459MOL0     H63341   8.223  10.785   3.098  1.6315 -2.1192  0.5120
  459MOL0     H63342   8.213  10.789   3.269 -0.9019  0.3614  0.5748
  460MOL0     O63343   3.599   6.411   7.229  0.5851 -0.2035  0.3901
  460MOL0     C63344   3.566   6.516   7.288 -0.5537 -0.1873  0.5719
  460MOL0     O63345   3.638   6.635   7.289  0.2409 -0.5006  0.2012
  460MOL0     C63346   3.713   6.653   7.173 -0.0121  0.6592  0.8517
  460MOL0     C63347   3.845   6.611   7.179 -1.1876  0.9951 -0.4534
  460MOL0     C63348   3.916   6.620   7.060  0.1842  0.3579 -1.1469
  460MOL0     C63349   3.867   6.661   6.933  0.3126 -1.0506 -0.2728
  460MOL0     O63350   3.946   6.658   6.819  0.4103 -0.0479  0.5574
  460MOL0     C63351   4.056   6.560   6.808  0.2682  0.8651 -0.8384
  460MOL0     C63352   4.006   6.412   6.818 -0.3856  0.1356 -0.1300
  460MOL0     C63353   4.127   6.318   6.820 -0.1455 -0.0574 -0.7850
  460MOL0     C63354   4.080   6.172   6.835 -0.2011  0.3132 -0.1908
  460MOL0     C63355   4.205   6.090   6.809 -0.9053  0.6884 -1.1769
  460MOL0     C63356   4.176   5.939   6.787  0.7602  0.0233  0.3544
  460MOL0     C63357   4.303   5.857   6.760 -0.8478 -0.1822 -0.2100
  460MOL0     C63358   4.273   5.711   6.713  0.2607  0.3623  0.6152
  460MOL0     N63359   4.395   5.640   6.751  0.7226 -0.5973 -0.4517
  460MOL0     C63360   4.408   5.551   6.859 -0.6722 -0.4271  0.7126
  460MOL0     C63361   4.547   5.529   6.864 -0.0859 -0.0126  0.0197
  460MOL0     C63362   4.626   5.465   6.977  0.1324  0.2404  0.6041
  460MOL0     C63363   4.689   5.328   6.956 -0.2722  0.0229 -0.9309
  460MOL0     C63364   4.583   5.220   6.928 -0.0868 -0.1829 -0.2868
  460MOL0     C63365   4.626   5.073   6.916  1.5582 -0.6436 -0.5145
  460MOL0     O63366   4.516   4.981   6.917 -0.2860 -0.5119  0.1666
  460MOL0     C63367   4.437   4.968   6.810 -0.1383  0.4722  0.7356
  460MOL0     C63368   4.475   4.962   6.675 -0.7669  0.2207  0.5144
  460MOL0     C63369   4.384   4.948   6.568 -0.3290  0.6943  1.1924
  460MOL0     C63370   4.457   4.943   6.433  0.9736  0.5626  0.1956
  460MOL0     C63371   4.247   4.935   6.587  0.1554  0.1224  0.3399
  460MOL0     C63372   4.158   4.909   6.478  0.2006  0.1840 -0.6425
  460MOL0     O63373   4.195   4.848   6.368 -0.4442  0.1293  0.4916
  460MOL0     C63374   4.105   4.804   6.275  0.5527 -0.0597  0.8842
  460MOL0     C63375   4.104   4.863   6.147 -0.0091  0.4791 -0.4118
  460MOL0     C63376   4.016   4.821   6.044 -0.1159 -0.8678  0.5695
  460MOL0     C63377   3.930   4.707   6.054 -0.5137  0.6660 -0.3745
  460MOL0     O63378   3.849   4.646   5.958 -0.2077 -0.2070 -0.8944
  460MOL0     C63379   3.843   4.728   5.840 -0.7618 -0.5333 -0.3589
  460MOL0     C63380   3.778   4.645   5.719 -0.4071 -0.3544  0.3357
  460MOL0     C63381   3.883   4.538   5.680  0.0440 -0.4121 -0.8244
  460MOL0     C63382   3.876   4.407   5.753  0.5243 -0.1251 -0.5016
  460MOL0     C63383   3.735   4.369   5.821 -0.0691 -0.1086 -0.5929
  460MOL0     C63384   3.762   4.243   5.905 -0.2435 -0.1390  0.3222
  460MOL0     C63385   3.629   4.164   5.911 -0.6130 -0.4179 -0.0938
  460MOL0     C63386   3.645   4.031   5.995  0.5455 -0.6578  0.7004
  460MOL0    Cl63387   3.687   4.087   6.152 -0.1829  0.6220 -0.2515
  460MOL0     C63388   3.932   4.641   6.183  0.2640 -0.2843 -0.6844
  460MOL0     C63389   4.012   4.690   6.288 -0.0351 -0.1640 -0.4648
  460MOL0     O63390   4.045   4.926   6.511  0.2810 -1.0127  0.4123
  460MOL0     C63391   4.208   4.938   6.724 -0.4983  0.2369 -0.3053
  460MOL0     C63392   4.295   4.962   6.831 -0.3188  0.2894  0.0080
  460MOL0     N63393   4.603   5.599   6.757  0.9761 -0.1049 -0.0518
  460MOL0     N63394   4.514   5.662   6.700 -0.5841 -0.0402 -0.4479
  460MOL0     C63395   3.733   6.708   6.935 -0.7310 -0.6757  0.0588
  460MOL0     C63396   3.656   6.705   7.053  0.3671  1.0697 -0.4674
  460MOL0     C63397   3.443   6.510   7.376 -0.7385  0.9747  1.0661
  460MOL0     C63398   3.381   6.626   7.401 -0.2990 -0.0440 -0.0803
  460MOL0     C63399   3.262   6.625   7.482 -0.1614 -0.0993 -0.5560
  460MOL0     C63400   3.206   6.508   7.531  0.2130  0.7923  0.5324
  460MOL0     O63401   3.089   6.492   7.601 -1.2964  0.0895 -0.1611
  460MOL0     C63402   3.015   6.609   7.617  0.5409 -0.1910 -0.1524
  460MOL0     C63403   2.898   6.589   7.718  0.0225  0.8104  0.9432
  460MOL0     C63404   2.764   6.580   7.648 -0.2878  0.1593  0.6706
  460MOL0     C63405   2.646   6.560   7.746 -0.3786 -0.4684 -0.4284
  460MOL0     C63406   2.607   6.684   7.811 -0.6869  0.7381 -0.4666
  460MOL0     C63407   2.588   6.793   7.856 -0.1784 -0.0100  0.4400
  460MOL0     C63408   3.282   6.387   7.520  0.2878 -0.1085 -0.7319
  460MOL0     C63409   3.399   6.391   7.444  0.4345  0.9049  0.1041
  460MOL0     C63410   3.473   6.256   7.447  0.0987  0.2507 -0.2050
  460MOL0     H63411   3.881   6.584   7.277 -0.0457 -1.1791 -1.4052
  460MOL0     H63412   4.022   6.596   7.062  0.7371  2.4753  2.4932
  460MOL0     H63413   4.134   6.566   6.885  1.4420 -1.6648 -1.6939
  460MOL0     H63414   4.100   6.573   6.709  2.1236 -0.9978 -0.3240
  460MOL0     H63415   3.959   6.397   6.916  1.1394 -0.6762  0.5123
  460MOL0     H63416   3.939   6.380   6.738 -4.2531 -1.8801  3.5169
  460MOL0     H63417   4.175   6.331   6.723  3.0862  1.8773  0.9055
  460MOL0     H63418   4.209   6.351   6.884 -0.7591  1.4420 -0.7232
  460MOL0     H63419   4.028   6.147   6.928  0.1088  0.6084  0.0652
  460MOL0     H63420   4.004   6.149   6.759  0.2405  0.0182 -0.5450
  460MOL0     H63421   4.269   6.111   6.896 -3.8083  0.5628  1.1356
  460MOL0     H63422   4.263   6.120   6.722 -0.3181  0.0057 -1.0333
  460MOL0     H63423   4.114   5.899   6.868  1.6755  0.9323  1.5299
  460MOL0     H63424   4.115   5.939   6.696  0.0729  1.5355  0.7717
  460MOL0     H63425   4.361   5.861   6.853  1.1427 -1.5103 -1.3185
  460MOL0     H63426   4.359   5.903   6.678 -1.9075  1.7739  0.0944
  460MOL0     H63427   4.186   5.677   6.770  0.5251 -0.6653  0.4375
  460MOL0     H63428   4.251   5.704   6.606  1.8086  2.6021  0.0698
  460MOL0     H63429   4.334   5.518   6.931 -0.5197  0.6862  1.4106
  460MOL0     H63430   4.570   5.472   7.071 -0.1546  0.6802  0.4053
  460MOL0     H63431   4.710   5.525   7.011  1.2589 -1.5431  1.0916
  460MOL0     H63432   4.759   5.342   6.872  0.9444  2.2777  0.3835
  460MOL0     H63433   4.751   5.299   7.041  1.5627  1.9584 -1.5103
  460MOL0     H63434   4.521   5.223   7.018 -1.4844  3.5998 -1.1807
  460MOL0     H63435   4.528   5.265   6.845  0.4739  1.1507  0.0382
  460MOL0     H63436   4.675   5.059   6.819  2.1002 -0.9415 -0.2037
  460MOL0     H63437   4.701   5.037   6.986  0.6078 -2.5799 -0.4228
  460MOL0     H63438   4.582   4.958   6.655 -0.6349 -2.3733  1.3965
  460MOL0     H63439   4.402   4.979   6.345 -1.9407 -2.5231  0.5540
  460MOL0     H63440   4.481   4.838   6.418 -2.2516 -0.2680  0.0883
  460MOL0     H63441   4.552   4.992   6.455  2.8917 -3.4322  1.8238
  460MOL0     H63442   4.170   4.949   6.144 -0.8179  1.2035  1.0961
  460MOL0     H63443   4.015   4.880   5.953 -0.8459 -0.3024  0.9355
  460MOL0     H63444   3.782   4.817   5.859 -0.1509 -0.5403  2.0533
  460MOL0     H63445   3.946   4.748   5.811 -0.7902  0.9693  0.4686
  460MOL0     H63446   3.682   4.599   5.743 -1.1814  0.3780 -1.2532
  460MOL0     H63447   3.764   4.705   5.629  0.0868 -2.0677 -0.9473
  460MOL0     H63448   3.983   4.577   5.657  0.4845 -0.8663  0.2528
  460MOL0     H63449   3.844   4.505   5.584 -4.7939  1.3638  0.2144
  460MOL0     H63450   3.933   4.434   5.843 -1.2982  2.1210  0.0545
  460MOL0     H63451   3.917   4.326   5.692 -1.0034 -0.2257 -1.4196
  460MOL0     H63452   3.693   4.447   5.885 -1.4573  0.1836 -1.8072
  460MOL0     H63453   3.667   4.340   5.740  0.0587 -1.8171 -0.1223
  460MOL0     H63454   3.805   4.276   6.000  0.5341  1.8382 -0.6641
  460MOL0     H63455   3.843   4.194   5.850 -0.8516 -0.0262 -0.7033
  460MOL0     H63456   3.587   4.153   5.810 -1.7888 -0.4669  0.3780
  460MOL0     H63457   3.556   4.229   5.960 -1.8761  0.9171 -3.4446
  460MOL0     H63458   3.711   3.962   5.941 -1.0632 -0.6376 -1.4082
  460MOL0     H63459   3.547   3.983   6.004 -0.8483  2.2443  2.8867
  460MOL0     H63460   3.882   4.550   6.215  3.3490 -1.5201  1.0451
  460MOL0     H63461   4.016   4.643   6.386  0.8848 -0.7241 -0.7568
  460MOL0     H63462   4.105   4.927   6.755  0.0853  1.0413  2.1639
  460MOL0     H63463   4.249   4.965   6.929 -0.7493 -1.2723 -0.1261
  460MOL0     H63464   3.685   6.754   6.849 -1.1997 -1.0676  0.1032
  460MOL0     H63465   3.553   6.738   7.052 -0.9834 -2.4245  2.6360
  460MOL0     H63466   3.414   6.721   7.361 -0.3341  0.5205  1.1694
  460MOL0     H63467   3.213   6.720   7.497 -0.1921 -0.5203  2.5426
  460MOL0     H63468   3.088   6.680   7.659  0.8766  0.6064 -1.9835
  460MOL0     H63469   2.977   6.652   7.524 -0.7682 -0.8487  0.0525
  460MOL0     H63470   2.891   6.676   7.784  1.3282  0.7340  1.2049
  460MOL0     H63471   2.919   6.506   7.786  1.2484 -0.2292 -0.6058
  460MOL0     H63472   2.734   6.663   7.584  0.1727 -1.0935 -1.2587
  460MOL0     H63473   2.762   6.503   7.570  2.4526  1.8697 -1.2345
  460MOL0     H63474   2.674   6.484   7.821  0.5620  0.4216  0.1481
  460MOL0     H63475   2.560   6.516   7.696 -0.3988  0.7824 -1.5387
  460MOL0     H63476   2.569   6.889   7.899 -0.7091 -0.5128  1.3834
  460MOL0     H63477   3.249   6.304   7.582  1.6209  2.0579  3.1980
  460MOL0     H63478   3.436   6.178   7.513  1.4878  1.2083  1.8024
  460MOL0     H63479   3.483   6.212   7.347  3.1096 -3.9129  1.6413
  460MOL0     H63480   3.577   6.281   7.469 -0.0439  3.5356 -2.4857
  461MOL0     O63481   1.353  10.517   4.455  0.7308  0.1900  0.2653
  461MOL0     C63482   1.276  10.533   4.552  0.3949 -1.1957 -0.1559
  461MOL0     O63483   1.316  10.533   4.687  0.5325  1.0603  0.4146
  461MOL0     C63484   1.434  10.587   4.726 -0.6444  0.6255  0.3568
  461MOL0     C63485   1.513  10.674   4.645  0.5505  0.9186 -0.5658
  461MOL0     C63486   1.634  10.730   4.691 -0.5754  0.6416 -0.3872
  461MOL0     C63487   1.675  10.706   4.823  0.2795 -0.2910 -0.3977
  461MOL0     O63488   1.790  10.732   4.885  0.3487  0.3942  0.1830
  461MOL0     C63489   1.891  10.783   4.800 -0.7646 -0.7750 -0.1377
  461MOL0     C63490   2.011  10.810   4.886 -0.3737 -0.8341  0.2955
  461MOL0     C63491   2.123  10.892   4.816  0.0725  0.6097  0.3888
  461MOL0     C63492   2.229  10.931   4.910  0.0397 -0.4992  0.6719
  461MOL0     C63493   2.219  11.075   4.969 -0.1911  0.9567 -0.7805
  461MOL0     C63494   2.094  11.080   5.060 -0.0188  0.3711  0.1554
  461MOL0     C63495   2.075  11.222   5.122 -0.3357 -0.8896 -0.0776
  461MOL0     C63496   1.968  11.221   5.232 -0.5966  0.6320  0.0326
  461MOL0     N63497   1.933  11.358   5.266 -0.8154  1.0841 -0.3802
  461MOL0     C63498   1.845  11.428   5.197 -0.1163 -1.2703 -0.0951
  461MOL0     C63499   1.823  11.537   5.267 -0.3808  0.7653  0.4844
  461MOL0     C63500   1.717  11.648   5.252  0.2272  0.7258  0.4786
  461MOL0     C63501   1.570  11.594   5.242 -1.1731  0.7819  0.9397
  461MOL0     C63502   1.521  11.608   5.088  0.3706 -0.0305  0.0289
  461MOL0     C63503   1.375  11.546   5.075 -1.0059  0.1833 -0.0531
  461MOL0     O63504   1.321  11.569   4.949 -0.1436  0.4438  0.1388
  461MOL0     C63505   1.185  11.558   4.939  0.4215  1.0038  0.4420
  461MOL0     C63506   1.112  11.656   4.999  0.7558 -0.2187  0.4764
  461MOL0     C63507   0.970  11.653   4.990 -0.3156 -0.2078 -1.0110
  461MOL0     C63508   0.891  11.762   5.056  0.6276 -0.3026  0.9058
  461MOL0     C63509   0.908  11.555   4.905  1.3785 -0.2059  0.1797
  461MOL0     C63510   0.754  11.554   4.872 -0.8262  0.1253 -0.6505
  461MOL0     O63511   0.676  11.662   4.910  0.3867  0.8998 -0.3617
  461MOL0     C63512   0.546  11.659   4.876  0.6441  0.2234  0.3797
  461MOL0     C63513   0.493  11.734   4.766  0.0782  0.0925 -0.9501
  461MOL0     C63514   0.358  11.742   4.726  0.8354  0.3340  0.5546
  461MOL0     C63515   0.265  11.659   4.795  0.5076 -0.5583  0.1708
  461MOL0     O63516   0.128  11.653   4.772  0.9382  0.1963 -0.6337
  461MOL0     C63517   0.070  11.715   4.656 -0.5015 -0.1348 -0.6856
  461MOL0     C63518  -0.064  11.639   4.622 -0.8425  0.2341  0.5108
  461MOL0     C63519  -0.046  11.485   4.606 -0.6897 -0.8441  0.6030
  461MOL0     C63520  -0.180  11.418   4.573  0.5110 -0.6277  0.1422
  461MOL0     C63521  -0.184  11.270   4.578  0.1171  0.3533  0.6544
  461MOL0     C63522  -0.164  11.212   4.724 -0.7300 -1.0837  0.1524
  461MOL0     C63523  -0.115  11.069   4.722 -0.0082 -0.0028  0.8866
  461MOL0     C63524  -0.192  10.975   4.625 -0.7434 -0.0695  0.0889
  461MOL0    Cl63525  -0.366  10.991   4.633 -0.3735  0.2671  0.1918
  461MOL0     C63526   0.315  11.578   4.893 -0.0485  0.1547  0.1351
  461MOL0     C63527   0.449  11.584   4.945  0.0641  0.6646  0.5268
  461MOL0     O63528   0.718  11.461   4.808 -0.1259 -0.0676 -0.5736
  461MOL0     C63529   0.990  11.455   4.844 -0.0097  0.4034  0.3139
  461MOL0     C63530   1.128  11.456   4.865 -0.5412 -0.3471  0.2917
  461MOL0     N63531   1.921  11.544   5.360 -0.4772 -0.4150  0.9680
  461MOL0     N63532   1.984  11.439   5.359 -0.1280 -0.0261 -0.8234
  461MOL0     C63533   1.592  10.637   4.911  1.1242  0.9332  0.3951
  461MOL0     C63534   1.471  10.579   4.857  1.4642  0.0012  0.8266
  461MOL0     C63535   1.124  10.536   4.526 -0.5686 -0.7836 -0.3809
  461MOL0     C63536   1.040  10.563   4.636 -0.4891  0.2686  0.4234
  461MOL0     C63537   0.904  10.588   4.622 -0.8033 -0.6718 -0.6821
  461MOL0     C63538   0.849  10.565   4.495  0.5932 -0.7804 -0.9630
  461MOL0     O63539   0.717  10.587   4.483 -0.0271  0.3434 -0.2348
  461MOL0     C63540   0.644  10.518   4.385 -0.4181  0.0558  0.7195
  461MOL0     C63541   0.628  10.368   4.419 -0.4438 -0.6962  0.4572
  461MOL0     C63542   0.560  10.359   4.557  0.6106  0.1913  0.6045
  461MOL0     C63543   0.527  10.208   4.597  0.7636 -0.4355 -0.0476
  461MOL0     C63544   0.439  10.198   4.718 -0.3586 -0.7642  0.1616
  461MOL0     C63545   0.371  10.183   4.817 -0.3068  0.1768  0.1982
  461MOL0     C63546   0.929  10.529   4.384 -0.2976  0.5154 -0.0950
  461MOL0     C63547   1.065  10.518   4.403  0.2852 -0.3853 -0.0720
  461MOL0     C63548   1.147  10.494   4.275 -0.1852  0.8231 -0.2873
  461MOL0     H63549   1.491  10.701   4.542  1.2470  1.6994 -0.5254
  461MOL0     H63550   1.696  10.796   4.630 -0.7214  0.0173 -1.2310
  461MOL0     H63551   1.854  10.876   4.755  0.5782 -0.8333 -1.4491
  461MOL0     H63552   1.917  10.718   4.716  1.8542 -0.8509  0.6438
  461MOL0     H63553   1.972  10.860   4.975 -0.1246  2.1729 -1.1390
  461MOL0     H63554   2.050  10.712   4.916 -0.3908 -0.5385  1.3176
  461MOL0     H63555   2.159  10.826   4.736  1.1240  1.9568 -0.2836
  461MOL0     H63556   2.075  10.978   4.768  0.1632  1.2979  1.4992
  461MOL0     H63557   2.224  10.866   4.998  0.6326 -0.4096  0.7709
  461MOL0     H63558   2.324  10.913   4.859  0.1972 -1.2625  1.2018
  461MOL0     H63559   2.208  11.154   4.894 -3.3683  0.5024 -0.9560
  461MOL0     H63560   2.307  11.080   5.034 -0.7090 -0.1897  0.0379
  461MOL0     H63561   1.999  11.055   5.011 -1.4057  0.8129  2.4698
  461MOL0     H63562   2.104  11.004   5.137  3.0773 -0.5774 -1.0418
  461MOL0     H63563   2.042  11.286   5.040  2.6048  2.8543  1.3410
  461MOL0     H63564   2.173  11.258   5.154 -0.4045  0.9532 -1.7485
  461MOL0     H63565   1.882  11.155   5.217 -0.1550 -0.0931  0.6584
  461MOL0     H63566   2.025  11.170   5.309 -0.8940 -2.2325 -1.5041
  461MOL0     H63567   1.780  11.405   5.113  0.7254  2.8099 -2.0637
  461MOL0     H63568   1.734  11.714   5.166 -1.7914  0.1238 -0.4279
  461MOL0     H63569   1.725  11.711   5.342  2.7734  2.6057 -0.9245
  461MOL0     H63570   1.569  11.487   5.267  1.2879  0.2149 -0.9941
  461MOL0     H63571   1.508  11.656   5.308  0.1579  3.0264  0.1641
  461MOL0     H63572   1.511  11.713   5.061 -1.2432 -0.2558 -0.3397
  461MOL0     H63573   1.594  11.570   5.016  0.3670 -0.7538  0.3925
  461MOL0     H63574   1.387  11.437   5.078  0.6060  0.3120 -0.8262
  461MOL0     H63575   1.309  11.582   5.155 -1.1037 -1.7318  0.7975
  461MOL0     H63576   1.155  11.736   5.058 -2.4927  2.0327  0.1105
  461MOL0     H63577   0.961  11.822   5.115  0.2502 -0.4766  1.5413
  461MOL0     H63578   0.810  11.721   5.116 -2.2788  0.6305 -2.0643
  461MOL0     H63579   0.841  11.837   4.994  1.6026 -1.1358 -0.9677
  461MOL0     H63580   0.557  11.807   4.718 -0.1461  2.5413  2.1308
  461MOL0     H63581   0.323  11.806   4.646 -1.4181 -0.5095  0.7926
  461MOL0     H63582   0.042  11.820   4.674 -0.7630 -0.3540  0.2386
  461MOL0     H63583   0.137  11.710   4.569  1.9778 -1.2608  1.1540
  461MOL0     H63584  -0.133  11.648   4.707 -0.9786  1.3609  0.2946
  461MOL0     H63585  -0.115  11.691   4.540  1.2634  1.6275  0.0272
  461MOL0     H63586  -0.016  11.448   4.705 -2.7666  2.9846  2.8887
  461MOL0     H63587   0.020  11.470   4.520  1.6711  2.4819  1.6435
  461MOL0     H63588  -0.200  11.456   4.472 -0.7835 -0.6553  0.3689
  461MOL0     H63589  -0.258  11.453   4.641  3.9100  0.0818  4.0886
  461MOL0     H63590  -0.274  11.218   4.546  0.0534  1.7296 -1.5987
  461MOL0     H63591  -0.113  11.226   4.507  0.7169 -0.3424  1.6353
  461MOL0     H63592  -0.261  11.219   4.773 -0.3533 -4.4377  1.6431
  461MOL0     H63593  -0.096  11.274   4.784 -0.5813  1.3810 -2.3488
  461MOL0     H63594  -0.140  11.024   4.818 -2.5024  6.3992  3.8180
  461MOL0     H63595  -0.009  11.069   4.696 -0.1673  1.3627  0.1353
  461MOL0     H63596  -0.166  10.869   4.633 -0.7472  0.0271  1.7173
  461MOL0     H63597  -0.156  10.993   4.523 -2.0248  1.4189 -0.1437
  461MOL0     H63598   0.238  11.522   4.945  1.1192  0.9279  2.9100
  461MOL0     H63599   0.481  11.516   5.023 -1.1140  0.0737  0.5174
  461MOL0     H63600   0.946  11.385   4.773 -1.0344  0.1034  1.2213
  461MOL0     H63601   1.202  11.392   4.817  0.0031 -1.3799  2.3765
  461MOL0     H63602   1.607  10.621   5.017 -1.0179 -1.4789  0.4108
  461MOL0     H63603   1.415  10.515   4.924  0.6640  0.9634  1.1079
  461MOL0     H63604   1.082  10.573   4.736  0.7224  3.8509 -0.3076
  461MOL0     H63605   0.842  10.629   4.701  1.6810  1.9130  0.0793
  461MOL0     H63606   0.548  10.570   4.386 -0.2665  0.3849 -0.5583
  461MOL0     H63607   0.690  10.533   4.287  1.4240  1.2238  1.7093
  461MOL0     H63608   0.723  10.319   4.440 -0.9372 -2.0770 -0.4005
  461MOL0     H63609   0.570  10.322   4.339 -0.1928 -1.6516  0.8189
  461MOL0     H63610   0.631  10.401   4.629  0.6111  2.9560 -0.8583
  461MOL0     H63611   0.471  10.422   4.564  0.9219  1.2512 -3.0291
  461MOL0     H63612   0.614  10.144   4.612  0.0641 -1.1627  1.1052
  461MOL0     H63613   0.471  10.160   4.517  1.1724 -2.2519  0.7122
  461MOL0     H63614   0.300  10.176   4.898 -2.9011  3.2412 -1.5457
  461MOL0     H63615   0.899  10.518   4.280 -0.8545  4.1699 -0.4512
  461MOL0     H63616   1.218  10.575   4.258 -0.5763  0.9903 -1.1866
  461MOL0     H63617   1.199  10.398   4.282  1.1284  1.5972  1.2436
  461MOL0     H63618   1.093  10.479   4.181  1.3678 -0.7569 -0.9755
  462MOL0     O63619   9.195   3.302   2.563 -0.3183  0.0998  0.7434
  462MOL0     C63620   9.111   3.358   2.626 -0.2792  0.5306 -0.1832
  462MOL0     O63621   9.089   3.346   2.758 -0.3483  0.6445 -0.2065
  462MOL0     C63622   9.169   3.270   2.843 -0.3053 -0.4530 -0.7564
  462MOL0     C63623   9.132   3.136   2.881  0.7785 -0.3402 -0.1668
  462MOL0     C63624   9.202   3.058   2.969  0.0834  0.1049  0.5440
  462MOL0     C63625   9.330   3.109   3.014 -0.2202 -0.1686  0.5731
  462MOL0     O63626   9.417   3.042   3.098  0.1264  0.1051 -0.0012
  462MOL0     C63627   9.456   2.919   3.040 -0.0774 -0.8538  0.7143
  462MOL0     C63628   9.597   2.923   2.993 -1.2782 -0.6045 -0.1882
  462MOL0     C63629   9.694   2.938   3.118 -0.2726  0.7010  0.1371
  462MOL0     C63630   9.740   2.792   3.153 -0.3790 -0.3145  0.0870
  462MOL0     C63631   9.812   2.807   3.282  0.3512 -0.5404 -0.2587
  462MOL0     C63632   9.905   2.692   3.302 -0.0076 -0.7816 -0.1521
  462MOL0     C63633   9.988   2.713   3.429 -0.2678  0.1059 -0.7427
  462MOL0     C63634  10.114   2.627   3.431 -0.2519  0.6401  0.1142
  462MOL0     N63635  10.096   2.491   3.402 -0.2372 -0.0171 -0.7189
  462MOL0     C63636  10.035   2.396   3.484 -0.3435 -0.8605 -0.3597
  462MOL0     C63637  10.061   2.278   3.423  0.3882  0.3438  0.3822
  462MOL0     C63638  10.026   2.140   3.473 -0.4261  0.2279  0.3303
  462MOL0     C63639   9.884   2.104   3.447  0.4521 -0.8503  0.8099
  462MOL0     C63640   9.864   2.076   3.293 -0.0229 -0.0614 -0.2878
  462MOL0     C63641   9.716   2.063   3.261 -0.7099 -0.3499  0.8618
  462MOL0     O63642   9.664   2.189   3.237 -0.4784 -0.7766 -1.0694
  462MOL0     C63643   9.534   2.196   3.203  0.0423  1.7130 -0.4842
  462MOL0     C63644   9.471   2.318   3.193 -0.2517  0.2517 -0.3163
  462MOL0     C63645   9.339   2.337   3.168  0.4540 -0.7566  0.1859
  462MOL0     C63646   9.293   2.485   3.160 -0.7632 -0.2649  0.2752
  462MOL0     C63647   9.255   2.224   3.136  0.2772  0.3867 -0.4201
  462MOL0     C63648   9.113   2.240   3.086 -0.4603 -0.7359  0.4080
  462MOL0     O63649   9.037   2.357   3.097  0.5407  0.0877  0.5128
  462MOL0     C63650   8.933   2.384   3.009  0.8245  0.9603 -0.2970
  462MOL0     C63651   8.924   2.341   2.876  0.9027  0.4550 -0.1240
  462MOL0     C63652   8.824   2.404   2.794  0.2943  0.7230  0.3709
  462MOL0     C63653   8.726   2.482   2.852 -0.1798  0.0495  0.4221
  462MOL0     O63654   8.629   2.517   2.760  0.6035  0.2832  0.4218
  462MOL0     C63655   8.535   2.621   2.787 -0.3700  0.0511 -1.2979
  462MOL0     C63656   8.468   2.658   2.655  0.2034  0.4462 -0.2128
  462MOL0     C63657   8.552   2.754   2.568 -0.3340  0.7708  0.1289
  462MOL0     C63658   8.685   2.698   2.521  0.6346  1.1143  0.4855
  462MOL0     C63659   8.752   2.751   2.397 -0.5882  0.0858 -0.5155
  462MOL0     C63660   8.869   2.665   2.351 -0.1418  0.7786  0.1618
  462MOL0     C63661   8.959   2.727   2.237 -0.4736 -1.0927  0.2009
  462MOL0     C63662   9.048   2.636   2.166  0.8804  0.6107 -0.2999
  462MOL0    Cl63663   9.154   2.551   2.284  0.1948 -0.4583  0.0815
  462MOL0     C63664   8.727   2.517   2.987  0.3795 -0.0776 -0.8990
  462MOL0     C63665   8.836   2.473   3.063  0.9492 -0.8259 -0.1609
  462MOL0     O63666   9.083   2.143   3.019 -0.0432 -0.3814  0.1867
  462MOL0     C63667   9.305   2.093   3.156  0.7286 -0.2662 -0.7415
  462MOL0     C63668   9.443   2.081   3.188  0.5468 -0.5932 -0.3615
  462MOL0     N63669  10.121   2.306   3.306 -0.1722  0.0780  0.3219
  462MOL0     N63670  10.127   2.435   3.282 -0.0415  0.0293  0.3604
  462MOL0     C63671   9.371   3.234   2.967  0.0171  0.3220 -0.7530
  462MOL0     C63672   9.292   3.313   2.884 -0.3921  0.0861  0.2879
  462MOL0     C63673   9.009   3.433   2.549 -0.3371 -0.0183  0.4465
  462MOL0     C63674   9.006   3.410   2.405 -0.0919 -0.2615 -1.0423
  462MOL0     C63675   8.909   3.470   2.325  0.0276 -0.4012  0.0514
  462MOL0     C63676   8.819   3.554   2.373  0.3147 -0.2702  0.1624
  462MOL0     O63677   8.716   3.611   2.295 -0.1763  0.3708  0.0044
  462MOL0     C63678   8.726   3.638   2.150  0.0610 -0.2368 -0.2181
  462MOL0     C63679   8.662   3.515   2.074 -0.6502 -0.4553 -0.0924
  462MOL0     C63680   8.520   3.496   2.124  0.1460  0.4573  0.5418
  462MOL0     C63681   8.441   3.406   2.031 -0.5099 -0.1706  0.0239
  462MOL0     C63682   8.302   3.399   2.075  0.7842 -0.1473 -0.3540
  462MOL0     C63683   8.195   3.391   2.126  0.1457 -0.2452  0.2381
  462MOL0     C63684   8.812   3.573   2.508  0.0867 -0.0294 -0.4502
  462MOL0     C63685   8.907   3.524   2.596  0.0140  0.1854  0.5845
  462MOL0     C63686   8.891   3.554   2.737  0.8244 -0.0913  0.2954
  462MOL0     H63687   9.037   3.097   2.847  0.7553  1.4806 -2.4546
  462MOL0     H63688   9.170   2.967   3.018  1.9345 -0.5144  0.7063
  462MOL0     H63689   9.392   2.901   2.952 -2.2584  2.5671  1.4121
  462MOL0     H63690   9.441   2.835   3.108 -0.1686 -1.2964  0.1577
  462MOL0     H63691   9.619   2.831   2.937  1.8928 -0.0315 -0.0631
  462MOL0     H63692   9.607   3.005   2.922 -2.5166  0.4988  0.8722
  462MOL0     H63693   9.778   3.005   3.098 -0.0731  0.1071 -1.1568
  462MOL0     H63694   9.636   2.984   3.199  1.3215  1.6637  0.7652
  462MOL0     H63695   9.661   2.716   3.159 -0.0606 -0.5466  1.7650
  462MOL0     H63696   9.813   2.763   3.077  0.0125  3.2236 -1.0622
  462MOL0     H63697   9.748   2.821   3.370  2.2079  4.7375  0.6611
  462MOL0     H63698   9.875   2.896   3.275 -0.6131  0.2068  0.2182
  462MOL0     H63699   9.863   2.591   3.311 -0.1221 -0.8672 -1.4909
  462MOL0     H63700   9.976   2.690   3.219 -3.9461 -1.0867 -3.8507
  462MOL0     H63701   9.926   2.698   3.518 -2.2623  0.2498 -2.0416
  462MOL0     H63702  10.003   2.820   3.444 -0.2679  0.3062 -2.0178
  462MOL0     H63703  10.180   2.666   3.353  0.8420 -2.3690 -0.6015
  462MOL0     H63704  10.167   2.638   3.526 -0.5182 -3.1808  0.8405
  462MOL0     H63705   9.987   2.410   3.580  0.3293 -0.7093 -0.0442
  462MOL0     H63706  10.046   2.136   3.581 -0.9360  1.3337  0.4871
  462MOL0     H63707  10.091   2.066   3.426 -1.6981  0.1119 -1.3476
  462MOL0     H63708   9.854   2.019   3.510  0.4165 -1.9727 -0.6786
  462MOL0     H63709   9.826   2.192   3.475  1.5086  1.4514 -3.3829
  462MOL0     H63710   9.894   2.165   3.237 -4.6404  1.0580 -1.3840
  462MOL0     H63711   9.919   1.986   3.266  2.3504  0.8029  1.2498
  462MOL0     H63712   9.717   2.008   3.166  1.4117 -1.4795  1.4751
  462MOL0     H63713   9.662   2.006   3.337 -0.7182  0.0662  1.1705
  462MOL0     H63714   9.531   2.402   3.227 -4.0396  2.4335  1.6419
  462MOL0     H63715   9.374   2.549   3.198 -0.0524 -0.4940 -0.8240
  462MOL0     H63716   9.212   2.510   3.229 -0.7219 -1.1810  0.6676
  462MOL0     H63717   9.270   2.504   3.055  0.3655 -1.4314 -0.2132
  462MOL0     H63718   8.989   2.264   2.836 -1.8635 -1.6784 -0.7584
  462MOL0     H63719   8.813   2.371   2.692  2.2965  1.6538 -0.1854
  462MOL0     H63720   8.459   2.579   2.854  0.9642 -1.0984 -0.4338
  462MOL0     H63721   8.583   2.705   2.838 -1.0516 -0.3130 -0.0094
  462MOL0     H63722   8.449   2.569   2.595  2.3313  1.3031 -2.3457
  462MOL0     H63723   8.368   2.700   2.667  0.8861  2.2077 -0.3183
  462MOL0     H63724   8.555   2.848   2.624  1.0481  1.0900 -0.4331
  462MOL0     H63725   8.497   2.779   2.477  3.8617  0.1306 -2.8664
  462MOL0     H63726   8.662   2.593   2.499 -0.7975  0.8738  2.8261
  462MOL0     H63727   8.755   2.714   2.603  1.3016  1.5548 -0.1529
  462MOL0     H63728   8.681   2.739   2.314 -0.3236 -0.4608 -0.6666
  462MOL0     H63729   8.781   2.855   2.409  0.0700 -0.3362  1.9936
  462MOL0     H63730   8.831   2.570   2.313  1.4925  0.9741 -2.1379
  462MOL0     H63731   8.928   2.648   2.442 -2.3999  1.0951  1.7994
  462MOL0     H63732   9.008   2.811   2.287  0.3169 -1.4759  0.0808
  462MOL0     H63733   8.898   2.768   2.156 -2.2490 -0.1959  1.9092
  462MOL0     H63734   9.108   2.700   2.101  1.1954  0.4974 -0.1227
  462MOL0     H63735   8.997   2.570   2.095 -0.9329  3.1832 -1.5709
  462MOL0     H63736   8.663   2.595   3.027 -2.8755 -2.3321 -1.3145
  462MOL0     H63737   8.843   2.509   3.165 -0.4252  3.5801 -1.3883
  462MOL0     H63738   9.244   2.005   3.141 -0.0698 -0.2073  1.7474
  462MOL0     H63739   9.480   1.979   3.195 -0.3171 -1.1936 -3.3188
  462MOL0     H63740   9.470   3.260   3.002  0.4823 -2.2581  0.0519
  462MOL0     H63741   9.329   3.411   2.856 -1.4061  0.9384  1.7988
  462MOL0     H63742   9.075   3.339   2.362  0.0767 -0.3818 -0.5846
  462MOL0     H63743   8.929   3.455   2.219  1.9329  3.6633 -0.3622
  462MOL0     H63744   8.677   3.733   2.126 -0.6366 -0.3344  0.7754
  462MOL0     H63745   8.832   3.654   2.127  0.1326  0.8509  0.7808
  462MOL0     H63746   8.731   3.430   2.082 -2.9240 -2.4945 -1.0379
  462MOL0     H63747   8.648   3.538   1.968  0.9661 -1.3728 -0.5457
  462MOL0     H63748   8.515   3.446   2.221 -0.2599 -2.6342 -0.9402
  462MOL0     H63749   8.464   3.590   2.134  0.1622  0.4994  0.2519
  462MOL0     H63750   8.480   3.304   2.036 -2.0856 -0.9410 -1.9710
  462MOL0     H63751   8.436   3.434   1.925  0.2305  1.5431  0.4200
  462MOL0     H63752   8.102   3.383   2.178 -1.1338 -1.5239 -2.0841
  462MOL0     H63753   8.737   3.637   2.553  1.2792  0.2912  1.1744
  462MOL0     H63754   8.822   3.635   2.764  0.9754  0.4636 -0.9331
  462MOL0     H63755   8.852   3.465   2.787  0.9987 -0.9484 -1.0498
  462MOL0     H63756   8.989   3.572   2.782  0.4376 -1.5636  1.8100
  463MOL0     O63757   1.945   7.143  11.046 -0.7240 -0.0405  0.1179
  463MOL0     C63758   1.979   7.048  11.105 -0.1389  0.6197 -0.5427
  463MOL0     O63759   2.103   6.988  11.081 -0.2291  0.0210  0.4021
  463MOL0     C63760   2.181   7.044  10.983  0.5750 -0.5411  0.2056
  463MOL0     C63761   2.273   7.137  11.027  0.4527  0.2967  0.0697
  463MOL0     C63762   2.355   7.198  10.934 -0.4934 -0.2204 -0.5480
  463MOL0     C63763   2.331   7.186  10.800  0.1893 -0.0558 -0.3835
  463MOL0     O63764   2.421   7.242  10.722 -1.3340 -0.2045  0.7143
  463MOL0     C63765   2.424   7.233  10.576 -0.8779 -0.0368 -0.6300
  463MOL0     C63766   2.570   7.246  10.519  0.5310 -0.2071 -0.3572
  463MOL0     C63767   2.677   7.166  10.593 -0.6252 -0.4256  0.4310
  463MOL0     C63768   2.643   7.017  10.574  0.1091 -0.3297 -0.0895
  463MOL0     C63769   2.735   6.924  10.652 -0.2167  0.1231  0.5073
  463MOL0     C63770   2.694   6.909  10.804  0.7704  0.2607 -0.2554
  463MOL0     C63771   2.792   6.811  10.876  0.3537  0.2227  0.4005
  463MOL0     C63772   2.920   6.886  10.918  0.5902  0.5936 -0.7266
  463MOL0     N63773   3.012   6.794  10.988  0.6030 -0.7392  0.1751
  463MOL0     C63774   3.110   6.728  10.917  0.5119 -0.0825  0.6380
  463MOL0     C63775   3.178   6.657  11.010 -0.0720  0.7351  0.8079
  463MOL0     C63776   3.311   6.584  10.990  0.0948  0.0330 -0.1088
  463MOL0     C63777   3.414   6.703  10.968  0.5918  0.8982  0.5021
  463MOL0     C63778   3.551   6.630  10.970  0.5820  0.2583  0.1489
  463MOL0     C63779   3.659   6.722  10.919  0.3250  0.4060 -0.6701
  463MOL0     O63780   3.641   6.764  10.778 -0.6561  0.1954 -0.4993
  463MOL0     C63781   3.742   6.837  10.718  0.6121 -0.0295 -0.0884
  463MOL0     C63782   3.862   6.885  10.784  0.2083 -0.5581  0.4073
  463MOL0     C63783   3.970   6.956  10.717  0.0476  0.1804  0.0929
  463MOL0     C63784   4.093   6.991  10.798  0.2769  1.1016  0.0108
  463MOL0     C63785   3.942   6.993  10.582  0.1688  0.3290 -0.0986
  463MOL0     C63786   4.038   7.059  10.497  0.4744 -0.6025  0.5459
  463MOL0     O63787   4.023   7.060  10.355  0.6691  0.9754 -0.6530
  463MOL0     C63788   4.113   7.133  10.286 -1.1776  0.0800 -0.0580
  463MOL0     C63789   4.220   7.066  10.221 -0.3538 -0.1262 -0.2538
  463MOL0     C63790   4.307   7.133  10.128  0.0215  0.1302  0.0676
  463MOL0     C63791   4.295   7.274  10.102 -0.1653  0.4012 -0.6577
  463MOL0     O63792   4.382   7.349  10.036 -0.6500  0.2059  0.7370
  463MOL0     C63793   4.504   7.290   9.987 -0.6437  0.5403 -0.3863
  463MOL0     C63794   4.565   7.381   9.882  0.9414 -0.3801  0.0647
  463MOL0     C63795   4.667   7.324   9.799 -0.2548 -0.3083  0.1972
  463MOL0     C63796   4.792   7.250   9.872  1.1038 -0.5654 -0.6043
  463MOL0     C63797   4.884   7.162   9.781  0.4376 -0.4607  0.5071
  463MOL0     C63798   4.802   7.059   9.703 -0.4593  0.8447  0.2075
  463MOL0     C63799   4.891   6.970   9.612  0.1616  0.1975 -1.0231
  463MOL0     C63800   4.817   6.930   9.486 -0.0760 -1.4356  0.6281
  463MOL0    Cl63801   4.916   6.790   9.423  0.4107  0.1286  0.4919
  463MOL0     C63802   4.180   7.341  10.166 -0.0434 -0.3551  0.6194
  463MOL0     C63803   4.099   7.265  10.256 -1.0249 -0.6102  0.3994
  463MOL0     O63804   4.122   7.130  10.551  0.5858  0.2250  0.0670
  463MOL0     C63805   3.815   6.949  10.518  0.8832  0.3785 -0.8760
  463MOL0     C63806   3.722   6.881  10.587 -0.4532 -0.5225 -0.0920
  463MOL0     N63807   3.114   6.670  11.138 -0.9542  0.3941  0.8697
  463MOL0     N63808   3.023   6.757  11.123  0.5435 -0.6562  0.6433
  463MOL0     C63809   2.226   7.107  10.752  0.7240 -0.5457  0.3996
  463MOL0     C63810   2.153   7.027  10.848 -0.1059  1.0066 -0.2442
  463MOL0     C63811   1.888   6.973  11.205  0.8552 -0.4888  0.6647
  463MOL0     C63812   1.918   6.840  11.249 -0.2275 -0.3597 -0.4417
  463MOL0     C63813   1.826   6.773  11.330 -0.3296  0.0149  0.3525
  463MOL0     C63814   1.710   6.832  11.368  0.1812 -0.5755  0.3714
  463MOL0     O63815   1.630   6.775  11.462  0.0907 -0.1013  0.1026
  463MOL0     C63816   1.494   6.743  11.422  0.4965 -0.8091  0.7280
  463MOL0     C63817   1.380   6.816  11.503  0.4936  0.2545 -0.3540
  463MOL0     C63818   1.351   6.751  11.642 -0.6892  0.2984  0.3837
  463MOL0     C63819   1.301   6.859  11.741 -0.2251 -0.6124  0.2199
  463MOL0     C63820   1.232   6.791  11.849  0.2607 -0.4240 -0.5030
  463MOL0     C63821   1.184   6.716  11.936  0.0355 -0.3087  0.3005
  463MOL0     C63822   1.684   6.967  11.338  0.1001  1.1103 -0.0209
  463MOL0     C63823   1.765   7.035  11.260 -0.0870 -0.2790  0.4651
  463MOL0     C63824   1.729   7.180  11.237  0.2705 -0.3129 -0.3767
  463MOL0     H63825   2.286   7.157  11.133 -0.6565  0.0666  0.2587
  463MOL0     H63826   2.443   7.249  10.972  1.2796 -1.7243 -2.4049
  463MOL0     H63827   2.366   7.317  10.540 -3.4040 -1.5720 -0.4005
  463MOL0     H63828   2.371   7.147  10.532  0.6712 -0.0243 -2.6771
  463MOL0     H63829   2.574   7.221  10.413  2.2988  0.2623 -0.4274
  463MOL0     H63830   2.594   7.352  10.526 -1.9453  0.3592  0.7943
  463MOL0     H63831   2.774   7.202  10.559 -1.3556  2.6717  1.3602
  463MOL0     H63832   2.671   7.190  10.699 -0.7016 -1.1334  0.5954
  463MOL0     H63833   2.543   7.001  10.613  0.2510 -2.3655 -0.4648
  463MOL0     H63834   2.637   6.979  10.472  2.4486 -3.5294  0.7817
  463MOL0     H63835   2.839   6.957  10.651 -0.1187 -0.1553  0.9771
  463MOL0     H63836   2.729   6.826  10.606  0.2128  0.2871  0.1014
  463MOL0     H63837   2.698   7.008  10.850  1.3330 -0.1845  0.6813
  463MOL0     H63838   2.592   6.873  10.820  0.5899  0.1314 -1.5529
  463MOL0     H63839   2.823   6.731  10.809  0.4876  1.5758 -1.2286
  463MOL0     H63840   2.747   6.767  10.965 -1.0042 -1.7923 -1.2114
  463MOL0     H63841   2.973   6.901  10.824  1.5161 -2.1455 -0.7292
  463MOL0     H63842   2.917   6.980  10.973  3.3728  0.5994 -0.4803
  463MOL0     H63843   3.126   6.749  10.811  1.9076 -0.2540  0.7985
  463MOL0     H63844   3.301   6.512  10.908 -0.3474 -1.1801  0.9817
  463MOL0     H63845   3.329   6.514  11.072 -1.5304 -1.2839 -0.8153
  463MOL0     H63846   3.395   6.762  10.878 -2.1296 -0.8735 -0.2064
  463MOL0     H63847   3.403   6.774  11.051 -3.2236  0.7957  0.2727
  463MOL0     H63848   3.572   6.600  11.073  0.5083  1.0698  0.4115
  463MOL0     H63849   3.561   6.539  10.911  4.0709 -1.4216  2.9440
  463MOL0     H63850   3.659   6.813  10.980  0.4639  0.2452 -0.4280
  463MOL0     H63851   3.750   6.665  10.944  0.4561  0.6994 -0.4762
  463MOL0     H63852   3.881   6.874  10.890 -1.1322  0.1275  0.7406
  463MOL0     H63853   4.106   6.915  10.875 -0.2033  1.3292  0.3214
  463MOL0     H63854   4.089   7.094  10.834 -0.5558  1.5664 -1.3237
  463MOL0     H63855   4.178   6.986  10.730  0.4614  0.8948  0.2543
  463MOL0     H63856   4.239   6.962  10.246  2.4640  0.0850 -1.1914
  463MOL0     H63857   4.384   7.068  10.088  0.1634 -0.3437  1.0802
  463MOL0     H63858   4.582   7.284  10.064 -1.2181 -2.4955  0.0724
  463MOL0     H63859   4.486   7.193   9.940  1.4115 -1.1855  2.1174
  463MOL0     H63860   4.480   7.416   9.823  2.0150  1.4059 -0.5062
  463MOL0     H63861   4.604   7.471   9.931 -0.4500 -0.6928  1.8676
  463MOL0     H63862   4.706   7.399   9.730  0.0027 -0.6116  0.0150
  463MOL0     H63863   4.618   7.247   9.739 -0.8878 -1.0578  1.6321
  463MOL0     H63864   4.749   7.188   9.952 -2.8247  1.2871 -1.0100
  463MOL0     H63865   4.853   7.316   9.935  0.4762 -0.6198  0.0870
  463MOL0     H63866   4.937   7.226   9.709  2.2441 -2.1478  0.2470
  463MOL0     H63867   4.955   7.109   9.846  0.3995  1.2746  2.0510
  463MOL0     H63868   4.733   7.115   9.639 -0.4128  1.2194  0.4818
  463MOL0     H63869   4.737   6.998   9.767 -0.2924  2.4079  1.9475
  463MOL0     H63870   4.938   6.889   9.670 -0.8041  0.1878 -0.2176
  463MOL0     H63871   4.980   7.024   9.579  1.1554 -1.1395 -0.6627
  463MOL0     H63872   4.827   7.020   9.424  0.9116 -0.0629  2.6431
  463MOL0     H63873   4.712   6.902   9.496 -0.3665 -0.3372  0.8146
  463MOL0     H63874   4.166   7.448  10.151 -0.0618 -0.6967 -2.5549
  463MOL0     H63875   4.022   7.323  10.308 -1.5352 -0.3664 -0.5968
  463MOL0     H63876   3.784   6.967  10.416 -4.1114 -1.7138 -0.0645
  463MOL0     H63877   3.627   6.864  10.537  0.1250  0.4276 -1.5735
  463MOL0     H63878   2.191   7.102  10.649  0.7902  3.3093  0.0434
  463MOL0     H63879   2.073   6.959  10.821  1.2379 -0.3399 -0.9883
  463MOL0     H63880   2.005   6.784  11.217 -0.1823 -2.7313  3.2810
  463MOL0     H63881   1.846   6.678  11.379  1.2004  0.2223  0.1831
  463MOL0     H63882   1.479   6.766  11.316 -0.6518  1.9135  1.4053
  463MOL0     H63883   1.477   6.635  11.429  1.1293 -0.9307  0.4817
  463MOL0     H63884   1.285   6.822  11.449  0.3868 -0.2010 -0.2124
  463MOL0     H63885   1.410   6.920  11.523 -0.9556  0.6319  0.0075
  463MOL0     H63886   1.268   6.680  11.636 -1.5901  1.2647  1.0188
  463MOL0     H63887   1.436   6.697  11.684 -1.6606 -1.2161  0.4789
  463MOL0     H63888   1.225   6.927  11.700  2.0319  0.4549 -2.4888
  463MOL0     H63889   1.386   6.915  11.782 -0.0969 -0.8595  0.2903
  463MOL0     H63890   1.143   6.653  12.013 -0.5173  0.8445  0.9674
  463MOL0     H63891   1.592   7.007  11.378 -1.4758 -1.2882 -1.0192
  463MOL0     H63892   1.662   7.228  11.309 -0.0652 -1.4119  0.0655
  463MOL0     H63893   1.820   7.240  11.240 -0.0411  0.2414  3.9433
  463MOL0     H63894   1.678   7.195  11.141  2.6615  3.4666 -1.2459
  464MOL0     O63895   6.203   0.383   0.263  0.7094  0.3869  0.5548
  464MOL0     C63896   6.294   0.464   0.273  0.7673  0.3063 -0.7183
  464MOL0     O63897   6.404   0.436   0.358 -0.7015 -0.8592  0.5043
  464MOL0     C63898   6.400   0.307   0.411 -0.3889 -0.0423  0.0730
  464MOL0     C63899   6.495   0.208   0.366 -0.0620  0.1973 -0.0843
  464MOL0     C63900   6.482   0.074   0.408 -0.2591  0.6201 -0.0124
  464MOL0     C63901   6.374   0.044   0.484 -0.6677  0.7122  0.4189
  464MOL0     O63902   6.365  -0.087   0.512 -0.7494  0.2284 -0.0535
  464MOL0     C63903   6.342  -0.123   0.652  0.8397  0.3351 -0.7166
  464MOL0     C63904   6.421  -0.251   0.677  1.1732  0.9527 -0.5404
  464MOL0     C63905   6.568  -0.238   0.693 -0.2029 -0.6850 -0.6432
  464MOL0     C63906   6.645  -0.361   0.634 -0.5441 -0.0935 -0.9211
  464MOL0     C63907   6.799  -0.337   0.664  1.1916 -1.1233  0.1596
  464MOL0     C63908   6.866  -0.214   0.593  0.1013 -0.1184  0.4969
  464MOL0     C63909   7.010  -0.180   0.636 -0.1006 -0.6057  0.5868
  464MOL0     C63910   7.121  -0.274   0.588  0.6300  0.5118 -0.4590
  464MOL0     N63911   7.261  -0.233   0.621  0.2622  0.7145 -0.7680
  464MOL0     C63912   7.321  -0.112   0.622 -0.3561 -0.5478  0.2302
  464MOL0     C63913   7.446  -0.149   0.663 -0.0042 -0.2584 -0.8110
  464MOL0     C63914   7.560  -0.058   0.682  0.1749  0.1268  0.0128
  464MOL0     C63915   7.563   0.048   0.577  0.2434 -0.7940  1.0965
  464MOL0     C63916   7.698   0.114   0.567 -0.7923  0.3046  0.3246
  464MOL0     C63917   7.752   0.175   0.695  0.3083  0.8662  0.1609
  464MOL0     O63918   7.879   0.229   0.684 -0.1991 -0.6112 -0.0539
  464MOL0     C63919   7.905   0.364   0.690 -0.4121  0.4189  0.6608
  464MOL0     C63920   8.034   0.409   0.678 -0.4856  0.1845  0.5808
  464MOL0     C63921   8.077   0.541   0.663  0.6299 -0.3575 -0.6325
  464MOL0     C63922   8.215   0.572   0.663 -0.1066 -0.2113  0.9221
  464MOL0     C63923   7.977   0.642   0.660  0.2335  1.2805 -0.1799
  464MOL0     C63924   8.004   0.786   0.659 -0.2333  0.5533  0.8222
  464MOL0     O63925   7.979   0.859   0.772  0.3317 -0.0118  0.3235
  464MOL0     C63926   8.026   0.986   0.805 -0.2647 -0.5398  0.0819
  464MOL0     C63927   8.120   1.061   0.734 -0.0582  0.3133 -0.1934
  464MOL0     C63928   8.166   1.179   0.792  0.1090 -0.3195  0.5177
  464MOL0     C63929   8.122   1.226   0.917  0.1338 -0.3386 -0.2819
  464MOL0     O63930   8.145   1.357   0.951  0.0528  0.2863 -0.3077
  464MOL0     C63931   8.051   1.428   1.026  0.4458  0.3875 -0.2868
  464MOL0     C63932   8.094   1.575   1.010 -0.3850  0.0031  0.1939
  464MOL0     C63933   8.247   1.596   1.019  0.1767 -0.5013 -0.9743
  464MOL0     C63934   8.300   1.733   1.003  0.1535  0.3326 -0.6495
  464MOL0     C63935   8.450   1.737   1.056 -0.2412 -0.1878  0.5956
  464MOL0     C63936   8.529   1.861   1.028 -0.9797 -0.1760  0.7125
  464MOL0     C63937   8.654   1.862   1.117  0.2917 -0.3363  0.3155
  464MOL0     C63938   8.748   1.984   1.094  0.7704  0.5712 -0.0017
  464MOL0    Cl63939   8.787   2.006   0.923  0.2471 -0.4122 -0.1217
  464MOL0     C63940   8.034   1.144   0.998  0.0569 -0.0950  0.4068
  464MOL0     C63941   7.991   1.028   0.936  0.3905  0.0714  1.1096
  464MOL0     O63942   8.046   0.838   0.554 -0.3102  0.7317 -0.0107
  464MOL0     C63943   7.846   0.594   0.671  0.5819  0.0442 -0.1421
  464MOL0     C63944   7.806   0.461   0.689 -0.6768 -0.2500  0.1828
  464MOL0     N63945   7.446  -0.271   0.710  0.6936  0.0835  0.1458
  464MOL0     N63946   7.333  -0.320   0.683  0.0433  0.4568 -0.8654
  464MOL0     C63947   6.287   0.137   0.546 -0.3912  0.2413 -0.0915
  464MOL0     C63948   6.307   0.274   0.515 -0.6680  0.2980  0.5508
  464MOL0     C63949   6.287   0.582   0.178 -0.6064 -0.2538  0.4267
  464MOL0     C63950   6.184   0.580   0.078 -0.5860  0.2609 -0.1674
  464MOL0     C63951   6.179   0.676  -0.026  0.6974  0.0839 -0.2778
  464MOL0     C63952   6.276   0.779  -0.037 -0.3270 -0.6258  0.6551
  464MOL0     O63953   6.244   0.870  -0.125  0.2816  0.0583  0.5385
  464MOL0     C63954   6.341   0.969  -0.164  0.6659 -0.5486  0.9480
  464MOL0     C63955   6.317   1.113  -0.094 -1.0485 -0.0951  0.6259
  464MOL0     C63956   6.171   1.160  -0.114 -1.2980 -0.3608  0.1475
  464MOL0     C63957   6.166   1.321  -0.109 -0.9323 -0.8087 -0.0304
  464MOL0     C63958   6.217   1.376   0.011  0.0530 -0.1322  0.6429
  464MOL0     C63959   6.246   1.431   0.113  0.6986 -0.1993 -0.4644
  464MOL0     C63960   6.374   0.788   0.070 -0.0987 -0.5776  0.0534
  464MOL0     C63961   6.385   0.690   0.172 -0.2043  0.2313 -0.0598
  464MOL0     C63962   6.496   0.706   0.271 -0.3774 -0.1684  0.6614
  464MOL0     H63963   6.572   0.232   0.293 -0.7194 -0.2040 -0.9233
  464MOL0     H63964   6.547  -0.008   0.381  1.2372  0.8329  2.6705
  464MOL0     H63965   6.236  -0.151   0.657  1.0203 -1.9013 -4.8377
  464MOL0     H63966   6.361  -0.052   0.733  0.5748 -1.7675  1.3234
  464MOL0     H63967   6.382  -0.302   0.766 -0.8552  0.7158 -1.4931
  464MOL0     H63968   6.393  -0.327   0.603  2.2555 -0.6441  0.6238
  464MOL0     H63969   6.586  -0.153   0.627 -1.8610  1.9746  2.0781
  464MOL0     H63970   6.588  -0.201   0.794 -0.8176 -0.0647 -0.7434
  464MOL0     H63971   6.612  -0.459   0.669 -0.8487 -0.2880 -1.7374
  464MOL0     H63972   6.632  -0.356   0.526 -0.2396  0.3655 -0.9421
  464MOL0     H63973   6.845  -0.428   0.623  2.0426  0.6926 -3.3045
  464MOL0     H63974   6.813  -0.326   0.772  0.1863 -0.5073  0.2336
  464MOL0     H63975   6.870  -0.237   0.486  0.9892  1.6320  0.1106
  464MOL0     H63976   6.811  -0.121   0.610 -1.2034 -1.0178  1.4586
  464MOL0     H63977   7.001  -0.191   0.744  2.0757 -2.3588  0.6654
  464MOL0     H63978   7.049  -0.079   0.616 -1.3505  0.0945  1.5723
  464MOL0     H63979   7.090  -0.374   0.621 -1.5936  1.2541 -0.1047
  464MOL0     H63980   7.111  -0.274   0.479  0.9628 -0.8148 -0.5069
  464MOL0     H63981   7.281  -0.014   0.595  1.1901 -0.4249 -1.8097
  464MOL0     H63982   7.658  -0.107   0.686  0.7939  1.1320 -1.6708
  464MOL0     H63983   7.543  -0.015   0.781 -1.1530  1.9381 -0.9280
  464MOL0     H63984   7.539   0.007   0.478  1.5193  0.8636  0.0544
  464MOL0     H63985   7.488   0.127   0.590 -1.7352 -1.8314 -2.5281
  464MOL0     H63986   7.765   0.034   0.533  0.6182  1.9201 -0.8366
  464MOL0     H63987   7.686   0.188   0.488 -2.4555  1.7092  1.8190
  464MOL0     H63988   7.679   0.238   0.748 -1.4753  0.7664 -2.0077
  464MOL0     H63989   7.763   0.091   0.764  0.1369  1.1577  0.5446
  464MOL0     H63990   8.108   0.331   0.662  2.4584  2.6752  1.1450
  464MOL0     H63991   8.238   0.575   0.557 -3.0431 -1.8723  0.1397
  464MOL0     H63992   8.268   0.490   0.713  0.0617 -0.3514  0.5185
  464MOL0     H63993   8.250   0.664   0.712 -1.4369  2.9188 -3.4173
  464MOL0     H63994   8.161   1.026   0.639  0.7861  1.4934 -0.2852
  464MOL0     H63995   8.223   1.238   0.721 -1.4035 -0.1423 -0.6176
  464MOL0     H63996   7.946   1.422   0.997  0.2743  1.9987 -0.0712
  464MOL0     H63997   8.061   1.392   1.129  0.3549 -1.3667 -0.8534
  464MOL0     H63998   8.068   1.618   0.913  1.1871 -0.4122 -0.4287
  464MOL0     H63999   8.042   1.624   1.094  0.2423 -1.2819  1.3626
  464MOL0     H64000   8.300   1.535   0.945  0.6862 -3.1897  1.4334
  464MOL0     H64001   8.277   1.556   1.117 -0.7704  0.3942 -0.2938
  464MOL0     H64002   8.245   1.809   1.060  1.0005  1.2719 -1.0363
  464MOL0     H64003   8.286   1.745   0.895 -0.9339 -1.4058 -0.7344
  464MOL0     H64004   8.434   1.726   1.164 -1.4059  0.7921  0.5400
  464MOL0     H64005   8.508   1.654   1.015  1.2636  0.7166  0.8113
  464MOL0     H64006   8.465   1.949   1.044  0.4559  0.7234  1.7844
  464MOL0     H64007   8.557   1.869   0.922  0.9288 -1.3016  1.0782
  464MOL0     H64008   8.712   1.772   1.097  0.5361  0.1580 -1.4472
  464MOL0     H64009   8.626   1.860   1.222  1.9001  2.7577  0.9267
  464MOL0     H64010   8.839   1.969   1.152 -0.9397  1.4570  3.1359
  464MOL0     H64011   8.704   2.075   1.136 -0.8158 -0.9223  1.7802
  464MOL0     H64012   7.999   1.161   1.099  3.6496  1.4064  1.5571
  464MOL0     H64013   7.911   0.964   0.974  1.6093 -0.5931  2.7002
  464MOL0     H64014   7.763   0.662   0.687 -0.7764 -1.9261  1.7765
  464MOL0     H64015   7.703   0.431   0.707  0.6411 -4.4086  2.0804
  464MOL0     H64016   6.207   0.103   0.612  0.4520 -2.1254 -0.2201
  464MOL0     H64017   6.244   0.354   0.550 -2.2978  0.6757 -2.8294
  464MOL0     H64018   6.108   0.503   0.074  2.0505 -2.4684 -1.2411
  464MOL0     H64019   6.102   0.681  -0.102 -0.3003 -1.4403  0.5828
  464MOL0     H64020   6.442   0.933  -0.142  0.3813  0.1221  3.7918
  464MOL0     H64021   6.329   0.975  -0.272  0.0970  0.1818  1.0420
  464MOL0     H64022   6.381   1.185  -0.147  0.1553 -1.2170  0.4858
  464MOL0     H64023   6.346   1.093   0.010  1.7793 -4.2528 -0.6857
  464MOL0     H64024   6.135   1.124  -0.211 -0.0987  0.3037 -0.5618
  464MOL0     H64025   6.106   1.116  -0.038 -1.3679 -0.3397  0.1008
  464MOL0     H64026   6.064   1.356  -0.129  0.3912  2.3216 -2.2817
  464MOL0     H64027   6.223   1.370  -0.189 -2.4173 -0.6158 -1.0238
  464MOL0     H64028   6.259   1.479   0.208 -4.1135 -0.9198  0.8408
  464MOL0     H64029   6.430   0.881   0.076 -0.7511 -0.2686  2.4923
  464MOL0     H64030   6.569   0.629   0.245 -0.2641 -0.1740  0.9917
  464MOL0     H64031   6.548   0.802   0.274  1.3811 -1.0356 -0.3361
  464MOL0     H64032   6.451   0.688   0.369  1.4139  1.2316  1.8151
  465MOL0     O64033   0.427  11.050   9.099  0.1669  0.0340 -0.0592
  465MOL0     C64034   0.448  10.927   9.109  0.6223 -0.2279  0.0267
  465MOL0     O64035   0.411  10.831   9.013 -0.6066 -0.0883 -1.3060
  465MOL0     C64036   0.409  10.864   8.884 -0.9291  0.2065  0.2249
  465MOL0     C64037   0.491  10.964   8.821  0.4979  0.0388  0.3513
  465MOL0     C64038   0.482  10.986   8.680 -0.3243 -0.7891 -0.4598
  465MOL0     C64039   0.393  10.917   8.600  0.2621  1.2702 -0.5166
  465MOL0     O64040   0.395  10.960   8.469 -0.1267  0.5349 -0.4285
  465MOL0     C64041   0.387  10.855   8.377 -0.2633  0.6185  0.0814
  465MOL0     C64042   0.339  10.921   8.243 -0.4804  0.0502 -0.0028
  465MOL0     C64043   0.446  10.994   8.169 -0.5678 -0.9937  1.2418
  465MOL0     C64044   0.439  10.964   8.014 -0.0617 -0.1027  0.1708
  465MOL0     C64045   0.555  11.012   7.934 -0.5813 -1.2069 -0.6826
  465MOL0     C64046   0.684  10.924   7.947  0.6696 -0.1159  0.9264
  465MOL0     C64047   0.787  10.989   7.860  0.9750 -0.3104 -0.1046
  465MOL0     C64048   0.912  10.911   7.838  0.2637  0.6252  0.1552
  465MOL0     N64049   0.965  10.847   7.962 -0.9486  0.2335 -0.4075
  465MOL0     C64050   1.018  10.925   8.057 -0.4565 -0.2398 -0.9316
  465MOL0     C64051   1.073  10.840   8.153  0.1438  0.4888  0.8712
  465MOL0     C64052   1.109  10.889   8.295  0.0570 -0.2547  0.0186
  465MOL0     C64053   1.243  10.970   8.286 -0.3168  0.0457  0.7531
  465MOL0     C64054   1.295  11.034   8.416  0.6033 -0.5393 -0.5414
  465MOL0     C64055   1.403  10.935   8.476 -0.6042 -0.7234 -0.4272
  465MOL0     O64056   1.528  10.939   8.405  0.8109  0.0117  0.0583
  465MOL0     C64057   1.654  10.927   8.468 -0.3888 -0.5412 -0.0253
  465MOL0     C64058   1.761  10.920   8.382 -0.1670  0.7961 -0.9090
  465MOL0     C64059   1.893  10.895   8.432  0.1112 -0.2322 -0.9751
  465MOL0     C64060   2.010  10.865   8.339 -0.7014  0.5236 -0.9012
  465MOL0     C64061   1.913  10.882   8.573 -0.6967 -0.0629  0.3599
  465MOL0     C64062   2.041  10.860   8.641  0.2086 -0.0430 -0.0370
  465MOL0     O64063   2.055  10.905   8.778 -0.5744  1.1908 -0.1332
  465MOL0     C64064   2.158  10.856   8.856  1.0675 -0.3455  0.2135
  465MOL0     C64065   2.216  10.726   8.852  0.7993  0.5198 -0.3374
  465MOL0     C64066   2.325  10.699   8.931  0.7061  0.3325  0.4216
  465MOL0     C64067   2.376  10.794   9.025 -0.2512 -0.6447 -0.9706
  465MOL0     O64068   2.486  10.776   9.104  0.6441  0.1863  0.8935
  465MOL0     C64069   2.545  10.641   9.115 -1.0349 -0.7626  0.1416
  465MOL0     C64070   2.663  10.658   9.220  0.5143  0.1343  0.1156
  465MOL0     C64071   2.765  10.542   9.229 -0.7584  0.2842 -0.2669
  465MOL0     C64072   2.862  10.564   9.348 -0.4074  1.0123 -0.5907
  465MOL0     C64073   2.941  10.432   9.373 -0.6845  0.1542  0.1196
  465MOL0     C64074   3.053  10.447   9.479  0.2662  0.8197  0.4076
  465MOL0     C64075   3.134  10.318   9.490 -0.4610 -0.4114  0.1263
  465MOL0     C64076   3.263  10.344   9.570 -0.4931 -0.2083 -0.6474
  465MOL0    Cl64077   3.353  10.193   9.567 -0.5385  0.4081 -0.5153
  465MOL0     C64078   2.315  10.922   9.028 -0.5792 -0.0412  0.0260
  465MOL0     C64079   2.214  10.951   8.943  0.3463 -0.0490  1.4993
  465MOL0     O64080   2.131  10.799   8.581  0.1355  0.0997 -0.2890
  465MOL0     C64081   1.809  10.907   8.663  0.4376 -0.4771  0.5266
  465MOL0     C64082   1.678  10.918   8.610 -0.8151  0.4087 -0.8257
  465MOL0     N64083   1.077  10.714   8.097  0.0418 -0.0482  0.0318
  465MOL0     N64084   1.002  10.712   7.977 -0.5695 -0.0755 -0.5517
  465MOL0     C64085   0.317  10.819   8.658  0.1121 -1.0975  0.1438
  465MOL0     C64086   0.325  10.781   8.798 -0.2976 -0.5409  0.9622
  465MOL0     C64087   0.484  10.868   9.245  0.1741 -1.0718 -0.4755
  465MOL0     C64088   0.412  10.759   9.293  0.1629  0.0228 -0.3982
  465MOL0     C64089   0.453  10.706   9.420 -0.1630 -0.3242  0.2479
  465MOL0     C64090   0.553  10.762   9.502 -0.4509 -0.2499 -0.8043
  465MOL0     O64091   0.582  10.705   9.626 -0.4057 -0.3401  0.3226
  465MOL0     C64092   0.698  10.750   9.692  0.4479 -0.8002  0.1306
  465MOL0     C64093   0.671  10.866   9.779  0.4388  0.1966 -0.7391
  465MOL0     C64094   0.791  10.921   9.860 -0.6593 -0.1020  0.6365
  465MOL0     C64095   0.913  10.964   9.778  0.5159  0.8567  0.8736
  465MOL0     C64096   0.892  11.074   9.680 -0.6961  1.0869 -0.6079
  465MOL0     C64097   0.885  11.169   9.604  0.0877 -1.5434 -0.7563
  465MOL0     C64098   0.609  10.875   9.446  0.2679  0.8740 -0.3950
  465MOL0     C64099   0.587  10.927   9.317  0.0538 -0.4435 -1.1342
  465MOL0     C64100   0.658  11.065   9.276  0.3920  0.9347  0.1646
  465MOL0     H64101   0.548  11.038   8.877 -1.8908  3.1404 -0.9941
  465MOL0     H64102   0.543  11.054   8.621  0.4575 -1.8940 -0.9637
  465MOL0     H64103   0.316  10.776   8.403  1.1385 -0.6954  0.0424
  465MOL0     H64104   0.477  10.799   8.349 -1.3650 -0.7506 -0.8949
  465MOL0     H64105   0.300  10.838   8.183 -0.9184 -1.3911  2.1694
  465MOL0     H64106   0.249  10.982   8.256 -1.7657 -1.5636 -0.8536
  465MOL0     H64107   0.443  11.103   8.179  2.0639 -0.9536  2.3417
  465MOL0     H64108   0.548  10.963   8.194 -0.1830 -2.4515 -1.7208
  465MOL0     H64109   0.434  10.857   7.995  1.3096  0.3693 -3.7490
  465MOL0     H64110   0.346  11.011   7.981  0.3550  4.2103  4.1175
  465MOL0     H64111   0.577  11.110   7.978 -4.2507 -0.5923  0.1566
  465MOL0     H64112   0.525  11.022   7.830  0.7955  1.5443 -0.8957
  465MOL0     H64113   0.706  10.912   8.053  2.7177 -0.1827  0.5442
  465MOL0     H64114   0.648  10.829   7.906 -2.4064  2.7777 -4.0759
  465MOL0     H64115   0.802  11.092   7.894  1.1299 -0.0274 -1.0023
  465MOL0     H64116   0.732  11.002   7.766  1.4167  0.9176 -0.2189
  465MOL0     H64117   0.898  10.831   7.765  2.6520 -0.1357  0.4493
  465MOL0     H64118   0.991  10.978   7.804  0.5469  0.0470 -0.3440
  465MOL0     H64119   1.007  11.031   8.076  2.0025 -0.1610  0.3459
  465MOL0     H64120   1.119  10.807   8.367  2.0539 -2.1819 -2.2724
  465MOL0     H64121   1.021  10.938   8.337  0.9503  0.8031  0.7210
  465MOL0     H64122   1.314  10.901   8.239  0.1039 -0.4574  2.0728
  465MOL0     H64123   1.223  11.049   8.213 -0.9653 -1.3892 -0.6802
  465MOL0     H64124   1.336  11.134   8.398 -0.2950  0.1664  1.1013
  465MOL0     H64125   1.217  11.043   8.491 -1.2584 -0.2142 -2.4268
  465MOL0     H64126   1.434  10.981   8.570  1.1150  0.6105 -1.5631
  465MOL0     H64127   1.383  10.829   8.494  2.4504 -0.9950  2.1656
  465MOL0     H64128   1.741  10.915   8.275 -1.6924 -0.5838 -0.6023
  465MOL0     H64129   2.041  10.762   8.357 -0.0624  0.5856 -1.5830
  465MOL0     H64130   2.103  10.917   8.365  0.2162  0.0690 -3.1002
  465MOL0     H64131   1.984  10.888   8.235 -1.7486 -1.0312 -1.0165
  465MOL0     H64132   2.173  10.653   8.785 -0.1879  1.4722 -0.7723
  465MOL0     H64133   2.380  10.605   8.934  1.1251  0.5587 -0.0005
  465MOL0     H64134   2.478  10.558   9.140  0.4572 -2.1159 -0.1388
  465MOL0     H64135   2.592  10.619   9.019 -0.5142  1.3327 -0.1203
  465MOL0     H64136   2.715  10.752   9.202  0.1500  0.2671 -0.2358
  465MOL0     H64137   2.623  10.667   9.322  2.3286  1.8877  0.7517
  465MOL0     H64138   2.820  10.543   9.134 -0.7437  0.6600 -0.2535
  465MOL0     H64139   2.709  10.448   9.232 -1.0307  0.4682  2.2955
  465MOL0     H64140   2.800  10.586   9.436  0.6934  1.6931  0.0402
  465MOL0     H64141   2.925  10.652   9.332 -0.8163  0.9383 -2.8732
  465MOL0     H64142   2.868  10.361   9.412  0.9017 -1.8141 -0.3425
  465MOL0     H64143   2.983  10.402   9.276 -1.7096  2.3849 -1.0942
  465MOL0     H64144   2.992  10.466   9.569 -2.2287 -0.4144 -0.9142
  465MOL0     H64145   3.119  10.528   9.448 -0.6107  1.7241  0.8213
  465MOL0     H64146   3.155  10.282   9.389  1.1876  1.2297 -0.1660
  465MOL0     H64147   3.076  10.232   9.524  2.2560 -1.3439  2.7900
  465MOL0     H64148   3.256  10.371   9.676  1.9526  1.6864 -0.8852
  465MOL0     H64149   3.316  10.430   9.527 -0.2743 -0.6519 -1.2686
  465MOL0     H64150   2.349  11.005   9.088  0.7355 -0.1082 -0.6061
  465MOL0     H64151   2.175  11.052   8.939 -0.7398 -0.4725  0.6242
  465MOL0     H64152   1.837  10.912   8.768  1.8690 -0.6637  0.1808
  465MOL0     H64153   1.604  10.916   8.689  0.6168  1.0640  0.6118
  465MOL0     H64154   0.250  10.764   8.591 -0.1017  2.2299 -2.6637
  465MOL0     H64155   0.268  10.690   8.811 -1.3549 -0.7565 -3.5043
  465MOL0     H64156   0.332  10.724   9.229 -0.2511  0.2891 -0.0266
  465MOL0     H64157   0.406  10.616   9.459  2.0386 -1.4763  0.4041
  465MOL0     H64158   0.742  10.665   9.746  0.4402 -0.5360  0.5571
  465MOL0     H64159   0.772  10.771   9.614  0.6780  0.6639  0.7072
  465MOL0     H64160   0.602  10.832   9.857  1.1173 -0.1929 -0.2954
  465MOL0     H64161   0.617  10.945   9.726 -0.3826  0.4417  0.4102
  465MOL0     H64162   0.739  11.008   9.902  0.8582  1.8154 -1.2180
  465MOL0     H64163   0.823  10.849   9.935  1.4552  0.0970 -0.0319
  465MOL0     H64164   0.947  10.875   9.725 -5.2747 -0.6857 -1.0365
  465MOL0     H64165   0.988  11.002   9.848  0.4167  1.2351  0.7781
  465MOL0     H64166   0.884  11.254   9.539  0.0694 -0.3772  0.7385
  465MOL0     H64167   0.692  10.923   9.499  1.8255 -2.3561  0.3418
  465MOL0     H64168   0.746  11.087   9.337  1.8183 -0.0683 -1.4249
  465MOL0     H64169   0.687  11.047   9.172  2.9880 -0.1281  0.9804
  465MOL0     H64170   0.590  11.150   9.281 -1.0582 -0.2426  2.5646
  466MOL0     O64171   7.155  10.971   9.684  0.6478  0.2778 -0.4104
  466MOL0     C64172   7.121  10.905   9.584 -0.1666  0.3016 -0.0174
  466MOL0     O64173   7.005  10.912   9.507  0.5583 -0.2474 -0.3573
  466MOL0     C64174   6.899  10.981   9.561 -0.1051 -0.4637 -0.2460
  466MOL0     C64175   6.788  10.918   9.607  0.3985  0.5725 -0.0119
  466MOL0     C64176   6.674  10.990   9.638  0.7618 -0.5147 -0.9419
  466MOL0     C64177   6.676  11.134   9.641  0.1180  0.1804  1.4551
  466MOL0     O64178   6.581  11.225   9.684  0.9194  0.1292 -0.2549
  466MOL0     C64179   6.480  11.185   9.775  0.7755 -0.2540 -0.7664
  466MOL0     C64180   6.357  11.275   9.768 -0.3698 -0.7970 -0.4950
  466MOL0     C64181   6.224  11.204   9.822 -0.1472 -0.3503  0.2607
  466MOL0     C64182   6.218  11.202   9.972  0.0156  0.2931  0.0015
  466MOL0     C64183   6.093  11.143  10.028  0.6123  0.1768  0.0078
  466MOL0     C64184   6.109  10.989  10.023 -0.1014  0.9034 -0.1965
  466MOL0     C64185   5.986  10.924  10.100  0.7592 -0.0191  1.1021
  466MOL0     C64186   6.000  10.950  10.248 -0.2335 -0.4805 -0.1673
  466MOL0     N64187   5.915  10.859  10.326 -0.1916 -0.1066  0.7768
  466MOL0     C64188   5.836  10.906  10.430  0.6492 -0.3429  0.0507
  466MOL0     C64189   5.832  10.799  10.513  0.2743 -0.1787  0.2299
  466MOL0     C64190   5.760  10.799  10.647 -0.3855  0.1732 -0.5773
  466MOL0     C64191   5.846  10.889  10.750  0.1967  0.1987 -0.0624
  466MOL0     C64192   5.764  10.941  10.875 -0.1829  0.0161 -0.2258
  466MOL0     C64193   5.775  10.834  10.994  0.5906  0.2928  0.6225
  466MOL0     O64194   5.681  10.888  11.095 -0.0220 -0.1207 -0.2660
  466MOL0     C64195   5.553  10.855  11.096  0.4485 -0.3450  0.5367
  466MOL0     C64196   5.494  10.758  11.020  0.3081  0.3012  0.0386
  466MOL0     C64197   5.355  10.732  11.033 -0.2373 -0.5090  0.2728
  466MOL0     C64198   5.297  10.616  10.947  0.0809 -0.0093 -0.0242
  466MOL0     C64199   5.279  10.811  11.125  0.9151 -0.1818 -0.2721
  466MOL0     C64200   5.134  10.799  11.139  0.5771 -0.0570  0.7621
  466MOL0     O64201   5.091  10.842  11.259 -0.2462  0.0176 -0.2635
  466MOL0     C64202   4.957  10.842  11.286  0.8694 -0.7418 -0.7150
  466MOL0     C64203   4.892  10.728  11.314 -0.7059 -0.1392 -0.2596
  466MOL0     C64204   4.754  10.723  11.321 -0.2361  0.0038  0.1338
  466MOL0     C64205   4.678  10.836  11.313 -0.4849  0.9240  0.4693
  466MOL0     O64206   4.541  10.818  11.315  0.4309  0.7880 -0.9515
  466MOL0     C64207   4.458  10.931  11.343 -0.8054 -0.3802  0.5877
  466MOL0     C64208   4.314  10.908  11.366  0.7372  0.4291 -0.4141
  466MOL0     C64209   4.221  11.031  11.402 -0.8609  0.6231  0.5366
  466MOL0     C64210   4.083  10.985  11.409  0.9774  0.1697 -0.4443
  466MOL0     C64211   3.980  11.096  11.409  0.0783 -0.4950  0.9353
  466MOL0     C64212   3.849  11.066  11.465 -0.1262  0.2518 -0.2977
  466MOL0     C64213   3.749  10.985  11.388  1.4745  0.6759 -0.4863
  466MOL0     C64214   3.603  10.993  11.440  0.1101  0.7347 -0.4276
  466MOL0    Cl64215   3.600  10.982  11.611 -0.1041 -0.5320  0.2105
  466MOL0     C64216   4.737  10.963  11.297 -0.3037 -0.4929  0.2553
  466MOL0     C64217   4.881  10.968  11.283  0.1805 -0.0519  0.0743
  466MOL0     O64218   5.059  10.741  11.052  0.3121 -0.3840 -0.5893
  466MOL0     C64219   5.343  10.900  11.216  0.1143 -0.3369  0.0193
  466MOL0     C64220   5.480  10.923  11.194 -0.3901  0.0148 -0.1521
  466MOL0     N64221   5.902  10.693  10.462 -0.7789  0.5334 -0.2185
  466MOL0     N64222   5.952  10.727  10.342 -0.1701 -0.4325 -0.3613
  466MOL0     C64223   6.786  11.187   9.587 -0.3629 -0.1274  1.0770
  466MOL0     C64224   6.899  11.117   9.555 -0.7576  0.0923 -0.2130
  466MOL0     C64225   7.210  10.806   9.531 -0.4028  0.9386 -0.4382
  466MOL0     C64226   7.169  10.706   9.446 -0.2109 -0.1465 -0.0302
  466MOL0     C64227   7.252  10.605   9.375  0.3291 -0.0791 -0.2182
  466MOL0     C64228   7.384  10.615   9.406  0.4197  0.4127 -0.0956
  466MOL0     O64229   7.465  10.524   9.331  0.8311 -0.4812 -0.6856
  466MOL0     C64230   7.598  10.554   9.316 -1.1584 -0.1478  0.6475
  466MOL0     C64231   7.643  10.518   9.165  0.3508 -0.3770  0.5632
  466MOL0     C64232   7.558  10.593   9.070 -0.9883  0.6683  0.4364
  466MOL0     C64233   7.606  10.570   8.926 -0.0007 -0.1540 -0.7293
  466MOL0     C64234   7.502  10.640   8.849  0.6040  0.4559 -1.1892
  466MOL0     C64235   7.432  10.730   8.801  0.4146 -0.3135 -0.9314
  466MOL0     C64236   7.434  10.701   9.510  0.0170  0.4653  0.5316
  466MOL0     C64237   7.351  10.802   9.561 -0.7139  0.0536 -0.1082
  466MOL0     C64238   7.431  10.899   9.646  0.5459  0.5061 -0.1163
  466MOL0     H64239   6.787  10.810   9.618  2.0384  0.3852 -1.2753
  466MOL0     H64240   6.599  10.923   9.678  0.7621  0.0907  0.1146
  466MOL0     H64241   6.516  11.175   9.878 -3.7066 -0.0913  1.0444
  466MOL0     H64242   6.445  11.085   9.749 -0.6561  0.4102 -1.4530
  466MOL0     H64243   6.361  11.372   9.819 -2.5084 -0.7138 -0.3745
  466MOL0     H64244   6.351  11.291   9.660  2.3847 -1.7307 -0.8546
  466MOL0     H64245   6.135  11.247   9.774 -0.6088 -1.7489 -0.1907
  466MOL0     H64246   6.230  11.101   9.787 -1.7448  0.0183 -1.2220
  466MOL0     H64247   6.303  11.144  10.009 -2.2912 -1.6576  2.6873
  466MOL0     H64248   6.224  11.307  10.001 -2.3574  0.1767  1.1168
  466MOL0     H64249   5.995  11.173   9.990  0.9069 -0.3453 -1.1847
  466MOL0     H64250   6.095  11.185  10.129 -1.1282  3.5581 -1.1805
  466MOL0     H64251   6.109  10.951   9.921 -2.0007 -3.1035  1.0897
  466MOL0     H64252   6.202  10.945  10.061  0.1482 -0.7326 -2.4922
  466MOL0     H64253   5.996  10.819  10.071  0.6908  0.1769  0.3615
  466MOL0     H64254   5.900  10.975  10.056  0.4783 -0.3365  1.2793
  466MOL0     H64255   6.106  10.936  10.272 -0.2951  0.2510  0.6021
  466MOL0     H64256   5.981  11.057  10.259 -0.1971 -0.5424  0.5824
  466MOL0     H64257   5.795  11.006  10.443  0.4444 -0.2643 -1.0712
  466MOL0     H64258   5.762  10.696  10.684  1.8976  1.3096  2.9727
  466MOL0     H64259   5.654  10.823  10.643 -0.5559 -0.1278  1.4453
  466MOL0     H64260   5.940  10.842  10.778  1.9566  1.6832 -2.9935
  466MOL0     H64261   5.874  10.981  10.698 -3.5998  0.5947 -1.7182
  466MOL0     H64262   5.807  11.031  10.920  0.8414 -1.1268  1.1880
  466MOL0     H64263   5.661  10.959  10.843 -0.9892 -1.9481  1.0637
  466MOL0     H64264   5.734  10.736  10.968 -2.3908  0.8741  2.6032
  466MOL0     H64265   5.878  10.831  11.029  0.5551 -0.8437  0.6876
  466MOL0     H64266   5.549  10.707  10.942 -0.1159 -1.2059  0.6872
  466MOL0     H64267   5.241  10.535  10.995 -0.0843  0.2367  0.2053
  466MOL0     H64268   5.375  10.570  10.886 -2.3358 -1.9559 -1.8370
  466MOL0     H64269   5.219  10.653  10.880 -0.4278 -0.8627  0.0873
  466MOL0     H64270   4.949  10.638  11.336  0.0058  0.8986  2.5787
  466MOL0     H64271   4.706  10.626  11.320  1.8818 -1.1526 -2.2977
  466MOL0     H64272   4.495  10.987  11.430 -1.3882 -0.8096  1.1218
  466MOL0     H64273   4.453  11.001  11.259 -2.2510  0.2761  1.1860
  466MOL0     H64274   4.275  10.858  11.278 -2.4183  1.4290  0.2793
  466MOL0     H64275   4.314  10.838  11.450  3.5232  1.3608  0.4972
  466MOL0     H64276   4.243  11.115  11.335  2.9189 -0.8842 -0.3744
  466MOL0     H64277   4.249  11.066  11.502  0.1002 -2.3863  1.4176
  466MOL0     H64278   4.064  10.930  11.501 -0.7548 -0.3401 -1.0659
  466MOL0     H64279   4.065  10.915  11.327 -2.4835  0.7763 -0.3506
  466MOL0     H64280   4.027  11.178  11.465 -0.1235 -0.1542  0.6110
  466MOL0     H64281   3.970  11.132  11.306  0.2786 -0.0579  1.0642
  466MOL0     H64282   3.815  11.166  11.492 -0.3495  0.3306 -0.8509
  466MOL0     H64283   3.875  11.020  11.561  0.0514  0.1154 -0.4101
  466MOL0     H64284   3.788  10.886  11.411  2.3321  1.6138  2.6066
  466MOL0     H64285   3.747  11.011  11.281 -0.4369 -1.4204 -1.0118
  466MOL0     H64286   3.544  10.909  11.401 -1.0909 -0.5821  3.6465
  466MOL0     H64287   3.552  11.085  11.411 -2.3624  0.7905  3.3442
  466MOL0     H64288   4.674  11.050  11.284 -1.7161 -1.2210  1.8457
  466MOL0     H64289   4.929  11.064  11.263 -2.7582  1.3572 -0.7319
  466MOL0     H64290   5.296  10.969  11.285 -0.0289  2.4183 -2.6596
  466MOL0     H64291   5.525  10.989  11.268  0.2621 -2.3066  1.6073
  466MOL0     H64292   6.797  11.295   9.592  1.9735 -0.2979  0.6562
  466MOL0     H64293   6.990  11.168   9.525  0.2334 -0.8131  1.1394
  466MOL0     H64294   7.062  10.689   9.434 -0.4062  0.5618  0.6902
  466MOL0     H64295   7.214  10.529   9.308 -1.1213 -2.0304  2.5872
  466MOL0     H64296   7.611  10.660   9.336 -1.9381 -0.0423  0.6268
  466MOL0     H64297   7.661  10.502   9.388 -1.4000 -1.2078  0.1160
  466MOL0     H64298   7.640  10.410   9.151  0.3153  0.0069 -4.1522
  466MOL0     H64299   7.745  10.556   9.151  0.2814 -0.6743 -0.8238
  466MOL0     H64300   7.455  10.559   9.083 -1.0597  0.5613 -0.3393
  466MOL0     H64301   7.558  10.701   9.088 -0.7657  0.3935  2.2067
  466MOL0     H64302   7.610  10.462   8.911 -1.7849 -0.3093 -0.3778
  466MOL0     H64303   7.706  10.609   8.909  0.6591 -1.7303 -0.6054
  466MOL0     H64304   7.358  10.792   8.754 -1.3979 -0.2247  1.8061
  466MOL0     H64305   7.540  10.699   9.533  0.0597  1.8265  0.5434
  466MOL0     H64306   7.536  10.878   9.624  0.5916  1.5036 -0.9177
  466MOL0     H64307   7.413  11.004   9.623 -0.1038 -0.0224 -2.1864
  466MOL0     H64308   7.423  10.883   9.754  3.5606  2.7632  0.5740
  467MOL0     O64309  10.442  10.792   6.785  0.0268  0.0541 -0.3384
  467MOL0     C64310  10.406  10.908   6.793  0.1771 -0.6487 -0.0318
  467MOL0     O64311  10.320  10.966   6.704 -0.3072  0.0272  0.0682
  467MOL0     C64312  10.253  10.879   6.616 -0.3714 -0.8767 -1.0099
  467MOL0     C64313  10.124  10.839   6.646 -0.0606 -0.4257 -0.1463
  467MOL0     C64314  10.058  10.779   6.544  0.5778  0.1754 -0.0459
  467MOL0     C64315  10.124  10.717   6.436  0.2512  0.0224  0.4557
  467MOL0     O64316  10.073  10.626   6.350  0.3416 -0.2409  0.7880
  467MOL0     C64317   9.954  10.570   6.392  0.8039  0.8611  0.2731
  467MOL0     C64318   9.900  10.478   6.287  0.7132 -0.3232  0.4130
  467MOL0     C64319   9.773  10.394   6.315 -0.3475 -0.2396  0.7380
  467MOL0     C64320   9.776  10.260   6.227  0.9172 -0.1539  0.6772
  467MOL0     C64321   9.698  10.124   6.274 -1.1642 -0.2255  0.3232
  467MOL0     C64322   9.789  10.029   6.351 -0.1695  0.0299 -0.0537
  467MOL0     C64323   9.750   9.884   6.353  0.0618 -0.5391 -0.1504
  467MOL0     C64324   9.813   9.811   6.476 -0.4690  0.0317  0.0573
  467MOL0     N64325   9.775   9.667   6.486 -0.8058 -0.9824 -0.1444
  467MOL0     C64326   9.773   9.586   6.383  0.9935  0.3198  0.2371
  467MOL0     C64327   9.747   9.473   6.448 -1.1556  0.1273  0.1050
  467MOL0     C64328   9.759   9.342   6.377 -0.1495  0.2074 -0.0327
  467MOL0     C64329   9.744   9.227   6.479 -0.1493  0.1520 -0.3373
  467MOL0     C64330   9.772   9.087   6.415  0.0332 -0.2242 -0.2217
  467MOL0     C64331   9.662   9.035   6.317 -0.5357 -0.7177  0.0901
  467MOL0     O64332   9.695   8.904   6.273  0.1513 -0.2169  0.5164
  467MOL0     C64333   9.653   8.803   6.351  1.3052 -0.0157  1.1577
  467MOL0     C64334   9.655   8.678   6.305 -0.8435  0.0454  0.1360
  467MOL0     C64335   9.612   8.567   6.374 -0.1285  0.2432  0.2920
  467MOL0     C64336   9.651   8.437   6.310 -0.3216  0.1515  0.2211
  467MOL0     C64337   9.533   8.588   6.498  0.4048  0.7008 -0.8982
  467MOL0     C64338   9.460   8.478   6.553  0.0801 -0.0326 -0.6286
  467MOL0     O64339   9.462   8.360   6.497  0.1822  0.2421  0.0920
  467MOL0     C64340   9.410   8.255   6.563 -0.8446 -0.2479  0.6569
  467MOL0     C64341   9.310   8.181   6.502  0.7754 -0.3063  0.1730
  467MOL0     C64342   9.257   8.070   6.566 -0.0245  0.0787 -0.2061
  467MOL0     C64343   9.316   8.022   6.693 -0.1135  1.2613 -0.0879
  467MOL0     O64344   9.268   7.915   6.762  0.3321  0.0604 -0.1660
  467MOL0     C64345   9.170   7.822   6.708 -0.1022 -0.4945 -0.1711
  467MOL0     C64346   9.151   7.703   6.808 -1.2259 -0.2921  0.1397
  467MOL0     C64347   9.053   7.598   6.767  0.0271  0.0317  0.0960
  467MOL0     C64348   9.067   7.458   6.829 -0.5224  0.5631 -0.2767
  467MOL0     C64349   9.013   7.333   6.752 -0.3656 -0.1540 -0.3597
  467MOL0     C64350   8.857   7.335   6.747 -0.7404  0.4011 -0.0452
  467MOL0     C64351   8.796   7.196   6.725 -0.1117 -0.5010  0.5207
  467MOL0     C64352   8.643   7.209   6.706  0.1894  0.6837  0.6959
  467MOL0    Cl64353   8.585   7.285   6.851 -0.4455  0.1293 -0.0278
  467MOL0     C64354   9.421   8.100   6.748  0.0599 -0.5713 -0.0238
  467MOL0     C64355   9.461   8.217   6.681  0.6250  0.5370 -0.5492
  467MOL0     O64356   9.391   8.506   6.654 -0.1040  0.3035 -0.6046
  467MOL0     C64357   9.539   8.713   6.555  0.3447 -0.9692 -0.4305
  467MOL0     C64358   9.593   8.821   6.478  1.0570 -0.3332  0.1879
  467MOL0     N64359   9.736   9.487   6.587 -0.0636 -0.0766  0.5811
  467MOL0     N64360   9.772   9.608   6.609  0.3207  0.1920  0.5125
  467MOL0     C64361  10.252  10.765   6.400 -0.4108  0.2485  0.4131
  467MOL0     C64362  10.313  10.856   6.490  0.4970  1.1094  0.1015
  467MOL0     C64363  10.454  10.985   6.914 -0.4980  0.2235 -0.9517
  467MOL0     C64364  10.382  11.106   6.929 -0.2162 -0.0554 -0.3023
  467MOL0     C64365  10.415  11.188   7.036  0.4299 -0.3006  0.1892
  467MOL0     C64366  10.526  11.168   7.114 -0.1634  0.3548 -0.6348
  467MOL0     O64367  10.554  11.255   7.210 -0.1835  0.2609 -0.0504
  467MOL0     C64368  10.674  11.252   7.286  0.8969  0.6165  0.5716
  467MOL0     C64369  10.634  11.160   7.409 -0.1692  0.5259 -0.1237
  467MOL0     C64370  10.730  11.143   7.526  0.3744  0.4975 -0.0673
  467MOL0     C64371  10.858  11.061   7.496 -0.5567  0.9902  0.2303
  467MOL0     C64372  10.835  10.920   7.524 -0.4649  0.9043  0.1608
  467MOL0     C64373  10.827  10.796   7.532  0.2581 -0.7450 -0.7365
  467MOL0     C64374  10.602  11.051   7.092  0.2287  0.0297  0.2038
  467MOL0     C64375  10.569  10.963   6.997 -0.6489  0.3519 -0.7904
  467MOL0     C64376  10.653  10.838   6.972 -0.6793  0.2473 -0.4804
  467MOL0     H64377  10.078  10.867   6.740 -0.2363 -0.0498 -0.3433
  467MOL0     H64378   9.951  10.771   6.558  0.6341  0.9702  0.9530
  467MOL0     H64379   9.870  10.637   6.414 -0.8236 -1.0179  0.1686
  467MOL0     H64380   9.970  10.521   6.489 -1.9420 -1.4553 -0.2752
  467MOL0     H64381   9.879  10.535   6.196 -1.0322 -2.6634 -0.7462
  467MOL0     H64382   9.978  10.404   6.270 -0.2600 -0.9798 -1.5244
  467MOL0     H64383   9.771  10.359   6.418  0.9543 -2.5262  0.0614
  467MOL0     H64384   9.688  10.462   6.302 -0.8427 -0.4132  2.7831
  467MOL0     H64385   9.740  10.298   6.131  1.4237  1.3402  1.0606
  467MOL0     H64386   9.877  10.221   6.213  1.5819  0.9471  2.1709
  467MOL0     H64387   9.663  10.064   6.190 -2.6805 -1.7957  1.9838
  467MOL0     H64388   9.620  10.155   6.344  0.6011  0.4999  2.0707
  467MOL0     H64389   9.893  10.032   6.317  0.0677 -1.0654  0.5079
  467MOL0     H64390   9.811  10.066   6.451  0.5012 -0.2873 -0.0740
  467MOL0     H64391   9.773   9.833   6.259 -2.3937 -0.4014 -0.8787
  467MOL0     H64392   9.641   9.877   6.359 -0.2844 -0.2506 -3.8871
  467MOL0     H64393   9.920   9.808   6.453 -0.8501  1.9448 -2.3068
  467MOL0     H64394   9.783   9.876   6.558 -0.1001  3.2462 -2.1665
  467MOL0     H64395   9.787   9.610   6.278 -0.1134 -0.7591 -0.1697
  467MOL0     H64396   9.859   9.350   6.333 -0.5714  1.2368 -0.8234
  467MOL0     H64397   9.698   9.319   6.290 -0.8162 -0.7944  0.6704
  467MOL0     H64398   9.810   9.246   6.564 -2.9584  2.7445  1.4556
  467MOL0     H64399   9.646   9.225   6.527  0.3631  0.8716  0.7906
  467MOL0     H64400   9.868   9.098   6.365 -0.2536  3.1690 -0.2630
  467MOL0     H64401   9.793   9.022   6.500  0.6401 -0.0854 -0.2618
  467MOL0     H64402   9.559   9.051   6.351 -0.4208  3.3316 -0.9821
  467MOL0     H64403   9.657   9.106   6.234 -0.3816 -1.0893 -0.2394
  467MOL0     H64404   9.703   8.666   6.208  3.9150  5.1253  1.3748
  467MOL0     H64405   9.707   8.370   6.376  0.2417  0.1100 -0.2891
  467MOL0     H64406   9.727   8.454   6.233  3.3111 -3.9739  2.4845
  467MOL0     H64407   9.567   8.393   6.256  0.1127  0.2945 -0.5877
  467MOL0     H64408   9.265   8.201   6.405 -2.3558 -1.3538  1.3040
  467MOL0     H64409   9.172   8.009   6.535  1.8060 -2.8145  0.0653
  467MOL0     H64410   9.081   7.878   6.678  0.4342 -0.3879 -1.6397
  467MOL0     H64411   9.202   7.772   6.616  0.2757 -2.9955  1.2380
  467MOL0     H64412   9.250   7.657   6.814 -0.2918  1.5445 -0.3139
  467MOL0     H64413   9.121   7.733   6.909 -3.0433  1.5991 -0.9041
  467MOL0     H64414   9.066   7.581   6.659  2.3023 -0.1958  0.3420
  467MOL0     H64415   8.954   7.641   6.780 -0.4770 -1.5637  1.9759
  467MOL0     H64416   9.042   7.462   6.935 -0.5112  1.4731 -0.3048
  467MOL0     H64417   9.176   7.447   6.830 -0.3343  2.2210 -0.2248
  467MOL0     H64418   9.056   7.337   6.651 -1.9080  2.2993 -1.0127
  467MOL0     H64419   9.043   7.249   6.815  2.2085  2.0925  1.6583
  467MOL0     H64420   8.823   7.397   6.663 -1.4402 -0.4775 -0.4218
  467MOL0     H64421   8.811   7.374   6.839 -3.0669 -0.7481 -0.6490
  467MOL0     H64422   8.802   7.127   6.810  1.4320  0.8227  1.5249
  467MOL0     H64423   8.852   7.146   6.645 -2.8961 -1.5701 -0.8916
  467MOL0     H64424   8.605   7.109   6.685 -1.4494  1.3843  0.1805
  467MOL0     H64425   8.616   7.262   6.614  2.5696 -2.0125 -1.7740
  467MOL0     H64426   9.474   8.076   6.840  1.5871 -1.8215 -1.1805
  467MOL0     H64427   9.538   8.277   6.729  1.1716 -1.5529  1.3332
  467MOL0     H64428   9.494   8.728   6.653 -2.0888 -1.2426 -1.4396
  467MOL0     H64429   9.596   8.913   6.536  1.4019  1.5949 -2.7011
  467MOL0     H64430  10.312  10.716   6.324 -4.0439 -1.8195 -1.3675
  467MOL0     H64431  10.408  10.899   6.458 -1.0306  1.5502 -4.6181
  467MOL0     H64432  10.296  11.143   6.873 -1.1369  0.4831  1.3805
  467MOL0     H64433  10.347  11.273   7.036  0.9764  0.1623 -1.2064
  467MOL0     H64434  10.762  11.207   7.240  0.2509 -0.5901  0.4672
  467MOL0     H64435  10.701  11.355   7.311  1.0927  0.8858 -0.7169
  467MOL0     H64436  10.620  11.063   7.360  3.8154  0.6453 -1.8846
  467MOL0     H64437  10.539  11.197   7.448 -0.6654 -0.8697  0.0215
  467MOL0     H64438  10.762  11.243   7.556 -3.2788  1.6932  0.2731
  467MOL0     H64439  10.674  11.091   7.605  0.5710 -0.8372 -0.7714
  467MOL0     H64440  10.938  11.100   7.559 -1.9629  0.9273  2.1676
  467MOL0     H64441  10.899  11.073   7.396  4.5853  4.9776  2.3434
  467MOL0     H64442  10.822  10.689   7.533 -1.0463 -0.6935 -0.4833
  467MOL0     H64443  10.685  11.033   7.160 -1.3492 -1.5971  1.8004
  467MOL0     H64444  10.597  10.748   6.996  1.3369 -0.8670  0.3150
  467MOL0     H64445  10.688  10.830   6.868  0.9989  2.9184 -0.2260
  467MOL0     H64446  10.738  10.834   7.041 -0.5575  1.5394 -0.5366
  468MOL0     O64447   8.403   6.031   8.587  0.0627  0.2973  0.0987
  468MOL0     C64448   8.362   6.128   8.524  0.6878 -0.5424  0.3119
  468MOL0     O64449   8.443   6.211   8.453 -0.7588 -1.1045  0.0834
  468MOL0     C64450   8.575   6.182   8.410 -0.0888 -0.6471  0.1429
  468MOL0     C64451   8.676   6.130   8.501  0.1530  0.2447  0.6297
  468MOL0     C64452   8.807   6.121   8.456 -0.4971  1.0788 -0.5538
  468MOL0     C64453   8.850   6.165   8.324  1.0112  0.6929  0.4198
  468MOL0     O64454   8.978   6.174   8.282 -0.9847  0.3190 -0.5196
  468MOL0     C64455   9.090   6.150   8.369  0.5853  0.4888 -0.6041
  468MOL0     C64456   9.217   6.202   8.306  0.0954  0.0807  0.4584
  468MOL0     C64457   9.241   6.140   8.169  0.7350  0.0371  0.1364
  468MOL0     C64458   9.380   6.179   8.122  0.0874 -0.2899  0.7838
  468MOL0     C64459   9.447   6.085   8.028 -0.0649 -0.1922 -0.3301
  468MOL0     C64460   9.579   6.130   7.967 -1.8512  0.0396 -0.5686
  468MOL0     C64461   9.684   6.174   8.077  0.1347 -0.1524 -0.1663
  468MOL0     C64462   9.820   6.224   8.012  0.3068  0.3276 -0.8322
  468MOL0     N64463   9.911   6.265   8.123 -0.0493  0.1592 -0.6522
  468MOL0     C64464   9.913   6.382   8.191  0.9667  0.0533 -1.0567
  468MOL0     C64465  10.004   6.360   8.294  0.1293 -0.0047 -0.3800
  468MOL0     C64466  10.049   6.469   8.401  0.5592 -0.4895 -0.0794
  468MOL0     C64467  10.201   6.511   8.400  0.3228 -0.1209  0.2840
  468MOL0     C64468  10.284   6.392   8.351  0.4224  0.3434  0.3920
  468MOL0     C64469  10.431   6.427   8.372  0.2885  0.5399  0.9413
  468MOL0     O64470  10.473   6.479   8.497  0.1691 -0.2201 -0.0023
  468MOL0     C64471  10.606   6.501   8.497 -0.8000  0.3422  0.5674
  468MOL0     C64472  10.665   6.606   8.433  0.2494 -0.0178  0.1210
  468MOL0     C64473  10.799   6.628   8.437  0.0230 -1.1166  0.5889
  468MOL0     C64474  10.848   6.748   8.363 -1.4595  0.7432  0.1939
  468MOL0     C64475  10.883   6.535   8.505  1.4273  0.4110  0.0215
  468MOL0     C64476  11.035   6.545   8.504 -0.4685 -0.1605  0.2909
  468MOL0     O64477  11.088   6.665   8.459 -0.2654  0.3582  0.6439
  468MOL0     C64478  11.222   6.689   8.478 -0.7287  0.9519 -0.6078
  468MOL0     C64479  11.303   6.636   8.377  0.1449 -0.7427  0.7156
  468MOL0     C64480  11.442   6.661   8.392  0.0423 -0.3536  0.8368
  468MOL0     C64481  11.487   6.750   8.488  0.3419  0.6871 -0.1176
  468MOL0     O64482  11.614   6.781   8.508  0.1967 -0.1048  0.4700
  468MOL0     C64483  11.706   6.672   8.505 -0.5382 -0.4167  0.0785
  468MOL0     C64484  11.824   6.723   8.575  0.0964  0.2988 -0.1551
  468MOL0     C64485  11.812   6.761   8.724 -0.7957 -0.2635  0.0317
  468MOL0     C64486  11.954   6.798   8.779  1.4635  0.3677  0.4419
  468MOL0     C64487  11.940   6.884   8.909  0.7683 -0.0004  0.0643
  468MOL0     C64488  12.077   6.898   8.983  0.4314 -0.0392  0.6677
  468MOL0     C64489  12.080   6.992   9.112 -0.7147 -0.4390  0.5198
  468MOL0     C64490  12.220   7.009   9.151 -0.0194  0.3897 -0.0567
  468MOL0    Cl64491  12.261   7.099   9.297  0.1062 -0.1167 -0.1885
  468MOL0     C64492  11.403   6.809   8.579 -0.4841 -0.6445  1.0567
  468MOL0     C64493  11.271   6.775   8.573  0.4575 -0.4609  0.2096
  468MOL0     O64494  11.099   6.443   8.542  0.4335 -0.7551  0.2849
  468MOL0     C64495  10.822   6.423   8.563 -0.7197  0.1740 -0.2500
  468MOL0     C64496  10.689   6.404   8.554 -0.5280  0.0048 -0.8934
  468MOL0     N64497  10.045   6.225   8.283  0.5071 -0.3532 -0.2325
  468MOL0     N64498   9.985   6.167   8.182 -0.8834 -0.2584 -0.4391
  468MOL0     C64499   8.748   6.205   8.236  0.8266  0.2833  0.0456
  468MOL0     C64500   8.615   6.220   8.276  0.8449  0.9401  0.4919
  468MOL0     C64501   8.213   6.158   8.510  0.6124  0.3386  1.0407
  468MOL0     C64502   8.167   6.252   8.412  0.6948 -1.6686 -0.4529
  468MOL0     C64503   8.038   6.313   8.416 -0.8292  0.1409 -0.6086
  468MOL0     C64504   7.946   6.270   8.511 -0.2023  0.0176  1.3333
  468MOL0     O64505   7.831   6.341   8.512  0.6024  0.0279  0.0771
  468MOL0     C64506   7.728   6.291   8.590 -0.3714  0.3762 -0.7088
  468MOL0     C64507   7.587   6.349   8.542  0.0362 -0.5572 -0.0087
  468MOL0     C64508   7.573   6.496   8.565  0.0958 -0.1587 -0.0947
  468MOL0     C64509   7.429   6.541   8.549  0.0091 -0.0385 -0.1164
  468MOL0     C64510   7.374   6.541   8.415 -0.3268  0.1003 -0.1662
  468MOL0     C64511   7.314   6.536   8.310  0.4261 -0.5912  0.4175
  468MOL0     C64512   7.977   6.154   8.591 -0.7976 -0.1123 -0.4439
  468MOL0     C64513   8.114   6.106   8.602 -0.5392  0.7254  0.3695
  468MOL0     C64514   8.141   6.002   8.707  0.9397 -0.4786  0.8604
  468MOL0     H64515   8.641   6.097   8.598 -1.1613  1.4180  0.5801
  468MOL0     H64516   8.875   6.085   8.532 -0.4385  0.1037 -1.0653
  468MOL0     H64517   9.084   6.042   8.386 -2.1869  0.6417 -0.2862
  468MOL0     H64518   9.075   6.208   8.460  2.1390 -1.8609  1.2755
  468MOL0     H64519   9.224   6.310   8.297  3.2067 -0.0722 -0.2905
  468MOL0     H64520   9.304   6.168   8.365  1.2918 -2.3276 -2.4389
  468MOL0     H64521   9.242   6.032   8.187 -0.3673  0.1960  1.3210
  468MOL0     H64522   9.165   6.174   8.099  1.0611  2.1045  0.7150
  468MOL0     H64523   9.382   6.281   8.082  0.4518  0.0617  1.6727
  468MOL0     H64524   9.441   6.184   8.212 -0.1138 -1.0264  0.9628
  468MOL0     H64525   9.366   6.075   7.955 -1.1019  1.5834  0.5156
  468MOL0     H64526   9.476   5.991   8.077  0.9193 -1.3284 -2.9200
  468MOL0     H64527   9.623   6.046   7.913  2.9248  2.4957 -0.9812
  468MOL0     H64528   9.558   6.209   7.894 -0.0063  1.4199  0.3283
  468MOL0     H64529   9.703   6.085   8.137 -1.5039 -0.8048 -0.5491
  468MOL0     H64530   9.646   6.253   8.143  1.2887 -1.0512  1.6405
  468MOL0     H64531   9.867   6.142   7.956  0.0803  0.8393 -1.7831
  468MOL0     H64532   9.796   6.311   7.951 -0.5814 -0.0274 -1.0187
  468MOL0     H64533   9.850   6.468   8.172 -1.9506 -1.9920 -1.4529
  468MOL0     H64534  10.024   6.418   8.494 -0.4840 -1.3432 -0.7988
  468MOL0     H64535   9.988   6.557   8.377 -1.9202 -2.3775 -1.1912
  468MOL0     H64536  10.210   6.600   8.337  1.5228  0.3538  1.0783
  468MOL0     H64537  10.231   6.556   8.495  2.1854  2.6064 -1.4520
  468MOL0     H64538  10.268   6.303   8.413 -0.4218  0.9479  1.0828
  468MOL0     H64539  10.263   6.360   8.249 -1.1160 -3.4888  1.7431
  468MOL0     H64540  10.486   6.334   8.356  1.3246  1.2087  0.4260
  468MOL0     H64541  10.458   6.492   8.287 -0.6528  0.0198  0.2317
  468MOL0     H64542  10.595   6.676   8.387 -1.9264 -1.6898  0.6917
  468MOL0     H64543  10.767   6.783   8.299 -1.5426 -0.8442 -0.6272
  468MOL0     H64544  10.922   6.714   8.290 -1.6696 -0.5028  0.5356
  468MOL0     H64545  10.883   6.832   8.423 -0.4150  0.3571  0.1578
  468MOL0     H64546  11.266   6.572   8.297 -1.2659  0.9288 -0.0351
  468MOL0     H64547  11.513   6.623   8.320 -1.6499  1.6242 -2.0569
  468MOL0     H64548  11.671   6.602   8.581 -0.2774 -1.4424 -0.7235
  468MOL0     H64549  11.725   6.624   8.408  0.2367 -0.9229  0.4787
  468MOL0     H64550  11.904   6.648   8.575 -0.2914 -0.1206  0.6159
  468MOL0     H64551  11.861   6.814   8.525 -0.8212  1.1981  0.7566
  468MOL0     H64552  11.783   6.669   8.776 -0.9512 -0.4818 -0.4380
  468MOL0     H64553  11.743   6.841   8.752  0.7564  0.1151  3.0801
  468MOL0     H64554  12.016   6.842   8.700  0.9780  0.9722  0.3930
  468MOL0     H64555  12.005   6.703   8.796  1.8597 -0.0541 -2.6196
  468MOL0     H64556  11.904   6.982   8.876  0.8765  0.8303  2.2662
  468MOL0     H64557  11.873   6.838   8.982  0.4608 -0.6934 -0.6365
  468MOL0     H64558  12.141   6.941   8.905  0.3493 -1.0341  0.0457
  468MOL0     H64559  12.114   6.798   9.006  0.9010  0.3762  1.7918
  468MOL0     H64560  12.021   6.960   9.198  0.4164  1.6216  2.1511
  468MOL0     H64561  12.041   7.092   9.088  2.2317  0.2183 -2.2805
  468MOL0     H64562  12.272   7.061   9.070 -0.6496 -0.6752 -1.1870
  468MOL0     H64563  12.267   6.912   9.171 -0.2434  0.9756  4.0079
  468MOL0     H64564  11.449   6.871   8.655 -1.6911 -1.0005  2.1166
  468MOL0     H64565  11.192   6.818   8.634  2.6329  1.7702  1.6375
  468MOL0     H64566  10.887   6.350   8.610  2.3933  0.7552 -3.2302
  468MOL0     H64567  10.637   6.322   8.602 -0.8708  0.5537 -0.3108
  468MOL0     H64568   8.777   6.243   8.139  1.0958  2.4712  0.9310
  468MOL0     H64569   8.551   6.291   8.223  0.1648  1.0622  1.4570
  468MOL0     H64570   8.226   6.289   8.328 -0.6496 -2.4945 -1.8237
  468MOL0     H64571   8.012   6.398   8.353 -2.6730  0.4890  0.5497
  468MOL0     H64572   7.715   6.182   8.581 -1.7247  0.5693 -1.3918
  468MOL0     H64573   7.746   6.318   8.695 -3.5412 -1.8334  0.5625
  468MOL0     H64574   7.512   6.288   8.593 -0.0535  0.9941  1.8414
  468MOL0     H64575   7.571   6.328   8.436 -2.0675  0.8951 -0.0582
  468MOL0     H64576   7.602   6.520   8.668 -0.1272 -2.3586  0.5447
  468MOL0     H64577   7.635   6.547   8.492 -0.4485 -0.4337 -0.7557
  468MOL0     H64578   7.440   6.646   8.577  1.3468 -0.6982  2.0246
  468MOL0     H64579   7.369   6.477   8.614  0.3200 -1.2961 -1.0355
  468MOL0     H64580   7.250   6.537   8.224  0.9023 -0.3621  0.0608
  468MOL0     H64581   7.899   6.121   8.657 -0.8075 -1.7545 -1.2305
  468MOL0     H64582   8.047   5.969   8.751  0.0611  1.6354  0.6550
  468MOL0     H64583   8.190   5.914   8.664  0.4460 -0.3034 -0.0891
  468MOL0     H64584   8.199   6.054   8.783 -0.2387 -1.6344  2.6190
  469MOL0     O64585   8.065   0.189  10.426  0.0677 -0.1007  0.7936
  469MOL0     C64586   8.011   0.293  10.390  0.1168 -1.2884  0.2404
  469MOL0     O64587   8.033   0.415  10.461  0.2314  0.4436  0.1512
  469MOL0     C64588   8.128   0.431  10.556 -0.2727  0.3445  0.0645
  469MOL0     C64589   8.154   0.334  10.651 -0.3445 -0.6465 -0.1914
  469MOL0     C64590   8.237   0.375  10.763 -0.2586  0.0650  0.0529
  469MOL0     C64591   8.299   0.497  10.771 -0.1758 -0.0818 -0.6437
  469MOL0     O64592   8.368   0.531  10.882 -0.3274 -0.4750  0.5760
  469MOL0     C64593   8.352   0.671  10.921  0.9010 -0.1003 -0.1226
  469MOL0     C64594   8.399   0.670  11.067 -0.3543 -0.4939 -0.8834
  469MOL0     C64595   8.387   0.807  11.129  0.2965 -0.7577  0.5825
  469MOL0     C64596   8.405   0.803  11.279 -0.7114 -0.1191  0.1706
  469MOL0     C64597   8.400   0.944  11.346 -0.1191  0.3261  0.0919
  469MOL0     C64598   8.518   1.032  11.317 -0.2001  0.6249 -0.9677
  469MOL0     C64599   8.487   1.161  11.401 -0.8612 -0.2532 -0.2331
  469MOL0     C64600   8.573   1.279  11.367 -1.2345 -0.9703 -0.5551
  469MOL0     N64601   8.709   1.289  11.425 -0.1093 -0.0968 -0.1702
  469MOL0     C64602   8.825   1.212  11.384  0.1382  0.4896  0.0153
  469MOL0     C64603   8.924   1.276  11.451 -0.2455 -0.5431 -0.0726
  469MOL0     C64604   9.076   1.259  11.417  0.9017 -0.0915  0.3631
  469MOL0     C64605   9.165   1.249  11.541  0.5471  0.4470 -0.7298
  469MOL0     C64606   9.130   1.136  11.648 -0.1611 -0.5523 -0.9291
  469MOL0     C64607   9.095   0.998  11.588 -0.6884 -0.1802 -0.5609
  469MOL0     O64608   9.072   0.920  11.704  0.1510  0.1574  0.1923
  469MOL0     C64609   8.943   0.902  11.752  0.2178 -0.5762  0.0008
  469MOL0     C64610   8.932   0.815  11.865 -0.8482  0.0005 -0.6072
  469MOL0     C64611   8.803   0.783  11.917  0.1212 -0.9672 -1.1787
  469MOL0     C64612   8.801   0.679  12.025 -0.7437 -0.6917 -0.0329
  469MOL0     C64613   8.690   0.836  11.853  0.7706  0.0688 -0.3702
  469MOL0     C64614   8.544   0.783  11.871  0.2999 -1.0080  0.5040
  469MOL0     O64615   8.470   0.819  11.759 -0.0285  0.3807  0.4312
  469MOL0     C64616   8.354   0.743  11.733 -0.5640 -0.4987  0.2684
  469MOL0     C64617   8.245   0.746  11.811  0.6587 -0.8460 -0.1664
  469MOL0     C64618   8.135   0.673  11.777 -0.3076  0.0950  0.2192
  469MOL0     C64619   8.126   0.594  11.660 -0.5061  0.9615 -0.0405
  469MOL0     O64620   8.020   0.510  11.631  0.1349 -0.8425  0.5347
  469MOL0     C64621   7.895   0.515  11.707 -0.2125  0.0806  0.6949
  469MOL0     C64622   7.800   0.417  11.651  1.2717 -0.0442 -0.4764
  469MOL0     C64623   7.751   0.477  11.521 -0.9716 -0.3954 -0.1668
  469MOL0     C64624   7.643   0.381  11.456 -0.4021 -0.6139 -0.2902
  469MOL0     C64625   7.720   0.261  11.394  0.3064 -0.3082 -0.1349
  469MOL0     C64626   7.609   0.177  11.314 -0.2762  0.0517 -0.5725
  469MOL0     C64627   7.663   0.037  11.305  0.7264  0.4496  0.2995
  469MOL0     C64628   7.582  -0.064  11.223 -0.0361  0.2185  0.4246
  469MOL0    Cl64629   7.430  -0.102  11.311  0.2371  0.3153  0.0863
  469MOL0     C64630   8.237   0.601  11.568  0.1411  0.2692 -0.1309
  469MOL0     C64631   8.349   0.673  11.609  0.0500  0.0775  0.5835
  469MOL0     O64632   8.512   0.702  11.962 -0.9516 -0.2378 -0.5295
  469MOL0     C64633   8.704   0.930  11.748 -0.0630  0.4531  0.0550
  469MOL0     C64634   8.826   0.966  11.704  0.1041  0.2778  0.5445
  469MOL0     N64635   8.865   1.355  11.552 -0.6726 -1.2557  1.2755
  469MOL0     N64636   8.742   1.363  11.533  0.1503  0.0109  0.5362
  469MOL0     C64637   8.272   0.580  10.672  0.8037  0.2454  1.0146
  469MOL0     C64638   8.186   0.556  10.561 -0.3123  0.3464  0.0641
  469MOL0     C64639   7.950   0.299  10.254  0.5120 -0.5338 -0.9191
  469MOL0     C64640   7.930   0.172  10.184 -0.0771  0.1641  0.7229
  469MOL0     C64641   7.875   0.168  10.053  0.2567 -0.0295  1.6805
  469MOL0     C64642   7.836   0.279   9.988  0.0466 -0.6048  0.6514
  469MOL0     O64643   7.774   0.302   9.868 -0.1639 -0.2549 -0.1657
  469MOL0     C64644   7.724   0.188   9.791 -0.3080 -0.9821 -0.0258
  469MOL0     C64645   7.840   0.119   9.713  0.4339  0.8062  0.8334
  469MOL0     C64646   7.786  -0.003   9.631  0.6927 -0.5571  0.0217
  469MOL0     C64647   7.666   0.021   9.534 -0.4390 -0.5481 -0.5277
  469MOL0     C64648   7.649  -0.104   9.461 -0.0317  0.3393 -0.9147
  469MOL0     C64649   7.640  -0.200   9.384  0.4377  0.0306  0.2570
  469MOL0     C64650   7.850   0.401  10.060 -0.6848  0.3635 -0.4876
  469MOL0     C64651   7.907   0.412  10.189 -0.4795 -0.0057 -0.0845
  469MOL0     C64652   7.912   0.558  10.231 -0.6554  0.0460  0.0540
  469MOL0     H64653   8.098   0.241  10.646 -1.5175  0.1080 -2.1606
  469MOL0     H64654   8.254   0.301  10.841  0.3710 -0.1079 -0.2462
  469MOL0     H64655   8.250   0.711  10.922  0.9032 -0.1019  0.2052
  469MOL0     H64656   8.421   0.735  10.865 -0.2126 -2.1658 -4.3076
  469MOL0     H64657   8.337   0.598  11.122 -0.6261  0.4288  0.0641
  469MOL0     H64658   8.504   0.640  11.077 -0.3526 -0.3890 -0.5560
  469MOL0     H64659   8.461   0.871  11.081  0.1678 -1.6146 -0.8033
  469MOL0     H64660   8.286   0.845  11.110  0.5135 -0.0182  0.8621
  469MOL0     H64661   8.312   0.760  11.319 -2.8191  2.9330 -1.0258
  469MOL0     H64662   8.496   0.746  11.295 -0.2040 -0.4599 -3.2055
  469MOL0     H64663   8.392   0.941  11.455  0.6340  2.0157  0.2293
  469MOL0     H64664   8.309   0.999  11.322 -0.4517 -0.0755  0.4192
  469MOL0     H64665   8.605   0.980  11.358 -1.2897  0.5735  1.4044
  469MOL0     H64666   8.533   1.055  11.211 -0.9237 -0.5983 -1.3592
  469MOL0     H64667   8.505   1.152  11.509 -0.9416  0.7273 -0.1294
  469MOL0     H64668   8.381   1.182  11.390 -0.5066  0.9294 -1.5897
  469MOL0     H64669   8.582   1.297  11.259 -1.6681 -0.8602 -0.5741
  469MOL0     H64670   8.517   1.363  11.409 -0.3946  0.1275 -1.5735
  469MOL0     H64671   8.849   1.146  11.300 -2.1335 -0.1187 -0.2112
  469MOL0     H64672   9.120   1.346  11.368  1.9497 -0.6298  0.3093
  469MOL0     H64673   9.088   1.171  11.352  3.5353  1.8919 -2.0937
  469MOL0     H64674   9.268   1.239  11.505 -0.0191 -0.2498 -2.2176
  469MOL0     H64675   9.155   1.347  11.590  3.4177  0.4688  0.0165
  469MOL0     H64676   9.210   1.125  11.722 -0.1745  2.0338 -0.4551
  469MOL0     H64677   9.043   1.176  11.700  2.2453  1.8176  1.5758
  469MOL0     H64678   9.018   1.000  11.510 -1.6871  1.0920  0.4182
  469MOL0     H64679   9.184   0.955  11.542 -0.8201 -2.5226  1.1891
  469MOL0     H64680   9.023   0.772  11.906 -0.6134  1.3084  0.3267
  469MOL0     H64681   8.724   0.694  12.101  0.5031  2.5759  0.7521
  469MOL0     H64682   8.897   0.676  12.078 -0.4189 -1.0396 -0.6251
  469MOL0     H64683   8.798   0.585  11.968  2.1131 -0.3618 -0.8791
  469MOL0     H64684   8.235   0.808  11.899  0.4544 -0.7220 -0.2745
  469MOL0     H64685   8.058   0.671  11.853  1.0347 -1.3972  1.6124
  469MOL0     H64686   7.922   0.494  11.810 -0.3480  1.4581  1.0319
  469MOL0     H64687   7.856   0.618  11.706  0.2784  0.2845  1.5354
  469MOL0     H64688   7.861   0.327  11.637  1.7550  0.0435  0.8934
  469MOL0     H64689   7.710   0.392  11.709 -1.9802  0.9211 -4.6353
  469MOL0     H64690   7.837   0.491  11.455 -0.9461  1.5006  0.2273
  469MOL0     H64691   7.717   0.579  11.538  1.7831  0.4599  0.7179
  469MOL0     H64692   7.603   0.434  11.370  0.1592  1.0870  0.4442
  469MOL0     H64693   7.570   0.361  11.536 -1.3474  1.3251 -0.6137
  469MOL0     H64694   7.805   0.286  11.331  0.7032 -0.6313  0.2684
  469MOL0     H64695   7.762   0.209  11.481  1.3734  0.6341 -0.0598
  469MOL0     H64696   7.605   0.221  11.214 -0.0442  1.6348  0.0727
  469MOL0     H64697   7.518   0.170  11.374  1.1161 -3.9375  1.4179
  469MOL0     H64698   7.658  -0.008  11.405  1.7396  0.9057  0.5705
  469MOL0     H64699   7.765   0.039  11.266  0.0487  0.1368 -1.6262
  469MOL0     H64700   7.635  -0.160  11.222  3.1930  1.8063  2.4133
  469MOL0     H64701   7.565  -0.041  11.118  1.7282  0.5336  0.1658
  469MOL0     H64702   8.239   0.547  11.473  2.5189  3.2705 -1.9743
  469MOL0     H64703   8.437   0.676  11.544  1.4624  0.9683  2.4455
  469MOL0     H64704   8.623   0.979  11.694  1.4181  1.0841 -1.6877
  469MOL0     H64705   8.823   1.034  11.620 -3.4247 -1.3775 -0.8729
  469MOL0     H64706   8.314   0.680  10.666 -1.1592  1.2398  2.7810
  469MOL0     H64707   8.152   0.638  10.498 -0.1493  0.6139  0.3194
  469MOL0     H64708   7.966   0.080  10.228 -1.1108 -0.2704  0.7009
  469MOL0     H64709   7.839   0.079  10.003  1.3625  0.4176  0.0173
  469MOL0     H64710   7.671   0.116   9.854 -0.9053 -1.3071 -0.8794
  469MOL0     H64711   7.649   0.229   9.722  0.2973  1.0614  0.4496
  469MOL0     H64712   7.921   0.085   9.779  1.3530 -1.3749 -1.2615
  469MOL0     H64713   7.884   0.194   9.647 -0.5306  2.2869  1.8029
  469MOL0     H64714   7.866  -0.040   9.565  1.4337  0.9627  0.0281
  469MOL0     H64715   7.754  -0.083   9.699 -0.6151  1.0442  1.3507
  469MOL0     H64716   7.683   0.109   9.472 -0.6807  1.2711  1.8574
  469MOL0     H64717   7.565   0.030   9.575 -0.3274 -0.0182 -0.3662
  469MOL0     H64718   7.661  -0.269   9.304 -0.3832  3.2470 -3.0265
  469MOL0     H64719   7.826   0.496  10.013  2.9673  2.6465  1.8188
  469MOL0     H64720   7.859   0.562  10.327 -2.1512 -0.6000 -0.7156
  469MOL0     H64721   8.012   0.599  10.245  0.8133 -2.2765 -2.5350
  469MOL0     H64722   7.863   0.626  10.160  1.1432 -1.3522 -2.7238
  470MOL0     O64723   4.793   9.609   7.292  0.0129 -0.5648 -0.3546
  470MOL0     C64724   4.902   9.644   7.327 -0.7318 -0.2601  0.0002
  470MOL0     O64725   5.007   9.678   7.238  0.1970  0.2228 -0.4326
  470MOL0     C64726   4.989   9.648   7.110  0.5287 -0.1395  0.6486
  470MOL0     C64727   5.095   9.603   7.035  0.5133  0.4550 -0.4340
  470MOL0     C64728   5.090   9.571   6.904  0.4731 -0.0621  0.6213
  470MOL0     C64729   4.969   9.591   6.830  0.5907  0.3134  0.1256
  470MOL0     O64730   4.959   9.568   6.694  0.2789 -0.4907 -0.1693
  470MOL0     C64731   5.085   9.573   6.623 -0.0249 -0.2358 -0.6399
  470MOL0     C64732   5.053   9.592   6.468  0.1048 -0.7979 -1.0485
  470MOL0     C64733   4.960   9.491   6.417  0.8180 -0.1315  0.1287
  470MOL0     C64734   4.957   9.467   6.268  0.5080  0.2796 -0.6898
  470MOL0     C64735   4.851   9.373   6.230 -0.3954  0.3032 -1.4303
  470MOL0     C64736   4.806   9.378   6.079  0.0303 -1.2161  0.5361
  470MOL0     C64737   4.696   9.282   6.044 -0.1456  0.3879  0.6458
  470MOL0     C64738   4.594   9.335   5.941  0.8332  0.2088  0.0795
  470MOL0     N64739   4.639   9.322   5.807 -0.1655 -0.6142  0.4572
  470MOL0     C64740   4.561   9.269   5.707  0.0798 -0.1495  0.4145
  470MOL0     C64741   4.607   9.319   5.591 -0.1983  0.1748 -0.4695
  470MOL0     C64742   4.576   9.264   5.451 -0.7759 -0.3919 -0.2097
  470MOL0     C64743   4.562   9.368   5.335  0.4100 -0.0725  0.4225
  470MOL0     C64744   4.432   9.440   5.349 -0.6982 -0.2583 -0.6142
  470MOL0     C64745   4.408   9.536   5.230  0.4163  0.2016 -0.3764
  470MOL0     O64746   4.306   9.633   5.262  0.5876  0.2742  0.2356
  470MOL0     C64747   4.247   9.706   5.161  0.6675  0.6757  0.1398
  470MOL0     C64748   4.112   9.725   5.164 -0.3847 -0.1741 -0.9785
  470MOL0     C64749   4.039   9.790   5.068  0.0121  0.2456  0.5887
  470MOL0     C64750   3.889   9.786   5.074  0.0027 -0.4696  0.6410
  470MOL0     C64751   4.109   9.842   4.954  0.3297 -0.2096  0.8637
  470MOL0     C64752   4.044   9.918   4.836 -0.1847 -0.2610  0.2158
  470MOL0     O64753   4.126  10.002   4.764  0.3653  0.2150 -1.1296
  470MOL0     C64754   4.087  10.084   4.666  0.2459  0.9416  0.2764
  470MOL0     C64755   4.013  10.026   4.555  1.1017 -0.5237  0.7880
  470MOL0     C64756   3.968  10.121   4.456  0.5230  0.4779 -0.4670
  470MOL0     C64757   4.005  10.260   4.457  0.2822  0.4813 -1.2477
  470MOL0     O64758   3.955  10.348   4.369  0.6167 -0.6781 -0.1641
  470MOL0     C64759   3.811  10.356   4.336 -0.2784  0.1441  0.2683
  470MOL0     C64760   3.793  10.493   4.297  0.6357 -0.4348  0.6636
  470MOL0     C64761   3.768  10.590   4.410  0.4910  0.6045  0.1049
  470MOL0     C64762   3.755  10.733   4.364 -0.3971  0.2185  0.0583
  470MOL0     C64763   3.611  10.775   4.331  1.1672 -0.5256  0.2241
  470MOL0     C64764   3.586  10.919   4.270 -0.5189 -0.0980 -0.4611
  470MOL0     C64765   3.641  10.930   4.125  0.8829 -0.3167  0.3757
  470MOL0     C64766   3.559  10.839   4.032  0.7768  0.5062  0.4970
  470MOL0    Cl64767   3.393  10.897   4.021 -0.0159  0.0937 -0.3545
  470MOL0     C64768   4.091  10.301   4.555  0.5162 -0.1908 -0.7503
  470MOL0     C64769   4.124  10.214   4.661  0.6840  0.0780  0.0593
  470MOL0     O64770   3.925   9.918   4.829  0.7746  0.5592  0.2241
  470MOL0     C64771   4.248   9.824   4.951 -0.4044  0.3023  0.3220
  470MOL0     C64772   4.315   9.754   5.048 -0.1059  0.3757 -1.6817
  470MOL0     N64773   4.719   9.394   5.622  0.0043  0.3145 -0.6355
  470MOL0     N64774   4.740   9.397   5.751 -0.1594 -0.2855  0.0857
  470MOL0     C64775   4.862   9.632   6.906  0.2030 -0.0539 -0.1128
  470MOL0     C64776   4.867   9.666   7.037  0.2273 -0.9933  0.4597
  470MOL0     C64777   4.947   9.636   7.467 -0.7808 -0.4146  0.5149
  470MOL0     C64778   5.078   9.691   7.502  0.1548  0.2201  0.1220
  470MOL0     C64779   5.120   9.675   7.631 -0.5689 -0.0096  0.3784
  470MOL0     C64780   5.042   9.646   7.740 -1.3222 -0.0830 -0.2005
  470MOL0     O64781   5.077   9.639   7.875 -0.1687 -0.2047 -0.2822
  470MOL0     C64782   5.160   9.744   7.921 -0.0896  1.1428 -0.8593
  470MOL0     C64783   5.253   9.684   8.030  0.0618 -0.8729 -0.2338
  470MOL0     C64784   5.395   9.751   8.044 -0.2942  0.2869 -0.0352
  470MOL0     C64785   5.468   9.691   8.169  0.1193 -0.1711  0.3327
  470MOL0     C64786   5.495   9.550   8.177 -0.4319  0.1182  0.5316
  470MOL0     C64787   5.525   9.435   8.185 -0.0391 -0.0413  0.5313
  470MOL0     C64788   4.916   9.599   7.707  0.1211 -0.5049  0.2292
  470MOL0     C64789   4.872   9.593   7.575  0.5907 -0.4552  0.2023
  470MOL0     C64790   4.724   9.539   7.567  0.3472 -0.0836  0.4466
  470MOL0     H64791   5.188   9.597   7.089 -0.4100  0.3410  1.2099
  470MOL0     H64792   5.178   9.527   6.857 -0.7472  1.0851 -3.1423
  470MOL0     H64793   5.136   9.476   6.621  2.1210  0.8529 -2.0935
  470MOL0     H64794   5.164   9.638   6.664  1.1979 -1.5918 -0.7463
  470MOL0     H64795   5.019   9.694   6.451  1.8517 -0.0974 -0.5444
  470MOL0     H64796   5.145   9.579   6.410 -0.9197 -0.3831 -2.8234
  470MOL0     H64797   4.976   9.396   6.470 -3.2247 -0.8797  0.3595
  470MOL0     H64798   4.863   9.527   6.453  1.1260 -0.1057  0.9603
  470MOL0     H64799   4.932   9.557   6.211 -3.0106  0.4817  0.9383
  470MOL0     H64800   5.047   9.415   6.233 -1.1893 -1.2299 -3.0851
  470MOL0     H64801   4.765   9.382   6.296  0.6553  3.0496 -0.2847
  470MOL0     H64802   4.873   9.269   6.256 -3.0874  0.0408  0.1119
  470MOL0     H64803   4.790   9.482   6.050  2.4910 -0.5620  1.2790
  470MOL0     H64804   4.892   9.343   6.022 -0.9664  0.5913 -2.2533
  470MOL0     H64805   4.637   9.255   6.132 -0.8224  2.4888  0.8748
  470MOL0     H64806   4.738   9.186   6.011 -1.9997  0.0248 -0.7765
  470MOL0     H64807   4.509   9.269   5.963  1.1725 -0.2443  0.0573
  470MOL0     H64808   4.576   9.440   5.964 -1.5768 -0.8294  3.7671
  470MOL0     H64809   4.482   9.197   5.722  0.8405 -1.2744 -0.7176
  470MOL0     H64810   4.480   9.213   5.466 -1.6666  1.8755  2.8197
  470MOL0     H64811   4.653   9.189   5.436 -0.9402 -1.7281  4.1412
  470MOL0     H64812   4.650   9.433   5.329 -0.6835  1.6154  1.6585
  470MOL0     H64813   4.561   9.318   5.238 -0.5846  1.6006 -0.4861
  470MOL0     H64814   4.341   9.382   5.331 -1.8461  0.9123  1.0812
  470MOL0     H64815   4.422   9.490   5.446  1.1663 -1.0855  0.0486
  470MOL0     H64816   4.498   9.596   5.213  0.2623  0.3701 -0.5957
  470MOL0     H64817   4.391   9.479   5.139 -0.8464  0.7617 -0.5145
  470MOL0     H64818   4.065   9.692   5.257  1.8281  0.2643  0.3840
  470MOL0     H64819   3.846   9.884   5.051  0.3245 -0.7151 -1.0861
  470MOL0     H64820   3.853   9.762   5.175  0.0324 -1.5111  0.4077
  470MOL0     H64821   3.842   9.726   4.996  0.8788 -0.0442 -0.2385
  470MOL0     H64822   3.987   9.920   4.553 -3.2841  0.3702 -1.8059
  470MOL0     H64823   3.910  10.075   4.376 -0.4990  2.7528 -1.1264
  470MOL0     H64824   3.799  10.302   4.241  3.8655 -0.4931 -0.1108
  470MOL0     H64825   3.749  10.319   4.418 -0.2240  1.4800  0.9406
  470MOL0     H64826   3.885  10.528   4.250 -0.0936  1.3082  0.4531
  470MOL0     H64827   3.725  10.491   4.211 -2.0091  1.0556  2.5634
  470MOL0     H64828   3.847  10.573   4.485 -0.2145  0.8582  0.9204
  470MOL0     H64829   3.679  10.566   4.468  2.1810 -0.5085  2.4213
  470MOL0     H64830   3.816  10.756   4.276 -1.5159 -0.9532 -1.0904
  470MOL0     H64831   3.804  10.781   4.449  1.7987 -4.2800  1.6720
  470MOL0     H64832   3.576  10.693   4.268  0.0319 -1.9944  2.6317
  470MOL0     H64833   3.549  10.791   4.420 -1.2454  1.6289 -1.6749
  470MOL0     H64834   3.630  10.998   4.332 -0.5481  2.0844 -3.0351
  470MOL0     H64835   3.479  10.942   4.263  0.0564  3.0162 -0.5656
  470MOL0     H64836   3.748  10.907   4.132  0.6079 -1.1391  2.6590
  470MOL0     H64837   3.636  11.036   4.097 -4.1651 -0.0642  1.3006
  470MOL0     H64838   3.559  10.732   4.057  0.6474 -0.6304 -3.5776
  470MOL0     H64839   3.594  10.852   3.929 -2.8759  2.7631 -0.6079
  470MOL0     H64840   4.131  10.402   4.554  0.4867 -0.1804 -1.9826
  470MOL0     H64841   4.190  10.252   4.739  1.2688  1.4684 -1.0523
  470MOL0     H64842   4.311   9.871   4.875  0.7341 -2.2730 -0.4542
  470MOL0     H64843   4.420   9.724   5.052 -0.7044 -1.6988 -0.3054
  470MOL0     H64844   4.761   9.633   6.868  0.0322 -1.1521  0.2648
  470MOL0     H64845   4.787   9.723   7.084 -2.2525 -5.2271  1.9535
  470MOL0     H64846   5.140   9.731   7.423 -0.2618 -2.6369 -1.8085
  470MOL0     H64847   5.227   9.687   7.650 -0.4936 -0.1104  0.0242
  470MOL0     H64848   5.219   9.774   7.834  0.4868 -0.4869 -1.0694
  470MOL0     H64849   5.104   9.830   7.959 -1.0135  0.3192 -0.3094
  470MOL0     H64850   5.267   9.581   7.996  1.0319 -0.7410 -0.2722
  470MOL0     H64851   5.208   9.695   8.129  0.8968  2.2465 -0.0996
  470MOL0     H64852   5.443   9.709   7.955 -6.3467 -1.4425 -3.1133
  470MOL0     H64853   5.392   9.860   8.044  1.2965  0.3399  0.0052
  470MOL0     H64854   5.412   9.724   8.257 -1.5871 -1.0112 -0.3781
  470MOL0     H64855   5.565   9.740   8.156  0.1243 -0.2892 -0.1027
  470MOL0     H64856   5.568   9.336   8.187  2.0758  0.7977 -0.0597
  470MOL0     H64857   4.857   9.572   7.794 -0.0427  0.5293  0.4522
  470MOL0     H64858   4.651   9.610   7.528 -0.3842 -1.2117 -0.2967
  470MOL0     H64859   4.719   9.462   7.489 -1.0170  2.0031 -1.6565
  470MOL0     H64860   4.681   9.496   7.658 -0.9580  3.5199  1.7215
  471MOL0     O64861   8.787   4.985   9.070 -0.5148  0.0237 -0.3154
  471MOL0     C64862   8.902   4.944   9.031  1.1686  0.5930 -0.2964
  471MOL0     O64863   8.979   5.024   8.949  0.7632  0.1014  0.6166
  471MOL0     C64864   8.937   5.151   8.895 -0.8118  0.7427  0.1305
  471MOL0     C64865   8.842   5.244   8.947 -0.4227  1.0986  0.6075
  471MOL0     C64866   8.821   5.361   8.875  0.7082  0.9156 -1.3256
  471MOL0     C64867   8.894   5.402   8.772 -0.0338 -0.2068  0.5625
  471MOL0     O64868   8.868   5.515   8.684 -0.2633  0.0400 -0.6560
  471MOL0     C64869   8.767   5.610   8.721 -0.0307  0.6232 -0.7081
  471MOL0     C64870   8.789   5.738   8.648  0.1593  0.9800  0.0655
  471MOL0     C64871   8.755   5.727   8.500 -0.2648  0.4536 -0.2075
  471MOL0     C64872   8.609   5.724   8.468  0.9494 -0.0814  0.0928
  471MOL0     C64873   8.597   5.694   8.312  0.8526 -0.6059 -0.5462
  471MOL0     C64874   8.649   5.796   8.219 -0.5475 -0.8346  0.8579
  471MOL0     C64875   8.603   5.781   8.076  0.5965  0.9345  0.1834
  471MOL0     C64876   8.493   5.871   8.032  1.3158 -0.1661  0.4848
  471MOL0     N64877   8.505   5.930   7.905 -0.2440 -0.1824  0.3570
  471MOL0     C64878   8.433   5.906   7.792  0.4314  0.6315 -0.9793
  471MOL0     C64879   8.485   5.987   7.699 -0.7873 -0.9345 -0.3087
  471MOL0     C64880   8.435   6.006   7.560  0.8663 -0.0621 -0.1911
  471MOL0     C64881   8.286   6.064   7.566  0.0677  0.0642  0.0035
  471MOL0     C64882   8.177   5.950   7.558  0.8945 -0.1087  0.7506
  471MOL0     C64883   8.028   5.990   7.586 -0.6994  0.2284 -0.1925
  471MOL0     O64884   7.954   5.865   7.598 -0.2509 -0.6696  0.1897
  471MOL0     C64885   7.828   5.876   7.653 -0.4140 -0.2530  0.2744
  471MOL0     C64886   7.757   5.998   7.677  0.0911 -0.1785  0.2135
  471MOL0     C64887   7.632   5.993   7.746 -1.0826 -0.1087  0.4127
  471MOL0     C64888   7.569   6.122   7.792  0.2182 -0.3779 -0.6454
  471MOL0     C64889   7.575   5.862   7.780 -1.1988 -0.2679  0.0036
  471MOL0     C64890   7.442   5.841   7.841 -0.3843  0.4001  1.0812
  471MOL0     O64891   7.413   5.713   7.898  0.3714  0.2410  0.0950
  471MOL0     C64892   7.289   5.687   7.944  0.3663  0.2447 -0.5099
  471MOL0     C64893   7.255   5.709   8.079  0.1151  0.7111  0.7946
  471MOL0     C64894   7.119   5.691   8.121 -1.1428  0.3968 -0.0470
  471MOL0     C64895   7.017   5.661   8.034 -0.4835 -0.2527  0.3736
  471MOL0     O64896   6.888   5.655   8.078 -0.1288 -0.4103 -0.7167
  471MOL0     C64897   6.849   5.700   8.206  0.9377 -0.3307  0.0462
  471MOL0     C64898   6.857   5.853   8.215 -0.7858 -0.3035  0.6943
  471MOL0     C64899   6.799   5.906   8.348  0.1132 -0.7891 -0.1236
  471MOL0     C64900   6.865   5.867   8.474 -0.0247 -0.3014 -0.2439
  471MOL0     C64901   6.807   5.965   8.587 -0.0290  0.5276 -1.0255
  471MOL0     C64902   6.654   5.945   8.610 -0.4009 -1.4212 -0.9130
  471MOL0     C64903   6.614   5.985   8.758 -0.6384 -0.6545 -0.7404
  471MOL0     C64904   6.470   5.979   8.787 -1.1852 -0.1755  0.6161
  471MOL0    Cl64905   6.432   5.799   8.801  0.3634  0.4950 -0.0971
  471MOL0     C64906   7.051   5.659   7.898  0.4936  0.7179 -0.2038
  471MOL0     C64907   7.182   5.662   7.857 -0.3231  0.2988 -0.5134
  471MOL0     O64908   7.356   5.928   7.828  0.1981 -0.4696 -0.1552
  471MOL0     C64909   7.648   5.745   7.749 -0.2605  0.1155 -0.7964
  471MOL0     C64910   7.766   5.750   7.672 -0.0594 -0.0352  0.3009
  471MOL0     N64911   8.592   6.063   7.758 -0.5425 -0.3111  0.2493
  471MOL0     N64912   8.596   6.028   7.882  0.2386  0.1555 -0.3129
  471MOL0     C64913   8.986   5.315   8.715 -0.6029  0.9611 -0.7068
  471MOL0     C64914   9.012   5.192   8.785 -0.9510 -0.0699  0.8584
  471MOL0     C64915   8.964   4.818   9.086  1.6613  0.4850  0.2602
  471MOL0     C64916   8.891   4.747   9.187  0.8355 -0.1748  0.0038
  471MOL0     C64917   8.931   4.619   9.228  0.7371  0.7748 -0.1891
  471MOL0     C64918   9.047   4.568   9.186  0.5541  0.0026  0.5903
  471MOL0     O64919   9.106   4.457   9.228  0.6655  0.9701  0.1037
  471MOL0     C64920   9.012   4.343   9.221  0.1515 -0.1416 -0.0055
  471MOL0     C64921   9.044   4.222   9.311 -0.0318 -0.0774 -0.4888
  471MOL0     C64922   9.070   4.241   9.457  0.4631  0.0266  0.2029
  471MOL0     C64923   8.986   4.350   9.523 -0.0137  0.2627  0.1287
  471MOL0     C64924   8.994   4.331   9.672 -0.0078  0.0900  0.3183
  471MOL0     C64925   9.022   4.307   9.789  0.0900 -0.3598 -0.3783
  471MOL0     C64926   9.112   4.634   9.079  0.6153 -1.0644  0.0171
  471MOL0     C64927   9.080   4.762   9.031 -0.4761  0.4164 -0.3044
  471MOL0     C64928   9.167   4.821   8.925  0.6027  0.2648  0.6581
  471MOL0     H64929   8.784   5.227   9.037 -2.0178 -0.6791 -0.6673
  471MOL0     H64930   8.739   5.421   8.915  2.2172  1.2350  1.5475
  471MOL0     H64931   8.768   5.626   8.829 -5.0206  0.6943 -0.4753
  471MOL0     H64932   8.669   5.567   8.698 -0.0297 -0.1527  0.6616
  471MOL0     H64933   8.727   5.812   8.701 -0.5168 -0.5275  1.4701
  471MOL0     H64934   8.896   5.760   8.659  0.9500 -0.7523 -3.1662
  471MOL0     H64935   8.796   5.822   8.465 -1.6183  1.4132  0.7104
  471MOL0     H64936   8.810   5.641   8.461 -1.4286 -0.1513 -0.5602
  471MOL0     H64937   8.556   5.645   8.522  0.0047  0.7997  0.4763
  471MOL0     H64938   8.560   5.820   8.488  2.7911  1.4424 -2.1856
  471MOL0     H64939   8.493   5.691   8.277  0.8787  0.3020 -0.7283
  471MOL0     H64940   8.636   5.594   8.294  0.2031 -0.5769 -2.3052
  471MOL0     H64941   8.635   5.897   8.260 -0.7036 -0.6969  0.4668
  471MOL0     H64942   8.756   5.774   8.213 -0.2113  0.9912 -2.4976
  471MOL0     H64943   8.570   5.677   8.067 -2.1338  1.7024  0.6370
  471MOL0     H64944   8.695   5.801   8.020  1.5229  1.2501  1.7534
  471MOL0     H64945   8.407   5.805   8.030  3.0551 -2.5281 -0.9321
  471MOL0     H64946   8.483   5.953   8.105 -1.7560 -0.2259  0.2384
  471MOL0     H64947   8.354   5.836   7.768  1.2763 -0.3994 -0.8406
  471MOL0     H64948   8.449   5.906   7.518 -0.0020  0.0794 -0.8420
  471MOL0     H64949   8.493   6.072   7.495 -0.8948 -0.6873 -2.5303
  471MOL0     H64950   8.282   6.126   7.656 -0.5573 -0.2120  0.1734
  471MOL0     H64951   8.273   6.132   7.481 -0.4512  0.5740  0.4817
  471MOL0     H64952   8.183   5.912   7.455  1.2270 -0.2667  0.8257
  471MOL0     H64953   8.195   5.868   7.628  0.3567  0.1230  1.1604
  471MOL0     H64954   8.014   6.043   7.682 -0.9543 -0.6563  0.2675
  471MOL0     H64955   8.002   6.050   7.498  1.9961 -1.3176 -2.1776
  471MOL0     H64956   7.803   6.095   7.662  1.4309 -0.3729  2.5511
  471MOL0     H64957   7.546   6.108   7.898  1.3742  0.9157 -0.1956
  471MOL0     H64958   7.483   6.156   7.734 -0.7790 -0.3878  0.7645
  471MOL0     H64959   7.646   6.199   7.790  0.6777 -0.6366  2.2800
  471MOL0     H64960   7.334   5.733   8.149  0.7181 -0.0656  0.4055
  471MOL0     H64961   7.099   5.715   8.225 -3.8892  3.1726 -1.0617
  471MOL0     H64962   6.742   5.680   8.207  0.6073  1.1701 -1.1270
  471MOL0     H64963   6.891   5.649   8.293  0.0435 -1.3055 -0.0785
  471MOL0     H64964   6.959   5.892   8.207 -1.2541  0.5883 -1.6162
  471MOL0     H64965   6.798   5.901   8.137  1.4559 -1.0641 -1.6161
  471MOL0     H64966   6.696   5.869   8.348 -0.4025  0.5909  0.8650
  471MOL0     H64967   6.788   6.015   8.342 -6.6288 -1.1151 -0.9580
  471MOL0     H64968   6.974   5.864   8.470  0.0029 -0.2933  0.4195
  471MOL0     H64969   6.825   5.766   8.485 -1.8593  0.3203 -0.8187
  471MOL0     H64970   6.867   5.944   8.676  0.5033  0.9363 -1.2802
  471MOL0     H64971   6.831   6.063   8.543 -0.9895  0.5455 -1.5242
  471MOL0     H64972   6.628   5.839   8.600 -2.2002 -0.9592 -1.5200
  471MOL0     H64973   6.601   6.003   8.533  2.0746  2.5602  0.0829
  471MOL0     H64974   6.634   6.092   8.772  3.2054 -1.3283  0.1828
  471MOL0     H64975   6.677   5.941   8.836  1.0151 -0.9079 -2.1658
  471MOL0     H64976   6.415   6.024   8.704  1.5465 -0.4043 -1.4627
  471MOL0     H64977   6.455   6.032   8.882 -1.9362  0.4450  0.1654
  471MOL0     H64978   6.967   5.644   7.831 -0.1594 -0.3906  0.8220
  471MOL0     H64979   7.198   5.638   7.752  1.4082 -2.0281  0.2019
  471MOL0     H64980   7.611   5.645   7.769 -2.6855  1.3971  1.8570
  471MOL0     H64981   7.827   5.665   7.641 -1.9087 -1.6697  0.9501
  471MOL0     H64982   9.038   5.350   8.627 -1.0604  1.7037 -0.6884
  471MOL0     H64983   9.092   5.129   8.748  2.3780  3.8382  0.6573
  471MOL0     H64984   8.806   4.796   9.233  0.1862 -0.9351 -0.3839
  471MOL0     H64985   8.870   4.567   9.302  0.3618  0.4724 -0.7088
  471MOL0     H64986   8.907   4.370   9.234  0.6009  1.5355  0.4433
  471MOL0     H64987   9.019   4.298   9.122  1.6105  0.6306 -0.2875
  471MOL0     H64988   9.134   4.183   9.261  0.8570  0.1001  0.9132
  471MOL0     H64989   8.968   4.148   9.288  1.0272 -0.7611 -1.9774
  471MOL0     H64990   9.041   4.145   9.501 -1.9080 -0.1392 -1.5249
  471MOL0     H64991   9.174   4.259   9.485  0.5343  1.3657 -0.8290
  471MOL0     H64992   8.880   4.332   9.502 -0.3465  3.6034 -1.8911
  471MOL0     H64993   9.016   4.449   9.486 -2.8779  1.4902  0.8154
  471MOL0     H64994   9.025   4.295   9.896 -1.5263  3.2854  0.2222
  471MOL0     H64995   9.199   4.594   9.028  2.2500  1.3605  0.7123
  471MOL0     H64996   9.266   4.774   8.925  0.4755 -0.0126 -0.1010
  471MOL0     H64997   9.117   4.810   8.829  1.4195  3.6476 -0.2956
  471MOL0     H64998   9.184   4.929   8.936 -4.4918  1.3926  0.1351
  472MOL0     O64999   8.937   9.185   8.040  0.7190  0.1318 -0.5019
  472MOL0     C65000   8.931   9.230   8.155 -0.0864  0.2304  0.1487
  472MOL0     O65001   9.043   9.271   8.227 -0.5021  0.4280 -0.2746
  472MOL0     C65002   9.167   9.293   8.181  0.1448 -0.3933  0.8376
  472MOL0     C65003   9.192   9.312   8.043 -0.3404  0.0351 -0.0744
  472MOL0     C65004   9.316   9.342   7.996 -0.5156  0.3299  1.2252
  472MOL0     C65005   9.412   9.380   8.085 -0.5418  0.0151  0.3795
  472MOL0     O65006   9.545   9.404   8.056 -0.3385 -0.2411 -0.3084
  472MOL0     C65007   9.600   9.347   7.937  0.3387 -0.4746  0.6422
  472MOL0     C65008   9.607   9.197   7.930 -0.4703  0.5640 -0.2587
  472MOL0     C65009   9.727   9.148   7.999 -1.1663  0.5280  0.1202
  472MOL0     C65010   9.753   8.994   7.988 -0.4400  0.2050 -0.2504
  472MOL0     C65011   9.861   8.952   8.091 -0.2021  0.2314 -0.7873
  472MOL0     C65012   9.992   8.951   8.026  0.4761 -0.7738  0.2364
  472MOL0     C65013  10.106   8.877   8.098 -0.4343  0.3533 -0.9640
  472MOL0     C65014  10.086   8.731   8.131  0.1285 -0.1704  0.6576
  472MOL0     N65015  10.200   8.663   8.191  0.0517  0.3693 -0.0107
  472MOL0     C65016  10.324   8.637   8.130  0.4528 -0.5432  0.2942
  472MOL0     C65017  10.401   8.582   8.222  0.3293  0.3854  0.6984
  472MOL0     C65018  10.554   8.560   8.201  0.1066 -0.2248  0.1075
  472MOL0     C65019  10.650   8.671   8.233  0.3696  0.5866 -0.6870
  472MOL0     C65020  10.702   8.637   8.373 -0.2893  0.0328  0.1876
  472MOL0     C65021  10.808   8.731   8.418  0.4983 -0.0367  0.7417
  472MOL0     O65022  10.836   8.703   8.548 -0.8366 -0.4857  0.1555
  472MOL0     C65023  10.944   8.768   8.609 -0.0369  0.9061  0.1008
  472MOL0     C65024  10.920   8.811   8.738  0.1233 -0.1262 -0.2149
  472MOL0     C65025  11.016   8.878   8.816 -0.3048 -0.1835  0.1870
  472MOL0     C65026  10.979   8.919   8.957  0.5219  0.2431 -0.8029
  472MOL0     C65027  11.147   8.899   8.766  0.0700 -0.3771 -0.1965
  472MOL0     C65028  11.258   8.963   8.844 -0.3999 -0.1470 -0.5690
  472MOL0     O65029  11.380   8.952   8.791 -1.1313 -0.2558  0.4719
  472MOL0     C65030  11.497   8.985   8.863 -0.6591  0.1230  0.3856
  472MOL0     C65031  11.548   9.110   8.851  1.0781 -0.4570 -0.5772
  472MOL0     C65032  11.675   9.141   8.896 -0.5243  0.8361  0.4275
  472MOL0     C65033  11.737   9.051   8.982  0.2956 -0.2785 -0.3285
  472MOL0     O65034  11.859   9.072   9.043  0.2869 -0.3259  0.2276
  472MOL0     C65035  11.926   9.195   9.016  0.5680 -0.3226  0.5774
  472MOL0     C65036  12.061   9.180   9.082  0.3294 -1.0270  0.4402
  472MOL0     C65037  12.128   9.320   9.094 -0.2882 -0.2442  0.4275
  472MOL0     C65038  12.159   9.378   8.956 -0.1105  0.4191 -0.1708
  472MOL0     C65039  12.273   9.493   8.955 -0.6040  0.6374 -0.2999
  472MOL0     C65040  12.411   9.423   8.962  0.2205 -0.7185  0.9209
  472MOL0     C65041  12.515   9.534   8.973 -0.6357  0.2507  0.4946
  472MOL0     C65042  12.652   9.468   8.999 -1.1650  0.2854  0.5149
  472MOL0    Cl65043  12.785   9.576   8.969  0.3282 -0.0411 -0.5779
  472MOL0     C65044  11.676   8.926   9.006  0.4917  0.5293 -0.5760
  472MOL0     C65045  11.558   8.893   8.946 -0.0980 -1.1413  0.1237
  472MOL0     O65046  11.228   9.044   8.937 -0.6655 -0.2252  0.1454
  472MOL0     C65047  11.169   8.853   8.641 -0.7559  0.5125  0.2186
  472MOL0     C65048  11.074   8.789   8.562  0.2496 -0.2496  0.2526
  472MOL0     N65049  10.336   8.575   8.348  0.0550 -0.3489  0.6731
  472MOL0     N65050  10.213   8.612   8.317  0.2212 -0.3145 -0.2286
  472MOL0     C65051   9.386   9.377   8.218  0.1782  0.7365 -0.9624
  472MOL0     C65052   9.274   9.329   8.269  0.3211 -0.6536  0.4504
  472MOL0     C65053   8.803   9.220   8.222 -0.1869 -1.3286 -0.0841
  472MOL0     C65054   8.724   9.106   8.202  0.2489 -0.0871  0.2536
  472MOL0     C65055   8.620   9.076   8.288 -0.2423 -0.2960 -0.2241
  472MOL0     C65056   8.583   9.165   8.387 -0.9623  0.0955  1.0249
  472MOL0     O65057   8.478   9.146   8.472  0.0855  0.0357 -0.4899
  472MOL0     C65058   8.450   9.009   8.522 -0.4471 -0.1325  0.1406
  472MOL0     C65059   8.352   8.936   8.423 -0.2332  0.6731 -0.2711
  472MOL0     C65060   8.233   9.007   8.366 -0.2303 -0.4772 -0.7743
  472MOL0     C65061   8.151   9.091   8.471  0.5049  0.3554  0.3493
  472MOL0     C65062   8.075   9.005   8.565  0.5728 -0.0102  0.3012
  472MOL0     C65063   8.022   8.920   8.638 -0.1831 -0.1285 -1.0880
  472MOL0     C65064   8.648   9.291   8.395 -0.0022  0.3306 -0.7141
  472MOL0     C65065   8.757   9.316   8.318  0.1602  0.3300  0.2084
  472MOL0     C65066   8.833   9.444   8.330 -0.0609  0.5694 -0.6409
  472MOL0     H65067   9.111   9.311   7.970 -0.2275  3.5760 -0.4357
  472MOL0     H65068   9.338   9.337   7.889 -1.6956 -1.3671  1.0124
  472MOL0     H65069   9.696   9.396   7.918  0.6051 -0.9144  0.8395
  472MOL0     H65070   9.533   9.380   7.856  0.2804 -0.1296  0.8319
  472MOL0     H65071   9.522   9.138   7.964  1.1977 -0.4680  2.4557
  472MOL0     H65072   9.620   9.174   7.823  2.5133  3.2426 -0.6401
  472MOL0     H65073   9.819   9.186   7.954 -0.8846  0.5908  0.7381
  472MOL0     H65074   9.727   9.173   8.105  1.5323  0.3736  0.2472
  472MOL0     H65075   9.658   8.949   8.021 -0.0168 -0.4327  0.1129
  472MOL0     H65076   9.761   8.958   7.885  1.8950 -1.0097  0.2868
  472MOL0     H65077   9.844   8.846   8.112  1.5890 -0.3398 -1.9634
  472MOL0     H65078   9.856   9.009   8.184 -3.0563  1.3221 -1.5087
  472MOL0     H65079   9.967   8.909   7.928 -3.4716  1.3914  0.1078
  472MOL0     H65080  10.026   9.055   8.014  2.4073 -1.4194 -0.3766
  472MOL0     H65081  10.131   8.921   8.195  1.8672  1.1620 -1.8396
  472MOL0     H65082  10.194   8.881   8.031  0.3887  0.5229  0.1027
  472MOL0     H65083  10.005   8.723   8.205 -0.4939 -0.1898 -0.0140
  472MOL0     H65084  10.051   8.677   8.043  1.7867  2.0091 -1.4589
  472MOL0     H65085  10.356   8.654   8.028  1.3494  0.2052  0.6802
  472MOL0     H65086  10.561   8.567   8.092  3.2866  0.9508  0.2905
  472MOL0     H65087  10.583   8.458   8.228  1.0596 -0.2240 -0.8405
  472MOL0     H65088  10.734   8.672   8.164  0.8211 -0.7697 -0.1866
  472MOL0     H65089  10.595   8.766   8.237  1.9069  1.4538  1.5778
  472MOL0     H65090  10.609   8.653   8.429 -1.9336 -3.1447 -1.3563
  472MOL0     H65091  10.724   8.531   8.389 -1.8057 -0.1478  1.2778
  472MOL0     H65092  10.900   8.718   8.361  0.4315  2.1206  0.0543
  472MOL0     H65093  10.784   8.838   8.409  2.7537  0.3477 -2.3656
  472MOL0     H65094  10.822   8.784   8.776 -0.0922 -1.5440 -1.6362
  472MOL0     H65095  10.871   8.924   8.971  0.4538  0.7249 -1.4775
  472MOL0     H65096  10.996   9.027   8.964  1.6272  0.1544 -1.7462
  472MOL0     H65097  11.027   8.862   9.037 -1.7464 -1.7558 -0.7580
  472MOL0     H65098  11.498   9.186   8.792  0.4634 -0.1472  0.3251
  472MOL0     H65099  11.711   9.239   8.867 -1.8273  1.6346  1.3909
  472MOL0     H65100  11.919   9.227   8.912  0.7834 -0.7390  0.4311
  472MOL0     H65101  11.872   9.273   9.070 -0.6266 -0.9395  0.3201
  472MOL0     H65102  12.057   9.139   9.183 -1.7608  0.6092  1.0926
  472MOL0     H65103  12.124   9.118   9.017  1.6878 -0.3261  1.0530
  472MOL0     H65104  12.227   9.312   9.141  0.0154  2.0545  0.3132
  472MOL0     H65105  12.065   9.368   9.169 -1.3295  0.1043 -0.6374
  472MOL0     H65106  12.063   9.419   8.922  0.4030  1.4003 -0.4620
  472MOL0     H65107  12.193   9.293   8.895 -1.4692  1.7469 -2.9572
  472MOL0     H65108  12.260   9.550   8.862 -0.5644 -1.5126 -1.7051
  472MOL0     H65109  12.258   9.556   9.043  1.1641 -1.6410  1.7977
  472MOL0     H65110  12.434   9.361   8.875  1.6252  2.1720 -0.9026
  472MOL0     H65111  12.409   9.358   9.050 -0.4132 -0.6768  0.9435
  472MOL0     H65112  12.499   9.609   9.051  1.4742  0.5981  0.6298
  472MOL0     H65113  12.526   9.581   8.875 -1.3477 -1.0884 -0.2538
  472MOL0     H65114  12.679   9.403   8.916  2.0682  0.8190  1.0292
  472MOL0     H65115  12.659   9.405   9.088 -0.2109  0.4345  0.5555
  472MOL0     H65116  11.726   8.852   9.068 -2.8615 -2.6471 -1.3621
  472MOL0     H65117  11.503   8.800   8.956  1.7269 -2.4757 -1.3650
  472MOL0     H65118  11.262   8.875   8.590 -0.1521 -1.1534  0.5378
  472MOL0     H65119  11.098   8.754   8.462  0.9583 -1.7848  0.9393
  472MOL0     H65120   9.460   9.420   8.285  1.0389 -2.5961  0.4405
  472MOL0     H65121   9.266   9.315   8.376 -1.2655 -2.1246  0.1799
  472MOL0     H65122   8.749   9.032   8.126 -1.5653  0.7131 -1.2093
  472MOL0     H65123   8.572   8.982   8.261 -0.6990  0.2154 -1.2511
  472MOL0     H65124   8.537   8.944   8.535  1.3193  1.1156 -3.8257
  472MOL0     H65125   8.394   9.014   8.615 -1.6328 -1.6493 -0.4459
  472MOL0     H65126   8.302   8.860   8.484 -1.1180  1.2397 -0.2684
  472MOL0     H65127   8.407   8.893   8.339  0.4839  0.1077  0.4692
  472MOL0     H65128   8.272   9.082   8.296 -0.8704  1.7767  1.1353
  472MOL0     H65129   8.165   8.940   8.314 -1.4755 -2.4456  2.9738
  472MOL0     H65130   8.080   9.148   8.411  0.2226  1.3677  1.6057
  472MOL0     H65131   8.225   9.158   8.517 -1.8712  2.6847  1.0198
  472MOL0     H65132   7.959   8.859   8.699  1.4392 -0.9770 -0.2067
  472MOL0     H65133   8.623   9.355   8.479 -0.1983  2.4159 -2.2623
  472MOL0     H65134   8.760   9.525   8.338  0.6404  1.4251 -2.3584
  472MOL0     H65135   8.897   9.433   8.417  1.8361 -1.5298 -2.1762
  472MOL0     H65136   8.889   9.468   8.239 -2.1936  0.9807 -1.9219
  473MOL0     O65137   1.304   2.622   8.613  0.2828 -0.0433  0.0973
  473MOL0     C65138   1.233   2.531   8.582  1.6516  1.1913 -0.1433
  473MOL0     O65139   1.224   2.409   8.645 -0.6575 -0.4834 -0.0006
  473MOL0     C65140   1.298   2.394   8.758 -0.3207 -0.1600 -0.0319
  473MOL0     C65141   1.263   2.447   8.886 -0.3588  0.0311  0.5934
  473MOL0     C65142   1.340   2.414   8.995  0.2349  0.2490 -0.1573
  473MOL0     C65143   1.459   2.337   8.983 -0.1399 -0.2395  0.0355
  473MOL0     O65144   1.547   2.314   9.090  0.1162 -0.0487  0.2473
  473MOL0     C65145   1.592   2.435   9.160  0.5716 -0.4814  0.3410
  473MOL0     C65146   1.707   2.411   9.246 -0.7725  0.1047 -0.1082
  473MOL0     C65147   1.687   2.289   9.341  0.1067  0.2649  0.3053
  473MOL0     C65148   1.807   2.274   9.438  0.4770 -0.1761  0.1974
  473MOL0     C65149   1.790   2.164   9.537  0.7419 -0.1684 -0.3823
  473MOL0     C65150   1.912   2.167   9.640  0.4660 -0.3614  0.3571
  473MOL0     C65151   1.876   2.101   9.782  0.1668  0.4254 -0.1855
  473MOL0     C65152   1.925   1.958   9.805  0.0964  0.0171  0.0676
  473MOL0     N65153   1.864   1.908   9.925 -0.1416  0.0192  0.8430
  473MOL0     C65154   1.919   1.811  10.000  0.0020 -0.6235  0.2058
  473MOL0     C65155   1.822   1.763  10.086 -0.3881  0.5891 -0.1196
  473MOL0     C65156   1.833   1.652  10.190  0.9694  0.0645  0.5089
  473MOL0     C65157   1.853   1.687  10.339 -0.4169  0.8941  0.3958
  473MOL0     C65158   1.775   1.802  10.400 -0.1171 -0.8639 -1.0622
  473MOL0     C65159   1.628   1.786  10.381  0.8560 -0.1603  0.1228
  473MOL0     O65160   1.581   1.668  10.448 -0.8609  0.2903 -0.7312
  473MOL0     C65161   1.526   1.674  10.577  0.2067 -0.0427  0.0709
  473MOL0     C65162   1.540   1.785  10.665 -0.4736  0.5083  0.0261
  473MOL0     C65163   1.492   1.792  10.798 -1.0924 -0.2107  0.1523
  473MOL0     C65164   1.487   1.929  10.864  0.4284  0.0435  0.2549
  473MOL0     C65165   1.433   1.671  10.846  0.3920 -0.1435  0.4497
  473MOL0     C65166   1.373   1.655  10.984 -0.4223 -0.0580  1.2242
  473MOL0     O65167   1.296   1.543  11.009  0.4149  0.3477  0.2041
  473MOL0     C65168   1.185   1.560  11.088  0.7718 -0.2206 -0.2432
  473MOL0     C65169   1.193   1.590  11.224 -0.0531 -0.2233 -0.1923
  473MOL0     C65170   1.076   1.618  11.298 -0.2522  0.0069 -0.6247
  473MOL0     C65171   0.944   1.599  11.252  0.0115  0.7112  0.3032
  473MOL0     O65172   0.823   1.616  11.318  0.1265  0.2073  0.7844
  473MOL0     C65173   0.829   1.604  11.459  0.1710 -0.0445  0.5231
  473MOL0     C65174   0.688   1.588  11.531  0.2196  0.1145 -1.1500
  473MOL0     C65175   0.566   1.671  11.481 -0.1496  0.0955  0.2531
  473MOL0     C65176   0.501   1.727  11.606 -0.1222 -0.4561  1.0039
  473MOL0     C65177   0.366   1.806  11.583  0.2878  1.1049 -0.5305
  473MOL0     C65178   0.295   1.826  11.717  0.2360 -0.2238 -0.2275
  473MOL0     C65179   0.165   1.910  11.689  0.2857  0.1046  0.1225
  473MOL0     C65180   0.099   1.966  11.816 -0.1969  0.4117 -0.3472
  473MOL0    Cl65181  -0.035   2.079  11.761  0.0135  0.0764  0.2179
  473MOL0     C65182   0.938   1.580  11.118  0.5300 -0.9807  0.2142
  473MOL0     C65183   1.055   1.559  11.042  0.4997  0.8540  0.6485
  473MOL0     O65184   1.401   1.743  11.061 -0.2655  0.3381  0.0026
  473MOL0     C65185   1.418   1.563  10.761  0.6860  0.8612  0.3620
  473MOL0     C65186   1.452   1.568  10.627  0.0335 -0.2321 -0.3484
  473MOL0     N65187   1.714   1.836  10.058  0.3074  0.1348 -0.5333
  473MOL0     N65188   1.730   1.915   9.960 -0.0648 -0.3230 -0.0217
  473MOL0     C65189   1.482   2.271   8.864 -0.3344  0.0144  0.3355
  473MOL0     C65190   1.408   2.307   8.746 -1.1401 -1.0224 -0.4666
  473MOL0     C65191   1.132   2.544   8.474  0.4158  0.0020 -0.1744
  473MOL0     C65192   1.085   2.428   8.425 -0.2567 -0.6029 -0.6287
  473MOL0     C65193   0.993   2.419   8.331  0.4209 -0.2996  0.4065
  473MOL0     C65194   0.942   2.538   8.272  0.3360  0.4164 -0.8782
  473MOL0     O65195   0.853   2.549   8.174 -0.0447  0.2132  0.9416
  473MOL0     C65196   0.774   2.440   8.123 -0.9085  1.0563 -0.1806
  473MOL0     C65197   0.656   2.397   8.201 -0.1577 -0.0356 -1.2920
  473MOL0     C65198   0.540   2.506   8.207 -0.7610  0.3420  0.3122
  473MOL0     C65199   0.462   2.514   8.074 -0.7131 -1.0933 -0.0591
  473MOL0     C65200   0.365   2.411   8.054  0.4024  0.5799 -0.4879
  473MOL0     C65201   0.285   2.325   8.009 -0.1013  0.6578 -0.3584
  473MOL0     C65202   1.003   2.660   8.305 -0.7766 -0.3726 -1.1029
  473MOL0     C65203   1.099   2.664   8.407 -0.2979  0.8048  0.6047
  473MOL0     C65204   1.169   2.790   8.427  0.0428 -0.2152 -0.2914
  473MOL0     H65205   1.178   2.511   8.908 -0.2904 -0.6624  3.2458
  473MOL0     H65206   1.306   2.446   9.093  0.2922  1.4698 -0.5094
  473MOL0     H65207   1.509   2.479   9.217  1.7498  0.6551  1.2381
  473MOL0     H65208   1.624   2.511   9.088 -0.4051  0.4801  0.8886
  473MOL0     H65209   1.799   2.391   9.190 -0.6369 -3.5430  1.1343
  473MOL0     H65210   1.729   2.505   9.297 -4.6246  1.7556 -1.1682
  473MOL0     H65211   1.594   2.292   9.398 -0.0286 -1.3034  0.1899
  473MOL0     H65212   1.693   2.196   9.285 -1.9751  0.6095 -0.5901
  473MOL0     H65213   1.895   2.246   9.379  1.2512 -1.5646  1.9170
  473MOL0     H65214   1.818   2.372   9.484  0.3461 -0.7144  1.4310
  473MOL0     H65215   1.801   2.068   9.485  3.0833 -2.1822  3.3815
  473MOL0     H65216   1.695   2.177   9.591  0.1636 -1.9191 -0.8892
  473MOL0     H65217   2.000   2.115   9.600  1.8679  1.4972  0.8837
  473MOL0     H65218   1.948   2.269   9.660 -0.6758  0.4872 -1.6392
  473MOL0     H65219   1.768   2.114   9.793  0.2588  1.1249 -0.0382
  473MOL0     H65220   1.932   2.166   9.850 -1.8153  2.5886 -0.5006
  473MOL0     H65221   1.895   1.897   9.719 -1.8015  0.2660  0.4990
  473MOL0     H65222   2.034   1.961   9.800  0.0922 -0.9529 -0.9311
  473MOL0     H65223   2.024   1.784   9.998  0.1231 -0.9109  3.6637
  473MOL0     H65224   1.920   1.594  10.158  0.0252 -1.4530  0.6110
  473MOL0     H65225   1.742   1.593  10.196 -0.3910  1.9854  0.0140
  473MOL0     H65226   1.837   1.594  10.394 -1.4890  0.6246 -0.3351
  473MOL0     H65227   1.956   1.725  10.336 -0.8489  2.3530 -4.4513
  473MOL0     H65228   1.800   1.817  10.506 -0.8671 -1.9622 -0.7104
  473MOL0     H65229   1.817   1.889  10.348  4.0793 -1.9547  0.0944
  473MOL0     H65230   1.582   1.875  10.424  0.1013 -0.6503  0.3574
  473MOL0     H65231   1.599   1.781  10.276  2.1684  3.3549 -0.5254
  473MOL0     H65232   1.585   1.874  10.624 -0.6839  0.9128  0.6682
  473MOL0     H65233   1.512   1.931  10.970  1.3576  1.5753  0.0292
  473MOL0     H65234   1.383   1.962  10.859  1.1643  2.4022 -1.0361
  473MOL0     H65235   1.553   2.001  10.816 -0.1079  0.4058  0.0478
  473MOL0     H65236   1.295   1.623  11.242 -0.2446  2.6546 -3.3882
  473MOL0     H65237   1.093   1.650  11.400  1.9791  0.8832 -1.1880
  473MOL0     H65238   0.887   1.518  11.492  1.0190  0.5045  0.4832
  473MOL0     H65239   0.885   1.695  11.484  3.1451 -0.9169 -2.3069
  473MOL0     H65240   0.664   1.482  11.523  1.5647 -0.4298  1.0830
  473MOL0     H65241   0.702   1.588  11.639 -1.0616 -1.0174 -0.9651
  473MOL0     H65242   0.497   1.605  11.428  0.2121 -0.0150 -0.0940
  473MOL0     H65243   0.613   1.753  11.426 -2.2150  1.6769  0.7364
  473MOL0     H65244   0.576   1.785  11.660  1.4729 -1.4641 -0.0310
  473MOL0     H65245   0.473   1.648  11.675  0.2337 -0.4136  1.2027
  473MOL0     H65246   0.396   1.896  11.529  2.2603  0.6746 -0.2544
  473MOL0     H65247   0.296   1.739  11.532  0.5033  0.7091 -0.3151
  473MOL0     H65248   0.359   1.884  11.785 -1.1025  0.1075  0.7817
  473MOL0     H65249   0.275   1.733  11.771  3.5762 -1.3987 -0.7400
  473MOL0     H65250   0.100   1.849  11.627  0.1132 -1.2830  1.6041
  473MOL0     H65251   0.194   1.995  11.626 -0.1749 -0.7919 -1.3570
  473MOL0     H65252   0.173   2.021  11.874 -1.2147 -1.5208  3.0843
  473MOL0     H65253   0.055   1.887  11.879  0.9857  0.7011  0.8749
  473MOL0     H65254   0.847   1.580  11.060  1.0608 -2.7037 -0.7108
  473MOL0     H65255   1.053   1.533  10.936  4.8344  0.4350  0.4811
  473MOL0     H65256   1.376   1.470  10.797  1.7460 -0.5901 -1.8914
  473MOL0     H65257   1.449   1.478  10.567  2.6588 -1.8554  1.7157
  473MOL0     H65258   1.569   2.207   8.865  1.3967  2.2227  0.0928
  473MOL0     H65259   1.420   2.258   8.650 -2.1876  0.6398 -1.4993
  473MOL0     H65260   1.105   2.331   8.469  0.8119  1.0731  2.9679
  473MOL0     H65261   0.961   2.317   8.311 -2.9388  0.2617  2.2122
  473MOL0     H65262   0.744   2.468   8.022 -0.6372  1.4669 -0.1487
  473MOL0     H65263   0.843   2.356   8.118 -2.6552 -0.7654  3.0579
  473MOL0     H65264   0.687   2.373   8.303 -1.3688  1.2014 -0.6049
  473MOL0     H65265   0.619   2.302   8.161  3.3725 -2.3370  0.3649
  473MOL0     H65266   0.468   2.480   8.285 -0.8006  0.2719  0.2528
  473MOL0     H65267   0.584   2.597   8.247 -0.7497 -0.0184  1.1407
  473MOL0     H65268   0.530   2.516   7.988  0.5844 -1.2205  0.9330
  473MOL0     H65269   0.418   2.614   8.077 -0.3066 -0.9088  3.1697
  473MOL0     H65270   0.207   2.267   7.965 -1.9127  2.8636 -0.2394
  473MOL0     H65271   0.961   2.749   8.258 -2.7622 -1.9704 -2.5214
  473MOL0     H65272   1.273   2.780   8.458 -0.2459 -1.7939  0.2983
  473MOL0     H65273   1.162   2.854   8.339  0.7117 -0.2920 -0.4039
  473MOL0     H65274   1.120   2.854   8.502 -1.3370  1.2526 -2.3557
  474MOL0     O65275   7.220   6.922   0.657  0.0603  0.7739  0.0524
  474MOL0     C65276   7.250   6.882   0.552 -1.0821  1.0837  0.9692
  474MOL0     O65277   7.187   6.915   0.434 -0.9971 -0.1431 -0.4795
  474MOL0     C65278   7.078   6.999   0.440  0.1633 -0.3780 -0.7820
  474MOL0     C65279   6.961   6.964   0.515  0.1599 -0.8132 -0.2073
  474MOL0     C65280   6.852   7.048   0.518  0.4483  0.1995 -0.4005
  474MOL0     C65281   6.858   7.180   0.456  0.1110  0.2265 -0.7731
  474MOL0     O65282   6.743   7.260   0.472  0.0830  0.0890 -0.0018
  474MOL0     C65283   6.649   7.216   0.376  0.0406 -0.2608 -0.6606
  474MOL0     C65284   6.637   7.329   0.283 -0.5150  0.2460 -0.5957
  474MOL0     C65285   6.529   7.423   0.334 -0.5790 -0.5650  1.0936
  474MOL0     C65286   6.539   7.564   0.258 -0.5252 -0.9042 -0.1104
  474MOL0     C65287   6.468   7.677   0.331 -0.0172  0.2484 -0.6360
  474MOL0     C65288   6.309   7.657   0.349  0.7947 -0.1517 -0.3468
  474MOL0     C65289   6.236   7.715   0.217 -1.0176  0.4001  0.3893
  474MOL0     C65290   6.114   7.798   0.256 -0.6134  0.3013 -0.1026
  474MOL0     N65291   6.140   7.942   0.268  0.2905 -1.5366 -0.3792
  474MOL0     C65292   6.117   8.034   0.165  0.0059 -0.0723 -0.4095
  474MOL0     C65293   6.175   8.149   0.217 -0.1094 -0.1056  0.8733
  474MOL0     C65294   6.170   8.287   0.160 -0.5934 -0.6336  0.5476
  474MOL0     C65295   6.023   8.345   0.183 -0.3496  0.2088 -0.6068
  474MOL0     C65296   5.916   8.287   0.092  0.0747 -0.1440  0.5280
  474MOL0     C65297   5.786   8.365   0.079 -0.8603  0.4127 -0.8262
  474MOL0     O65298   5.727   8.402   0.203 -1.0104 -0.3478 -0.4827
  474MOL0     C65299   5.632   8.489   0.217 -0.3031 -0.6403 -0.9827
  474MOL0     C65300   5.540   8.526   0.117  0.4327 -0.5761 -0.3114
  474MOL0     C65301   5.430   8.612   0.151 -0.4612  0.1645 -0.5928
  474MOL0     C65302   5.336   8.662   0.049  0.2908 -0.3277  0.1656
  474MOL0     C65303   5.412   8.655   0.284  0.1529 -1.3885 -0.1006
  474MOL0     C65304   5.290   8.726   0.337 -0.3133 -0.2179 -0.6393
  474MOL0     O65305   5.216   8.806   0.245  0.3046  0.2351  0.1106
  474MOL0     C65306   5.076   8.835   0.258  0.4812  0.2032 -0.1807
  474MOL0     C65307   4.989   8.779   0.357  0.5300 -0.5339 -0.0330
  474MOL0     C65308   4.851   8.811   0.353  0.6861  0.3786 -0.3076
  474MOL0     C65309   4.796   8.888   0.249 -0.5205 -0.5987  0.9845
  474MOL0     O65310   4.667   8.927   0.236  0.4139 -0.6382  0.0014
  474MOL0     C65311   4.568   8.852   0.313 -1.2184 -0.9736 -0.7731
  474MOL0     C65312   4.425   8.873   0.279  0.9150 -0.0746  0.9474
  474MOL0     C65313   4.373   9.005   0.340  0.5330  0.8042 -0.9512
  474MOL0     C65314   4.283   9.071   0.237  0.1786 -0.0372  0.4760
  474MOL0     C65315   4.253   9.222   0.261  0.5549  0.6483 -0.4629
  474MOL0     C65316   4.204   9.289   0.133  0.0936 -0.8393 -0.3493
  474MOL0     C65317   4.169   9.430   0.153  0.4850  0.3349 -0.4584
  474MOL0     C65318   4.087   9.491   0.034 -1.2178  0.8426 -0.3140
  474MOL0    Cl65319   4.094   9.671   0.082  0.1312 -0.1420 -0.3662
  474MOL0     C65320   4.886   8.951   0.162  0.5891  0.2451  0.4086
  474MOL0     C65321   5.020   8.923   0.172 -0.0892 -0.4659  0.4627
  474MOL0     O65322   5.261   8.699   0.452 -0.0221  0.3584  0.1025
  474MOL0     C65323   5.512   8.619   0.375 -0.5880 -0.4432 -0.6696
  474MOL0     C65324   5.614   8.539   0.350  0.2036  0.5789  0.7236
  474MOL0     N65325   6.216   8.122   0.345  0.4732  1.5785 -0.0365
  474MOL0     N65326   6.190   8.003   0.374 -0.9749  0.2708 -0.1147
  474MOL0     C65327   6.973   7.210   0.382  0.3247  0.4837  0.3406
  474MOL0     C65328   7.081   7.121   0.370 -0.2700 -0.1808  0.5885
  474MOL0     C65329   7.364   6.782   0.539  0.5541  0.4619 -0.3218
  474MOL0     C65330   7.383   6.742   0.402  0.0430  0.2929  0.3419
  474MOL0     C65331   7.474   6.641   0.374  0.0857  0.5985  0.1917
  474MOL0     C65332   7.555   6.583   0.475  0.3957 -0.4794  0.0799
  474MOL0     O65333   7.642   6.483   0.442  0.5774  0.5344  0.7484
  474MOL0     C65334   7.760   6.468   0.512 -0.1375  0.7651 -0.0685
  474MOL0     C65335   7.744   6.348   0.616 -0.0882  0.5556 -0.0152
  474MOL0     C65336   7.782   6.209   0.563 -1.0334  0.0337 -0.0467
  474MOL0     C65337   7.932   6.177   0.593  1.1836 -0.3339  0.0864
  474MOL0     C65338   7.953   6.048   0.522  0.3297 -0.6630 -0.1113
  474MOL0     C65339   7.980   5.940   0.478 -0.5812  0.9026 -0.2817
  474MOL0     C65340   7.535   6.618   0.609  0.1006 -0.1179  0.7508
  474MOL0     C65341   7.437   6.716   0.644 -0.1573  0.0722  0.2479
  474MOL0     C65342   7.414   6.754   0.788  0.1191  0.2477  0.7225
  474MOL0     H65343   6.957   6.873   0.574 -1.1561 -1.2057 -0.8666
  474MOL0     H65344   6.770   7.023   0.584  2.1583  0.5827  2.0249
  474MOL0     H65345   6.556   7.195   0.429  0.9131 -0.7909  0.7118
  474MOL0     H65346   6.669   7.124   0.321  1.5935 -0.4404  0.1388
  474MOL0     H65347   6.736   7.372   0.265  0.9511 -1.5346  2.3594
  474MOL0     H65348   6.600   7.284   0.191  1.5584 -0.7798 -1.0022
  474MOL0     H65349   6.434   7.373   0.311 -1.5324  2.0824 -1.5215
  474MOL0     H65350   6.551   7.449   0.438  2.4196  1.2363  0.1399
  474MOL0     H65351   6.643   7.600   0.256 -1.4881  2.4589  1.7298
  474MOL0     H65352   6.505   7.567   0.154  1.9444  2.1497 -1.0119
  474MOL0     H65353   6.488   7.772   0.282  1.5822 -0.3702 -1.2335
  474MOL0     H65354   6.520   7.683   0.427  3.3374  1.5369 -2.3887
  474MOL0     H65355   6.263   7.564   0.385  0.1282  0.1791 -0.3280
  474MOL0     H65356   6.287   7.722   0.434 -2.4746 -0.3785 -0.8810
  474MOL0     H65357   6.197   7.633   0.157  1.1088 -1.4987  1.4791
  474MOL0     H65358   6.306   7.769   0.152  1.1769  1.9910  3.7442
  474MOL0     H65359   6.044   7.796   0.172  0.7930 -2.8685 -1.3540
  474MOL0     H65360   6.063   7.756   0.343 -2.2352  0.9129 -0.7143
  474MOL0     H65361   6.049   8.012   0.084  1.2891  3.4195 -2.6490
  474MOL0     H65362   6.204   8.294   0.056  1.2509 -2.9671  0.9178
  474MOL0     H65363   6.234   8.353   0.219  2.3064 -3.6248  1.0445
  474MOL0     H65364   5.993   8.323   0.286  2.8242 -0.4362  0.2807
  474MOL0     H65365   6.028   8.454   0.176 -2.2915  0.5232  1.7032
  474MOL0     H65366   5.946   8.267  -0.011 -1.7062 -0.4981  0.0458
  474MOL0     H65367   5.890   8.188   0.131 -3.4075 -0.0446 -1.1795
  474MOL0     H65368   5.812   8.458   0.027  2.9475 -0.9323 -1.5779
  474MOL0     H65369   5.711   8.307   0.024 -0.2756  0.4160 -1.6380
  474MOL0     H65370   5.558   8.493   0.015  3.2049 -3.2704  0.8651
  474MOL0     H65371   5.331   8.771   0.045  0.5233 -0.2892  0.7686
  474MOL0     H65372   5.241   8.619   0.082  1.1942 -2.1891  0.5037
  474MOL0     H65373   5.374   8.627  -0.048  3.9541  0.2559  1.2221
  474MOL0     H65374   5.021   8.711   0.435 -2.3155 -1.8697  0.0780
  474MOL0     H65375   4.786   8.770   0.430  0.5863  2.3651  0.7431
  474MOL0     H65376   4.594   8.746   0.303  4.3143 -0.0882  0.6079
  474MOL0     H65377   4.599   8.882   0.414  2.1592 -1.7104 -1.4474
  474MOL0     H65378   4.404   8.884   0.172 -1.2981  2.4433  1.5090
  474MOL0     H65379   4.370   8.788   0.320  0.5412 -0.4298 -0.2406
  474MOL0     H65380   4.449   9.075   0.375  0.7319 -0.1786  0.7044
  474MOL0     H65381   4.311   8.983   0.427  1.2640 -2.4318 -1.1033
  474MOL0     H65382   4.183   9.026   0.230  0.6602 -1.1848  0.8684
  474MOL0     H65383   4.316   9.061   0.133 -3.1708 -1.6176 -0.5840
  474MOL0     H65384   4.184   9.239   0.344 -0.4640  0.0580 -1.1558
  474MOL0     H65385   4.344   9.272   0.293 -0.5369  2.4746 -0.1011
  474MOL0     H65386   4.120   9.234   0.089  1.1767 -2.9478  0.0799
  474MOL0     H65387   4.285   9.285   0.060 -0.5984 -1.1325 -1.1227
  474MOL0     H65388   4.267   9.476   0.173  1.2805 -0.9942 -1.1337
  474MOL0     H65389   4.109   9.438   0.244  0.3375  0.2759 -0.5503
  474MOL0     H65390   3.983   9.464   0.018 -0.2020 -2.1407 -2.8179
  474MOL0     H65391   4.144   9.478  -0.058  2.4411  4.1641  1.1486
  474MOL0     H65392   4.854   9.019   0.083  0.6764 -0.2022 -0.0221
  474MOL0     H65393   5.081   8.977   0.100  0.4852 -0.4120  0.9838
  474MOL0     H65394   5.497   8.633   0.481  0.5155 -1.3451 -0.3740
  474MOL0     H65395   5.687   8.518   0.427  1.9459 -0.2261 -1.0486
  474MOL0     H65396   6.973   7.305   0.330  0.9187 -0.8620 -2.3238
  474MOL0     H65397   7.165   7.161   0.314 -1.1449  0.6062 -0.1991
  474MOL0     H65398   7.335   6.783   0.314  2.2021  0.9964 -0.5841
  474MOL0     H65399   7.495   6.621   0.270 -2.4493  1.9034 -0.6512
  474MOL0     H65400   7.844   6.430   0.453  2.1530  2.1148  2.1193
  474MOL0     H65401   7.788   6.558   0.568  1.3099  0.0570  0.4075
  474MOL0     H65402   7.640   6.346   0.649 -0.3566 -2.0894 -0.7856
  474MOL0     H65403   7.816   6.359   0.697 -0.9164  0.5862  0.7214
  474MOL0     H65404   7.722   6.139   0.624 -0.2960  0.0299  0.6967
  474MOL0     H65405   7.754   6.200   0.458 -0.3027 -0.5952 -0.1983
  474MOL0     H65406   7.958   6.158   0.697  0.3817 -3.0338 -0.1211
  474MOL0     H65407   7.996   6.260   0.562  1.1134  1.0408  3.2349
  474MOL0     H65408   7.996   5.844   0.432  1.9867  0.6754  0.8974
  474MOL0     H65409   7.578   6.556   0.687  2.0274  2.4569  1.8815
  474MOL0     H65410   7.318   6.711   0.820 -1.8132  0.6473 -3.8335
  474MOL0     H65411   7.496   6.702   0.839 -0.0323 -1.0566 -0.3225
  474MOL0     H65412   7.412   6.862   0.810  1.0524  0.3653  0.2893
  475MOL0     O65413   8.789   3.064   7.100 -1.0303  0.6096 -0.1749
  475MOL0     C65414   8.707   3.001   7.041 -0.7140  0.0306  0.0060
  475MOL0     O65415   8.601   2.948   7.092  0.0118  0.3070  0.0462
  475MOL0     C65416   8.567   2.950   7.225 -0.8031  0.6004 -0.5306
  475MOL0     C65417   8.435   2.913   7.265  0.4970  0.3827 -0.2343
  475MOL0     C65418   8.394   2.923   7.400  0.1797 -0.2349  0.2117
  475MOL0     C65419   8.486   2.945   7.508  0.3765 -1.0774  0.6144
  475MOL0     O65420   8.458   2.966   7.636  0.3483  0.1523  0.2928
  475MOL0     C65421   8.306   2.964   7.671  0.7853 -1.1381 -0.1880
  475MOL0     C65422   8.286   3.004   7.818  0.2973  0.4445 -0.2674
  475MOL0     C65423   8.151   2.977   7.882  1.0580 -0.9346 -0.1294
  475MOL0     C65424   8.147   2.995   8.039 -1.1754 -0.9427  0.4115
  475MOL0     C65425   8.007   2.957   8.095  0.8192 -0.3223 -0.0155
  475MOL0     C65426   7.998   2.990   8.240 -0.6489 -0.9527  0.2833
  475MOL0     C65427   7.850   2.975   8.295  0.0910  0.0805 -0.2738
  475MOL0     C65428   7.822   3.098   8.389 -0.6373 -0.5090  0.1761
  475MOL0     N65429   7.681   3.114   8.409 -0.2170  0.2888 -0.3892
  475MOL0     C65430   7.600   3.036   8.487  0.7562 -0.4643  0.7187
  475MOL0     C65431   7.474   3.079   8.454  0.0838 -0.3487  0.3042
  475MOL0     C65432   7.349   3.031   8.527  0.2703  0.5458 -0.2660
  475MOL0     C65433   7.252   3.149   8.534 -1.4562 -0.0012  0.0878
  475MOL0     C65434   7.120   3.096   8.581  0.4061  0.0834 -0.6772
  475MOL0     C65435   7.033   3.213   8.634  0.0910  0.4692 -0.3345
  475MOL0     O65436   7.045   3.330   8.561 -0.5509  0.3979  0.6454
  475MOL0     C65437   7.005   3.450   8.616 -0.0019 -0.2820 -0.0845
  475MOL0     C65438   6.961   3.474   8.747 -0.1169 -0.6184 -0.0419
  475MOL0     C65439   6.926   3.602   8.798  0.0140 -0.1168  0.3898
  475MOL0     C65440   6.894   3.609   8.947 -0.2265 -0.9524 -0.3702
  475MOL0     C65441   6.934   3.714   8.709 -0.2566 -0.7449 -0.1082
  475MOL0     C65442   6.932   3.855   8.742  0.4773 -0.1738 -0.5445
  475MOL0     O65443   7.020   3.939   8.684 -0.2159  1.0252 -0.1245
  475MOL0     C65444   7.026   4.059   8.743  1.1981  0.9149 -0.3350
  475MOL0     C65445   6.912   4.143   8.736 -0.1834  0.9200  1.3265
  475MOL0     C65446   6.918   4.262   8.795 -0.0023  0.4664  0.2287
  475MOL0     C65447   7.024   4.310   8.879  0.1740  0.5931  0.5352
  475MOL0     O65448   7.015   4.419   8.958 -0.1817 -0.9136 -0.5735
  475MOL0     C65449   6.881   4.470   8.973  0.4870 -0.2275 -0.1687
  475MOL0     C65450   6.882   4.568   9.093  0.6665  0.4441  0.5723
  475MOL0     C65451   6.864   4.716   9.047  0.0956  0.6674 -0.3943
  475MOL0     C65452   6.969   4.814   9.081 -0.4060  0.5602 -0.4972
  475MOL0     C65453   6.920   4.956   9.037  0.3623 -0.1834  0.3919
  475MOL0     C65454   7.006   5.071   9.041  0.0629  0.8077 -0.4760
  475MOL0     C65455   6.940   5.207   9.006 -0.4625 -0.9670 -0.7201
  475MOL0     C65456   6.875   5.272   9.128  0.8421  0.1456 -0.4426
  475MOL0    Cl65457   6.992   5.314   9.256  0.1996 -0.1374  0.0543
  475MOL0     C65458   7.134   4.226   8.876 -0.1862 -0.1248  0.2116
  475MOL0     C65459   7.137   4.097   8.812 -0.4712  0.5516  0.0528
  475MOL0     O65460   6.850   3.878   8.824 -0.1173 -0.7172  0.0774
  475MOL0     C65461   6.975   3.685   8.577  0.2127 -0.2780  0.2221
  475MOL0     C65462   7.011   3.560   8.531 -0.2186  0.4973 -0.7883
  475MOL0     N65463   7.477   3.174   8.360  0.5817 -0.9853  0.5909
  475MOL0     N65464   7.608   3.195   8.333  0.3789  0.2796 -0.7485
  475MOL0     C65465   8.614   2.979   7.465 -1.1925  0.2529 -0.1391
  475MOL0     C65466   8.653   2.985   7.332  0.2410  0.7157  0.2189
  475MOL0     C65467   8.735   2.970   6.895 -0.5711  0.1638  0.3698
  475MOL0     C65468   8.644   2.891   6.831 -0.1464 -0.1269  0.4891
  475MOL0     C65469   8.659   2.879   6.694  1.0503 -0.2454 -0.0451
  475MOL0     C65470   8.758   2.932   6.623  0.6405 -0.0140 -0.0281
  475MOL0     O65471   8.741   2.924   6.487  0.8090  0.1726 -1.2865
  475MOL0     C65472   8.828   2.998   6.399 -0.5227 -0.5130  0.4511
  475MOL0     C65473   8.952   2.914   6.363 -0.7932  0.2571 -0.2632
  475MOL0     C65474   9.004   2.970   6.231 -0.2528  0.4229  0.3420
  475MOL0     C65475   9.128   2.903   6.195 -1.5131 -0.0851  0.0839
  475MOL0     C65476   9.205   2.986   6.095 -0.3368  0.0994 -0.3845
  475MOL0     C65477   9.276   3.040   6.014  0.3368 -0.0046  0.9271
  475MOL0     C65478   8.858   3.003   6.682  0.3062 -0.1843 -0.8070
  475MOL0     C65479   8.850   3.014   6.825 -0.2432  0.2828  0.4049
  475MOL0     C65480   8.974   3.074   6.891  0.9177  0.7197 -0.1703
  475MOL0     H65481   8.364   2.895   7.185  0.6395 -3.4191  0.3412
  475MOL0     H65482   8.292   2.914   7.436 -0.0546 -3.6473 -1.0050
  475MOL0     H65483   8.266   2.864   7.650 -1.6756 -0.1096 -0.7301
  475MOL0     H65484   8.253   3.041   7.614  1.2372  0.4996  1.5037
  475MOL0     H65485   8.357   2.950   7.882 -2.2334 -0.1740  2.2193
  475MOL0     H65486   8.305   3.110   7.833  3.1960 -0.4583  4.3963
  475MOL0     H65487   8.063   3.036   7.853  2.0824  1.3558  1.1187
  475MOL0     H65488   8.137   2.871   7.860 -2.6585 -0.5916 -0.0062
  475MOL0     H65489   8.220   2.927   8.084 -0.2485 -2.0330 -2.4573
  475MOL0     H65490   8.175   3.098   8.064  0.6930 -1.7298  1.8170
  475MOL0     H65491   7.981   2.851   8.084  1.7881 -0.3576 -2.8047
  475MOL0     H65492   7.931   3.013   8.040  0.9689 -0.3369 -0.2364
  475MOL0     H65493   8.073   2.925   8.286  0.4543  0.4327  0.5124
  475MOL0     H65494   8.034   3.090   8.265 -1.4748 -0.6461  0.2803
  475MOL0     H65495   7.841   2.879   8.348  0.4319  0.8252  1.1711
  475MOL0     H65496   7.790   2.976   8.203  1.0703 -1.2632 -0.9817
  475MOL0     H65497   7.896   3.098   8.470  1.5147  0.9151 -1.6820
  475MOL0     H65498   7.852   3.185   8.331  2.7279 -0.9343  1.0803
  475MOL0     H65499   7.628   2.957   8.556 -1.6012  1.5457  4.2530
  475MOL0     H65500   7.381   3.005   8.628 -2.9960 -1.1973  0.4452
  475MOL0     H65501   7.295   2.948   8.481 -0.1682  0.2856  0.6991
  475MOL0     H65502   7.301   3.228   8.592 -0.3853 -0.8189  0.3176
  475MOL0     H65503   7.239   3.195   8.436  0.2800 -1.1238 -0.7072
  475MOL0     H65504   7.053   3.056   8.504  0.9577  1.9178 -2.2059
  475MOL0     H65505   7.142   3.024   8.659  1.8270  0.2827 -0.8783
  475MOL0     H65506   6.930   3.177   8.643  0.6910 -1.3268 -0.1679
  475MOL0     H65507   7.080   3.223   8.732  1.1954 -0.5438 -0.7369
  475MOL0     H65508   6.946   3.382   8.803  1.6060 -0.6582  0.4044
  475MOL0     H65509   6.790   3.641   8.963 -0.6154 -1.1311 -2.2782
  475MOL0     H65510   6.959   3.683   8.993  0.1633 -1.4567 -0.1089
  475MOL0     H65511   6.911   3.512   8.996 -2.1730 -1.6761 -0.9917
  475MOL0     H65512   6.822   4.120   8.681 -0.0450  0.4013  1.3111
  475MOL0     H65513   6.840   4.327   8.758  1.0005  0.5882 -1.8290
  475MOL0     H65514   6.853   4.526   8.884 -0.5528 -0.8539 -0.2540
  475MOL0     H65515   6.807   4.391   8.987 -0.2645  0.5601  0.4326
  475MOL0     H65516   6.796   4.557   9.160  0.3903 -1.0522  0.0129
  475MOL0     H65517   6.973   4.551   9.152  2.3236  2.4700 -1.2452
  475MOL0     H65518   6.765   4.738   9.089 -0.6655 -0.9883 -1.2440
  475MOL0     H65519   6.879   4.711   8.939 -2.9451  0.2886 -0.8963
  475MOL0     H65520   7.061   4.786   9.029 -2.4940  0.0059 -4.2123
  475MOL0     H65521   6.981   4.816   9.190 -3.0653  0.2910 -0.1332
  475MOL0     H65522   6.877   4.943   8.937 -0.7714 -1.0715  0.9572
  475MOL0     H65523   6.834   4.975   9.101 -0.2855 -0.2312 -0.4365
  475MOL0     H65524   7.085   5.062   8.966  3.2057  1.3400  2.5590
  475MOL0     H65525   7.057   5.072   9.137  0.8099  0.6034 -0.8592
  475MOL0     H65526   6.874   5.202   8.919 -0.9967 -1.1276 -0.3095
  475MOL0     H65527   7.015   5.281   8.977 -0.7007 -1.0557 -1.5791
  475MOL0     H65528   6.806   5.203   9.176  1.0276 -0.9580 -1.6933
  475MOL0     H65529   6.823   5.359   9.085  1.6282  0.3393 -1.0143
  475MOL0     H65530   7.228   4.254   8.922  0.2358  0.5143 -0.9936
  475MOL0     H65531   7.228   4.039   8.827 -0.3695  0.5917 -0.3879
  475MOL0     H65532   6.976   3.772   8.512  0.2272  0.5388  1.2963
  475MOL0     H65533   7.051   3.544   8.431 -1.3361 -0.1371 -1.1510
  475MOL0     H65534   8.683   3.005   7.545  0.0254 -3.2834  0.1525
  475MOL0     H65535   8.761   2.998   7.323  1.1567 -3.2252  2.9541
  475MOL0     H65536   8.559   2.853   6.887 -0.7938 -2.6287 -1.9556
  475MOL0     H65537   8.570   2.833   6.652 -1.4050  1.9933  2.2312
  475MOL0     H65538   8.769   3.015   6.308  0.8200  0.9458 -0.2034
  475MOL0     H65539   8.836   3.102   6.433  0.2757 -0.1200 -0.8518
  475MOL0     H65540   8.939   2.806   6.355  1.1496  0.0617 -1.3577
  475MOL0     H65541   9.031   2.918   6.439  2.6154  0.2675 -3.5264
  475MOL0     H65542   8.931   2.935   6.157 -0.5798  4.6635 -1.5797
  475MOL0     H65543   9.009   3.078   6.221 -1.9798  0.3393 -2.7981
  475MOL0     H65544   9.120   2.801   6.158  2.8612 -0.3529 -0.5417
  475MOL0     H65545   9.193   2.906   6.283  0.5722 -0.2202 -1.3834
  475MOL0     H65546   9.352   3.084   5.953 -1.0220  2.4253  0.8555
  475MOL0     H65547   8.940   3.056   6.635 -0.2070  2.0930  0.6551
  475MOL0     H65548   9.060   3.075   6.823  0.6685 -2.4910 -0.6972
  475MOL0     H65549   8.956   3.169   6.942 -1.9457 -0.0468  0.4198
  475MOL0     H65550   8.997   3.010   6.976  2.4606  0.9325 -0.4051
  476MOL0     O65551   9.846   7.120  11.035  0.3105  0.9825  0.2345
  476MOL0     C65552   9.837   7.145  11.155  0.4946  0.3637 -0.3642
  476MOL0     O65553   9.745   7.077  11.240 -0.1281 -0.7021  0.0699
  476MOL0     C65554   9.658   6.989  11.185 -0.4908 -0.0717  0.1049
  476MOL0     C65555   9.697   6.856  11.181 -0.0672 -0.8662  0.1225
  476MOL0     C65556   9.610   6.757  11.121 -0.2798  1.0264  0.3277
  476MOL0     C65557   9.486   6.803  11.063  0.5735 -0.5949 -0.1225
  476MOL0     O65558   9.397   6.700  11.033 -0.8914 -0.0727  0.8199
  476MOL0     C65559   9.276   6.727  10.960  0.8022  0.3473 -0.8607
  476MOL0     C65560   9.142   6.720  11.043  0.0393  0.0103 -0.0022
  476MOL0     C65561   9.011   6.732  10.957  0.0815 -0.2443  0.6055
  476MOL0     C65562   8.946   6.871  10.966 -0.5558 -0.1365  0.8575
  476MOL0     C65563   8.819   6.886  10.877  0.7089 -0.3353 -0.0463
  476MOL0     C65564   8.846   6.894  10.718  0.1557  0.0494 -0.8956
  476MOL0     C65565   8.950   6.997  10.676  0.9668  0.3637  0.9107
  476MOL0     C65566   8.935   7.013  10.519  0.1174  0.2065  0.0633
  476MOL0     N65567   9.004   7.127  10.462  0.4206  0.4012 -0.9020
  476MOL0     C65568   8.977   7.256  10.489  0.0518 -0.8625 -0.0066
  476MOL0     C65569   9.081   7.327  10.445 -0.6574 -0.5580 -0.0796
  476MOL0     C65570   9.097   7.476  10.465  0.2659 -0.2686  0.8946
  476MOL0     C65571   9.178   7.516  10.586 -0.1449  0.0708 -0.0193
  476MOL0     C65572   9.188   7.672  10.585  0.9084  0.6796 -0.7664
  476MOL0     C65573   9.283   7.722  10.691 -0.2016 -0.9441  0.4351
  476MOL0     O65574   9.242   7.682  10.818  0.1109 -0.5659 -0.2011
  476MOL0     C65575   9.290   7.751  10.926  1.2816  0.0914  0.1347
  476MOL0     C65576   9.227   7.727  11.045 -0.3906 -0.2526 -0.5237
  476MOL0     C65577   9.273   7.769  11.173 -0.1657 -0.1136 -0.1522
  476MOL0     C65578   9.181   7.749  11.288  0.0715 -0.5705 -0.3715
  476MOL0     C65579   9.389   7.855  11.176  0.3981  0.2293 -0.3091
  476MOL0     C65580   9.449   7.920  11.296  0.3251  0.6321 -0.1842
  476MOL0     O65581   9.520   8.038  11.278  0.4204 -0.1953 -0.0401
  476MOL0     C65582   9.543   8.114  11.393  0.2938  0.3244  0.0223
  476MOL0     C65583   9.452   8.149  11.495  0.2811  0.0990 -0.0505
  476MOL0     C65584   9.490   8.228  11.607  0.6202  0.0260 -0.8840
  476MOL0     C65585   9.622   8.265  11.623 -0.4501  0.1181 -0.1443
  476MOL0     O65586   9.672   8.351  11.719  0.8970  0.1265 -1.1681
  476MOL0     C65587   9.576   8.395  11.822  0.4273  0.5255  0.5362
  476MOL0     C65588   9.658   8.484  11.915  0.4099 -0.0825 -0.3888
  476MOL0     C65589   9.741   8.595  11.855  0.0587  0.1735  0.2577
  476MOL0     C65590   9.795   8.705  11.956  0.3373 -0.9090 -0.7381
  476MOL0     C65591   9.910   8.655  12.046 -0.6053 -0.6561  0.2915
  476MOL0     C65592  10.038   8.631  11.953 -0.3280 -0.3471  1.1271
  476MOL0     C65593  10.148   8.727  11.990  0.2198 -1.0639  0.3411
  476MOL0     C65594  10.273   8.703  11.909  0.1416  0.4041  0.0012
  476MOL0    Cl65595  10.325   8.538  11.947  0.1334 -0.5949 -0.4241
  476MOL0     C65596   9.714   8.238  11.522  0.1607 -0.6367 -0.0263
  476MOL0     C65597   9.676   8.167  11.405  0.1304 -0.0609 -0.5807
  476MOL0     O65598   9.433   7.866  11.406 -0.2029  0.2221  0.2412
  476MOL0     C65599   9.448   7.886  11.056 -0.4460  0.0218 -0.4298
  476MOL0     C65600   9.398   7.838  10.932  1.9053 -0.3976  1.0632
  476MOL0     N65601   9.163   7.251  10.374  0.3374  0.2655  0.0254
  476MOL0     N65602   9.119   7.128  10.377 -0.5858  0.2156 -0.7035
  476MOL0     C65603   9.448   6.932  11.070 -0.1688  0.2993 -0.6607
  476MOL0     C65604   9.536   7.025  11.135  0.0751 -0.3213 -0.4619
  476MOL0     C65605   9.942   7.221  11.225 -0.2528 -0.6730  0.0426
  476MOL0     C65606   9.901   7.329  11.291 -0.2155  0.2788 -0.2575
  476MOL0     C65607   9.997   7.407  11.366 -0.1961 -1.5085  0.8020
  476MOL0     C65608  10.130   7.376  11.388  0.0812  0.9004 -0.2605
  476MOL0     O65609  10.221   7.432  11.473 -0.1441  0.6536 -0.7127
  476MOL0     C65610  10.188   7.550  11.544  0.6084 -0.6619 -0.0024
  476MOL0     C65611  10.318   7.598  11.608 -0.4775  0.3407  1.0539
  476MOL0     C65612  10.312   7.744  11.659 -0.1756 -0.2039  0.5333
  476MOL0     C65613  10.449   7.777  11.710 -0.4194 -0.4754  0.0076
  476MOL0     C65614  10.477   7.888  11.804  0.4380 -0.1486  0.3120
  476MOL0     C65615  10.513   7.983  11.867  0.1619  0.4298  0.1167
  476MOL0     C65616  10.164   7.255  11.316 -0.9941  0.0094  0.6738
  476MOL0     C65617  10.080   7.181  11.236  0.7154  0.1048  0.2265
  476MOL0     C65618  10.138   7.060  11.171  0.7412 -1.3496 -0.8546
  476MOL0     H65619   9.796   6.822  11.208 -0.2223 -1.5620 -0.1504
  476MOL0     H65620   9.649   6.655  11.117  1.1466  1.5764 -1.0968
  476MOL0     H65621   9.268   6.642  10.892 -0.4799 -0.8059  0.6577
  476MOL0     H65622   9.279   6.822  10.904 -0.1156 -0.4716 -2.3709
  476MOL0     H65623   9.136   6.630  11.104 -2.1452 -1.0650 -1.6328
  476MOL0     H65624   9.163   6.799  11.115  0.6418  3.1625 -3.3125
  476MOL0     H65625   9.045   6.705  10.857  0.9208 -0.1544  0.8498
  476MOL0     H65626   8.952   6.644  10.984  1.9739 -2.4397 -1.8095
  476MOL0     H65627   8.927   6.897  11.070  0.3896 -0.2720  1.0708
  476MOL0     H65628   9.017   6.949  10.935 -0.1096 -1.7827 -2.8917
  476MOL0     H65629   8.780   6.982  10.911 -0.0977 -1.1946  1.5482
  476MOL0     H65630   8.746   6.808  10.900  0.8208  0.0946  1.9336
  476MOL0     H65631   8.868   6.801  10.665 -1.1993 -0.4386 -0.6412
  476MOL0     H65632   8.752   6.939  10.686  0.5083  0.8266 -0.8655
  476MOL0     H65633   9.053   6.964  10.691  0.4928 -2.3498 -1.0153
  476MOL0     H65634   8.917   7.091  10.720 -0.2170  0.3429  0.0970
  476MOL0     H65635   8.979   6.926  10.470  2.0838 -0.1904  2.3760
  476MOL0     H65636   8.830   7.019  10.487  0.0658 -2.2742 -0.5002
  476MOL0     H65637   8.884   7.282  10.539 -0.2296  0.1364 -1.0057
  476MOL0     H65638   8.997   7.520  10.460  0.3684 -0.1549 -2.2847
  476MOL0     H65639   9.148   7.520  10.379  1.5408  1.7065  2.5629
  476MOL0     H65640   9.127   7.487  10.679 -2.2556 -0.3403 -1.2373
  476MOL0     H65641   9.282   7.482  10.591 -0.0523  0.1189 -1.3674
  476MOL0     H65642   9.222   7.716  10.491  2.9438  1.6417  0.3533
  476MOL0     H65643   9.090   7.717  10.602  1.0860  0.0457  2.7034
  476MOL0     H65644   9.379   7.675  10.671 -0.9390 -2.0238 -0.7017
  476MOL0     H65645   9.285   7.831  10.698 -2.1615 -0.9681  3.8098
  476MOL0     H65646   9.143   7.658  11.041 -2.4966  1.8166  2.7557
  476MOL0     H65647   9.102   7.676  11.270 -0.4835  0.2746 -1.4744
  476MOL0     H65648   9.138   7.846  11.315 -1.7011 -1.0904 -1.1915
  476MOL0     H65649   9.236   7.700  11.369  2.0840 -2.2231 -2.5850
  476MOL0     H65650   9.350   8.114  11.482  0.4795  0.2396 -2.3628
  476MOL0     H65651   9.414   8.248  11.682  1.9431 -0.6298  0.7177
  476MOL0     H65652   9.500   8.457  11.773  0.9211  0.6681 -0.0524
  476MOL0     H65653   9.524   8.316  11.879 -3.3722  1.1549 -1.7128
  476MOL0     H65654   9.589   8.521  11.992 -2.9911 -2.2343 -2.1751
  476MOL0     H65655   9.721   8.410  11.967 -1.2276 -0.9737  0.4037
  476MOL0     H65656   9.677   8.638  11.778  0.2148 -2.8211 -1.7272
  476MOL0     H65657   9.825   8.546  11.804 -0.7501 -1.2442  0.2270
  476MOL0     H65658   9.715   8.745  12.019  1.0506 -0.9084  0.1951
  476MOL0     H65659   9.830   8.794  11.903 -1.9491 -0.2247 -1.1969
  476MOL0     H65660   9.923   8.731  12.124 -1.3270 -0.6481  0.4061
  476MOL0     H65661   9.891   8.555  12.084 -1.1274  0.1364  2.1915
  476MOL0     H65662  10.004   8.665  11.855  0.6680  1.8913  1.5026
  476MOL0     H65663  10.067   8.525  11.949 -1.6726 -0.8253  2.8108
  476MOL0     H65664  10.172   8.717  12.096 -1.2942  0.3242  0.8642
  476MOL0     H65665  10.115   8.829  11.968  0.1785 -1.4914 -1.7637
  476MOL0     H65666  10.356   8.766  11.941 -1.0744  1.2147  1.6901
  476MOL0     H65667  10.251   8.710  11.802 -2.3112 -1.4687  0.2865
  476MOL0     H65668   9.818   8.263  11.537 -0.4578 -0.2305  5.4252
  476MOL0     H65669   9.745   8.151  11.323 -0.0881 -1.0142 -0.5830
  476MOL0     H65670   9.539   7.946  11.056  0.5239 -1.3714 -1.3972
  476MOL0     H65671   9.445   7.867  10.839 -1.9206  0.0390 -0.9434
  476MOL0     H65672   9.354   6.975  11.035  0.9703  1.8842 -1.9307
  476MOL0     H65673   9.513   7.131  11.142 -1.2197 -0.4737 -1.8643
  476MOL0     H65674   9.795   7.352  11.288 -0.4671 -0.9292 -1.9351
  476MOL0     H65675   9.959   7.493  11.421  1.2235 -1.4899  1.8181
  476MOL0     H65676  10.138   7.623  11.480 -0.7946 -1.3899  0.2162
  476MOL0     H65677  10.122   7.529  11.629 -2.1282  3.0908 -0.9278
  476MOL0     H65678  10.403   7.587  11.539 -1.1462  0.5210  0.1818
  476MOL0     H65679  10.339   7.519  11.681 -3.0611 -1.8002 -0.3227
  476MOL0     H65680  10.287   7.817  11.581  2.0578  2.6621  2.2830
  476MOL0     H65681  10.236   7.751  11.738  1.1797 -0.7445  1.9206
  476MOL0     H65682  10.517   7.804  11.629 -0.3430  2.0933  0.8477
  476MOL0     H65683  10.494   7.688  11.756  0.3435 -0.4431 -0.6534
  476MOL0     H65684  10.535   8.072  11.922 -0.3312  0.7663 -0.2264
  476MOL0     H65685  10.267   7.221  11.315 -0.9611  0.0595 -1.5262
  476MOL0     H65686  10.214   7.006  11.229  0.6587 -1.9256 -1.2731
  476MOL0     H65687  10.054   6.999  11.136 -0.6570  1.0578 -1.9919
  476MOL0     H65688  10.186   7.095  11.080  2.5057  1.9308  1.1224
  477MOL0     O65689   1.759   7.998   3.561 -0.3480 -0.0357  0.0322
  477MOL0     C65690   1.820   7.924   3.486  0.3055  0.5758  0.8316
  477MOL0     O65691   1.865   7.791   3.519  0.1572  0.4772 -0.2808
  477MOL0     C65692   1.863   7.744   3.652 -0.6188  0.0960 -0.2658
  477MOL0     C65693   1.773   7.640   3.682  1.0393  0.2861 -0.8563
  477MOL0     C65694   1.768   7.591   3.810 -0.9774  0.3358 -0.9628
  477MOL0     C65695   1.867   7.632   3.907  0.4747  0.7094  0.5574
  477MOL0     O65696   1.872   7.572   4.036  0.2383 -0.4201 -0.4223
  477MOL0     C65697   1.853   7.665   4.143  0.1596 -0.8393 -0.5333
  477MOL0     C65698   1.767   7.597   4.256 -0.5527 -1.2671  1.4117
  477MOL0     C65699   1.834   7.478   4.319 -0.2722 -0.6240 -1.0619
  477MOL0     C65700   1.775   7.436   4.450 -0.2354 -0.6667 -0.5287
  477MOL0     C65701   1.884   7.362   4.523 -0.5750  0.2822 -0.3377
  477MOL0     C65702   1.814   7.292   4.641 -0.4379 -0.1643 -0.6087
  477MOL0     C65703   1.909   7.234   4.754  0.7466  0.1871  0.1923
  477MOL0     C65704   2.012   7.129   4.701  0.7047 -0.6788 -0.7357
  477MOL0     N65705   2.084   7.049   4.800  0.4854 -0.5095 -0.3258
  477MOL0     C65706   2.029   6.965   4.899 -0.5221  0.3689  0.3523
  477MOL0     C65707   2.140   6.927   4.969  0.5885  0.8217 -0.3083
  477MOL0     C65708   2.142   6.832   5.084  0.6906  0.7163  0.1266
  477MOL0     C65709   2.260   6.846   5.178 -0.5401 -0.0301 -1.1517
  477MOL0     C65710   2.272   6.981   5.250 -0.2817 -0.3022  0.6576
  477MOL0     C65711   2.369   6.980   5.360 -0.1168 -0.1264  0.2869
  477MOL0     O65712   2.508   6.961   5.314 -0.4967 -0.8950 -0.2799
  477MOL0     C65713   2.558   7.061   5.235 -0.3847  1.3298  0.4470
  477MOL0     C65714   2.522   7.198   5.226  0.3946 -0.1559  0.7582
  477MOL0     C65715   2.589   7.292   5.149  0.1073 -0.3632  0.6258
  477MOL0     C65716   2.551   7.439   5.157 -0.1661 -0.6114  0.0535
  477MOL0     C65717   2.698   7.236   5.074  0.0779  0.0842  1.1778
  477MOL0     C65718   2.789   7.323   4.989  0.2044  0.2113 -0.3477
  477MOL0     O65719   2.918   7.278   4.954  0.0311  0.9627 -0.3320
  477MOL0     C65720   3.020   7.364   4.928  1.2433 -1.3631  0.3362
  477MOL0     C65721   3.017   7.506   4.935 -0.2841  0.4610 -0.3587
  477MOL0     C65722   3.123   7.586   4.887 -0.3692 -0.6727 -0.3720
  477MOL0     C65723   3.238   7.539   4.824  0.8269  0.2359 -0.5678
  477MOL0     O65724   3.340   7.628   4.798  0.0521  0.2888  0.4553
  477MOL0     C65725   3.353   7.651   4.659  0.3933 -0.2768  0.5911
  477MOL0     C65726   3.477   7.735   4.649  0.5314 -0.2776  0.8106
  477MOL0     C65727   3.442   7.880   4.678 -0.1516  0.2033  0.2694
  477MOL0     C65728   3.566   7.972   4.684  0.1786 -1.3498 -0.1243
  477MOL0     C65729   3.521   8.115   4.730  0.3515  0.9290  0.3992
  477MOL0     C65730   3.624   8.214   4.769  0.1834  0.5650 -0.4978
  477MOL0     C65731   3.729   8.237   4.662  0.4766 -0.5551  0.8238
  477MOL0     C65732   3.780   8.376   4.687 -0.2404  0.4679  1.1271
  477MOL0    Cl65733   3.680   8.514   4.619  0.5015 -0.0388  0.0618
  477MOL0     C65734   3.234   7.400   4.809 -0.1156 -0.2166  0.1606
  477MOL0     C65735   3.130   7.312   4.864  0.1453 -0.0548  0.0058
  477MOL0     O65736   2.738   7.423   4.938 -0.1808  0.3323  0.0767
  477MOL0     C65737   2.731   7.104   5.070 -0.1722  0.2090  0.1509
  477MOL0     C65738   2.667   7.020   5.166  0.1172  0.1514  0.3107
  477MOL0     N65739   2.253   6.979   4.908 -0.0660  0.5808  0.2863
  477MOL0     N65740   2.220   7.054   4.808 -0.3914  0.1304  0.0062
  477MOL0     C65741   1.960   7.720   3.875 -0.0632 -0.4141  0.3874
  477MOL0     C65742   1.962   7.779   3.749  0.4110  1.0770 -1.1351
  477MOL0     C65743   1.859   7.980   3.354 -0.2933  0.0670 -0.4026
  477MOL0     C65744   1.830   7.907   3.235  0.2009 -0.3919  0.2478
  477MOL0     C65745   1.874   7.951   3.110 -1.0224 -0.2544 -0.0463
  477MOL0     C65746   1.957   8.072   3.101  0.0291  0.6283  0.0559
  477MOL0     O65747   2.012   8.125   2.991  0.3887  0.1208  0.3870
  477MOL0     C65748   1.943   8.090   2.874  0.4643  0.2287 -0.8301
  477MOL0     C65749   2.020   7.992   2.781  0.4383  1.4131 -0.5126
  477MOL0     C65750   2.127   8.053   2.695  0.4502  0.3373  0.8747
  477MOL0     C65751   2.250   8.086   2.772 -0.2600  0.7919 -0.0488
  477MOL0     C65752   2.353   8.133   2.681 -0.8154  0.5717  0.5647
  477MOL0     C65753   2.449   8.175   2.609  0.7030 -0.3826 -0.4359
  477MOL0     C65754   1.975   8.147   3.218  1.2173  1.3037  0.4752
  477MOL0     C65755   1.934   8.100   3.346  0.2180 -0.3248  0.6474
  477MOL0     C65756   1.985   8.170   3.468 -0.4458 -0.0635 -0.0631
  477MOL0     H65757   1.710   7.622   3.595  1.6904 -0.6531 -1.1381
  477MOL0     H65758   1.683   7.531   3.842 -0.2365  1.3714  3.8539
  477MOL0     H65759   1.800   7.759   4.121  0.8196 -1.0646 -3.5504
  477MOL0     H65760   1.949   7.692   4.187 -2.1485  1.5338  3.6638
  477MOL0     H65761   1.736   7.664   4.338  0.9733  0.0026  0.9905
  477MOL0     H65762   1.674   7.561   4.210 -2.1775  1.5733  2.2057
  477MOL0     H65763   1.830   7.395   4.248  1.0229 -2.8749  1.3497
  477MOL0     H65764   1.939   7.508   4.325 -0.9910  2.2657 -1.3045
  477MOL0     H65765   1.739   7.520   4.510 -2.3532  0.1826 -2.8050
  477MOL0     H65766   1.689   7.371   4.431 -1.3731  1.1883 -2.0820
  477MOL0     H65767   1.972   7.418   4.554 -0.9835  0.4314  0.5593
  477MOL0     H65768   1.929   7.289   4.454 -0.4619  0.2536 -0.2338
  477MOL0     H65769   1.744   7.363   4.685  0.2383  1.4570 -2.0537
  477MOL0     H65770   1.741   7.217   4.608 -2.4985  0.2636  2.5360
  477MOL0     H65771   1.849   7.191   4.835 -2.1221 -0.1078 -1.8992
  477MOL0     H65772   1.964   7.316   4.801 -2.2875  0.1180  4.4238
  477MOL0     H65773   1.962   7.060   4.632 -0.8844 -0.3260  0.0185
  477MOL0     H65774   2.089   7.188   4.650 -0.6105  0.8881 -1.0014
  477MOL0     H65775   1.924   6.958   4.924 -1.0799  3.1781 -0.8139
  477MOL0     H65776   2.144   6.730   5.044 -0.9089  0.8682 -0.4142
  477MOL0     H65777   2.046   6.837   5.135  0.7023 -1.7056  0.5309
  477MOL0     H65778   2.250   6.777   5.263 -1.7405 -0.4617 -1.6208
  477MOL0     H65779   2.354   6.816   5.132  0.7750 -0.7653  1.7410
  477MOL0     H65780   2.298   7.061   5.180  0.6940  0.7489  2.1579
  477MOL0     H65781   2.174   7.006   5.292  0.2869  1.0045  1.2803
  477MOL0     H65782   2.356   7.077   5.409 -2.5248 -1.2208  2.0505
  477MOL0     H65783   2.338   6.900   5.429 -1.7827  1.4126  1.4112
  477MOL0     H65784   2.439   7.232   5.288  0.3935 -2.3427  2.0724
  477MOL0     H65785   2.537   7.480   5.057  0.2781 -3.1606 -1.1397
  477MOL0     H65786   2.624   7.494   5.217  1.2975 -1.4623 -0.8961
  477MOL0     H65787   2.458   7.442   5.215 -0.3702  0.1897 -0.2937
  477MOL0     H65788   2.937   7.562   4.982  2.4259  3.2342  1.3248
  477MOL0     H65789   3.114   7.692   4.910 -1.8900 -0.6854 -0.8076
  477MOL0     H65790   3.369   7.559   4.602  1.2083  0.4297 -0.3670
  477MOL0     H65791   3.262   7.699   4.622  0.0087 -1.5831 -0.2190
  477MOL0     H65792   3.549   7.701   4.725  1.4231  0.4980  0.3363
  477MOL0     H65793   3.519   7.737   4.548  0.4490 -0.3721  0.7751
  477MOL0     H65794   3.398   7.873   4.778 -1.6751 -1.9619 -0.4903
  477MOL0     H65795   3.359   7.921   4.620  0.2572  1.2978  0.4314
  477MOL0     H65796   3.628   7.972   4.594  1.2939 -0.8581  0.6352
  477MOL0     H65797   3.630   7.938   4.765  2.6391 -2.0701 -2.2473
  477MOL0     H65798   3.452   8.157   4.656  1.6361  1.3250 -0.6287
  477MOL0     H65799   3.465   8.106   4.823 -1.4119 -2.5573 -0.8286
  477MOL0     H65800   3.680   8.174   4.854 -1.6209  0.8116  0.8542
  477MOL0     H65801   3.562   8.303   4.782  0.1662  0.1633  2.8285
  477MOL0     H65802   3.681   8.244   4.564 -1.3882 -3.0200  1.4679
  477MOL0     H65803   3.809   8.162   4.659 -1.4562 -2.7361 -2.4810
  477MOL0     H65804   3.878   8.387   4.640  0.1329 -0.7219  1.6078
  477MOL0     H65805   3.790   8.390   4.795  0.1861 -0.6473  1.2399
  477MOL0     H65806   3.315   7.365   4.746 -2.6098 -0.4452 -3.2169
  477MOL0     H65807   3.137   7.205   4.849 -0.9366 -0.4300  1.9145
  477MOL0     H65808   2.816   7.058   5.021 -0.1458 -0.6042  0.9192
  477MOL0     H65809   2.701   6.917   5.171 -2.7469 -0.8474  1.7043
  477MOL0     H65810   2.032   7.744   3.953 -1.2413 -0.1000  1.4027
  477MOL0     H65811   2.042   7.844   3.715  1.2769 -0.6846 -2.5846
  477MOL0     H65812   1.782   7.810   3.247 -2.0201  0.6229  0.1015
  477MOL0     H65813   1.863   7.895   3.018 -0.2415 -1.5250  0.5981
  477MOL0     H65814   1.838   8.067   2.894  0.5902 -1.0886 -1.5019
  477MOL0     H65815   1.935   8.189   2.828 -1.0169  0.7838  0.5677
  477MOL0     H65816   1.961   7.941   2.703  3.0798 -0.3087 -1.5433
  477MOL0     H65817   2.052   7.912   2.849 -0.7291  1.4909  0.1602
  477MOL0     H65818   2.165   7.984   2.619  2.3801  0.7198  1.4199
  477MOL0     H65819   2.089   8.140   2.642 -0.4841 -1.4835 -1.6241
  477MOL0     H65820   2.295   8.003   2.827 -1.6545 -1.2609 -1.8051
  477MOL0     H65821   2.233   8.165   2.845  1.2695  0.2801  0.9051
  477MOL0     H65822   2.532   8.206   2.550  0.8499  1.4672  0.6883
  477MOL0     H65823   2.038   8.234   3.198  0.2060  1.8870 -0.2431
  477MOL0     H65824   2.047   8.256   3.442 -2.5699  1.5372 -0.1039
  477MOL0     H65825   1.898   8.204   3.524  1.7486  2.0453  2.2984
  477MOL0     H65826   2.038   8.103   3.536  0.9677 -0.5336 -1.5523
  478MOL0     O65827   8.454   7.940   4.730 -0.0308  0.5663  0.1578
  478MOL0     C65828   8.490   7.997   4.631 -0.0412 -0.7181  0.0764
  478MOL0     O65829   8.541   7.943   4.520 -0.2820  0.6572 -0.6383
  478MOL0     C65830   8.615   7.828   4.550  0.4689  0.5651  0.7917
  478MOL0     C65831   8.724   7.835   4.633  0.7401 -0.3848  0.3697
  478MOL0     C65832   8.800   7.716   4.659 -0.2792 -0.2248  0.2255
  478MOL0     C65833   8.775   7.595   4.585 -0.3006 -0.6151  0.0920
  478MOL0     O65834   8.843   7.477   4.607  0.6356 -0.6281 -0.2183
  478MOL0     C65835   8.968   7.478   4.536 -0.1464  0.1588  0.2509
  478MOL0     C65836   9.055   7.373   4.590  0.5932  1.1564 -0.1870
  478MOL0     C65837   9.098   7.393   4.727 -0.4270 -0.4741 -0.0795
  478MOL0     C65838   9.076   7.286   4.835  0.3449 -0.8775 -0.9508
  478MOL0     C65839   9.110   7.353   4.969 -0.0436  0.1676  0.2385
  478MOL0     C65840   9.262   7.342   4.993  0.0094  0.3374 -0.5185
  478MOL0     C65841   9.292   7.201   5.060 -0.1711  0.5955 -0.3585
  478MOL0     C65842   9.443   7.160   5.063 -0.3389 -0.0010  0.3451
  478MOL0     N65843   9.528   7.256   5.136  0.4950 -0.2356  0.6857
  478MOL0     C65844   9.615   7.357   5.089 -0.3789  0.7678 -0.7825
  478MOL0     C65845   9.650   7.420   5.207  0.2351 -0.6415  1.2283
  478MOL0     C65846   9.753   7.523   5.224  1.1367  0.2314 -0.8665
  478MOL0     C65847   9.887   7.466   5.272 -0.3265  0.5426  0.8224
  478MOL0     C65848   9.964   7.392   5.157 -0.3085  0.2323 -0.3904
  478MOL0     C65849  10.100   7.318   5.186  0.8378 -0.8921 -0.3663
  478MOL0     O65850  10.072   7.264   5.320  0.8004 -0.5012 -0.0062
  478MOL0     C65851  10.174   7.200   5.384  0.4825 -0.0173 -0.0519
  478MOL0     C65852  10.308   7.181   5.334  0.2444 -0.2860 -0.0936
  478MOL0     C65853  10.408   7.127   5.419 -0.3114 -0.0812 -0.4957
  478MOL0     C65854  10.547   7.134   5.361  0.1633  0.0060  0.1952
  478MOL0     C65855  10.365   7.060   5.550 -0.3838 -0.2263  0.9784
  478MOL0     C65856  10.458   6.976   5.635 -0.4868 -0.7815  0.0357
  478MOL0     O65857  10.413   6.917   5.750  0.4295  1.2173 -0.1823
  478MOL0     C65858  10.501   6.853   5.831  0.3089  0.2153  0.5553
  478MOL0     C65859  10.624   6.898   5.869 -0.3475 -0.6834 -0.1398
  478MOL0     C65860  10.703   6.824   5.947 -0.2432  0.6117 -0.1891
  478MOL0     C65861  10.673   6.690   5.987  0.7602 -0.2100 -0.2295
  478MOL0     O65862  10.759   6.620   6.072 -0.4972  0.5371 -0.0164
  478MOL0     C65863  10.712   6.494   6.134  0.0725 -0.3940  0.1740
  478MOL0     C65864  10.810   6.417   6.221  0.3700  0.2880  0.3448
  478MOL0     C65865  10.932   6.367   6.147 -0.5385  0.3033 -0.4761
  478MOL0     C65866  11.027   6.286   6.228  0.9701 -0.0966 -0.7119
  478MOL0     C65867  11.117   6.361   6.330  0.0186 -0.1052 -0.3137
  478MOL0     C65868  11.224   6.248   6.379  0.8318 -0.8660  0.4348
  478MOL0     C65869  11.334   6.310   6.463  0.3980  0.5578  0.0637
  478MOL0     C65870  11.421   6.208   6.542 -0.4462 -0.9720 -0.5057
  478MOL0    Cl65871  11.543   6.299   6.631 -0.0200 -0.3121 -0.3198
  478MOL0     C65872  10.547   6.646   5.952  0.7383  0.0194 -0.2319
  478MOL0     C65873  10.455   6.721   5.881 -0.5440  0.4031  0.3820
  478MOL0     O65874  10.567   6.951   5.579  0.6685 -0.7659  0.4129
  478MOL0     C65875  10.231   7.082   5.578 -0.3262  0.1907 -0.0305
  478MOL0     C65876  10.139   7.151   5.500 -0.0715  0.5416  0.4192
  478MOL0     N65877   9.581   7.352   5.309 -0.5307 -0.6482 -0.5525
  478MOL0     N65878   9.513   7.255   5.272 -0.1835  0.7833  0.2252
  478MOL0     C65879   8.660   7.595   4.504 -0.2145  0.3102 -0.0277
  478MOL0     C65880   8.586   7.710   4.485 -0.5799  0.8163  0.0275
  478MOL0     C65881   8.482   8.143   4.629  0.9279  0.8029  0.1804
  478MOL0     C65882   8.524   8.215   4.515 -0.2733 -0.1073  0.8559
  478MOL0     C65883   8.528   8.351   4.516 -0.4442 -0.0216 -0.0673
  478MOL0     C65884   8.470   8.433   4.612 -0.2797  0.0560 -0.3587
  478MOL0     O65885   8.468   8.564   4.592 -0.8195  0.0682  0.6130
  478MOL0     C65886   8.415   8.648   4.696  0.8186 -0.0821 -0.5929
  478MOL0     C65887   8.423   8.805   4.656 -0.8697  0.0301  0.6949
  478MOL0     C65888   8.564   8.846   4.586  1.3525 -0.3085  0.7590
  478MOL0     C65889   8.690   8.791   4.665  0.0058 -0.4131 -0.2741
  478MOL0     C65890   8.760   8.910   4.717  0.0794  0.1845 -0.1289
  478MOL0     C65891   8.824   9.000   4.778 -0.0727 -0.2781  0.2429
  478MOL0     C65892   8.426   8.365   4.724  0.6159 -0.3852  0.3776
  478MOL0     C65893   8.417   8.224   4.731  0.2849  0.7332 -0.0222
  478MOL0     C65894   8.349   8.158   4.848 -1.6253 -0.2309 -0.3894
  478MOL0     H65895   8.752   7.928   4.680 -0.9759  0.1930  0.3102
  478MOL0     H65896   8.891   7.710   4.718  0.1092 -2.5092 -0.5239
  478MOL0     H65897   9.018   7.576   4.538 -0.0716  0.1271 -0.0429
  478MOL0     H65898   8.937   7.464   4.432 -3.6449 -3.3276  1.5422
  478MOL0     H65899   9.003   7.280   4.566  0.0484  1.7185 -1.2501
  478MOL0     H65900   9.149   7.371   4.535  1.3882 -0.3043  1.1239
  478MOL0     H65901   9.206   7.413   4.724 -0.8786  2.1987 -1.3744
  478MOL0     H65902   9.059   7.487   4.767 -0.5905 -1.0052  1.0585
  478MOL0     H65903   8.970   7.261   4.827 -0.3750  1.5989  0.0138
  478MOL0     H65904   9.140   7.199   4.819  1.2913 -0.1161 -1.4089
  478MOL0     H65905   9.069   7.291   5.049  2.9445  0.6129  2.2999
  478MOL0     H65906   9.072   7.454   4.990  0.7070  0.3799  0.6173
  478MOL0     H65907   9.322   7.351   4.902 -1.2936 -0.0130 -1.4375
  478MOL0     H65908   9.285   7.419   5.067 -3.2957  0.7376  0.2511
  478MOL0     H65909   9.237   7.120   5.011 -0.5295 -0.4003  1.5908
  478MOL0     H65910   9.253   7.195   5.162 -2.0540  1.1848 -1.0080
  478MOL0     H65911   9.459   7.063   5.111 -0.7877  1.0385  2.7349
  478MOL0     H65912   9.480   7.147   4.960  0.6543 -1.3322  0.8402
  478MOL0     H65913   9.647   7.373   4.986  0.1763  1.0443 -0.5749
  478MOL0     H65914   9.716   7.604   5.288  3.7443  4.0388 -3.6762
  478MOL0     H65915   9.767   7.574   5.128 -2.9231 -1.6701 -2.6987
  478MOL0     H65916   9.948   7.553   5.298  1.0032  1.3949 -4.1867
  478MOL0     H65917   9.871   7.412   5.366 -1.9875  0.6432  0.6215
  478MOL0     H65918   9.895   7.318   5.114  0.0808 -1.0631  1.1127
  478MOL0     H65919   9.981   7.456   5.069 -1.4919 -0.0778 -0.8686
  478MOL0     H65920  10.124   7.246   5.108  1.3705 -1.0910 -0.0289
  478MOL0     H65921  10.186   7.386   5.186  1.4166 -1.5340  1.8311
  478MOL0     H65922  10.343   7.216   5.237  3.5415 -0.8961  0.7411
  478MOL0     H65923  10.631   7.145   5.430 -0.2874 -1.2037  0.9566
  478MOL0     H65924  10.552   7.207   5.280 -1.6691  0.3695  0.3603
  478MOL0     H65925  10.560   7.042   5.303 -0.3346 -2.6825  3.9821
  478MOL0     H65926  10.643   7.000   5.838 -1.6686  0.0527  1.3015
  478MOL0     H65927  10.797   6.871   5.976 -1.5898  3.2139  0.2253
  478MOL0     H65928  10.624   6.523   6.191  0.8080 -0.3750  1.3229
  478MOL0     H65929  10.676   6.418   6.064 -3.5330  0.3120  1.0547
  478MOL0     H65930  10.846   6.472   6.309 -0.4479  0.3476  0.6481
  478MOL0     H65931  10.758   6.337   6.275 -0.3410  0.1479 -0.5391
  478MOL0     H65932  10.988   6.446   6.096 -0.0158  1.2895  1.5150
  478MOL0     H65933  10.903   6.303   6.064  2.3095 -1.5983 -0.1360
  478MOL0     H65934  11.102   6.255   6.154  1.8924  1.3012 -0.3923
  478MOL0     H65935  10.968   6.203   6.268 -1.8992  2.3548  0.4608
  478MOL0     H65936  11.156   6.451   6.281  0.7999 -0.4031 -0.2471
  478MOL0     H65937  11.051   6.393   6.411 -2.4267 -0.9063 -1.8893
  478MOL0     H65938  11.267   6.184   6.301 -2.1066 -2.9259  0.3597
  478MOL0     H65939  11.165   6.173   6.432 -1.6503  0.2178 -0.6639
  478MOL0     H65940  11.267   6.373   6.523  0.1999  0.6326 -0.2352
  478MOL0     H65941  11.393   6.374   6.398 -0.4775  1.0261 -0.2877
  478MOL0     H65942  11.469   6.145   6.467 -0.3313  1.4834 -2.6819
  478MOL0     H65943  11.358   6.151   6.610 -0.4901  1.3709  1.5754
  478MOL0     H65944  10.514   6.545   5.976  0.2946 -0.6337 -3.2205
  478MOL0     H65945  10.361   6.678   5.849 -0.7547  1.7877 -0.9470
  478MOL0     H65946  10.203   7.035   5.672 -0.8582  0.3654 -0.1030
  478MOL0     H65947  10.041   7.176   5.540 -0.1660  0.8804 -0.0222
  478MOL0     H65948   8.623   7.506   4.455 -0.2305 -0.0365  0.6045
  478MOL0     H65949   8.509   7.706   4.409 -0.6870  0.5857  0.1488
  478MOL0     H65950   8.563   8.165   4.427  3.4808  2.7240  0.6608
  478MOL0     H65951   8.575   8.405   4.434 -0.6862 -0.4525 -0.4974
  478MOL0     H65952   8.308   8.633   4.716  1.0873  2.0385  3.2678
  478MOL0     H65953   8.469   8.631   4.789 -1.8728 -2.1061  0.7161
  478MOL0     H65954   8.425   8.863   4.748  0.2319 -0.7446  1.1716
  478MOL0     H65955   8.340   8.851   4.601  0.8617  2.8373  0.2509
  478MOL0     H65956   8.562   8.812   4.482 -1.4706 -1.4648  1.0874
  478MOL0     H65957   8.568   8.955   4.580  0.0706 -0.2422  0.7199
  478MOL0     H65958   8.768   8.740   4.607 -0.3221 -0.4888 -0.6525
  478MOL0     H65959   8.660   8.736   4.754 -0.1887  2.8509  1.8295
  478MOL0     H65960   8.874   9.073   4.839  0.8514 -0.5316 -0.1819
  478MOL0     H65961   8.366   8.422   4.794  2.5740  0.6940  1.2582
  478MOL0     H65962   8.307   8.245   4.899 -0.3133  1.7546 -2.5253
  478MOL0     H65963   8.267   8.088   4.833 -2.7524  0.9589  0.0010
  478MOL0     H65964   8.421   8.106   4.913 -3.6093 -0.9923  1.3075
  479MOL0     O65965  11.388   4.411   2.484  0.7048 -0.2539 -0.0752
  479MOL0     C65966  11.388   4.428   2.360 -0.2407  0.2169  0.5165
  479MOL0     O65967  11.500   4.449   2.281  0.2980  0.3595  0.2921
  479MOL0     C65968  11.625   4.433   2.345  0.6557 -0.3561  0.3056
  479MOL0     C65969  11.717   4.539   2.357  1.1815  0.3407 -0.2087
  479MOL0     C65970  11.834   4.520   2.420  0.1611  0.1000  0.0501
  479MOL0     C65971  11.874   4.399   2.471  0.0536 -0.0161 -0.4286
  479MOL0     O65972  11.993   4.374   2.534  0.3530 -0.2773 -0.0796
  479MOL0     C65973  12.096   4.477   2.512 -0.1008 -0.4254  0.7337
  479MOL0     C65974  12.227   4.424   2.572  0.0459  0.0199 -0.3865
  479MOL0     C65975  12.337   4.525   2.556  0.3426 -0.2619 -0.0783
  479MOL0     C65976  12.308   4.673   2.600  0.1194  0.4134  0.8694
  479MOL0     C65977  12.439   4.744   2.638  0.0109  0.1552 -0.4534
  479MOL0     C65978  12.424   4.895   2.645  0.3971 -0.4819  0.0461
  479MOL0     C65979  12.563   4.959   2.676  0.3887  0.0765  0.1716
  479MOL0     C65980  12.678   4.932   2.569  0.6293 -0.0148  0.0737
  479MOL0     N65981  12.799   4.982   2.626  0.0904 -0.2654  0.9095
  479MOL0     C65982  12.849   5.112   2.597  0.4111 -0.4829 -0.1618
  479MOL0     C65983  12.963   5.126   2.675 -0.1726 -0.2839  0.0945
  479MOL0     C65984  13.047   5.249   2.686 -0.0081 -0.5971 -0.4299
  479MOL0     C65985  12.971   5.371   2.726  0.0832  0.8546  0.4729
  479MOL0     C65986  13.053   5.497   2.713 -0.0865  0.1314  0.1602
  479MOL0     C65987  12.988   5.619   2.783 -0.3430 -0.3277 -0.3668
  479MOL0     O65988  13.082   5.735   2.787  0.3543  0.1205 -0.5954
  479MOL0     C65989  13.064   5.793   2.917  0.4759  0.2085  0.9374
  479MOL0     C65990  12.970   5.895   2.930  0.3296  0.3907 -0.8107
  479MOL0     C65991  12.950   5.958   3.052  0.8426  0.2494 -0.8004
  479MOL0     C65992  12.842   6.070   3.057 -0.1296 -0.0798 -0.1215
  479MOL0     C65993  13.034   5.922   3.161 -0.1786 -1.0509  0.3963
  479MOL0     C65994  13.035   6.001   3.289 -0.3507  0.3593  0.3130
  479MOL0     O65995  13.033   6.136   3.281  0.4966  0.0698 -0.9972
  479MOL0     C65996  13.028   6.201   3.402 -0.2919  0.0034  1.0614
  479MOL0     C65997  13.108   6.314   3.416 -0.5172  0.3234  0.1116
  479MOL0     C65998  13.118   6.389   3.533  0.1639 -0.5238  0.7203
  479MOL0     C65999  13.033   6.364   3.641 -0.5766  0.0059 -0.0038
  479MOL0     O66000  13.033   6.446   3.745 -0.4164 -0.4646 -1.2797
  479MOL0     C66001  13.110   6.404   3.857 -0.6664  0.0872 -0.0980
  479MOL0     C66002  13.034   6.300   3.939  0.1511 -0.8993  0.0416
  479MOL0     C66003  13.079   6.286   4.083 -0.2512 -0.9907 -0.5835
  479MOL0     C66004  13.209   6.209   4.078  0.0535  0.3986 -0.6818
  479MOL0     C66005  13.264   6.144   4.206 -0.2946  1.2856 -0.4585
  479MOL0     C66006  13.320   6.249   4.294  1.3884  0.3659  0.4243
  479MOL0     C66007  13.425   6.200   4.398 -0.2820 -1.0282  0.1369
  479MOL0     C66008  13.366   6.132   4.523  0.1758  0.4250 -0.3381
  479MOL0    Cl66009  13.243   6.010   4.490  0.0957  0.4636  0.2734
  479MOL0     C66010  12.947   6.258   3.625  0.5789  0.5579  0.6691
  479MOL0     C66011  12.942   6.179   3.508  0.3162 -0.5396  0.3455
  479MOL0     O66012  13.042   5.931   3.387 -0.3154 -0.8922  0.1513
  479MOL0     C66013  13.128   5.820   3.136 -0.3437  0.9287  0.6374
  479MOL0     C66014  13.150   5.756   3.015  0.0473 -0.0843  0.2693
  479MOL0     N66015  12.986   5.000   2.732 -0.0074 -0.5224 -0.2821
  479MOL0     N66016  12.889   4.920   2.703 -0.3303  0.0733 -0.0400
  479MOL0     C66017  11.787   4.293   2.461  0.1987  0.0209  0.3657
  479MOL0     C66018  11.661   4.309   2.395  0.0926 -0.2063  0.1253
  479MOL0     C66019  11.256   4.411   2.289 -0.3566  0.2105 -0.4426
  479MOL0     C66020  11.257   4.401   2.148  0.1047 -0.3397  0.3552
  479MOL0     C66021  11.144   4.396   2.071  0.1587  0.8915  0.2923
  479MOL0     C66022  11.017   4.389   2.127 -0.8027 -0.1070 -0.2528
  479MOL0     O66023  10.921   4.349   2.040 -0.0103 -0.0895 -0.6582
  479MOL0     C66024  10.874   4.456   1.953 -0.6876  0.2937 -0.0505
  479MOL0     C66025  10.836   4.585   2.031 -0.2328  0.7931  0.6420
  479MOL0     C66026  10.814   4.696   1.930 -0.7962 -0.8105 -0.1468
  479MOL0     C66027  10.958   4.756   1.913 -0.4582 -0.5414 -0.2133
  479MOL0     C66028  10.976   4.826   1.785 -0.5540  0.4409  0.1690
  479MOL0     C66029  10.999   4.885   1.679  0.2255  0.8194  0.2792
  479MOL0     C66030  11.005   4.413   2.264  0.0893 -0.4765  0.0514
  479MOL0     C66031  11.122   4.414   2.344  0.8871 -0.6360  0.4004
  479MOL0     C66032  11.101   4.393   2.498 -0.6352  0.2198 -0.5588
  479MOL0     H66033  11.694   4.633   2.308 -0.4228 -0.0280 -0.2036
  479MOL0     H66034  11.901   4.606   2.418  0.3846 -0.0574  0.6186
  479MOL0     H66035  12.066   4.570   2.562  0.8841 -0.1399  0.8199
  479MOL0     H66036  12.107   4.500   2.406 -2.4470  0.7839  0.6951
  479MOL0     H66037  12.210   4.416   2.679 -2.2461  1.5889 -0.5698
  479MOL0     H66038  12.256   4.326   2.533 -2.1544 -1.0219  0.4458
  479MOL0     H66039  12.426   4.491   2.610  0.6839  0.9399  0.1652
  479MOL0     H66040  12.366   4.533   2.451  0.5649 -1.9834 -0.1722
  479MOL0     H66041  12.256   4.725   2.519 -1.0547 -0.8962  0.7353
  479MOL0     H66042  12.249   4.680   2.692 -0.1694 -1.3622  0.8556
  479MOL0     H66043  12.515   4.720   2.563 -1.3452 -0.4790 -1.6802
  479MOL0     H66044  12.475   4.710   2.736  1.4232  0.1735 -0.9387
  479MOL0     H66045  12.391   4.929   2.547  1.4021  2.1941  0.5538
  479MOL0     H66046  12.340   4.917   2.711  0.5050 -0.7123  0.2611
  479MOL0     H66047  12.588   4.923   2.776  0.8630  2.6502  1.0501
  479MOL0     H66048  12.547   5.067   2.677  1.6808  0.3062 -0.9068
  479MOL0     H66049  12.693   4.827   2.543  2.8852  0.7069 -1.8823
  479MOL0     H66050  12.653   4.975   2.472  0.5910 -0.8959 -0.3194
  479MOL0     H66051  12.804   5.189   2.536  0.4866 -0.5367 -0.2865
  479MOL0     H66052  13.108   5.272   2.598  1.5883 -0.9887  0.5225
  479MOL0     H66053  13.117   5.224   2.766  0.4850 -2.1531 -1.3089
  479MOL0     H66054  12.884   5.376   2.659 -0.4159 -3.1718  0.5758
  479MOL0     H66055  12.948   5.360   2.833 -0.3632 -1.2578  0.2051
  479MOL0     H66056  13.156   5.481   2.746 -1.1773 -3.6480  2.2488
  479MOL0     H66057  13.054   5.523   2.607 -2.4627  2.8429  0.6687
  479MOL0     H66058  12.900   5.656   2.730  1.1652 -0.1863 -2.9788
  479MOL0     H66059  12.955   5.589   2.883  1.6251 -3.0555 -0.4023
  479MOL0     H66060  12.904   5.924   2.848  1.4527 -0.7376 -2.1685
  479MOL0     H66061  12.796   6.063   3.156 -0.5112  3.2819  0.0714
  479MOL0     H66062  12.772   6.051   2.975  0.8353  2.6892 -1.7380
  479MOL0     H66063  12.889   6.169   3.053 -2.6074  1.1371 -2.6319
  479MOL0     H66064  13.162   6.357   3.332 -2.9510  0.6225 -1.3946
  479MOL0     H66065  13.176   6.481   3.546  1.4777 -1.6619  4.4204
  479MOL0     H66066  13.211   6.382   3.823  0.0250  4.8594 -1.8354
  479MOL0     H66067  13.130   6.486   3.927  0.0362 -0.4542  0.3565
  479MOL0     H66068  12.928   6.325   3.943 -0.0134 -1.5985  3.9665
  479MOL0     H66069  13.042   6.201   3.892 -0.6294 -0.7956 -0.3236
  479MOL0     H66070  13.007   6.231   4.144 -1.0783 -2.7952 -3.0082
  479MOL0     H66071  13.091   6.383   4.132 -0.7927 -0.3077 -1.7594
  479MOL0     H66072  13.298   6.263   4.043  1.9782 -0.9376  1.7898
  479MOL0     H66073  13.188   6.118   4.022 -0.5431 -0.9633  1.6281
  479MOL0     H66074  13.180   6.094   4.256 -0.4577  3.1022  1.2134
  479MOL0     H66075  13.343   6.074   4.177  0.9585  1.7815  1.6182
  479MOL0     H66076  13.229   6.294   4.335  0.6572 -2.1755  1.8141
  479MOL0     H66077  13.378   6.314   4.228  1.8159 -0.9458 -0.5455
  479MOL0     H66078  13.481   6.289   4.427  1.4702 -0.7229 -3.6055
  479MOL0     H66079  13.490   6.132   4.343  1.4714  0.3102  0.4680
  479MOL0     H66080  13.309   6.207   4.578 -2.3434 -1.2114 -0.5795
  479MOL0     H66081  13.450   6.088   4.578  0.2364  0.4564 -0.4051
  479MOL0     H66082  12.877   6.233   3.705 -0.6122  2.4133  0.2956
  479MOL0     H66083  12.883   6.088   3.511  0.8563 -0.8715  1.8324
  479MOL0     H66084  13.198   5.781   3.210 -0.8143  0.0199  0.6128
  479MOL0     H66085  13.228   5.682   3.000  0.6699  0.4814  0.6698
  479MOL0     H66086  11.817   4.198   2.503  1.3836  0.5451  0.7337
  479MOL0     H66087  11.587   4.230   2.382 -0.8432  0.9548 -2.1540
  479MOL0     H66088  11.350   4.400   2.092  0.1134  3.5482  0.0223
  479MOL0     H66089  11.170   4.376   1.967 -0.5024 -0.2003  0.3200
  479MOL0     H66090  10.946   4.475   1.873  2.6287  1.3126  2.9116
  479MOL0     H66091  10.779   4.423   1.909 -2.4582  2.3286  1.9576
  479MOL0     H66092  10.906   4.616   2.109  2.2748 -2.1870 -0.2227
  479MOL0     H66093  10.742   4.567   2.084 -0.0975  1.4113  1.1038
  479MOL0     H66094  10.756   4.669   1.841 -3.0100 -0.1150  0.9980
  479MOL0     H66095  10.752   4.771   1.980  0.2891 -0.7192  1.1089
  479MOL0     H66096  11.037   4.680   1.908 -1.9886 -2.0968 -2.5628
  479MOL0     H66097  10.971   4.820   2.001 -3.4898  2.8980 -1.9920
  479MOL0     H66098  11.014   4.926   1.582  2.5970 -4.1918 -1.8067
  479MOL0     H66099  10.907   4.421   2.308 -0.6050  1.2842 -1.6303
  479MOL0     H66100  11.096   4.488   2.553 -0.9813  0.0923 -0.3631
  479MOL0     H66101  11.003   4.346   2.510 -0.4879  0.2443  0.9323
  479MOL0     H66102  11.176   4.334   2.551 -2.5065 -1.4985  0.3415
  480MOL0     O66103   5.925   6.625   1.004 -0.2402  0.2445 -0.0889
  480MOL0     C66104   5.908   6.741   1.047 -0.2926  0.1297  0.0207
  480MOL0     O66105   5.977   6.798   1.149 -0.3342 -0.2735 -0.4251
  480MOL0     C66106   6.040   6.710   1.232 -0.0286  0.4794  0.2860
  480MOL0     C66107   6.168   6.646   1.208 -0.5611 -0.7080 -0.3156
  480MOL0     C66108   6.204   6.535   1.297 -0.4119  0.2163  0.5635
  480MOL0     C66109   6.119   6.479   1.389 -0.8027  0.7488 -0.0016
  480MOL0     O66110   6.153   6.355   1.447 -0.0125 -0.2357  0.9512
  480MOL0     C66111   6.068   6.286   1.539  0.8574  0.2174 -0.0113
  480MOL0     C66112   6.141   6.156   1.572 -0.0385 -0.1547  0.7818
  480MOL0     C66113   6.276   6.183   1.642 -0.1776  0.6589 -0.0392
  480MOL0     C66114   6.261   6.226   1.791 -0.6503  0.9494  0.0392
  480MOL0     C66115   6.393   6.275   1.857  0.8642  0.2315  0.4497
  480MOL0     C66116   6.515   6.174   1.858  0.3067 -0.1099 -0.7523
  480MOL0     C66117   6.634   6.245   1.930  0.0472  0.1673  0.7865
  480MOL0     C66118   6.727   6.320   1.841 -0.1492 -0.4214  0.4651
  480MOL0     N66119   6.807   6.235   1.747  0.2243 -0.5657 -0.4805
  480MOL0     C66120   6.924   6.173   1.778 -0.7245  0.3114 -0.2625
  480MOL0     C66121   6.958   6.103   1.668  0.0342 -0.4840 -0.5258
  480MOL0     C66122   7.073   6.016   1.652  0.4868  0.0606 -0.3172
  480MOL0     C66123   7.178   5.991   1.777 -0.4424  0.4794  0.7502
  480MOL0     C66124   7.105   5.931   1.900  0.4726  0.4885 -0.0412
  480MOL0     C66125   7.197   5.844   1.978  0.4522 -1.1566  0.4458
  480MOL0     O66126   7.316   5.918   2.013  0.3274  0.6028 -0.9899
  480MOL0     C66127   7.312   6.024   2.099  0.0654 -0.3718 -0.1532
  480MOL0     C66128   7.424   6.112   2.096 -0.2890 -0.7046 -0.1083
  480MOL0     C66129   7.430   6.220   2.179 -0.5503 -1.1559  0.0019
  480MOL0     C66130   7.560   6.297   2.157 -0.1347  0.0865 -0.5751
  480MOL0     C66131   7.327   6.247   2.267  0.1201 -0.3037 -1.0126
  480MOL0     C66132   7.328   6.370   2.351 -0.0490 -0.0416 -0.1292
  480MOL0     O66133   7.297   6.348   2.476 -0.1317 -0.5248  1.3498
  480MOL0     C66134   7.349   6.417   2.583 -0.6377  0.5715 -0.4409
  480MOL0     C66135   7.278   6.423   2.701  0.3114  1.1471  0.4005
  480MOL0     C66136   7.335   6.478   2.822 -0.0651  0.2935  0.5621
  480MOL0     C66137   7.457   6.544   2.824  0.4209 -0.5831  0.0829
  480MOL0     O66138   7.496   6.623   2.928 -0.3558  0.5570  0.2971
  480MOL0     C66139   7.621   6.688   2.927 -0.2833 -0.6179  0.6759
  480MOL0     C66140   7.658   6.760   3.055  0.4539  0.8297  0.2793
  480MOL0     C66141   7.801   6.813   3.053  0.1279  0.3647  0.2321
  480MOL0     C66142   7.834   6.897   2.930  0.5598  0.2473  0.5472
  480MOL0     C66143   7.740   7.021   2.920  1.5131 -0.7835  0.2235
  480MOL0     C66144   7.747   7.122   2.796 -0.2548  0.3996  0.3273
  480MOL0     C66145   7.642   7.241   2.806 -0.4697 -0.9132  0.1394
  480MOL0     C66146   7.497   7.203   2.779  0.1994  0.0531  0.5920
  480MOL0    Cl66147   7.415   7.114   2.915  0.1885 -0.4430  0.1632
  480MOL0     C66148   7.531   6.540   2.706  0.3858  0.1714  0.8646
  480MOL0     C66149   7.481   6.469   2.594  0.5780  0.3779 -0.1680
  480MOL0     O66150   7.361   6.479   2.310 -0.1045  0.1589  0.3371
  480MOL0     C66151   7.212   6.156   2.280  0.8439  0.3384  0.0988
  480MOL0     C66152   7.211   6.046   2.195  0.2086 -0.5467 -0.9655
  480MOL0     N66153   6.869   6.127   1.572  0.7686  0.3595 -0.3668
  480MOL0     N66154   6.775   6.199   1.624  0.4871  0.8278 -0.1104
  480MOL0     C66155   5.994   6.543   1.419  0.2981 -0.2081  0.8047
  480MOL0     C66156   5.963   6.664   1.346 -0.3423  0.2850 -0.0807
  480MOL0     C66157   5.809   6.826   0.973  0.2346 -0.9972 -0.2436
  480MOL0     C66158   5.723   6.756   0.886  0.1184 -0.0350 -0.3249
  480MOL0     C66159   5.623   6.821   0.815  0.3568  0.0387 -0.0711
  480MOL0     C66160   5.609   6.958   0.815 -0.0182 -0.3376  1.0179
  480MOL0     O66161   5.505   7.020   0.753  0.2257  0.3536 -0.2097
  480MOL0     C66162   5.453   7.143   0.814  0.1617  0.2453 -0.0873
  480MOL0     C66163   5.323   7.177   0.741 -0.2757 -0.3381 -0.1889
  480MOL0     C66164   5.244   7.292   0.810 -0.4199 -0.3379  1.3084
  480MOL0     C66165   5.138   7.358   0.723 -0.0461  0.2044  0.0529
  480MOL0     C66166   5.067   7.465   0.797  0.4942 -0.6810  0.0817
  480MOL0     C66167   5.008   7.550   0.870 -0.3072  0.7094  1.0702
  480MOL0     C66168   5.702   7.022   0.910  0.0949  0.3431 -0.2456
  480MOL0     C66169   5.800   6.967   0.980 -0.6593  0.1593 -0.7552
  480MOL0     C66170   5.900   7.050   1.058 -0.4440  0.2190 -0.0453
  480MOL0     H66171   6.237   6.679   1.131 -1.8400 -1.0675 -1.6499
  480MOL0     H66172   6.290   6.475   1.269 -0.2867  0.1859  1.0008
  480MOL0     H66173   5.971   6.273   1.489  1.2719  2.4494 -1.5363
  480MOL0     H66174   6.051   6.349   1.627  1.5151 -1.1801  1.1524
  480MOL0     H66175   6.078   6.078   1.615 -0.6281  0.4286  0.9893
  480MOL0     H66176   6.167   6.118   1.473  2.0681  1.4374  0.6665
  480MOL0     H66177   6.331   6.090   1.656 -0.3776  0.4958 -0.3030
  480MOL0     H66178   6.335   6.255   1.583 -0.9481  0.6424 -0.8571
  480MOL0     H66179   6.181   6.301   1.797 -1.3915  0.1204  0.8298
  480MOL0     H66180   6.213   6.143   1.844 -2.7171  3.6856  2.8213
  480MOL0     H66181   6.365   6.312   1.956  1.4049  1.0479  0.3147
  480MOL0     H66182   6.427   6.363   1.801 -1.1344 -0.3058 -1.7875
  480MOL0     H66183   6.490   6.088   1.920  0.0257  0.5341  0.0572
  480MOL0     H66184   6.547   6.133   1.762  1.9442 -3.0001  0.8812
  480MOL0     H66185   6.692   6.172   1.987 -0.6167 -0.7081  0.3623
  480MOL0     H66186   6.599   6.321   2.000 -3.7720  1.0872 -1.8198
  480MOL0     H66187   6.677   6.403   1.791  1.6413  1.0069  0.9697
  480MOL0     H66188   6.800   6.371   1.904  0.8995  2.2074 -2.6382
  480MOL0     H66189   6.970   6.181   1.876 -0.5458  2.7894 -0.4748
  480MOL0     H66190   7.128   6.033   1.559  1.8134  2.2755  0.7859
  480MOL0     H66191   7.033   5.917   1.631 -2.9238  1.4751 -1.2027
  480MOL0     H66192   7.251   5.919   1.738  0.7404  0.1588  3.3529
  480MOL0     H66193   7.226   6.086   1.801  0.8679  0.2802 -0.8647
  480MOL0     H66194   7.052   6.005   1.962 -0.6266  0.5200 -0.9801
  480MOL0     H66195   7.013   5.875   1.879 -1.0010  1.7035  2.6416
  480MOL0     H66196   7.152   5.813   2.073  3.0086  1.0734  2.5693
  480MOL0     H66197   7.226   5.760   1.915 -0.0975 -0.6082 -0.5492
  480MOL0     H66198   7.501   6.094   2.021 -1.0552 -3.2307 -0.3868
  480MOL0     H66199   7.554   6.370   2.076  0.0673 -1.3183 -1.8838
  480MOL0     H66200   7.637   6.224   2.131  0.8510  1.2234 -0.9613
  480MOL0     H66201   7.582   6.350   2.251  0.3283 -2.1893  0.6787
  480MOL0     H66202   7.179   6.380   2.708  0.2319  1.5589  2.3650
  480MOL0     H66203   7.272   6.484   2.910 -1.2779 -0.5718 -0.2197
  480MOL0     H66204   7.688   6.606   2.900  0.1159 -0.8254  2.2380
  480MOL0     H66205   7.614   6.763   2.848 -0.9562 -0.7994  0.5507
  480MOL0     H66206   7.583   6.839   3.066 -0.0786  0.3623  0.0891
  480MOL0     H66207   7.644   6.686   3.134  0.3756  0.2396 -0.2707
  480MOL0     H66208   7.880   6.738   3.062 -1.5828 -1.3829  1.4018
  480MOL0     H66209   7.820   6.876   3.141  2.0356  1.2344 -0.7314
  480MOL0     H66210   7.850   6.843   2.836  0.5401 -0.6666  1.0614
  480MOL0     H66211   7.929   6.947   2.952  1.4107 -0.8171 -0.5701
  480MOL0     H66212   7.640   6.978   2.917 -0.0261  2.4886 -0.0706
  480MOL0     H66213   7.743   7.078   3.014  3.2923  1.3616 -1.0413
  480MOL0     H66214   7.733   7.059   2.707 -2.8828  0.6669  0.4790
  480MOL0     H66215   7.848   7.164   2.789  0.2631 -0.6702  1.1754
  480MOL0     H66216   7.682   7.320   2.741  1.9917 -1.2712  1.0965
  480MOL0     H66217   7.653   7.274   2.909 -0.2345 -1.2828  0.2368
  480MOL0     H66218   7.496   7.146   2.686 -0.1840 -2.2740  1.9488
  480MOL0     H66219   7.449   7.302   2.779  1.5706  0.8414 -2.6565
  480MOL0     H66220   7.623   6.594   2.689 -0.0115  0.5112 -0.2779
  480MOL0     H66221   7.544   6.459   2.506  0.4561 -1.8115 -0.0687
  480MOL0     H66222   7.116   6.182   2.324  0.5521  0.6782 -0.7305
  480MOL0     H66223   7.121   5.985   2.200 -1.3995  1.8119  0.7385
  480MOL0     H66224   5.919   6.498   1.483 -0.8660  0.9345  0.3071
  480MOL0     H66225   5.866   6.710   1.363 -0.1004  0.4882  0.8446
  480MOL0     H66226   5.726   6.648   0.879  0.6207  0.0144 -0.9216
  480MOL0     H66227   5.544   6.776   0.756 -0.8080 -0.4162  1.7404
  480MOL0     H66228   5.441   7.134   0.922  1.5210 -1.2198 -0.0379
  480MOL0     H66229   5.511   7.236   0.809  0.3573  0.2333  1.4599
  480MOL0     H66230   5.255   7.091   0.747 -2.9801  1.4901 -2.2140
  480MOL0     H66231   5.355   7.207   0.641  2.3519  1.2799  1.0353
  480MOL0     H66232   5.197   7.246   0.898 -0.3419 -2.3723  0.3506
  480MOL0     H66233   5.310   7.367   0.853  0.6536  0.0375 -0.8635
  480MOL0     H66234   5.064   7.286   0.686  0.1457 -0.3645  0.7445
  480MOL0     H66235   5.182   7.401   0.632 -2.4171  0.9132 -0.8373
  480MOL0     H66236   4.954   7.615   0.936 -0.3537  1.3539  0.4095
  480MOL0     H66237   5.688   7.129   0.915 -0.5659  0.2748 -0.4353
  480MOL0     H66238   6.000   7.014   1.033  0.0524  0.6227  1.2438
  480MOL0     H66239   5.893   7.154   1.026  1.4002 -0.2276 -2.1149
  480MOL0     H66240   5.894   7.036   1.167 -2.3794  2.7173  0.2453
  481MOL0     O66241   9.239   9.936  10.973 -0.1458 -0.9143 -0.8806
  481MOL0     C66242   9.124   9.887  10.960 -0.0621 -0.1616 -0.8322
  481MOL0     O66243   9.067   9.793  11.035  0.2729  0.2823 -0.1599
  481MOL0     C66244   9.156   9.714  11.108 -0.1592  0.6526 -1.2226
  481MOL0     C66245   9.196   9.591  11.057  1.0185  0.6884 -0.3359
  481MOL0     C66246   9.287   9.505  11.132 -0.2040  0.4770  0.2468
  481MOL0     C66247   9.347   9.556  11.248 -0.3246 -0.3754  0.5158
  481MOL0     O66248   9.451   9.483  11.303  0.7728  0.0394 -0.4096
  481MOL0     C66249   9.505   9.529  11.432  0.3255 -0.1354  0.4283
  481MOL0     C66250   9.611   9.636  11.433 -0.9821  0.7685 -0.3117
  481MOL0     C66251   9.707   9.645  11.549 -0.0294  0.3063  0.5324
  481MOL0     C66252   9.831   9.553  11.519 -0.7735  0.7080  0.2599
  481MOL0     C66253   9.925   9.559  11.640  0.1225 -0.2218  1.0509
  481MOL0     C66254  10.039   9.455  11.633 -0.6292 -0.8166 -0.8034
  481MOL0     C66255  10.120   9.458  11.775  0.4015  0.3090 -0.4153
  481MOL0     C66256  10.250   9.375  11.777 -0.6477  0.0187 -0.3219
  481MOL0     N66257  10.244   9.237  11.730 -0.2451 -0.4188  0.3493
  481MOL0     C66258  10.347   9.174  11.659 -0.0436 -0.3475  0.0276
  481MOL0     C66259  10.346   9.042  11.690  0.0929 -0.3933 -0.2654
  481MOL0     C66260  10.441   8.939  11.624  0.1584  0.0858 -0.6995
  481MOL0     C66261  10.585   8.931  11.676  0.5550  1.2599 -0.4088
  481MOL0     C66262  10.586   8.879  11.820  1.0579 -0.1107  0.0146
  481MOL0     C66263  10.725   8.873  11.890 -0.3551  0.3574 -0.2461
  481MOL0     O66264  10.784   8.752  11.840  0.2358  0.4073  0.0739
  481MOL0     C66265  10.916   8.735  11.852  0.0372 -0.4446  0.1001
  481MOL0     C66266  11.006   8.810  11.933  0.4616 -0.2703 -0.6122
  481MOL0     C66267  11.144   8.786  11.925 -0.1299 -0.3118  0.6689
  481MOL0     C66268  11.243   8.864  12.001 -0.1069 -0.6186  1.1905
  481MOL0     C66269  11.188   8.687  11.830  0.0862  1.2873 -0.3354
  481MOL0     C66270  11.337   8.653  11.813  0.4154 -0.3296  0.8765
  481MOL0     O66271  11.394   8.669  11.683  0.2502 -0.7720 -0.1658
  481MOL0     C66272  11.332   8.744  11.584 -0.2840 -0.9686 -1.0836
  481MOL0     C66273  11.289   8.878  11.604  0.3357  0.4189  0.1554
  481MOL0     C66274  11.228   8.944  11.497  0.5106 -0.0558 -0.1276
  481MOL0     C66275  11.221   8.881  11.370 -0.0082 -0.1765  0.1421
  481MOL0     O66276  11.153   8.952  11.276  0.8221 -0.0619  0.3885
  481MOL0     C66277  11.227   8.952  11.149 -0.7475  0.3585 -0.4774
  481MOL0     C66278  11.129   8.959  11.029  0.6318 -0.1940 -0.0122
  481MOL0     C66279  11.025   8.847  11.034  1.4167  0.6903 -0.2502
  481MOL0     C66280  10.915   8.861  10.931  0.0708 -0.2247  0.0773
  481MOL0     C66281  10.786   8.778  10.949 -0.4593  0.0127  0.9294
  481MOL0     C66282  10.697   8.813  10.834  0.0809 -0.2303  0.4013
  481MOL0     C66283  10.562   8.743  10.825  0.1247  0.2798 -0.3369
  481MOL0     C66284  10.441   8.825  10.771 -0.5366 -0.2073 -0.3812
  481MOL0    Cl66285  10.466   8.871  10.601 -0.1028  0.6732 -0.0849
  481MOL0     C66286  11.273   8.757  11.346  0.7991  0.0786 -0.4515
  481MOL0     C66287  11.321   8.680  11.451 -0.5018  0.3242 -0.9766
  481MOL0     O66288  11.389   8.596  11.907 -0.6772  0.0696  0.1132
  481MOL0     C66289  11.098   8.608  11.749  0.5111 -0.0321 -0.1404
  481MOL0     C66290  10.967   8.635  11.764  0.2287 -0.5422  0.4443
  481MOL0     N66291  10.238   9.026  11.773 -0.8593 -0.1089 -0.5732
  481MOL0     N66292  10.180   9.136  11.801 -0.4487 -0.4317 -0.5011
  481MOL0     C66293   9.308   9.684  11.285  0.0859  0.4530 -0.9365
  481MOL0     C66294   9.216   9.756  11.220  0.7688  0.1541 -0.4436
  481MOL0     C66295   9.034   9.962  10.871 -0.1263  0.1714 -0.2929
  481MOL0     C66296   8.894   9.936  10.877 -0.0320 -0.0487 -0.4800
  481MOL0     C66297   8.803   9.988  10.780 -0.4185  0.1579 -0.1843
  481MOL0     C66298   8.855  10.080  10.682  0.2246  0.9620 -0.1130
  481MOL0     O66299   8.767  10.154  10.609 -0.6130  0.3170 -0.0676
  481MOL0     C66300   8.632  10.110  10.574 -0.2277  0.1864  1.1065
  481MOL0     C66301   8.535  10.221  10.605 -0.2344 -0.3211  0.3235
  481MOL0     C66302   8.500  10.217  10.755  0.0956  0.1419  0.7314
  481MOL0     C66303   8.416  10.333  10.808 -1.3080  0.8562  0.0205
  481MOL0     C66304   8.283  10.282  10.842 -0.6026 -0.9024  0.4691
  481MOL0     C66305   8.171  10.247  10.884 -0.6279  0.1141 -0.0774
  481MOL0     C66306   8.991  10.108  10.682 -0.2163 -0.8753 -0.4910
  481MOL0     C66307   9.079  10.039  10.760 -0.6288  0.4535 -0.8659
  481MOL0     C66308   9.225  10.061  10.710  0.4214 -0.3575 -0.2222
  481MOL0     H66309   9.160   9.546  10.965  3.8377 -0.3158 -1.0517
  481MOL0     H66310   9.313   9.403  11.108  1.8185  1.3951 -2.0033
  481MOL0     H66311   9.542   9.434  11.471 -3.9831 -2.9207 -1.5270
  481MOL0     H66312   9.427   9.558  11.502 -1.0307  0.7637 -1.3805
  481MOL0     H66313   9.674   9.606  11.348 -0.8154 -0.8813  0.3631
  481MOL0     H66314   9.577   9.736  11.405  1.1344  0.8417 -3.0955
  481MOL0     H66315   9.736   9.750  11.559 -2.0877  1.0520 -0.7742
  481MOL0     H66316   9.657   9.614  11.642 -0.1526  1.8130  0.9934
  481MOL0     H66317   9.809   9.447  11.504  1.4507  0.3814 -1.2143
  481MOL0     H66318   9.883   9.588  11.429  0.0393 -0.7135  0.1463
  481MOL0     H66319   9.860   9.537  11.725 -0.6375  0.2797  0.6118
  481MOL0     H66320   9.964   9.661  11.651 -2.6994  1.2409 -1.1795
  481MOL0     H66321   9.991   9.357  11.622 -2.0307 -0.4090  1.1800
  481MOL0     H66322  10.104   9.490  11.552  1.3861  1.5473  1.6320
  481MOL0     H66323  10.046   9.430  11.851  1.6707  1.5283  1.3564
  481MOL0     H66324  10.144   9.563  11.792  0.0827  0.1739  1.0021
  481MOL0     H66325  10.324   9.429  11.717 -2.6309 -0.1540 -3.1362
  481MOL0     H66326  10.286   9.369  11.880  0.0435  3.2745 -0.2632
  481MOL0     H66327  10.410   9.234  11.595 -0.1699  0.0355  0.2605
  481MOL0     H66328  10.453   8.965  11.518  1.1621  0.7317 -0.4505
  481MOL0     H66329  10.402   8.840  11.647 -2.3132  0.8467 -1.2969
  481MOL0     H66330  10.648   8.870  11.611 -0.2835  1.5560 -1.5380
  481MOL0     H66331  10.599   9.039  11.672 -1.6249  1.5702 -1.0116
  481MOL0     H66332  10.530   8.955  11.875  1.9138  1.9997 -1.8423
  481MOL0     H66333  10.534   8.784  11.828  1.7721 -0.3634  2.2741
  481MOL0     H66334  10.781   8.965  11.874  2.3293 -0.3714  3.7663
  481MOL0     H66335  10.722   8.857  11.998  0.7777 -0.8530 -0.3682
  481MOL0     H66336  10.974   8.875  12.014 -1.8752 -0.8119 -1.0331
  481MOL0     H66337  11.299   8.932  11.936 -0.7467 -1.1140  0.0964
  481MOL0     H66338  11.308   8.792  12.051 -0.4695 -2.0732 -0.3323
  481MOL0     H66339  11.202   8.929  12.080  0.8223  0.3356  0.9150
  481MOL0     H66340  11.282   8.915  11.706 -6.9617 -0.7458  0.6165
  481MOL0     H66341  11.179   9.039  11.512 -0.3429 -0.3519 -0.9187
  481MOL0     H66342  11.279   9.049  11.142  0.7028 -0.4782 -2.0633
  481MOL0     H66343  11.308   8.881  11.131  1.0804  2.4546 -1.0218
  481MOL0     H66344  11.073   9.052  11.029 -1.2105 -1.1869  2.5317
  481MOL0     H66345  11.182   8.957  10.933  1.2688 -1.1733  0.3347
  481MOL0     H66346  10.983   8.847  11.134  1.6947  0.1456 -0.1282
  481MOL0     H66347  11.075   8.749  11.032 -0.5893 -0.5211  2.5058
  481MOL0     H66348  10.960   8.840  10.834 -2.2772 -0.2139 -1.0816
  481MOL0     H66349  10.885   8.965  10.940  1.5002  0.0186  3.9840
  481MOL0     H66350  10.824   8.676  10.937  0.6162  0.6484 -2.0930
  481MOL0     H66351  10.733   8.776  11.044 -0.0904 -7.4101  1.5638
  481MOL0     H66352  10.748   8.816  10.737  1.1780 -0.8492  0.9374
  481MOL0     H66353  10.682   8.919  10.855  0.9169 -0.2638  1.2089
  481MOL0     H66354  10.536   8.705  10.925  1.8813  1.4655  0.6213
  481MOL0     H66355  10.558   8.658  10.757  0.3497  0.8013 -1.0155
  481MOL0     H66356  10.431   8.913  10.835  0.6464 -1.1988  1.2473
  481MOL0     H66357  10.352   8.763  10.783 -1.2647  1.2266  2.6678
  481MOL0     H66358  11.264   8.707  11.250  0.0104  2.7562 -1.8625
  481MOL0     H66359  11.363   8.581  11.439 -0.2939  0.5366 -2.0535
  481MOL0     H66360  11.119   8.533  11.673  3.4253  0.7622 -0.2366
  481MOL0     H66361  10.890   8.581  11.710 -0.7986  1.3056 -0.0603
  481MOL0     H66362   9.350   9.740  11.368  1.6115  2.4705 -2.9018
  481MOL0     H66363   9.188   9.849  11.267 -0.2426 -0.0332 -0.6577
  481MOL0     H66364   8.867   9.865  10.956  1.8992 -0.1955  0.1011
  481MOL0     H66365   8.697   9.988  10.802 -0.8245  5.5267 -0.6980
  481MOL0     H66366   8.638  10.094  10.466  4.6383  0.3700  1.1179
  481MOL0     H66367   8.592  10.022  10.625 -0.1234  0.3818  1.5349
  481MOL0     H66368   8.446  10.214  10.542  0.7850  1.3641 -1.3928
  481MOL0     H66369   8.595  10.311  10.586 -1.7538  0.6996  0.2058
  481MOL0     H66370   8.456  10.122  10.786 -1.1859  1.2748  2.6146
  481MOL0     H66371   8.594  10.224  10.811  0.9818 -1.9998 -0.3476
  481MOL0     H66372   8.415  10.411  10.732  1.3800 -2.2025 -3.5413
  481MOL0     H66373   8.461  10.367  10.902  1.6158 -0.9862 -0.6058
  481MOL0     H66374   8.080  10.205  10.921 -0.7687  0.7343  0.2912
  481MOL0     H66375   9.023  10.179  10.607 -2.8883  0.9656 -0.0110
  481MOL0     H66376   9.221  10.072  10.601 -0.2344 -1.4172 -0.3196
  481MOL0     H66377   9.275  10.150  10.750 -1.0948  1.6534 -2.4442
  481MOL0     H66378   9.284   9.974  10.737  0.3305 -0.2586  0.2990
  482MOL0     O66379   1.143   0.057  11.392  0.0860  0.6436  0.3015
  482MOL0     C66380   1.161  -0.055  11.431 -0.0626 -0.2299 -0.5437
  482MOL0     O66381   1.225  -0.087  11.547  0.3315  0.7208  0.3725
  482MOL0     C66382   1.304   0.015  11.586 -0.8818  0.1929 -0.5509
  482MOL0     C66383   1.251   0.122  11.661 -0.6350 -0.5537  0.5942
  482MOL0     C66384   1.340   0.222  11.709  0.3425 -0.2251 -0.5705
  482MOL0     C66385   1.475   0.220  11.674 -0.1486  0.6967  0.3095
  482MOL0     O66386   1.546   0.334  11.705 -0.8004 -0.3509  0.4039
  482MOL0     C66387   1.672   0.315  11.773 -0.2406  0.6104  0.3565
  482MOL0     C66388   1.741   0.460  11.806  0.7316  0.2001  0.2845
  482MOL0     C66389   1.877   0.450  11.891  0.4077  0.2429  1.2375
  482MOL0     C66390   1.865   0.405  12.034  0.6080  0.1974 -0.2361
  482MOL0     C66391   2.000   0.414  12.105 -0.0916  0.1833  0.2629
  482MOL0     C66392   1.980   0.375  12.252  0.2907 -0.0426 -0.3149
  482MOL0     C66393   2.113   0.349  12.330  1.4249  0.5682  1.2993
  482MOL0     C66394   2.092   0.297  12.466  0.4913  0.2620  0.0208
  482MOL0     N66395   2.223   0.266  12.531 -0.0581 -0.5593 -0.4129
  482MOL0     C66396   2.322   0.355  12.573  0.5520  0.6108  0.1101
  482MOL0     C66397   2.415   0.286  12.630  0.6857  0.6254  0.2190
  482MOL0     C66398   2.546   0.334  12.669  0.0897  0.2636  0.6093
  482MOL0     C66399   2.541   0.471  12.728 -0.1621 -0.0926 -0.2700
  482MOL0     C66400   2.678   0.504  12.796  0.5942 -0.1946 -0.1558
  482MOL0     C66401   2.692   0.654  12.846 -0.2311 -0.5867 -0.3897
  482MOL0     O66402   2.697   0.747  12.739  0.8708 -0.4144  0.3484
  482MOL0     C66403   2.822   0.788  12.696 -0.1333  0.7926 -0.4777
  482MOL0     C66404   2.935   0.726  12.742  0.0357  0.4306  0.2215
  482MOL0     C66405   3.057   0.787  12.710 -0.5586 -0.7023  0.1472
  482MOL0     C66406   3.175   0.718  12.767  0.0463  0.0829 -0.0162
  482MOL0     C66407   3.070   0.887  12.616  0.4892 -0.4382  0.0427
  482MOL0     C66408   3.200   0.958  12.579 -0.3146  0.0774  0.0696
  482MOL0     O66409   3.190   1.080  12.519  0.4641 -0.2079  1.0214
  482MOL0     C66410   3.299   1.148  12.471 -0.5203 -0.9487 -0.6877
  482MOL0     C66411   3.398   1.197  12.564 -0.8738 -0.5534  0.2762
  482MOL0     C66412   3.490   1.303  12.536  0.0431  0.3655  0.6149
  482MOL0     C66413   3.486   1.366  12.414 -0.7745  0.2428 -0.2396
  482MOL0     O66414   3.566   1.477  12.382 -0.3357 -0.0785 -0.0042
  482MOL0     C66415   3.588   1.586  12.477 -0.2257 -0.3588 -0.6156
  482MOL0     C66416   3.658   1.701  12.394 -0.0834  0.5598 -0.3466
  482MOL0     C66417   3.561   1.759  12.281 -0.7858  0.7481  1.5446
  482MOL0     C66418   3.644   1.858  12.209  0.0895 -0.0523  0.5764
  482MOL0     C66419   3.592   1.950  12.093 -0.5919  0.0759 -0.9058
  482MOL0     C66420   3.485   1.885  12.011 -0.1353  0.0767 -0.3408
  482MOL0     C66421   3.443   1.974  11.900  0.4317  0.0038 -0.4121
  482MOL0     C66422   3.313   1.927  11.835 -0.3842  0.4723  0.0208
  482MOL0    Cl66423   3.279   2.016  11.682 -0.3663 -0.1821  0.2443
  482MOL0     C66424   3.398   1.316  12.318 -0.2617  0.0644 -0.2567
  482MOL0     C66425   3.303   1.209  12.345 -0.3464  0.8410  0.2200
  482MOL0     O66426   3.304   0.895  12.595  0.2263  0.1395  0.1745
  482MOL0     C66427   2.952   0.932  12.557  0.5016  0.1061 -2.3075
  482MOL0     C66428   2.831   0.884  12.605 -0.0354 -0.6354 -0.4423
  482MOL0     N66429   2.371   0.153  12.618 -0.7507  0.1911 -0.1980
  482MOL0     N66430   2.251   0.144  12.568 -0.4335 -0.3565  0.7393
  482MOL0     C66431   1.522   0.120  11.597  0.0924  0.0615  1.4458
  482MOL0     C66432   1.442   0.013  11.567 -0.5216  0.2421 -0.8900
  482MOL0     C66433   1.089  -0.162  11.362  0.8500  0.8177  0.2694
  482MOL0     C66434   1.065  -0.284  11.435  0.1242 -0.2582  0.5315
  482MOL0     C66435   0.975  -0.376  11.391 -0.5542 -0.4429  0.2308
  482MOL0     C66436   0.917  -0.360  11.263  0.4245  0.0603 -0.7878
  482MOL0     O66437   0.830  -0.446  11.220 -0.6564 -0.5887 -0.4012
  482MOL0     C66438   0.886  -0.554  11.171  0.9132  0.0437 -0.0884
  482MOL0     C66439   0.786  -0.660  11.137 -0.2154 -0.0165 -0.3686
  482MOL0     C66440   0.725  -0.733  11.261 -0.5916 -0.4675 -0.1559
  482MOL0     C66441   0.608  -0.825  11.220  0.0884 -0.7891 -0.7668
  482MOL0     C66442   0.640  -0.929  11.126 -0.6163 -0.0759  0.8190
  482MOL0     C66443   0.667  -1.022  11.048  0.4583  0.7524  0.4688
  482MOL0     C66444   0.940  -0.246  11.190 -0.0997  0.0813 -0.2941
  482MOL0     C66445   1.023  -0.145  11.237 -0.6341  0.1698  0.6978
  482MOL0     C66446   1.035  -0.019  11.154  0.6382 -0.7950  0.3228
  482MOL0     H66447   1.144   0.117  11.680 -0.6445  0.4886  0.8735
  482MOL0     H66448   1.300   0.310  11.758  0.7887 -0.4307  0.1801
  482MOL0     H66449   1.738   0.260  11.705  0.0527  1.6284 -0.2177
  482MOL0     H66450   1.646   0.257  11.861  1.0002 -0.2580  0.1823
  482MOL0     H66451   1.773   0.508  11.712  1.1417 -2.9710 -1.3276
  482MOL0     H66452   1.667   0.520  11.860 -2.4438 -1.5436 -1.8217
  482MOL0     H66453   1.945   0.382  11.840  0.9320  0.3097  1.8345
  482MOL0     H66454   1.930   0.546  11.885  1.6838 -0.4781 -3.4970
  482MOL0     H66455   1.793   0.472  12.082  1.3381  2.4345 -2.0516
  482MOL0     H66456   1.828   0.303  12.039 -0.0691  0.3377 -1.6402
  482MOL0     H66457   2.050   0.511  12.099  1.0065 -0.3930 -0.3083
  482MOL0     H66458   2.068   0.351  12.047 -2.6236 -1.4108 -1.1694
  482MOL0     H66459   1.921   0.454  12.299 -1.0461 -1.3766  0.3290
  482MOL0     H66460   1.922   0.287  12.280 -1.7058  1.3197  0.0967
  482MOL0     H66461   2.170   0.441  12.320 -0.4046  1.5308 -1.1954
  482MOL0     H66462   2.167   0.273  12.273 -0.7694  1.8233 -2.8594
  482MOL0     H66463   2.045   0.367  12.536 -1.7409 -1.3346  0.2394
  482MOL0     H66464   2.037   0.203  12.457  1.6481 -0.4474  0.1576
  482MOL0     H66465   2.327   0.463  12.565 -1.2496  0.8779  1.9892
  482MOL0     H66466   2.615   0.318  12.586 -0.4424 -0.5200  0.3057
  482MOL0     H66467   2.568   0.274  12.758 -0.5368  0.3342  0.8191
  482MOL0     H66468   2.533   0.542  12.646 -1.6403  1.0210  0.7810
  482MOL0     H66469   2.456   0.465  12.796  0.4244 -3.4599  0.3649
  482MOL0     H66470   2.683   0.447  12.889  2.4880  1.7408  1.0203
  482MOL0     H66471   2.764   0.464  12.742 -1.9056 -3.2248 -2.2651
  482MOL0     H66472   2.610   0.672  12.916  1.1470  2.6914  0.5640
  482MOL0     H66473   2.768   0.659  12.924 -2.7595 -3.0525  2.4901
  482MOL0     H66474   2.936   0.638  12.805 -0.1174  0.0544 -0.2921
  482MOL0     H66475   3.149   0.654  12.851  2.5787 -1.3292 -0.2048
  482MOL0     H66476   3.246   0.793  12.802 -1.1235  1.1082  0.2029
  482MOL0     H66477   3.219   0.653  12.690 -1.2603  0.1924 -0.8950
  482MOL0     H66478   3.400   1.159  12.666 -0.9252  3.2434  1.8520
  482MOL0     H66479   3.572   1.323  12.604 -0.6404  1.7918  1.0796
  482MOL0     H66480   3.500   1.618  12.534  2.3582  2.6380  2.1366
  482MOL0     H66481   3.663   1.560  12.553 -0.0297  1.2442 -0.2200
  482MOL0     H66482   3.682   1.790  12.454 -2.1564  3.6917 -3.7526
  482MOL0     H66483   3.742   1.653  12.345 -2.0645 -3.7873  0.0307
  482MOL0     H66484   3.487   1.820  12.333 -0.9583 -0.3645  2.6613
  482MOL0     H66485   3.529   1.675  12.218  1.9376  0.6074  0.2010
  482MOL0     H66486   3.729   1.801  12.170  0.8351 -0.6868  2.9045
  482MOL0     H66487   3.698   1.925  12.277  1.5631 -1.5912  1.0201
  482MOL0     H66488   3.554   2.046  12.129 -1.2150 -1.1124  1.8611
  482MOL0     H66489   3.672   1.969  12.022 -0.6779  1.7417 -0.5932
  482MOL0     H66490   3.396   1.878  12.075 -2.3404  3.9364 -2.5839
  482MOL0     H66491   3.531   1.796  11.967  1.2965  1.0082 -0.7785
  482MOL0     H66492   3.517   1.977  11.820  2.2544 -0.0315  1.1811
  482MOL0     H66493   3.433   2.069  11.953  2.2668  0.2731 -0.4744
  482MOL0     H66494   3.237   1.933  11.914 -0.2447 -1.4240  0.3394
  482MOL0     H66495   3.329   1.824  11.801  2.4662  1.0009 -0.4581
  482MOL0     H66496   3.391   1.374  12.226  1.7774 -0.2222 -0.6381
  482MOL0     H66497   3.226   1.196  12.270  0.5248 -0.4297 -0.4817
  482MOL0     H66498   2.958   1.006  12.478 -0.8464  1.7305 -0.9539
  482MOL0     H66499   2.732   0.917  12.572 -0.4528 -0.5406  0.8520
  482MOL0     H66500   1.626   0.127  11.568 -0.6132  1.4844 -1.0054
  482MOL0     H66501   1.487  -0.068  11.511  0.1857  1.2748 -1.8687
  482MOL0     H66502   1.123  -0.299  11.525  0.4021  2.6732  0.9379
  482MOL0     H66503   0.943  -0.451  11.462  0.5757  0.1117  1.3548
  482MOL0     H66504   0.943  -0.522  11.083  0.2724 -0.0444 -0.5435
  482MOL0     H66505   0.956  -0.596  11.243  0.2471 -3.4228 -1.3085
  482MOL0     H66506   0.842  -0.731  11.076  0.9543 -2.2495  3.0572
  482MOL0     H66507   0.708  -0.614  11.074  1.5339  2.5825 -0.7815
  482MOL0     H66508   0.803  -0.792  11.310 -0.7897 -0.7857 -0.2183
  482MOL0     H66509   0.694  -0.651  11.327  0.8668 -2.8224  3.8319
  482MOL0     H66510   0.530  -0.760  11.180  1.2689  0.3017 -1.3596
  482MOL0     H66511   0.573  -0.876  11.311  0.0285  1.2732  0.4243
  482MOL0     H66512   0.676  -1.093  10.969 -0.6697  0.0508  0.9518
  482MOL0     H66513   0.903  -0.242  11.089 -0.0704  1.7566 -0.2526
  482MOL0     H66514   1.139   0.015  11.154  0.8754 -1.5110  0.1890
  482MOL0     H66515   1.015  -0.032  11.047  2.2067  0.1619 -0.1234
  482MOL0     H66516   0.966   0.059  11.188  1.6851  0.5531 -0.5425
  483MOL0     O66517   1.441   8.864  10.088  0.1745  0.0268 -0.5079
  483MOL0     C66518   1.378   8.854   9.983  0.2220  0.4511  0.3106
  483MOL0     O66519   1.271   8.921   9.944 -0.0686 -0.5091  0.2862
  483MOL0     C66520   1.217   9.023  10.019  0.5843 -0.1845  0.6555
  483MOL0     C66521   1.189   9.019  10.151 -0.3400 -0.4659 -0.9294
  483MOL0     C66522   1.159   9.134  10.228  1.4135  0.0887 -0.1487
  483MOL0     C66523   1.146   9.256  10.152 -0.2263  1.1381  0.0115
  483MOL0     O66524   1.112   9.380  10.198 -0.5075  0.1559 -0.0393
  483MOL0     C66525   1.050   9.391  10.329 -0.0916 -0.0067 -0.6665
  483MOL0     C66526   0.975   9.527  10.333  0.1647 -0.4586 -0.7405
  483MOL0     C66527   1.082   9.643  10.319  0.8421  0.9900 -0.0703
  483MOL0     C66528   1.177   9.672  10.437 -0.1079 -0.5274  0.5997
  483MOL0     C66529   1.272   9.786  10.399  0.2373  0.0777  0.5471
  483MOL0     C66530   1.357   9.792  10.533 -0.1927 -0.7126  1.0143
  483MOL0     C66531   1.460   9.904  10.514  0.4025 -0.1617 -1.0654
  483MOL0     C66532   1.554   9.941  10.634 -0.1374  0.1434  0.6965
  483MOL0     N66533   1.481   9.999  10.747 -0.0546  1.2271 -0.1322
  483MOL0     C66534   1.412   9.918  10.827 -0.5097  0.0673  1.0667
  483MOL0     C66535   1.339  10.002  10.901  0.5143 -0.8495  0.1252
  483MOL0     C66536   1.247   9.980  11.010  0.4597  0.3343  0.0366
  483MOL0     C66537   1.309   9.948  11.142 -1.3330 -0.9564  0.1031
  483MOL0     C66538   1.299   9.805  11.185 -0.7150 -0.3630  0.6453
  483MOL0     C66539   1.328   9.790  11.336 -0.3149  0.3411  0.6883
  483MOL0     O66540   1.322   9.642  11.369 -0.3390 -1.0059  0.4971
  483MOL0     C66541   1.350   9.613  11.503  0.1024 -1.2007  0.2577
  483MOL0     C66542   1.379   9.702  11.604  0.8346 -1.2221 -0.1430
  483MOL0     C66543   1.391   9.671  11.737  0.2520  0.0582 -0.2761
  483MOL0     C66544   1.409   9.781  11.845  0.2568  0.7186  0.3849
  483MOL0     C66545   1.371   9.533  11.769  0.3338 -0.0386  0.6569
  483MOL0     C66546   1.380   9.476  11.908 -0.0499  0.4683  0.3359
  483MOL0     O66547   1.384   9.339  11.916 -0.5685  0.5015 -0.2883
  483MOL0     C66548   1.344   9.274  12.035  0.1240  0.0977 -0.4306
  483MOL0     C66549   1.216   9.211  12.032  0.1625  0.7318 -0.0454
  483MOL0     C66550   1.179   9.128  12.142  0.1418  0.0831 -0.3454
  483MOL0     C66551   1.267   9.116  12.254 -0.1251  0.0263  0.3863
  483MOL0     O66552   1.238   9.038  12.365  0.1123  0.2100 -0.3975
  483MOL0     C66553   1.097   9.004  12.380  0.8500  0.0617  0.4643
  483MOL0     C66554   1.067   8.948  12.525 -0.0779  0.0951 -0.1462
  483MOL0     C66555   0.913   8.941  12.558  0.1437 -0.3452  0.6301
  483MOL0     C66556   0.865   9.053  12.643  0.9951  0.2073 -1.2274
  483MOL0     C66557   0.721   9.033  12.689  0.0342  0.2848 -0.0392
  483MOL0     C66558   0.671   9.143  12.783 -1.5870  0.7133  0.4063
  483MOL0     C66559   0.729   9.121  12.922 -0.6423  0.5151  0.4646
  483MOL0     C66560   0.749   9.256  12.999 -0.2704  0.3628 -0.1694
  483MOL0    Cl66561   0.588   9.337  13.001  0.2793 -0.2603  0.1209
  483MOL0     C66562   1.398   9.164  12.253 -0.1640  0.8558  0.7459
  483MOL0     C66563   1.436   9.251  12.142  0.8268 -0.0209 -0.7525
  483MOL0     O66564   1.393   9.544  12.004 -0.5109  0.3373 -0.3193
  483MOL0     C66565   1.355   9.440  11.660 -0.4645 -0.5946  0.4179
  483MOL0     C66566   1.340   9.479  11.535 -0.0741  0.8154  0.0670
  483MOL0     N66567   1.358  10.129  10.849 -0.4755  0.2830  0.3320
  483MOL0     N66568   1.455  10.126  10.761  0.6944 -0.3005  0.2882
  483MOL0     C66569   1.154   9.262  10.015 -0.4743 -0.0557  0.7956
  483MOL0     C66570   1.202   9.144   9.953  0.3441  0.4010  0.1296
  483MOL0     C66571   1.408   8.731   9.902 -0.3180 -0.1910 -0.8903
  483MOL0     C66572   1.308   8.673   9.844  0.3107  0.6594  0.4543
  483MOL0     C66573   1.324   8.547   9.771 -0.1466 -0.4291  0.1867
  483MOL0     C66574   1.445   8.483   9.766  0.5802  0.5880 -0.0676
  483MOL0     O66575   1.448   8.361   9.710  0.3286  0.4285  0.5004
  483MOL0     C66576   1.565   8.278   9.724 -0.3977  0.1631 -0.1468
  483MOL0     C66577   1.543   8.148   9.656 -0.1002  0.1357  0.7022
  483MOL0     C66578   1.475   8.045   9.744 -0.1721  0.9135 -0.2186
  483MOL0     C66579   1.434   7.926   9.659 -0.5240 -0.2918 -0.7056
  483MOL0     C66580   1.546   7.849   9.601  0.1777 -0.5425  0.7140
  483MOL0     C66581   1.634   7.802   9.540 -0.4669 -0.2808 -0.2132
  483MOL0     C66582   1.555   8.550   9.823  0.0901  0.4260 -0.2232
  483MOL0     C66583   1.539   8.676   9.887 -0.1980  0.2042  0.6383
  483MOL0     C66584   1.673   8.742   9.932 -0.4260  0.2236 -0.5055
  483MOL0     H66585   1.201   8.930  10.212  1.7231  0.1505 -0.3621
  483MOL0     H66586   1.133   9.126  10.333 -2.1144 -2.7538 -1.0619
  483MOL0     H66587   1.123   9.374  10.409  0.4620 -1.3313 -1.4240
  483MOL0     H66588   0.974   9.313  10.338  0.9944 -0.9962  0.1702
  483MOL0     H66589   0.898   9.532  10.256 -1.3853 -0.9755  0.7213
  483MOL0     H66590   0.923   9.541  10.428 -0.1415 -1.7630 -0.7035
  483MOL0     H66591   1.129   9.654  10.221 -1.2812  0.9425 -1.1603
  483MOL0     H66592   1.020   9.732  10.309  1.1021  1.0430 -1.5215
  483MOL0     H66593   1.117   9.700  10.524 -0.9676 -1.7656  0.4315
  483MOL0     H66594   1.235   9.584  10.464 -1.5780 -1.4382  0.9302
  483MOL0     H66595   1.219   9.881  10.390 -1.1928 -0.5260  1.9521
  483MOL0     H66596   1.333   9.773  10.309 -2.7104 -1.2277 -1.4178
  483MOL0     H66597   1.296   9.822  10.618 -0.4444  1.4537  0.1508
  483MOL0     H66598   1.400   9.693  10.551 -0.2910 -1.0266 -0.3298
  483MOL0     H66599   1.396   9.988  10.484  0.8108  0.1503 -1.0736
  483MOL0     H66600   1.523   9.873  10.430  0.3509 -2.1452 -0.4293
  483MOL0     H66601   1.608   9.852  10.667  0.7545  0.5125  0.2644
  483MOL0     H66602   1.627  10.013  10.597  0.7237  0.6702  3.2375
  483MOL0     H66603   1.420   9.809  10.832 -0.5839 -0.0021 -0.0836
  483MOL0     H66604   1.171   9.904  10.990 -1.0280  1.7609  0.0786
  483MOL0     H66605   1.179  10.063  11.029 -0.9005 -0.3120 -1.7431
  483MOL0     H66606   1.416   9.966  11.123 -1.5341  0.6786  0.3595
  483MOL0     H66607   1.286  10.025  11.217  2.4858  0.9318 -0.3924
  483MOL0     H66608   1.201   9.768  11.153 -1.3193  3.4598 -2.7618
  483MOL0     H66609   1.370   9.744  11.127  0.1537 -0.6478  1.9693
  483MOL0     H66610   1.422   9.839  11.362 -0.5120  0.1539  1.8302
  483MOL0     H66611   1.249   9.844  11.390 -2.2414  0.6745 -2.2340
  483MOL0     H66612   1.384   9.808  11.581  1.4818 -1.1260  0.4201
  483MOL0     H66613   1.329   9.787  11.919 -0.9769  1.5601 -0.9551
  483MOL0     H66614   1.412   9.879  11.797  0.2359  1.0207  1.0000
  483MOL0     H66615   1.509   9.754  11.881  1.9799  3.2147 -2.0814
  483MOL0     H66616   1.155   9.240  11.947  0.3236 -0.3357 -0.5396
  483MOL0     H66617   1.082   9.079  12.146  0.9205 -1.4312  1.5927
  483MOL0     H66618   1.030   9.088  12.364  0.3490  0.2611  3.1414
  483MOL0     H66619   1.065   8.921  12.316  1.6115 -0.1368  0.3295
  483MOL0     H66620   1.111   8.848  12.537 -2.5174 -0.7770  2.9644
  483MOL0     H66621   1.103   9.017  12.602 -1.5591  0.3436  0.3529
  483MOL0     H66622   0.900   8.852  12.621 -0.4502  0.0187  1.0296
  483MOL0     H66623   0.859   8.921  12.465 -0.3210 -4.4703  1.5689
  483MOL0     H66624   0.875   9.147  12.588 -2.3047  0.5465 -1.4444
  483MOL0     H66625   0.929   9.045  12.731  0.6724 -0.7922 -1.0656
  483MOL0     H66626   0.662   9.010  12.600 -1.1024  1.9800  0.2279
  483MOL0     H66627   0.720   8.942  12.749  0.7125  0.5028  0.3144
  483MOL0     H66628   0.562   9.147  12.795 -1.7511  2.0939 -1.1581
  483MOL0     H66629   0.707   9.233  12.732  0.8767 -1.7691 -2.6827
  483MOL0     H66630   0.823   9.064  12.920 -1.0447 -0.1402 -1.7237
  483MOL0     H66631   0.669   9.057  12.987 -0.7183  0.8961  0.7768
  483MOL0     H66632   0.828   9.315  12.951  2.8030 -0.9953  2.8132
  483MOL0     H66633   0.776   9.227  13.101  0.9466  1.2499 -0.2165
  483MOL0     H66634   1.452   9.157  12.347  0.0675  1.8748  0.7026
  483MOL0     H66635   1.535   9.296  12.144  0.4620  0.8193  1.2481
  483MOL0     H66636   1.340   9.333  11.671  1.5898 -1.2800 -2.3760
  483MOL0     H66637   1.306   9.400  11.469 -1.7991 -0.1694  2.0137
  483MOL0     H66638   1.164   9.347   9.949  4.0222  0.0097  1.2333
  483MOL0     H66639   1.215   9.149   9.845  0.7038  1.8744  0.2156
  483MOL0     H66640   1.208   8.714   9.832 -0.1948 -0.2631  1.3515
  483MOL0     H66641   1.247   8.493   9.716 -0.1498 -0.9442  0.6867
  483MOL0     H66642   1.656   8.327   9.687 -0.3219  1.1839  1.3565
  483MOL0     H66643   1.596   8.255   9.826 -0.5179 -1.3045 -0.4132
  483MOL0     H66644   1.647   8.124   9.632 -0.2048  0.1785  0.1882
  483MOL0     H66645   1.489   8.160   9.562  0.6255  1.6041  0.4535
  483MOL0     H66646   1.548   8.027   9.823 -0.4323 -1.8316 -0.4985
  483MOL0     H66647   1.388   8.092   9.791  0.5015  0.3036  1.7322
  483MOL0     H66648   1.379   7.959   9.570 -1.7691 -2.1850 -0.6971
  483MOL0     H66649   1.362   7.864   9.713  0.6841 -0.1010  1.2137
  483MOL0     H66650   1.714   7.769   9.477  1.2980  0.7114  1.3975
  483MOL0     H66651   1.654   8.506   9.818  0.4532  1.2274 -0.3167
  483MOL0     H66652   1.719   8.695  10.019 -1.3589 -2.3627 -1.3113
  483MOL0     H66653   1.746   8.742   9.851 -3.1582  0.7325 -3.1708
  483MOL0     H66654   1.656   8.849   9.951 -0.5851  0.3746 -1.4545
  484MOL0     O66655   0.591   3.852   6.859 -0.4567  0.1105 -0.2789
  484MOL0     C66656   0.521   3.761   6.809  0.1393 -0.7711  0.9937
  484MOL0     O66657   0.558   3.631   6.788 -0.3622  0.3574 -0.5225
  484MOL0     C66658   0.665   3.586   6.868  0.9681  0.8008  0.2682
  484MOL0     C66659   0.793   3.646   6.855 -0.3260 -0.3492  0.4477
  484MOL0     C66660   0.908   3.584   6.913  0.6863 -0.2163  0.1122
  484MOL0     C66661   0.892   3.456   6.981  0.7764 -0.5162 -0.2017
  484MOL0     O66662   1.012   3.407   7.034 -0.3443 -0.4003 -0.2825
  484MOL0     C66663   0.995   3.281   7.096 -1.1039  0.7619 -1.1960
  484MOL0     C66664   1.124   3.210   7.137 -0.2246  0.3219  0.9048
  484MOL0     C66665   1.211   3.293   7.237 -0.9734 -0.6493  0.4991
  484MOL0     C66666   1.356   3.242   7.247 -0.0454 -0.6599  0.4519
  484MOL0     C66667   1.444   3.320   7.337 -0.3458  0.5893 -0.7413
  484MOL0     C66668   1.584   3.256   7.355 -0.4114  0.5817 -1.0500
  484MOL0     C66669   1.677   3.337   7.458  0.5075 -0.0130  0.3141
  484MOL0     C66670   1.628   3.337   7.600  0.0010 -0.0417 -0.3122
  484MOL0     N66671   1.633   3.209   7.667 -0.3952 -0.1259 -0.2881
  484MOL0     C66672   1.534   3.155   7.751  0.2718 -0.1408 -0.2421
  484MOL0     C66673   1.607   3.075   7.830  0.1810 -0.7387 -0.1445
  484MOL0     C66674   1.552   2.992   7.942  0.1993  0.4674  0.3236
  484MOL0     C66675   1.524   3.104   8.046 -0.5555  0.7067  0.1379
  484MOL0     C66676   1.466   3.036   8.166 -0.6389  0.3707 -0.5328
  484MOL0     C66677   1.580   2.990   8.262  0.6428  0.0919  0.1486
  484MOL0     O66678   1.532   2.910   8.373 -0.2807  0.3207 -0.7833
  484MOL0     C66679   1.618   2.870   8.474 -0.0164  0.1212  0.2004
  484MOL0     C66680   1.574   2.798   8.585 -0.4209 -0.5178 -0.2259
  484MOL0     C66681   1.663   2.763   8.692 -0.3275 -0.9025 -0.1301
  484MOL0     C66682   1.602   2.679   8.803 -0.3269  0.2125 -1.1073
  484MOL0     C66683   1.805   2.790   8.680 -0.6417  1.1362 -0.5909
  484MOL0     C66684   1.902   2.758   8.785  0.6308  0.2108 -0.0309
  484MOL0     O66685   2.027   2.721   8.749 -0.2480 -0.3353  0.3418
  484MOL0     C66686   2.138   2.713   8.831 -0.0236 -0.4902 -0.0284
  484MOL0     C66687   2.136   2.699   8.973  0.6837  0.5575  0.0703
  484MOL0     C66688   2.258   2.672   9.031 -0.4818 -0.2087 -0.4051
  484MOL0     C66689   2.376   2.668   8.965 -0.7763 -0.1599 -0.2122
  484MOL0     O66690   2.493   2.646   9.033 -0.3869 -0.2766  0.2672
  484MOL0     C66691   2.491   2.566   9.144  0.0645  0.3111 -0.4240
  484MOL0     C66692   2.642   2.537   9.171  1.2807  1.0147  0.4425
  484MOL0     C66693   2.723   2.669   9.180  0.3905  0.4580  0.6603
  484MOL0     C66694   2.854   2.632   9.233 -0.0551  0.4802  0.1907
  484MOL0     C66695   2.946   2.754   9.256  0.1385  0.1532 -0.1076
  484MOL0     C66696   3.080   2.707   9.303  0.6800 -0.7942 -0.6115
  484MOL0     C66697   3.169   2.667   9.177 -0.0750 -0.2899  0.0674
  484MOL0     C66698   3.319   2.649   9.218 -0.2085  0.5948  0.2204
  484MOL0    Cl66699   3.413   2.607   9.077 -0.2502  0.1753 -0.1413
  484MOL0     C66700   2.380   2.687   8.824  0.7313 -0.2261  0.5147
  484MOL0     C66701   2.258   2.707   8.755 -0.2547 -0.5680  0.3760
  484MOL0     O66702   1.859   2.775   8.903 -0.2909 -0.2803  0.5602
  484MOL0     C66703   1.848   2.860   8.561  0.4250 -0.2204  0.7985
  484MOL0     C66704   1.754   2.898   8.461  1.5030 -0.5962  0.4771
  484MOL0     N66705   1.741   3.069   7.793  0.4863  0.2935  0.4889
  484MOL0     N66706   1.750   3.150   7.695 -0.0353 -0.3764 -0.6383
  484MOL0     C66707   0.766   3.402   6.989  0.1384  0.4478 -1.0820
  484MOL0     C66708   0.650   3.459   6.928  0.6841 -0.2893 -0.2766
  484MOL0     C66709   0.397   3.814   6.747  0.0171  0.3679 -0.3778
  484MOL0     C66710   0.402   3.904   6.639 -0.2088 -0.1422 -0.0577
  484MOL0     C66711   0.281   3.949   6.583  0.5104  0.1834 -0.4833
  484MOL0     C66712   0.156   3.911   6.641  0.3125  1.0956  0.4194
  484MOL0     O66713   0.042   3.961   6.582  0.3227  0.0180  0.1517
  484MOL0     C66714  -0.055   3.991   6.678 -0.5648  0.0706 -0.3480
  484MOL0     C66715  -0.181   4.049   6.621 -0.2802  0.3094  0.0966
  484MOL0     C66716  -0.154   4.173   6.540 -0.3242  0.6844  0.9849
  484MOL0     C66717  -0.285   4.222   6.488 -0.1101 -0.0408  0.2484
  484MOL0     C66718  -0.391   4.257   6.585 -0.5007 -0.3372 -0.6142
  484MOL0     C66719  -0.471   4.286   6.679  0.5654 -1.4298 -0.1913
  484MOL0     C66720   0.155   3.812   6.742 -0.4993 -0.0573  0.2652
  484MOL0     C66721   0.273   3.759   6.792  0.9467  0.0464  0.9184
  484MOL0     C66722   0.252   3.641   6.886  1.7288  0.4440 -0.2705
  484MOL0     H66723   0.806   3.717   6.774  0.9201  0.2415  1.1298
  484MOL0     H66724   1.002   3.638   6.918 -0.0940  1.1276  1.2648
  484MOL0     H66725   0.952   3.216   7.020  0.7938 -0.5462 -1.2224
  484MOL0     H66726   0.937   3.292   7.188  0.5554 -1.2778  0.1944
  484MOL0     H66727   1.097   3.111   7.177 -0.0937 -0.1079 -0.0333
  484MOL0     H66728   1.173   3.193   7.040  2.5023 -0.3565  2.2918
  484MOL0     H66729   1.211   3.401   7.221 -1.6000 -0.8966 -1.5131
  484MOL0     H66730   1.174   3.275   7.338 -2.2678  4.3130  1.1776
  484MOL0     H66731   1.344   3.148   7.301  0.6239 -1.7429 -1.2028
  484MOL0     H66732   1.403   3.247   7.148 -0.5049  0.8810  0.2832
  484MOL0     H66733   1.394   3.325   7.434 -2.4464  0.3123 -1.7368
  484MOL0     H66734   1.448   3.421   7.295  1.0583 -0.0346 -2.2225
  484MOL0     H66735   1.561   3.158   7.398 -2.8124  0.7724 -1.7836
  484MOL0     H66736   1.643   3.247   7.263 -1.2459 -2.4987 -1.4102
  484MOL0     H66737   1.681   3.443   7.434  2.6053 -0.7120 -3.1973
  484MOL0     H66738   1.780   3.300   7.447  0.0883 -0.6180 -2.2945
  484MOL0     H66739   1.686   3.404   7.664  0.3331 -2.4067  2.0098
  484MOL0     H66740   1.522   3.364   7.608  0.2077  0.5189  0.7564
  484MOL0     H66741   1.430   3.186   7.746  1.1893  3.0909 -2.2150
  484MOL0     H66742   1.626   2.925   7.987  0.4367 -1.3723 -2.5438
  484MOL0     H66743   1.464   2.929   7.926  0.2350 -0.8820  4.3259
  484MOL0     H66744   1.612   3.160   8.078 -1.7789  1.4174  2.4226
  484MOL0     H66745   1.456   3.180   8.006  1.7035  1.0349 -3.6111
  484MOL0     H66746   1.404   3.101   8.228 -0.6012 -1.0752  1.1213
  484MOL0     H66747   1.395   2.959   8.135 -1.9606  1.6428 -0.7372
  484MOL0     H66748   1.655   2.931   8.207 -1.0540 -2.3879  0.3035
  484MOL0     H66749   1.625   3.081   8.302 -2.9646  2.7217 -1.2753
  484MOL0     H66750   1.471   2.763   8.589 -0.4833 -0.3403 -0.3111
  484MOL0     H66751   1.510   2.631   8.770 -0.0805  0.0168 -1.5253
  484MOL0     H66752   1.593   2.732   8.898  6.5134 -0.5286  0.5140
  484MOL0     H66753   1.674   2.598   8.819 -0.1783  0.2893 -1.3838
  484MOL0     H66754   2.048   2.688   9.036  1.1910 -1.7958  0.4586
  484MOL0     H66755   2.254   2.655   9.138  0.7271 -1.2826 -0.5008
  484MOL0     H66756   2.442   2.628   9.219 -1.6849 -2.2435  0.6764
  484MOL0     H66757   2.446   2.470   9.116 -0.9452  0.2703  1.2472
  484MOL0     H66758   2.644   2.497   9.272 -0.3851 -2.2395 -0.6613
  484MOL0     H66759   2.680   2.468   9.095 -1.1525  0.1362 -0.0544
  484MOL0     H66760   2.674   2.747   9.239  2.0809  0.6284  1.8942
  484MOL0     H66761   2.729   2.707   9.078 -1.6858  0.0656  0.3429
  484MOL0     H66762   2.898   2.563   9.161 -1.0814 -1.2735  1.1806
  484MOL0     H66763   2.835   2.570   9.321 -4.4321  1.0018 -0.1636
  484MOL0     H66764   2.951   2.819   9.168 -0.0271  0.6589  0.2449
  484MOL0     H66765   2.913   2.818   9.339  0.8185  0.3489  0.0201
  484MOL0     H66766   3.067   2.618   9.366 -1.5333 -0.4700 -0.5345
  484MOL0     H66767   3.122   2.793   9.356  2.5866 -1.4731 -0.9689
  484MOL0     H66768   3.164   2.743   9.099  0.3354  0.0839  0.3990
  484MOL0     H66769   3.132   2.570   9.143 -1.2552  1.1410 -3.0231
  484MOL0     H66770   3.327   2.561   9.283  2.4592 -1.0386 -2.0556
  484MOL0     H66771   3.366   2.736   9.265  1.5524 -0.6514  0.9085
  484MOL0     H66772   2.470   2.684   8.764  0.1264 -1.3031 -0.3989
  484MOL0     H66773   2.263   2.708   8.646  3.3141  0.0423  0.4417
  484MOL0     H66774   1.950   2.897   8.554 -0.3134  1.6823 -0.5722
  484MOL0     H66775   1.803   2.963   8.389  3.5051 -1.0369  1.3660
  484MOL0     H66776   0.735   3.307   7.032 -2.0945  1.7121  0.2650
  484MOL0     H66777   0.555   3.408   6.930 -0.9927  2.6031 -1.0247
  484MOL0     H66778   0.490   3.959   6.606 -0.6118  0.6996  0.2599
  484MOL0     H66779   0.290   4.023   6.504  3.0345 -1.1313 -1.5487
  484MOL0     H66780  -0.083   3.891   6.713  0.0684 -0.1993 -0.6089
  484MOL0     H66781  -0.021   4.062   6.754 -3.8248  1.1879  0.2470
  484MOL0     H66782  -0.245   4.078   6.705  0.4302  1.4809  0.2573
  484MOL0     H66783  -0.238   3.973   6.566  0.8894 -0.2360 -0.3818
  484MOL0     H66784  -0.099   4.247   6.599  1.6131 -0.9003  1.2600
  484MOL0     H66785  -0.094   4.138   6.455  1.4799 -2.9033  3.4724
  484MOL0     H66786  -0.332   4.150   6.420 -2.1340  1.7968 -0.4508
  484MOL0     H66787  -0.266   4.313   6.429  0.9678  0.5822  1.4961
  484MOL0     H66788  -0.532   4.325   6.759  0.9790  0.9210 -0.9343
  484MOL0     H66789   0.064   3.779   6.791  0.9789  0.1001  3.4065
  484MOL0     H66790   0.156   3.589   6.880  0.2421  3.0999 -1.3419
  484MOL0     H66791   0.331   3.566   6.887  0.8723 -0.5762  3.1339
  484MOL0     H66792   0.247   3.685   6.986 -1.5972 -1.3368  0.5004
  485MOL0     O66793   6.369   7.224   4.834  0.3113 -0.1551  0.8204
  485MOL0     C66794   6.300   7.207   4.934  0.4230 -0.3940  0.2598
  485MOL0     O66795   6.342   7.217   5.063  0.1585 -0.9568  1.2820
  485MOL0     C66796   6.440   7.312   5.080 -0.4776 -0.1010  0.3894
  485MOL0     C66797   6.570   7.288   5.038  0.1611 -0.0964 -0.0491
  485MOL0     C66798   6.674   7.385   5.074 -0.0124  0.2277  0.3326
  485MOL0     C66799   6.647   7.506   5.139 -0.6695  0.4774  1.1178
  485MOL0     O66800   6.745   7.602   5.160 -0.2143 -0.1303  0.2283
  485MOL0     C66801   6.830   7.574   5.267  0.0796 -0.2990 -0.5135
  485MOL0     C66802   6.980   7.583   5.220 -0.5376  0.4518 -0.4695
  485MOL0     C66803   7.009   7.727   5.198  0.2088 -0.0848 -0.2473
  485MOL0     C66804   7.149   7.764   5.163 -0.3541 -0.8998  0.4121
  485MOL0     C66805   7.151   7.922   5.148 -0.3571 -0.2611 -0.0933
  485MOL0     C66806   7.298   7.959   5.122  0.2387  0.3860 -1.2319
  485MOL0     C66807   7.327   8.108   5.103 -0.1534  0.3968 -0.7188
  485MOL0     C66808   7.462   8.124   5.035  1.0546  0.5330  0.2324
  485MOL0     N66809   7.494   8.265   5.050 -0.2900  0.5186  0.1183
  485MOL0     C66810   7.495   8.346   4.935  0.5487 -0.4089 -0.7096
  485MOL0     C66811   7.546   8.465   4.977  0.1909 -0.1902  0.3212
  485MOL0     C66812   7.553   8.581   4.893  0.1305  0.4308  0.5191
  485MOL0     C66813   7.412   8.646   4.864  0.0687  0.6106 -0.2629
  485MOL0     C66814   7.435   8.779   4.795 -0.4543 -0.0920  0.3515
  485MOL0     C66815   7.482   8.898   4.879  1.0506  0.6101 -0.3341
  485MOL0     O66816   7.493   9.018   4.810  0.5176  0.3029  0.9212
  485MOL0     C66817   7.615   9.063   4.775 -0.4290  0.1723  0.8474
  485MOL0     C66818   7.624   9.199   4.790  0.5075 -0.1613 -0.1667
  485MOL0     C66819   7.737   9.273   4.749 -0.0367  0.1855 -0.0199
  485MOL0     C66820   7.721   9.421   4.777 -0.1842 -0.7042 -0.5547
  485MOL0     C66821   7.848   9.214   4.704 -0.4802 -0.0651  0.7478
  485MOL0     C66822   7.967   9.280   4.668  0.3277 -0.5621 -0.0520
  485MOL0     O66823   8.030   9.235   4.562  0.0534 -0.2079  0.4419
  485MOL0     C66824   8.155   9.297   4.547 -0.1489 -1.2645 -0.2827
  485MOL0     C66825   8.270   9.230   4.601  0.5271 -0.4996  0.3752
  485MOL0     C66826   8.391   9.282   4.560 -1.0639  0.5441  0.4527
  485MOL0     C66827   8.408   9.392   4.475  0.0222  0.4959  0.4709
  485MOL0     O66828   8.535   9.448   4.458 -0.2357  0.5029 -0.2913
  485MOL0     C66829   8.557   9.528   4.343 -0.3138 -0.0518  0.7235
  485MOL0     C66830   8.702   9.567   4.358  0.5750 -0.5441 -0.6403
  485MOL0     C66831   8.737   9.666   4.237 -0.7121 -0.2751 -1.3688
  485MOL0     C66832   8.883   9.719   4.240  0.1436  0.0299  0.0154
  485MOL0     C66833   8.925   9.797   4.112 -0.2876  0.8130  0.5001
  485MOL0     C66834   8.853   9.927   4.094  0.1322  0.0520 -0.6101
  485MOL0     C66835   8.909   9.994   3.965  0.7066  0.4351 -0.0130
  485MOL0     C66836   8.829  10.115   3.948  0.2196 -0.7739  0.7456
  485MOL0    Cl66837   8.903  10.252   4.043  0.0201 -0.0731 -0.3072
  485MOL0     C66838   8.292   9.462   4.439  0.0646 -0.5569  0.4838
  485MOL0     C66839   8.163   9.415   4.474 -0.5377 -0.1720 -0.3922
  485MOL0     O66840   7.999   9.377   4.736  0.0851 -0.5025 -0.4007
  485MOL0     C66841   7.836   9.066   4.687 -1.4567 -0.2196 -0.7283
  485MOL0     C66842   7.722   8.993   4.719 -0.5344 -0.0643  1.1763
  485MOL0     N66843   7.579   8.443   5.111 -0.1731  0.1997 -0.1515
  485MOL0     N66844   7.554   8.326   5.154  0.4142  0.4155 -0.2961
  485MOL0     C66845   6.516   7.539   5.157 -0.3105  0.7092 -0.8811
  485MOL0     C66846   6.416   7.437   5.141 -0.4885  0.6714  0.2934
  485MOL0     C66847   6.169   7.129   4.917 -0.4620 -0.6161  0.0540
  485MOL0     C66848   6.126   7.047   5.023 -0.4342 -0.6921  0.3900
  485MOL0     C66849   6.030   6.950   5.013  0.3734  0.9557 -0.1798
  485MOL0     C66850   5.953   6.934   4.887 -0.4189 -0.0871  0.2983
  485MOL0     O66851   5.862   6.836   4.854 -0.0764 -0.3993  0.3003
  485MOL0     C66852   5.795   6.783   4.966 -0.2466 -0.7822 -0.0810
  485MOL0     C66853   5.639   6.789   4.940 -0.0154 -0.1057  0.7447
  485MOL0     C66854   5.603   6.690   4.827  0.5973 -0.3662  0.1269
  485MOL0     C66855   5.580   6.781   4.698  0.5571 -0.7413 -0.8530
  485MOL0     C66856   5.573   6.689   4.590 -0.1854 -0.0667  0.1913
  485MOL0     C66857   5.553   6.600   4.507 -0.6673 -0.7569  0.1761
  485MOL0     C66858   5.985   7.037   4.789  0.0795  0.0240 -0.3189
  485MOL0     C66859   6.087   7.127   4.804  0.0253 -0.2317 -0.0492
  485MOL0     C66860   6.122   7.212   4.682 -0.5613 -0.0996 -0.1768
  485MOL0     H66861   6.587   7.189   4.997  4.1011 -0.6021  2.3225
  485MOL0     H66862   6.778   7.361   5.051 -0.3656  0.7198 -1.9496
  485MOL0     H66863   6.809   7.484   5.326  0.8284 -0.3132 -0.2579
  485MOL0     H66864   6.815   7.664   5.327 -1.9083  1.6511 -3.6487
  485MOL0     H66865   7.054   7.543   5.289  1.2420  2.0585 -1.3478
  485MOL0     H66866   7.004   7.521   5.134  0.9265 -0.2856  0.4413
  485MOL0     H66867   6.941   7.769   5.123 -0.6355  0.5148  0.8245
  485MOL0     H66868   7.007   7.788   5.289 -0.4976  0.3704 -0.5567
  485MOL0     H66869   7.218   7.729   5.241 -0.9150 -1.6094  0.5932
  485MOL0     H66870   7.188   7.734   5.065  0.8273 -1.4776  1.0337
  485MOL0     H66871   7.114   7.971   5.239 -1.5201 -2.8701  0.9797
  485MOL0     H66872   7.096   7.959   5.061  1.9249  2.7510 -0.4011
  485MOL0     H66873   7.346   7.934   5.217 -1.9972 -1.3225 -0.4731
  485MOL0     H66874   7.342   7.896   5.045  0.0662 -0.2683 -0.8006
  485MOL0     H66875   7.333   8.158   5.200  0.7125 -1.1484  0.0724
  485MOL0     H66876   7.255   8.160   5.039 -0.9853 -0.5155 -0.5472
  485MOL0     H66877   7.542   8.066   5.082  0.4375  1.5307  2.7128
  485MOL0     H66878   7.445   8.096   4.931  0.3591  1.0998  0.1839
  485MOL0     H66879   7.444   8.344   4.840 -1.1729  2.2253  0.0563
  485MOL0     H66880   7.602   8.546   4.802 -2.3959 -3.8470  0.5409
  485MOL0     H66881   7.615   8.651   4.949 -0.4111  0.6740  0.8260
  485MOL0     H66882   7.357   8.566   4.814 -0.1136  0.6789 -0.1761
  485MOL0     H66883   7.359   8.671   4.957  0.2545  1.0619 -0.2727
  485MOL0     H66884   7.509   8.769   4.716 -0.2620  1.0802  0.3757
  485MOL0     H66885   7.344   8.799   4.737 -0.0890 -3.7010 -1.7799
  485MOL0     H66886   7.396   8.909   4.946  1.3450  1.4800 -0.0863
  485MOL0     H66887   7.565   8.868   4.943 -1.5495 -0.0340  3.0352
  485MOL0     H66888   7.545   9.261   4.831  0.1200  0.2484 -1.4832
  485MOL0     H66889   7.770   9.443   4.872 -0.8658  1.8695 -0.7230
  485MOL0     H66890   7.614   9.442   4.783 -0.3930 -1.5228 -1.2844
  485MOL0     H66891   7.773   9.489   4.709 -0.2390 -0.6695 -0.5625
  485MOL0     H66892   8.257   9.134   4.650  0.8469 -1.5655 -1.5308
  485MOL0     H66893   8.481   9.232   4.594 -2.2536 -1.8127  0.3751
  485MOL0     H66894   8.547   9.466   4.254  2.7020 -0.4590  0.5509
  485MOL0     H66895   8.493   9.616   4.332 -0.1026  0.0551  0.3378
  485MOL0     H66896   8.717   9.621   4.452 -0.1000 -2.3439  0.5666
  485MOL0     H66897   8.774   9.484   4.354  2.1133  0.6439  0.7611
  485MOL0     H66898   8.673   9.755   4.242 -2.2445 -1.3178 -1.7193
  485MOL0     H66899   8.721   9.608   4.146  1.8830  0.5108 -2.4283
  485MOL0     H66900   8.946   9.630   4.241  2.2361  1.4266 -0.9349
  485MOL0     H66901   8.908   9.783   4.325  1.0289  1.7510 -1.4664
  485MOL0     H66902   9.034   9.800   4.103 -0.3451  1.2163 -0.1741
  485MOL0     H66903   8.905   9.735   4.024  5.7805 -0.7488 -0.2069
  485MOL0     H66904   8.870  10.000   4.173 -0.8844 -0.7796  0.3981
  485MOL0     H66905   8.748   9.899   4.079  0.4771 -2.3521  0.9524
  485MOL0     H66906   8.872   9.918   3.896  1.0390 -2.1695  2.4798
  485MOL0     H66907   9.018  10.006   3.962  0.9456 -1.0091  1.3791
  485MOL0     H66908   8.728  10.100   3.986 -0.7236  1.3667 -0.7706
  485MOL0     H66909   8.821  10.154   3.846 -0.9267  0.4915  1.3067
  485MOL0     H66910   8.298   9.564   4.403 -0.4326  0.9355  4.1578
  485MOL0     H66911   8.073   9.450   4.425 -1.7095  1.0011  2.3896
  485MOL0     H66912   7.924   9.018   4.645  0.8500  1.3618  1.9529
  485MOL0     H66913   7.710   8.887   4.703 -1.7104 -0.0493  1.7753
  485MOL0     H66914   6.489   7.634   5.203  0.3945  0.9035 -0.8645
  485MOL0     H66915   6.312   7.439   5.175 -1.3016  0.2236 -1.9976
  485MOL0     H66916   6.186   7.049   5.113  0.2565 -2.9414  0.0633
  485MOL0     H66917   6.011   6.881   5.094  0.2846  1.1176 -0.0630
  485MOL0     H66918   5.822   6.680   4.990  0.8555 -1.1234 -2.5092
  485MOL0     H66919   5.806   6.834   5.062  2.2100 -1.3409  0.0016
  485MOL0     H66920   5.617   6.892   4.912  2.0734 -0.1217 -1.1498
  485MOL0     H66921   5.589   6.762   5.034 -1.4423  0.2256  0.1014
  485MOL0     H66922   5.682   6.622   4.793 -1.0075 -1.2459 -2.0887
  485MOL0     H66923   5.521   6.621   4.847  1.9760 -2.2700 -0.4747
  485MOL0     H66924   5.655   6.858   4.676 -2.4977  1.9315 -2.7412
  485MOL0     H66925   5.484   6.834   4.698 -0.4670 -2.5233 -0.3736
  485MOL0     H66926   5.526   6.527   4.434 -2.6922 -3.2296  3.1626
  485MOL0     H66927   5.925   7.033   4.698  1.6413 -0.4425 -1.3682
  485MOL0     H66928   6.038   7.207   4.612  1.5264 -2.2323 -2.7366
  485MOL0     H66929   6.137   7.318   4.706 -0.0139  0.1469 -1.4989
  485MOL0     H66930   6.206   7.169   4.626  1.3241  0.5463  1.9725
  486MOL0     O66931   0.173   4.413   6.902 -0.2838  0.2046  1.1438
  486MOL0     C66932   0.279   4.465   6.939 -0.1950  0.3365 -0.2564
  486MOL0     O66933   0.281   4.588   7.009 -0.0042  0.3231 -0.0996
  486MOL0     C66934   0.172   4.646   7.061  1.1936  0.0219  0.8919
  486MOL0     C66935   0.046   4.585   7.087  0.1198 -0.7925  0.2293
  486MOL0     C66936  -0.055   4.651   7.159 -0.4463  0.1874 -1.4782
  486MOL0     C66937  -0.026   4.776   7.216  0.8732 -0.1028  0.1506
  486MOL0     O66938  -0.112   4.844   7.298  0.3501  0.0176 -0.6604
  486MOL0     C66939  -0.233   4.787   7.340  0.4190 -0.1213 -0.1107
  486MOL0     C66940  -0.280   4.884   7.448 -0.7856  0.3532  0.1803
  486MOL0     C66941  -0.414   4.840   7.509 -0.8849  0.3651 -0.1952
  486MOL0     C66942  -0.459   4.928   7.619  0.0859  0.7527  0.2327
  486MOL0     C66943  -0.607   4.897   7.654 -0.0893  0.3298  0.1053
  486MOL0     C66944  -0.668   5.010   7.736  0.0890  0.3481  0.2004
  486MOL0     C66945  -0.795   4.958   7.796  0.1363 -0.0458 -0.9492
  486MOL0     C66946  -0.864   5.052   7.897  0.0082  0.3855 -0.5642
  486MOL0     N66947  -0.995   5.002   7.938  0.3101  0.6787 -0.6547
  486MOL0     C66948  -1.024   4.878   7.993 -0.4590 -0.1207  1.2632
  486MOL0     C66949  -1.149   4.890   8.037  0.6918 -0.2203 -0.5513
  486MOL0     C66950  -1.204   4.788   8.134 -0.3918 -0.1376 -0.5320
  486MOL0     C66951  -1.144   4.787   8.274  0.2289  0.3594 -0.1568
  486MOL0     C66952  -1.178   4.890   8.379 -0.2501  0.4649  0.3867
  486MOL0     C66953  -1.075   4.885   8.490 -0.5070 -0.0047  0.1424
  486MOL0     O66954  -1.096   5.001   8.582  0.5074 -0.8879  0.2702
  486MOL0     C66955  -1.004   5.015   8.679 -0.0125 -0.1762  0.5571
  486MOL0     C66956  -0.883   4.948   8.693 -0.1327  0.2836 -0.0554
  486MOL0     C66957  -0.797   4.974   8.802  0.0382 -0.6257  0.5388
  486MOL0     C66958  -0.671   4.894   8.807  0.9205 -0.3354 -0.2464
  486MOL0     C66959  -0.836   5.060   8.903 -0.0321  1.1109  0.5074
  486MOL0     C66960  -0.764   5.093   9.023  0.0934  1.0382  0.1058
  486MOL0     O66961  -0.706   4.998   9.105 -0.2672  0.7782 -0.1943
  486MOL0     C66962  -0.613   5.030   9.199  0.2128 -0.0995 -0.3324
  486MOL0     C66963  -0.628   5.130   9.292 -0.6100 -0.0315 -0.1971
  486MOL0     C66964  -0.535   5.158   9.387  0.2648  0.0431  0.0539
  486MOL0     C66965  -0.408   5.086   9.390  0.2275  0.3218 -0.2431
  486MOL0     O66966  -0.308   5.106   9.478 -0.5260 -0.1645  0.1430
  486MOL0     C66967  -0.317   5.203   9.588 -0.5078 -0.5298  1.7825
  486MOL0     C66968  -0.216   5.313   9.563 -0.0646 -0.2571  0.1002
  486MOL0     C66969  -0.059   5.266   9.569  0.8431 -0.5503  0.2284
  486MOL0     C66970  -0.023   5.223   9.702  0.2041  0.5517 -0.6635
  486MOL0     C66971   0.127   5.191   9.698 -0.7124 -0.0229 -0.2507
  486MOL0     C66972   0.163   5.150   9.841 -0.3214  0.7186  0.2844
  486MOL0     C66973   0.076   5.056   9.920  0.6860 -0.6659 -0.4006
  486MOL0     C66974   0.141   5.003  10.051  0.3775 -0.1967  0.3097
  486MOL0    Cl66975   0.020   4.896  10.131  0.5642  0.3439  0.6384
  486MOL0     C66976  -0.396   4.989   9.297 -0.3624  0.4694  0.5125
  486MOL0     C66977  -0.496   4.955   9.202 -0.2810  0.7217  0.4393
  486MOL0     O66978  -0.756   5.209   9.044 -0.1285  0.4667  0.5797
  486MOL0     C66979  -0.952   5.133   8.872  0.9909 -0.1732  0.5163
  486MOL0     C66980  -1.025   5.117   8.762 -0.3853  0.1847 -0.3065
  486MOL0     N66981  -1.204   5.015   8.003  0.3588  0.0015 -0.0063
  486MOL0     N66982  -1.100   5.084   7.953  0.7130  1.2425  0.5949
  486MOL0     C66983   0.090   4.850   7.188 -0.1197 -0.2174  1.1050
  486MOL0     C66984   0.183   4.775   7.115 -0.3605  0.1424  0.9828
  486MOL0     C66985   0.404   4.395   6.909 -0.2424 -0.0838 -0.1540
  486MOL0     C66986   0.505   4.488   6.883  0.3795  0.8039  0.2803
  486MOL0     C66987   0.633   4.439   6.857 -0.2719 -0.6505  0.3002
  486MOL0     C66988   0.658   4.304   6.869 -1.1838  0.0187  0.4654
  486MOL0     O66989   0.783   4.259   6.846  0.2308  1.2277 -0.1133
  486MOL0     C66990   0.854   4.223   6.972  0.1726 -0.6561  0.4671
  486MOL0     C66991   0.916   4.078   6.974 -0.0811 -0.3221 -0.7019
  486MOL0     C66992   1.019   4.056   6.865 -0.0587  0.2851  0.2916
  486MOL0     C66993   1.166   4.091   6.895  0.0109  0.2329 -0.2312
  486MOL0     C66994   1.262   4.069   6.790  0.2868  0.2181 -0.5410
  486MOL0     C66995   1.359   4.047   6.724  0.3296  0.5539 -0.2035
  486MOL0     C66996   0.561   4.218   6.907 -0.1253 -0.4691  0.5765
  486MOL0     C66997   0.428   4.257   6.924 -0.1549  0.4337 -1.0633
  486MOL0     C66998   0.329   4.154   6.968 -0.5148  0.9229  0.5047
  486MOL0     H66999   0.016   4.488   7.048 -3.1770 -0.3191  1.3164
  486MOL0     H67000  -0.150   4.601   7.176  0.0323 -0.5678 -0.9283
  486MOL0     H67001  -0.220   4.685   7.378  0.7250  0.3118  1.0179
  486MOL0     H67002  -0.297   4.786   7.252  0.1021  0.4381  0.1080
  486MOL0     H67003  -0.203   4.892   7.524 -1.8986  0.0539  1.3827
  486MOL0     H67004  -0.292   4.986   7.409 -0.3540  0.5929  0.6597
  486MOL0     H67005  -0.488   4.843   7.428  1.5286  0.9586 -2.5139
  486MOL0     H67006  -0.407   4.739   7.550  0.3726 -0.3020 -1.8938
  486MOL0     H67007  -0.403   4.913   7.712 -2.3124  0.5857  1.7588
  486MOL0     H67008  -0.454   5.032   7.585 -3.0547  0.7039 -0.7047
  486MOL0     H67009  -0.602   4.810   7.720  0.3368 -0.9788 -1.5974
  486MOL0     H67010  -0.674   4.880   7.570 -3.6503  2.5820  2.2221
  486MOL0     H67011  -0.600   5.033   7.818 -0.1196 -2.5107  1.3055
  486MOL0     H67012  -0.695   5.091   7.668  0.4255 -0.0616 -0.4264
  486MOL0     H67013  -0.778   4.867   7.854 -0.2780  2.2339  3.1556
  486MOL0     H67014  -0.876   4.934   7.728 -1.7450 -1.0243  1.4991
  486MOL0     H67015  -0.797   5.069   7.982 -1.6887 -0.0174  0.9413
  486MOL0     H67016  -0.893   5.150   7.857  0.6702  1.6192  1.7623
  486MOL0     H67017  -0.959   4.793   8.012 -1.3640 -1.0491  0.3359
  486MOL0     H67018  -1.185   4.687   8.096  0.4138  0.1069 -0.7877
  486MOL0     H67019  -1.312   4.803   8.145 -0.3338  0.0852 -0.2745
  486MOL0     H67020  -1.177   4.694   8.323 -1.6220  1.8470  1.5748
  486MOL0     H67021  -1.035   4.786   8.263  0.6008 -2.7811  2.1432
  486MOL0     H67022  -1.196   4.991   8.341  1.9593  0.3567 -1.1196
  486MOL0     H67023  -1.269   4.854   8.427  0.1855 -1.9759 -0.5087
  486MOL0     H67024  -1.081   4.786   8.537  0.8672 -0.1134  0.1197
  486MOL0     H67025  -0.977   4.890   8.442  1.7332  0.0474  4.2373
  486MOL0     H67026  -0.861   4.864   8.629 -1.7732 -0.5364  0.4001
  486MOL0     H67027  -0.689   4.816   8.881 -3.5545  0.8134  0.1782
  486MOL0     H67028  -0.585   4.950   8.846 -0.2145  0.6438  0.9616
  486MOL0     H67029  -0.649   4.845   8.712  3.1526  0.7228 -0.3326
  486MOL0     H67030  -0.723   5.183   9.286 -2.5040 -2.9860  1.0667
  486MOL0     H67031  -0.556   5.235   9.460  1.7165  1.1173 -0.6229
  486MOL0     H67032  -0.419   5.240   9.603 -0.8415  0.5796 -2.0706
  486MOL0     H67033  -0.294   5.141   9.675  0.4757  1.2805  2.8717
  486MOL0     H67034  -0.246   5.370   9.475  0.4936 -0.1324 -0.0123
  486MOL0     H67035  -0.238   5.366   9.657 -2.2078 -2.0478  0.7214
  486MOL0     H67036   0.003   5.348   9.531  1.8915 -2.0125 -1.3750
  486MOL0     H67037  -0.053   5.186   9.495  0.4889 -0.6280  0.2830
  486MOL0     H67038  -0.085   5.136   9.726 -1.4595  1.6336 -0.9095
  486MOL0     H67039  -0.038   5.303   9.776  0.2962  1.9267 -2.0727
  486MOL0     H67040   0.148   5.110   9.628  1.2552  2.5028 -2.8093
  486MOL0     H67041   0.188   5.279   9.679  2.6674 -1.8269  1.3159
  486MOL0     H67042   0.172   5.249   9.888 -1.2936  1.1753 -0.4644
  486MOL0     H67043   0.262   5.107   9.827 -0.7399  0.2979 -1.6478
  486MOL0     H67044   0.046   4.973   9.855 -0.0341 -0.5061 -0.2812
  486MOL0     H67045  -0.015   5.111   9.945  2.4765  2.0989  0.4822
  486MOL0     H67046   0.170   5.092  10.107  1.4157  1.1854 -2.2486
  486MOL0     H67047   0.226   4.944  10.017 -0.6735 -2.6942  1.7481
  486MOL0     H67048  -0.306   4.928   9.296 -1.7743 -1.8383  2.5112
  486MOL0     H67049  -0.492   4.881   9.122  0.6088  0.2008  0.9574
  486MOL0     H67050  -0.985   5.208   8.943  4.0221 -1.5023  3.7002
  486MOL0     H67051  -1.108   5.187   8.747  1.0134  2.2020  0.8523
  486MOL0     H67052   0.115   4.946   7.232 -1.1713 -0.1610  1.6045
  486MOL0     H67053   0.283   4.817   7.121 -0.4893  1.5016 -3.3231
  486MOL0     H67054   0.480   4.594   6.876 -4.5159 -0.1621 -0.5494
  486MOL0     H67055   0.710   4.499   6.809  0.7729 -1.3311  1.0906
  486MOL0     H67056   0.932   4.298   6.991 -0.4404  0.4100 -1.0085
  486MOL0     H67057   0.780   4.243   7.050 -2.5596  2.1858 -2.5337
  486MOL0     H67058   0.834   4.006   6.973  0.2454 -0.8209  1.6140
  486MOL0     H67059   0.973   4.059   7.066 -0.8518 -2.0789 -0.5427
  486MOL0     H67060   1.027   3.948   6.847  1.7181  0.6100 -1.0828
  486MOL0     H67061   0.976   4.106   6.778 -2.2837 -0.0777  1.1123
  486MOL0     H67062   1.214   4.032   6.974  1.0309  2.4063  0.8518
  486MOL0     H67063   1.179   4.195   6.926  2.8999 -0.0244 -0.2684
  486MOL0     H67064   1.450   4.018   6.675 -0.9810  1.2550 -3.2875
  486MOL0     H67065   0.590   4.114   6.902  2.1638  0.1405 -0.2133
  486MOL0     H67066   0.331   4.066   6.904  1.0570 -0.0190  1.7899
  486MOL0     H67067   0.351   4.124   7.071 -1.2636  2.0166  1.0090
  486MOL0     H67068   0.230   4.201   6.970  0.0637  2.1936  0.3555
  487MOL0     O67069   2.661   6.585   0.587 -0.2502 -0.1169  0.4376
  487MOL0     C67070   2.607   6.493   0.541  1.2262  0.7133  0.3689
  487MOL0     O67071   2.673   6.390   0.493 -0.2047 -0.3689 -0.3424
  487MOL0     C67072   2.814   6.391   0.490  1.3735  0.6873 -0.7105
  487MOL0     C67073   2.884   6.385   0.607 -0.1200 -0.6220 -0.9088
  487MOL0     C67074   3.028   6.404   0.595 -0.6694 -0.2944  0.0394
  487MOL0     C67075   3.091   6.421   0.473 -0.4686 -0.5426  0.4812
  487MOL0     O67076   3.230   6.432   0.458  0.6359  0.1067 -0.2899
  487MOL0     C67077   3.274   6.549   0.524  0.1829  0.3465  1.1873
  487MOL0     C67078   3.271   6.676   0.430  0.0170  0.6391 -0.8480
  487MOL0     C67079   3.331   6.634   0.299 -0.6935 -0.2002 -0.4024
  487MOL0     C67080   3.315   6.743   0.207 -0.4788  0.1732  0.1792
  487MOL0     C67081   3.408   6.718   0.088  0.0127 -0.0218 -0.2691
  487MOL0     C67082   3.356   6.804  -0.032  0.0496  0.8383 -0.1509
  487MOL0     C67083   3.462   6.799  -0.143  0.0870  0.8434 -0.1710
  487MOL0     C67084   3.590   6.879  -0.110  0.3734 -0.1555 -1.2459
  487MOL0     N67085   3.667   6.911  -0.225 -0.3597 -0.3579  0.0993
  487MOL0     C67086   3.697   7.039  -0.261 -0.1387  0.2424 -1.0654
  487MOL0     C67087   3.814   7.019  -0.336  0.2916 -0.3631  0.3818
  487MOL0     C67088   3.899   7.116  -0.396  0.6184  0.5614  0.1733
  487MOL0     C67089   3.989   7.181  -0.290  0.0882 -0.2351  0.9104
  487MOL0     C67090   4.085   7.288  -0.342  0.3497  0.0333 -0.3623
  487MOL0     C67091   4.039   7.396  -0.441  0.1252 -0.1614 -0.4680
  487MOL0     O67092   4.027   7.342  -0.575 -0.6710 -0.4866 -0.7339
  487MOL0     C67093   3.959   7.416  -0.667 -0.2587  1.3911 -0.2576
  487MOL0     C67094   3.894   7.535  -0.646  0.3727  0.2124 -0.0561
  487MOL0     C67095   3.845   7.620  -0.748 -0.2146 -0.0843 -0.4497
  487MOL0     C67096   3.802   7.754  -0.705  1.0218 -0.2786  0.6630
  487MOL0     C67097   3.852   7.575  -0.879  0.1968  0.2653 -0.0755
  487MOL0     C67098   3.809   7.654  -0.995  0.0548 -0.1807 -0.7084
  487MOL0     O67099   3.693   7.726  -0.996 -0.8856  0.5634  0.6474
  487MOL0     C67100   3.645   7.798  -1.102  0.9413  0.9232  0.2495
  487MOL0     C67101   3.517   7.766  -1.148 -0.7003  0.7322  0.9649
  487MOL0     C67102   3.468   7.838  -1.253  0.5595 -0.6054  0.4314
  487MOL0     C67103   3.522   7.953  -1.295  0.1219 -0.0797  1.3501
  487MOL0     O67104   3.463   8.035  -1.385 -0.5940 -0.2442  0.1300
  487MOL0     C67105   3.318   8.027  -1.399  0.3876 -0.4729  0.0797
  487MOL0     C67106   3.280   8.147  -1.480 -0.4341 -0.1924  0.1406
  487MOL0     C67107   3.324   8.280  -1.406  0.0790  0.0787  0.8064
  487MOL0     C67108   3.331   8.407  -1.492  0.7172  0.7522 -0.2934
  487MOL0     C67109   3.434   8.403  -1.607 -0.2560 -0.3203 -0.1624
  487MOL0     C67110   3.509   8.531  -1.611 -0.5699 -0.3620  0.2697
  487MOL0     C67111   3.417   8.647  -1.663  0.6755 -0.0968  0.1728
  487MOL0     C67112   3.364   8.632  -1.813  0.1023 -0.3934 -1.2050
  487MOL0    Cl67113   3.309   8.791  -1.882  0.3572 -0.0394  0.1153
  487MOL0     C67114   3.649   7.987  -1.253  0.0710 -1.0147  0.6316
  487MOL0     C67115   3.718   7.905  -1.160  0.1562  0.5414 -0.1342
  487MOL0     O67116   3.881   7.637  -1.091  0.1472 -0.7433  0.1619
  487MOL0     C67117   3.924   7.451  -0.903  0.4050 -0.5587  0.2469
  487MOL0     C67118   3.978   7.375  -0.798  0.2055 -0.6206 -0.1578
  487MOL0     N67119   3.841   6.881  -0.337  0.0419 -0.5763  0.3866
  487MOL0     N67120   3.737   6.814  -0.298 -0.0553 -0.4063 -0.0390
  487MOL0     C67121   3.016   6.410   0.355 -0.6511 -0.2221 -0.4413
  487MOL0     C67122   2.878   6.397   0.370  0.5495  0.6446  0.2142
  487MOL0     C67123   2.454   6.502   0.532  0.4278 -0.4519 -0.1449
  487MOL0     C67124   2.392   6.626   0.558  0.4223 -0.2193  1.0171
  487MOL0     C67125   2.250   6.631   0.585 -1.0087 -1.1790 -1.3166
  487MOL0     C67126   2.166   6.529   0.563  0.0500  0.8083 -0.5510
  487MOL0     O67127   2.029   6.524   0.583 -0.1425  0.1770 -0.0542
  487MOL0     C67128   1.969   6.617   0.682 -0.4916  0.3075 -0.2091
  487MOL0     C67129   2.014   6.582   0.824 -0.3006  0.4373  0.2031
  487MOL0     C67130   1.918   6.641   0.934  0.2968  0.8594 -0.5837
  487MOL0     C67131   1.976   6.628   1.074  0.3093  0.5578 -0.4197
  487MOL0     C67132   1.983   6.491   1.125  2.1302 -0.7867 -0.0096
  487MOL0     C67133   1.994   6.384   1.183 -0.2986  0.2437 -0.1764
  487MOL0     C67134   2.229   6.407   0.525  0.0245  0.0196  0.7311
  487MOL0     C67135   2.367   6.390   0.505  0.0779  0.5263  0.1446
  487MOL0     C67136   2.415   6.253   0.472  0.7875  1.0492 -0.5686
  487MOL0     H67137   2.834   6.366   0.701 -0.5329  1.3959 -0.6917
  487MOL0     H67138   3.098   6.411   0.679 -0.4314  1.2300 -0.2531
  487MOL0     H67139   3.376   6.523   0.550  0.8352  0.7008 -0.7970
  487MOL0     H67140   3.217   6.577   0.612 -2.2999  2.0367 -0.7958
  487MOL0     H67141   3.171   6.713   0.406 -0.2406 -0.1474 -1.0476
  487MOL0     H67142   3.337   6.746   0.481  0.5439  0.1090 -0.7931
  487MOL0     H67143   3.439   6.622   0.314 -0.5397 -1.7812 -2.3715
  487MOL0     H67144   3.287   6.544   0.254 -1.0216 -0.3706  0.2455
  487MOL0     H67145   3.214   6.722   0.170  0.2605 -0.2426 -1.7316
  487MOL0     H67146   3.325   6.846   0.242 -0.1043  2.1500 -4.8911
  487MOL0     H67147   3.406   6.610   0.069 -1.7890 -1.0075  4.3647
  487MOL0     H67148   3.507   6.750   0.124 -0.6544 -0.5716  2.2009
  487MOL0     H67149   3.269   6.767  -0.087  1.4135 -0.6572 -1.4160
  487MOL0     H67150   3.345   6.909  -0.006 -0.4467  0.5354  0.9198
  487MOL0     H67151   3.413   6.835  -0.235  1.5021  4.2259  0.2508
  487MOL0     H67152   3.485   6.694  -0.165  1.7717  1.4511 -1.5593
  487MOL0     H67153   3.557   6.972  -0.063 -1.8761 -2.0688  1.2999
  487MOL0     H67154   3.641   6.831  -0.026  0.0008  1.1747 -0.2249
  487MOL0     H67155   3.650   7.131  -0.228  1.0385  1.2444 -2.0832
  487MOL0     H67156   3.833   7.190  -0.442 -2.1310 -1.6839  0.2242
  487MOL0     H67157   3.955   7.063  -0.474 -1.4818 -3.1540  0.9631
  487MOL0     H67158   3.934   7.218  -0.202 -0.4725  2.1339 -0.3373
  487MOL0     H67159   4.059   7.107  -0.249 -0.4204 -0.9666  0.4690
  487MOL0     H67160   4.120   7.343  -0.254 -1.5073 -2.1067  1.8655
  487MOL0     H67161   4.170   7.233  -0.385  0.8669  1.9224 -1.9191
  487MOL0     H67162   3.939   7.423  -0.404 -0.7299  1.3424 -3.5874
  487MOL0     H67163   4.105   7.482  -0.429 -0.2013  0.1821 -1.1323
  487MOL0     H67164   3.882   7.553  -0.540  0.1550  0.5630 -0.1397
  487MOL0     H67165   3.811   7.766  -0.596  2.6024  3.7906  0.2608
  487MOL0     H67166   3.704   7.790  -0.738  2.2823  0.9366 -2.0749
  487MOL0     H67167   3.886   7.817  -0.736 -0.2481  1.2190  0.1532
  487MOL0     H67168   3.465   7.681  -1.105 -0.1548 -0.4892 -0.6897
  487MOL0     H67169   3.377   7.821  -1.308  1.1139  1.9743 -1.4716
  487MOL0     H67170   3.295   7.935  -1.453  2.2655 -0.5161 -0.7249
  487MOL0     H67171   3.270   8.032  -1.301 -0.5933  0.5755 -0.4232
  487MOL0     H67172   3.325   8.146  -1.580 -1.1918  2.1127 -0.3023
  487MOL0     H67173   3.171   8.156  -1.486 -0.5243 -1.7062 -1.2642
  487MOL0     H67174   3.421   8.261  -1.359  0.5247 -3.0645 -1.0945
  487MOL0     H67175   3.253   8.296  -1.325 -0.7018  0.0708  0.1366
  487MOL0     H67176   3.362   8.489  -1.427  0.8461 -1.3006  2.4162
  487MOL0     H67177   3.233   8.435  -1.530  0.3839  0.1788  0.1125
  487MOL0     H67178   3.508   8.327  -1.582 -0.2255  0.5718  2.8265
  487MOL0     H67179   3.389   8.367  -1.699 -0.8805 -0.4048  0.1738
  487MOL0     H67180   3.591   8.522  -1.683 -0.9297  0.6399 -0.2882
  487MOL0     H67181   3.541   8.567  -1.513 -0.6868 -0.0424  0.1923
  487MOL0     H67182   3.482   8.735  -1.665  1.6673 -0.8147 -1.7704
  487MOL0     H67183   3.336   8.665  -1.592  1.5913 -2.1477  1.8449
  487MOL0     H67184   3.284   8.558  -1.812 -1.3215  1.0386 -3.0958
  487MOL0     H67185   3.443   8.584  -1.872  1.6249 -1.1766  1.3076
  487MOL0     H67186   3.701   8.068  -1.304  0.1597 -1.4189  0.0705
  487MOL0     H67187   3.815   7.916  -1.112 -0.8128 -2.0358  2.7584
  487MOL0     H67188   3.913   7.411  -1.003 -3.0073  0.6094  0.0186
  487MOL0     H67189   4.048   7.293  -0.812  0.5681 -0.2486 -0.5317
  487MOL0     H67190   3.075   6.429   0.266  1.2128  1.5024  1.0666
  487MOL0     H67191   2.812   6.401   0.284 -0.9724 -1.0833  1.2242
  487MOL0     H67192   2.447   6.717   0.577 -1.2963  1.9743 -3.0406
  487MOL0     H67193   2.228   6.727   0.630  2.4776 -0.7962 -0.1135
  487MOL0     H67194   2.014   6.715   0.664  0.1342  0.1975  0.7012
  487MOL0     H67195   1.860   6.619   0.668 -0.5644  2.1458  0.3327
  487MOL0     H67196   2.115   6.620   0.841 -0.2290  1.7127 -2.5325
  487MOL0     H67197   2.025   6.474   0.835 -0.1190  0.1455 -2.2337
  487MOL0     H67198   1.913   6.748   0.911  1.7854  0.7477 -1.6329
  487MOL0     H67199   1.823   6.586   0.934  0.5770  0.2468  1.8607
  487MOL0     H67200   1.918   6.693   1.141 -1.8772 -1.8028  0.1687
  487MOL0     H67201   2.078   6.667   1.076  0.9878 -1.1630 -0.0182
  487MOL0     H67202   2.007   6.298   1.245  1.5511  1.2885  0.9814
  487MOL0     H67203   2.163   6.325   0.497  0.3284  0.1363 -0.3810
  487MOL0     H67204   2.433   6.243   0.365 -0.2123  0.3307 -0.6788
  487MOL0     H67205   2.501   6.229   0.535  0.8581  0.1507 -0.9977
  487MOL0     H67206   2.340   6.180   0.502  1.7752  0.7120  1.2027
  488MOL0     O67207   6.279  11.201   4.031 -0.3463 -0.5779 -0.0517
  488MOL0     C67208   6.293  11.100   4.098 -0.8251 -0.2029 -0.1614
  488MOL0     O67209   6.396  11.087   4.192 -0.1376 -0.2057 -0.9003
  488MOL0     C67210   6.514  11.157   4.165  0.8641  0.3394  0.4965
  488MOL0     C67211   6.525  11.275   4.222  0.0910  0.0666  0.1363
  488MOL0     C67212   6.647  11.338   4.218 -0.3929  0.3699 -0.1973
  488MOL0     C67213   6.763  11.282   4.161  0.3534  0.6648 -0.2834
  488MOL0     O67214   6.886  11.337   4.172  0.4459 -0.1589  0.3161
  488MOL0     C67215   6.922  11.447   4.257  1.0906 -0.9452 -0.3609
  488MOL0     C67216   7.056  11.428   4.336  0.6176  0.3651  0.2900
  488MOL0     C67217   7.174  11.412   4.238  0.8524 -0.5922 -0.4353
  488MOL0     C67218   7.291  11.337   4.308  0.1068  0.4411 -0.1810
  488MOL0     C67219   7.418  11.380   4.236  0.1809  0.2690  0.0815
  488MOL0     C67220   7.537  11.274   4.246 -0.0154  0.1036  0.1359
  488MOL0     C67221   7.641  11.298   4.143  0.1469 -0.0832  0.1145
  488MOL0     C67222   7.729  11.171   4.117 -0.3606  0.8927 -0.3515
  488MOL0     N67223   7.820  11.194   4.007  0.2066 -0.1329 -0.0365
  488MOL0     C67224   7.907  11.298   4.002 -0.5591 -1.1917 -0.7728
  488MOL0     C67225   8.025  11.256   3.952 -0.7960 -0.1805  0.6254
  488MOL0     C67226   8.149  11.335   3.960  1.3885  0.2354 -0.4509
  488MOL0     C67227   8.263  11.287   3.874 -0.1723 -1.1228  0.3051
  488MOL0     C67228   8.387  11.368   3.913  0.3680 -0.3779  0.5312
  488MOL0     C67229   8.496  11.325   3.819 -0.5046 -0.3300 -0.1644
  488MOL0     O67230   8.597  11.427   3.805 -0.4398  0.7368  0.4230
  488MOL0     C67231   8.710  11.386   3.724 -0.4942 -0.5652 -0.1003
  488MOL0     C67232   8.837  11.430   3.750 -0.4571 -0.7605 -0.6575
  488MOL0     C67233   8.952  11.400   3.694 -0.2204  0.2056  0.9469
  488MOL0     C67234   9.072  11.454   3.762 -0.5220 -0.6059 -0.1134
  488MOL0     C67235   8.948  11.308   3.584  0.6123 -0.6692  0.5440
  488MOL0     C67236   9.067  11.282   3.507  0.4506  0.2272 -0.2372
  488MOL0     O67237   9.175  11.367   3.525  0.5740  0.4273 -0.5519
  488MOL0     C67238   9.295  11.334   3.480 -1.1620 -0.1435  0.0762
  488MOL0     C67239   9.410  11.318   3.558  0.9748  0.4304 -0.2182
  488MOL0     C67240   9.534  11.286   3.505  0.4515  0.1199  0.3055
  488MOL0     C67241   9.556  11.287   3.364 -0.5326 -1.1906 -0.0156
  488MOL0     O67242   9.688  11.263   3.326 -0.0397  0.3841  0.1798
  488MOL0     C67243   9.725  11.247   3.191 -0.1526  0.0782  1.1161
  488MOL0     C67244   9.868  11.237   3.157  0.4600 -0.5494 -0.0605
  488MOL0     C67245   9.941  11.107   3.193  0.3547  0.4480 -0.8095
  488MOL0     C67246   9.939  10.991   3.095 -0.0808  0.1572 -0.6270
  488MOL0     C67247   9.997  10.861   3.163  0.7763  0.1146  0.5019
  488MOL0     C67248  10.145  10.888   3.198 -0.0673 -0.1379 -0.4814
  488MOL0     C67249  10.220  10.760   3.222 -1.0381  0.5585  0.0244
  488MOL0     C67250  10.371  10.762   3.182  0.3385  0.6749 -0.1903
  488MOL0    Cl67251  10.385  10.767   3.005  0.0896  0.3897  0.0434
  488MOL0     C67252   9.443  11.318   3.276  0.3657 -0.3676 -0.3574
  488MOL0     C67253   9.320  11.351   3.340  0.2595 -0.7638  0.0953
  488MOL0     O67254   9.064  11.182   3.431 -0.0926  0.7503  0.0698
  488MOL0     C67255   8.824  11.246   3.556  0.6268  0.3948  0.0323
  488MOL0     C67256   8.708  11.286   3.621  0.4100  0.6857 -0.0221
  488MOL0     N67257   8.007  11.121   3.913  0.1723 -0.1245  0.4971
  488MOL0     N67258   7.887  11.086   3.945  0.3717 -0.0767 -0.5227
  488MOL0     C67259   6.748  11.155   4.100  0.2556  0.2848  0.6571
  488MOL0     C67260   6.621  11.095   4.100  0.9560 -0.9100  0.2665
  488MOL0     C67261   6.188  10.992   4.095  0.6659 -0.4459 -0.0784
  488MOL0     C67262   6.185  10.904   4.207 -0.0973  0.0310 -0.2472
  488MOL0     C67263   6.104  10.790   4.197 -0.2543 -0.0820  0.5799
  488MOL0     C67264   6.047  10.751   4.082  1.1085  0.0278 -0.1314
  488MOL0     O67265   5.978  10.632   4.091 -0.0846  0.0128 -0.2134
  488MOL0     C67266   5.912  10.560   3.992 -0.2760 -0.4106 -0.4323
  488MOL0     C67267   5.761  10.562   4.006  0.7752  0.5127  0.3625
  488MOL0     C67268   5.708  10.431   3.954 -0.3346  0.2734  0.1429
  488MOL0     C67269   5.551  10.435   3.930 -0.8614  0.1353  0.3928
  488MOL0     C67270   5.479  10.459   4.055  0.3429  0.4448 -0.2880
  488MOL0     C67271   5.419  10.482   4.157 -0.2849  0.9035 -0.0868
  488MOL0     C67272   6.042  10.836   3.972 -0.6074  0.1912 -0.4235
  488MOL0     C67273   6.103  10.962   3.977  0.8296  0.0431 -0.2785
  488MOL0     C67274   6.101  11.048   3.855 -0.0574 -0.2109 -0.2746
  488MOL0     H67275   6.437  11.324   4.264  1.2150  3.4696 -1.1543
  488MOL0     H67276   6.648  11.427   4.280  0.2224 -0.9117  1.7195
  488MOL0     H67277   6.838  11.464   4.325 -0.9795 -0.1779 -2.9697
  488MOL0     H67278   6.931  11.541   4.201  2.0490 -1.0708 -0.4334
  488MOL0     H67279   7.088  11.516   4.393  1.9586  0.5696 -0.7297
  488MOL0     H67280   7.055  11.337   4.398  2.7953  0.0746 -0.0175
  488MOL0     H67281   7.123  11.357   4.158 -3.6220  0.9396  1.0620
  488MOL0     H67282   7.198  11.515   4.212  1.7649 -0.4168  1.0212
  488MOL0     H67283   7.297  11.361   4.414  1.3291 -0.4142 -0.0317
  488MOL0     H67284   7.297  11.228   4.306  4.7570  0.4701 -0.3524
  488MOL0     H67285   7.446  11.475   4.283 -0.5222  0.6942 -0.3446
  488MOL0     H67286   7.395  11.410   4.134  0.1672  1.1034  0.3249
  488MOL0     H67287   7.590  11.272   4.342  0.8296 -1.4752 -0.3243
  488MOL0     H67288   7.502  11.172   4.226  2.0083 -0.4448 -0.9381
  488MOL0     H67289   7.704  11.370   4.196  0.8490  0.9513 -2.0113
  488MOL0     H67290   7.590  11.326   4.050 -3.2342 -3.7332  0.6011
  488MOL0     H67291   7.785  11.149   4.209  2.5446 -0.9206 -2.3792
  488MOL0     H67292   7.672  11.082   4.089  0.4515  0.0728  0.5339
  488MOL0     H67293   7.889  11.389   4.058 -1.4060 -2.1278  0.5211
  488MOL0     H67294   8.172  11.330   4.066 -3.5110 -2.3974  0.8106
  488MOL0     H67295   8.134  11.441   3.936  2.5326  0.5966  0.3661
  488MOL0     H67296   8.275  11.178   3.871 -0.4743 -1.1422 -2.0403
  488MOL0     H67297   8.242  11.318   3.771 -1.9154 -0.9463  0.6902
  488MOL0     H67298   8.364  11.474   3.901  1.2817 -0.4095 -2.1668
  488MOL0     H67299   8.417  11.341   4.015 -1.4227 -2.2028  0.6523
  488MOL0     H67300   8.557  11.242   3.857 -0.8170 -0.4911 -0.0135
  488MOL0     H67301   8.467  11.293   3.719  1.5476 -3.1749  0.0242
  488MOL0     H67302   8.837  11.503   3.831 -2.3241 -2.1665  0.6935
  488MOL0     H67303   9.073  11.557   3.724 -0.6356 -0.3802  0.4880
  488MOL0     H67304   9.172  11.412   3.747 -0.5870 -0.0324 -2.5937
  488MOL0     H67305   9.060  11.459   3.870 -0.1502  1.6703 -0.1357
  488MOL0     H67306   9.392  11.302   3.664 -1.2938 -0.0496 -0.6135
  488MOL0     H67307   9.606  11.253   3.579 -0.9281 -1.0205  1.2102
  488MOL0     H67308   9.672  11.165   3.141  1.4441  0.4268 -1.3294
  488MOL0     H67309   9.694  11.331   3.128  0.7637 -0.7721 -0.5331
  488MOL0     H67310   9.874  11.240   3.048 -0.1972 -2.3922 -0.1895
  488MOL0     H67311   9.932  11.317   3.194 -0.3252 -1.2299  3.0721
  488MOL0     H67312   9.909  11.074   3.292  1.2695  0.8268 -0.3858
  488MOL0     H67313  10.046  11.137   3.199 -0.2654  2.4665  1.0902
  488MOL0     H67314   9.993  11.019   3.004 -0.1087  2.8979  0.1170
  488MOL0     H67315   9.833  10.987   3.071 -1.2543  2.1015  3.3316
  488MOL0     H67316   9.928  10.831   3.242 -0.9652  0.1544 -0.9392
  488MOL0     H67317   9.997  10.783   3.087 -0.6356 -1.2935  1.8914
  488MOL0     H67318  10.147  10.964   3.276  1.1997  0.0369 -0.6631
  488MOL0     H67319  10.181  10.946   3.112 -0.5262  0.1989 -0.4507
  488MOL0     H67320  10.181  10.668   3.177 -1.8104  1.0871 -0.4116
  488MOL0     H67321  10.217  10.742   3.329 -2.2838  1.2115  0.1159
  488MOL0     H67322  10.422  10.672   3.216 -0.9837 -0.9193 -2.1940
  488MOL0     H67323  10.424  10.838   3.240  0.3573 -0.2465  1.0201
  488MOL0     H67324   9.453  11.332   3.169  0.9503 -0.5594 -0.3335
  488MOL0     H67325   9.231  11.377   3.284  0.1837 -1.1918  0.0138
  488MOL0     H67326   8.828  11.170   3.479  0.8706 -2.3547  2.5962
  488MOL0     H67327   8.622  11.235   3.577  0.1379  0.9734  0.1657
  488MOL0     H67328   6.837  11.120   4.048  2.5521  0.0170  4.3755
  488MOL0     H67329   6.601  11.004   4.044  0.7355 -0.1930 -0.8732
  488MOL0     H67330   6.239  10.931   4.297 -0.8119  3.4509 -0.7050
  488MOL0     H67331   6.111  10.718   4.278 -0.1485 -1.1075 -0.3183
  488MOL0     H67332   5.939  10.605   3.896 -1.3054 -0.6681 -0.8593
  488MOL0     H67333   5.959  10.462   4.002  0.1828 -0.0045  1.8370
  488MOL0     H67334   5.716  10.648   3.955 -1.4714 -1.0593 -0.4557
  488MOL0     H67335   5.743  10.569   4.113 -0.8199 -0.2981  0.1685
  488MOL0     H67336   5.759  10.399   3.863 -1.0162  0.0753 -0.1758
  488MOL0     H67337   5.729  10.353   4.027 -1.3997 -2.0741 -1.8876
  488MOL0     H67338   5.509  10.354   3.869  3.6798 -0.5785 -2.2250
  488MOL0     H67339   5.523  10.524   3.873 -0.9635  0.3508  0.7755
  488MOL0     H67340   5.361  10.515   4.241 -1.8383 -0.7748 -0.4225
  488MOL0     H67341   5.997  10.795   3.883  0.4562 -1.4963 -0.2328
  488MOL0     H67342   6.061  11.149   3.868  2.0365  0.6452 -0.0285
  488MOL0     H67343   6.205  11.052   3.819  1.2025 -2.3204  2.7270
  488MOL0     H67344   6.048  11.006   3.769 -1.4587 -0.6971  0.8066
  489MOL0     O67345   9.952   5.999   4.301  0.4913 -0.7024 -0.4290
  489MOL0     C67346   9.958   6.118   4.278  0.6276 -0.5113  0.0433
  489MOL0     O67347   9.886   6.216   4.349  0.1992 -0.0498  0.2465
  489MOL0     C67348   9.803   6.171   4.448  0.3597 -1.0670 -0.5776
  489MOL0     C67349   9.665   6.150   4.417 -0.3095 -0.0999  0.1592
  489MOL0     C67350   9.572   6.118   4.510  0.7275  0.0379 -1.3847
  489MOL0     C67351   9.613   6.102   4.646  0.1550 -0.1969  0.2225
  489MOL0     O67352   9.522   6.065   4.743 -0.3340  0.1428  0.2697
  489MOL0     C67353   9.566   6.112   4.874 -0.7275  0.4332  0.4677
  489MOL0     C67354   9.445   6.100   4.963  0.0408 -0.9194 -0.4030
  489MOL0     C67355   9.466   6.149   5.111 -0.8068  0.1034  0.6658
  489MOL0     C67356   9.565   6.268   5.131 -0.1837 -0.1000  1.3342
  489MOL0     C67357   9.574   6.296   5.276 -0.0498  0.2213 -0.1971
  489MOL0     C67358   9.701   6.371   5.323  0.0563  0.1672  0.1462
  489MOL0     C67359   9.748   6.344   5.472  0.6940 -0.2146 -0.3856
  489MOL0     C67360   9.651   6.419   5.575 -0.1931 -0.2107 -0.5543
  489MOL0     N67361   9.720   6.437   5.704  0.4628  0.2648 -0.0388
  489MOL0     C67362   9.824   6.524   5.727  0.4730 -0.5668  0.0642
  489MOL0     C67363   9.845   6.537   5.863  0.0568  0.1148  0.2097
  489MOL0     C67364   9.931   6.631   5.946  0.0292 -0.9894  0.3082
  489MOL0     C67365   9.872   6.776   5.952  0.7392  0.3993  0.4678
  489MOL0     C67366   9.979   6.873   6.006 -0.1125  0.8682  0.6855
  489MOL0     C67367  10.090   6.908   5.901  0.2191  0.6502 -0.6793
  489MOL0     O67368  10.161   7.030   5.951 -0.9307  0.6184 -0.0859
  489MOL0     C67369  10.262   7.023   6.043 -0.1057 -0.5568  0.3397
  489MOL0     C67370  10.300   6.910   6.114  1.0401  0.8195 -0.2351
  489MOL0     C67371  10.388   6.904   6.219 -0.2776  0.5772  0.3503
  489MOL0     C67372  10.400   6.769   6.297  0.3951 -0.6510  0.6130
  489MOL0     C67373  10.467   7.018   6.247  0.5189  0.5745 -0.3687
  489MOL0     C67374  10.583   7.020   6.338  0.0689 -0.2997 -0.7034
  489MOL0     O67375  10.678   7.114   6.316 -0.3801 -0.5200  0.1506
  489MOL0     C67376  10.775   7.124   6.407 -0.2861  0.2451  1.8770
  489MOL0     C67377  10.901   7.065   6.371 -0.6986  0.7047  0.1427
  489MOL0     C67378  11.017   7.081   6.457 -0.0324 -0.6603 -0.3369
  489MOL0     C67379  11.003   7.153   6.580  0.9654 -0.2174 -0.1218
  489MOL0     O67380  11.100   7.174   6.669  0.7925  0.1919 -0.4416
  489MOL0     C67381  11.176   7.065   6.719  0.5029 -0.5673  0.0180
  489MOL0     C67382  11.138   7.008   6.857  0.5149 -0.2317 -0.1742
  489MOL0     C67383  11.191   7.077   6.979 -0.4997  0.4838  0.0417
  489MOL0     C67384  11.161   6.999   7.107 -0.4474 -0.4038 -0.4398
  489MOL0     C67385  11.222   7.078   7.223  0.2020 -0.2613 -0.2963
  489MOL0     C67386  11.196   7.033   7.367 -0.5109 -0.4996  1.1895
  489MOL0     C67387  11.308   7.083   7.463  0.2634  0.4981  0.0483
  489MOL0     C67388  11.425   6.981   7.457 -0.3471 -1.4625 -0.2978
  489MOL0    Cl67389  11.363   6.829   7.538  0.2985 -0.1738 -0.1332
  489MOL0     C67390  10.879   7.200   6.609  0.5084  0.4845  0.7541
  489MOL0     C67391  10.771   7.201   6.524 -0.7321 -0.2007 -0.3475
  489MOL0     O67392  10.572   6.949   6.440 -0.1425 -0.0408  0.2723
  489MOL0     C67393  10.433   7.133   6.173  0.1598  0.6132  0.4218
  489MOL0     C67394  10.323   7.143   6.085 -0.4612  0.6101 -0.0947
  489MOL0     N67395   9.766   6.442   5.922  0.0044  0.2714  0.0441
  489MOL0     N67396   9.694   6.383   5.830  0.3799  0.1665 -0.3377
  489MOL0     C67397   9.753   6.124   4.678  0.3176 -0.5405 -0.2603
  489MOL0     C67398   9.842   6.173   4.588 -0.9642  0.3135  0.3537
  489MOL0     C67399  10.044   6.170   4.168  0.5938 -0.7964  0.2926
  489MOL0     C67400  10.088   6.306   4.174  0.4764  0.1208  0.2655
  489MOL0     C67401  10.178   6.356   4.084 -0.2831 -0.1455  0.8370
  489MOL0     C67402  10.229   6.281   3.972 -0.4953  0.2484 -0.4982
  489MOL0     O67403  10.312   6.354   3.892  0.5758  0.1225 -0.2075
  489MOL0     C67404  10.412   6.287   3.814  0.4715  0.4987 -0.6132
  489MOL0     C67405  10.383   6.236   3.679  0.4498  0.4558  0.7000
  489MOL0     C67406  10.488   6.275   3.578  0.1427  0.1216  0.0900
  489MOL0     C67407  10.455   6.417   3.519  0.5028 -0.8670 -1.0655
  489MOL0     C67408  10.586   6.475   3.476  0.4804  0.1155  0.4513
  489MOL0     C67409  10.681   6.551   3.448  0.4665  0.0978  0.2754
  489MOL0     C67410  10.184   6.149   3.964  0.3759  0.1809 -0.2461
  489MOL0     C67411  10.091   6.091   4.060 -0.8851  0.3415  0.9728
  489MOL0     C67412  10.044   5.951   4.029  0.2583  0.3524  0.0785
  489MOL0     H67413   9.643   6.161   4.312  2.6541  0.5646 -0.4905
  489MOL0     H67414   9.470   6.094   4.481 -0.2968  3.8783 -1.4195
  489MOL0     H67415   9.609   6.213   4.878 -0.2535  0.2127  1.0040
  489MOL0     H67416   9.639   6.040   4.912 -0.8303  0.5780  0.9407
  489MOL0     H67417   9.369   6.171   4.929  1.3704  1.1854  0.7672
  489MOL0     H67418   9.408   5.997   4.953  2.7626 -1.8532 -1.6331
  489MOL0     H67419   9.366   6.178   5.145 -1.1607  0.1695 -0.3883
  489MOL0     H67420   9.509   6.063   5.162  1.9922 -0.9616 -3.0436
  489MOL0     H67421   9.665   6.242   5.098 -1.1638 -1.1733 -1.0189
  489MOL0     H67422   9.519   6.348   5.073 -1.7772 -1.8412  0.0817
  489MOL0     H67423   9.576   6.203   5.333 -2.0492 -0.8873 -1.7870
  489MOL0     H67424   9.483   6.352   5.302 -0.2100 -0.8399  1.7325
  489MOL0     H67425   9.783   6.329   5.264  3.2255  2.9840  2.1764
  489MOL0     H67426   9.684   6.478   5.310 -4.0426 -0.2948  0.3466
  489MOL0     H67427   9.849   6.385   5.475  0.9723 -0.8219 -1.2425
  489MOL0     H67428   9.736   6.240   5.504 -2.5100  0.5326  1.3322
  489MOL0     H67429   9.626   6.520   5.540  0.1722  1.7959  4.2084
  489MOL0     H67430   9.557   6.363   5.580  0.8745 -2.0158  2.3419
  489MOL0     H67431   9.874   6.588   5.656 -0.2322  1.0760  0.9907
  489MOL0     H67432  10.032   6.639   5.905 -1.0198 -2.6180 -2.9138
  489MOL0     H67433   9.944   6.590   6.047  1.4812  0.2141  0.6444
  489MOL0     H67434   9.832   6.803   5.854 -1.6160  0.5474  1.3929
  489MOL0     H67435   9.783   6.769   6.017  0.6722 -2.8131  0.2083
  489MOL0     H67436   9.940   6.969   6.042  0.5386  0.7926  1.6408
  489MOL0     H67437  10.016   6.827   6.098  1.5818 -1.9944 -1.2529
  489MOL0     H67438  10.154   6.820   5.890 -1.9459 -1.2948  1.0501
  489MOL0     H67439  10.041   6.922   5.804 -0.9815  2.2549  0.1069
  489MOL0     H67440  10.244   6.819   6.094  0.0414  1.6509 -1.3498
  489MOL0     H67441  10.329   6.782   6.379 -0.8479 -0.7656 -0.4072
  489MOL0     H67442  10.501   6.742   6.328  1.5052 -0.5822 -2.6011
  489MOL0     H67443  10.368   6.688   6.230 -0.0118  0.0972 -0.1144
  489MOL0     H67444  10.917   7.004   6.282  2.7623  1.6386 -0.0563
  489MOL0     H67445  11.109   7.033   6.425  0.1431  0.8070 -2.2057
  489MOL0     H67446  11.153   6.977   6.658 -0.8828 -0.0774 -0.1942
  489MOL0     H67447  11.283   7.087   6.709  0.4413  0.1933  0.8915
  489MOL0     H67448  11.030   6.993   6.868  0.1084  2.7659  0.6979
  489MOL0     H67449  11.185   6.909   6.861 -1.9476 -1.5309  3.8895
  489MOL0     H67450  11.142   7.172   7.000 -1.0240  0.2368 -0.0325
  489MOL0     H67451  11.297   7.096   6.961 -0.1015  1.9317  3.2843
  489MOL0     H67452  11.196   6.896   7.115 -1.4494 -0.6231  1.4450
  489MOL0     H67453  11.055   7.003   7.131  0.1173  1.1828  2.2014
  489MOL0     H67454  11.330   7.088   7.210  0.1316 -0.2857 -0.9803
  489MOL0     H67455  11.194   7.184   7.217  2.7423  0.5164  0.2158
  489MOL0     H67456  11.185   6.924   7.370  1.8136 -0.8145  0.5470
  489MOL0     H67457  11.099   7.075   7.397 -1.8367 -2.6679  0.1713
  489MOL0     H67458  11.266   7.068   7.563  0.1207  3.1695  0.4536
  489MOL0     H67459  11.324   7.190   7.446  0.6899  0.4787  0.2991
  489MOL0     H67460  11.506   7.033   7.508 -1.4565 -0.2424  0.2778
  489MOL0     H67461  11.467   6.956   7.359  0.6748  0.2760 -0.3399
  489MOL0     H67462  10.863   7.259   6.698  0.6810  2.6422 -0.5726
  489MOL0     H67463  10.678   7.247   6.557 -0.1115  1.0828 -0.3133
  489MOL0     H67464  10.507   7.209   6.196  1.4990 -0.4037 -0.4298
  489MOL0     H67465  10.307   7.240   6.039  1.4744  1.1831  0.3375
  489MOL0     H67466   9.790   6.116   4.779 -1.6203  0.8066  0.5984
  489MOL0     H67467   9.938   6.212   4.621 -0.6508 -0.1142 -0.0502
  489MOL0     H67468  10.063   6.368   4.260 -1.7671 -0.8981  0.4079
  489MOL0     H67469  10.219   6.456   4.098  0.2606 -0.3434  0.6666
  489MOL0     H67470  10.495   6.357   3.818 -0.3464  1.4576  2.8269
  489MOL0     H67471  10.446   6.204   3.876  0.2335 -0.0327 -1.1767
  489MOL0     H67472  10.284   6.272   3.650 -0.6377 -2.1471  0.8578
  489MOL0     H67473  10.357   6.130   3.688  0.3840  0.4308  0.2258
  489MOL0     H67474  10.593   6.270   3.610  0.4831 -0.9046 -1.1073
  489MOL0     H67475  10.480   6.206   3.493  0.4297 -0.2054  0.3227
  489MOL0     H67476  10.418   6.479   3.601  1.4888 -0.8378 -0.6201
  489MOL0     H67477  10.379   6.423   3.442 -1.0385  3.3827  0.4714
  489MOL0     H67478  10.756   6.626   3.434 -1.0192  1.6924  0.4598
  489MOL0     H67479  10.228   6.087   3.886  0.4717  1.0475 -0.8991
  489MOL0     H67480  10.021   5.891   4.117  2.1278 -2.2242 -1.0231
  489MOL0     H67481   9.956   5.960   3.964  1.5181 -4.3654 -2.8254
  489MOL0     H67482  10.118   5.901   3.965  0.8077  2.3399 -0.9349
  490MOL0     O67483   6.125   7.073   3.332  0.4755 -0.4109 -0.3455
  490MOL0     C67484   6.132   7.044   3.452  1.3990 -0.3126 -0.1311
  490MOL0     O67485   6.097   6.923   3.507  0.2519  0.3148  0.4310
  490MOL0     C67486   6.075   6.830   3.416  0.1488  0.4255 -0.3032
  490MOL0     C67487   5.951   6.816   3.356  0.1847  0.1923 -0.1504
  490MOL0     C67488   5.918   6.709   3.285  0.0294  0.2402  0.4683
  490MOL0     C67489   6.019   6.610   3.256  0.1360 -0.4476  0.0100
  490MOL0     O67490   5.988   6.482   3.210 -0.0740 -0.3502 -0.4008
  490MOL0     C67491   5.856   6.461   3.158  0.2085  0.6356  1.1046
  490MOL0     C67492   5.832   6.318   3.121  0.3417  0.6754  0.7643
  490MOL0     C67493   5.870   6.229   3.239  0.2362  0.6065  0.4574
  490MOL0     C67494   5.834   6.078   3.208  0.4083 -0.2473 -0.1990
  490MOL0     C67495   5.836   5.992   3.338  0.2120  0.2671  0.4391
  490MOL0     C67496   5.980   5.957   3.391  0.2346  0.4086  0.1932
  490MOL0     C67497   5.983   5.874   3.523 -0.1910  0.0385 -0.7763
  490MOL0     C67498   6.120   5.801   3.534  1.1618 -1.1386 -0.1644
  490MOL0     N67499   6.215   5.900   3.589  0.2120  0.1806  0.4062
  490MOL0     C67500   6.219   5.969   3.718  0.1040  1.1679 -0.8095
  490MOL0     C67501   6.304   6.066   3.694  0.1335 -0.0827  0.7335
  490MOL0     C67502   6.348   6.169   3.798  0.9370  1.1346  0.0614
  490MOL0     C67503   6.504   6.187   3.813  0.8948  0.5159 -0.2935
  490MOL0     C67504   6.533   6.296   3.908 -0.2599  0.5985  0.4166
  490MOL0     C67505   6.681   6.320   3.938 -0.1617 -0.0962  0.3567
  490MOL0     O67506   6.753   6.195   3.956  0.1049  0.2914  0.5266
  490MOL0     C67507   6.881   6.202   3.997 -0.6563 -0.0888  0.9914
  490MOL0     C67508   6.963   6.089   3.995 -0.1652 -0.6784 -0.0179
  490MOL0     C67509   7.096   6.080   4.048  0.1162  0.1323  1.2254
  490MOL0     C67510   7.172   5.949   4.019 -0.3986  0.2575 -0.1607
  490MOL0     C67511   7.158   6.194   4.101  0.0660 -0.9692  0.4975
  490MOL0     C67512   7.295   6.201   4.155  0.1574  0.1529 -0.8247
  490MOL0     O67513   7.360   6.090   4.196  0.0183  0.2512  0.3543
  490MOL0     C67514   7.476   6.112   4.255 -0.1224  0.0894 -0.2146
  490MOL0     C67515   7.596   6.138   4.182  0.0141 -0.1634  0.2565
  490MOL0     C67516   7.722   6.156   4.246  0.8142 -1.2758 -0.4758
  490MOL0     C67517   7.724   6.142   4.390  0.2478 -0.4255 -0.4346
  490MOL0     O67518   7.838   6.154   4.462  0.0071 -0.9235  0.4812
  490MOL0     C67519   7.964   6.178   4.406 -0.4022  0.2377 -0.6121
  490MOL0     C67520   8.080   6.191   4.512  0.6335 -0.7456  0.1812
  490MOL0     C67521   8.045   6.294   4.628  0.2597  0.5224 -0.3344
  490MOL0     C67522   8.020   6.435   4.585 -0.0346 -0.0011  0.2667
  490MOL0     C67523   8.065   6.533   4.694  1.2845  0.5424 -0.3879
  490MOL0     C67524   8.058   6.683   4.655 -0.4480  0.2504  0.7554
  490MOL0     C67525   8.108   6.776   4.760 -1.2098 -0.6603 -0.0425
  490MOL0     C67526   8.142   6.914   4.710 -0.5171 -0.3829  0.6627
  490MOL0    Cl67527   8.187   7.023   4.851 -0.0395 -0.3012  0.0088
  490MOL0     C67528   7.605   6.112   4.461  0.0895 -0.3679  0.8487
  490MOL0     C67529   7.476   6.095   4.392 -0.0891 -0.0913 -0.0118
  490MOL0     O67530   7.352   6.309   4.127  0.5622 -0.0417  0.2466
  490MOL0     C67531   7.074   6.306   4.105 -0.0916  0.1691 -0.1410
  490MOL0     C67532   6.945   6.310   4.052 -0.7073 -0.1527  0.3991
  490MOL0     N67533   6.368   6.043   3.572  0.0244 -0.2475  0.7558
  490MOL0     N67534   6.310   5.955   3.509 -0.0038 -0.3297  0.1799
  490MOL0     C67535   6.150   6.634   3.298  0.5840  0.4921  0.4567
  490MOL0     C67536   6.175   6.747   3.376 -0.3797  0.2501  0.2589
  490MOL0     C67537   6.165   7.156   3.541 -1.2403 -0.5245 -0.2169
  490MOL0     C67538   6.103   7.283   3.534 -0.3787 -0.4323  0.1672
  490MOL0     C67539   6.135   7.383   3.625  0.1662 -0.2484 -0.3620
  490MOL0     C67540   6.226   7.368   3.724  0.6614 -0.9833  0.0639
  490MOL0     O67541   6.253   7.473   3.808  0.2489 -0.0958  0.8409
  490MOL0     C67542   6.254   7.447   3.952 -0.7283  0.3257  0.3954
  490MOL0     C67543   6.117   7.406   4.007  0.0997 -0.5478 -0.2465
  490MOL0     C67544   6.010   7.513   3.982  0.0936 -0.3007 -0.2804
  490MOL0     C67545   6.038   7.667   3.972 -0.1088  0.5467 -0.1604
  490MOL0     C67546   6.067   7.729   4.100  0.2966  0.5973 -0.3401
  490MOL0     C67547   6.092   7.772   4.207 -0.2839 -0.1466  0.0273
  490MOL0     C67548   6.278   7.243   3.744  0.2444  0.4169  0.7705
  490MOL0     C67549   6.248   7.132   3.657  0.0389 -0.1860 -0.9877
  490MOL0     C67550   6.310   6.998   3.685  0.2205 -0.1310  0.0931
  490MOL0     H67551   5.877   6.890   3.384  1.6546  0.4938  3.6002
  490MOL0     H67552   5.817   6.694   3.248  1.0241 -1.1250 -1.9303
  490MOL0     H67553   5.847   6.519   3.066  3.4727 -2.0887 -1.2152
  490MOL0     H67554   5.779   6.484   3.232 -0.6166 -0.5486  0.6464
  490MOL0     H67555   5.727   6.309   3.093  0.4405 -1.1186  0.8750
  490MOL0     H67556   5.890   6.294   3.031 -0.3751  2.5246 -0.2555
  490MOL0     H67557   5.980   6.235   3.239  0.3872 -1.3256 -0.5549
  490MOL0     H67558   5.832   6.264   3.335 -0.2874 -0.9773  0.8573
  490MOL0     H67559   5.733   6.075   3.165 -0.1030  2.6997  0.6078
  490MOL0     H67560   5.908   6.045   3.134  0.2266  0.6171 -0.7852
  490MOL0     H67561   5.778   5.900   3.327  3.5875 -1.9514 -0.2424
  490MOL0     H67562   5.786   6.054   3.413 -1.6577 -0.8940  0.2262
  490MOL0     H67563   6.029   5.899   3.313 -0.7686 -2.3268  1.4648
  490MOL0     H67564   6.038   6.045   3.419 -0.6230  0.9215  0.4040
  490MOL0     H67565   5.906   5.798   3.532 -0.2695  0.0113 -1.5645
  490MOL0     H67566   5.973   5.948   3.603 -0.4634 -0.9247  0.1025
  490MOL0     H67567   6.100   5.716   3.600  0.5505 -0.2347  0.8575
  490MOL0     H67568   6.150   5.754   3.440  2.7174  0.3238 -0.4395
  490MOL0     H67569   6.162   5.946   3.807 -0.3093 -0.0093 -1.3501
  490MOL0     H67570   6.301   6.133   3.890  0.0515 -0.2191 -0.8775
  490MOL0     H67571   6.296   6.263   3.779  0.4311  0.5340 -1.8513
  490MOL0     H67572   6.528   6.085   3.844  0.0042  0.0135 -1.1649
  490MOL0     H67573   6.543   6.204   3.712 -0.9001 -0.5524 -1.2323
  490MOL0     H67574   6.486   6.390   3.876 -0.0118  0.3382 -0.7445
  490MOL0     H67575   6.498   6.252   4.002 -2.3625 -0.4649 -0.8092
  490MOL0     H67576   6.716   6.379   3.853 -1.3462 -1.5717 -1.2496
  490MOL0     H67577   6.677   6.388   4.023 -1.4896 -1.3166  1.3297
  490MOL0     H67578   6.923   6.000   3.950  3.0642 -1.8237 -0.9085
  490MOL0     H67579   7.123   5.897   3.935 -0.2546 -2.6846  1.4651
  490MOL0     H67580   7.161   5.890   4.110  3.1610  2.2915  1.8052
  490MOL0     H67581   7.279   5.964   4.003 -0.2073 -0.6844  0.1991
  490MOL0     H67582   7.590   6.152   4.075 -0.0614  0.7124  0.3686
  490MOL0     H67583   7.812   6.182   4.191  0.1312  0.0998 -1.0041
  490MOL0     H67584   7.985   6.099   4.333  1.5725 -2.7972  2.9147
  490MOL0     H67585   7.958   6.275   4.355 -0.9956 -0.7786 -2.5836
  490MOL0     H67586   8.096   6.092   4.557 -1.7453 -1.0952  0.3922
  490MOL0     H67587   8.176   6.210   4.464  1.6149 -1.1825  1.8584
  490MOL0     H67588   8.124   6.283   4.702 -0.6914  0.7984  0.7602
  490MOL0     H67589   7.949   6.265   4.673  0.4956 -0.3001 -0.3393
  490MOL0     H67590   7.918   6.464   4.556  0.3182 -0.6952 -1.8380
  490MOL0     H67591   8.087   6.454   4.501  1.8625 -0.8556  1.5215
  490MOL0     H67592   7.997   6.525   4.779 -0.0415  1.3614 -1.3329
  490MOL0     H67593   8.165   6.498   4.721  0.3880 -0.8033  1.3717
  490MOL0     H67594   7.951   6.704   4.646 -0.4830 -0.3899 -0.5330
  490MOL0     H67595   8.105   6.710   4.560 -1.5278 -0.1825  0.0802
  490MOL0     H67596   8.208   6.739   4.786 -0.7184 -0.1181 -1.0596
  490MOL0     H67597   8.041   6.794   4.844  0.7554  6.0861  0.6778
  490MOL0     H67598   8.058   6.964   4.661 -1.6898 -0.9399  2.0111
  490MOL0     H67599   8.225   6.911   4.640  1.1892 -0.2727  2.5912
  490MOL0     H67600   7.611   6.113   4.569 -2.3239 -1.6387  1.0805
  490MOL0     H67601   7.384   6.076   4.444 -0.4352  0.4730 -0.4013
  490MOL0     H67602   7.116   6.392   4.156  0.5332 -1.0046  1.3824
  490MOL0     H67603   6.887   6.402   4.057  0.5587  0.7310 -0.4187
  490MOL0     H67604   6.229   6.562   3.281 -0.9568 -0.9370 -1.0598
  490MOL0     H67605   6.269   6.767   3.426 -0.8968 -2.1034  2.3876
  490MOL0     H67606   6.027   7.313   3.462 -0.3268  0.0775  0.3204
  490MOL0     H67607   6.091   7.482   3.614 -0.2732 -0.6291 -2.3130
  490MOL0     H67608   6.336   7.376   3.965  0.0744  0.1195 -4.1008
  490MOL0     H67609   6.291   7.538   3.999  0.9167 -0.0593 -0.0707
  490MOL0     H67610   6.129   7.395   4.115  0.7053 -0.6107 -0.3196
  490MOL0     H67611   6.091   7.307   3.968 -5.9566  1.3654 -2.3639
  490MOL0     H67612   5.969   7.489   3.883 -0.5879 -0.1298 -0.0480
  490MOL0     H67613   5.933   7.497   4.058 -0.3800  2.2589 -0.1310
  490MOL0     H67614   5.941   7.705   3.938 -2.8374 -3.5318  2.2646
  490MOL0     H67615   6.117   7.684   3.897  0.9837 -1.0076  0.5986
  490MOL0     H67616   6.112   7.824   4.299  2.4867  1.5552 -1.4235
  490MOL0     H67617   6.341   7.228   3.831 -1.8314 -1.2665  2.0746
  490MOL0     H67618   6.229   6.928   3.705 -0.4646  0.9886  1.4477
  490MOL0     H67619   6.377   6.961   3.607  1.0262 -0.0746  0.7458
  490MOL0     H67620   6.373   7.005   3.774  0.5476 -1.4169 -0.0214
  491MOL0     O67621   1.077   7.021   4.599  0.8377  0.1211  0.0981
  491MOL0     C67622   1.107   6.900   4.588 -0.4724  0.5940 -0.0136
  491MOL0     O67623   1.202   6.869   4.494  0.8736 -0.6911  0.3149
  491MOL0     C67624   1.246   6.971   4.409  0.3464  0.0169 -0.9598
  491MOL0     C67625   1.371   7.024   4.444 -0.0949 -0.6034 -0.4098
  491MOL0     C67626   1.422   7.134   4.364  0.0322  0.7337 -0.7276
  491MOL0     C67627   1.365   7.171   4.246  0.6572 -0.0222 -0.3673
  491MOL0     O67628   1.422   7.265   4.157 -0.4526 -0.7884  0.3763
  491MOL0     C67629   1.558   7.242   4.119  1.0028  0.3231  0.3331
  491MOL0     C67630   1.576   7.263   3.974 -0.1392  0.1919  0.4168
  491MOL0     C67631   1.454   7.225   3.885  0.3835 -0.2839  0.2929
  491MOL0     C67632   1.438   7.075   3.874  0.0522 -0.1799 -0.2096
  491MOL0     C67633   1.295   7.046   3.825 -0.7031  0.7129  0.2948
  491MOL0     C67634   1.268   6.892   3.814 -0.0604 -0.4395 -1.1566
  491MOL0     C67635   1.355   6.832   3.710 -0.4136  0.4451  0.2168
  491MOL0     C67636   1.294   6.692   3.664 -0.2396 -0.4408  0.0932
  491MOL0     N67637   1.170   6.703   3.596  0.9265  0.1087 -0.4589
  491MOL0     C67638   1.153   6.764   3.474  0.2331 -0.1943 -0.1884
  491MOL0     C67639   1.020   6.733   3.440  0.2214 -1.0183  0.3700
  491MOL0     C67640   0.934   6.788   3.329 -0.9064 -0.5538  0.0550
  491MOL0     C67641   1.006   6.901   3.267  0.2646 -0.3392 -0.9842
  491MOL0     C67642   0.920   6.971   3.166  0.8541 -0.4845  0.7100
  491MOL0     C67643   1.000   7.064   3.067  0.4336 -0.1521  0.7464
  491MOL0     O67644   1.062   7.184   3.116  0.0921  0.0445  0.1958
  491MOL0     C67645   1.180   7.167   3.175 -0.0216 -0.8387 -0.1015
  491MOL0     C67646   1.294   7.111   3.115  0.1122  0.5793  0.4659
  491MOL0     C67647   1.423   7.101   3.187  0.1143  0.3778 -0.6885
  491MOL0     C67648   1.536   7.056   3.098  0.0333 -0.4602 -0.7969
  491MOL0     C67649   1.431   7.139   3.328 -0.7902  0.1560 -0.8252
  491MOL0     C67650   1.559   7.130   3.408 -0.0451  0.9468 -0.5248
  491MOL0     O67651   1.581   7.207   3.515 -0.1044 -1.0742 -0.2130
  491MOL0     C67652   1.698   7.207   3.581  0.4495  0.2645  0.8503
  491MOL0     C67653   1.784   7.318   3.582  1.3918 -0.1921 -0.5172
  491MOL0     C67654   1.909   7.311   3.648  0.1562  1.1230 -0.4301
  491MOL0     C67655   1.942   7.197   3.719  0.3457 -0.1013  0.7071
  491MOL0     O67656   2.055   7.180   3.773 -0.3967 -0.1615 -0.2372
  491MOL0     C67657   2.152   7.117   3.687  0.0160 -0.4325 -0.2077
  491MOL0     C67658   2.279   7.198   3.725  0.5205  0.1702  0.3909
  491MOL0     C67659   2.275   7.353   3.694  1.1459  0.6348  0.3269
  491MOL0     C67660   2.407   7.408   3.743 -0.3296 -0.3543 -0.0903
  491MOL0     C67661   2.415   7.564   3.721 -0.5589  0.3954 -0.1494
  491MOL0     C67662   2.339   7.634   3.831 -0.5617  0.2940 -0.3475
  491MOL0     C67663   2.353   7.787   3.831 -0.3148 -0.1371  0.0754
  491MOL0     C67664   2.393   7.836   3.978 -1.0447 -0.1406  0.1292
  491MOL0    Cl67665   2.280   7.796   4.095  0.0422  0.5072 -0.4851
  491MOL0     C67666   1.858   7.082   3.717 -0.0578  0.1635  0.3172
  491MOL0     C67667   1.740   7.089   3.650 -0.3688  0.4161  0.2280
  491MOL0     O67668   1.629   7.037   3.370 -0.1857 -0.4085  0.3563
  491MOL0     C67669   1.311   7.200   3.375  0.2268  0.2243  0.0863
  491MOL0     C67670   1.194   7.217   3.308 -0.5824  0.1064  0.0571
  491MOL0     N67671   0.966   6.662   3.538 -0.4123 -0.1048 -0.2574
  491MOL0     N67672   1.052   6.637   3.627 -0.3723  0.2975  0.1139
  491MOL0     C67673   1.245   7.108   4.208 -0.0829  0.5040 -0.2192
  491MOL0     C67674   1.177   7.018   4.296 -0.0539 -0.3992  0.4889
  491MOL0     C67675   1.022   6.801   4.654  0.3064 -0.2757  0.2708
  491MOL0     C67676   0.912   6.849   4.737  0.0258 -0.0537 -0.1809
  491MOL0     C67677   0.819   6.769   4.796  0.8672 -0.0581 -0.3303
  491MOL0     C67678   0.819   6.630   4.771  0.1958 -0.6515  0.0817
  491MOL0     O67679   0.745   6.532   4.818  0.4653 -0.2470 -1.2173
  491MOL0     C67680   0.640   6.584   4.901 -0.3114 -1.0750 -0.4540
  491MOL0     C67681   0.521   6.644   4.818 -1.3225 -0.1548 -0.4139
  491MOL0     C67682   0.412   6.721   4.890 -0.3499  0.5236 -0.3213
  491MOL0     C67683   0.382   6.669   5.030 -1.3978  0.8564  0.8327
  491MOL0     C67684   0.270   6.730   5.088  0.2226 -0.8831 -0.1485
  491MOL0     C67685   0.170   6.749   5.156 -1.3588 -0.0893 -0.6572
  491MOL0     C67686   0.924   6.580   4.689 -0.0028 -0.4513 -0.1112
  491MOL0     C67687   1.025   6.666   4.629  0.8905  0.7383  0.0330
  491MOL0     C67688   1.134   6.593   4.557 -0.2464 -0.1710 -0.5413
  491MOL0     H67689   1.431   6.997   4.530  0.9104  2.2947 -0.0714
  491MOL0     H67690   1.517   7.177   4.396 -0.2984  1.0945 -0.2196
  491MOL0     H67691   1.573   7.135   4.136 -0.6365  0.0331  0.1091
  491MOL0     H67692   1.624   7.302   4.182  0.6135 -0.3245  1.3933
  491MOL0     H67693   1.595   7.367   3.948  1.0866 -0.5282 -1.9507
  491MOL0     H67694   1.659   7.205   3.931 -0.9830 -0.2834 -0.6296
  491MOL0     H67695   1.363   7.267   3.930 -0.0196  2.1722 -2.5473
  491MOL0     H67696   1.464   7.262   3.783 -1.0125 -1.3538 -0.2568
  491MOL0     H67697   1.517   7.038   3.807 -1.2647  0.9518 -2.5028
  491MOL0     H67698   1.443   7.025   3.971  0.4447  0.5591  0.1605
  491MOL0     H67699   1.278   7.084   3.723  1.1576 -2.0154 -1.1485
  491MOL0     H67700   1.213   7.080   3.888 -0.5391 -2.2262  2.2679
  491MOL0     H67701   1.269   6.838   3.910 -0.4656  0.5395 -0.5913
  491MOL0     H67702   1.161   6.892   3.788 -1.0906  1.2881  2.4116
  491MOL0     H67703   1.455   6.818   3.754 -1.7458 -3.3228  2.5552
  491MOL0     H67704   1.353   6.895   3.621 -0.8261  1.0015  0.6183
  491MOL0     H67705   1.359   6.643   3.591 -1.1528 -2.1143  0.3408
  491MOL0     H67706   1.268   6.638   3.756 -3.6613  1.7376  0.5881
  491MOL0     H67707   1.221   6.818   3.410 -0.2578 -0.2136 -0.7381
  491MOL0     H67708   0.843   6.819   3.380 -0.4044 -0.2962  0.7923
  491MOL0     H67709   0.910   6.703   3.263 -0.3986 -1.4155  0.9625
  491MOL0     H67710   1.039   6.961   3.352  0.2528 -3.2309  1.1893
  491MOL0     H67711   1.095   6.878   3.208 -0.2248 -0.5763 -1.6534
  491MOL0     H67712   0.857   6.907   3.104  0.6784  1.3323 -1.0818
  491MOL0     H67713   0.850   7.036   3.219  1.7794  0.2578  1.0481
  491MOL0     H67714   1.068   6.995   3.016  1.5322  1.2382  0.2380
  491MOL0     H67715   0.938   7.110   2.990  0.4963  0.7038  1.1877
  491MOL0     H67716   1.293   7.078   3.012  1.8128  0.7631  0.3682
  491MOL0     H67717   1.610   6.982   3.130  0.3287 -0.5857 -1.7335
  491MOL0     H67718   1.604   7.139   3.075  2.6633 -1.4404  2.5481
  491MOL0     H67719   1.491   7.017   3.007 -3.5221  5.0087 -1.8434
  491MOL0     H67720   1.760   7.396   3.511 -0.1777 -0.7633 -0.6346
  491MOL0     H67721   1.970   7.400   3.635 -0.8043  1.3900 -4.8148
  491MOL0     H67722   2.170   7.013   3.719 -2.2147 -0.7853  0.0092
  491MOL0     H67723   2.127   7.118   3.581  0.2225  6.0385 -0.6138
  491MOL0     H67724   2.296   7.190   3.833  0.3347 -2.7106  0.2953
  491MOL0     H67725   2.367   7.154   3.678  0.9801 -0.4503  1.7790
  491MOL0     H67726   2.184   7.392   3.739  0.3660 -1.5182  0.7439
  491MOL0     H67727   2.273   7.365   3.585 -2.0185 -3.1815 -0.2684
  491MOL0     H67728   2.488   7.357   3.690 -1.3884 -1.9448 -0.2533
  491MOL0     H67729   2.430   7.396   3.850 -0.6963  1.3303  0.2078
  491MOL0     H67730   2.522   7.583   3.723  0.1373 -2.7657 -1.6255
  491MOL0     H67731   2.386   7.582   3.617  4.0591  0.4304 -1.6324
  491MOL0     H67732   2.369   7.597   3.929 -2.4198 -1.4002 -0.3548
  491MOL0     H67733   2.232   7.610   3.825 -0.4938 -0.3803  0.8591
  491MOL0     H67734   2.256   7.829   3.802 -0.5192  1.1774  2.3634
  491MOL0     H67735   2.421   7.824   3.754 -1.6083  1.3440 -0.4082
  491MOL0     H67736   2.418   7.943   3.973  1.5820 -0.7055 -0.3115
  491MOL0     H67737   2.484   7.783   4.006 -0.2378  1.1141 -0.0586
  491MOL0     H67738   1.901   6.991   3.758  2.0199  1.3379  0.8578
  491MOL0     H67739   1.684   6.998   3.631 -0.9023  0.4460  1.5327
  491MOL0     H67740   1.325   7.238   3.476  0.5319  0.6990 -0.1342
  491MOL0     H67741   1.108   7.267   3.352 -1.6037  0.0408 -1.7687
  491MOL0     H67742   1.202   7.127   4.110 -0.9520  0.1424  0.0767
  491MOL0     H67743   1.088   6.971   4.256 -0.6445  1.4148 -0.4089
  491MOL0     H67744   0.890   6.951   4.766 -2.2936 -0.4645 -0.3250
  491MOL0     H67745   0.742   6.818   4.855  0.1259 -1.0434 -0.4543
  491MOL0     H67746   0.598   6.500   4.957  0.9820 -3.4447 -2.8035
  491MOL0     H67747   0.677   6.656   4.975 -0.1780 -0.9709 -0.6204
  491MOL0     H67748   0.462   6.561   4.778 -2.6384  0.0642  0.9589
  491MOL0     H67749   0.561   6.694   4.729 -0.4446  0.4128  0.2751
  491MOL0     H67750   0.450   6.824   4.892  3.3171 -0.6709 -1.6217
  491MOL0     H67751   0.316   6.722   4.837 -1.2012 -0.3278  1.1286
  491MOL0     H67752   0.465   6.682   5.099 -0.3245  2.9959 -0.7343
  491MOL0     H67753   0.364   6.561   5.022  0.1069  0.6891 -1.0994
  491MOL0     H67754   0.095   6.772   5.229 -0.3776 -0.8179  0.6198
  491MOL0     H67755   0.924   6.472   4.677 -1.0396 -0.5630  0.7281
  491MOL0     H67756   1.144   6.627   4.453  1.7810 -2.7006 -1.2883
  491MOL0     H67757   1.224   6.612   4.615  0.3787 -0.5658 -1.3534
  491MOL0     H67758   1.111   6.486   4.545 -2.3044  0.0503  0.9091
  492MOL0     O67759   4.304  11.063  10.952 -0.1563  0.1671 -0.3703
  492MOL0     C67760   4.375  11.161  10.984 -0.4268  0.0141 -0.5426
  492MOL0     O67761   4.513  11.172  10.979  0.1748  0.2878 -0.0217
  492MOL0     C67762   4.584  11.088  10.903  0.8162 -0.0355 -0.1083
  492MOL0     C67763   4.639  10.971  10.951 -1.2186  0.1181  0.0477
  492MOL0     C67764   4.727  10.892  10.868  0.3554  0.0389 -0.3692
  492MOL0     C67765   4.760  10.920  10.737  0.9728 -1.1141 -0.4582
  492MOL0     O67766   4.846  10.855  10.657 -0.1923 -0.2539  0.1534
  492MOL0     C67767   4.884  10.723  10.689  0.0527 -0.0068 -0.1429
  492MOL0     C67768   4.920  10.653  10.556  0.1751  0.1739  0.5750
  492MOL0     C67769   4.798  10.593  10.486 -0.3614 -0.9174  0.0972
  492MOL0     C67770   4.822  10.536  10.336 -0.1625  0.8271 -1.5219
  492MOL0     C67771   4.914  10.409  10.352 -0.0438  0.6204  0.5803
  492MOL0     C67772   4.940  10.333  10.226 -0.2226 -0.0474 -0.8953
  492MOL0     C67773   5.011  10.416  10.118 -0.3091 -0.4568  0.1589
  492MOL0     C67774   5.019  10.325   9.989  0.7446 -1.2536  0.1254
  492MOL0     N67775   5.118  10.225   9.997 -0.5485  0.2661 -0.3594
  492MOL0     C67776   5.236  10.231  10.063 -0.3091  0.0288 -0.0957
  492MOL0     C67777   5.247  10.104  10.110 -1.3678  0.4576  0.0760
  492MOL0     C67778   5.350  10.055  10.218 -0.7146 -0.4062  0.4151
  492MOL0     C67779   5.498  10.016  10.164  0.3480  0.5588  0.3332
  492MOL0     C67780   5.586   9.988  10.285  0.7767 -0.0690 -0.1158
  492MOL0     C67781   5.724   9.942  10.241  0.1486 -0.8868 -0.6121
  492MOL0     O67782   5.761   9.999  10.119 -0.2175  0.6771  1.0518
  492MOL0     C67783   5.889  10.000  10.064 -0.0176  0.1368  0.2080
  492MOL0     C67784   5.907  10.011   9.932  0.8898  0.4834  0.5759
  492MOL0     C67785   6.035  10.011   9.865  0.3120  0.4030 -0.2187
  492MOL0     C67786   6.034   9.994   9.718 -0.2035  0.0852 -0.2671
  492MOL0     C67787   6.156   9.998   9.939  0.3770 -0.9099 -1.1246
  492MOL0     C67788   6.290   9.991   9.881 -0.7070  0.1591  1.3101
  492MOL0     O67789   6.384   9.905   9.940  0.3115 -0.3571  0.5819
  492MOL0     C67790   6.343   9.769   9.950  0.3185 -0.3533  0.0690
  492MOL0     C67791   6.272   9.686   9.856  0.0200  0.8312  0.6572
  492MOL0     C67792   6.258   9.555   9.885  0.6625 -0.2685  0.7709
  492MOL0     C67793   6.296   9.492  10.000  0.3844  0.1189 -0.5091
  492MOL0     O67794   6.268   9.359  10.015  0.0685 -0.1969 -0.0749
  492MOL0     C67795   6.207   9.316  10.143  0.1422  0.2474  0.1861
  492MOL0     C67796   6.165   9.170  10.130 -0.1872 -0.3710  0.3659
  492MOL0     C67797   6.276   9.080  10.191 -0.4672  0.4722 -0.6366
  492MOL0     C67798   6.420   9.077  10.136  1.2191  0.1653  0.0410
  492MOL0     C67799   6.484   8.946  10.170  0.2725 -0.0221  0.0233
  492MOL0     C67800   6.630   8.928  10.107  0.5038  0.1572 -0.1698
  492MOL0     C67801   6.682   8.790  10.146  0.6111  0.3623  0.4444
  492MOL0     C67802   6.827   8.745  10.125  0.6302 -0.1928  0.2614
  492MOL0    Cl67803   6.841   8.705   9.954  0.3195 -0.2466 -0.2589
  492MOL0     C67804   6.350   9.577  10.102 -0.2109 -0.0372 -0.6458
  492MOL0     C67805   6.368   9.710  10.075  0.2417  0.3293 -0.5443
  492MOL0     O67806   6.312  10.061   9.786 -0.5051  0.2302  0.2114
  492MOL0     C67807   6.138  10.001  10.082 -0.0235  0.8291 -0.0006
  492MOL0     C67808   6.005  10.000  10.139 -0.1450 -0.9765 -0.3790
  492MOL0     N67809   5.155  10.025  10.045 -0.8798  0.4688  0.0736
  492MOL0     N67810   5.074  10.094   9.976  0.5669 -0.0164 -0.1404
  492MOL0     C67811   4.699  11.046  10.692 -1.0598  0.0554  0.2389
  492MOL0     C67812   4.611  11.121  10.774  0.8406  0.3883 -0.1712
  492MOL0     C67813   4.302  11.270  11.056  0.2721 -0.4283 -0.3535
  492MOL0     C67814   4.375  11.364  11.132  0.2333 -0.1349 -0.3606
  492MOL0     C67815   4.309  11.462  11.208  0.3024 -0.2079  0.1254
  492MOL0     C67816   4.165  11.475  11.209  0.2651 -0.2548  0.1580
  492MOL0     O67817   4.085  11.567  11.267  0.2178  0.1096  0.6936
  492MOL0     C67818   4.140  11.616  11.394  1.0837  0.0864  0.2377
  492MOL0     C67819   4.034  11.689  11.479  0.9761  0.9226 -1.0590
  492MOL0     C67820   3.938  11.586  11.533 -1.1561  0.1169  0.0328
  492MOL0     C67821   3.827  11.650  11.613 -0.0861  0.7675  0.2219
  492MOL0     C67822   3.742  11.550  11.679 -0.0309  0.2740 -0.2464
  492MOL0     C67823   3.689  11.466  11.747  0.2630 -1.3031  0.2418
  492MOL0     C67824   4.096  11.375  11.139  0.9102  0.8211  0.7082
  492MOL0     C67825   4.159  11.276  11.058  0.8178  0.0180  0.8324
  492MOL0     C67826   4.058  11.175  11.000  0.3724  0.4257 -0.1457
  492MOL0     H67827   4.622  10.941  11.054 -1.2526  2.8224  0.9075
  492MOL0     H67828   4.765  10.810  10.930  1.0162  0.8506  0.3349
  492MOL0     H67829   4.806  10.669  10.743 -0.4328 -0.3115 -1.1197
  492MOL0     H67830   4.968  10.714  10.758  0.0104 -0.6528 -0.1654
  492MOL0     H67831   4.964  10.724  10.485 -0.9116  0.5953  0.3040
  492MOL0     H67832   4.987  10.567  10.572 -0.7370 -0.8019 -0.6306
  492MOL0     H67833   4.766  10.513  10.553  0.2394 -3.6375 -2.6560
  492MOL0     H67834   4.724  10.674  10.478  3.0552  2.6453  1.0581
  492MOL0     H67835   4.727  10.512  10.289 -0.7054  0.7755 -0.4439
  492MOL0     H67836   4.870  10.611  10.273 -0.5612  1.5511 -0.9821
  492MOL0     H67837   4.856  10.354  10.426 -2.0963  1.0107 -0.6425
  492MOL0     H67838   5.010  10.435  10.398  0.5509  1.0147 -0.8180
  492MOL0     H67839   5.001  10.245  10.248  1.3541  1.7574  2.8812
  492MOL0     H67840   4.841  10.302  10.190 -1.0596  1.0832  0.3145
  492MOL0     H67841   5.103  10.445  10.170 -0.8712  2.4663 -0.3269
  492MOL0     H67842   4.953  10.504  10.090 -0.9839 -0.0652  2.5972
  492MOL0     H67843   4.921  10.279   9.974  0.2548 -0.1788 -0.0481
  492MOL0     H67844   5.037  10.386   9.900 -2.4086 -1.1363 -0.5600
  492MOL0     H67845   5.299  10.317  10.082  0.3814  0.1132 -2.4621
  492MOL0     H67846   5.317   9.967  10.273  3.2468 -0.1589  3.5702
  492MOL0     H67847   5.355  10.130  10.297  1.4698  0.4718 -0.4737
  492MOL0     H67848   5.492   9.930  10.097  2.8569  0.5658  0.0169
  492MOL0     H67849   5.530  10.102  10.103  0.9936  0.7287  0.8933
  492MOL0     H67850   5.606  10.083  10.336 -1.4905  1.2243 -1.4715
  492MOL0     H67851   5.537   9.908  10.342 -2.6376  1.7762 -0.2066
  492MOL0     H67852   5.802   9.954  10.317  0.5492 -0.2759 -1.1186
  492MOL0     H67853   5.710   9.834  10.234  2.2440 -1.1732 -1.0787
  492MOL0     H67854   5.818  10.020   9.871  0.7314 -0.9230  0.5757
  492MOL0     H67855   5.937  10.017   9.672 -1.1537  1.0753  2.1013
  492MOL0     H67856   6.055   9.892   9.686 -1.1413 -0.5355  0.9958
  492MOL0     H67857   6.109  10.066   9.683  0.3221 -0.6413 -0.6569
  492MOL0     H67858   6.244   9.730   9.761  0.0709  0.0597  0.2786
  492MOL0     H67859   6.225   9.484   9.810  0.2815  0.4848  0.2088
  492MOL0     H67860   6.272   9.326  10.230  0.3082  1.6477 -0.0637
  492MOL0     H67861   6.121   9.376  10.173  0.4264  1.1954 -0.7990
  492MOL0     H67862   6.080   9.153  10.196 -0.2975 -1.7631 -0.0953
  492MOL0     H67863   6.138   9.146  10.026 -0.6233  0.9107  0.1698
  492MOL0     H67864   6.236   8.978  10.196  2.3117 -0.6654 -0.0265
  492MOL0     H67865   6.271   9.112  10.296  0.4936  0.2009 -0.5034
  492MOL0     H67866   6.484   9.161  10.163  3.4505 -1.0379 -1.1822
  492MOL0     H67867   6.405   9.085  10.028 -1.2197  0.8309  0.3613
  492MOL0     H67868   6.493   8.933  10.278 -0.6800  1.4063  0.3069
  492MOL0     H67869   6.424   8.862  10.134  1.0592  0.2762 -2.1387
  492MOL0     H67870   6.694   9.011  10.140  1.1717  0.5932 -2.3860
  492MOL0     H67871   6.618   8.942   9.999 -3.8306  0.5241  0.1985
  492MOL0     H67872   6.624   8.716  10.091 -0.0348  2.3852 -1.7491
  492MOL0     H67873   6.651   8.769  10.249 -1.5899 -1.9809 -0.6124
  492MOL0     H67874   6.847   8.657  10.187  2.5997 -1.4762 -2.0498
  492MOL0     H67875   6.889   8.831  10.149 -0.3504  1.2554 -2.0966
  492MOL0     H67876   6.363   9.532  10.200 -0.3538  0.1321 -0.5485
  492MOL0     H67877   6.412   9.774  10.151  1.8521  1.1631 -2.0937
  492MOL0     H67878   6.222  10.001  10.151  1.0456 -1.6218 -1.1932
  492MOL0     H67879   6.013   9.993  10.247  0.8929  2.7704 -0.0584
  492MOL0     H67880   4.717  11.080  10.591  2.5441 -0.3025  0.6366
  492MOL0     H67881   4.573  11.216  10.738  0.6580 -0.4869 -2.4852
  492MOL0     H67882   4.482  11.353  11.135  0.0247 -2.8554 -0.7508
  492MOL0     H67883   4.368  11.515  11.281  0.2331 -0.2915  0.2432
  492MOL0     H67884   4.181  11.532  11.452 -0.0032 -1.4955 -1.1699
  492MOL0     H67885   4.226  11.682  11.384  2.8457 -1.7946  1.9410
  492MOL0     H67886   3.982  11.762  11.415 -0.6657 -0.5334 -1.4643
  492MOL0     H67887   4.083  11.738  11.564 -0.3944  1.9927 -0.8280
  492MOL0     H67888   3.885  11.544  11.447 -2.1654 -0.4522  0.8987
  492MOL0     H67889   3.986  11.505  11.588 -0.2996 -0.8140 -1.9995
  492MOL0     H67890   3.769  11.717  11.549 -2.4236 -0.4562  0.9352
  492MOL0     H67891   3.862  11.714  11.694  1.2963 -0.8866  0.9888
  492MOL0     H67892   3.634  11.401  11.811 -0.5524 -1.0641 -0.1927
  492MOL0     H67893   3.988  11.373  11.148  0.8585 -0.2952  0.0350
  492MOL0     H67894   4.052  11.179  10.891  0.5391  4.1124 -0.1139
  492MOL0     H67895   4.081  11.072  11.031  0.9060  0.0798 -1.5885
  492MOL0     H67896   3.958  11.195  11.038  1.0736  1.7336  1.0909
  493MOL0     O67897  11.038   8.413   3.478  0.5297 -0.4927 -0.4157
  493MOL0     C67898  11.003   8.511   3.418  0.2470  0.3005  0.3221
  493MOL0     O67899  11.051   8.541   3.289  0.3815  0.3329  1.1677
  493MOL0     C67900  11.156   8.470   3.246  0.4626 -0.1055 -0.7083
  493MOL0     C67901  11.146   8.382   3.136  0.6013  0.2285 -0.0474
  493MOL0     C67902  11.271   8.334   3.091 -0.6013 -0.6947 -0.9082
  493MOL0     C67903  11.392   8.350   3.158  0.3960  1.1402 -0.0842
  493MOL0     O67904  11.501   8.303   3.096  0.0884  0.2159  1.1207
  493MOL0     C67905  11.628   8.360   3.131  0.3915  0.1258  0.6887
  493MOL0     C67906  11.759   8.318   3.055 -0.2947  0.3082  0.2531
  493MOL0     C67907  11.837   8.184   3.097  0.0182  0.1588  0.0514
  493MOL0     C67908  11.891   8.101   2.984  0.4885  1.0485  0.3011
  493MOL0     C67909  11.976   7.981   3.017  0.2322 -0.3372 -0.6147
  493MOL0     C67910  12.023   7.888   2.905  0.4272  0.1514  0.5443
  493MOL0     C67911  12.062   7.749   2.947 -0.0580  0.3444 -0.1783
  493MOL0     C67912  11.932   7.671   2.992  0.1841  0.7673  0.5990
  493MOL0     N67913  11.957   7.527   3.006 -0.6780 -0.1291 -1.0138
  493MOL0     C67914  12.034   7.473   3.105 -0.1022  1.1484 -0.0354
  493MOL0     C67915  12.019   7.337   3.073 -0.4517 -0.0287 -0.5609
  493MOL0     C67916  12.089   7.214   3.136  0.0736  0.5280 -0.2271
  493MOL0     C67917  11.997   7.168   3.246 -0.0291 -0.3828 -0.1198
  493MOL0     C67918  12.036   7.042   3.326  0.5378 -0.8829 -0.5031
  493MOL0     C67919  12.009   6.912   3.239  0.4179 -0.2352  0.6976
  493MOL0     O67920  12.034   6.781   3.297 -0.7512  0.1161 -0.8396
  493MOL0     C67921  11.949   6.754   3.404  0.3622 -0.3405  1.1049
  493MOL0     C67922  11.828   6.688   3.378 -0.1727 -0.6475  0.3924
  493MOL0     C67923  11.748   6.652   3.482 -0.3517 -0.3904  0.1837
  493MOL0     C67924  11.612   6.594   3.453  0.1760 -0.7624 -0.5448
  493MOL0     C67925  11.791   6.676   3.615  0.3352  0.8088 -0.4187
  493MOL0     C67926  11.705   6.651   3.732 -0.0479  0.5262 -0.3206
  493MOL0     O67927  11.626   6.543   3.729 -0.1549  0.0951  0.5673
  493MOL0     C67928  11.606   6.467   3.845 -0.4541  0.2248 -0.1204
  493MOL0     C67929  11.702   6.433   3.935 -0.6405  0.3011  0.9174
  493MOL0     C67930  11.672   6.359   4.050  0.3127 -0.1989 -0.1319
  493MOL0     C67931  11.543   6.315   4.079  0.3261  0.5492 -0.3631
  493MOL0     O67932  11.514   6.253   4.199 -0.0618  0.2576 -0.0434
  493MOL0     C67933  11.513   6.099   4.200 -0.5171 -0.8048 -0.1349
  493MOL0     C67934  11.398   6.027   4.137 -0.0644 -0.1169  0.3089
  493MOL0     C67935  11.252   6.063   4.189 -0.8367  0.1998  0.4523
  493MOL0     C67936  11.143   6.029   4.085  0.6395  0.2077  0.6204
  493MOL0     C67937  11.007   6.017   4.153  0.6018  0.2148 -0.1109
  493MOL0     C67938  10.954   6.155   4.199  0.8371 -1.0081  0.5334
  493MOL0     C67939  10.844   6.142   4.302  0.3608 -0.5805  0.1992
  493MOL0     C67940  10.757   6.277   4.313 -0.0429 -0.1748 -0.5244
  493MOL0    Cl67941  10.663   6.303   4.173 -0.1898  0.2771  0.0275
  493MOL0     C67942  11.445   6.342   3.983 -0.5566  0.5689  0.1968
  493MOL0     C67943  11.473   6.413   3.865  0.0401 -0.3857 -0.6230
  493MOL0     O67944  11.735   6.710   3.837 -0.2150  0.4061  0.8694
  493MOL0     C67945  11.922   6.723   3.641  0.8690 -0.1907  0.4096
  493MOL0     C67946  11.999   6.762   3.529 -0.7482  0.4834  0.8559
  493MOL0     N67947  11.937   7.317   2.959 -0.2690  0.2708 -0.0464
  493MOL0     N67948  11.913   7.438   2.918  0.3885  0.3607 -0.3256
  493MOL0     C67949  11.384   8.417   3.275 -0.4081 -0.4397  0.7884
  493MOL0     C67950  11.272   8.487   3.319  0.0617 -0.0419 -0.3202
  493MOL0     C67951  10.885   8.585   3.467  0.1719 -0.1279  0.3801
  493MOL0     C67952  10.810   8.662   3.372 -0.0687  0.1236  0.3508
  493MOL0     C67953  10.711   8.753   3.418  0.3812 -0.0040  0.3703
  493MOL0     C67954  10.672   8.763   3.553  0.8972 -0.1617 -0.0188
  493MOL0     O67955  10.571   8.849   3.592  0.4261 -0.0089  0.4069
  493MOL0     C67956  10.488   8.917   3.481 -0.6701 -0.6613  0.3734
  493MOL0     C67957  10.413   9.031   3.552 -0.8450 -0.5672  0.4972
  493MOL0     C67958  10.312   8.983   3.663 -0.9305  1.1874  0.4022
  493MOL0     C67959  10.209   9.092   3.700 -0.1279 -0.1096 -0.5855
  493MOL0     C67960  10.269   9.194   3.789 -0.4792 -0.4925 -0.3122
  493MOL0     C67961  10.295   9.288   3.862 -0.1112  0.2964  0.0828
  493MOL0     C67962  10.741   8.686   3.642 -0.4685 -0.7555 -0.1741
  493MOL0     C67963  10.851   8.604   3.603 -0.1112 -0.1703  0.2757
  493MOL0     C67964  10.926   8.539   3.714  0.7123  0.2488  0.1204
  493MOL0     H67965  11.051   8.376   3.083 -1.7009  0.8120  3.6245
  493MOL0     H67966  11.280   8.285   2.994 -0.7924 -2.1614 -0.2231
  493MOL0     H67967  11.634   8.326   3.235 -0.5884  0.5391  0.8866
  493MOL0     H67968  11.622   8.469   3.137 -2.2253 -0.0227  3.3180
  493MOL0     H67969  11.727   8.314   2.951  0.8951 -2.6158 -0.0985
  493MOL0     H67970  11.835   8.395   3.073 -1.2857  1.5575 -0.7201
  493MOL0     H67971  11.915   8.214   3.167 -3.6396  2.7864  3.3910
  493MOL0     H67972  11.757   8.122   3.138 -1.5752 -0.1959 -3.2330
  493MOL0     H67973  11.797   8.066   2.940  0.3562  1.5248  0.2021
  493MOL0     H67974  11.949   8.162   2.915  3.1957  0.4136  1.8754
  493MOL0     H67975  11.913   7.931   3.091  1.2765  0.9026  1.2258
  493MOL0     H67976  12.073   8.010   3.061  0.2865 -0.8704 -0.3689
  493MOL0     H67977  11.942   7.889   2.832 -0.9927  1.1296  2.0642
  493MOL0     H67978  12.101   7.942   2.852 -0.7995  1.8981  0.4412
  493MOL0     H67979  12.136   7.754   3.026 -0.0101 -0.7080 -0.1392
  493MOL0     H67980  12.096   7.697   2.857 -4.4112 -0.8724 -1.4047
  493MOL0     H67981  11.897   7.703   3.090 -1.4822 -0.8172  0.5676
  493MOL0     H67982  11.845   7.684   2.928  0.2266  2.1305  0.7964
  493MOL0     H67983  12.071   7.513   3.198 -3.1926 -0.2644  1.9652
  493MOL0     H67984  12.187   7.241   3.176 -1.0535  2.1881  1.5485
  493MOL0     H67985  12.105   7.145   3.052  1.5765  2.3636 -1.5232
  493MOL0     H67986  11.990   7.256   3.311 -3.0700 -1.0730  0.6660
  493MOL0     H67987  11.895   7.145   3.214 -0.1573  0.6640 -0.5249
  493MOL0     H67988  12.137   7.040   3.369  0.1012  0.1355  0.6320
  493MOL0     H67989  11.971   7.033   3.414  1.1967  3.3891  0.6728
  493MOL0     H67990  11.907   6.921   3.200  1.5052 -0.3974 -2.4685
  493MOL0     H67991  12.080   6.919   3.156 -0.8011  0.5652 -0.3142
  493MOL0     H67992  11.804   6.672   3.274  3.2152 -1.4343 -0.3839
  493MOL0     H67993  11.619   6.485   3.462 -0.8046 -0.6692  1.9427
  493MOL0     H67994  11.596   6.603   3.345  0.1464 -0.1164 -0.4921
  493MOL0     H67995  11.528   6.649   3.496  0.0516 -0.6053 -0.9741
  493MOL0     H67996  11.798   6.478   3.909 -0.5975 -1.1358 -1.7149
  493MOL0     H67997  11.748   6.334   4.123  0.1125  0.8223  0.4445
  493MOL0     H67998  11.597   6.054   4.146  0.1486 -1.7982  1.6532
  493MOL0     H67999  11.530   6.064   4.302  1.2540  0.1792 -0.0507
  493MOL0     H68000  11.399   6.038   4.028 -2.4492  0.2501  0.2762
  493MOL0     H68001  11.419   5.923   4.163  2.2252  0.3038  0.3877
  493MOL0     H68002  11.245   6.168   4.222  0.4159 -0.0079  1.4267
  493MOL0     H68003  11.228   6.002   4.276 -3.5311 -0.3605 -0.5854
  493MOL0     H68004  11.173   5.932   4.044 -3.3380 -0.4192 -1.2211
  493MOL0     H68005  11.141   6.108   4.009  2.6574  3.5635  3.7253
  493MOL0     H68006  10.938   5.967   4.084  2.2793 -2.0568 -0.2562
  493MOL0     H68007  11.016   5.946   4.235  1.2015 -0.5986 -0.8549
  493MOL0     H68008  10.906   6.203   4.113  1.3375 -2.2843 -0.4971
  493MOL0     H68009  11.035   6.214   4.243  0.2553  0.6200 -0.4963
  493MOL0     H68010  10.892   6.132   4.399  0.9842  2.7884  0.3531
  493MOL0     H68011  10.774   6.059   4.286 -1.9751  0.8703  2.1022
  493MOL0     H68012  10.824   6.358   4.342  0.9279 -0.9962 -0.4089
  493MOL0     H68013  10.680   6.272   4.390  1.1708 -1.3824  0.6926
  493MOL0     H68014  11.342   6.311   4.001  0.0027 -1.0498  0.7744
  493MOL0     H68015  11.394   6.433   3.794 -1.0435  0.1053  0.6770
  493MOL0     H68016  11.957   6.733   3.743 -2.1807  0.4973  1.4975
  493MOL0     H68017  12.104   6.784   3.546 -0.2207 -0.7597 -0.6333
  493MOL0     H68018  11.472   8.429   3.338  1.6796  1.7613 -2.3018
  493MOL0     H68019  11.287   8.545   3.410  0.5925 -2.7627  1.4242
  493MOL0     H68020  10.854   8.648   3.274  1.6547  0.6897  0.9931
  493MOL0     H68021  10.646   8.797   3.343 -0.0921 -1.6253 -0.1923
  493MOL0     H68022  10.550   8.966   3.406 -2.4887 -1.5645 -1.8507
  493MOL0     H68023  10.413   8.855   3.432 -2.4549  2.5348 -1.2534
  493MOL0     H68024  10.356   9.080   3.471 -1.5404 -0.7455  0.8664
  493MOL0     H68025  10.486   9.101   3.593 -0.8241  0.4867 -1.2121
  493MOL0     H68026  10.258   8.893   3.633  0.1811 -0.5459  3.1611
  493MOL0     H68027  10.369   8.953   3.752 -1.6685  0.3788  0.6239
  493MOL0     H68028  10.132   9.047   3.763  0.7451  0.8240  1.2368
  493MOL0     H68029  10.179   9.144   3.609  1.4850  0.3661 -0.8742
  493MOL0     H68030  10.309   9.370   3.930 -1.2092 -0.5756  1.4142
  493MOL0     H68031  10.711   8.698   3.745  0.5572  3.7800 -0.2028
  493MOL0     H68032  10.906   8.594   3.807 -0.9575  3.2450 -1.8341
  493MOL0     H68033  10.892   8.435   3.719  1.4209  0.0671  2.1346
  493MOL0     H68034  11.033   8.546   3.694  1.8250 -2.7974  3.8888
  494MOL0     O68035   8.766   0.592   4.482 -0.2729 -0.6750  0.0454
  494MOL0     C68036   8.703   0.559   4.580 -0.4905 -0.6496 -0.0481
  494MOL0     O68037   8.592   0.620   4.629  0.4241 -0.5393  0.5548
  494MOL0     C68038   8.553   0.737   4.574  0.9712  0.2515  0.1935
  494MOL0     C68039   8.620   0.854   4.571  0.7730 -0.1639 -1.0231
  494MOL0     C68040   8.570   0.970   4.514 -0.3846  0.2633  0.4053
  494MOL0     C68041   8.444   0.973   4.456  0.6022 -0.6066 -0.2144
  494MOL0     O68042   8.386   1.086   4.401  0.0178 -0.1068 -0.0895
  494MOL0     C68043   8.458   1.212   4.406 -0.1887 -1.0276 -0.2669
  494MOL0     C68044   8.405   1.324   4.325 -0.3478  0.1584  0.9801
  494MOL0     C68045   8.413   1.291   4.176 -0.3030  0.8653  0.4067
  494MOL0     C68046   8.309   1.370   4.103 -0.0464  0.6613 -0.1714
  494MOL0     C68047   8.327   1.519   4.104  0.0525  0.0471  1.1143
  494MOL0     C68048   8.195   1.586   4.058 -1.2530  0.0525  0.5321
  494MOL0     C68049   8.183   1.735   4.075  0.7512  0.7301  0.0121
  494MOL0     C68050   8.049   1.783   4.012 -0.2645 -0.5242 -0.4957
  494MOL0     N68051   8.028   1.924   3.992 -0.0753 -0.0378  0.1162
  494MOL0     C68052   8.038   2.020   4.080  0.0001  0.2431  0.4214
  494MOL0     C68053   8.014   2.139   4.026 -1.2519  0.3385  0.6618
  494MOL0     C68054   8.041   2.267   4.094 -1.3533 -0.4977 -0.1928
  494MOL0     C68055   8.195   2.286   4.130 -0.1257  0.0148  0.3211
  494MOL0     C68056   8.231   2.431   4.179 -1.2484 -0.5632  0.4182
  494MOL0     C68057   8.378   2.444   4.227 -0.2620 -0.0685 -0.5941
  494MOL0     O68058   8.457   2.330   4.199  0.4584  0.5045 -0.4330
  494MOL0     C68059   8.582   2.320   4.266  0.2156  0.1221 -0.0496
  494MOL0     C68060   8.624   2.187   4.304  0.5730 -0.2912  0.1569
  494MOL0     C68061   8.742   2.175   4.388  0.5648  1.1482  0.1274
  494MOL0     C68062   8.750   2.037   4.460  0.3641 -0.7831  0.4936
  494MOL0     C68063   8.829   2.287   4.413 -0.1231 -0.0111  0.8402
  494MOL0     C68064   8.959   2.271   4.482  1.0345  1.1505  0.1533
  494MOL0     O68065   9.042   2.375   4.471 -0.1749 -0.2709  0.0758
  494MOL0     C68066   9.182   2.352   4.489 -0.2009  0.7358 -0.3053
  494MOL0     C68067   9.241   2.225   4.479  0.2386 -0.7636  0.4422
  494MOL0     C68068   9.381   2.221   4.507 -0.4137  0.3483  0.7128
  494MOL0     C68069   9.466   2.325   4.532  0.5123 -0.9287 -0.1909
  494MOL0     O68070   9.596   2.294   4.558 -0.8626 -0.1533 -0.0877
  494MOL0     C68071   9.681   2.413   4.549 -1.5748  0.3880  0.3134
  494MOL0     C68072   9.826   2.369   4.573  0.2516  1.0521  0.1815
  494MOL0     C68073   9.932   2.471   4.532 -1.2476 -0.3038  0.9053
  494MOL0     C68074   9.926   2.600   4.613  0.7698 -0.1110 -0.2339
  494MOL0     C68075  10.041   2.689   4.572 -0.2601  0.0808 -0.4633
  494MOL0     C68076  10.052   2.808   4.669  0.7336 -0.4145 -0.6968
  494MOL0     C68077  10.185   2.876   4.674  0.3347 -0.1297 -0.0852
  494MOL0     C68078  10.189   3.007   4.760 -0.2293 -0.0132  0.8309
  494MOL0    Cl68079  10.071   3.128   4.706  0.1692 -0.1894  0.3580
  494MOL0     C68080   9.399   2.453   4.538  0.5980 -0.4580 -1.1655
  494MOL0     C68081   9.260   2.463   4.518 -0.0021 -0.6692 -0.3370
  494MOL0     O68082   8.979   2.164   4.545 -0.5299 -0.4842  0.2373
  494MOL0     C68083   8.788   2.411   4.362 -0.0347  0.3638 -0.0369
  494MOL0     C68084   8.664   2.427   4.300  0.1683  0.1262  0.0652
  494MOL0     N68085   7.993   2.112   3.897  0.1111  0.5413  0.2736
  494MOL0     N68086   7.997   1.989   3.874 -0.1354 -0.2416 -0.4332
  494MOL0     C68087   8.369   0.849   4.459 -0.4051  0.4942 -0.3205
  494MOL0     C68088   8.427   0.732   4.517 -0.2488  0.1044  0.5837
  494MOL0     C68089   8.750   0.449   4.666  0.3338  0.3292 -0.6002
  494MOL0     C68090   8.724   0.466   4.806 -0.2690  0.4011  0.4401
  494MOL0     C68091   8.754   0.371   4.894 -0.9069 -0.0864 -0.6155
  494MOL0     C68092   8.809   0.249   4.856  0.2220  0.1330  0.5662
  494MOL0     O68093   8.817   0.151   4.953 -0.4140  0.7313 -0.4627
  494MOL0     C68094   8.888   0.024   4.927 -0.1778 -1.6389 -0.3750
  494MOL0     C68095   9.030   0.052   4.945 -0.6784  0.9045 -0.2165
  494MOL0     C68096   9.071   0.077   5.095 -0.0497 -0.3892  0.4476
  494MOL0     C68097   9.214   0.139   5.105  0.1298  0.3856 -0.0556
  494MOL0     C68098   9.325   0.063   5.053  1.0970  0.4370  0.4558
  494MOL0     C68099   9.411  -0.013   5.019  0.6222 -0.1017 -0.2082
  494MOL0     C68100   8.837   0.231   4.720 -0.3504 -0.5858  0.8035
  494MOL0     C68101   8.807   0.328   4.621  0.1191 -1.2799 -0.0918
  494MOL0     C68102   8.824   0.298   4.471  0.0912 -0.5787  0.7642
  494MOL0     H68103   8.713   0.849   4.627  1.4093 -2.0658 -2.1373
  494MOL0     H68104   8.615   1.066   4.535  1.1407 -0.3733  0.1842
  494MOL0     H68105   8.561   1.189   4.376  0.1731 -1.1037  0.9671
  494MOL0     H68106   8.444   1.249   4.508 -2.1595 -1.9371 -0.1654
  494MOL0     H68107   8.301   1.349   4.345 -0.4821 -0.6574  1.3283
  494MOL0     H68108   8.467   1.412   4.340  1.7529 -0.9489 -0.5728
  494MOL0     H68109   8.517   1.317   4.154  0.5731 -1.8088  1.0376
  494MOL0     H68110   8.397   1.187   4.147  1.3078  0.8888 -0.7150
  494MOL0     H68111   8.315   1.334   4.000 -0.2174 -2.8541  0.9330
  494MOL0     H68112   8.210   1.348   4.142  0.7577  0.5544  1.9674
  494MOL0     H68113   8.408   1.539   4.034 -0.8464 -1.7341 -0.5169
  494MOL0     H68114   8.352   1.553   4.205  3.8765  1.0511  0.0037
  494MOL0     H68115   8.188   1.564   3.951  1.1108 -1.1568  0.5628
  494MOL0     H68116   8.111   1.546   4.115 -1.0181  0.9634  1.5577
  494MOL0     H68117   8.272   1.765   4.018 -0.9961 -1.4073 -4.3427
  494MOL0     H68118   8.189   1.773   4.177  0.5473 -0.2117  0.3855
  494MOL0     H68119   8.032   1.734   3.915 -1.8762  0.0325 -0.5288
  494MOL0     H68120   7.967   1.753   4.079 -1.1947  2.6396 -0.0777
  494MOL0     H68121   8.073   2.001   4.181  2.0050 -2.1315 -0.6365
  494MOL0     H68122   7.991   2.272   4.191 -2.0917  2.7292 -0.6030
  494MOL0     H68123   8.013   2.356   4.037 -2.3050  0.8487  2.2448
  494MOL0     H68124   8.237   2.213   4.199  0.2178 -0.2919 -0.2073
  494MOL0     H68125   8.259   2.283   4.041 -1.5578 -0.3431 -0.7413
  494MOL0     H68126   8.211   2.495   4.093 -0.4803  0.6870  1.1302
  494MOL0     H68127   8.163   2.465   4.259 -1.1964  0.9964 -0.1602
  494MOL0     H68128   8.420   2.535   4.185 -0.8250  2.0029  2.9282
  494MOL0     H68129   8.379   2.468   4.334  1.0731  1.0089 -0.8186
  494MOL0     H68130   8.566   2.096   4.291 -0.8454  0.5432  0.4355
  494MOL0     H68131   8.841   1.991   4.422  0.7923  3.1583 -4.1235
  494MOL0     H68132   8.674   1.969   4.420 -0.1969  1.3009 -2.2877
  494MOL0     H68133   8.747   2.039   4.570  1.2059  0.0079  0.5096
  494MOL0     H68134   9.201   2.133   4.437 -0.1791  0.6263 -2.4492
  494MOL0     H68135   9.425   2.123   4.493 -1.7479 -0.6182  2.7195
  494MOL0     H68136   9.680   2.448   4.445 -0.6332 -4.0229 -1.3746
  494MOL0     H68137   9.657   2.493   4.620  1.2202  1.1439  0.5054
  494MOL0     H68138   9.837   2.346   4.680 -1.2359  0.0885  0.1553
  494MOL0     H68139   9.842   2.274   4.521 -1.3225 -1.1121  3.2868
  494MOL0     H68140   9.917   2.491   4.426  1.0423  1.5659  0.8587
  494MOL0     H68141  10.034   2.437   4.549 -0.0170  2.4689 -0.3555
  494MOL0     H68142   9.927   2.572   4.719 -0.8132 -4.0911 -1.0613
  494MOL0     H68143   9.832   2.653   4.596  0.4452  0.2040  2.2457
  494MOL0     H68144  10.129   2.624   4.569 -0.0897  0.3417 -1.2908
  494MOL0     H68145  10.017   2.731   4.474 -3.4874  0.5513  0.3989
  494MOL0     H68146  10.046   2.764   4.768  2.7186  1.0643  0.1669
  494MOL0     H68147   9.978   2.886   4.648  2.3590  1.0778 -1.2338
  494MOL0     H68148  10.207   2.898   4.569 -2.6879 -0.6821 -0.9444
  494MOL0     H68149  10.258   2.807   4.716 -0.1970 -1.2068 -0.8732
  494MOL0     H68150  10.287   3.056   4.758 -0.9315  1.4445 -0.4272
  494MOL0     H68151  10.157   2.979   4.860 -3.8975  0.1458 -0.1535
  494MOL0     H68152   9.453   2.540   4.575 -0.4572  0.3033 -1.3742
  494MOL0     H68153   9.211   2.560   4.531  0.8471 -0.0308 -1.6074
  494MOL0     H68154   8.840   2.502   4.391  0.3244  0.2445 -0.3011
  494MOL0     H68155   8.638   2.531   4.284  1.0618  1.4218  5.2262
  494MOL0     H68156   8.272   0.849   4.411 -1.0451  4.8425  0.5403
  494MOL0     H68157   8.373   0.639   4.502  1.0189 -0.0977 -4.1361
  494MOL0     H68158   8.680   0.561   4.832  0.2433  0.4043  1.3244
  494MOL0     H68159   8.742   0.384   5.001 -1.9976 -0.9144 -0.6176
  494MOL0     H68160   8.856  -0.048   5.003 -0.5409 -1.1320 -0.0400
  494MOL0     H68161   8.866  -0.018   4.829  0.5085  1.3572 -1.9319
  494MOL0     H68162   9.052   0.135   4.877  0.1181 -1.5687 -3.1848
  494MOL0     H68163   9.088  -0.032   4.907  1.8182  2.7448 -0.7370
  494MOL0     H68164   9.008   0.160   5.127  0.8167  0.7200 -0.6264
  494MOL0     H68165   9.057  -0.012   5.157  1.4989 -1.1518 -0.2513
  494MOL0     H68166   9.230   0.149   5.213 -0.6469 -0.7922  0.1807
  494MOL0     H68167   9.217   0.240   5.064  0.6974  0.1746 -0.5551
  494MOL0     H68168   9.482  -0.089   4.994 -0.5259 -1.9575  1.7350
  494MOL0     H68169   8.875   0.136   4.684  1.4451  0.9216 -1.5884
  494MOL0     H68170   8.824   0.189   4.472 -4.0164 -0.7588  0.5052
  494MOL0     H68171   8.733   0.332   4.421  0.0234  0.2047  1.3932
  494MOL0     H68172   8.910   0.343   4.422 -0.0589 -1.1285 -0.0217
  495MOL0     O68173   9.672   1.817   6.368 -0.7940 -0.8200  0.6422
  495MOL0     C68174   9.782   1.772   6.391 -0.2246  0.4662  0.2073
  495MOL0     O68175   9.891   1.834   6.347 -0.7781 -0.0483  0.3617
  495MOL0     C68176   9.871   1.955   6.280  0.3866  0.0351  0.8628
  495MOL0     C68177   9.822   1.954   6.147 -0.9553  0.1391 -0.7313
  495MOL0     C68178   9.801   2.081   6.088 -0.3802 -0.5073 -0.2645
  495MOL0     C68179   9.820   2.200   6.156  0.2033  0.4583  0.7051
  495MOL0     O68180   9.796   2.325   6.096 -1.1321  0.4751  0.8679
  495MOL0     C68181   9.717   2.320   5.977  0.8848  0.1480 -0.2317
  495MOL0     C68182   9.710   2.461   5.930  0.8519 -0.1651 -0.9030
  495MOL0     C68183   9.642   2.563   6.027  0.3692  0.6191 -0.9220
  495MOL0     C68184   9.635   2.707   5.972 -0.5817  1.1531 -0.6687
  495MOL0     C68185   9.532   2.792   6.039  1.0576  0.0265 -0.3512
  495MOL0     C68186   9.560   2.819   6.178  0.6149 -0.0953 -0.7983
  495MOL0     C68187   9.708   2.875   6.200  0.6516 -0.1100  0.2304
  495MOL0     C68188   9.726   2.914   6.351 -0.9088 -0.6957  0.2303
  495MOL0     N68189   9.855   2.887   6.418 -0.0098 -0.2822  0.8788
  495MOL0     C68190   9.912   2.766   6.438 -0.5442 -0.8531 -0.0054
  495MOL0     C68191  10.040   2.789   6.495  0.5864  0.0699  0.9734
  495MOL0     C68192  10.146   2.691   6.537  0.0634  0.1752  0.0838
  495MOL0     C68193  10.086   2.545   6.537  0.7436 -0.4771 -0.1542
  495MOL0     C68194  10.198   2.450   6.575 -0.5532  1.0261  0.0790
  495MOL0     C68195  10.165   2.308   6.540 -0.8894 -0.0002 -0.3595
  495MOL0     O68196  10.031   2.267   6.575  0.2378 -0.1783 -0.2588
  495MOL0     C68197   9.995   2.245   6.706  0.4061  1.0135  0.0110
  495MOL0     C68198  10.074   2.217   6.818  0.6429  0.8053  1.4813
  495MOL0     C68199  10.021   2.178   6.937 -0.1364  0.0932  0.2353
  495MOL0     C68200  10.116   2.131   7.050  0.3666 -0.7377  0.9169
  495MOL0     C68201   9.879   2.179   6.952 -0.9610 -0.6869 -0.2045
  495MOL0     C68202   9.805   2.151   7.074 -1.3637 -0.4001 -0.4385
  495MOL0     O68203   9.676   2.107   7.065  0.1116 -0.3114  0.2388
  495MOL0     C68204   9.592   2.091   7.167  0.1073  0.7800  0.1737
  495MOL0     C68205   9.585   2.170   7.283 -0.0348  0.1816 -0.0346
  495MOL0     C68206   9.471   2.152   7.364  0.6512 -0.0397 -0.0205
  495MOL0     C68207   9.372   2.056   7.348 -0.8439 -0.6242 -0.2622
  495MOL0     O68208   9.259   2.050   7.423  0.0686  0.8377  0.0644
  495MOL0     C68209   9.268   2.062   7.560  0.3571  0.8120  0.2412
  495MOL0     C68210   9.200   1.932   7.614  0.1461  1.1628  0.6692
  495MOL0     C68211   9.071   1.878   7.553  0.3024  0.2720 -0.7569
  495MOL0     C68212   9.008   1.748   7.619  0.2528 -0.5378  1.0259
  495MOL0     C68213   8.874   1.703   7.581  0.0336  0.1356 -0.6535
  495MOL0     C68214   8.835   1.583   7.670 -0.7705  0.0634  0.1459
  495MOL0     C68215   8.696   1.528   7.644 -0.0700  0.2770 -0.0324
  495MOL0     C68216   8.584   1.625   7.606 -0.4010  0.3464  0.0556
  495MOL0    Cl68217   8.527   1.715   7.751 -0.3336  0.1684  0.4216
  495MOL0     C68218   9.385   1.967   7.248 -0.6335  0.1716 -0.1256
  495MOL0     C68219   9.489   1.998   7.150  0.1546  0.6027 -0.1102
  495MOL0     O68220   9.867   2.169   7.181  0.2921 -0.0945  0.0997
  495MOL0     C68221   9.801   2.204   6.837 -0.5026  1.4297  0.2270
  495MOL0     C68222   9.857   2.229   6.717 -0.1040 -1.0400  0.1576
  495MOL0     N68223  10.050   2.929   6.499  0.5057  0.0003  0.0737
  495MOL0     N68224   9.946   2.984   6.446 -0.1231 -0.0022  0.2588
  495MOL0     C68225   9.873   2.198   6.286  0.2783  0.0574  0.2731
  495MOL0     C68226   9.889   2.075   6.349 -0.1360 -0.8275  0.2587
  495MOL0     C68227   9.794   1.638   6.454  0.0693 -0.0848  0.6671
  495MOL0     C68228   9.923   1.595   6.477 -0.7940 -0.0754  0.6270
  495MOL0     C68229   9.947   1.475   6.535 -0.4874  0.5131  0.1187
  495MOL0     C68230   9.842   1.394   6.578 -0.0883 -0.5199  0.5143
  495MOL0     O68231   9.878   1.281   6.637 -0.3321  0.2345  0.8982
  495MOL0     C68232   9.792   1.210   6.722 -0.0162  0.1169  0.4242
  495MOL0     C68233   9.744   1.301   6.843  0.5971  0.2494 -0.4793
  495MOL0     C68234   9.634   1.229   6.924  0.3628  0.1587 -0.1786
  495MOL0     C68235   9.606   1.281   7.060 -0.5791  0.1845  0.5291
  495MOL0     C68236   9.548   1.419   7.056 -0.7283 -0.1254  0.2156
  495MOL0     C68237   9.489   1.528   7.069 -0.7038 -0.6271  0.5292
  495MOL0     C68238   9.708   1.437   6.563  0.3243 -0.5606  0.4854
  495MOL0     C68239   9.682   1.558   6.501  0.2684 -0.3777  0.6277
  495MOL0     C68240   9.531   1.600   6.492  0.1552 -0.1935  0.1128
  495MOL0     H68241   9.807   1.859   6.098  1.0818  0.3867 -1.9355
  495MOL0     H68242   9.746   2.072   5.995 -0.0816 -0.8202 -0.4124
  495MOL0     H68243   9.617   2.287   6.007  0.4204  3.5662  2.6811
  495MOL0     H68244   9.758   2.263   5.894 -1.9772  2.2170 -3.2987
  495MOL0     H68245   9.813   2.495   5.921  0.6517  0.3401 -1.3772
  495MOL0     H68246   9.667   2.451   5.830 -0.0781 -4.3929 -0.2449
  495MOL0     H68247   9.539   2.527   6.033  0.1145  1.3477 -0.8038
  495MOL0     H68248   9.688   2.559   6.126 -0.6579 -0.1204 -0.4557
  495MOL0     H68249   9.728   2.764   5.981 -0.1737  0.8020 -2.3243
  495MOL0     H68250   9.620   2.695   5.865 -0.6414  0.1611 -0.5654
  495MOL0     H68251   9.443   2.728   6.035 -0.4179  1.8138  1.6571
  495MOL0     H68252   9.515   2.880   5.977 -0.9227 -0.8353 -1.1335
  495MOL0     H68253   9.481   2.886   6.214  0.0196 -1.2542  0.1199
  495MOL0     H68254   9.561   2.729   6.240 -0.9655 -0.7047 -1.6072
  495MOL0     H68255   9.726   2.962   6.136 -0.7004 -0.3504 -0.5179
  495MOL0     H68256   9.782   2.799   6.177 -1.3540 -1.2309 -3.2231
  495MOL0     H68257   9.716   3.023   6.351 -0.8154 -0.6602 -1.3767
  495MOL0     H68258   9.650   2.861   6.408  3.3860 -5.8114  2.0373
  495MOL0     H68259   9.859   2.673   6.421 -1.5763 -0.5190  1.1763
  495MOL0     H68260  10.188   2.721   6.633 -0.6908  0.0010  0.4750
  495MOL0     H68261  10.224   2.687   6.460  0.2744 -2.0172  0.3360
  495MOL0     H68262  10.004   2.541   6.610  2.7063  0.3166  2.1976
  495MOL0     H68263  10.039   2.529   6.439  0.1219 -1.7748  0.3265
  495MOL0     H68264  10.287   2.469   6.515  1.0328 -1.9288  1.2944
  495MOL0     H68265  10.215   2.465   6.682 -2.4388  2.8332  0.1892
  495MOL0     H68266  10.166   2.308   6.430  3.1250  1.3213 -0.4738
  495MOL0     H68267  10.246   2.242   6.569  0.2524 -0.6468 -4.3738
  495MOL0     H68268  10.182   2.213   6.814  0.6105  0.6982 -0.9066
  495MOL0     H68269  10.110   2.209   7.126 -0.1555  1.6185 -1.3940
  495MOL0     H68270  10.220   2.124   7.018  0.4300  3.8447 -0.6206
  495MOL0     H68271  10.073   2.039   7.091  0.9991 -0.4878  2.1834
  495MOL0     H68272   9.654   2.253   7.294 -1.0935  1.2485 -1.1426
  495MOL0     H68273   9.449   2.234   7.432  0.2892  0.0904 -0.2880
  495MOL0     H68274   9.374   2.058   7.588 -0.4957  2.7034  4.5673
  495MOL0     H68275   9.222   2.157   7.590  1.3088  1.7987 -1.2458
  495MOL0     H68276   9.272   1.855   7.586 -2.7934 -1.0559 -1.3530
  495MOL0     H68277   9.198   1.937   7.723  3.5832  1.8281  0.8269
  495MOL0     H68278   9.079   1.859   7.446 -0.0383  1.6930 -1.0642
  495MOL0     H68279   9.002   1.962   7.561  1.7263  1.4086  0.2342
  495MOL0     H68280   8.999   1.777   7.724 -0.6358 -0.3262  0.9007
  495MOL0     H68281   9.081   1.668   7.606  1.6976  1.0972 -1.7097
  495MOL0     H68282   8.807   1.790   7.588 -0.1173 -0.1250  3.0418
  495MOL0     H68283   8.881   1.661   7.480  1.0203 -0.0848 -0.5095
  495MOL0     H68284   8.853   1.616   7.772  0.7881  1.4150 -0.5086
  495MOL0     H68285   8.898   1.498   7.642 -1.7627  0.4847 -4.2248
  495MOL0     H68286   8.666   1.447   7.711 -2.0918  0.7027 -0.3582
  495MOL0     H68287   8.716   1.478   7.549 -2.4035 -0.1307 -0.3692
  495MOL0     H68288   8.511   1.563   7.554  0.6753  1.4607 -3.0420
  495MOL0     H68289   8.616   1.690   7.523 -0.4296  1.2059  0.7029
  495MOL0     H68290   9.306   1.895   7.229 -0.3545 -0.9159  2.3859
  495MOL0     H68291   9.496   1.932   7.064  0.0333  2.0534 -1.2665
  495MOL0     H68292   9.694   2.213   6.847 -0.3730  1.1184  2.4497
  495MOL0     H68293   9.802   2.248   6.626  2.8642 -0.3388 -1.6178
  495MOL0     H68294   9.897   2.297   6.322 -2.1839  0.1422  1.9238
  495MOL0     H68295   9.942   2.072   6.444  1.4711  0.7737 -0.5503
  495MOL0     H68296  10.007   1.663   6.466 -0.6673 -0.4287 -0.7509
  495MOL0     H68297  10.053   1.462   6.556 -0.5374 -0.7941 -0.3530
  495MOL0     H68298   9.707   1.173   6.665 -0.1449  1.2835 -0.1687
  495MOL0     H68299   9.848   1.122   6.754 -0.0127  0.1813  0.5994
  495MOL0     H68300   9.716   1.402   6.812  0.8058 -0.0092 -1.5633
  495MOL0     H68301   9.832   1.308   6.906 -1.8876 -3.1350  3.9957
  495MOL0     H68302   9.539   1.230   6.870  0.8116  2.3389 -1.0488
  495MOL0     H68303   9.661   1.124   6.938  0.2519  0.3482  1.8381
  495MOL0     H68304   9.698   1.275   7.120  0.5718  1.1060 -1.0458
  495MOL0     H68305   9.538   1.220   7.119  1.4158 -2.3752  0.3317
  495MOL0     H68306   9.444   1.621   7.099 -0.2217  0.9285 -3.1248
  495MOL0     H68307   9.626   1.371   6.590 -1.0485  0.3135 -1.3107
  495MOL0     H68308   9.509   1.663   6.579 -2.5715 -1.7056  0.6535
  495MOL0     H68309   9.504   1.649   6.398 -3.2918 -0.8833  0.6237
  495MOL0     H68310   9.469   1.510   6.493  0.2005 -0.2392  1.4121
  496MOL0     O68311   4.638  11.126   2.918 -0.6039 -0.2238 -0.2648
  496MOL0     C68312   4.665  11.017   2.969 -0.3447 -1.1963 -0.2613
  496MOL0     O68313   4.674  10.998   3.107  0.2322 -0.2104 -0.6498
  496MOL0     C68314   4.652  11.107   3.179 -0.2881 -0.1916  0.0655
  496MOL0     C68315   4.529  11.140   3.236 -0.0249  0.0398  0.0371
  496MOL0     C68316   4.511  11.249   3.320  0.2388 -0.6839  0.0147
  496MOL0     C68317   4.622  11.324   3.369  0.7259  0.6138 -0.6012
  496MOL0     O68318   4.604  11.424   3.465 -0.1360  0.1312  0.9706
  496MOL0     C68319   4.722  11.440   3.547  0.5248  0.0414 -0.3746
  496MOL0     C68320   4.667  11.477   3.679 -0.4759  0.0988 -0.3256
  496MOL0     C68321   4.789  11.510   3.778  0.6713  0.6830 -0.4315
  496MOL0     C68322   4.724  11.579   3.900  0.3256  0.4494 -1.0721
  496MOL0     C68323   4.817  11.595   4.029  0.1775  0.3214 -0.2404
  496MOL0     C68324   4.897  11.718   4.036  0.7379  0.2991 -0.2145
  496MOL0     C68325   4.926  11.766   4.183 -0.8242 -0.3042 -0.6355
  496MOL0     C68326   4.813  11.767   4.284  0.2434  0.7122  0.3755
  496MOL0     N68327   4.841  11.838   4.410  0.7511  0.7174  0.2021
  496MOL0     C68328   4.860  11.783   4.530  0.4155  0.0976 -0.9175
  496MOL0     C68329   4.875  11.891   4.623  0.3232  0.4633 -0.0142
  496MOL0     C68330   4.920  11.861   4.767  0.3239 -0.5512 -0.1447
  496MOL0     C68331   4.889  11.977   4.867  0.6159 -0.1448  0.0563
  496MOL0     C68332   4.740  12.026   4.873 -0.3021 -0.4377  0.1429
  496MOL0     C68333   4.724  12.144   4.973 -0.0914 -0.1680  0.1647
  496MOL0     O68334   4.795  12.111   5.092  0.1970  0.2504 -0.3899
  496MOL0     C68335   4.860  12.211   5.147  0.5900 -1.5334 -0.2921
  496MOL0     C68336   4.785  12.301   5.219 -0.1136  0.4351 -0.0263
  496MOL0     C68337   4.846  12.410   5.278  0.7396  1.2397 -0.1425
  496MOL0     C68338   4.759  12.495   5.371  0.7467 -0.3256  0.4852
  496MOL0     C68339   4.989  12.429   5.258  0.4018 -0.3279  0.0877
  496MOL0     C68340   5.076  12.536   5.312  0.2142 -0.2208 -0.3778
  496MOL0     O68341   5.216  12.526   5.289 -0.2890 -0.4332 -0.8874
  496MOL0     C68342   5.311  12.613   5.339 -0.1527  0.2674 -0.2512
  496MOL0     C68343   5.446  12.573   5.317 -0.0854 -0.7689 -0.0094
  496MOL0     C68344   5.553  12.656   5.375  0.1109  0.3834  0.7046
  496MOL0     C68345   5.527  12.770   5.452  0.7826 -0.2504 -0.1707
  496MOL0     O68346   5.625  12.845   5.510  0.6765  0.3431  0.2958
  496MOL0     C68347   5.766  12.828   5.467  0.6781  0.7666 -0.3097
  496MOL0     C68348   5.820  12.718   5.556 -0.8442  0.0479 -0.2380
  496MOL0     C68349   5.966  12.688   5.514 -0.8526  0.3218  0.1636
  496MOL0     C68350   6.031  12.585   5.608  1.1595  0.4171 -0.7596
  496MOL0     C68351   6.182  12.562   5.592 -0.7335  0.2412 -0.0431
  496MOL0     C68352   6.219  12.524   5.440 -0.3231 -0.5834  0.5418
  496MOL0     C68353   6.351  12.456   5.427 -0.3848 -0.0093 -0.3632
  496MOL0     C68354   6.376  12.394   5.279  0.8626 -0.5454 -0.5300
  496MOL0    Cl68355   6.331  12.503   5.145 -0.3830 -0.2721 -0.3336
  496MOL0     C68356   5.390  12.811   5.459  0.1508  0.5147  0.0749
  496MOL0     C68357   5.287  12.741   5.405 -0.0601  0.3006  0.0909
  496MOL0     O68358   5.019  12.621   5.371  0.2106  1.1269 -0.3433
  496MOL0     C68359   5.057  12.337   5.168 -0.0634 -0.4607 -0.1940
  496MOL0     C68360   4.991  12.222   5.113 -0.1623 -0.5197  0.0291
  496MOL0     N68361   4.862  12.009   4.557  0.4261  0.6606  0.2660
  496MOL0     N68362   4.835  11.976   4.433 -0.8341 -0.4629  0.5247
  496MOL0     C68363   4.745  11.291   3.309  0.2226 -0.3225 -0.1226
  496MOL0     C68364   4.754  11.193   3.210 -0.1340 -0.2732 -0.0847
  496MOL0     C68365   4.704  10.907   2.876 -0.1258  0.2957  0.1511
  496MOL0     C68366   4.799  10.814   2.919 -0.5662 -0.8053 -0.6529
  496MOL0     C68367   4.841  10.709   2.842 -1.0434 -0.0304 -0.5353
  496MOL0     C68368   4.789  10.679   2.719  0.5967 -0.7549 -0.4256
  496MOL0     O68369   4.841  10.568   2.664 -0.1933  0.2685 -0.2450
  496MOL0     C68370   4.795  10.539   2.534 -0.3269  0.2849 -0.0277
  496MOL0     C68371   4.855  10.633   2.437 -0.8234 -1.0052 -0.0971
  496MOL0     C68372   4.841  10.590   2.293  0.0175  0.4451  0.1982
  496MOL0     C68373   4.937  10.468   2.265  0.2698  0.3957 -0.1616
  496MOL0     C68374   4.961  10.443   2.119  0.9272 -0.2816  0.3350
  496MOL0     C68375   4.994  10.420   2.001 -0.4324  0.3501  0.1884
  496MOL0     C68376   4.692  10.768   2.668 -0.9157  1.1458 -0.2882
  496MOL0     C68377   4.650  10.882   2.744 -0.7338 -0.9999  0.1134
  496MOL0     C68378   4.550  10.971   2.665  0.9848 -0.6690 -0.2682
  496MOL0     H68379   4.436  11.085   3.224 -0.0256 -0.2866  1.4128
  496MOL0     H68380   4.410  11.269   3.351  0.5620 -2.2552  2.2826
  496MOL0     H68381   4.780  11.526   3.513  0.4816 -0.5097 -1.9439
  496MOL0     H68382   4.776  11.347   3.568  1.6947  0.7167 -0.3419
  496MOL0     H68383   4.588  11.552   3.682 -1.4932 -0.8572 -1.7268
  496MOL0     H68384   4.613  11.390   3.719 -1.9516 -0.2277 -2.8183
  496MOL0     H68385   4.825  11.412   3.809  1.8744  1.7092  1.5788
  496MOL0     H68386   4.879  11.558   3.740  1.8161 -0.8720  0.2313
  496MOL0     H68387   4.686  11.676   3.867 -0.4605  0.3659 -0.4258
  496MOL0     H68388   4.644  11.511   3.929  1.6857 -0.1366  1.6377
  496MOL0     H68389   4.876  11.506   4.051  1.1073  0.4711 -1.9838
  496MOL0     H68390   4.743  11.610   4.108 -1.7746 -1.5089 -1.6176
  496MOL0     H68391   4.985  11.710   3.973 -0.9824 -0.3764 -2.6658
  496MOL0     H68392   4.836  11.796   3.988 -0.3752 -1.1969 -1.3349
  496MOL0     H68393   4.987  11.856   4.188  0.3548 -1.1241  1.0463
  496MOL0     H68394   5.004  11.700   4.222 -0.1577  1.2652  0.8021
  496MOL0     H68395   4.726  11.823   4.246 -0.0400  2.5615  3.4126
  496MOL0     H68396   4.774  11.670   4.316 -0.2423  0.7712 -0.0170
  496MOL0     H68397   4.871  11.677   4.552  3.5439  0.3613 -0.6777
  496MOL0     H68398   5.026  11.836   4.774 -0.2079 -2.8031  0.7265
  496MOL0     H68399   4.864  11.775   4.805  1.6436 -1.3661 -0.0158
  496MOL0     H68400   4.926  11.943   4.964 -0.9827 -1.9121  0.1010
  496MOL0     H68401   4.940  12.068   4.835 -0.0464  0.6008  1.0645
  496MOL0     H68402   4.701  12.068   4.780  2.2333  1.8340 -0.0016
  496MOL0     H68403   4.672  11.943   4.897 -0.3838 -0.2498  0.5773
  496MOL0     H68404   4.767  12.235   4.930  0.7792 -0.7264 -0.1816
  496MOL0     H68405   4.617  12.161   4.981 -0.3232 -0.3479 -2.0293
  496MOL0     H68406   4.684  12.266   5.237 -0.1850 -0.9625 -2.5798
  496MOL0     H68407   4.651  12.492   5.355  0.9761 -1.9617 -1.0312
  496MOL0     H68408   4.784  12.601   5.362  0.3338 -0.4371 -3.2481
  496MOL0     H68409   4.785  12.466   5.474  0.1171  1.8912  1.3337
  496MOL0     H68410   5.477  12.485   5.262  1.7475 -1.9168  2.6384
  496MOL0     H68411   5.653  12.617   5.358 -0.4102 -0.4378 -0.6429
  496MOL0     H68412   5.769  12.793   5.364 -2.0809  0.2134 -0.2983
  496MOL0     H68413   5.828  12.918   5.470  1.3427  0.2913  0.5516
  496MOL0     H68414   5.815  12.754   5.659 -1.4972  1.4617 -0.7345
  496MOL0     H68415   5.757  12.629   5.547 -2.1746  0.9495 -0.1025
  496MOL0     H68416   6.018  12.784   5.522  0.5052 -0.5006  1.9300
  496MOL0     H68417   5.974  12.644   5.414  0.9342 -2.6097  1.4580
  496MOL0     H68418   5.977  12.494   5.582 -0.5679  0.8279  1.1634
  496MOL0     H68419   6.009  12.612   5.712  0.9525 -4.4615  0.7136
  496MOL0     H68420   6.242  12.650   5.616  1.1829 -1.2840  1.0595
  496MOL0     H68421   6.211  12.482   5.661 -4.7088  0.1576  1.8375
  496MOL0     H68422   6.217  12.613   5.377  0.5997  1.2161  2.9331
  496MOL0     H68423   6.141  12.466   5.390  0.2905  0.7967 -2.2002
  496MOL0     H68424   6.363  12.388   5.512  1.6870 -0.3464 -0.8697
  496MOL0     H68425   6.433  12.528   5.424  0.5731 -1.1015 -3.7140
  496MOL0     H68426   6.322  12.299   5.276  0.3158 -0.3420  1.6767
  496MOL0     H68427   6.483  12.376   5.263  1.8703  3.0193  1.1076
  496MOL0     H68428   5.366  12.899   5.517  0.5171 -0.8737  2.4810
  496MOL0     H68429   5.186  12.779   5.422 -0.8759 -2.2183  1.3665
  496MOL0     H68430   5.164  12.346   5.151  0.0564 -0.5614  0.4856
  496MOL0     H68431   5.044  12.146   5.056  2.4098  3.6334 -3.7753
  496MOL0     H68432   4.834  11.348   3.332  1.3336 -3.2482  3.8965
  496MOL0     H68433   4.854  11.180   3.171 -0.5693  2.7643 -2.6095
  496MOL0     H68434   4.857  10.831   3.009 -1.4859 -0.2607 -0.1515
  496MOL0     H68435   4.931  10.671   2.890  0.6878  2.7767 -1.3623
  496MOL0     H68436   4.807  10.432   2.513 -3.3256 -0.1936  0.1549
  496MOL0     H68437   4.686  10.542   2.519 -0.1969 -0.6179 -1.3426
  496MOL0     H68438   4.962  10.643   2.456 -0.1750 -1.7421 -2.8945
  496MOL0     H68439   4.809  10.732   2.441 -0.5769 -0.6201 -3.6046
  496MOL0     H68440   4.736  10.561   2.275 -0.4417  1.1129  1.7268
  496MOL0     H68441   4.867  10.677   2.232 -0.1648  1.9871  2.2244
  496MOL0     H68442   4.882  10.379   2.298  1.5095 -0.2726  0.1632
  496MOL0     H68443   5.039  10.485   2.300  1.8862 -0.0835 -4.1304
  496MOL0     H68444   5.012  10.394   1.898  0.2300 -1.3158  0.6919
  496MOL0     H68445   4.649  10.748   2.570  0.4360  1.2795 -0.9253
  496MOL0     H68446   4.601  11.050   2.609 -0.5741 -0.5956 -1.6605
  496MOL0     H68447   4.472  10.921   2.606  0.0939 -0.2799  0.5523
  496MOL0     H68448   4.495  11.019   2.746  0.6488 -4.0923  1.7000
  497MOL0     O68449   1.052  10.805   0.620 -0.2886  0.1137  0.1703
  497MOL0     C68450   1.101  10.708   0.685  0.6595 -1.1793 -0.7180
  497MOL0     O68451   1.228  10.708   0.748  0.7153  0.6958 -0.4767
  497MOL0     C68452   1.283  10.825   0.785 -0.5360  0.9676  0.2979
  497MOL0     C68453   1.298  10.859   0.919 -0.9672  0.1090 -0.5237
  497MOL0     C68454   1.364  10.974   0.953 -0.9484  0.3650  0.3834
  497MOL0     C68455   1.424  11.061   0.856 -0.0034  0.4117  0.2956
  497MOL0     O68456   1.505  11.162   0.902 -0.3144 -0.7228  0.5965
  497MOL0     C68457   1.577  11.238   0.800  0.2289  0.0242  0.9596
  497MOL0     C68458   1.634  11.371   0.850 -0.2228  0.7654  0.7497
  497MOL0     C68459   1.745  11.344   0.949  0.7231  0.3540  0.7388
  497MOL0     C68460   1.819  11.470   0.971 -0.2899 -0.2128 -0.5489
  497MOL0     C68461   1.918  11.458   1.087  0.1269 -0.5784 -0.6875
  497MOL0     C68462   2.027  11.351   1.075 -0.1528  0.6884  0.3192
  497MOL0     C68463   2.114  11.344   1.202 -0.3517 -0.1237  1.3450
  497MOL0     C68464   2.251  11.272   1.175  0.0046 -0.1877  0.7078
  497MOL0     N68465   2.272  11.205   1.306  1.1309  0.1337 -0.7318
  497MOL0     C68466   2.207  11.094   1.355  0.5758  0.5342  0.7714
  497MOL0     C68467   2.253  11.066   1.481  0.5348 -0.1658  0.7699
  497MOL0     C68468   2.196  10.963   1.578  0.3025  1.0220  0.2519
  497MOL0     C68469   2.290  10.941   1.690  0.2425 -0.6532 -0.0633
  497MOL0     C68470   2.239  10.833   1.787  1.6359 -0.2441  0.4681
  497MOL0     C68471   2.261  10.690   1.725  0.8821 -0.4343 -0.8134
  497MOL0     O68472   2.401  10.672   1.704  0.1301  0.5462 -0.1266
  497MOL0     C68473   2.496  10.629   1.800 -0.4336 -0.1222 -0.1138
  497MOL0     C68474   2.474  10.593   1.936 -0.7701 -0.4864  0.1283
  497MOL0     C68475   2.572  10.537   2.019  0.1223 -0.2706 -0.3104
  497MOL0     C68476   2.525  10.501   2.158  0.6267  0.9378  0.0872
  497MOL0     C68477   2.706  10.534   1.961  0.3344 -0.0826 -0.4475
  497MOL0     C68478   2.823  10.509   2.041  0.3093  0.5869  0.0587
  497MOL0     O68479   2.938  10.570   2.000  0.5960  0.3148  0.8826
  497MOL0     C68480   3.059  10.533   2.051 -0.5518 -1.0888 -0.1545
  497MOL0     C68481   3.088  10.396   2.042 -0.7850 -0.5791 -0.0429
  497MOL0     C68482   3.219  10.358   2.087 -0.8590 -0.2743  0.8329
  497MOL0     C68483   3.316  10.445   2.131 -0.7458 -0.7833 -0.0855
  497MOL0     O68484   3.436  10.386   2.172  0.5009  0.4449 -0.1345
  497MOL0     C68485   3.476  10.414   2.302  1.1755  0.8928  0.0631
  497MOL0     C68486   3.601  10.332   2.311 -0.0344 -0.6555  0.0129
  497MOL0     C68487   3.660  10.334   2.456 -1.0654 -0.2821  0.9244
  497MOL0     C68488   3.779  10.237   2.464  0.3631 -0.3632 -0.5288
  497MOL0     C68489   3.814  10.198   2.613 -0.3651 -0.0555 -1.3087
  497MOL0     C68490   3.948  10.118   2.637 -0.8464 -0.3939 -0.6487
  497MOL0     C68491   3.970  10.016   2.523 -0.0261  0.2607 -0.5514
  497MOL0     C68492   4.058   9.898   2.569  0.2320 -0.3681  0.0780
  497MOL0    Cl68493   4.222   9.933   2.591  0.0296  0.0457 -0.0860
  497MOL0     C68494   3.281  10.584   2.142  0.4069 -0.1762  0.2331
  497MOL0     C68495   3.149  10.629   2.097 -0.5756  0.7128 -0.5391
  497MOL0     O68496   2.815  10.427   2.135  0.2570  0.6751 -0.5526
  497MOL0     C68497   2.724  10.580   1.823 -0.3910 -0.2658 -0.3771
  497MOL0     C68498   2.622  10.623   1.750 -1.0735 -0.7246 -0.2201
  497MOL0     N68499   2.345  11.167   1.510 -0.5115 -0.1489  1.0037
  497MOL0     N68500   2.357  11.246   1.409 -0.0087 -0.2016  0.7548
  497MOL0     C68501   1.410  11.020   0.718  0.8233 -0.4036 -1.5337
  497MOL0     C68502   1.340  10.903   0.688  0.5787  0.5527  0.1581
  497MOL0     C68503   1.036  10.580   0.672 -0.2380 -0.5104  0.3973
  497MOL0     C68504   1.074  10.469   0.753  0.3106 -0.6048  0.0794
  497MOL0     C68505   1.014  10.344   0.735  0.0469 -0.0343 -0.3232
  497MOL0     C68506   0.897  10.332   0.662  0.6023 -0.0799 -0.4021
  497MOL0     O68507   0.836  10.206   0.646 -0.4233 -0.2969  0.4992
  497MOL0     C68508   0.776  10.165   0.521 -0.2212 -0.8620 -0.1508
  497MOL0     C68509   0.805  10.015   0.505 -0.1735  0.1020 -0.2551
  497MOL0     C68510   0.959   9.986   0.511 -0.2896  0.2566 -0.8594
  497MOL0     C68511   1.016   9.931   0.376 -0.1866 -1.3876 -0.4284
  497MOL0     C68512   1.033   9.785   0.394  0.7134 -0.0370  0.0445
  497MOL0     C68513   1.056   9.667   0.395 -0.2080 -1.1554  0.4738
  497MOL0     C68514   0.849  10.451   0.593  0.8400  0.3102 -0.0789
  497MOL0     C68515   0.926  10.564   0.578 -0.3340 -0.2551 -0.1240
  497MOL0     C68516   0.881  10.641   0.454 -0.5315 -0.0188  0.4667
  497MOL0     H68517   1.253  10.803   1.000  4.0418 -2.7355  0.6931
  497MOL0     H68518   1.370  11.012   1.055  3.9988 -1.2459  0.9836
  497MOL0     H68519   1.506  11.276   0.726  0.7274 -0.0160  0.4500
  497MOL0     H68520   1.652  11.170   0.758 -1.5742 -1.4268 -0.0502
  497MOL0     H68521   1.672  11.430   0.766  1.0131 -0.4446  0.4094
  497MOL0     H68522   1.555  11.431   0.894 -0.7590  0.4582  0.2254
  497MOL0     H68523   1.706  11.302   1.042 -1.5064  2.4315  0.8364
  497MOL0     H68524   1.807  11.262   0.910 -1.7512 -1.8075  1.0311
  497MOL0     H68525   1.873  11.511   0.885  2.0195 -0.5304  0.6686
  497MOL0     H68526   1.751  11.549   1.001  0.7349  0.9124 -1.1110
  497MOL0     H68527   1.865  11.428   1.178 -0.7599 -1.1819 -1.3915
  497MOL0     H68528   1.960  11.558   1.097 -2.1985  0.3248  0.9306
  497MOL0     H68529   1.984  11.257   1.041  2.1603 -0.9799  1.7418
  497MOL0     H68530   2.092  11.393   0.998 -3.0448 -0.9045 -3.2542
  497MOL0     H68531   2.049  11.301   1.278 -1.1790 -1.8531 -0.2655
  497MOL0     H68532   2.133  11.449   1.226 -1.3779  0.8982 -1.8417
  497MOL0     H68533   2.242  11.196   1.097 -2.5425  1.5220 -0.7747
  497MOL0     H68534   2.329  11.345   1.153 -1.2509  1.3526  1.2110
  497MOL0     H68535   2.125  11.040   1.309  0.2570  0.9850  0.8069
  497MOL0     H68536   2.172  10.871   1.524 -0.8766  0.2644  1.9763
  497MOL0     H68537   2.106  11.012   1.615 -0.8042 -1.3353  0.8985
  497MOL0     H68538   2.389  10.915   1.653  0.4673 -0.6201  0.5024
  497MOL0     H68539   2.304  11.041   1.733  1.7776 -0.8474 -0.0624
  497MOL0     H68540   2.293  10.827   1.882  0.9713 -0.9317  0.8164
  497MOL0     H68541   2.133  10.849   1.812  0.9443 -2.8517 -0.4137
  497MOL0     H68542   2.221  10.626   1.804  1.4621  0.5944  0.3347
  497MOL0     H68543   2.207  10.690   1.630 -5.4008 -0.6043  2.2231
  497MOL0     H68544   2.377  10.602   1.983 -0.2813  1.9836  0.8177
  497MOL0     H68545   2.540  10.397   2.188 -1.7573  0.8897  1.3255
  497MOL0     H68546   2.417  10.516   2.166  0.4517  0.3824 -1.0893
  497MOL0     H68547   2.584  10.557   2.232  1.1657  1.6418 -0.8412
  497MOL0     H68548   3.020  10.321   2.003  0.7667 -2.7878  1.2876
  497MOL0     H68549   3.242  10.252   2.089  2.9821  0.4278  0.8885
  497MOL0     H68550   3.495  10.520   2.320  1.7388  0.9373 -0.7249
  497MOL0     H68551   3.396  10.373   2.364  1.2382 -2.3957 -1.7901
  497MOL0     H68552   3.595  10.228   2.279  4.2562 -2.0673  2.8754
  497MOL0     H68553   3.667  10.381   2.238  0.9513  0.9306  1.8749
  497MOL0     H68554   3.585  10.304   2.530 -1.1595  2.1135  1.8946
  497MOL0     H68555   3.699  10.435   2.470 -0.6784 -0.1286 -0.9766
  497MOL0     H68556   3.867  10.283   2.418 -0.4764  1.8686 -0.0325
  497MOL0     H68557   3.756  10.147   2.405  0.9097 -1.1930  0.4795
  497MOL0     H68558   3.825  10.293   2.664  1.1797 -1.2731  0.7547
  497MOL0     H68559   3.734  10.144   2.664 -0.8077  2.8269  1.2988
  497MOL0     H68560   3.943  10.066   2.733 -1.2096  2.7505  1.1454
  497MOL0     H68561   4.034  10.184   2.647  0.1343 -1.8606  1.3553
  497MOL0     H68562   4.027  10.067   2.445  1.5809  0.3892  0.6488
  497MOL0     H68563   3.878   9.979   2.478  0.1628 -0.9871  0.0575
  497MOL0     H68564   4.063   9.813   2.501  1.4153 -2.1811  2.3013
  497MOL0     H68565   4.029   9.857   2.666  1.3884  2.0754  1.5719
  497MOL0     H68566   3.349  10.657   2.184 -1.3183 -0.5133  4.0605
  497MOL0     H68567   3.125  10.735   2.096 -2.6258  0.3317  1.2575
  497MOL0     H68568   2.826  10.570   1.786  0.2060  0.5841  0.9422
  497MOL0     H68569   2.638  10.665   1.652 -0.0376 -1.1036 -0.2281
  497MOL0     H68570   1.461  11.086   0.649 -0.0876  1.7597 -0.2599
  497MOL0     H68571   1.328  10.866   0.586 -0.0857 -2.1021  1.1068
  497MOL0     H68572   1.154  10.475   0.825  1.3931 -1.1193 -1.0413
  497MOL0     H68573   1.062  10.261   0.785 -0.4022 -0.9867 -1.4217
  497MOL0     H68574   0.667  10.173   0.530 -0.1834  2.1829 -1.4646
  497MOL0     H68575   0.810  10.220   0.434  0.8225 -0.4569  0.4976
  497MOL0     H68576   0.761   9.965   0.418 -0.5730 -2.3206  1.2706
  497MOL0     H68577   0.767   9.967   0.595 -3.1923 -0.2631 -1.5919
  497MOL0     H68578   1.007  10.078   0.547 -1.2891  0.3295  0.3676
  497MOL0     H68579   0.999   9.916   0.584  4.6870  0.1729 -3.2183
  497MOL0     H68580   1.102   9.985   0.337 -0.9870 -1.7541 -2.8477
  497MOL0     H68581   0.942   9.938   0.296 -0.5935 -2.8072 -0.2026
  497MOL0     H68582   1.099   9.569   0.390 -0.1802 -1.1000 -2.5933
  497MOL0     H68583   0.752  10.451   0.543  0.3203 -0.3249  0.8819
  497MOL0     H68584   0.947  10.600   0.376  0.8958 -0.0900  1.6607
  497MOL0     H68585   0.781  10.613   0.420 -1.8957  3.6055  1.0283
  497MOL0     H68586   0.880  10.750   0.463  2.8635  0.0409  1.7398
  498MOL0     O68587   3.152   7.888   1.427 -0.3045  0.2340 -0.0842
  498MOL0     C68588   3.219   7.902   1.527  0.7525  0.0734 -0.1869
  498MOL0     O68589   3.174   7.943   1.653 -0.3634  0.2517  0.5035
  498MOL0     C68590   3.048   7.907   1.679  1.1789  0.4101  1.0528
  498MOL0     C68591   2.964   8.003   1.732 -0.6238  0.0314 -0.5916
  498MOL0     C68592   2.824   7.971   1.746 -0.1447  0.7022 -0.6167
  498MOL0     C68593   2.770   7.846   1.704 -0.1545 -0.4096  0.3528
  498MOL0     O68594   2.631   7.833   1.711 -0.4171 -0.3104  0.6529
  498MOL0     C68595   2.577   7.712   1.673 -0.5851 -0.9796  0.1937
  498MOL0     C68596   2.428   7.723   1.678  0.4668 -0.0744  0.0366
  498MOL0     C68597   2.372   7.746   1.819 -0.3211  0.2196 -0.9162
  498MOL0     C68598   2.226   7.754   1.817 -0.7137 -0.1706  0.1759
  498MOL0     C68599   2.161   7.832   1.934  0.1174 -0.0916 -0.0711
  498MOL0     C68600   2.007   7.836   1.928  0.3035  0.2091  0.0943
  498MOL0     C68601   1.942   7.922   1.815  0.3171 -0.1177 -0.6625
  498MOL0     C68602   1.783   7.930   1.827  0.6412 -0.0459  0.0145
  498MOL0     N68603   1.721   7.795   1.818 -0.3952 -0.0151  0.3633
  498MOL0     C68604   1.666   7.721   1.918  0.0861 -1.5100  0.6152
  498MOL0     C68605   1.652   7.595   1.867  1.2468  0.0474 -0.6021
  498MOL0     C68606   1.610   7.494   1.972 -0.4752 -0.2677  0.2666
  498MOL0     C68607   1.724   7.444   2.066  0.1202 -0.2676 -0.3277
  498MOL0     C68608   1.762   7.562   2.162  0.3638 -0.0510  0.2893
  498MOL0     C68609   1.826   7.502   2.283 -1.7230  0.4970  0.2121
  498MOL0     O68610   1.956   7.436   2.254  0.2486  0.5861 -0.8272
  498MOL0     C68611   2.065   7.509   2.242  0.1071 -0.4265  0.1903
  498MOL0     C68612   2.078   7.644   2.272  0.4334 -0.1318 -0.0568
  498MOL0     C68613   2.202   7.706   2.272 -0.8860 -0.4967  0.1128
  498MOL0     C68614   2.213   7.852   2.311 -0.3280  0.0690 -0.1877
  498MOL0     C68615   2.319   7.630   2.230 -0.5728  0.3961 -1.0530
  498MOL0     C68616   2.453   7.692   2.208  0.2685  0.1735  0.3670
  498MOL0     O68617   2.471   7.830   2.200  0.1912 -0.4613 -0.3429
  498MOL0     C68618   2.604   7.872   2.222  0.2330 -0.2357 -0.6743
  498MOL0     C68619   2.624   7.905   2.358 -0.0908 -0.1014  0.1027
  498MOL0     C68620   2.750   7.959   2.380  0.1333 -0.5978 -0.0439
  498MOL0     C68621   2.853   7.967   2.282  0.3279  0.4629 -0.0014
  498MOL0     O68622   2.977   8.015   2.315 -0.3370 -0.1040 -0.7658
  498MOL0     C68623   3.094   7.986   2.232  0.3866 -0.0466  0.3806
  498MOL0     C68624   3.222   8.045   2.307 -1.1335 -0.3289 -0.7847
  498MOL0     C68625   3.228   8.197   2.294  0.7940  0.8974  0.5852
  498MOL0     C68626   3.299   8.260   2.413  0.5956  0.0223  0.0560
  498MOL0     C68627   3.312   8.416   2.386  0.0259  0.3695 -1.0256
  498MOL0     C68628   3.420   8.477   2.468 -0.7737  0.2701 -0.4620
  498MOL0     C68629   3.427   8.634   2.460  0.4422  0.1268  0.7657
  498MOL0     C68630   3.541   8.693   2.542  0.6206  0.1929  0.1563
  498MOL0    Cl68631   3.461   8.722   2.699  0.1538  0.4025  0.1871
  498MOL0     C68632   2.825   7.907   2.155 -0.0281  0.7159  0.1735
  498MOL0     C68633   2.698   7.869   2.122 -0.3098  0.3030 -0.4005
  498MOL0     O68634   2.543   7.606   2.202  0.6447  0.2125  0.9660
  498MOL0     C68635   2.300   7.496   2.208  0.9464  0.1183  0.5191
  498MOL0     C68636   2.176   7.440   2.204  0.0791  1.1401 -0.5118
  498MOL0     N68637   1.694   7.587   1.738 -0.8839  0.7079  0.3100
  498MOL0     N68638   1.751   7.705   1.717  0.4529  0.2649 -0.4958
  498MOL0     C68639   2.860   7.741   1.667  0.3808 -0.1007 -0.3335
  498MOL0     C68640   2.997   7.772   1.663  0.3449 -0.4943 -0.2113
  498MOL0     C68641   3.372   7.891   1.518  0.0986  0.2244 -0.9883
  498MOL0     C68642   3.456   7.880   1.633 -0.1030 -0.0548 -0.4703
  498MOL0     C68643   3.595   7.884   1.636 -0.0467  0.0303  0.2505
  498MOL0     C68644   3.656   7.912   1.511  0.2204  0.0771 -0.9038
  498MOL0     O68645   3.796   7.909   1.509 -0.7943 -0.3647  0.3277
  498MOL0     C68646   3.879   7.949   1.616 -1.0153 -0.9587  0.7326
  498MOL0     C68647   3.901   8.106   1.631 -0.3609  0.2572 -0.0393
  498MOL0     C68648   3.984   8.129   1.764  0.0073  0.7420  0.3786
  498MOL0     C68649   4.021   8.282   1.787  1.1138 -1.1288 -0.6598
  498MOL0     C68650   3.895   8.361   1.787  0.4531 -0.6604 -0.4634
  498MOL0     C68651   3.801   8.439   1.799  0.6748 -0.6249 -0.2480
  498MOL0     C68652   3.586   7.921   1.392  0.4592 -0.0789 -0.2008
  498MOL0     C68653   3.443   7.911   1.394  0.4017 -0.5187 -0.2544
  498MOL0     C68654   3.372   7.934   1.264  0.0976 -0.7343  0.2078
  498MOL0     H68655   2.986   8.108   1.750  3.4235 -1.2050  3.5748
  498MOL0     H68656   2.748   8.041   1.780 -1.1912 -1.0327  0.7919
  498MOL0     H68657   2.608   7.634   1.743  0.7234 -0.9289 -0.2982
  498MOL0     H68658   2.610   7.698   1.570 -2.0633  0.4443 -0.5134
  498MOL0     H68659   2.400   7.811   1.620  0.8731  0.1929  0.2425
  498MOL0     H68660   2.381   7.633   1.638 -1.9154  0.1011  2.1690
  498MOL0     H68661   2.403   7.664   1.884  2.2787  0.4781 -1.7456
  498MOL0     H68662   2.424   7.834   1.857  1.4346 -1.1659  0.0442
  498MOL0     H68663   2.198   7.809   1.726  2.2729  0.1890 -0.6582
  498MOL0     H68664   2.181   7.654   1.814 -2.1933  0.4845 -0.2484
  498MOL0     H68665   2.193   7.936   1.947 -0.1178 -0.1344  0.9293
  498MOL0     H68666   2.190   7.770   2.019 -2.8528  2.1372  2.8165
  498MOL0     H68667   1.975   7.731   1.923 -1.2187  0.7041 -0.8879
  498MOL0     H68668   1.967   7.876   2.022  1.1394  2.5272 -0.4846
  498MOL0     H68669   1.962   7.874   1.719  0.8260  0.7032 -0.9808
  498MOL0     H68670   1.975   8.026   1.827 -1.7490  0.7377 -1.6721
  498MOL0     H68671   1.764   7.968   1.927 -2.0053 -0.4034 -0.2894
  498MOL0     H68672   1.749   7.990   1.742  2.3483  1.0750  0.0697
  498MOL0     H68673   1.633   7.760   2.013 -0.7149 -2.4555  0.7421
  498MOL0     H68674   1.561   7.409   1.925 -2.0003 -0.2637  1.7653
  498MOL0     H68675   1.535   7.537   2.038 -0.1354 -1.0386  1.1713
  498MOL0     H68676   1.693   7.358   2.126  3.7030 -1.3245  0.2353
  498MOL0     H68677   1.818   7.415   2.018  1.0527  0.5230  0.9456
  498MOL0     H68678   1.823   7.641   2.119 -0.1434  0.9981  1.4348
  498MOL0     H68679   1.665   7.608   2.184 -0.7590 -0.5574 -3.0051
  498MOL0     H68680   1.833   7.581   2.358  2.1717 -1.1291  1.8252
  498MOL0     H68681   1.760   7.424   2.323 -1.6297 -1.9668 -3.7799
  498MOL0     H68682   1.998   7.706   2.313  0.5836 -2.1018  3.6731
  498MOL0     H68683   2.233   7.921   2.229 -2.7442  1.8500  0.6010
  498MOL0     H68684   2.295   7.863   2.384  0.1662 -3.2223 -0.1028
  498MOL0     H68685   2.121   7.886   2.361 -0.2497  0.3778 -0.2530
  498MOL0     H68686   2.551   7.892   2.436  1.7568 -2.3255  1.6042
  498MOL0     H68687   2.772   7.991   2.481 -0.7041  0.2060 -0.1066
  498MOL0     H68688   3.107   7.878   2.219 -0.5472 -0.2426  0.9486
  498MOL0     H68689   3.076   8.021   2.130  0.0661 -0.2641  0.3594
  498MOL0     H68690   3.217   8.019   2.413 -1.1199  2.0189 -0.1603
  498MOL0     H68691   3.314   8.004   2.263 -1.0952 -0.1111 -0.9093
  498MOL0     H68692   3.130   8.244   2.284  0.4653  0.2459  0.6448
  498MOL0     H68693   3.285   8.219   2.203  1.6299  2.3279  1.4199
  498MOL0     H68694   3.394   8.209   2.434 -1.0693 -2.6338  1.7563
  498MOL0     H68695   3.248   8.242   2.508 -0.1836 -1.3483 -0.5986
  498MOL0     H68696   3.326   8.431   2.279 -2.0863  0.4104 -1.3356
  498MOL0     H68697   3.213   8.461   2.403  0.1228  0.8564 -1.6985
  498MOL0     H68698   3.516   8.441   2.430 -0.6254  1.0377 -0.8329
  498MOL0     H68699   3.396   8.440   2.569 -1.9875 -1.5620 -1.3702
  498MOL0     H68700   3.343   8.695   2.493  2.3326  1.9366  2.6046
  498MOL0     H68701   3.443   8.644   2.353 -1.4948 -0.8044  0.3525
  498MOL0     H68702   3.577   8.778   2.483  2.1593 -2.0082 -2.2683
  498MOL0     H68703   3.618   8.617   2.555 -1.3882 -1.7239  1.5342
  498MOL0     H68704   2.894   7.900   2.071 -0.8209  1.6553 -0.5854
  498MOL0     H68705   2.666   7.833   2.025 -0.2947  1.4873 -0.8649
  498MOL0     H68706   2.384   7.438   2.170 -1.1704 -0.9171 -3.1203
  498MOL0     H68707   2.149   7.340   2.172 -1.3195  1.9817 -2.1171
  498MOL0     H68708   2.833   7.638   1.644  0.8715 -0.8329  2.0520
  498MOL0     H68709   3.067   7.696   1.629 -0.3631 -0.1931 -2.5535
  498MOL0     H68710   3.412   7.882   1.732 -1.3050  2.0152 -0.9688
  498MOL0     H68711   3.646   7.864   1.729 -0.3785  0.4758  0.5340
  498MOL0     H68712   3.837   7.912   1.710 -2.2975 -1.3393  0.0289
  498MOL0     H68713   3.977   7.903   1.598  1.4371  3.7359  0.4322
  498MOL0     H68714   3.799   8.146   1.625 -0.1004  0.9650  0.2408
  498MOL0     H68715   3.947   8.147   1.541  0.4423  1.1279  0.7453
  498MOL0     H68716   3.936   8.104   1.859  1.2675  1.0809  1.1257
  498MOL0     H68717   4.075   8.068   1.760  0.8994  1.8510  2.1537
  498MOL0     H68718   4.092   8.308   1.708  1.0348  0.4872 -0.2489
  498MOL0     H68719   4.079   8.295   1.879  1.1072  2.0577 -0.9867
  498MOL0     H68720   3.716   8.504   1.807  1.4648  0.4929 -0.6426
  498MOL0     H68721   3.631   7.943   1.296 -1.5085  0.5749 -1.0238
  498MOL0     H68722   3.452   7.941   1.189  0.3695  0.7239  0.5865
  498MOL0     H68723   3.303   7.853   1.242 -1.3528  0.4011  0.3816
  498MOL0     H68724   3.314   8.026   1.278 -2.0757 -1.7912 -1.3557
  499MOL0     O68725   0.077   5.710   7.558  0.3539 -0.4232  0.1472
  499MOL0     C68726   0.036   5.793   7.477 -0.7138 -0.1197 -0.1162
  499MOL0     O68727   0.121   5.852   7.389 -0.4166 -0.1029  0.2217
  499MOL0     C68728   0.258   5.811   7.365  0.6363 -0.4805 -0.1178
  499MOL0     C68729   0.318   5.821   7.241 -0.3546 -0.4125  0.3992
  499MOL0     C68730   0.443   5.764   7.219 -0.4335 -0.5957  0.1254
  499MOL0     C68731   0.525   5.721   7.322  1.0589  0.0965 -0.2294
  499MOL0     O68732   0.653   5.682   7.283  0.1214 -0.1113 -0.4321
  499MOL0     C68733   0.707   5.572   7.355 -0.3531  0.0276 -0.3378
  499MOL0     C68734   0.854   5.564   7.316 -0.1615  0.6270  0.0555
  499MOL0     C68735   0.947   5.664   7.372 -0.7651 -0.1631  0.3319
  499MOL0     C68736   1.071   5.676   7.281  0.9993  0.3804  0.1134
  499MOL0     C68737   1.172   5.782   7.340  0.0532 -0.0055 -0.1229
  499MOL0     C68738   1.132   5.931   7.344  1.4067  1.1226  0.6812
  499MOL0     C68739   1.239   6.007   7.417  0.6416  0.7130 -1.0080
  499MOL0     C68740   1.222   6.160   7.418  0.0610 -0.3852  0.1162
  499MOL0     N68741   1.235   6.215   7.284 -0.6785  0.6002  0.4046
  499MOL0     C68742   1.329   6.174   7.193 -0.7217 -0.2816 -0.3197
  499MOL0     C68743   1.300   6.253   7.091 -1.0516 -0.6029 -0.7055
  499MOL0     C68744   1.371   6.251   6.963 -0.6603  0.1560 -0.6333
  499MOL0     C68745   1.282   6.203   6.854  1.2042 -0.4915 -0.1290
  499MOL0     C68746   1.333   6.221   6.711  0.0905 -0.6472 -0.1845
  499MOL0     C68747   1.234   6.156   6.609 -0.4436 -0.0599 -0.5845
  499MOL0     O68748   1.261   6.016   6.614  1.0599  0.0545 -0.6716
  499MOL0     C68749   1.185   5.944   6.521  0.1149 -0.9622  0.3087
  499MOL0     C68750   1.223   5.819   6.483 -0.8147  0.7130 -0.0356
  499MOL0     C68751   1.160   5.750   6.381 -0.5320  0.1717  0.5765
  499MOL0     C68752   1.214   5.612   6.357 -0.1198 -0.0279 -0.1306
  499MOL0     C68753   1.048   5.804   6.310  0.2841 -0.4878  0.4274
  499MOL0     C68754   0.967   5.732   6.204 -0.0500  0.2396  0.0340
  499MOL0     O68755   0.921   5.814   6.103  0.1340 -1.0158 -0.2305
  499MOL0     C68756   0.855   5.761   5.993  0.6766  0.0974 -0.2015
  499MOL0     C68757   0.875   5.636   5.936 -0.1451 -0.0702  0.9141
  499MOL0     C68758   0.801   5.596   5.829 -0.4447  0.5487  0.7127
  499MOL0     C68759   0.707   5.681   5.768 -0.4599 -0.0383  0.0271
  499MOL0     O68760   0.640   5.637   5.654 -0.0834 -0.3699 -0.4319
  499MOL0     C68761   0.586   5.733   5.567  0.4600 -0.2172  0.6175
  499MOL0     C68762   0.520   5.672   5.443 -0.2385  0.2327  0.1474
  499MOL0     C68763   0.390   5.611   5.480  0.0919 -0.0483  0.9582
  499MOL0     C68764   0.377   5.465   5.445  0.0514 -0.1264  0.6019
  499MOL0     C68765   0.266   5.390   5.507  0.1605 -0.2333  0.2020
  499MOL0     C68766   0.254   5.240   5.465 -0.6906  0.5560 -0.3283
  499MOL0     C68767   0.145   5.179   5.563 -0.1230  0.5259 -0.7552
  499MOL0     C68768   0.192   5.131   5.698  0.1117  0.5581  1.0486
  499MOL0    Cl68769   0.053   5.068   5.804  0.0484 -0.3172 -0.1944
  499MOL0     C68770   0.683   5.804   5.825 -0.6383  0.1743 -0.4134
  499MOL0     C68771   0.768   5.846   5.933 -0.3117  0.4745 -0.0648
  499MOL0     O68772   0.950   5.612   6.211  0.3495 -0.4819 -0.2137
  499MOL0     C68773   0.999   5.926   6.350  0.0925 -0.8374  0.0113
  499MOL0     C68774   1.074   6.000   6.444  0.3809 -0.5890 -0.3646
  499MOL0     N68775   1.199   6.341   7.120 -0.1629  0.9038 -0.4923
  499MOL0     N68776   1.158   6.312   7.237  0.0866  0.3613 -0.0894
  499MOL0     C68777   0.464   5.724   7.448  0.5099  0.4827 -0.1331
  499MOL0     C68778   0.337   5.771   7.470  1.0224 -0.6678 -0.0586
  499MOL0     C68779  -0.107   5.848   7.480 -0.3736  0.0725 -1.0922
  499MOL0     C68780  -0.194   5.758   7.546  0.2942 -0.9458  0.0534
  499MOL0     C68781  -0.337   5.770   7.536  0.6696  0.0609  0.6896
  499MOL0     C68782  -0.382   5.888   7.467  0.3528 -1.2732 -0.6952
  499MOL0     O68783  -0.512   5.933   7.436 -0.3874  0.4485 -0.5997
  499MOL0     C68784  -0.623   5.839   7.454 -0.1936 -0.0341  0.3665
  499MOL0     C68785  -0.698   5.860   7.590  0.1009 -0.2366 -0.2585
  499MOL0     C68786  -0.796   5.982   7.576  0.4458 -0.1952 -0.6621
  499MOL0     C68787  -0.846   6.038   7.714 -0.5192  0.5843  1.1315
  499MOL0     C68788  -0.898   6.173   7.691 -0.1629  0.6290 -0.2221
  499MOL0     C68789  -0.962   6.273   7.672  0.0118 -0.4284 -0.2728
  499MOL0     C68790  -0.290   5.982   7.412  0.6371  0.2882 -0.1436
  499MOL0     C68791  -0.151   5.964   7.418  0.1689 -0.0014  0.0408
  499MOL0     C68792  -0.063   6.083   7.367  0.0919  0.0978 -0.3316
  499MOL0     H68793   0.261   5.862   7.158  0.9971 -0.4469 -0.5855
  499MOL0     H68794   0.482   5.752   7.118 -0.7124 -1.8294  0.1491
  499MOL0     H68795   0.653   5.485   7.317 -1.9590  0.1226  1.5535
  499MOL0     H68796   0.706   5.582   7.464 -1.5875 -1.2011 -0.2183
  499MOL0     H68797   0.893   5.466   7.344 -1.0646  0.2684  0.1069
  499MOL0     H68798   0.849   5.568   7.206 -2.5118  2.4093  0.1692
  499MOL0     H68799   0.891   5.758   7.371 -1.9309 -0.8494 -0.3884
  499MOL0     H68800   0.972   5.639   7.475 -2.3071  1.9569  1.3033
  499MOL0     H68801   1.118   5.578   7.271  0.6323  0.4199 -2.5722
  499MOL0     H68802   1.035   5.707   7.183  1.1473 -0.4997 -0.2275
  499MOL0     H68803   1.260   5.768   7.277 -1.0711 -4.0850 -1.0846
  499MOL0     H68804   1.206   5.746   7.438 -0.6775  1.2020  0.6043
  499MOL0     H68805   1.118   5.980   7.247  0.9678  0.7197  0.5384
  499MOL0     H68806   1.040   5.953   7.399  0.2025 -1.3448 -0.2162
  499MOL0     H68807   1.329   5.965   7.370  0.8766 -1.1915  0.9891
  499MOL0     H68808   1.250   5.977   7.521  1.7744  1.4468 -0.9055
  499MOL0     H68809   1.125   6.171   7.466 -0.3436 -3.4398  0.1587
  499MOL0     H68810   1.298   6.202   7.485 -0.7280  2.0826 -0.4430
  499MOL0     H68811   1.399   6.091   7.201  1.3968  1.4200 -0.3890
  499MOL0     H68812   1.451   6.182   6.990 -1.3504 -0.3719  0.1269
  499MOL0     H68813   1.405   6.355   6.959  0.3267  0.3578  4.9700
  499MOL0     H68814   1.258   6.097   6.867 -0.3901 -0.2190 -0.5585
  499MOL0     H68815   1.188   6.260   6.858 -0.7139 -3.4720  0.6494
  499MOL0     H68816   1.331   6.329   6.693  1.8295 -0.9477 -2.6880
  499MOL0     H68817   1.428   6.170   6.698  1.1655  0.7990  1.5664
  499MOL0     H68818   1.131   6.183   6.634  0.0773  0.0556  1.5779
  499MOL0     H68819   1.264   6.190   6.509  2.8049 -0.7775  0.0467
  499MOL0     H68820   1.312   5.787   6.536 -0.5222 -0.2860 -1.0783
  499MOL0     H68821   1.303   5.590   6.416  0.3260  2.0935  0.0783
  499MOL0     H68822   1.224   5.586   6.251 -1.9650  0.5050 -0.4821
  499MOL0     H68823   1.135   5.547   6.394 -1.9662  2.4604  0.5629
  499MOL0     H68824   0.937   5.568   5.994 -2.0312  0.3264  3.5127
  499MOL0     H68825   0.799   5.491   5.805  1.7818  0.1887  1.7727
  499MOL0     H68826   0.512   5.786   5.628 -1.9118 -4.1400  1.4442
  499MOL0     H68827   0.659   5.809   5.538 -0.6727  1.2773  1.4725
  499MOL0     H68828   0.505   5.749   5.367 -0.0351 -0.4368 -0.5833
  499MOL0     H68829   0.585   5.598   5.395  1.3010  2.1808 -0.9447
  499MOL0     H68830   0.307   5.638   5.413  0.4171  0.0307  0.5808
  499MOL0     H68831   0.367   5.618   5.586  2.8703  0.1207  1.6161
  499MOL0     H68832   0.469   5.416   5.476 -0.2708 -0.3993  1.1527
  499MOL0     H68833   0.357   5.459   5.337 -0.4916  0.4541  0.6603
  499MOL0     H68834   0.267   5.408   5.615 -2.5276 -0.9805  0.4390
  499MOL0     H68835   0.172   5.429   5.466  0.3017 -3.1433 -3.4351
  499MOL0     H68836   0.346   5.184   5.485 -1.9786 -1.3532  0.5801
  499MOL0     H68837   0.217   5.226   5.364  1.7279  2.1824 -1.5401
  499MOL0     H68838   0.120   5.091   5.503  0.3381  0.9353 -1.5708
  499MOL0     H68839   0.054   5.240   5.568 -0.5562 -0.0583 -1.2326
  499MOL0     H68840   0.248   5.211   5.748  0.1799  0.9803  0.2951
  499MOL0     H68841   0.264   5.052   5.678 -1.9419 -1.9212  2.7281
  499MOL0     H68842   0.602   5.871   5.794  0.6171  1.4412 -1.0656
  499MOL0     H68843   0.750   5.948   5.966 -0.1667  1.4171 -2.6408
  499MOL0     H68844   0.908   5.964   6.303  0.4618  0.8084  0.5362
  499MOL0     H68845   1.039   6.096   6.480 -2.5226 -1.6704 -0.0365
  499MOL0     H68846   0.513   5.696   7.540  0.6286 -1.8801 -0.8398
  499MOL0     H68847   0.300   5.777   7.572  1.3274  0.3235  0.0078
  499MOL0     H68848  -0.159   5.659   7.574  3.0285 -0.1217 -0.1372
  499MOL0     H68849  -0.396   5.684   7.565  3.1847 -2.1703 -0.3400
  499MOL0     H68850  -0.700   5.840   7.376 -1.9564 -2.4466  1.9339
  499MOL0     H68851  -0.588   5.736   7.452 -0.7648 -0.2328  0.2346
  499MOL0     H68852  -0.615   5.876   7.659 -1.4559 -2.6205  2.3569
  499MOL0     H68853  -0.751   5.766   7.607 -3.2341  0.4934 -4.7003
  499MOL0     H68854  -0.733   6.058   7.531  0.0692  0.8205  0.4672
  499MOL0     H68855  -0.874   5.946   7.509  1.1128  1.2019 -2.2472
  499MOL0     H68856  -0.762   6.048   7.784 -0.4499  3.3214  0.7576
  499MOL0     H68857  -0.929   5.981   7.757  1.6613 -3.8236  0.0959
  499MOL0     H68858  -1.019   6.364   7.666 -2.3292 -1.9016 -1.6877
  499MOL0     H68859  -0.329   6.071   7.364 -3.1139 -1.8255 -1.4303
  499MOL0     H68860   0.037   6.097   7.409  0.0959 -0.9417  0.0417
  499MOL0     H68861  -0.062   6.068   7.258 -2.6484  0.6563 -0.4922
  499MOL0     H68862  -0.116   6.178   7.379 -3.7027 -1.4964 -2.7874
  500MOL0     O68863   4.898   7.436   1.351 -0.5134 -0.1123  0.4960
  500MOL0     C68864   4.971   7.486   1.270  0.0132 -0.3105 -0.3042
  500MOL0     O68865   4.931   7.599   1.200  0.5108 -0.0280  0.3301
  500MOL0     C68866   4.811   7.656   1.228  0.6996  0.3909 -0.4127
  500MOL0     C68867   4.720   7.676   1.122 -0.1451  0.1823  1.2707
  500MOL0     C68868   4.610   7.764   1.133  0.1889  0.3137 -2.2380
  500MOL0     C68869   4.583   7.811   1.263 -0.0328 -0.3289 -0.5141
  500MOL0     O68870   4.458   7.863   1.258 -0.0082  0.0894  0.2113
  500MOL0     C68871   4.372   7.816   1.370  0.7181  0.0226  0.1368
  500MOL0     C68872   4.243   7.901   1.379 -1.2760 -0.8652  0.3605
  500MOL0     C68873   4.153   7.875   1.272  0.1141 -0.1497  0.3247
  500MOL0     C68874   4.071   7.751   1.306 -0.8121  0.6614 -0.7095
  500MOL0     C68875   3.941   7.732   1.229  0.7875  0.3434 -0.1107
  500MOL0     C68876   3.960   7.706   1.082  0.5840  0.0483 -0.3078
  500MOL0     C68877   3.834   7.690   1.007  0.4625  0.6347  1.1234
  500MOL0     C68878   3.738   7.573   1.059  0.4551 -0.4156 -0.4890
  500MOL0     N68879   3.602   7.594   0.992 -0.2006 -0.5850 -0.4678
  500MOL0     C68880   3.505   7.684   1.029  0.3291  0.4693  0.1465
  500MOL0     C68881   3.394   7.644   0.959  0.1858  0.4277  0.8091
  500MOL0     C68882   3.256   7.684   0.967  0.0826 -0.1524  0.1913
  500MOL0     C68883   3.177   7.574   1.043 -0.2515  0.3722 -0.1473
  500MOL0     C68884   3.041   7.638   1.100 -0.0940  0.3295  0.1561
  500MOL0     C68885   2.942   7.529   1.161  0.4677 -1.3025  0.5745
  500MOL0     O68886   2.802   7.573   1.159 -0.2958  0.5658  0.1439
  500MOL0     C68887   2.771   7.694   1.210  0.0111 -0.0241 -0.0691
  500MOL0     C68888   2.657   7.740   1.168  0.2502  0.5320 -0.8093
  500MOL0     C68889   2.603   7.868   1.214  0.2281  0.1599 -0.3428
  500MOL0     C68890   2.471   7.908   1.154  0.2541  0.2328  0.8176
  500MOL0     C68891   2.679   7.940   1.309  0.4462  0.2432  0.0737
  500MOL0     C68892   2.633   8.073   1.356  0.8702 -0.7715 -0.2734
  500MOL0     O68893   2.503   8.114   1.353  1.0146 -0.1529  0.0658
  500MOL0     C68894   2.486   8.248   1.388  0.2919  0.0904 -0.7245
  500MOL0     C68895   2.457   8.277   1.522  0.3111 -0.6654  0.8514
  500MOL0     C68896   2.437   8.415   1.559 -0.0267  0.7230 -0.1550
  500MOL0     C68897   2.429   8.521   1.461  0.0986  0.2706 -0.4911
  500MOL0     O68898   2.405   8.647   1.509  0.2673  0.1468  0.1040
  500MOL0     C68899   2.457   8.754   1.427 -0.7800  0.0459 -0.3349
  500MOL0     C68900   2.469   8.883   1.517 -0.2539  0.4009  0.4676
  500MOL0     C68901   2.583   8.886   1.621 -0.3568 -0.6767 -0.1064
  500MOL0     C68902   2.561   9.007   1.724  0.3443 -0.2380 -0.4938
  500MOL0     C68903   2.686   9.040   1.810  0.5711 -0.5736 -0.0162
  500MOL0     C68904   2.644   9.128   1.922 -1.0415 -0.1430 -0.6825
  500MOL0     C68905   2.763   9.174   1.995 -0.0015  0.7255 -0.1845
  500MOL0     C68906   2.842   9.070   2.081 -0.1815 -0.2081 -0.9987
  500MOL0    Cl68907   2.973   9.149   2.183  0.3823  0.1831 -0.1167
  500MOL0     C68908   2.446   8.476   1.332  0.1949  0.2342 -0.0118
  500MOL0     C68909   2.468   8.349   1.298  0.1965  0.3794  0.2609
  500MOL0     O68910   2.725   8.148   1.390  0.4477 -0.1352 -0.3212
  500MOL0     C68911   2.791   7.881   1.368 -0.3769 -0.3685 -0.0607
  500MOL0     C68912   2.837   7.762   1.310  0.0224  0.8447 -0.0315
  500MOL0     N68913   3.436   7.553   0.860  0.7981 -0.5358 -0.3329
  500MOL0     N68914   3.562   7.534   0.878 -0.2042  0.6544 -0.4134
  500MOL0     C68915   4.673   7.790   1.370  0.7782 -0.5019 -0.4562
  500MOL0     C68916   4.797   7.724   1.345 -0.0807  0.7742 -0.1192
  500MOL0     C68917   5.083   7.401   1.224 -0.0103  0.5209 -0.3890
  500MOL0     C68918   5.057   7.267   1.226  0.1228 -0.0851 -0.2846
  500MOL0     C68919   5.158   7.175   1.192 -0.3397 -0.7980 -0.2861
  500MOL0     C68920   5.290   7.222   1.177  1.1021  0.9063 -0.0824
  500MOL0     O68921   5.382   7.127   1.142 -0.2099  0.1245 -0.3777
  500MOL0     C68922   5.479   7.088   1.239  0.9083  0.1081 -0.5689
  500MOL0     C68923   5.491   6.936   1.235  0.1277  0.8110  0.3250
  500MOL0     C68924   5.604   6.884   1.327 -0.0915 -0.4999  0.5302
  500MOL0     C68925   5.573   6.745   1.383  1.4582  0.4020 -0.4504
  500MOL0     C68926   5.571   6.636   1.285 -0.2487 -0.0890 -0.4326
  500MOL0     C68927   5.590   6.561   1.193 -0.2616  0.0193  0.1336
  500MOL0     C68928   5.316   7.356   1.173  0.3914  0.1439 -0.3055
  500MOL0     C68929   5.213   7.444   1.197 -1.1837  0.4749 -0.3538
  500MOL0     C68930   5.236   7.597   1.205  0.7664  0.0722  0.4562
  500MOL0     H68931   4.740   7.647   1.019 -0.8066 -1.9674  1.6968
  500MOL0     H68932   4.538   7.782   1.053 -1.1293  1.3491 -0.8877
  500MOL0     H68933   4.415   7.828   1.471  1.9273 -1.6630 -0.1368
  500MOL0     H68934   4.350   7.710   1.352 -2.5300  0.2368  2.0426
  500MOL0     H68935   4.191   7.872   1.471 -3.3304 -2.6893 -1.2569
  500MOL0     H68936   4.268   8.007   1.387  2.8806 -1.5462 -1.2072
  500MOL0     H68937   4.085   7.960   1.257  2.2113  1.3825 -0.9876
  500MOL0     H68938   4.200   7.855   1.176 -0.9821 -1.7411  0.0786
  500MOL0     H68939   4.121   7.661   1.270  0.8188 -0.2349  3.2540
  500MOL0     H68940   4.032   7.749   1.408  1.1939  0.8402  0.0965
  500MOL0     H68941   3.893   7.829   1.247  0.2618 -0.2149  1.6091
  500MOL0     H68942   3.878   7.656   1.274 -0.8452  1.2413 -0.7702
  500MOL0     H68943   4.023   7.787   1.044 -1.9669  1.9539 -0.7834
  500MOL0     H68944   4.013   7.611   1.068 -0.6796 -0.8515  0.7641
  500MOL0     H68945   3.849   7.682   0.899 -1.4744 -0.1230  0.8828
  500MOL0     H68946   3.779   7.783   1.024  2.3520  2.0410  0.0040
  500MOL0     H68947   3.781   7.475   1.036 -0.4644 -1.2470  1.1584
  500MOL0     H68948   3.720   7.570   1.167  1.3350 -2.2075 -0.3536
  500MOL0     H68949   3.512   7.762   1.103 -0.2087  0.5257  0.1443
  500MOL0     H68950   3.214   7.702   0.867 -3.7074  0.9374  1.8147
  500MOL0     H68951   3.251   7.780   1.019 -1.1697  1.3148 -2.4197
  500MOL0     H68952   3.150   7.485   0.985  0.7718  0.0311 -0.1239
  500MOL0     H68953   3.239   7.542   1.127  0.3836  0.9390 -0.3888
  500MOL0     H68954   3.074   7.710   1.176  0.5431  0.2547 -0.0396
  500MOL0     H68955   2.994   7.683   1.012  1.6042  0.4683 -0.7212
  500MOL0     H68956   2.953   7.435   1.106  1.9934 -0.0681 -1.4106
  500MOL0     H68957   2.976   7.498   1.260  1.3053 -3.0210 -0.2025
  500MOL0     H68958   2.591   7.692   1.097 -1.4074  2.8416 -0.9463
  500MOL0     H68959   2.441   7.840   1.074 -5.7810  1.3523  1.6924
  500MOL0     H68960   2.489   8.004   1.104 -1.4820 -1.0574 -2.6004
  500MOL0     H68961   2.387   7.908   1.224 -0.7392  1.0222 -0.3277
  500MOL0     H68962   2.450   8.196   1.594  1.5289 -0.8890  0.7361
  500MOL0     H68963   2.409   8.434   1.662 -1.6001 -0.0713 -0.4156
  500MOL0     H68964   2.555   8.727   1.386 -0.4975  1.2879 -0.5144
  500MOL0     H68965   2.389   8.801   1.356 -0.2475  4.9067  1.9712
  500MOL0     H68966   2.498   8.960   1.445  0.9032 -1.7353 -1.5040
  500MOL0     H68967   2.373   8.905   1.565 -0.0229 -1.1268  1.7056
  500MOL0     H68968   2.683   8.909   1.581 -0.9197  2.0985 -0.0985
  500MOL0     H68969   2.581   8.791   1.674 -0.3853 -0.6299 -0.0240
  500MOL0     H68970   2.473   8.986   1.785  1.6074 -0.2927  1.3912
  500MOL0     H68971   2.532   9.096   1.667 -1.8540  0.1012  1.0474
  500MOL0     H68972   2.715   8.952   1.869  1.0685 -0.6372 -0.3530
  500MOL0     H68973   2.768   9.080   1.750 -1.2449  1.4637 -1.2993
  500MOL0     H68974   2.581   9.060   1.981  0.4564  0.4698  1.7707
  500MOL0     H68975   2.588   9.220   1.899  0.8028  1.4987  0.9982
  500MOL0     H68976   2.742   9.254   2.066 -0.4384 -1.0472  1.7924
  500MOL0     H68977   2.831   9.226   1.927  0.5248 -0.4586 -0.5958
  500MOL0     H68978   2.894   8.997   2.018 -0.1660 -2.7350  1.7386
  500MOL0     H68979   2.775   9.019   2.151 -2.0644  0.0853 -2.4921
  500MOL0     H68980   2.461   8.551   1.255  0.6167 -1.2411 -1.4215
  500MOL0     H68981   2.502   8.315   1.201  2.8555 -0.1217  1.2673
  500MOL0     H68982   2.846   7.939   1.441 -0.3204  2.0909 -1.9002
  500MOL0     H68983   2.937   7.732   1.342  0.5708 -1.1897 -3.2664
  500MOL0     H68984   4.663   7.845   1.464 -1.9876  0.1910 -1.0905
  500MOL0     H68985   4.877   7.728   1.418 -2.3204 -0.3492  2.5464
  500MOL0     H68986   4.958   7.222   1.240 -1.3443  2.2128 -2.5226
  500MOL0     H68987   5.126   7.071   1.197  0.6190 -1.0707  3.8676
  500MOL0     H68988   5.576   7.136   1.224 -0.3204  3.5107  1.2994
  500MOL0     H68989   5.443   7.119   1.337  0.6068 -2.2449  0.1443
  500MOL0     H68990   5.522   6.896   1.138 -0.1771  0.3277  0.4205
  500MOL0     H68991   5.398   6.887   1.266  0.7603  2.0709  4.8717
  500MOL0     H68992   5.696   6.883   1.267  2.5039  0.8722  4.1077
  500MOL0     H68993   5.614   6.956   1.408 -0.2322 -1.4798  1.4384
  500MOL0     H68994   5.479   6.734   1.437  1.3914 -3.1797 -1.0566
  500MOL0     H68995   5.655   6.733   1.455  0.2804 -1.3289  0.6821
  500MOL0     H68996   5.596   6.480   1.122  1.2505  1.1099 -1.0251
  500MOL0     H68997   5.415   7.398   1.155  0.2187  1.2131  1.0774
  500MOL0     H68998   5.175   7.643   1.127  2.1281 -0.8068 -1.1936
  500MOL0     H68999   5.203   7.629   1.304 -0.3498 -0.6322  0.3277
  500MOL0     H69000   5.335   7.642   1.200  0.4013  1.3670  2.9882
  501MOL0     O69001   1.221   8.216   7.789  0.9602  0.3058 -0.3952
  501MOL0     C69002   1.195   8.297   7.875  0.3392  0.4016  0.7598
  501MOL0     O69003   1.296   8.372   7.934  0.1480  0.0045  0.6715
  501MOL0     C69004   1.416   8.389   7.867  0.1365  0.8971 -0.1068
  501MOL0     C69005   1.510   8.294   7.896 -0.2129  0.4825  0.1073
  501MOL0     C69006   1.643   8.303   7.834  0.1053 -0.3902 -0.2345
  501MOL0     C69007   1.675   8.414   7.756  0.1993 -0.1843 -0.3419
  501MOL0     O69008   1.798   8.426   7.703 -0.4589 -0.0642  0.2000
  501MOL0     C69009   1.863   8.545   7.749  0.6134 -0.6970 -0.1341
  501MOL0     C69010   2.012   8.527   7.717  0.0581  0.2450  0.4016
  501MOL0     C69011   2.075   8.661   7.700  0.2647  0.3394 -0.2510
  501MOL0     C69012   2.212   8.632   7.642 -0.7197 -0.3590  0.1934
  501MOL0     C69013   2.291   8.763   7.643 -0.1786 -0.1600 -0.8648
  501MOL0     C69014   2.436   8.745   7.589 -0.2095 -0.4304  0.0752
  501MOL0     C69015   2.510   8.872   7.593  0.0876 -0.7791  0.2090
  501MOL0     C69016   2.578   8.899   7.730 -0.3357 -0.1255 -0.0697
  501MOL0     N69017   2.672   9.020   7.727  1.0350 -0.7032  0.4768
  501MOL0     C69018   2.763   9.056   7.633 -0.0861 -0.4161  0.2621
  501MOL0     C69019   2.836   9.158   7.686 -0.2289 -0.2588 -0.0757
  501MOL0     C69020   2.960   9.229   7.626  1.0163  0.7966  0.7422
  501MOL0     C69021   2.960   9.371   7.567  0.3587  0.3175  0.1539
  501MOL0     C69022   2.907   9.467   7.670 -0.5639 -0.0162  0.3793
  501MOL0     C69023   2.899   9.612   7.626 -0.4373  0.1183  0.1507
  501MOL0     O69024   2.780   9.624   7.546  0.4095 -0.4908  0.2529
  501MOL0     C69025   2.726   9.748   7.524 -0.7575 -0.2503 -0.8181
  501MOL0     C69026   2.589   9.763   7.520 -0.0702 -0.4299 -0.0081
  501MOL0     C69027   2.530   9.887   7.498  0.3465 -0.2528 -0.3609
  501MOL0     C69028   2.382   9.882   7.521  0.6532 -0.2353 -1.0611
  501MOL0     C69029   2.601   9.997   7.453 -0.9919 -0.2185  1.2935
  501MOL0     C69030   2.543  10.126   7.414 -0.6840 -1.1765 -0.6722
  501MOL0     O69031   2.409  10.133   7.416 -0.3403 -0.3929 -0.2356
  501MOL0     C69032   2.368  10.266   7.398  1.0571  0.7298  0.7724
  501MOL0     C69033   2.346  10.323   7.273 -0.2432  0.2484  0.1228
  501MOL0     C69034   2.325  10.459   7.256  0.2269 -0.1527  0.0929
  501MOL0     C69035   2.326  10.543   7.371 -0.4154 -0.3480 -0.1750
  501MOL0     O69036   2.294  10.673   7.352 -0.6856 -0.6284  0.6153
  501MOL0     C69037   2.294  10.760   7.463  0.0627 -0.0561 -0.3065
  501MOL0     C69038   2.152  10.754   7.515  0.3674 -1.0823  0.1866
  501MOL0     C69039   2.051  10.809   7.417  0.2301 -0.9632 -0.1553
  501MOL0     C69040   1.927  10.861   7.486  0.5375  0.4466 -0.5539
  501MOL0     C69041   1.834  10.926   7.394  0.9173  0.4312  0.1981
  501MOL0     C69042   1.759  10.810   7.332  0.2346  0.8296  0.1285
  501MOL0     C69043   1.642  10.869   7.245 -0.0828  1.5187 -0.2211
  501MOL0     C69044   1.566  10.759   7.172  0.1344 -0.1185  0.7000
  501MOL0    Cl69045   1.452  10.827   7.049 -0.2437 -0.0269 -0.0521
  501MOL0     C69046   2.339  10.481   7.500 -0.4939 -0.3867  0.4158
  501MOL0     C69047   2.359  10.345   7.517 -1.1444  1.2393  1.4095
  501MOL0     O69048   2.626  10.225   7.398 -0.5848 -0.2555 -0.4213
  501MOL0     C69049   2.738   9.977   7.451 -0.1621 -0.1646  0.4434
  501MOL0     C69050   2.800   9.865   7.492  0.1182  0.3780 -0.2509
  501MOL0     N69051   2.810   9.164   7.823  0.4863  0.2450  0.2906
  501MOL0     N69052   2.710   9.087   7.841 -0.2336  0.3642  0.7945
  501MOL0     C69053   1.572   8.502   7.724  0.2742 -0.1056  0.2620
  501MOL0     C69054   1.441   8.495   7.785 -1.2186  0.5855 -0.7405
  501MOL0     C69055   1.062   8.301   7.936 -0.1986  0.4812  0.6442
  501MOL0     C69056   1.019   8.407   8.022  0.8242 -0.1222  0.1860
  501MOL0     C69057   0.879   8.422   8.046 -0.0371 -0.0028 -0.1358
  501MOL0     C69058   0.786   8.327   8.005 -0.0578  1.0945 -0.6065
  501MOL0     O69059   0.665   8.341   8.063  0.2863  0.5035 -0.0053
  501MOL0     C69060   0.546   8.287   7.996  0.3023 -0.7050  0.4395
  501MOL0     C69061   0.503   8.150   8.050  0.1894 -0.3403  0.2581
  501MOL0     C69062   0.362   8.115   7.998  0.2559  0.3020 -0.4313
  501MOL0     C69063   0.244   8.192   8.073  1.3445 -0.4628 -0.4279
  501MOL0     C69064   0.119   8.127   8.032  0.7036 -0.0518 -0.2623
  501MOL0     C69065   0.008   8.098   8.004  0.4398  0.2658  0.4681
  501MOL0     C69066   0.827   8.216   7.940  0.4455  0.3034  0.5435
  501MOL0     C69067   0.960   8.199   7.901 -0.4562 -0.2221  0.2168
  501MOL0     C69068   0.982   8.071   7.832  0.1259  0.6695  0.2969
  501MOL0     H69069   1.489   8.211   7.963 -0.7829 -0.3561 -1.0760
  501MOL0     H69070   1.720   8.229   7.854  1.4184  1.1284  0.5220
  501MOL0     H69071   1.864   8.554   7.858  0.6045 -2.3471  0.0259
  501MOL0     H69072   1.812   8.628   7.698  2.6905  0.6996 -0.0953
  501MOL0     H69073   2.062   8.474   7.799 -1.2278  1.9958  2.4372
  501MOL0     H69074   2.020   8.473   7.622  3.1565  4.3119 -1.9867
  501MOL0     H69075   2.006   8.725   7.644 -0.1674 -0.7935 -1.0306
  501MOL0     H69076   2.085   8.711   7.797  0.6381  0.7336 -0.4866
  501MOL0     H69077   2.271   8.559   7.698  1.6787 -1.8467 -3.8542
  501MOL0     H69078   2.206   8.599   7.538  0.7693 -0.1816  0.0263
  501MOL0     H69079   2.292   8.807   7.743 -0.8964  0.5792 -1.1779
  501MOL0     H69080   2.235   8.827   7.574  2.3264  0.1827 -2.7720
  501MOL0     H69081   2.490   8.672   7.650  0.4316  1.9145  2.4988
  501MOL0     H69082   2.428   8.707   7.486 -7.1382  0.9243 -0.3392
  501MOL0     H69083   2.449   8.956   7.560  2.3113  0.5676 -0.7194
  501MOL0     H69084   2.592   8.872   7.520 -0.7557  1.9862 -0.8794
  501MOL0     H69085   2.491   8.920   7.794  3.1528 -0.2914  5.4150
  501MOL0     H69086   2.633   8.817   7.776 -1.0541 -0.3133  0.4701
  501MOL0     H69087   2.785   9.014   7.535  1.9738 -2.9924  1.7090
  501MOL0     H69088   2.996   9.161   7.548 -0.6464 -0.6760  1.1792
  501MOL0     H69089   3.041   9.220   7.698 -1.7785 -0.8244  3.9819
  501MOL0     H69090   3.062   9.408   7.553  1.3390 -1.8961  0.9705
  501MOL0     H69091   2.896   9.370   7.479  1.0937 -0.9017 -0.3882
  501MOL0     H69092   2.813   9.428   7.713  1.2764 -3.8661  1.3769
  501MOL0     H69093   2.972   9.459   7.757  0.5784 -0.2841 -0.4880
  501MOL0     H69094   2.887   9.673   7.716 -1.5907 -0.8827  0.7101
  501MOL0     H69095   2.989   9.646   7.574 -0.7364  2.7184  1.1850
  501MOL0     H69096   2.539   9.673   7.556  1.6702 -1.9749 -1.2535
  501MOL0     H69097   2.357   9.965   7.588  2.2094 -0.3184 -0.3253
  501MOL0     H69098   2.346   9.793   7.572  0.7410 -1.0097 -2.3015
  501MOL0     H69099   2.321   9.895   7.431 -1.0921  3.8990  0.4448
  501MOL0     H69100   2.350  10.266   7.181 -1.0534 -0.4001  0.4767
  501MOL0     H69101   2.295  10.489   7.156 -1.8936 -2.4371 -0.0714
  501MOL0     H69102   2.369  10.732   7.537  2.6245 -0.8378 -2.9983
  501MOL0     H69103   2.321  10.862   7.435 -3.1541  1.1641  0.6488
  501MOL0     H69104   2.124  10.649   7.530 -2.0882 -0.6459 -0.8466
  501MOL0     H69105   2.145  10.818   7.603  0.0735  1.0336 -1.2995
  501MOL0     H69106   2.029  10.734   7.339 -2.6709 -0.8603  0.4388
  501MOL0     H69107   2.103  10.893   7.371  0.1650 -1.2580 -0.7874
  501MOL0     H69108   1.960  10.931   7.563 -2.1763  1.7474 -0.4613
  501MOL0     H69109   1.877  10.777   7.536  2.5805 -0.4109  0.1729
  501MOL0     H69110   1.756  10.981   7.447  0.7559  0.3501  0.0465
  501MOL0     H69111   1.881  10.994   7.323  2.1989  2.3618  2.7107
  501MOL0     H69112   1.708  10.749   7.407  0.7222 -1.7405 -1.5229
  501MOL0     H69113   1.820  10.737   7.278 -0.9735 -0.7481  0.8103
  501MOL0     H69114   1.680  10.942   7.173  3.7219  0.2094  0.2139
  501MOL0     H69115   1.568  10.924   7.304 -3.3513 -2.0424 -0.5526
  501MOL0     H69116   1.513  10.705   7.251  1.7147 -0.8143  1.3314
  501MOL0     H69117   1.641  10.700   7.118 -1.7641 -0.1339 -2.1103
  501MOL0     H69118   2.341  10.539   7.591  0.2315 -0.2719  0.3305
  501MOL0     H69119   2.390  10.301   7.611  3.9971 -1.3114 -1.0665
  501MOL0     H69120   2.809  10.057   7.433 -0.7813  0.8556  2.2739
  501MOL0     H69121   2.905   9.861   7.517 -0.0964 -0.0512  0.6301
  501MOL0     H69122   1.599   8.591   7.668  2.4739 -0.5203  0.5582
  501MOL0     H69123   1.370   8.575   7.769  1.0780  2.4729 -2.1253
  501MOL0     H69124   1.084   8.480   8.071 -0.5476 -0.0241  1.9787
  501MOL0     H69125   0.835   8.498   8.110  0.4343 -0.3826  0.6605
  501MOL0     H69126   0.468   8.356   8.026  2.2168  1.0188  1.7004
  501MOL0     H69127   0.556   8.287   7.887 -1.9810 -1.9578  0.1715
  501MOL0     H69128   0.504   8.151   8.159 -1.1964 -0.6961  0.2882
  501MOL0     H69129   0.569   8.068   8.020 -0.6993 -0.0061 -2.9443
  501MOL0     H69130   0.352   8.125   7.889 -0.9431  0.9540 -0.2844
  501MOL0     H69131   0.346   8.008   8.012 -0.8180  0.7399  2.1997
  501MOL0     H69132   0.241   8.298   8.046  1.9933 -0.3314 -0.0077
  501MOL0     H69133   0.252   8.195   8.182  1.0941  0.1642 -0.4202
  501MOL0     H69134  -0.095   8.081   7.985  0.1169  1.7188  0.7775
  501MOL0     H69135   0.761   8.132   7.924  1.1543 -0.0518 -0.6344
  501MOL0     H69136   0.900   7.999   7.839  1.1686 -0.7671 -1.3903
  501MOL0     H69137   0.989   8.100   7.727 -0.9864 -1.3514 -0.3841
  501MOL0     H69138   1.065   8.021   7.883 -0.3709  0.9629  1.4141
  502MOL0     O69139  11.212   3.661   8.770  0.1401  0.6576  0.1542
  502MOL0     C69140  11.278   3.639   8.666 -0.4114  0.4977  0.5703
  502MOL0     O69141  11.399   3.695   8.639 -0.2636 -0.2577 -0.0844
  502MOL0     C69142  11.462   3.770   8.737  0.6067  0.0064  0.7170
  502MOL0     C69143  11.531   3.887   8.695  0.6203  0.5000 -1.0021
  502MOL0     C69144  11.598   3.969   8.794 -0.0531  0.3751 -0.0134
  502MOL0     C69145  11.612   3.932   8.929  0.0339  0.0470  0.3651
  502MOL0     O69146  11.669   4.021   9.012 -0.0936 -0.3185 -0.2735
  502MOL0     C69147  11.695   3.974   9.154  0.0097 -0.1663 -0.3885
  502MOL0     C69148  11.773   4.079   9.234  1.2148 -0.5977  0.5190
  502MOL0     C69149  11.919   4.049   9.196  0.0414 -0.7904 -1.2257
  502MOL0     C69150  12.018   4.153   9.259  0.2236 -1.2882  0.2829
  502MOL0     C69151  12.153   4.107   9.236 -1.5889  0.3494 -0.2747
  502MOL0     C69152  12.276   4.194   9.278  0.4373  0.0931  0.4015
  502MOL0     C69153  12.412   4.137   9.236  0.0107  0.1635  0.3918
  502MOL0     C69154  12.520   4.244   9.254 -0.4295  0.1578  0.1582
  502MOL0     N69155  12.655   4.184   9.228  0.7311  0.0978  0.0222
  502MOL0     C69156  12.701   4.078   9.300 -0.4580 -0.8789 -0.0809
  502MOL0     C69157  12.790   4.008   9.215  0.7287 -0.2682 -0.2802
  502MOL0     C69158  12.847   3.868   9.233  0.3011 -0.6569 -0.2550
  502MOL0     C69159  12.788   3.807   9.365 -0.2403 -0.4426  0.0963
  502MOL0     C69160  12.834   3.662   9.387 -0.4007 -1.5460 -0.7567
  502MOL0     C69161  12.742   3.587   9.480  0.6482  0.1829 -0.0373
  502MOL0     O69162  12.769   3.645   9.604 -0.9044 -0.2482 -0.3174
  502MOL0     C69163  12.672   3.657   9.699  1.3792 -0.5881 -0.9611
  502MOL0     C69164  12.548   3.599   9.697  0.1203  0.5238 -0.1129
  502MOL0     C69165  12.451   3.622   9.792  0.5919 -0.7428  0.1591
  502MOL0     C69166  12.314   3.556   9.764  0.4886  0.2294 -0.0609
  502MOL0     C69167  12.483   3.714   9.899 -0.3643 -0.7872 -0.1935
  502MOL0     C69168  12.391   3.744  10.011  1.1384  0.2199 -0.3118
  502MOL0     O69169  12.265   3.781   9.997 -0.0924  0.7481  0.1551
  502MOL0     C69170  12.181   3.787  10.105  0.4605  0.3014 -0.0073
  502MOL0     C69171  12.106   3.907  10.119 -0.5939  0.8237 -0.1423
  502MOL0     C69172  12.004   3.918  10.216  0.2293  0.8846 -0.4008
  502MOL0     C69173  11.974   3.817  10.308 -0.2426 -0.6423  0.5419
  502MOL0     O69174  11.872   3.836  10.401 -0.7578 -0.1814  0.2448
  502MOL0     C69175  11.848   3.728  10.487  0.3436  0.7288 -1.0010
  502MOL0     C69176  11.763   3.787  10.603 -0.1013  0.7298  0.0603
  502MOL0     C69177  11.606   3.791  10.581 -0.5950  0.6913  0.2205
  502MOL0     C69178  11.529   3.667  10.623 -0.5114 -0.0534  0.1500
  502MOL0     C69179  11.399   3.702  10.692  0.0574  0.2419  0.1010
  502MOL0     C69180  11.307   3.580  10.709  0.3740 -0.7640  0.1947
  502MOL0     C69181  11.364   3.490  10.810  0.8836  0.8041 -0.6681
  502MOL0     C69182  11.262   3.404  10.886 -0.1334  1.1980  0.4063
  502MOL0    Cl69183  11.192   3.511  11.010 -0.3335 -0.1341 -0.2046
  502MOL0     C69184  12.046   3.698  10.290  0.7214 -0.0185  0.4832
  502MOL0     C69185  12.149   3.683  10.190  0.4628  0.0910  0.0182
  502MOL0     O69186  12.446   3.738  10.123 -0.4891 -0.2095  0.0262
  502MOL0     C69187  12.611   3.776   9.910 -1.5866  0.5606 -0.3557
  502MOL0     C69188  12.696   3.755   9.810 -0.1602 -0.3340 -0.6871
  502MOL0     N69189  12.789   4.067   9.095 -0.2068  0.3382  0.4328
  502MOL0     N69190  12.704   4.166   9.097  0.0980  0.0713 -0.4431
  502MOL0     C69191  11.543   3.813   8.969  0.8272  0.2847  0.0857
  502MOL0     C69192  11.478   3.725   8.874  0.1748  0.3153 -0.9201
  502MOL0     C69193  11.234   3.540   8.578  0.6109  0.5115 -0.4181
  502MOL0     C69194  11.097   3.501   8.584 -0.2334  0.2912  0.0362
  502MOL0     C69195  11.032   3.412   8.501  0.5836 -0.1443 -0.7208
  502MOL0     C69196  11.100   3.363   8.391  0.2915  0.1177 -0.8949
  502MOL0     O69197  11.040   3.283   8.301  0.7094  0.2762  0.5692
  502MOL0     C69198  10.944   3.184   8.350  0.3762  0.2629  0.1621
  502MOL0     C69199  10.951   3.055   8.265  0.4272 -1.0420  0.5973
  502MOL0     C69200  11.082   2.980   8.277  0.3943 -0.6870  0.8694
  502MOL0     C69201  11.100   2.872   8.171  0.4438 -0.5423 -0.0486
  502MOL0     C69202  10.999   2.769   8.186 -0.4133  0.3518 -0.2333
  502MOL0     C69203  10.902   2.694   8.200  0.6039 -0.4452  0.1519
  502MOL0     C69204  11.238   3.388   8.377 -0.0307 -0.3327  1.1690
  502MOL0     C69205  11.300   3.479   8.471 -0.8843 -0.0578 -0.0913
  502MOL0     C69206  11.448   3.502   8.448 -0.1729 -0.7452 -0.1199
  502MOL0     H69207  11.536   3.919   8.592  0.7904  1.5858 -0.6636
  502MOL0     H69208  11.647   4.057   8.755  1.7665 -2.2551 -4.4543
  502MOL0     H69209  11.743   3.875   9.163  1.9422  0.5763 -1.8032
  502MOL0     H69210  11.597   3.963   9.200  0.0928  1.3844  0.1948
  502MOL0     H69211  11.739   4.180   9.212 -1.9173 -2.0247 -2.0349
  502MOL0     H69212  11.751   4.053   9.338  1.0544 -1.9898  0.1597
  502MOL0     H69213  11.943   3.947   9.227 -0.2390 -0.7112 -0.7434
  502MOL0     H69214  11.936   4.052   9.088  2.2161 -0.2486 -0.9045
  502MOL0     H69215  12.016   4.252   9.213 -3.3866 -1.3401  0.0925
  502MOL0     H69216  11.989   4.149   9.365 -3.3100 -0.3239 -0.5244
  502MOL0     H69217  12.163   4.089   9.129 -2.3831  3.4938 -0.9877
  502MOL0     H69218  12.167   4.017   9.295  2.9047  1.2947  0.4867
  502MOL0     H69219  12.260   4.290   9.229 -1.6232  0.0085  0.8534
  502MOL0     H69220  12.266   4.221   9.383  0.9428 -0.0476  0.4920
  502MOL0     H69221  12.415   4.106   9.132  1.4114 -0.6488  0.6421
  502MOL0     H69222  12.438   4.048   9.294  0.5596  0.5953  0.8296
  502MOL0     H69223  12.501   4.322   9.180  1.3682 -1.2851 -1.9821
  502MOL0     H69224  12.516   4.277   9.358  1.5755  0.8398  0.0690
  502MOL0     H69225  12.662   4.039   9.393  1.3975 -4.5789 -0.6655
  502MOL0     H69226  12.953   3.883   9.255  0.3846  3.9437 -2.5527
  502MOL0     H69227  12.843   3.804   9.144  2.4509  0.7441 -1.4640
  502MOL0     H69228  12.829   3.867   9.447 -1.2411  0.6025 -0.1409
  502MOL0     H69229  12.679   3.801   9.367 -0.2311 -3.1022 -2.0351
  502MOL0     H69230  12.856   3.614   9.291 -1.4697 -1.4210 -1.0880
  502MOL0     H69231  12.932   3.660   9.436 -0.5290 -1.3708 -0.4882
  502MOL0     H69232  12.635   3.596   9.456 -0.0313  2.0976  3.0698
  502MOL0     H69233  12.757   3.479   9.489 -0.6306 -0.0741 -0.7412
  502MOL0     H69234  12.530   3.536   9.611  0.8089  1.8858 -1.2965
  502MOL0     H69235  12.277   3.494   9.847  0.0440 -1.0874 -1.2177
  502MOL0     H69236  12.311   3.510   9.665  0.4154  0.1492 -0.0217
  502MOL0     H69237  12.235   3.629   9.743  1.8340  1.7898  0.0728
  502MOL0     H69238  12.118   3.986  10.046  0.3320 -1.1045 -2.1962
  502MOL0     H69239  11.949   4.012  10.217  0.3824  0.9724 -0.3147
  502MOL0     H69240  11.803   3.644  10.432  0.5039 -0.9039  1.2536
  502MOL0     H69241  11.940   3.693  10.534 -1.1722 -0.6534  1.1047
  502MOL0     H69242  11.785   3.728  10.692  1.0331  2.1254  0.7598
  502MOL0     H69243  11.805   3.887  10.619  4.4384 -0.5183 -2.2127
  502MOL0     H69244  11.574   3.824  10.482 -0.0221 -0.1946 -0.2846
  502MOL0     H69245  11.572   3.876  10.641  2.4068  0.0877  3.0681
  502MOL0     H69246  11.592   3.611  10.693  1.1467  1.7716  0.2088
  502MOL0     H69247  11.509   3.601  10.537  0.5709 -0.0583 -0.1151
  502MOL0     H69248  11.427   3.747  10.788  2.2462 -0.2884 -0.2343
  502MOL0     H69249  11.361   3.784  10.631 -0.4327 -0.8659 -1.1349
  502MOL0     H69250  11.288   3.535  10.611 -0.2624  4.1289 -2.1986
  502MOL0     H69251  11.211   3.623  10.740  0.2146  2.4076 -3.8271
  502MOL0     H69252  11.417   3.560  10.875  1.4555  1.2294 -1.5714
  502MOL0     H69253  11.430   3.425  10.752  0.4459  2.0045 -2.5745
  502MOL0     H69254  11.309   3.316  10.930 -0.7354  0.0057 -1.2494
  502MOL0     H69255  11.190   3.363  10.816  1.3285 -0.0767 -0.4120
  502MOL0     H69256  12.027   3.604  10.340  2.7942 -2.4756 -2.9782
  502MOL0     H69257  12.209   3.595  10.209 -1.0497 -0.3627  3.3730
  502MOL0     H69258  12.644   3.840   9.992 -3.3648  1.2853 -0.1737
  502MOL0     H69259  12.784   3.817   9.801  0.9061 -1.7106 -0.0018
  502MOL0     H69260  11.533   3.805   9.077 -1.2273  1.3554  0.0290
  502MOL0     H69261  11.436   3.630   8.903  1.6654  0.6103  2.6484
  502MOL0     H69262  11.036   3.541   8.665  2.9832  0.1524  2.7679
  502MOL0     H69263  10.930   3.385   8.526 -0.3079  2.6328 -1.0525
  502MOL0     H69264  10.949   3.165   8.458 -1.8298 -2.6830 -0.1229
  502MOL0     H69265  10.847   3.233   8.337  0.7127  0.5355 -1.4381
  502MOL0     H69266  10.934   3.087   8.162  0.5046  3.5257  1.7908
  502MOL0     H69267  10.880   2.976   8.290  1.0669 -2.8045 -2.6062
  502MOL0     H69268  11.157   3.059   8.266 -0.3160 -0.0322  0.6303
  502MOL0     H69269  11.076   2.937   8.377 -0.6971 -3.3306 -0.2397
  502MOL0     H69270  11.197   2.822   8.173  0.6786 -0.1126 -0.6300
  502MOL0     H69271  11.095   2.910   8.069  1.9740  3.2171  1.1254
  502MOL0     H69272  10.813   2.636   8.210  2.4020 -3.7753 -1.5000
  502MOL0     H69273  11.290   3.337   8.298  2.2794  0.6710  1.9648
  502MOL0     H69274  11.485   3.599   8.414  3.7868 -0.9703  2.7656
  502MOL0     H69275  11.498   3.497   8.545 -0.3783  2.5525  0.2880
  502MOL0     H69276  11.498   3.424   8.390  2.9172  0.3178  0.8870
  503MOL0     O69277   4.729   8.947   0.923 -0.4071 -0.1816  0.0154
  503MOL0     C69278   4.700   9.013   0.828  0.1980  0.2264 -0.5449
  503MOL0     O69279   4.778   9.038   0.719 -0.5025 -0.1817 -0.2241
  503MOL0     C69280   4.914   9.031   0.734 -0.6778 -0.4241  0.8856
  503MOL0     C69281   4.981   9.022   0.608 -0.0033  0.5173 -0.6498
  503MOL0     C69282   5.119   9.010   0.601  0.6565 -0.7788  0.6278
  503MOL0     C69283   5.202   9.043   0.712  0.7599 -0.2355  0.1067
  503MOL0     O69284   5.341   9.038   0.709  0.5190 -0.3098 -0.1102
  503MOL0     C69285   5.414   8.948   0.617  0.3335 -0.0893  0.4827
  503MOL0     C69286   5.559   8.934   0.667  0.2746  0.0048 -0.4869
  503MOL0     C69287   5.641   8.869   0.555 -0.6072  0.4250  0.8467
  503MOL0     C69288   5.779   8.938   0.540  0.4032  0.4959  0.4369
  503MOL0     C69289   5.858   8.883   0.424 -0.0836 -0.0388  0.3593
  503MOL0     C69290   5.982   8.981   0.394  1.3760 -0.0841  0.3357
  503MOL0     C69291   6.058   9.025   0.516 -0.1005  0.3645 -0.4697
  503MOL0     C69292   6.197   9.073   0.466  0.1335  0.5822 -0.0213
  503MOL0     N69293   6.284   9.108   0.577 -0.0824  0.0657  0.2425
  503MOL0     C69294   6.415   9.130   0.558  0.2201  0.0336  0.0820
  503MOL0     C69295   6.469   9.143   0.681  0.3867  0.4616 -0.0754
  503MOL0     C69296   6.606   9.208   0.721 -0.0925 -0.1574 -0.1136
  503MOL0     C69297   6.728   9.120   0.744 -0.1850 -0.1089  0.2625
  503MOL0     C69298   6.694   9.033   0.862 -1.1231  1.2059 -0.2686
  503MOL0     C69299   6.786   8.905   0.865  0.7366  0.4274 -0.5121
  503MOL0     O69300   6.767   8.840   0.744  0.0387 -0.4706  0.2881
  503MOL0     C69301   6.867   8.759   0.705  0.0778  0.0686  0.2696
  503MOL0     C69302   6.828   8.648   0.629  0.0901  0.2868 -0.3718
  503MOL0     C69303   6.930   8.560   0.583 -0.1007  0.3564 -0.1523
  503MOL0     C69304   6.882   8.441   0.506 -0.2175  1.0104  0.2302
  503MOL0     C69305   7.069   8.585   0.604 -0.1570 -0.4133 -0.1193
  503MOL0     C69306   7.185   8.498   0.553 -0.3082  0.1869  0.1782
  503MOL0     O69307   7.304   8.516   0.623  0.7386  0.4282  0.3721
  503MOL0     C69308   7.426   8.469   0.589  0.3047  0.1855  0.4054
  503MOL0     C69309   7.525   8.545   0.529  0.0433  0.2845  0.5792
  503MOL0     C69310   7.639   8.484   0.484  0.3069  0.3053  0.2188
  503MOL0     C69311   7.649   8.344   0.482  0.0421 -0.4737  0.7203
  503MOL0     O69312   7.766   8.300   0.432 -0.7892  0.0593  0.1623
  503MOL0     C69313   7.820   8.176   0.471  0.3764  1.0142  0.0440
  503MOL0     C69314   7.960   8.162   0.424 -0.1638 -0.0555  0.1072
  503MOL0     C69315   7.957   8.159   0.272  0.1340 -0.7307 -0.2878
  503MOL0     C69316   8.098   8.209   0.219  0.5581  0.1961 -0.1423
  503MOL0     C69317   8.119   8.219   0.072  0.7090  0.5640  0.6848
  503MOL0     C69318   8.265   8.266   0.040  0.4476  0.3550  0.4909
  503MOL0     C69319   8.325   8.221  -0.094  1.2050  0.2964 -0.1646
  503MOL0     C69320   8.229   8.240  -0.208  0.0351  0.0225  0.3689
  503MOL0    Cl69321   8.302   8.266  -0.361  0.0543 -0.6253 -0.0292
  503MOL0     C69322   7.538   8.262   0.519 -0.0536  0.9585 -0.1435
  503MOL0     C69323   7.427   8.327   0.579 -1.2959  0.3850 -0.0885
  503MOL0     O69324   7.177   8.440   0.441  0.0495  0.1834 -0.4285
  503MOL0     C69325   7.103   8.697   0.677 -0.5244  0.0181 -0.6932
  503MOL0     C69326   7.005   8.785   0.723  0.4042  0.0321 -0.9081
  503MOL0     N69327   6.367   9.116   0.766 -0.1757 -0.8956 -0.5255
  503MOL0     N69328   6.252   9.113   0.713 -0.1067  0.2085 -0.0116
  503MOL0     C69329   5.134   9.066   0.834  0.2820  0.0934  0.3023
  503MOL0     C69330   4.997   9.064   0.842  0.0525 -0.8848 -0.7295
  503MOL0     C69331   4.554   9.053   0.802 -0.0576  0.1950  0.1526
  503MOL0     C69332   4.524   9.152   0.701 -0.4677  0.1716  0.3622
  503MOL0     C69333   4.392   9.198   0.676 -0.9018 -0.0200  0.7099
  503MOL0     C69334   4.286   9.151   0.745 -0.7466 -0.1300  1.0454
  503MOL0     O69335   4.163   9.200   0.719  0.2964 -0.5031  0.2345
  503MOL0     C69336   4.071   9.114   0.645  0.4325  0.4595 -0.5428
  503MOL0     C69337   3.944   9.182   0.621 -0.5039 -0.1213 -0.2290
  503MOL0     C69338   3.949   9.282   0.498 -0.4905  0.2707 -0.7315
  503MOL0     C69339   3.824   9.354   0.484  0.9535 -0.1729 -1.0743
  503MOL0     C69340   3.838   9.472   0.398 -0.2446 -0.1780  0.0368
  503MOL0     C69341   3.863   9.568   0.329 -0.1452  1.1526 -0.2602
  503MOL0     C69342   4.319   9.067   0.851  0.2527 -0.1640 -0.8031
  503MOL0     C69343   4.444   9.011   0.881  0.1104  0.0194 -0.0039
  503MOL0     C69344   4.458   8.922   0.999 -0.0838 -1.0059 -0.0740
  503MOL0     H69345   4.929   9.022   0.513 -0.1412 -1.5023 -0.6260
  503MOL0     H69346   5.168   8.986   0.508 -1.8059 -0.6156 -0.7831
  503MOL0     H69347   5.393   8.992   0.519 -2.8152 -3.3418 -0.4901
  503MOL0     H69348   5.375   8.847   0.628 -0.5257  0.2267  0.4190
  503MOL0     H69349   5.592   9.037   0.683  0.5371  0.2797 -2.5855
  503MOL0     H69350   5.550   8.878   0.760 -1.9542  3.0305  1.3162
  503MOL0     H69351   5.656   8.762   0.574 -1.2697 -0.0091 -0.9024
  503MOL0     H69352   5.591   8.877   0.458 -1.1437 -0.3292  1.0526
  503MOL0     H69353   5.769   9.047   0.532  0.6655  0.6064  1.4563
  503MOL0     H69354   5.840   8.907   0.625 -1.8446 -1.4672  1.4578
  503MOL0     H69355   5.801   8.855   0.334  0.6479 -1.9630  0.4482
  503MOL0     H69356   5.900   8.788   0.457  2.2901  0.2614 -1.5112
  503MOL0     H69357   6.046   8.930   0.322  0.2739 -0.1466 -0.6194
  503MOL0     H69358   5.945   9.074   0.350  1.2770 -0.6538 -0.8156
  503MOL0     H69359   6.065   8.946   0.592 -2.4101 -0.7689 -1.3453
  503MOL0     H69360   6.008   9.115   0.554  1.1249  1.3954 -1.2107
  503MOL0     H69361   6.244   8.989   0.414  1.0340 -0.3228  2.1496
  503MOL0     H69362   6.194   9.156   0.395  2.4832 -0.8304 -1.9437
  503MOL0     H69363   6.450   9.171   0.464  1.5796  1.5734  1.2017
  503MOL0     H69364   6.584   9.258   0.815  1.1230  1.2057 -0.5120
  503MOL0     H69365   6.633   9.290   0.654  0.1573  1.5335  1.9718
  503MOL0     H69366   6.748   9.058   0.656 -0.1008 -0.6420  0.6543
  503MOL0     H69367   6.814   9.187   0.760 -0.9632  1.5901 -2.0768
  503MOL0     H69368   6.706   9.093   0.952 -0.8805 -0.9887  1.2640
  503MOL0     H69369   6.589   9.002   0.866 -0.5136 -1.0636 -0.0043
  503MOL0     H69370   6.891   8.925   0.886  1.8234 -2.5653 -2.4474
  503MOL0     H69371   6.757   8.836   0.945  1.1178 -0.6342 -1.2683
  503MOL0     H69372   6.721   8.627   0.622  0.5263 -1.6569 -2.2734
  503MOL0     H69373   6.914   8.424   0.403  1.1381 -1.7098  0.9981
  503MOL0     H69374   6.773   8.447   0.514 -0.2231 -0.7919  3.1566
  503MOL0     H69375   6.914   8.353   0.563  3.1680  0.4222 -2.2837
  503MOL0     H69376   7.525   8.653   0.528  1.4388  0.3160 -1.2412
  503MOL0     H69377   7.720   8.547   0.450  1.1804 -1.1239 -0.4052
  503MOL0     H69378   7.821   8.166   0.580 -0.4315  1.5931  0.1154
  503MOL0     H69379   7.759   8.091   0.436 -0.2295  0.7737  1.5704
  503MOL0     H69380   8.008   8.250   0.467  1.2054 -1.1305  0.8976
  503MOL0     H69381   8.009   8.067   0.449  3.8873  1.4849 -1.1219
  503MOL0     H69382   7.883   8.230   0.233  1.8237  1.7450  0.7360
  503MOL0     H69383   7.927   8.059   0.240 -3.3845  0.3814 -0.9135
  503MOL0     H69384   8.176   8.142   0.255 -0.3753 -0.2538  1.1383
  503MOL0     H69385   8.107   8.308   0.265  3.6967  0.1801 -0.5075
  503MOL0     H69386   8.101   8.121   0.026  2.5016  0.0613  0.9561
  503MOL0     H69387   8.046   8.285   0.025 -1.0799 -0.9352  1.2373
  503MOL0     H69388   8.330   8.232   0.121  1.3605  1.1371  0.1091
  503MOL0     H69389   8.254   8.375   0.037 -0.8876  0.2191 -1.2281
  503MOL0     H69390   8.334   8.112  -0.088  0.7690  0.3223  1.6171
  503MOL0     H69391   8.411   8.286  -0.108  0.6683  0.3701 -4.3915
  503MOL0     H69392   8.168   8.330  -0.195  1.6957  0.8387  3.3970
  503MOL0     H69393   8.150   8.167  -0.230  0.3036  0.0213 -0.6533
  503MOL0     H69394   7.547   8.153   0.521 -0.4592  0.9028 -0.9419
  503MOL0     H69395   7.341   8.268   0.609  0.9954 -2.1412  2.0615
  503MOL0     H69396   7.207   8.713   0.704 -0.7676  0.6177 -0.1031
  503MOL0     H69397   7.033   8.874   0.779 -2.0191  1.2009 -1.4169
  503MOL0     H69398   5.199   9.102   0.912  1.3522  0.8839 -0.9201
  503MOL0     H69399   4.957   9.102   0.936  2.0798 -0.8957  0.1792
  503MOL0     H69400   4.594   9.203   0.635 -2.5539  0.9959 -1.3441
  503MOL0     H69401   4.384   9.264   0.590 -1.7801 -0.4217  0.4689
  503MOL0     H69402   4.113   9.084   0.549  0.9179  0.2779 -0.2801
  503MOL0     H69403   4.047   9.021   0.699 -1.1345  1.9884  1.5375
  503MOL0     H69404   3.921   9.237   0.713 -1.6619  0.2908 -0.7482
  503MOL0     H69405   3.863   9.110   0.612  1.0846 -2.4221  2.2873
  503MOL0     H69406   4.027   9.357   0.510 -0.7640  0.1963  2.3974
  503MOL0     H69407   3.968   9.237   0.399  1.2648  2.3612 -1.4090
  503MOL0     H69408   3.796   9.394   0.582  0.2167  0.2317 -1.4430
  503MOL0     H69409   3.745   9.287   0.448 -1.2102  1.9809 -0.6135
  503MOL0     H69410   3.873   9.640   0.251 -3.5828 -0.3926 -2.3709
  503MOL0     H69411   4.235   9.048   0.916  0.5717  3.3685  0.8787
  503MOL0     H69412   4.359   8.888   1.028  0.4893 -1.9954  0.8197
  503MOL0     H69413   4.513   8.828   0.986 -0.3384 -2.3729  5.7971
  503MOL0     H69414   4.499   8.982   1.081  2.5486 -2.2639 -0.3390
  504MOL0     O69415  10.107   5.861   2.579  0.4413 -0.2518  0.0929
  504MOL0     C69416  10.158   5.915   2.482  0.9276  0.1276 -0.2605
  504MOL0     O69417  10.141   6.054   2.456  1.2354 -0.4088  0.2094
  504MOL0     C69418  10.070   6.134   2.548  0.0682  0.4999  0.4906
  504MOL0     C69419   9.960   6.214   2.502  0.0828  0.6127  0.3317
  504MOL0     C69420   9.899   6.303   2.588  0.5527  0.3198  0.0082
  504MOL0     C69421   9.944   6.316   2.720 -0.2640  0.1101  0.3486
  504MOL0     O69422   9.895   6.422   2.782  0.0254  0.8406 -0.3861
  504MOL0     C69423   9.912   6.440   2.920 -0.5337  0.1685 -1.3484
  504MOL0     C69424   9.839   6.568   2.964 -0.2089 -0.0009  0.1178
  504MOL0     C69425   9.685   6.559   2.935  0.3829 -0.6552  1.4073
  504MOL0     C69426   9.645   6.710   2.957  0.2380  0.7944  0.9446
  504MOL0     C69427   9.486   6.727   2.954 -0.3737  0.5740 -0.5656
  504MOL0     C69428   9.443   6.863   2.911 -0.3081  0.0657 -0.2247
  504MOL0     C69429   9.291   6.882   2.932 -0.4001 -0.0237  0.3844
  504MOL0     C69430   9.225   6.956   2.811  0.0460  0.7898  0.3125
  504MOL0     N69431   9.284   7.089   2.784 -0.1984  0.5063  0.3324
  504MOL0     C69432   9.237   7.197   2.857  0.1516  0.4321  0.7617
  504MOL0     C69433   9.324   7.292   2.817  0.4846 -0.0479 -0.1162
  504MOL0     C69434   9.303   7.434   2.862 -0.2988  0.7839  0.0772
  504MOL0     C69435   9.440   7.493   2.903  0.1938 -1.0388  0.4239
  504MOL0     C69436   9.422   7.626   2.972 -0.4967  0.1867  0.1212
  504MOL0     C69437   9.425   7.612   3.125 -0.3205  0.3410 -0.6612
  504MOL0     O69438   9.324   7.523   3.175  0.4624 -0.4472 -0.3985
  504MOL0     C69439   9.263   7.540   3.304 -0.8271  0.6434  1.0257
  504MOL0     C69440   9.295   7.625   3.410 -0.6017  0.6174  0.1350
  504MOL0     C69441   9.209   7.647   3.519 -0.3503  0.4713  0.0101
  504MOL0     C69442   9.241   7.767   3.604  0.0749  0.0692 -0.0521
  504MOL0     C69443   9.078   7.582   3.516  0.8899  0.5411  0.0883
  504MOL0     C69444   8.977   7.581   3.621  0.4486  0.2507 -1.0156
  504MOL0     O69445   8.858   7.522   3.602 -0.3313 -0.3837  0.3705
  504MOL0     C69446   8.752   7.542   3.682  0.1314 -0.3460  0.4050
  504MOL0     C69447   8.765   7.506   3.822  0.2339  0.1100 -0.3976
  504MOL0     C69448   8.647   7.524   3.901 -0.0597 -0.4604  0.2920
  504MOL0     C69449   8.527   7.567   3.845  0.5016  0.2997 -0.8379
  504MOL0     O69450   8.416   7.580   3.931 -0.7562 -1.0433  0.0271
  504MOL0     C69451   8.315   7.477   3.922  0.3357  0.0328 -0.0815
  504MOL0     C69452   8.257   7.435   4.062 -0.6434  0.8057  0.4165
  504MOL0     C69453   8.363   7.382   4.159 -0.1012 -0.1261 -1.1697
  504MOL0     C69454   8.298   7.354   4.298 -0.6502  0.3390 -0.3071
  504MOL0     C69455   8.170   7.278   4.294  1.4249 -0.3318 -0.2900
  504MOL0     C69456   8.122   7.246   4.433 -0.4224 -0.3764 -1.5624
  504MOL0     C69457   7.980   7.186   4.447 -0.3010 -0.3568 -0.0933
  504MOL0     C69458   7.967   7.044   4.393 -0.0254  0.0510  0.4018
  504MOL0    Cl69459   7.834   6.954   4.475  0.2071 -0.1032 -0.1773
  504MOL0     C69460   8.522   7.608   3.711 -0.5531 -0.3444  0.4952
  504MOL0     C69461   8.636   7.589   3.628 -0.0331  0.6522 -0.5969
  504MOL0     O69462   9.007   7.649   3.726 -0.0302  0.0880  0.7453
  504MOL0     C69463   9.052   7.491   3.414  0.6699  0.4274  1.0683
  504MOL0     C69464   9.141   7.471   3.307 -0.5952  0.1362 -0.2188
  504MOL0     N69465   9.409   7.244   2.719 -0.1402  0.4126  0.0418
  504MOL0     N69466   9.382   7.123   2.690  0.0541  0.1717 -1.4163
  504MOL0     C69467  10.039   6.229   2.769 -0.2459 -0.1361  0.3293
  504MOL0     C69468  10.114   6.149   2.676  0.1326 -0.8570  0.4942
  504MOL0     C69469  10.237   5.834   2.398  0.0573  0.4400  0.0608
  504MOL0     C69470  10.333   5.746   2.465  0.4801 -0.2664  0.2399
  504MOL0     C69471  10.421   5.664   2.386  0.1611 -0.2601  0.4371
  504MOL0     C69472  10.422   5.675   2.246 -0.5671 -0.6382  0.4554
  504MOL0     O69473  10.512   5.591   2.179  0.6635  0.3428 -0.5062
  504MOL0     C69474  10.489   5.580   2.039 -0.1457 -0.0013 -0.0687
  504MOL0     C69475  10.576   5.469   1.975  0.4060  0.2680 -0.4562
  504MOL0     C69476  10.727   5.495   1.981 -0.1103  0.1310 -0.2241
  504MOL0     C69477  10.801   5.389   2.053 -0.2058 -0.5208  0.4633
  504MOL0     C69478  10.939   5.415   2.030  0.3590 -0.3130 -0.8707
  504MOL0     C69479  11.054   5.451   2.018 -0.2801 -0.7890  0.0642
  504MOL0     C69480  10.336   5.764   2.180  0.1386 -0.0961 -0.1625
  504MOL0     C69481  10.244   5.836   2.258  0.2413 -0.5311 -0.3167
  504MOL0     C69482  10.137   5.925   2.183  0.1631  0.1029 -0.9494
  504MOL0     H69483   9.931   6.205   2.398 -2.3811 -0.6434  1.0621
  504MOL0     H69484   9.829   6.371   2.540 -1.0513 -1.4930 -0.3062
  504MOL0     H69485  10.015   6.464   2.948 -0.5375 -2.2383  1.1090
  504MOL0     H69486   9.871   6.361   2.983 -0.1805  1.1991  0.2586
  504MOL0     H69487   9.856   6.594   3.069 -1.0298  1.1556 -0.0156
  504MOL0     H69488   9.880   6.640   2.893 -0.0964  0.9584  1.1309
  504MOL0     H69489   9.674   6.523   2.833 -3.2855  2.8489  0.3178
  504MOL0     H69490   9.623   6.491   2.994 -0.3499 -1.8515 -0.6603
  504MOL0     H69491   9.690   6.760   3.043 -0.1685  2.9153 -0.0325
  504MOL0     H69492   9.687   6.761   2.870  3.6448 -0.8227  1.4634
  504MOL0     H69493   9.445   6.688   3.048 -1.1529 -0.0757 -1.1522
  504MOL0     H69494   9.450   6.656   2.880  0.9163  0.2784 -0.9302
  504MOL0     H69495   9.494   6.947   2.959  0.2919 -0.1829 -0.4145
  504MOL0     H69496   9.463   6.876   2.804 -1.7733 -0.2911 -0.5699
  504MOL0     H69497   9.272   6.946   3.018 -0.8729  2.8538 -1.6971
  504MOL0     H69498   9.233   6.790   2.944  0.7596 -1.7345 -4.5359
  504MOL0     H69499   9.246   6.890   2.726  1.0736 -0.2409  1.3348
  504MOL0     H69500   9.118   6.968   2.830 -0.1503 -2.6817  2.1487
  504MOL0     H69501   9.159   7.211   2.931 -0.2105  3.8296 -0.0877
  504MOL0     H69502   9.235   7.429   2.948  0.1343  1.0921  0.4446
  504MOL0     H69503   9.256   7.497   2.786  1.4506 -0.7650 -2.4641
  504MOL0     H69504   9.489   7.424   2.973  1.9475 -2.5942 -2.1275
  504MOL0     H69505   9.509   7.507   2.819  0.5871  0.5261  0.9762
  504MOL0     H69506   9.491   7.702   2.937  0.7652 -0.6602  0.6837
  504MOL0     H69507   9.321   7.661   2.949 -0.5422  0.8881  1.2874
  504MOL0     H69508   9.518   7.594   3.180 -1.6584  0.3904  1.8056
  504MOL0     H69509   9.383   7.706   3.162  1.1582  0.7078  0.1515
  504MOL0     H69510   9.391   7.673   3.398  0.8266 -2.4167 -1.8318
  504MOL0     H69511   9.196   7.855   3.558  0.5764  1.4012  1.9179
  504MOL0     H69512   9.351   7.768   3.608  0.1718 -2.9089  1.1752
  504MOL0     H69513   9.210   7.747   3.707 -1.6341 -5.3308 -1.2740
  504MOL0     H69514   8.864   7.481   3.859  0.9859  2.0746 -0.9389
  504MOL0     H69515   8.656   7.492   4.004  1.8692 -2.3758 -0.4009
  504MOL0     H69516   8.230   7.528   3.877 -2.4523 -2.4214  2.0256
  504MOL0     H69517   8.339   7.391   3.860 -1.2773 -0.4965 -0.0193
  504MOL0     H69518   8.206   7.511   4.122  1.2895  0.8297  2.1026
  504MOL0     H69519   8.190   7.351   4.043 -1.4062  1.7358 -1.2842
  504MOL0     H69520   8.434   7.464   4.174 -2.2895  1.7883 -0.7511
  504MOL0     H69521   8.416   7.293   4.122 -0.6841 -1.5781  1.2951
  504MOL0     H69522   8.288   7.452   4.345 -2.3603  0.4781 -0.8911
  504MOL0     H69523   8.374   7.298   4.354  1.3016  1.4134 -1.7520
  504MOL0     H69524   8.097   7.340   4.241 -1.7163 -2.0176  1.7260
  504MOL0     H69525   8.184   7.183   4.242 -1.3278 -1.4887  0.8282
  504MOL0     H69526   8.123   7.337   4.493 -3.1338 -0.9950 -0.4804
  504MOL0     H69527   8.194   7.171   4.465 -0.0889  0.3011 -0.6778
  504MOL0     H69528   7.906   7.249   4.397  1.1335 -0.1497 -2.0682
  504MOL0     H69529   7.962   7.182   4.555 -1.8452  0.8339 -0.2704
  504MOL0     H69530   8.054   6.987   4.425  0.0602 -0.2189 -0.2927
  504MOL0     H69531   7.960   7.045   4.284 -0.9952  1.6435  0.4363
  504MOL0     H69532   8.426   7.641   3.672 -0.5791 -0.3466  0.5573
  504MOL0     H69533   8.644   7.604   3.521  0.6717 -1.2131 -0.8344
  504MOL0     H69534   8.956   7.443   3.397  0.4948  0.7330  1.1786
  504MOL0     H69535   9.115   7.403   3.228  2.9728 -2.6067  0.6840
  504MOL0     H69536  10.090   6.245   2.863 -1.6555  2.5923  0.7409
  504MOL0     H69537  10.209   6.105   2.704 -0.1398 -1.0764  1.0676
  504MOL0     H69538  10.341   5.746   2.573 -1.1180 -0.5050  0.3797
  504MOL0     H69539  10.487   5.585   2.418 -0.6536 -0.5755  1.4148
  504MOL0     H69540  10.389   5.562   2.000 -0.1389 -0.2506  0.0273
  504MOL0     H69541  10.516   5.675   1.992 -1.1949  0.3085 -0.0686
  504MOL0     H69542  10.544   5.453   1.871  3.6346 -2.5146 -1.1994
  504MOL0     H69543  10.565   5.372   2.025 -0.8559  0.6316  0.0324
  504MOL0     H69544  10.752   5.505   1.875 -1.0772  0.8534 -0.4032
  504MOL0     H69545  10.750   5.587   2.035  0.2296  0.4092 -0.8294
  504MOL0     H69546  10.767   5.291   2.018 -2.0677 -0.1295  1.0835
  504MOL0     H69547  10.776   5.397   2.159  2.0411 -0.9581  1.0776
  504MOL0     H69548  11.149   5.498   2.003 -1.8822  3.1595  0.9132
  504MOL0     H69549  10.333   5.774   2.072  0.1739  0.6762 -0.1001
  504MOL0     H69550  10.108   5.878   2.089  1.4982 -0.8819 -0.9039
  504MOL0     H69551  10.042   5.926   2.238 -0.0267  0.2546 -1.2823
  504MOL0     H69552  10.161   6.032   2.172 -0.6585  0.6551  1.7883
  505MOL0     O69553   2.048  11.177  10.609  0.1375 -0.0550  0.5744
  505MOL0     C69554   1.962  11.093  10.598 -0.8132  0.1549 -0.1312
  505MOL0     O69555   1.939  10.994  10.698 -0.1537 -0.3111  0.2830
  505MOL0     C69556   2.009  10.996  10.820  0.2434  0.2204 -1.6351
  505MOL0     C69557   2.035  11.111  10.896 -0.0372 -0.8758 -1.0901
  505MOL0     C69558   2.084  11.103  11.030  0.0289  0.3860  0.1926
  505MOL0     C69559   2.103  10.982  11.089 -0.3614  0.2585 -0.1065
  505MOL0     O69560   2.144  10.981  11.220  0.0648  0.1431  0.5987
  505MOL0     C69561   2.222  10.872  11.273  0.3015  0.4636  0.3694
  505MOL0     C69562   2.353  10.845  11.206  0.1613  0.1954 -0.2976
  505MOL0     C69563   2.450  10.785  11.303  0.9439 -0.4796  0.4723
  505MOL0     C69564   2.576  10.738  11.230 -0.3400 -0.1621 -0.3475
  505MOL0     C69565   2.559  10.595  11.177  0.6094  0.7641 -0.1857
  505MOL0     C69566   2.694  10.545  11.114  0.3229 -0.3714 -0.1088
  505MOL0     C69567   2.667  10.410  11.053  0.1788  0.6100  0.0048
  505MOL0     C69568   2.800  10.350  10.996  1.2579 -0.9518  0.7362
  505MOL0     N69569   2.865  10.438  10.902 -0.6470  0.2870 -0.1678
  505MOL0     C69570   2.817  10.477  10.778 -0.3691  0.1419 -0.1969
  505MOL0     C69571   2.900  10.570  10.735  0.4729 -0.6032 -0.0651
  505MOL0     C69572   2.915  10.624  10.597  0.4534 -0.4080  0.1479
  505MOL0     C69573   2.940  10.780  10.594  0.1589 -0.0723 -0.0677
  505MOL0     C69574   2.977  10.853  10.465 -0.1624 -0.0501 -0.0122
  505MOL0     C69575   2.883  10.812  10.348 -0.4241  0.1005  0.2998
  505MOL0     O69576   2.923  10.886  10.232 -0.3147  0.1784  0.9916
  505MOL0     C69577   2.845  10.884  10.116 -0.4608 -0.5794 -0.0763
  505MOL0     C69578   2.858  10.780  10.025 -0.9864 -0.1580 -0.5570
  505MOL0     C69579   2.794  10.782   9.902 -1.5145  0.0811  0.8784
  505MOL0     C69580   2.828  10.672   9.807 -0.5378  0.5801  0.6393
  505MOL0     C69581   2.716  10.892   9.864 -0.5322  0.2743 -1.4879
  505MOL0     C69582   2.640  10.906   9.734  0.9273  0.5781 -0.4351
  505MOL0     O69583   2.537  10.988   9.744 -0.2541  0.4543  0.8325
  505MOL0     C69584   2.461  11.035   9.635 -0.2680 -1.4688 -0.6650
  505MOL0     C69585   2.450  10.970   9.512  0.7349  0.7731  0.0586
  505MOL0     C69586   2.364  11.022   9.414  1.3042 -0.3880  0.3322
  505MOL0     C69587   2.280  11.136   9.450  0.1375  0.2817 -0.4602
  505MOL0     O69588   2.196  11.185   9.350 -0.3929  0.4672  0.0845
  505MOL0     C69589   2.101  11.294   9.372 -0.0267 -0.1664 -0.0368
  505MOL0     C69590   2.025  11.311   9.236  0.1556 -0.1166 -0.1760
  505MOL0     C69591   1.948  11.181   9.189 -0.3660  0.2585 -0.2044
  505MOL0     C69592   1.888  11.201   9.047 -0.6946 -0.3394 -0.6688
  505MOL0     C69593   1.785  11.101   9.016  0.0907 -0.1248 -0.1533
  505MOL0     C69594   1.671  11.093   9.111  0.4194 -0.1673 -0.5141
  505MOL0     C69595   1.566  11.014   9.037  0.5314 -0.0831 -0.2972
  505MOL0     C69596   1.430  11.018   9.115 -0.8453  0.1837  0.2160
  505MOL0    Cl69597   1.446  10.909   9.261  0.1262  0.4715 -0.1408
  505MOL0     C69598   2.288  11.197   9.576 -0.4828  0.0736 -0.9260
  505MOL0     C69599   2.382  11.146   9.661  0.2747 -0.5189  0.6418
  505MOL0     O69600   2.672  10.849   9.633 -0.5611 -0.6349  0.3709
  505MOL0     C69601   2.704  11.000   9.953 -0.2259 -0.2345 -0.3709
  505MOL0     C69602   2.762  10.987  10.083 -0.1264 -0.2951  0.0159
  505MOL0     N69603   2.982  10.597  10.833 -0.5403 -0.3301 -0.1498
  505MOL0     N69604   2.967  10.520  10.935  0.3192  0.7252 -0.0060
  505MOL0     C69605   2.075  10.864  11.019  0.0248 -0.1679  0.0643
  505MOL0     C69606   2.032  10.875  10.883  0.1249  0.6193  0.1361
  505MOL0     C69607   1.888  11.088  10.466  0.0445  0.4667  1.0292
  505MOL0     C69608   1.798  10.981  10.435  0.0249  0.6804 -0.4651
  505MOL0     C69609   1.717  10.985  10.319  0.4785  0.1222 -0.4837
  505MOL0     C69610   1.734  11.081  10.219  0.8843  0.1450 -1.2696
  505MOL0     O69611   1.667  11.056  10.105  0.4975  0.2228  0.0472
  505MOL0     C69612   1.666  11.143   9.983  0.6213  0.3640 -0.6067
  505MOL0     C69613   1.550  11.105   9.896 -0.0100 -0.5939 -0.7063
  505MOL0     C69614   1.425  11.043   9.968  0.0582  0.8944 -0.0608
  505MOL0     C69615   1.298  11.031   9.879 -0.3243  0.4672 -0.4021
  505MOL0     C69616   1.314  10.958   9.757  0.2764  0.8957 -0.3696
  505MOL0     C69617   1.344  10.892   9.654  0.3920  0.0635  0.6740
  505MOL0     C69618   1.813  11.184  10.242 -0.0426 -0.8976 -0.2102
  505MOL0     C69619   1.885  11.203  10.363  0.3287  0.4820  0.0493
  505MOL0     C69620   1.954  11.337  10.374 -0.2576  0.2462  0.0473
  505MOL0     H69621   2.015  11.213  10.863  3.6424 -0.3046 -2.1129
  505MOL0     H69622   2.112  11.183  11.098  1.4470 -0.4658  0.6585
  505MOL0     H69623   2.153  10.787  11.268 -0.4625  1.1156 -0.5532
  505MOL0     H69624   2.233  10.894  11.379 -0.9030  4.4650 -0.1723
  505MOL0     H69625   2.342  10.777  11.121 -1.9426 -0.0361  0.1021
  505MOL0     H69626   2.390  10.945  11.179  1.2995  0.3697  1.7378
  505MOL0     H69627   2.460  10.863  11.378 -0.5956 -1.1314  1.3875
  505MOL0     H69628   2.421  10.697  11.362  0.8173 -1.0582 -0.4289
  505MOL0     H69629   2.609  10.806  11.151  0.3333 -2.5647 -2.2348
  505MOL0     H69630   2.657  10.729  11.304  0.5530 -2.5728 -1.5251
  505MOL0     H69631   2.472  10.592  11.110  0.3319  1.2662  0.1436
  505MOL0     H69632   2.535  10.530  11.262  2.0892 -0.1047 -0.4061
  505MOL0     H69633   2.717  10.617  11.036 -0.6982  0.2966  0.1911
  505MOL0     H69634   2.778  10.550  11.185 -0.4096 -0.3808  0.7793
  505MOL0     H69635   2.589  10.417  10.977  0.4713  0.2071 -0.3392
  505MOL0     H69636   2.629  10.342  11.130  0.3669 -1.5248 -1.6726
  505MOL0     H69637   2.874  10.322  11.072  0.3392  0.3151  2.1443
  505MOL0     H69638   2.778  10.257  10.943  3.7773 -1.2758  0.0938
  505MOL0     H69639   2.719  10.441  10.748 -0.7519  0.2820  0.8422
  505MOL0     H69640   2.825  10.594  10.542  0.0194 -0.0123  0.6274
  505MOL0     H69641   2.997  10.572  10.547 -1.5937  0.7620 -5.0231
  505MOL0     H69642   2.853  10.824  10.643 -0.8896 -1.8712 -0.2343
  505MOL0     H69643   3.016  10.811  10.667 -1.1949  2.6255  0.3391
  505MOL0     H69644   2.978  10.960  10.489  0.9011 -0.6365  2.8970
  505MOL0     H69645   3.080  10.834  10.431  0.2609  1.3112  0.4294
  505MOL0     H69646   2.887  10.705  10.327  3.1604  0.5231 -2.0169
  505MOL0     H69647   2.780  10.840  10.371 -0.6638 -0.7919  0.3361
  505MOL0     H69648   2.946  10.717  10.040  0.0995  1.4411  0.0947
  505MOL0     H69649   2.743  10.642   9.745  1.2640 -0.4954 -1.5092
  505MOL0     H69650   2.867  10.587   9.865  2.1558  0.1905 -1.5031
  505MOL0     H69651   2.906  10.718   9.745 -2.6784  3.1370 -0.3506
  505MOL0     H69652   2.494  10.876   9.481 -0.1810 -0.4990  2.3431
  505MOL0     H69653   2.351  10.967   9.321  0.2242 -0.9252  0.7891
  505MOL0     H69654   2.033  11.272   9.454  2.2065 -1.2266  1.6487
  505MOL0     H69655   2.165  11.375   9.408 -0.5300  0.2906 -0.1686
  505MOL0     H69656   1.949  11.388   9.253  0.9190  0.6032  0.0590
  505MOL0     H69657   2.100  11.334   9.160  0.6156  0.0600  0.3156
  505MOL0     H69658   1.865  11.151   9.253 -1.4902  1.2710 -1.1422
  505MOL0     H69659   2.027  11.105   9.180 -0.0876  0.0978  2.7813
  505MOL0     H69660   1.965  11.201   8.970  0.4884  3.8068  0.2814
  505MOL0     H69661   1.846  11.302   9.052  2.1074  0.8610  0.8165
  505MOL0     H69662   1.749  11.128   8.916 -0.6285 -0.3591  0.0373
  505MOL0     H69663   1.834  11.003   9.013  0.1060 -0.0965 -1.4518
  505MOL0     H69664   1.640  11.197   9.125 -2.2682 -0.7717 -1.3063
  505MOL0     H69665   1.693  11.036   9.202 -2.5678 -0.9923 -0.1752
  505MOL0     H69666   1.595  10.909   9.025  0.9028  0.0273 -0.4004
  505MOL0     H69667   1.558  11.062   8.939  1.1449  1.2414  0.2701
  505MOL0     H69668   1.356  10.979   9.045  0.2859  1.6885 -1.9123
  505MOL0     H69669   1.400  11.123   9.127 -1.4898  0.3348 -2.1535
  505MOL0     H69670   2.234  11.288   9.599  0.0051  0.1458 -0.0219
  505MOL0     H69671   2.386  11.190   9.760  1.3221  0.2753  0.2659
  505MOL0     H69672   2.650  11.088   9.919 -0.6907 -1.3148 -2.6253
  505MOL0     H69673   2.756  11.073  10.149  0.4487 -1.1595  1.2332
  505MOL0     H69674   2.098  10.768  11.064  1.6403  0.9751  1.8286
  505MOL0     H69675   2.012  10.785  10.826  1.5197  0.2522  0.1970
  505MOL0     H69676   1.769  10.909  10.511 -2.7651  1.3108 -0.8463
  505MOL0     H69677   1.657  10.899  10.291  0.3139 -0.0423  0.3356
  505MOL0     H69678   1.664  11.246  10.020 -1.8253 -0.5601  2.2872
  505MOL0     H69679   1.753  11.125   9.921 -0.2796 -1.4917 -1.3998
  505MOL0     H69680   1.581  11.034   9.819  2.0794 -2.0346  1.3401
  505MOL0     H69681   1.512  11.192   9.842 -1.9742 -1.7604 -1.3030
  505MOL0     H69682   1.451  10.956  10.030  0.5168 -0.1276 -1.6450
  505MOL0     H69683   1.397  11.124  10.037  2.9192  0.5010  1.7568
  505MOL0     H69684   1.273  11.136   9.860 -4.0130 -0.3406 -0.7798
  505MOL0     H69685   1.222  10.987   9.944  0.6814 -0.7111  0.0157
  505MOL0     H69686   1.358  10.854   9.554  2.0162 -0.1101  0.9400
  505MOL0     H69687   1.824  11.268  10.175  0.8611  0.5596  1.6908
  505MOL0     H69688   2.059  11.327  10.347 -0.6215  1.4853 -2.0389
  505MOL0     H69689   1.906  11.414  10.313  1.2677 -0.4439 -2.1609
  505MOL0     H69690   1.966  11.378  10.475  1.5986  1.3105 -0.5530
  506MOL0     O69691   1.318   0.797   9.494 -0.5967 -0.2691 -0.0381
  506MOL0     C69692   1.414   0.732   9.454  0.5560  1.0394  0.1666
  506MOL0     O69693   1.431   0.672   9.331 -0.2981  0.2275  0.0531
  506MOL0     C69694   1.325   0.686   9.250  0.9429  1.1185 -0.5843
  506MOL0     C69695   1.284   0.810   9.202 -0.3757  0.1666  0.9439
  506MOL0     C69696   1.155   0.815   9.144 -0.3917 -0.2173 -1.0200
  506MOL0     C69697   1.063   0.705   9.145 -0.4100  0.0201  0.1626
  506MOL0     O69698   0.931   0.714   9.091  0.5821 -0.5864  0.7702
  506MOL0     C69699   0.903   0.635   8.981 -0.4352  0.5332  0.2660
  506MOL0     C69700   0.824   0.506   9.027  0.9624  0.9240 -0.6730
  506MOL0     C69701   0.824   0.401   8.919 -0.2224 -0.8174  0.5187
  506MOL0     C69702   0.723   0.448   8.811 -0.1732 -0.8724  0.5804
  506MOL0     C69703   0.708   0.340   8.705  0.1947  0.9007 -0.6792
  506MOL0     C69704   0.841   0.319   8.621  0.1819  0.1411 -0.5056
  506MOL0     C69705   0.820   0.225   8.504 -1.4464 -0.5944 -0.2727
  506MOL0     C69706   0.943   0.206   8.413  0.3325  0.7393  0.3488
  506MOL0     N69707   1.049   0.165   8.500 -0.6073  0.0711 -0.2992
  506MOL0     C69708   1.075   0.033   8.538 -0.6900 -0.3052 -0.1524
  506MOL0     C69709   1.205   0.028   8.572 -0.6274 -0.1855 -0.5411
  506MOL0     C69710   1.287  -0.088   8.613  0.4391  0.1553  0.0850
  506MOL0     C69711   1.224  -0.160   8.735  0.1568  0.3109  0.2716
  506MOL0     C69712   1.232  -0.081   8.870 -0.6304 -0.1412  0.7475
  506MOL0     C69713   1.378  -0.036   8.904  0.2298  0.1415  0.5703
  506MOL0     O69714   1.375   0.003   9.043 -0.3434 -0.4132 -0.1270
  506MOL0     C69715   1.477   0.047   9.108 -0.2375 -0.8555 -0.3537
  506MOL0     C69716   1.446   0.126   9.221  0.7298 -0.9900  1.3516
  506MOL0     C69717   1.543   0.179   9.305  0.4471 -0.4144  0.5571
  506MOL0     C69718   1.483   0.260   9.427 -0.3271  0.3781 -0.0565
  506MOL0     C69719   1.684   0.143   9.287 -0.3173  0.6060  0.4898
  506MOL0     C69720   1.796   0.176   9.388 -0.6192  0.1375  0.5744
  506MOL0     O69721   1.900   0.250   9.334 -0.5391 -0.1610  0.3130
  506MOL0     C69722   2.021   0.268   9.410  0.2073  0.7411 -0.4683
  506MOL0     C69723   2.070   0.160   9.481 -0.1100  0.7373 -1.1193
  506MOL0     C69724   2.191   0.164   9.554 -0.7286 -0.6264  0.0381
  506MOL0     C69725   2.259   0.289   9.542  0.3888 -0.4293 -0.0966
  506MOL0     O69726   2.388   0.296   9.592  0.1196  0.6003 -0.5373
  506MOL0     C69727   2.498   0.332   9.513  0.0366  0.5271 -0.6537
  506MOL0     C69728   2.528   0.228   9.402 -0.1510 -0.4068  0.1127
  506MOL0     C69729   2.613   0.121   9.466 -0.0738 -0.1760 -0.6474
  506MOL0     C69730   2.533   0.026   9.569 -1.0355 -0.7015 -0.0856
  506MOL0     C69731   2.625  -0.078   9.630 -0.0803  0.5303 -0.9339
  506MOL0     C69732   2.672  -0.176   9.527 -0.5465  0.2622 -1.8624
  506MOL0     C69733   2.789  -0.264   9.588  1.0164 -0.2780  0.7250
  506MOL0     C69734   2.841  -0.382   9.508 -0.3325  0.3467 -0.9100
  506MOL0    Cl69735   2.865  -0.309   9.346 -0.2537  0.5623 -0.2358
  506MOL0     C69736   2.206   0.400   9.469  0.3113 -0.1169  0.6196
  506MOL0     C69737   2.089   0.383   9.393  0.5739 -0.4035  0.0529
  506MOL0     O69738   1.779   0.153   9.512  0.0064 -0.6677  0.1007
  506MOL0     C69739   1.710   0.064   9.172 -0.9745 -0.6330  0.9857
  506MOL0     C69740   1.611   0.021   9.082 -0.2774 -0.0017  0.6458
  506MOL0     N69741   1.258   0.154   8.567 -0.2753 -0.3053  0.5319
  506MOL0     N69742   1.164   0.228   8.525  0.4321 -0.1481 -0.2983
  506MOL0     C69743   1.116   0.582   9.194  0.5310  0.1480  0.7886
  506MOL0     C69744   1.248   0.569   9.247 -0.1604 -0.3942 -0.8484
  506MOL0     C69745   1.524   0.710   9.550  0.1200  0.1474 -0.7299
  506MOL0     C69746   1.604   0.593   9.527 -0.0611  0.1467 -0.1234
  506MOL0     C69747   1.712   0.545   9.610 -0.2823  0.9021 -0.6151
  506MOL0     C69748   1.739   0.621   9.726  0.3212  0.3989  0.0995
  506MOL0     O69749   1.823   0.592   9.823 -0.0620 -0.1875 -0.0662
  506MOL0     C69750   1.884   0.462   9.815 -0.0449 -0.4287 -0.7099
  506MOL0     C69751   2.016   0.493   9.738  0.7967  0.9838  0.0003
  506MOL0     C69752   2.109   0.575   9.822  0.2917 -0.0198 -0.3010
  506MOL0     C69753   2.235   0.613   9.743  0.3541  0.1550  0.1390
  506MOL0     C69754   2.201   0.698   9.625 -0.0510  0.0444  0.4786
  506MOL0     C69755   2.176   0.765   9.528 -0.2334 -1.3074  0.4217
  506MOL0     C69756   1.658   0.732   9.754  0.6478 -0.1160  1.2256
  506MOL0     C69757   1.555   0.788   9.669 -0.0997  0.6146 -0.2182
  506MOL0     C69758   1.497   0.929   9.690 -0.3413  0.7957 -0.6413
  506MOL0     H69759   1.347   0.899   9.212  1.0946 -0.6119 -0.9099
  506MOL0     H69760   1.124   0.916   9.122  0.6393  0.1231 -0.9618
  506MOL0     H69761   0.987   0.606   8.918 -0.7640 -1.5056  0.6920
  506MOL0     H69762   0.840   0.687   8.908  0.4591  2.6658  0.9296
  506MOL0     H69763   0.869   0.477   9.123  1.0325  1.9053 -0.3899
  506MOL0     H69764   0.718   0.528   9.039 -0.0284 -2.6583 -1.5733
  506MOL0     H69765   0.919   0.407   8.866 -2.8585  0.2941 -4.6833
  506MOL0     H69766   0.792   0.307   8.966 -0.8264 -0.4024  0.9509
  506MOL0     H69767   0.620   0.471   8.842 -1.1071  1.6015 -3.6332
  506MOL0     H69768   0.762   0.538   8.762 -2.5061 -1.0320 -1.7719
  506MOL0     H69769   0.627   0.363   8.635  2.1247  1.7838 -2.7921
  506MOL0     H69770   0.669   0.244   8.740 -2.7736  1.4608 -2.1315
  506MOL0     H69771   0.859   0.414   8.571  1.8045  1.0461  1.6606
  506MOL0     H69772   0.923   0.278   8.680  0.9884 -0.8004 -2.2053
  506MOL0     H69773   0.736   0.258   8.442 -1.4551 -0.1603 -0.0317
  506MOL0     H69774   0.798   0.124   8.540 -0.2989 -1.8770 -2.8763
  506MOL0     H69775   0.923   0.131   8.336  4.0741 -1.4563  1.2510
  506MOL0     H69776   0.967   0.299   8.360  0.4747  1.0669  0.9756
  506MOL0     H69777   1.011  -0.052   8.513  1.2002 -0.6869 -4.8433
  506MOL0     H69778   1.382  -0.043   8.644 -0.8316  4.4587 -1.4946
  506MOL0     H69779   1.314  -0.157   8.533  4.7585 -0.4149  1.7501
  506MOL0     H69780   1.118  -0.170   8.712  0.3960 -1.4714 -0.2156
  506MOL0     H69781   1.268  -0.259   8.751  0.2961  0.4017  0.4614
  506MOL0     H69782   1.162   0.003   8.877 -0.1738  0.1103  3.2627
  506MOL0     H69783   1.198  -0.152   8.947  0.7984  0.1691  1.7076
  506MOL0     H69784   1.445  -0.116   8.872 -0.3577 -1.2708  2.7075
  506MOL0     H69785   1.408   0.051   8.844 -0.2474  1.7673  2.5698
  506MOL0     H69786   1.351   0.178   9.231  0.4091 -0.4263 -2.8179
  506MOL0     H69787   1.395   0.217   9.476  1.1610  3.0376  5.8727
  506MOL0     H69788   1.442   0.357   9.397  2.8819  2.3003  1.2534
  506MOL0     H69789   1.557   0.269   9.506 -1.0066 -2.1586  0.9714
  506MOL0     H69790   2.011   0.069   9.477  0.9817 -0.1269  0.9656
  506MOL0     H69791   2.245   0.079   9.597  1.0408  0.1745 -0.4908
  506MOL0     H69792   2.481   0.429   9.465 -0.6503 -0.1384 -1.8019
  506MOL0     H69793   2.591   0.344   9.570 -1.3636  0.9058  1.6687
  506MOL0     H69794   2.438   0.187   9.355 -0.1365 -0.2642 -0.0414
  506MOL0     H69795   2.576   0.286   9.322 -0.4461  0.7898  0.7869
  506MOL0     H69796   2.711   0.158   9.498  0.6646 -1.6303 -1.1570
  506MOL0     H69797   2.638   0.055   9.382  1.1966  0.4430 -0.7850
  506MOL0     H69798   2.445  -0.015   9.520 -0.2649 -0.5194 -1.6877
  506MOL0     H69799   2.496   0.078   9.658 -0.6349 -3.6706  1.9468
  506MOL0     H69800   2.717  -0.022   9.653 -1.3027  1.5298  2.0013
  506MOL0     H69801   2.590  -0.132   9.718  2.8467 -1.8221 -1.0562
  506MOL0     H69802   2.702  -0.124   9.436  2.6416  1.6293 -0.2131
  506MOL0     H69803   2.589  -0.243   9.503  0.0767 -1.2016 -0.1129
  506MOL0     H69804   2.764  -0.301   9.688  1.7797  1.6353  1.6690
  506MOL0     H69805   2.879  -0.203   9.600  3.0935 -2.8068 -0.8042
  506MOL0     H69806   2.780  -0.473   9.511 -0.3992  0.3203 -2.2362
  506MOL0     H69807   2.937  -0.405   9.555  0.3473  0.0513 -2.3856
  506MOL0     H69808   2.249   0.499   9.453 -0.1751  0.2324  1.4210
  506MOL0     H69809   2.051   0.463   9.329 -1.9453  0.8767  2.9158
  506MOL0     H69810   1.813   0.034   9.157 -0.6564  1.3257 -1.5922
  506MOL0     H69811   1.637  -0.050   9.004  1.1253 -0.7410  1.7438
  506MOL0     H69812   1.061   0.489   9.196 -1.6304  1.3357  0.5266
  506MOL0     H69813   1.270   0.472   9.289  0.3868 -0.8658 -2.1659
  506MOL0     H69814   1.587   0.513   9.455  1.1463 -4.3433  4.0442
  506MOL0     H69815   1.762   0.453   9.581 -0.2052  0.0222  2.0544
  506MOL0     H69816   1.922   0.412   9.904  2.1757  0.1709 -1.2563
  506MOL0     H69817   1.817   0.386   9.773 -0.4277 -2.0589  2.5342
  506MOL0     H69818   1.990   0.544   9.645 -2.2888 -2.1085 -1.0724
  506MOL0     H69819   2.065   0.396   9.726 -1.1295  0.0151 -0.4722
  506MOL0     H69820   2.057   0.663   9.859  1.9877  0.4812  0.9989
  506MOL0     H69821   2.147   0.515   9.905 -1.3701  0.6830  1.0183
  506MOL0     H69822   2.292   0.526   9.710  0.7608  0.6579 -0.5298
  506MOL0     H69823   2.318   0.663   9.793  3.8367  0.3687 -4.9947
  506MOL0     H69824   2.166   0.831   9.444  1.8165  0.1242  1.2026
  506MOL0     H69825   1.674   0.783   9.849  1.7274  1.5343  0.2243
  506MOL0     H69826   1.405   0.930   9.749 -0.5863 -0.9685 -0.9437
  506MOL0     H69827   1.567   0.986   9.752 -3.2772  4.4373 -0.2694
  506MOL0     H69828   1.470   0.982   9.598 -1.5844  0.8715 -0.2468
  507MOL0     O69829   8.769   8.322   5.517  0.1781  0.2835  0.1452
  507MOL0     C69830   8.712   8.267   5.430  0.0566  0.1490  1.1868
  507MOL0     O69831   8.771   8.226   5.312  0.0513  0.7488  0.5022
  507MOL0     C69832   8.908   8.250   5.288 -0.2072 -0.1297  0.5423
  507MOL0     C69833   8.978   8.149   5.229 -0.1258 -0.3357 -0.6217
  507MOL0     C69834   9.093   8.172   5.154 -1.0150  0.5660 -0.2373
  507MOL0     C69835   9.148   8.299   5.146  0.3614  0.8417  0.0375
  507MOL0     O69836   9.260   8.326   5.081  0.0232 -0.2520  0.0224
  507MOL0     C69837   9.253   8.382   4.963  0.2911 -0.2915  0.9384
  507MOL0     C69838   9.365   8.495   4.954 -0.0182 -0.1147  0.1380
  507MOL0     C69839   9.385   8.557   4.822  0.6932 -0.1311  0.0353
  507MOL0     C69840   9.255   8.642   4.782 -0.5439  0.7091  0.3184
  507MOL0     C69841   9.270   8.702   4.635  0.6488  0.3447 -0.1355
  507MOL0     C69842   9.159   8.799   4.597  1.2362 -0.0081 -0.2334
  507MOL0     C69843   9.158   8.928   4.676 -0.4724  0.2871 -0.4398
  507MOL0     C69844   9.282   9.021   4.642  0.4527 -0.6104  0.0558
  507MOL0     N69845   9.243   9.165   4.667  0.2373 -0.5981 -0.6439
  507MOL0     C69846   9.148   9.232   4.590 -0.4148  0.2147 -0.1510
  507MOL0     C69847   9.143   9.353   4.640 -0.3204 -0.0120  0.2643
  507MOL0     C69848   9.053   9.468   4.596 -0.3290  0.1489 -0.1833
  507MOL0     C69849   8.919   9.468   4.689  0.2611  0.0955 -0.3426
  507MOL0     C69850   8.840   9.333   4.662 -0.2134 -0.3822  0.2425
  507MOL0     C69851   8.711   9.327   4.754 -0.4269  0.5888  0.1191
  507MOL0     O69852   8.759   9.355   4.884  0.2904 -0.0611  0.0630
  507MOL0     C69853   8.674   9.329   4.989 -0.7708  0.0038  0.0144
  507MOL0     C69854   8.726   9.306   5.115 -1.1537 -0.1012  0.2490
  507MOL0     C69855   8.651   9.276   5.225  0.3099  0.2380  1.0017
  507MOL0     C69856   8.724   9.248   5.352 -0.2944  0.6463 -0.1590
  507MOL0     C69857   8.509   9.301   5.223 -0.0102 -0.7886  0.1878
  507MOL0     C69858   8.414   9.283   5.335  0.3627  1.0452  0.6217
  507MOL0     O69859   8.306   9.368   5.347  0.3745 -0.3819  0.7378
  507MOL0     C69860   8.236   9.358   5.459 -0.2067  0.2118  0.8370
  507MOL0     C69861   8.266   9.434   5.571  0.1916 -0.0495  1.4271
  507MOL0     C69862   8.186   9.418   5.691 -0.6256  0.5331 -0.1920
  507MOL0     C69863   8.109   9.303   5.709  0.7840 -0.0407  0.3790
  507MOL0     O69864   8.045   9.274   5.816  0.4250  0.3929 -1.0696
  507MOL0     C69865   8.042   9.367   5.924 -0.4634  0.0417 -0.1720
  507MOL0     C69866   7.957   9.499   5.906 -0.1603  0.6565 -0.4364
  507MOL0     C69867   7.810   9.471   5.881 -0.2818  0.8330 -0.6433
  507MOL0     C69868   7.731   9.418   6.004 -0.5142 -0.0563  0.0855
  507MOL0     C69869   7.752   9.497   6.135 -0.5557 -0.5735 -0.2898
  507MOL0     C69870   7.665   9.443   6.252  0.1949  0.8156 -0.3407
  507MOL0     C69871   7.662   9.531   6.377 -0.2446 -0.2913  0.1089
  507MOL0     C69872   7.614   9.472   6.513  0.1504 -0.4645  1.0941
  507MOL0    Cl69873   7.474   9.363   6.495  0.2344 -0.4149 -0.2774
  507MOL0     C69874   8.082   9.225   5.601 -0.5538 -0.6304  1.2462
  507MOL0     C69875   8.148   9.245   5.477 -0.3908 -0.6645  0.0754
  507MOL0     O69876   8.455   9.217   5.426 -0.5876  0.5332 -0.7474
  507MOL0     C69877   8.454   9.339   5.097 -0.2204  0.4674 -0.0794
  507MOL0     C69878   8.533   9.348   4.987  0.5409 -0.6070  0.1274
  507MOL0     N69879   9.238   9.365   4.732 -0.8245  0.1645 -0.0931
  507MOL0     N69880   9.298   9.257   4.751 -0.1922  0.2452 -0.4290
  507MOL0     C69881   9.086   8.401   5.219 -0.1013 -0.6509  0.2600
  507MOL0     C69882   8.958   8.380   5.281 -0.3370 -0.0860 -0.0322
  507MOL0     C69883   8.567   8.230   5.448 -0.6125  0.5683  0.5047
  507MOL0     C69884   8.517   8.147   5.353 -0.1366  0.2883 -0.6867
  507MOL0     C69885   8.385   8.117   5.345  0.5453  0.0393  0.3983
  507MOL0     C69886   8.292   8.162   5.444  0.5091 -0.4749  0.0417
  507MOL0     O69887   8.159   8.123   5.456 -0.0913 -0.0675  0.6607
  507MOL0     C69888   8.142   7.985   5.412  0.4702 -0.1173 -0.7109
  507MOL0     C69889   8.005   7.952   5.448 -0.4709 -0.4432  0.3571
  507MOL0     C69890   7.964   7.805   5.408 -0.1327  1.1590 -0.3887
  507MOL0     C69891   7.853   7.751   5.497  0.5911  0.0234  0.4853
  507MOL0     C69892   7.802   7.615   5.468 -0.7276  0.4217  0.4802
  507MOL0     C69893   7.748   7.504   5.457 -0.2270  0.8366 -0.2508
  507MOL0     C69894   8.340   8.247   5.540 -0.0078  1.2356  0.0431
  507MOL0     C69895   8.468   8.284   5.536  0.4890 -0.2381  0.2151
  507MOL0     C69896   8.524   8.355   5.662 -0.4437 -0.8504 -0.2722
  507MOL0     H69897   8.927   8.053   5.220 -0.2718 -0.2148 -1.1024
  507MOL0     H69898   9.145   8.090   5.104  1.1777  1.7778 -0.0657
  507MOL0     H69899   9.156   8.431   4.954  0.3648 -0.4917 -3.4778
  507MOL0     H69900   9.265   8.308   4.883 -2.0408 -1.0629  1.2457
  507MOL0     H69901   9.341   8.566   5.033 -0.8319 -0.2571  0.0321
  507MOL0     H69902   9.457   8.443   4.981  2.8223  3.0563 -2.5663
  507MOL0     H69903   9.474   8.621   4.830  0.1282  0.7138 -0.3264
  507MOL0     H69904   9.406   8.476   4.751 -0.7712 -1.1544  0.7181
  507MOL0     H69905   9.172   8.572   4.785  2.1005 -3.1550 -3.8680
  507MOL0     H69906   9.246   8.719   4.860 -0.7051  0.6846  0.3242
  507MOL0     H69907   9.258   8.621   4.563 -1.3739  0.5626 -0.0990
  507MOL0     H69908   9.370   8.744   4.619 -0.0958  1.3582 -2.4564
  507MOL0     H69909   9.171   8.821   4.491 -0.7044  0.7220 -0.3344
  507MOL0     H69910   9.059   8.761   4.618 -0.8736  3.6362 -2.7015
  507MOL0     H69911   9.156   8.915   4.785  1.6412  1.0789 -0.2579
  507MOL0     H69912   9.070   8.984   4.641  0.0840  0.3512 -1.7812
  507MOL0     H69913   9.370   8.990   4.699  0.1115 -0.0512  0.9178
  507MOL0     H69914   9.302   9.006   4.536 -1.3018 -1.8860 -0.1357
  507MOL0     H69915   9.085   9.196   4.509  0.9768 -0.9023 -0.7813
  507MOL0     H69916   9.008   9.450   4.497 -2.0771  1.9634  0.2225
  507MOL0     H69917   9.106   9.563   4.599 -1.6525  0.8902  0.5900
  507MOL0     H69918   8.951   9.461   4.794  1.0162 -2.3811 -0.6674
  507MOL0     H69919   8.859   9.557   4.671  0.3333 -0.0793 -1.4943
  507MOL0     H69920   8.813   9.331   4.556  1.5839 -0.6447 -0.2426
  507MOL0     H69921   8.907   9.250   4.689  2.6649  1.5126 -0.6977
  507MOL0     H69922   8.644   9.401   4.708 -1.6779  0.6309  1.8952
  507MOL0     H69923   8.663   9.229   4.745  1.8854 -0.5643 -0.2842
  507MOL0     H69924   8.834   9.313   5.123 -1.0029 -1.0155 -0.8259
  507MOL0     H69925   8.751   9.142   5.346 -0.9614  0.3537  1.3556
  507MOL0     H69926   8.672   9.280   5.443 -1.1028 -0.9561 -0.0057
  507MOL0     H69927   8.820   9.300   5.354  0.7553 -1.1530 -0.8290
  507MOL0     H69928   8.350   9.503   5.564  0.6923 -0.6716 -5.2472
  507MOL0     H69929   8.227   9.466   5.779  1.6126 -2.6049  0.6257
  507MOL0     H69930   8.011   9.315   6.016  0.9576  0.5466  0.6179
  507MOL0     H69931   8.143   9.403   5.945 -0.3877  1.1951 -2.2890
  507MOL0     H69932   7.972   9.565   5.992 -0.1418 -1.4856  1.2924
  507MOL0     H69933   8.002   9.552   5.822  0.8221 -0.3323 -0.5619
  507MOL0     H69934   7.803   9.398   5.800 -0.3141  1.3244 -1.0836
  507MOL0     H69935   7.760   9.564   5.853 -1.5209  0.6373  0.7819
  507MOL0     H69936   7.743   9.311   6.022 -0.5581 -0.2252 -0.8640
  507MOL0     H69937   7.628   9.438   5.974 -0.0539  1.2448 -0.7259
  507MOL0     H69938   7.854   9.493   6.174 -0.7838 -0.3371  0.3455
  507MOL0     H69939   7.712   9.595   6.107 -2.9637 -0.6577  2.3383
  507MOL0     H69940   7.693   9.341   6.281 -0.9146  1.0533  1.7166
  507MOL0     H69941   7.560   9.435   6.222 -1.1161  1.6958  3.4505
  507MOL0     H69942   7.590   9.607   6.346  1.9684  2.7399  1.7916
  507MOL0     H69943   7.755   9.589   6.392  1.4138 -3.2895  2.6702
  507MOL0     H69944   7.583   9.550   6.583 -3.8667 -0.8188 -0.0724
  507MOL0     H69945   7.703   9.421   6.552  2.1924  1.5683 -0.5992
  507MOL0     H69946   8.028   9.133   5.615 -1.3986 -0.8152 -2.3395
  507MOL0     H69947   8.147   9.187   5.385 -4.1717  0.3457 -0.6902
  507MOL0     H69948   8.347   9.345   5.078 -0.6028 -0.3794  1.5423
  507MOL0     H69949   8.487   9.379   4.894 -1.5537  1.0237  1.6275
  507MOL0     H69950   9.128   8.501   5.219 -1.3930 -0.0738 -0.7082
  507MOL0     H69951   8.907   8.464   5.327  1.8571  1.7879 -0.8049
  507MOL0     H69952   8.580   8.108   5.273 -1.4594 -2.1601 -0.6145
  507MOL0     H69953   8.346   8.051   5.269 -2.6575  0.9247  1.1045
  507MOL0     H69954   8.147   7.980   5.303 -4.2850 -2.3317 -1.0829
  507MOL0     H69955   8.209   7.914   5.460 -0.0815 -0.9623 -1.1551
  507MOL0     H69956   7.937   8.017   5.391 -0.9507 -2.0293 -0.9643
  507MOL0     H69957   7.999   7.973   5.555 -2.5508  1.1992  0.0025
  507MOL0     H69958   7.933   7.800   5.303 -0.5766 -0.5791 -0.2103
  507MOL0     H69959   8.049   7.737   5.417 -0.8371  0.5167  2.5188
  507MOL0     H69960   7.773   7.825   5.494 -1.4998 -2.1007 -0.0937
  507MOL0     H69961   7.898   7.752   5.597 -0.7079 -1.3940  1.1396
  507MOL0     H69962   7.714   7.403   5.455 -1.2898  1.0749  2.5038
  507MOL0     H69963   8.273   8.273   5.622  0.3767  1.4035  0.3100
  507MOL0     H69964   8.449   8.413   5.717  1.3856 -0.5410  2.0947
  507MOL0     H69965   8.570   8.284   5.732 -0.1315  0.4677  0.9091
  507MOL0     H69966   8.593   8.435   5.634 -0.9807 -0.6878 -1.1626
  508MOL0     O69967   2.232   9.611   0.780  0.1203  0.1237  1.0951
  508MOL0     C69968   2.334   9.568   0.832 -0.0445  0.3132 -0.6616
  508MOL0     O69969   2.435   9.640   0.889  0.1874 -0.2950 -0.0239
  508MOL0     C69970   2.422   9.773   0.881  0.1265  0.8053  0.4282
  508MOL0     C69971   2.438   9.834   0.758  0.5110  0.3212 -0.0535
  508MOL0     C69972   2.453   9.970   0.742  0.2434  0.0350 -0.4645
  508MOL0     C69973   2.442  10.052   0.859  1.3118 -0.6084  1.0872
  508MOL0     O69974   2.436  10.188   0.865  0.7590  0.0411 -0.3942
  508MOL0     C69975   2.391  10.260   0.749 -0.6045  0.5825 -0.3534
  508MOL0     C69976   2.353  10.399   0.786  0.1316 -0.1193  0.6743
  508MOL0     C69977   2.299  10.474   0.667 -0.3700 -0.0072  0.1401
  508MOL0     C69978   2.179  10.561   0.710 -0.2758 -0.0779 -0.1576
  508MOL0     C69979   2.049  10.528   0.631 -0.9144  0.2313  1.1954
  508MOL0     C69980   1.933  10.616   0.676  0.5232 -0.2363  1.1289
  508MOL0     C69981   1.812  10.615   0.582  0.2501  0.0842 -0.4043
  508MOL0     C69982   1.675  10.629   0.661  1.4436  0.2489 -0.7875
  508MOL0     N69983   1.610  10.510   0.722  0.6391  0.7126  0.3093
  508MOL0     C69984   1.498  10.521   0.806  0.5344  0.2434 -0.0753
  508MOL0     C69985   1.491  10.403   0.859 -0.1367  0.0122  0.0670
  508MOL0     C69986   1.395  10.344   0.966 -0.1521  0.5453 -0.3710
  508MOL0     C69987   1.330  10.457   1.060 -0.2579  0.5633 -0.0109
  508MOL0     C69988   1.388  10.459   1.205 -0.2857  0.8056 -0.5795
  508MOL0     C69989   1.532  10.497   1.200 -0.5347 -0.3054 -0.3768
  508MOL0     O69990   1.548  10.626   1.150  0.1174 -0.3404 -0.3303
  508MOL0     C69991   1.675  10.658   1.126 -0.4926 -1.1264  0.2111
  508MOL0     C69992   1.694  10.789   1.083 -0.7313  0.1952 -0.4491
  508MOL0     C69993   1.811  10.846   1.050 -0.0052  0.2430 -0.8661
  508MOL0     C69994   1.803  10.985   0.997  0.3245 -0.1211  0.1108
  508MOL0     C69995   1.931  10.767   1.059  0.9704  0.2300 -0.2894
  508MOL0     C69996   2.063  10.824   1.029  0.2892 -0.0850  0.6285
  508MOL0     O69997   2.165  10.747   0.990 -0.3494 -0.2809 -0.2162
  508MOL0     C69998   2.289  10.806   0.958  0.1169 -0.9335 -0.3336
  508MOL0     C69999   2.404  10.725   0.977  0.2094 -0.3099 -0.8364
  508MOL0     C70000   2.525  10.787   0.958 -0.6827 -0.5997 -0.3144
  508MOL0     C70001   2.546  10.917   0.895  0.4153  0.2280 -0.2807
  508MOL0     O70002   2.674  10.952   0.866  0.3205 -0.0319  0.2923
  508MOL0     C70003   2.714  10.894   0.733  0.7513 -0.3435 -0.0828
  508MOL0     C70004   2.861  10.913   0.706 -0.0561  0.3968 -0.3368
  508MOL0     C70005   2.951  10.861   0.817  0.0908  0.1212 -1.1148
  508MOL0     C70006   3.081  10.826   0.762  0.6712 -0.3880  0.4164
  508MOL0     C70007   3.184  10.772   0.875 -0.3316  0.2947  0.4181
  508MOL0     C70008   3.331  10.772   0.824  0.3847 -0.1324 -0.1517
  508MOL0     C70009   3.429  10.756   0.936 -0.6172  0.2765 -1.2837
  508MOL0     C70010   3.573  10.731   0.894  0.3177 -0.6352 -0.3596
  508MOL0    Cl70011   3.645  10.878   0.812  0.0354 -0.3149 -0.1418
  508MOL0     C70012   2.430  10.981   0.858  0.5392 -0.4002  0.2524
  508MOL0     C70013   2.307  10.930   0.895 -0.5513 -0.0370  0.9922
  508MOL0     O70014   2.072  10.944   1.053  0.6884 -0.2339 -0.3242
  508MOL0     C70015   1.921  10.633   1.100  0.2156  0.2096  0.9225
  508MOL0     C70016   1.790  10.580   1.137 -0.7692  0.2458 -1.1516
  508MOL0     N70017   1.595  10.327   0.817 -0.3587  0.4165  0.7372
  508MOL0     N70018   1.670  10.390   0.742  0.2217 -0.3971  0.0714
  508MOL0     C70019   2.429   9.996   0.984  0.1694 -0.0600  0.1104
  508MOL0     C70020   2.424   9.854   1.000  0.2159 -0.3942  0.6666
  508MOL0     C70021   2.371   9.419   0.815 -0.0676  0.3922 -0.6026
  508MOL0     C70022   2.498   9.371   0.829  0.0185 -0.9619 -0.1272
  508MOL0     C70023   2.525   9.237   0.824  0.7995 -0.1965 -0.7008
  508MOL0     C70024   2.432   9.144   0.785 -0.6445 -1.0288 -0.2417
  508MOL0     O70025   2.484   9.016   0.763  0.1616 -0.2046  0.3965
  508MOL0     C70026   2.396   8.929   0.695  0.0507  0.6422  0.1056
  508MOL0     C70027   2.489   8.811   0.655  0.6443  0.4118 -0.0153
  508MOL0     C70028   2.422   8.747   0.523 -0.0451  0.1120 -0.1634
  508MOL0     C70029   2.281   8.682   0.554 -0.2702  1.1154 -0.0077
  508MOL0     C70030   2.170   8.755   0.599  1.1236 -0.2165 -0.0095
  508MOL0     C70031   2.072   8.822   0.629 -0.1182 -0.4114  0.0428
  508MOL0     C70032   2.301   9.188   0.786  0.2156  0.3183  0.6196
  508MOL0     C70033   2.265   9.320   0.793 -0.2767 -0.2417 -0.2602
  508MOL0     C70034   2.119   9.351   0.775  0.1020 -0.1393 -0.4684
  508MOL0     H70035   2.422   9.778   0.667 -0.6980 -0.3674  0.5666
  508MOL0     H70036   2.457  10.007   0.639 -5.0946  1.0708 -0.5668
  508MOL0     H70037   2.310  10.207   0.698 -1.2442  0.2694  0.9402
  508MOL0     H70038   2.478  10.258   0.682 -1.1917 -0.4653 -1.1079
  508MOL0     H70039   2.275  10.383   0.861 -1.8984  1.0089 -1.0958
  508MOL0     H70040   2.435  10.452   0.836  0.4833 -1.0078  1.0518
  508MOL0     H70041   2.378  10.544   0.639  1.9412 -1.7158  1.9469
  508MOL0     H70042   2.268  10.406   0.588 -1.5772 -0.1299  0.6914
  508MOL0     H70043   2.160  10.539   0.815 -0.8919  0.0741 -0.2304
  508MOL0     H70044   2.207  10.666   0.700 -0.1861 -0.0766  0.0908
  508MOL0     H70045   2.028  10.421   0.637  0.9133 -0.2018  0.6312
  508MOL0     H70046   2.074  10.546   0.526  1.5979 -1.7167  1.3439
  508MOL0     H70047   1.904  10.586   0.777 -2.8203  1.3800  0.7729
  508MOL0     H70048   1.968  10.720   0.678 -1.1862  0.4558 -0.9939
  508MOL0     H70049   1.796  10.516   0.538 -1.2918 -0.3822  1.0941
  508MOL0     H70050   1.831  10.691   0.506  1.5878  0.0145 -0.1749
  508MOL0     H70051   1.695  10.706   0.735 -3.0724  2.4309 -1.5134
  508MOL0     H70052   1.605  10.680   0.593  1.3217  1.1706  0.0173
  508MOL0     H70053   1.453  10.612   0.842 -0.5289 -0.6193  0.8325
  508MOL0     H70054   1.442  10.264   1.025  0.1951  0.4051 -0.8327
  508MOL0     H70055   1.315  10.289   0.914  1.2006 -0.9272 -0.9777
  508MOL0     H70056   1.323  10.557   1.017 -0.6077  1.6574  2.4197
  508MOL0     H70057   1.226  10.430   1.081  0.1016  0.3341  1.5735
  508MOL0     H70058   1.324  10.521   1.268 -0.3139 -1.0586  1.3319
  508MOL0     H70059   1.380  10.358   1.247 -2.2586  0.1075 -2.4349
  508MOL0     H70060   1.581  10.487   1.297  0.3804 -2.1980 -0.9815
  508MOL0     H70061   1.587  10.428   1.134  3.1630 -1.2069  3.2192
  508MOL0     H70062   1.600  10.843   1.080 -0.7216  0.1787 -2.0584
  508MOL0     H70063   1.839  11.072   1.053  1.8669 -0.3487 -0.4771
  508MOL0     H70064   1.696  11.003   0.983  0.3956 -0.2649 -0.6694
  508MOL0     H70065   1.849  10.993   0.898  0.6939  2.2397  0.4112
  508MOL0     H70066   2.394  10.632   1.031 -5.4263  0.9550  0.9492
  508MOL0     H70067   2.614  10.736   0.994  0.8780  0.6740 -2.1462
  508MOL0     H70068   2.693  10.787   0.738  4.1748 -1.0755  2.2994
  508MOL0     H70069   2.659  10.948   0.655 -1.1050 -0.8060  0.8431
  508MOL0     H70070   2.896  10.866   0.614  2.8658  1.5545  0.0644
  508MOL0     H70071   2.875  11.020   0.686 -1.4259  0.6878  0.1466
  508MOL0     H70072   2.910  10.770   0.862  2.0925 -0.6337 -0.6768
  508MOL0     H70073   2.955  10.932   0.900 -0.3625 -1.3519  0.2086
  508MOL0     H70074   3.119  10.920   0.722 -1.5864  0.7317  0.7072
  508MOL0     H70075   3.062  10.752   0.683 -1.8648 -0.7159  1.2387
  508MOL0     H70076   3.184  10.839   0.961  2.1027 -0.4900  1.1199
  508MOL0     H70077   3.156  10.675   0.917 -0.4176  0.5128  0.8675
  508MOL0     H70078   3.348  10.871   0.781 -0.9532 -0.0177 -0.4426
  508MOL0     H70079   3.357  10.697   0.749  2.6256 -0.6320  1.0055
  508MOL0     H70080   3.404  10.671   1.001 -0.2670  2.3290  1.7928
  508MOL0     H70081   3.434  10.849   0.993  3.8255 -0.1206 -0.6389
  508MOL0     H70082   3.576  10.638   0.837  1.2580 -1.8902  1.6070
  508MOL0     H70083   3.630  10.704   0.984 -0.4728 -3.0035 -0.4989
  508MOL0     H70084   2.421  11.076   0.808  0.7690 -1.1251 -1.2242
  508MOL0     H70085   2.220  10.992   0.871 -0.3045 -0.0659 -0.0078
  508MOL0     H70086   2.009  10.571   1.098 -0.4594 -0.7579 -0.7786
  508MOL0     H70087   1.804  10.473   1.148  0.3298  0.3051 -1.7812
  508MOL0     H70088   2.424  10.053   1.076 -0.3142 -0.4599  0.3378
  508MOL0     H70089   2.421   9.805   1.097 -0.5573  0.2786  0.9945
  508MOL0     H70090   2.583   9.438   0.824 -1.7236  1.2771 -2.3058
  508MOL0     H70091   2.628   9.210   0.846  1.1061  1.8619  0.6287
  508MOL0     H70092   2.312   8.889   0.754 -0.9633 -1.0056 -2.2658
  508MOL0     H70093   2.365   8.972   0.599 -1.0851 -1.4316 -0.5277
  508MOL0     H70094   2.499   8.734   0.732  0.5277 -0.9761 -1.3444
  508MOL0     H70095   2.593   8.838   0.633  2.1022 -4.4140 -0.2913
  508MOL0     H70096   2.415   8.822   0.443  3.0309 -0.1181 -0.7620
  508MOL0     H70097   2.497   8.679   0.482  3.5994  3.1753  0.8679
  508MOL0     H70098   2.307   8.598   0.619  0.0729  0.4976 -0.9219
  508MOL0     H70099   2.249   8.641   0.458  0.0238  1.7857 -0.3942
  508MOL0     H70100   2.000   8.893   0.666  0.5510 -0.3560  1.3087
  508MOL0     H70101   2.223   9.112   0.779 -1.6330  2.0951  0.8356
  508MOL0     H70102   2.106   9.405   0.680 -0.4148  1.1893  0.3275
  508MOL0     H70103   2.060   9.260   0.781 -0.4850  0.3357  1.7552
  508MOL0     H70104   2.074   9.406   0.858  3.0409 -0.8126  1.7622
  509MOL0     O70105  11.010   0.997  10.492  1.3617  0.3269  0.5397
  509MOL0     C70106  11.061   1.024  10.388 -0.0601 -0.5007 -0.0271
  509MOL0     O70107  11.000   1.018  10.271  0.3147 -0.1180 -0.7495
  509MOL0     C70108  10.878   0.964  10.254 -0.1407  1.1648  0.5003
  509MOL0     C70109  10.821   0.850  10.330 -0.4432 -0.0057  0.8952
  509MOL0     C70110  10.689   0.813  10.307  0.0384 -0.2581 -0.0956
  509MOL0     C70111  10.614   0.876  10.209  0.7877  0.3978  0.3580
  509MOL0     O70112  10.488   0.829  10.160  0.0945  0.1614  0.3090
  509MOL0     C70113  10.411   0.720  10.221 -0.8795 -0.4515 -0.5043
  509MOL0     C70114  10.270   0.707  10.165  0.0409 -0.4536  0.4986
  509MOL0     C70115  10.272   0.677  10.007 -0.4903 -0.4796 -0.1626
  509MOL0     C70116  10.267   0.540   9.969 -0.9523 -0.7826 -0.5650
  509MOL0     C70117  10.265   0.524   9.814  0.2719  0.2617  0.8132
  509MOL0     C70118  10.303   0.380   9.778 -0.0971 -0.1293  0.7407
  509MOL0     C70119  10.280   0.365   9.628  0.6052 -0.1821 -0.3737
  509MOL0     C70120  10.366   0.252   9.577 -0.7012  0.2519 -0.0454
  509MOL0     N70121  10.347   0.129   9.655  0.0700 -0.1266  0.5618
  509MOL0     C70122  10.236   0.052   9.654  0.1838 -0.6195 -0.7001
  509MOL0     C70123  10.267  -0.052   9.733 -0.1535  0.3262 -0.4475
  509MOL0     C70124  10.182  -0.167   9.776 -0.0572  0.0478 -0.1045
  509MOL0     C70125  10.218  -0.298   9.710 -0.0580  0.1353  0.2067
  509MOL0     C70126  10.125  -0.406   9.775 -0.0284  0.4044 -0.7857
  509MOL0     C70127  10.184  -0.476   9.897 -0.9997  0.6741 -0.3633
  509MOL0     O70128  10.112  -0.584   9.958  0.0563 -0.6709  0.1181
  509MOL0     C70129  10.120  -0.713   9.916 -0.2479  0.0846 -0.4104
  509MOL0     C70130  10.054  -0.809   9.987  0.1165 -0.2840  0.7019
  509MOL0     C70131  10.048  -0.937   9.936  0.8669  0.0082 -0.6824
  509MOL0     C70132   9.958  -1.037  10.008 -0.4148  0.5962 -0.0178
  509MOL0     C70133  10.098  -0.963   9.806 -0.6404 -1.1973  0.0841
  509MOL0     C70134  10.090  -1.088   9.735  0.0851  0.4786 -1.2617
  509MOL0     O70135  10.027  -1.080   9.620  0.5498 -0.4091 -0.0941
  509MOL0     C70136  10.024  -1.195   9.542  0.3502 -0.4042  0.4281
  509MOL0     C70137  10.134  -1.246   9.473 -0.2692 -0.8996 -0.0580
  509MOL0     C70138  10.118  -1.353   9.379 -0.1683 -0.9312  0.1639
  509MOL0     C70139   9.991  -1.402   9.346 -0.0392  0.3111 -0.6139
  509MOL0     O70140   9.952  -1.492   9.249  0.1427  0.5533 -0.4311
  509MOL0     C70141  10.049  -1.596   9.229  0.0919  0.5095  0.0895
  509MOL0     C70142  10.023  -1.689   9.113 -0.1140  1.1840 -0.2521
  509MOL0     C70143   9.881  -1.730   9.092  0.0988 -0.2745 -0.2517
  509MOL0     C70144   9.852  -1.814   8.971 -0.2226  0.5530 -0.2650
  509MOL0     C70145   9.714  -1.813   8.920 -0.6242 -0.0271  0.3073
  509MOL0     C70146   9.693  -1.912   8.801 -0.1040 -0.6672  0.3832
  509MOL0     C70147   9.699  -2.054   8.844  0.7765  1.1644  1.2481
  509MOL0     C70148   9.558  -2.119   8.847  0.1057 -0.0688 -0.7010
  509MOL0    Cl70149   9.456  -2.138   8.701 -0.4290  0.0524  0.2527
  509MOL0     C70150   9.880  -1.337   9.403  0.2885  0.4984 -0.9104
  509MOL0     C70151   9.898  -1.227   9.492 -0.3937  0.5691 -0.8685
  509MOL0     O70152  10.118  -1.195   9.793  0.3814  0.9611 -0.0615
  509MOL0     C70153  10.168  -0.863   9.738 -1.1832  0.9847 -0.1657
  509MOL0     C70154  10.185  -0.740   9.793  1.2338  0.7209  0.2764
  509MOL0     N70155  10.393  -0.034   9.769 -0.2712 -0.4640 -0.0231
  509MOL0     N70156  10.448   0.076   9.729  0.1109  0.4727  0.1315
  509MOL0     C70157  10.669   0.981  10.135 -0.4545  0.2178  0.8764
  509MOL0     C70158  10.797   1.024  10.163  0.4349 -0.0727  0.8444
  509MOL0     C70159  11.200   1.079  10.387 -0.9632  0.1076  0.8021
  509MOL0     C70160  11.286   1.065  10.500 -0.0744 -0.0716 -0.0529
  509MOL0     C70161  11.419   1.094  10.490 -0.2384  0.5311  0.0429
  509MOL0     C70162  11.474   1.150  10.378 -1.1893 -0.5696  0.1444
  509MOL0     O70163  11.608   1.185  10.387  0.2187 -0.3663  0.0870
  509MOL0     C70164  11.651   1.302  10.313  0.7026 -0.1645  0.0535
  509MOL0     C70165  11.799   1.321  10.354  0.4794  0.4742  0.1684
  509MOL0     C70166  11.843   1.456  10.289  0.3404  0.0993 -0.0136
  509MOL0     C70167  11.999   1.487  10.309 -0.2693  0.1183 -0.7562
  509MOL0     C70168  12.092   1.391  10.253 -0.2954 -0.3890 -0.1585
  509MOL0     C70169  12.157   1.302  10.197  0.2756 -1.3546  0.3632
  509MOL0     C70170  11.397   1.157  10.264  0.3181 -0.3702 -0.1821
  509MOL0     C70171  11.263   1.129  10.268  0.5267  0.7799  0.7867
  509MOL0     C70172  11.190   1.152  10.140 -0.2911  0.6153  0.2913
  509MOL0     H70173  10.867   0.808  10.419 -1.4436 -0.5434  1.1696
  509MOL0     H70174  10.652   0.728  10.363 -2.5865  0.7005 -0.2419
  509MOL0     H70175  10.403   0.732  10.329  2.2707  0.4396 -0.2834
  509MOL0     H70176  10.467   0.626  10.216  0.8347  0.2768  2.3814
  509MOL0     H70177  10.215   0.633  10.225 -2.6185  3.5505  3.5611
  509MOL0     H70178  10.220   0.803  10.183  1.8098  0.5714  0.0844
  509MOL0     H70179  10.182   0.722   9.963  0.1294  0.6048 -0.3542
  509MOL0     H70180  10.359   0.720   9.956 -1.3431  0.1525 -1.1482
  509MOL0     H70181  10.364   0.497   9.996 -2.0388 -2.7193  0.4604
  509MOL0     H70182  10.186   0.485  10.018  0.7091 -1.8384  1.1299
  509MOL0     H70183  10.334   0.601   9.777 -1.9951  2.2466  0.4904
  509MOL0     H70184  10.163   0.538   9.777 -0.1467 -0.6655  1.5909
  509MOL0     H70185  10.405   0.355   9.807 -1.0580 -4.1104  1.2010
  509MOL0     H70186  10.227   0.311   9.816 -1.1978  1.5875  1.8125
  509MOL0     H70187  10.293   0.461   9.578  0.1099  1.0349  1.6893
  509MOL0     H70188  10.174   0.345   9.612  0.6751 -0.5773 -0.3617
  509MOL0     H70189  10.354   0.239   9.469 -2.2360  1.5421 -0.0616
  509MOL0     H70190  10.467   0.286   9.602 -1.4879  1.2692  1.9850
  509MOL0     H70191  10.144   0.063   9.598 -0.4738 -0.0937  0.4421
  509MOL0     H70192  10.078  -0.133   9.767 -0.5177 -0.6129  2.1357
  509MOL0     H70193  10.200  -0.165   9.884  2.3337  1.9051 -0.4408
  509MOL0     H70194  10.187  -0.303   9.605 -2.7084 -2.2417  0.9803
  509MOL0     H70195  10.326  -0.309   9.722 -0.4424 -2.6726  1.8663
  509MOL0     H70196  10.034  -0.352   9.801  1.7366  2.1738  2.3119
  509MOL0     H70197  10.097  -0.472   9.692 -1.3768 -0.8097  0.5662
  509MOL0     H70198  10.285  -0.506   9.867 -0.4858 -1.0221  2.6278
  509MOL0     H70199  10.204  -0.398   9.971  0.7256 -0.8643  0.8680
  509MOL0     H70200  10.019  -0.775  10.084 -1.5838  1.4222 -0.4266
  509MOL0     H70201   9.944  -0.999  10.110  0.0104 -0.3000  0.3945
  509MOL0     H70202   9.995  -1.140   9.998 -4.5460 -1.2787  1.4460
  509MOL0     H70203   9.859  -1.030   9.962 -0.7528 -3.4091 -0.2895
  509MOL0     H70204  10.228  -1.201   9.503 -2.1452  2.0113  2.0294
  509MOL0     H70205  10.202  -1.404   9.334 -0.3145 -2.4232  1.4937
  509MOL0     H70206  10.147  -1.554   9.202  1.1146 -2.2397 -0.8894
  509MOL0     H70207  10.065  -1.660   9.316 -3.8875 -1.3514 -0.3489
  509MOL0     H70208  10.060  -1.641   9.022 -2.5134  5.9566  0.9333
  509MOL0     H70209  10.092  -1.773   9.125  0.5407  1.2357 -2.9571
  509MOL0     H70210   9.818  -1.641   9.090  0.7584  0.2035 -0.2150
  509MOL0     H70211   9.866  -1.793   9.181  1.1430  0.0322  0.1605
  509MOL0     H70212   9.884  -1.913   9.005  1.1875  0.3851 -1.9214
  509MOL0     H70213   9.927  -1.776   8.900  2.0893  0.7324  2.1304
  509MOL0     H70214   9.654  -1.835   9.009 -0.9617  1.2326  0.4033
  509MOL0     H70215   9.679  -1.716   8.885 -1.6542  1.2484  4.3177
  509MOL0     H70216   9.773  -1.891   8.729 -1.3186  1.5339 -0.4149
  509MOL0     H70217   9.602  -1.883   8.749 -0.1484 -0.7108  0.4358
  509MOL0     H70218   9.747  -2.081   8.939  1.0944 -0.6018  0.6382
  509MOL0     H70219   9.752  -2.112   8.768 -3.4786 -1.0219 -0.4181
  509MOL0     H70220   9.505  -2.053   8.916  1.1930 -0.7365  0.8390
  509MOL0     H70221   9.560  -2.219   8.892 -1.1096  0.0086 -0.4256
  509MOL0     H70222   9.778  -1.365   9.381 -0.0220  0.6349  0.2527
  509MOL0     H70223   9.811  -1.168   9.519 -0.7587 -0.1152 -0.5232
  509MOL0     H70224  10.225  -0.888   9.649 -1.2734  3.3113 -0.9443
  509MOL0     H70225  10.249  -0.670   9.742  1.6684  0.8931  1.0455
  509MOL0     H70226  10.630   1.041  10.054  1.8566  1.5034  0.6130
  509MOL0     H70227  10.846   1.097  10.099  0.8548  0.3183  1.5903
  509MOL0     H70228  11.232   1.033  10.589 -1.7236 -1.0267 -1.3434
  509MOL0     H70229  11.478   1.086  10.581 -2.8746 -2.7711  1.6695
  509MOL0     H70230  11.641   1.278  10.207 -0.1063  1.0702 -0.1716
  509MOL0     H70231  11.578   1.377  10.346 -2.3755 -3.4132  1.2820
  509MOL0     H70232  11.852   1.233  10.314  0.2880  1.0426 -1.4092
  509MOL0     H70233  11.811   1.331  10.462  1.6906 -3.1012  0.4994
  509MOL0     H70234  11.825   1.450  10.182  4.0811  0.0216 -0.7727
  509MOL0     H70235  11.789   1.534  10.343  2.7087  0.3109  2.2631
  509MOL0     H70236  12.008   1.489  10.418 -0.2352  2.0538 -0.7516
  509MOL0     H70237  12.009   1.589  10.270 -1.0858 -0.2648 -2.0495
  509MOL0     H70238  12.217   1.226  10.152  2.5037 -1.0703  2.6194
  509MOL0     H70239  11.449   1.190  10.174 -0.2362  0.0691 -0.3449
  509MOL0     H70240  11.257   1.209  10.076 -2.2549  1.3916 -1.1792
  509MOL0     H70241  11.181   1.060  10.081  3.2174 -0.9037  1.8440
  509MOL0     H70242  11.099   1.212  10.149 -1.3905 -0.9673  0.2495
  510MOL0     O70243   0.475   8.071   1.974  0.4534  0.4943  0.2389
  510MOL0     C70244   0.452   8.010   2.083 -0.3006  0.8092  0.0524
  510MOL0     O70245   0.544   7.968   2.166  0.0021 -0.3683 -0.2961
  510MOL0     C70246   0.659   8.044   2.169 -0.2117  0.8416 -0.8097
  510MOL0     C70247   0.676   8.176   2.191 -0.3835 -0.2855 -0.8908
  510MOL0     C70248   0.800   8.234   2.211  0.3104 -0.0900 -0.6814
  510MOL0     C70249   0.915   8.165   2.202 -1.4518 -0.0258 -0.5376
  510MOL0     O70250   1.035   8.225   2.227 -0.5559  0.8016 -0.8706
  510MOL0     C70251   1.051   8.265   2.358  1.0401  0.1198 -0.6367
  510MOL0     C70252   1.195   8.242   2.398 -0.4227  0.3007  0.5173
  510MOL0     C70253   1.310   8.311   2.310 -0.6500  0.0639  0.3213
  510MOL0     C70254   1.449   8.258   2.350 -0.0200 -0.5188 -0.7904
  510MOL0     C70255   1.573   8.334   2.295 -0.4156 -0.3663  0.7101
  510MOL0     C70256   1.590   8.313   2.144  0.0250  0.1065 -1.0725
  510MOL0     C70257   1.719   8.368   2.092 -0.0656 -0.3796 -0.2918
  510MOL0     C70258   1.735   8.305   1.950  0.7554 -0.0126  0.1774
  510MOL0     N70259   1.862   8.335   1.889  0.1399 -0.0460 -0.5319
  510MOL0     C70260   1.867   8.371   1.761 -0.1595 -0.6639 -0.9992
  510MOL0     C70261   1.996   8.364   1.730  0.6110  0.4223 -0.0148
  510MOL0     C70262   2.047   8.370   1.585 -0.2065 -0.8836  0.6541
  510MOL0     C70263   2.073   8.225   1.534 -0.4652  0.3302 -0.9328
  510MOL0     C70264   2.082   8.229   1.384 -0.2042  0.3781  0.0370
  510MOL0     C70265   2.139   8.096   1.338 -0.1950  0.2251  0.8179
  510MOL0     O70266   2.030   8.009   1.289 -0.1198 -0.5577 -0.1757
  510MOL0     C70267   2.070   7.879   1.295 -0.0097  0.7815  0.0264
  510MOL0     C70268   2.057   7.804   1.417 -0.4910 -0.5002  0.1794
  510MOL0     C70269   2.098   7.669   1.423  0.3660 -0.3303  0.7969
  510MOL0     C70270   2.056   7.574   1.542 -0.6392  0.3055  0.1233
  510MOL0     C70271   2.173   7.612   1.315  0.7628 -0.6578 -0.3857
  510MOL0     C70272   2.231   7.483   1.315 -0.2582  0.0793 -0.0122
  510MOL0     O70273   2.238   7.424   1.194  0.4825 -0.0715  0.3417
  510MOL0     C70274   2.308   7.308   1.181 -0.0975  0.3938 -0.2254
  510MOL0     C70275   2.437   7.306   1.137  0.4073 -0.2107 -0.4389
  510MOL0     C70276   2.528   7.192   1.125  0.2245  0.8653  0.0511
  510MOL0     C70277   2.473   7.066   1.157 -1.3314 -0.0536  0.7316
  510MOL0     O70278   2.553   6.950   1.153  0.5729 -0.0131 -0.2141
  510MOL0     C70279   2.695   6.955   1.131 -0.5050 -0.1612 -0.5919
  510MOL0     C70280   2.766   7.011   1.257  0.7116  0.1326 -0.2642
  510MOL0     C70281   2.918   7.006   1.261  0.4420  0.0267  0.6859
  510MOL0     C70282   2.982   7.110   1.169  0.1402 -0.0711  0.6321
  510MOL0     C70283   3.138   7.095   1.166 -0.1345 -0.1072  0.3841
  510MOL0     C70284   3.214   7.222   1.148 -0.6883  0.7294  0.6152
  510MOL0     C70285   3.360   7.192   1.145  0.4837 -0.7805 -0.3204
  510MOL0     C70286   3.438   7.322   1.149 -0.8837  0.2507  0.7255
  510MOL0    Cl70287   3.610   7.274   1.168  0.1858 -0.1502 -0.6239
  510MOL0     C70288   2.343   7.068   1.204 -0.6532  0.8741  0.3754
  510MOL0     C70289   2.261   7.184   1.214 -1.1125  0.2398 -0.6840
  510MOL0     O70290   2.273   7.434   1.420  0.3444  0.6439 -0.3270
  510MOL0     C70291   2.182   7.686   1.196  0.5959  0.2161 -0.5526
  510MOL0     C70292   2.136   7.815   1.183  0.0401  0.3214 -0.3270
  510MOL0     N70293   2.065   8.334   1.839 -0.5891 -0.3786  0.2218
  510MOL0     N70294   1.987   8.310   1.933  0.0502 -0.4085  0.4344
  510MOL0     C70295   0.899   8.026   2.160 -0.6571  0.2535 -0.7069
  510MOL0     C70296   0.772   7.966   2.150 -0.3700 -0.0854  0.7881
  510MOL0     C70297   0.322   7.953   2.094  0.4637  0.0381 -0.3516
  510MOL0     C70298   0.314   7.812   2.085 -0.4195 -0.4071  0.0984
  510MOL0     C70299   0.190   7.753   2.128  0.1429 -0.0973  0.1594
  510MOL0     C70300   0.080   7.829   2.168 -0.4003  0.0859 -0.1874
  510MOL0     O70301  -0.045   7.768   2.184 -0.0296 -0.4453 -0.2193
  510MOL0     C70302  -0.153   7.845   2.244  0.3271 -0.5583  0.8654
  510MOL0     C70303  -0.289   7.782   2.270 -0.5404  0.6223 -0.7122
  510MOL0     C70304  -0.284   7.721   2.416  0.3366 -0.4649 -0.0499
  510MOL0     C70305  -0.319   7.819   2.529 -0.3784  0.2880 -0.4927
  510MOL0     C70306  -0.457   7.857   2.511  0.0121 -0.2829  0.8514
  510MOL0     C70307  -0.576   7.896   2.499 -0.0863 -0.1934 -0.0808
  510MOL0     C70308   0.087   7.972   2.151  0.2506 -1.0839  0.3265
  510MOL0     C70309   0.208   8.034   2.115 -0.6599  0.3404  0.0327
  510MOL0     C70310   0.211   8.180   2.120 -1.0365  0.5800 -1.1153
  510MOL0     H70311   0.591   8.239   2.214  0.0685 -0.1947  0.6336
  510MOL0     H70312   0.798   8.339   2.238  4.0818 -0.2689  0.9354
  510MOL0     H70313   0.984   8.205   2.420  1.6927  0.5981  0.5697
  510MOL0     H70314   1.032   8.372   2.372  2.3229 -0.0696  4.5835
  510MOL0     H70315   1.206   8.282   2.499 -2.0027  1.2756  0.3428
  510MOL0     H70316   1.219   8.136   2.393  2.1467  0.8790 -2.0635
  510MOL0     H70317   1.306   8.308   2.200  0.0750  1.2755  0.2505
  510MOL0     H70318   1.304   8.416   2.338 -0.0143 -0.0385  0.8518
  510MOL0     H70319   1.456   8.246   2.458 -1.5072 -1.5995 -0.7824
  510MOL0     H70320   1.464   8.161   2.302 -0.2362  0.2567 -2.5142
  510MOL0     H70321   1.658   8.282   2.340 -0.1071 -0.9263 -0.4727
  510MOL0     H70322   1.587   8.441   2.312  1.2092 -0.1582 -1.5464
  510MOL0     H70323   1.577   8.211   2.109 -2.9365  0.7188 -2.0300
  510MOL0     H70324   1.511   8.373   2.097  1.2599  1.3131 -1.6715
  510MOL0     H70325   1.801   8.345   2.161 -1.3322  2.7534  2.5167
  510MOL0     H70326   1.711   8.477   2.095 -1.0717 -0.4767  1.1772
  510MOL0     H70327   1.727   8.196   1.958 -0.7440  0.1193  0.7241
  510MOL0     H70328   1.653   8.330   1.883 -0.6100 -1.3217  1.2701
  510MOL0     H70329   1.791   8.380   1.684  0.1306  0.8747 -1.1408
  510MOL0     H70330   2.136   8.431   1.574 -0.0927 -1.1798 -0.1729
  510MOL0     H70331   1.970   8.420   1.525  1.6686  0.8887 -0.3678
  510MOL0     H70332   2.171   8.201   1.576 -0.7401  2.8654  1.4518
  510MOL0     H70333   2.009   8.148   1.578  0.3786 -0.1382 -0.5162
  510MOL0     H70334   1.989   8.248   1.331  0.0771 -0.4228 -0.7754
  510MOL0     H70335   2.140   8.315   1.350 -0.5752 -0.0688 -1.8743
  510MOL0     H70336   2.202   8.120   1.251  0.6599 -0.2807  1.2905
  510MOL0     H70337   2.203   8.047   1.411 -1.5374  1.3030  2.8217
  510MOL0     H70338   2.007   7.854   1.499  0.7410 -1.3754  1.5164
  510MOL0     H70339   2.134   7.584   1.617 -1.2279  1.8454  0.5571
  510MOL0     H70340   2.046   7.467   1.518 -0.4378  0.3634 -0.2213
  510MOL0     H70341   1.959   7.593   1.588 -2.2160 -0.9223 -2.4324
  510MOL0     H70342   2.485   7.401   1.114  2.5885 -1.4268 -1.2391
  510MOL0     H70343   2.618   7.189   1.065 -1.1820 -2.6541 -2.1827
  510MOL0     H70344   2.727   6.851   1.119 -0.8820 -0.1784 -1.5135
  510MOL0     H70345   2.718   7.006   1.037  0.6592 -2.3397 -1.5748
  510MOL0     H70346   2.719   7.106   1.286  0.8835 -0.0419  0.6182
  510MOL0     H70347   2.732   6.940   1.333 -0.4787  0.1223 -0.7736
  510MOL0     H70348   2.933   6.909   1.213 -3.1166 -0.7174  0.7880
  510MOL0     H70349   2.962   7.010   1.361 -1.5831  1.2366  1.6035
  510MOL0     H70350   2.953   7.211   1.201  1.6311  1.0085 -1.1686
  510MOL0     H70351   2.938   7.107   1.069 -0.4668  1.8584  0.7829
  510MOL0     H70352   3.169   7.055   1.263 -1.8520 -0.1415  0.9399
  510MOL0     H70353   3.151   7.018   1.089 -0.8119 -1.1663  1.2981
  510MOL0     H70354   3.189   7.288   1.231 -0.7193 -0.4790  1.5896
  510MOL0     H70355   3.193   7.272   1.053 -1.7076  3.9988  2.4087
  510MOL0     H70356   3.393   7.135   1.057  0.8600  1.5703 -1.7853
  510MOL0     H70357   3.390   7.137   1.234  1.6336 -0.4546 -0.4823
  510MOL0     H70358   3.404   7.392   1.226 -0.7245  2.3010 -0.9708
  510MOL0     H70359   3.426   7.368   1.050  2.1925 -0.6454 -0.1795
  510MOL0     H70360   2.296   6.981   1.251 -0.4149  1.0920  1.0361
  510MOL0     H70361   2.165   7.194   1.265  0.4191  2.3484  2.0797
  510MOL0     H70362   2.232   7.640   1.111  2.7988 -0.9540  1.2620
  510MOL0     H70363   2.154   7.870   1.091 -3.9351  1.6741 -0.4856
  510MOL0     H70364   0.986   7.963   2.150 -0.4601  0.6615 -1.7001
  510MOL0     H70365   0.762   7.865   2.111  1.5859  0.0052 -0.0320
  510MOL0     H70366   0.403   7.750   2.075 -1.3192 -2.3449  2.9186
  510MOL0     H70367   0.175   7.645   2.121 -2.4401  0.2845 -1.8095
  510MOL0     H70368  -0.117   7.902   2.330 -0.7408 -1.3553  1.8781
  510MOL0     H70369  -0.175   7.927   2.176 -1.6144 -0.6830  1.2627
  510MOL0     H70370  -0.305   7.703   2.197 -1.2191 -0.0254  0.1170
  510MOL0     H70371  -0.368   7.857   2.272  1.3295  2.6861  0.0901
  510MOL0     H70372  -0.354   7.638   2.420 -0.5413  0.0175 -3.0187
  510MOL0     H70373  -0.182   7.686   2.437  2.2539  3.4214 -1.6974
  510MOL0     H70374  -0.258   7.908   2.514  2.1871 -1.1847  0.7107
  510MOL0     H70375  -0.312   7.764   2.623  2.7913 -1.9626 -1.8686
  510MOL0     H70376  -0.678   7.928   2.507 -0.5975  0.0035 -4.5747
  510MOL0     H70377   0.004   8.042   2.153  0.7686  0.0038 -4.1921
  510MOL0     H70378   0.295   8.229   2.070 -0.8239  0.6793 -0.6645
  510MOL0     H70379   0.122   8.212   2.066  0.6519  0.3135 -4.2673
  510MOL0     H70380   0.208   8.210   2.225 -1.3894 -1.2339 -0.5591
  511MOL0     O70381   0.447  10.767   4.566  0.2289 -0.0729  0.1365
  511MOL0     C70382   0.382  10.681   4.621  0.0759 -0.0239 -0.0309
  511MOL0     O70383   0.424  10.613   4.726 -0.8372 -0.1088 -0.7227
  511MOL0     C70384   0.540  10.634   4.806 -0.5762 -0.4085  0.0312
  511MOL0     C70385   0.592  10.536   4.886 -0.1508  1.3696  0.3252
  511MOL0     C70386   0.719  10.549   4.946  0.5597  0.2126  0.1649
  511MOL0     C70387   0.782  10.670   4.941  0.4450 -0.7840  0.2245
  511MOL0     O70388   0.901  10.682   5.010  0.8395 -0.2491 -0.3329
  511MOL0     C70389   0.999  10.785   4.983  0.2545 -0.0799  0.1026
  511MOL0     C70390   1.127  10.748   5.051 -1.3762 -0.3196 -0.3247
  511MOL0     C70391   1.234  10.866   5.074  0.5884 -0.2052  1.2845
  511MOL0     C70392   1.331  10.843   5.193 -0.1338 -0.0918  0.0908
  511MOL0     C70393   1.467  10.899   5.153 -0.4370 -0.5643 -0.8651
  511MOL0     C70394   1.473  11.050   5.173  0.0664  0.4407  0.7361
  511MOL0     C70395   1.607  11.100   5.099 -0.3383 -0.7227 -0.4007
  511MOL0     C70396   1.568  11.124   4.961  0.3295 -0.2354  0.2876
  511MOL0     N70397   1.659  11.220   4.906  0.6716  0.9189 -0.0598
  511MOL0     C70398   1.614  11.340   4.854 -1.0710  0.6786  1.4267
  511MOL0     C70399   1.736  11.407   4.816  0.4013  0.2519 -0.0388
  511MOL0     C70400   1.747  11.549   4.753  0.2116  0.8367 -0.3523
  511MOL0     C70401   1.804  11.533   4.612  0.7379  0.2805  0.8481
  511MOL0     C70402   1.827  11.672   4.539 -0.1390  0.2332 -1.4849
  511MOL0     C70403   1.897  11.655   4.402  0.5956 -0.3964 -0.2463
  511MOL0     O70404   1.898  11.790   4.350 -0.7034  0.2412 -0.1967
  511MOL0     C70405   1.978  11.822   4.241 -1.1686 -0.3572 -0.7213
  511MOL0     C70406   2.063  11.735   4.178 -1.3311  0.4095  0.1275
  511MOL0     C70407   2.131  11.771   4.066 -0.3189  0.1209  0.4907
  511MOL0     C70408   2.242  11.672   4.026  0.3806 -0.0720  0.8946
  511MOL0     C70409   2.119  11.901   4.008  0.6492  0.1522  0.1152
  511MOL0     C70410   2.178  11.936   3.883 -1.0003  0.1471 -0.0093
  511MOL0     O70411   2.186  12.067   3.854  0.6831  0.2774  0.2514
  511MOL0     C70412   2.237  12.118   3.735  0.5158 -0.5916 -0.0094
  511MOL0     C70413   2.334  12.210   3.713  0.1636 -0.5311  0.0012
  511MOL0     C70414   2.382  12.264   3.600  0.7717 -0.5138  1.3330
  511MOL0     C70415   2.306  12.237   3.487 -0.1325  0.0074  0.5636
  511MOL0     O70416   2.355  12.276   3.355  0.0500 -0.2834  0.4760
  511MOL0     C70417   2.431  12.173   3.296 -0.9497  0.3436 -0.4367
  511MOL0     C70418   2.503  12.242   3.181  0.0827 -0.1533 -0.9213
  511MOL0     C70419   2.616  12.144   3.135 -0.8933  0.3604 -0.8997
  511MOL0     C70420   2.691  12.212   3.023  0.6615 -0.4130  0.4755
  511MOL0     C70421   2.775  12.117   2.952 -0.3897  0.1605 -0.0932
  511MOL0     C70422   2.854  12.203   2.847  0.2292  0.2894 -0.4855
  511MOL0     C70423   2.783  12.242   2.723 -0.1085 -0.4361  0.6738
  511MOL0     C70424   2.879  12.287   2.620 -0.0034  0.4946 -0.2335
  511MOL0    Cl70425   2.968  12.427   2.677  0.2859 -0.3930  0.2272
  511MOL0     C70426   2.203  12.144   3.498 -0.6410 -0.8247  0.5654
  511MOL0     C70427   2.169  12.082   3.620  0.1848  0.5201 -0.3229
  511MOL0     O70428   2.220  11.847   3.806 -1.0478 -0.2420  0.0889
  511MOL0     C70429   2.028  11.994   4.073 -0.6023 -0.1919  0.4710
  511MOL0     C70430   1.964  11.956   4.184 -0.5385  0.1530 -1.3126
  511MOL0     N70431   1.842  11.312   4.847 -0.1523  0.7942  0.4434
  511MOL0     N70432   1.798  11.202   4.893  0.2609 -0.6532  0.2905
  511MOL0     C70433   0.727  10.778   4.869 -0.8147 -0.4398 -0.5489
  511MOL0     C70434   0.616  10.759   4.795  0.4928  0.3577 -0.7494
  511MOL0     C70435   0.250  10.638   4.573 -0.2140 -0.5805  0.1381
  511MOL0     C70436   0.192  10.516   4.626 -0.1790 -0.0457 -0.9769
  511MOL0     C70437   0.064  10.467   4.589  0.4531 -0.4445 -0.2443
  511MOL0     C70438  -0.022  10.538   4.504 -0.4419  0.1341  0.3287
  511MOL0     O70439  -0.150  10.508   4.473  0.2831  0.1305 -0.2416
  511MOL0     C70440  -0.193  10.374   4.488 -0.0070 -0.2524 -0.2849
  511MOL0     C70441  -0.301  10.341   4.385  0.0151  0.1206 -0.2644
  511MOL0     C70442  -0.441  10.412   4.396 -0.4035  0.0762 -0.0493
  511MOL0     C70443  -0.508  10.386   4.530 -0.5994 -0.2289 -0.1910
  511MOL0     C70444  -0.530  10.245   4.567 -0.7871 -0.8947 -0.3893
  511MOL0     C70445  -0.545  10.132   4.603 -0.1962  0.0367 -0.6587
  511MOL0     C70446   0.031  10.661   4.461 -0.0678 -0.6027 -0.3054
  511MOL0     C70447   0.164  10.705   4.486  0.6007  0.3875  1.1132
  511MOL0     C70448   0.205  10.831   4.417 -0.7494 -0.3318 -0.9256
  511MOL0     H70449   0.533  10.445   4.885  2.1845 -0.5194 -4.9074
  511MOL0     H70450   0.753  10.475   5.018  0.2823  2.2369  2.5006
  511MOL0     H70451   0.964  10.884   5.014 -1.7193  0.2777 -2.8670
  511MOL0     H70452   1.017  10.797   4.876 -0.0633  1.0439  0.1606
  511MOL0     H70453   1.114  10.706   5.151  2.4115 -0.7771  0.0965
  511MOL0     H70454   1.175  10.677   4.984  1.1473 -1.4480  2.4326
  511MOL0     H70455   1.289  10.887   4.982  0.3387 -0.2302  1.1282
  511MOL0     H70456   1.165  10.951   5.083 -0.2753 -0.5141 -1.5151
  511MOL0     H70457   1.289  10.895   5.280 -0.0797  0.0906  0.0077
  511MOL0     H70458   1.345  10.738   5.218  0.8819  0.1082  0.4074
  511MOL0     H70459   1.504  10.864   5.056  0.8220 -2.9476  0.3877
  511MOL0     H70460   1.539  10.855   5.222  0.4837  2.6955  0.3921
  511MOL0     H70461   1.382  11.091   5.130  1.6416  3.4006  0.0141
  511MOL0     H70462   1.485  11.060   5.282  1.7529  2.4291  0.4376
  511MOL0     H70463   1.688  11.028   5.110 -0.4091 -1.1717 -2.3788
  511MOL0     H70464   1.640  11.191   5.151  0.4102  0.5277 -2.8809
  511MOL0     H70465   1.567  11.032   4.903 -4.4600 -0.0692 -0.2358
  511MOL0     H70466   1.469  11.167   4.946  0.9737  1.2300  0.0792
  511MOL0     H70467   1.510  11.370   4.853 -0.3654  3.5099 -0.8951
  511MOL0     H70468   1.809  11.623   4.806  3.3845 -0.8142 -1.4756
  511MOL0     H70469   1.648  11.593   4.740 -0.9585 -1.9350 -1.3726
  511MOL0     H70470   1.900  11.483   4.599  0.5832  0.5664 -2.2032
  511MOL0     H70471   1.726  11.481   4.556 -0.1920  1.9796  0.4781
  511MOL0     H70472   1.729  11.718   4.521 -0.3898 -0.0156 -0.7817
  511MOL0     H70473   1.880  11.738   4.608 -1.4436 -0.7693  0.5506
  511MOL0     H70474   2.001  11.627   4.416  1.2323  1.4263 -0.9808
  511MOL0     H70475   1.844  11.584   4.338 -2.2527  2.2853 -1.1294
  511MOL0     H70476   2.068  11.633   4.214  1.0462 -0.1322 -1.4874
  511MOL0     H70477   2.337  11.723   4.044 -0.6161  2.4832 -0.5364
  511MOL0     H70478   2.252  11.636   3.923  0.2910  0.4063  0.7132
  511MOL0     H70479   2.241  11.577   4.080  2.8705 -0.2973  0.6528
  511MOL0     H70480   2.394  12.249   3.794  1.9468 -1.2328 -0.9266
  511MOL0     H70481   2.467  12.330   3.593  0.5482 -0.2756  0.8407
  511MOL0     H70482   2.501  12.137   3.372 -0.0747 -0.0460 -1.3998
  511MOL0     H70483   2.368  12.089   3.265  1.0724 -1.2603 -0.4177
  511MOL0     H70484   2.451  12.264   3.087  1.7528 -2.8924 -2.6476
  511MOL0     H70485   2.539  12.336   3.224 -1.5711 -0.7488  2.0471
  511MOL0     H70486   2.576  12.048   3.102 -1.0455 -0.3192  1.1235
  511MOL0     H70487   2.688  12.133   3.216 -0.8107 -1.6447 -1.1887
  511MOL0     H70488   2.750  12.297   3.060  0.0424  1.8186 -3.1650
  511MOL0     H70489   2.624  12.263   2.953  0.5271 -0.2234  0.7381
  511MOL0     H70490   2.850  12.076   3.021 -0.5592  0.2894  0.1681
  511MOL0     H70491   2.712  12.036   2.913  0.9248 -1.5527  1.1558
  511MOL0     H70492   2.936  12.141   2.811  1.6124  0.5944  1.9589
  511MOL0     H70493   2.906  12.289   2.892  1.2337  0.1920 -1.4155
  511MOL0     H70494   2.711  12.321   2.747 -0.7776 -1.8340  3.7850
  511MOL0     H70495   2.734  12.154   2.680 -0.0370  1.4343 -3.7395
  511MOL0     H70496   2.824  12.311   2.529  0.0987 -0.5140 -0.5674
  511MOL0     H70497   2.947  12.205   2.596  1.8767  1.5348  1.3263
  511MOL0     H70498   2.167  12.122   3.398  0.8856  0.6645 -0.3770
  511MOL0     H70499   2.103  11.996   3.631  1.2272 -0.1715  0.8620
  511MOL0     H70500   2.013  12.097   4.042  1.8581  0.5055  1.3576
  511MOL0     H70501   1.900  12.022   4.241  2.9093  1.6124  1.2377
  511MOL0     H70502   0.758  10.881   4.882 -1.2539 -0.4963  1.1277
  511MOL0     H70503   0.596  10.839   4.724 -2.4380 -0.5079 -1.0196
  511MOL0     H70504   0.246  10.452   4.695 -3.2624  0.4589  2.1526
  511MOL0     H70505   0.022  10.381   4.641 -1.6895  0.7092  0.0741
  511MOL0     H70506  -0.110  10.305   4.470 -0.9428 -1.3391 -0.5808
  511MOL0     H70507  -0.213  10.359   4.594  4.2021 -0.8324  0.6161
  511MOL0     H70508  -0.331  10.235   4.379 -2.6846  0.8909 -4.8064
  511MOL0     H70509  -0.255  10.360   4.288 -0.1505  0.3182 -0.3049
  511MOL0     H70510  -0.445  10.521   4.383 -1.9954 -0.0810 -1.2461
  511MOL0     H70511  -0.509  10.379   4.317 -0.4923  0.3321 -0.0842
  511MOL0     H70512  -0.607  10.432   4.524  0.5007  2.1996 -1.2165
  511MOL0     H70513  -0.455  10.435   4.612  1.6732 -3.2343  0.3149
  511MOL0     H70514  -0.554  10.030   4.634  1.8540  0.2039  0.6331
  511MOL0     H70515  -0.034  10.726   4.403 -0.5188 -0.6229  0.1720
  511MOL0     H70516   0.120  10.863   4.356 -0.4919  1.1387 -0.5338
  511MOL0     H70517   0.234  10.910   4.487  0.1344 -0.3967 -1.2123
  511MOL0     H70518   0.290  10.813   4.352  0.0400  1.5356 -0.4709
  512MOL0     O70519   7.192   8.147   0.881 -0.2652  0.5678 -0.0247
  512MOL0     C70520   7.180   8.251   0.949 -0.6872 -0.1163 -0.2278
  512MOL0     O70521   7.275   8.314   1.025 -0.3680 -0.7146  0.4021
  512MOL0     C70522   7.398   8.251   1.030 -0.2020 -1.0190 -0.6457
  512MOL0     C70523   7.441   8.193   1.149  0.4319 -0.2891 -0.9040
  512MOL0     C70524   7.571   8.147   1.155  0.3050  1.4384 -0.0702
  512MOL0     C70525   7.656   8.150   1.051 -0.2058  0.2123  0.4898
  512MOL0     O70526   7.776   8.089   1.042  0.3272  0.4248  0.6180
  512MOL0     C70527   7.782   7.969   1.119 -0.4063  0.5604  1.3243
  512MOL0     C70528   7.906   7.893   1.065  0.2531 -0.3083 -0.4782
  512MOL0     C70529   7.901   7.864   0.913  0.0277  0.0167 -0.2422
  512MOL0     C70530   8.041   7.827   0.864  0.7521 -0.1723 -0.8088
  512MOL0     C70531   8.042   7.802   0.710 -0.4672  0.4832 -0.5305
  512MOL0     C70532   8.178   7.791   0.647 -0.3794  0.5723 -0.2636
  512MOL0     C70533   8.177   7.834   0.508 -0.2322 -0.2161  0.9074
  512MOL0     C70534   8.284   7.773   0.415 -0.0385  0.3349  0.1967
  512MOL0     N70535   8.419   7.805   0.453  0.1300  0.6880 -0.5740
  512MOL0     C70536   8.491   7.741   0.552 -0.1957 -0.1660  0.4099
  512MOL0     C70537   8.612   7.806   0.554 -0.5464 -0.2165 -0.1743
  512MOL0     C70538   8.724   7.760   0.640  0.8156  0.1305 -0.6268
  512MOL0     C70539   8.848   7.847   0.653  0.4716 -0.0455  0.5637
  512MOL0     C70540   8.974   7.767   0.667  0.5802 -0.8520 -0.4157
  512MOL0     C70541   9.096   7.853   0.712  0.5069 -0.7144 -0.0367
  512MOL0     O70542   9.195   7.753   0.741 -0.0875 -0.1842  0.0707
  512MOL0     C70543   9.313   7.799   0.790  0.6298 -0.3575 -0.8774
  512MOL0     C70544   9.385   7.700   0.857  0.3945 -0.8102  0.6078
  512MOL0     C70545   9.506   7.734   0.920  0.0902  1.5435 -0.1715
  512MOL0     C70546   9.590   7.621   0.984  0.1734 -0.5275  0.1140
  512MOL0     C70547   9.570   7.856   0.888 -0.7099  0.6681 -0.5089
  512MOL0     C70548   9.702   7.890   0.939  0.1375  0.0121  0.1517
  512MOL0     O70549   9.804   7.843   0.861  0.2066 -0.0962 -0.2117
  512MOL0     C70550   9.930   7.849   0.908  0.0238  0.3455  0.3626
  512MOL0     C70551   9.970   7.765   1.009  0.0521  0.0608 -0.9877
  512MOL0     C70552  10.098   7.773   1.070 -1.1145 -0.1848 -0.2883
  512MOL0     C70553  10.192   7.860   1.009 -1.2857  0.6910  0.2462
  512MOL0     O70554  10.318   7.881   1.043 -0.1850 -0.1608  0.4103
  512MOL0     C70555  10.357   7.863   1.187  0.8477  0.6433  0.0569
  512MOL0     C70556  10.495   7.932   1.220  0.8116 -0.3985  0.3979
  512MOL0     C70557  10.614   7.890   1.133  0.3347  0.1897  0.5489
  512MOL0     C70558  10.630   7.978   1.009 -0.4740  0.0371 -0.8352
  512MOL0     C70559  10.757   7.955   0.935  0.1860 -0.2173  0.1124
  512MOL0     C70560  10.764   8.045   0.814 -0.5429  0.4909  0.1079
  512MOL0     C70561  10.881   8.036   0.722  0.3432 -0.3149 -0.6880
  512MOL0     C70562  10.899   7.907   0.652  0.1188  0.0731  0.3908
  512MOL0    Cl70563  10.788   7.875   0.515 -0.1467  0.0874  0.1829
  512MOL0     C70564  10.155   7.919   0.888 -0.7931  0.0610  0.1957
  512MOL0     C70565  10.029   7.919   0.840 -0.3313  0.4994  0.2345
  512MOL0     O70566   9.718   7.962   1.038 -0.0367  0.3407  0.1306
  512MOL0     C70567   9.508   7.954   0.822  0.4669 -0.7498 -0.4041
  512MOL0     C70568   9.375   7.928   0.769 -0.5858  0.2537 -0.3713
  512MOL0     N70569   8.620   7.894   0.453 -0.5645 -0.5186 -0.3751
  512MOL0     N70570   8.500   7.903   0.402 -0.9263  0.3425  0.1125
  512MOL0     C70571   7.621   8.217   0.936 -0.2101 -0.0997 -0.0879
  512MOL0     C70572   7.495   8.279   0.932 -0.1986  0.8195 -0.4966
  512MOL0     C70573   7.046   8.314   0.941  0.2319 -0.4350  0.0932
  512MOL0     C70574   7.037   8.453   0.978 -0.6579  0.8056  0.0441
  512MOL0     C70575   6.927   8.531   0.975 -0.1423 -0.6539 -0.1822
  512MOL0     C70576   6.808   8.470   0.956 -0.4022  0.0270 -0.3561
  512MOL0     O70577   6.698   8.550   0.963 -0.2706 -0.6059 -0.3724
  512MOL0     C70578   6.567   8.504   0.931  0.2138  0.9964 -0.1145
  512MOL0     C70579   6.483   8.626   0.934 -0.2683 -0.7608 -0.3194
  512MOL0     C70580   6.475   8.689   1.080  0.8040  0.4636 -0.3916
  512MOL0     C70581   6.336   8.700   1.132 -0.1634  0.3112 -0.0337
  512MOL0     C70582   6.331   8.742   1.274 -0.4592  0.3925 -0.0239
  512MOL0     C70583   6.324   8.748   1.397 -0.6197  0.3266 -0.5388
  512MOL0     C70584   6.809   8.329   0.919 -0.4803  0.1516  0.9393
  512MOL0     C70585   6.926   8.257   0.903  0.7995 -0.9022 -0.6627
  512MOL0     C70586   6.916   8.120   0.834  0.0170 -0.0730 -0.2621
  512MOL0     H70587   7.369   8.169   1.227 -1.9619  3.5258 -1.6697
  512MOL0     H70588   7.600   8.095   1.246  2.2465 -0.1544 -1.5142
  512MOL0     H70589   7.696   7.906   1.097 -0.1121  0.9456 -1.2702
  512MOL0     H70590   7.784   7.995   1.225  0.9416  0.6197  1.3060
  512MOL0     H70591   7.993   7.955   1.086 -0.2883 -0.2221  1.8042
  512MOL0     H70592   7.915   7.807   1.133 -0.0448  1.5667  2.0828
  512MOL0     H70593   7.826   7.793   0.877 -0.7135  0.7160 -0.1041
  512MOL0     H70594   7.867   7.959   0.870  0.6572  1.1793  1.6914
  512MOL0     H70595   8.112   7.907   0.889 -0.4579  0.1514  1.9309
  512MOL0     H70596   8.074   7.733   0.910 -1.4598 -0.4060  0.4363
  512MOL0     H70597   7.982   7.879   0.660 -2.2785  0.7901  1.9072
  512MOL0     H70598   7.988   7.708   0.698 -0.0844 -0.1955  2.3617
  512MOL0     H70599   8.241   7.858   0.706 -0.8725 -0.5003  1.5610
  512MOL0     H70600   8.197   7.683   0.652 -0.0156  0.6876  2.1469
  512MOL0     H70601   8.189   7.942   0.520  1.0887 -0.4683  2.2659
  512MOL0     H70602   8.083   7.816   0.456  0.2552  1.9229 -0.8504
  512MOL0     H70603   8.259   7.667   0.399 -2.6304  0.7296  1.1203
  512MOL0     H70604   8.276   7.810   0.313  0.2716 -0.7251 -0.2304
  512MOL0     H70605   8.451   7.670   0.624  2.2823  0.6048  2.7232
  512MOL0     H70606   8.746   7.657   0.609  0.7353 -0.6817  1.7921
  512MOL0     H70607   8.681   7.740   0.739  0.0198  2.2237 -0.4947
  512MOL0     H70608   8.857   7.916   0.568 -3.6362 -0.2721 -0.2782
  512MOL0     H70609   8.837   7.907   0.743 -1.6893  0.7304 -0.1428
  512MOL0     H70610   8.953   7.714   0.760  0.2613  1.6496  1.0300
  512MOL0     H70611   9.003   7.698   0.587 -0.7470 -2.8762  0.7731
  512MOL0     H70612   9.141   7.905   0.628  1.4014 -0.6826  0.4589
  512MOL0     H70613   9.078   7.929   0.788  4.2236  1.8119 -1.4491
  512MOL0     H70614   9.339   7.603   0.875 -1.7078 -0.4291 -1.9750
  512MOL0     H70615   9.534   7.530   0.962 -2.2385  0.7995  0.3584
  512MOL0     H70616   9.597   7.624   1.094  0.4909 -1.9518  0.1489
  512MOL0     H70617   9.690   7.606   0.944 -0.0418  1.1618 -1.1878
  512MOL0     H70618   9.893   7.713   1.065 -1.1983  2.5486 -0.2266
  512MOL0     H70619  10.116   7.726   1.166  2.4161  3.7377  1.2896
  512MOL0     H70620  10.281   7.921   1.242 -1.5537 -0.5150 -1.8393
  512MOL0     H70621  10.349   7.760   1.222  2.0499  0.7284  0.6172
  512MOL0     H70622  10.463   8.035   1.201  2.0870 -0.0850 -0.1555
  512MOL0     H70623  10.510   7.922   1.328 -1.6070  2.8208  1.2025
  512MOL0     H70624  10.596   7.786   1.102  0.2771 -0.1674  1.7524
  512MOL0     H70625  10.703   7.887   1.196 -1.3369  0.0203  3.0509
  512MOL0     H70626  10.613   8.078   1.050 -3.9956 -1.2953  1.4318
  512MOL0     H70627  10.544   7.964   0.943 -1.7318 -0.7111  0.8748
  512MOL0     H70628  10.845   7.970   0.998 -1.6282  0.6272  2.6362
  512MOL0     H70629  10.760   7.852   0.900  0.2541 -0.7209  1.5294
  512MOL0     H70630  10.751   8.148   0.850 -0.6342  1.5031 -2.5648
  512MOL0     H70631  10.672   8.022   0.758 -1.4801 -1.3810  2.2837
  512MOL0     H70632  10.977   8.064   0.766  0.4659 -0.3773 -0.9091
  512MOL0     H70633  10.863   8.118   0.653  1.5510  1.5649  1.1125
  512MOL0     H70634  10.883   7.835   0.733 -4.7301  3.7601  3.2454
  512MOL0     H70635  10.999   7.904   0.610 -0.1290  0.6309 -0.2524
  512MOL0     H70636  10.229   7.971   0.828 -0.3899 -0.5900  0.1262
  512MOL0     H70637   9.998   7.975   0.752  0.3472  0.7942  0.1825
  512MOL0     H70638   9.566   8.046   0.818 -0.4837 -0.0709  0.6664
  512MOL0     H70639   9.330   7.999   0.700 -0.4557 -1.5012 -2.3424
  512MOL0     H70640   7.692   8.211   0.853  0.0184  3.0331 -0.2190
  512MOL0     H70641   7.471   8.333   0.842  0.7305  2.3927  0.1652
  512MOL0     H70642   7.131   8.504   0.999  0.3693 -0.4327 -1.3883
  512MOL0     H70643   6.930   8.634   1.011 -1.4113 -0.6791  0.0514
  512MOL0     H70644   6.560   8.450   0.836  2.2051 -1.8524  1.1941
  512MOL0     H70645   6.530   8.429   1.002  0.2134 -0.6004 -1.7086
  512MOL0     H70646   6.384   8.600   0.896 -0.7573 -1.3015  1.2248
  512MOL0     H70647   6.519   8.698   0.860  2.4306 -2.2520 -0.5665
  512MOL0     H70648   6.549   8.644   1.147  1.6779  2.1859 -0.1485
  512MOL0     H70649   6.511   8.792   1.082 -1.0036  1.1228  1.2604
  512MOL0     H70650   6.296   8.598   1.126 -0.2076  0.2944  0.4825
  512MOL0     H70651   6.272   8.757   1.065 -3.0017 -0.9441  1.4028
  512MOL0     H70652   6.333   8.780   1.499 -0.8211 -1.9453  0.2488
  512MOL0     H70653   6.714   8.281   0.899  0.6330 -1.6604 -0.3439
  512MOL0     H70654   6.983   8.125   0.748  2.6373  0.0163  1.6612
  512MOL0     H70655   6.960   8.044   0.900  1.5945 -0.0854 -1.2688
  512MOL0     H70656   6.813   8.102   0.805 -1.3708  2.6326  2.3758
  513MOL0     O70657   4.592   6.065   7.603  0.3312  0.8678 -0.1690
  513MOL0     C70658   4.700   6.020   7.650 -0.2972 -1.1485  0.8402
  513MOL0     O70659   4.748   5.897   7.628 -0.8525  0.0261  0.4288
  513MOL0     C70660   4.669   5.801   7.575 -0.1156  0.5425 -0.0778
  513MOL0     C70661   4.675   5.768   7.432 -0.1233  0.4648 -0.3067
  513MOL0     C70662   4.611   5.653   7.388  0.4874  0.3159 -0.5785
  513MOL0     C70663   4.535   5.573   7.468 -0.6610 -0.4153  0.0047
  513MOL0     O70664   4.482   5.457   7.419  1.1101 -0.7317 -0.0760
  513MOL0     C70665   4.579   5.351   7.408 -0.0307  0.3071  0.4235
  513MOL0     C70666   4.586   5.255   7.528 -0.2218 -0.5507  0.2101
  513MOL0     C70667   4.460   5.184   7.543  0.2244  0.9307 -0.8295
  513MOL0     C70668   4.474   5.103   7.676  0.2759  0.7848 -0.0967
  513MOL0     C70669   4.346   5.060   7.732 -0.0878  0.2048 -0.0962
  513MOL0     C70670   4.357   5.002   7.879 -0.7289  0.6249  0.2855
  513MOL0     C70671   4.364   5.108   7.980  0.0727  0.9729 -0.0754
  513MOL0     C70672   4.414   5.035   8.107  0.1794 -0.0455  0.2357
  513MOL0     N70673   4.376   5.114   8.229 -0.0667  0.2171  0.0988
  513MOL0     C70674   4.386   5.249   8.258 -0.2181  1.5119  0.5194
  513MOL0     C70675   4.317   5.263   8.369 -0.7876 -0.0428 -0.5496
  513MOL0     C70676   4.322   5.388   8.442 -1.1664 -0.7982  0.6172
  513MOL0     C70677   4.395   5.380   8.567 -0.3575  1.1261  0.2522
  513MOL0     C70678   4.377   5.508   8.658 -0.7867  0.3053 -0.3343
  513MOL0     C70679   4.510   5.531   8.737 -0.1558  0.6442  0.0856
  513MOL0     O70680   4.523   5.660   8.789 -0.5343  0.9772 -0.0503
  513MOL0     C70681   4.607   5.689   8.890 -0.4883 -0.1988 -1.3391
  513MOL0     C70682   4.592   5.809   8.962  0.2066 -0.5186 -0.3715
  513MOL0     C70683   4.675   5.856   9.068  0.0113  0.4322 -0.1772
  513MOL0     C70684   4.640   5.994   9.118  0.1298 -0.7391  0.4371
  513MOL0     C70685   4.776   5.768   9.102 -0.3366 -0.8282 -0.0814
  513MOL0     C70686   4.871   5.798   9.213 -0.4667 -0.5031 -0.8653
  513MOL0     O70687   4.924   5.693   9.279 -0.3212 -0.1717  0.6266
  513MOL0     C70688   5.038   5.710   9.356 -0.1135 -0.6049  0.1530
  513MOL0     C70689   5.165   5.670   9.309 -0.5259  0.0554  0.3738
  513MOL0     C70690   5.280   5.697   9.383 -0.2776 -0.4807 -0.7424
  513MOL0     C70691   5.281   5.753   9.508  0.2893  1.0569 -0.4472
  513MOL0     O70692   5.396   5.776   9.575  0.3028  0.2456  0.6154
  513MOL0     C70693   5.394   5.841   9.695  0.2741 -0.2912  0.3338
  513MOL0     C70694   5.536   5.836   9.754  0.0774  0.7644 -0.7518
  513MOL0     C70695   5.523   5.858   9.901 -0.0526 -0.5751  0.1540
  513MOL0     C70696   5.662   5.854   9.970 -0.3208 -0.3191 -0.6035
  513MOL0     C70697   5.651   5.901  10.119  0.6427  0.4038  0.4929
  513MOL0     C70698   5.782   5.929  10.184 -0.2046 -0.2471  0.4555
  513MOL0     C70699   5.867   5.809  10.220 -0.2880  0.2879 -0.5737
  513MOL0     C70700   5.992   5.850  10.301 -0.1612  0.4684 -0.8107
  513MOL0    Cl70701   5.950   5.917  10.463 -0.2411 -0.1415 -0.3003
  513MOL0     C70702   5.151   5.793   9.553  0.3857 -0.9179  0.0905
  513MOL0     C70703   5.034   5.774   9.476  0.7243  0.1962  0.0783
  513MOL0     O70704   4.880   5.917   9.251  0.3286 -0.0268  0.7803
  513MOL0     C70705   4.789   5.642   9.044 -0.9509  0.6570 -0.1300
  513MOL0     C70706   4.712   5.607   8.941  0.0959  0.3942  0.7881
  513MOL0     N70707   4.280   5.143   8.411 -0.0648 -0.2742 -0.6548
  513MOL0     N70708   4.309   5.055   8.325  0.4887  0.5896 -0.0639
  513MOL0     C70709   4.517   5.612   7.602 -0.2585 -0.3100  0.8295
  513MOL0     C70710   4.573   5.726   7.654  0.1259 -0.1833 -0.3708
  513MOL0     C70711   4.778   6.110   7.741 -0.1737 -0.7345 -0.5846
  513MOL0     C70712   4.895   6.059   7.801  0.4331  0.6319  0.4758
  513MOL0     C70713   4.980   6.134   7.879  0.3332 -0.3106 -0.6931
  513MOL0     C70714   4.939   6.262   7.917 -0.1317  0.3703  0.4261
  513MOL0     O70715   5.019   6.339   8.003 -0.8621  0.5851  0.0071
  513MOL0     C70716   5.007   6.303   8.146 -1.0803 -0.4980  0.8001
  513MOL0     C70717   4.863   6.332   8.184  0.0746 -0.8612  0.1375
  513MOL0     C70718   4.850   6.345   8.330 -0.0552  0.0620  0.0966
  513MOL0     C70719   4.699   6.347   8.374 -0.1511  0.4250  0.5876
  513MOL0     C70720   4.636   6.460   8.321 -0.4214  0.5606  0.0687
  513MOL0     C70721   4.575   6.565   8.292  0.6316 -0.0772  0.6202
  513MOL0     C70722   4.828   6.317   7.864  0.3534 -0.2833  0.2860
  513MOL0     C70723   4.752   6.246   7.771  0.0607 -1.1209 -0.4701
  513MOL0     C70724   4.633   6.322   7.716 -0.0360  0.5360  0.1757
  513MOL0     H70725   4.726   5.836   7.365  3.3817 -0.6067  1.0652
  513MOL0     H70726   4.617   5.636   7.281  2.1558  0.2707 -0.5123
  513MOL0     H70727   4.679   5.387   7.384  0.8030  0.5760  3.8295
  513MOL0     H70728   4.557   5.289   7.321 -2.3267  1.8694 -0.1992
  513MOL0     H70729   4.673   5.190   7.516 -0.5439 -2.3883  5.3431
  513MOL0     H70730   4.599   5.312   7.621 -1.3914 -2.1436  1.3950
  513MOL0     H70731   4.380   5.258   7.556  1.1267  1.8389 -0.3578
  513MOL0     H70732   4.454   5.110   7.462 -3.5990 -0.2153  0.2862
  513MOL0     H70733   4.524   5.008   7.653  1.5510  1.0980  1.2842
  513MOL0     H70734   4.539   5.152   7.748 -1.0425  1.0701  0.9360
  513MOL0     H70735   4.317   4.972   7.674  0.1747 -0.8192  1.2631
  513MOL0     H70736   4.258   5.122   7.715  1.5895  2.3911 -1.4619
  513MOL0     H70737   4.278   4.927   7.894 -0.5296  0.2731 -0.3883
  513MOL0     H70738   4.446   4.939   7.876 -1.1408  0.0480 -1.6303
  513MOL0     H70739   4.265   5.153   7.993 -1.6531 -2.5509  0.2056
  513MOL0     H70740   4.438   5.186   7.959  0.8818  0.8053  1.8749
  513MOL0     H70741   4.360   4.941   8.121  3.4325 -1.9936  0.8148
  513MOL0     H70742   4.521   5.012   8.097  0.3459 -1.1368  3.3813
  513MOL0     H70743   4.430   5.321   8.189 -1.5451  1.1486 -0.7532
  513MOL0     H70744   4.219   5.410   8.472 -0.8351 -2.0834  2.9934
  513MOL0     H70745   4.363   5.468   8.380  1.3694 -0.3297  2.7129
  513MOL0     H70746   4.358   5.289   8.616  0.1691 -1.9563 -4.4694
  513MOL0     H70747   4.499   5.355   8.545 -0.4117  0.8539  0.3058
  513MOL0     H70748   4.354   5.593   8.593 -0.7507  0.8495  0.3463
  513MOL0     H70749   4.287   5.496   8.720 -0.2791  1.2050  0.6027
  513MOL0     H70750   4.494   5.458   8.817  2.9616 -1.0990 -0.6999
  513MOL0     H70751   4.600   5.505   8.680 -0.8613 -4.4732  0.8314
  513MOL0     H70752   4.504   5.867   8.933  0.7106  0.3836 -0.1453
  513MOL0     H70753   4.647   5.999   9.227 -3.4028 -0.2636  0.7317
  513MOL0     H70754   4.535   6.005   9.092 -0.6010 -4.1937  1.4476
  513MOL0     H70755   4.712   6.057   9.065 -0.7121 -0.0127  0.1527
  513MOL0     H70756   5.176   5.631   9.208  0.8604  2.8430 -0.6690
  513MOL0     H70757   5.375   5.658   9.347  0.3048 -0.1329  0.3761
  513MOL0     H70758   5.355   5.943   9.704  3.2139  0.9540  0.1191
  513MOL0     H70759   5.328   5.776   9.753 -1.0910 -0.3021 -1.1855
  513MOL0     H70760   5.578   5.735   9.746  0.1687  0.8558 -1.5520
  513MOL0     H70761   5.597   5.912   9.704 -3.2018  4.2620  0.0965
  513MOL0     H70762   5.462   5.775   9.939 -1.8197  0.3000 -0.6643
  513MOL0     H70763   5.472   5.950   9.930  1.4765 -0.1333  1.6374
  513MOL0     H70764   5.724   5.923   9.912 -0.2861 -1.0859 -1.5081
  513MOL0     H70765   5.707   5.755   9.960  1.9904  0.7983 -2.2045
  513MOL0     H70766   5.576   5.981  10.123 -1.9150 -1.7936 -0.5908
  513MOL0     H70767   5.608   5.818  10.175  1.6415  1.1719  2.4758
  513MOL0     H70768   5.747   5.980  10.274  0.9533 -1.4535  1.6369
  513MOL0     H70769   5.828   5.995  10.111  0.8730 -0.5483  0.8474
  513MOL0     H70770   5.894   5.750  10.132 -0.6052 -0.2197 -0.3326
  513MOL0     H70771   5.805   5.737  10.273  0.4751 -0.6799 -0.9772
  513MOL0     H70772   6.037   5.923  10.233  0.2357  1.5541  0.5526
  513MOL0     H70773   6.069   5.776  10.320  1.3039  1.9360 -0.8036
  513MOL0     H70774   5.131   5.842   9.647 -1.0570  0.1078 -0.7104
  513MOL0     H70775   4.933   5.797   9.511  0.3973  1.8981 -1.7775
  513MOL0     H70776   4.866   5.578   9.087 -1.0475  0.0035 -0.9221
  513MOL0     H70777   4.730   5.516   8.885  0.1300  1.2817 -0.7150
  513MOL0     H70778   4.459   5.538   7.657  0.2365 -2.7768 -1.7268
  513MOL0     H70779   4.557   5.740   7.761 -2.1012  1.7616 -0.8716
  513MOL0     H70780   4.930   5.957   7.785  0.3374 -0.1032  4.0555
  513MOL0     H70781   5.071   6.090   7.916  1.0498  2.1015  0.6666
  513MOL0     H70782   5.029   6.201   8.177  0.7790  0.2681  2.2190
  513MOL0     H70783   5.072   6.369   8.204  1.0084  1.6297 -3.4950
  513MOL0     H70784   4.796   6.247   8.165 -0.5297 -0.7056  1.4626
  513MOL0     H70785   4.829   6.418   8.125 -1.7342 -1.0197  0.9016
  513MOL0     H70786   4.903   6.268   8.387 -0.1718 -0.7835 -0.8973
  513MOL0     H70787   4.897   6.435   8.369  1.2785 -0.8640  0.7262
  513MOL0     H70788   4.691   6.359   8.482  1.4982  0.0723  0.7647
  513MOL0     H70789   4.645   6.256   8.344  0.3156 -0.1205  1.3777
  513MOL0     H70790   4.525   6.647   8.245 -0.2839  0.3047  2.2079
  513MOL0     H70791   4.808   6.418   7.898  0.7096  0.7211 -2.3129
  513MOL0     H70792   4.613   6.409   7.780 -0.1034  0.1797  0.6471
  513MOL0     H70793   4.644   6.359   7.614 -2.4407 -2.4235 -1.2920
  513MOL0     H70794   4.540   6.265   7.721 -1.0063  1.8414 -1.7182
  514MOL0     O70795   5.034   3.559   5.354  0.1432  0.5332 -0.6186
  514MOL0     C70796   5.008   3.675   5.350 -0.3816 -0.7086 -0.0980
  514MOL0     O70797   5.104   3.771   5.353  0.5128 -0.5380 -0.4991
  514MOL0     C70798   5.236   3.733   5.363  0.1725  0.2319 -0.3804
  514MOL0     C70799   5.311   3.755   5.479 -0.2055  0.1191 -0.6961
  514MOL0     C70800   5.454   3.726   5.484 -0.3717  0.4928  0.1464
  514MOL0     C70801   5.510   3.640   5.387  0.3394  0.0829  0.4520
  514MOL0     O70802   5.637   3.600   5.386 -0.6785  0.1694  0.0494
  514MOL0     C70803   5.725   3.627   5.495  0.0828  0.2857 -0.2048
  514MOL0     C70804   5.871   3.584   5.459 -0.1466  0.0296 -0.5808
  514MOL0     C70805   5.947   3.685   5.369 -0.1790  0.5058 -0.5795
  514MOL0     C70806   5.895   3.654   5.225  0.4566  0.1677  0.4079
  514MOL0     C70807   6.016   3.648   5.131 -0.1177  0.2737 -0.5410
  514MOL0     C70808   6.070   3.497   5.102 -0.5064 -0.1282 -0.0630
  514MOL0     C70809   6.149   3.440   5.219 -0.3714 -0.2166 -0.2096
  514MOL0     C70810   6.223   3.312   5.186 -0.6513 -0.5270 -0.3332
  514MOL0     N70811   6.294   3.252   5.301 -0.5811  0.6739 -0.3945
  514MOL0     C70812   6.302   3.111   5.335  0.7628 -0.5564 -0.2347
  514MOL0     C70813   6.388   3.112   5.446 -0.0891 -0.4782  0.3802
  514MOL0     C70814   6.417   2.981   5.518  0.6927  0.3140 -0.5571
  514MOL0     C70815   6.553   2.964   5.574  0.0754  0.1964 -0.1459
  514MOL0     C70816   6.575   2.817   5.627  0.3723  0.6085 -0.0100
  514MOL0     C70817   6.626   2.700   5.537 -0.2923 -0.3225  0.2282
  514MOL0     O70818   6.734   2.760   5.472 -0.6967 -0.1464  0.1002
  514MOL0     C70819   6.858   2.776   5.536  0.6564  0.5630 -0.1309
  514MOL0     C70820   6.952   2.843   5.465 -0.3346  0.7829 -0.1772
  514MOL0     C70821   7.083   2.845   5.517  0.5319 -0.0208  0.0760
  514MOL0     C70822   7.191   2.894   5.426 -0.0613  0.5494 -0.4511
  514MOL0     C70823   7.103   2.804   5.651  0.1177  0.2454  0.5469
  514MOL0     C70824   7.238   2.814   5.705 -0.8629 -0.1721  0.5301
  514MOL0     O70825   7.333   2.729   5.652  0.3574 -0.1753 -0.2422
  514MOL0     C70826   7.458   2.716   5.706 -0.5009  0.4441 -0.3794
  514MOL0     C70827   7.483   2.660   5.834 -0.4454 -0.2247 -0.0470
  514MOL0     C70828   7.614   2.638   5.877 -0.5133  0.3227  0.5733
  514MOL0     C70829   7.720   2.691   5.794 -0.3571  1.0982 -0.5546
  514MOL0     O70830   7.855   2.694   5.831 -0.5082 -0.3978 -0.0493
  514MOL0     C70831   7.889   2.641   5.957 -0.1838  0.9794  0.0763
  514MOL0     C70832   8.031   2.690   6.014  0.0561  0.3201  0.7374
  514MOL0     C70833   8.053   2.610   6.143 -0.9543 -0.1111  0.2393
  514MOL0     C70834   7.985   2.675   6.248 -0.6647 -0.8651  0.0013
  514MOL0     C70835   8.022   2.624   6.383 -0.9426 -0.3767  0.9618
  514MOL0     C70836   7.999   2.472   6.391 -0.1603  0.8388 -0.2617
  514MOL0     C70837   8.008   2.434   6.540 -0.0092  0.7689  0.3985
  514MOL0     C70838   8.138   2.364   6.568  0.7003  0.0123  0.0199
  514MOL0    Cl70839   8.152   2.291   6.729 -0.0409  0.1568 -0.3498
  514MOL0     C70840   7.697   2.743   5.671  0.2096 -0.0467 -0.2894
  514MOL0     C70841   7.567   2.757   5.622  0.6568 -0.7651  0.3835
  514MOL0     O70842   7.251   2.873   5.811  0.6787  0.5676  0.1131
  514MOL0     C70843   7.001   2.746   5.725 -0.6493 -0.4186  0.3628
  514MOL0     C70844   6.880   2.731   5.670  0.7349 -1.0073 -0.0988
  514MOL0     N70845   6.427   3.246   5.462  0.2824  0.4175 -0.1610
  514MOL0     N70846   6.372   3.326   5.386 -0.4213 -0.1929 -0.2372
  514MOL0     C70847   5.434   3.626   5.272  0.9874  0.3048  0.5983
  514MOL0     C70848   5.301   3.672   5.258 -0.0922  0.0064  0.0875
  514MOL0     C70849   4.865   3.715   5.345 -0.5783  0.0883 -0.3039
  514MOL0     C70850   4.839   3.850   5.353 -0.1915  0.5809 -0.2128
  514MOL0     C70851   4.710   3.892   5.348  0.1501  0.3737 -0.3232
  514MOL0     C70852   4.599   3.806   5.333 -0.3861  0.5175 -0.0326
  514MOL0     O70853   4.469   3.842   5.341  0.2940 -0.1012 -0.3024
  514MOL0     C70854   4.427   3.983   5.367 -0.1244  0.1753 -0.9573
  514MOL0     C70855   4.419   4.066   5.230 -0.5662  0.0541 -0.9239
  514MOL0     C70856   4.389   4.211   5.269  0.2533  0.0636 -0.2342
  514MOL0     C70857   4.382   4.307   5.154  0.8363 -0.5124 -0.1004
  514MOL0     C70858   4.412   4.446   5.191 -0.6417 -0.3706  0.2151
  514MOL0     C70859   4.442   4.557   5.237  0.5577  0.5062 -0.1837
  514MOL0     C70860   4.622   3.668   5.336 -0.0667  0.7671  0.0838
  514MOL0     C70861   4.757   3.624   5.339 -0.1090 -0.5747 -0.1561
  514MOL0     C70862   4.771   3.471   5.345  0.5562  0.1717  0.4853
  514MOL0     H70863   5.259   3.802   5.562  0.6449 -1.9508  1.1129
  514MOL0     H70864   5.508   3.760   5.572 -0.3394 -1.1966  0.8064
  514MOL0     H70865   5.681   3.564   5.573  1.3697 -1.5291 -0.8752
  514MOL0     H70866   5.734   3.732   5.525 -0.5648  0.3672 -0.2795
  514MOL0     H70867   5.926   3.583   5.554  0.8468 -4.5331 -0.9552
  514MOL0     H70868   5.881   3.481   5.424  1.4138 -0.0579  0.0415
  514MOL0     H70869   5.932   3.790   5.397 -1.4865  0.5177 -1.2317
  514MOL0     H70870   6.055   3.671   5.379 -0.5151 -1.2850  1.0830
  514MOL0     H70871   5.828   3.568   5.220  1.6706 -0.9679  2.3050
  514MOL0     H70872   5.835   3.740   5.193  1.2755  0.6806  0.2084
  514MOL0     H70873   6.097   3.706   5.178  0.3028 -2.7457  2.9672
  514MOL0     H70874   5.982   3.698   5.040 -1.2754  0.9624  0.2466
  514MOL0     H70875   5.986   3.428   5.087 -2.6637  1.5149  3.3059
  514MOL0     H70876   6.136   3.510   5.016 -0.2318  0.6407  0.2606
  514MOL0     H70877   6.086   3.432   5.308  0.4416 -0.9816  0.3185
  514MOL0     H70878   6.231   3.510   5.236 -0.9454 -0.0222  2.1931
  514MOL0     H70879   6.145   3.244   5.151 -0.9389 -0.4544  0.1647
  514MOL0     H70880   6.298   3.323   5.106  1.4197 -0.1281  1.5614
  514MOL0     H70881   6.240   3.030   5.298  3.5849 -1.9039 -2.4004
  514MOL0     H70882   6.394   2.905   5.443 -3.0054  0.4508  0.2372
  514MOL0     H70883   6.339   2.955   5.591 -1.0951  0.8889 -2.1649
  514MOL0     H70884   6.623   2.992   5.495  2.0645 -0.7351  1.2053
  514MOL0     H70885   6.564   3.045   5.646  1.8060  2.8433 -3.1491
  514MOL0     H70886   6.651   2.824   5.705  0.9052 -1.5974 -0.2596
  514MOL0     H70887   6.489   2.796   5.691  0.6360  2.6066  1.0807
  514MOL0     H70888   6.652   2.609   5.593  0.5155 -0.1120  0.2117
  514MOL0     H70889   6.560   2.667   5.456  1.7015 -0.2380 -1.5598
  514MOL0     H70890   6.915   2.862   5.365 -0.6215 -2.3996 -0.7712
  514MOL0     H70891   7.218   2.995   5.459  2.1423 -0.5473  1.3861
  514MOL0     H70892   7.153   2.900   5.324 -2.8377 -1.7358  0.3080
  514MOL0     H70893   7.276   2.827   5.412 -0.8115 -0.5855  0.2352
  514MOL0     H70894   7.401   2.638   5.901  2.5067 -0.6877  3.7867
  514MOL0     H70895   7.633   2.595   5.974  0.1853 -1.4582 -0.3131
  514MOL0     H70896   7.816   2.663   6.035 -0.9532 -0.7056 -0.1347
  514MOL0     H70897   7.890   2.532   5.951 -1.2113  0.9106  0.9041
  514MOL0     H70898   8.113   2.671   5.944  0.9549  1.5223  1.4353
  514MOL0     H70899   8.015   2.796   6.036  1.6136  1.0360 -1.2877
  514MOL0     H70900   8.161   2.605   6.160 -1.3162 -1.0491  2.7655
  514MOL0     H70901   8.016   2.506   6.139  4.8617 -2.6270  1.7333
  514MOL0     H70902   7.879   2.650   6.238 -1.0836 -0.9760  3.3231
  514MOL0     H70903   7.997   2.784   6.258  0.4739 -1.0684  1.2555
  514MOL0     H70904   8.125   2.646   6.411 -0.9529  2.8504 -0.9275
  514MOL0     H70905   7.966   2.682   6.458 -0.8123 -0.0782  0.8323
  514MOL0     H70906   8.068   2.417   6.326  0.2648  0.9817  0.0634
  514MOL0     H70907   7.897   2.445   6.361 -1.8024  5.2837  0.5983
  514MOL0     H70908   7.927   2.368   6.573 -0.3106  0.1377 -1.4933
  514MOL0     H70909   8.015   2.518   6.610  2.3221  1.1528 -0.2095
  514MOL0     H70910   8.218   2.435   6.545  0.0721 -0.2178 -3.4116
  514MOL0     H70911   8.139   2.281   6.497 -1.1119 -1.1846  1.2948
  514MOL0     H70912   7.783   2.773   5.611  1.2509  1.7742  1.9377
  514MOL0     H70913   7.550   2.809   5.528  2.2218  0.0929  0.5524
  514MOL0     H70914   7.010   2.734   5.832  2.1140  0.4535  0.3023
  514MOL0     H70915   6.810   2.665   5.721 -0.9037  0.4151 -0.3922
  514MOL0     H70916   5.466   3.582   5.178  1.3576  3.1138 -0.6968
  514MOL0     H70917   5.240   3.657   5.170 -1.3139  1.9024  0.5629
  514MOL0     H70918   4.923   3.915   5.375  0.6891 -0.1422 -1.2975
  514MOL0     H70919   4.689   3.998   5.352 -1.2247  0.0998  0.3599
  514MOL0     H70920   4.326   3.989   5.409  0.2422 -1.7106  0.2911
  514MOL0     H70921   4.494   4.024   5.443  2.4754 -3.3118 -1.1539
  514MOL0     H70922   4.337   4.018   5.176  0.4244  0.3295 -2.7290
  514MOL0     H70923   4.513   4.053   5.177 -0.4345 -3.3304 -0.0967
  514MOL0     H70924   4.300   4.222   5.331 -0.0234 -1.6114 -0.2857
  514MOL0     H70925   4.473   4.238   5.334  2.2631 -4.3060 -0.6126
  514MOL0     H70926   4.280   4.302   5.115  1.3045 -1.3613 -1.2655
  514MOL0     H70927   4.445   4.273   5.072  1.0639 -1.4116  0.4392
  514MOL0     H70928   4.468   4.657   5.266  1.6872  0.7368 -1.8276
  514MOL0     H70929   4.534   3.605   5.348 -0.7880  2.0108  1.6975
  514MOL0     H70930   4.671   3.427   5.338 -0.4796  2.0580  2.3241
  514MOL0     H70931   4.822   3.451   5.251 -1.0725  4.9548 -1.7223
  514MOL0     H70932   4.825   3.427   5.430  0.4531 -3.0177 -0.9433
  515MOL0     O70933   2.556   2.880   7.015  0.2130 -0.4050  0.2198
  515MOL0     C70934   2.501   2.784   6.972  1.2488  0.0732 -0.2890
  515MOL0     O70935   2.538   2.714   6.865  0.4147 -0.1996 -0.5633
  515MOL0     C70936   2.662   2.747   6.812 -0.1600 -0.1110 -0.1477
  515MOL0     C70937   2.665   2.760   6.675 -0.3553  0.3900  0.5588
  515MOL0     C70938   2.785   2.801   6.614  0.1472 -0.1134 -0.7505
  515MOL0     C70939   2.905   2.801   6.684 -1.1917 -0.2255 -0.0575
  515MOL0     O70940   3.025   2.827   6.617  0.2046 -0.4254 -0.4057
  515MOL0     C70941   3.149   2.847   6.690  0.3513  0.4147  0.3120
  515MOL0     C70942   3.254   2.875   6.573 -0.1876 -0.5092 -0.1252
  515MOL0     C70943   3.400   2.892   6.626 -0.1013 -0.0549 -0.4286
  515MOL0     C70944   3.498   2.910   6.506  0.3632 -0.1196 -0.1365
  515MOL0     C70945   3.642   2.924   6.543 -0.2957  0.5428  0.4182
  515MOL0     C70946   3.705   2.786   6.560  0.0935 -0.6478 -0.6515
  515MOL0     C70947   3.856   2.804   6.574  0.1119  0.0551  0.4112
  515MOL0     C70948   3.901   2.901   6.691 -0.3799  0.0905  0.0983
  515MOL0     N70949   3.836   2.862   6.810 -0.4825 -0.4803  0.2750
  515MOL0     C70950   3.868   2.741   6.873  0.1810 -0.2713  1.3567
  515MOL0     C70951   3.804   2.741   6.987  0.3890  0.1429 -0.5971
  515MOL0     C70952   3.822   2.638   7.087  0.5875 -0.5134 -0.4992
  515MOL0     C70953   3.908   2.691   7.206 -0.3257 -0.2847 -0.1863
  515MOL0     C70954   4.057   2.718   7.170  0.6276  0.4514  0.4027
  515MOL0     C70955   4.132   2.591   7.147  0.2210  0.4665 -0.1209
  515MOL0     O70956   4.276   2.622   7.133  0.0385  0.3839 -0.2200
  515MOL0     C70957   4.334   2.704   7.035 -0.1351 -0.2521  0.3719
  515MOL0     C70958   4.293   2.707   6.900 -0.5584 -0.0105  0.5213
  515MOL0     C70959   4.363   2.775   6.803 -0.1224  1.2776 -0.7014
  515MOL0     C70960   4.282   2.769   6.677 -0.3996 -0.1658 -0.5830
  515MOL0     C70961   4.485   2.832   6.831 -0.7192  0.0396 -0.1021
  515MOL0     C70962   4.586   2.880   6.719 -0.3826 -0.2747  0.0937
  515MOL0     O70963   4.688   2.955   6.769 -0.2294  0.3240  0.6397
  515MOL0     C70964   4.804   2.987   6.686  0.0336 -0.8855  0.1826
  515MOL0     C70965   4.864   3.109   6.704  0.1216 -0.3136  0.8473
  515MOL0     C70966   4.967   3.145   6.615 -1.1345  0.4555  0.5315
  515MOL0     C70967   5.013   3.059   6.511  0.3565 -0.4722 -0.0041
  515MOL0     O70968   5.121   3.092   6.432  0.1948 -0.0929  0.3625
  515MOL0     C70969   5.166   3.229   6.428 -0.4492  0.7426  0.0063
  515MOL0     C70970   5.255   3.260   6.310  0.8367  0.3510  0.2139
  515MOL0     C70971   5.392   3.198   6.318  0.4535 -0.7918  0.0457
  515MOL0     C70972   5.476   3.222   6.196 -0.0064 -0.4810 -0.1945
  515MOL0     C70973   5.525   3.362   6.186 -0.1889  0.0799  0.3988
  515MOL0     C70974   5.649   3.383   6.093 -1.1468  1.4317 -0.0693
  515MOL0     C70975   5.610   3.372   5.943 -0.2458 -0.1696 -0.1732
  515MOL0     C70976   5.479   3.443   5.890 -0.4437 -0.1075 -0.1232
  515MOL0    Cl70977   5.468   3.630   5.910  0.2368  0.2466 -0.3856
  515MOL0     C70978   4.956   2.938   6.498  0.1248  0.1492 -0.6233
  515MOL0     C70979   4.856   2.891   6.594  0.0010  0.1076 -0.6466
  515MOL0     O70980   4.577   2.851   6.603 -0.0701 -1.3877  0.1164
  515MOL0     C70981   4.518   2.840   6.964 -0.0474  0.1985  0.3205
  515MOL0     C70982   4.448   2.772   7.063 -0.8705  0.5992 -0.2038
  515MOL0     N70983   3.729   2.860   6.996  0.0332  0.1071 -0.6035
  515MOL0     N70984   3.743   2.921   6.884  0.3363 -0.0629 -0.5635
  515MOL0     C70985   2.899   2.761   6.816 -0.1484 -0.1694  1.1904
  515MOL0     C70986   2.783   2.735   6.877  0.0654 -0.3176  0.6232
  515MOL0     C70987   2.360   2.761   7.026 -0.2373  0.6316  0.2349
  515MOL0     C70988   2.329   2.752   7.161  0.0496 -1.6532 -0.8078
  515MOL0     C70989   2.200   2.719   7.209  0.7751 -0.5155  0.4682
  515MOL0     C70990   2.098   2.709   7.117  0.0694  0.2078 -0.5053
  515MOL0     O70991   1.974   2.683   7.145 -0.4473  0.1241  0.8107
  515MOL0     C70992   1.933   2.663   7.282  0.8708 -0.3275  0.4068
  515MOL0     C70993   1.782   2.658   7.281  0.5575 -0.5092  0.4569
  515MOL0     C70994   1.719   2.683   7.413  0.3293 -0.2863 -0.6364
  515MOL0     C70995   1.673   2.821   7.443 -0.1929 -0.6800 -0.0549
  515MOL0     C70996   1.539   2.837   7.385  0.7787  0.1158 -0.0081
  515MOL0     C70997   1.425   2.861   7.353 -0.1253 -0.0546  0.1598
  515MOL0     C70998   2.131   2.692   6.980 -0.2499 -0.8945  0.0335
  515MOL0     C70999   2.259   2.723   6.930 -0.5916  0.3267  0.2812
  515MOL0     C71000   2.282   2.726   6.774  0.2334 -0.9680  0.2554
  515MOL0     H71001   2.583   2.756   6.604  0.5689  1.0994 -0.6097
  515MOL0     H71002   2.790   2.832   6.510  0.0487  4.6963  0.4781
  515MOL0     H71003   3.177   2.753   6.738  0.8487  0.0324 -0.6850
  515MOL0     H71004   3.139   2.920   6.770 -0.6801 -1.6689  2.1853
  515MOL0     H71005   3.243   2.801   6.493  0.5304 -0.1511 -0.5684
  515MOL0     H71006   3.230   2.976   6.540 -0.3613  0.0292  1.5544
  515MOL0     H71007   3.412   2.978   6.692 -2.6966  0.2212 -0.2258
  515MOL0     H71008   3.436   2.801   6.677  0.4124  0.5577  0.3266
  515MOL0     H71009   3.475   2.838   6.427  2.1862  0.5171 -1.2900
  515MOL0     H71010   3.472   3.004   6.457 -1.1406  1.0115  2.6275
  515MOL0     H71011   3.667   2.995   6.622  0.1841  0.9031 -0.0486
  515MOL0     H71012   3.689   2.967   6.454 -0.2305 -0.5678 -0.1000
  515MOL0     H71013   3.656   2.741   6.647 -2.4287  3.2401  0.1946
  515MOL0     H71014   3.698   2.727   6.468  0.7107 -2.0932  0.1946
  515MOL0     H71015   3.892   2.839   6.477  1.3972  2.6796  1.7358
  515MOL0     H71016   3.884   2.701   6.598 -1.7800 -0.6268 -0.1128
  515MOL0     H71017   4.009   2.899   6.709  0.1082 -2.4242 -2.3143
  515MOL0     H71018   3.862   3.001   6.670 -0.3267  1.0194  3.7321
  515MOL0     H71019   3.939   2.668   6.835  1.0355  0.8861  0.6513
  515MOL0     H71020   3.859   2.546   7.040  1.4304  0.0330 -0.9215
  515MOL0     H71021   3.725   2.611   7.130 -0.1371  2.5053 -0.0055
  515MOL0     H71022   3.867   2.782   7.251  0.3273  1.7377 -3.3420
  515MOL0     H71023   3.906   2.617   7.286 -1.2649 -0.1738 -0.0949
  515MOL0     H71024   4.052   2.789   7.087  0.8279 -0.6549 -0.5672
  515MOL0     H71025   4.113   2.782   7.240 -2.5278  5.3120 -0.9827
  515MOL0     H71026   4.110   2.529   7.235 -1.0621  0.3730 -0.4804
  515MOL0     H71027   4.094   2.527   7.067  0.8636 -1.2174  0.8522
  515MOL0     H71028   4.212   2.640   6.875  1.1804 -1.4492 -1.6340
  515MOL0     H71029   4.259   2.666   6.652  0.0945 -0.2399 -0.7550
  515MOL0     H71030   4.352   2.803   6.599  0.3468  0.5596  0.3831
  515MOL0     H71031   4.191   2.830   6.670 -0.7404 -0.7794 -1.9155
  515MOL0     H71032   4.843   3.178   6.785 -2.6417  0.5025 -0.4662
  515MOL0     H71033   5.020   3.238   6.624  1.9215 -0.6697 -3.2674
  515MOL0     H71034   5.079   3.295   6.429 -0.1331  1.2506  3.0569
  515MOL0     H71035   5.215   3.249   6.523 -1.3037 -0.8690  0.8397
  515MOL0     H71036   5.200   3.221   6.224 -1.5420 -0.0019  1.8076
  515MOL0     H71037   5.271   3.367   6.298 -1.6323  1.0778  2.6011
  515MOL0     H71038   5.378   3.089   6.320  1.4874 -0.9277  0.2149
  515MOL0     H71039   5.425   3.236   6.414 -3.1891  1.4087  0.6097
  515MOL0     H71040   5.412   3.197   6.111 -0.2346 -0.4475 -0.0330
  515MOL0     H71041   5.552   3.143   6.198  0.4060 -0.0778  1.9441
  515MOL0     H71042   5.442   3.425   6.152 -0.4871 -0.6631 -0.2890
  515MOL0     H71043   5.550   3.398   6.286  1.3129 -0.2952  0.1766
  515MOL0     H71044   5.731   3.314   6.114 -3.2883 -1.1225  0.5022
  515MOL0     H71045   5.697   3.481   6.101  3.2543 -0.0895 -3.6160
  515MOL0     H71046   5.588   3.269   5.915 -1.1101  0.1011 -0.5242
  515MOL0     H71047   5.698   3.410   5.891 -0.4931 -0.2517 -0.6545
  515MOL0     H71048   5.391   3.407   5.946  0.8171 -1.1869  1.2659
  515MOL0     H71049   5.463   3.418   5.785  2.4808  2.2146 -1.2309
  515MOL0     H71050   4.983   2.872   6.417  0.2247 -3.4625  2.0793
  515MOL0     H71051   4.816   2.790   6.591  2.6545 -1.0974  0.8120
  515MOL0     H71052   4.604   2.895   6.999 -0.1218  0.8562 -0.4837
  515MOL0     H71053   4.481   2.761   7.166  2.4626  1.4477 -1.0648
  515MOL0     H71054   2.982   2.775   6.884 -0.4247  3.6738  0.9898
  515MOL0     H71055   2.774   2.708   6.982  2.5476 -0.0296  0.9801
  515MOL0     H71056   2.403   2.765   7.238 -2.1106  3.6911  0.8675
  515MOL0     H71057   2.192   2.733   7.317  2.2995  3.4511  0.2230
  515MOL0     H71058   1.985   2.575   7.320  0.9813 -1.4491 -2.0954
  515MOL0     H71059   1.959   2.748   7.344 -2.7937 -0.0705  1.8469
  515MOL0     H71060   1.755   2.567   7.226  0.1620  0.1295 -0.4370
  515MOL0     H71061   1.755   2.731   7.204  3.0644 -0.8865 -0.8825
  515MOL0     H71062   1.642   2.609   7.435 -1.4057  0.7947 -2.7087
  515MOL0     H71063   1.795   2.664   7.490 -1.6218 -0.3207  1.3604
  515MOL0     H71064   1.745   2.893   7.402 -1.0765  0.1295 -0.2225
  515MOL0     H71065   1.673   2.845   7.550 -0.8966 -3.7588  0.7389
  515MOL0     H71066   1.327   2.890   7.321 -0.5102 -0.2953  1.0829
  515MOL0     H71067   2.062   2.689   6.897  1.0215  3.5689 -1.4522
  515MOL0     H71068   2.331   2.636   6.735 -1.2034 -1.6571 -0.0104
  515MOL0     H71069   2.185   2.729   6.724 -0.5903  1.4811  1.8211
  515MOL0     H71070   2.341   2.812   6.744  2.1163 -2.8182 -1.7020
  516MOL0     O71071   3.621   2.615   3.823 -0.2394 -1.0809  0.1963
  516MOL0     C71072   3.506   2.572   3.841  0.2306  0.2745  0.7579
  516MOL0     O71073   3.395   2.635   3.884 -0.6848  0.0004 -0.2763
  516MOL0     C71074   3.390   2.771   3.903  0.1218 -0.1025  0.6624
  516MOL0     C71075   3.495   2.865   3.930 -0.1884  0.5789  0.1695
  516MOL0     C71076   3.466   2.998   3.963 -0.4746  0.1847 -0.5212
  516MOL0     C71077   3.329   3.045   3.974  0.1018  0.8012  0.8352
  516MOL0     O71078   3.303   3.177   4.002 -0.0792  0.1981 -0.5821
  516MOL0     C71079   3.219   3.245   3.911 -0.4924  0.7477  0.9603
  516MOL0     C71080   3.289   3.362   3.860 -0.4806  0.0319  0.6013
  516MOL0     C71081   3.299   3.474   3.962  0.2021 -0.6006  0.4016
  516MOL0     C71082   3.177   3.565   3.977 -0.5492  0.5575  0.6325
  516MOL0     C71083   3.225   3.691   4.061  0.6120  0.4829 -0.3537
  516MOL0     C71084   3.133   3.805   4.035  0.1940  0.5460 -0.4890
  516MOL0     C71085   3.117   3.895   4.155 -0.2559 -0.0458  0.4935
  516MOL0     C71086   3.250   3.955   4.189 -0.3070 -0.5418 -0.2246
  516MOL0     N71087   3.227   4.053   4.293  0.5398 -0.9866 -0.1369
  516MOL0     C71088   3.322   4.120   4.364 -0.1620 -0.4919  1.2025
  516MOL0     C71089   3.260   4.200   4.451  0.4104  0.1627  0.3084
  516MOL0     C71090   3.328   4.311   4.529 -0.5180 -0.3970  0.5412
  516MOL0     C71091   3.324   4.456   4.464  0.6624 -0.6981  0.2184
  516MOL0     C71092   3.393   4.470   4.331 -0.4607  0.3934  0.5658
  516MOL0     C71093   3.356   4.597   4.249 -0.2157  0.5702  0.2122
  516MOL0     O71094   3.234   4.559   4.182 -0.2474  0.1432  0.7454
  516MOL0     C71095   3.155   4.658   4.126  0.2196  0.1949  0.3751
  516MOL0     C71096   3.182   4.713   3.999  0.9294  0.1051  0.3912
  516MOL0     C71097   3.105   4.810   3.943 -0.0168 -0.3018  0.4715
  516MOL0     C71098   3.127   4.837   3.799 -0.3798 -0.4500  0.1981
  516MOL0     C71099   3.008   4.876   4.022 -0.5713 -0.2609 -0.2986
  516MOL0     C71100   2.918   4.984   3.969 -0.2867 -0.6215  0.4734
  516MOL0     O71101   2.895   5.082   4.055 -0.0353  0.2743  0.0724
  516MOL0     C71102   2.804   5.174   4.022 -0.1345 -1.2433 -0.1732
  516MOL0     C71103   2.844   5.309   4.018  0.3046  0.2539  0.4395
  516MOL0     C71104   2.746   5.409   4.018  0.8653  0.3306 -0.6491
  516MOL0     C71105   2.612   5.387   4.016  0.4205  0.7194 -0.7906
  516MOL0     O71106   2.532   5.499   4.012 -0.5552  0.0562 -0.0294
  516MOL0     C71107   2.394   5.485   3.992 -0.7997  0.5153 -0.0484
  516MOL0     C71108   2.371   5.579   3.885  0.3499 -0.1460  0.0109
  516MOL0     C71109   2.455   5.546   3.758 -0.3039  0.1002 -0.3251
  516MOL0     C71110   2.429   5.666   3.655  0.1380  0.1022  0.7297
  516MOL0     C71111   2.284   5.669   3.607 -0.3416  0.3046  0.5252
  516MOL0     C71112   2.241   5.542   3.529 -1.0211  0.7904 -0.7762
  516MOL0     C71113   2.105   5.554   3.461 -0.9566 -0.2355 -0.5184
  516MOL0     C71114   2.112   5.469   3.325 -0.1385  0.0906 -0.3150
  516MOL0    Cl71115   2.123   5.295   3.360  0.3047  0.0210  0.3362
  516MOL0     C71116   2.579   5.249   4.006  0.3646  0.4727 -0.9141
  516MOL0     C71117   2.667   5.140   4.015  0.1263 -0.4329  0.2572
  516MOL0     O71118   2.891   4.987   3.849  0.3416 -0.0962  0.0335
  516MOL0     C71119   2.973   4.820   4.152 -0.0334  0.1404 -0.7505
  516MOL0     C71120   3.043   4.703   4.200 -0.8982 -0.5820  0.2093
  516MOL0     N71121   3.119   4.182   4.437 -1.7326  0.6181  1.1144
  516MOL0     N71122   3.109   4.093   4.349  1.5104  0.0369  0.0750
  516MOL0     C71123   3.232   2.954   3.952 -1.0539  0.6459 -0.1595
  516MOL0     C71124   3.257   2.821   3.924  0.5225  0.6112  1.1068
  516MOL0     C71125   3.487   2.434   3.805  0.0312  0.1382  0.5417
  516MOL0     C71126   3.355   2.382   3.751 -0.5114 -0.7370  0.0550
  516MOL0     C71127   3.342   2.251   3.716  0.1478  1.1801  0.0250
  516MOL0     C71128   3.443   2.164   3.737 -1.1008  0.3779 -0.2174
  516MOL0     O71129   3.414   2.037   3.698 -0.7394  0.3020 -0.0023
  516MOL0     C71130   3.359   1.946   3.796 -0.4514 -0.3164  0.1051
  516MOL0     C71131   3.348   1.806   3.745  0.1654 -0.0648  0.9769
  516MOL0     C71132   3.230   1.776   3.648  0.1518 -0.1649  0.4748
  516MOL0     C71133   3.098   1.738   3.716 -0.5359 -0.0626  0.1163
  516MOL0     C71134   3.118   1.612   3.788 -0.5423  0.5610  0.2615
  516MOL0     C71135   3.144   1.520   3.863 -0.5446  0.1510  0.8185
  516MOL0     C71136   3.567   2.204   3.792 -0.3732  0.2508  0.9681
  516MOL0     C71137   3.581   2.341   3.839  0.4342 -0.7567  0.1617
  516MOL0     C71138   3.705   2.380   3.913 -0.2087  0.0832  0.3092
  516MOL0     H71139   3.596   2.825   3.940 -0.1068  0.0766 -1.9807
  516MOL0     H71140   3.549   3.065   3.976  0.9214 -1.1657 -2.0180
  516MOL0     H71141   3.118   3.254   3.953 -1.2411 -0.7738 -0.3945
  516MOL0     H71142   3.199   3.187   3.820 -0.2311 -0.5181  1.6885
  516MOL0     H71143   3.385   3.316   3.835 -1.6573 -2.6230  0.5810
  516MOL0     H71144   3.250   3.400   3.765 -2.9846 -1.0394  1.1362
  516MOL0     H71145   3.329   3.437   4.060  0.8628  0.0241  0.4491
  516MOL0     H71146   3.382   3.538   3.927  0.0284 -0.8673 -0.5183
  516MOL0     H71147   3.139   3.611   3.885  1.0855  0.9316  0.1165
  516MOL0     H71148   3.095   3.508   4.023 -2.4490  1.1455 -1.7940
  516MOL0     H71149   3.327   3.713   4.029  2.0306 -2.9812  1.2454
  516MOL0     H71150   3.231   3.659   4.166 -2.6882  0.2991 -0.1101
  516MOL0     H71151   3.177   3.867   3.956  3.2206  1.3088  1.6467
  516MOL0     H71152   3.036   3.769   3.998  1.1732  0.3284 -3.0357
  516MOL0     H71153   3.077   3.849   4.246 -2.7887  1.5309  0.2629
  516MOL0     H71154   3.052   3.978   4.128 -0.6001  0.0799  1.6475
  516MOL0     H71155   3.309   3.870   4.225 -1.4378 -0.8141  1.0756
  516MOL0     H71156   3.293   3.993   4.096  0.6020 -3.7649 -1.2691
  516MOL0     H71157   3.429   4.120   4.347 -0.2599  2.0370 -0.0372
  516MOL0     H71158   3.427   4.273   4.553  0.3069 -0.3805 -2.4159
  516MOL0     H71159   3.273   4.313   4.623  1.0729 -3.4976  1.6516
  516MOL0     H71160   3.224   4.488   4.435  2.4265  3.2667 -2.4491
  516MOL0     H71161   3.363   4.533   4.531 -0.0912  0.6535 -0.8657
  516MOL0     H71162   3.499   4.464   4.356 -0.4075 -1.8719 -0.0186
  516MOL0     H71163   3.376   4.382   4.267  0.1858  1.1700 -0.7155
  516MOL0     H71164   3.328   4.676   4.319 -0.6789  1.7871 -1.2723
  516MOL0     H71165   3.437   4.624   4.180  0.7941 -0.1869  1.0828
  516MOL0     H71166   3.255   4.652   3.946  0.5212  2.5659 -3.4224
  516MOL0     H71167   3.220   4.793   3.762 -1.3547 -1.2778 -1.3589
  516MOL0     H71168   3.132   4.946   3.786 -2.2036 -0.0567  2.2138
  516MOL0     H71169   3.046   4.792   3.741  0.6584 -0.7016 -1.1113
  516MOL0     H71170   2.948   5.336   4.029  0.9466 -0.4659 -2.9046
  516MOL0     H71171   2.773   5.514   4.010  0.1504  0.3976 -2.7207
  516MOL0     H71172   2.370   5.385   3.955  0.6913  1.5243 -4.3870
  516MOL0     H71173   2.339   5.509   4.084  2.1652 -0.7441  2.2106
  516MOL0     H71174   2.266   5.576   3.854 -0.0032  1.9802  0.8579
  516MOL0     H71175   2.393   5.681   3.917 -1.4497  0.9399 -1.9230
  516MOL0     H71176   2.422   5.445   3.732  0.9689 -0.7054  1.0108
  516MOL0     H71177   2.564   5.548   3.771 -0.5995  2.9003  3.2785
  516MOL0     H71178   2.485   5.654   3.562  0.3921  1.0939  0.7421
  516MOL0     H71179   2.444   5.767   3.696 -1.2091  0.0017  1.5223
  516MOL0     H71180   2.222   5.688   3.695 -0.7103  0.6548  0.1922
  516MOL0     H71181   2.277   5.750   3.534 -0.2032  0.1709  0.3645
  516MOL0     H71182   2.229   5.456   3.595 -0.1756  0.8703 -0.5142
  516MOL0     H71183   2.326   5.509   3.468 -1.4246 -1.9012 -0.0222
  516MOL0     H71184   2.086   5.662   3.451 -0.4148  0.4875  4.1360
  516MOL0     H71185   2.018   5.519   3.517 -1.7916  0.2195 -1.4890
  516MOL0     H71186   2.201   5.496   3.267 -1.0210 -1.0187 -2.2761
  516MOL0     H71187   2.024   5.489   3.264 -0.4817 -0.7787 -0.1174
  516MOL0     H71188   2.474   5.222   4.005  0.6431 -0.8658  0.7915
  516MOL0     H71189   2.637   5.036   4.016 -2.2300  0.0329 -3.0809
  516MOL0     H71190   2.882   4.858   4.199 -0.7924 -0.0993 -1.9666
  516MOL0     H71191   3.018   4.656   4.294 -1.6486  0.4407  0.5351
  516MOL0     H71192   3.129   2.982   3.972 -0.3312  3.5594 -0.0983
  516MOL0     H71193   3.175   2.753   3.946 -1.5258  3.1639  1.7873
  516MOL0     H71194   3.278   2.458   3.749 -0.3266 -0.5249 -2.7275
  516MOL0     H71195   3.249   2.212   3.677 -0.5987  0.1469  2.6248
  516MOL0     H71196   3.422   1.936   3.885 -2.6148 -0.5372  1.6999
  516MOL0     H71197   3.266   1.988   3.836 -0.6955 -2.2632  1.7505
  516MOL0     H71198   3.343   1.742   3.834  0.3830  1.7490  2.3439
  516MOL0     H71199   3.444   1.787   3.696 -0.2618  1.2545 -0.4443
  516MOL0     H71200   3.209   1.865   3.587 -2.5029 -0.6611  0.5375
  516MOL0     H71201   3.270   1.700   3.580 -0.2133  1.1707 -1.2938
  516MOL0     H71202   3.027   1.715   3.636 -0.2123 -1.2513  0.1533
  516MOL0     H71203   3.063   1.821   3.777 -0.6805 -2.2152  3.1739
  516MOL0     H71204   3.165   1.449   3.939  1.3308  0.6985  0.8510
  516MOL0     H71205   3.643   2.130   3.816  0.5719  0.8357 -0.1093
  516MOL0     H71206   3.786   2.413   3.848  1.7220 -2.3665  1.3174
  516MOL0     H71207   3.692   2.457   3.990  0.2255  2.1756 -1.6082
  516MOL0     H71208   3.738   2.289   3.964 -0.5517 -0.4640 -0.4376
  517MOL0     O71209   9.962   4.028  11.449  0.1049 -0.3827 -0.2214
  517MOL0     C71210   9.958   3.960  11.555  0.4288  0.1875  0.2522
  517MOL0     O71211   9.989   3.831  11.563  0.2980 -0.2404 -0.0878
  517MOL0     C71212  10.088   3.777  11.489  0.3429 -0.3440 -0.3204
  517MOL0     C71213  10.190   3.848  11.421 -0.2738 -0.0357  0.0425
  517MOL0     C71214  10.284   3.771  11.347 -0.0937 -0.3719  0.5771
  517MOL0     C71215  10.275   3.638  11.332  0.2797  0.8085 -0.4551
  517MOL0     O71216  10.380   3.580  11.270  0.3550 -0.6508  1.0437
  517MOL0     C71217  10.387   3.441  11.266 -0.1378  0.5012 -0.9096
  517MOL0     C71218  10.509   3.393  11.178 -0.3392 -0.2560  0.0593
  517MOL0     C71219  10.580   3.265  11.233 -0.4204 -0.2123 -0.0154
  517MOL0     C71220  10.681   3.208  11.125 -0.2629  0.4961 -0.4079
  517MOL0     C71221  10.790   3.309  11.079  0.5283 -0.4627  0.2114
  517MOL0     C71222  10.887   3.357  11.192  0.0332 -0.5637 -0.5779
  517MOL0     C71223  11.000   3.251  11.211  0.1194 -0.9124  0.2854
  517MOL0     C71224  11.063   3.255  11.350  0.4567  1.4567  0.6795
  517MOL0     N71225  11.131   3.374  11.396 -1.3060  0.1134  0.5833
  517MOL0     C71226  11.260   3.405  11.366 -0.2248 -0.7805 -0.3865
  517MOL0     C71227  11.282   3.537  11.397  0.0011 -0.0057  0.0852
  517MOL0     C71228  11.400   3.630  11.390  0.0179  0.5955 -0.5217
  517MOL0     C71229  11.372   3.739  11.284  0.1031  0.1669  0.2142
  517MOL0     C71230  11.491   3.817  11.220  0.3296  0.1914 -0.0273
  517MOL0     C71231  11.435   3.937  11.140 -0.0457  1.0310  0.1169
  517MOL0     O71232  11.523   3.978  11.040 -0.5061 -1.0282 -0.0662
  517MOL0     C71233  11.649   4.035  11.064  0.4555 -0.8082  0.1230
  517MOL0     C71234  11.694   4.085  11.181  0.3903 -0.4682 -0.6845
  517MOL0     C71235  11.822   4.139  11.198  0.1914  0.5284 -0.2346
  517MOL0     C71236  11.862   4.188  11.336  0.9291  0.2492 -0.1055
  517MOL0     C71237  11.911   4.148  11.086 -0.1972 -0.3170  0.9560
  517MOL0     C71238  12.055   4.189  11.099  0.1681  0.2498  0.6398
  517MOL0     O71239  12.126   4.179  10.984 -0.4882 -0.1621 -0.1393
  517MOL0     C71240  12.269   4.176  10.971 -0.2302 -0.0842 -0.1273
  517MOL0     C71241  12.321   4.179  10.837  0.1709  0.1935  0.5289
  517MOL0     C71242  12.461   4.146  10.812 -0.1881  0.4537  0.2357
  517MOL0     C71243  12.548   4.109  10.915  0.1062 -0.1999  0.7620
  517MOL0     O71244  12.684   4.080  10.889  0.1810 -0.4126 -0.1251
  517MOL0     C71245  12.772   4.042  10.989 -1.0030 -0.0186 -0.7260
  517MOL0     C71246  12.875   3.942  10.925  0.5312 -1.1536 -0.5006
  517MOL0     C71247  12.981   4.013  10.847 -0.0397  0.2492  1.2593
  517MOL0     C71248  13.087   3.898  10.829  0.3749  0.0696 -0.2838
  517MOL0     C71249  13.215   3.936  10.745  0.8114 -0.7839  0.6910
  517MOL0     C71250  13.300   3.818  10.744  0.1695  0.9033 -0.4277
  517MOL0     C71251  13.429   3.839  10.667  0.9425 -0.8320 -0.0512
  517MOL0     C71252  13.535   3.738  10.702 -0.5174 -0.4728  0.3898
  517MOL0    Cl71253  13.697   3.798  10.635 -0.1755 -0.0541  0.1458
  517MOL0     C71254  12.496   4.127  11.045  0.9731  0.3638 -0.5532
  517MOL0     C71255  12.362   4.155  11.074  0.9180 -0.2299  0.5975
  517MOL0     O71256  12.107   4.224  11.203  0.1723 -0.3152  0.0963
  517MOL0     C71257  11.862   4.102  10.964 -0.4425  0.1088  0.4121
  517MOL0     C71258  11.740   4.036  10.960 -0.0569 -0.7026  0.9371
  517MOL0     N71259  11.172   3.587  11.446 -0.0922 -0.3398 -0.6187
  517MOL0     N71260  11.075   3.488  11.438  0.0550 -0.0184  0.3352
  517MOL0     C71261  10.168   3.569  11.388 -0.8093 -0.4397 -0.4691
  517MOL0     C71262  10.081   3.640  11.472  0.8784 -0.5118 -0.0320
  517MOL0     C71263   9.920   4.019  11.691  0.0052 -0.0105  0.0501
  517MOL0     C71264   9.886   3.932  11.803  0.2655 -0.1588 -0.2966
  517MOL0     C71265   9.839   3.985  11.921 -0.6141 -1.3380  0.4882
  517MOL0     C71266   9.825   4.126  11.936 -0.1397  0.2529 -0.0891
  517MOL0     O71267   9.780   4.184  12.051  0.3280  0.5589 -0.1220
  517MOL0     C71268   9.742   4.323  12.057 -0.8945  0.6254  0.6689
  517MOL0     C71269   9.733   4.365  12.198 -0.6710  0.5341  0.0102
  517MOL0     C71270   9.652   4.280  12.294  0.8929 -0.0617 -0.6607
  517MOL0     C71271   9.520   4.232  12.247  0.1126 -0.9181 -0.4447
  517MOL0     C71272   9.431   4.344  12.208 -0.0207 -1.3098  0.0702
  517MOL0     C71273   9.371   4.423  12.146  0.3738  1.0545  0.5747
  517MOL0     C71274   9.868   4.206  11.829  0.3332 -0.6123  0.9067
  517MOL0     C71275   9.923   4.156  11.713  0.6038  0.8798  0.3603
  517MOL0     C71276   9.987   4.251  11.615  0.0913  0.5712  0.2110
  517MOL0     H71277  10.204   3.955  11.430  1.4162 -0.1766 -0.3752
  517MOL0     H71278  10.374   3.815  11.303 -0.6474  0.3694  0.1728
  517MOL0     H71279  10.299   3.386  11.230  1.5953 -2.2212 -1.3193
  517MOL0     H71280  10.415   3.411  11.367  2.0641  0.0845 -1.5868
  517MOL0     H71281  10.485   3.380  11.073 -0.6311 -2.9603  0.4046
  517MOL0     H71282  10.572   3.482  11.190 -0.5045 -0.3023  1.5023
  517MOL0     H71283  10.638   3.292  11.322  0.0173 -0.9659 -0.0594
  517MOL0     H71284  10.507   3.184  11.236  1.9232 -2.8747 -3.9786
  517MOL0     H71285  10.728   3.115  11.159  1.8093  1.2476 -1.0668
  517MOL0     H71286  10.623   3.186  11.035 -1.4939 -1.2082  0.7516
  517MOL0     H71287  10.739   3.398  11.041  2.4761  1.5360  1.9902
  517MOL0     H71288  10.848   3.267  10.996 -0.2549  0.5511 -0.8726
  517MOL0     H71289  10.923   3.453  11.155  1.7749  0.3020  2.9236
  517MOL0     H71290  10.843   3.382  11.289  1.6308  0.4527 -0.0879
  517MOL0     H71291  11.076   3.286  11.141 -0.2270  0.3414  0.4969
  517MOL0     H71292  10.973   3.147  11.194 -1.0856 -0.4431 -0.8955
  517MOL0     H71293  10.989   3.220  11.423 -0.2581  1.4896 -0.0149
  517MOL0     H71294  11.143   3.181  11.343  0.3576  1.4941 -1.2430
  517MOL0     H71295  11.336   3.339  11.324  0.0438 -0.2862 -0.7001
  517MOL0     H71296  11.495   3.578  11.371  1.0405  0.9829  2.8872
  517MOL0     H71297  11.408   3.675  11.489  0.9787 -2.7302  1.0624
  517MOL0     H71298  11.306   3.705  11.203  0.0571  0.3565  0.1707
  517MOL0     H71299  11.309   3.809  11.339 -1.9764 -0.0109 -1.7743
  517MOL0     H71300  11.555   3.858  11.298 -0.0523  1.1084 -0.1880
  517MOL0     H71301  11.550   3.746  11.161  0.8099  1.3938 -1.0322
  517MOL0     H71302  11.341   3.905  11.094  0.0107  0.1625  0.5787
  517MOL0     H71303  11.416   4.017  11.212 -0.3499  0.8678  0.2219
  517MOL0     H71304  11.628   4.095  11.267  1.0052  4.1033 -0.5263
  517MOL0     H71305  11.861   4.297  11.339 -1.8848  0.3883 -2.4925
  517MOL0     H71306  11.960   4.141  11.355 -0.3101 -2.8250 -0.6989
  517MOL0     H71307  11.796   4.148  11.413 -0.4769 -1.9120 -2.2957
  517MOL0     H71308  12.253   4.201  10.755  2.3674 -0.6042 -1.6263
  517MOL0     H71309  12.514   4.130  10.718  0.5318 -0.5859  0.8052
  517MOL0     H71310  12.828   4.128  11.028  1.5194 -0.6780 -2.6227
  517MOL0     H71311  12.724   3.988  11.071 -1.6863  0.3505 -0.8767
  517MOL0     H71312  12.916   3.872  10.998 -3.2906 -2.0116  1.0886
  517MOL0     H71313  12.813   3.886  10.853 -1.3567 -0.2674  0.3668
  517MOL0     H71314  13.036   4.090  10.902  1.1986  0.3577 -0.0651
  517MOL0     H71315  12.942   4.047  10.750 -0.5310 -0.1096  1.3258
  517MOL0     H71316  13.035   3.818  10.775  0.7151  1.8309 -3.4698
  517MOL0     H71317  13.117   3.865  10.929  3.4933  0.4634 -0.9715
  517MOL0     H71318  13.182   3.950  10.642 -0.2328 -2.8708  0.6867
  517MOL0     H71319  13.286   4.014  10.777  0.2031  1.3142 -2.5975
  517MOL0     H71320  13.245   3.731  10.708  0.5802  0.6476 -0.4467
  517MOL0     H71321  13.332   3.795  10.846  1.9143  3.0938 -0.3889
  517MOL0     H71322  13.470   3.937  10.694 -0.6347 -0.2578  0.3480
  517MOL0     H71323  13.407   3.854  10.561  2.3874  1.4979 -0.0967
  517MOL0     H71324  13.507   3.641  10.659 -1.7785 -1.5912  3.4667
  517MOL0     H71325  13.539   3.737  10.811  0.6890  1.0795  0.3891
  517MOL0     H71326  12.557   4.118  11.135 -0.2915 -1.8709  0.1618
  517MOL0     H71327  12.334   4.144  11.178  1.3709  0.4852  0.7991
  517MOL0     H71328  11.921   4.112  10.874 -0.3498  0.3334  0.4968
  517MOL0     H71329  11.722   4.001  10.859  0.5738 -0.4611  0.7351
  517MOL0     H71330  10.156   3.461  11.389 -1.6120 -0.3592 -0.4483
  517MOL0     H71331  10.001   3.598  11.531  2.0645 -2.4824  0.2745
  517MOL0     H71332   9.886   3.824  11.795 -1.7413 -0.3644  1.3343
  517MOL0     H71333   9.803   3.920  11.999  1.5090 -1.0658  1.7876
  517MOL0     H71334   9.818   4.384  12.009  0.2613 -2.8370 -2.3783
  517MOL0     H71335   9.651   4.331  11.997 -1.0351  0.0391  0.8020
  517MOL0     H71336   9.703   4.470  12.192 -0.4985  0.5403 -0.9352
  517MOL0     H71337   9.837   4.371  12.230 -0.6060  1.9138 -0.3977
  517MOL0     H71338   9.718   4.196  12.317  2.3029  1.1263 -0.2193
  517MOL0     H71339   9.636   4.348  12.378  1.8708  1.5434 -1.7024
  517MOL0     H71340   9.465   4.171  12.319 -0.8224  0.9376  0.4720
  517MOL0     H71341   9.543   4.169  12.160  1.6443  1.5618 -1.9455
  517MOL0     H71342   9.305   4.488  12.092  0.2634 -0.7343 -1.5889
  517MOL0     H71343   9.875   4.314  11.834  1.3142 -0.7304  3.2111
  517MOL0     H71344  10.093   4.228  11.598  0.1585 -0.1261  1.4194
  517MOL0     H71345   9.943   4.248  11.515  1.6907 -1.9917 -0.5171
  517MOL0     H71346   9.979   4.352  11.656  1.4530  0.6558  0.3279
  518MOL0     O71347   5.556   8.020   1.414  0.1089 -0.5537 -0.2375
  518MOL0     C71348   5.599   8.041   1.523 -1.0658 -0.7501 -0.6736
  518MOL0     O71349   5.550   7.988   1.637  0.1291  0.1721 -0.3688
  518MOL0     C71350   5.445   7.904   1.615  0.5959  0.2399  0.3924
  518MOL0     C71351   5.325   7.953   1.575  0.4779  0.8803  0.0738
  518MOL0     C71352   5.210   7.867   1.550 -0.3729  0.0173 -0.5165
  518MOL0     C71353   5.225   7.731   1.580  0.8631 -0.1837 -0.8920
  518MOL0     O71354   5.111   7.656   1.553  0.5328 -0.0842 -0.0095
  518MOL0     C71355   5.100   7.523   1.618  0.1841  0.0853  0.3428
  518MOL0     C71356   5.061   7.530   1.763 -0.3377 -0.0711 -0.3149
  518MOL0     C71357   4.947   7.627   1.793  0.2758 -0.4557  0.5886
  518MOL0     C71358   4.900   7.638   1.940 -0.5916 -0.0810  0.0233
  518MOL0     C71359   4.978   7.748   2.011 -0.8713 -0.5773 -0.5736
  518MOL0     C71360   4.915   7.775   2.145 -0.2106  0.8951 -0.1958
  518MOL0     C71361   5.022   7.867   2.214 -0.1308  1.0298 -0.4712
  518MOL0     C71362   4.974   7.946   2.330 -1.1861  0.0007 -0.2071
  518MOL0     N71363   4.925   7.861   2.437 -0.3456 -0.3495 -0.1374
  518MOL0     C71364   5.014   7.802   2.535  0.0822 -0.2853 -0.3866
  518MOL0     C71365   4.931   7.755   2.628  0.2104 -0.3175 -0.5671
  518MOL0     C71366   4.982   7.688   2.754  0.1721  0.1330 -0.9149
  518MOL0     C71367   4.872   7.645   2.856 -0.2625 -0.0010 -0.0292
  518MOL0     C71368   4.806   7.775   2.926 -0.3683  0.4347  0.1228
  518MOL0     C71369   4.711   7.738   3.035  0.6788  0.4744 -0.1930
  518MOL0     O71370   4.595   7.668   2.992 -0.5481  0.6562 -0.8874
  518MOL0     C71371   4.548   7.568   3.072  0.3236  0.0569  0.9934
  518MOL0     C71372   4.630   7.486   3.159  0.1662 -0.4258 -0.2323
  518MOL0     C71373   4.568   7.393   3.241 -0.6587 -0.3828 -0.9747
  518MOL0     C71374   4.655   7.309   3.337  0.8489 -0.1661 -0.5209
  518MOL0     C71375   4.431   7.356   3.229 -0.0276  0.2971 -0.0628
  518MOL0     C71376   4.369   7.258   3.321  0.8872 -1.1529  0.4745
  518MOL0     O71377   4.374   7.288   3.450 -0.1657  0.2339  0.2940
  518MOL0     C71378   4.321   7.197   3.544  0.2450  0.4656  0.1727
  518MOL0     C71379   4.186   7.187   3.577 -1.4339 -0.3973  0.4494
  518MOL0     C71380   4.135   7.118   3.687 -0.8985  0.0538 -0.4401
  518MOL0     C71381   4.233   7.043   3.759  0.2362  0.2167  0.2899
  518MOL0     O71382   4.208   6.949   3.859  0.5992 -0.6718  0.0888
  518MOL0     C71383   4.078   6.896   3.888  0.3057  0.2411  0.2047
  518MOL0     C71384   4.065   6.750   3.832 -0.2540 -0.5624  0.6394
  518MOL0     C71385   3.928   6.696   3.857  0.0374 -0.0417  0.1115
  518MOL0     C71386   3.808   6.773   3.801  0.0264  1.0228  0.5510
  518MOL0     C71387   3.679   6.700   3.814 -0.2773  0.4913  0.1225
  518MOL0     C71388   3.549   6.780   3.782 -0.3050  0.1260  0.0378
  518MOL0     C71389   3.427   6.682   3.800 -0.0119  0.3323 -0.6357
  518MOL0     C71390   3.294   6.742   3.800  0.0616 -0.1129 -0.2723
  518MOL0    Cl71391   3.157   6.629   3.821 -0.3238 -0.1009 -0.2655
  518MOL0     C71392   4.372   7.047   3.723  0.1226 -0.5527 -0.4426
  518MOL0     C71393   4.421   7.127   3.620  0.7315 -0.4863  1.9360
  518MOL0     O71394   4.324   7.156   3.272 -0.6066 -0.8142  0.5079
  518MOL0     C71395   4.364   7.422   3.126  0.7734 -0.2467 -0.3137
  518MOL0     C71396   4.414   7.523   3.048 -0.1505  0.5846 -0.1004
  518MOL0     N71397   4.805   7.777   2.581  0.1027  0.5216  1.0340
  518MOL0     N71398   4.796   7.842   2.470 -0.5762  0.6158 -0.3809
  518MOL0     C71399   5.352   7.680   1.628  0.7601 -0.5930 -0.2670
  518MOL0     C71400   5.462   7.766   1.647 -0.2781  0.0133 -0.5259
  518MOL0     C71401   5.716   8.136   1.553 -1.0515  0.0792  0.8939
  518MOL0     C71402   5.790   8.116   1.670  0.7471  0.7621 -1.0581
  518MOL0     C71403   5.891   8.203   1.711  0.3077 -0.1467 -0.0488
  518MOL0     C71404   5.931   8.307   1.629 -0.3863  1.1066 -0.2253
  518MOL0     O71405   6.038   8.386   1.676 -0.2179  0.0680 -0.7771
  518MOL0     C71406   6.089   8.506   1.615  0.1896 -0.2251  0.1734
  518MOL0     C71407   6.207   8.554   1.705 -0.1108  0.1061 -0.0656
  518MOL0     C71408   6.322   8.447   1.706 -0.5166 -0.2056  0.5601
  518MOL0     C71409   6.442   8.496   1.787  0.6472 -0.1953  0.0043
  518MOL0     C71410   6.526   8.577   1.708 -0.8856 -0.5223  0.1706
  518MOL0     C71411   6.578   8.644   1.621 -0.8014 -0.2275 -0.4195
  518MOL0     C71412   5.857   8.333   1.511 -0.0133  0.3203  0.3112
  518MOL0     C71413   5.746   8.259   1.482  0.3802 -0.1237  0.1958
  518MOL0     C71414   5.673   8.300   1.363 -0.7732  0.2708  0.0436
  518MOL0     H71415   5.318   8.060   1.559  1.2910  0.7890 -1.0020
  518MOL0     H71416   5.123   7.913   1.504 -1.8403  0.6199  2.6027
  518MOL0     H71417   5.186   7.458   1.604  0.5105 -0.1863  3.2034
  518MOL0     H71418   5.024   7.459   1.572 -1.0232  1.0263  0.9729
  518MOL0     H71419   5.040   7.426   1.791 -4.2920 -0.8189 -4.7975
  518MOL0     H71420   5.144   7.567   1.824 -0.0557 -2.8936  1.1715
  518MOL0     H71421   4.978   7.725   1.755  0.6323 -1.0107 -0.6209
  518MOL0     H71422   4.861   7.599   1.732 -0.5001  1.9343  0.5176
  518MOL0     H71423   4.795   7.668   1.939 -0.4191  0.5101 -0.6302
  518MOL0     H71424   4.894   7.541   1.992  1.8810 -0.7172 -0.7339
  518MOL0     H71425   4.974   7.841   1.952 -2.5193 -1.1122 -1.3700
  518MOL0     H71426   5.083   7.721   2.022 -0.7299 -1.0481 -2.6822
  518MOL0     H71427   4.813   7.814   2.154 -1.2979 -2.1240  2.3188
  518MOL0     H71428   4.904   7.683   2.202  0.2504 -0.0685 -1.6124
  518MOL0     H71429   5.061   7.943   2.145  2.3011  0.0020 -0.3224
  518MOL0     H71430   5.108   7.807   2.242  0.7281  1.5826 -1.8256
  518MOL0     H71431   5.055   7.999   2.381 -0.4613 -1.6858  0.4711
  518MOL0     H71432   4.896   8.019   2.310 -2.5640 -0.1785  3.5795
  518MOL0     H71433   5.123   7.804   2.527  0.2914  4.7224  0.6945
  518MOL0     H71434   5.038   7.767   2.803 -1.2948  0.8617 -0.3474
  518MOL0     H71435   5.036   7.595   2.734  2.6523  1.3828 -0.4383
  518MOL0     H71436   4.787   7.598   2.807  0.0305 -1.4278  0.7654
  518MOL0     H71437   4.914   7.572   2.927  0.3936  1.9692  1.7056
  518MOL0     H71438   4.886   7.829   2.977  1.3208 -1.9111  0.1543
  518MOL0     H71439   4.762   7.833   2.845 -0.1137 -0.5782 -0.7752
  518MOL0     H71440   4.761   7.677   3.112 -1.7021 -4.8812 -2.3451
  518MOL0     H71441   4.679   7.824   3.094 -0.4986 -0.0151 -0.0762
  518MOL0     H71442   4.738   7.494   3.165  0.3839 -2.4524 -0.5252
  518MOL0     H71443   4.761   7.306   3.310  0.5508 -0.4803 -1.6849
  518MOL0     H71444   4.630   7.203   3.343  0.6301 -0.0940 -0.0982
  518MOL0     H71445   4.648   7.335   3.443 -3.4133 -2.0055 -0.1558
  518MOL0     H71446   4.116   7.243   3.515 -2.0807  0.7342  2.1436
  518MOL0     H71447   4.028   7.125   3.705 -0.8366 -2.3519  1.3721
  518MOL0     H71448   4.056   6.900   3.995  2.2299 -1.6114  0.7598
  518MOL0     H71449   4.001   6.965   3.853  0.0266  0.1634  0.6599
  518MOL0     H71450   4.082   6.745   3.724 -1.8858  1.5823  0.2145
  518MOL0     H71451   4.145   6.686   3.871  0.4881 -2.3564 -3.3050
  518MOL0     H71452   3.908   6.681   3.963 -0.3670  1.4694  0.2778
  518MOL0     H71453   3.933   6.598   3.810 -0.3549  0.8059 -1.7867
  518MOL0     H71454   3.819   6.780   3.692 -2.0841  3.1943  0.3902
  518MOL0     H71455   3.803   6.875   3.839  3.3549  1.2126  0.7666
  518MOL0     H71456   3.675   6.615   3.745  0.5772  2.2384 -2.1765
  518MOL0     H71457   3.670   6.668   3.919 -0.8238  2.7379  0.8138
  518MOL0     H71458   3.557   6.820   3.680 -2.6163  1.2645  0.2411
  518MOL0     H71459   3.536   6.862   3.853  0.1753  0.3710 -0.1508
  518MOL0     H71460   3.420   6.626   3.894 -0.8185  4.3114  1.9167
  518MOL0     H71461   3.432   6.605   3.722 -0.7050 -2.1184  1.5873
  518MOL0     H71462   3.270   6.818   3.725 -5.5714  0.9695  2.0618
  518MOL0     H71463   3.288   6.807   3.889  2.5863  0.7207 -0.6515
  518MOL0     H71464   4.441   6.974   3.765  2.3686  1.2249 -0.8242
  518MOL0     H71465   4.524   7.127   3.584 -0.6526  1.9756 -2.8425
  518MOL0     H71466   4.262   7.395   3.103  0.4748 -0.3753  1.0834
  518MOL0     H71467   4.344   7.576   2.984 -1.8931 -0.6820  0.6855
  518MOL0     H71468   5.359   7.575   1.653 -0.6819  0.2300  4.8238
  518MOL0     H71469   5.560   7.727   1.671 -0.6303 -0.7341 -0.2635
  518MOL0     H71470   5.773   8.028   1.730  1.2607  0.5786 -1.1800
  518MOL0     H71471   5.933   8.202   1.811  0.0279 -0.5756  0.0663
  518MOL0     H71472   6.114   8.480   1.512 -0.1757 -0.4219  0.1373
  518MOL0     H71473   6.009   8.581   1.616 -0.6175 -1.0684  1.6875
  518MOL0     H71474   6.168   8.563   1.806 -2.6578 -0.9630 -0.8816
  518MOL0     H71475   6.235   8.650   1.659 -2.4683  0.0529 -1.7998
  518MOL0     H71476   6.290   8.353   1.752 -0.0267  0.3995  2.2122
  518MOL0     H71477   6.352   8.424   1.604  0.8340  2.0867  0.3580
  518MOL0     H71478   6.505   8.415   1.823  0.6239 -1.3636 -2.3746
  518MOL0     H71479   6.406   8.568   1.861  0.1988 -0.4154  0.0024
  518MOL0     H71480   6.637   8.703   1.553 -1.7668  0.1630 -0.9393
  518MOL0     H71481   5.880   8.415   1.444  0.9595 -1.4861 -1.7031
  518MOL0     H71482   5.699   8.395   1.316 -1.0590  0.3243 -0.0088
  518MOL0     H71483   5.694   8.218   1.293  2.1585  1.3651 -0.4987
  518MOL0     H71484   5.565   8.296   1.382 -0.6460  0.1617  0.7733
  519MOL0     O71485   4.930   1.328   4.527  0.4380 -0.1148 -0.1089
  519MOL0     C71486   4.821   1.357   4.577  0.1463 -0.5127  0.4249
  519MOL0     O71487   4.801   1.389   4.712  0.1815 -0.0197 -0.5077
  519MOL0     C71488   4.910   1.399   4.789 -0.8250  0.3777  0.6549
  519MOL0     C71489   4.988   1.509   4.796 -0.1539 -0.6408 -0.2253
  519MOL0     C71490   5.103   1.524   4.873  0.4208 -0.2467 -0.1160
  519MOL0     C71491   5.139   1.424   4.965  0.5127 -0.1663  0.7520
  519MOL0     O71492   5.245   1.417   5.045 -0.1822  0.0996 -0.5664
  519MOL0     C71493   5.335   1.524   5.047 -0.1298  0.8073 -0.2304
  519MOL0     C71494   5.427   1.507   5.159  0.0377  0.1509  0.0157
  519MOL0     C71495   5.528   1.617   5.172  0.1094  0.1823  0.2940
  519MOL0     C71496   5.630   1.581   5.287  0.4151 -0.1141 -0.7946
  519MOL0     C71497   5.724   1.699   5.299 -0.3459  0.8809  0.1782
  519MOL0     C71498   5.837   1.692   5.195 -0.3448  0.6088 -0.3683
  519MOL0     C71499   5.930   1.809   5.213  0.2853  0.8914 -0.7813
  519MOL0     C71500   6.067   1.789   5.148 -0.0476  0.5555 -0.4202
  519MOL0     N71501   6.064   1.812   5.011  0.2441  0.0222  0.6358
  519MOL0     C71502   6.025   1.718   4.920  0.5802 -0.4413  0.5930
  519MOL0     C71503   6.032   1.779   4.795  0.3028 -0.1235 -1.1050
  519MOL0     C71504   5.996   1.709   4.670 -0.4795 -0.1942 -1.4138
  519MOL0     C71505   6.111   1.639   4.607 -0.5987 -0.5472 -1.2356
  519MOL0     C71506   6.212   1.740   4.543 -0.4518  0.6369 -0.4110
  519MOL0     C71507   6.351   1.675   4.501  1.2703 -0.4169  1.0466
  519MOL0     O71508   6.436   1.771   4.453  0.0107 -0.0130 -0.9198
  519MOL0     C71509   6.562   1.760   4.503  0.4703 -0.0368 -1.3996
  519MOL0     C71510   6.647   1.660   4.467 -0.2180  0.2724  0.7684
  519MOL0     C71511   6.774   1.648   4.517 -0.4093  0.1149  0.1805
  519MOL0     C71512   6.847   1.519   4.489 -1.1391  0.0232  0.2744
  519MOL0     C71513   6.827   1.747   4.604 -1.4816  0.0335 -0.0890
  519MOL0     C71514   6.959   1.740   4.659 -0.4309  0.2552  0.0574
  519MOL0     O71515   7.046   1.835   4.613  0.5767  0.2314 -0.2896
  519MOL0     C71516   7.182   1.811   4.638 -0.6702 -0.6439 -0.2051
  519MOL0     C71517   7.271   1.735   4.557  0.3721 -0.3305 -0.0850
  519MOL0     C71518   7.408   1.730   4.597 -0.6216 -0.0785  0.4330
  519MOL0     C71519   7.452   1.804   4.706 -1.2938  0.5453  0.2663
  519MOL0     O71520   7.577   1.794   4.762 -0.4762  0.2304  0.0438
  519MOL0     C71521   7.689   1.831   4.674 -0.3060  0.1471  0.1870
  519MOL0     C71522   7.827   1.811   4.746 -0.4316  0.2015  0.0788
  519MOL0     C71523   7.859   1.913   4.851 -0.5789  0.4803  1.2286
  519MOL0     C71524   7.965   1.868   4.958  0.6326 -0.7309 -0.5879
  519MOL0     C71525   7.989   1.989   5.050 -0.3128  0.0183 -0.0800
  519MOL0     C71526   8.068   1.958   5.179  0.6028 -0.2839 -0.4563
  519MOL0     C71527   8.072   2.077   5.279  0.8212 -0.3512  0.7412
  519MOL0     C71528   8.157   2.056   5.403  0.3334 -0.3239  0.6984
  519MOL0    Cl71529   8.319   1.998   5.346 -0.2771  0.0576 -0.1396
  519MOL0     C71530   7.357   1.873   4.783 -0.2605 -0.0665  0.1060
  519MOL0     C71531   7.224   1.875   4.752 -0.1119  0.1847  0.1728
  519MOL0     O71532   6.987   1.653   4.728 -0.2222  0.8325 -0.0792
  519MOL0     C71533   6.745   1.859   4.639 -0.4642  0.7644 -0.2795
  519MOL0     C71534   6.611   1.863   4.587 -0.0667  0.7339  0.2556
  519MOL0     N71535   6.067   1.907   4.819 -0.2479  0.4151 -0.4030
  519MOL0     N71536   6.099   1.928   4.944  0.7084  0.0942  0.4275
  519MOL0     C71537   5.046   1.312   4.963  0.0350 -0.1839  0.0292
  519MOL0     C71538   4.937   1.297   4.876  1.0311  0.6801  1.0208
  519MOL0     C71539   4.698   1.347   4.486 -0.2748  0.0851  0.8952
  519MOL0     C71540   4.578   1.392   4.542  0.8019 -0.8804 -0.3980
  519MOL0     C71541   4.456   1.379   4.481  0.5961  0.0496 -0.3175
  519MOL0     C71542   4.448   1.315   4.360  0.2384 -0.2942  0.0517
  519MOL0     O71543   4.326   1.282   4.314 -0.2798 -0.1327 -0.5277
  519MOL0     C71544   4.311   1.192   4.197  0.5328 -0.0778  0.6727
  519MOL0     C71545   4.167   1.185   4.168  0.3816 -0.7187 -0.1968
  519MOL0     C71546   4.118   1.310   4.100 -0.6121 -1.0187  0.3540
  519MOL0     C71547   3.969   1.319   4.065  0.6884  0.1833 -0.2671
  519MOL0     C71548   3.926   1.202   3.984  0.0892  0.2508  0.2375
  519MOL0     C71549   3.872   1.103   3.948  0.7090 -0.3759  1.2395
  519MOL0     C71550   4.568   1.286   4.287  0.4766  0.3119  0.0823
  519MOL0     C71551   4.692   1.297   4.345 -0.6338  0.5196 -0.0727
  519MOL0     C71552   4.814   1.255   4.258  0.1186 -0.1269 -0.4496
  519MOL0     H71553   4.966   1.591   4.729  2.6836  0.9795  0.6638
  519MOL0     H71554   5.163   1.615   4.875  0.4565 -0.2681 -0.2046
  519MOL0     H71555   5.276   1.616   5.057 -0.6313  0.3170  1.8326
  519MOL0     H71556   5.395   1.522   4.955  0.7567  0.3907  0.3500
  519MOL0     H71557   5.360   1.500   5.246 -0.0577  0.9118  0.0116
  519MOL0     H71558   5.478   1.414   5.134 -2.2462 -1.1341 -0.1700
  519MOL0     H71559   5.580   1.622   5.076 -1.2353 -1.2645 -0.5596
  519MOL0     H71560   5.477   1.714   5.179  1.2745  0.9755 -1.6413
  519MOL0     H71561   5.570   1.574   5.379 -0.7782  2.0257 -1.3348
  519MOL0     H71562   5.683   1.488   5.263 -1.6740 -1.1991 -1.5453
  519MOL0     H71563   5.772   1.697   5.397 -3.4429  1.0787  1.8102
  519MOL0     H71564   5.666   1.792   5.299  1.3262  1.9941 -0.9386
  519MOL0     H71565   5.900   1.605   5.217  0.6524  1.4446  0.1620
  519MOL0     H71566   5.804   1.687   5.090 -1.9049 -0.6786  0.1374
  519MOL0     H71567   5.943   1.816   5.322 -0.2430 -2.9887 -0.3053
  519MOL0     H71568   5.882   1.903   5.187  2.2196  1.5236 -2.2352
  519MOL0     H71569   6.133   1.864   5.194 -0.3019 -0.4943  1.8017
  519MOL0     H71570   6.101   1.688   5.172 -0.3192  0.5417 -0.0837
  519MOL0     H71571   5.988   1.619   4.946  3.8542 -1.7510  0.6342
  519MOL0     H71572   5.951   1.773   4.594 -0.5802  2.4963  0.7445
  519MOL0     H71573   5.918   1.638   4.697  0.7800 -0.8629  0.7415
  519MOL0     H71574   6.164   1.590   4.689 -1.4371 -0.9227 -0.9066
  519MOL0     H71575   6.089   1.566   4.528  1.9885 -2.1845 -0.5754
  519MOL0     H71576   6.161   1.793   4.462 -2.2298  1.2585  1.0496
  519MOL0     H71577   6.239   1.823   4.608 -0.7621 -0.4283  1.1224
  519MOL0     H71578   6.382   1.628   4.595 -0.7993 -1.7116  1.1544
  519MOL0     H71579   6.327   1.606   4.419  1.0043 -0.7316  1.3862
  519MOL0     H71580   6.605   1.601   4.386 -4.7253  1.2078  2.1212
  519MOL0     H71581   6.939   1.538   4.433 -1.0821 -0.1830  0.2954
  519MOL0     H71582   6.787   1.441   4.442 -1.1125  0.0129  0.2558
  519MOL0     H71583   6.875   1.467   4.581 -0.6048 -2.3214 -1.1245
  519MOL0     H71584   7.234   1.683   4.469 -1.8957 -1.6156  1.5214
  519MOL0     H71585   7.475   1.672   4.534 -0.5551  0.4778 -0.0185
  519MOL0     H71586   7.691   1.779   4.577  2.5861  2.0704 -0.9261
  519MOL0     H71587   7.687   1.938   4.651  0.5248  0.2100  0.3809
  519MOL0     H71588   7.849   1.710   4.783  0.5750 -0.7704 -2.9382
  519MOL0     H71589   7.899   1.842   4.670 -0.6732  5.0781  1.4895
  519MOL0     H71590   7.771   1.920   4.916 -0.4755 -3.5729  2.1054
  519MOL0     H71591   7.883   2.011   4.809  0.9614  0.2318  1.4713
  519MOL0     H71592   8.063   1.836   4.920  3.0315  2.7688  2.0608
  519MOL0     H71593   7.922   1.792   5.023 -1.3378 -2.8105 -4.0182
  519MOL0     H71594   8.032   2.071   4.992 -2.1362  1.3035  0.3017
  519MOL0     H71595   7.890   2.022   5.082 -1.1590 -0.8642 -1.6235
  519MOL0     H71596   8.169   1.919   5.166  0.8563 -0.4361  1.6007
  519MOL0     H71597   8.015   1.881   5.235 -1.2938  1.4718  0.2976
  519MOL0     H71598   7.971   2.075   5.322 -0.1264 -2.4460 -1.3368
  519MOL0     H71599   8.104   2.169   5.231  0.6998 -0.1484  1.0433
  519MOL0     H71600   8.101   1.981   5.460 -2.4767  0.6138 -0.6411
  519MOL0     H71601   8.155   2.146   5.464 -0.6161  0.1936 -0.0752
  519MOL0     H71602   7.397   1.939   4.860  2.4253  1.2000 -2.2009
  519MOL0     H71603   7.147   1.929   4.807 -0.8428 -0.0211 -0.6314
  519MOL0     H71604   6.765   1.947   4.700 -0.0286  0.1414  0.4907
  519MOL0     H71605   6.544   1.933   4.635 -1.6351 -1.7343  1.8539
  519MOL0     H71606   5.058   1.230   5.033 -0.3414  0.5285  0.9643
  519MOL0     H71607   4.872   1.211   4.885 -0.2709  1.4044 -0.8674
  519MOL0     H71608   4.580   1.440   4.639 -2.3227 -0.2678 -0.5392
  519MOL0     H71609   4.369   1.407   4.538  1.5506 -0.3642  1.4136
  519MOL0     H71610   4.374   1.221   4.112  2.6509 -2.4815  1.2935
  519MOL0     H71611   4.331   1.086   4.215 -1.8377 -0.3434  2.1992
  519MOL0     H71612   4.102   1.160   4.253  0.7709 -2.9472 -0.4969
  519MOL0     H71613   4.156   1.102   4.097 -1.5899 -1.7663  1.2179
  519MOL0     H71614   4.132   1.394   4.169  1.6847 -1.0090 -0.0466
  519MOL0     H71615   4.179   1.337   4.013 -0.2099  0.9114  1.1812
  519MOL0     H71616   3.947   1.409   4.007  2.3862 -0.1537 -1.5039
  519MOL0     H71617   3.909   1.329   4.156  0.2847 -0.9358 -0.3904
  519MOL0     H71618   3.827   1.015   3.907  2.4695 -0.4717 -0.6345
  519MOL0     H71619   4.570   1.244   4.187  2.0761 -0.8618  0.5685
  519MOL0     H71620   4.889   1.331   4.277 -0.4245  0.2292  0.3356
  519MOL0     H71621   4.848   1.155   4.286  0.3700 -0.0187 -0.3731
  519MOL0     H71622   4.789   1.269   4.152  2.1432  1.0740 -0.8212
  520MOL0     O71623   2.847   8.762   5.513  0.1126  0.7867  0.7025
  520MOL0     C71624   2.847   8.872   5.454  0.1521  0.1456 -0.4478
  520MOL0     O71625   2.937   8.973   5.477  0.9886 -0.0278  0.5378
  520MOL0     C71626   3.048   8.952   5.552 -0.8981  0.6940 -0.7391
  520MOL0     C71627   3.048   8.970   5.687  0.3154 -0.6589  0.0317
  520MOL0     C71628   3.163   8.966   5.762  0.1711  0.2012 -0.7377
  520MOL0     C71629   3.288   8.947   5.701  0.8040  0.9154  0.3190
  520MOL0     O71630   3.397   8.935   5.784  0.1934  0.9190  0.0214
  520MOL0     C71631   3.532   8.937   5.733 -0.2275  0.4275  0.0970
  520MOL0     C71632   3.629   8.943   5.856  1.1131  0.0364 -0.0984
  520MOL0     C71633   3.589   9.064   5.942  0.5444 -0.6430 -0.3676
  520MOL0     C71634   3.722   9.120   6.010  0.6844 -0.3504 -0.1971
  520MOL0     C71635   3.819   9.174   5.909 -0.5196 -0.3502  0.1795
  520MOL0     C71636   3.913   9.287   5.956  0.2440  0.4337  1.1601
  520MOL0     C71637   3.997   9.252   6.083 -0.1230 -0.5611 -0.7055
  520MOL0     C71638   4.068   9.120   6.080  0.5344 -0.3268  0.1063
  520MOL0     N71639   4.188   9.122   6.156  0.0196  0.1956 -0.2443
  520MOL0     C71640   4.198   9.108   6.295  0.2095 -0.6251 -0.4628
  520MOL0     C71641   4.332   9.120   6.318 -0.0913  0.8443  0.0808
  520MOL0     C71642   4.409   9.110   6.446 -0.2009 -0.9479  0.4392
  520MOL0     C71643   4.536   9.033   6.433  0.2432  1.0641  0.2607
  520MOL0     C71644   4.623   9.042   6.556 -0.6270  0.5658 -0.2321
  520MOL0     C71645   4.752   8.952   6.536  0.2482  0.0886  0.2705
  520MOL0     O71646   4.850   9.032   6.465  0.4815 -0.0702  0.0262
  520MOL0     C71647   4.969   8.971   6.450  0.6264  1.1167  0.5226
  520MOL0     C71648   5.065   9.044   6.386  0.6644 -1.0423  0.1284
  520MOL0     C71649   5.199   9.004   6.369 -0.9743 -0.9954  0.2067
  520MOL0     C71650   5.296   9.106   6.306 -0.0676  0.3086 -0.0738
  520MOL0     C71651   5.238   8.876   6.422  0.4835  0.4994 -0.0575
  520MOL0     C71652   5.373   8.828   6.424 -0.2764  0.3923 -0.0898
  520MOL0     O71653   5.405   8.742   6.516 -1.0581 -0.0048 -0.1653
  520MOL0     C71654   5.540   8.694   6.534 -0.1891  0.8871  0.1809
  520MOL0     C71655   5.568   8.662   6.665 -0.4828 -0.8258  0.0502
  520MOL0     C71656   5.686   8.601   6.708  1.3073  0.4642  0.2523
  520MOL0     C71657   5.797   8.584   6.618  0.8175 -0.6552  0.0669
  520MOL0     O71658   5.913   8.529   6.661 -0.7629  0.0716 -0.1482
  520MOL0     C71659   5.996   8.466   6.560 -0.4468  0.3207  0.2194
  520MOL0     C71660   6.142   8.436   6.607  0.7746 -0.0722 -1.3102
  520MOL0     C71661   6.191   8.565   6.680 -0.6325 -0.2343  0.0430
  520MOL0     C71662   6.329   8.529   6.710  0.3512 -0.0298  0.8464
  520MOL0     C71663   6.397   8.644   6.795 -0.4283  0.3437  0.3180
  520MOL0     C71664   6.415   8.773   6.719 -1.4552 -0.5829 -0.3213
  520MOL0     C71665   6.512   8.868   6.796  0.7460  0.7149 -0.7826
  520MOL0     C71666   6.573   8.967   6.700 -0.0533 -0.0066  0.7287
  520MOL0    Cl71667   6.461   9.090   6.639  0.4380  0.0922 -0.7446
  520MOL0     C71668   5.770   8.633   6.487  0.0068  0.3806  0.2293
  520MOL0     C71669   5.644   8.684   6.443 -1.4463 -0.0447 -0.6970
  520MOL0     O71670   5.454   8.883   6.351  0.3192  0.1051 -0.3088
  520MOL0     C71671   5.130   8.797   6.478 -0.1155  0.2346 -0.1574
  520MOL0     C71672   5.005   8.841   6.493  0.3871  1.4215  0.1619
  520MOL0     N71673   4.399   9.156   6.202 -0.0051 -0.4603  0.1369
  520MOL0     N71674   4.310   9.143   6.108 -0.1831 -0.0501  0.5944
  520MOL0     C71675   3.297   8.935   5.566 -0.0654 -1.1316  0.3515
  520MOL0     C71676   3.177   8.943   5.485 -0.0979  0.5658 -1.2807
  520MOL0     C71677   2.738   8.907   5.368  0.2815  0.0825  0.2795
  520MOL0     C71678   2.761   9.010   5.283  0.4375 -0.7580 -0.4416
  520MOL0     C71679   2.659   9.055   5.202  0.3410 -0.1250 -0.4976
  520MOL0     C71680   2.525   9.008   5.202 -0.6030  0.0514  0.0131
  520MOL0     O71681   2.425   9.069   5.128 -0.3379  0.2366 -0.7653
  520MOL0     C71682   2.439   9.068   4.986 -0.0103  0.0082 -0.3820
  520MOL0     C71683   2.338   9.166   4.925 -0.5220  0.9869 -0.0664
  520MOL0     C71684   2.375   9.309   4.985  0.3417  0.6734 -0.2123
  520MOL0     C71685   2.259   9.405   4.946 -0.0731 -0.1427  0.5146
  520MOL0     C71686   2.299   9.555   4.955  0.0327  0.6056  0.2778
  520MOL0     C71687   2.315   9.672   4.930 -0.0621 -1.3092  0.1832
  520MOL0     C71688   2.512   8.895   5.282 -1.1945  1.0379 -0.5340
  520MOL0     C71689   2.611   8.852   5.375 -0.2833 -0.2634 -0.2394
  520MOL0     C71690   2.568   8.749   5.485 -0.5761  0.2814  0.1776
  520MOL0     H71691   2.952   8.972   5.738  1.4358  1.8759  2.3207
  520MOL0     H71692   3.157   8.958   5.870  0.4075  2.4241 -0.5261
  520MOL0     H71693   3.546   9.028   5.673  0.1079 -1.0884 -2.2735
  520MOL0     H71694   3.544   8.848   5.669  1.5348  1.2620 -0.8023
  520MOL0     H71695   3.613   8.855   5.919  0.4874  0.9929  1.1416
  520MOL0     H71696   3.729   8.951   5.814  1.9675 -4.1666  0.6999
  520MOL0     H71697   3.548   9.137   5.871 -0.2045 -1.0520 -0.3623
  520MOL0     H71698   3.518   9.036   6.021 -2.5742  2.2067 -1.8701
  520MOL0     H71699   3.707   9.199   6.084  1.8249  1.4986 -1.8385
  520MOL0     H71700   3.769   9.041   6.069 -0.6052 -1.0159 -0.0222
  520MOL0     H71701   3.764   9.212   5.823  2.4578  0.8119 -1.3386
  520MOL0     H71702   3.874   9.089   5.867 -3.3116 -3.6336  2.5830
  520MOL0     H71703   3.976   9.317   5.872 -0.7317  0.3874  0.3864
  520MOL0     H71704   3.845   9.371   5.977 -1.2319 -1.0025  2.4316
  520MOL0     H71705   3.930   9.242   6.168 -3.7501  0.0605 -3.2881
  520MOL0     H71706   4.066   9.336   6.092  1.2430 -1.6945 -0.0495
  520MOL0     H71707   4.001   9.047   6.127  0.7734  1.3616  3.3773
  520MOL0     H71708   4.096   9.089   5.980  2.0588 -3.3254  1.3463
  520MOL0     H71709   4.119   9.092   6.368 -1.1853 -3.5068 -2.4098
  520MOL0     H71710   4.332   9.077   6.516 -1.0997  1.7279  0.8267
  520MOL0     H71711   4.432   9.214   6.473 -2.9445  0.0141 -0.4982
  520MOL0     H71712   4.507   8.930   6.412 -0.9824  0.9110  2.3737
  520MOL0     H71713   4.586   9.061   6.340  2.0204  0.8791  1.1216
  520MOL0     H71714   4.644   9.149   6.560  1.5426  0.2306 -0.9478
  520MOL0     H71715   4.563   9.022   6.645  1.9941  1.3398  1.8408
  520MOL0     H71716   4.789   8.926   6.635 -0.2358  0.0819  0.4527
  520MOL0     H71717   4.727   8.863   6.477 -0.1647  1.2000 -1.3236
  520MOL0     H71718   5.032   9.142   6.355  1.2895 -0.7430  0.4086
  520MOL0     H71719   5.314   9.079   6.201 -0.3797 -2.4206  0.4967
  520MOL0     H71720   5.392   9.116   6.357  1.3698  2.6757 -2.9112
  520MOL0     H71721   5.244   9.202   6.319 -1.0048 -0.3456  1.1791
  520MOL0     H71722   5.491   8.680   6.739 -1.6282  1.1005 -1.5272
  520MOL0     H71723   5.678   8.559   6.808  1.3068  1.0598  0.5065
  520MOL0     H71724   5.952   8.370   6.531  0.7298 -0.1858  0.0595
  520MOL0     H71725   6.008   8.521   6.467  0.1585  1.1171  0.7595
  520MOL0     H71726   6.136   8.346   6.669  2.4678 -2.0568 -3.8421
  520MOL0     H71727   6.199   8.417   6.516  1.3895 -0.4167 -0.8625
  520MOL0     H71728   6.131   8.604   6.763 -0.6975 -0.4138  0.0815
  520MOL0     H71729   6.189   8.641   6.602  2.4198 -0.4982 -0.4227
  520MOL0     H71730   6.384   8.514   6.617 -0.3258 -4.8942  0.9768
  520MOL0     H71731   6.344   8.431   6.756  0.4559 -0.2719  0.3012
  520MOL0     H71732   6.361   8.649   6.898  0.3716 -0.3561  0.6428
  520MOL0     H71733   6.499   8.610   6.814 -0.6084 -0.1710  0.3781
  520MOL0     H71734   6.329   8.837   6.695  0.3168  1.6882 -0.9540
  520MOL0     H71735   6.459   8.735   6.626 -1.5214  0.2779 -0.7134
  520MOL0     H71736   6.590   8.805   6.839 -1.4270 -0.9204  0.9975
  520MOL0     H71737   6.454   8.906   6.880 -0.5640 -0.7273 -0.9956
  520MOL0     H71738   6.611   8.906   6.617 -1.1857  0.3438 -0.0771
  520MOL0     H71739   6.658   9.019   6.744  0.2155  0.8855 -0.7630
  520MOL0     H71740   5.841   8.612   6.407 -0.1640 -2.1098  0.6610
  520MOL0     H71741   5.629   8.703   6.338 -0.7063 -0.7218 -0.9374
  520MOL0     H71742   5.163   8.701   6.516  0.4729  0.4628 -0.0873
  520MOL0     H71743   4.935   8.775   6.544  0.5072 -0.2387 -1.6710
  520MOL0     H71744   3.393   8.922   5.518  0.9672 -2.2014  2.5823
  520MOL0     H71745   3.186   8.959   5.378 -0.3008  2.4658 -1.0397
  520MOL0     H71746   2.861   9.049   5.265  0.6080 -1.8396 -2.0796
  520MOL0     H71747   2.676   9.119   5.116  0.9716 -2.1847 -1.9805
  520MOL0     H71748   2.538   9.072   4.939 -0.6765  0.8287 -1.7700
  520MOL0     H71749   2.400   8.969   4.958  2.0827 -1.5371  1.7520
  520MOL0     H71750   2.239   9.131   4.956 -1.1841  1.0321 -1.9480
  520MOL0     H71751   2.352   9.167   4.816  0.7362  0.5868  0.0788
  520MOL0     H71752   2.399   9.309   5.091  1.6760 -2.8561 -0.3925
  520MOL0     H71753   2.464   9.347   4.933 -0.5858  0.1621 -2.2979
  520MOL0     H71754   2.180   9.384   5.018 -0.8434 -0.7590 -0.4885
  520MOL0     H71755   2.223   9.394   4.843  2.7191  1.9734 -0.8268
  520MOL0     H71756   2.344   9.775   4.932  0.7163 -1.4665 -1.3022
  520MOL0     H71757   2.421   8.838   5.264 -0.4579  0.5851 -3.3953
  520MOL0     H71758   2.459   8.740   5.481 -0.6534 -0.7319  2.4207
  520MOL0     H71759   2.619   8.655   5.462  3.1708  2.0865  0.4345
  520MOL0     H71760   2.595   8.776   5.588  0.5596 -1.1276  0.2861
  521MOL0     O71761   8.707   1.718   4.485  0.5571 -0.6305  0.8239
  521MOL0     C71762   8.661   1.608   4.532 -1.1074 -0.7677  0.4049
  521MOL0     O71763   8.724   1.486   4.527 -0.0304 -0.5864 -0.0765
  521MOL0     C71764   8.848   1.482   4.477  0.3512  0.9602  0.6155
  521MOL0     C71765   8.960   1.502   4.563  0.4122  0.1309 -0.5584
  521MOL0     C71766   9.091   1.492   4.510  0.0105 -1.2055  0.1354
  521MOL0     C71767   9.104   1.463   4.369  0.5177 -0.8116  0.1166
  521MOL0     O71768   9.223   1.433   4.307 -0.5234 -0.1859  0.4409
  521MOL0     C71769   9.344   1.478   4.369  0.4196  0.0588  1.4792
  521MOL0     C71770   9.363   1.631   4.372  0.0062 -0.0497  0.0985
  521MOL0     C71771   9.506   1.669   4.417 -0.7337 -0.0754 -0.0275
  521MOL0     C71772   9.506   1.816   4.463  0.7789 -1.6800  0.0565
  521MOL0     C71773   9.644   1.871   4.492 -0.1177  0.3295 -1.0142
  521MOL0     C71774   9.738   1.887   4.380 -0.2542 -0.2394 -0.0886
  521MOL0     C71775   9.851   1.990   4.403 -0.0742  0.0945  0.7145
  521MOL0     C71776   9.948   2.003   4.284  0.8482 -0.0758  0.0067
  521MOL0     N71777  10.057   2.105   4.300  0.3410  1.2086  0.3661
  521MOL0     C71778  10.185   2.088   4.342 -0.2135 -0.2164  0.1219
  521MOL0     C71779  10.240   2.212   4.324 -0.5824 -0.6489 -0.8515
  521MOL0     C71780  10.382   2.247   4.366 -0.1576 -0.5828  0.4802
  521MOL0     C71781  10.410   2.250   4.520  0.3298 -0.7047  0.5475
  521MOL0     C71782  10.304   2.334   4.594 -0.0016 -0.2518  0.3693
  521MOL0     C71783  10.306   2.298   4.744 -0.3002 -0.1959  0.0584
  521MOL0     O71784  10.288   2.161   4.781 -0.0300 -0.5171 -0.1835
  521MOL0     C71785  10.166   2.103   4.785 -0.6056  0.9642  1.2776
  521MOL0     C71786  10.167   1.973   4.821 -0.1380  0.7795 -1.0636
  521MOL0     C71787  10.050   1.899   4.846  0.3734  0.0587  0.0387
  521MOL0     C71788  10.088   1.771   4.912 -0.3162 -0.4005 -0.1047
  521MOL0     C71789   9.925   1.945   4.809 -0.8751  0.0915 -0.1409
  521MOL0     C71790   9.800   1.865   4.827 -0.9079 -0.2505 -0.1287
  521MOL0     O71791   9.689   1.953   4.857  0.3909  0.4398 -0.4259
  521MOL0     C71792   9.564   1.893   4.852  0.1083 -0.5573  0.3340
  521MOL0     C71793   9.525   1.764   4.897  0.3327 -0.6117  0.0455
  521MOL0     C71794   9.388   1.739   4.887 -0.2644 -0.8983 -0.1492
  521MOL0     C71795   9.297   1.824   4.834 -0.2395 -0.0883 -0.3436
  521MOL0     O71796   9.172   1.769   4.806 -0.3807 -0.1524  0.2252
  521MOL0     C71797   9.053   1.859   4.829 -0.2377  0.4714  0.7199
  521MOL0     C71798   8.922   1.829   4.765  0.4564 -0.5628  1.2318
  521MOL0     C71799   8.792   1.916   4.813  0.1868 -0.9272  0.5079
  521MOL0     C71800   8.755   1.895   4.958 -0.0887  0.0265 -0.6435
  521MOL0     C71801   8.607   1.957   4.976 -0.6861 -0.4180 -0.1290
  521MOL0     C71802   8.548   1.906   5.111 -0.7827  0.9257 -0.5948
  521MOL0     C71803   8.509   1.758   5.087 -0.1906 -0.1830 -0.4758
  521MOL0     C71804   8.444   1.706   5.206  0.7015  0.2303 -0.5716
  521MOL0    Cl71805   8.418   1.521   5.178  0.1662 -0.4657  0.0534
  521MOL0     C71806   9.338   1.956   4.793  0.1010 -0.1198  0.5274
  521MOL0     C71807   9.476   1.983   4.793  0.4121 -0.6272 -0.5554
  521MOL0     O71808   9.801   1.745   4.815  0.2067  0.1334 -0.3049
  521MOL0     C71809   9.918   2.080   4.764  0.9423 -0.8540  0.1131
  521MOL0     C71810  10.042   2.159   4.753 -0.2382 -0.2394 -0.1917
  521MOL0     N71811  10.139   2.294   4.266  0.1050  0.0491 -0.1541
  521MOL0     N71812  10.033   2.230   4.251  0.0763  0.8434 -0.5343
  521MOL0     C71813   8.986   1.450   4.288  0.0520 -0.7058  0.1874
  521MOL0     C71814   8.864   1.457   4.345 -0.4585  0.1013 -0.3090
  521MOL0     C71815   8.534   1.617   4.601  0.2625 -0.2316  0.1546
  521MOL0     C71816   8.427   1.661   4.523 -0.4266 -0.3352 -0.1166
  521MOL0     C71817   8.306   1.645   4.578  0.1764  0.1722 -0.7893
  521MOL0     C71818   8.276   1.603   4.707 -0.7867  0.6094 -0.7734
  521MOL0     O71819   8.149   1.605   4.752 -0.3372  0.1206 -0.1478
  521MOL0     C71820   8.125   1.564   4.896 -0.5864  0.8165 -0.1086
  521MOL0     C71821   8.114   1.412   4.925 -0.4086  0.6984 -0.3365
  521MOL0     C71822   8.072   1.381   5.066  0.2605  0.1028 -0.0504
  521MOL0     C71823   8.071   1.237   5.112  0.9058  0.9117 -0.3698
  521MOL0     C71824   7.951   1.168   5.068 -0.7393 -0.5233 -0.4854
  521MOL0     C71825   7.856   1.100   5.049 -0.0277  0.4396  0.3436
  521MOL0     C71826   8.389   1.563   4.781  0.3674  0.2389  0.5876
  521MOL0     C71827   8.517   1.568   4.729 -0.3930 -0.2340  0.7778
  521MOL0     C71828   8.629   1.532   4.821 -0.0624  0.2023  0.1777
  521MOL0     H71829   8.940   1.521   4.668  2.4768 -2.5538  0.4291
  521MOL0     H71830   9.168   1.497   4.587 -0.9013  0.0435  1.0168
  521MOL0     H71831   9.415   1.434   4.298  1.3096  1.9344  1.1323
  521MOL0     H71832   9.362   1.438   4.469  1.7218 -2.1579  0.4327
  521MOL0     H71833   9.340   1.678   4.276  0.6332  4.6037  1.9711
  521MOL0     H71834   9.298   1.665   4.453  1.0093 -3.0910  2.3760
  521MOL0     H71835   9.544   1.617   4.505  2.0947  0.9211 -0.5671
  521MOL0     H71836   9.586   1.659   4.344  0.5538 -0.6289  1.3985
  521MOL0     H71837   9.464   1.878   4.384  1.7577 -1.2068 -0.1012
  521MOL0     H71838   9.450   1.811   4.557  2.9821 -4.8353  1.3708
  521MOL0     H71839   9.681   1.821   4.582 -1.4016  0.1358 -0.5720
  521MOL0     H71840   9.612   1.973   4.517 -5.1995 -1.0234 -0.8229
  521MOL0     H71841   9.790   1.792   4.362 -1.5565 -1.3394  1.6107
  521MOL0     H71842   9.679   1.920   4.295  0.1962 -0.2198 -0.4003
  521MOL0     H71843   9.903   1.964   4.495 -0.5341 -1.1706  0.6381
  521MOL0     H71844   9.805   2.089   4.411  0.7250  0.7828 -2.0418
  521MOL0     H71845  10.002   1.908   4.275  2.1345  0.8269 -3.3977
  521MOL0     H71846   9.897   2.012   4.188 -0.6823 -0.9717  0.7004
  521MOL0     H71847  10.230   1.996   4.377 -1.9378 -2.2995 -2.6654
  521MOL0     H71848  10.415   2.337   4.313  1.8838 -0.4039  1.9398
  521MOL0     H71849  10.450   2.172   4.326 -0.3542 -1.2950  1.4269
  521MOL0     H71850  10.397   2.143   4.537 -0.0366 -0.8218 -0.4282
  521MOL0     H71851  10.509   2.288   4.546  0.4535 -0.4242 -0.3106
  521MOL0     H71852  10.321   2.441   4.582 -2.6770 -0.0385 -3.2943
  521MOL0     H71853  10.200   2.321   4.563 -1.2220  2.4353  2.8919
  521MOL0     H71854  10.396   2.336   4.793  0.5397 -0.9305 -0.8749
  521MOL0     H71855  10.231   2.352   4.803 -1.1581 -0.8738 -0.3967
  521MOL0     H71856  10.261   1.927   4.850 -1.9434 -2.4192  0.2257
  521MOL0     H71857  10.192   1.747   4.890  0.3793  1.7306  0.6686
  521MOL0     H71858  10.028   1.685   4.882  3.9123 -3.5180 -0.5365
  521MOL0     H71859  10.074   1.773   5.020  0.6268  0.8066  0.0139
  521MOL0     H71860   9.598   1.698   4.942  0.1965 -0.3425  0.6778
  521MOL0     H71861   9.344   1.647   4.924  0.0865 -0.4043  1.5490
  521MOL0     H71862   9.034   1.865   4.936  1.1045 -0.7466  1.0603
  521MOL0     H71863   9.075   1.956   4.784  1.2965 -0.1097  0.1373
  521MOL0     H71864   8.921   1.843   4.656 -1.2874 -2.4000  0.9425
  521MOL0     H71865   8.899   1.722   4.764  1.5657 -0.8735 -1.3486
  521MOL0     H71866   8.707   1.883   4.752 -1.5669 -0.3254  2.5134
  521MOL0     H71867   8.804   2.022   4.789  2.3962 -0.6524  2.5479
  521MOL0     H71868   8.836   1.940   5.016  2.0728 -0.1242 -3.3789
  521MOL0     H71869   8.751   1.786   4.971 -3.4113  0.2611  1.6064
  521MOL0     H71870   8.593   2.062   4.952 -2.2403 -1.2108 -3.1885
  521MOL0     H71871   8.552   1.906   4.897  1.1923 -0.7304 -1.2767
  521MOL0     H71872   8.470   1.980   5.135  1.2713  3.4152 -1.1385
  521MOL0     H71873   8.615   1.908   5.198 -0.6111 -0.7485 -0.6575
  521MOL0     H71874   8.598   1.695   5.082 -0.2675 -0.7521  2.7175
  521MOL0     H71875   8.448   1.728   5.002 -0.2301 -1.8350  0.0930
  521MOL0     H71876   8.352   1.758   5.235 -0.5128 -1.6257 -0.9204
  521MOL0     H71877   8.510   1.730   5.290 -0.4556  0.2516  0.3667
  521MOL0     H71878   9.259   2.011   4.741 -3.4362 -3.0853  2.2918
  521MOL0     H71879   9.512   2.064   4.729 -0.9598  1.0123  0.6438
  521MOL0     H71880   9.823   2.127   4.738  0.9069 -0.8737  0.2072
  521MOL0     H71881  10.043   2.263   4.722  1.9262 -0.4488 -1.0271
  521MOL0     H71882   8.999   1.430   4.182  0.9808 -0.3813  0.2335
  521MOL0     H71883   8.778   1.436   4.283  0.2170 -0.9213 -0.9356
  521MOL0     H71884   8.441   1.703   4.424  1.1130 -0.5460 -0.0073
  521MOL0     H71885   8.221   1.679   4.518  1.6062  1.3227 -2.2511
  521MOL0     H71886   8.192   1.618   4.965 -0.9016  1.0876 -0.0092
  521MOL0     H71887   8.028   1.606   4.926 -0.1613  1.3937  0.5179
  521MOL0     H71888   8.213   1.369   4.906 -0.0051  1.6191 -0.4288
  521MOL0     H71889   8.040   1.370   4.858 -0.2901  0.5588 -0.3814
  521MOL0     H71890   8.133   1.449   5.125 -0.5379  2.3926 -1.7240
  521MOL0     H71891   7.969   1.411   5.083 -0.2160 -1.6604  0.4123
  521MOL0     H71892   8.058   1.246   5.220 -0.7188 -0.0350 -0.4510
  521MOL0     H71893   8.158   1.179   5.083  2.0790  2.6524 -0.4888
  521MOL0     H71894   7.764   1.044   5.044 -0.7934  1.7710 -1.8798
  521MOL0     H71895   8.384   1.534   4.885 -1.4444 -0.9334  0.2210
  521MOL0     H71896   8.693   1.455   4.777 -0.5675  1.3794 -2.8311
  521MOL0     H71897   8.677   1.629   4.832 -1.1818  0.9738 -1.3867
  521MOL0     H71898   8.594   1.503   4.921 -0.2469 -0.3637 -0.0463
  522MOL0     O71899   4.746   7.213   0.752 -0.1541  0.3803 -0.2427
  522MOL0     C71900   4.709   7.273   0.852  0.1090  0.2602 -0.0648
  522MOL0     O71901   4.725   7.225   0.981  1.0122  0.1408 -0.3991
  522MOL0     C71902   4.796   7.102   0.997  0.1940 -0.8888  1.2252
  522MOL0     C71903   4.729   6.994   1.048 -0.8595  0.8085 -0.7125
  522MOL0     C71904   4.791   6.872   1.070 -0.6122  0.3532  0.2350
  522MOL0     C71905   4.923   6.855   1.018  0.7946 -0.3891  0.1418
  522MOL0     O71906   4.964   6.728   1.025  0.1724 -1.1580 -1.1261
  522MOL0     C71907   5.100   6.697   0.999 -0.6716 -0.1878 -0.0738
  522MOL0     C71908   5.141   6.555   1.033  0.7892  0.0889  0.6566
  522MOL0     C71909   5.270   6.515   0.965  0.0987 -0.9490  0.4572
  522MOL0     C71910   5.278   6.356   0.962  0.2590 -0.0949 -0.5009
  522MOL0     C71911   5.401   6.302   0.883 -0.7017  0.0413 -0.2110
  522MOL0     C71912   5.414   6.152   0.876 -0.0696 -0.4513 -0.4835
  522MOL0     C71913   5.398   6.092   1.019 -0.1297  0.3103 -0.0768
  522MOL0     C71914   5.469   5.959   1.034  0.5006 -0.2830  0.2236
  522MOL0     N71915   5.407   5.870   0.934  0.9098 -0.7966 -0.4488
  522MOL0     C71916   5.474   5.836   0.822 -0.2145  0.4153  0.1954
  522MOL0     C71917   5.381   5.771   0.748  0.3061 -0.4550  0.4367
  522MOL0     C71918   5.401   5.725   0.609 -0.6334 -0.6240 -0.1757
  522MOL0     C71919   5.490   5.592   0.601  0.1287  0.2362 -0.5567
  522MOL0     C71920   5.405   5.470   0.601  0.5652  0.6721  0.1756
  522MOL0     C71921   5.330   5.446   0.726 -0.1259 -0.5801 -0.5461
  522MOL0     O71922   5.418   5.393   0.819 -0.6072 -0.5189 -0.9049
  522MOL0     C71923   5.428   5.467   0.938  0.5488  0.3926 -0.0104
  522MOL0     C71924   5.562   5.499   0.972  0.6727 -0.9439  0.9885
  522MOL0     C71925   5.602   5.562   1.088  0.6726  0.4572 -0.2320
  522MOL0     C71926   5.751   5.594   1.105 -0.5128 -0.0597 -0.9738
  522MOL0     C71927   5.501   5.572   1.189  0.1397 -0.7375 -0.1540
  522MOL0     C71928   5.511   5.644   1.317 -0.5778  0.0255  0.6783
  522MOL0     O71929   5.422   5.612   1.419 -0.1892  0.3356 -0.4720
  522MOL0     C71930   5.434   5.676   1.548  0.2699 -0.1976  0.0164
  522MOL0     C71931   5.530   5.645   1.639  0.4706 -0.2156 -0.0376
  522MOL0     C71932   5.539   5.713   1.759  0.0767  0.4771  1.1402
  522MOL0     C71933   5.436   5.802   1.797  0.5871  0.0540  0.1228
  522MOL0     O71934   5.450   5.859   1.917  0.1027  0.3075  0.2435
  522MOL0     C71935   5.332   5.840   2.003 -0.0298  0.5242  0.0146
  522MOL0     C71936   5.383   5.846   2.136  0.0414  0.3328 -0.8298
  522MOL0     C71937   5.282   5.789   2.239  0.2557  0.4706  0.2736
  522MOL0     C71938   5.141   5.832   2.233 -0.1187  0.1742 -0.4407
  522MOL0     C71939   5.132   5.980   2.266  0.2099 -0.5997 -0.7238
  522MOL0     C71940   4.994   6.048   2.268 -0.2973 -0.0171  0.3672
  522MOL0     C71941   4.936   6.063   2.124  0.5290  0.4294  0.0814
  522MOL0     C71942   4.791   6.091   2.115 -0.6125  0.4631  0.6196
  522MOL0    Cl71943   4.739   6.208   1.994  0.1349 -0.3248 -0.8244
  522MOL0     C71944   5.326   5.820   1.711  0.0471  0.7732  0.6181
  522MOL0     C71945   5.330   5.762   1.579  0.0463 -0.1851 -0.4936
  522MOL0     O71946   5.568   5.751   1.310  0.3247  0.4216 -0.2687
  522MOL0     C71947   5.372   5.529   1.160 -0.0298 -1.0707  0.1207
  522MOL0     C71948   5.341   5.466   1.036  0.2439 -0.3025  0.0972
  522MOL0     N71949   5.262   5.780   0.814  0.2852  0.2177  1.5671
  522MOL0     N71950   5.279   5.831   0.934 -0.9440  0.5212  0.1936
  522MOL0     C71951   5.000   6.962   0.970 -0.1130  0.6564  0.9019
  522MOL0     C71952   4.936   7.091   0.968  0.1841  0.4801  0.2434
  522MOL0     C71953   4.627   7.396   0.843 -1.2214  0.3459 -0.0032
  522MOL0     C71954   4.555   7.438   0.961  0.5859  0.7631 -0.3912
  522MOL0     C71955   4.458   7.539   0.948 -0.3726  0.3235 -0.4638
  522MOL0     C71956   4.454   7.611   0.827 -0.4505 -0.5834  0.9516
  522MOL0     O71957   4.374   7.720   0.823  0.4943  0.2989  0.1603
  522MOL0     C71958   4.234   7.691   0.852 -0.2427  0.1542  0.1436
  522MOL0     C71959   4.141   7.753   0.750 -0.9276 -0.0846 -0.7688
  522MOL0     C71960   4.130   7.688   0.612 -0.2587 -0.2435  0.6441
  522MOL0     C71961   4.011   7.732   0.527  0.1945 -0.5723  0.3667
  522MOL0     C71962   3.887   7.693   0.586 -0.2603  0.2537 -0.3509
  522MOL0     C71963   3.780   7.664   0.634 -0.1339  0.6970 -1.0538
  522MOL0     C71964   4.550   7.592   0.730  0.6476  0.3331  0.3764
  522MOL0     C71965   4.627   7.482   0.729  0.4548 -0.9699  0.2700
  522MOL0     C71966   4.719   7.469   0.614 -0.5636  0.6423  0.8177
  522MOL0     H71967   4.624   7.005   1.075 -2.2582 -2.2087 -4.0025
  522MOL0     H71968   4.735   6.790   1.112  0.8861 -2.0012 -2.0637
  522MOL0     H71969   5.162   6.767   1.056  0.1634 -2.7148  2.3326
  522MOL0     H71970   5.127   6.721   0.896  0.5666 -4.9634 -1.0941
  522MOL0     H71971   5.148   6.537   1.141 -1.3309 -1.6451  0.5672
  522MOL0     H71972   5.056   6.497   0.995 -1.5657  3.2307  0.7338
  522MOL0     H71973   5.280   6.554   0.863  2.3685 -2.1012  0.1986
  522MOL0     H71974   5.357   6.558   1.015  0.8220 -1.2222 -0.5380
  522MOL0     H71975   5.280   6.328   1.068  2.0449  1.3837 -0.0994
  522MOL0     H71976   5.193   6.313   0.909  2.0430 -3.2078 -1.0859
  522MOL0     H71977   5.493   6.336   0.932 -1.0195  0.0293  0.3983
  522MOL0     H71978   5.393   6.342   0.782  2.9784 -0.8389 -1.0233
  522MOL0     H71979   5.335   6.112   0.812 -1.9437  0.1306  1.3340
  522MOL0     H71980   5.514   6.131   0.838 -0.9791 -2.5717 -1.9108
  522MOL0     H71981   5.293   6.073   1.040  0.4149 -1.1329  1.5260
  522MOL0     H71982   5.440   6.157   1.097 -3.2528  0.5521  1.5708
  522MOL0     H71983   5.578   5.963   1.038  0.4750  1.5079  0.1155
  522MOL0     H71984   5.431   5.928   1.132 -0.0829 -2.0247 -0.5010
  522MOL0     H71985   5.574   5.870   0.800 -1.0202  1.7131 -1.7349
  522MOL0     H71986   5.464   5.800   0.560  0.8288 -0.3439  1.9716
  522MOL0     H71987   5.305   5.696   0.566  1.1141 -3.4480 -2.5588
  522MOL0     H71988   5.553   5.596   0.512 -1.1138  0.5406 -1.4586
  522MOL0     H71989   5.563   5.597   0.682  0.7285  0.9607 -1.1296
  522MOL0     H71990   5.330   5.475   0.521 -0.7162  2.7587  1.4234
  522MOL0     H71991   5.469   5.381   0.591  0.7097  0.6874  0.9120
  522MOL0     H71992   5.281   5.542   0.744  1.4304  0.4595 -1.6825
  522MOL0     H71993   5.252   5.372   0.705 -2.4860  2.0666 -1.7380
  522MOL0     H71994   5.634   5.485   0.892 -0.4254 -0.0680 -0.1997
  522MOL0     H71995   5.787   5.667   1.032  2.4600 -2.5381 -2.2256
  522MOL0     H71996   5.796   5.494   1.113 -0.2267  0.1443  0.3211
  522MOL0     H71997   5.774   5.636   1.204 -1.2678 -3.6758  0.9224
  522MOL0     H71998   5.602   5.565   1.626  1.1057  0.1445  1.1283
  522MOL0     H71999   5.624   5.687   1.821  1.3481  1.8789  0.0430
  522MOL0     H72000   5.251   5.912   1.987 -0.4586  0.8226  3.0077
  522MOL0     H72001   5.296   5.740   1.979 -1.3970  1.3124 -1.3940
  522MOL0     H72002   5.474   5.787   2.152  1.1686  2.7534  3.4536
  522MOL0     H72003   5.416   5.949   2.151 -4.2583  1.7750 -0.0212
  522MOL0     H72004   5.327   5.806   2.337  0.2330 -1.1013  0.5840
  522MOL0     H72005   5.272   5.680   2.234 -0.2085  0.2484  3.7721
  522MOL0     H72006   5.083   5.773   2.304  2.4751 -2.0756 -0.0261
  522MOL0     H72007   5.098   5.804   2.137  1.4707  1.7952 -1.6888
  522MOL0     H72008   5.191   5.998   2.356  4.1189  0.7329 -3.2602
  522MOL0     H72009   5.190   6.036   2.192 -1.6549  4.6535  1.3075
  522MOL0     H72010   4.997   6.144   2.320 -0.9437  0.1126  0.1738
  522MOL0     H72011   4.923   5.984   2.322 -0.1649 -0.1214  0.4185
  522MOL0     H72012   4.958   5.980   2.056 -1.9967 -0.7665  0.5850
  522MOL0     H72013   5.000   6.137   2.074  1.5077  1.2204  2.3730
  522MOL0     H72014   4.760   6.138   2.209  1.9785  2.2792  0.6723
  522MOL0     H72015   4.729   6.002   2.107  0.2464 -0.0406 -0.8759
  522MOL0     H72016   5.242   5.884   1.736 -0.4855  0.6612 -0.7739
  522MOL0     H72017   5.244   5.765   1.512 -1.0067 -2.3606  0.6790
  522MOL0     H72018   5.291   5.520   1.233  1.0165  0.9364  1.6293
  522MOL0     H72019   5.243   5.422   1.021  0.2244  0.5298 -2.7268
  522MOL0     H72020   5.105   6.955   0.943 -0.2603 -0.4211  0.5622
  522MOL0     H72021   5.006   7.165   0.931  0.7102  1.2218  2.5875
  522MOL0     H72022   4.558   7.390   1.058 -2.6200  0.2518 -0.4398
  522MOL0     H72023   4.402   7.574   1.035  3.1561  0.4019  2.0187
  522MOL0     H72024   4.209   7.585   0.852  3.2476 -0.9635 -4.4015
  522MOL0     H72025   4.209   7.730   0.951 -0.4477 -0.4566  0.3318
  522MOL0     H72026   4.178   7.854   0.733  0.5460 -0.4907 -0.2013
  522MOL0     H72027   4.041   7.761   0.792  0.1246 -0.4973  2.0538
  522MOL0     H72028   4.218   7.708   0.550 -0.7831  0.0247 -0.0389
  522MOL0     H72029   4.119   7.580   0.628 -2.2950  0.0883  1.7718
  522MOL0     H72030   3.999   7.687   0.428 -2.5088 -1.2609  0.9027
  522MOL0     H72031   4.013   7.841   0.521  3.1674 -0.5708 -0.1517
  522MOL0     H72032   3.675   7.655   0.652 -0.5230 -0.9679 -3.5933
  522MOL0     H72033   4.548   7.670   0.655 -1.0858  0.8725  0.9339
  522MOL0     H72034   4.820   7.465   0.657 -0.1297 -1.8087 -0.2448
  522MOL0     H72035   4.697   7.382   0.552 -1.5456  1.3371  0.1642
  522MOL0     H72036   4.714   7.564   0.560  0.8059  0.8446  0.9982
  523MOL0     O72037   6.645  10.610   9.001  0.1625 -0.0821  0.8294
  523MOL0     C72038   6.580  10.609   8.899 -0.2906 -0.2344  0.3834
  523MOL0     O72039   6.545  10.501   8.830  0.0156  0.3771 -0.6750
  523MOL0     C72040   6.605  10.385   8.874  0.0977  0.5222 -0.1507
  523MOL0     C72041   6.554  10.318   8.990  0.0863  0.6012 -0.1738
  523MOL0     C72042   6.589  10.188   9.019 -0.4136  0.0225 -0.7185
  523MOL0     C72043   6.690  10.123   8.938  0.5065  0.1256  0.4793
  523MOL0     O72044   6.756  10.014   8.980  0.2564  1.0469  0.1704
  523MOL0     C72045   6.814   9.902   8.891  0.3380  0.0442 -0.8297
  523MOL0     C72046   6.900   9.806   8.971 -0.0280  1.0358  0.2022
  523MOL0     C72047   6.999   9.710   8.890  0.3849 -0.4143 -0.1915
  523MOL0     C72048   7.059   9.611   8.990  0.0510  1.0637 -0.0777
  523MOL0     C72049   7.117   9.498   8.902  0.1886 -0.0683  0.8362
  523MOL0     C72050   7.197   9.404   8.988  0.1219 -0.3173 -0.1893
  523MOL0     C72051   7.277   9.302   8.901 -0.6076  0.5749  0.8555
  523MOL0     C72052   7.313   9.191   9.006 -0.4709 -0.5208 -1.2527
  523MOL0     N72053   7.420   9.119   8.937  0.3452 -0.6786  0.4202
  523MOL0     C72054   7.558   9.119   8.966 -0.8075  0.5464 -0.1978
  523MOL0     C72055   7.613   9.025   8.886  0.6270 -0.7337 -0.3466
  523MOL0     C72056   7.752   8.988   8.853 -0.1090 -0.2267 -0.6954
  523MOL0     C72057   7.860   9.045   8.952 -0.6396 -0.9576 -1.4189
  523MOL0     C72058   7.935   9.187   8.916  0.4457  0.3740  0.8637
  523MOL0     C72059   7.852   9.316   8.924 -0.0500 -0.1111 -0.2583
  523MOL0     O72060   7.817   9.333   9.066  1.2373  0.3260  0.4384
  523MOL0     C72061   7.745   9.448   9.090 -1.5915 -0.3184  0.0681
  523MOL0     C72062   7.653   9.438   9.184  0.2883  0.2721 -0.7896
  523MOL0     C72063   7.557   9.537   9.218  0.8636 -0.8526 -1.1088
  523MOL0     C72064   7.464   9.511   9.340 -0.2746  0.8010 -0.4274
  523MOL0     C72065   7.564   9.669   9.164  1.0868 -0.0154 -0.1314
  523MOL0     C72066   7.485   9.783   9.201  0.6424 -0.1653  0.2917
  523MOL0     O72067   7.484   9.887   9.110 -0.0680  0.3549 -0.2992
  523MOL0     C72068   7.385   9.984   9.130  0.9108 -0.5334  0.1031
  523MOL0     C72069   7.257   9.975   9.066 -0.1993  0.3705 -0.7038
  523MOL0     C72070   7.161  10.088   9.090  0.1099  0.5373  0.3747
  523MOL0     C72071   7.194  10.202   9.167  0.3696  0.8042 -0.8658
  523MOL0     O72072   7.116  10.309   9.202 -0.1072  0.4794  0.2325
  523MOL0     C72073   7.020  10.337   9.100 -0.8607  0.1914 -0.0334
  523MOL0     C72074   6.955  10.476   9.117 -0.1039  0.1331 -0.2308
  523MOL0     C72075   7.039  10.589   9.054  0.4776  0.4370  0.5058
  523MOL0     C72076   7.026  10.732   9.120  0.7120  0.9196 -0.0413
  523MOL0     C72077   7.124  10.835   9.058  0.1189 -0.1622 -0.3367
  523MOL0     C72078   7.113  10.966   9.130  0.4130  0.4910  0.2374
  523MOL0     C72079   7.236  11.056   9.120  0.4075  1.1367 -0.4765
  523MOL0     C72080   7.357  11.005   9.192 -0.7429 -0.8549  0.5570
  523MOL0    Cl72081   7.503  11.104   9.140  0.2252  0.7044 -0.0541
  523MOL0     C72082   7.324  10.197   9.228  0.0057 -0.0518  0.2260
  523MOL0     C72083   7.414  10.086   9.219  0.5870  0.5140  0.1672
  523MOL0     O72084   7.421   9.786   9.310 -0.0622  1.0504 -0.2014
  523MOL0     C72085   7.660   9.678   9.057 -0.2141  0.0549  0.2757
  523MOL0     C72086   7.748   9.567   9.020 -0.0492 -0.1181 -0.1510
  523MOL0     N72087   7.512   8.951   8.828  0.5763 -0.1911  0.2712
  523MOL0     N72088   7.395   9.007   8.859 -0.3867  0.2285  0.1592
  523MOL0     C72089   6.741  10.188   8.825  0.0675  0.3817  0.0792
  523MOL0     C72090   6.689  10.316   8.785 -0.2007 -0.0899  0.5710
  523MOL0     C72091   6.525  10.734   8.851 -0.5963  1.1703 -0.5360
  523MOL0     C72092   6.475  10.816   8.947 -0.9495 -0.1481 -0.3071
  523MOL0     C72093   6.427  10.944   8.913 -0.2087 -0.0014 -0.0153
  523MOL0     C72094   6.448  10.992   8.785  0.1544  0.8085  0.1929
  523MOL0     O72095   6.407  11.118   8.757 -0.6849 -0.0455 -0.6175
  523MOL0     C72096   6.267  11.131   8.715  0.2116  0.2870 -0.9725
  523MOL0     C72097   6.226  11.280   8.731 -0.3225  0.6465  0.7236
  523MOL0     C72098   6.093  11.309   8.670  0.1094 -0.3057  0.8768
  523MOL0     C72099   5.989  11.265   8.772  0.8697  0.3298  0.2486
  523MOL0     C72100   5.861  11.316   8.715  1.0746 -0.0312 -0.2498
  523MOL0     C72101   5.754  11.365   8.679  0.5342  0.5901  0.2416
  523MOL0     C72102   6.489  10.899   8.684  0.1925  0.1545  0.5414
  523MOL0     C72103   6.539  10.773   8.716 -0.0601 -0.5390  0.2371
  523MOL0     C72104   6.607  10.692   8.608  1.2411 -0.3870 -0.0524
  523MOL0     H72105   6.482  10.359   9.061 -0.7013 -0.8476 -0.1137
  523MOL0     H72106   6.556  10.150   9.115  1.4280  1.9793  0.7982
  523MOL0     H72107   6.878   9.947   8.814 -0.4946 -1.0691 -2.2328
  523MOL0     H72108   6.725   9.852   8.850  0.0146 -1.7878  1.8329
  523MOL0     H72109   6.955   9.863   9.046 -0.2229 -0.0184  1.1684
  523MOL0     H72110   6.845   9.729   9.025  1.7150  0.9243  1.9058
  523MOL0     H72111   6.938   9.667   8.810 -2.5522  2.4564  0.2641
  523MOL0     H72112   7.074   9.764   8.833 -0.5255  0.4546 -0.6021
  523MOL0     H72113   7.137   9.671   9.038 -0.0885 -0.9875  3.0307
  523MOL0     H72114   6.996   9.573   9.071 -0.0525  0.1080 -0.6003
  523MOL0     H72115   7.180   9.560   8.837 -1.8492  1.9270  0.6377
  523MOL0     H72116   7.040   9.444   8.848 -2.0862  4.2526 -0.7198
  523MOL0     H72117   7.269   9.465   9.043 -2.0185  3.1034 -0.8932
  523MOL0     H72118   7.141   9.357   9.070  2.0040 -1.1411  0.6873
  523MOL0     H72119   7.364   9.351   8.855 -0.7503  1.0611  1.0954
  523MOL0     H72120   7.215   9.251   8.827 -3.4793  2.8133  1.5295
  523MOL0     H72121   7.338   9.232   9.104 -0.8516  0.0247 -1.3756
  523MOL0     H72122   7.222   9.131   9.015 -1.0594  0.4888 -0.2535
  523MOL0     H72123   7.609   9.199   9.020 -0.1526 -0.2872  0.4457
  523MOL0     H72124   7.761   9.038   8.756 -4.6512  0.4661 -0.9740
  523MOL0     H72125   7.763   8.879   8.853 -2.1212 -0.4828  0.7341
  523MOL0     H72126   7.831   9.055   9.057 -2.2558  2.3391 -2.0381
  523MOL0     H72127   7.944   8.975   8.954  1.2327  1.1709 -0.1948
  523MOL0     H72128   8.022   9.208   8.979  1.4209 -0.0086 -0.3174
  523MOL0     H72129   7.973   9.184   8.814 -0.3610  1.5402  0.5068
  523MOL0     H72130   7.906   9.407   8.894 -0.6356 -0.2806 -1.9425
  523MOL0     H72131   7.764   9.306   8.860 -0.7533 -1.0866  0.8258
  523MOL0     H72132   7.636   9.347   9.240 -2.7031  1.7004  0.8051
  523MOL0     H72133   7.487   9.591   9.410 -2.9398  0.1536  1.3198
  523MOL0     H72134   7.494   9.416   9.385 -0.5727 -0.0108 -1.8688
  523MOL0     H72135   7.359   9.518   9.312 -1.4952 -0.5358  3.2837
  523MOL0     H72136   7.231   9.906   8.987 -0.0778 -0.9060  0.3344
  523MOL0     H72137   7.069  10.093   9.033 -1.0010 -2.3512  1.7043
  523MOL0     H72138   7.054  10.331   8.996 -2.4615  0.8260 -0.6357
  523MOL0     H72139   6.945  10.258   9.111  0.4410 -0.9629  0.7313
  523MOL0     H72140   6.855  10.471   9.073 -0.1242  0.6362 -0.2478
  523MOL0     H72141   6.934  10.499   9.222  0.0221  0.1778 -0.2159
  523MOL0     H72142   7.021  10.578   8.947 -1.7294 -0.8266  0.9444
  523MOL0     H72143   7.144  10.561   9.065  0.0083 -1.7879 -0.2862
  523MOL0     H72144   7.029  10.719   9.228  1.8990 -1.3757 -0.3017
  523MOL0     H72145   6.919  10.752   9.104  0.1805 -0.9801  0.8256
  523MOL0     H72146   7.222  10.790   9.076 -0.2231 -0.1971  1.7077
  523MOL0     H72147   7.106  10.849   8.951  1.1580  1.1891 -0.3584
  523MOL0     H72148   7.082  10.939   9.231 -0.2307 -2.7556 -0.7163
  523MOL0     H72149   7.025  11.013   9.085  1.1974 -0.7360 -2.8644
  523MOL0     H72150   7.212  11.157   9.156  0.7700  0.4746  1.7648
  523MOL0     H72151   7.262  11.061   9.014  0.7835  0.9954 -0.3925
  523MOL0     H72152   7.367  10.897   9.179 -1.9123 -1.3010  2.7259
  523MOL0     H72153   7.343  11.012   9.300 -0.9548  1.4964  0.4190
  523MOL0     H72154   7.355  10.277   9.295 -1.8263 -1.1025  2.4675
  523MOL0     H72155   7.515  10.084   9.257  1.3789 -3.3113 -1.6483
  523MOL0     H72156   7.664   9.768   8.996 -2.9199 -0.8024 -1.3117
  523MOL0     H72157   7.827   9.583   8.947 -2.1289 -1.9696 -3.0401
  523MOL0     H72158   6.825  10.139   8.777 -0.5066 -0.5249 -0.0281
  523MOL0     H72159   6.695  10.352   8.683 -5.8962 -0.3564 -0.1974
  523MOL0     H72160   6.487  10.776   9.047  2.2957  1.6669  0.1915
  523MOL0     H72161   6.378  11.002   8.991 -1.4447  0.6472 -1.2351
  523MOL0     H72162   6.240  11.091   8.616 -1.7427 -2.5237  0.5478
  523MOL0     H72163   6.207  11.077   8.789  4.8312 -0.5846  2.5434
  523MOL0     H72164   6.298  11.348   8.686 -0.8921  2.6640  2.6636
  523MOL0     H72165   6.233  11.302   8.838 -1.4258 -1.3930  1.2946
  523MOL0     H72166   6.085  11.418   8.664  0.7255 -0.1419  2.4364
  523MOL0     H72167   6.074  11.252   8.579  0.0147 -0.4716  0.9994
  523MOL0     H72168   6.003  11.304   8.874  1.6887 -0.4417  0.4426
  523MOL0     H72169   5.994  11.156   8.778  2.7168  0.2378 -1.9003
  523MOL0     H72170   5.665  11.414   8.646  0.6239 -0.3483 -1.4795
  523MOL0     H72171   6.479  10.933   8.581 -1.7855 -0.5582  0.4498
  523MOL0     H72172   6.545  10.608   8.575  2.8429 -0.4893 -3.1766
  523MOL0     H72173   6.627  10.757   8.522 -2.3319  0.4389 -0.4417
  523MOL0     H72174   6.694  10.640   8.648  0.4640  0.5565  3.1787
  524MOL0     O72175   1.945   0.385   9.047  0.3693 -0.3633  0.1962
  524MOL0     C72176   1.870   0.297   8.991  0.9553 -0.1184  0.5441
  524MOL0     O72177   1.909   0.175   8.951  0.0930  0.4896 -0.1871
  524MOL0     C72178   2.036   0.119   8.966 -0.3616  1.3307 -0.1162
  524MOL0     C72179   2.080   0.027   8.876  0.1722 -0.1839  0.0192
  524MOL0     C72180   2.202  -0.046   8.882 -0.2669 -0.1929 -0.1962
  524MOL0     C72181   2.271  -0.036   9.005 -0.7624 -0.3361 -0.2160
  524MOL0     O72182   2.380  -0.123   9.005 -0.3965  0.1413 -0.4774
  524MOL0     C72183   2.481  -0.114   9.110  0.0297 -0.1300 -0.1204
  524MOL0     C72184   2.618  -0.168   9.078 -1.1037  0.6324 -0.4305
  524MOL0     C72185   2.614  -0.323   9.081  0.1464 -0.1147 -0.1746
  524MOL0     C72186   2.744  -0.380   9.024 -0.5800  0.2303  0.0257
  524MOL0     C72187   2.762  -0.529   9.025 -0.3963  0.2005  0.7229
  524MOL0     C72188   2.902  -0.582   8.978  1.2972  0.5601 -0.3059
  524MOL0     C72189   2.936  -0.725   9.022  0.6338 -0.1311  0.2543
  524MOL0     C72190   3.083  -0.757   8.979  0.0879  0.3336 -0.4107
  524MOL0     N72191   3.098  -0.744   8.830 -0.6447  0.5481 -0.0472
  524MOL0     C72192   3.206  -0.687   8.759  1.0656 -0.2972 -0.5544
  524MOL0     C72193   3.158  -0.674   8.628 -0.4836  0.5134 -0.8704
  524MOL0     C72194   3.228  -0.621   8.509  0.0542 -0.4729  0.1341
  524MOL0     C72195   3.352  -0.543   8.547 -0.2308  0.5837  0.4533
  524MOL0     C72196   3.446  -0.531   8.422 -0.7557  0.6556 -0.6300
  524MOL0     C72197   3.548  -0.643   8.406 -0.1947 -0.3681 -0.9696
  524MOL0     O72198   3.660  -0.631   8.501 -0.1619 -0.0078 -0.2130
  524MOL0     C72199   3.769  -0.541   8.486  0.7597  0.2618  0.2508
  524MOL0     C72200   3.868  -0.524   8.585 -0.6202  0.3131  0.4738
  524MOL0     C72201   3.974  -0.436   8.573  0.4443 -0.3731 -0.0203
  524MOL0     C72202   4.070  -0.437   8.686  0.0699  0.2260  0.9064
  524MOL0     C72203   3.982  -0.361   8.455 -0.4512 -1.0266  0.1747
  524MOL0     C72204   4.098  -0.272   8.428 -0.5040  0.9403 -0.0102
  524MOL0     O72205   4.149  -0.291   8.302  0.0659 -0.2357  0.2061
  524MOL0     C72206   4.262  -0.226   8.272  0.3204  0.0048 -0.3976
  524MOL0     C72207   4.368  -0.242   8.360 -0.3554  0.4068 -0.3028
  524MOL0     C72208   4.487  -0.166   8.332  0.9002  0.6114 -0.2629
  524MOL0     C72209   4.490  -0.072   8.229  0.0481 -0.0068 -0.5417
  524MOL0     O72210   4.605   0.000   8.229 -0.4297 -0.7151 -0.0532
  524MOL0     C72211   4.616   0.097   8.121  0.2371  0.0140  0.9243
  524MOL0     C72212   4.748   0.163   8.094 -0.0267 -0.1892  0.1998
  524MOL0     C72213   4.863   0.089   8.035  0.2866  0.0989 -0.7891
  524MOL0     C72214   5.005   0.148   8.038 -0.5752  0.2744  0.1560
  524MOL0     C72215   5.090   0.112   7.913 -0.1900  0.6969  0.2119
  524MOL0     C72216   5.239   0.135   7.951  0.3658 -0.0628 -1.1288
  524MOL0     C72217   5.319   0.094   7.822  0.2948  0.0313 -0.3719
  524MOL0     C72218   5.468   0.089   7.861 -0.3790 -0.5854 -0.2011
  524MOL0    Cl72219   5.505  -0.026   7.984  0.0662  0.1273 -0.0882
  524MOL0     C72220   4.376  -0.057   8.144  0.4012  0.9000  0.1591
  524MOL0     C72221   4.268  -0.134   8.167  0.0660 -0.0828  1.0033
  524MOL0     O72222   4.125  -0.181   8.505 -0.5355  0.1862 -0.4958
  524MOL0     C72223   3.894  -0.371   8.360  0.8742  0.2079  0.2624
  524MOL0     C72224   3.781  -0.463   8.367  0.2883  0.0827 -1.2210
  524MOL0     N72225   3.031  -0.732   8.623  0.4226  0.8084 -0.4431
  524MOL0     N72226   3.005  -0.782   8.734 -0.8518  0.3602 -0.2388
  524MOL0     C72227   2.237   0.061   9.099  0.5218  0.7647 -0.0112
  524MOL0     C72228   2.121   0.136   9.077  0.0415  0.0035  0.3689
  524MOL0     C72229   1.730   0.328   8.952  0.7838 -0.1030  0.0458
  524MOL0     C72230   1.676   0.256   8.847 -0.0339  0.1079  0.9647
  524MOL0     C72231   1.547   0.283   8.800 -0.6428  0.2761  0.6594
  524MOL0     C72232   1.468   0.378   8.873 -0.1930  0.0483  0.2685
  524MOL0     O72233   1.336   0.377   8.850  0.3372 -0.6090  0.0514
  524MOL0     C72234   1.264   0.500   8.836  0.0222 -0.1541  1.2104
  524MOL0     C72235   1.213   0.521   8.695 -1.0636  0.2521 -0.2239
  524MOL0     C72236   1.215   0.668   8.644 -1.0854 -0.9997  0.4128
  524MOL0     C72237   1.135   0.764   8.727  0.2130 -0.3166  0.4660
  524MOL0     C72238   1.155   0.904   8.676  0.2616 -0.0158  0.7665
  524MOL0     C72239   1.145   1.024   8.643 -0.0233  0.4558 -0.1961
  524MOL0     C72240   1.520   0.444   8.986 -0.8814  0.2981  0.0628
  524MOL0     C72241   1.656   0.427   9.026  0.2906  0.0869  0.5078
  524MOL0     C72242   1.701   0.497   9.150 -0.6096 -0.6458 -0.7141
  524MOL0     H72243   2.009   0.003   8.796 -0.6119 -1.8326  1.1462
  524MOL0     H72244   2.240  -0.124   8.816  0.6432 -0.6297  0.8080
  524MOL0     H72245   2.440  -0.172   9.194  0.2475  0.8951  0.7260
  524MOL0     H72246   2.491  -0.012   9.150  0.4947  0.7635 -2.4010
  524MOL0     H72247   2.642  -0.145   8.974 -2.5239  0.1373 -0.8841
  524MOL0     H72248   2.686  -0.129   9.154  1.8507  0.5243 -2.8030
  524MOL0     H72249   2.612  -0.355   9.186 -0.1330  1.4263  0.3059
  524MOL0     H72250   2.529  -0.354   9.020 -1.4818 -1.4125  2.5437
  524MOL0     H72251   2.750  -0.348   8.920 -1.8564  0.9993  0.1683
  524MOL0     H72252   2.829  -0.336   9.079  0.7840 -0.0911 -1.7318
  524MOL0     H72253   2.680  -0.567   8.965  0.9843 -4.2533  1.3205
  524MOL0     H72254   2.742  -0.560   9.128 -1.0435 -1.6190  0.0862
  524MOL0     H72255   2.904  -0.568   8.869 -0.8585 -0.1857 -0.4933
  524MOL0     H72256   2.979  -0.523   9.029  0.1542  0.8031  1.2053
  524MOL0     H72257   2.855  -0.776   8.969  1.4631  1.8077 -3.2042
  524MOL0     H72258   2.926  -0.739   9.130 -2.5642 -0.5187  0.0065
  524MOL0     H72259   3.147  -0.676   9.014 -0.1332  1.1854 -1.8847
  524MOL0     H72260   3.116  -0.851   9.023 -1.4464 -1.4588 -2.8568
  524MOL0     H72261   3.303  -0.660   8.802  0.5513  2.5816 -0.9614
  524MOL0     H72262   3.153  -0.564   8.454 -0.2618 -0.4828  0.5533
  524MOL0     H72263   3.257  -0.709   8.451 -1.3254 -1.3137  0.7009
  524MOL0     H72264   3.326  -0.442   8.580  1.7006  1.6488 -1.0823
  524MOL0     H72265   3.406  -0.596   8.626 -1.4823  1.2352  1.7994
  524MOL0     H72266   3.388  -0.525   8.330  0.0818  0.5381 -1.1703
  524MOL0     H72267   3.506  -0.439   8.424  0.9422 -0.4005 -1.3854
  524MOL0     H72268   3.497  -0.739   8.421  0.9417 -0.7388  0.7215
  524MOL0     H72269   3.591  -0.640   8.305 -0.3313  0.9042 -1.0053
  524MOL0     H72270   3.853  -0.590   8.671 -2.1082  1.9525  1.5463
  524MOL0     H72271   4.143  -0.357   8.678 -0.9314  1.1034  0.2502
  524MOL0     H72272   4.115  -0.537   8.687  0.5452  0.4400  1.1435
  524MOL0     H72273   4.025  -0.422   8.784  1.9237 -0.1705  1.8469
  524MOL0     H72274   4.371  -0.313   8.442 -0.3302 -0.6949 -1.2454
  524MOL0     H72275   4.570  -0.182   8.400  1.3204  1.0589 -0.6549
  524MOL0     H72276   4.582   0.053   8.026  0.5222  0.1582  0.7543
  524MOL0     H72277   4.539   0.169   8.149 -0.2163  0.1547 -0.5940
  524MOL0     H72278   4.727   0.246   8.025 -1.9336  0.5542  1.6098
  524MOL0     H72279   4.777   0.211   8.188 -0.8905  0.3210  0.2174
  524MOL0     H72280   4.841   0.067   7.930  0.4076 -2.7047 -0.2886
  524MOL0     H72281   4.875  -0.010   8.079  0.9390 -0.6242 -2.4917
  524MOL0     H72282   5.061   0.118   8.127  1.7970  3.1215 -0.2169
  524MOL0     H72283   5.011   0.257   8.031  0.5438  0.2062 -0.1679
  524MOL0     H72284   5.078   0.005   7.894 -0.6519  0.5838  1.0768
  524MOL0     H72285   5.061   0.172   7.826 -0.6148  2.1234  1.2808
  524MOL0     H72286   5.275   0.067   8.028 -0.4311  3.8085  3.0551
  524MOL0     H72287   5.254   0.243   7.966 -0.7619 -0.0145 -0.2280
  524MOL0     H72288   5.312   0.172   7.745 -1.5366  1.8315  1.4751
  524MOL0     H72289   5.281   0.001   7.780 -0.1295  0.3588 -0.7327
  524MOL0     H72290   5.494   0.190   7.895 -3.1791  0.2913 -0.4677
  524MOL0     H72291   5.535   0.060   7.780 -0.4782 -0.7080 -0.2385
  524MOL0     H72292   4.367   0.018   8.066  1.7058 -1.9840 -3.0048
  524MOL0     H72293   4.173  -0.116   8.117  0.5886 -0.5402 -0.1994
  524MOL0     H72294   3.907  -0.330   8.260  1.1893 -0.8303 -0.1366
  524MOL0     H72295   3.718  -0.470   8.279 -0.9572  0.1576 -0.3639
  524MOL0     H72296   2.299   0.069   9.188 -0.0323 -1.6036  0.6486
  524MOL0     H72297   2.094   0.203   9.158 -0.6039 -0.6468  0.7014
  524MOL0     H72298   1.743   0.191   8.791  0.4543 -2.1774  3.9254
  524MOL0     H72299   1.496   0.241   8.714 -0.2430 -0.0185  0.5636
  524MOL0     H72300   1.178   0.490   8.902 -1.1052 -0.5798 -0.2731
  524MOL0     H72301   1.321   0.591   8.857 -0.8746  0.3557  1.4991
  524MOL0     H72302   1.112   0.481   8.699 -0.3724 -1.5369  3.9921
  524MOL0     H72303   1.269   0.463   8.621 -0.7060 -1.1196  1.0801
  524MOL0     H72304   1.317   0.705   8.659 -1.6897  2.2673 -2.3568
  524MOL0     H72305   1.195   0.680   8.538  1.4188  1.8357  0.1151
  524MOL0     H72306   1.171   0.760   8.830  2.2468 -1.1462 -0.2233
  524MOL0     H72307   1.029   0.742   8.713  0.0447 -0.7546  2.2393
  524MOL0     H72308   1.127   1.125   8.614  1.0798  0.2316 -1.8207
  524MOL0     H72309   1.446   0.503   9.040 -1.3927  0.0252 -0.3225
  524MOL0     H72310   1.621   0.554   9.199  2.1936  3.8795 -0.8849
  524MOL0     H72311   1.733   0.413   9.213 -0.7026 -1.4321 -1.6950
  524MOL0     H72312   1.785   0.564   9.133  2.7340 -3.5260  2.6398
  525MOL0     O72313  10.444   1.264   5.560 -0.2359  0.1073 -0.2085
  525MOL0     C72314  10.367   1.238   5.469 -0.4502 -0.1923 -0.0415
  525MOL0     O72315  10.394   1.220   5.334  0.2205  0.0962 -0.6179
  525MOL0     C72316  10.527   1.205   5.308 -0.2131  0.4574  1.3516
  525MOL0     C72317  10.582   1.291   5.202 -0.5674  0.7113 -0.4069
  525MOL0     C72318  10.723   1.278   5.176 -0.0696  0.4636  0.1088
  525MOL0     C72319  10.805   1.173   5.237  0.1739  0.7285 -0.4562
  525MOL0     O72320  10.933   1.173   5.192 -0.6282  0.1538 -0.3112
  525MOL0     C72321  11.019   1.121   5.293 -0.6786  0.1067 -0.2451
  525MOL0     C72322  11.164   1.103   5.240  0.5814 -0.2397 -0.0681
  525MOL0     C72323  11.156   1.030   5.106 -0.6995  0.1964 -0.6606
  525MOL0     C72324  11.298   0.996   5.050  0.6724  0.0594  1.8937
  525MOL0     C72325  11.286   0.962   4.893  0.3768  0.4724 -0.6840
  525MOL0     C72326  11.411   0.880   4.856 -1.1336 -0.4659  0.0504
  525MOL0     C72327  11.529   0.972   4.838 -0.0408 -0.5230 -0.7802
  525MOL0     C72328  11.660   0.903   4.785  0.2739  0.0462 -0.3914
  525MOL0     N72329  11.722   0.819   4.887  0.1536 -0.0093 -0.0982
  525MOL0     C72330  11.782   0.699   4.869  0.3128 -0.4238  0.4824
  525MOL0     C72331  11.816   0.648   4.989  0.1356  0.3818 -0.8291
  525MOL0     C72332  11.882   0.525   5.039 -0.5275 -0.5088 -0.4399
  525MOL0     C72333  12.025   0.513   4.975 -1.1212 -0.9509  1.3562
  525MOL0     C72334  12.116   0.638   5.016 -0.1940 -0.4133  1.2388
  525MOL0     C72335  12.246   0.637   4.935 -1.0185 -0.6191 -0.1859
  525MOL0     O72336  12.222   0.721   4.818  1.2062  0.1509  0.1137
  525MOL0     C72337  12.174   0.669   4.705 -0.3886  0.3019 -0.1227
  525MOL0     C72338  12.087   0.740   4.631  1.0178 -0.2416 -0.0977
  525MOL0     C72339  12.035   0.706   4.493 -0.4421 -1.0289 -0.5195
  525MOL0     C72340  11.942   0.805   4.420 -0.0249 -0.3903 -0.3117
  525MOL0     C72341  12.077   0.582   4.439 -0.0967  0.3265  0.9916
  525MOL0     C72342  12.051   0.527   4.307  0.7218  0.1421 -0.6171
  525MOL0     O72343  12.067   0.389   4.303 -0.0369 -0.1926  0.8797
  525MOL0     C72344  12.080   0.325   4.181  0.8775 -0.0141 -0.3808
  525MOL0     C72345  12.168   0.373   4.084 -0.2776  0.2603 -0.0011
  525MOL0     C72346  12.184   0.301   3.966 -0.7171  0.3277  0.5114
  525MOL0     C72347  12.100   0.193   3.931  0.1806 -0.6176  0.6148
  525MOL0     O72348  12.102   0.146   3.805 -0.1019 -0.1565 -0.1663
  525MOL0     C72349  12.113   0.230   3.686  0.1139  0.0485 -0.0756
  525MOL0     C72350  12.055   0.163   3.560 -0.7159 -0.9439  1.0784
  525MOL0     C72351  11.920   0.105   3.588  0.4408 -0.5286 -0.6503
  525MOL0     C72352  11.808   0.200   3.559  1.0805 -1.2225  0.0446
  525MOL0     C72353  11.672   0.154   3.613  0.2604  0.7592  0.5186
  525MOL0     C72354  11.662   0.182   3.764  0.2865  0.2418  0.1839
  525MOL0     C72355  11.532   0.150   3.822 -0.1004  0.8658 -0.0104
  525MOL0     C72356  11.538   0.171   3.976 -0.5191 -0.1666 -0.1996
  525MOL0    Cl72357  11.615   0.034   4.062  0.3223  0.0802 -0.0728
  525MOL0     C72358  12.013   0.148   4.024  0.6272  0.0113 -1.0077
  525MOL0     C72359  11.993   0.214   4.152 -0.3790  0.8015  0.3816
  525MOL0     O72360  12.040   0.607   4.215  0.8546  0.4578  0.5613
  525MOL0     C72361  12.170   0.512   4.515 -0.8257 -0.1163 -0.7705
  525MOL0     C72362  12.223   0.554   4.642  0.5527  0.3435  0.9419
  525MOL0     N72363  11.796   0.754   5.080 -0.0521  0.7294  0.2878
  525MOL0     N72364  11.733   0.851   5.024 -1.0091  0.2383 -0.0857
  525MOL0     C72365  10.740   1.091   5.336  0.4461 -1.1696  0.3924
  525MOL0     C72366  10.605   1.103   5.367 -0.8436  0.1898 -0.0843
  525MOL0     C72367  10.226   1.205   5.503 -0.0158 -0.2563  0.3904
  525MOL0     C72368  10.131   1.175   5.404 -0.3529  0.5274  0.2116
  525MOL0     C72369   9.998   1.168   5.425 -0.5122 -0.1261 -0.1210
  525MOL0     C72370   9.951   1.186   5.549 -0.3046  0.2768 -0.4486
  525MOL0     O72371   9.820   1.153   5.565 -0.5152  0.5273  0.1149
  525MOL0     C72372   9.745   1.218   5.671 -0.5747 -0.6147 -0.1390
  525MOL0     C72373   9.758   1.370   5.662  0.0316 -0.0208  0.2601
  525MOL0     C72374   9.708   1.448   5.780 -0.6486 -0.0738  0.5925
  525MOL0     C72375   9.558   1.433   5.800  0.8309  0.9791  0.6065
  525MOL0     C72376   9.529   1.523   5.904  0.3802 -0.1791  0.4132
  525MOL0     C72377   9.499   1.604   5.984 -0.3640 -0.0065 -0.7490
  525MOL0     C72378  10.043   1.219   5.656  0.9351 -0.0971  0.2693
  525MOL0     C72379  10.174   1.226   5.633 -0.4361  0.3928  0.5138
  525MOL0     C72380  10.252   1.246   5.762  0.4990 -0.7542  0.8267
  525MOL0     H72381  10.522   1.364   5.149 -1.8637 -0.1390 -0.1544
  525MOL0     H72382  10.761   1.349   5.103  2.5521 -0.3926  0.5383
  525MOL0     H72383  10.995   1.018   5.317  2.2898 -0.3628  1.2203
  525MOL0     H72384  11.027   1.179   5.385 -2.3922 -1.3875  0.8905
  525MOL0     H72385  11.203   1.202   5.217  1.7923 -1.1801 -2.4260
  525MOL0     H72386  11.224   1.036   5.303 -0.7498 -2.9607 -1.4748
  525MOL0     H72387  11.099   0.937   5.114 -0.3705  0.0235 -0.2772
  525MOL0     H72388  11.106   1.090   5.029 -0.9489 -0.1572 -0.7754
  525MOL0     H72389  11.360   1.085   5.040 -1.7533  1.5863 -3.7417
  525MOL0     H72390  11.340   0.910   5.102  1.1338  1.3193  3.6532
  525MOL0     H72391  11.269   1.055   4.838 -2.1119  0.5519  0.1308
  525MOL0     H72392  11.198   0.900   4.877  0.0519 -0.0500  2.5181
  525MOL0     H72393  11.434   0.807   4.934  2.5442  2.7986  2.3996
  525MOL0     H72394  11.405   0.826   4.761  0.6868 -0.6860  0.0316
  525MOL0     H72395  11.540   1.032   4.928 -0.6073  0.3995 -1.3166
  525MOL0     H72396  11.500   1.045   4.762 -1.4566  1.5766  1.6301
  525MOL0     H72397  11.640   0.833   4.703  0.1560  0.1704 -0.4682
  525MOL0     H72398  11.725   0.978   4.740  0.2211 -0.6197 -1.6113
  525MOL0     H72399  11.792   0.646   4.774  1.1259  0.5639 -0.0037
  525MOL0     H72400  11.834   0.444   4.983  1.3482 -0.5852 -2.0013
  525MOL0     H72401  11.890   0.522   5.148  2.3102 -0.4993 -0.5957
  525MOL0     H72402  12.082   0.423   5.001 -0.3653 -0.9132 -0.0663
  525MOL0     H72403  12.007   0.512   4.867  1.7751  3.6232  0.5241
  525MOL0     H72404  12.061   0.729   4.987 -2.9001 -2.0296  0.8963
  525MOL0     H72405  12.140   0.633   5.123  5.4083 -0.6709  0.2620
  525MOL0     H72406  12.319   0.689   4.998 -0.4889 -1.4095 -0.1406
  525MOL0     H72407  12.274   0.532   4.923 -1.5365 -1.5076  4.3301
  525MOL0     H72408  12.063   0.838   4.672  1.5994 -0.3426  0.5026
  525MOL0     H72409  11.914   0.899   4.470  3.6539  0.6829  0.0863
  525MOL0     H72410  11.855   0.752   4.383 -1.3825  1.8841 -0.5265
  525MOL0     H72411  12.005   0.847   4.341 -2.1007 -0.6692 -2.1831
  525MOL0     H72412  12.219   0.465   4.111  1.6339 -1.1438  1.4393
  525MOL0     H72413  12.259   0.324   3.892 -1.5542 -0.1082 -0.4949
  525MOL0     H72414  12.049   0.319   3.693  0.9236  0.5359  5.4209
  525MOL0     H72415  12.218   0.251   3.665  1.4263 -4.9583  0.1588
  525MOL0     H72416  12.055   0.234   3.477  1.2917 -2.2951 -0.1608
  525MOL0     H72417  12.123   0.082   3.530  0.6008  1.2242 -2.4298
  525MOL0     H72418  11.907   0.057   3.685 -1.8655 -0.7087 -0.9712
  525MOL0     H72419  11.891   0.032   3.512 -1.4995  0.4934 -0.9729
  525MOL0     H72420  11.783   0.202   3.452 -0.4728 -0.9569  0.3864
  525MOL0     H72421  11.822   0.302   3.595 -2.1305 -0.8150  0.4393
  525MOL0     H72422  11.600   0.220   3.563 -1.3002 -2.2207 -1.4644
  525MOL0     H72423  11.641   0.051   3.591  0.0507  0.4776  2.0346
  525MOL0     H72424  11.679   0.289   3.779  1.9909  0.5145 -2.9171
  525MOL0     H72425  11.735   0.123   3.820  1.5884  1.4633 -0.1583
  525MOL0     H72426  11.515   0.043   3.802 -0.3454  0.8182  0.4524
  525MOL0     H72427  11.455   0.216   3.781 -0.9945  1.0885  1.9457
  525MOL0     H72428  11.436   0.171   4.015 -0.5244 -3.1133  0.0170
  525MOL0     H72429  11.587   0.262   4.010  1.6603 -0.8200 -1.3680
  525MOL0     H72430  11.948   0.068   3.991 -1.6654  1.3732  0.0055
  525MOL0     H72431  11.936   0.167   4.232  2.8331 -1.2817  1.6263
  525MOL0     H72432  12.217   0.426   4.467  1.0412  0.7659 -0.6410
  525MOL0     H72433  12.299   0.488   4.682 -0.5004 -1.9160 -0.5846
  525MOL0     H72434  10.791   1.010   5.386 -0.3716 -2.1687 -0.3540
  525MOL0     H72435  10.561   1.028   5.434 -1.1116  0.5077  0.1005
  525MOL0     H72436  10.161   1.164   5.301 -0.7941  6.1228 -0.8133
  525MOL0     H72437   9.941   1.139   5.337 -1.2032 -3.9026  1.4075
  525MOL0     H72438   9.639   1.195   5.661 -0.8422  0.1640  0.7389
  525MOL0     H72439   9.773   1.177   5.769  1.0428  0.9580  0.1199
  525MOL0     H72440   9.697   1.387   5.573 -1.0960  0.8674  1.1786
  525MOL0     H72441   9.859   1.407   5.640 -0.4392  0.7821 -0.6218
  525MOL0     H72442   9.758   1.403   5.866  1.5938 -0.0269 -0.6013
  525MOL0     H72443   9.732   1.555   5.784 -0.4897 -0.0838  0.0657
  525MOL0     H72444   9.532   1.329   5.822 -0.0446  0.6602 -1.6459
  525MOL0     H72445   9.512   1.463   5.705 -0.1276 -0.8447  0.4587
  525MOL0     H72446   9.472   1.682   6.052 -1.8490  1.4593 -2.9022
  525MOL0     H72447   9.997   1.243   5.751 -0.9047 -0.1789 -0.5644
  525MOL0     H72448  10.341   1.182   5.764  2.3905  1.7068  2.0815
  525MOL0     H72449  10.282   1.349   5.785 -0.4051  0.0029 -1.1475
  525MOL0     H72450  10.192   1.217   5.849  0.7561 -0.8341  0.9782
  526MOL0     O72451   8.013   6.506   2.921 -0.5301 -0.1335  0.3844
  526MOL0     C72452   7.944   6.403   2.937 -0.0159 -0.9382 -0.3056
  526MOL0     O72453   7.942   6.318   3.044  0.0989 -0.1535 -0.7110
  526MOL0     C72454   7.978   6.366   3.170  0.1010 -0.6255 -0.1465
  526MOL0     C72455   8.084   6.302   3.241  0.2775  0.2407  0.0750
  526MOL0     C72456   8.134   6.349   3.359  0.8434 -0.1976  0.0728
  526MOL0     C72457   8.079   6.464   3.422  0.9726 -0.9002  0.1670
  526MOL0     O72458   8.110   6.518   3.547 -0.7800  0.6035 -0.1966
  526MOL0     C72459   8.225   6.467   3.614  0.3225  0.4301 -0.3578
  526MOL0     C72460   8.241   6.527   3.750 -0.5740 -0.4728 -0.7862
  526MOL0     C72461   8.263   6.680   3.751 -0.9069 -0.0646 -0.0836
  526MOL0     C72462   8.329   6.718   3.888 -0.3771  0.9985  1.5283
  526MOL0     C72463   8.354   6.870   3.903  0.4076 -0.9835  0.6885
  526MOL0     C72464   8.473   6.936   3.826  0.7244 -0.1063  1.4919
  526MOL0     C72465   8.477   7.085   3.838  0.2928 -0.3904 -0.4235
  526MOL0     C72466   8.590   7.139   3.916 -0.3900 -0.2255 -0.1980
  526MOL0     N72467   8.719   7.080   3.868  0.7078  0.3832 -0.1604
  526MOL0     C72468   8.769   7.104   3.744  0.4436 -0.5369  0.8012
  526MOL0     C72469   8.889   7.041   3.742  0.0513 -0.1352 -0.3715
  526MOL0     C72470   8.984   7.056   3.625  0.3947 -1.0594 -0.1718
  526MOL0     C72471   8.995   6.910   3.555  0.1018 -0.5484  0.7948
  526MOL0     C72472   9.094   6.913   3.438 -0.5942  0.4884 -0.1364
  526MOL0     C72473   9.238   6.949   3.471 -1.0254  0.3153  0.4058
  526MOL0     O72474   9.316   6.971   3.355  0.0228 -0.3415  0.1208
  526MOL0     C72475   9.396   7.078   3.329 -0.8531 -0.3067 -0.5704
  526MOL0     C72476   9.498   7.056   3.231  0.2280  0.5911 -0.6734
  526MOL0     C72477   9.600   7.148   3.195  0.7944  1.0145  0.3074
  526MOL0     C72478   9.711   7.129   3.090 -0.5379  0.2119  0.0262
  526MOL0     C72479   9.600   7.274   3.262  0.7287  0.1264  0.2900
  526MOL0     C72480   9.695   7.385   3.237 -1.0378 -0.7847 -0.0456
  526MOL0     O72481   9.745   7.438   3.349 -0.2537 -0.7118  0.2190
  526MOL0     C72482   9.815   7.560   3.351 -0.0344 -0.1042  0.1713
  526MOL0     C72483   9.894   7.608   3.247 -0.2677 -0.7291  0.1027
  526MOL0     C72484   9.972   7.726   3.270 -0.1288  0.3109  0.4886
  526MOL0     C72485   9.966   7.790   3.390 -0.8455  0.0187  1.1291
  526MOL0     O72486  10.032   7.903   3.418  0.2891  0.4794 -0.0436
  526MOL0     C72487  10.122   7.973   3.322  1.2147  0.2006  0.0821
  526MOL0     C72488  10.257   7.890   3.303 -0.5954  0.0074 -0.7687
  526MOL0     C72489  10.343   7.949   3.192 -0.0664  1.1751 -0.3641
  526MOL0     C72490  10.298   7.895   3.061  1.0128  0.6786  0.3612
  526MOL0     C72491  10.387   7.950   2.953 -1.2270  0.3075  0.4886
  526MOL0     C72492  10.355   7.878   2.818  0.1951  0.0865  0.0986
  526MOL0     C72493  10.436   7.914   2.689  0.3553 -0.2618  0.7287
  526MOL0     C72494  10.490   8.055   2.680  0.4748 -0.2211  0.5136
  526MOL0    Cl72495  10.600   8.060   2.534  0.1043 -0.4645 -0.4682
  526MOL0     C72496   9.883   7.739   3.483  0.3459 -0.4232 -0.1396
  526MOL0     C72497   9.806   7.628   3.469  0.6636  0.3278 -0.0575
  526MOL0     O72498   9.720   7.424   3.126 -0.1371 -0.3255  0.5522
  526MOL0     C72499   9.498   7.302   3.354 -0.6296  0.5270 -0.4215
  526MOL0     C72500   9.398   7.208   3.389  0.7930 -0.4119 -0.5733
  526MOL0     N72501   8.902   6.976   3.862 -0.6321 -0.0300  0.7201
  526MOL0     N72502   8.808   7.003   3.939  0.0318 -0.3330 -0.0498
  526MOL0     C72503   7.979   6.527   3.350 -0.1672 -0.1548 -0.2044
  526MOL0     C72504   7.926   6.480   3.231 -0.5524 -0.3516  0.3770
  526MOL0     C72505   7.865   6.344   2.821 -0.0790  0.0574  0.1694
  526MOL0     C72506   7.775   6.238   2.854  0.4857  0.1003  0.5308
  526MOL0     C72507   7.701   6.166   2.761 -0.6208 -0.3689  0.0007
  526MOL0     C72508   7.718   6.195   2.628 -0.1141 -0.5906  0.3106
  526MOL0     O72509   7.663   6.118   2.530 -0.2492 -0.5899  0.0479
  526MOL0     C72510   7.594   6.001   2.562 -0.6644 -0.1106 -0.6394
  526MOL0     C72511   7.552   5.935   2.439 -0.1221 -0.5615 -0.1559
  526MOL0     C72512   7.679   5.871   2.366 -0.1611 -0.4521  1.1524
  526MOL0     C72513   7.631   5.781   2.256  0.2153 -0.0348  0.1188
  526MOL0     C72514   7.727   5.668   2.224  0.1481 -0.4813 -0.2486
  526MOL0     C72515   7.808   5.580   2.205  0.4506 -0.7778  0.2762
  526MOL0     C72516   7.790   6.306   2.588 -0.2550 -0.3185 -0.2586
  526MOL0     C72517   7.866   6.382   2.683 -0.1175 -0.0856  0.0925
  526MOL0     C72518   7.951   6.499   2.631 -0.3163 -0.5863  0.1386
  526MOL0     H72519   8.129   6.212   3.202 -0.9773 -0.8967  1.1613
  526MOL0     H72520   8.204   6.280   3.405  1.5283  1.1388  1.1115
  526MOL0     H72521   8.317   6.497   3.564  2.1520 -0.9942  1.9190
  526MOL0     H72522   8.220   6.358   3.614 -2.7280  0.4547  0.5947
  526MOL0     H72523   8.154   6.506   3.814 -1.9967  1.8097 -1.8511
  526MOL0     H72524   8.326   6.479   3.799 -2.2043 -0.2609  2.5755
  526MOL0     H72525   8.328   6.714   3.670  0.6711 -0.8815  0.7715
  526MOL0     H72526   8.170   6.737   3.741 -1.2650 -0.8786 -1.5096
  526MOL0     H72527   8.255   6.692   3.964  0.5552  3.8513  3.6088
  526MOL0     H72528   8.418   6.657   3.899  1.4595  3.0710 -0.6187
  526MOL0     H72529   8.367   6.890   4.009 -1.9696  1.4866  0.6184
  526MOL0     H72530   8.255   6.913   3.886 -0.1271 -0.7088  3.8830
  526MOL0     H72531   8.563   6.881   3.855  0.8795 -0.1453  0.9454
  526MOL0     H72532   8.456   6.912   3.720  1.0987  0.0471  1.3947
  526MOL0     H72533   8.382   7.115   3.882  0.8027 -1.2187  1.3613
  526MOL0     H72534   8.498   7.118   3.736  3.7707  2.7461  1.0608
  526MOL0     H72535   8.594   7.245   3.888 -2.0152 -0.2873 -0.7652
  526MOL0     H72536   8.578   7.142   4.025  0.7289  0.2962 -0.0729
  526MOL0     H72537   8.724   7.158   3.662  3.3266 -2.3054 -2.2360
  526MOL0     H72538   9.071   7.103   3.671 -1.6485  1.5568  1.3166
  526MOL0     H72539   8.941   7.133   3.561  0.1922  1.2887  2.6053
  526MOL0     H72540   9.021   6.837   3.631  2.5506  0.1740  0.7524
  526MOL0     H72541   8.893   6.904   3.516  0.0380 -0.5183  0.9585
  526MOL0     H72542   9.094   6.819   3.381 -0.3187 -0.2765  1.0883
  526MOL0     H72543   9.055   6.986   3.366  1.0526 -0.2482 -1.8481
  526MOL0     H72544   9.236   7.037   3.535 -0.4194  2.8157 -2.7326
  526MOL0     H72545   9.283   6.862   3.519  0.1825 -0.0499 -1.2953
  526MOL0     H72546   9.487   6.964   3.174 -1.6535 -0.5638  1.3806
  526MOL0     H72547   9.703   7.022   3.072 -0.3005 -0.7165  4.3768
  526MOL0     H72548   9.813   7.146   3.123 -0.9525 -1.8492  2.6158
  526MOL0     H72549   9.693   7.183   2.996  0.4344  2.8251  1.2409
  526MOL0     H72550   9.905   7.548   3.158 -1.4336 -0.4619 -0.2410
  526MOL0     H72551  10.023   7.766   3.183 -0.6959 -0.8089 -0.3829
  526MOL0     H72552  10.073   7.976   3.224  2.4938  4.4244 -0.6212
  526MOL0     H72553  10.142   8.071   3.365 -0.3946 -0.5719  2.8147
  526MOL0     H72554  10.309   7.900   3.399 -0.3839 -2.5796 -0.5404
  526MOL0     H72555  10.241   7.782   3.301  0.0455 -0.1019 -0.3033
  526MOL0     H72556  10.438   7.906   3.223 -0.1938 -1.4148 -3.1279
  526MOL0     H72557  10.348   8.059   3.193  1.1460  1.1447 -1.0567
  526MOL0     H72558  10.192   7.913   3.040  0.8458  0.2141  0.7918
  526MOL0     H72559  10.307   7.786   3.057  0.0726  0.6065 -0.1143
  526MOL0     H72560  10.369   8.052   2.920  2.1176 -0.4144 -4.7181
  526MOL0     H72561  10.492   7.932   2.978 -1.3007 -2.5692 -0.8020
  526MOL0     H72562  10.250   7.904   2.803  0.5505  3.8936  2.8141
  526MOL0     H72563  10.368   7.770   2.823  1.8013  0.2485  0.0897
  526MOL0     H72564  10.370   7.888   2.607 -0.9593 -0.6570  1.8844
  526MOL0     H72565  10.524   7.848   2.688 -0.5223 -1.7106 -3.7138
  526MOL0     H72566  10.543   8.080   2.773 -1.1049 -0.1620  1.4305
  526MOL0     H72567  10.410   8.129   2.673 -1.4705 -2.2418  0.2384
  526MOL0     H72568   9.880   7.792   3.578 -1.8618  0.4980 -0.6662
  526MOL0     H72569   9.743   7.587   3.547 -1.7436  1.0735 -1.4781
  526MOL0     H72570   9.498   7.405   3.389  0.7436  0.7773 -1.0820
  526MOL0     H72571   9.313   7.251   3.442 -2.3762 -3.1313 -2.9624
  526MOL0     H72572   7.933   6.613   3.398 -0.3019 -0.5366  0.3766
  526MOL0     H72573   7.846   6.528   3.175  0.3697 -0.4434 -1.0649
  526MOL0     H72574   7.752   6.210   2.957 -0.2062  0.1445  0.3921
  526MOL0     H72575   7.645   6.079   2.793  0.2976 -0.3388  1.8065
  526MOL0     H72576   7.655   5.944   2.633  2.3579  1.1039 -2.1110
  526MOL0     H72577   7.493   6.026   2.596 -0.8301  0.6921 -1.6657
  526MOL0     H72578   7.506   6.014   2.379  0.3935 -0.4253 -0.3750
  526MOL0     H72579   7.472   5.865   2.467  0.4896 -0.8039  1.0314
  526MOL0     H72580   7.726   5.959   2.322 -1.9507 -0.3993 -0.8205
  526MOL0     H72581   7.756   5.820   2.424  1.7323 -0.5335 -1.2362
  526MOL0     H72582   7.627   5.849   2.171 -1.1090  1.0330  0.9952
  526MOL0     H72583   7.531   5.738   2.273  1.9565 -4.4065  0.7179
  526MOL0     H72584   7.871   5.495   2.191  2.2799  0.9221 -3.0700
  526MOL0     H72585   7.788   6.331   2.483  1.7484 -1.0842 -0.5189
  526MOL0     H72586   7.929   6.525   2.527  0.4603  2.4722  0.6260
  526MOL0     H72587   7.922   6.580   2.699  1.2016 -0.7127  0.9882
  526MOL0     H72588   8.059   6.481   2.630 -0.4953 -1.6974  0.2283
  527MOL0     O72589   3.888   2.413   0.046 -0.3341 -0.8008  0.0080
  527MOL0     C72590   3.895   2.512  -0.022  0.0017  0.0859  0.0197
  527MOL0     O72591   3.930   2.509  -0.152 -0.6232 -0.2447  0.3195
  527MOL0     C72592   4.020   2.409  -0.201 -0.0544  0.3702 -0.6471
  527MOL0     C72593   3.963   2.284  -0.224 -0.4326 -0.2224 -0.1874
  527MOL0     C72594   4.045   2.174  -0.265  0.0093  0.2162 -0.2741
  527MOL0     C72595   4.182   2.192  -0.284  1.1186  0.2342  0.0343
  527MOL0     O72596   4.270   2.100  -0.325  0.0041 -0.4098 -0.3582
  527MOL0     C72597   4.240   1.961  -0.337  0.2037 -0.8545  0.3681
  527MOL0     C72598   4.360   1.891  -0.387 -0.8292 -0.6298  0.5626
  527MOL0     C72599   4.487   1.910  -0.313  1.0167 -0.4030 -0.1107
  527MOL0     C72600   4.600   1.849  -0.391  0.0035 -0.0824 -0.2190
  527MOL0     C72601   4.744   1.866  -0.338 -0.7536  0.1248 -0.3598
  527MOL0     C72602   4.841   1.758  -0.381  0.6787 -0.4220 -0.9502
  527MOL0     C72603   4.976   1.782  -0.323  0.7259  0.6431  0.2162
  527MOL0     C72604   5.053   1.897  -0.389 -0.5982  0.5031 -0.3306
  527MOL0     N72605   5.189   1.888  -0.348 -0.8549  0.4320 -0.3312
  527MOL0     C72606   5.240   1.985  -0.267  0.0162  0.8606 -0.0901
  527MOL0     C72607   5.374   1.969  -0.254 -0.2966  0.5707 -0.3325
  527MOL0     C72608   5.462   2.053  -0.159 -0.2077  0.3956  0.0742
  527MOL0     C72609   5.425   2.198  -0.180 -0.4509 -0.6235 -0.2256
  527MOL0     C72610   5.534   2.291  -0.112 -0.8170  0.2954 -0.0297
  527MOL0     C72611   5.488   2.439  -0.122 -0.2336 -0.8579 -1.2665
  527MOL0     O72612   5.505   2.481  -0.257 -0.6755  0.2901 -0.0609
  527MOL0     C72613   5.630   2.515  -0.305  0.1400  0.4637 -0.4528
  527MOL0     C72614   5.748   2.526  -0.231 -0.0891  0.6192  0.4847
  527MOL0     C72615   5.871   2.540  -0.298 -0.0299 -0.8412 -1.5224
  527MOL0     C72616   5.996   2.567  -0.211 -0.2167 -0.5146  0.3375
  527MOL0     C72617   5.871   2.537  -0.438 -1.0990 -0.1196 -0.2136
  527MOL0     C72618   6.002   2.531  -0.511  0.8658  0.4347 -0.5343
  527MOL0     O72619   6.095   2.435  -0.475 -0.5445  0.7628 -0.3879
  527MOL0     C72620   6.215   2.434  -0.556  0.6938  0.4876 -0.0406
  527MOL0     C72621   6.300   2.545  -0.572 -1.0328  0.4288  0.7564
  527MOL0     C72622   6.421   2.530  -0.648 -1.1736  0.1462 -0.1059
  527MOL0     C72623   6.451   2.405  -0.702 -0.5836 -0.0953  0.0468
  527MOL0     O72624   6.570   2.392  -0.776 -0.4213 -0.7334  0.2441
  527MOL0     C72625   6.619   2.498  -0.862 -0.1389 -0.0370 -0.5624
  527MOL0     C72626   6.701   2.442  -0.974  0.0943 -0.1730  0.3123
  527MOL0     C72627   6.614   2.450  -1.101  0.4326 -0.5483 -0.2592
  527MOL0     C72628   6.698   2.394  -1.213  1.0685  0.6061  0.7201
  527MOL0     C72629   6.649   2.433  -1.349 -0.6086 -0.5648  0.2710
  527MOL0     C72630   6.496   2.413  -1.369  0.4443 -0.5941 -0.7250
  527MOL0     C72631   6.453   2.434  -1.512 -0.3373 -0.4120  0.1018
  527MOL0     C72632   6.299   2.416  -1.523  0.4037 -0.2816 -1.0853
  527MOL0    Cl72633   6.227   2.477  -1.674  0.0593  0.0489  0.0334
  527MOL0     C72634   6.365   2.296  -0.697 -0.5313 -0.9441 -0.2032
  527MOL0     C72635   6.250   2.311  -0.614 -1.1848  0.5968  0.3826
  527MOL0     O72636   6.008   2.603  -0.606 -0.6194  0.0109  0.4273
  527MOL0     C72637   5.749   2.527  -0.508  0.4187 -0.0063 -0.3647
  527MOL0     C72638   5.630   2.512  -0.444  0.0767 -0.1089 -0.2412
  527MOL0     N72639   5.416   1.877  -0.346  0.0663  0.2835 -0.2184
  527MOL0     N72640   5.304   1.825  -0.404 -0.2505 -0.6480  0.6185
  527MOL0     C72641   4.232   2.318  -0.268  0.1535 -0.3260 -0.9000
  527MOL0     C72642   4.155   2.424  -0.224  0.1081 -0.4859  0.6016
  527MOL0     C72643   3.885   2.649   0.036  0.1705  0.2322  0.3483
  527MOL0     C72644   3.884   2.765  -0.050 -0.7031 -0.3415 -0.2467
  527MOL0     C72645   3.881   2.891   0.007  0.2913 -0.0955 -0.1336
  527MOL0     C72646   3.900   2.917   0.139  0.1070 -0.4868  0.7703
  527MOL0     O72647   3.908   3.039   0.202  0.6031 -0.2917  0.0753
  527MOL0     C72648   3.883   3.158   0.120  0.9574 -0.4012  0.4706
  527MOL0     C72649   4.014   3.221   0.069 -0.7163  1.6155 -0.1709
  527MOL0     C72650   4.131   3.117   0.040  0.0207 -0.3806  0.0782
  527MOL0     C72651   4.261   3.193   0.016  0.1505 -0.9645  0.0727
  527MOL0     C72652   4.386   3.119   0.022  0.1744 -1.0844 -1.1077
  527MOL0     C72653   4.485   3.058   0.012  0.1001 -0.1834  0.8473
  527MOL0     C72654   3.895   2.808   0.219  0.0046  0.0814  0.4131
  527MOL0     C72655   3.890   2.675   0.173  0.0531  0.6618  0.7223
  527MOL0     C72656   3.869   2.568   0.272 -0.4498  0.2031  0.2693
  527MOL0     H72657   3.857   2.260  -0.214 -0.6061 -1.1500 -3.2581
  527MOL0     H72658   4.008   2.072  -0.262  1.6160 -0.4699 -1.7954
  527MOL0     H72659   4.148   1.935  -0.390 -0.6645  1.7437  0.4886
  527MOL0     H72660   4.214   1.925  -0.236 -3.8482 -0.7959 -0.4626
  527MOL0     H72661   4.340   1.785  -0.406  0.4392 -0.9936  1.1415
  527MOL0     H72662   4.371   1.944  -0.482 -0.8335 -0.9809  0.3644
  527MOL0     H72663   4.496   2.018  -0.296 -2.6312 -0.0842  0.8015
  527MOL0     H72664   4.483   1.859  -0.216 -1.1620 -1.0689 -0.5030
  527MOL0     H72665   4.586   1.742  -0.409  0.4703 -0.2685  0.4969
  527MOL0     H72666   4.607   1.897  -0.489 -2.0246  0.2279 -0.2382
  527MOL0     H72667   4.743   1.864  -0.229  0.4268 -3.7463 -0.2760
  527MOL0     H72668   4.773   1.966  -0.373 -1.5088 -0.0264 -1.5036
  527MOL0     H72669   4.795   1.661  -0.359  0.0028  0.1349  0.1694
  527MOL0     H72670   4.849   1.756  -0.490 -1.9424 -1.0013 -1.2087
  527MOL0     H72671   5.034   1.689  -0.330  0.4100  0.5115 -0.9747
  527MOL0     H72672   4.956   1.784  -0.216  1.1816 -0.5356  0.3456
  527MOL0     H72673   5.042   1.894  -0.498 -2.0064  1.5588 -0.2427
  527MOL0     H72674   5.015   1.996  -0.364  0.5526  0.9223 -0.2121
  527MOL0     H72675   5.179   2.062  -0.218 -1.3548 -0.2882  0.0652
  527MOL0     H72676   5.567   2.037  -0.182  0.0234  2.9289 -0.9532
  527MOL0     H72677   5.445   2.019  -0.056  0.2117 -1.1511 -0.3497
  527MOL0     H72678   5.415   2.219  -0.287  3.0788 -1.5894 -0.8714
  527MOL0     H72679   5.326   2.210  -0.134 -0.4122 -2.0509  0.2807
  527MOL0     H72680   5.552   2.261  -0.008  0.8457  1.7886  0.1620
  527MOL0     H72681   5.628   2.286  -0.167 -0.8681  0.3655 -0.1246
  527MOL0     H72682   5.382   2.454  -0.097 -0.3779  0.2862 -2.4538
  527MOL0     H72683   5.545   2.506  -0.057 -1.0557 -1.4108  0.0574
  527MOL0     H72684   5.750   2.516  -0.123 -1.8566  0.0878  0.5074
  527MOL0     H72685   5.975   2.538  -0.107 -0.8918  3.2234  1.3762
  527MOL0     H72686   6.032   2.670  -0.211 -1.6879  0.0613 -1.5904
  527MOL0     H72687   6.084   2.523  -0.259 -0.4433  3.6291 -4.7436
  527MOL0     H72688   6.262   2.639  -0.533  0.2341  1.6282 -0.7613
  527MOL0     H72689   6.499   2.606  -0.650 -1.4202  0.4376  0.7035
  527MOL0     H72690   6.546   2.565  -0.906 -0.4942  0.1504  0.3000
  527MOL0     H72691   6.680   2.556  -0.792 -0.6259 -2.2343  1.8106
  527MOL0     H72692   6.791   2.500  -0.995 -1.1007  1.1269 -1.4533
  527MOL0     H72693   6.743   2.342  -0.960  1.9742 -0.2172 -4.0815
  527MOL0     H72694   6.604   2.556  -1.125  5.2015  0.8190  2.5207
  527MOL0     H72695   6.523   2.391  -1.082 -0.1618  0.3959 -0.1320
  527MOL0     H72696   6.695   2.286  -1.194 -0.7640  0.3202 -0.8672
  527MOL0     H72697   6.801   2.427  -1.201  0.6977  1.3819  1.9797
  527MOL0     H72698   6.667   2.541  -1.353 -1.0860 -0.3965  1.9599
  527MOL0     H72699   6.701   2.377  -1.427 -2.4638 -1.5692 -0.3247
  527MOL0     H72700   6.436   2.485  -1.314  0.6549 -0.6253 -0.4482
  527MOL0     H72701   6.476   2.310  -1.337  0.9436 -0.4285  0.1882
  527MOL0     H72702   6.512   2.375  -1.582 -0.4687 -0.1453 -0.2368
  527MOL0     H72703   6.488   2.536  -1.527 -1.5289 -0.1311 -0.9960
  527MOL0     H72704   6.251   2.471  -1.442  2.1621 -1.8112  1.1188
  527MOL0     H72705   6.273   2.311  -1.505  0.8720  0.0015  1.5476
  527MOL0     H72706   6.377   2.203  -0.752  1.0503 -0.7467 -0.2487
  527MOL0     H72707   6.175   2.233  -0.604 -0.2112 -0.4063 -0.0511
  527MOL0     H72708   5.748   2.516  -0.616  1.2701  2.1129 -0.6378
  527MOL0     H72709   5.542   2.497  -0.506  0.4554 -0.0063 -0.8037
  527MOL0     H72710   4.338   2.335  -0.287  1.4482 -2.5056  3.1825
  527MOL0     H72711   4.205   2.520  -0.220  0.5435 -0.7499  2.2205
  527MOL0     H72712   3.881   2.751  -0.158 -1.7321 -2.9176  0.0409
  527MOL0     H72713   3.857   2.970  -0.064 -0.6935  0.0134  0.3056
  527MOL0     H72714   3.814   3.143   0.036  0.0761 -0.1328  1.1335
  527MOL0     H72715   3.831   3.228   0.186  1.2354 -0.5803  0.8840
  527MOL0     H72716   4.052   3.296   0.138  1.4588  1.1644 -0.7999
  527MOL0     H72717   3.992   3.262  -0.030 -0.1414  0.7654 -0.6697
  527MOL0     H72718   4.138   3.047   0.123 -0.1268  0.0587  0.4678
  527MOL0     H72719   4.112   3.063  -0.053  0.9105  0.2179 -0.4784
  527MOL0     H72720   4.271   3.283   0.078  2.5532  0.3104 -1.9361
  527MOL0     H72721   4.253   3.221  -0.090 -4.1107  2.4200  1.0083
  527MOL0     H72722   4.574   3.002  -0.007  0.5468  0.8274 -0.1626
  527MOL0     H72723   3.878   2.826   0.324  2.4692  3.1487  0.4455
  527MOL0     H72724   3.898   2.606   0.370 -0.2038  1.4066 -0.2595
  527MOL0     H72725   3.764   2.540   0.286 -0.1464 -1.8225 -1.0140
  527MOL0     H72726   3.931   2.479   0.256  0.0012  0.6966 -0.7651
  528MOL0     O72727   8.468  10.325   1.030  0.1957  0.0634 -0.1248
  528MOL0     C72728   8.341  10.322   1.055 -0.4029  0.0116 -0.4388
  528MOL0     O72729   8.284  10.378   1.171 -0.3410 -0.6225 -0.3809
  528MOL0     C72730   8.342  10.469   1.255  0.7312 -0.2505 -0.6481
  528MOL0     C72731   8.292  10.477   1.380 -0.6550  0.0242  0.2520
  528MOL0     C72732   8.316  10.593   1.457  0.7518  0.3457 -0.6790
  528MOL0     C72733   8.394  10.703   1.414 -0.0749  0.5332  0.4848
  528MOL0     O72734   8.405  10.819   1.493  0.0689  0.7643  0.2704
  528MOL0     C72735   8.526  10.890   1.498  0.8549 -0.6650  0.2559
  528MOL0     C72736   8.593  10.922   1.626 -0.1761  0.3101  0.0466
  528MOL0     C72737   8.647  10.797   1.689  0.0116  0.0811  0.1868
  528MOL0     C72738   8.705  10.821   1.830 -0.5313 -0.4552 -0.2861
  528MOL0     C72739   8.802  10.706   1.862 -0.7027 -0.7787  0.0776
  528MOL0     C72740   8.921  10.679   1.774  0.7633 -1.0439  0.8114
  528MOL0     C72741   9.031  10.596   1.832 -0.3162 -0.0184  0.4030
  528MOL0     C72742   9.126  10.560   1.722  0.7019 -0.0810 -0.8738
  528MOL0     N72743   9.239  10.477   1.774 -0.2891 -0.5401  0.7203
  528MOL0     C72744   9.378  10.504   1.757 -0.2270  0.0367 -0.4109
  528MOL0     C72745   9.438  10.384   1.782  0.0088  0.3989  0.3067
  528MOL0     C72746   9.587  10.372   1.788  0.5307 -0.1011  0.4716
  528MOL0     C72747   9.643  10.324   1.655 -0.1182  0.1480  0.6851
  528MOL0     C72748   9.624  10.170   1.636 -0.3114 -0.3211  1.1017
  528MOL0     C72749   9.720  10.097   1.538  0.9304 -0.0311  0.9607
  528MOL0     O72750   9.868  10.118   1.546  0.7830 -0.4462  0.2175
  528MOL0     C72751   9.929  10.090   1.665  0.3346 -0.3630  0.3142
  528MOL0     C72752  10.049  10.147   1.677 -0.1380  0.3250 -0.3161
  528MOL0     C72753  10.128  10.140   1.796  0.7022  0.5222  0.5082
  528MOL0     C72754  10.268  10.184   1.782 -0.0299  0.5455  0.7402
  528MOL0     C72755  10.082  10.087   1.911  0.5697 -0.0199  0.3744
  528MOL0     C72756  10.160  10.084   2.045  0.0701  0.7169  0.6292
  528MOL0     O72757  10.125   9.977   2.119 -0.6541  0.6126  0.1985
  528MOL0     C72758  10.201   9.947   2.233  0.2363  0.3564  0.9301
  528MOL0     C72759  10.139   9.892   2.347  0.5543  0.4980  0.1471
  528MOL0     C72760  10.213   9.854   2.455  0.6849  0.0796 -1.3046
  528MOL0     C72761  10.347   9.872   2.462  0.1437 -1.1170 -0.0307
  528MOL0     O72762  10.407   9.847   2.584  0.6283  0.3984  0.3815
  528MOL0     C72763  10.381   9.948   2.686  0.6811  0.5141 -0.3290
  528MOL0     C72764  10.313   9.876   2.806  0.0163 -0.5285 -0.5284
  528MOL0     C72765  10.418   9.792   2.880  0.5143  0.1966 -0.0181
  528MOL0     C72766  10.449   9.858   3.013  0.4014  0.5284 -0.0589
  528MOL0     C72767  10.537   9.780   3.106 -0.3801  0.0731  0.2082
  528MOL0     C72768  10.552   9.840   3.246 -0.2673 -1.4389  0.0633
  528MOL0     C72769  10.427   9.802   3.332  0.1746 -1.0339 -0.5772
  528MOL0     C72770  10.471   9.773   3.477  0.2175 -0.0071 -0.3645
  528MOL0    Cl72771  10.341   9.761   3.596 -0.0676 -0.3100  0.2300
  528MOL0     C72772  10.411   9.919   2.352  0.5820 -0.1478 -0.0600
  528MOL0     C72773  10.341   9.956   2.239  0.2446  0.1835  0.2346
  528MOL0     O72774  10.251  10.163   2.066  0.7026  0.3346 -0.1736
  528MOL0     C72775   9.951  10.031   1.907 -0.5842  0.7977 -0.2031
  528MOL0     C72776   9.881  10.029   1.784 -0.0394 -0.4245  0.0095
  528MOL0     N72777   9.343  10.292   1.811  0.6254  0.8034  0.1896
  528MOL0     N72778   9.226  10.347   1.812  1.1203  0.2510  0.0801
  528MOL0     C72779   8.457  10.687   1.289  0.5759  0.5241  0.4130
  528MOL0     C72780   8.428  10.575   1.216 -0.8527  0.8005  0.4077
  528MOL0     C72781   8.247  10.249   0.969 -0.1179  0.1413  0.3939
  528MOL0     C72782   8.115  10.297   0.972  0.7644  0.3718  0.2581
  528MOL0     C72783   8.031  10.267   0.866 -0.0301  0.1658 -0.3988
  528MOL0     C72784   8.072  10.184   0.760 -0.3727 -0.0500  0.0214
  528MOL0     O72785   7.986  10.168   0.656  0.4913  0.4211  0.7801
  528MOL0     C72786   8.010  10.070   0.554 -0.2411 -0.1852  0.0405
  528MOL0     C72787   8.113  10.115   0.453  0.4665  1.0661 -0.0382
  528MOL0     C72788   8.094  10.061   0.303  0.0877 -0.1929  0.8199
  528MOL0     C72789   8.180  10.140   0.202  0.5348 -0.2396  0.6306
  528MOL0     C72790   8.108  10.263   0.158  0.1592 -0.4720  0.3037
  528MOL0     C72791   8.049  10.370   0.144 -0.6372  0.5149  1.0471
  528MOL0     C72792   8.195  10.129   0.771 -0.6575  0.0128  0.0698
  528MOL0     C72793   8.283  10.152   0.871  0.1496 -0.6952 -0.2929
  528MOL0     C72794   8.424  10.093   0.870 -0.2275  0.6427 -0.1826
  528MOL0     H72795   8.220  10.399   1.406 -1.1102  0.4864  0.3961
  528MOL0     H72796   8.280  10.612   1.557  0.5210  3.4039 -1.2456
  528MOL0     H72797   8.496  10.983   1.449 -2.8633 -1.3848  0.8704
  528MOL0     H72798   8.608  10.848   1.439  3.2468 -0.1428  2.9369
  528MOL0     H72799   8.668  10.997   1.599 -2.5580  3.2543  1.0626
  528MOL0     H72800   8.527  10.963   1.703  0.8038 -2.3019  2.4749
  528MOL0     H72801   8.568  10.723   1.709  0.6252 -0.2083  1.6813
  528MOL0     H72802   8.708  10.742   1.617  1.4654 -0.7532  1.9693
  528MOL0     H72803   8.766  10.912   1.842  2.2913 -2.4190  1.3672
  528MOL0     H72804   8.623  10.842   1.899  1.4077  1.3931  1.5944
  528MOL0     H72805   8.748  10.611   1.870 -1.3940 -0.6498 -2.2813
  528MOL0     H72806   8.852  10.726   1.958  2.8347  1.1090 -1.9488
  528MOL0     H72807   8.879  10.626   1.688 -1.5183  2.8097 -0.6868
  528MOL0     H72808   8.958  10.773   1.732  1.5203 -1.8977 -0.5039
  528MOL0     H72809   8.984  10.500   1.856  1.4680 -1.1745 -0.4747
  528MOL0     H72810   9.073  10.652   1.916  1.4235  0.1295 -0.5260
  528MOL0     H72811   9.070  10.505   1.646  2.5645 -1.4143 -1.3490
  528MOL0     H72812   9.168  10.658   1.696 -1.6167  2.2752  3.2339
  528MOL0     H72813   9.434  10.594   1.734  1.7813 -1.7536 -3.0202
  528MOL0     H72814   9.619  10.312   1.874  3.2302  1.1061  0.4116
  528MOL0     H72815   9.625  10.473   1.804  2.5699 -0.8976  0.8964
  528MOL0     H72816   9.578  10.371   1.580 -0.4677 -2.3644 -0.6893
  528MOL0     H72817   9.742  10.355   1.623 -0.0774 -0.2439  0.4282
  528MOL0     H72818   9.620  10.125   1.736  0.4268  3.4527  2.9810
  528MOL0     H72819   9.529  10.168   1.582 -0.0035  1.7015  0.4136
  528MOL0     H72820   9.720   9.988   1.538 -0.0948 -0.0785  3.4846
  528MOL0     H72821   9.682  10.137   1.444  0.3716 -0.4992  0.9870
  528MOL0     H72822  10.091  10.194   1.589  0.2588 -0.5655 -0.6231
  528MOL0     H72823  10.282  10.289   1.808  1.1207  0.1565  1.8178
  528MOL0     H72824  10.304  10.173   1.679  0.8511 -0.7210  1.1605
  528MOL0     H72825  10.336  10.129   1.848  2.7531 -0.9555 -2.9805
  528MOL0     H72826  10.032   9.874   2.357  0.5193  0.3829 -0.4269
  528MOL0     H72827  10.157   9.805   2.535  0.4355 -0.1894 -1.6361
  528MOL0     H72828  10.479   9.985   2.718  1.7234 -1.0804 -1.4971
  528MOL0     H72829  10.322  10.035   2.656  0.4978  1.7004  3.0343
  528MOL0     H72830  10.263   9.954   2.865  0.4753 -0.5799 -0.0627
  528MOL0     H72831  10.240   9.800   2.777 -1.3756 -0.3413  2.1721
  528MOL0     H72832  10.500   9.767   2.812 -0.0961 -0.6307 -0.4684
  528MOL0     H72833  10.366   9.704   2.919 -0.5209  0.8145  0.0444
  528MOL0     H72834  10.354   9.878   3.062 -0.0201  0.6721 -0.9172
  528MOL0     H72835  10.501   9.954   3.005  0.6522  0.2367 -2.9094
  528MOL0     H72836  10.506   9.675   3.105  0.9957 -0.3941  2.0049
  528MOL0     H72837  10.638   9.766   3.066  0.8445  0.5876  2.8973
  528MOL0     H72838  10.564   9.949   3.242  3.6394 -1.4901  3.5955
  528MOL0     H72839  10.649   9.812   3.288  1.0859  2.3721 -0.1268
  528MOL0     H72840  10.377   9.713   3.294  0.3372 -0.6339 -1.7902
  528MOL0     H72841  10.351   9.881   3.333 -0.7567 -1.9187 -0.5820
  528MOL0     H72842  10.515   9.863   3.523 -0.8817  0.5716 -0.4010
  528MOL0     H72843  10.541   9.689   3.478 -0.5542 -0.7768  3.6205
  528MOL0     H72844  10.519   9.930   2.358  0.8190 -0.3599 -2.6568
  528MOL0     H72845  10.402   9.999   2.160  1.9809 -1.2358  0.7619
  528MOL0     H72846   9.906   9.996   2.000  0.8698  0.0639  0.2563
  528MOL0     H72847   9.780   9.988   1.789  0.3849 -1.3602  1.4642
  528MOL0     H72848   8.519  10.765   1.246  2.9809 -0.2209  2.3204
  528MOL0     H72849   8.481  10.570   1.121  1.0649  1.1892  1.4165
  528MOL0     H72850   8.089  10.377   1.040 -0.1265  1.2969 -1.1276
  528MOL0     H72851   7.928  10.298   0.870 -0.1031 -0.0280 -0.7791
  528MOL0     H72852   8.034   9.971   0.594 -0.9056  0.3616  1.9254
  528MOL0     H72853   7.921  10.064   0.491  0.4662  0.8648 -1.0988
  528MOL0     H72854   8.213  10.091   0.491  1.9558  3.4212 -2.0697
  528MOL0     H72855   8.121  10.224   0.448 -0.1792  1.1187 -0.0004
  528MOL0     H72856   8.123   9.956   0.303  2.9099  0.4489  2.8458
  528MOL0     H72857   7.988  10.070   0.280  0.1126 -1.0569  0.3366
  528MOL0     H72858   8.202  10.078   0.115  0.9759  1.0300 -0.1917
  528MOL0     H72859   8.275  10.176   0.242  0.1111  1.9680 -0.2225
  528MOL0     H72860   8.015  10.464   0.105 -3.1105 -0.1251  1.5133
  528MOL0     H72861   8.231  10.055   0.700 -1.9559  0.0643 -0.6816
  528MOL0     H72862   8.496  10.164   0.828  0.4487  0.1750  0.1704
  528MOL0     H72863   8.448  10.051   0.968 -1.1261 -2.6379 -1.2120
  528MOL0     H72864   8.433  10.002   0.808 -2.7443 -0.3764  0.8392
  529MOL0     O72865   7.189   1.828   8.089 -0.6994 -0.3563 -0.0177
  529MOL0     C72866   7.291   1.889   8.105 -0.9173  0.1980 -0.6332
  529MOL0     O72867   7.333   1.999   8.041  0.1312 -0.1703 -0.5251
  529MOL0     C72868   7.267   2.060   7.942  0.9474 -0.7322  0.2415
  529MOL0     C72869   7.339   2.159   7.868 -0.1023 -0.3282  0.3935
  529MOL0     C72870   7.286   2.241   7.769  0.8076  0.4377 -0.5633
  529MOL0     C72871   7.156   2.219   7.728 -0.9007  0.2682 -0.6573
  529MOL0     O72872   7.081   2.291   7.646 -0.4216  0.5444 -0.0803
  529MOL0     C72873   7.155   2.356   7.535  0.4469  0.0726 -0.2840
  529MOL0     C72874   7.065   2.390   7.409  0.7503  0.1632 -0.1933
  529MOL0     C72875   6.922   2.436   7.438  0.2744 -0.7292 -0.3884
  529MOL0     C72876   6.833   2.457   7.316 -0.5626  0.0341  0.4691
  529MOL0     C72877   6.730   2.565   7.336  0.1840 -0.1521 -0.3989
  529MOL0     C72878   6.602   2.541   7.254 -0.3438  0.0861 -0.6627
  529MOL0     C72879   6.519   2.669   7.240 -0.3325  0.1142 -0.4281
  529MOL0     C72880   6.409   2.699   7.346  0.7900  0.3561 -0.3443
  529MOL0     N72881   6.288   2.611   7.325 -0.0052 -1.1309 -0.2800
  529MOL0     C72882   6.265   2.500   7.403  0.0909  0.1462  0.1156
  529MOL0     C72883   6.148   2.456   7.350 -0.0106  1.3192 -1.2683
  529MOL0     C72884   6.074   2.336   7.410 -0.1088  0.1299 -0.5644
  529MOL0     C72885   5.995   2.374   7.538 -0.0391 -0.4118  0.7120
  529MOL0     C72886   5.905   2.257   7.592 -0.6934 -0.8638  0.5073
  529MOL0     C72887   5.805   2.302   7.706  0.3651 -0.4562 -0.3240
  529MOL0     O72888   5.878   2.343   7.823 -0.0888  0.2376  0.0135
  529MOL0     C72889   5.841   2.449   7.908 -0.6348 -0.3903  0.4178
  529MOL0     C72890   5.918   2.472   8.018 -0.1964  0.5166 -0.3928
  529MOL0     C72891   5.910   2.588   8.092  0.3375  0.3034 -0.3295
  529MOL0     C72892   5.991   2.599   8.217  0.0015 -0.8853  0.0727
  529MOL0     C72893   5.815   2.681   8.060 -0.4517 -0.1184 -0.3280
  529MOL0     C72894   5.796   2.800   8.148 -0.7805 -1.1735 -0.5995
  529MOL0     O72895   5.906   2.874   8.176 -0.0591  0.0807  0.4480
  529MOL0     C72896   5.914   2.950   8.281 -0.1302  0.6007  0.6602
  529MOL0     C72897   5.851   2.919   8.402  0.2221  0.5927  0.1454
  529MOL0     C72898   5.883   2.993   8.516 -0.7179 -0.3533 -0.9922
  529MOL0     C72899   5.971   3.101   8.516 -0.9513 -0.0462 -0.4597
  529MOL0     O72900   6.010   3.164   8.637 -0.0526 -0.7151  0.3517
  529MOL0     C72901   6.068   3.291   8.626  0.6797 -0.6705  0.1352
  529MOL0     C72902   6.071   3.355   8.769 -0.3648  0.5453 -0.0157
  529MOL0     C72903   5.930   3.395   8.811  0.9456 -0.1275  0.1916
  529MOL0     C72904   5.889   3.362   8.956  0.3237 -1.3124  0.2688
  529MOL0     C72905   5.769   3.455   8.990 -0.2533 -0.0049  1.2189
  529MOL0     C72906   5.730   3.457   9.138  0.0952  0.4213  0.6779
  529MOL0     C72907   5.730   3.312   9.203  0.5541 -0.8624  0.7503
  529MOL0     C72908   5.621   3.306   9.304 -0.8846  0.3200  0.3056
  529MOL0    Cl72909   5.639   3.418   9.441  0.2933  0.1562 -0.3627
  529MOL0     C72910   6.033   3.130   8.394 -0.1785  0.0118 -0.3158
  529MOL0     C72911   6.004   3.049   8.281 -0.1132 -0.3836  0.1269
  529MOL0     O72912   5.684   2.830   8.184  0.2958  1.0529  0.3844
  529MOL0     C72913   5.725   2.654   7.955 -1.5198 -0.5510  0.1247
  529MOL0     C72914   5.741   2.541   7.864 -0.0544 -0.1863 -0.8300
  529MOL0     N72915   6.105   2.533   7.246 -0.0894  0.0596  0.7483
  529MOL0     N72916   6.189   2.627   7.227 -0.4114  0.6978  0.5143
  529MOL0     C72917   7.078   2.122   7.795 -0.0490  0.1668  0.1935
  529MOL0     C72918   7.140   2.043   7.897  0.6941 -0.0809 -0.3156
  529MOL0     C72919   7.392   1.829   8.198  0.2097 -0.6322 -0.1294
  529MOL0     C72920   7.527   1.870   8.182  0.0518  0.0858 -0.2716
  529MOL0     C72921   7.634   1.808   8.257 -0.1647  0.7278 -0.5485
  529MOL0     C72922   7.605   1.721   8.358  0.0993  0.2295 -0.3117
  529MOL0     O72923   7.714   1.690   8.436 -0.2350 -0.6282 -0.3494
  529MOL0     C72924   7.712   1.580   8.532  0.0456 -0.4378 -0.2823
  529MOL0     C72925   7.852   1.559   8.596  0.3885 -0.1944  0.4994
  529MOL0     C72926   7.837   1.471   8.722 -0.3779  0.0694  1.0497
  529MOL0     C72927   7.972   1.470   8.802  0.6339  0.0037 -0.1697
  529MOL0     C72928   8.095   1.452   8.735  0.1286  0.2658  0.6792
  529MOL0     C72929   8.192   1.429   8.667  0.1991 -0.5809 -0.2986
  529MOL0     C72930   7.479   1.676   8.377  1.3943 -0.2179  0.0125
  529MOL0     C72931   7.372   1.726   8.303 -0.6756  0.8008 -0.0617
  529MOL0     C72932   7.232   1.662   8.316 -0.6724 -0.2785  0.3654
  529MOL0     H72933   7.443   2.179   7.892 -0.5954 -0.4938  3.0837
  529MOL0     H72934   7.345   2.323   7.727  3.6628 -1.9815 -1.6316
  529MOL0     H72935   7.221   2.273   7.507  0.9841 -0.2301  1.7518
  529MOL0     H72936   7.215   2.436   7.577  1.9938 -3.0292  4.1155
  529MOL0     H72937   7.106   2.472   7.349  2.6597 -0.7069 -0.1588
  529MOL0     H72938   7.058   2.302   7.345  2.0489  0.2829 -0.5208
  529MOL0     H72939   6.868   2.359   7.493 -2.0843  0.9103 -0.2501
  529MOL0     H72940   6.925   2.534   7.488 -0.2389 -0.1002 -1.5675
  529MOL0     H72941   6.896   2.478   7.229  1.7385 -1.1100  1.7345
  529MOL0     H72942   6.776   2.368   7.288 -2.0089  1.0812  0.0239
  529MOL0     H72943   6.785   2.658   7.318  1.1097 -0.9077 -1.6843
  529MOL0     H72944   6.697   2.555   7.440 -0.0219  1.2653 -0.3117
  529MOL0     H72945   6.635   2.510   7.155  0.8293  0.4937 -0.4118
  529MOL0     H72946   6.536   2.460   7.287 -0.0372 -0.3981 -1.2346
  529MOL0     H72947   6.464   2.663   7.145  1.1977  4.0292 -1.7628
  529MOL0     H72948   6.582   2.757   7.225 -0.1608 -0.2304 -1.8808
  529MOL0     H72949   6.446   2.683   7.447  1.8534  0.0262 -0.7743
  529MOL0     H72950   6.366   2.798   7.329 -2.3307 -1.1577 -2.1345
  529MOL0     H72951   6.331   2.470   7.484  1.7288  0.3714 -1.0985
  529MOL0     H72952   6.138   2.259   7.452 -0.1117  1.7348  2.7022
  529MOL0     H72953   6.013   2.290   7.332  0.8972 -2.8621  0.2967
  529MOL0     H72954   6.065   2.402   7.618 -0.7243 -0.0053  1.1781
  529MOL0     H72955   5.929   2.459   7.518  0.3815 -0.5007 -1.2284
  529MOL0     H72956   5.855   2.211   7.506 -1.2867 -3.1630  1.9873
  529MOL0     H72957   5.978   2.179   7.617  2.4223  1.4847 -0.6482
  529MOL0     H72958   5.739   2.374   7.656 -0.4527  0.4655  1.9330
  529MOL0     H72959   5.746   2.216   7.737 -4.7782  2.8875  0.4136
  529MOL0     H72960   5.987   2.394   8.048 -1.1835  1.0112  3.8393
  529MOL0     H72961   6.022   2.498   8.248  1.5138 -0.7478 -0.9155
  529MOL0     H72962   5.932   2.642   8.298 -0.5944 -1.5230 -0.0182
  529MOL0     H72963   6.080   2.661   8.207  0.6981 -1.6863  1.0447
  529MOL0     H72964   5.785   2.834   8.413 -0.2335  1.1905  2.9588
  529MOL0     H72965   5.835   2.966   8.609  2.4542  2.3407  1.6550
  529MOL0     H72966   6.171   3.290   8.589  0.4596 -0.3066 -0.5081
  529MOL0     H72967   6.001   3.354   8.567  1.4491  0.3587  0.3169
  529MOL0     H72968   6.111   3.273   8.829  1.2485 -0.1937 -1.9720
  529MOL0     H72969   6.140   3.440   8.770  0.2111  0.1568 -2.1066
  529MOL0     H72970   5.853   3.334   8.764  2.3245 -3.0120  1.4037
  529MOL0     H72971   5.911   3.501   8.794  1.6834 -0.3213 -2.2013
  529MOL0     H72972   5.975   3.391   9.017  1.3308 -1.4350 -1.0444
  529MOL0     H72973   5.865   3.256   8.974  3.7457 -1.8770  2.4699
  529MOL0     H72974   5.800   3.556   8.964 -0.1084 -0.4965 -0.6789
  529MOL0     H72975   5.676   3.435   8.935  1.0757 -0.2233 -1.0771
  529MOL0     H72976   5.635   3.513   9.140 -1.2649 -1.7780  0.6543
  529MOL0     H72977   5.803   3.513   9.197 -0.3829  3.6994 -1.5395
  529MOL0     H72978   5.827   3.303   9.254  0.3121  0.1055  1.4004
  529MOL0     H72979   5.729   3.236   9.125 -1.4221  0.2223 -0.3361
  529MOL0     H72980   5.622   3.207   9.351  1.0704  0.5332  0.7827
  529MOL0     H72981   5.523   3.323   9.258 -0.2757 -0.5810 -1.4056
  529MOL0     H72982   6.112   3.202   8.375  1.5876 -1.4890  1.0386
  529MOL0     H72983   6.059   3.066   8.189 -1.6734 -1.7516 -1.1219
  529MOL0     H72984   5.647   2.724   7.925 -2.1947 -1.8793 -1.3995
  529MOL0     H72985   5.691   2.539   7.768 -3.4719  0.5598  0.7864
  529MOL0     H72986   6.978   2.084   7.777  0.2986 -0.6081 -0.1477
  529MOL0     H72987   7.076   1.973   7.951  0.6203 -0.4514 -0.8850
  529MOL0     H72988   7.544   1.954   8.116 -2.5274 -0.6932 -2.0531
  529MOL0     H72989   7.734   1.850   8.242 -0.8271  1.9017 -2.0116
  529MOL0     H72990   7.644   1.609   8.612  2.4315  3.0081  0.7487
  529MOL0     H72991   7.686   1.488   8.479  1.9685 -0.8584 -0.5799
  529MOL0     H72992   7.890   1.659   8.620 -1.4924  0.4552  0.9459
  529MOL0     H72993   7.927   1.510   8.533 -0.8527 -1.3796 -0.1148
  529MOL0     H72994   7.746   1.489   8.780  0.0921 -2.2060  2.6227
  529MOL0     H72995   7.820   1.366   8.698  2.0183 -0.2210  0.3807
  529MOL0     H72996   7.965   1.394   8.881  1.5316 -0.7531 -0.8028
  529MOL0     H72997   7.972   1.567   8.853 -2.5794  2.5890 -4.4370
  529MOL0     H72998   8.275   1.413   8.601  0.5158  1.3857 -0.4572
  529MOL0     H72999   7.454   1.603   8.453 -1.3918 -0.3180 -0.8625
  529MOL0     H73000   7.158   1.738   8.341 -0.1070  0.6076 -0.5889
  529MOL0     H73001   7.200   1.620   8.219 -1.2409  2.2386 -0.6039
  529MOL0     H73002   7.242   1.588   8.396  2.4380  1.3047  1.5953
  530MOL0     O73003   6.085  11.101   4.443 -0.5344 -0.9536  0.6757
  530MOL0     C73004   5.995  11.142   4.520 -0.1894 -0.1069  0.2097
  530MOL0     O73005   5.934  11.065   4.619  0.5835  0.2833 -0.2842
  530MOL0     C73006   5.978  10.942   4.653 -0.2503  1.0701  0.1540
  530MOL0     C73007   5.999  10.905   4.791  0.4412 -0.2892  0.4571
  530MOL0     C73008   6.043  10.781   4.833 -0.1503  0.1097  0.4218
  530MOL0     C73009   6.086  10.689   4.728 -0.1679  0.1318 -0.5297
  530MOL0     O73010   6.125  10.561   4.772 -0.5731  0.0218  0.2849
  530MOL0     C73011   6.025  10.483   4.841 -0.9429  0.5290 -0.3076
  530MOL0     C73012   6.100  10.422   4.961 -0.3892  0.2902  0.2988
  530MOL0     C73013   6.020  10.311   5.031  0.0690  0.1711 -0.0002
  530MOL0     C73014   6.093  10.254   5.155 -0.9368 -0.4491 -0.8022
  530MOL0     C73015   6.009  10.146   5.221  0.5001 -0.1282 -0.3887
  530MOL0     C73016   6.095  10.060   5.298  0.2236  0.0752 -0.2146
  530MOL0     C73017   6.011   9.974   5.390 -0.6172  0.0705  0.0092
  530MOL0     C73018   6.105   9.878   5.462 -0.0612 -0.1639  0.7731
  530MOL0     N73019   6.068   9.840   5.602 -0.7489  0.2145  0.6867
  530MOL0     C73020   6.082   9.910   5.718 -1.0807 -0.5738 -0.0868
  530MOL0     C73021   6.021   9.840   5.818  0.1857  0.5144 -0.1457
  530MOL0     C73022   6.030   9.876   5.960 -1.0080  0.4505  0.0050
  530MOL0     C73023   6.140   9.788   6.024 -0.1098  0.5792  0.2114
  530MOL0     C73024   6.183   9.838   6.161 -0.5560  0.1043 -0.5711
  530MOL0     C73025   6.246   9.970   6.156  0.3929 -0.0021 -0.2967
  530MOL0     O73026   6.309   9.997   6.280 -0.2649 -0.4437  0.7117
  530MOL0     C73027   6.242  10.001   6.397 -0.5894 -0.7302 -0.9798
  530MOL0     C73028   6.112  10.043   6.414  0.9655 -0.4795 -0.3879
  530MOL0     C73029   6.040  10.049   6.533 -0.4045  0.5611  0.5485
  530MOL0     C73030   5.907  10.110   6.517 -0.2601 -0.5870 -0.0681
  530MOL0     C73031   6.110  10.022   6.652  0.4423 -0.0305  0.1847
  530MOL0     C73032   6.057  10.050   6.786 -0.1999  0.6777  0.6053
  530MOL0     O73033   6.153  10.081   6.884 -0.2744 -0.0078  0.5303
  530MOL0     C73034   6.116  10.124   7.008  0.8594  0.1209  0.3340
  530MOL0     C73035   6.067  10.249   7.019  0.4215 -0.1884  0.3291
  530MOL0     C73036   6.051  10.299   7.153 -0.5951 -0.2379 -0.5204
  530MOL0     C73037   6.068  10.223   7.266 -1.3831  0.3301  0.6685
  530MOL0     O73038   6.046  10.286   7.387  0.4618  1.1530 -0.3345
  530MOL0     C73039   6.017  10.205   7.501  0.0391  0.5145 -0.4746
  530MOL0     C73040   5.972  10.282   7.623  0.1568  0.0491 -0.7385
  530MOL0     C73041   5.835  10.358   7.610 -0.5175  0.1806 -0.2101
  530MOL0     C73042   5.719  10.258   7.612 -0.0053  0.0550  0.1662
  530MOL0     C73043   5.581  10.325   7.583 -0.0327  0.0497  0.0784
  530MOL0     C73044   5.551  10.419   7.699  0.0022 -0.2071  0.1950
  530MOL0     C73045   5.399  10.450   7.704  0.2665  0.2158  0.3469
  530MOL0     C73046   5.370  10.559   7.810  0.5748  0.2741 -0.2564
  530MOL0    Cl73047   5.441  10.707   7.747  0.4835 -0.0469  0.0878
  530MOL0     C73048   6.112  10.087   7.256  0.0435 -0.7312  0.5097
  530MOL0     C73049   6.137  10.037   7.120  0.0648 -0.3587  0.2054
  530MOL0     O73050   5.934  10.054   6.810 -0.2030 -0.2644  0.1754
  530MOL0     C73051   6.244   9.988   6.646 -0.5283 -0.1900  0.7284
  530MOL0     C73052   6.302   9.980   6.510 -0.6204  0.3030 -0.4254
  530MOL0     N73053   5.952   9.731   5.759 -0.0355 -0.6593  0.4643
  530MOL0     N73054   5.981   9.727   5.630 -0.0841 -0.5663 -0.3023
  530MOL0     C73055   6.058  10.717   4.600  0.1426 -0.1317  0.2035
  530MOL0     C73056   6.008  10.839   4.558 -1.5454  0.7898 -0.7526
  530MOL0     C73057   5.955  11.284   4.509 -0.1333  0.8374  0.8223
  530MOL0     C73058   5.863  11.327   4.598 -0.0121  0.6751 -0.0973
  530MOL0     C73059   5.842  11.464   4.615  0.5270 -0.3497  0.4878
  530MOL0     C73060   5.910  11.558   4.538  0.3811 -0.1816  0.8257
  530MOL0     O73061   5.887  11.691   4.572  0.2979 -0.5030 -0.4348
  530MOL0     C73062   5.921  11.787   4.471 -0.0262 -0.3454  0.2706
  530MOL0     C73063   5.876  11.928   4.494  0.3420  0.7679  0.5478
  530MOL0     C73064   5.729  11.945   4.546 -0.1401  1.0587 -0.4350
  530MOL0     C73065   5.680  12.087   4.546 -0.6884 -0.0655  0.3614
  530MOL0     C73066   5.757  12.177   4.633 -0.5752 -0.1855  0.1468
  530MOL0     C73067   5.830  12.243   4.696 -0.9227 -0.6690  0.2199
  530MOL0     C73068   5.987  11.516   4.436  0.2923  0.3631 -0.8983
  530MOL0     C73069   6.013  11.381   4.414  0.4401  0.2684  0.9092
  530MOL0     C73070   6.105  11.360   4.297  0.1446  0.2575 -0.4450
  530MOL0     H73071   5.969  10.981   4.863  0.8861  0.7626 -0.4283
  530MOL0     H73072   6.053  10.751   4.936  0.2310  1.0727  0.6763
  530MOL0     H73073   5.985  10.409   4.772 -0.6071  2.0507 -2.2100
  530MOL0     H73074   5.933  10.532   4.874 -2.4962 -1.5418 -1.3704
  530MOL0     H73075   6.194  10.375   4.930 -2.0675 -1.1917 -2.9529
  530MOL0     H73076   6.113  10.507   5.029  2.3416 -1.0687  1.6446
  530MOL0     H73077   5.920  10.338   5.069 -0.4370 -1.5108 -0.0448
  530MOL0     H73078   6.003  10.222   4.969 -0.7334  0.2444  0.0977
  530MOL0     H73079   6.194  10.216   5.140 -0.1731  0.7225  1.0980
  530MOL0     H73080   6.109  10.333   5.229 -1.8011  1.9651 -3.0392
  530MOL0     H73081   5.962  10.087   5.141  1.9898  1.1868 -2.3495
  530MOL0     H73082   5.921  10.184   5.274 -0.0264  0.3007 -1.5316
  530MOL0     H73083   6.164   9.998   5.241  0.2287 -0.2027  0.0894
  530MOL0     H73084   6.159  10.124   5.360  1.2976 -2.3721  1.3228
  530MOL0     H73085   5.942   9.909   5.335  1.1853 -0.5435 -1.6106
  530MOL0     H73086   5.952  10.043   5.450 -3.3549 -1.8348 -0.2876
  530MOL0     H73087   6.096   9.787   5.402 -1.9348 -0.0178  0.7849
  530MOL0     H73088   6.208   9.915   5.460  0.6427 -1.9839  1.1803
  530MOL0     H73089   6.127  10.009   5.724  1.2973 -1.4473 -1.8323
  530MOL0     H73090   5.935   9.865   6.013 -1.5426  0.2709 -0.9640
  530MOL0     H73091   6.060   9.981   5.968  2.1543 -0.1751 -1.9922
  530MOL0     H73092   6.082   9.696   6.037 -1.8046  1.6078  0.2010
  530MOL0     H73093   6.228   9.783   5.960  0.0977  3.8396  0.0922
  530MOL0     H73094   6.088   9.859   6.212 -0.5421 -1.1448  0.0086
  530MOL0     H73095   6.244   9.763   6.211 -2.5717 -1.2534 -0.0323
  530MOL0     H73096   6.326   9.970   6.081  0.2533  1.7382 -0.4731
  530MOL0     H73097   6.178  10.051   6.131  0.1718  0.9000  2.7635
  530MOL0     H73098   6.084  10.073   6.314  2.0004  2.1188  0.0220
  530MOL0     H73099   5.879  10.121   6.412  0.0926  0.0789 -0.0929
  530MOL0     H73100   5.900  10.210   6.561 -2.5077 -1.0604  0.8183
  530MOL0     H73101   5.833  10.039   6.557  2.5314 -4.4534 -1.1637
  530MOL0     H73102   6.063  10.325   6.941  0.8205  1.5453  1.9212
  530MOL0     H73103   6.003  10.396   7.165  1.2813  0.5577  1.2380
  530MOL0     H73104   5.942  10.131   7.474  1.2505 -1.2449  0.7255
  530MOL0     H73105   6.104  10.149   7.537 -0.8625 -0.4594  0.2328
  530MOL0     H73106   5.959  10.203   7.698 -0.9220  1.1289  0.2609
  530MOL0     H73107   6.051  10.348   7.659 -0.2176  0.9462 -1.5315
  530MOL0     H73108   5.834  10.417   7.518 -1.2196 -1.3875 -1.2491
  530MOL0     H73109   5.835  10.431   7.691  0.6229  0.8678 -0.8110
  530MOL0     H73110   5.709  10.208   7.709 -1.0397  0.1964  0.1365
  530MOL0     H73111   5.739  10.184   7.534 -2.6914 -2.9005  2.0500
  530MOL0     H73112   5.578  10.371   7.484 -0.3872 -1.2832 -0.5654
  530MOL0     H73113   5.506  10.245   7.581 -0.5877  0.5736 -0.2388
  530MOL0     H73114   5.618  10.504   7.691 -0.2738  0.2553  2.2001
  530MOL0     H73115   5.582  10.363   7.788 -0.4146 -0.2949  0.2901
  530MOL0     H73116   5.334  10.366   7.729 -0.4609 -0.0410 -2.1601
  530MOL0     H73117   5.363  10.473   7.604 -0.5891 -1.4826  0.2339
  530MOL0     H73118   5.399  10.539   7.914  1.2730  2.5926  0.0668
  530MOL0     H73119   5.261  10.560   7.804  0.6579 -0.4005 -2.9103
  530MOL0     H73120   6.120  10.028   7.346 -0.6315 -1.6338 -0.0038
  530MOL0     H73121   6.177   9.941   7.088 -0.3454 -0.3816 -0.2485
  530MOL0     H73122   6.312   9.979   6.730 -1.5261  0.0339  1.5865
  530MOL0     H73123   6.408   9.966   6.497 -0.3751  2.4538 -1.1287
  530MOL0     H73124   6.092  10.638   4.534  1.0723  0.5235 -0.1182
  530MOL0     H73125   5.997  10.862   4.453  2.9090  1.2956 -1.3128
  530MOL0     H73126   5.807  11.248   4.648 -0.9058  1.8432  0.8297
  530MOL0     H73127   5.758  11.484   4.682  1.6306  1.5838  1.3627
  530MOL0     H73128   6.030  11.784   4.470 -0.0141 -4.4732  0.2268
  530MOL0     H73129   5.880  11.757   4.374 -0.0952  3.4192 -1.0355
  530MOL0     H73130   5.890  11.980   4.398 -4.8391 -0.1562 -1.0537
  530MOL0     H73131   5.954  11.974   4.555 -0.5524  1.3511  1.2731
  530MOL0     H73132   5.668  11.876   4.486  1.1639 -1.0359  0.5094
  530MOL0     H73133   5.727  11.901   4.646  1.8323 -1.0300 -1.2215
  530MOL0     H73134   5.578  12.080   4.583 -0.8677  1.9007  0.3832
  530MOL0     H73135   5.677  12.121   4.442  0.2812  0.0545  0.3595
  530MOL0     H73136   5.886  12.304   4.763 -1.8482  1.8789 -1.1937
  530MOL0     H73137   6.034  11.596   4.380  1.7248  2.6325  3.0742
  530MOL0     H73138   6.098  11.259   4.255  0.0372 -0.4618  1.2066
  530MOL0     H73139   6.083  11.422   4.209  0.9397 -0.6638 -1.3124
  530MOL0     H73140   6.205  11.391   4.327 -1.0773  2.4730  1.7693
  531MOL0     O73141   6.362   9.064   8.866 -0.1973 -0.0307 -0.1541
  531MOL0     C73142   6.472   9.103   8.822 -0.3797  0.3686 -0.5081
  531MOL0     O73143   6.495   9.212   8.731 -0.3876 -0.0690  0.3067
  531MOL0     C73144   6.388   9.251   8.653 -1.0815  0.0411 -0.3009
  531MOL0     C73145   6.322   9.367   8.677 -0.5348  0.2204  0.4263
  531MOL0     C73146   6.215   9.414   8.599  0.2554 -0.5930  0.0934
  531MOL0     C73147   6.175   9.329   8.493  0.6274 -0.1427  0.7472
  531MOL0     O73148   6.057   9.361   8.425 -0.3329  0.5220  1.1179
  531MOL0     C73149   6.008   9.276   8.317 -0.2344  0.0194 -0.4962
  531MOL0     C73150   5.910   9.344   8.222 -0.1946  1.1825 -0.5052
  531MOL0     C73151   5.954   9.482   8.177 -0.1043  0.8539 -0.5750
  531MOL0     C73152   5.869   9.551   8.079 -0.1109 -0.3576  0.5919
  531MOL0     C73153   5.835   9.467   7.956 -1.0999  0.2981  0.3624
  531MOL0     C73154   5.753   9.559   7.869 -0.4630  0.3920  0.3133
  531MOL0     C73155   5.698   9.465   7.759 -0.2544 -0.4817 -0.3073
  531MOL0     C73156   5.567   9.522   7.700  0.1739  0.5822 -0.7306
  531MOL0     N73157   5.580   9.650   7.638  0.4035  0.4559 -0.5300
  531MOL0     C73158   5.666   9.698   7.554 -0.0420  0.3648  1.0447
  531MOL0     C73159   5.611   9.816   7.513  0.4480 -0.5549  0.6495
  531MOL0     C73160   5.668   9.919   7.419  0.4248  0.0889  0.7705
  531MOL0     C73161   5.639   9.878   7.270  0.5736 -0.4334  0.5777
  531MOL0     C73162   5.734   9.956   7.183  0.0677 -0.2362  0.4099
  531MOL0     C73163   5.687   9.993   7.042  0.7683 -0.4307  0.4139
  531MOL0     O73164   5.632  10.129   7.052 -0.8883 -0.2854  0.3629
  531MOL0     C73165   5.512  10.141   7.117 -0.3350 -0.1579  0.0186
  531MOL0     C73166   5.401  10.061   7.081 -0.4424  0.6738  0.1549
  531MOL0     C73167   5.284  10.066   7.155  0.2690 -0.6668 -0.6684
  531MOL0     C73168   5.169   9.966   7.125  0.3951  0.0492 -0.2791
  531MOL0     C73169   5.272  10.154   7.266  0.1695 -0.0394  0.5604
  531MOL0     C73170   5.150  10.167   7.354  0.1385 -0.3592 -0.7321
  531MOL0     O73171   5.051  10.082   7.341 -0.0717 -0.1781  0.3285
  531MOL0     C73172   4.921  10.121   7.369  0.5626  0.4037  0.6237
  531MOL0     C73173   4.826  10.022   7.331  0.7218  0.1220 -0.0908
  531MOL0     C73174   4.688  10.040   7.363 -1.6612  1.1200  0.3632
  531MOL0     C73175   4.645  10.164   7.407 -0.0082  0.3331 -0.4018
  531MOL0     O73176   4.502  10.174   7.415  0.1891 -0.6715  0.7077
  531MOL0     C73177   4.430  10.291   7.465  0.0361 -0.1940  0.5748
  531MOL0     C73178   4.403  10.284   7.613 -0.2343  0.6096 -0.0826
  531MOL0     C73179   4.335  10.151   7.645  1.0009  0.2077  0.2384
  531MOL0     C73180   4.278  10.158   7.796 -0.5642 -0.0127 -0.0397
  531MOL0     C73181   4.233  10.027   7.850 -0.0009 -0.0463  0.3901
  531MOL0     C73182   4.110   9.967   7.773 -0.5911  0.6621 -0.3574
  531MOL0     C73183   3.987  10.047   7.803 -0.1546 -0.2386 -0.4007
  531MOL0     C73184   3.859   9.981   7.761 -0.8557 -0.7552 -0.0333
  531MOL0    Cl73185   3.815   9.830   7.841  0.1216 -0.2144 -0.3815
  531MOL0     C73186   4.738  10.265   7.432  0.4159  0.2977  1.3272
  531MOL0     C73187   4.873  10.240   7.410 -0.5010 -0.2087  0.0016
  531MOL0     O73188   5.164  10.255   7.447  0.4320  0.8273 -0.0409
  531MOL0     C73189   5.380  10.235   7.301 -0.1942  0.1418 -0.5793
  531MOL0     C73190   5.506  10.225   7.230  0.8277 -0.4336  0.1546
  531MOL0     N73191   5.498   9.843   7.587  0.1516  0.7873 -0.4362
  531MOL0     N73192   5.481   9.740   7.660  0.9402 -0.0880  0.6171
  531MOL0     C73193   6.242   9.207   8.466  0.4081  0.1036  0.3672
  531MOL0     C73194   6.350   9.168   8.542  0.3397 -0.1025 -0.4813
  531MOL0     C73195   6.595   9.036   8.874 -0.5054  0.1762  0.1420
  531MOL0     C73196   6.718   9.069   8.805  1.0043  1.0646  0.4374
  531MOL0     C73197   6.841   9.037   8.853  0.0153  0.0529 -0.2530
  531MOL0     C73198   6.849   8.943   8.961 -0.3796 -0.7675  0.1709
  531MOL0     O73199   6.981   8.899   8.982 -0.1979 -0.2205  0.5303
  531MOL0     C73200   7.012   8.793   9.079  0.4610 -0.8968  0.1384
  531MOL0     C73201   7.059   8.857   9.219 -0.2663  0.5504  0.3280
  531MOL0     C73202   7.191   8.938   9.209  0.3325  0.1437 -0.2200
  531MOL0     C73203   7.255   8.961   9.352  0.9532  0.4724  0.0553
  531MOL0     C73204   7.199   9.070   9.431 -0.1654  0.0927  0.2887
  531MOL0     C73205   7.162   9.162   9.493 -0.8456  0.3763 -0.8431
  531MOL0     C73206   6.733   8.910   9.031  0.5100 -0.9408 -0.4588
  531MOL0     C73207   6.609   8.959   8.994 -0.2455 -0.9263 -0.4618
  531MOL0     C73208   6.496   8.922   9.083 -1.2036  0.8838  1.0732
  531MOL0     H73209   6.362   9.422   8.761 -0.1312 -1.6225  1.5109
  531MOL0     H73210   6.155   9.502   8.615  2.7326  1.9518 -3.1331
  531MOL0     H73211   5.952   9.199   8.371  1.1383 -0.3553  0.4338
  531MOL0     H73212   6.090   9.231   8.260  1.0221  1.6029 -0.0130
  531MOL0     H73213   5.887   9.274   8.141 -1.4900 -0.9421  1.5894
  531MOL0     H73214   5.814   9.355   8.274 -0.0848 -0.6060  0.1476
  531MOL0     H73215   5.959   9.532   8.274 -2.5875 -0.1267  0.1507
  531MOL0     H73216   6.051   9.475   8.128 -0.1938 -0.7905 -0.5976
  531MOL0     H73217   5.774   9.574   8.127 -1.6246 -2.4140 -1.1878
  531MOL0     H73218   5.907   9.648   8.045 -0.3916 -0.7531 -0.9517
  531MOL0     H73219   5.777   9.380   7.989 -2.9492  1.8854  1.4898
  531MOL0     H73220   5.923   9.429   7.903  0.7933  2.4778  1.7374
  531MOL0     H73221   5.673   9.601   7.932 -0.2392 -0.8337  1.4726
  531MOL0     H73222   5.809   9.641   7.823  1.4561 -0.4870  0.9987
  531MOL0     H73223   5.668   9.368   7.799  0.8850 -0.8909 -0.4153
  531MOL0     H73224   5.763   9.442   7.674 -0.0741 -2.5458  0.3513
  531MOL0     H73225   5.544   9.449   7.622  0.1153  0.0018 -0.1796
  531MOL0     H73226   5.487   9.536   7.773  2.0546  2.2762  1.1503
  531MOL0     H73227   5.759   9.660   7.513  0.5638  3.8394 -1.2174
  531MOL0     H73228   5.777   9.917   7.433  1.5944  0.4211 -5.5922
  531MOL0     H73229   5.636  10.019   7.449  1.1254  0.4556  0.3229
  531MOL0     H73230   5.647   9.770   7.253 -0.7139 -0.1375 -2.7977
  531MOL0     H73231   5.535   9.898   7.242  0.5356 -2.4202 -0.9425
  531MOL0     H73232   5.783  10.040   7.232 -0.4002  0.2876 -0.0069
  531MOL0     H73233   5.821   9.891   7.178  0.6815  0.4176  1.9906
  531MOL0     H73234   5.762   9.991   6.962 -1.9584  2.5249 -2.5596
  531MOL0     H73235   5.615   9.920   7.003 -0.8979  1.3690 -0.0903
  531MOL0     H73236   5.404   9.988   7.001 -3.2347 -0.4766  1.0151
  531MOL0     H73237   5.205   9.902   7.044 -0.7632  0.0086 -0.7693
  531MOL0     H73238   5.082  10.024   7.094  0.6355 -0.2311 -1.5058
  531MOL0     H73239   5.152   9.896   7.207 -0.1095  1.0172  0.4660
  531MOL0     H73240   4.871   9.935   7.285 -0.6537 -0.7146  0.0619
  531MOL0     H73241   4.614   9.962   7.343 -0.2431 -0.3360  0.5439
  531MOL0     H73242   4.482  10.385   7.449  1.1134 -0.8376  0.2010
  531MOL0     H73243   4.335  10.290   7.410  1.4793 -1.7797 -2.0691
  531MOL0     H73244   4.492  10.292   7.676 -0.2207  3.0140 -0.3067
  531MOL0     H73245   4.338  10.370   7.633  0.4741  1.9363 -2.9360
  531MOL0     H73246   4.407  10.070   7.629 -0.6541 -0.7521 -3.4581
  531MOL0     H73247   4.261  10.125   7.568  1.9459 -2.9710  0.2380
  531MOL0     H73248   4.188  10.218   7.812  0.7279  1.2244  3.8098
  531MOL0     H73249   4.358  10.193   7.862  0.1259 -0.9542 -0.3517
  531MOL0     H73250   4.318   9.958   7.856  1.6377  1.7428 -0.9580
  531MOL0     H73251   4.219  10.049   7.956 -0.1304  0.8818  0.1831
  531MOL0     H73252   4.095   9.862   7.800 -2.8693  1.0204 -0.0416
  531MOL0     H73253   4.123   9.968   7.664  4.0692  1.7680 -0.0072
  531MOL0     H73254   3.999  10.142   7.752 -0.1423  0.2178  0.4372
  531MOL0     H73255   3.977  10.059   7.911 -0.0362  0.6813 -0.4887
  531MOL0     H73256   3.874   9.943   7.659 -0.6510  1.0334 -0.7033
  531MOL0     H73257   3.777  10.053   7.759  0.0770  0.3371 -1.4107
  531MOL0     H73258   4.702  10.361   7.468  0.5538 -0.7931  4.6923
  531MOL0     H73259   4.936  10.327   7.422  0.4383 -0.9433  0.5610
  531MOL0     H73260   5.374  10.311   7.378 -2.7208 -1.6139  1.0777
  531MOL0     H73261   5.596  10.282   7.248  0.2782  0.9602 -1.2356
  531MOL0     H73262   6.208   9.135   8.393 -0.8458  0.5155  0.5071
  531MOL0     H73263   6.398   9.073   8.526 -0.8945 -0.7994 -0.1719
  531MOL0     H73264   6.719   9.114   8.706 -3.4748  0.6308 -0.0370
  531MOL0     H73265   6.926   9.078   8.799  1.7752  3.7639  4.5097
  531MOL0     H73266   6.917   8.740   9.091 -0.6449  0.3142 -2.4214
  531MOL0     H73267   7.078   8.717   9.036  0.3060 -1.1749  0.3886
  531MOL0     H73268   7.068   8.776   9.292 -0.0707  0.1263 -0.1560
  531MOL0     H73269   6.980   8.916   9.267  0.6339  4.6305 -2.7313
  531MOL0     H73270   7.267   8.880   9.155  0.6379  0.3329  0.0001
  531MOL0     H73271   7.166   9.036   9.169 -1.1986 -0.1322 -0.0088
  531MOL0     H73272   7.359   8.983   9.328  0.5838  1.0745 -1.0538
  531MOL0     H73273   7.248   8.871   9.414  2.8562  1.9263  2.5901
  531MOL0     H73274   7.137   9.245   9.555 -0.3276 -0.5788  0.7070
  531MOL0     H73275   6.741   8.848   9.120 -3.8583  1.6563  2.1534
  531MOL0     H73276   6.530   8.873   9.175 -0.4032  1.2790  1.0021
  531MOL0     H73277   6.432   9.009   9.102 -3.5160 -0.9047  1.7802
  531MOL0     H73278   6.438   8.851   9.025  2.0636 -0.9047 -0.2712
  532MOL0     O73279   2.073   1.069   1.402  0.6350  0.7878 -0.8683
  532MOL0     C73280   2.058   1.129   1.510  0.5792  0.5340 -0.0085
  532MOL0     O73281   2.112   1.251   1.542 -0.5155  0.8950  0.1500
  532MOL0     C73282   2.203   1.309   1.456 -1.0262 -0.0577 -0.2574
  532MOL0     C73283   2.334   1.339   1.495  0.3830  0.7719 -0.3538
  532MOL0     C73284   2.418   1.404   1.409 -0.0093  0.7237  0.1397
  532MOL0     C73285   2.369   1.466   1.295  1.1606  0.0197  0.2375
  532MOL0     O73286   2.456   1.553   1.241  0.2615  0.5896  0.5244
  532MOL0     C73287   2.399   1.645   1.144  0.3305  0.0836 -0.5223
  532MOL0     C73288   2.529   1.716   1.106 -0.3971 -0.8494  0.4856
  532MOL0     C73289   2.601   1.637   0.999  1.1806 -1.4450 -0.3267
  532MOL0     C73290   2.673   1.717   0.884 -1.0848 -0.7997 -0.3058
  532MOL0     C73291   2.741   1.855   0.925 -0.3741  0.6818  0.3486
  532MOL0     C73292   2.846   1.844   1.037 -0.6042  0.2453  0.5085
  532MOL0     C73293   2.898   1.976   1.090 -0.0921  0.4266  0.0654
  532MOL0     C73294   2.961   1.965   1.228 -0.7929 -0.1252  1.1339
  532MOL0     N73295   2.866   1.980   1.337  0.1218 -0.5084 -0.2753
  532MOL0     C73296   2.773   1.889   1.381  0.0905  0.3583 -0.5886
  532MOL0     C73297   2.707   1.961   1.479 -0.2469  0.1848 -0.1063
  532MOL0     C73298   2.591   1.915   1.559 -0.2986  0.0693  0.4853
  532MOL0     C73299   2.472   1.859   1.480 -0.6740  0.5888  0.6570
  532MOL0     C73300   2.341   1.844   1.553 -0.4055  0.1264  0.1318
  532MOL0     C73301   2.342   1.723   1.638  0.7653  0.1652  0.4877
  532MOL0     O73302   2.234   1.727   1.735  0.0514  0.0271  0.8209
  532MOL0     C73303   2.113   1.679   1.703  0.5049  0.7147 -0.5409
  532MOL0     C73304   2.069   1.656   1.566  0.5666  0.5878  0.1134
  532MOL0     C73305   1.940   1.600   1.544 -0.6305  0.9607 -0.2249
  532MOL0     C73306   1.907   1.561   1.409  1.0298  0.6025 -0.3920
  532MOL0     C73307   1.851   1.575   1.648  0.7151 -0.4086 -0.2485
  532MOL0     C73308   1.723   1.518   1.626 -0.3179  0.4641 -0.3447
  532MOL0     O73309   1.688   1.427   1.726 -0.2522  0.1231  0.4150
  532MOL0     C73310   1.581   1.344   1.705  0.4510 -0.5625  0.5512
  532MOL0     C73311   1.511   1.336   1.822  0.0127  1.3673 -0.2244
  532MOL0     C73312   1.416   1.233   1.832  0.3071 -0.7347  0.3533
  532MOL0     C73313   1.368   1.172   1.710 -0.8765 -0.8034 -0.6397
  532MOL0     O73314   1.256   1.094   1.712  0.4170  0.1684  0.7630
  532MOL0     C73315   1.225   0.996   1.608  0.1024 -0.1157 -0.2730
  532MOL0     C73316   1.093   0.933   1.639  0.4268  0.5967 -0.0895
  532MOL0     C73317   1.086   0.859   1.770 -0.3370  0.3111  0.0450
  532MOL0     C73318   0.946   0.831   1.816  0.3461 -0.3131 -0.0480
  532MOL0     C73319   0.865   0.739   1.721 -0.4020 -0.2087 -0.4825
  532MOL0     C73320   0.722   0.717   1.770  0.6597 -0.6972  0.0577
  532MOL0     C73321   0.649   0.650   1.660  0.3572  0.3211 -0.0301
  532MOL0     C73322   0.504   0.633   1.698  1.2501 -0.9271 -0.5338
  532MOL0    Cl73323   0.435   0.800   1.698 -0.4755  0.4096 -0.0920
  532MOL0     C73324   1.439   1.191   1.590  1.0558  0.4809 -0.7533
  532MOL0     C73325   1.542   1.272   1.582  0.9779 -1.0167 -0.6161
  532MOL0     O73326   1.646   1.557   1.539  0.1386  0.3628  0.7951
  532MOL0     C73327   1.891   1.607   1.781  0.3004  1.0466 -0.9604
  532MOL0     C73328   2.021   1.661   1.806  0.5376 -0.0361  0.5557
  532MOL0     N73329   2.757   2.090   1.481  0.9223  0.1566 -0.1182
  532MOL0     N73330   2.862   2.102   1.400 -0.1030  0.3054 -0.2417
  532MOL0     C73331   2.235   1.445   1.259  0.2378  0.3938  1.0471
  532MOL0     C73332   2.154   1.360   1.329 -0.6713 -1.2899  0.1540
  532MOL0     C73333   1.983   1.048   1.615  0.3633 -0.9006  0.1495
  532MOL0     C73334   1.899   1.135   1.690  0.5704  0.4203  0.2072
  532MOL0     C73335   1.826   1.089   1.797 -0.8727 -0.5171  0.4364
  532MOL0     C73336   1.827   0.958   1.827 -0.2634  0.3095  0.1649
  532MOL0     O73337   1.768   0.914   1.940 -0.2336  1.3158 -1.2927
  532MOL0     C73338   1.632   0.883   1.911 -0.8414  0.2620  0.7742
  532MOL0     C73339   1.559   0.849   2.045  0.2661  0.1777 -0.5567
  532MOL0     C73340   1.502   0.976   2.115 -0.3098  0.3955  0.6592
  532MOL0     C73341   1.444   0.936   2.250 -1.0907 -0.0442 -0.3990
  532MOL0     C73342   1.305   0.871   2.236 -0.1458 -0.1173  0.2596
  532MOL0     C73343   1.198   0.818   2.230  0.1855  0.1791  0.1522
  532MOL0     C73344   1.909   0.871   1.757 -0.1548  0.2320  0.0437
  532MOL0     C73345   1.985   0.919   1.652 -0.7539  0.1965  0.1288
  532MOL0     C73346   2.064   0.809   1.575  0.1409 -0.4448 -0.4215
  532MOL0     H73347   2.370   1.308   1.593 -0.1752 -3.3114 -1.2428
  532MOL0     H73348   2.519   1.419   1.448  1.2541  0.1824 -2.6710
  532MOL0     H73349   2.344   1.726   1.194  1.8180  0.6873  0.2292
  532MOL0     H73350   2.337   1.614   1.060  1.9015 -1.0109 -1.3374
  532MOL0     H73351   2.497   1.816   1.076 -0.8643 -0.3107  2.6008
  532MOL0     H73352   2.596   1.725   1.192  2.5746 -3.0951 -1.3890
  532MOL0     H73353   2.676   1.574   1.048  1.7932 -0.0410  0.6095
  532MOL0     H73354   2.523   1.569   0.963 -0.7076 -0.4637  1.6475
  532MOL0     H73355   2.746   1.662   0.824 -1.1348 -0.6015 -0.5508
  532MOL0     H73356   2.595   1.748   0.813 -1.4901  5.9057  2.3267
  532MOL0     H73357   2.668   1.922   0.971 -1.1967 -2.1478  3.5059
  532MOL0     H73358   2.781   1.906   0.836 -0.5180 -3.2245 -2.1907
  532MOL0     H73359   2.797   1.797   1.123 -3.5116  1.3251 -0.4352
  532MOL0     H73360   2.924   1.773   1.006  0.3500  1.3716  0.2612
  532MOL0     H73361   2.815   2.047   1.096 -0.8762 -0.1827 -2.2398
  532MOL0     H73362   2.973   2.003   1.015  0.9715 -4.8407 -1.1807
  532MOL0     H73363   3.031   1.881   1.234  3.0914  2.5719 -1.4545
  532MOL0     H73364   3.021   2.056   1.223 -1.4590  0.2419 -1.6992
  532MOL0     H73365   2.763   1.787   1.344  2.2351 -0.4916  0.9049
  532MOL0     H73366   2.550   1.993   1.624 -2.5035  0.1744 -0.9395
  532MOL0     H73367   2.625   1.838   1.628 -3.7557 -0.4517  1.7687
  532MOL0     H73368   2.442   1.926   1.398 -3.2992 -0.4724  0.6616
  532MOL0     H73369   2.502   1.770   1.423  1.9217  1.4580  0.5040
  532MOL0     H73370   2.311   1.933   1.611 -0.8567  1.3071 -1.8257
  532MOL0     H73371   2.258   1.833   1.483  0.2422  0.2762 -0.6741
  532MOL0     H73372   2.350   1.629   1.582 -0.8978 -1.5243  2.8876
  532MOL0     H73373   2.434   1.733   1.697  2.6704  1.8716 -2.5267
  532MOL0     H73374   2.148   1.655   1.492  0.3335 -0.4782 -0.1489
  532MOL0     H73375   1.905   1.451   1.412 -1.3561  0.6333  1.6383
  532MOL0     H73376   1.987   1.590   1.340 -0.0613  0.5408 -1.7201
  532MOL0     H73377   1.817   1.619   1.388  0.2271  0.2048  1.7607
  532MOL0     H73378   1.543   1.399   1.904  3.8377 -1.6238  0.9116
  532MOL0     H73379   1.360   1.213   1.924  0.0310 -2.9556 -0.2226
  532MOL0     H73380   1.209   1.055   1.518 -2.0764  1.3279  0.9663
  532MOL0     H73381   1.306   0.923   1.603  0.3085 -0.0869  1.6486
  532MOL0     H73382   1.018   1.013   1.635  0.3203  0.4999 -0.0116
  532MOL0     H73383   1.067   0.860   1.561 -1.5615  1.2527 -0.0877
  532MOL0     H73384   1.132   0.915   1.852 -0.7933 -1.4494  1.5861
  532MOL0     H73385   1.150   0.770   1.767  1.3008  1.4903 -1.1646
  532MOL0     H73386   0.885   0.921   1.820  0.7535  0.0391 -1.1921
  532MOL0     H73387   0.937   0.789   1.916 -0.5997  0.0448  0.0296
  532MOL0     H73388   0.859   0.787   1.623  1.1170  0.1971 -0.4106
  532MOL0     H73389   0.907   0.638   1.718 -0.0081 -0.2082  2.4130
  532MOL0     H73390   0.663   0.800   1.811 -1.1310 -2.3399  1.0139
  532MOL0     H73391   0.727   0.651   1.857 -0.0137  1.4095  1.8029
  532MOL0     H73392   0.690   0.552   1.632 -0.1803  0.0165  0.2105
  532MOL0     H73393   0.668   0.704   1.567  1.4407  1.9539  1.0881
  532MOL0     H73394   0.492   0.591   1.798 -0.6870  4.0689  1.6089
  532MOL0     H73395   0.443   0.566   1.636 -0.9675 -0.4854  1.0459
  532MOL0     H73396   1.404   1.151   1.495  0.3323 -0.8158  0.0245
  532MOL0     H73397   1.589   1.294   1.487 -0.8022  0.7840 -1.1317
  532MOL0     H73398   1.825   1.601   1.867 -0.0019  2.1936 -1.0957
  532MOL0     H73399   2.040   1.681   1.911 -0.5181 -3.6547  1.5535
  532MOL0     H73400   2.194   1.504   1.178 -0.4641 -0.6366  0.6339
  532MOL0     H73401   2.054   1.342   1.293 -0.3993 -1.6744 -0.4257
  532MOL0     H73402   1.895   1.241   1.667  0.1592  0.2615 -0.4899
  532MOL0     H73403   1.758   1.162   1.840  0.0724  0.5719  0.1395
  532MOL0     H73404   1.582   0.974   1.874  0.7199  1.1268  0.7191
  532MOL0     H73405   1.618   0.803   1.838  0.9208 -0.3784  1.0901
  532MOL0     H73406   1.615   0.789   2.118  2.7486  0.3489 -2.1736
  532MOL0     H73407   1.469   0.789   2.028  0.1818  1.1218 -4.2453
  532MOL0     H73408   1.587   1.043   2.130  0.3394 -0.9123  3.3499
  532MOL0     H73409   1.429   1.017   2.044  1.5392 -2.8717 -3.6251
  532MOL0     H73410   1.437   1.034   2.297  0.8856  1.0590 -2.2393
  532MOL0     H73411   1.509   0.862   2.298 -1.5994 -1.1995 -1.4164
  532MOL0     H73412   1.097   0.781   2.222  0.1909  0.5474 -3.4845
  532MOL0     H73413   1.920   0.765   1.779  0.8847  0.3867  0.3247
  532MOL0     H73414   2.028   0.707   1.587 -0.5013 -0.5258 -2.5815
  532MOL0     H73415   2.061   0.832   1.468  2.9645  4.1821  0.2115
  532MOL0     H73416   2.165   0.791   1.613  0.2332 -0.3475 -0.6197
  533MOL0     O73417   5.882  10.780   5.185 -0.8370  0.7682 -0.0188
  533MOL0     C73418   5.891  10.668   5.229  0.5418  0.2873  0.9364
  533MOL0     O73419   5.984  10.635   5.333 -0.0765 -0.4178  0.8586
  533MOL0     C73420   6.060  10.737   5.383  0.2228 -0.5242 -0.2464
  533MOL0     C73421   6.163  10.797   5.310  0.5312  0.5096  0.2194
  533MOL0     C73422   6.248  10.909   5.355  0.0602 -0.0099 -0.2707
  533MOL0     C73423   6.210  10.966   5.474 -0.4442 -0.0420  0.4532
  533MOL0     O73424   6.279  11.076   5.511 -0.1872 -0.0845 -0.0055
  533MOL0     C73425   6.338  11.068   5.637  0.9160  0.7789  0.2273
  533MOL0     C73426   6.490  11.105   5.640 -0.0162 -0.3295 -0.2816
  533MOL0     C73427   6.579  11.026   5.535 -0.2094 -0.0605  1.5892
  533MOL0     C73428   6.725  11.067   5.532 -0.5585 -0.0674  0.2107
  533MOL0     C73429   6.795  11.017   5.415  0.2623  0.6584 -0.8224
  533MOL0     C73430   6.937  11.076   5.412 -0.1546  0.6463 -0.3135
  533MOL0     C73431   7.025  11.003   5.312  0.7120  0.1519 -0.7525
  533MOL0     C73432   7.050  11.086   5.183  0.0773  0.0967  0.9132
  533MOL0     N73433   6.932  11.095   5.100  0.2680 -0.1911 -0.1202
  533MOL0     C73434   6.872  10.989   5.030  0.7187  0.0165  0.5137
  533MOL0     C73435   6.748  11.039   5.004  0.0449 -0.4377  0.1040
  533MOL0     C73436   6.631  10.981   4.933  0.3887 -0.3382  0.0381
  533MOL0     C73437   6.502  10.964   5.022 -0.3157  0.1893  0.0464
  533MOL0     C73438   6.393  10.891   4.953  1.0155 -0.1975 -1.5278
  533MOL0     C73439   6.406  10.740   4.949 -0.5086  0.2948  0.2372
  533MOL0     O73440   6.387  10.682   5.073 -0.2291 -0.2347  1.1335
  533MOL0     C73441   6.503  10.662   5.146  0.2490  0.3558  0.3788
  533MOL0     C73442   6.640  10.666   5.094 -1.1695  0.1435  0.1753
  533MOL0     C73443   6.752  10.641   5.180  0.5024 -0.5415 -0.4472
  533MOL0     C73444   6.888  10.639   5.112 -0.3827 -0.1617  0.6804
  533MOL0     C73445   6.736  10.587   5.306 -0.1371  0.1501 -0.0124
  533MOL0     C73446   6.841  10.587   5.415  0.0885 -0.5915 -0.1308
  533MOL0     O73447   6.950  10.680   5.409  0.4407  0.1718  0.4017
  533MOL0     C73448   7.042  10.673   5.510  0.3267 -0.3224 -0.2810
  533MOL0     C73449   7.011  10.736   5.629 -0.1611  0.1451 -0.3899
  533MOL0     C73450   7.105  10.727   5.737 -0.0222 -0.8413  0.2285
  533MOL0     C73451   7.220  10.645   5.731 -0.5499 -0.0895 -0.9255
  533MOL0     O73452   7.300  10.631   5.840 -0.2381 -0.6517  0.5290
  533MOL0     C73453   7.234  10.610   5.964  0.0906  0.6518  0.7483
  533MOL0     C73454   7.342  10.562   6.071  0.5625  1.2145  0.9584
  533MOL0     C73455   7.455  10.663   6.095  0.2410  0.2077  0.0071
  533MOL0     C73456   7.541  10.608   6.200  0.8090  0.2723  0.9362
  533MOL0     C73457   7.627  10.712   6.276 -0.4690 -0.6757 -0.8339
  533MOL0     C73458   7.678  10.827   6.196 -0.5747  1.2297  0.0292
  533MOL0     C73459   7.759  10.784   6.073 -0.4393  0.0117 -0.8408
  533MOL0     C73460   7.909  10.812   6.083  1.5761  0.1463  0.6180
  533MOL0    Cl73461   7.928  10.983   6.060  0.1423 -0.2566 -0.0851
  533MOL0     C73462   7.246  10.583   5.611 -0.8734 -0.0465 -0.5821
  533MOL0     C73463   7.158  10.599   5.498  0.1279  0.7116  0.4901
  533MOL0     O73464   6.830  10.489   5.497 -0.5206 -0.1149  0.2571
  533MOL0     C73465   6.605  10.565   5.350  0.4071  1.0286 -0.1413
  533MOL0     C73466   6.493  10.609   5.278  0.0888 -0.3106  0.4248
  533MOL0     N73467   6.739  11.172   5.041 -0.4304 -0.3001  0.4476
  533MOL0     N73468   6.851  11.211   5.098 -0.2147  0.2244 -0.2344
  533MOL0     C73469   6.107  10.905   5.548 -0.5335 -0.0386 -0.0097
  533MOL0     C73470   6.035  10.795   5.506 -1.3111  0.6017 -0.3348
  533MOL0     C73471   5.804  10.553   5.188  0.5991  0.0453  0.1572
  533MOL0     C73472   5.806  10.442   5.281  0.6146 -0.2912 -0.0579
  533MOL0     C73473   5.714  10.339   5.264 -0.2356  0.6832 -0.6159
  533MOL0     C73474   5.626  10.333   5.152 -0.2546 -0.3870  0.2657
  533MOL0     O73475   5.555  10.214   5.141  0.0025  0.1500 -0.2518
  533MOL0     C73476   5.473  10.185   5.026  0.0283  0.0838 -0.3618
  533MOL0     C73477   5.416  10.042   5.047 -0.6570 -0.6764  0.1546
  533MOL0     C73478   5.274  10.061   5.121  0.9275  1.0562  0.6902
  533MOL0     C73479   5.222   9.927   5.184  0.0230  0.0907  0.2179
  533MOL0     C73480   5.173   9.982   5.308 -0.2984  1.4030 -0.6982
  533MOL0     C73481   5.131  10.033   5.408 -0.2350  0.4468 -0.0472
  533MOL0     C73482   5.630  10.441   5.066  0.1245  0.1210 -0.0352
  533MOL0     C73483   5.717  10.552   5.079  0.0652  0.2030  0.5418
  533MOL0     C73484   5.694  10.669   4.993 -0.8436 -0.1391 -0.2414
  533MOL0     H73485   6.183  10.755   5.212  0.8129  2.5479 -0.6432
  533MOL0     H73486   6.324  10.946   5.287  1.6236 -0.8828  0.9054
  533MOL0     H73487   6.329  10.966   5.675 -1.5476  1.3244  1.3442
  533MOL0     H73488   6.287  11.130   5.711 -1.7801  1.3853 -1.9680
  533MOL0     H73489   6.495  11.211   5.615  0.2344 -0.3364 -0.2648
  533MOL0     H73490   6.529  11.097   5.742 -1.9018  0.2950  0.5354
  533MOL0     H73491   6.572  10.923   5.572 -0.2990 -1.9569 -3.0450
  533MOL0     H73492   6.540  11.038   5.433  1.7171  1.6728  0.9850
  533MOL0     H73493   6.716  11.176   5.539 -2.4040 -0.2506  1.5552
  533MOL0     H73494   6.779  11.021   5.614 -1.4456 -1.1638  0.2018
  533MOL0     H73495   6.744  11.040   5.321  2.6786 -0.5344 -2.5309
  533MOL0     H73496   6.804  10.908   5.416  3.0988  0.7939 -1.5921
  533MOL0     H73497   6.939  11.183   5.390 -0.2225  0.9694  1.1436
  533MOL0     H73498   6.983  11.053   5.508  1.8678 -1.0864 -1.6121
  533MOL0     H73499   6.988  10.904   5.284  2.2931 -0.9653  0.9305
  533MOL0     H73500   7.113  10.994   5.376  0.3104 -3.1524 -0.5206
  533MOL0     H73501   7.099  11.180   5.211  4.0517 -2.0081  1.8125
  533MOL0     H73502   7.126  11.041   5.118  1.0160  1.1831  1.2302
  533MOL0     H73503   6.915  10.895   4.999 -0.1723  0.0524 -0.8875
  533MOL0     H73504   6.666  10.890   4.883 -0.7400  0.2508 -1.9556
  533MOL0     H73505   6.600  11.053   4.857  0.3627  1.5320  1.7357
  533MOL0     H73506   6.540  10.911   5.110  1.0816 -1.4768 -1.4966
  533MOL0     H73507   6.461  11.063   5.047 -0.6667  1.2898 -4.1712
  533MOL0     H73508   6.309  10.909   5.021  1.0433 -1.5641 -1.0963
  533MOL0     H73509   6.365  10.926   4.853  1.0805 -1.5418 -2.0405
  533MOL0     H73510   6.328  10.705   4.881 -0.2699  0.9333 -0.3850
  533MOL0     H73511   6.500  10.711   4.900 -0.6542 -2.9916  1.6521
  533MOL0     H73512   6.665  10.690   4.991 -1.5494  0.9242  0.2531
  533MOL0     H73513   6.943  10.545   5.127  4.4708  2.5261  2.2076
  533MOL0     H73514   6.960  10.715   5.146  2.5336 -0.7835 -3.3521
  533MOL0     H73515   6.874  10.660   5.006  0.3700  1.8637  0.9465
  533MOL0     H73516   6.920  10.789   5.657 -0.5514 -1.4063  1.4663
  533MOL0     H73517   7.091  10.767   5.837 -0.6294 -1.8028  0.5373
  533MOL0     H73518   7.179  10.697   6.001 -0.4626  1.1736 -1.2032
  533MOL0     H73519   7.175  10.519   5.948  1.7293 -0.3590  0.2699
  533MOL0     H73520   7.288  10.549   6.165 -0.3234  1.0933  0.4504
  533MOL0     H73521   7.383  10.470   6.027  1.0388  2.6091 -1.6883
  533MOL0     H73522   7.407  10.751   6.138  0.4229  0.1033  0.4209
  533MOL0     H73523   7.517  10.699   6.012  1.5454 -0.2869  0.7543
  533MOL0     H73524   7.602  10.531   6.153 -0.4051 -0.7086  0.9366
  533MOL0     H73525   7.474  10.554   6.268 -1.4551 -2.1223 -2.8219
  533MOL0     H73526   7.578  10.758   6.362  1.4369 -0.1898  0.0522
  533MOL0     H73527   7.712  10.658   6.319 -1.6521 -1.9372  0.0415
  533MOL0     H73528   7.732  10.893   6.264 -1.3651  1.7519  0.1605
  533MOL0     H73529   7.588  10.880   6.161 -1.5695 -0.3008  0.1379
  533MOL0     H73530   7.719  10.840   5.988  1.3093  0.8125 -1.1825
  533MOL0     H73531   7.747  10.679   6.047  1.7984 -0.1362 -1.5171
  533MOL0     H73532   7.965  10.766   6.002  1.4130 -1.2540  1.2668
  533MOL0     H73533   7.956  10.790   6.180  2.0138  0.7021  0.5375
  533MOL0     H73534   7.336  10.528   5.584 -1.3696 -1.8634  1.2220
  533MOL0     H73535   7.179  10.565   5.397 -2.1810 -0.2375  0.2529
  533MOL0     H73536   6.587  10.510   5.442  0.9107  0.5547 -0.3177
  533MOL0     H73537   6.397  10.592   5.326  0.9070  0.8005  2.6321
  533MOL0     H73538   6.095  10.948   5.646  0.1825 -0.5170  0.2977
  533MOL0     H73539   5.960  10.757   5.574 -1.0952  1.4015  0.3717
  533MOL0     H73540   5.877  10.443   5.363 -0.2837 -1.2304  0.7713
  533MOL0     H73541   5.709  10.255   5.332  2.8832  0.0051 -1.0562
  533MOL0     H73542   5.389  10.255   5.022 -1.3205 -1.5288 -2.4833
  533MOL0     H73543   5.523  10.198   4.929 -2.8416  4.0606 -1.6127
  533MOL0     H73544   5.487   9.988   5.111  0.6447  0.4087 -0.3129
  533MOL0     H73545   5.394   9.996   4.950 -0.5357  1.4273 -0.9186
  533MOL0     H73546   5.280  10.144   5.193 -1.1191  2.3361 -0.5055
  533MOL0     H73547   5.199  10.098   5.050  1.4274  0.4992 -0.1522
  533MOL0     H73548   5.307   9.861   5.201 -0.6453 -1.2657 -1.3664
  533MOL0     H73549   5.147   9.872   5.126  1.9012  0.1703 -2.5080
  533MOL0     H73550   5.093  10.083   5.494 -1.5394  0.8633 -0.8411
  533MOL0     H73551   5.557  10.427   4.986  1.2388  1.5592 -1.3529
  533MOL0     H73552   5.675  10.763   5.044 -1.7528 -1.5289  2.1628
  533MOL0     H73553   5.770  10.668   4.914 -1.6876 -1.1462 -1.0796
  533MOL0     H73554   5.597  10.645   4.950 -1.1100 -2.2693  1.3754
  534MOL0     O73555   3.001   1.010   7.166 -0.0383  0.0582  0.3210
  534MOL0     C73556   2.904   1.081   7.185  0.3807  0.9067 -0.1420
  534MOL0     O73557   2.881   1.205   7.127 -0.5093  0.2620 -0.4380
  534MOL0     C73558   2.971   1.261   7.040  0.0233 -0.1782 -0.8057
  534MOL0     C73559   2.952   1.226   6.905  0.4105 -0.7071 -0.1209
  534MOL0     C73560   3.033   1.278   6.805 -0.9567 -0.5746 -0.0665
  534MOL0     C73561   3.141   1.359   6.843 -0.3716  0.2129  0.6816
  534MOL0     O73562   3.235   1.419   6.757  0.0550 -0.0606 -0.1046
  534MOL0     C73563   3.258   1.345   6.632  0.9773 -0.6512  0.1800
  534MOL0     C73564   3.395   1.396   6.576  0.2442 -0.1274 -0.4847
  534MOL0     C73565   3.506   1.330   6.664  0.3636 -0.2561 -0.2095
  534MOL0     C73566   3.646   1.324   6.600 -0.1228 -0.4572  0.4251
  534MOL0     C73567   3.725   1.452   6.634  0.5068 -0.0750  0.4962
  534MOL0     C73568   3.872   1.422   6.617 -0.6586 -1.0924  0.4244
  534MOL0     C73569   3.953   1.507   6.706  0.2540  0.5394 -0.3391
  534MOL0     C73570   4.094   1.436   6.716  0.6140 -0.1434 -0.6453
  534MOL0     N73571   4.165   1.523   6.815 -0.1313 -0.2837  0.4164
  534MOL0     C73572   4.259   1.614   6.798 -0.6387 -0.5195  0.2449
  534MOL0     C73573   4.279   1.671   6.918  0.7907  0.6447  1.0838
  534MOL0     C73574   4.364   1.784   6.946  0.7074 -0.7005 -0.2085
  534MOL0     C73575   4.511   1.752   6.910 -0.3780 -0.0933  0.2293
  534MOL0     C73576   4.602   1.863   6.963  0.1167  0.6802 -0.4892
  534MOL0     C73577   4.740   1.802   6.963 -0.2325  0.1341  0.0039
  534MOL0     O73578   4.783   1.750   6.834  0.2094  0.1513 -0.1323
  534MOL0     C73579   4.915   1.741   6.804  0.0947 -0.5342 -0.7589
  534MOL0     C73580   5.019   1.771   6.890  0.1291 -0.1978 -0.3030
  534MOL0     C73581   5.152   1.745   6.848  0.2443  0.1661 -1.0265
  534MOL0     C73582   5.257   1.736   6.958  0.6078 -0.0291 -0.2820
  534MOL0     C73583   5.180   1.707   6.718 -0.4665 -0.0466 -0.2680
  534MOL0     C73584   5.321   1.697   6.654  0.8398  0.5250 -0.3423
  534MOL0     O73585   5.411   1.756   6.736 -0.3689  0.4367  0.1744
  534MOL0     C73586   5.542   1.777   6.703 -0.0201  0.2635 -0.1470
  534MOL0     C73587   5.620   1.821   6.809  0.0967  0.4277 -0.2565
  534MOL0     C73588   5.758   1.844   6.805 -0.5112  0.3706 -0.5578
  534MOL0     C73589   5.820   1.812   6.688 -0.3374 -0.4944 -0.1765
  534MOL0     O73590   5.962   1.823   6.678  0.0898  0.5780  0.3052
  534MOL0     C73591   6.037   1.839   6.802  0.0503  0.4420  0.2609
  534MOL0     C73592   6.186   1.838   6.780 -0.1209  0.8650 -0.2334
  534MOL0     C73593   6.267   1.816   6.916  0.4327 -1.7509  0.4482
  534MOL0     C73594   6.413   1.827   6.887  0.3968 -0.9537 -0.1571
  534MOL0     C73595   6.478   1.783   7.022 -0.7293 -0.1842 -0.2951
  534MOL0     C73596   6.615   1.724   6.993  0.7775 -0.2722 -0.3084
  534MOL0     C73597   6.681   1.674   7.120 -0.6231  0.2173 -0.1746
  534MOL0     C73598   6.824   1.617   7.087 -0.1212 -0.5191  0.6153
  534MOL0    Cl73599   6.941   1.738   7.044 -0.1321 -0.0167 -0.0179
  534MOL0     C73600   5.743   1.769   6.574  0.2364  0.5406  0.5977
  534MOL0     C73601   5.605   1.750   6.582 -0.9483 -0.0872  0.4227
  534MOL0     O73602   5.341   1.645   6.546  0.0344 -0.3922  0.1511
  534MOL0     C73603   5.070   1.686   6.635 -0.1000  1.1154 -0.5529
  534MOL0     C73604   4.937   1.704   6.675  0.3022  0.3017 -0.7715
  534MOL0     N73605   4.204   1.606   7.009  0.2773  0.7096  0.2836
  534MOL0     N73606   4.148   1.510   6.952  0.5961  0.0013  0.1562
  534MOL0     C73607   3.153   1.394   6.981 -0.1498  0.3892 -0.0368
  534MOL0     C73608   3.077   1.347   7.078 -0.5460  0.5091  0.1156
  534MOL0     C73609   2.803   1.040   7.282 -0.0134 -0.3801 -0.4607
  534MOL0     C73610   2.849   1.015   7.415  0.2857  0.6804 -0.2416
  534MOL0     C73611   2.759   0.982   7.522  0.3546 -0.1769  0.4711
  534MOL0     C73612   2.622   0.972   7.496 -0.1316  0.1568  0.7374
  534MOL0     O73613   2.525   0.968   7.588  0.5340  0.3629 -0.2616
  534MOL0     C73614   2.566   0.968   7.731  1.2701  0.3344  0.0204
  534MOL0     C73615   2.439   0.974   7.823 -0.3533 -0.4025 -0.3265
  534MOL0     C73616   2.397   1.125   7.842  1.3579  0.2467 -0.6943
  534MOL0     C73617   2.400   1.183   7.982 -0.7763  0.7856 -0.2551
  534MOL0     C73618   2.319   1.099   8.073 -0.8683 -0.3141 -0.6343
  534MOL0     C73619   2.251   1.028   8.149  0.3739  0.9602  0.7169
  534MOL0     C73620   2.576   1.014   7.370  0.2379  1.2023 -0.5926
  534MOL0     C73621   2.666   1.029   7.258  0.2709 -0.6449 -0.9033
  534MOL0     C73622   2.606   1.042   7.125  0.0537 -0.6119  0.2306
  534MOL0     H73623   2.873   1.160   6.871 -1.0668  0.6918  0.4563
  534MOL0     H73624   3.015   1.256   6.700 -0.4305  2.2064 -0.8195
  534MOL0     H73625   3.180   1.363   6.558 -0.6571  1.1167  2.1843
  534MOL0     H73626   3.263   1.237   6.647 -0.4367 -0.5286  1.7855
  534MOL0     H73627   3.401   1.372   6.469  0.9724 -2.2180 -0.0091
  534MOL0     H73628   3.398   1.504   6.595 -1.4239 -0.4707  2.3296
  534MOL0     H73629   3.515   1.376   6.763  1.5293  1.1372 -0.9198
  534MOL0     H73630   3.486   1.225   6.688 -2.9309  0.6489  1.5121
  534MOL0     H73631   3.701   1.238   6.638  0.7951 -0.1673 -0.2256
  534MOL0     H73632   3.644   1.321   6.491  2.1536 -0.8742  0.3645
  534MOL0     H73633   3.692   1.478   6.735 -1.2520  1.9420 -0.5090
  534MOL0     H73634   3.690   1.534   6.571 -1.7198 -0.3150  1.3378
  534MOL0     H73635   3.900   1.319   6.640  1.0732 -0.6187  0.5453
  534MOL0     H73636   3.900   1.442   6.513 -0.0593  1.6792  1.0240
  534MOL0     H73637   3.912   1.496   6.807  1.1888 -1.6463 -0.1371
  534MOL0     H73638   3.966   1.605   6.659  1.2680  0.4879 -0.2069
  534MOL0     H73639   4.088   1.334   6.757  2.2218 -0.6851 -1.6661
  534MOL0     H73640   4.145   1.435   6.620  1.2461 -1.7937 -0.3362
  534MOL0     H73641   4.295   1.655   6.705 -0.1412  1.5390  1.2882
  534MOL0     H73642   4.360   1.808   7.053  1.6178 -1.6646  0.0642
  534MOL0     H73643   4.321   1.868   6.891 -1.1358  0.0656  2.1951
  534MOL0     H73644   4.530   1.651   6.945 -2.0877 -2.1062 -3.9718
  534MOL0     H73645   4.521   1.748   6.801 -0.7668  1.0203  0.1352
  534MOL0     H73646   4.578   1.948   6.898 -0.0308  2.2973  1.5882
  534MOL0     H73647   4.571   1.896   7.062  1.3969 -0.0296  0.1685
  534MOL0     H73648   4.801   1.888   6.993 -1.6608  1.9476 -1.9670
  534MOL0     H73649   4.755   1.728   7.042  2.3061  1.7292  1.1787
  534MOL0     H73650   5.002   1.803   6.992 -1.4737 -1.4961 -0.1274
  534MOL0     H73651   5.201   1.708   7.048 -0.3909  1.8839 -0.2369
  534MOL0     H73652   5.297   1.834   6.987 -3.7316  1.1001  2.9627
  534MOL0     H73653   5.336   1.665   6.937 -0.0793 -2.2743  3.6708
  534MOL0     H73654   5.574   1.830   6.907 -1.7417 -4.1753 -0.4726
  534MOL0     H73655   5.804   1.898   6.887  1.5124 -0.5855 -1.0135
  534MOL0     H73656   6.016   1.939   6.842  1.1287  1.3225 -1.3066
  534MOL0     H73657   6.018   1.760   6.876  0.3777  0.0827 -0.0358
  534MOL0     H73658   6.212   1.754   6.715  2.1141 -0.2581  1.9210
  534MOL0     H73659   6.219   1.929   6.728  1.2554 -0.2481 -1.4087
  534MOL0     H73660   6.225   1.734   6.974 -0.8493 -1.7778 -0.4848
  534MOL0     H73661   6.255   1.903   6.982  1.9909 -1.2026  0.0559
  534MOL0     H73662   6.452   1.926   6.860  0.6345 -0.6104  1.3608
  534MOL0     H73663   6.436   1.759   6.804 -0.0009  1.3824 -2.3269
  534MOL0     H73664   6.484   1.868   7.092 -0.9052 -1.5529  1.4621
  534MOL0     H73665   6.421   1.701   7.065  0.2532  0.5209  2.6139
  534MOL0     H73666   6.681   1.793   6.939 -0.0376  1.2261  0.5183
  534MOL0     H73667   6.595   1.632   6.937 -3.3260  0.0021  0.3649
  534MOL0     H73668   6.628   1.581   7.143  0.0381  0.3052  1.9290
  534MOL0     H73669   6.682   1.750   7.199 -1.0330 -0.6417  0.6759
  534MOL0     H73670   6.820   1.538   7.011 -0.0255 -1.1467  1.2464
  534MOL0     H73671   6.866   1.568   7.176 -0.2963  0.3522  1.1818
  534MOL0     H73672   5.797   1.735   6.486  0.6937 -1.7903  1.7017
  534MOL0     H73673   5.564   1.717   6.487 -0.1158  1.5672 -0.5427
  534MOL0     H73674   5.096   1.653   6.535  2.3081  0.9000  0.0884
  534MOL0     H73675   4.854   1.688   6.608 -1.1733  1.9204  0.5972
  534MOL0     H73676   3.235   1.457   7.013 -1.3384  1.5892  0.7729
  534MOL0     H73677   3.096   1.390   7.176  2.0111  0.0297 -0.1101
  534MOL0     H73678   2.953   1.007   7.444  0.4012 -2.6891 -1.1327
  534MOL0     H73679   2.801   0.979   7.622  2.2761  0.5055 -0.2502
  534MOL0     H73680   2.604   0.868   7.755  2.6291  0.4676 -1.3960
  534MOL0     H73681   2.640   1.047   7.743  2.3416 -0.0817 -2.9390
  534MOL0     H73682   2.450   0.901   7.903 -2.0949 -2.3248 -1.7374
  534MOL0     H73683   2.361   0.918   7.771 -1.0015 -0.9909  1.2380
  534MOL0     H73684   2.457   1.190   7.778 -1.0752  0.8971 -2.4380
  534MOL0     H73685   2.299   1.140   7.797  1.7301 -0.5640 -1.8340
  534MOL0     H73686   2.372   1.288   7.973 -2.2468  0.5275  0.9186
  534MOL0     H73687   2.495   1.177   8.035 -1.4590 -2.7423  0.8831
  534MOL0     H73688   2.194   0.984   8.229 -3.0112  2.1135 -0.9084
  534MOL0     H73689   2.469   1.020   7.354 -0.2409  1.4304  2.1813
  534MOL0     H73690   2.678   1.011   7.049 -0.6053 -1.6676  0.0101
  534MOL0     H73691   2.525   0.969   7.115  0.5178 -1.4421  2.1434
  534MOL0     H73692   2.576   1.147   7.112  2.0463 -0.0138  0.1925
  535MOL0     O73693   3.496   8.430   1.860 -0.1525 -0.0274 -0.0197
  535MOL0     C73694   3.505   8.316   1.908 -0.3838  0.1829 -0.4525
  535MOL0     O73695   3.442   8.208   1.851 -0.0280 -0.6721  0.5992
  535MOL0     C73696   3.391   8.229   1.724  0.4411  0.0902  0.4649
  535MOL0     C73697   3.469   8.248   1.611  0.5364 -0.5206 -0.1618
  535MOL0     C73698   3.404   8.264   1.481 -0.0830  1.6214 -0.8716
  535MOL0     C73699   3.262   8.244   1.463 -0.0717 -0.0406 -0.7128
  535MOL0     O73700   3.225   8.253   1.330 -0.6103  0.4163  0.0863
  535MOL0     C73701   3.100   8.200   1.281  0.0831 -0.2788  0.3542
  535MOL0     C73702   3.096   8.185   1.127  0.1657  0.1991  0.2813
  535MOL0     C73703   2.965   8.144   1.056  0.1520  0.0336 -0.4967
  535MOL0     C73704   2.989   8.066   0.924 -0.1031 -0.8240  0.6063
  535MOL0     C73705   2.855   8.019   0.869 -0.2816  0.6052  0.2234
  535MOL0     C73706   2.873   7.959   0.728 -0.4314 -0.1781 -0.2655
  535MOL0     C73707   2.743   7.893   0.676  0.6270 -1.2501 -0.0379
  535MOL0     C73708   2.710   7.923   0.525  0.3496 -0.5262  0.0947
  535MOL0     N73709   2.819   7.905   0.439 -0.4507  0.3912 -0.7504
  535MOL0     C73710   2.865   8.002   0.348  1.0787  0.6704 -0.9347
  535MOL0     C73711   2.974   7.945   0.293  0.8113  0.2737 -0.9442
  535MOL0     C73712   3.050   7.998   0.182 -0.4929 -0.8080  0.2626
  535MOL0     C73713   3.083   8.145   0.220  0.0253 -0.1855 -0.5545
  535MOL0     C73714   3.205   8.197   0.133  0.4235  0.9384 -0.2027
  535MOL0     C73715   3.335   8.112   0.162 -0.2351 -0.1276 -0.2592
  535MOL0     O73716   3.405   8.079   0.041  0.1662 -0.0614 -0.3005
  535MOL0     C73717   3.515   8.001   0.061  0.2254 -0.5831  0.6604
  535MOL0     C73718   3.521   7.909  -0.037 -0.2354  0.6768 -0.9276
  535MOL0     C73719   3.624   7.810  -0.034  0.2647 -0.5479  0.0042
  535MOL0     C73720   3.660   7.726  -0.163  0.4550 -0.5029 -0.8403
  535MOL0     C73721   3.694   7.792   0.087  0.1154 -0.3647  0.5943
  535MOL0     C73722   3.804   7.682   0.111 -0.5863  0.6316 -0.4306
  535MOL0     O73723   3.872   7.632  -0.002  0.2126 -0.2219 -0.1683
  535MOL0     C73724   3.971   7.541   0.024 -0.5793  0.4823  1.1735
  535MOL0     C73725   3.943   7.404   0.028 -0.2625 -0.7595  0.2245
  535MOL0     C73726   4.051   7.315   0.051 -0.7396  1.0912 -0.1442
  535MOL0     C73727   4.178   7.354   0.053 -0.3883  0.4764 -0.0306
  535MOL0     O73728   4.272   7.257   0.077  0.1929  0.5359  0.3409
  535MOL0     C73729   4.406   7.286   0.055 -0.5702 -1.6238  0.1307
  535MOL0     C73730   4.490   7.160   0.030  0.6169  0.2324 -0.1803
  535MOL0     C73731   4.438   7.099  -0.104  0.1211  0.1927  0.2450
  535MOL0     C73732   4.487   6.964  -0.144 -0.1536  0.6193  0.3573
  535MOL0     C73733   4.526   6.947  -0.291  0.4917  0.4004 -0.2974
  535MOL0     C73734   4.415   6.987  -0.398  0.1688  0.6806  0.2053
  535MOL0     C73735   4.475   6.979  -0.545 -1.1178 -0.7121 -0.2713
  535MOL0     C73736   4.469   6.845  -0.617 -0.2757 -0.1664 -0.1792
  535MOL0    Cl73737   4.601   6.739  -0.540  0.6563  0.2430 -0.4714
  535MOL0     C73738   4.209   7.488   0.042 -0.2850  0.3619 -0.1063
  535MOL0     C73739   4.102   7.583   0.033 -0.8510  0.2306 -0.2674
  535MOL0     O73740   3.831   7.647   0.228  0.6330 -0.0880 -0.0986
  535MOL0     C73741   3.680   7.885   0.191 -0.3603  0.8782 -0.5221
  535MOL0     C73742   3.596   7.992   0.179  0.7027  0.5441 -0.1694
  535MOL0     N73743   2.985   7.821   0.356 -0.8368  0.6185  0.6405
  535MOL0     N73744   2.895   7.799   0.440  0.0346  0.0428 -0.2259
  535MOL0     C73745   3.182   8.234   1.581  0.1023  0.6960  0.1245
  535MOL0     C73746   3.248   8.230   1.709  0.1528  0.3940 -0.0285
  535MOL0     C73747   3.592   8.301   2.028 -0.7032 -0.8554 -0.0318
  535MOL0     C73748   3.640   8.414   2.096  1.0847  0.5839 -0.2728
  535MOL0     C73749   3.712   8.407   2.213  1.3775 -0.0811 -0.3111
  535MOL0     C73750   3.738   8.289   2.275 -0.8969 -0.5226 -0.4684
  535MOL0     O73751   3.810   8.270   2.392 -0.7360  0.3613  0.4082
  535MOL0     C73752   3.801   8.364   2.500 -0.1461  0.0197  0.1274
  535MOL0     C73753   3.876   8.317   2.624 -0.2100  0.7225  0.0815
  535MOL0     C73754   4.020   8.302   2.572 -0.3026 -0.1988 -0.8211
  535MOL0     C73755   4.111   8.238   2.669  0.1358 -0.4642 -0.4298
  535MOL0     C73756   4.239   8.197   2.612  0.4905  0.0233 -0.2574
  535MOL0     C73757   4.338   8.145   2.574  0.0055 -0.4756 -0.5066
  535MOL0     C73758   3.696   8.173   2.209 -0.1976  0.2392 -0.7817
  535MOL0     C73759   3.633   8.177   2.087  0.3575  0.3639  0.3372
  535MOL0     C73760   3.619   8.044   2.016 -0.4434 -0.5334 -0.2092
  535MOL0     H73761   3.576   8.244   1.622  0.4355 -0.8506  0.8289
  535MOL0     H73762   3.474   8.258   1.399  1.3333 -0.2266  0.3955
  535MOL0     H73763   3.033   8.283   1.307 -1.0795 -0.7615 -0.9837
  535MOL0     H73764   3.062   8.108   1.327 -2.0931  0.4034  0.0674
  535MOL0     H73765   3.138   8.275   1.082 -1.4687  0.2595 -1.2563
  535MOL0     H73766   3.167   8.109   1.091  1.5856  1.1978  0.8946
  535MOL0     H73767   2.908   8.075   1.119 -0.1240 -1.2601 -2.0929
  535MOL0     H73768   2.904   8.231   1.031  1.2466  0.7459 -0.7632
  535MOL0     H73769   3.039   8.142   0.864 -1.3075 -0.5884 -0.1535
  535MOL0     H73770   3.049   7.977   0.946 -1.4057 -1.5883  1.2389
  535MOL0     H73771   2.789   8.107   0.875  1.7566  2.1914  0.4175
  535MOL0     H73772   2.821   7.943   0.940  0.0327  1.8954  1.8384
  535MOL0     H73773   2.914   8.039   0.666  1.1118 -0.2655  0.5989
  535MOL0     H73774   2.951   7.883   0.720 -0.6965 -0.4402 -0.3764
  535MOL0     H73775   2.654   7.934   0.725  0.4706  1.5135 -2.3462
  535MOL0     H73776   2.746   7.786   0.695 -0.6067 -1.0585  1.4528
  535MOL0     H73777   2.637   7.849   0.492  0.9773 -0.1490 -2.3748
  535MOL0     H73778   2.690   8.029   0.506  0.5283 -0.4940  0.0860
  535MOL0     H73779   2.824   8.093   0.307  1.9905  1.6372  0.2286
  535MOL0     H73780   2.995   8.002   0.088 -1.4888  0.2584  0.8628
  535MOL0     H73781   3.141   7.937   0.182 -0.3965 -0.6707 -0.1576
  535MOL0     H73782   2.997   8.212   0.210  0.0774  0.1380  0.9656
  535MOL0     H73783   3.107   8.165   0.325  1.1582  2.2829 -1.1928
  535MOL0     H73784   3.183   8.186   0.026  1.4332  0.0121 -0.3275
  535MOL0     H73785   3.222   8.300   0.164  1.4633  0.3577  1.2898
  535MOL0     H73786   3.401   8.181   0.216  0.6413  0.0781 -1.5346
  535MOL0     H73787   3.320   8.016   0.211 -1.3213  0.0735 -0.1856
  535MOL0     H73788   3.454   7.918  -0.122 -3.3057 -1.2987  1.0831
  535MOL0     H73789   3.766   7.736  -0.188 -0.0006  1.8239 -2.2352
  535MOL0     H73790   3.603   7.750  -0.254  1.5856 -0.1610 -1.4895
  535MOL0     H73791   3.644   7.621  -0.138  1.0934 -0.4693 -0.2666
  535MOL0     H73792   3.843   7.364   0.036 -0.9098  0.2896 -1.9200
  535MOL0     H73793   4.033   7.209   0.067  3.0973  0.3192  0.0067
  535MOL0     H73794   4.417   7.347  -0.036  0.7031 -0.3432  1.1135
  535MOL0     H73795   4.440   7.347   0.139 -4.2325  0.2636  0.4870
  535MOL0     H73796   4.595   7.189   0.018  0.4465  1.4245  0.9388
  535MOL0     H73797   4.461   7.098   0.116  1.2690 -0.1547 -0.2325
  535MOL0     H73798   4.480   7.163  -0.182 -1.6323  0.1772 -0.7490
  535MOL0     H73799   4.331   7.115  -0.120 -0.1752 -1.5656  0.3442
  535MOL0     H73800   4.405   6.892  -0.133  1.3524 -1.0271  1.2554
  535MOL0     H73801   4.561   6.936  -0.069  1.1137  3.0085  0.0987
  535MOL0     H73802   4.616   7.007  -0.301  1.4829 -1.0532 -0.4400
  535MOL0     H73803   4.534   6.841  -0.319  1.9990  1.4700 -4.7341
  535MOL0     H73804   4.373   7.085  -0.373  0.2989  1.0341 -0.9152
  535MOL0     H73805   4.334   6.915  -0.387  1.8733 -1.0581  2.0446
  535MOL0     H73806   4.574   7.024  -0.536 -1.7329  0.9041 -1.0718
  535MOL0     H73807   4.416   7.035  -0.618  0.0610 -4.4059 -4.4836
  535MOL0     H73808   4.488   6.848  -0.725 -2.7599  1.4921 -0.6588
  535MOL0     H73809   4.367   6.809  -0.600 -0.5083 -0.3654 -1.7957
  535MOL0     H73810   4.313   7.519   0.049  0.3802 -0.3126 -4.3517
  535MOL0     H73811   4.121   7.690   0.025 -2.0303  0.4019 -1.0670
  535MOL0     H73812   3.720   7.861   0.289 -0.2852  0.2444 -0.6982
  535MOL0     H73813   3.597   8.067   0.257 -0.0179 -0.4689  0.8395
  535MOL0     H73814   3.074   8.221   1.580  0.1112  0.3004  1.4155
  535MOL0     H73815   3.203   8.224   1.807 -1.3915 -0.4338 -0.7580
  535MOL0     H73816   3.621   8.516   2.066 -2.6462  0.7970  2.2099
  535MOL0     H73817   3.745   8.501   2.257  1.0302 -0.0763 -0.0497
  535MOL0     H73818   3.834   8.460   2.459 -1.5693  0.8875  0.9070
  535MOL0     H73819   3.695   8.380   2.525  0.1043  2.1707  0.0034
  535MOL0     H73820   3.840   8.218   2.654  0.9702 -0.0975 -1.1143
  535MOL0     H73821   3.855   8.397   2.696 -0.9128 -1.0067  1.8812
  535MOL0     H73822   4.011   8.233   2.488 -3.6517 -1.8369  0.7046
  535MOL0     H73823   4.077   8.389   2.536  0.3767 -0.6265 -0.8069
  535MOL0     H73824   4.052   8.159   2.717 -4.6494  3.0117  0.0698
  535MOL0     H73825   4.125   8.311   2.749 -0.4899 -1.4273  0.5863
  535MOL0     H73826   4.439   8.113   2.557  0.7720  0.6872  1.4952
  535MOL0     H73827   3.735   8.081   2.252  0.9604  0.5903 -1.0372
  535MOL0     H73828   3.665   8.043   1.917  2.8404 -2.0179  1.2084
  535MOL0     H73829   3.676   7.965   2.064  2.0144  0.2083 -1.7501
  535MOL0     H73830   3.520   8.000   2.001 -0.8436 -0.1220  1.0580
  536MOL0     O73831   6.048   4.633   2.230  0.3452  0.9043 -0.3578
  536MOL0     C73832   5.930   4.668   2.233  0.1734 -0.0919  0.2918
  536MOL0     O73833   5.837   4.595   2.298  0.7112 -0.3732  0.1140
  536MOL0     C73834   5.862   4.472   2.363  0.0256 -0.2801 -0.0871
  536MOL0     C73835   5.834   4.450   2.506 -0.5801 -0.2603  0.1291
  536MOL0     C73836   5.846   4.319   2.557 -0.0763 -0.1613  0.3713
  536MOL0     C73837   5.881   4.213   2.473  0.2537 -0.0635  0.1287
  536MOL0     O73838   5.870   4.091   2.543  0.6692  0.9369 -0.7751
  536MOL0     C73839   5.945   3.972   2.497  0.3571 -0.6975  0.8080
  536MOL0     C73840   5.921   3.853   2.596 -1.1773 -0.6606 -0.5424
  536MOL0     C73841   5.996   3.876   2.729 -0.6648  0.8918  0.5306
  536MOL0     C73842   6.144   3.838   2.697  0.3021 -0.0616 -0.4787
  536MOL0     C73843   6.224   3.874   2.817  0.0521  0.7357 -0.1413
  536MOL0     C73844   6.373   3.853   2.820 -0.3285 -0.1210 -0.6824
  536MOL0     C73845   6.416   3.705   2.800  0.6356 -0.5502  0.1383
  536MOL0     C73846   6.561   3.689   2.837 -0.0614  0.4262 -0.3194
  536MOL0     N73847   6.599   3.547   2.831 -0.3711  0.6821  0.1265
  536MOL0     C73848   6.728   3.518   2.781  0.4890 -0.1949 -0.3354
  536MOL0     C73849   6.723   3.383   2.787 -0.0759  0.0023 -0.9498
  536MOL0     C73850   6.832   3.291   2.744 -0.8092  0.3104  0.6677
  536MOL0     C73851   6.922   3.222   2.850  0.5375  0.7670  0.1430
  536MOL0     C73852   6.965   3.306   2.966  0.9367  0.2067 -0.3794
  536MOL0     C73853   7.067   3.251   3.056 -0.3410  0.7991  0.2000
  536MOL0     O73854   7.045   3.117   3.102  0.1976 -0.9638 -0.0284
  536MOL0     C73855   7.109   3.066   3.203  0.0685  0.0499  0.9048
  536MOL0     C73856   7.133   3.132   3.321 -0.3942  0.2416  0.3592
  536MOL0     C73857   7.206   3.068   3.432 -0.3763  0.4029 -0.0849
  536MOL0     C73858   7.245   3.165   3.547 -0.9482 -0.1034  0.3099
  536MOL0     C73859   7.232   2.929   3.417  0.4611 -0.1106 -0.2447
  536MOL0     C73860   7.314   2.849   3.515 -0.3696  0.3365 -0.5005
  536MOL0     O73861   7.278   2.718   3.535 -0.3038 -0.2412  0.2492
  536MOL0     C73862   7.305   2.671   3.658 -0.3055  0.5810  0.8505
  536MOL0     C73863   7.415   2.594   3.673  0.3488  0.4707  0.4084
  536MOL0     C73864   7.446   2.541   3.807 -0.9621  0.6259  0.2854
  536MOL0     C73865   7.371   2.578   3.918 -0.1544 -1.2391 -0.7366
  536MOL0     O73866   7.398   2.538   4.044  0.0422 -0.0403 -0.1060
  536MOL0     C73867   7.305   2.489   4.134  0.6124  0.5259  0.6042
  536MOL0     C73868   7.222   2.377   4.068  0.2555  0.7902 -0.6162
  536MOL0     C73869   7.323   2.260   4.021 -0.8847 -0.3449 -0.0989
  536MOL0     C73870   7.243   2.174   3.920  0.4091 -0.1759  1.7836
  536MOL0     C73871   7.330   2.079   3.840 -0.6058  0.5885  0.1435
  536MOL0     C73872   7.254   1.982   3.755 -0.5402  1.0321  0.2807
  536MOL0     C73873   7.220   1.854   3.826  1.0376 -0.3260 -0.9408
  536MOL0     C73874   7.092   1.795   3.752  0.0538  0.1601  0.4273
  536MOL0    Cl73875   6.938   1.879   3.805  0.4327  0.2493 -0.5101
  536MOL0     C73876   7.252   2.651   3.895  0.4452  0.6356  0.1898
  536MOL0     C73877   7.221   2.697   3.767 -0.2527 -1.4072  0.1582
  536MOL0     O73878   7.422   2.902   3.544 -0.0664  0.6634 -0.0037
  536MOL0     C73879   7.192   2.862   3.298  0.9451 -0.3376 -0.0360
  536MOL0     C73880   7.131   2.930   3.200  0.2719  0.3158  0.0883
  536MOL0     N73881   6.601   3.338   2.841  0.8512 -0.5103 -0.9475
  536MOL0     N73882   6.527   3.444   2.874 -0.7309  0.1345 -0.2043
  536MOL0     C73883   5.928   4.234   2.344 -0.3845 -1.0877  1.0809
  536MOL0     C73884   5.911   4.359   2.283  0.3888  0.4082 -0.4778
  536MOL0     C73885   5.901   4.794   2.172  0.0812  0.5272  0.0208
  536MOL0     C73886   5.787   4.855   2.211 -0.1237 -0.8549 -0.5005
  536MOL0     C73887   5.754   4.985   2.170 -0.3903  0.5623  0.2381
  536MOL0     C73888   5.831   5.049   2.071  0.1701  0.8538 -0.0950
  536MOL0     O73889   5.803   5.174   2.009 -0.1316 -0.8443 -0.7591
  536MOL0     C73890   5.689   5.242   2.051 -0.8317  0.0451 -0.4954
  536MOL0     C73891   5.668   5.367   1.984 -0.2415  0.1809 -0.2068
  536MOL0     C73892   5.524   5.426   1.994 -0.3453  0.4461  0.4511
  536MOL0     C73893   5.438   5.385   1.875 -0.4133 -0.0910  0.2286
  536MOL0     C73894   5.306   5.438   1.902  0.2703 -0.3954 -0.3043
  536MOL0     C73895   5.192   5.479   1.921  0.6856  0.3331  0.6537
  536MOL0     C73896   5.942   4.977   2.018  0.1946  0.2541  0.0750
  536MOL0     C73897   5.978   4.854   2.071 -0.7908  1.3803  0.2768
  536MOL0     C73898   6.108   4.799   2.012 -0.2499  0.0412  0.6223
  536MOL0     H73899   5.798   4.537   2.559  0.0660 -1.0664  2.0122
  536MOL0     H73900   5.816   4.302   2.660 -3.0705  1.0275 -0.1862
  536MOL0     H73901   6.053   3.989   2.485 -0.1323  0.5251 -2.9655
  536MOL0     H73902   5.926   3.955   2.391 -2.6559  1.3656  0.8921
  536MOL0     H73903   5.812   3.843   2.601 -1.4146  0.0866 -2.8749
  536MOL0     H73904   5.965   3.765   2.549 -1.3367 -0.4989 -0.9926
  536MOL0     H73905   5.979   3.977   2.767  1.9871  1.3149  0.7785
  536MOL0     H73906   5.953   3.800   2.795 -0.8905 -0.0060 -0.6109
  536MOL0     H73907   6.162   3.733   2.672 -1.0851 -0.2806 -0.6310
  536MOL0     H73908   6.188   3.902   2.620 -3.9724  0.0664 -3.1394
  536MOL0     H73909   6.182   3.809   2.895 -0.8331 -0.3672 -1.5014
  536MOL0     H73910   6.195   3.978   2.834 -1.2363  0.5713 -1.1498
  536MOL0     H73911   6.424   3.914   2.745  1.5826 -0.7237  0.0520
  536MOL0     H73912   6.405   3.882   2.921  0.5929  0.4359 -1.1247
  536MOL0     H73913   6.403   3.665   2.699  2.5580 -0.8035 -0.0463
  536MOL0     H73914   6.355   3.649   2.871 -1.0932  0.4384 -0.5048
  536MOL0     H73915   6.621   3.745   2.764  0.7277  1.7957  1.3249
  536MOL0     H73916   6.570   3.731   2.937 -0.1381 -1.8058  0.6744
  536MOL0     H73917   6.800   3.588   2.740 -0.9802  1.7349  0.2296
  536MOL0     H73918   6.891   3.342   2.667  1.0789  0.2194  1.9721
  536MOL0     H73919   6.786   3.210   2.686  1.1736 -0.1342 -0.3936
  536MOL0     H73920   6.860   3.139   2.885 -4.2848  2.3322 -3.6486
  536MOL0     H73921   7.005   3.187   2.787  1.7718  3.2190  0.2952
  536MOL0     H73922   6.993   3.405   2.930 -0.1040  0.7331  0.2062
  536MOL0     H73923   6.877   3.299   3.031  1.3498 -2.5836  0.0257
  536MOL0     H73924   7.167   3.263   3.013  0.7905 -2.1403  1.7412
  536MOL0     H73925   7.071   3.319   3.142  0.4002 -0.5453  1.2775
  536MOL0     H73926   7.111   3.237   3.336  1.2254  0.6904 -0.1816
  536MOL0     H73927   7.300   3.247   3.500  2.3748 -2.1489  0.3559
  536MOL0     H73928   7.296   3.120   3.633 -0.4142  0.9735  0.5807
  536MOL0     H73929   7.150   3.194   3.593 -2.6716  0.8594 -3.4989
  536MOL0     H73930   7.473   2.565   3.585 -2.7926 -0.0990 -1.6512
  536MOL0     H73931   7.543   2.491   3.805 -0.6295  1.2668 -0.4537
  536MOL0     H73932   7.354   2.443   4.220 -0.2989 -1.7561 -0.0107
  536MOL0     H73933   7.228   2.560   4.163 -1.2067 -1.4216  0.7877
  536MOL0     H73934   7.168   2.334   4.153  2.8041 -1.1988  0.1324
  536MOL0     H73935   7.159   2.419   3.989 -0.9523  2.9886  1.4011
  536MOL0     H73936   7.345   2.195   4.106 -2.5815 -0.3722  0.3362
  536MOL0     H73937   7.419   2.300   3.986 -0.4449 -2.6904 -1.8818
  536MOL0     H73938   7.211   2.244   3.842  1.9745 -1.2448  0.0913
  536MOL0     H73939   7.153   2.126   3.960 -1.0774  0.9866  0.0162
  536MOL0     H73940   7.395   2.134   3.772 -1.8751 -0.9225 -2.4593
  536MOL0     H73941   7.393   2.019   3.906  1.0168  0.4501 -1.4664
  536MOL0     H73942   7.325   1.952   3.678  0.1712 -1.9546  1.9473
  536MOL0     H73943   7.168   2.027   3.706 -2.5826 -3.4823 -0.7690
  536MOL0     H73944   7.221   1.865   3.934  2.0583 -2.3028 -0.7157
  536MOL0     H73945   7.306   1.790   3.805  0.7279 -1.1114  0.1164
  536MOL0     H73946   7.085   1.692   3.788  5.3218  0.5014  3.5748
  536MOL0     H73947   7.111   1.793   3.644  1.7734 -0.4896  0.6937
  536MOL0     H73948   7.184   2.689   3.971 -1.1607  0.3072 -1.0311
  536MOL0     H73949   7.130   2.755   3.762  0.6419  0.1919  1.5003
  536MOL0     H73950   7.215   2.756   3.293  0.2253 -0.7357  3.1606
  536MOL0     H73951   7.101   2.880   3.109  0.6035  0.2623  0.0085
  536MOL0     H73952   5.973   4.157   2.282  1.6890  1.2134 -0.5051
  536MOL0     H73953   5.929   4.364   2.177 -0.0855 -1.1775 -0.6713
  536MOL0     H73954   5.730   4.812   2.292 -1.3512  0.7698 -0.4413
  536MOL0     H73955   5.672   5.034   2.221 -0.2064 -1.5448  2.7159
  536MOL0     H73956   5.606   5.178   2.021 -1.6779  0.3808  1.0503
  536MOL0     H73957   5.699   5.267   2.157  1.0135  0.9628 -0.8417
  536MOL0     H73958   5.705   5.359   1.881 -1.5003 -0.3982 -0.6314
  536MOL0     H73959   5.736   5.441   2.028  0.2202 -1.5735  2.2016
  536MOL0     H73960   5.473   5.395   2.085 -1.6463  0.6730 -0.1754
  536MOL0     H73961   5.548   5.533   1.993 -0.5105  0.4823  0.2953
  536MOL0     H73962   5.419   5.278   1.869 -2.2149  0.2441 -3.3351
  536MOL0     H73963   5.487   5.415   1.781 -1.8947 -0.1089 -0.5793
  536MOL0     H73964   5.096   5.523   1.937 -1.1580 -3.6442  1.9446
  536MOL0     H73965   5.994   5.022   1.935 -1.2356  0.2425 -0.8637
  536MOL0     H73966   6.134   4.837   1.913 -0.8289 -1.4846 -0.1369
  536MOL0     H73967   6.190   4.840   2.072  2.7774 -0.3110 -2.8626
  536MOL0     H73968   6.100   4.690   2.013  0.8507 -0.0640  0.2700
  537MOL0     O73969   3.764   6.338   0.177  0.3568  0.4131  0.2401
  537MOL0     C73970   3.660   6.304   0.230  0.0476  0.3874  0.5866
  537MOL0     O73971   3.604   6.367   0.328  0.0039  0.9037 -0.2557
  537MOL0     C73972   3.660   6.484   0.378 -1.0014 -0.4762 -0.4217
  537MOL0     C73973   3.674   6.500   0.516 -0.3028 -0.4702 -0.9661
  537MOL0     C73974   3.700   6.629   0.572 -1.1938  0.2094  0.7191
  537MOL0     C73975   3.754   6.730   0.492  0.7092 -0.2686 -0.0624
  537MOL0     O73976   3.797   6.841   0.562  0.9172  0.5586  0.2264
  537MOL0     C73977   3.911   6.910   0.515  0.6087 -0.0445  0.5785
  537MOL0     C73978   4.037   6.817   0.510  0.8208 -0.3418 -0.7867
  537MOL0     C73979   4.084   6.789   0.658  0.9386 -0.3749  1.0268
  537MOL0     C73980   4.231   6.751   0.650  0.8092  0.4044  0.3207
  537MOL0     C73981   4.293   6.708   0.784  0.2709 -0.0258  0.1290
  537MOL0     C73982   4.426   6.647   0.779 -0.1849  0.0036  0.0681
  537MOL0     C73983   4.547   6.728   0.727 -0.6733 -0.2170  0.0941
  537MOL0     C73984   4.687   6.670   0.768 -0.2108  0.8261  0.5301
  537MOL0     N73985   4.793   6.751   0.692 -0.0270 -0.5154  0.4684
  537MOL0     C73986   4.822   6.885   0.697  0.5583  0.9601 -0.4636
  537MOL0     C73987   4.926   6.899   0.611 -0.1095  0.4501 -0.5191
  537MOL0     C73988   4.992   7.029   0.578  0.0011  0.0118  0.2195
  537MOL0     C73989   4.918   7.108   0.465  0.2231  0.9401 -0.8622
  537MOL0     C73990   4.909   7.042   0.330  0.0621 -0.1396  0.2139
  537MOL0     C73991   4.841   7.129   0.227  0.4462 -0.4789  0.9641
  537MOL0     O73992   4.891   7.267   0.214 -0.0360  0.1346  0.0765
  537MOL0     C73993   4.834   7.335   0.113 -0.2101 -0.6993 -0.1993
  537MOL0     C73994   4.772   7.454   0.147 -0.6460  0.3677 -0.7004
  537MOL0     C73995   4.704   7.522   0.047  0.1693  0.8209 -0.0081
  537MOL0     C73996   4.614   7.634   0.095 -0.3807  0.3856  0.0378
  537MOL0     C73997   4.699   7.478  -0.089 -0.8500 -0.8847 -0.3301
  537MOL0     C73998   4.617   7.540  -0.199 -0.6689  0.0255 -0.2892
  537MOL0     O73999   4.622   7.471  -0.312  0.2982 -0.0890  0.5736
  537MOL0     C74000   4.562   7.533  -0.422 -0.8452 -0.8270 -0.1150
  537MOL0     C74001   4.436   7.500  -0.449  0.3745 -0.0354 -0.3481
  537MOL0     C74002   4.374   7.567  -0.565 -0.8147  0.9304 -0.6735
  537MOL0     C74003   4.434   7.666  -0.632 -0.1434 -0.0487 -0.0788
  537MOL0     O74004   4.376   7.735  -0.736 -1.5912  0.3207 -0.3957
  537MOL0     C74005   4.234   7.722  -0.748 -0.4172 -0.8408  0.0395
  537MOL0     C74006   4.198   7.793  -0.882 -0.4348  0.4172  0.1981
  537MOL0     C74007   4.195   7.948  -0.878  0.5017  0.0125 -0.2102
  537MOL0     C74008   4.144   8.009  -1.008  0.2904 -0.2128 -0.0726
  537MOL0     C74009   4.069   8.139  -1.004  0.5167  0.3492  0.2979
  537MOL0     C74010   4.021   8.181  -1.139 -0.4461 -0.5576  0.2212
  537MOL0     C74011   3.904   8.273  -1.138 -0.4147  0.5899 -0.2727
  537MOL0     C74012   3.874   8.324  -1.276 -0.1571 -0.0741  1.7233
  537MOL0    Cl74013   3.712   8.395  -1.272  0.2820 -0.0635 -0.1468
  537MOL0     C74014   4.565   7.706  -0.592 -0.0396  0.5512 -0.6857
  537MOL0     C74015   4.622   7.646  -0.478  0.1217 -1.0563  0.5289
  537MOL0     O74016   4.540   7.627  -0.170  0.1170 -0.5995 -0.0721
  537MOL0     C74017   4.775   7.366  -0.118  0.1742  0.6014  0.5713
  537MOL0     C74018   4.840   7.291  -0.014 -0.1696 -0.7031  0.7317
  537MOL0     N74019   4.960   6.774   0.559  0.6948 -0.0077  0.8697
  537MOL0     N74020   4.889   6.689   0.618  0.6027  0.5140  0.2823
  537MOL0     C74021   3.755   6.713   0.352 -0.7144  0.2443 -0.5955
  537MOL0     C74022   3.700   6.595   0.300 -0.5032  0.4822 -0.1576
  537MOL0     C74023   3.578   6.183   0.183  0.3009 -0.4799  0.0053
  537MOL0     C74024   3.439   6.200   0.202  0.7481  0.4313  0.2519
  537MOL0     C74025   3.353   6.097   0.146 -0.6634 -0.1662  0.1276
  537MOL0     C74026   3.404   5.992   0.082 -0.4981  1.9264  0.2143
  537MOL0     O74027   3.300   5.906   0.041  0.7007 -0.7944  0.2802
  537MOL0     C74028   3.331   5.767   0.007  1.4661  0.9596  0.3348
  537MOL0     C74029   3.291   5.670   0.119  0.3073 -0.2809 -0.3968
  537MOL0     C74030   3.386   5.664   0.245  0.9148  0.3357 -0.1076
  537MOL0     C74031   3.370   5.531   0.327 -1.3025 -0.0049  0.1152
  537MOL0     C74032   3.243   5.498   0.376  1.1655  0.5270 -0.6674
  537MOL0     C74033   3.136   5.447   0.409 -0.2719  0.6841 -0.4821
  537MOL0     C74034   3.538   5.963   0.079  0.8513  0.2231 -0.8660
  537MOL0     C74035   3.621   6.065   0.124  0.7060  0.2863  0.1998
  537MOL0     C74036   3.773   6.033   0.121  1.1548 -0.5513  0.3334
  537MOL0     H74037   3.649   6.417   0.582  0.8212 -0.3831 -0.3890
  537MOL0     H74038   3.692   6.638   0.679  2.5972  3.2680  0.9365
  537MOL0     H74039   3.927   7.003   0.570  0.7478  0.1579  0.1967
  537MOL0     H74040   3.886   6.941   0.413  0.2368 -3.2838 -0.4240
  537MOL0     H74041   4.015   6.718   0.470  2.5059 -0.9096 -0.3905
  537MOL0     H74042   4.113   6.864   0.447  2.2242 -0.7170  0.5781
  537MOL0     H74043   4.082   6.884   0.712 -0.0366  0.0778  0.2313
  537MOL0     H74044   4.028   6.714   0.714  0.6515 -1.3106 -0.4513
  537MOL0     H74045   4.256   6.671   0.579  1.2363  1.8419 -1.2079
  537MOL0     H74046   4.285   6.837   0.611 -0.7570  0.9576 -0.7375
  537MOL0     H74047   4.222   6.641   0.833 -1.7155  1.8878  0.0261
  537MOL0     H74048   4.298   6.791   0.855 -2.6062 -0.7774  1.3608
  537MOL0     H74049   4.451   6.630   0.884  2.3358 -1.4027 -0.6748
  537MOL0     H74050   4.428   6.551   0.725  1.5798  1.0334 -1.8017
  537MOL0     H74051   4.548   6.831   0.761  1.6982  1.1820 -3.5624
  537MOL0     H74052   4.533   6.726   0.618  2.1899  1.8517 -0.4321
  537MOL0     H74053   4.704   6.661   0.876  1.3719 -0.8253  0.1865
  537MOL0     H74054   4.696   6.567   0.732  2.4644  1.5627 -1.1883
  537MOL0     H74055   4.785   6.963   0.762 -2.1230 -1.8100  1.5975
  537MOL0     H74056   5.093   7.004   0.544 -1.4327 -0.7243 -4.0822
  537MOL0     H74057   4.996   7.102   0.660 -0.7703 -0.9053  1.0997
  537MOL0     H74058   4.819   7.130   0.506  0.0395 -1.4141  0.0593
  537MOL0     H74059   4.979   7.199   0.463  0.4432  1.0503  3.2419
  537MOL0     H74060   5.005   7.005   0.292  0.3149  2.0801 -1.5656
  537MOL0     H74061   4.854   6.949   0.345  1.4000 -0.9281  0.3588
  537MOL0     H74062   4.836   7.071   0.134 -0.1833 -1.6514  1.7078
  537MOL0     H74063   4.737   7.146   0.255  0.1381 -1.7949  0.6944
  537MOL0     H74064   4.768   7.483   0.252  1.0578 -3.4120  0.5883
  537MOL0     H74065   4.645   7.724   0.042  0.1628  1.4993  2.1423
  537MOL0     H74066   4.629   7.643   0.203  1.0243  0.6237 -0.1558
  537MOL0     H74067   4.509   7.607   0.079  0.2127 -0.9797 -1.9684
  537MOL0     H74068   4.389   7.422  -0.390  0.6032  0.5553  0.6317
  537MOL0     H74069   4.273   7.531  -0.581  0.1056 -0.9884 -2.5799
  537MOL0     H74070   4.211   7.617  -0.767 -1.0444 -0.2890 -2.5317
  537MOL0     H74071   4.170   7.757  -0.667 -1.2519 -2.4242  0.1082
  537MOL0     H74072   4.271   7.755  -0.953  0.1593 -0.5998  1.3094
  537MOL0     H74073   4.097   7.757  -0.904 -1.0232  3.0432 -1.9970
  537MOL0     H74074   4.296   7.983  -0.852  3.2667 -5.7677 -1.6522
  537MOL0     H74075   4.122   7.983  -0.805 -1.8158 -2.4732 -1.1832
  537MOL0     H74076   4.064   7.943  -1.044  1.1370 -1.0573 -0.4315
  537MOL0     H74077   4.224   8.009  -1.083  2.2727  2.0024  1.8639
  537MOL0     H74078   3.981   8.115  -0.943  0.4622 -3.4069 -1.0346
  537MOL0     H74079   4.126   8.220  -0.958  0.2838 -0.1994  1.5754
  537MOL0     H74080   4.008   8.098  -1.209  4.6050 -2.3152  0.9125
  537MOL0     H74081   4.097   8.243  -1.188 -2.8524  2.6008  0.1752
  537MOL0     H74082   3.926   8.359  -1.074  0.4595 -0.3184  0.6910
  537MOL0     H74083   3.819   8.213  -1.105  0.0982 -0.8592 -1.5067
  537MOL0     H74084   3.875   8.240  -1.345 -4.1798  1.0558  0.0230
  537MOL0     H74085   3.951   8.397  -1.304 -1.3235  0.7479  0.5468
  537MOL0     H74086   4.625   7.778  -0.646  3.0885 -1.6316 -0.4441
  537MOL0     H74087   4.725   7.670  -0.455 -0.4526 -0.4127  2.6329
  537MOL0     H74088   4.787   7.331  -0.220  3.0205 -2.5056  1.7503
  537MOL0     H74089   4.909   7.209  -0.033  0.2032 -0.2692  0.1513
  537MOL0     H74090   3.783   6.793   0.284  0.7103 -1.9953 -2.8140
  537MOL0     H74091   3.690   6.590   0.192 -0.3881  3.1698 -0.3591
  537MOL0     H74092   3.391   6.291   0.234  2.8443  1.5925  0.2398
  537MOL0     H74093   3.247   6.115   0.166 -0.3318  0.3677  1.5290
  537MOL0     H74094   3.272   5.729  -0.077  3.8451 -1.7077 -0.2831
  537MOL0     H74095   3.434   5.751  -0.027  1.6838  1.9835  0.4813
  537MOL0     H74096   3.292   5.577   0.062  2.6494 -0.0816 -0.7962
  537MOL0     H74097   3.193   5.687   0.163 -0.2014  0.3119 -1.7117
  537MOL0     H74098   3.486   5.672   0.200  0.0556  2.4208 -1.8426
  537MOL0     H74099   3.357   5.754   0.300  0.8618  0.7909 -0.8736
  537MOL0     H74100   3.440   5.537   0.411 -1.5678 -1.3720  0.4648
  537MOL0     H74101   3.413   5.447   0.270  1.8181 -1.7586  4.4608
  537MOL0     H74102   3.054   5.388   0.444  0.2748  0.2598  0.1257
  537MOL0     H74103   3.575   5.868   0.043 -0.1350 -0.9865  1.1092
  537MOL0     H74104   3.815   6.003   0.218 -0.2788 -1.3204  0.7485
  537MOL0     H74105   3.794   5.953   0.049  2.4580 -0.6265  0.7762
  537MOL0     H74106   3.828   6.119   0.083  0.0992 -0.6123 -1.4123
  538MOL0     O74107   5.466   5.200   1.522 -0.1600 -1.1378  0.6732
  538MOL0     C74108   5.555   5.195   1.430 -0.3456  0.1599  0.5657
  538MOL0     O74109   5.520   5.178   1.300 -0.1166  0.2580  0.2991
  538MOL0     C74110   5.587   5.080   1.230  0.2480 -0.4542 -0.1219
  538MOL0     C74111   5.607   4.954   1.276 -0.0023  0.4801 -0.1510
  538MOL0     C74112   5.696   4.863   1.207  0.9103  0.3931 -0.3373
  538MOL0     C74113   5.768   4.905   1.095 -0.5202 -1.3333 -0.3076
  538MOL0     O74114   5.866   4.825   1.041 -0.9632 -0.0913  0.0698
  538MOL0     C74115   5.852   4.808   0.902  0.6115  0.5798  0.1726
  538MOL0     C74116   5.886   4.668   0.863 -0.3818  0.1818  0.4695
  538MOL0     C74117   6.039   4.653   0.851 -0.8717 -0.2232  0.1677
  538MOL0     C74118   6.086   4.511   0.796  0.2249 -0.7753 -0.0599
  538MOL0     C74119   6.050   4.384   0.873 -0.7999 -0.1151 -0.1848
  538MOL0     C74120   6.159   4.274   0.865  0.5126  0.2017  0.6917
  538MOL0     C74121   6.143   4.208   0.729 -0.6016 -0.2126 -0.2771
  538MOL0     C74122   6.262   4.110   0.720 -0.5332 -1.2728 -0.6755
  538MOL0     N74123   6.264   4.051   0.591  0.4771  1.1105 -0.0756
  538MOL0     C74124   6.208   3.923   0.560  0.3560 -0.0675 -0.1148
  538MOL0     C74125   6.214   3.914   0.423  0.6431 -0.9953  0.9004
  538MOL0     C74126   6.167   3.790   0.345 -0.2947  0.0050 -0.5611
  538MOL0     C74127   6.029   3.809   0.297  0.7255 -0.0391  0.0084
  538MOL0     C74128   5.907   3.817   0.400 -0.7889 -0.0060  0.2791
  538MOL0     C74129   5.891   3.689   0.468 -0.6664 -0.0823 -0.2051
  538MOL0     O74130   5.978   3.693   0.583  0.0795  0.0288  0.1861
  538MOL0     C74131   6.004   3.566   0.636 -0.2951 -0.1556  0.6091
  538MOL0     C74132   6.102   3.564   0.737 -0.2936 -0.2635 -0.2964
  538MOL0     C74133   6.149   3.449   0.801  1.3580 -0.7375  0.7275
  538MOL0     C74134   6.248   3.463   0.909  0.4085  0.2558  0.6494
  538MOL0     C74135   6.092   3.323   0.756 -0.2810 -0.3256  0.0671
  538MOL0     C74136   6.131   3.194   0.809  0.6912 -0.7166  0.1680
  538MOL0     O74137   6.040   3.093   0.782  0.1512 -0.2027  0.2376
  538MOL0     C74138   6.094   2.968   0.786 -0.7628 -0.5679  0.8071
  538MOL0     C74139   6.103   2.887   0.901  0.4629  0.4228 -0.0335
  538MOL0     C74140   6.117   2.753   0.890  0.1938  1.3468  1.2609
  538MOL0     C74141   6.137   2.684   0.764  0.3050 -0.4730 -0.9277
  538MOL0     O74142   6.151   2.548   0.760  0.3814  0.1194  0.2969
  538MOL0     C74143   6.161   2.462   0.879 -1.3382 -0.3379 -0.5918
  538MOL0     C74144   6.120   2.330   0.826  0.6510  0.1227  0.8546
  538MOL0     C74145   6.095   2.231   0.932 -0.2630  0.8700 -0.1175
  538MOL0     C74146   6.015   2.117   0.873  0.1321 -0.2547  0.7001
  538MOL0     C74147   6.024   1.981   0.957 -0.2419  0.0845  0.2796
  538MOL0     C74148   5.956   2.010   1.094  0.6444  0.5592  0.1776
  538MOL0     C74149   5.937   1.871   1.160  0.5335  0.4894 -0.2667
  538MOL0     C74150   5.859   1.891   1.291 -0.0358 -0.0115  0.8331
  538MOL0    Cl74151   5.955   1.989   1.415  0.3578  0.1220 -0.2879
  538MOL0     C74152   6.158   2.771   0.663 -1.1390 -0.8458  0.4517
  538MOL0     C74153   6.129   2.909   0.666 -0.2913 -0.6863  0.3488
  538MOL0     O74154   6.234   3.183   0.872  0.6112  0.0623  0.0949
  538MOL0     C74155   5.992   3.325   0.660  1.1133  0.4934 -0.2849
  538MOL0     C74156   5.954   3.444   0.601  0.4020  0.2393  0.2071
  538MOL0     N74157   6.278   4.032   0.377 -0.5507  0.0215  0.5447
  538MOL0     N74158   6.304   4.107   0.478  0.0570 -0.0934 -1.0520
  538MOL0     C74159   5.743   5.035   1.045 -0.0870  0.2516  0.2150
  538MOL0     C74160   5.648   5.114   1.104 -0.3856 -0.0555 -0.1832
  538MOL0     C74161   5.699   5.219   1.474  1.0473  0.4295  0.7948
  538MOL0     C74162   5.779   5.295   1.383  0.1616 -0.5836 -0.9221
  538MOL0     C74163   5.915   5.315   1.413  0.4357  1.0693 -0.6107
  538MOL0     C74164   5.966   5.249   1.526 -0.0407  0.3791  0.7325
  538MOL0     O74165   6.104   5.253   1.546 -0.1402  0.4096  0.1686
  538MOL0     C74166   6.145   5.340   1.657 -0.0568 -0.0062 -0.1971
  538MOL0     C74167   6.192   5.249   1.763 -0.4721 -0.5401 -0.7541
  538MOL0     C74168   6.251   5.346   1.875  0.4019 -0.8621 -0.0903
  538MOL0     C74169   6.278   5.280   2.015 -0.1270  0.9344 -0.1391
  538MOL0     C74170   6.365   5.161   2.004  0.3227 -0.3054 -0.0047
  538MOL0     C74171   6.461   5.084   2.001 -0.4073  0.6988 -0.3985
  538MOL0     C74172   5.885   5.192   1.621 -0.4744 -0.2319  0.6928
  538MOL0     C74173   5.753   5.173   1.595 -0.5471 -1.1312  0.5186
  538MOL0     C74174   5.671   5.114   1.702  0.5391  0.2190 -0.0356
  538MOL0     H74175   5.550   4.926   1.364 -3.1628  0.3905 -2.0893
  538MOL0     H74176   5.716   4.766   1.250 -1.5549  0.4731  1.1782
  538MOL0     H74177   5.903   4.886   0.844  1.7371 -1.4263 -1.7117
  538MOL0     H74178   5.744   4.799   0.883  0.6357 -1.4801  0.8662
  538MOL0     H74179   5.841   4.598   0.934 -1.3912 -1.3151 -1.5636
  538MOL0     H74180   5.834   4.654   0.768 -1.3595  3.7172  0.3499
  538MOL0     H74181   6.073   4.742   0.798 -4.1392 -0.1291 -2.0678
  538MOL0     H74182   6.081   4.659   0.952  0.9662 -3.8449 -0.2096
  538MOL0     H74183   6.045   4.504   0.695 -4.8167 -1.0600  1.7292
  538MOL0     H74184   6.195   4.515   0.791  0.2382 -0.8429  0.1709
  538MOL0     H74185   5.952   4.339   0.855 -1.1789  0.5216  0.2449
  538MOL0     H74186   6.051   4.417   0.977 -1.4545  1.2054 -0.5721
  538MOL0     H74187   6.263   4.301   0.881  2.4105 -2.8081 -4.4250
  538MOL0     H74188   6.143   4.194   0.938  2.2851 -0.6500  0.1909
  538MOL0     H74189   6.144   4.286   0.652  1.5531 -0.5567 -0.6575
  538MOL0     H74190   6.048   4.154   0.720  0.0557 -1.3254 -0.7580
  538MOL0     H74191   6.357   4.165   0.724 -0.2141 -1.8882  1.2643
  538MOL0     H74192   6.262   4.037   0.800  1.2856 -0.1222  0.4490
  538MOL0     H74193   6.170   3.848   0.629 -0.3389  1.4048  1.1504
  538MOL0     H74194   6.168   3.705   0.414  3.7385  1.0078  0.9296
  538MOL0     H74195   6.236   3.767   0.263  2.6472  5.9873 -0.3287
  538MOL0     H74196   6.032   3.915   0.271 -0.7625  0.5429  1.9454
  538MOL0     H74197   6.011   3.733   0.221 -0.0874 -0.5885  0.7197
  538MOL0     H74198   5.923   3.903   0.466  0.1002  1.1891 -1.4089
  538MOL0     H74199   5.819   3.843   0.341 -0.0362 -0.9855 -1.3262
  538MOL0     H74200   5.786   3.671   0.493  0.3090 -3.0627  2.4873
  538MOL0     H74201   5.907   3.603   0.402  0.4472 -0.8333  0.9978
  538MOL0     H74202   6.155   3.653   0.769  3.7615 -3.3397  2.7167
  538MOL0     H74203   6.231   3.386   0.984  2.2243  0.3028  1.1348
  538MOL0     H74204   6.247   3.568   0.940  1.3843  0.6463 -0.5734
  538MOL0     H74205   6.341   3.429   0.864  0.7577 -2.0847  2.9598
  538MOL0     H74206   6.089   2.934   0.998 -1.3408 -1.6605  0.7987
  538MOL0     H74207   6.107   2.692   0.978  3.6223 -0.3301  0.6560
  538MOL0     H74208   6.265   2.440   0.907 -1.3585 -0.8785 -0.9273
  538MOL0     H74209   6.096   2.486   0.964  0.8962 -0.1164  1.1775
  538MOL0     H74210   6.019   2.333   0.784  0.5767 -0.6916  0.9534
  538MOL0     H74211   6.183   2.298   0.742 -1.2459 -0.0168 -0.5941
  538MOL0     H74212   6.061   2.271   1.028  2.6230 -1.4101  2.0482
  538MOL0     H74213   6.196   2.191   0.944 -1.0073 -3.4940 -4.8284
  538MOL0     H74214   6.059   2.094   0.775  0.5456  0.1330  0.7964
  538MOL0     H74215   5.914   2.158   0.859  0.5398  0.1243 -1.4937
  538MOL0     H74216   5.982   1.901   0.897 -1.2056  0.4641  0.4240
  538MOL0     H74217   6.130   1.955   0.960 -0.4036 -0.8134 -1.0751
  538MOL0     H74218   5.856   2.043   1.065 -0.4561 -2.7245 -0.2160
  538MOL0     H74219   6.020   2.074   1.156  0.5103  1.7827 -0.8978
  538MOL0     H74220   6.028   1.818   1.190  0.6277  0.7696 -0.0640
  538MOL0     H74221   5.887   1.805   1.088 -1.3873  2.6928 -1.0903
  538MOL0     H74222   5.832   1.790   1.322  1.0975 -0.5395  0.1561
  538MOL0     H74223   5.771   1.949   1.262  1.8668  1.6780 -2.2664
  538MOL0     H74224   6.198   2.717   0.577 -2.2408 -2.3671  0.8475
  538MOL0     H74225   6.135   2.978   0.582 -3.7244  0.3849  0.8194
  538MOL0     H74226   5.937   3.241   0.620  1.8194  0.7432 -1.8747
  538MOL0     H74227   5.871   3.440   0.532 -0.9555  2.3031  1.6199
  538MOL0     H74228   5.809   5.071   0.967  1.9396 -2.6545  0.4172
  538MOL0     H74229   5.631   5.217   1.074  2.5383  0.7593  0.6613
  538MOL0     H74230   5.739   5.342   1.293  0.6097 -0.6049 -1.1340
  538MOL0     H74231   5.974   5.363   1.336  1.8262  1.8279  0.8467
  538MOL0     H74232   6.217   5.413   1.620 -0.5553 -0.0693 -1.3489
  538MOL0     H74233   6.054   5.389   1.692  0.7171  1.1882  0.2121
  538MOL0     H74234   6.265   5.175   1.729  1.6793  1.1107  0.0187
  538MOL0     H74235   6.111   5.194   1.812 -0.3495  1.5225  2.0162
  538MOL0     H74236   6.342   5.395   1.838  1.2333 -2.6873 -0.5740
  538MOL0     H74237   6.191   5.437   1.885 -1.1514 -1.4134 -3.2444
  538MOL0     H74238   6.192   5.250   2.076  0.0661 -1.4923 -0.9504
  538MOL0     H74239   6.338   5.359   2.060 -0.1703  0.8523  0.0636
  538MOL0     H74240   6.548   5.023   1.984 -1.1603 -0.2662 -0.8572
  538MOL0     H74241   5.929   5.158   1.714 -1.4539 -1.8685  0.5970
  538MOL0     H74242   5.741   5.055   1.762  2.5381 -0.2272 -2.6265
  538MOL0     H74243   5.606   5.184   1.754 -0.3520 -1.6177  1.4735
  538MOL0     H74244   5.596   5.044   1.663 -0.6679  1.4198  0.0537
  539MOL0     O74245   7.768   6.335   9.285 -0.2019 -0.5247  0.5644
  539MOL0     C74246   7.822   6.225   9.290  0.2291 -0.4334 -0.3116
  539MOL0     O74247   7.748   6.112   9.274  0.1188 -0.7242  1.1113
  539MOL0     C74248   7.611   6.106   9.261  0.4816 -0.0634 -0.8656
  539MOL0     C74249   7.573   5.978   9.214  0.2595  0.3075 -0.4861
  539MOL0     C74250   7.436   5.956   9.185 -0.2731 -0.4345 -0.9175
  539MOL0     C74251   7.339   6.058   9.189  0.2906  0.0451 -0.0994
  539MOL0     O74252   7.208   6.025   9.150  0.4004  0.3237 -0.5338
  539MOL0     C74253   7.092   6.099   9.171  0.6338 -0.5146 -0.4392
  539MOL0     C74254   6.970   6.030   9.107 -0.1326  0.0791 -0.1936
  539MOL0     C74255   6.930   5.892   9.175  0.2158  0.1987 -0.3748
  539MOL0     C74256   6.807   5.840   9.088  0.4005  0.7518  0.0058
  539MOL0     C74257   6.796   5.692   9.074  0.2558 -0.0773 -0.8220
  539MOL0     C74258   6.898   5.635   8.968  0.0153  0.3202  0.2970
  539MOL0     C74259   6.838   5.623   8.830 -1.2129 -0.6372  0.7322
  539MOL0     C74260   6.759   5.492   8.798 -0.2266 -0.0083 -0.6200
  539MOL0     N74261   6.714   5.492   8.661  0.4117  0.3380 -0.0941
  539MOL0     C74262   6.593   5.526   8.624 -0.1961  0.8046  0.4264
  539MOL0     C74263   6.593   5.493   8.490 -0.3189  0.2241  0.1364
  539MOL0     C74264   6.487   5.523   8.392  0.8144 -0.7315  0.4350
  539MOL0     C74265   6.391   5.410   8.367  0.4398 -0.7814  0.2645
  539MOL0     C74266   6.468   5.288   8.308 -0.6644  0.3961 -1.2856
  539MOL0     C74267   6.378   5.194   8.221  0.5062 -0.2606 -0.0753
  539MOL0     O74268   6.250   5.170   8.294  0.2328  0.5716  0.1839
  539MOL0     C74269   6.254   5.063   8.388 -0.3023  0.2117  0.4841
  539MOL0     C74270   6.149   5.053   8.473 -0.0090 -0.0399  0.7167
  539MOL0     C74271   6.147   4.970   8.585 -0.1590  0.2272 -0.2979
  539MOL0     C74272   6.034   4.990   8.686 -0.5299 -0.2140  0.6360
  539MOL0     C74273   6.253   4.875   8.602  0.4270  0.3247  0.4494
  539MOL0     C74274   6.279   4.795   8.723 -1.0002  0.2693  0.8297
  539MOL0     O74275   6.398   4.715   8.735 -0.7001 -0.2552  0.2269
  539MOL0     C74276   6.394   4.612   8.828 -0.9263  0.1205 -0.2025
  539MOL0     C74277   6.311   4.502   8.814  0.1611  0.1580 -0.0317
  539MOL0     C74278   6.310   4.396   8.906 -0.5752  0.2531 -0.4102
  539MOL0     C74279   6.408   4.395   9.007  0.3488 -0.4436  0.1444
  539MOL0     O74280   6.407   4.294   9.099  0.3205  0.4997 -0.1233
  539MOL0     C74281   6.535   4.240   9.139  0.0926  0.5796 -0.2067
  539MOL0     C74282   6.511   4.096   9.181 -0.7064  0.8253  0.4124
  539MOL0     C74283   6.651   4.019   9.212  0.2487  0.0309 -0.3942
  539MOL0     C74284   6.643   3.864   9.227 -0.9165 -0.0939 -0.5742
  539MOL0     C74285   6.789   3.821   9.257  0.1207 -1.2248  0.3768
  539MOL0     C74286   6.811   3.672   9.296 -0.1827  0.4568  0.5451
  539MOL0     C74287   6.726   3.636   9.421  0.5029 -0.3633  0.1134
  539MOL0     C74288   6.767   3.512   9.485  0.2917  0.3801 -0.1089
  539MOL0    Cl74289   6.711   3.387   9.360  0.3985  0.1739 -0.0076
  539MOL0     C74290   6.476   4.515   9.033  0.5046  1.0551  0.4516
  539MOL0     C74291   6.479   4.615   8.935  1.0534 -0.0000  0.2584
  539MOL0     O74292   6.197   4.800   8.813 -0.4902  0.2895 -0.0172
  539MOL0     C74293   6.350   4.867   8.505  0.0735 -0.9819 -0.0297
  539MOL0     C74294   6.360   4.969   8.402 -0.3334  0.8404 -0.6185
  539MOL0     N74295   6.722   5.446   8.453  0.0922  0.3561  0.1414
  539MOL0     N74296   6.791   5.449   8.555 -0.8318  0.2141 -0.1931
  539MOL0     C74297   7.382   6.179   9.250  0.0265 -0.3667  0.8777
  539MOL0     C74298   7.514   6.203   9.285 -0.1531 -0.6883  0.4253
  539MOL0     C74299   7.964   6.215   9.275 -0.4325  1.3637 -0.7911
  539MOL0     C74300   8.042   6.326   9.237  0.0346 -0.5784 -0.7527
  539MOL0     C74301   8.181   6.319   9.222  0.7135 -0.0902  0.1710
  539MOL0     C74302   8.258   6.208   9.249  1.0686 -0.2756  0.3230
  539MOL0     O74303   8.393   6.206   9.227 -0.4730  0.2530 -0.2251
  539MOL0     C74304   8.469   6.096   9.269 -0.4388 -0.4267 -0.2844
  539MOL0     C74305   8.616   6.130   9.281 -0.0906 -0.1387  0.4800
  539MOL0     C74306   8.703   6.006   9.336 -1.1406 -0.2223 -0.1136
  539MOL0     C74307   8.841   6.058   9.364 -0.4559 -0.5069 -0.2434
  539MOL0     C74308   8.905   6.065   9.233 -0.7989  0.0885 -0.0746
  539MOL0     C74309   8.961   6.091   9.130  0.0169 -0.6246 -0.3213
  539MOL0     C74310   8.185   6.096   9.292  0.9428 -0.7354  0.0389
  539MOL0     C74311   8.041   6.102   9.312 -0.1513 -0.6147 -0.1955
  539MOL0     C74312   7.992   5.983   9.365  0.3325  1.1900 -0.2617
  539MOL0     H74313   7.648   5.904   9.189  0.6962  1.0916 -1.5810
  539MOL0     H74314   7.405   5.857   9.155  0.8175 -1.0878  0.0557
  539MOL0     H74315   7.086   6.204   9.139  2.5132  0.1709  1.2734
  539MOL0     H74316   7.068   6.113   9.276  2.9188  2.8006 -0.2053
  539MOL0     H74317   6.885   6.098   9.105  0.3706  0.7072 -0.9050
  539MOL0     H74318   7.001   6.010   9.004 -1.6073  0.7297 -0.7784
  539MOL0     H74319   7.007   5.815   9.166  0.7434  0.9463 -3.2195
  539MOL0     H74320   6.900   5.913   9.278 -2.4093 -0.4230 -0.9618
  539MOL0     H74321   6.716   5.888   9.125  0.0853  1.2873 -1.3983
  539MOL0     H74322   6.822   5.880   8.987 -1.4586  3.1255  0.5836
  539MOL0     H74323   6.690   5.677   9.051 -0.1648  1.8708 -0.3782
  539MOL0     H74324   6.814   5.645   9.172  1.1548  0.7188 -0.5841
  539MOL0     H74325   6.989   5.696   8.968  0.3811 -0.2127 -0.6786
  539MOL0     H74326   6.940   5.538   8.993 -0.2629 -0.6795 -2.6784
  539MOL0     H74327   6.899   5.645   8.742 -5.2645 -0.4825 -2.3073
  539MOL0     H74328   6.769   5.708   8.822 -1.7777 -1.1139  0.4864
  539MOL0     H74329   6.813   5.399   8.816  2.1614  0.6618 -3.6036
  539MOL0     H74330   6.668   5.490   8.859 -1.4130  0.5352 -2.2959
  539MOL0     H74331   6.506   5.558   8.682 -0.4466  0.1139  0.4453
  539MOL0     H74332   6.521   5.564   8.296  0.0588  0.2224  0.5556
  539MOL0     H74333   6.420   5.602   8.427  0.5800  0.3273 -2.1680
  539MOL0     H74334   6.331   5.384   8.455 -0.4824 -1.3009 -0.4953
  539MOL0     H74335   6.323   5.429   8.283 -0.3486  0.1180  1.0875
  539MOL0     H74336   6.539   5.330   8.237 -0.8366 -0.9999 -2.3429
  539MOL0     H74337   6.516   5.229   8.387 -2.6121 -0.5458 -0.7423
  539MOL0     H74338   6.351   5.255   8.134  2.1765  2.6936  1.3166
  539MOL0     H74339   6.424   5.104   8.181 -2.8748 -2.1398 -0.0874
  539MOL0     H74340   6.080   5.136   8.462  0.0705  0.2529  2.2183
  539MOL0     H74341   5.974   4.899   8.693 -1.3885  0.4066  1.5120
  539MOL0     H74342   5.966   5.067   8.649  0.2006 -0.8590 -2.3704
  539MOL0     H74343   6.078   5.003   8.785  1.0728 -3.2404  0.4194
  539MOL0     H74344   6.237   4.500   8.734 -0.3692 -0.7097  0.4692
  539MOL0     H74345   6.242   4.312   8.898  1.4255 -1.3859 -1.0840
  539MOL0     H74346   6.598   4.233   9.051  1.6712  4.2043  0.4240
  539MOL0     H74347   6.584   4.297   9.219  0.8583 -0.1015 -0.1895
  539MOL0     H74348   6.459   4.100   9.277 -2.3782 -1.1127 -0.3404
  539MOL0     H74349   6.447   4.044   9.109 -1.6836 -0.6668  2.2544
  539MOL0     H74350   6.695   4.069   9.298  0.6967  3.7775 -2.5518
  539MOL0     H74351   6.721   4.046   9.132 -1.9014  0.9155 -2.1059
  539MOL0     H74352   6.615   3.813   9.135 -2.1929  0.3016 -0.4313
  539MOL0     H74353   6.580   3.837   9.312  0.8647  0.0215  0.8316
  539MOL0     H74354   6.850   3.846   9.169  2.2720  1.0728  2.3716
  539MOL0     H74355   6.833   3.886   9.333  0.5640 -0.3359 -0.6110
  539MOL0     H74356   6.918   3.665   9.319  0.0201 -0.3760 -0.5763
  539MOL0     H74357   6.787   3.606   9.212 -0.1718  2.3146 -0.9805
  539MOL0     H74358   6.619   3.632   9.399 -0.0949  0.5122  2.5990
  539MOL0     H74359   6.734   3.717   9.494 -1.5235  0.6650 -0.7246
  539MOL0     H74360   6.716   3.497   9.581 -0.6518 -2.5583 -0.9777
  539MOL0     H74361   6.874   3.509   9.504  0.4448  0.6224 -0.9061
  539MOL0     H74362   6.545   4.542   9.112  0.0263 -0.9452  1.6362
  539MOL0     H74363   6.542   4.701   8.956  0.5624  0.4294 -0.0014
  539MOL0     H74364   6.429   4.792   8.506  1.8151  0.7331  2.7425
  539MOL0     H74365   6.444   4.976   8.333 -0.1977  1.1980 -0.4171
  539MOL0     H74366   7.303   6.254   9.253 -0.7375 -1.0418 -0.8304
  539MOL0     H74367   7.536   6.301   9.326 -4.7561 -0.2112  2.2855
  539MOL0     H74368   8.001   6.422   9.208  0.1080  0.2515  1.6356
  539MOL0     H74369   8.233   6.406   9.184  3.4779 -1.8056 -0.3011
  539MOL0     H74370   8.451   6.061   9.371 -0.5462  0.0453 -0.1418
  539MOL0     H74371   8.441   6.014   9.202 -0.6109 -2.0916  1.7080
  539MOL0     H74372   8.607   6.199   9.365 -3.2166 -0.1559  0.3118
  539MOL0     H74373   8.665   6.174   9.194 -0.7426 -0.0991  0.1209
  539MOL0     H74374   8.668   5.966   9.432  1.4285 -0.8056  0.6809
  539MOL0     H74375   8.698   5.921   9.268  0.5868  0.3729 -1.0410
  539MOL0     H74376   8.895   5.978   9.415  1.2478  0.9085  0.2837
  539MOL0     H74377   8.832   6.148   9.427  1.5542 -1.2501  1.2474
  539MOL0     H74378   9.013   6.125   9.043  0.8656 -0.0515  0.3898
  539MOL0     H74379   8.227   5.998   9.318 -3.7465 -2.5073  2.0184
  539MOL0     H74380   7.902   5.993   9.426  0.2988  0.2543 -0.1464
  539MOL0     H74381   7.960   5.927   9.277 -0.6463 -0.3545  1.0147
  539MOL0     H74382   8.064   5.922   9.420 -0.3816  0.9766  0.4589
  540MOL0     O74383   8.371   0.451   7.139 -0.9521  0.3230 -0.2708
  540MOL0     C74384   8.326   0.460   7.252 -0.1054 -0.9546  0.3108
  540MOL0     O74385   8.263   0.565   7.306 -0.5373  0.2770  0.2261
  540MOL0     C74386   8.267   0.681   7.237 -0.5255  0.5783  0.6899
  540MOL0     C74387   8.392   0.738   7.211  0.2427 -0.2816  0.5739
  540MOL0     C74388   8.391   0.866   7.147 -0.3177  0.5924  0.3927
  540MOL0     C74389   8.270   0.934   7.125  0.5651  0.1773 -1.3918
  540MOL0     O74390   8.266   1.062   7.079 -0.6340 -0.6998  0.3540
  540MOL0     C74391   8.335   1.086   6.955  0.3791  0.3432 -0.4446
  540MOL0     C74392   8.275   1.015   6.830 -0.1398  0.0814  0.1434
  540MOL0     C74393   8.353   1.039   6.703  0.2099 -0.2933 -0.3272
  540MOL0     C74394   8.283   0.998   6.575  0.3671 -0.2972 -0.7590
  540MOL0     C74395   8.355   1.045   6.448 -0.2752 -0.6936  0.8750
  540MOL0     C74396   8.336   0.962   6.325 -0.0036  1.0172  0.2360
  540MOL0     C74397   8.382   1.035   6.200  0.4811  0.5836  1.1431
  540MOL0     C74398   8.535   1.014   6.168 -1.2697 -0.2466 -0.6213
  540MOL0     N74399   8.577   1.088   6.043 -0.2961  1.0896  0.3615
  540MOL0     C74400   8.555   1.039   5.915  0.3658  0.6837 -0.4949
  540MOL0     C74401   8.597   1.144   5.834  0.2921 -0.4029  0.5634
  540MOL0     C74402   8.579   1.155   5.683  0.8942 -0.4505 -0.6589
  540MOL0     C74403   8.437   1.212   5.655 -0.1207 -1.3050  0.3335
  540MOL0     C74404   8.398   1.198   5.510 -0.0554  0.8659  0.7425
  540MOL0     C74405   8.279   1.289   5.482 -0.3149 -0.0875  0.6325
  540MOL0     O74406   8.169   1.260   5.568  0.0655  0.4442  0.3579
  540MOL0     C74407   8.050   1.294   5.517 -0.9702 -0.0194  0.3093
  540MOL0     C74408   8.023   1.422   5.473 -1.2105  0.0991  0.1212
  540MOL0     C74409   7.903   1.467   5.413 -0.1417 -0.2690 -0.1194
  540MOL0     C74410   7.902   1.616   5.373 -0.0484 -0.1681  0.0820
  540MOL0     C74411   7.790   1.378   5.391 -0.7416 -0.1682  0.0369
  540MOL0     C74412   7.657   1.416   5.338 -0.0985 -1.2483  0.3576
  540MOL0     O74413   7.556   1.320   5.332 -0.5473  0.7501 -0.4820
  540MOL0     C74414   7.417   1.344   5.338 -0.1169 -0.0014 -0.9266
  540MOL0     C74415   7.326   1.283   5.249 -0.1708 -0.3135 -0.2200
  540MOL0     C74416   7.190   1.315   5.254  0.0380 -0.4005 -0.5860
  540MOL0     C74417   7.139   1.386   5.366  0.3669  0.2571  0.5640
  540MOL0     O74418   7.000   1.404   5.374  0.5433 -0.5158 -0.0848
  540MOL0     C74419   6.938   1.495   5.467  0.3631 -0.2142  0.1966
  540MOL0     C74420   6.781   1.517   5.437 -0.5926 -0.0510  0.3346
  540MOL0     C74421   6.688   1.528   5.561 -1.0540  1.2442  0.6793
  540MOL0     C74422   6.550   1.506   5.515  0.5576  0.4710  0.3193
  540MOL0     C74423   6.449   1.491   5.620  0.2293  0.9220 -0.8075
  540MOL0     C74424   6.308   1.490   5.552 -0.0672  0.4654 -0.5037
  540MOL0     C74425   6.288   1.614   5.470 -0.6132 -0.5139 -0.0472
  540MOL0     C74426   6.137   1.635   5.451 -0.5367  0.1274  0.1593
  540MOL0    Cl74427   6.071   1.485   5.377 -0.4286 -0.5235  0.0570
  540MOL0     C74428   7.228   1.423   5.463 -0.3345  0.0868  0.2874
  540MOL0     C74429   7.364   1.409   5.448 -0.5438  0.6658  0.0106
  540MOL0     O74430   7.642   1.528   5.284 -0.1048  0.1950  0.1905
  540MOL0     C74431   7.817   1.246   5.431 -0.1785  0.0082 -0.4964
  540MOL0     C74432   7.941   1.206   5.487 -0.0321 -0.0618  0.1789
  540MOL0     N74433   8.635   1.246   5.912 -0.0811 -0.4036 -0.0331
  540MOL0     N74434   8.619   1.215   6.031 -0.1284  0.2106 -0.6448
  540MOL0     C74435   8.150   0.870   7.152 -1.0941  0.9674 -0.1843
  540MOL0     C74436   8.142   0.746   7.214 -0.2243 -0.2494 -0.1379
  540MOL0     C74437   8.381   0.370   7.345 -0.0193  0.8461  0.4803
  540MOL0     C74438   8.417   0.407   7.470  0.4770  0.2746  0.4864
  540MOL0     C74439   8.459   0.320   7.571  0.7469  0.5249  0.0649
  540MOL0     C74440   8.465   0.186   7.549 -0.8931 -0.6052 -0.1871
  540MOL0     O74441   8.520   0.113   7.653  0.7960  0.1355  0.0540
  540MOL0     C74442   8.498  -0.029   7.658 -0.7894 -0.2101  0.2949
  540MOL0     C74443   8.499  -0.059   7.808 -0.1481 -0.0721  1.0731
  540MOL0     C74444   8.416  -0.177   7.853 -0.3556 -0.3020  0.3545
  540MOL0     C74445   8.443  -0.229   7.999  0.1732 -0.1029 -0.7270
  540MOL0     C74446   8.439  -0.123   8.100 -0.5368  0.6861  0.1352
  540MOL0     C74447   8.447  -0.034   8.181  0.2201 -0.5077 -0.3346
  540MOL0     C74448   8.433   0.147   7.419  1.0476 -0.4058  0.3979
  540MOL0     C74449   8.395   0.236   7.314  0.2503  0.6532  0.5573
  540MOL0     C74450   8.366   0.161   7.181  0.2757  0.4435 -0.6875
  540MOL0     H74451   8.479   0.689   7.252  1.3964  0.1161 -1.3063
  540MOL0     H74452   8.479   0.924   7.122 -1.1249  0.9823 -1.7753
  540MOL0     H74453   8.440   1.055   6.959  0.0585 -0.9443 -1.1843
  540MOL0     H74454   8.322   1.192   6.932  0.3085  0.4059 -0.1049
  540MOL0     H74455   8.260   0.907   6.836  1.2988 -0.1786 -0.5015
  540MOL0     H74456   8.177   1.063   6.818  0.3513  1.1065  0.1108
  540MOL0     H74457   8.361   1.147   6.697 -0.8131 -0.0853  1.3286
  540MOL0     H74458   8.446   0.981   6.706 -0.2119 -0.9557  1.0613
  540MOL0     H74459   8.270   0.890   6.565 -2.1546 -0.2802  1.2592
  540MOL0     H74460   8.180   1.034   6.584 -0.3840 -1.8557 -2.4392
  540MOL0     H74461   8.463   1.053   6.468 -0.4797 -1.2033  2.3194
  540MOL0     H74462   8.313   1.140   6.416 -3.9558 -2.1398  0.9034
  540MOL0     H74463   8.399   0.873   6.335  1.3738  1.7764 -1.1427
  540MOL0     H74464   8.232   0.934   6.305  0.1369  0.7442 -0.1210
  540MOL0     H74465   8.352   1.139   6.212 -0.5973  0.1626  2.3695
  540MOL0     H74466   8.329   0.993   6.113  5.2591  0.5640 -2.1341
  540MOL0     H74467   8.595   1.055   6.250 -2.6499 -2.0147  1.3829
  540MOL0     H74468   8.566   0.910   6.156 -0.6196 -0.4485  2.0513
  540MOL0     H74469   8.503   0.950   5.879  0.3619 -0.2521  1.6535
  540MOL0     H74470   8.587   1.055   5.641  1.0973 -2.2964  3.3095
  540MOL0     H74471   8.659   1.219   5.644  2.9110 -1.6141  1.3393
  540MOL0     H74472   8.366   1.151   5.713  0.9798 -2.1865  0.7886
  540MOL0     H74473   8.440   1.315   5.691 -1.0596 -0.8644 -0.8047
  540MOL0     H74474   8.475   1.227   5.437 -1.3706 -2.9500 -2.5327
  540MOL0     H74475   8.363   1.096   5.491  1.0631  0.0461  2.7993
  540MOL0     H74476   8.308   1.394   5.495  2.4792 -0.5753 -0.7879
  540MOL0     H74477   8.236   1.273   5.382 -1.7328  2.3115  0.7768
  540MOL0     H74478   8.109   1.489   5.474  1.1535 -2.7468 -0.2740
  540MOL0     H74479   7.865   1.628   5.271  0.8229  0.9338 -0.1261
  540MOL0     H74480   7.998   1.667   5.388  0.7980 -2.2121  2.4035
  540MOL0     H74481   7.825   1.661   5.436  1.6418  0.2868  1.9288
  540MOL0     H74482   7.364   1.225   5.166  0.1973 -0.5541  0.1137
  540MOL0     H74483   7.116   1.277   5.183  0.0062 -2.3962  0.4592
  540MOL0     H74484   6.949   1.449   5.566  0.8491  0.8270  0.6398
  540MOL0     H74485   6.989   1.592   5.474 -2.0793  1.0740  1.3732
  540MOL0     H74486   6.764   1.605   5.375  2.0907 -0.9234 -1.8434
  540MOL0     H74487   6.755   1.435   5.370  0.1656  0.0714 -0.1156
  540MOL0     H74488   6.693   1.625   5.612  0.1704  1.6879 -0.2447
  540MOL0     H74489   6.710   1.442   5.625 -2.1330  0.1454 -0.3636
  540MOL0     H74490   6.553   1.414   5.455 -3.4814  2.0250 -2.7321
  540MOL0     H74491   6.520   1.580   5.441 -2.5082  1.4210  2.3130
  540MOL0     H74492   6.466   1.396   5.672  0.2015  1.3470 -0.0027
  540MOL0     H74493   6.446   1.575   5.690 -1.6186  0.8390 -0.7254
  540MOL0     H74494   6.235   1.474   5.631  0.2957 -0.6050 -0.3693
  540MOL0     H74495   6.306   1.401   5.489  2.2476 -0.6562  0.8474
  540MOL0     H74496   6.338   1.618   5.373  0.7045  0.2848  0.6423
  540MOL0     H74497   6.328   1.704   5.517  0.5870  1.0864 -3.6997
  540MOL0     H74498   6.116   1.728   5.397  0.4746 -0.0143 -0.5104
  540MOL0     H74499   6.090   1.633   5.549 -0.0326 -0.8738  0.3908
  540MOL0     H74500   7.188   1.483   5.544 -0.4118  1.1406 -0.5049
  540MOL0     H74501   7.437   1.443   5.522 -0.1153  0.0827 -0.1379
  540MOL0     H74502   7.742   1.168   5.419 -1.5459  1.0232  0.9709
  540MOL0     H74503   7.963   1.104   5.520 -0.2993 -0.0682  0.3345
  540MOL0     H74504   8.066   0.931   7.120 -0.7637  1.8146  0.5258
  540MOL0     H74505   8.046   0.699   7.236 -1.9689  2.0761 -2.2101
  540MOL0     H74506   8.403   0.511   7.500  0.2977  0.0464  1.1947
  540MOL0     H74507   8.460   0.360   7.672  0.7451 -0.2943  0.3965
  540MOL0     H74508   8.404  -0.064   7.615 -1.2213 -2.3993  2.8154
  540MOL0     H74509   8.576  -0.095   7.619  0.4669 -0.4175  2.9113
  540MOL0     H74510   8.471   0.035   7.855  2.1690  0.7888  0.8456
  540MOL0     H74511   8.604  -0.075   7.835  0.0547 -0.9561 -0.1210
  540MOL0     H74512   8.308  -0.167   7.841 -0.5578 -2.4636 -0.0434
  540MOL0     H74513   8.443  -0.256   7.783 -1.9987  0.7315 -1.5400
  540MOL0     H74514   8.538  -0.282   8.000 -0.5674 -1.5220 -1.6109
  540MOL0     H74515   8.364  -0.303   8.016  2.7597 -3.9023 -3.4237
  540MOL0     H74516   8.456   0.051   8.246  0.5088  0.3372 -1.4449
  540MOL0     H74517   8.443   0.042   7.395 -2.3725 -0.5032 -1.2128
  540MOL0     H74518   8.461   0.147   7.129  0.7342  0.2011  0.1920
  540MOL0     H74519   8.322   0.062   7.199  1.2654  0.1863  0.4306
  540MOL0     H74520   8.301   0.210   7.108 -1.1520 -0.6924 -0.2255
  541MOL0     O74521   7.763   1.730   7.590 -0.3250  0.0589 -0.5414
  541MOL0     C74522   7.864   1.724   7.527 -0.3295  0.4138 -0.1461
  541MOL0     O74523   7.964   1.647   7.556 -0.8547  0.5474 -0.6517
  541MOL0     C74524   7.930   1.518   7.605 -0.0199 -0.3902 -1.0232
  541MOL0     C74525   7.946   1.492   7.743  0.3197  0.5713  0.2504
  541MOL0     C74526   7.904   1.370   7.795  0.5421 -0.3102  0.2212
  541MOL0     C74527   7.863   1.263   7.703 -0.1022 -0.4925  0.5523
  541MOL0     O74528   7.846   1.128   7.737 -0.8517  0.3196 -0.1770
  541MOL0     C74529   7.824   1.103   7.869  0.4957  1.0737 -0.1893
  541MOL0     C74530   7.676   1.154   7.906  0.0776 -0.8146  0.2404
  541MOL0     C74531   7.627   1.110   8.048  0.4039  0.3936  0.0786
  541MOL0     C74532   7.605   1.214   8.159 -0.0802  0.4777  0.5779
  541MOL0     C74533   7.708   1.327   8.174  0.2287 -0.0282  1.0710
  541MOL0     C74534   7.855   1.287   8.199  0.2283  0.3770 -0.3696
  541MOL0     C74535   7.874   1.207   8.328 -0.0995 -0.0805  0.2910
  541MOL0     C74536   8.016   1.144   8.356  1.0741  0.4353  0.2710
  541MOL0     N74537   8.024   1.023   8.266  0.6886 -1.2870 -0.1625
  541MOL0     C74538   7.976   0.901   8.290 -0.5063 -0.1087  0.0382
  541MOL0     C74539   8.013   0.826   8.183 -0.4625  0.2761 -0.3168
  541MOL0     C74540   7.985   0.685   8.153 -0.0454  0.2408  0.2289
  541MOL0     C74541   7.861   0.697   8.073 -1.6941 -0.7250  0.3055
  541MOL0     C74542   7.797   0.555   8.042 -0.0507 -0.0243 -0.7086
  541MOL0     C74543   7.684   0.558   7.939  0.5654  0.1015 -0.3732
  541MOL0     O74544   7.582   0.653   7.980  0.1529  0.2616 -0.0661
  541MOL0     C74545   7.479   0.688   7.899  0.1927 -0.6526  0.0664
  541MOL0     C74546   7.420   0.813   7.919  0.2915  0.0350  0.5052
  541MOL0     C74547   7.323   0.860   7.821 -0.6323 -0.8457 -0.2413
  541MOL0     C74548   7.270   0.998   7.847  0.5166  1.0636  0.4642
  541MOL0     C74549   7.276   0.776   7.718 -0.7996 -0.4880 -1.1751
  541MOL0     C74550   7.171   0.825   7.622  0.2633 -0.4352 -0.5068
  541MOL0     O74551   7.160   0.956   7.586  0.3609  0.3275 -0.1617
  541MOL0     C74552   7.074   0.993   7.483 -0.1933  0.8944 -0.5125
  541MOL0     C74553   6.937   0.973   7.495  0.2248  0.2259  0.2708
  541MOL0     C74554   6.848   1.001   7.389  0.3873 -0.4155 -0.6272
  541MOL0     C74555   6.902   1.061   7.278 -0.8535  0.4431  0.4735
  541MOL0     O74556   6.809   1.083   7.180 -0.7210  0.7662 -0.0237
  541MOL0     C74557   6.846   1.162   7.068  1.0921 -0.3649 -0.2188
  541MOL0     C74558   6.738   1.192   6.962  0.0274 -0.4351  0.0384
  541MOL0     C74559   6.609   1.238   7.040 -0.3793 -0.6769 -0.5501
  541MOL0     C74560   6.503   1.306   6.942 -0.4216  1.0418  0.1397
  541MOL0     C74561   6.447   1.216   6.834 -0.3583 -1.3402 -1.0617
  541MOL0     C74562   6.363   1.298   6.731 -0.9738  0.3737  0.1156
  541MOL0     C74563   6.240   1.350   6.800 -0.5227 -0.2868  0.0768
  541MOL0     C74564   6.124   1.408   6.702  0.5366  0.4304 -0.1803
  541MOL0    Cl74565   6.213   1.517   6.592  0.2245 -0.2914  0.4435
  541MOL0     C74566   7.036   1.098   7.271 -0.2890 -0.5650 -0.1120
  541MOL0     C74567   7.124   1.060   7.373  0.4557  0.7560  0.5047
  541MOL0     O74568   7.094   0.740   7.583 -0.0223 -0.3524 -0.0966
  541MOL0     C74569   7.344   0.648   7.696  0.1236  0.1228  0.2612
  541MOL0     C74570   7.444   0.606   7.785  0.3477 -0.1169  0.3139
  541MOL0     N74571   8.077   0.912   8.096 -0.3052 -0.3696  0.9212
  541MOL0     N74572   8.070   1.034   8.145 -0.0656  0.4312  1.4070
  541MOL0     C74573   7.863   1.291   7.566 -0.8880  0.1030 -0.9689
  541MOL0     C74574   7.877   1.421   7.512 -0.0714 -0.5111  0.0526
  541MOL0     C74575   7.884   1.822   7.430 -0.1395 -0.1387  0.2279
  541MOL0     C74576   7.987   1.911   7.447 -0.0899  0.0383 -0.1023
  541MOL0     C74577   8.007   2.016   7.358 -0.0541 -0.2272  0.2580
  541MOL0     C74578   7.927   2.032   7.247 -0.3317  0.6700 -0.6259
  541MOL0     O74579   7.941   2.138   7.154  0.3329  0.5085 -0.5216
  541MOL0     C74580   8.063   2.147   7.083 -0.1294  0.3989 -0.5983
  541MOL0     C74581   8.095   2.021   6.995  0.4974  0.1251 -0.4743
  541MOL0     C74582   8.231   1.959   7.020  0.7969 -0.8723 -0.2443
  541MOL0     C74583   8.254   1.910   7.154  0.1459  0.3576 -0.3958
  541MOL0     C74584   8.364   1.812   7.174 -0.1584  0.5757  0.2193
  541MOL0     C74585   8.444   1.723   7.178 -0.1033 -0.4551 -0.5983
  541MOL0     C74586   7.823   1.943   7.228 -0.4615  0.3431  0.7898
  541MOL0     C74587   7.800   1.828   7.312  1.7490  0.5892 -0.0893
  541MOL0     C74588   7.702   1.720   7.267 -0.1134  0.7809  0.4578
  541MOL0     H74589   7.971   1.566   7.819 -3.3507  2.2516  0.0455
  541MOL0     H74590   7.904   1.348   7.901 -3.1326 -1.7614  0.0931
  541MOL0     H74591   7.906   1.139   7.930  0.0561 -2.6152  2.9172
  541MOL0     H74592   7.826   0.994   7.877 -2.3421  0.9841  0.6345
  541MOL0     H74593   7.673   1.263   7.898  1.2198 -0.7830  0.0693
  541MOL0     H74594   7.608   1.112   7.831 -2.9403  1.0100  1.7231
  541MOL0     H74595   7.530   1.062   8.029 -0.5490  2.5337 -0.7517
  541MOL0     H74596   7.694   1.033   8.088 -0.4635 -0.0317  0.7471
  541MOL0     H74597   7.507   1.255   8.136 -0.0642 -0.2792 -0.9681
  541MOL0     H74598   7.598   1.166   8.257  0.6108  0.5914  0.6941
  541MOL0     H74599   7.671   1.399   8.248 -3.2910 -1.7402  1.2102
  541MOL0     H74600   7.723   1.383   8.081  1.2707 -0.6034  0.8805
  541MOL0     H74601   7.895   1.235   8.112  0.8195 -1.1137  0.7436
  541MOL0     H74602   7.913   1.379   8.209  2.5205 -0.8865 -1.2926
  541MOL0     H74603   7.805   1.122   8.328  0.2872 -0.4467 -1.6601
  541MOL0     H74604   7.849   1.269   8.415  0.8195  1.1695 -0.3097
  541MOL0     H74605   8.102   1.208   8.334  1.2576  0.1104  0.0248
  541MOL0     H74606   8.030   1.125   8.463 -1.8721  1.4149  0.9108
  541MOL0     H74607   7.916   0.870   8.375 -2.3081  1.6433 -0.5171
  541MOL0     H74608   7.966   0.633   8.247  1.7361 -2.2617 -0.6568
  541MOL0     H74609   8.066   0.642   8.091  0.8205  1.8250  0.2185
  541MOL0     H74610   7.790   0.765   8.121 -2.4690 -1.1910 -0.1607
  541MOL0     H74611   7.895   0.724   7.973  2.5197 -2.2807  1.1260
  541MOL0     H74612   7.874   0.487   8.004 -1.0670 -0.2650 -2.4144
  541MOL0     H74613   7.753   0.499   8.125  0.9533 -0.0370 -0.1634
  541MOL0     H74614   7.731   0.587   7.845 -1.7600  0.8963 -1.3667
  541MOL0     H74615   7.641   0.458   7.927  0.6725  0.1881 -1.5628
  541MOL0     H74616   7.450   0.871   8.006 -0.7191 -0.1066  0.9634
  541MOL0     H74617   7.301   1.028   7.948  1.3618 -0.0234  0.5482
  541MOL0     H74618   7.161   1.001   7.839  0.4778 -1.2874 -0.6726
  541MOL0     H74619   7.298   1.068   7.768 -1.0488  0.4522 -0.6863
  541MOL0     H74620   6.911   0.922   7.587 -0.0264 -2.9494 -1.4102
  541MOL0     H74621   6.742   0.983   7.401  0.2742 -1.5199 -2.7220
  541MOL0     H74622   6.881   1.257   7.108 -0.9360 -0.0577  0.9452
  541MOL0     H74623   6.932   1.124   7.013  2.1301  0.6191  0.6773
  541MOL0     H74624   6.770   1.276   6.901 -0.8973  0.2812  0.5249
  541MOL0     H74625   6.718   1.110   6.893  3.2877  0.6146 -2.4176
  541MOL0     H74626   6.639   1.316   7.112  1.9266 -0.7677 -1.3276
  541MOL0     H74627   6.573   1.162   7.109  0.6831  2.6884  4.2510
  541MOL0     H74628   6.538   1.402   6.904  1.4902  0.3622  0.0643
  541MOL0     H74629   6.416   1.323   7.006 -0.6094 -1.8656  0.7782
  541MOL0     H74630   6.532   1.166   6.786  2.7726  1.9194  0.6584
  541MOL0     H74631   6.397   1.130   6.880  0.7220 -1.3648  0.0991
  541MOL0     H74632   6.343   1.222   6.655 -2.4090  0.4844  0.3437
  541MOL0     H74633   6.426   1.374   6.685  2.0762 -2.4751 -0.8507
  541MOL0     H74634   6.269   1.430   6.868 -0.4732 -0.4255  0.2172
  541MOL0     H74635   6.188   1.271   6.855 -0.2210  0.3355  1.2808
  541MOL0     H74636   6.051   1.462   6.763  1.6902  0.4246  1.2647
  541MOL0     H74637   6.068   1.334   6.643 -2.2513  1.4985  0.9305
  541MOL0     H74638   7.073   1.142   7.178 -1.4513 -0.6040 -0.6005
  541MOL0     H74639   7.229   1.085   7.369  0.4193  0.7649 -1.1119
  541MOL0     H74640   7.313   0.569   7.627  1.4657 -0.9729  0.8525
  541MOL0     H74641   7.481   0.507   7.760  0.1119 -0.3781  0.9677
  541MOL0     H74642   7.831   1.209   7.503  1.5184 -3.3230  1.8729
  541MOL0     H74643   7.853   1.431   7.407  0.2181  1.0225  0.1059
  541MOL0     H74644   8.055   1.912   7.532  0.4663  3.6266 -0.4117
  541MOL0     H74645   8.083   2.090   7.382  0.3053 -0.7315  0.7127
  541MOL0     H74646   8.060   2.228   7.009  1.7543 -0.4644 -1.7198
  541MOL0     H74647   8.136   2.172   7.160  1.1036 -1.5806 -1.0396
  541MOL0     H74648   8.084   2.046   6.889  1.5170  1.1633 -0.3514
  541MOL0     H74649   8.018   1.943   7.004  0.5596  0.2327  1.1002
  541MOL0     H74650   8.233   1.874   6.951  0.4526 -0.1562 -1.1635
  541MOL0     H74651   8.320   2.016   6.992  1.7812 -2.5550 -0.7048
  541MOL0     H74652   8.166   1.869   7.203  1.4042  0.0181  1.6864
  541MOL0     H74653   8.291   1.995   7.212 -0.5312  0.4979 -0.1633
  541MOL0     H74654   8.502   1.633   7.177 -0.5707 -1.0519  3.7063
  541MOL0     H74655   7.762   1.966   7.142  3.1288 -0.0187 -2.0829
  541MOL0     H74656   7.752   1.629   7.233 -2.7243 -0.2633 -0.8683
  541MOL0     H74657   7.647   1.692   7.358  0.3088 -1.6925  0.0086
  541MOL0     H74658   7.638   1.746   7.182 -0.6147 -1.0389  0.2314
  542MOL0     O74659   8.581   9.947   7.916  0.8172  0.4822  0.1706
  542MOL0     C74660   8.659   9.956   7.817  0.5083 -0.1770 -0.1951
  542MOL0     O74661   8.690  10.073   7.755 -0.1775 -0.1571  0.5098
  542MOL0     C74662   8.622  10.186   7.798  0.4102 -0.8919 -0.6448
  542MOL0     C74663   8.674  10.269   7.889 -0.3195 -0.3723 -0.2635
  542MOL0     C74664   8.598  10.381   7.929  0.0540  0.7262 -0.6075
  542MOL0     C74665   8.477  10.416   7.870 -0.3937 -0.5710  0.5289
  542MOL0     O74666   8.416  10.528   7.918  1.4052  0.6644  0.2540
  542MOL0     C74667   8.310  10.579   7.828  0.3852  0.0047  0.7163
  542MOL0     C74668   8.272  10.724   7.879  0.4774  0.0132  0.7036
  542MOL0     C74669   8.150  10.781   7.803  0.0857 -0.6880 -0.7322
  542MOL0     C74670   8.068  10.871   7.897 -0.2958 -0.5016  0.2630
  542MOL0     C74671   7.965  10.953   7.824 -1.3357  1.4103 -1.2587
  542MOL0     C74672   8.023  11.080   7.773  0.4135 -0.7581  0.5215
  542MOL0     C74673   7.945  11.128   7.652  0.3627  0.9793 -0.3777
  542MOL0     C74674   7.992  11.231   7.558 -0.1666  1.0709 -0.0835
  542MOL0     N74675   8.125  11.197   7.507  0.3917 -0.0776 -0.3040
  542MOL0     C74676   8.159  11.137   7.386  0.1954  0.3925  0.2931
  542MOL0     C74677   8.290  11.166   7.374 -0.2164 -0.0348  0.2329
  542MOL0     C74678   8.366  11.143   7.246  0.4703  0.3404 -0.1020
  542MOL0     C74679   8.420  11.277   7.197 -0.5854 -0.8155  0.1603
  542MOL0     C74680   8.484  11.278   7.059 -1.0782  0.4168 -0.1926
  542MOL0     C74681   8.561  11.411   7.021  0.1104  1.1919 -1.0362
  542MOL0     O74682   8.654  11.429   7.125 -0.0659 -0.6521  0.6140
  542MOL0     C74683   8.717  11.553   7.131 -0.2925  1.0362  0.2036
  542MOL0     C74684   8.716  11.632   7.019 -1.0061 -0.0667  0.3476
  542MOL0     C74685   8.752  11.768   7.024 -0.0789 -0.2590  0.2832
  542MOL0     C74686   8.730  11.845   6.890  0.1712  0.4951 -0.3470
  542MOL0     C74687   8.798  11.829   7.143 -0.5500  0.4589  0.4052
  542MOL0     C74688   8.836  11.973   7.146 -0.4173 -0.0505 -0.4647
  542MOL0     O74689   8.836  12.014   7.286  0.4078  0.3543  0.8208
  542MOL0     C74690   8.848  12.141   7.320 -0.2829  1.2411  0.5455
  542MOL0     C74691   8.792  12.259   7.254  0.0583 -0.4206  0.0033
  542MOL0     C74692   8.809  12.389   7.319 -0.4259  0.8635 -0.6095
  542MOL0     C74693   8.870  12.399   7.449  0.5965  0.1332  0.3792
  542MOL0     O74694   8.893  12.524   7.500 -0.0461 -0.0038 -0.2686
  542MOL0     C74695   8.812  12.549   7.613 -0.2546 -0.8073 -0.1052
  542MOL0     C74696   8.830  12.694   7.659  0.4158  0.6134 -0.0117
  542MOL0     C74697   8.958  12.707   7.747 -0.5390  0.0427 -1.0166
  542MOL0     C74698   9.086  12.622   7.725  0.1708  1.0702  0.1672
  542MOL0     C74699   9.188  12.651   7.833  0.6488  0.2428  0.4662
  542MOL0     C74700   9.328  12.608   7.811 -0.6780 -0.3066 -0.4600
  542MOL0     C74701   9.353  12.459   7.797 -0.3982 -0.1966 -0.1832
  542MOL0     C74702   9.499  12.421   7.839  0.5807  0.4986 -0.5086
  542MOL0    Cl74703   9.520  12.417   8.010 -0.1450  0.2072 -0.0768
  542MOL0     C74704   8.922  12.286   7.516 -0.7086 -0.0202 -0.1153
  542MOL0     C74705   8.906  12.163   7.443  0.4162 -0.4619 -0.8936
  542MOL0     O74706   8.856  12.036   7.045  0.2189  0.3734 -0.4562
  542MOL0     C74707   8.810  11.741   7.256  0.6421 -0.6449 -0.5937
  542MOL0     C74708   8.767  11.606   7.253 -0.4356  0.5568  0.5034
  542MOL0     N74709   8.332  11.238   7.484  0.6225 -0.2979  1.5359
  542MOL0     N74710   8.239  11.253   7.567 -0.6206  0.5877 -0.3872
  542MOL0     C74711   8.426  10.320   7.781  0.6546 -0.3336 -0.3305
  542MOL0     C74712   8.490  10.207   7.748 -0.2353 -0.2543  0.7390
  542MOL0     C74713   8.719   9.836   7.760 -0.1896  0.8290  0.0751
  542MOL0     C74714   8.767   9.844   7.627 -0.0977  1.9012  0.7411
  542MOL0     C74715   8.832   9.738   7.569 -0.5637  0.6197  0.1844
  542MOL0     C74716   8.842   9.611   7.634 -0.2802  0.4490 -0.5338
  542MOL0     O74717   8.908   9.497   7.585  0.1527 -0.6645  0.3738
  542MOL0     C74718   8.947   9.496   7.446 -0.3176  0.0546  0.3584
  542MOL0     C74719   8.830   9.496   7.343  0.7535 -0.5548 -0.6127
  542MOL0     C74720   8.853   9.496   7.194 -0.3852  0.0444  0.6478
  542MOL0     C74721   8.924   9.623   7.133 -0.0939 -0.8838  0.0450
  542MOL0     C74722   8.947   9.596   6.992  0.6792  0.1953 -0.7578
  542MOL0     C74723   8.969   9.599   6.871  0.1182 -0.2520  0.5700
  542MOL0     C74724   8.782   9.603   7.762  0.7141  0.7338  0.4544
  542MOL0     C74725   8.722   9.713   7.828 -0.0680  0.8811  1.2843
  542MOL0     C74726   8.687   9.684   7.972  0.5059  1.1082  0.8359
  542MOL0     H74727   8.757  10.239   7.952 -1.9923 -0.8710  1.8091
  542MOL0     H74728   8.645  10.438   8.008 -0.5419 -1.5933  1.5507
  542MOL0     H74729   8.225  10.511   7.841  0.5543 -0.0378  1.6254
  542MOL0     H74730   8.348  10.582   7.726  4.2052 -1.1533  1.9574
  542MOL0     H74731   8.258  10.731   7.988 -1.9128  1.1653  0.3981
  542MOL0     H74732   8.348  10.798   7.854 -0.4304  0.2170 -1.7302
  542MOL0     H74733   8.187  10.836   7.715  2.8640  2.2972  2.0047
  542MOL0     H74734   8.090  10.698   7.764 -2.3380  0.6991 -0.1594
  542MOL0     H74735   8.024  10.814   7.980 -2.8285 -2.6438 -2.3186
  542MOL0     H74736   8.136  10.948   7.937 -1.6830  1.8692 -1.6585
  542MOL0     H74737   7.879  10.970   7.889 -1.8627 -0.9242 -1.2757
  542MOL0     H74738   7.931  10.890   7.741 -0.2301 -0.6955 -0.1898
  542MOL0     H74739   8.012  11.137   7.866 -0.1335 -1.3003  0.7970
  542MOL0     H74740   8.129  11.080   7.746  0.2107 -1.7736 -0.3506
  542MOL0     H74741   7.842  11.150   7.684  0.5866 -0.6726  1.7261
  542MOL0     H74742   7.934  11.039   7.589  0.9269  0.8709 -0.3216
  542MOL0     H74743   7.922  11.245   7.475 -0.8973 -0.4651  0.2496
  542MOL0     H74744   8.005  11.320   7.622  1.1293  0.4314  0.5787
  542MOL0     H74745   8.108  11.082   7.308  1.0213  2.3687 -1.7665
  542MOL0     H74746   8.308  11.099   7.164  0.5576 -1.0983  0.5763
  542MOL0     H74747   8.447  11.076   7.276 -1.0356 -0.0338  3.6546
  542MOL0     H74748   8.340  11.352   7.191 -0.7699 -0.8700  1.5935
  542MOL0     H74749   8.483  11.319   7.277 -2.0048  3.3035 -0.5995
  542MOL0     H74750   8.548  11.189   7.049  0.2510  1.0782  1.6892
  542MOL0     H74751   8.401  11.276   6.988 -0.7709  2.5698 -0.6670
  542MOL0     H74752   8.610  11.404   6.924  3.9826  0.6818  0.7938
  542MOL0     H74753   8.496  11.499   7.017  1.6035  2.6080  2.0704
  542MOL0     H74754   8.685  11.599   6.920 -0.7538 -1.0463  0.5833
  542MOL0     H74755   8.827  11.868   6.845  1.1645  1.1257  1.9664
  542MOL0     H74756   8.679  11.942   6.894 -1.4983 -0.1907 -2.7016
  542MOL0     H74757   8.667  11.784   6.824 -2.3881 -0.3257  2.6142
  542MOL0     H74758   8.734  12.242   7.164  0.7342  0.6834 -0.6607
  542MOL0     H74759   8.768  12.485   7.292  0.4362  1.6341  0.7463
  542MOL0     H74760   8.709  12.529   7.585 -1.3194  1.2343  2.0067
  542MOL0     H74761   8.850  12.482   7.690  1.8990  1.7198  1.2225
  542MOL0     H74762   8.826  12.758   7.570 -2.6186 -0.0347 -0.4414
  542MOL0     H74763   8.737  12.723   7.708  1.1332  0.3210  1.5993
  542MOL0     H74764   8.929  12.678   7.848 -2.9196 -1.6789 -2.0824
  542MOL0     H74765   8.979  12.814   7.736 -3.3106  0.6848 -0.7388
  542MOL0     H74766   9.130  12.635   7.625  2.1473 -0.4541  0.7697
  542MOL0     H74767   9.067  12.515   7.735  0.9315  1.0428  1.4652
  542MOL0     H74768   9.194  12.759   7.848 -2.7192  0.6745 -0.3741
  542MOL0     H74769   9.146  12.615   7.927 -0.8344  1.3020  0.2406
  542MOL0     H74770   9.383  12.650   7.895 -0.2561  0.4304 -1.0864
  542MOL0     H74771   9.364  12.663   7.723  0.6507 -0.3508  0.0407
  542MOL0     H74772   9.354  12.436   7.690 -0.3262  0.7143 -0.3905
  542MOL0     H74773   9.285  12.390   7.849 -1.3100  1.7054  1.2862
  542MOL0     H74774   9.571  12.495   7.802  1.0769  1.7112  2.6525
  542MOL0     H74775   9.517  12.318   7.806 -0.6861  0.3374 -0.7415
  542MOL0     H74776   8.981  12.297   7.607 -2.1847 -1.1137  1.0271
  542MOL0     H74777   8.938  12.077   7.501  3.3107  2.6039  2.6197
  542MOL0     H74778   8.837  11.781   7.353 -0.5495 -1.1678 -0.0141
  542MOL0     H74779   8.775  11.540   7.338  0.1785  0.6926  0.5510
  542MOL0     H74780   8.340  10.336   7.718  2.7847 -0.8107 -3.5957
  542MOL0     H74781   8.469  10.139   7.666  3.0384 -1.1872  0.5163
  542MOL0     H74782   8.750   9.935   7.570 -0.8977  0.1999 -1.9221
  542MOL0     H74783   8.867   9.761   7.469 -1.5840  2.4447  0.2114
  542MOL0     H74784   9.018   9.576   7.422  0.5930 -1.0316 -0.7369
  542MOL0     H74785   9.004   9.406   7.422 -0.1920  0.6114 -1.7238
  542MOL0     H74786   8.771   9.587   7.357  2.5944  0.6865 -0.5427
  542MOL0     H74787   8.765   9.418   7.383  0.0527  0.7176  0.8311
  542MOL0     H74788   8.906   9.403   7.172  0.7966  1.2852 -2.1911
  542MOL0     H74789   8.756   9.479   7.147 -1.3029 -0.0074  2.4749
  542MOL0     H74790   9.023   9.643   7.174 -0.3108 -1.6329  0.9705
  542MOL0     H74791   8.858   9.711   7.140 -2.6471 -2.8175  2.4673
  542MOL0     H74792   8.962   9.593   6.764 -1.9699  4.0411  0.2305
  542MOL0     H74793   8.796   9.505   7.808  1.1796  0.6231  0.0765
  542MOL0     H74794   8.580   9.696   7.990  0.1978  1.6480 -1.1169
  542MOL0     H74795   8.710   9.582   8.005 -1.9080  0.5153  0.8614
  542MOL0     H74796   8.743   9.752   8.037 -1.1930  2.2888  1.1497
  543MOL0     O74797   3.851  11.234   2.996  0.2158 -0.0542 -0.4678
  543MOL0     C74798   3.955  11.221   2.932  0.1770 -0.1532 -0.4559
  543MOL0     O74799   4.013  11.319   2.852  0.9741 -0.5508  0.1227
  543MOL0     C74800   3.953  11.443   2.828 -0.0677 -0.0755 -0.0139
  543MOL0     C74801   4.002  11.561   2.876 -0.3188 -0.7043  0.8080
  543MOL0     C74802   3.952  11.679   2.834  0.1857  0.0001  0.8350
  543MOL0     C74803   3.845  11.680   2.738 -0.2256  0.7373 -0.7580
  543MOL0     O74804   3.800  11.797   2.685  0.0280 -0.7898  0.4010
  543MOL0     C74805   3.831  11.925   2.746  1.2075 -0.1282 -0.3562
  543MOL0     C74806   3.794  12.036   2.656  0.4781 -0.3673 -0.7441
  543MOL0     C74807   3.853  12.050   2.511 -0.0725  1.6009  0.1179
  543MOL0     C74808   4.003  12.061   2.489 -0.1032  0.1434 -0.9523
  543MOL0     C74809   4.096  11.937   2.503 -0.7682  0.3565  0.7396
  543MOL0     C74810   4.094  11.840   2.386 -0.3379 -0.2846 -0.3160
  543MOL0     C74811   4.206  11.739   2.399 -0.1221 -0.2421 -0.0669
  543MOL0     C74812   4.199  11.649   2.515  0.3428 -0.8016  0.9201
  543MOL0     N74813   4.321  11.586   2.558 -0.3196 -0.4105  0.4637
  543MOL0     C74814   4.396  11.640   2.665  0.4330  0.5546 -0.4229
  543MOL0     C74815   4.485  11.547   2.698 -0.0394  0.0611 -1.1879
  543MOL0     C74816   4.590  11.569   2.806 -0.5036  0.5351 -0.3133
  543MOL0     C74817   4.543  11.624   2.942 -0.1752 -0.3797 -0.3188
  543MOL0     C74818   4.446  11.549   3.032  0.1609 -0.6667  0.3231
  543MOL0     C74819   4.384  11.641   3.127  0.5449 -0.1306  0.1203
  543MOL0     O74820   4.294  11.739   3.064 -1.0757  0.3548  0.3206
  543MOL0     C74821   4.302  11.880   3.078 -0.1209 -0.4890 -1.1417
  543MOL0     C74822   4.263  11.959   2.969  0.0385  0.4308 -0.1644
  543MOL0     C74823   4.294  12.097   2.958 -0.4049  0.5500 -0.7060
  543MOL0     C74824   4.262  12.160   2.817  0.9159 -0.0646 -0.4534
  543MOL0     C74825   4.368  12.159   3.064  0.7047 -0.7526 -0.3162
  543MOL0     C74826   4.417  12.297   3.064 -0.1052  0.3627  0.1145
  543MOL0     O74827   4.480  12.347   3.176 -0.1168 -0.5828  0.1374
  543MOL0     C74828   4.530  12.472   3.166 -0.2873 -0.0325  0.4557
  543MOL0     C74829   4.613  12.499   3.058  0.4972  0.2375 -0.7307
  543MOL0     C74830   4.657  12.628   3.042 -0.5446 -0.9055 -0.8855
  543MOL0     C74831   4.653  12.723   3.140  0.5987 -1.2041 -0.2496
  543MOL0     O74832   4.717  12.841   3.106  1.1231  0.0811 -0.3249
  543MOL0     C74833   4.755  12.923   3.215 -0.0306 -0.3958  0.2723
  543MOL0     C74834   4.824  13.054   3.176  0.2588 -1.4331  0.5393
  543MOL0     C74835   4.751  13.156   3.093 -0.4421 -0.0746  0.2455
  543MOL0     C74836   4.836  13.280   3.090 -0.2935 -0.2562  0.1957
  543MOL0     C74837   4.966  13.260   3.016 -1.2582  1.2108  0.7048
  543MOL0     C74838   5.027  13.403   3.000 -0.1709 -0.0214  0.3885
  543MOL0     C74839   4.960  13.482   2.888  0.2810 -0.4496  0.0113
  543MOL0     C74840   5.047  13.596   2.846 -0.1717  1.6799 -0.0234
  543MOL0    Cl74841   5.060  13.714   2.970 -0.2981 -0.6656 -0.0141
  543MOL0     C74842   4.585  12.693   3.261 -1.2309 -0.5342  0.1100
  543MOL0     C74843   4.518  12.567   3.265  0.4708 -0.5135 -0.0851
  543MOL0     O74844   4.381  12.366   2.968 -0.1156  0.4475  0.8619
  543MOL0     C74845   4.405  12.079   3.173  0.5453 -0.1387 -0.0249
  543MOL0     C74846   4.366  11.944   3.185  0.2741 -0.9517 -0.3655
  543MOL0     N74847   4.461  11.433   2.624  0.3903  0.1741 -0.6561
  543MOL0     N74848   4.355  11.452   2.553  0.3821 -0.3705 -0.4351
  543MOL0     C74849   3.798  11.562   2.691 -0.1860 -0.3099  0.6688
  543MOL0     C74850   3.853  11.444   2.728 -0.0990  0.1047 -0.1594
  543MOL0     C74851   4.036  11.101   2.971  0.2965 -0.1550  0.1011
  543MOL0     C74852   3.970  10.984   3.023 -0.2341  0.3352 -0.0905
  543MOL0     C74853   4.046  10.871   3.068  0.2717 -0.0038  0.1069
  543MOL0     C74854   4.186  10.889   3.069 -0.1983 -0.4377  0.4386
  543MOL0     O74855   4.262  10.798   3.132 -0.5972 -0.5152  0.0517
  543MOL0     C74856   4.328  10.708   3.040  0.1281 -0.3929  0.1531
  543MOL0     C74857   4.396  10.586   3.104  0.4903  0.4420  0.2269
  543MOL0     C74858   4.528  10.529   3.046 -1.2095 -0.5694  0.7075
  543MOL0     C74859   4.509  10.443   2.923  0.9718  1.5936 -1.6410
  543MOL0     C74860   4.632  10.361   2.894 -0.4410 -0.1010  0.2379
  543MOL0     C74861   4.737  10.304   2.866 -0.5312 -0.5200 -0.1415
  543MOL0     C74862   4.248  10.994   3.010 -1.0483  0.2020  0.1488
  543MOL0     C74863   4.179  11.106   2.968  0.1162 -0.1227  0.0705
  543MOL0     C74864   4.254  11.231   2.935  0.3849 -0.9582 -0.1008
  543MOL0     H74865   4.092  11.576   2.934 -0.2068 -0.0145  0.4614
  543MOL0     H74866   4.003  11.761   2.885 -0.2734  0.2720  0.8627
  543MOL0     H74867   3.931  11.929   2.789  1.9991 -0.9901 -2.0122
  543MOL0     H74868   3.764  11.936   2.832 -0.0994  2.2103 -1.5768
  543MOL0     H74869   3.686  12.035   2.640  0.4330 -0.3727 -0.4550
  543MOL0     H74870   3.837  12.127   2.700 -1.5486  0.1598  0.2733
  543MOL0     H74871   3.826  11.959   2.456  0.7736  0.6810  1.1695
  543MOL0     H74872   3.807  12.139   2.468  2.3871  1.3856 -3.4466
  543MOL0     H74873   4.025  12.096   2.388  2.1709  1.4857 -0.0569
  543MOL0     H74874   4.026  12.124   2.575 -0.6209 -3.0473  1.7827
  543MOL0     H74875   4.073  11.876   2.591  0.2515 -0.5929  0.3692
  543MOL0     H74876   4.196  11.980   2.509 -0.5477 -0.1770  0.9764
  543MOL0     H74877   3.999  11.788   2.377 -0.5436  0.3834 -2.5951
  543MOL0     H74878   4.115  11.897   2.295 -0.7878 -0.1152 -0.3140
  543MOL0     H74879   4.298  11.794   2.420 -0.2296 -0.4597  1.0157
  543MOL0     H74880   4.208  11.679   2.308  0.2591  0.3890 -0.4764
  543MOL0     H74881   4.154  11.693   2.604  0.7654 -3.7459  2.7120
  543MOL0     H74882   4.125  11.574   2.486 -0.6555  0.4263  0.1634
  543MOL0     H74883   4.386  11.741   2.704 -1.5050  0.0190  0.6056
  543MOL0     H74884   4.671  11.637   2.779 -1.9054  3.2779  1.8700
  543MOL0     H74885   4.631  11.468   2.819 -2.1396 -0.1799 -0.4240
  543MOL0     H74886   4.631  11.646   3.003 -2.1531  2.4733  1.7554
  543MOL0     H74887   4.516  11.730   2.929 -0.2081 -0.1085  1.6841
  543MOL0     H74888   4.380  11.499   2.960 -1.4927 -1.5076  2.3101
  543MOL0     H74889   4.503  11.475   3.089  2.0996  1.3187  1.1062
  543MOL0     H74890   4.341  11.588   3.212 -0.7082 -0.1545 -0.5154
  543MOL0     H74891   4.473  11.683   3.176 -1.0163 -0.6555  3.7555
  543MOL0     H74892   4.225  11.920   2.875 -0.1270 -1.9157  0.7879
  543MOL0     H74893   4.345  12.162   2.746 -0.0182  0.2939 -1.5877
  543MOL0     H74894   4.224  12.263   2.820  0.7103 -0.1648  0.8141
  543MOL0     H74895   4.179  12.104   2.773  0.4950  0.9327 -0.9602
  543MOL0     H74896   4.645  12.429   2.982  2.3159 -0.1870  0.3466
  543MOL0     H74897   4.705  12.644   2.946  0.8528 -0.7117 -0.1848
  543MOL0     H74898   4.664  12.952   3.268 -0.2540 -0.2090 -0.2044
  543MOL0     H74899   4.812  12.858   3.282  1.0507 -0.2332 -0.4754
  543MOL0     H74900   4.842  13.090   3.278 -2.3637 -0.8399  0.8523
  543MOL0     H74901   4.923  13.041   3.131  1.1285 -0.4769  2.0786
  543MOL0     H74902   4.658  13.183   3.142  0.0678  1.6645  0.3366
  543MOL0     H74903   4.733  13.118   2.992 -1.6314 -0.7550  0.6932
  543MOL0     H74904   4.844  13.319   3.192 -1.8083  0.3654  0.0976
  543MOL0     H74905   4.780  13.360   3.041  1.3001  1.3629  0.9226
  543MOL0     H74906   5.040  13.190   3.056  0.3429  1.0863 -2.1715
  543MOL0     H74907   4.939  13.214   2.921 -0.0557  2.0114 -0.0524
  543MOL0     H74908   5.131  13.383   2.971  0.3854  1.7746  1.0658
  543MOL0     H74909   5.037  13.459   3.093  1.6967  1.8221 -0.8133
  543MOL0     H74910   4.859  13.514   2.912  0.5805  0.4938  0.0498
  543MOL0     H74911   4.948  13.418   2.800  3.3484  1.4264 -1.9780
  543MOL0     H74912   5.017  13.635   2.748 -2.0346  1.4226  0.4080
  543MOL0     H74913   5.150  13.562   2.832  0.0032  2.2487 -0.1637
  543MOL0     H74914   4.588  12.744   3.357 -0.5062 -0.5529  0.1053
  543MOL0     H74915   4.459  12.553   3.355  0.7920 -1.6855 -0.0354
  543MOL0     H74916   4.450  12.129   3.258  1.4623  1.4763 -1.4143
  543MOL0     H74917   4.394  11.871   3.260  1.8809 -3.1989 -2.9498
  543MOL0     H74918   3.723  11.540   2.615  2.8681 -1.2488 -2.3009
  543MOL0     H74919   3.839  11.346   2.684  1.8120  0.3291 -1.4019
  543MOL0     H74920   3.862  10.978   3.022 -0.1657 -2.4985  1.3247
  543MOL0     H74921   4.004  10.777   3.104 -0.9579 -0.1495 -1.5563
  543MOL0     H74922   4.252  10.668   2.971  0.3787  0.6348 -0.7328
  543MOL0     H74923   4.397  10.770   2.983  0.6133  0.0892  1.2452
  543MOL0     H74924   4.325  10.503   3.101  1.0989 -0.0459 -1.8879
  543MOL0     H74925   4.423  10.628   3.202  3.1201  2.3521 -1.1822
  543MOL0     H74926   4.583  10.618   3.015 -5.5638  1.8125 -1.0886
  543MOL0     H74927   4.588  10.468   3.115  2.9878  0.4879 -1.6504
  543MOL0     H74928   4.466  10.497   2.839 -0.5954  1.6153 -0.8667
  543MOL0     H74929   4.426  10.376   2.950  1.3183  0.8171 -2.4517
  543MOL0     H74930   4.808  10.250   2.807 -0.8440  1.8615 -2.9628
  543MOL0     H74931   4.356  11.000   3.012 -1.0236  0.0162 -0.4096
  543MOL0     H74932   4.245  11.244   2.826 -1.1543 -2.3445 -0.1894
  543MOL0     H74933   4.203  11.314   2.985 -0.1944  0.8638 -3.4240
  543MOL0     H74934   4.361  11.227   2.954  0.5313 -1.4300 -0.9651
  544MOL0     O74935   8.656   0.895   6.961 -0.4229  0.3079 -0.1381
  544MOL0     C74936   8.689   0.863   6.849 -0.5806 -0.4908  1.2315
  544MOL0     O74937   8.803   0.895   6.780 -0.1320 -0.4778  0.2786
  544MOL0     C74938   8.913   0.912   6.856 -0.6454  0.5858 -0.6368
  544MOL0     C74939   8.944   1.030   6.919 -0.9319 -0.4083 -0.6606
  544MOL0     C74940   9.063   1.043   6.988  0.3291  0.3866 -0.2385
  544MOL0     C74941   9.160   0.939   6.984  0.2243  0.3755 -0.1204
  544MOL0     O74942   9.273   0.935   7.062  0.2093 -0.8233  0.7275
  544MOL0     C74943   9.278   1.021   7.173 -0.0974 -0.1206 -0.2665
  544MOL0     C74944   9.386   0.992   7.287  0.9125 -0.5753  0.4188
  544MOL0     C74945   9.363   0.886   7.395 -0.0706 -0.4756  0.4693
  544MOL0     C74946   9.323   0.750   7.323  0.0342 -0.1866  0.7124
  544MOL0     C74947   9.457   0.686   7.279 -0.0486 -0.1467 -0.5650
  544MOL0     C74948   9.457   0.534   7.295  0.6109  0.6629  0.1667
  544MOL0     C74949   9.588   0.458   7.299 -0.1472 -0.5365  0.6175
  544MOL0     C74950   9.631   0.419   7.438 -0.9983 -0.3346 -0.5411
  544MOL0     N74951   9.679   0.551   7.508  0.3728 -0.2246 -0.4813
  544MOL0     C74952   9.755   0.652   7.447 -0.7390 -0.0392 -0.8348
  544MOL0     C74953   9.762   0.749   7.540 -0.2227  0.1015 -0.6165
  544MOL0     C74954   9.828   0.883   7.517 -0.0398 -0.6312  0.0222
  544MOL0     C74955   9.756   0.975   7.423  0.0332 -0.2623 -0.0611
  544MOL0     C74956   9.823   1.113   7.371 -0.1311 -0.2186 -0.3251
  544MOL0     C74957   9.922   1.090   7.260  1.0174  0.5737  0.6145
  544MOL0     O74958   9.985   1.204   7.211  0.5931  0.4696 -0.0802
  544MOL0     C74959  10.029   1.206   7.083 -2.0149 -0.0765  0.0883
  544MOL0     C74960  10.068   1.088   7.020  0.1024 -0.3418  0.1324
  544MOL0     C74961  10.148   1.082   6.904 -0.2384  0.2570 -0.7709
  544MOL0     C74962  10.204   0.946   6.870 -0.3118 -0.9396 -0.0892
  544MOL0     C74963  10.158   1.201   6.824 -0.1131  0.0603  0.6925
  544MOL0     C74964  10.223   1.217   6.695  0.4222  0.7890  0.1280
  544MOL0     O74965  10.257   1.340   6.660 -0.0652 -0.3217  0.2903
  544MOL0     C74966  10.321   1.361   6.537  0.1505  0.0253 -0.7344
  544MOL0     C74967  10.255   1.318   6.413 -0.6826 -0.9689  0.3874
  544MOL0     C74968  10.320   1.339   6.292 -0.1732 -1.2494  0.3494
  544MOL0     C74969  10.447   1.398   6.287 -0.7396  0.1575 -0.3955
  544MOL0     O74970  10.518   1.428   6.174 -0.1869 -0.2319 -0.2302
  544MOL0     C74971  10.455   1.417   6.045  0.2685 -0.1253 -0.0295
  544MOL0     C74972  10.532   1.469   5.931  0.3321  0.7138  0.7563
  544MOL0     C74973  10.655   1.378   5.906 -0.9823  0.4491 -0.7071
  544MOL0     C74974  10.740   1.446   5.795 -1.1366  0.4120  0.5911
  544MOL0     C74975  10.868   1.359   5.758  0.3749  0.3977 -0.4375
  544MOL0     C74976  10.985   1.445   5.711  0.5294 -0.3685  0.3692
  544MOL0     C74977  11.093   1.356   5.656  0.1744 -0.5259 -0.0275
  544MOL0     C74978  11.208   1.445   5.602  0.0778  0.0751  0.1496
  544MOL0    Cl74979  11.305   1.362   5.475 -0.1236  0.1000  0.0650
  544MOL0     C74980  10.514   1.421   6.407  0.2049  0.8633  0.6099
  544MOL0     C74981  10.445   1.414   6.531 -0.1647 -0.3031  0.8023
  544MOL0     O74982  10.260   1.110   6.641  0.1293 -0.6454 -0.1274
  544MOL0     C74983  10.107   1.320   6.893 -0.0832 -0.6927  0.3890
  544MOL0     C74984  10.066   1.322   7.022  0.6547 -0.6389 -0.5925
  544MOL0     N74985   9.687   0.706   7.653 -0.2178 -0.7409  0.8073
  544MOL0     N74986   9.640   0.590   7.634  0.1217  0.2421  0.5203
  544MOL0     C74987   9.132   0.821   6.919  0.1520 -0.3976 -0.6499
  544MOL0     C74988   9.012   0.807   6.854 -0.2174 -0.3278  0.2341
  544MOL0     C74989   8.599   0.753   6.778 -0.2925  0.6895 -0.7970
  544MOL0     C74990   8.517   0.669   6.863 -0.6844 -0.5412 -0.5366
  544MOL0     C74991   8.434   0.579   6.807  0.3439  0.0759 -0.1094
  544MOL0     C74992   8.428   0.563   6.669 -0.4070  0.1202  0.6062
  544MOL0     O74993   8.349   0.467   6.596 -0.7366 -0.8033  0.2975
  544MOL0     C74994   8.310   0.348   6.660 -0.1042 -0.0304  0.0840
  544MOL0     C74995   8.342   0.220   6.583 -0.2966 -0.3524 -0.3702
  544MOL0     C74996   8.491   0.214   6.555  1.0627 -0.4924 -0.1464
  544MOL0     C74997   8.544   0.067   6.549 -0.1672 -0.2571  0.3991
  544MOL0     C74998   8.473  -0.008   6.438  0.4192  0.5492 -0.5642
  544MOL0     C74999   8.414  -0.069   6.354 -0.7238 -0.4090  0.0793
  544MOL0     C75000   8.517   0.632   6.589 -0.6514  0.0940 -0.0229
  544MOL0     C75001   8.595   0.743   6.634  0.4183 -0.4439  0.1005
  544MOL0     C75002   8.661   0.838   6.546 -0.7741  0.0704 -0.4339
  544MOL0     H75003   8.876   1.114   6.911  2.6742  3.2239  2.3927
  544MOL0     H75004   9.074   1.136   7.041  2.0648  0.6165 -0.9315
  544MOL0     H75005   9.186   1.022   7.233  1.0656  1.6352  1.6444
  544MOL0     H75006   9.294   1.121   7.132 -3.9161  1.0686  0.6954
  544MOL0     H75007   9.483   0.979   7.239  1.3002 -0.2191  1.0837
  544MOL0     H75008   9.394   1.083   7.346  0.3381  0.3699 -0.9185
  544MOL0     H75009   9.452   0.887   7.458  0.5240  3.9290 -0.1672
  544MOL0     H75010   9.271   0.909   7.450 -0.0000  1.7860 -0.2673
  544MOL0     H75011   9.280   0.686   7.401 -1.3914  1.4516  1.3390
  544MOL0     H75012   9.246   0.756   7.245 -1.2314  1.2714  2.0083
  544MOL0     H75013   9.533   0.728   7.346 -2.3688  1.0508  1.4415
  544MOL0     H75014   9.480   0.711   7.175  3.1327  1.6888  0.4232
  544MOL0     H75015   9.396   0.506   7.381 -1.8806 -2.0938 -2.2872
  544MOL0     H75016   9.398   0.504   7.209 -0.7820 -0.7228  1.5568
  544MOL0     H75017   9.669   0.508   7.245  0.1640  0.1503  1.6940
  544MOL0     H75018   9.569   0.365   7.244  3.3468 -1.4659  0.7895
  544MOL0     H75019   9.554   0.364   7.492 -1.4876 -1.3014 -2.1649
  544MOL0     H75020   9.719   0.355   7.424 -0.2745  0.7424 -1.0838
  544MOL0     H75021   9.821   0.655   7.362  0.7106  2.6903  0.2544
  544MOL0     H75022   9.924   0.855   7.471  0.3644 -1.7510  1.4570
  544MOL0     H75023   9.853   0.939   7.607  3.0301 -0.7975 -0.6058
  544MOL0     H75024   9.718   0.918   7.338 -0.8982  1.9364 -1.1855
  544MOL0     H75025   9.668   1.005   7.481  0.1617  2.1801 -1.0066
  544MOL0     H75026   9.741   1.180   7.343  0.1033 -0.2843 -1.1829
  544MOL0     H75027   9.874   1.156   7.458  0.3150 -1.2968 -0.0366
  544MOL0     H75028   9.997   1.022   7.303  1.0915  1.9770  2.8466
  544MOL0     H75029   9.861   1.045   7.181 -1.1152  2.6459  0.9776
  544MOL0     H75030  10.049   0.990   7.063 -2.6761  0.3744  0.7362
  544MOL0     H75031  10.310   0.961   6.847 -0.8072  3.8235 -0.3870
  544MOL0     H75032  10.161   0.912   6.776 -0.7067  1.3327 -0.7839
  544MOL0     H75033  10.182   0.877   6.952 -1.0193 -1.9295 -1.0921
  544MOL0     H75034  10.153   1.280   6.411 -1.2020  0.1828  2.3385
  544MOL0     H75035  10.290   1.306   6.193 -0.7574 -0.1544  0.1459
  544MOL0     H75036  10.419   1.315   6.026 -2.5646  0.9997 -1.2092
  544MOL0     H75037  10.369   1.483   6.056  1.0624  0.7219  1.6187
  544MOL0     H75038  10.467   1.453   5.845 -1.4661  1.8359  1.8276
  544MOL0     H75039  10.556   1.576   5.930  1.9132  0.3811 -0.4166
  544MOL0     H75040  10.638   1.272   5.884  0.3207 -0.8399  3.5243
  544MOL0     H75041  10.714   1.372   5.998  0.3480  2.0941 -1.4034
  544MOL0     H75042  10.771   1.544   5.832  1.1069  0.6102 -1.6136
  544MOL0     H75043  10.680   1.461   5.705  0.7522 -2.8414 -1.4143
  544MOL0     H75044  10.903   1.307   5.847 -0.8723 -2.4068 -1.4754
  544MOL0     H75045  10.848   1.276   5.689  2.8719 -0.1200 -0.6478
  544MOL0     H75046  11.021   1.510   5.791  1.1215  0.8385 -0.8407
  544MOL0     H75047  10.952   1.514   5.633 -1.0289 -0.9352  0.5020
  544MOL0     H75048  11.049   1.293   5.579 -0.1270  1.9722 -2.0477
  544MOL0     H75049  11.144   1.295   5.731  4.0356  1.3900 -0.7780
  544MOL0     H75050  11.278   1.478   5.680 -0.0632 -0.6750  0.6011
  544MOL0     H75051  11.170   1.539   5.561  1.1582  1.0432  1.2618
  544MOL0     H75052  10.611   1.467   6.393 -0.5941  2.2703 -0.6365
  544MOL0     H75053  10.509   1.437   6.616  3.2758 -5.8543  0.2520
  544MOL0     H75054  10.109   1.421   6.854  0.0422 -0.5863  0.6706
  544MOL0     H75055  10.035   1.416   7.068 -0.6322 -1.9706  1.4387
  544MOL0     H75056   9.209   0.744   6.920  0.6767  0.0787 -2.0027
  544MOL0     H75057   8.998   0.711   6.804  0.6044 -1.2596  1.7346
  544MOL0     H75058   8.527   0.678   6.971  1.3584  2.6134 -0.8454
  544MOL0     H75059   8.356   0.533   6.867 -1.3151  3.4546  0.5532
  544MOL0     H75060   8.343   0.330   6.763  1.3927 -1.6330 -0.6126
  544MOL0     H75061   8.202   0.363   6.668  0.2253  3.5410 -0.5060
  544MOL0     H75062   8.286   0.227   6.489  1.4246  2.9377 -1.3240
  544MOL0     H75063   8.308   0.134   6.640 -2.7160  0.1214 -0.9987
  544MOL0     H75064   8.509   0.252   6.454 -0.1125 -0.1198 -0.2342
  544MOL0     H75065   8.550   0.279   6.620  0.7179  0.1695 -0.4948
  544MOL0     H75066   8.532   0.019   6.647  0.0635  1.0675  1.1060
  544MOL0     H75067   8.651   0.069   6.526  0.2330  0.7476  2.1234
  544MOL0     H75068   8.381  -0.118   6.264  1.9318  0.3197 -1.4183
  544MOL0     H75069   8.513   0.613   6.482  1.5763 -1.4831  0.0904
  544MOL0     H75070   8.769   0.817   6.546 -0.6451  0.3929  2.3147
  544MOL0     H75071   8.625   0.833   6.443  1.0525  0.7279 -1.1583
  544MOL0     H75072   8.645   0.938   6.587  1.2591 -0.5833  2.2621
  545MOL0     O75073  10.430   1.765   9.562 -0.1796 -0.0582 -0.4004
  545MOL0     C75074  10.367   1.859   9.614  0.4020  0.5184 -0.3293
  545MOL0     O75075  10.395   1.916   9.731 -1.2510 -0.2676  0.4894
  545MOL0     C75076  10.472   1.837   9.809 -1.5499  0.1501  0.0969
  545MOL0     C75077  10.610   1.871   9.808 -0.8641  1.0298  0.1592
  545MOL0     C75078  10.691   1.797   9.896  0.6972 -0.3021  0.8276
  545MOL0     C75079  10.637   1.700   9.988  0.7038 -0.5294  0.6970
  545MOL0     O75080  10.715   1.617  10.058  0.8246 -0.0853 -0.1953
  545MOL0     C75081  10.648   1.507  10.124  0.0733  0.5862 -0.2138
  545MOL0     C75082  10.761   1.403  10.144  0.1791  0.5314 -0.3280
  545MOL0     C75083  10.861   1.437  10.267 -0.0868  0.0295 -0.3906
  545MOL0     C75084  10.995   1.495  10.227  0.4483 -0.9376 -0.0108
  545MOL0     C75085  11.078   1.525  10.352  0.4970 -0.4669  0.5587
  545MOL0     C75086  11.202   1.608  10.294  0.6377 -0.3081  0.1069
  545MOL0     C75087  11.306   1.635  10.393  0.1470  0.0827 -1.0561
  545MOL0     C75088  11.435   1.668  10.320  0.5670  0.0727 -1.0043
  545MOL0     N75089  11.546   1.701  10.410 -0.6208 -0.4004  1.3497
  545MOL0     C75090  11.591   1.654  10.527  0.2963  0.8027 -0.5622
  545MOL0     C75091  11.702   1.729  10.561 -0.8373 -0.1654 -0.5735
  545MOL0     C75092  11.788   1.714  10.684  0.3096 -0.0858  0.3733
  545MOL0     C75093  11.706   1.722  10.812 -0.1712  0.1121  0.3002
  545MOL0     C75094  11.601   1.837  10.818 -0.5975 -0.4070 -0.1489
  545MOL0     C75095  11.566   1.848  10.966  0.6873 -0.6652 -0.6571
  545MOL0     O75096  11.473   1.739  10.992 -0.9306 -0.3927 -1.1018
  545MOL0     C75097  11.434   1.724  11.125 -0.6257  0.8791  0.2567
  545MOL0     C75098  11.304   1.675  11.145 -0.4751  0.9352 -0.6794
  545MOL0     C75099  11.262   1.648  11.281 -0.1322 -0.4217  0.3356
  545MOL0     C75100  11.124   1.612  11.306 -0.7593  0.8103  0.5976
  545MOL0     C75101  11.346   1.690  11.386 -0.9755 -0.6163  0.4827
  545MOL0     C75102  11.322   1.672  11.529  0.7605  0.3341  0.2895
  545MOL0     O75103  11.322   1.773  11.619  0.4429  0.1368  0.3843
  545MOL0     C75104  11.339   1.740  11.753  0.1161 -0.2107 -0.1847
  545MOL0     C75105  11.247   1.792  11.850  0.2581 -0.0078 -0.6605
  545MOL0     C75106  11.265   1.763  11.988  0.2725 -0.0296 -0.5459
  545MOL0     C75107  11.353   1.658  12.025 -0.0575  0.5933 -0.6988
  545MOL0     O75108  11.355   1.630  12.162 -0.5505 -0.5241 -0.2036
  545MOL0     C75109  11.373   1.493  12.207 -0.0386 -0.0355 -0.2340
  545MOL0     C75110  11.452   1.488  12.341 -0.1315 -1.0738  0.4156
  545MOL0     C75111  11.580   1.574  12.352 -0.2275 -0.2713  0.3906
  545MOL0     C75112  11.648   1.559  12.492 -0.2136 -0.4497  0.5675
  545MOL0     C75113  11.557   1.604  12.599  0.2403  0.4094 -0.7770
  545MOL0     C75114  11.631   1.620  12.731  0.8038  0.0017  0.5548
  545MOL0     C75115  11.530   1.625  12.848  0.7709 -1.0585  0.1903
  545MOL0     C75116  11.606   1.632  12.991  0.2586 -0.1282  0.7757
  545MOL0    Cl75117  11.621   1.473  13.072  0.2970 -0.1873 -0.2765
  545MOL0     C75118  11.448   1.616  11.929 -0.1760 -0.5735 -0.2819
  545MOL0     C75119  11.441   1.653  11.794  0.7000 -0.4789 -0.3972
  545MOL0     O75120  11.297   1.552  11.563  0.6726  0.1027  0.4511
  545MOL0     C75121  11.472   1.734  11.358 -0.1749 -0.1608 -0.4101
  545MOL0     C75122  11.511   1.763  11.230 -0.0805 -0.3659 -0.8061
  545MOL0     N75123  11.734   1.804  10.458  0.2431 -0.2783  0.3225
  545MOL0     N75124  11.641   1.798  10.373  0.1253  0.3645  0.0712
  545MOL0     C75125  10.494   1.678   9.983  0.4695 -0.9977  0.9309
  545MOL0     C75126  10.413   1.743   9.888  0.9248 -0.0500 -0.7752
  545MOL0     C75127  10.264   1.922   9.527 -0.4778  0.0115  0.0911
  545MOL0     C75128  10.180   2.023   9.586 -0.0353  0.0390 -0.2813
  545MOL0     C75129  10.071   2.079   9.521  0.4715  0.1075 -0.9342
  545MOL0     C75130  10.055   2.053   9.381  0.2100 -0.6995 -0.7528
  545MOL0     O75131   9.949   2.100   9.309  0.4678 -0.2034 -0.5305
  545MOL0     C75132   9.936   2.246   9.314 -1.0270 -0.1684 -0.4675
  545MOL0     C75133   9.818   2.294   9.237  0.7898 -0.8946 -0.2094
  545MOL0     C75134   9.708   2.286   9.344 -1.0890 -0.1388 -0.6187
  545MOL0     C75135   9.597   2.373   9.315  0.0090  0.4466  0.1389
  545MOL0     C75136   9.485   2.355   9.410 -1.0646  0.0802  0.2445
  545MOL0     C75137   9.406   2.327   9.495 -0.9125 -0.5416  0.0669
  545MOL0     C75138  10.138   1.971   9.319 -0.6695 -0.2965  0.6335
  545MOL0     C75139  10.245   1.907   9.384  0.0155 -1.0433 -0.0263
  545MOL0     C75140  10.333   1.829   9.294 -0.3463  0.0434 -0.1056
  545MOL0     H75141  10.638   1.937   9.726 -1.2923 -0.8848 -1.6278
  545MOL0     H75142  10.799   1.798   9.888  0.5822 -0.6036 -1.3020
  545MOL0     H75143  10.559   1.462  10.079 -0.3296 -0.3733  1.4548
  545MOL0     H75144  10.602   1.532  10.220  0.8576  1.5028 -0.0636
  545MOL0     H75145  10.713   1.307  10.160 -0.5065  0.3629 -2.9677
  545MOL0     H75146  10.821   1.389  10.053  1.3262 -1.2325  0.6378
  545MOL0     H75147  10.808   1.510  10.329 -1.9360 -0.2898 -1.5148
  545MOL0     H75148  10.879   1.348  10.329 -2.6290  0.6583  1.4165
  545MOL0     H75149  11.040   1.428  10.154 -0.6562 -2.1729  0.3936
  545MOL0     H75150  10.971   1.591  10.181  0.1293  0.6154  3.1267
  545MOL0     H75151  11.110   1.435  10.406  2.3084 -0.8296 -1.0018
  545MOL0     H75152  11.021   1.590  10.420  0.4540  0.8746 -0.7186
  545MOL0     H75153  11.250   1.555  10.211  0.4335 -0.3271  0.0009
  545MOL0     H75154  11.175   1.704  10.250 -0.2112 -0.7828 -0.4389
  545MOL0     H75155  11.317   1.554  10.465  0.9801  0.4703 -0.7353
  545MOL0     H75156  11.280   1.727  10.447  0.4634  3.5536 -6.1269
  545MOL0     H75157  11.467   1.583  10.260  1.6221 -1.5854  1.7236
  545MOL0     H75158  11.420   1.749  10.248 -1.2935  0.8078  0.1538
  545MOL0     H75159  11.543   1.579  10.589  1.4511 -0.7232 -1.4480
  545MOL0     H75160  11.865   1.792  10.685  1.2090 -0.9425 -0.1945
  545MOL0     H75161  11.840   1.618  10.683  0.6684  0.0582  1.8814
  545MOL0     H75162  11.670   1.622  10.840 -2.1510  1.1753  1.8815
  545MOL0     H75163  11.773   1.746  10.895  0.2378  0.9223 -0.2533
  545MOL0     H75164  11.650   1.927  10.780 -0.6000 -1.6961 -3.5406
  545MOL0     H75165  11.515   1.810  10.756 -0.3951 -1.0497 -0.1540
  545MOL0     H75166  11.656   1.847  11.029 -0.1727  1.0656  0.7189
  545MOL0     H75167  11.512   1.940  10.991 -2.9207 -2.1821 -2.1087
  545MOL0     H75168  11.243   1.643  11.062 -0.6602 -0.9757  0.1493
  545MOL0     H75169  11.066   1.610  11.213 -1.0565 -0.1917  0.7936
  545MOL0     H75170  11.073   1.691  11.362 -0.4195  1.0255  0.6046
  545MOL0     H75171  11.109   1.519  11.361  0.6140 -0.5269 -1.1625
  545MOL0     H75172  11.165   1.847  11.805 -1.0461 -1.4586 -0.1379
  545MOL0     H75173  11.202   1.806  12.066 -1.2421 -0.4984 -1.4841
  545MOL0     H75174  11.274   1.451  12.223  0.5396 -1.3754 -0.0539
  545MOL0     H75175  11.431   1.436  12.134  1.7933 -1.2282  2.0277
  545MOL0     H75176  11.383   1.513  12.422  0.3691 -2.1308  1.1956
  545MOL0     H75177  11.481   1.384  12.364 -1.3879 -2.1350 -2.3488
  545MOL0     H75178  11.556   1.680  12.340  2.1738  0.8953  4.2140
  545MOL0     H75179  11.649   1.550  12.271 -1.1659  1.6815 -1.0868
  545MOL0     H75180  11.745   1.610  12.497  0.6537 -2.1451  2.4644
  545MOL0     H75181  11.675   1.454  12.507 -0.3315 -0.6559 -0.5550
  545MOL0     H75182  11.507   1.696  12.569  0.2162  0.7351  0.2239
  545MOL0     H75183  11.483   1.525  12.616  2.0160 -1.4536 -1.2889
  545MOL0     H75184  11.699   1.705  12.720 -1.6726  2.2583  1.5574
  545MOL0     H75185  11.688   1.528  12.749  0.8513  0.1970  1.4677
  545MOL0     H75186  11.470   1.534  12.843 -0.7603 -0.0636 -0.2509
  545MOL0     H75187  11.461   1.708  12.829  0.8151 -1.2417 -0.8680
  545MOL0     H75188  11.544   1.688  13.062  1.6846 -1.2305  2.9996
  545MOL0     H75189  11.697   1.689  12.972  0.4896 -0.1623  1.7418
  545MOL0     H75190  11.520   1.544  11.968 -1.5925 -2.5055 -1.0597
  545MOL0     H75191  11.512   1.624  11.718  0.8322  1.9724 -1.3043
  545MOL0     H75192  11.536   1.747  11.444  1.2328 -0.8999 -1.3036
  545MOL0     H75193  11.607   1.813  11.223 -2.0066  3.6213 -1.8396
  545MOL0     H75194  10.441   1.598  10.033  0.9196 -2.3036 -0.5848
  545MOL0     H75195  10.309   1.716   9.876  1.1121 -1.2727  0.1384
  545MOL0     H75196  10.190   2.021   9.694  0.0982 -0.5869 -0.3005
  545MOL0     H75197  10.004   2.144   9.576  2.2510 -0.7616  2.5365
  545MOL0     H75198   9.928   2.278   9.418 -0.4560 -3.4006  0.6965
  545MOL0     H75199  10.024   2.292   9.269  0.4231  0.3399  2.6220
  545MOL0     H75200   9.794   2.230   9.151  1.1997 -2.3965  0.7630
  545MOL0     H75201   9.842   2.395   9.202  0.2765 -0.6914  0.0200
  545MOL0     H75202   9.701   2.180   9.368  2.4138 -0.1386  1.1111
  545MOL0     H75203   9.741   2.312   9.445 -0.2847 -2.8537 -0.0983
  545MOL0     H75204   9.553   2.354   9.217 -0.1042  0.5818  0.1637
  545MOL0     H75205   9.630   2.478   9.312  1.9936 -0.0792  1.3742
  545MOL0     H75206   9.330   2.322   9.571  0.1762  0.2367  1.2585
  545MOL0     H75207  10.129   1.959   9.211  2.4615 -2.1129  0.4551
  545MOL0     H75208  10.436   1.820   9.331  0.6750  0.8893 -2.5267
  545MOL0     H75209  10.275   1.737   9.286  0.6831 -0.8199  1.8545
  545MOL0     H75210  10.352   1.864   9.192 -0.8823  0.4035 -0.0863
  546MOL0     O75211   6.983  10.669   9.771 -0.2926 -0.3170 -0.2249
  546MOL0     C75212   6.980  10.666   9.893 -0.3864 -0.0526 -0.7330
  546MOL0     O75213   6.873  10.638   9.976 -0.1409 -0.2925  0.6648
  546MOL0     C75214   6.754  10.648   9.923 -0.4964 -0.2410  0.0150
  546MOL0     C75215   6.699  10.577   9.814 -0.1724 -0.1575 -0.4185
  546MOL0     C75216   6.577  10.610   9.748 -0.4757 -0.6664 -0.6022
  546MOL0     C75217   6.505  10.721   9.796  1.0223 -0.0452 -0.6975
  546MOL0     O75218   6.390  10.786   9.755  0.0549 -0.0422 -0.3958
  546MOL0     C75219   6.312  10.726   9.642 -1.1476 -0.9587  0.2406
  546MOL0     C75220   6.211  10.823   9.580 -0.2641  0.2204 -0.3548
  546MOL0     C75221   6.281  10.941   9.504 -1.0355  0.4802 -0.8699
  546MOL0     C75222   6.350  10.894   9.384  0.3857  0.4630 -0.3891
  546MOL0     C75223   6.420  11.017   9.309 -0.5809 -0.8054 -0.2146
  546MOL0     C75224   6.563  10.984   9.261 -0.0888 -0.3686 -0.8469
  546MOL0     C75225   6.641  11.114   9.222 -0.5878 -0.4323  0.5269
  546MOL0     C75226   6.793  11.077   9.193  0.5417 -0.2715 -0.0813
  546MOL0     N75227   6.853  11.203   9.161  0.0399 -0.1446 -0.5883
  546MOL0     C75228   6.848  11.258   9.041  0.1525  0.7717  0.4283
  546MOL0     C75229   6.946  11.353   9.044  0.4399 -0.5478  0.5585
  546MOL0     C75230   6.959  11.462   8.935 -0.0843  0.4968  0.5586
  546MOL0     C75231   7.103  11.491   8.899  0.5574 -0.9102  0.4091
  546MOL0     C75232   7.182  11.361   8.862  1.3769 -0.9554 -0.3546
  546MOL0     C75233   7.289  11.384   8.763  0.9449  0.8859 -0.9141
  546MOL0     O75234   7.299  11.270   8.673  0.5742  0.0428 -0.2510
  546MOL0     C75235   7.402  11.177   8.682 -0.3026  0.3168  0.4601
  546MOL0     C75236   7.405  11.088   8.581 -0.1153  0.0789 -0.2583
  546MOL0     C75237   7.502  10.991   8.566  0.1521  0.5310  0.0925
  546MOL0     C75238   7.486  10.899   8.454 -0.0919  0.3976  0.7314
  546MOL0     C75239   7.601  10.983   8.661  0.3735 -0.1905 -0.4387
  546MOL0     C75240   7.726  10.909   8.644 -0.5173  0.7259  0.4367
  546MOL0     O75241   7.788  10.918   8.520  0.0700  0.3026 -0.7264
  546MOL0     C75242   7.848  10.807   8.470 -0.7166  0.0182  0.5288
  546MOL0     C75243   7.914  10.822   8.348 -0.0234  0.1555  0.6139
  546MOL0     C75244   7.968  10.712   8.289  0.0962  0.3568  1.0064
  546MOL0     C75245   7.972  10.582   8.344 -0.7547  0.5319  1.3546
  546MOL0     O75246   8.039  10.469   8.299  0.3443  0.6526 -0.2129
  546MOL0     C75247   8.102  10.477   8.170 -0.5930  0.6804 -0.3393
  546MOL0     C75248   8.196  10.353   8.151 -0.5461  0.5124  0.1573
  546MOL0     C75249   8.129  10.225   8.196  0.3671  1.4704 -0.4276
  546MOL0     C75250   8.207  10.095   8.171 -0.4651 -0.2784  0.3081
  546MOL0     C75251   8.316  10.071   8.273 -0.6674 -0.1709 -0.3679
  546MOL0     C75252   8.379   9.930   8.268 -0.1587  0.8056  0.3107
  546MOL0     C75253   8.488   9.932   8.378 -0.1331  0.0909 -0.2575
  546MOL0     C75254   8.597   9.825   8.347  0.2131  0.0433 -0.5703
  546MOL0    Cl75255   8.536   9.664   8.380 -0.0304  0.6877 -0.0684
  546MOL0     C75256   7.908  10.565   8.466  0.2001  0.4847 -0.2277
  546MOL0     C75257   7.842  10.673   8.527 -0.2891  0.7226  0.1165
  546MOL0     O75258   7.769  10.847   8.742  0.0530 -0.3110  0.1183
  546MOL0     C75259   7.593  11.062   8.771 -0.2571  0.2520 -0.8873
  546MOL0     C75260   7.496  11.162   8.782  1.3208  0.3050 -0.4567
  546MOL0     N75261   7.012  11.365   9.162 -0.2610  0.0668  0.4890
  546MOL0     N75262   6.947  11.270   9.231 -0.3496  0.1253  0.4319
  546MOL0     C75263   6.555  10.794   9.899  0.4027  0.4506 -0.2600
  546MOL0     C75264   6.675  10.761   9.961  0.2469 -0.5586  0.0250
  546MOL0     C75265   7.103  10.683   9.970 -0.5982  0.1320 -0.6338
  546MOL0     C75266   7.167  10.811   9.957  0.4431 -0.4344 -0.6999
  546MOL0     C75267   7.283  10.840  10.029 -0.4966  0.5289  0.8029
  546MOL0     C75268   7.338  10.737  10.114 -0.1409 -0.8556 -0.6123
  546MOL0     O75269   7.459  10.767  10.187  0.0035 -0.3632  0.9144
  546MOL0     C75270   7.566  10.739  10.090 -0.0851 -0.0233 -0.9476
  546MOL0     C75271   7.710  10.768  10.146 -0.0721  0.1725 -0.4679
  546MOL0     C75272   7.758  10.685  10.260 -1.1387  0.4664  0.4817
  546MOL0     C75273   7.724  10.733  10.399 -0.1794  0.4751  1.0203
  546MOL0     C75274   7.829  10.828  10.444 -0.2713 -0.0954  0.5469
  546MOL0     C75275   7.919  10.903  10.481  0.1900 -0.0507 -0.5158
  546MOL0     C75276   7.283  10.610  10.116  0.1229 -1.0114 -0.2613
  546MOL0     C75277   7.159  10.584  10.052 -0.5826 -1.0971  0.0656
  546MOL0     C75278   7.099  10.437  10.053 -1.1034 -0.9477  0.2131
  546MOL0     H75279   6.744  10.493   9.762 -1.5303 -1.4497  0.3898
  546MOL0     H75280   6.557  10.553   9.657  0.6612 -0.2946 -1.1015
  546MOL0     H75281   6.247  10.646   9.678  0.0157 -2.3655 -0.6827
  546MOL0     H75282   6.380  10.691   9.564  1.8154  1.9801  1.2649
  546MOL0     H75283   6.148  10.767   9.510 -3.2007 -1.8071  3.4773
  546MOL0     H75284   6.151  10.867   9.661 -0.4010 -0.3614 -0.1295
  546MOL0     H75285   6.209  11.016   9.471 -0.4026  1.5451  0.0723
  546MOL0     H75286   6.342  11.001   9.572  0.2780  0.1787 -1.7295
  546MOL0     H75287   6.415  10.810   9.410  0.4620  1.6174  3.8968
  546MOL0     H75288   6.289  10.848   9.306  0.5606 -0.7490  0.1731
  546MOL0     H75289   6.415  11.109   9.369 -1.2148 -1.0703  0.1478
  546MOL0     H75290   6.364  11.040   9.218  1.4714 -0.3514 -1.4128
  546MOL0     H75291   6.626  10.956   9.346 -1.2958  2.0870  0.9956
  546MOL0     H75292   6.562  10.902   9.189 -0.9440 -0.0913 -1.1645
  546MOL0     H75293   6.627  11.189   9.301  0.5445  0.5348 -0.1434
  546MOL0     H75294   6.593  11.157   9.134 -0.1811 -1.0501 -0.0085
  546MOL0     H75295   6.847  11.046   9.283  5.5176  1.5440 -2.0814
  546MOL0     H75296   6.801  11.006   9.110 -1.3044 -2.4652  1.4731
  546MOL0     H75297   6.785  11.233   8.957 -1.3301 -0.7303  1.9177
  546MOL0     H75298   6.910  11.552   8.973  0.0326  0.7319  0.1618
  546MOL0     H75299   6.908  11.426   8.845 -0.9971  0.1884  1.1952
  546MOL0     H75300   7.109  11.568   8.822  3.2194 -1.4734 -0.0373
  546MOL0     H75301   7.146  11.535   8.989 -2.1828 -0.8295  1.7928
  546MOL0     H75302   7.233  11.327   8.954 -0.9833  0.5192  1.6179
  546MOL0     H75303   7.104  11.293   8.827 -2.3290  3.4091 -1.4947
  546MOL0     H75304   7.272  11.469   8.697 -1.2801  0.8259 -0.4973
  546MOL0     H75305   7.388  11.395   8.808  1.3449  0.2608 -1.6325
  546MOL0     H75306   7.331  11.095   8.502  0.0326 -4.3345 -1.0004
  546MOL0     H75307   7.489  10.797   8.493  1.0005 -0.0296 -0.3885
  546MOL0     H75308   7.556  10.923   8.373 -0.2827 -1.3849  0.0145
  546MOL0     H75309   7.394  10.923   8.401  0.4072  0.9508  0.0884
  546MOL0     H75310   7.920  10.917   8.297  0.4078 -0.0623  0.2576
  546MOL0     H75311   8.028  10.713   8.199 -0.1698 -0.1986  0.8168
  546MOL0     H75312   8.018  10.475   8.100 -2.4283  0.0675  1.7882
  546MOL0     H75313   8.161  10.569   8.164  0.0588  0.3114  0.3345
  546MOL0     H75314   8.214  10.340   8.044 -2.0823  0.1459 -0.0801
  546MOL0     H75315   8.285  10.368   8.212 -2.3224  0.6250  2.9092
  546MOL0     H75316   8.026  10.218   8.161  0.5407  0.0752 -0.7185
  546MOL0     H75317   8.109  10.222   8.304  1.5441 -2.7766 -0.1632
  546MOL0     H75318   8.250  10.098   8.071 -0.1200  2.1312  0.4709
  546MOL0     H75319   8.144  10.006   8.175  0.8532 -1.2286  0.9355
  546MOL0     H75320   8.392  10.147   8.252  0.5160 -2.2361 -4.8732
  546MOL0     H75321   8.268  10.090   8.370 -4.9539  1.5971 -2.5419
  546MOL0     H75322   8.417   9.912   8.167  0.7399 -0.2795  0.8197
  546MOL0     H75323   8.307   9.851   8.289  1.6000  0.2150  5.7213
  546MOL0     H75324   8.448   9.901   8.475  1.5604 -1.6024 -0.0342
  546MOL0     H75325   8.535  10.027   8.403 -0.4009  0.1653 -0.0292
  546MOL0     H75326   8.682   9.842   8.413 -0.5737  1.2390  0.1750
  546MOL0     H75327   8.640   9.834   8.247  1.4489 -1.0457 -0.1586
  546MOL0     H75328   7.917  10.467   8.510  0.1760 -0.2886 -1.8648
  546MOL0     H75329   7.792  10.651   8.621  0.2259  0.9068  0.4344
  546MOL0     H75330   7.672  11.070   8.845  0.4386 -0.5261 -1.5237
  546MOL0     H75331   7.497  11.221   8.873  2.9825  1.7106 -1.3345
  546MOL0     H75332   6.497  10.874   9.943  0.4208 -0.5836  1.7343
  546MOL0     H75333   6.715  10.818  10.044 -4.1391 -0.4760  2.4088
  546MOL0     H75334   7.115  10.882   9.894 -1.7445 -0.8555  0.5342
  546MOL0     H75335   7.326  10.937  10.005 -2.4606  1.5809  1.2645
  546MOL0     H75336   7.557  10.635  10.058  1.9261 -0.2510 -0.9342
  546MOL0     H75337   7.561  10.805  10.003  0.7823  1.2914 -0.0383
  546MOL0     H75338   7.720  10.873  10.173  0.9935 -0.7727  3.5805
  546MOL0     H75339   7.784  10.752  10.068  0.7929  2.3273 -0.1393
  546MOL0     H75340   7.722  10.581  10.254  0.6819 -0.1800  0.0978
  546MOL0     H75341   7.866  10.685  10.247 -0.7640  0.0011  3.0658
  546MOL0     H75342   7.742  10.647  10.464  1.7106  1.7094  2.2393
  546MOL0     H75343   7.619  10.758  10.411 -0.3039  0.6827 -0.3292
  546MOL0     H75344   7.994  10.975  10.510 -1.8950  2.9408 -2.0240
  546MOL0     H75345   7.322  10.532  10.180  0.7504  0.8691  1.7666
  546MOL0     H75346   7.026  10.417  10.133 -1.2903 -0.9646  0.0374
  546MOL0     H75347   7.046  10.409   9.962  1.0011 -2.5257 -0.6147
  546MOL0     H75348   7.182  10.366  10.070  1.4470  1.7800 -0.0553
  547MOL0     O75349  10.414  11.459   5.513 -0.0473  0.5651 -0.7274
  547MOL0     C75350  10.503  11.401   5.452  1.1507 -0.1472 -0.6245
  547MOL0     O75351  10.634  11.382   5.501 -0.5046 -0.1074 -0.0828
  547MOL0     C75352  10.660  11.421   5.630  0.1775  0.2904  0.2912
  547MOL0     C75353  10.632  11.337   5.737 -0.1295 -0.3984  0.0496
  547MOL0     C75354  10.652  11.371   5.873 -0.2967 -0.8518 -0.9817
  547MOL0     C75355  10.708  11.499   5.906  0.0706 -0.4426  0.1719
  547MOL0     O75356  10.741  11.533   6.038  0.6458 -1.1389  0.3260
  547MOL0     C75357  10.859  11.613   6.057  0.9782  0.1178  0.6971
  547MOL0     C75358  10.835  11.634   6.205  0.3597 -1.1640 -0.0176
  547MOL0     C75359  10.965  11.693   6.272  0.1791 -0.0641  0.1323
  547MOL0     C75360  11.067  11.583   6.297  0.7584 -0.3621 -0.7900
  547MOL0     C75361  11.167  11.600   6.419  0.4657 -0.4094  0.1140
  547MOL0     C75362  11.103  11.650   6.549 -0.4335  0.5221  0.3429
  547MOL0     C75363  11.207  11.638   6.668  0.0849 -0.5563  0.8717
  547MOL0     C75364  11.280  11.777   6.676 -0.9383 -0.4610 -0.3780
  547MOL0     N75365  11.407  11.778   6.753  0.6595  0.7661 -0.0799
  547MOL0     C75366  11.530  11.798   6.698 -0.0547 -1.0277 -0.2396
  547MOL0     C75367  11.617  11.809   6.800  0.4043 -0.1037  0.5308
  547MOL0     C75368  11.766  11.821   6.795 -0.0455 -0.2382  0.0749
  547MOL0     C75369  11.827  11.722   6.904 -0.2055 -0.2140  0.0712
  547MOL0     C75370  11.799  11.574   6.867  0.8556  0.5270  1.2369
  547MOL0     C75371  11.867  11.478   6.968 -0.0616  0.7099 -0.9253
  547MOL0     O75372  11.999  11.529   6.988  0.0451  0.1638  0.5487
  547MOL0     C75373  12.106  11.503   6.906  0.1219 -0.0944  0.5343
  547MOL0     C75374  12.226  11.581   6.934  0.8719  1.1160 -0.0328
  547MOL0     C75375  12.337  11.583   6.851  0.3159  0.3284 -0.1978
  547MOL0     C75376  12.455  11.664   6.895  0.0869  0.0853  0.1754
  547MOL0     C75377  12.335  11.509   6.733  0.3676  0.4367 -0.6026
  547MOL0     C75378  12.448  11.496   6.642 -0.0049 -0.2586  0.8970
  547MOL0     O75379  12.417  11.417   6.533 -0.3637 -0.4394  0.1747
  547MOL0     C75380  12.519  11.384   6.445  0.6009  0.7877  0.1157
  547MOL0     C75381  12.641  11.329   6.487  0.5611 -0.8047 -0.1961
  547MOL0     C75382  12.737  11.295   6.388 -0.6304 -0.3636  0.0632
  547MOL0     C75383  12.703  11.304   6.254  0.3850 -0.3792  0.6765
  547MOL0     O75384  12.789  11.270   6.157  0.3432 -0.5896 -0.6069
  547MOL0     C75385  12.824  11.368   6.059  0.0924  0.7850 -0.7126
  547MOL0     C75386  12.893  11.294   5.936  0.8242  0.2785 -0.5881
  547MOL0     C75387  12.804  11.198   5.854 -0.6358  0.8589 -0.5894
  547MOL0     C75388  12.784  11.056   5.918  0.8020  0.8856 -1.0801
  547MOL0     C75389  12.671  10.973   5.850  0.4175 -0.2310 -0.1100
  547MOL0     C75390  12.717  10.942   5.706 -1.0896 -0.4014 -0.1045
  547MOL0     C75391  12.819  10.830   5.721 -0.6561  0.5597  0.6036
  547MOL0     C75392  12.847  10.774   5.579  0.6259  0.3155 -0.3865
  547MOL0    Cl75393  12.996  10.675   5.613 -0.0412 -0.3439 -0.0719
  547MOL0     C75394  12.573  11.353   6.218  0.4059  1.1061  0.2141
  547MOL0     C75395  12.481  11.388   6.313  0.4671  0.2982  0.6694
  547MOL0     O75396  12.559  11.553   6.660  0.3091  0.2060 -0.4284
  547MOL0     C75397  12.211  11.441   6.702  0.3169  0.2434 -0.2307
  547MOL0     C75398  12.096  11.437   6.789  0.1913 -0.5929  0.7417
  547MOL0     N75399  11.541  11.800   6.915  0.3363  0.4906 -0.8575
  547MOL0     N75400  11.414  11.775   6.886 -0.2431  0.4252 -0.3410
  547MOL0     C75401  10.721  11.590   5.797 -0.6492  0.1680 -0.2367
  547MOL0     C75402  10.701  11.547   5.663 -0.7679  0.5257 -0.4318
  547MOL0     C75403  10.467  11.331   5.323  0.3679 -0.2673  0.3230
  547MOL0     C75404  10.564  11.259   5.261 -0.1274  0.0325  0.7053
  547MOL0     C75405  10.547  11.189   5.143 -0.7811 -0.0895  0.0954
  547MOL0     C75406  10.426  11.191   5.080 -1.0291  0.7515  0.7075
  547MOL0     O75407  10.432  11.116   4.964  0.1458  0.3854 -0.2467
  547MOL0     C75408  10.308  11.116   4.887  0.0825  0.4866 -0.2139
  547MOL0     C75409  10.335  11.047   4.758  0.7094  0.3004  0.3225
  547MOL0     C75410  10.415  11.139   4.660 -0.3519  0.5029 -0.5325
  547MOL0     C75411  10.447  11.075   4.521 -0.4213 -0.0423 -0.5481
  547MOL0     C75412  10.331  11.018   4.451 -0.1464 -0.1834  0.2514
  547MOL0     C75413  10.239  10.973   4.387  0.5795 -0.1653 -0.3445
  547MOL0     C75414  10.323  11.256   5.139 -0.3948 -0.7203 -0.1676
  547MOL0     C75415  10.336  11.317   5.260  0.2433 -0.5588 -0.0721
  547MOL0     C75416  10.201  11.364   5.321 -0.6202  0.5769 -0.6003
  547MOL0     H75417  10.585  11.242   5.714 -0.4764 -0.4960  1.1369
  547MOL0     H75418  10.633  11.297   5.951 -0.6362  2.1183  2.0021
  547MOL0     H75419  10.874  11.710   6.009  4.3860 -0.2695  0.7249
  547MOL0     H75420  10.952  11.560   6.032  0.4146 -0.1226 -1.0312
  547MOL0     H75421  10.762  11.716   6.209 -1.3335 -2.6450  1.2511
  547MOL0     H75422  10.785  11.551   6.254 -0.9492 -0.9200 -0.8837
  547MOL0     H75423  11.014  11.761   6.202 -0.0191 -1.5748 -1.5604
  547MOL0     H75424  10.935  11.742   6.365 -0.9614  0.0129 -0.2627
  547MOL0     H75425  11.015  11.491   6.326  0.6731 -0.0456  0.1028
  547MOL0     H75426  11.125  11.561   6.207 -0.3340 -0.9527 -1.3620
  547MOL0     H75427  11.233  11.683   6.392  0.1995  0.5792  2.3195
  547MOL0     H75428  11.213  11.501   6.428  2.0683  0.3070  0.0695
  547MOL0     H75429  11.053  11.747   6.545 -1.5722 -0.0882 -1.5048
  547MOL0     H75430  11.025  11.573   6.558  0.9880 -0.7919  2.2040
  547MOL0     H75431  11.280  11.562   6.638 -0.3027 -0.5235 -0.1759
  547MOL0     H75432  11.159  11.619   6.765  0.9924  1.8900  1.8909
  547MOL0     H75433  11.299  11.826   6.580 -0.0925 -2.0531 -1.0656
  547MOL0     H75434  11.225  11.845   6.741  1.3305 -0.3171  1.5430
  547MOL0     H75435  11.557  11.822   6.595  2.4918 -0.6519  0.4284
  547MOL0     H75436  11.800  11.924   6.806  2.3162 -0.3892 -3.9563
  547MOL0     H75437  11.808  11.794   6.697  1.9436 -1.0564  1.0958
  547MOL0     H75438  11.934  11.746   6.905 -0.3666  0.7841  3.1427
  547MOL0     H75439  11.785  11.740   7.003 -1.2024 -1.0098 -0.1957
  547MOL0     H75440  11.693  11.547   6.861  0.9650  0.2656  0.3544
  547MOL0     H75441  11.844  11.549   6.771 -3.2445  1.9048 -1.3115
  547MOL0     H75442  11.806  11.485   7.059  1.0417  3.4520 -0.2902
  547MOL0     H75443  11.884  11.376   6.935  3.6020  1.2805 -1.1700
  547MOL0     H75444  12.224  11.641   7.024  2.9440  0.1152  0.7573
  547MOL0     H75445  12.539  11.600   6.922 -0.5472 -2.0123 -2.4197
  547MOL0     H75446  12.420  11.724   6.980  0.0027  1.4033 -0.7689
  547MOL0     H75447  12.482  11.744   6.826  2.6226  1.9020  3.0312
  547MOL0     H75448  12.671  11.346   6.590  0.2164  0.1443 -0.2382
  547MOL0     H75449  12.840  11.264   6.400 -0.6557 -1.0894 -1.3796
  547MOL0     H75450  12.734  11.415   6.018 -0.2601 -0.4282 -1.3510
  547MOL0     H75451  12.889  11.443   6.106  0.2019 -0.9469  2.1670
  547MOL0     H75452  12.931  11.367   5.863 -3.0657  4.1006  0.7356
  547MOL0     H75453  12.969  11.229   5.979  3.5044  2.9842 -0.8505
  547MOL0     H75454  12.866  11.180   5.765  2.9962  2.5112  1.3866
  547MOL0     H75455  12.710  11.248   5.830 -2.3756 -0.0624  3.4794
  547MOL0     H75456  12.752  11.067   6.022 -0.9259 -5.2257 -0.5926
  547MOL0     H75457  12.878  11.001   5.925  0.3695  0.2004 -0.5662
  547MOL0     H75458  12.641  10.881   5.902  0.1895  0.2933  0.6960
  547MOL0     H75459  12.590  11.045   5.836  1.1459  0.1287 -3.2697
  547MOL0     H75460  12.764  11.026   5.653  1.0780 -0.8893  0.8932
  547MOL0     H75461  12.643  10.910   5.633  2.0488 -2.5755 -2.6169
  547MOL0     H75462  12.791  10.761   5.801  1.8424 -3.1433 -1.3888
  547MOL0     H75463  12.911  10.881   5.754 -0.7223  0.4855  0.9084
  547MOL0     H75464  12.859  10.865   5.520 -0.9638  0.5250 -0.4296
  547MOL0     H75465  12.767  10.714   5.536 -1.5238  0.5332  2.8970
  547MOL0     H75466  12.555  11.361   6.112 -1.2219 -1.5777  0.2095
  547MOL0     H75467  12.392  11.429   6.267  1.8521 -0.2554 -2.8440
  547MOL0     H75468  12.196  11.388   6.609 -1.6173  0.2510  0.0374
  547MOL0     H75469  12.009  11.376   6.772 -0.3960 -0.4877  3.0615
  547MOL0     H75470  10.759  11.691   5.810  0.0985 -0.3041  1.4900
  547MOL0     H75471  10.724  11.622   5.588  0.2476 -2.4893 -3.3592
  547MOL0     H75472  10.667  11.260   5.294  0.4825 -2.1128 -0.8592
  547MOL0     H75473  10.631  11.137   5.100  1.4374  3.1311  0.1839
  547MOL0     H75474  10.228  11.059   4.935  0.3394 -0.1548 -0.5458
  547MOL0     H75475  10.265  11.215   4.867  1.8201  0.9287 -2.0692
  547MOL0     H75476  10.241  11.037   4.702  1.0573 -2.7646  0.1216
  547MOL0     H75477  10.380  10.948   4.771  2.2605  1.0623  0.8985
  547MOL0     H75478  10.355  11.230   4.661 -2.6470 -0.8927  0.9166
  547MOL0     H75479  10.514  11.166   4.696 -0.5322  2.9450 -1.7122
  547MOL0     H75480  10.514  10.990   4.542  2.0981  0.6934 -4.5423
  547MOL0     H75481  10.512  11.145   4.467  0.0013  0.1866  0.2402
  547MOL0     H75482  10.162  10.917   4.338 -1.1661  1.0101  0.9256
  547MOL0     H75483  10.228  11.250   5.086  1.6314 -1.7102 -4.0575
  547MOL0     H75484  10.184  11.471   5.302  1.5394  1.2062  0.5743
  547MOL0     H75485  10.116  11.306   5.285 -0.5468  0.8782 -1.2866
  547MOL0     H75486  10.199  11.352   5.429 -2.9903 -0.1899 -0.6738
  548MOL0     O75487   7.098   3.182   5.295  0.1871  0.3543  0.6599
  548MOL0     C75488   7.090   3.304   5.308 -0.5471 -0.3594 -1.1216
  548MOL0     O75489   7.199   3.392   5.268  0.3495 -0.0512  0.0000
  548MOL0     C75490   7.293   3.343   5.182 -0.8847  0.0729 -0.6995
  548MOL0     C75491   7.435   3.386   5.191 -0.4115  0.5336 -0.2001
  548MOL0     C75492   7.521   3.339   5.098  0.3007  0.7207  0.8208
  548MOL0     C75493   7.479   3.257   4.984  0.0743 -0.0969  0.1643
  548MOL0     O75494   7.576   3.219   4.889  0.1786  0.7268 -0.4370
  548MOL0     C75495   7.696   3.158   4.941 -1.0319  0.2131  0.0628
  548MOL0     C75496   7.671   3.046   5.043  0.6509  0.1165 -0.6771
  548MOL0     C75497   7.575   2.932   5.003 -0.9160 -0.6897  0.7186
  548MOL0     C75498   7.629   2.851   4.891  0.0524 -0.1431 -0.6029
  548MOL0     C75499   7.588   2.707   4.877  0.8133 -0.2355  0.5076
  548MOL0     C75500   7.437   2.697   4.839 -0.0355  0.9507 -0.9913
  548MOL0     C75501   7.376   2.558   4.832 -0.2144  0.2906  0.5075
  548MOL0     C75502   7.225   2.576   4.783 -0.1983 -0.2739 -0.0012
  548MOL0     N75503   7.213   2.626   4.641 -0.3502 -0.0228  0.3376
  548MOL0     C75504   7.227   2.761   4.604  0.1040  0.5367 -1.2401
  548MOL0     C75505   7.200   2.764   4.472  1.0875 -0.4776  0.2437
  548MOL0     C75506   7.186   2.891   4.395 -0.0224  1.1413 -0.3191
  548MOL0     C75507   7.257   2.885   4.250 -0.7238 -0.8447 -0.0619
  548MOL0     C75508   7.210   3.002   4.167 -0.1433  0.5935  0.6004
  548MOL0     C75509   7.270   3.028   4.027 -0.2522  0.1400 -0.9425
  548MOL0     O75510   7.403   3.080   4.024  0.6001  0.7982  0.3739
  548MOL0     C75511   7.511   2.996   4.018 -1.0972 -0.4784 -0.1614
  548MOL0     C75512   7.629   3.067   4.017  0.0154  0.2018  0.1035
  548MOL0     C75513   7.750   3.010   4.006  0.6902  0.4229 -0.4606
  548MOL0     C75514   7.864   3.101   3.963  0.7504  0.5128 -0.1028
  548MOL0     C75515   7.767   2.866   4.013 -0.3994  0.7782 -0.6018
  548MOL0     C75516   7.899   2.786   3.996 -0.0918  0.7632 -0.0344
  548MOL0     O75517   8.015   2.851   4.012  0.7643  1.0864 -0.1058
  548MOL0     C75518   8.136   2.794   3.964  0.6173  0.6172  0.3743
  548MOL0     C75519   8.162   2.753   3.833  0.3210 -0.0893 -0.5693
  548MOL0     C75520   8.282   2.701   3.796 -0.0250  0.2007 -0.5164
  548MOL0     C75521   8.392   2.702   3.881  0.4789  0.5015  0.6168
  548MOL0     O75522   8.508   2.635   3.852 -0.8657  0.3677  0.0360
  548MOL0     C75523   8.480   2.494   3.797 -0.0874 -1.5260  0.0499
  548MOL0     C75524   8.621   2.428   3.777  0.3588  0.0615  0.6126
  548MOL0     C75525   8.682   2.385   3.903 -0.3454  0.2831 -0.6750
  548MOL0     C75526   8.800   2.286   3.882  0.1454 -0.8685  0.7544
  548MOL0     C75527   8.867   2.253   4.013 -0.2381  0.0565 -0.6187
  548MOL0     C75528   8.962   2.131   3.998  0.2254 -0.7312  0.5202
  548MOL0     C75529   9.060   2.127   4.121  0.7908  0.1533 -0.5162
  548MOL0     C75530   9.178   2.030   4.097 -0.0577  0.4046 -0.4750
  548MOL0    Cl75531   9.232   1.953   4.250  0.4428  0.0088  0.1843
  548MOL0     C75532   8.371   2.747   4.009 -0.4867  0.4671  0.1051
  548MOL0     C75533   8.242   2.796   4.051  0.2433 -0.7087  0.7966
  548MOL0     O75534   7.887   2.666   3.965 -0.2739  0.5921  0.3927
  548MOL0     C75535   7.641   2.800   4.030  0.2357 -0.4320  1.3029
  548MOL0     C75536   7.516   2.869   4.015 -0.6489 -0.4003 -0.4776
  548MOL0     N75537   7.171   2.634   4.435  0.2432 -0.1729  0.1546
  548MOL0     N75538   7.180   2.548   4.535 -0.1429 -0.5971 -0.1700
  548MOL0     C75539   7.342   3.235   4.964  0.1312  0.0229 -0.9652
  548MOL0     C75540   7.249   3.275   5.063 -0.5819  1.3554  0.4979
  548MOL0     C75541   6.981   3.368   5.393 -0.4805  0.0046  0.3829
  548MOL0     C75542   7.007   3.490   5.447 -0.4433 -0.2549 -0.0814
  548MOL0     C75543   6.915   3.561   5.534 -0.5874 -0.9148  0.1025
  548MOL0     C75544   6.790   3.504   5.551 -0.0508 -0.5269 -0.5841
  548MOL0     O75545   6.700   3.581   5.627  0.6468 -0.0815 -0.5448
  548MOL0     C75546   6.562   3.545   5.625 -0.1725  0.2205 -0.1254
  548MOL0     C75547   6.485   3.662   5.698 -0.0677 -1.0218 -0.1362
  548MOL0     C75548   6.331   3.650   5.699  0.4082 -0.0839 -0.6277
  548MOL0     C75549   6.281   3.632   5.554  0.4116 -0.3927 -0.6088
  548MOL0     C75550   6.329   3.729   5.453 -0.2863  0.7056  0.4094
  548MOL0     C75551   6.365   3.811   5.368 -0.2588  0.0349  0.1536
  548MOL0     C75552   6.762   3.385   5.483  0.3823  0.2815  0.3306
  548MOL0     C75553   6.858   3.313   5.414  0.6256 -0.9631  0.0152
  548MOL0     C75554   6.810   3.170   5.376 -0.5102  0.3012  0.2396
  548MOL0     H75555   7.474   3.446   5.273  0.1456  2.9738 -2.1143
  548MOL0     H75556   7.620   3.381   5.113  0.0485  1.6500  0.0285
  548MOL0     H75557   7.748   3.235   4.999 -2.3372  0.2405  1.2396
  548MOL0     H75558   7.764   3.128   4.860  0.6281 -1.0766  1.8337
  548MOL0     H75559   7.774   3.019   5.067 -0.3586 -2.4113  1.2456
  548MOL0     H75560   7.630   3.083   5.138 -2.8960 -4.4693 -0.0924
  548MOL0     H75561   7.566   2.860   5.084 -0.9198 -1.2503  0.2277
  548MOL0     H75562   7.476   2.962   4.967 -1.0634 -0.6973  1.1126
  548MOL0     H75563   7.598   2.900   4.798 -3.4202 -0.3611  0.3129
  548MOL0     H75564   7.738   2.859   4.898 -0.1133  1.2463  0.9471
  548MOL0     H75565   7.613   2.650   4.967  1.1370  1.2518  1.3997
  548MOL0     H75566   7.650   2.650   4.807 -0.2458 -0.7016 -0.0819
  548MOL0     H75567   7.387   2.742   4.925  0.0760  0.7190 -0.8064
  548MOL0     H75568   7.427   2.767   4.755  0.6984 -0.3433 -2.2024
  548MOL0     H75569   7.376   2.504   4.927 -1.1307 -1.0823 -0.2413
  548MOL0     H75570   7.420   2.492   4.757 -1.9686  2.3771 -2.6173
  548MOL0     H75571   7.177   2.479   4.793 -1.8564 -0.3504 -5.4912
  548MOL0     H75572   7.162   2.644   4.841  0.5812  0.8300 -0.3997
  548MOL0     H75573   7.270   2.844   4.659  1.6428 -1.5284  0.8994
  548MOL0     H75574   7.242   2.967   4.449  0.5521  0.2731  0.3416
  548MOL0     H75575   7.081   2.920   4.387  0.1320  1.8002  0.0538
  548MOL0     H75576   7.365   2.890   4.263 -0.9183 -0.3874  1.6388
  548MOL0     H75577   7.234   2.788   4.205  1.2755 -1.8054  0.8669
  548MOL0     H75578   7.104   2.984   4.149 -0.1173  0.1323  0.9113
  548MOL0     H75579   7.231   3.095   4.221  0.2146  0.0592  1.3926
  548MOL0     H75580   7.266   2.940   3.962 -0.3316  0.6900 -1.7061
  548MOL0     H75581   7.204   3.107   3.990  0.7698  1.3760 -0.2099
  548MOL0     H75582   7.622   3.175   4.020 -0.7504  0.3843 -3.5772
  548MOL0     H75583   7.827   3.196   3.924  1.1291 -0.6924 -3.9013
  548MOL0     H75584   7.925   3.062   3.880  2.4182  1.1214  0.8089
  548MOL0     H75585   7.930   3.113   4.049  0.8412  1.3091 -0.2823
  548MOL0     H75586   8.072   2.761   3.773  0.8476 -0.6501 -1.4571
  548MOL0     H75587   8.290   2.669   3.693  3.8283  1.5293 -0.7959
  548MOL0     H75588   8.409   2.446   3.865 -1.7333 -1.4004 -1.4976
  548MOL0     H75589   8.432   2.487   3.699  4.6355 -1.1392 -2.5808
  548MOL0     H75590   8.621   2.347   3.703  2.3015  0.6002 -0.0231
  548MOL0     H75591   8.687   2.497   3.723  1.0822  1.0406  2.6508
  548MOL0     H75592   8.602   2.348   3.967 -1.2898  2.1932 -0.6629
  548MOL0     H75593   8.715   2.473   3.960 -0.5695  0.5963 -1.0236
  548MOL0     H75594   8.871   2.339   3.817 -2.3708  2.1864  0.2573
  548MOL0     H75595   8.761   2.204   3.822  1.8259  0.0145 -1.7233
  548MOL0     H75596   8.933   2.333   4.047  3.1951 -1.6294 -2.8046
  548MOL0     H75597   8.791   2.234   4.089 -0.3492  0.4788 -0.6228
  548MOL0     H75598   9.022   2.162   3.912 -0.2044 -0.5385  0.2901
  548MOL0     H75599   8.896   2.045   3.982  0.8206 -1.3275  1.1867
  548MOL0     H75600   9.006   2.100   4.212 -0.5023  3.1458 -0.2877
  548MOL0     H75601   9.100   2.228   4.133  0.4417  0.4088 -1.4643
  548MOL0     H75602   9.264   2.079   4.051  1.0086  0.3571  1.3950
  548MOL0     H75603   9.151   1.959   4.018  2.4838  0.5158 -1.5212
  548MOL0     H75604   8.450   2.754   4.084 -1.2922 -2.2259  1.3420
  548MOL0     H75605   8.223   2.831   4.153 -1.0592 -0.3675  0.4617
  548MOL0     H75606   7.634   2.692   4.031  1.0802 -0.5057  0.3579
  548MOL0     H75607   7.428   2.806   4.020 -0.3725 -0.8525 -1.1805
  548MOL0     H75608   7.307   3.197   4.869 -3.9039  2.5572 -0.7161
  548MOL0     H75609   7.141   3.260   5.060 -0.6423  1.1913  2.2012
  548MOL0     H75610   7.100   3.544   5.431 -1.9503  2.1838 -1.1774
  548MOL0     H75611   6.932   3.657   5.580 -2.3977 -1.8877  3.0847
  548MOL0     H75612   6.527   3.551   5.521  3.5952 -1.0645 -1.6765
  548MOL0     H75613   6.548   3.443   5.662  3.2556 -0.9390 -1.5424
  548MOL0     H75614   6.519   3.760   5.665  0.9168 -1.4382 -0.4120
  548MOL0     H75615   6.510   3.651   5.804 -1.7228 -1.3235  0.2493
  548MOL0     H75616   6.313   3.572   5.773  0.5241  0.2274 -0.2697
  548MOL0     H75617   6.286   3.740   5.742 -1.5546 -1.1807 -0.2348
  548MOL0     H75618   6.172   3.629   5.547  0.4720 -0.6429 -1.5287
  548MOL0     H75619   6.303   3.528   5.528  0.2797 -0.7536  0.6512
  548MOL0     H75620   6.412   3.880   5.301  1.0102 -0.8985  0.0457
  548MOL0     H75621   6.662   3.343   5.494  1.6720 -2.8682  1.0479
  548MOL0     H75622   6.898   3.108   5.360 -2.0166 -1.2859 -2.7486
  548MOL0     H75623   6.764   3.125   5.464  0.5189 -4.3358 -1.3556
  548MOL0     H75624   6.732   3.169   5.298  2.1483  2.1108 -2.6673
  549MOL0     O75625   1.858   8.622   4.993  0.0368  1.3103  1.0078
  549MOL0     C75626   1.971   8.671   5.014 -0.5071 -0.2853  0.6342
  549MOL0     O75627   2.053   8.731   4.912  1.3138 -0.0034 -0.6048
  549MOL0     C75628   2.019   8.715   4.778 -0.3985  0.4075 -0.3826
  549MOL0     C75629   2.035   8.826   4.689  0.0496  0.4260  0.2709
  549MOL0     C75630   2.023   8.809   4.547 -0.4094  0.1763  0.3354
  549MOL0     C75631   2.014   8.680   4.496  0.1967 -0.1042  0.6397
  549MOL0     O75632   2.018   8.663   4.360 -0.0134  0.1526 -0.3974
  549MOL0     C75633   1.923   8.736   4.280 -1.2772 -0.8570 -0.7892
  549MOL0     C75634   1.907   8.690   4.136  0.0129  0.1350  0.1182
  549MOL0     C75635   1.798   8.581   4.107 -0.2294  1.0696  0.1370
  549MOL0     C75636   1.657   8.618   4.149 -0.1351 -0.2108  0.5535
  549MOL0     C75637   1.590   8.480   4.134 -0.1837  1.0989  0.1177
  549MOL0     C75638   1.436   8.506   4.168 -0.1022 -0.0865  0.5521
  549MOL0     C75639   1.334   8.388   4.190 -0.7340 -0.2135 -0.1120
  549MOL0     C75640   1.351   8.288   4.076  0.0363  0.4607 -0.3439
  549MOL0     N75641   1.246   8.186   4.085  0.0532  0.7566  0.8889
  549MOL0     C75642   1.208   8.113   4.190 -0.1119 -0.3849 -0.6227
  549MOL0     C75643   1.084   8.079   4.161 -0.2381  0.6633 -0.2537
  549MOL0     C75644   1.001   8.002   4.257 -0.0426  0.3125 -0.0920
  549MOL0     C75645   1.068   7.872   4.299 -0.2057  0.1479 -0.5335
  549MOL0     C75646   0.995   7.809   4.426 -0.5474  0.3278  0.6924
  549MOL0     C75647   1.055   7.847   4.545  0.6964 -0.7402 -0.7033
  549MOL0     O75648   0.984   7.775   4.653  0.1568  0.3972  0.7334
  549MOL0     C75649   0.993   7.831   4.773  0.0711 -0.6760  0.4826
  549MOL0     C75650   1.103   7.913   4.812  0.2228 -1.0440 -0.6744
  549MOL0     C75651   1.109   7.973   4.941 -0.6692 -0.2263 -0.2655
  549MOL0     C75652   1.239   8.045   4.958  0.6133  0.9978  0.0617
  549MOL0     C75653   1.018   7.942   5.039  0.2762  0.3902  0.3755
  549MOL0     C75654   1.017   7.999   5.177  0.2473 -0.2350  0.7339
  549MOL0     O75655   1.116   8.084   5.221  0.5237  0.1418 -0.8897
  549MOL0     C75656   1.095   8.157   5.335 -0.2747  0.4187  0.6267
  549MOL0     C75657   1.080   8.091   5.456 -0.2031 -0.6200  0.1662
  549MOL0     C75658   1.057   8.159   5.573 -0.1401 -0.4828  0.0653
  549MOL0     C75659   1.046   8.299   5.583 -0.2728 -0.1818 -0.4308
  549MOL0     O75660   1.028   8.363   5.698 -0.1981 -0.6329 -0.2966
  549MOL0     C75661   0.961   8.492   5.693 -0.5273  0.3275 -0.2578
  549MOL0     C75662   0.900   8.521   5.826 -0.1745  0.0230 -0.0534
  549MOL0     C75663   1.007   8.558   5.932 -0.4004 -0.3436 -0.8974
  549MOL0     C75664   0.930   8.567   6.058 -0.4483  0.4266  0.2677
  549MOL0     C75665   1.009   8.643   6.165 -0.4447  0.1956 -0.4276
  549MOL0     C75666   1.153   8.592   6.199  0.2876  0.4889 -0.2305
  549MOL0     C75667   1.197   8.629   6.338  0.6495  0.6848  0.3639
  549MOL0     C75668   1.308   8.547   6.392  0.3580  0.3357 -0.3750
  549MOL0    Cl75669   1.347   8.633   6.536 -0.2533 -0.1159 -0.1295
  549MOL0     C75670   1.048   8.367   5.459  0.4950 -0.3168 -0.0758
  549MOL0     C75671   1.076   8.293   5.336  0.8213 -0.6300 -0.8425
  549MOL0     O75672   0.910   7.970   5.240  0.3475 -0.0699 -0.3509
  549MOL0     C75673   0.926   7.840   5.002  0.1564  0.4835 -0.7189
  549MOL0     C75674   0.909   7.789   4.873 -0.0256 -0.2624 -0.7438
  549MOL0     N75675   1.041   8.130   4.042 -0.7223  0.1572 -0.6950
  549MOL0     N75676   1.139   8.190   3.994  0.4955 -0.4069  0.1487
  549MOL0     C75677   1.986   8.569   4.584 -0.8363 -0.2833 -0.4485
  549MOL0     C75678   1.996   8.589   4.726 -0.0713  0.2251  0.3430
  549MOL0     C75679   2.026   8.664   5.153 -0.4497 -0.2670 -0.7495
  549MOL0     C75680   2.102   8.778   5.200 -0.0555  1.0643 -0.6400
  549MOL0     C75681   2.142   8.787   5.332 -0.1169 -0.1399 -0.0626
  549MOL0     C75682   2.118   8.679   5.415 -0.3214 -0.2767  0.1263
  549MOL0     O75683   2.180   8.692   5.538 -1.1910 -0.1156 -0.0576
  549MOL0     C75684   2.097   8.669   5.644  0.4095  0.3278  0.2300
  549MOL0     C75685   2.159   8.720   5.778  0.2137  0.3188 -0.9916
  549MOL0     C75686   2.053   8.726   5.900  0.1686  0.6581  0.1594
  549MOL0     C75687   2.112   8.799   6.018  0.4683  0.0825 -0.2687
  549MOL0     C75688   2.060   8.937   6.005 -1.0237  0.9553 -0.1439
  549MOL0     C75689   1.994   9.034   5.990  0.3955 -0.1844 -0.1081
  549MOL0     C75690   2.044   8.568   5.370 -0.2566 -0.1259 -1.2510
  549MOL0     C75691   1.995   8.558   5.246  0.0790  1.2441  0.5112
  549MOL0     C75692   1.906   8.442   5.209 -0.1409  0.6399  0.1645
  549MOL0     H75693   2.061   8.924   4.729 -1.3994  0.0981  2.1724
  549MOL0     H75694   2.043   8.892   4.480 -1.5445  0.2249  0.0447
  549MOL0     H75695   1.960   8.839   4.287  0.1134 -1.1879 -2.6118
  549MOL0     H75696   1.829   8.728   4.335  0.1519 -0.5110  1.9274
  549MOL0     H75697   1.894   8.782   4.079 -0.1326 -1.2778 -2.2769
  549MOL0     H75698   2.001   8.648   4.098 -0.3064 -2.3838  1.8439
  549MOL0     H75699   1.794   8.567   3.999 -1.0502 -2.1945  0.4935
  549MOL0     H75700   1.840   8.490   4.152  0.2697  0.9222 -0.6032
  549MOL0     H75701   1.651   8.659   4.250  2.1472  4.3630 -0.8874
  549MOL0     H75702   1.613   8.694   4.083 -2.4261 -1.2978  0.7163
  549MOL0     H75703   1.627   8.408   4.208  1.8165  1.2867 -0.6611
  549MOL0     H75704   1.600   8.440   4.033 -3.2460 -2.6046  1.0061
  549MOL0     H75705   1.415   8.568   4.256 -0.5863 -1.1366  1.1885
  549MOL0     H75706   1.403   8.559   4.077 -1.2423 -2.2691 -0.3795
  549MOL0     H75707   1.238   8.439   4.191 -1.0749 -0.8357  1.7953
  549MOL0     H75708   1.352   8.344   4.288  0.6978  0.0190 -0.2455
  549MOL0     H75709   1.343   8.323   3.973  1.9361  0.0440 -0.6678
  549MOL0     H75710   1.454   8.253   4.087 -0.5496 -1.2597 -0.0014
  549MOL0     H75711   1.264   8.096   4.281 -1.3308  0.2865  0.2760
  549MOL0     H75712   0.904   7.975   4.214 -0.3470  2.4684 -0.8596
  549MOL0     H75713   0.983   8.072   4.339 -1.0761  2.4833 -2.0635
  549MOL0     H75714   1.061   7.799   4.217  0.6860 -1.1709  0.5291
  549MOL0     H75715   1.175   7.889   4.313 -0.2927  0.4852 -0.2740
  549MOL0     H75716   0.892   7.847   4.418 -0.2781  0.7252 -1.7333
  549MOL0     H75717   0.997   7.701   4.410  0.0357  0.4323  0.0001
  549MOL0     H75718   1.161   7.822   4.541  1.0650  0.7091 -0.8915
  549MOL0     H75719   1.046   7.957   4.543 -1.3882 -0.8740 -1.0581
  549MOL0     H75720   1.175   7.943   4.737 -2.1879  0.7610 -2.4485
  549MOL0     H75721   1.221   8.151   4.980  1.0110  0.7276  1.8421
  549MOL0     H75722   1.301   8.034   4.869 -0.2977 -5.4894 -0.2403
  549MOL0     H75723   1.292   7.981   5.029 -0.2688 -1.7105 -1.5545
  549MOL0     H75724   1.088   7.983   5.446  0.5936 -0.3981 -1.9135
  549MOL0     H75725   1.044   8.102   5.664  1.9118 -1.7169 -0.3551
  549MOL0     H75726   1.027   8.572   5.657 -1.3486  1.3722  0.4997
  549MOL0     H75727   0.877   8.476   5.625 -0.6515 -1.9472  0.3306
  549MOL0     H75728   0.836   8.609   5.818 -0.2755  0.0561  1.0179
  549MOL0     H75729   0.825   8.449   5.859  0.2357 -0.6738 -0.6136
  549MOL0     H75730   1.058   8.649   5.902  0.9502 -0.7556  0.0596
  549MOL0     H75731   1.090   8.487   5.931  0.1988  0.3055 -3.5179
  549MOL0     H75732   0.903   8.463   6.080  1.4963 -0.2670 -0.3938
  549MOL0     H75733   0.846   8.637   6.050  0.6270  2.3255  3.4407
  549MOL0     H75734   1.020   8.750   6.146 -0.6012  0.3359  0.2415
  549MOL0     H75735   0.943   8.647   6.252 -0.5587  1.7990 -0.5539
  549MOL0     H75736   1.234   8.622   6.132  0.0853 -2.0559 -1.7093
  549MOL0     H75737   1.140   8.484   6.190 -1.5985  0.7404 -1.2102
  549MOL0     H75738   1.110   8.621   6.403 -0.7467 -1.7795 -1.6030
  549MOL0     H75739   1.230   8.733   6.332 -2.5187  1.7692 -0.2602
  549MOL0     H75740   1.395   8.544   6.324  0.0787  1.6467 -0.8133
  549MOL0     H75741   1.277   8.445   6.418  1.3025  0.2695  0.5727
  549MOL0     H75742   1.036   8.474   5.452 -1.7410 -0.5688 -0.9236
  549MOL0     H75743   1.082   8.354   5.247  0.0956  3.1000  1.4153
  549MOL0     H75744   0.859   7.804   5.079  0.7203 -0.0453 -0.4728
  549MOL0     H75745   0.834   7.713   4.854  0.6873 -0.8252 -1.3986
  549MOL0     H75746   1.959   8.474   4.538 -0.5204 -0.3255 -0.5473
  549MOL0     H75747   1.981   8.506   4.795 -1.2167 -0.7382 -1.0282
  549MOL0     H75748   2.115   8.867   5.139 -1.3047  2.2387  0.7528
  549MOL0     H75749   2.193   8.873   5.374 -1.3237 -0.1510  1.5265
  549MOL0     H75750   2.010   8.734   5.638 -0.3679 -0.4742  2.1181
  549MOL0     H75751   2.061   8.566   5.654 -0.2411  0.1983 -2.5661
  549MOL0     H75752   2.206   8.819   5.776 -0.3331  0.6389  0.5849
  549MOL0     H75753   2.234   8.648   5.811 -1.8639 -1.0656  1.0124
  549MOL0     H75754   1.957   8.764   5.863  1.5220  2.4434 -1.8166
  549MOL0     H75755   2.037   8.625   5.939  2.3914 -0.4274 -1.4970
  549MOL0     H75756   2.221   8.803   6.009  0.5267 -1.2221 -0.3580
  549MOL0     H75757   2.074   8.753   6.109 -0.3534 -1.3967 -1.3250
  549MOL0     H75758   1.952   9.131   5.970 -1.2557 -0.4634  1.6238
  549MOL0     H75759   2.013   8.482   5.428 -1.0983  0.3635 -0.9623
  549MOL0     H75760   1.951   8.388   5.126 -0.2504 -1.5805  1.4615
  549MOL0     H75761   1.886   8.365   5.284  4.2394 -3.3597 -2.2463
  549MOL0     H75762   1.803   8.466   5.180 -1.2831 -2.7928  0.8563
  550MOL0     O75763   0.290  10.303   7.947  0.7069  0.0366 -0.1602
  550MOL0     C75764   0.330  10.188   7.981  0.2953  0.2194  0.0365
  550MOL0     O75765   0.367  10.148   8.103 -0.0208  0.1246  0.2815
  550MOL0     C75766   0.359  10.246   8.203 -0.9207 -0.7026  0.1574
  550MOL0     C75767   0.451  10.353   8.201  0.0185  0.0751  0.6016
  550MOL0     C75768   0.459  10.441   8.313  0.6295 -0.3386 -1.0947
  550MOL0     C75769   0.377  10.411   8.426 -0.0715  0.1508  0.9698
  550MOL0     O75770   0.370  10.496   8.538  0.9098  0.3217  0.6175
  550MOL0     C75771   0.478  10.479   8.631 -0.7382  0.2800 -0.0006
  550MOL0     C75772   0.432  10.411   8.761  0.3767 -0.0663  0.2744
  550MOL0     C75773   0.515  10.451   8.890  0.6871 -0.2399 -0.3411
  550MOL0     C75774   0.492  10.344   8.994 -0.2638  0.8192 -0.1838
  550MOL0     C75775   0.585  10.363   9.122  0.2142  0.1591  0.7283
  550MOL0     C75776   0.739  10.368   9.096  0.3500  0.6390 -0.2960
  550MOL0     C75777   0.810  10.369   9.230  0.2703 -0.0572 -0.1403
  550MOL0     C75778   0.796  10.228   9.302  0.3355 -0.8605 -0.3401
  550MOL0     N75779   0.743  10.237   9.436 -0.0408  0.0677 -0.4502
  550MOL0     C75780   0.613  10.224   9.482  0.4508  0.0394 -0.2481
  550MOL0     C75781   0.624  10.266   9.607  1.3123  0.4857 -0.6666
  550MOL0     C75782   0.500  10.279   9.695  0.4830  0.1758 -0.4068
  550MOL0     C75783   0.467  10.424   9.754  0.3836 -0.7597  0.2870
  550MOL0     C75784   0.364  10.409   9.860  0.0377 -0.6103 -0.5085
  550MOL0     C75785   0.340  10.542   9.920 -0.0752  0.3645 -0.4189
  550MOL0     O75786   0.277  10.633   9.839  0.5384 -0.0557 -0.4227
  550MOL0     C75787   0.302  10.771   9.855  0.1881  0.0954 -0.7089
  550MOL0     C75788   0.321  10.856   9.752 -0.2968  0.1030 -0.0647
  550MOL0     C75789   0.365  10.992   9.758  0.2782  0.3092  0.6361
  550MOL0     C75790   0.378  11.073   9.622 -0.3264 -0.5062 -1.2116
  550MOL0     C75791   0.373  11.050   9.888 -0.4883  0.5655 -0.6007
  550MOL0     C75792   0.394  11.192   9.923  0.4597 -0.2703  0.4033
  550MOL0     O75793   0.408  11.216  10.056  0.7174 -0.3094  0.4968
  550MOL0     C75794   0.402  11.340  10.120  0.4701 -0.3653  0.5207
  550MOL0     C75795   0.387  11.337  10.262  0.0048  0.6967  0.4335
  550MOL0     C75796   0.394  11.450  10.337 -0.0854 -0.4101 -0.3314
  550MOL0     C75797   0.406  11.577  10.276  0.1136  0.7676 -0.0311
  550MOL0     O75798   0.413  11.696  10.341  0.0211 -0.2788 -0.1132
  550MOL0     C75799   0.453  11.694  10.476  0.1741  0.1673 -0.7411
  550MOL0     C75800   0.439  11.825  10.562  0.0332 -1.3165  0.7523
  550MOL0     C75801   0.503  11.947  10.492 -0.1123 -0.0033  0.1503
  550MOL0     C75802   0.513  12.061  10.598  0.0113  0.1865  0.6400
  550MOL0     C75803   0.568  12.192  10.536 -0.1794 -0.2125 -0.0601
  550MOL0     C75804   0.466  12.268  10.465 -0.0559  0.0768  0.6015
  550MOL0     C75805   0.366  12.333  10.557  1.0627  0.3344  0.3205
  550MOL0     C75806   0.270  12.413  10.467 -0.3034  0.7636  0.2163
  550MOL0    Cl75807   0.158  12.305  10.366 -0.3723 -0.4174 -0.5218
  550MOL0     C75808   0.410  11.588  10.144 -0.2699 -0.3596  0.4011
  550MOL0     C75809   0.398  11.472  10.062  0.6047  0.1021 -0.3439
  550MOL0     O75810   0.397  11.276   9.831 -0.0929  0.3789 -0.2167
  550MOL0     C75811   0.347  10.956   9.997  0.1833  0.0177 -0.0209
  550MOL0     C75812   0.311  10.829   9.978  0.1323  0.0985 -0.3774
  550MOL0     N75813   0.756  10.276   9.638  0.3168 -0.2468 -1.1183
  550MOL0     N75814   0.828  10.259   9.537 -0.4884 -0.3772 -0.2039
  550MOL0     C75815   0.296  10.302   8.430  0.7068 -0.2336  0.8588
  550MOL0     C75816   0.279  10.216   8.317 -0.1842  0.3395 -0.8804
  550MOL0     C75817   0.325  10.077   7.872 -0.1269  0.1049 -1.4368
  550MOL0     C75818   0.396   9.961   7.892  0.2270  0.6053 -0.2986
  550MOL0     C75819   0.407   9.856   7.800  0.7754  0.7452  0.2719
  550MOL0     C75820   0.348   9.866   7.679 -0.5508  0.0274  0.5455
  550MOL0     O75821   0.390   9.776   7.585  0.0389  0.0303  0.3596
  550MOL0     C75822   0.403   9.799   7.445 -0.1800  0.0414 -0.2495
  550MOL0     C75823   0.531   9.882   7.411 -0.8210  0.2487 -0.3476
  550MOL0     C75824   0.665   9.819   7.452  0.0067 -0.0819  0.1367
  550MOL0     C75825   0.712   9.856   7.597 -0.2953  0.4960  0.1023
  550MOL0     C75826   0.864   9.853   7.585  0.3358  0.5402  0.4413
  550MOL0     C75827   0.984   9.855   7.564 -0.2406  0.3268 -0.5519
  550MOL0     C75828   0.281   9.982   7.652  0.2973 -0.2022  0.3315
  550MOL0     C75829   0.269  10.088   7.743 -0.0290  1.2641  0.0084
  550MOL0     C75830   0.178  10.202   7.700 -0.7083  0.1339 -0.5614
  550MOL0     H75831   0.507  10.365   8.109 -2.4909 -2.1635 -1.3589
  550MOL0     H75832   0.515  10.533   8.301 -1.6954  1.5320  1.2184
  550MOL0     H75833   0.510  10.582   8.649  3.9733 -0.8164 -0.8137
  550MOL0     H75834   0.566  10.430   8.590  0.1322  1.1134  0.8087
  550MOL0     H75835   0.327  10.439   8.777 -0.6536 -3.0383 -0.5122
  550MOL0     H75836   0.442  10.304   8.739 -1.9150  0.1630 -2.4851
  550MOL0     H75837   0.617  10.465   8.852 -0.4943  2.0532 -3.0224
  550MOL0     H75838   0.485  10.546   8.936 -1.3786 -2.0041  2.2687
  550MOL0     H75839   0.393  10.357   9.039 -1.0961 -0.1433 -1.6328
  550MOL0     H75840   0.495  10.240   8.958  0.0944  0.3075  1.2598
  550MOL0     H75841   0.571  10.286   9.199  0.5573  1.3607  2.0264
  550MOL0     H75842   0.554  10.457   9.168 -3.6874 -1.7044  2.3848
  550MOL0     H75843   0.772  10.282   9.037  1.3327 -0.9107  2.3516
  550MOL0     H75844   0.765  10.459   9.042  1.1025  0.9623  0.6002
  550MOL0     H75845   0.778  10.448   9.299  3.3539 -0.2943  1.7258
  550MOL0     H75846   0.916  10.391   9.216  0.0695  0.5617 -0.7516
  550MOL0     H75847   0.735  10.161   9.241 -0.0018 -2.7716  1.9693
  550MOL0     H75848   0.897  10.185   9.301  1.8578  2.4455 -0.6291
  550MOL0     H75849   0.527  10.185   9.429 -0.6409  1.3293  0.5250
  550MOL0     H75850   0.526  10.214   9.779 -0.1778  0.4020 -0.0152
  550MOL0     H75851   0.406  10.241   9.655  1.0979 -2.0250  0.1231
  550MOL0     H75852   0.563  10.464   9.789  0.9015  2.3540 -3.9289
  550MOL0     H75853   0.445  10.489   9.669  3.3332  0.9147  0.6870
  550MOL0     H75854   0.275  10.361   9.818  1.2690 -0.6414 -3.3223
  550MOL0     H75855   0.396  10.346   9.944  5.2342 -0.3823 -1.9795
  550MOL0     H75856   0.279  10.530  10.009  1.0376  0.6373  0.4044
  550MOL0     H75857   0.432  10.584   9.962 -0.3414 -0.3022  0.8865
  550MOL0     H75858   0.298  10.825   9.651 -2.7717 -1.3467  0.8599
  550MOL0     H75859   0.364  10.997   9.545 -0.3125 -2.4502  0.6073
  550MOL0     H75860   0.474  11.126   9.614 -2.3611  3.9157  0.0805
  550MOL0     H75861   0.300  11.150   9.621  0.5163  0.4107  0.2507
  550MOL0     H75862   0.383  11.238  10.307  0.8449  0.4974  0.0804
  550MOL0     H75863   0.391  11.430  10.443 -1.9428  0.3562 -0.2019
  550MOL0     H75864   0.393  11.621  10.531  1.8710 -0.3252  0.5559
  550MOL0     H75865   0.558  11.663  10.482  0.3623  0.9517  0.2953
  550MOL0     H75866   0.332  11.845  10.577 -0.4237 -4.1826  2.0402
  550MOL0     H75867   0.462  11.814  10.668  0.4053 -0.8617  0.7217
  550MOL0     H75868   0.433  11.978  10.414  0.9547 -0.8938 -1.1900
  550MOL0     H75869   0.606  11.943  10.456  0.2513  4.1228  0.1965
  550MOL0     H75870   0.580  12.016  10.671  2.8805  0.8059 -1.4374
  550MOL0     H75871   0.415  12.073  10.646  0.2252 -1.9426  1.7267
  550MOL0     H75872   0.616  12.249  10.615 -2.5104  0.4649  0.9552
  550MOL0     H75873   0.654  12.173  10.471  0.2255  2.6426 -0.5034
  550MOL0     H75874   0.416  12.198  10.397  1.6511 -1.3305  0.7473
  550MOL0     H75875   0.521  12.337  10.400 -0.2763  1.3403  1.7088
  550MOL0     H75876   0.418  12.397  10.629  0.8029  0.3076  0.5309
  550MOL0     H75877   0.310  12.266  10.623 -0.5586  0.1286 -1.1730
  550MOL0     H75878   0.333  12.471  10.398  1.4466 -0.0779  1.0713
  550MOL0     H75879   0.215  12.486  10.527  1.1712  3.0106 -1.0184
  550MOL0     H75880   0.427  11.691  10.114 -0.6874 -0.6392 -0.8507
  550MOL0     H75881   0.404  11.493   9.956 -1.3941 -2.3975 -1.0512
  550MOL0     H75882   0.360  10.993  10.099  1.6194  1.7590 -0.7652
  550MOL0     H75883   0.291  10.771  10.068  0.1126 -0.5074 -0.7614
  550MOL0     H75884   0.235  10.288   8.519  1.1271  1.7482  1.4972
  550MOL0     H75885   0.214  10.129   8.309  1.5127 -1.0041 -0.6884
  550MOL0     H75886   0.443   9.953   7.989 -2.0679  1.4810  0.9633
  550MOL0     H75887   0.461   9.762   7.805 -1.9338 -1.0200 -0.9842
  550MOL0     H75888   0.406   9.699   7.400 -3.1479  0.4873 -1.6813
  550MOL0     H75889   0.323   9.860   7.402  0.8571  0.9148 -1.0069
  550MOL0     H75890   0.533   9.977   7.466  2.6068 -0.1868  0.5049
  550MOL0     H75891   0.528   9.898   7.303  3.6509 -3.0333 -1.2218
  550MOL0     H75892   0.651   9.710   7.443  3.3137 -0.4857 -1.6555
  550MOL0     H75893   0.742   9.841   7.377 -1.2040  1.1832 -0.7769
  550MOL0     H75894   0.668   9.792   7.673  2.5081  2.2935  3.5066
  550MOL0     H75895   0.689   9.960   7.622 -0.2375  0.7646 -0.9053
  550MOL0     H75896   1.085   9.864   7.532 -0.1886  0.6025 -0.3104
  550MOL0     H75897   0.226   9.992   7.560  0.4624  1.1892  0.3685
  550MOL0     H75898   0.127  10.184   7.605 -2.0331  1.6047 -0.1674
  550MOL0     H75899   0.115  10.246   7.777  2.7615  3.3206  0.7590
  550MOL0     H75900   0.236  10.291   7.672 -1.8660  2.6692  4.1004
  551MOL0     O75901   0.474   4.689   4.903 -0.2176  0.3868  0.2468
  551MOL0     C75902   0.477   4.772   4.988 -0.9267 -0.1335 -0.2437
  551MOL0     O75903   0.589   4.786   5.076 -0.4994  0.0107 -0.4510
  551MOL0     C75904   0.688   4.693   5.058 -0.2476  0.7739 -0.2668
  551MOL0     C75905   0.803   4.735   5.011  0.6741 -0.0294  0.4835
  551MOL0     C75906   0.909   4.650   5.017  0.0562 -1.2134  0.1225
  551MOL0     C75907   0.906   4.527   5.078  0.3434 -0.4018 -0.1860
  551MOL0     O75908   1.025   4.454   5.080  0.0407 -0.8529  1.1154
  551MOL0     C75909   1.025   4.332   5.144  0.5508  0.5643  0.2909
  551MOL0     C75910   1.173   4.287   5.143 -0.1544  0.0378 -0.2163
  551MOL0     C75911   1.209   4.167   5.239 -0.2128  0.4557 -0.9379
  551MOL0     C75912   1.177   4.187   5.394  0.7715 -0.6860  0.0625
  551MOL0     C75913   1.248   4.078   5.479  0.3618 -0.8897  0.2110
  551MOL0     C75914   1.165   4.068   5.612 -0.6068 -0.2106 -0.4064
  551MOL0     C75915   1.197   4.189   5.708  0.3563  0.2051 -0.2077
  551MOL0     C75916   1.066   4.214   5.777  1.0371 -0.3793  0.2487
  551MOL0     N75917   1.042   4.129   5.888  0.5308  0.3956  0.0845
  551MOL0     C75918   0.996   3.998   5.876 -0.5826  0.1187  0.0384
  551MOL0     C75919   1.022   3.943   5.989  0.3123 -0.6838 -0.1864
  551MOL0     C75920   1.023   3.796   6.025 -0.6102 -0.5879  0.2239
  551MOL0     C75921   1.155   3.755   6.081 -0.5068  0.0797  0.9587
  551MOL0     C75922   1.162   3.601   6.122 -1.0884  0.2361  0.1232
  551MOL0     C75923   1.308   3.561   6.162  0.3494  0.1478 -0.1970
  551MOL0     O75924   1.381   3.501   6.049 -0.7818  0.4977  0.3493
  551MOL0     C75925   1.523   3.526   6.048  0.5370  0.0473  0.2295
  551MOL0     C75926   1.577   3.521   5.921  0.1745 -0.7996 -0.5852
  551MOL0     C75927   1.714   3.528   5.910 -0.4552 -0.6483  0.0877
  551MOL0     C75928   1.766   3.533   5.774 -0.2627 -0.6948 -0.6980
  551MOL0     C75929   1.799   3.540   6.031 -0.8970  0.9704  0.1814
  551MOL0     C75930   1.949   3.557   6.036 -1.8416  0.1260 -0.3960
  551MOL0     O75931   2.015   3.537   6.162 -0.0614 -0.0332 -0.3648
  551MOL0     C75932   2.149   3.538   6.156 -0.0615 -0.4942 -0.2880
  551MOL0     C75933   2.218   3.422   6.158  0.6446  0.9549  0.1938
  551MOL0     C75934   2.355   3.431   6.150 -0.5317  0.4820 -0.0206
  551MOL0     C75935   2.426   3.550   6.118 -0.6838 -0.2032 -0.5911
  551MOL0     O75936   2.558   3.545   6.072  0.0713 -0.5024  0.1491
  551MOL0     C75937   2.633   3.664   6.057 -0.1908  0.4603 -0.3760
  551MOL0     C75938   2.763   3.618   6.005 -0.6208 -0.0108  0.8010
  551MOL0     C75939   2.769   3.583   5.858  0.2044 -0.0740  0.0668
  551MOL0     C75940   2.897   3.511   5.820 -0.5417 -0.5894 -0.4772
  551MOL0     C75941   2.899   3.364   5.861  0.1305 -0.3173  0.4439
  551MOL0     C75942   3.012   3.315   5.947 -0.0831 -0.4985 -0.1173
  551MOL0     C75943   3.154   3.340   5.890 -0.7700 -0.2515  0.3341
  551MOL0     C75944   3.172   3.350   5.731 -0.0336  0.1969  0.2641
  551MOL0    Cl75945   3.344   3.382   5.678 -0.5395 -0.6190  0.5133
  551MOL0     C75946   2.357   3.668   6.126 -0.1207 -1.0194  0.4503
  551MOL0     C75947   2.213   3.662   6.135 -0.4060 -0.3407 -0.3466
  551MOL0     O75948   2.013   3.580   5.930  0.0397 -0.5693  0.3865
  551MOL0     C75949   1.739   3.543   6.161  0.4540 -0.5528  0.3323
  551MOL0     C75950   1.601   3.532   6.168  0.6996 -0.3155  0.5442
  551MOL0     N75951   1.057   4.049   6.075  0.0787  0.1249  0.0672
  551MOL0     N75952   1.089   4.153   6.014  0.6008 -0.3343  0.1007
  551MOL0     C75953   0.780   4.488   5.134 -0.7051  1.1620 -0.3720
  551MOL0     C75954   0.666   4.572   5.131 -0.5143 -0.3165  0.8208
  551MOL0     C75955   0.369   4.876   4.992  0.2301 -0.2737 -0.0442
  551MOL0     C75956   0.370   4.969   5.104  0.5744  0.3427  0.0867
  551MOL0     C75957   0.284   5.078   5.105  0.3006  0.4078 -0.6097
  551MOL0     C75958   0.189   5.098   5.002  0.1036  0.3388  0.4104
  551MOL0     O75959   0.102   5.205   4.993 -0.0496 -0.3024 -0.3533
  551MOL0     C75960   0.104   5.321   5.078  0.7139  0.1705  0.0042
  551MOL0     C75961   0.020   5.286   5.205 -0.5303 -0.0589  0.7363
  551MOL0     C75962  -0.141   5.299   5.172  0.4275  0.2912 -0.0154
  551MOL0     C75963  -0.229   5.255   5.293 -0.1764 -0.0344 -0.2847
  551MOL0     C75964  -0.208   5.324   5.419  0.9350 -0.4949  0.3052
  551MOL0     C75965  -0.183   5.371   5.529  0.6751 -0.1769  0.2841
  551MOL0     C75966   0.186   5.006   4.904 -0.3112 -0.0427 -0.3790
  551MOL0     C75967   0.275   4.898   4.896 -0.3050  0.0430 -0.4663
  551MOL0     C75968   0.235   4.806   4.787 -1.2059 -0.6879  0.1500
  551MOL0     H75969   0.806   4.836   4.971 -0.2892 -0.0747  0.2725
  551MOL0     H75970   0.996   4.665   4.954  1.1795 -0.8557  1.7172
  551MOL0     H75971   0.960   4.257   5.099  0.9346 -0.6801  1.7353
  551MOL0     H75972   0.984   4.336   5.246 -0.3356  0.3303 -0.0527
  551MOL0     H75973   1.193   4.255   5.040  3.5361 -1.6188  0.8350
  551MOL0     H75974   1.233   4.375   5.169 -3.5335  1.5790  3.4405
  551MOL0     H75975   1.150   4.089   5.191  0.5105  0.0714 -1.2220
  551MOL0     H75976   1.318   4.156   5.236 -0.3495 -1.0453 -1.0299
  551MOL0     H75977   1.223   4.283   5.420  3.2712 -1.6749 -0.3903
  551MOL0     H75978   1.069   4.193   5.405  0.5587 -1.3569 -1.3755
  551MOL0     H75979   1.353   4.105   5.497  0.8043 -0.5104 -2.4849
  551MOL0     H75980   1.250   3.986   5.421  0.0843 -1.2289  0.7375
  551MOL0     H75981   1.059   4.052   5.590 -0.5371 -0.1642 -0.7838
  551MOL0     H75982   1.191   3.977   5.668  1.1121 -0.2002 -1.1528
  551MOL0     H75983   1.228   4.278   5.652  1.5770 -0.2890 -0.3502
  551MOL0     H75984   1.276   4.157   5.776  1.4450  3.7001  0.3695
  551MOL0     H75985   1.072   4.312   5.825  0.9539 -0.8894  1.3328
  551MOL0     H75986   0.983   4.219   5.705 -0.3327  1.1171  1.8567
  551MOL0     H75987   0.963   3.942   5.789 -1.2413  1.1550 -0.3873
  551MOL0     H75988   1.007   3.729   5.940 -1.3978 -0.3061  0.1429
  551MOL0     H75989   0.946   3.776   6.100 -2.1510  0.5786 -1.0027
  551MOL0     H75990   1.227   3.765   5.999 -3.5575 -1.7554 -2.1929
  551MOL0     H75991   1.186   3.802   6.175  1.2938  2.4640 -0.7290
  551MOL0     H75992   1.096   3.592   6.209 -1.4066 -0.5591 -0.1858
  551MOL0     H75993   1.116   3.537   6.046 -2.7856  0.2848  1.0413
  551MOL0     H75994   1.356   3.646   6.213  0.7402 -1.2961  1.9664
  551MOL0     H75995   1.304   3.486   6.241 -1.1345 -0.2695 -0.6396
  551MOL0     H75996   1.507   3.522   5.839 -0.9040 -1.8161  0.2733
  551MOL0     H75997   1.829   3.622   5.764  0.9063 -1.3163  0.8860
  551MOL0     H75998   1.695   3.529   5.691 -0.0486  2.4191 -1.1621
  551MOL0     H75999   1.840   3.454   5.761  1.2032  0.2031  1.6201
  551MOL0     H76000   2.168   3.327   6.173  2.1096  0.0053 -0.6500
  551MOL0     H76001   2.393   3.330   6.161  0.9520  0.9531 -0.5979
  551MOL0     H76002   2.577   3.727   5.987  2.3297  2.1482 -0.9849
  551MOL0     H76003   2.652   3.710   6.154 -1.6384 -0.5158  0.4200
  551MOL0     H76004   2.840   3.695   6.020  0.5982 -0.5982 -1.9051
  551MOL0     H76005   2.802   3.541   6.073 -0.2967 -2.4255 -1.9227
  551MOL0     H76006   2.743   3.670   5.796 -1.5784 -1.4136 -1.1571
  551MOL0     H76007   2.686   3.516   5.835  1.1067 -0.8708 -1.0243
  551MOL0     H76008   2.975   3.560   5.878  0.3505  0.7800 -2.7163
  551MOL0     H76009   2.908   3.521   5.711 -4.7340 -2.6597 -1.2971
  551MOL0     H76010   2.808   3.339   5.916  0.1745 -1.6137 -0.0405
  551MOL0     H76011   2.892   3.297   5.775 -0.4284 -1.0091  1.0191
  551MOL0     H76012   2.995   3.208   5.961 -2.4632 -0.1248  0.2453
  551MOL0     H76013   3.005   3.366   6.043  2.2268  1.6416 -0.9501
  551MOL0     H76014   3.219   3.257   5.919  1.4731 -0.1025 -3.5452
  551MOL0     H76015   3.194   3.435   5.926 -1.7818  0.5395 -0.5494
  551MOL0     H76016   3.109   3.431   5.692 -0.2966 -0.1359 -0.0057
  551MOL0     H76017   3.127   3.263   5.682  0.0151 -0.3670  1.1777
  551MOL0     H76018   2.405   3.765   6.121 -1.6601 -0.2530 -0.2187
  551MOL0     H76019   2.155   3.754   6.137 -1.6157 -1.0943 -0.2247
  551MOL0     H76020   1.799   3.555   6.250  1.9287 -3.4058 -0.1560
  551MOL0     H76021   1.556   3.536   6.266  0.5573 -0.0805  0.4703
  551MOL0     H76022   0.750   4.407   5.201 -2.2540  0.8764 -1.3658
  551MOL0     H76023   0.568   4.542   5.168 -1.3445  1.8683  0.5310
  551MOL0     H76024   0.439   4.956   5.188  0.4594 -0.9585  0.0080
  551MOL0     H76025   0.280   5.148   5.187 -0.4097  0.6280 -0.8272
  551MOL0     H76026   0.207   5.344   5.108  1.1430  0.5276 -1.6688
  551MOL0     H76027   0.063   5.407   5.024  0.6531  2.6361  3.5571
  551MOL0     H76028   0.054   5.365   5.273 -0.4103  2.6478 -2.2678
  551MOL0     H76029   0.048   5.190   5.250  1.0482 -0.2976 -0.6976
  551MOL0     H76030  -0.172   5.402   5.151  3.2586  1.3205  0.4888
  551MOL0     H76031  -0.163   5.225   5.093  3.9512 -3.2979  2.0064
  551MOL0     H76032  -0.209   5.149   5.310 -1.4048 -0.0832  1.0195
  551MOL0     H76033  -0.334   5.269   5.268 -0.0719 -1.0216 -1.4066
  551MOL0     H76034  -0.170   5.410   5.628 -0.5242  0.3129  0.2726
  551MOL0     H76035   0.107   5.020   4.831  2.9516  0.7410 -4.1133
  551MOL0     H76036   0.326   4.784   4.730  0.4272  1.2304  1.8498
  551MOL0     H76037   0.199   4.712   4.829 -3.4328  0.2730  0.5088
  551MOL0     H76038   0.158   4.859   4.730 -1.9736 -0.0623  1.7031
  552MOL0     O76039   4.630   3.934   4.807 -0.6736 -0.0662  1.3908
  552MOL0     C76040   4.546   3.847   4.808 -0.3339  1.0652 -0.1272
  552MOL0     O76041   4.576   3.714   4.801 -1.0379  0.0531  1.0517
  552MOL0     C76042   4.709   3.680   4.827  0.8431  0.7137  0.5066
  552MOL0     C76043   4.757   3.663   4.956  0.8092 -1.4912  0.4303
  552MOL0     C76044   4.885   3.620   4.986  0.1318 -0.5973  0.0057
  552MOL0     C76045   4.976   3.612   4.876 -0.1132 -0.0548 -0.0264
  552MOL0     O76046   5.109   3.580   4.899  0.1744  0.0642 -0.0306
  552MOL0     C76047   5.145   3.455   4.851 -0.4877  0.2027  0.7046
  552MOL0     C76048   5.247   3.396   4.946  0.6515 -0.3816  0.7405
  552MOL0     C76049   5.187   3.327   5.070 -0.4965  0.0170 -0.0144
  552MOL0     C76050   5.279   3.306   5.187  1.0005  0.1823  0.3922
  552MOL0     C76051   5.228   3.202   5.288  0.0200  0.0534  0.3693
  552MOL0     C76052   5.093   3.251   5.335 -0.5602  0.8594  0.8826
  552MOL0     C76053   5.020   3.159   5.427  0.4854 -0.7624  0.1911
  552MOL0     C76054   4.965   3.023   5.378 -0.9179  0.0986 -0.4154
  552MOL0     N76055   5.053   2.911   5.380 -0.2846 -0.0165 -0.2389
  552MOL0     C76056   5.163   2.902   5.462 -0.9815 -0.4852  0.1403
  552MOL0     C76057   5.226   2.789   5.417 -0.4199 -0.3745 -0.8497
  552MOL0     C76058   5.357   2.724   5.462 -0.5843  0.2531  0.7712
  552MOL0     C76059   5.466   2.742   5.349 -0.5018 -0.6185  0.6995
  552MOL0     C76060   5.604   2.700   5.394 -0.2887  0.1496  0.2452
  552MOL0     C76061   5.708   2.733   5.291 -0.2356 -0.4776  0.0548
  552MOL0     O76062   5.823   2.642   5.291  0.4954  0.3096 -0.0022
  552MOL0     C76063   5.908   2.643   5.405 -0.0129 -0.7217  0.7186
  552MOL0     C76064   5.911   2.748   5.495 -0.7733  1.0117 -0.9159
  552MOL0     C76065   6.007   2.745   5.597  0.2657  0.9408  0.3850
  552MOL0     C76066   6.020   2.868   5.691 -0.5080  0.4582 -0.8055
  552MOL0     C76067   6.097   2.634   5.606  0.6581  0.2252  0.8433
  552MOL0     C76068   6.200   2.618   5.714  0.3311  0.8350  0.0193
  552MOL0     O76069   6.231   2.484   5.736 -0.0677  0.0454  0.2785
  552MOL0     C76070   6.338   2.454   5.815 -0.3487 -0.4973 -0.0602
  552MOL0     C76071   6.462   2.433   5.751 -0.4682  0.6224 -0.7866
  552MOL0     C76072   6.586   2.407   5.821  0.1462 -0.4345  1.5130
  552MOL0     C76073   6.587   2.420   5.962 -0.0199 -0.2664  0.4338
  552MOL0     O76074   6.695   2.403   6.041  0.4227 -0.4730  0.4781
  552MOL0     C76075   6.812   2.338   5.996  1.4345 -1.0665  0.2302
  552MOL0     C76076   6.879   2.267   6.110 -0.0306 -0.0429  1.0316
  552MOL0     C76077   6.944   2.386   6.202  0.1464  0.7245 -0.0701
  552MOL0     C76078   6.995   2.328   6.331  0.4799  0.8768  0.2486
  552MOL0     C76079   7.067   2.433   6.417 -0.4435  0.2807  0.4687
  552MOL0     C76080   7.143   2.364   6.536 -0.0200  0.2402  0.0856
  552MOL0     C76081   7.054   2.356   6.658 -1.1297  0.0282 -0.4031
  552MOL0     C76082   7.093   2.450   6.774 -1.5348 -0.3648  0.2542
  552MOL0    Cl76083   7.129   2.624   6.733  0.0066  0.0069 -0.2606
  552MOL0     C76084   6.460   2.446   6.023  0.4492  0.0593 -0.2440
  552MOL0     C76085   6.341   2.446   5.957  0.3014  0.6639 -0.2648
  552MOL0     O76086   6.266   2.711   5.752 -0.4200 -0.5871 -0.5801
  552MOL0     C76087   6.097   2.533   5.508 -0.3503 -0.6023  0.6564
  552MOL0     C76088   6.007   2.540   5.399  0.5519 -0.7005 -0.0355
  552MOL0     N76089   5.153   2.739   5.312 -0.5591  0.1289 -0.1104
  552MOL0     N76090   5.046   2.810   5.293  0.7984 -0.7925  0.1813
  552MOL0     C76091   4.937   3.634   4.747 -0.6121 -0.8108  0.3356
  552MOL0     C76092   4.797   3.661   4.722 -0.2560 -0.1487 -0.5968
  552MOL0     C76093   4.405   3.874   4.849  0.3980 -0.4213  0.7251
  552MOL0     C76094   4.339   3.778   4.931  0.3036 -0.0848  0.5209
  552MOL0     C76095   4.212   3.803   4.976 -0.1649  0.2373 -0.1289
  552MOL0     C76096   4.140   3.921   4.932  0.6470  0.8321 -0.3935
  552MOL0     O76097   4.016   3.959   4.977 -0.7599 -0.1464 -0.0742
  552MOL0     C76098   3.965   3.905   5.096 -0.3381  0.5935  0.2467
  552MOL0     C76099   4.043   3.964   5.211  0.1175  0.0999 -0.5083
  552MOL0     C76100   4.027   4.116   5.207 -0.3597  0.0724  0.0429
  552MOL0     C76101   4.025   4.178   5.350 -0.0143 -0.2449 -0.0967
  552MOL0     C76102   3.886   4.176   5.407  0.2835  0.3837  0.2894
  552MOL0     C76103   3.784   4.207   5.448  0.2752 -0.3337  0.2662
  552MOL0     C76104   4.213   4.015   4.860  1.3124 -0.5553  1.0988
  552MOL0     C76105   4.341   3.995   4.809  0.2846  0.0649  0.5126
  552MOL0     C76106   4.393   4.100   4.720  0.9250 -0.0329  0.7437
  552MOL0     H76107   4.684   3.678   5.034 -1.4364 -0.1428 -1.7938
  552MOL0     H76108   4.919   3.596   5.087  0.5669 -1.4643 -0.3326
  552MOL0     H76109   5.182   3.476   4.750 -1.2909 -0.2346  0.3058
  552MOL0     H76110   5.060   3.386   4.842 -1.7714  1.7161  0.7264
  552MOL0     H76111   5.312   3.330   4.889  1.7012  1.9137 -0.9028
  552MOL0     H76112   5.320   3.477   4.955 -0.4454  1.1019 -2.1783
  552MOL0     H76113   5.099   3.383   5.103 -1.0003 -0.3706 -0.6844
  552MOL0     H76114   5.147   3.230   5.039  1.4123 -0.6263 -0.5943
  552MOL0     H76115   5.374   3.264   5.154  0.1245 -0.7722 -0.9867
  552MOL0     H76116   5.307   3.396   5.243  0.8837 -1.8828  4.0428
  552MOL0     H76117   5.303   3.190   5.366  2.5262 -3.4682 -2.2423
  552MOL0     H76118   5.226   3.100   5.247  2.2296 -0.1547  0.6587
  552MOL0     H76119   5.103   3.337   5.401  1.0558  0.3249  1.3690
  552MOL0     H76120   5.029   3.270   5.249 -2.8273  0.3140  2.3424
  552MOL0     H76121   4.932   3.221   5.444 -0.8180 -1.7309 -2.4106
  552MOL0     H76122   5.083   3.150   5.515  2.9716  2.1605 -1.0970
  552MOL0     H76123   4.872   2.990   5.425 -1.0348 -1.3665 -1.5861
  552MOL0     H76124   4.937   3.034   5.273  1.0341  1.3160 -0.8540
  552MOL0     H76125   5.207   2.972   5.532  1.5421 -3.8362  2.2145
  552MOL0     H76126   5.345   2.616   5.474  1.0757 -0.3200 -1.7652
  552MOL0     H76127   5.392   2.769   5.556 -0.8823  0.7697  0.6366
  552MOL0     H76128   5.442   2.698   5.252  0.6403  0.5848 -0.1673
  552MOL0     H76129   5.470   2.851   5.335  3.0737 -0.5475  1.3086
  552MOL0     H76130   5.630   2.756   5.484  0.0031  0.2330  0.1116
  552MOL0     H76131   5.611   2.592   5.405  4.9546  0.1329 -0.8253
  552MOL0     H76132   5.657   2.720   5.195  0.4565 -1.9884 -0.1323
  552MOL0     H76133   5.730   2.840   5.300  0.3531 -0.5648 -0.3223
  552MOL0     H76134   5.846   2.835   5.483 -0.7587  0.7581 -3.4946
  552MOL0     H76135   6.016   2.847   5.799 -2.9941  1.0254 -0.7233
  552MOL0     H76136   5.935   2.933   5.668 -2.3396 -1.2778  0.6986
  552MOL0     H76137   6.108   2.932   5.676 -1.3469  1.5742 -1.0982
  552MOL0     H76138   6.470   2.458   5.646  3.3583  2.2132 -0.2790
  552MOL0     H76139   6.673   2.365   5.771 -1.1453 -2.3286  0.7410
  552MOL0     H76140   6.773   2.274   5.916  0.2984 -1.2605  0.9208
  552MOL0     H76141   6.890   2.401   5.951  0.1129  1.1983  0.9725
  552MOL0     H76142   6.815   2.194   6.160 -1.2459  0.3792  0.1357
  552MOL0     H76143   6.965   2.213   6.070  2.1393  2.7868  1.5560
  552MOL0     H76144   6.871   2.465   6.224 -0.7376  0.7238 -2.6920
  552MOL0     H76145   7.035   2.425   6.155  0.6991 -1.1090 -0.5974
  552MOL0     H76146   7.068   2.251   6.305 -2.4392 -2.6691  1.7045
  552MOL0     H76147   6.910   2.288   6.387 -0.0654  0.4848 -0.8335
  552MOL0     H76148   7.140   2.484   6.355 -2.2134  0.7968 -1.3020
  552MOL0     H76149   6.998   2.506   6.460  1.1452  0.9921  1.9190
  552MOL0     H76150   7.232   2.426   6.547  0.2853 -0.2084  0.1996
  552MOL0     H76151   7.169   2.265   6.497 -1.2717 -0.4019  0.8102
  552MOL0     H76152   7.067   2.259   6.705 -2.1942 -1.1598 -2.4139
  552MOL0     H76153   6.953   2.365   6.615 -0.5838  2.6558 -1.3667
  552MOL0     H76154   7.186   2.413   6.820 -2.0355 -4.7834 -1.8540
  552MOL0     H76155   7.017   2.441   6.852 -2.4032 -0.7406 -0.6187
  552MOL0     H76156   6.438   2.448   6.129 -4.3319 -1.3075 -0.9978
  552MOL0     H76157   6.246   2.455   6.008 -0.6081 -2.8967 -1.1073
  552MOL0     H76158   6.168   2.452   5.498 -2.8287 -2.7001 -1.6530
  552MOL0     H76159   5.995   2.477   5.312 -1.8931 -1.2234  0.6126
  552MOL0     H76160   5.022   3.622   4.681 -0.1626  1.5012  0.3950
  552MOL0     H76161   4.765   3.670   4.619  1.5561  0.9523 -1.0992
  552MOL0     H76162   4.380   3.681   4.958  1.6956 -0.4702 -2.5556
  552MOL0     H76163   4.167   3.739   5.052 -1.2725  2.6732  1.3602
  552MOL0     H76164   3.861   3.938   5.099 -0.4250  0.3363  0.0500
  552MOL0     H76165   3.962   3.796   5.102 -4.4255  0.4588 -1.1871
  552MOL0     H76166   4.144   3.923   5.217 -0.3336 -1.0081 -0.1150
  552MOL0     H76167   4.001   3.926   5.305 -0.8132 -2.7079 -1.9525
  552MOL0     H76168   4.114   4.161   5.158 -0.9452  0.9526 -0.2119
  552MOL0     H76169   3.934   4.142   5.156 -1.1182 -1.7566  0.4304
  552MOL0     H76170   4.048   4.284   5.341 -2.8482  0.5360  0.6829
  552MOL0     H76171   4.087   4.121   5.420  0.5752  3.2193  2.4306
  552MOL0     H76172   3.690   4.231   5.495  2.1408  1.4376  3.4863
  552MOL0     H76173   4.159   4.107   4.843  2.9997  0.7120  2.2751
  552MOL0     H76174   4.345   4.197   4.733 -0.5962 -0.8691  1.6736
  552MOL0     H76175   4.495   4.115   4.756  0.8192 -2.1372  2.1126
  552MOL0     H76176   4.402   4.069   4.615  1.0623 -2.9667  1.5244
  553MOL0     O76177   6.035   0.159   2.650  0.1579 -0.0908  0.3299
  553MOL0     C76178   6.002   0.108   2.539  0.4140 -0.3691  0.1614
  553MOL0     O76179   5.875   0.061   2.513 -0.0399  0.2114  0.4073
  553MOL0     C76180   5.792   0.027   2.618  0.1091  0.1545 -0.2830
  553MOL0     C76181   5.663   0.077   2.633 -0.2640 -0.2263  0.2850
  553MOL0     C76182   5.578   0.040   2.734 -0.2769 -0.2657 -0.7056
  553MOL0     C76183   5.619  -0.049   2.837 -0.7268 -0.1344  0.8476
  553MOL0     O76184   5.530  -0.092   2.935 -0.1280  0.0764  0.9141
  553MOL0     C76185   5.546  -0.026   3.062  0.2257  0.1458  0.7360
  553MOL0     C76186   5.514  -0.112   3.186 -0.0930  0.3366  0.8743
  553MOL0     C76187   5.532  -0.017   3.300 -0.0566  1.3710 -0.1352
  553MOL0     C76188   5.528  -0.084   3.440 -0.3151  0.4792  0.4503
  553MOL0     C76189   5.510   0.007   3.562  0.7219  0.2802  0.1986
  553MOL0     C76190   5.409   0.118   3.538 -0.2805  0.2624  0.6759
  553MOL0     C76191   5.380   0.202   3.664  0.0703  0.6883  0.2172
  553MOL0     C76192   5.289   0.142   3.774  0.0699  0.8198 -0.1836
  553MOL0     N76193   5.316   0.198   3.905  0.2165 -0.2730  0.1330
  553MOL0     C76194   5.310   0.327   3.948  0.5631 -0.4484  0.2828
  553MOL0     C76195   5.344   0.318   4.080  0.9160 -0.2528  0.5764
  553MOL0     C76196   5.360   0.444   4.162 -0.4835  0.9021 -0.3700
  553MOL0     C76197   5.229   0.491   4.229  0.2729  0.1720 -0.1545
  553MOL0     C76198   5.251   0.623   4.314  0.6299 -1.3830  0.6135
  553MOL0     C76199   5.247   0.746   4.226 -1.3933 -0.1513 -0.1850
  553MOL0     O76200   5.299   0.870   4.289 -0.0725  0.0647  0.4129
  553MOL0     C76201   5.429   0.892   4.317  0.3180 -0.5516 -0.1217
  553MOL0     C76202   5.536   0.814   4.273  0.5462  0.6781 -0.6934
  553MOL0     C76203   5.665   0.856   4.294  0.1698  0.1822 -0.1670
  553MOL0     C76204   5.769   0.773   4.216 -0.0124 -0.5123  0.0783
  553MOL0     C76205   5.695   0.973   4.374  0.9181 -0.4862 -0.1289
  553MOL0     C76206   5.831   1.029   4.380 -0.0112  0.4624 -0.2819
  553MOL0     O76207   5.939   0.943   4.374 -0.1496  0.4108 -0.0739
  553MOL0     C76208   6.067   0.984   4.395  0.2063  0.3222  0.0776
  553MOL0     C76209   6.132   1.049   4.291  0.1893 -0.6490 -0.0696
  553MOL0     C76210   6.265   1.080   4.312  0.0804  0.0495  0.5860
  553MOL0     C76211   6.332   1.051   4.435 -0.9586 -0.5185 -0.0305
  553MOL0     O76212   6.464   1.099   4.429  0.5497 -0.0583 -0.1731
  553MOL0     C76213   6.553   1.066   4.538 -0.0861  0.1590  0.5325
  553MOL0     C76214   6.606   1.204   4.584  0.3738 -0.0153  0.1886
  553MOL0     C76215   6.709   1.199   4.703 -0.5097  0.1242 -0.1869
  553MOL0     C76216   6.635   1.186   4.844  0.2243  0.3191 -1.5477
  553MOL0     C76217   6.732   1.194   4.965 -0.1359 -0.0664 -0.4477
  553MOL0     C76218   6.659   1.162   5.089  0.6568 -0.0436 -0.1022
  553MOL0     C76219   6.750   1.179   5.202  0.0529 -0.6588 -0.6876
  553MOL0     C76220   6.675   1.141   5.337  0.0516  0.0471  1.3677
  553MOL0    Cl76221   6.767   1.154   5.488  0.1615  0.1410 -0.4650
  553MOL0     C76222   6.261   0.985   4.539 -0.6303 -0.4259  0.7454
  553MOL0     C76223   6.129   0.946   4.521  0.8422 -0.5398  0.4501
  553MOL0     O76224   5.842   1.153   4.391 -0.2462  1.1479 -0.2906
  553MOL0     C76225   5.586   1.052   4.422 -0.2153  0.0216 -0.7595
  553MOL0     C76226   5.456   1.006   4.394 -0.2493  0.4313  0.2868
  553MOL0     N76227   5.364   0.189   4.114  0.1813 -0.3448  0.4404
  553MOL0     N76228   5.344   0.115   4.006 -1.2154 -1.1260  0.3029
  553MOL0     C76229   5.753  -0.094   2.820 -0.3112  0.6392 -1.0469
  553MOL0     C76230   5.841  -0.065   2.711  0.2704 -0.2714  0.0410
  553MOL0     C76231   6.111   0.088   2.432  0.5109  0.5496  0.4560
  553MOL0     C76232   6.083  -0.004   2.327  0.6102 -0.2902 -0.9193
  553MOL0     C76233   6.174  -0.036   2.224 -0.6831 -0.4655  0.2455
  553MOL0     C76234   6.290   0.038   2.216  0.7317 -0.3307 -0.3598
  553MOL0     O76235   6.369   0.013   2.110  0.0191  0.0243  0.2942
  553MOL0     C76236   6.509   0.029   2.127  0.7986 -0.4676 -0.2058
  553MOL0     C76237   6.583  -0.110   2.142 -0.9471 -0.3335 -0.0216
  553MOL0     C76238   6.730  -0.106   2.095  0.0801 -0.3733 -0.4669
  553MOL0     C76239   6.747  -0.098   1.950 -1.4258 -0.1215 -0.0041
  553MOL0     C76240   6.673  -0.201   1.879  0.6759 -0.7136  0.7459
  553MOL0     C76241   6.627  -0.298   1.822 -0.4379  1.1068 -0.0541
  553MOL0     C76242   6.325   0.123   2.329  0.1180  0.6520  0.8993
  553MOL0     C76243   6.234   0.153   2.429 -0.5110 -1.1034 -0.5983
  553MOL0     C76244   6.274   0.259   2.532 -0.0864 -0.1192 -1.1424
  553MOL0     H76245   5.633   0.161   2.571  1.4176 -1.9072 -3.0583
  553MOL0     H76246   5.476   0.078   2.736 -0.0337  0.5947 -2.4020
  553MOL0     H76247   5.476   0.057   3.054 -0.9853 -0.6626  2.4238
  553MOL0     H76248   5.644   0.022   3.076 -0.3266  1.4114  0.3938
  553MOL0     H76249   5.415  -0.157   3.178  1.0722 -2.0577 -1.5825
  553MOL0     H76250   5.574  -0.203   3.202 -3.5594 -1.8654  2.3992
  553MOL0     H76251   5.626   0.038   3.295  0.6337  0.3720  1.0677
  553MOL0     H76252   5.453   0.058   3.295 -0.9431  0.4359 -0.5339
  553MOL0     H76253   5.444  -0.151   3.456 -0.0587  0.3534  1.2876
  553MOL0     H76254   5.618  -0.144   3.453  0.6127  1.7946  0.2967
  553MOL0     H76255   5.612   0.039   3.585  0.9743 -0.7783  0.6365
  553MOL0     H76256   5.461  -0.052   3.640  0.4587  1.0292  0.6122
  553MOL0     H76257   5.457   0.190   3.470  1.1181 -1.0728  0.2025
  553MOL0     H76258   5.315   0.085   3.491 -0.2818 -1.3982  1.7637
  553MOL0     H76259   5.328   0.293   3.634 -2.5418 -1.4063 -2.1705
  553MOL0     H76260   5.479   0.222   3.707  0.1959 -0.6574  0.5898
  553MOL0     H76261   5.183   0.149   3.745 -0.4773 -0.5929  1.3125
  553MOL0     H76262   5.314   0.036   3.788  0.3397  0.2376 -3.9973
  553MOL0     H76263   5.296   0.416   3.888  3.1965  0.1516  0.4748
  553MOL0     H76264   5.393   0.516   4.086 -2.9307  1.4995 -0.9450
  553MOL0     H76265   5.433   0.448   4.243 -0.2985  1.7079 -0.5652
  553MOL0     H76266   5.149   0.499   4.156  0.9128 -2.5404 -1.2548
  553MOL0     H76267   5.208   0.409   4.298  3.3658  3.1751  5.0751
  553MOL0     H76268   5.165   0.616   4.383 -2.0647  0.0280 -2.3507
  553MOL0     H76269   5.341   0.623   4.376  0.0584  0.8865  1.5371
  553MOL0     H76270   5.312   0.718   4.144  1.5130  4.0597  0.3704
  553MOL0     H76271   5.146   0.767   4.190  0.3145  1.2195 -4.8477
  553MOL0     H76272   5.515   0.719   4.224  0.8622 -1.0900  2.3467
  553MOL0     H76273   5.715   0.700   4.155  0.9299 -0.3548 -0.9786
  553MOL0     H76274   5.839   0.715   4.276 -0.0963  0.7792  1.4733
  553MOL0     H76275   5.825   0.845   4.155 -2.4230  0.8958 -0.6283
  553MOL0     H76276   6.078   1.063   4.198  1.9773  1.5907 -0.8896
  553MOL0     H76277   6.314   1.148   4.243  2.8344 -1.0112  1.3746
  553MOL0     H76278   6.496   1.021   4.620  1.0202  2.0590  2.4625
  553MOL0     H76279   6.637   1.001   4.509 -0.2484  0.0928  0.2026
  553MOL0     H76280   6.659   1.250   4.501  0.6330 -0.3914  0.1416
  553MOL0     H76281   6.530   1.277   4.614 -0.1916  0.3535 -1.9634
  553MOL0     H76282   6.764   1.293   4.717  1.7439 -0.6380 -3.0102
  553MOL0     H76283   6.772   1.111   4.694 -0.6295 -0.1800  1.6045
  553MOL0     H76284   6.584   1.089   4.846  0.5697  0.1472 -0.4306
  553MOL0     H76285   6.556   1.261   4.851 -0.7964 -0.6312 -2.4840
  553MOL0     H76286   6.815   1.123   4.960 -1.2635 -1.7521  2.3898
  553MOL0     H76287   6.789   1.287   4.976  0.6823 -0.8350  2.5435
  553MOL0     H76288   6.618   1.060   5.092  1.9529 -0.5701  1.7816
  553MOL0     H76289   6.568   1.220   5.105 -0.1073 -0.8112 -1.4426
  553MOL0     H76290   6.756   1.288   5.201 -1.3470 -0.5722 -1.0842
  553MOL0     H76291   6.845   1.126   5.191  0.4631 -0.1840  0.3590
  553MOL0     H76292   6.642   1.038   5.322  0.1926  0.2048 -0.1920
  553MOL0     H76293   6.585   1.203   5.345 -0.2878 -0.5614  2.5474
  553MOL0     H76294   6.300   0.987   4.640  2.1982  3.2070 -0.2221
  553MOL0     H76295   6.079   0.887   4.598 -1.0855  1.0209  0.4850
  553MOL0     H76296   5.606   1.143   4.479 -0.3703 -0.0128 -0.6489
  553MOL0     H76297   5.367   1.056   4.431 -1.3416  0.5755 -2.3405
  553MOL0     H76298   5.765  -0.152   2.912  0.7863  2.2927 -0.1111
  553MOL0     H76299   5.946  -0.091   2.704 -0.1704 -1.7206 -1.6560
  553MOL0     H76300   5.987  -0.054   2.325 -0.1593  0.8128  2.2511
  553MOL0     H76301   6.150  -0.113   2.152  0.7926 -0.5885 -0.1482
  553MOL0     H76302   6.546   0.079   2.037 -1.5180  0.0757 -0.9209
  553MOL0     H76303   6.545   0.093   2.208 -2.3074  1.8121 -0.4488
  553MOL0     H76304   6.530  -0.193   2.094  3.7844 -2.6290 -1.8657
  553MOL0     H76305   6.567  -0.128   2.249 -0.8272 -0.7290 -0.0697
  553MOL0     H76306   6.778  -0.018   2.140 -1.5040  0.8714 -1.0963
  553MOL0     H76307   6.781  -0.195   2.133 -0.5809 -0.7464 -0.4348
  553MOL0     H76308   6.853  -0.107   1.925 -1.4411 -2.4231  0.5353
  553MOL0     H76309   6.716  -0.004   1.904 -1.1125 -0.9933 -2.1177
  553MOL0     H76310   6.603  -0.385   1.765 -1.4051 -0.9625  3.2178
  553MOL0     H76311   6.422   0.173   2.329  0.5972 -0.2324 -0.1057
  553MOL0     H76312   6.196   0.336   2.543 -0.9502 -1.1216  0.0007
  553MOL0     H76313   6.289   0.215   2.631  1.7716  1.2492 -0.7503
  553MOL0     H76314   6.369   0.308   2.510  1.7807 -2.6307  0.7799
  554MOL0     O76315   1.123  10.165   1.945  0.2626  0.8184 -0.1757
  554MOL0     C76316   1.101  10.152   1.820 -0.0966 -0.8269  0.2846
  554MOL0     O76317   1.146  10.058   1.729  0.2132 -0.0985 -0.3663
  554MOL0     C76318   1.244   9.973   1.769 -0.2058 -0.0868 -0.4770
  554MOL0     C76319   1.350  10.005   1.851 -0.0947  0.6666 -0.6127
  554MOL0     C76320   1.444   9.915   1.896  0.2730 -0.0295  1.4718
  554MOL0     C76321   1.440   9.780   1.845 -0.7996  0.6000 -0.4131
  554MOL0     O76322   1.537   9.691   1.895  0.1117 -0.6188  0.4691
  554MOL0     C76323   1.570   9.575   1.819 -0.3235  0.2805  0.8107
  554MOL0     C76324   1.723   9.549   1.828  1.1437 -0.0356 -0.2331
  554MOL0     C76325   1.804   9.672   1.785 -0.0921  0.1751 -0.6783
  554MOL0     C76326   1.947   9.617   1.770  0.3856 -0.7849  0.7296
  554MOL0     C76327   2.039   9.729   1.726 -0.5011 -0.3640 -0.2705
  554MOL0     C76328   2.147   9.666   1.634  0.1072 -0.0503 -0.0688
  554MOL0     C76329   2.257   9.776   1.601 -0.3237  0.0942  0.4515
  554MOL0     C76330   2.207   9.872   1.481 -0.0651  0.0397  0.1689
  554MOL0     N76331   2.316   9.967   1.457  0.7747 -0.2681  0.3356
  554MOL0     C76332   2.334  10.077   1.526  0.3290  0.1546  0.1240
  554MOL0     C76333   2.450  10.128   1.475 -0.1980  0.1031 -0.0775
  554MOL0     C76334   2.505  10.258   1.507  0.0800 -0.1774 -0.4010
  554MOL0     C76335   2.609  10.252   1.623 -0.3548 -0.3532  0.1740
  554MOL0     C76336   2.548  10.235   1.760  0.3446 -0.0296  0.0763
  554MOL0     C76337   2.657  10.223   1.860 -0.7102  0.0718 -0.2640
  554MOL0     O76338   2.693  10.085   1.887 -0.0623  0.5322 -0.2363
  554MOL0     C76339   2.785  10.069   1.985 -0.7026 -0.3736  0.8025
  554MOL0     C76340   2.778  10.116   2.109 -0.4478  0.3282  0.6129
  554MOL0     C76341   2.877  10.101   2.203 -0.1884  0.2926 -0.2657
  554MOL0     C76342   2.852  10.156   2.344  0.3940 -0.0670 -0.2967
  554MOL0     C76343   3.000  10.028   2.172 -0.1221  0.0092  0.3625
  554MOL0     C76344   3.110  10.002   2.273  0.0111  0.4037  0.0247
  554MOL0     O76345   3.229   9.965   2.219 -0.1882 -0.6222  0.4633
  554MOL0     C76346   3.330   9.942   2.308  1.0406 -0.0789  0.1777
  554MOL0     C76347   3.381   9.808   2.310 -0.0667 -0.3389 -0.2323
  554MOL0     C76348   3.489   9.776   2.388  0.7650  0.6733  0.4579
  554MOL0     C76349   3.546   9.868   2.469  0.1726  0.7857  0.3823
  554MOL0     O76350   3.660   9.836   2.548 -0.0699 -0.1321 -0.4568
  554MOL0     C76351   3.632   9.771   2.677  1.1063  0.1424  1.3792
  554MOL0     C76352   3.764   9.737   2.744 -0.7500 -0.6868 -0.9287
  554MOL0     C76353   3.826   9.603   2.701  0.6725 -0.1590  1.2700
  554MOL0     C76354   3.956   9.573   2.778  0.1334  0.4999  0.6266
  554MOL0     C76355   4.004   9.425   2.732  0.5593 -0.0398 -0.2240
  554MOL0     C76356   4.147   9.392   2.766  0.0304  0.3347  0.9967
  554MOL0     C76357   4.183   9.244   2.727  0.1686  0.0811 -0.3027
  554MOL0     C76358   4.317   9.190   2.783 -0.0327  0.2420  0.6239
  554MOL0    Cl76359   4.310   9.009   2.787  0.1080 -0.0682 -0.5927
  554MOL0     C76360   3.497  10.005   2.472 -0.1221  0.3610  0.6857
  554MOL0     C76361   3.395  10.037   2.380 -1.0849 -0.4995 -0.1245
  554MOL0     O76362   3.098  10.038   2.393  0.3280  0.1310  0.5962
  554MOL0     C76363   3.009   9.987   2.033  0.2099 -0.2251 -0.1633
  554MOL0     C76364   2.905   9.997   1.946  0.3479  0.4767  0.4479
  554MOL0     N76365   2.508  10.049   1.379  0.1458 -0.3172 -0.6373
  554MOL0     N76366   2.431   9.944   1.377  0.6226  0.3969  0.3475
  554MOL0     C76367   1.341   9.740   1.758  0.3765  0.7975 -0.0581
  554MOL0     C76368   1.247   9.835   1.720  0.1772 -0.1593 -0.9160
  554MOL0     C76369   0.995  10.250   1.765 -0.9150  0.2354  0.0151
  554MOL0     C76370   0.936  10.220   1.642  0.3521  0.4628 -0.4608
  554MOL0     C76371   0.839  10.303   1.590 -0.1481  0.2605  0.2847
  554MOL0     C76372   0.809  10.431   1.648 -0.2664 -0.4082 -0.4030
  554MOL0     O76373   0.724  10.524   1.590 -1.0760 -0.0578  0.8751
  554MOL0     C76374   0.661  10.493   1.464  0.0759 -0.4353 -0.2772
  554MOL0     C76375   0.695  10.598   1.356 -0.1500 -0.8774  0.8342
  554MOL0     C76376   0.857  10.599   1.319  0.3654  0.0131 -0.1340
  554MOL0     C76377   0.884  10.700   1.205  1.3022  0.5896 -0.1162
  554MOL0     C76378   0.845  10.652   1.072  0.2142 -0.3562  1.0112
  554MOL0     C76379   0.793  10.608   0.964 -1.0861 -0.3980 -0.3119
  554MOL0     C76380   0.883  10.457   1.772 -0.4427  0.4651  1.2140
  554MOL0     C76381   0.972  10.367   1.832  0.2879  0.8048  0.1390
  554MOL0     C76382   1.023  10.431   1.966  0.6575  0.8263 -0.2702
  554MOL0     H76383   1.361  10.104   1.894  1.2399  1.4622 -2.6524
  554MOL0     H76384   1.507   9.938   1.981  0.0678  3.9212  0.7360
  554MOL0     H76385   1.552   9.589   1.712 -1.6489  1.9673  1.2258
  554MOL0     H76386   1.514   9.486   1.849 -1.0670  1.5275  3.3748
  554MOL0     H76387   1.747   9.516   1.929 -0.3504 -2.6130 -0.6266
  554MOL0     H76388   1.746   9.462   1.766 -0.3661  0.3779 -1.4484
  554MOL0     H76389   1.770   9.707   1.687  0.1399 -4.1534 -2.5130
  554MOL0     H76390   1.791   9.762   1.846 -2.0216  0.3838 -1.3199
  554MOL0     H76391   1.977   9.579   1.868  0.3143  1.5799  1.7498
  554MOL0     H76392   1.931   9.534   1.701 -3.1450 -0.6429  1.2030
  554MOL0     H76393   2.084   9.768   1.817  1.5912 -2.8741 -0.1009
  554MOL0     H76394   1.990   9.810   1.671 -0.8816 -0.3102  0.1421
  554MOL0     H76395   2.208   9.597   1.693  0.9082 -1.4405 -2.3839
  554MOL0     H76396   2.093   9.618   1.551 -1.6814  0.7403  0.5851
  554MOL0     H76397   2.341   9.723   1.556 -0.0025  0.5232  0.5413
  554MOL0     H76398   2.278   9.825   1.696 -1.2251 -0.4045  0.9229
  554MOL0     H76399   2.188   9.812   1.392  0.4312  1.6904 -1.1130
  554MOL0     H76400   2.121   9.932   1.511 -0.6189  0.1075 -1.4853
  554MOL0     H76401   2.259  10.130   1.583 -0.9975  0.8267 -2.1267
  554MOL0     H76402   2.427  10.327   1.542 -0.1244  0.9898 -2.9112
  554MOL0     H76403   2.552  10.307   1.421  1.8867 -0.3132  0.4549
  554MOL0     H76404   2.666  10.162   1.599  0.3243  0.2755 -0.6227
  554MOL0     H76405   2.668  10.345   1.625 -1.8408  0.6385 -0.6656
  554MOL0     H76406   2.487  10.324   1.779 -0.8419 -0.8930  0.4611
  554MOL0     H76407   2.489  10.142   1.754  0.7334 -0.4542  2.0352
  554MOL0     H76408   2.740  10.292   1.844  1.1117 -1.5681  1.5648
  554MOL0     H76409   2.615  10.257   1.956  1.3738 -3.8734  2.3410
  554MOL0     H76410   2.679  10.159   2.124 -0.3327  1.0644 -0.6061
  554MOL0     H76411   2.920  10.235   2.378  0.4453 -0.9514  1.8469
  554MOL0     H76412   2.876  10.077   2.416  3.5317 -0.5889 -1.7531
  554MOL0     H76413   2.750  10.193   2.350  0.2371 -0.3142 -1.3134
  554MOL0     H76414   3.349   9.722   2.251  2.9276 -1.4501 -0.3898
  554MOL0     H76415   3.540   9.680   2.389  0.9590  0.7739  1.1340
  554MOL0     H76416   3.570   9.841   2.733 -1.1297  1.3950 -2.3358
  554MOL0     H76417   3.572   9.681   2.661  3.5499 -1.5999  1.3660
  554MOL0     H76418   3.831   9.824   2.746 -2.9967  1.1465  0.6209
  554MOL0     H76419   3.729   9.721   2.846  1.1596  0.1446 -0.0815
  554MOL0     H76420   3.837   9.615   2.592 -3.1177  1.4427  0.9284
  554MOL0     H76421   3.758   9.519   2.717 -2.8321  2.6616  2.5505
  554MOL0     H76422   3.946   9.579   2.887 -1.3093 -2.1811  0.7309
  554MOL0     H76423   4.036   9.640   2.744 -0.0180 -0.6373 -2.2648
  554MOL0     H76424   3.938   9.352   2.781 -1.6043 -0.0267 -2.8832
  554MOL0     H76425   4.010   9.411   2.624  2.3334  2.3526 -0.5131
  554MOL0     H76426   4.162   9.417   2.871 -0.0654  3.3270  0.3963
  554MOL0     H76427   4.206   9.458   2.701 -0.5008 -0.7443 -0.6216
  554MOL0     H76428   4.183   9.236   2.618  2.9633  0.8630 -0.4390
  554MOL0     H76429   4.101   9.182   2.765  0.9132 -0.1623  0.9422
  554MOL0     H76430   4.327   9.233   2.883 -1.5855  3.6416 -0.5508
  554MOL0     H76431   4.398   9.222   2.717  0.0786 -2.8084 -0.9090
  554MOL0     H76432   3.535  10.074   2.547 -1.9196  0.8804  1.1634
  554MOL0     H76433   3.382  10.144   2.365  2.5111  0.0096 -0.4619
  554MOL0     H76434   3.103   9.951   1.992 -0.9970 -4.3125  0.2681
  554MOL0     H76435   2.930   9.968   1.845  1.7012  0.9667  0.6145
  554MOL0     H76436   1.348   9.651   1.697  1.8894 -0.8910  2.4176
  554MOL0     H76437   1.176   9.802   1.645 -1.1395  0.4915  0.0184
  554MOL0     H76438   0.959  10.123   1.599  0.1843 -0.5590  1.5865
  554MOL0     H76439   0.800  10.259   1.499  3.9022 -0.9813 -1.0714
  554MOL0     H76440   0.676  10.391   1.426 -0.0200 -1.5678  2.4374
  554MOL0     H76441   0.554  10.513   1.476  0.3682  1.1507 -0.2006
  554MOL0     H76442   0.657  10.698   1.380  1.8811  1.7945 -5.0853
  554MOL0     H76443   0.649  10.577   1.259 -1.8722 -0.4207  1.5286
  554MOL0     H76444   0.912  10.633   1.408  1.7612  3.6931 -2.1922
  554MOL0     H76445   0.901  10.502   1.293  0.2112 -0.1246  0.1151
  554MOL0     H76446   0.992  10.714   1.208  1.3650  0.1479  2.3912
  554MOL0     H76447   0.845  10.796   1.240 -0.7471 -0.0432 -0.5535
  554MOL0     H76448   0.759  10.582   0.866  0.2963  0.1269 -0.9608
  554MOL0     H76449   0.879  10.560   1.809  0.0456  0.7212  0.5711
  554MOL0     H76450   1.129  10.418   1.988 -0.0393 -2.4941  1.8451
  554MOL0     H76451   1.005  10.538   1.974 -0.1353  0.9815 -2.9412
  554MOL0     H76452   0.964  10.383   2.045  0.7660  0.3283 -0.4873
  555MOL0     O76453   1.973   6.839   4.229  0.0971  0.6137  0.9481
  555MOL0     C76454   1.936   6.951   4.195 -0.5935  0.1391  0.6177
  555MOL0     O76455   1.815   6.985   4.140 -0.0194 -0.1830  0.4591
  555MOL0     C76456   1.725   6.882   4.132  0.6431 -0.7239  0.5361
  555MOL0     C76457   1.639   6.855   4.244  0.3607  0.9131 -0.0101
  555MOL0     C76458   1.537   6.761   4.228 -0.4684  0.3686 -1.0543
  555MOL0     C76459   1.511   6.700   4.100  0.5078 -1.0784 -0.8508
  555MOL0     O76460   1.407   6.618   4.066  0.3995 -0.3172 -1.1743
  555MOL0     C76461   1.292   6.656   4.146  0.5817 -0.6207 -0.1884
  555MOL0     C76462   1.176   6.594   4.067 -1.4740 -0.3784 -1.2553
  555MOL0     C76463   1.051   6.674   4.107  0.3256  0.1085  0.5538
  555MOL0     C76464   0.919   6.593   4.094  0.1712 -0.8159 -0.2260
  555MOL0     C76465   0.898   6.579   3.943 -0.2772  0.0389 -0.9037
  555MOL0     C76466   0.759   6.521   3.912  0.3628  0.1279  0.2722
  555MOL0     C76467   0.754   6.478   3.762  0.7031  0.2830  0.4223
  555MOL0     C76468   0.616   6.421   3.724 -0.5532 -1.5331  0.1152
  555MOL0     N76469   0.601   6.376   3.588 -0.2215 -0.5144  0.2259
  555MOL0     C76470   0.608   6.442   3.459 -0.1857  0.4745 -0.3077
  555MOL0     C76471   0.559   6.347   3.372  1.1575 -0.2171 -0.3561
  555MOL0     C76472   0.501   6.378   3.242 -0.7761  0.3826  0.5803
  555MOL0     C76473   0.602   6.407   3.135 -0.1849  0.4513  0.5618
  555MOL0     C76474   0.661   6.285   3.065 -0.3395  0.2771 -1.0695
  555MOL0     C76475   0.604   6.279   2.926  0.9668 -0.0644  1.0223
  555MOL0     O76476   0.456   6.282   2.937 -0.2425 -0.5213 -0.7027
  555MOL0     C76477   0.374   6.361   2.851  0.0950  0.4390 -0.2941
  555MOL0     C76478   0.411   6.422   2.733 -0.9007  0.2069  0.7232
  555MOL0     C76479   0.323   6.505   2.655 -0.0526 -0.4143 -0.3193
  555MOL0     C76480   0.387   6.576   2.528 -0.0368  0.2118 -0.4050
  555MOL0     C76481   0.195   6.525   2.702  0.3397 -0.4673 -0.0091
  555MOL0     C76482   0.091   6.619   2.649  0.5166  0.2487  0.6359
  555MOL0     O76483  -0.041   6.579   2.649  0.0488 -0.1084 -0.5108
  555MOL0     C76484  -0.138   6.679   2.654  0.3560  1.1001  0.1547
  555MOL0     C76485  -0.136   6.823   2.683  0.5771  0.5780  0.3007
  555MOL0     C76486  -0.254   6.902   2.671  0.4063  0.8923 -0.7343
  555MOL0     C76487  -0.377   6.838   2.671 -0.0537 -0.3085  0.1035
  555MOL0     O76488  -0.483   6.919   2.677  0.6663  0.2686 -0.5242
  555MOL0     C76489  -0.593   6.880   2.770  0.1149  0.3278  0.3377
  555MOL0     C76490  -0.644   7.001   2.852 -0.1612 -0.8264  0.8303
  555MOL0     C76491  -0.544   7.075   2.934  0.0400  0.1554 -0.6152
  555MOL0     C76492  -0.586   7.213   2.984 -0.3170  0.3493 -0.6560
  555MOL0     C76493  -0.471   7.302   3.023  0.4321  0.2579  0.8994
  555MOL0     C76494  -0.437   7.407   2.912 -0.4944 -0.3458  1.4553
  555MOL0     C76495  -0.348   7.506   2.977  0.4761  0.2306  0.3710
  555MOL0     C76496  -0.336   7.623   2.875  0.2980  0.6437 -0.4284
  555MOL0    Cl76497  -0.219   7.566   2.748 -0.1011  0.0358  0.1866
  555MOL0     C76498  -0.389   6.697   2.651 -0.1174 -0.0664  0.0379
  555MOL0     C76499  -0.270   6.628   2.632 -0.2846  0.1448 -0.7458
  555MOL0     O76500   0.125   6.725   2.605 -0.1079  0.2943 -0.3991
  555MOL0     C76501   0.157   6.464   2.814  0.0482  0.3071 -0.0726
  555MOL0     C76502   0.238   6.374   2.888 -0.3718 -0.0205 -1.0313
  555MOL0     N76503   0.537   6.234   3.433  0.6310 -0.1836  0.4590
  555MOL0     N76504   0.573   6.244   3.567  0.3178  0.7137  0.8636
  555MOL0     C76505   1.590   6.741   3.993  0.1282  0.0922 -0.0364
  555MOL0     C76506   1.700   6.825   4.014  0.8072  0.3819  0.1558
  555MOL0     C76507   2.043   7.049   4.207 -1.0615 -0.4407  0.1523
  555MOL0     C76508   2.049   7.155   4.119 -0.1325 -0.2328  0.9783
  555MOL0     C76509   2.138   7.256   4.126 -0.2982 -0.3074  0.5927
  555MOL0     C76510   2.241   7.257   4.216  0.1771  0.2354  0.6041
  555MOL0     O76511   2.329   7.366   4.215 -0.2248 -0.6988  0.3288
  555MOL0     C76512   2.433   7.373   4.308  0.1227 -0.8246 -0.0138
  555MOL0     C76513   2.515   7.500   4.284 -0.7499  0.8624  0.6098
  555MOL0     C76514   2.594   7.514   4.157 -1.1192  0.0906 -0.2176
  555MOL0     C76515   2.686   7.636   4.148  0.0832  0.7245  0.3591
  555MOL0     C76516   2.726   7.651   4.008 -0.1112 -0.7855 -0.1207
  555MOL0     C76517   2.759   7.680   3.893 -0.0938 -0.3227 -0.8024
  555MOL0     C76518   2.243   7.155   4.324  0.1856 -0.3234  0.1549
  555MOL0     C76519   2.141   7.053   4.317 -0.2770 -0.3562  0.0347
  555MOL0     C76520   2.135   6.955   4.429  0.5549 -0.0149  0.2497
  555MOL0     H76521   1.655   6.899   4.342  2.3239 -2.7521  1.5158
  555MOL0     H76522   1.490   6.730   4.321  1.0650  2.7807  0.6131
  555MOL0     H76523   1.275   6.764   4.159 -1.3585 -0.8433 -0.5245
  555MOL0     H76524   1.293   6.599   4.239 -2.1497 -1.6761 -0.7007
  555MOL0     H76525   1.197   6.583   3.960  1.7102  1.3298 -0.9297
  555MOL0     H76526   1.168   6.493   4.108 -0.3415  0.7637  2.1089
  555MOL0     H76527   1.055   6.693   4.215  0.5428 -2.5517  1.0676
  555MOL0     H76528   1.037   6.775   4.066  0.2896  0.0207  0.3505
  555MOL0     H76529   0.922   6.496   4.144 -0.8366 -0.0992  1.2877
  555MOL0     H76530   0.837   6.645   4.144  0.7848 -2.1519  2.3404
  555MOL0     H76531   0.978   6.516   3.903 -0.6929 -0.0755 -1.5545
  555MOL0     H76532   0.906   6.678   3.898 -2.7298  1.3461  1.2425
  555MOL0     H76533   0.747   6.440   3.985  0.3906  0.4767  0.6682
  555MOL0     H76534   0.680   6.593   3.936  0.6387  0.3656  0.4668
  555MOL0     H76535   0.818   6.389   3.754 -2.7767 -2.5199  1.0794
  555MOL0     H76536   0.789   6.560   3.698 -1.8596  1.0808 -0.0480
  555MOL0     H76537   0.584   6.349   3.800 -1.1088 -3.1038 -1.5503
  555MOL0     H76538   0.540   6.500   3.735  0.1385 -0.8575  0.1177
  555MOL0     H76539   0.619   6.548   3.439 -0.5847  0.8359  1.3113
  555MOL0     H76540   0.464   6.481   3.240  2.3819  1.6385 -1.4693
  555MOL0     H76541   0.423   6.307   3.215 -0.4623  0.4744 -0.6537
  555MOL0     H76542   0.552   6.479   3.068  0.4093  0.9361  0.6363
  555MOL0     H76543   0.687   6.461   3.177  0.7092  0.0630 -0.7146
  555MOL0     H76544   0.768   6.306   3.062 -0.0296 -0.3117  2.2810
  555MOL0     H76545   0.644   6.188   3.114  0.7078  0.6230  0.0116
  555MOL0     H76546   0.638   6.366   2.870 -1.5195  0.7605  0.6695
  555MOL0     H76547   0.633   6.185   2.878  1.6194  0.0147  1.2523
  555MOL0     H76548   0.513   6.424   2.698 -0.0212 -0.8326  3.0459
  555MOL0     H76549   0.466   6.504   2.505 -0.4019 -0.6756  0.9752
  555MOL0     H76550   0.429   6.675   2.548 -0.3649  0.8027 -2.4269
  555MOL0     H76551   0.317   6.587   2.445 -1.1855 -0.4729  0.4387
  555MOL0     H76552  -0.041   6.866   2.712  1.2058 -0.1518 -0.6209
  555MOL0     H76553  -0.245   7.009   2.684 -0.0307  1.1952 -2.6170
  555MOL0     H76554  -0.668   6.822   2.715  1.1406  0.2413 -1.0181
  555MOL0     H76555  -0.562   6.798   2.835 -0.0677 -2.5852 -2.9721
  555MOL0     H76556  -0.674   7.073   2.776  0.2703 -0.0200  1.4098
  555MOL0     H76557  -0.734   6.978   2.911 -1.5808 -1.5375 -1.4977
  555MOL0     H76558  -0.451   7.101   2.882  0.2931  1.8457  0.6116
  555MOL0     H76559  -0.504   7.011   3.013  2.7707  3.5176  0.9981
  555MOL0     H76560  -0.658   7.205   3.067 -0.1966 -0.5499 -0.6362
  555MOL0     H76561  -0.640   7.255   2.898 -1.9453 -0.6036 -0.1401
  555MOL0     H76562  -0.512   7.361   3.106 -0.4672  0.3676  0.3836
  555MOL0     H76563  -0.388   7.235   3.049  0.8509  0.6591  0.6275
  555MOL0     H76564  -0.525   7.448   2.861 -1.0006  0.7541  3.1369
  555MOL0     H76565  -0.377   7.357   2.835  0.1452  1.5229  0.6735
  555MOL0     H76566  -0.246   7.466   2.981  0.8704  0.7778 -2.3697
  555MOL0     H76567  -0.373   7.542   3.078  0.1817 -0.1608  0.4405
  555MOL0     H76568  -0.308   7.709   2.938  0.0312 -0.0306  0.6423
  555MOL0     H76569  -0.434   7.638   2.828 -0.9371 -0.3088  1.6976
  555MOL0     H76570  -0.484   6.645   2.654 -0.2163  0.0630  4.3530
  555MOL0     H76571  -0.264   6.522   2.609  4.7587 -0.2501  1.0006
  555MOL0     H76572   0.056   6.465   2.851 -0.0829  1.2407 -0.4289
  555MOL0     H76573   0.194   6.338   2.980  3.1884 -0.0206  0.8776
  555MOL0     H76574   1.580   6.694   3.896 -1.0838  0.6877 -0.2072
  555MOL0     H76575   1.761   6.841   3.926 -2.5779 -2.4352 -3.0586
  555MOL0     H76576   1.978   7.167   4.038  1.9429  1.2789 -0.7136
  555MOL0     H76577   2.131   7.342   4.060  2.3509 -0.0563  0.5384
  555MOL0     H76578   2.397   7.374   4.411  2.5272  0.5663  0.8760
  555MOL0     H76579   2.489   7.280   4.292  2.8351  0.5706  0.7414
  555MOL0     H76580   2.574   7.516   4.375  1.3618  1.5518 -0.8087
  555MOL0     H76581   2.446   7.583   4.267 -0.0686  1.1972 -0.5963
  555MOL0     H76582   2.640   7.420   4.128  0.3379  0.4091  0.9266
  555MOL0     H76583   2.513   7.528   4.084 -2.0972  0.2963  0.8825
  555MOL0     H76584   2.761   7.635   4.228  0.2588  0.7650  0.1960
  555MOL0     H76585   2.628   7.723   4.181 -1.0513 -0.5931  1.9826
  555MOL0     H76586   2.799   7.716   3.800 -2.0016 -0.4515 -1.7449
  555MOL0     H76587   2.304   7.165   4.413  2.0562 -0.1527 -1.0924
  555MOL0     H76588   2.180   6.981   4.525  1.9438  3.7373 -1.2017
  555MOL0     H76589   2.029   6.934   4.446  0.1561  1.1836 -0.6238
  555MOL0     H76590   2.182   6.861   4.397  1.8820  0.7891 -0.2576
  556MOL0     O76591  11.213   9.696   7.791  0.2655 -0.3433 -0.0449
  556MOL0     C76592  11.262   9.741   7.690 -0.1329 -0.0087  0.2475
  556MOL0     O76593  11.369   9.828   7.697  0.0811  0.0592  0.9062
  556MOL0     C76594  11.393   9.896   7.810 -0.0820  0.7552 -1.0884
  556MOL0     C76595  11.313  10.012   7.845  0.9887  0.6021  0.0411
  556MOL0     C76596  11.337  10.090   7.956  0.0172 -0.6641  0.2750
  556MOL0     C76597  11.449  10.073   8.026 -0.7878 -0.3115  1.1218
  556MOL0     O76598  11.491  10.155   8.132  0.3852 -0.2994 -0.2155
  556MOL0     C76599  11.397  10.228   8.218  0.2502 -0.7209  0.0695
  556MOL0     C76600  11.481  10.284   8.326  0.3307  0.0331 -1.3468
  556MOL0     C76601  11.401  10.370   8.433  0.1795  0.2882 -0.1613
  556MOL0     C76602  11.472  10.380   8.567 -0.9760  1.2671  0.8040
  556MOL0     C76603  11.373  10.455   8.659 -0.3093 -0.3545  0.5083
  556MOL0     C76604  11.443  10.483   8.790 -0.9915 -0.0034 -1.1224
  556MOL0     C76605  11.343  10.555   8.883  0.7810 -0.5728 -0.4992
  556MOL0     C76606  11.416  10.581   9.021  0.8321 -0.2129  0.1130
  556MOL0     N76607  11.329  10.626   9.127  0.1282 -0.2707 -0.0968
  556MOL0     C76608  11.250  10.740   9.138 -0.3676 -0.3914  0.1151
  556MOL0     C76609  11.187  10.732   9.259 -0.3417 -0.1378  0.2797
  556MOL0     C76610  11.095  10.845   9.303 -0.1011  0.2895  0.1465
  556MOL0     C76611  11.121  10.888   9.441  0.1353 -0.4337 -0.4114
  556MOL0     C76612  11.017  10.990   9.502  0.8246 -0.2921  0.5665
  556MOL0     C76613  10.869  10.936   9.496 -0.1741  0.2175 -0.3909
  556MOL0     O76614  10.854  10.812   9.576  0.1295 -0.1774 -0.4279
  556MOL0     C76615  10.773  10.715   9.522  0.6578  0.2386  0.3396
  556MOL0     C76616  10.665  10.752   9.428 -0.2988  0.4836  0.3384
  556MOL0     C76617  10.595  10.653   9.368  0.6550 -0.1923  0.1895
  556MOL0     C76618  10.473  10.710   9.295  0.8808  0.2458  0.3096
  556MOL0     C76619  10.632  10.515   9.381  0.1999  0.0976  0.7519
  556MOL0     C76620  10.555  10.403   9.320  0.0095 -0.1511 -0.0972
  556MOL0     O76621  10.573  10.385   9.188 -0.2853  0.1852  0.0330
  556MOL0     C76622  10.529  10.266   9.136 -0.6276  0.1138  0.2929
  556MOL0     C76623  10.630  10.175   9.104 -0.7340  0.7179 -0.5309
  556MOL0     C76624  10.593  10.052   9.054  0.3201 -0.4208  0.4092
  556MOL0     C76625  10.460  10.027   9.027 -0.4577 -1.4168  0.4518
  556MOL0     O76626  10.428   9.904   8.979  0.5426  0.4671  0.1387
  556MOL0     C76627  10.341   9.904   8.862 -0.1812 -0.1187  0.3884
  556MOL0     C76628  10.316   9.755   8.818  0.1702 -0.7853 -0.1179
  556MOL0     C76629  10.233   9.757   8.687  0.2524 -0.5304 -0.1577
  556MOL0     C76630  10.231   9.612   8.616 -0.6710  0.1332 -0.7907
  556MOL0     C76631  10.169   9.608   8.479  0.5113  0.2917  0.1360
  556MOL0     C76632  10.259   9.658   8.367  0.4784 -0.0861 -0.8721
  556MOL0     C76633  10.176   9.641   8.242  0.4577 -0.5810 -0.8286
  556MOL0     C76634  10.246   9.690   8.115 -0.1901  0.1329  0.5413
  556MOL0    Cl76635  10.351   9.830   8.143  0.0388 -0.6173 -0.1850
  556MOL0     C76636  10.356  10.126   9.047 -0.2884  0.6729 -0.3615
  556MOL0     C76637  10.394  10.248   9.100  0.5214  0.3742 -1.0700
  556MOL0     O76638  10.496  10.328   9.396 -0.3971  0.5924  0.5271
  556MOL0     C76639  10.736  10.476   9.470  0.0874  0.1682  0.4135
  556MOL0     C76640  10.810  10.577   9.526 -0.5212 -0.8197  0.6171
  556MOL0     N76641  11.217  10.606   9.314 -0.3248  0.3318 -0.0318
  556MOL0     N76642  11.304  10.544   9.238  0.0546 -0.7338 -0.1417
  556MOL0     C76643  11.541   9.967   7.978  0.4796 -0.4426  0.6070
  556MOL0     C76644  11.508   9.876   7.882  0.6072  0.4312 -0.0608
  556MOL0     C76645  11.227   9.703   7.550 -0.2786  0.4556  0.1165
  556MOL0     C76646  11.319   9.723   7.449  0.1951 -0.0413 -0.2477
  556MOL0     C76647  11.291   9.695   7.314 -0.3096  0.1736  0.6162
  556MOL0     C76648  11.163   9.657   7.274 -0.1373  0.9424 -0.0588
  556MOL0     O76649  11.134   9.643   7.144  0.4202 -0.1072 -0.4157
  556MOL0     C76650  10.993   9.658   7.104  0.1090  0.1430  0.6877
  556MOL0     C76651  10.970   9.583   6.975 -0.2353 -0.1881 -0.7091
  556MOL0     C76652  10.957   9.430   6.995  0.0932  0.1795 -0.4909
  556MOL0     C76653  10.880   9.338   6.884  0.2534 -1.0865 -0.6473
  556MOL0     C76654  10.894   9.207   6.931 -0.2112  0.6983  0.3142
  556MOL0     C76655  10.909   9.084   6.950 -0.0372 -1.0270  0.1966
  556MOL0     C76656  11.072   9.624   7.380  0.0573  0.3859  0.4938
  556MOL0     C76657  11.102   9.648   7.515 -0.0455  0.6609 -0.1803
  556MOL0     C76658  10.992   9.611   7.617 -0.3750 -0.6371 -0.5427
  556MOL0     H76659  11.211  10.018   7.807  0.4443  0.0048  1.3633
  556MOL0     H76660  11.273  10.176   7.974  0.4731  0.4066 -2.6350
  556MOL0     H76661  11.321  10.162   8.261  1.8768 -1.7372  1.5295
  556MOL0     H76662  11.338  10.303   8.164 -1.8642 -2.0489  0.4041
  556MOL0     H76663  11.524  10.199   8.379  2.4172  1.4843 -0.5694
  556MOL0     H76664  11.548  10.348   8.268 -0.3026  1.5372 -0.4592
  556MOL0     H76665  11.388  10.475   8.405  0.2392  0.5458  0.7363
  556MOL0     H76666  11.299  10.335   8.450 -0.2427  1.5539 -0.0152
  556MOL0     H76667  11.502  10.283   8.608 -0.0865  1.9003  1.7032
  556MOL0     H76668  11.566  10.436   8.553  0.8141 -1.9994 -1.7547
  556MOL0     H76669  11.284  10.399   8.689  0.4746 -1.0232  1.7059
  556MOL0     H76670  11.339  10.549   8.617  0.2965 -0.2989  0.1279
  556MOL0     H76671  11.471  10.390   8.840  0.3796  0.0234 -1.8143
  556MOL0     H76672  11.527  10.551   8.776 -0.6071  1.6519  5.5675
  556MOL0     H76673  11.246  10.507   8.902  0.0706  0.1954 -2.0099
  556MOL0     H76674  11.324  10.652   8.836  0.4729  0.2691  1.2957
  556MOL0     H76675  11.456  10.488   9.064 -0.6873  0.7209  3.9963
  556MOL0     H76676  11.492  10.658   9.007 -2.4829  3.2224 -0.5598
  556MOL0     H76677  11.225  10.809   9.059  3.4284  0.3996 -0.5849
  556MOL0     H76678  10.996  10.798   9.299  0.1726 -0.2291 -2.2432
  556MOL0     H76679  11.099  10.937   9.243  3.5766  2.1699  2.8589
  556MOL0     H76680  11.145  10.806   9.510  2.0847  2.6408  2.9921
  556MOL0     H76681  11.212  10.948   9.455 -0.7311  0.3758  2.6788
  556MOL0     H76682  11.035  11.008   9.609  1.3289  0.8770  0.3039
  556MOL0     H76683  11.026  11.089   9.455  1.1166 -0.1495  0.9117
  556MOL0     H76684  10.806  11.019   9.530  0.1229  1.1770 -2.0734
  556MOL0     H76685  10.854  10.929   9.388  3.2118  0.1509 -0.9645
  556MOL0     H76686  10.637  10.857   9.424  1.6983  1.0686  0.6594
  556MOL0     H76687  10.418  10.790   9.347  0.5562 -0.2570  0.7562
  556MOL0     H76688  10.403  10.628   9.273  3.3492 -1.7418 -0.5778
  556MOL0     H76689  10.487  10.750   9.194  1.5561 -2.0273 -0.5590
  556MOL0     H76690  10.735  10.197   9.118 -0.4522 -0.4126 -0.8104
  556MOL0     H76691  10.653   9.965   9.029 -0.3711 -1.0884  1.0133
  556MOL0     H76692  10.248   9.956   8.885  1.0917  2.0763  0.8034
  556MOL0     H76693  10.391   9.956   8.779 -0.0220 -0.0505  0.5264
  556MOL0     H76694  10.415   9.714   8.799  0.3666 -1.3220  1.7848
  556MOL0     H76695  10.262   9.693   8.891  2.3322 -3.0589 -0.3095
  556MOL0     H76696  10.281   9.828   8.619  2.3624  1.6005  3.2605
  556MOL0     H76697  10.133   9.799   8.700 -0.0145  0.6359 -4.5041
  556MOL0     H76698  10.177   9.558   8.694 -0.5487 -1.3923 -1.7322
  556MOL0     H76699  10.329   9.565   8.605 -1.5449 -1.3492 -2.6512
  556MOL0     H76700  10.151   9.503   8.457 -0.7309 -0.2282  3.1693
  556MOL0     H76701  10.068   9.651   8.486 -0.2989 -1.1744 -1.7164
  556MOL0     H76702  10.350   9.597   8.376  0.4178  0.1928  3.8235
  556MOL0     H76703  10.284   9.764   8.373 -0.4117  0.0929 -0.0876
  556MOL0     H76704  10.090   9.707   8.248  1.3949  0.6183 -0.1368
  556MOL0     H76705  10.148   9.536   8.229 -0.1006 -0.4975 -0.2933
  556MOL0     H76706  10.179   9.715   8.033  0.3310 -0.3172 -0.0326
  556MOL0     H76707  10.304   9.607   8.074  0.0750  0.9083 -0.7107
  556MOL0     H76708  10.253  10.105   9.022 -1.3974  2.5090  2.2148
  556MOL0     H76709  10.324  10.327   9.124 -0.6341 -0.8145 -0.4047
  556MOL0     H76710  10.761  10.374   9.496  0.2255  0.5451  1.9000
  556MOL0     H76711  10.900  10.551   9.581  0.9124  2.0814 -0.1251
  556MOL0     H76712  11.626   9.949   8.042  0.7801  3.7630  1.7132
  556MOL0     H76713  11.559   9.785   7.855 -0.7682 -0.2183 -0.5821
  556MOL0     H76714  11.418   9.764   7.467 -0.0217  1.1163 -1.5802
  556MOL0     H76715  11.370   9.694   7.239  1.8739  1.0107  2.7702
  556MOL0     H76716  10.914   9.629   7.174  1.9089 -1.3591  2.1958
  556MOL0     H76717  10.975   9.764   7.082 -0.8066 -0.1260  0.0513
  556MOL0     H76718  11.048   9.604   6.901  0.5204 -0.1153  0.0905
  556MOL0     H76719  10.875   9.621   6.937 -0.1501  2.1838  1.1727
  556MOL0     H76720  11.058   9.391   7.010  0.7182  1.8875  0.1007
  556MOL0     H76721  10.907   9.423   7.092 -0.6802  1.0613 -0.8059
  556MOL0     H76722  10.925   9.365   6.788  4.0433  4.7016  2.1583
  556MOL0     H76723  10.773   9.360   6.881 -0.4000 -3.4343  2.1590
  556MOL0     H76724  10.924   8.978   6.957 -1.6981 -1.2413  0.8695
  556MOL0     H76725  10.984   9.565   7.356 -0.2477 -0.6379  3.6430
  556MOL0     H76726  10.979   9.709   7.663  4.1007  1.0023 -2.2245
  556MOL0     H76727  10.899   9.582   7.567 -1.2792 -0.0354  0.7396
  556MOL0     H76728  11.018   9.538   7.694 -0.8462  0.6393  0.8660
  557MOL0     O76729   0.524   4.971   0.895  0.1658  0.4749  0.7377
  557MOL0     C76730   0.416   4.948   0.839  0.1373 -0.1507 -0.2938
  557MOL0     O76731   0.369   5.024   0.732 -0.1908  0.9415  0.7498
  557MOL0     C76732   0.445   5.126   0.677 -0.2980 -0.0214 -0.7220
  557MOL0     C76733   0.532   5.214   0.747 -0.1427 -0.7807 -0.1346
  557MOL0     C76734   0.595   5.324   0.680 -0.5932 -0.3695 -0.8010
  557MOL0     C76735   0.567   5.357   0.547  0.4157  0.2713  0.7352
  557MOL0     O76736   0.636   5.456   0.489 -0.5422 -0.1840  0.7432
  557MOL0     C76737   0.593   5.498   0.353  0.2447 -0.6137 -0.3586
  557MOL0     C76738   0.691   5.592   0.296  0.4970 -0.2267 -0.0344
  557MOL0     C76739   0.836   5.539   0.284 -0.0022 -0.1129 -0.1602
  557MOL0     C76740   0.935   5.627   0.203 -1.3636  0.3523 -0.1849
  557MOL0     C76741   1.073   5.562   0.158 -0.4266 -0.0514 -0.2516
  557MOL0     C76742   1.151   5.661   0.079  0.0403 -0.1138 -0.4194
  557MOL0     C76743   1.291   5.617   0.062 -0.3252 -0.9336 -0.9354
  557MOL0     C76744   1.299   5.489  -0.026  0.3749  0.5155  0.2880
  557MOL0     N76745   1.441   5.444  -0.036 -0.1958 -0.0976  0.7171
  557MOL0     C76746   1.555   5.514  -0.069 -0.5828 -0.1254  1.1750
  557MOL0     C76747   1.651   5.420  -0.065 -0.2218  0.1666 -0.4499
  557MOL0     C76748   1.800   5.416  -0.113 -0.8528 -0.6421 -0.1211
  557MOL0     C76749   1.854   5.276  -0.110  0.1531  0.0808  0.3478
  557MOL0     C76750   1.957   5.246  -0.218 -0.8827 -0.7203 -0.1478
  557MOL0     C76751   2.074   5.344  -0.219  0.5593  1.2748 -0.0778
  557MOL0     O76752   2.154   5.327  -0.336  0.2076 -1.0846 -0.5962
  557MOL0     C76753   2.270   5.391  -0.352 -0.1122 -0.0730  0.1878
  557MOL0     C76754   2.339   5.374  -0.469 -0.1666  0.0380  0.4574
  557MOL0     C76755   2.461   5.433  -0.500 -0.7878 -0.3920  0.5379
  557MOL0     C76756   2.511   5.398  -0.635 -0.7183 -0.2976  0.7888
  557MOL0     C76757   2.526   5.517  -0.400 -1.0769 -0.8005  0.8270
  557MOL0     C76758   2.653   5.581  -0.421 -0.2880  0.3555  0.3304
  557MOL0     O76759   2.693   5.678  -0.328 -0.2571  0.4055 -0.1214
  557MOL0     C76760   2.797   5.749  -0.346 -0.2009 -0.7126 -0.1864
  557MOL0     C76761   2.810   5.832  -0.460 -0.4890 -0.4347  0.2541
  557MOL0     C76762   2.930   5.894  -0.489 -0.1444  0.4259 -0.0172
  557MOL0     C76763   3.039   5.879  -0.408 -0.7252  0.5114 -0.6958
  557MOL0     O76764   3.158   5.950  -0.440 -0.8080 -0.1066 -0.5725
  557MOL0     C76765   3.237   5.997  -0.330  0.4064  1.2719  0.4619
  557MOL0     C76766   3.318   6.105  -0.390  0.2664 -0.9615 -0.4993
  557MOL0     C76767   3.395   6.192  -0.281  0.1519  0.2145 -0.1067
  557MOL0     C76768   3.529   6.249  -0.343  0.7254 -0.7735  0.2506
  557MOL0     C76769   3.608   6.326  -0.229 -0.1522 -0.3189  0.6036
  557MOL0     C76770   3.739   6.379  -0.295  0.2183  0.3525  0.2998
  557MOL0     C76771   3.782   6.482  -0.198  0.6003 -0.4164 -1.2206
  557MOL0     C76772   3.930   6.531  -0.233 -0.5739  0.4300 -0.0962
  557MOL0    Cl76773   4.050   6.397  -0.222  0.3527  0.2866  0.1877
  557MOL0     C76774   3.024   5.803  -0.286 -0.4448  0.3288  0.2001
  557MOL0     C76775   2.904   5.739  -0.259  0.4116  0.4468 -0.0413
  557MOL0     O76776   2.733   5.532  -0.507 -0.0496 -0.5989  0.8177
  557MOL0     C76777   2.453   5.534  -0.276 -0.3735  0.6865  0.2254
  557MOL0     C76778   2.330   5.471  -0.258  0.0020  0.1697 -1.0638
  557MOL0     N76779   1.594   5.307  -0.016 -0.2288  0.0391  0.3532
  557MOL0     N76780   1.471   5.325   0.007 -0.2898 -0.0657  0.0918
  557MOL0     C76781   0.467   5.276   0.479 -0.1918  0.5621 -0.2120
  557MOL0     C76782   0.398   5.175   0.556 -0.0676  0.9517  0.1247
  557MOL0     C76783   0.339   4.823   0.872 -0.1532 -0.5320  0.6651
  557MOL0     C76784   0.212   4.807   0.809  0.5991 -0.0588  0.0919
  557MOL0     C76785   0.150   4.684   0.822 -0.0459 -0.0798 -0.2089
  557MOL0     C76786   0.197   4.581   0.903 -0.2633  1.1348 -0.6694
  557MOL0     O76787   0.119   4.465   0.910 -0.2445 -0.6457  0.1916
  557MOL0     C76788   0.172   4.356   0.982 -0.2914 -0.3464 -0.7435
  557MOL0     C76789   0.076   4.235   0.979  0.5520  1.0647  1.2023
  557MOL0     C76790  -0.046   4.234   1.073  0.7595 -0.8485 -0.0999
  557MOL0     C76791  -0.121   4.087   1.070 -0.3404 -0.8570  0.1946
  557MOL0     C76792  -0.236   4.066   1.172 -0.4948  0.4210 -1.0087
  557MOL0     C76793  -0.319   4.033   1.254 -0.4095 -0.5380 -0.2085
  557MOL0     C76794   0.318   4.602   0.972 -0.0816  1.4855  0.0848
  557MOL0     C76795   0.387   4.728   0.961  1.0229 -0.0685  1.0642
  557MOL0     C76796   0.506   4.741   1.041 -0.4197 -0.2135 -0.1826
  557MOL0     H76797   0.563   5.195   0.849 -1.3459 -4.2746 -0.3131
  557MOL0     H76798   0.674   5.372   0.737  0.2060  2.1979 -3.7927
  557MOL0     H76799   0.491   5.536   0.358  0.7907  0.7890  1.0049
  557MOL0     H76800   0.590   5.414   0.283  1.4711 -1.9225  1.0799
  557MOL0     H76801   0.655   5.619   0.196 -0.5317 -0.1701  0.3462
  557MOL0     H76802   0.697   5.675   0.367  0.0965 -0.3266  0.1141
  557MOL0     H76803   0.882   5.521   0.382  2.8269 -0.3345 -1.4077
  557MOL0     H76804   0.847   5.436   0.247  2.7556 -0.1654  0.5240
  557MOL0     H76805   0.886   5.657   0.110  0.7936  2.5937 -0.7371
  557MOL0     H76806   0.953   5.719   0.259  2.0621  0.9148 -1.9213
  557MOL0     H76807   1.049   5.470   0.103  2.6657 -1.0837 -0.1030
  557MOL0     H76808   1.114   5.524   0.252 -2.5910 -0.6747  0.5081
  557MOL0     H76809   1.107   5.671  -0.021  0.0685 -0.7403 -0.4966
  557MOL0     H76810   1.143   5.758   0.129 -2.1050 -0.3199 -0.2968
  557MOL0     H76811   1.331   5.600   0.163 -2.6942 -0.2401  0.1883
  557MOL0     H76812   1.354   5.697   0.022 -2.2973  1.9184  1.2479
  557MOL0     H76813   1.238   5.404   0.007 -0.8705  1.6418  1.0074
  557MOL0     H76814   1.274   5.505  -0.131  4.9997  0.1458 -1.0457
  557MOL0     H76815   1.565   5.616  -0.105 -1.7226 -0.9942 -1.9407
  557MOL0     H76816   1.852   5.489  -0.050 -2.7454 -0.1473  0.9398
  557MOL0     H76817   1.799   5.454  -0.215  0.8969  0.2876  0.1687
  557MOL0     H76818   1.889   5.259  -0.008 -1.9095  1.4390  1.3545
  557MOL0     H76819   1.775   5.203  -0.128  0.1219  0.0067  0.7718
  557MOL0     H76820   1.993   5.143  -0.215 -1.9108 -1.1695 -1.7410
  557MOL0     H76821   1.918   5.251  -0.320  0.9821 -3.3321 -1.0763
  557MOL0     H76822   2.042   5.448  -0.213  0.0054  1.0691  0.6411
  557MOL0     H76823   2.134   5.331  -0.128 -1.6026 -0.0510  1.2407
  557MOL0     H76824   2.303   5.308  -0.547  2.8910  2.3529 -3.2491
  557MOL0     H76825   2.540   5.493  -0.681  0.7472 -2.2952 -2.7802
  557MOL0     H76826   2.431   5.364  -0.701 -0.9696  1.5538  0.0605
  557MOL0     H76827   2.604   5.341  -0.634  0.2641  1.1207  3.7779
  557MOL0     H76828   2.719   5.853  -0.516 -0.8024  0.7911  1.1751
  557MOL0     H76829   2.931   5.964  -0.572  0.1508 -0.1780 -0.5292
  557MOL0     H76830   3.177   6.036  -0.247 -0.5235  0.3818  0.2313
  557MOL0     H76831   3.311   5.928  -0.289 -0.8719 -2.0932 -2.4315
  557MOL0     H76832   3.389   6.064  -0.463 -0.4571  0.5863 -2.1490
  557MOL0     H76833   3.256   6.179  -0.441  1.4379  0.5841  0.2180
  557MOL0     H76834   3.421   6.125  -0.199  0.7802  0.0750 -0.4166
  557MOL0     H76835   3.333   6.276  -0.247  0.0249  0.4419 -0.8814
  557MOL0     H76836   3.494   6.326  -0.412  0.8106  0.2693  1.3299
  557MOL0     H76837   3.586   6.168  -0.389 -1.2299 -0.8429 -2.3027
  557MOL0     H76838   3.552   6.405  -0.178  2.6739  2.1414  0.1289
  557MOL0     H76839   3.640   6.260  -0.149  0.2543  2.0480  2.4992
  557MOL0     H76840   3.714   6.417  -0.394 -4.5859  2.8449  2.1616
  557MOL0     H76841   3.809   6.300  -0.324  1.5333  2.6341 -3.3782
  557MOL0     H76842   3.791   6.448  -0.095 -0.7524  1.0169 -0.5745
  557MOL0     H76843   3.714   6.568  -0.203  1.7016  0.4074 -2.9903
  557MOL0     H76844   3.963   6.611  -0.167 -0.2696  1.7207 -1.7562
  557MOL0     H76845   3.912   6.578  -0.330 -1.9798 -3.1048 -1.7350
  557MOL0     H76846   3.101   5.787  -0.211 -1.4883 -0.5710  1.1255
  557MOL0     H76847   2.887   5.677  -0.171  0.5297 -0.2916 -0.5331
  557MOL0     H76848   2.495   5.595  -0.197 -0.6047  1.0743  0.0525
  557MOL0     H76849   2.297   5.494  -0.157  4.0041 -0.9174  0.7321
  557MOL0     H76850   0.434   5.280   0.376 -0.9601  1.6173  0.0569
  557MOL0     H76851   0.324   5.120   0.498  1.5534 -1.5581  0.2939
  557MOL0     H76852   0.182   4.872   0.728 -4.4270 -2.5264 -0.4363
  557MOL0     H76853   0.067   4.670   0.754  0.8044 -1.0662 -1.0942
  557MOL0     H76854   0.258   4.317   0.926 -0.8466 -4.4267  0.9209
  557MOL0     H76855   0.199   4.389   1.082 -2.3103  0.1856 -0.3342
  557MOL0     H76856   0.138   4.152   1.015 -1.3785 -1.5833 -1.1539
  557MOL0     H76857   0.046   4.213   0.876  0.0007 -2.3422  1.9580
  557MOL0     H76858  -0.022   4.261   1.176 -1.4266  0.1117  0.2191
  557MOL0     H76859  -0.113   4.317   1.047 -0.3594 -1.9986 -0.9899
  557MOL0     H76860  -0.047   4.011   1.095  0.7631  0.1120 -0.0445
  557MOL0     H76861  -0.154   4.075   0.967  1.4365 -1.4605 -0.3312
  557MOL0     H76862  -0.400   4.004   1.318 -1.9516  2.6323 -0.5160
  557MOL0     H76863   0.352   4.527   1.043 -3.5608 -1.3363 -0.9214
  557MOL0     H76864   0.494   4.833   1.099 -3.5981 -0.7500  0.1868
  557MOL0     H76865   0.509   4.656   1.110 -2.2622 -0.1225  0.0542
  557MOL0     H76866   0.600   4.737   0.985  1.5147 -1.2250  2.8240
  558MOL0     O76867   5.742  10.631   3.669 -0.0442 -0.5184 -0.2841
  558MOL0     C76868   5.775  10.528   3.613 -0.3464 -0.7561 -0.1238
  558MOL0     O76869   5.902  10.488   3.598  0.3461 -0.1800 -0.1203
  558MOL0     C76870   6.008  10.563   3.627 -0.1127  0.2790 -0.1435
  558MOL0     C76871   6.119  10.503   3.688 -0.3180  0.3777 -0.7240
  558MOL0     C76872   6.234  10.574   3.718  0.2818  0.1396 -0.5129
  558MOL0     C76873   6.242  10.714   3.688 -0.6533  0.0920  0.0899
  558MOL0     O76874   6.350  10.788   3.729 -0.5612  0.2167  0.4503
  558MOL0     C76875   6.398  10.894   3.643  0.8692 -1.0104 -0.5227
  558MOL0     C76876   6.529  10.953   3.705  0.1786  0.0152  0.3551
  558MOL0     C76877   6.601  11.052   3.622 -0.4390  0.6280  0.2206
  558MOL0     C76878   6.743  11.090   3.671 -0.0862  0.0882  0.2644
  558MOL0     C76879   6.819  11.172   3.572  0.0838  0.1387  0.3884
  558MOL0     C76880   6.952  11.224   3.626 -0.0465  0.2732 -0.2000
  558MOL0     C76881   7.020  11.329   3.537 -0.4207  0.6709 -0.1910
  558MOL0     C76882   7.058  11.274   3.399  0.1665  0.0395  0.1272
  558MOL0     N76883   7.147  11.368   3.330 -0.0764  1.1620  0.2911
  558MOL0     C76884   7.125  11.487   3.274  0.1872 -0.6182  0.9829
  558MOL0     C76885   7.240  11.548   3.256  0.0019  0.1175  0.4608
  558MOL0     C76886   7.261  11.677   3.173  0.0615  0.4454  0.9211
  558MOL0     C76887   7.235  11.788   3.269 -0.9493 -0.3859  0.0132
  558MOL0     C76888   7.090  11.820   3.285  0.3008  0.0209 -0.1538
  558MOL0     C76889   7.062  11.950   3.363  0.3874  0.0550  0.1345
  558MOL0     O76890   7.109  11.941   3.493  0.7448  0.4089 -0.4655
  558MOL0     C76891   7.095  12.050   3.575  0.1283  0.7043  0.7152
  558MOL0     C76892   7.086  12.184   3.528 -0.3248 -0.0034 -0.3078
  558MOL0     C76893   7.086  12.296   3.611  0.2138  0.2850 -0.3196
  558MOL0     C76894   7.088  12.433   3.543 -0.7528  0.4392 -0.1276
  558MOL0     C76895   7.079  12.271   3.751 -0.0686 -0.6854  0.3768
  558MOL0     C76896   7.065  12.386   3.846 -0.8942  0.1943  0.0293
  558MOL0     O76897   7.120  12.354   3.971 -0.0341 -0.8521  0.6551
  558MOL0     C76898   7.116  12.433   4.082  0.0801 -0.5325  0.4516
  558MOL0     C76899   7.085  12.372   4.204 -0.7858 -0.6938 -0.1644
  558MOL0     C76900   7.098  12.436   4.326 -0.2191  0.6294 -0.1396
  558MOL0     C76901   7.127  12.571   4.330 -0.5632  0.7265 -0.5532
  558MOL0     O76902   7.126  12.657   4.447 -0.8130  0.0923 -0.3345
  558MOL0     C76903   7.053  12.600   4.566 -0.3332  0.1992  1.0404
  558MOL0     C76904   7.047  12.701   4.687  1.2021  0.0528  0.5203
  558MOL0     C76905   7.186  12.769   4.723 -0.2161  0.1352  0.7683
  558MOL0     C76906   7.159  12.827   4.860 -0.1190  0.9209 -0.3397
  558MOL0     C76907   7.275  12.922   4.894 -1.9375 -0.1266 -0.2480
  558MOL0     C76908   7.416  12.862   4.890  0.4625  0.1999 -0.1894
  558MOL0     C76909   7.501  12.984   4.927  0.5162  0.1511  0.4338
  558MOL0     C76910   7.650  12.945   4.966  1.4680  0.0131  0.1271
  558MOL0    Cl76911   7.730  12.868   4.824 -0.0537  0.0154 -0.0407
  558MOL0     C76912   7.150  12.635   4.212 -0.2029  0.3361  0.4010
  558MOL0     C76913   7.152  12.571   4.087 -0.4936 -0.2536 -0.4428
  558MOL0     O76914   7.001  12.491   3.821  0.4219 -0.3041 -0.6400
  558MOL0     C76915   7.088  12.147   3.797  0.8837  0.5837 -0.0574
  558MOL0     C76916   7.093  12.030   3.715 -0.9630 -0.5284  0.7419
  558MOL0     N76917   7.343  11.457   3.301 -0.5004 -0.0620  0.5412
  558MOL0     N76918   7.284  11.349   3.338  0.5284 -0.4064 -0.3345
  558MOL0     C76919   6.129  10.777   3.629 -0.0019 -0.3958  0.7372
  558MOL0     C76920   6.018  10.698   3.592  0.0892  0.9337 -1.2244
  558MOL0     C76921   5.662  10.437   3.575 -0.3216 -0.0040  0.5255
  558MOL0     C76922   5.528  10.486   3.568  0.4170 -0.2859  0.1237
  558MOL0     C76923   5.419  10.403   3.552 -0.8699  0.1058 -0.2841
  558MOL0     C76924   5.439  10.273   3.528  0.1724  1.2797 -0.4307
  558MOL0     O76925   5.329  10.204   3.490  0.5055 -0.0909 -0.4533
  558MOL0     C76926   5.325  10.078   3.426 -0.6238 -0.7609 -0.0521
  558MOL0     C76927   5.207   9.995   3.472  1.1271  0.1149 -0.3686
  558MOL0     C76928   5.203   9.853   3.421 -0.1740  0.2050 -1.0703
  558MOL0     C76929   5.085   9.768   3.462  0.2294  0.3653  0.0014
  558MOL0     C76930   4.954   9.812   3.410 -0.1332 -0.6009  0.4899
  558MOL0     C76931   4.835   9.834   3.378 -0.2578  0.0427 -0.3537
  558MOL0     C76932   5.568  10.215   3.526  0.6062  0.4627  0.1463
  558MOL0     C76933   5.680  10.303   3.546  0.6836  0.2850 -0.9813
  558MOL0     C76934   5.808  10.230   3.571  0.1161 -0.0079  1.0185
  558MOL0     H76935   6.102  10.397   3.702  1.7048 -0.1426 -1.8664
  558MOL0     H76936   6.316  10.537   3.778 -1.1204 -0.1561  1.2982
  558MOL0     H76937   6.338  10.986   3.643  1.8370 -0.3367  0.6867
  558MOL0     H76938   6.425  10.855   3.545  0.0364 -0.8647 -0.8174
  558MOL0     H76939   6.524  10.980   3.810 -0.3741 -4.8259  1.8217
  558MOL0     H76940   6.601  10.871   3.714  0.1450 -0.2216 -1.1684
  558MOL0     H76941   6.606  11.015   3.519  1.7904  2.1014 -0.2778
  558MOL0     H76942   6.548  11.148   3.622  1.1986  1.7007  3.2429
  558MOL0     H76943   6.748  11.146   3.765 -3.1131  3.2904 -1.2341
  558MOL0     H76944   6.798  10.996   3.684 -1.7366 -0.9791 -0.0773
  558MOL0     H76945   6.761  11.262   3.549 -0.9330 -0.8442 -1.1193
  558MOL0     H76946   6.841  11.123   3.476  0.2146  1.0866 -0.0709
  558MOL0     H76947   6.918  11.281   3.714 -3.2535 -0.7690 -0.6385
  558MOL0     H76948   7.020  11.147   3.664 -0.2197  1.5854  3.0735
  558MOL0     H76949   7.107  11.350   3.601  1.0671 -1.1464 -1.5061
  558MOL0     H76950   6.955  11.416   3.526 -0.2854  0.7336 -0.4843
  558MOL0     H76951   7.094  11.171   3.406 -2.9435 -1.1389  0.2990
  558MOL0     H76952   6.974  11.268   3.330  0.7738  2.8443 -1.0110
  558MOL0     H76953   7.032  11.531   3.240  1.3623  2.2613  1.1281
  558MOL0     H76954   7.186  11.683   3.094  0.6692  0.7538  0.3639
  558MOL0     H76955   7.360  11.691   3.129 -0.0023 -0.5564  0.4432
  558MOL0     H76956   7.281  11.766   3.366 -0.0503  1.4139  0.0531
  558MOL0     H76957   7.287  11.880   3.239 -0.7935 -0.9823 -1.5869
  558MOL0     H76958   7.037  11.839   3.192 -0.1469  1.3243  0.3377
  558MOL0     H76959   7.037  11.737   3.333 -0.8822  0.3517 -0.8700
  558MOL0     H76960   7.115  12.034   3.316 -0.1057  0.9126  1.0574
  558MOL0     H76961   6.956  11.977   3.368  0.4923  1.6852 -3.2843
  558MOL0     H76962   7.087  12.205   3.421 -1.5637  1.2184 -0.1181
  558MOL0     H76963   7.151  12.496   3.606  0.4507  0.1079 -0.9674
  558MOL0     H76964   6.986  12.468   3.523 -0.2187  1.1327 -1.9220
  558MOL0     H76965   7.141  12.424   3.448  4.9065 -0.2206  2.6964
  558MOL0     H76966   7.066  12.265   4.201 -1.8483 -0.5064 -0.3650
  558MOL0     H76967   7.069  12.382   4.416  2.5925  1.0161  1.1009
  558MOL0     H76968   6.957  12.571   4.523  0.1244  3.0043 -2.2558
  558MOL0     H76969   7.110  12.513   4.601  0.8352 -0.3572 -1.9334
  558MOL0     H76970   6.991  12.790   4.660  2.5476  1.2129  1.4128
  558MOL0     H76971   7.005  12.652   4.776  2.7328 -1.3347  0.5340
  558MOL0     H76972   7.214  12.850   4.655  0.1657  0.3390  1.1601
  558MOL0     H76973   7.277  12.709   4.722 -0.9893 -1.0953 -1.2750
  558MOL0     H76974   7.149  12.746   4.933 -2.0929 -0.2769 -1.8107
  558MOL0     H76975   7.063  12.879   4.867  0.8840  2.5851  3.4912
  558MOL0     H76976   7.262  13.008   4.827  0.4213  0.7311  0.3005
  558MOL0     H76977   7.254  12.949   4.998  0.4850 -1.6426  0.7042
  558MOL0     H76978   7.437  12.821   4.791 -2.3339  2.8846 -2.1122
  558MOL0     H76979   7.416  12.777   4.958  2.1209 -2.5224 -3.2985
  558MOL0     H76980   7.463  13.050   5.005  1.8395  3.7300 -1.6787
  558MOL0     H76981   7.497  13.051   4.841 -3.1709 -1.8854 -1.2100
  558MOL0     H76982   7.652  12.866   5.042 -1.9672 -2.0299 -1.6196
  558MOL0     H76983   7.704  13.038   4.983  1.3607  0.1323 -0.1910
  558MOL0     H76984   7.157  12.743   4.222  0.4292  0.0736  3.7667
  558MOL0     H76985   7.173  12.631   3.999 -0.4812 -0.2764 -0.4553
  558MOL0     H76986   7.093  12.109   3.899  1.5214 -2.0567 -0.9851
  558MOL0     H76987   7.106  11.928   3.749  0.9288 -1.1823 -1.6262
  558MOL0     H76988   6.145  10.877   3.588  4.5561 -1.1765  0.1718
  558MOL0     H76989   5.929  10.745   3.551 -2.1213 -1.9444 -0.0536
  558MOL0     H76990   5.519  10.592   3.591 -2.4385 -0.3356 -0.4150
  558MOL0     H76991   5.315  10.425   3.573 -0.6597 -1.1556  2.4006
  558MOL0     H76992   5.310  10.087   3.318 -2.6348 -1.6347  0.1191
  558MOL0     H76993   5.416  10.020   3.441 -0.5398 -0.3871  0.9166
  558MOL0     H76994   5.114  10.045   3.444  0.7870  0.3580  1.0945
  558MOL0     H76995   5.220   9.994   3.581  1.7594  2.5876 -0.3630
  558MOL0     H76996   5.203   9.844   3.312 -1.6088  0.5393 -1.1178
  558MOL0     H76997   5.292   9.803   3.460 -1.2530 -2.6287 -2.0579
  558MOL0     H76998   5.086   9.760   3.571  1.6374 -0.7800 -0.0703
  558MOL0     H76999   5.110   9.665   3.435  0.2425  0.1100  0.9570
  558MOL0     H77000   4.731   9.849   3.357 -0.8407 -3.3601 -0.4841
  558MOL0     H77001   5.584  10.109   3.509 -0.2166 -0.1604  2.8545
  558MOL0     H77002   5.790  10.124   3.551  2.7665 -0.3661  0.1172
  558MOL0     H77003   5.890  10.272   3.513 -0.2517  1.7099  1.6922
  558MOL0     H77004   5.830  10.246   3.677 -2.7981  0.0367  1.7012
  559MOL0     O77005   0.694   6.011   9.952 -0.0793 -0.9082 -0.4712
  559MOL0     C77006   0.707   5.886   9.960  0.5776  0.7720 -1.0062
  559MOL0     O77007   0.814   5.811   9.925  0.5497 -0.4710 -0.1532
  559MOL0     C77008   0.930   5.854   9.872  0.5344  0.3273 -0.1066
  559MOL0     C77009   0.950   5.971   9.796 -0.6707  0.3153 -0.1186
  559MOL0     C77010   1.069   6.004   9.728 -0.6180 -0.4881  0.3591
  559MOL0     C77011   1.184   5.926   9.750  0.2932  0.3338 -0.2938
  559MOL0     O77012   1.299   5.936   9.682 -0.8720  0.4027 -0.0684
  559MOL0     C77013   1.311   6.041   9.583 -0.2981 -0.7107 -0.4939
  559MOL0     C77014   1.454   6.056   9.534 -0.8482 -0.7437 -0.3723
  559MOL0     C77015   1.497   5.949   9.442  0.0639 -0.2785  0.1735
  559MOL0     C77016   1.439   5.965   9.300 -0.2421  0.0373  0.0306
  559MOL0     C77017   1.492   6.080   9.215  0.0977 -0.2431 -0.2252
  559MOL0     C77018   1.632   6.052   9.159 -0.7633  0.3508 -0.8584
  559MOL0     C77019   1.679   6.161   9.065  0.3282 -0.0573  0.6454
  559MOL0     C77020   1.688   6.302   9.105 -0.8748  0.0739  0.6072
  559MOL0     N77021   1.813   6.338   9.179  0.2570  0.1306  0.8276
  559MOL0     C77022   1.939   6.329   9.127 -0.5252  0.4919  0.9467
  559MOL0     C77023   2.016   6.327   9.240 -0.3650  0.2973  1.1300
  559MOL0     C77024   2.165   6.304   9.245  0.6398 -0.5906 -0.0737
  559MOL0     C77025   2.227   6.332   9.379  0.6347  0.4082 -1.1438
  559MOL0     C77026   2.236   6.211   9.468 -0.3711 -0.6465  0.4628
  559MOL0     C77027   2.262   6.234   9.620 -0.2204  0.1356 -0.2112
  559MOL0     O77028   2.169   6.319   9.688 -0.0641 -0.5511 -0.5610
  559MOL0     C77029   2.062   6.256   9.753 -0.2334 -0.6681  0.0658
  559MOL0     C77030   2.067   6.239   9.895  0.2835 -1.1414  0.2613
  559MOL0     C77031   1.962   6.174   9.965 -0.3025  0.6316 -0.3084
  559MOL0     C77032   1.977   6.148  10.112  0.9034  0.7574  1.1349
  559MOL0     C77033   1.839   6.139   9.896 -0.4905 -0.3238  0.7180
  559MOL0     C77034   1.717   6.101   9.959  0.0900 -0.5317 -0.0206
  559MOL0     O77035   1.720   6.002  10.047  0.1894  0.0297 -0.4487
  559MOL0     C77036   1.607   5.985  10.126  0.2935  0.5654  0.0245
  559MOL0     C77037   1.626   5.987  10.263 -0.0467  0.0605 -0.1630
  559MOL0     C77038   1.521   5.941  10.343 -0.5525  0.0466 -0.5976
  559MOL0     C77039   1.398   5.899  10.292  0.3862 -0.2646  0.1348
  559MOL0     O77040   1.314   5.828  10.382  1.0473  0.1966  1.1870
  559MOL0     C77041   1.179   5.790  10.349  0.1932  0.4598 -0.1509
  559MOL0     C77042   1.132   5.689  10.438  0.0485  0.1613 -0.4895
  559MOL0     C77043   0.989   5.655  10.393  0.2855  0.5316 -0.2366
  559MOL0     C77044   0.920   5.557  10.494 -0.0921  0.4746 -0.0471
  559MOL0     C77045   0.912   5.614  10.641  0.3057  0.0683  0.1164
  559MOL0     C77046   0.772   5.602  10.714  0.1888 -0.3853 -0.8027
  559MOL0     C77047   0.748   5.465  10.782  0.4172  0.1280 -0.8400
  559MOL0     C77048   0.596   5.445  10.792  0.3534 -0.0427 -0.6369
  559MOL0    Cl77049   0.505   5.562  10.869 -0.1622 -0.0412 -0.0619
  559MOL0     C77050   1.372   5.910  10.153  0.5946 -0.2321  0.3374
  559MOL0     C77051   1.483   5.948  10.068 -0.2794 -0.4218 -0.0242
  559MOL0     O77052   1.615   6.169   9.930 -0.2619 -0.1532 -0.2529
  559MOL0     C77053   1.841   6.159   9.755 -0.5787  0.1887  0.3931
  559MOL0     C77054   1.942   6.219   9.685  0.5592 -0.5778 -0.6772
  559MOL0     N77055   1.938   6.348   9.350  0.2964 -0.7282 -0.4606
  559MOL0     N77056   1.818   6.352   9.316 -0.1561  0.0358  0.5068
  559MOL0     C77057   1.174   5.817   9.834 -0.3335  0.2326  0.9186
  559MOL0     C77058   1.049   5.780   9.889  0.4994 -0.0096  0.9181
  559MOL0     C77059   0.594   5.815  10.012  0.2246 -0.0353 -1.2748
  559MOL0     C77060   0.481   5.887  10.051  0.3098 -0.5968  0.5974
  559MOL0     C77061   0.371   5.824  10.123 -0.4976  0.1109 -0.2908
  559MOL0     C77062   0.365   5.682  10.147 -0.1381 -0.6475 -1.3906
  559MOL0     O77063   0.257   5.609  10.191  0.2914 -0.4589  0.5834
  559MOL0     C77064   0.121   5.659  10.161  0.0130 -0.0804 -0.5265
  559MOL0     C77065   0.022   5.544  10.213  0.5738  0.4732  0.2754
  559MOL0     C77066   0.053   5.407  10.133  0.1135 -0.8223  0.1323
  559MOL0     C77067  -0.066   5.307  10.133 -0.6210 -0.2986 -1.3923
  559MOL0     C77068  -0.177   5.341  10.038  0.4940  0.4631  0.1878
  559MOL0     C77069  -0.275   5.369   9.976 -0.1423  0.0068  0.0058
  559MOL0     C77070   0.486   5.618  10.115 -0.2203 -0.3914 -0.7770
  559MOL0     C77071   0.596   5.675  10.051  0.7182 -0.3153  0.5249
  559MOL0     C77072   0.707   5.571  10.017  0.1677  0.1693 -0.0733
  559MOL0     H77073   0.859   6.026   9.773 -1.3428 -1.1913 -1.2580
  559MOL0     H77074   1.072   6.084   9.656 -0.4720 -0.0229  0.8733
  559MOL0     H77075   1.284   6.138   9.625 -0.0258 -0.2605 -1.3563
  559MOL0     H77076   1.249   6.020   9.496  0.4931 -0.6486 -1.0815
  559MOL0     H77077   1.482   6.151   9.488  1.1053 -1.4563 -0.7664
  559MOL0     H77078   1.518   6.075   9.621  0.3906 -0.5854 -1.2900
  559MOL0     H77079   1.606   5.960   9.433  0.0373  1.6766  1.5290
  559MOL0     H77080   1.492   5.853   9.494 -0.8249  0.9910  2.6177
  559MOL0     H77081   1.464   5.874   9.244 -1.0547  0.0518 -0.3780
  559MOL0     H77082   1.331   5.974   9.314 -0.2046  1.1153 -0.2698
  559MOL0     H77083   1.484   6.175   9.268 -2.1622 -1.4824  1.8757
  559MOL0     H77084   1.419   6.080   9.135  0.2334  2.4494 -0.4553
  559MOL0     H77085   1.706   6.034   9.238 -1.3835 -1.2543 -0.6044
  559MOL0     H77086   1.626   5.953   9.113 -1.3057 -0.2362  0.4131
  559MOL0     H77087   1.615   6.152   8.976  1.5680  0.7094 -0.3621
  559MOL0     H77088   1.781   6.139   9.032  0.5292 -4.6217  3.4074
  559MOL0     H77089   1.689   6.357   9.011 -0.0170  0.0836  0.6152
  559MOL0     H77090   1.600   6.332   9.163 -1.8439 -1.0214 -0.2390
  559MOL0     H77091   1.967   6.323   9.023  0.4524  3.4286  0.9565
  559MOL0     H77092   2.213   6.347   9.156 -3.0634 -1.2908 -2.6322
  559MOL0     H77093   2.174   6.200   9.212 -0.2497 -0.5189 -0.5647
  559MOL0     H77094   2.326   6.378   9.369  0.0094  1.9185 -0.7413
  559MOL0     H77095   2.164   6.407   9.428 -3.0952 -1.8881 -1.9744
  559MOL0     H77096   2.138   6.163   9.457 -2.6065  3.2449  1.1703
  559MOL0     H77097   2.318   6.150   9.432  1.2864  0.4895  2.1238
  559MOL0     H77098   2.283   6.134   9.657  0.4348 -1.6254 -4.7586
  559MOL0     H77099   2.362   6.278   9.613  0.3744 -0.9860  0.9561
  559MOL0     H77100   2.136   6.294   9.958 -0.7251 -1.0307  1.2926
  559MOL0     H77101   1.905   6.195  10.179 -0.7751 -0.3144  0.1521
  559MOL0     H77102   2.077   6.182  10.143  0.9621  0.9757  0.7117
  559MOL0     H77103   1.980   6.040  10.129 -2.4488  0.3472 -0.2289
  559MOL0     H77104   1.718   6.030  10.301 -0.5335  2.1925 -1.2242
  559MOL0     H77105   1.533   5.952  10.450 -0.7387 -1.3690 -0.4160
  559MOL0     H77106   1.116   5.880  10.344  0.1580  0.4423 -0.0224
  559MOL0     H77107   1.170   5.748  10.248 -5.5461  0.2534  0.1307
  559MOL0     H77108   1.195   5.600  10.439  0.7292  0.6371 -0.4189
  559MOL0     H77109   1.139   5.738  10.536  0.8257  3.4079 -2.0666
  559MOL0     H77110   0.986   5.606  10.296 -2.2004  0.6095 -0.2491
  559MOL0     H77111   0.924   5.743  10.386 -2.7907 -1.4142  1.8607
  559MOL0     H77112   0.958   5.455  10.484 -0.3097  0.5311 -1.9474
  559MOL0     H77113   0.815   5.552  10.461  0.2083  1.3998 -1.2269
  559MOL0     H77114   0.994   5.573  10.701  1.9376  3.0725  0.1450
  559MOL0     H77115   0.923   5.723  10.631 -1.9543  0.3531  0.2746
  559MOL0     H77116   0.705   5.600  10.627  2.5480 -1.7950 -2.7028
  559MOL0     H77117   0.757   5.685  10.784  1.1213 -1.5070  0.7774
  559MOL0     H77118   0.790   5.471  10.883  0.4193 -1.3176 -0.7419
  559MOL0     H77119   0.801   5.383  10.733  3.7573  0.6944  1.5056
  559MOL0     H77120   0.562   5.356  10.846 -0.3953  0.6640  0.0961
  559MOL0     H77121   0.558   5.432  10.691 -2.4446 -2.7837  0.6129
  559MOL0     H77122   1.281   5.882  10.102  0.4604 -2.1913  1.5340
  559MOL0     H77123   1.485   5.935   9.960  0.3180 -0.8962  0.0413
  559MOL0     H77124   1.750   6.139   9.700 -0.1376 -0.7494 -0.0039
  559MOL0     H77125   1.932   6.232   9.577  0.7958  0.5749 -0.5726
  559MOL0     H77126   1.254   5.746   9.853 -1.7462 -1.8320 -0.5338
  559MOL0     H77127   1.033   5.694   9.954  0.1795  0.6144  1.6845
  559MOL0     H77128   0.462   5.993  10.035 -0.3706 -1.0333 -1.7867
  559MOL0     H77129   0.297   5.890  10.169 -1.7756 -1.2393 -0.3422
  559MOL0     H77130   0.103   5.751  10.217  0.0624 -0.1597 -0.3799
  559MOL0     H77131   0.101   5.674  10.054 -0.2744  0.4667 -0.4018
  559MOL0     H77132  -0.079   5.586  10.200  1.9498  3.4304 -2.4400
  559MOL0     H77133   0.046   5.523  10.317  0.0937 -2.3582 -0.0880
  559MOL0     H77134   0.077   5.428  10.028  0.3271 -2.9665 -0.2991
  559MOL0     H77135   0.134   5.361  10.191 -1.6322 -0.9615  2.5989
  559MOL0     H77136  -0.102   5.307  10.236  0.8418  3.6432 -0.6755
  559MOL0     H77137  -0.018   5.213  10.106  0.1253  0.0030 -1.1415
  559MOL0     H77138  -0.357   5.384   9.908 -0.1377  0.5889  0.1208
  559MOL0     H77139   0.492   5.512  10.137  2.2736 -0.0229  0.6290
  559MOL0     H77140   0.680   5.466  10.037  0.5592  0.1560  0.3850
  559MOL0     H77141   0.735   5.564   9.912 -2.4301  2.6362 -1.0621
  559MOL0     H77142   0.794   5.602  10.076  0.5338 -2.7903  1.1349
  560MOL0     O77143   7.107   1.235   8.027 -0.6185 -0.6899  0.1482
  560MOL0     C77144   7.003   1.242   7.967 -0.5090 -0.2366  0.5565
  560MOL0     O77145   6.901   1.169   8.009  0.0283  0.2230 -0.4035
  560MOL0     C77146   6.774   1.209   7.963 -1.0789 -0.8399  0.7798
  560MOL0     C77147   6.717   1.315   8.022 -0.7501  0.2512 -0.2098
  560MOL0     C77148   6.602   1.371   7.970  0.1123 -1.0298 -0.0314
  560MOL0     C77149   6.520   1.294   7.880  0.3112 -0.1278 -0.0683
  560MOL0     O77150   6.386   1.326   7.852 -1.2484  0.5524 -0.0196
  560MOL0     C77151   6.309   1.352   7.969  0.0175  0.0765  0.1832
  560MOL0     C77152   6.198   1.250   7.961 -0.3945  0.2672  0.4051
  560MOL0     C77153   6.097   1.250   8.075  0.3350 -0.6188  0.6556
  560MOL0     C77154   6.005   1.376   8.083  0.8942 -0.1057  0.1813
  560MOL0     C77155   5.911   1.368   8.211 -0.7343  1.1534 -0.0970
  560MOL0     C77156   5.792   1.452   8.192  0.6859 -1.2395 -0.4417
  560MOL0     C77157   5.724   1.513   8.325  0.2135  0.5524  0.8595
  560MOL0     C77158   5.792   1.627   8.393 -0.4319 -0.8481  0.7116
  560MOL0     N77159   5.844   1.740   8.303  0.2560  0.6500 -0.2411
  560MOL0     C77160   5.770   1.850   8.274 -0.2582  0.3419  0.1620
  560MOL0     C77161   5.849   1.935   8.200  0.4266 -0.5693 -1.0700
  560MOL0     C77162   5.809   2.064   8.141  0.4128  0.1010  0.0284
  560MOL0     C77163   5.824   2.190   8.221 -0.1439  0.9913 -0.5411
  560MOL0     C77164   5.767   2.176   8.370 -0.8465 -0.0039 -0.1568
  560MOL0     C77165   5.803   2.302   8.444  0.4081 -0.2870  0.4133
  560MOL0     O77166   5.946   2.306   8.471  0.0049  0.0194  0.4349
  560MOL0     C77167   5.994   2.416   8.523 -0.6915 -0.9906 -0.8026
  560MOL0     C77168   6.128   2.445   8.486  0.4659  1.2150  0.1320
  560MOL0     C77169   6.193   2.570   8.493 -0.7595  0.4102 -0.4647
  560MOL0     C77170   6.335   2.579   8.431  0.1559  0.9570 -0.5015
  560MOL0     C77171   6.110   2.675   8.552 -0.9825  0.6945 -0.6194
  560MOL0     C77172   6.173   2.808   8.564  0.0013 -1.0216 -0.4773
  560MOL0     O77173   6.248   2.857   8.463  0.1726  0.4528  0.0601
  560MOL0     C77174   6.339   2.949   8.476 -0.4414  0.0835 -0.5387
  560MOL0     C77175   6.335   3.059   8.562  0.0354  0.5111 -1.1310
  560MOL0     C77176   6.430   3.165   8.569 -0.6344 -0.3216  0.4165
  560MOL0     C77177   6.543   3.160   8.484 -0.1792  0.0132 -0.1614
  560MOL0     O77178   6.650   3.251   8.489  0.0248  0.1597 -0.5443
  560MOL0     C77179   6.639   3.390   8.529  0.6823 -0.0467  0.2608
  560MOL0     C77180   6.563   3.468   8.416 -0.4807 -0.6947 -0.2883
  560MOL0     C77181   6.560   3.617   8.447 -0.1900 -1.2186  0.5440
  560MOL0     C77182   6.489   3.664   8.572  0.3996 -0.4955 -0.8338
  560MOL0     C77183   6.472   3.820   8.574 -0.5207 -0.3486  0.5859
  560MOL0     C77184   6.519   3.876   8.709  0.7186  0.4243  0.0058
  560MOL0     C77185   6.517   4.026   8.702  0.3170 -0.4239  0.3808
  560MOL0     C77186   6.557   4.097   8.829 -0.1811  0.0617 -0.3611
  560MOL0    Cl77187   6.587   4.268   8.795 -0.1100 -0.0207  0.6094
  560MOL0     C77188   6.557   3.049   8.398 -0.5385 -0.3082  0.1316
  560MOL0     C77189   6.451   2.949   8.389 -1.2485  0.3424 -1.3437
  560MOL0     O77190   6.142   2.860   8.673 -0.1946 -0.2184 -0.0741
  560MOL0     C77191   5.980   2.644   8.606 -0.7358  1.0555 -0.1633
  560MOL0     C77192   5.920   2.519   8.590  0.0819  0.5787  1.2668
  560MOL0     N77193   5.969   1.863   8.180 -0.4333 -0.9966 -0.1471
  560MOL0     N77194   5.967   1.760   8.251 -0.8483 -1.1828  0.6364
  560MOL0     C77195   6.582   1.183   7.821 -0.9723 -0.9352  0.0358
  560MOL0     C77196   6.715   1.144   7.851  0.0559 -0.0587 -0.3762
  560MOL0     C77197   6.994   1.322   7.833  0.0837 -0.1318 -1.5471
  560MOL0     C77198   6.961   1.244   7.719 -0.0614  0.0853  1.3157
  560MOL0     C77199   6.928   1.307   7.597  0.3758  0.4204  0.5309
  560MOL0     C77200   6.940   1.439   7.588 -0.9173  0.6547  0.3220
  560MOL0     O77201   6.892   1.490   7.476  0.9775  0.0919  0.4214
  560MOL0     C77202   6.806   1.605   7.480 -0.1649 -0.4067 -0.0089
  560MOL0     C77203   6.661   1.574   7.537 -0.1058  0.0158 -0.4049
  560MOL0     C77204   6.561   1.697   7.542 -0.7358 -0.6777 -0.5075
  560MOL0     C77205   6.536   1.723   7.684 -0.7702 -0.6434 -0.6097
  560MOL0     C77206   6.657   1.774   7.748 -0.0938  0.6521 -0.0212
  560MOL0     C77207   6.768   1.801   7.801 -0.3895 -0.4480  0.1999
  560MOL0     C77208   6.983   1.514   7.700  0.0953 -0.6429  0.0452
  560MOL0     C77209   7.018   1.456   7.828 -0.0601  0.5460  0.0857
  560MOL0     C77210   7.054   1.537   7.947  0.3612  0.2508 -0.0836
  560MOL0     H77211   6.767   1.376   8.097  0.7765 -0.7031 -0.4069
  560MOL0     H77212   6.547   1.456   8.007 -0.7558 -2.6097  2.5296
  560MOL0     H77213   6.270   1.455   7.970 -0.0247  0.0557  0.8655
  560MOL0     H77214   6.361   1.340   8.064  0.5790 -0.4800 -0.1882
  560MOL0     H77215   6.150   1.255   7.863  0.5395 -1.8820 -0.2045
  560MOL0     H77216   6.251   1.154   7.969  0.9360  1.0813  2.3059
  560MOL0     H77217   6.026   1.174   8.042 -2.8233  3.1061 -1.9963
  560MOL0     H77218   6.145   1.231   8.172 -1.5660  0.6195  1.9189
  560MOL0     H77219   6.066   1.465   8.103  0.2608 -0.2321  3.1760
  560MOL0     H77220   5.931   1.379   8.002  0.3281 -0.0191  0.6912
  560MOL0     H77221   5.964   1.381   8.306  0.1523 -1.6867 -0.1232
  560MOL0     H77222   5.884   1.263   8.222  0.3583  0.4719 -3.0125
  560MOL0     H77223   5.804   1.538   8.125 -1.6234 -0.7138 -0.2812
  560MOL0     H77224   5.708   1.394   8.151 -0.2008 -0.2182 -0.1160
  560MOL0     H77225   5.707   1.439   8.404 -0.1095  0.8253  1.0452
  560MOL0     H77226   5.628   1.544   8.284  0.4217 -2.6948 -2.6441
  560MOL0     H77227   5.730   1.670   8.472  0.7573  1.6191  0.3806
  560MOL0     H77228   5.882   1.585   8.439  1.7226  1.7889 -0.8110
  560MOL0     H77229   5.668   1.882   8.290 -0.3018 -0.3158  1.3034
  560MOL0     H77230   5.705   2.060   8.107  1.0870  0.9334 -2.3720
  560MOL0     H77231   5.878   2.081   8.058  0.3850  0.7318  0.1306
  560MOL0     H77232   5.930   2.218   8.220 -0.1074  1.3672  2.9796
  560MOL0     H77233   5.765   2.265   8.169 -1.3714  0.0105 -0.6075
  560MOL0     H77234   5.658   2.163   8.369 -0.6737 -1.5274 -0.2763
  560MOL0     H77235   5.810   2.092   8.425  0.6954 -0.1877 -1.5564
  560MOL0     H77236   5.759   2.397   8.415  0.2065 -0.0615  1.4007
  560MOL0     H77237   5.762   2.285   8.544  3.7068 -2.0388  1.6190
  560MOL0     H77238   6.180   2.359   8.445  1.6698  1.7504  0.4789
  560MOL0     H77239   6.395   2.644   8.496  0.3904 -1.2205  1.5902
  560MOL0     H77240   6.327   2.597   8.323  1.7323 -2.0410 -1.2212
  560MOL0     H77241   6.385   2.482   8.433 -2.3165 -0.3841  0.8622
  560MOL0     H77242   6.250   3.061   8.630  1.4335 -2.7814  0.9711
  560MOL0     H77243   6.412   3.255   8.626 -0.8100  1.0185 -1.6473
  560MOL0     H77244   6.576   3.405   8.617  0.9964  0.4182  0.4089
  560MOL0     H77245   6.733   3.446   8.541 -0.0521  0.7698  2.6491
  560MOL0     H77246   6.612   3.444   8.321  1.4817 -1.0079  0.7479
  560MOL0     H77247   6.458   3.441   8.409 -0.6152 -0.0540 -0.8682
  560MOL0     H77248   6.518   3.672   8.363  0.2067 -1.5662  0.1149
  560MOL0     H77249   6.663   3.653   8.453 -0.8386  0.9207 -0.3809
  560MOL0     H77250   6.531   3.622   8.664 -0.3290  2.7068  1.1252
  560MOL0     H77251   6.391   3.618   8.556  0.2686 -0.3050 -0.5915
  560MOL0     H77252   6.529   3.870   8.496 -0.9117 -0.9010 -0.0640
  560MOL0     H77253   6.369   3.857   8.573  0.0371  1.3664  1.7544
  560MOL0     H77254   6.621   3.840   8.724  0.6610 -0.4898 -1.5482
  560MOL0     H77255   6.450   3.840   8.785  0.9202 -1.9252 -0.8368
  560MOL0     H77256   6.411   4.047   8.683  0.0009 -2.8385 -0.9111
  560MOL0     H77257   6.571   4.066   8.615  0.0195  0.4808  0.5946
  560MOL0     H77258   6.645   4.044   8.867  0.1630 -1.5466 -3.1355
  560MOL0     H77259   6.482   4.090   8.909  1.2275  0.5102  1.0445
  560MOL0     H77260   6.648   3.047   8.338  1.5484 -1.7764  3.0978
  560MOL0     H77261   6.480   2.861   8.332 -4.4543  0.2845 -3.1247
  560MOL0     H77262   5.924   2.728   8.648 -2.3802  0.7292 -1.5680
  560MOL0     H77263   5.820   2.494   8.623  1.1978 -0.9345  3.9485
  560MOL0     H77264   6.531   1.118   7.751  1.0305 -2.9952  0.3731
  560MOL0     H77265   6.770   1.065   7.800  1.5052  2.1312 -2.3999
  560MOL0     H77266   6.941   1.138   7.730 -0.3541  0.0209  0.2795
  560MOL0     H77267   6.877   1.263   7.511 -2.4972 -0.5919  2.6032
  560MOL0     H77268   6.849   1.694   7.527 -0.2989  0.7190 -1.9442
  560MOL0     H77269   6.780   1.642   7.381 -0.3133  1.1034  0.5591
  560MOL0     H77270   6.661   1.521   7.633 -0.7662 -0.9118 -0.9025
  560MOL0     H77271   6.618   1.499   7.470  1.6088 -0.3595 -1.1171
  560MOL0     H77272   6.604   1.778   7.482  2.2503 -0.6046  1.5093
  560MOL0     H77273   6.472   1.679   7.481 -1.8445 -3.1171  1.6226
  560MOL0     H77274   6.497   1.634   7.734 -0.7067 -1.0757 -1.3152
  560MOL0     H77275   6.451   1.791   7.696  0.8460  1.3120  0.4789
  560MOL0     H77276   6.859   1.841   7.840  0.9875 -3.4637  0.3892
  560MOL0     H77277   6.979   1.622   7.686 -0.4683 -0.8687 -1.7208
  560MOL0     H77278   7.018   1.491   8.040 -2.8164  1.5696 -0.5222
  560MOL0     H77279   7.161   1.557   7.947  0.1669  1.3279 -0.1186
  560MOL0     H77280   6.997   1.629   7.935  2.0720  1.2406 -1.0163
  561MOL0     O77281   3.064   4.408  11.342  0.4320  0.1629 -0.0150
  561MOL0     C77282   3.172   4.357  11.381  1.5535 -0.7291 -0.6203
  561MOL0     O77283   3.183   4.231  11.432 -0.3127  0.4230 -0.5085
  561MOL0     C77284   3.068   4.157  11.435  0.2777  0.7259 -0.3493
  561MOL0     C77285   2.986   4.161  11.550 -0.1814  0.9615  0.1784
  561MOL0     C77286   2.865   4.102  11.549  0.4309 -0.5587 -0.6293
  561MOL0     C77287   2.819   4.022  11.435  0.6663 -0.5293  0.3375
  561MOL0     O77288   2.692   3.971  11.438  0.3133  0.0181 -0.2757
  561MOL0     C77289   2.589   4.073  11.430 -0.3064 -0.1599 -0.4164
  561MOL0     C77290   2.596   4.142  11.295 -0.1271 -0.3580 -0.7164
  561MOL0     C77291   2.546   4.038  11.190 -0.9773 -0.4489  0.1811
  561MOL0     C77292   2.418   4.100  11.117 -1.0161  0.4169  0.2451
  561MOL0     C77293   2.378   3.997  11.002 -0.7763 -0.6305 -0.0466
  561MOL0     C77294   2.243   4.013  10.948  0.0670 -0.9810 -0.1165
  561MOL0     C77295   2.136   3.953  11.038 -0.1854  0.2398 -0.2693
  561MOL0     C77296   1.992   4.010  11.000 -0.7913 -0.2571 -0.6254
  561MOL0     N77297   1.877   4.000  11.091 -0.0655 -0.6295 -0.6125
  561MOL0     C77298   1.876   3.939  11.212  0.7073  1.0454  0.1298
  561MOL0     C77299   1.758   3.960  11.270 -0.9351  0.1498 -0.1378
  561MOL0     C77300   1.717   3.909  11.411  0.5673 -0.0158  0.6930
  561MOL0     C77301   1.781   3.996  11.522  0.1378 -0.3369  0.1985
  561MOL0     C77302   1.712   3.965  11.657  0.5582  0.1150  0.2016
  561MOL0     C77303   1.794   4.029  11.769  0.2004  0.4695  0.3537
  561MOL0     O77304   1.900   3.931  11.794  0.3002 -0.1017  0.1520
  561MOL0     C77305   2.005   3.952  11.879  0.0578  0.7541  0.4087
  561MOL0     C77306   2.060   3.846  11.959  0.4350  0.1882  0.7502
  561MOL0     C77307   2.167   3.862  12.048 -0.3272  0.1225 -0.0245
  561MOL0     C77308   2.214   3.750  12.139  0.2808 -0.3589 -0.2460
  561MOL0     C77309   2.204   4.003  12.068 -0.1837  0.1172 -0.2066
  561MOL0     C77310   2.304   4.040  12.174 -1.4278  0.4490  0.5164
  561MOL0     O77311   2.319   4.173  12.204  0.0637  0.6772 -0.2463
  561MOL0     C77312   2.401   4.216  12.307 -0.1622 -0.4604 -0.1316
  561MOL0     C77313   2.384   4.344  12.334 -0.9162  0.0933  0.4249
  561MOL0     C77314   2.461   4.413  12.438 -0.8667 -0.6119 -0.0483
  561MOL0     C77315   2.546   4.348  12.520 -0.9886  0.4547 -0.4759
  561MOL0     O77316   2.598   4.408  12.633 -0.8242 -0.0136  0.0012
  561MOL0     C77317   2.739   4.382  12.647 -0.2462 -0.4814  0.4847
  561MOL0     C77318   2.809   4.492  12.732 -1.5237  0.3026  0.5139
  561MOL0     C77319   2.815   4.625  12.656 -0.2349  0.9347  0.6280
  561MOL0     C77320   2.906   4.726  12.718  0.1318 -0.3942 -0.0111
  561MOL0     C77321   2.907   4.852  12.626 -0.0979 -0.2234  0.0454
  561MOL0     C77322   2.964   4.974  12.696 -1.1632 -0.0559  0.7808
  561MOL0     C77323   2.900   5.104  12.633 -0.3249 -0.1039  0.3549
  561MOL0     C77324   2.937   5.232  12.708 -0.2994  0.1705  0.3029
  561MOL0    Cl77325   3.115   5.268  12.683 -0.2645 -0.3483 -0.4040
  561MOL0     C77326   2.569   4.214  12.494  0.1103 -0.0236 -0.0506
  561MOL0     C77327   2.504   4.148  12.385  0.2153  0.4812 -0.3057
  561MOL0     O77328   2.387   3.957  12.207  0.0581 -0.5044 -0.0159
  561MOL0     C77329   2.148   4.103  11.985 -0.7944 -0.0713 -0.5731
  561MOL0     C77330   2.050   4.079  11.894  0.1702  0.1776 -0.0991
  561MOL0     N77331   1.696   4.048  11.188 -0.9621  0.4648  0.4671
  561MOL0     N77332   1.762   4.069  11.076  0.2385  0.1400  0.0831
  561MOL0     C77333   2.902   4.016  11.324  0.9543  0.1285  1.0067
  561MOL0     C77334   3.022   4.076  11.329  0.2777  1.3135  0.7270
  561MOL0     C77335   3.292   4.442  11.366 -0.2447 -0.7468 -0.0557
  561MOL0     C77336   3.327   4.506  11.245 -0.6404  0.4540  0.2454
  561MOL0     C77337   3.449   4.576  11.227  0.1441 -0.7458 -0.3343
  561MOL0     C77338   3.531   4.590  11.342 -0.1611  0.7402  0.6395
  561MOL0     O77339   3.653   4.656  11.326 -0.0981 -0.1402  0.7753
  561MOL0     C77340   3.680   4.757  11.222  0.3269  0.1841 -0.7947
  561MOL0     C77341   3.821   4.784  11.233 -0.3374 -0.1937  0.5741
  561MOL0     C77342   3.916   4.667  11.192 -0.5257  0.6974  0.6481
  561MOL0     C77343   4.062   4.716  11.175 -0.1431 -0.0824 -0.5350
  561MOL0     C77344   4.096   4.806  11.064 -1.0577  0.7915 -0.0439
  561MOL0     C77345   4.147   4.880  10.977  0.4612  0.4257 -1.2333
  561MOL0     C77346   3.509   4.511  11.451  0.4957  0.2203 -0.6966
  561MOL0     C77347   3.388   4.436  11.472  0.1996  0.4325  0.9246
  561MOL0     C77348   3.371   4.362  11.602 -0.5297 -0.2298 -0.4489
  561MOL0     H77349   3.019   4.234  11.623  1.4996 -0.0535  0.4876
  561MOL0     H77350   2.799   4.111  11.634  0.3652  1.3338 -0.8399
  561MOL0     H77351   2.608   4.160  11.494  0.8211  1.5637 -2.9226
  561MOL0     H77352   2.492   4.029  11.453 -0.1158  0.0386  0.8770
  561MOL0     H77353   2.531   4.229  11.309  2.3461  1.3456  0.9139
  561MOL0     H77354   2.699   4.174  11.274  1.4594 -2.9107  2.3111
  561MOL0     H77355   2.626   4.013  11.121 -0.3733 -2.8798  1.6233
  561MOL0     H77356   2.524   3.946  11.245 -0.0204 -0.8192 -0.0425
  561MOL0     H77357   2.332   4.117  11.182 -1.7023  3.0993 -1.2179
  561MOL0     H77358   2.437   4.195  11.064 -2.1346  1.1492  1.1322
  561MOL0     H77359   2.395   3.894  11.034 -0.6676 -0.2412  1.1968
  561MOL0     H77360   2.455   4.009  10.926  0.4519 -1.2456  1.0540
  561MOL0     H77361   2.228   4.119  10.924 -2.2187 -1.4228 -0.8656
  561MOL0     H77362   2.242   3.957  10.854 -0.0416 -1.2514  0.0451
  561MOL0     H77363   2.146   4.003  11.134 -0.3774 -0.5832  0.1916
  561MOL0     H77364   2.143   3.844  11.042  0.6367  0.2532 -0.9948
  561MOL0     H77365   1.996   4.114  10.968 -3.9844 -0.3431 -1.6878
  561MOL0     H77366   1.972   3.964  10.902  2.3113  2.6320 -2.8488
  561MOL0     H77367   1.962   3.884  11.247 -0.5089 -1.9830 -1.2995
  561MOL0     H77368   1.754   3.806  11.414  1.7863  0.2555 -1.9457
  561MOL0     H77369   1.608   3.912  11.414  0.4258 -1.5234 -0.9058
  561MOL0     H77370   1.886   3.966  11.526  1.0543  2.5550 -0.3679
  561MOL0     H77371   1.778   4.101  11.493  0.1004 -0.8125 -1.7054
  561MOL0     H77372   1.617   4.019  11.650 -0.3684 -1.5435 -0.5152
  561MOL0     H77373   1.695   3.860  11.679  0.8277 -0.1138 -0.6253
  561MOL0     H77374   1.837   4.122  11.732 -1.0344  0.2101 -1.9277
  561MOL0     H77375   1.740   4.044  11.863  0.8442 -1.2855  1.0535
  561MOL0     H77376   2.008   3.751  11.950 -2.4274  1.7019  0.2868
  561MOL0     H77377   2.141   3.671  12.155 -0.9822  0.6996 -0.6413
  561MOL0     H77378   2.219   3.799  12.236  1.4517 -0.0836 -0.4288
  561MOL0     H77379   2.314   3.718  12.106  0.3130 -0.2751 -0.2315
  561MOL0     H77380   2.320   4.406  12.271  1.7809  0.5950 -2.0230
  561MOL0     H77381   2.449   4.519  12.458 -0.7925 -0.4605 -0.7729
  561MOL0     H77382   2.754   4.283  12.691  1.6844 -0.8051 -0.7741
  561MOL0     H77383   2.781   4.375  12.546 -0.1956 -1.6747  0.5696
  561MOL0     H77384   2.753   4.513  12.824  0.8326 -0.7305  2.3302
  561MOL0     H77385   2.916   4.471  12.747 -0.9539  1.8066 -1.1180
  561MOL0     H77386   2.715   4.668  12.655 -0.1620  1.2256 -2.2746
  561MOL0     H77387   2.853   4.607  12.555  1.6240 -0.7267  1.5459
  561MOL0     H77388   3.010   4.693  12.728  1.9315  4.8381  1.4514
  561MOL0     H77389   2.874   4.755  12.818  0.8443 -1.9151  0.6975
  561MOL0     H77390   2.964   4.838  12.534 -0.7417  0.5129 -0.4880
  561MOL0     H77391   2.809   4.875  12.583  0.8272 -2.7566 -3.8301
  561MOL0     H77392   3.072   4.975  12.675 -1.2710  0.8291  0.2439
  561MOL0     H77393   2.936   4.973  12.802 -0.5071 -0.6019  0.9600
  561MOL0     H77394   2.792   5.088  12.639 -0.5509 -0.7280 -3.0413
  561MOL0     H77395   2.928   5.131  12.530 -0.2450  2.2161  0.9311
  561MOL0     H77396   2.911   5.216  12.813 -1.9805 -1.2425 -0.2750
  561MOL0     H77397   2.878   5.313  12.663  0.6195  0.7384  0.1075
  561MOL0     H77398   2.621   4.154  12.569  0.3351  0.2527  0.0134
  561MOL0     H77399   2.519   4.040  12.386 -1.7061  0.1665 -1.5117
  561MOL0     H77400   2.186   4.204  11.997 -0.9939  0.5178 -3.8418
  561MOL0     H77401   2.006   4.160  11.837 -1.0929 -1.9467 -2.3197
  561MOL0     H77402   2.881   3.971  11.228  3.8259 -2.1815  1.3271
  561MOL0     H77403   3.075   4.075  11.235 -2.8440 -0.6234 -1.2059
  561MOL0     H77404   3.266   4.486  11.158 -2.0829  0.8163  1.1300
  561MOL0     H77405   3.468   4.618  11.129 -2.3631  1.9949  0.2119
  561MOL0     H77406   3.661   4.711  11.124 -3.4986 -0.9337  0.3104
  561MOL0     H77407   3.630   4.851  11.244 -0.3888 -0.9422  3.1949
  561MOL0     H77408   3.841   4.802  11.339  0.6792 -1.7430  0.6799
  561MOL0     H77409   3.848   4.876  11.181 -1.3520 -0.2017 -0.0003
  561MOL0     H77410   3.905   4.585  11.263  2.2867  1.3532  1.9507
  561MOL0     H77411   3.883   4.624  11.097  1.4431  0.6623 -0.0615
  561MOL0     H77412   4.125   4.628  11.170 -0.4194 -0.1939 -4.0390
  561MOL0     H77413   4.095   4.752  11.273 -2.6268 -0.4522  0.5239
  561MOL0     H77414   4.176   4.938  10.892  4.6845  1.7953  0.8692
  561MOL0     H77415   3.573   4.514  11.538  1.0232 -1.0508 -1.0115
  561MOL0     H77416   3.374   4.252  11.607  0.2080 -0.1382  2.4133
  561MOL0     H77417   3.426   4.408  11.684 -1.2411 -1.5139  0.7810
  561MOL0     H77418   3.273   4.386  11.643  0.4467  2.0924  0.6796
  562MOL0     O77419   5.629  10.172   8.023 -0.1602 -0.1476  0.0135
  562MOL0     C77420   5.582  10.087   7.944  0.3993 -1.2341 -0.3789
  562MOL0     O77421   5.656   9.984   7.884 -0.2505 -0.2888  0.5172
  562MOL0     C77422   5.788   9.965   7.921  0.0585  0.6626 -0.7158
  562MOL0     C77423   5.836   9.953   8.054 -0.0019 -0.6096  0.8268
  562MOL0     C77424   5.970   9.925   8.087 -0.0781 -0.1129 -0.3273
  562MOL0     C77425   6.068   9.905   7.985  0.2930  0.9374  0.7326
  562MOL0     O77426   6.199   9.875   8.006  0.6643  0.6187  0.7212
  562MOL0     C77427   6.272   9.985   8.053 -0.9195  0.8994 -0.0073
  562MOL0     C77428   6.303  10.097   7.950 -0.0575 -0.0515  0.4477
  562MOL0     C77429   6.394  10.049   7.830 -0.1677 -0.7010 -0.3774
  562MOL0     C77430   6.414  10.147   7.725  0.0644 -0.2671 -0.7533
  562MOL0     C77431   6.425  10.087   7.584 -0.4828  1.3456 -0.5810
  562MOL0     C77432   6.528   9.972   7.570 -0.1662  0.7100 -0.3207
  562MOL0     C77433   6.560   9.935   7.424  0.3053 -0.1280  0.1983
  562MOL0     C77434   6.439   9.878   7.360  1.3091  0.7835  0.3497
  562MOL0     N77435   6.456   9.765   7.264  0.4358  0.5155  0.2217
  562MOL0     C77436   6.534   9.655   7.290 -0.1633  0.4839  0.1443
  562MOL0     C77437   6.520   9.575   7.183 -0.6975  0.2656 -0.0784
  562MOL0     C77438   6.556   9.428   7.187  0.0566  0.1028 -0.0597
  562MOL0     C77439   6.446   9.346   7.112  0.6112 -0.0231  0.1259
  562MOL0     C77440   6.451   9.196   7.145 -1.0027  0.0162 -0.1712
  562MOL0     C77441   6.323   9.118   7.093  0.2256 -0.2501  0.3703
  562MOL0     O77442   6.340   8.985   7.142  0.3415  0.7130  0.6753
  562MOL0     C77443   6.220   8.916   7.130 -0.6988  0.2457  0.0284
  562MOL0     C77444   6.178   8.844   7.242  0.5962  0.1883  0.4333
  562MOL0     C77445   6.056   8.773   7.239  0.8881 -0.1478  0.9386
  562MOL0     C77446   6.018   8.701   7.365 -0.6652 -0.4136  0.6663
  562MOL0     C77447   5.983   8.761   7.117  0.7031  0.1261  0.0667
  562MOL0     C77448   5.852   8.682   7.104  0.0485 -0.1632  0.0127
  562MOL0     O77449   5.775   8.665   7.205 -0.0351 -0.5010  0.2996
  562MOL0     C77450   5.650   8.622   7.187  0.2848  0.1524 -0.8199
  562MOL0     C77451   5.546   8.711   7.223 -0.3796  0.4453  0.1858
  562MOL0     C77452   5.412   8.676   7.204 -0.4781  0.1102 -0.8579
  562MOL0     C77453   5.381   8.559   7.137  0.8473  0.4362  0.0543
  562MOL0     O77454   5.240   8.536   7.116  0.1392 -0.5963 -0.2662
  562MOL0     C77455   5.197   8.518   6.986  0.3823  0.6056 -0.3250
  562MOL0     C77456   5.041   8.527   6.961 -0.4379  1.0131 -0.4281
  562MOL0     C77457   4.981   8.669   6.948 -0.4338 -0.1165 -0.2472
  562MOL0     C77458   4.852   8.655   6.870 -0.8347 -0.7756  0.1774
  562MOL0     C77459   4.765   8.781   6.882 -0.5004 -0.0710  0.3965
  562MOL0     C77460   4.687   8.773   7.013 -0.1786 -0.1261 -0.1518
  562MOL0     C77461   4.598   8.889   7.046 -0.3681 -0.3930  0.1200
  562MOL0     C77462   4.473   8.855   7.127 -0.4690  0.5923  0.6324
  562MOL0    Cl77463   4.339   8.814   7.004  0.4254 -0.0967 -0.2306
  562MOL0     C77464   5.482   8.469   7.093 -0.2661 -0.7148  0.2292
  562MOL0     C77465   5.619   8.499   7.126 -0.2898 -0.4587  0.6303
  562MOL0     O77466   5.828   8.636   6.995 -0.4630  0.3349  0.2454
  562MOL0     C77467   6.039   8.812   7.007 -1.0093 -0.0548  0.3662
  562MOL0     C77468   6.158   8.883   7.011  0.0721  0.4590  0.0496
  562MOL0     N77469   6.450   9.638   7.085  0.2052  0.0846  0.0724
  562MOL0     N77470   6.398   9.750   7.140 -0.2130  0.6590  0.1655
  562MOL0     C77471   6.021   9.912   7.856 -1.0471 -0.1562  0.0336
  562MOL0     C77472   5.890   9.939   7.827 -0.0721  0.1260  0.4121
  562MOL0     C77473   5.435  10.098   7.923  0.0066 -0.3363  0.0456
  562MOL0     C77474   5.389  10.083   7.795  0.8259 -0.6167  0.0394
  562MOL0     C77475   5.256  10.083   7.757 -0.5812 -0.2617 -0.3378
  562MOL0     C77476   5.161  10.120   7.855 -0.5301  0.6140  0.1956
  562MOL0     O77477   5.032  10.125   7.817  0.2302 -0.2189 -0.2143
  562MOL0     C77478   4.981  10.023   7.731 -0.3496 -0.5334  0.6042
  562MOL0     C77479   4.828  10.005   7.717  0.3444  0.4252  0.1230
  562MOL0     C77480   4.742  10.005   7.849 -0.1960  0.5651 -1.2313
  562MOL0     C77481   4.721   9.859   7.911 -0.2130 -0.0027  0.6329
  562MOL0     C77482   4.658   9.867   8.043 -0.3630  0.0227 -0.6103
  562MOL0     C77483   4.593   9.880   8.145 -0.2992  0.4640 -0.1175
  562MOL0     C77484   5.201  10.150   7.983  0.8120  0.6915  0.6211
  562MOL0     C77485   5.340  10.135   8.018  0.0744 -0.8806 -1.1100
  562MOL0     C77486   5.380  10.170   8.160  0.4702 -1.2347  0.8085
  562MOL0     H77487   5.766   9.980   8.132  1.3574  0.4070  1.7384
  562MOL0     H77488   5.998   9.938   8.191  0.3107  1.8169 -0.6258
  562MOL0     H77489   6.363   9.938   8.089 -2.8126 -1.9095  1.4681
  562MOL0     H77490   6.236  10.020   8.150 -3.6910 -0.5779 -0.4076
  562MOL0     H77491   6.211  10.135   7.907  1.0188  0.8546 -1.1583
  562MOL0     H77492   6.358  10.171   8.008  2.1529 -2.7169  2.0342
  562MOL0     H77493   6.493  10.022   7.869  0.6856 -1.5419 -2.9460
  562MOL0     H77494   6.366   9.951   7.790  0.3691 -0.0761 -2.3650
  562MOL0     H77495   6.333  10.221   7.732 -1.2982 -1.7798 -0.1209
  562MOL0     H77496   6.504  10.207   7.745 -0.2820  0.6184 -1.7625
  562MOL0     H77497   6.450  10.167   7.514  0.7883  2.0867  0.6435
  562MOL0     H77498   6.323  10.058   7.557  0.7699 -1.5729 -2.7016
  562MOL0     H77499   6.614  10.008   7.627 -1.3586 -0.5834  2.5455
  562MOL0     H77500   6.486   9.884   7.620 -1.1341  2.8511  2.9782
  562MOL0     H77501   6.637   9.858   7.414  0.9097  0.5027 -0.1096
  562MOL0     H77502   6.597  10.018   7.362  1.6271 -1.5626 -1.0291
  562MOL0     H77503   6.373   9.833   7.435 -0.0014  0.6041 -0.8571
  562MOL0     H77504   6.375   9.952   7.311 -1.0085 -0.8379  0.7226
  562MOL0     H77505   6.585   9.622   7.380  0.6673  2.7189  0.5409
  562MOL0     H77506   6.567   9.390   7.289  3.0416  0.2476 -0.2534
  562MOL0     H77507   6.656   9.419   7.143  1.7324 -0.3138  3.4657
  562MOL0     H77508   6.353   9.380   7.158 -0.5158 -0.3406 -1.8225
  562MOL0     H77509   6.446   9.361   7.003 -0.1195  0.3867  0.1766
  562MOL0     H77510   6.539   9.160   7.092 -1.3852  1.1678 -1.6804
  562MOL0     H77511   6.453   9.181   7.253  2.8637  2.0825  0.2281
  562MOL0     H77512   6.239   9.177   7.131 -1.2362 -0.8056 -1.8027
  562MOL0     H77513   6.315   9.114   6.984  2.2202  0.0711  0.1747
  562MOL0     H77514   6.240   8.868   7.328  1.1268  0.1169  0.0764
  562MOL0     H77515   6.092   8.709   7.445  1.6978  2.0993 -1.5772
  562MOL0     H77516   6.002   8.593   7.357 -0.3759 -0.6523  2.7582
  562MOL0     H77517   5.920   8.743   7.392 -0.2885  0.3662  0.8482
  562MOL0     H77518   5.582   8.811   7.246  1.0398  0.5666 -2.2040
  562MOL0     H77519   5.335   8.748   7.229  0.4037  1.2604 -1.3323
  562MOL0     H77520   5.247   8.593   6.925 -2.0569  0.1275 -3.1813
  562MOL0     H77521   5.231   8.417   6.958 -1.1346 -0.2789  0.8502
  562MOL0     H77522   5.024   8.481   6.863  0.2590 -3.0824  1.1680
  562MOL0     H77523   4.991   8.464   7.036 -1.2022  2.4747  0.3538
  562MOL0     H77524   5.052   8.735   6.898 -1.4044 -0.1631 -1.7489
  562MOL0     H77525   4.971   8.713   7.048  0.8365  0.7068 -0.4584
  562MOL0     H77526   4.792   8.573   6.910 -0.8316  0.7948  3.7373
  562MOL0     H77527   4.869   8.634   6.764 -0.4503  1.4333 -0.2447
  562MOL0     H77528   4.825   8.872   6.877 -0.0678 -0.3210  0.8612
  562MOL0     H77529   4.715   8.775   6.786  3.1215 -0.5166 -1.6355
  562MOL0     H77530   4.750   8.743   7.098  0.4413 -0.1548 -0.6181
  562MOL0     H77531   4.622   8.686   6.998  0.6563 -0.4481 -2.1743
  562MOL0     H77532   4.567   8.934   6.951  1.4210  2.5318  0.7818
  562MOL0     H77533   4.658   8.966   7.096  1.3495 -2.3419  1.1691
  562MOL0     H77534   4.443   8.943   7.185  1.2089 -0.0814  2.6428
  562MOL0     H77535   4.491   8.782   7.206 -0.2595 -0.6426 -0.5067
  562MOL0     H77536   5.459   8.371   7.051 -4.6135  0.0141  0.5096
  562MOL0     H77537   5.701   8.430   7.111  0.8099  1.3126 -2.8197
  562MOL0     H77538   6.001   8.796   6.907 -0.8695  1.0756  0.1222
  562MOL0     H77539   6.197   8.917   6.915  0.9710  0.1296  0.2892
  562MOL0     H77540   6.093   9.887   7.780 -0.5929 -1.2291  0.7884
  562MOL0     H77541   5.855   9.939   7.724  2.0350  2.2484 -0.3975
  562MOL0     H77542   5.467  10.052   7.725  0.4484  2.7825 -2.1308
  562MOL0     H77543   5.228  10.041   7.661  2.4981  1.8037 -2.3179
  562MOL0     H77544   5.023  10.034   7.631  0.6613 -5.0664  0.3086
  562MOL0     H77545   5.015   9.925   7.768 -1.4835 -0.2915  2.4160
  562MOL0     H77546   4.810   9.910   7.667  0.0357 -0.5469  1.9922
  562MOL0     H77547   4.791  10.092   7.662  2.9711  0.2752 -2.1097
  562MOL0     H77548   4.800  10.066   7.920 -0.8682 -1.4726  1.2293
  562MOL0     H77549   4.643  10.046   7.829 -0.4706  0.1493 -0.7410
  562MOL0     H77550   4.821   9.817   7.928  0.1885  1.0214  0.9009
  562MOL0     H77551   4.665   9.796   7.842 -2.5937  2.7096 -0.1228
  562MOL0     H77552   4.547   9.891   8.241 -1.1345  2.0872 -0.6596
  562MOL0     H77553   5.128  10.170   8.060  1.8477 -0.0363  1.8575
  562MOL0     H77554   5.431  10.078   8.190  0.1028 -1.4226  0.8602
  562MOL0     H77555   5.450  10.254   8.168  1.1023 -1.5084 -1.2644
  562MOL0     H77556   5.292  10.181   8.224 -1.6330 -0.8385 -1.9742
  563MOL0     O77557   6.666  11.338   4.668  0.2506 -0.0078  0.1011
  563MOL0     C77558   6.602  11.399   4.752  0.5185  0.0209 -0.1888
  563MOL0     O77559   6.642  11.507   4.814  0.2290 -0.6526  0.7458
  563MOL0     C77560   6.767  11.547   4.810 -0.0455  0.7173 -0.8232
  563MOL0     C77561   6.822  11.582   4.686  0.1387  0.8803 -1.1136
  563MOL0     C77562   6.958  11.627   4.684  0.9400 -0.1035  0.6192
  563MOL0     C77563   7.037  11.617   4.796 -0.4980  0.5666  0.5457
  563MOL0     O77564   7.170  11.641   4.798  0.2168  0.0286 -0.5817
  563MOL0     C77565   7.243  11.599   4.685  0.7325 -0.4212  0.3164
  563MOL0     C77566   7.395  11.594   4.700  0.6180  0.8599  0.0646
  563MOL0     C77567   7.441  11.473   4.780  0.5132 -0.9802  0.9010
  563MOL0     C77568   7.589  11.447   4.760  0.0453  0.2842  0.4503
  563MOL0     C77569   7.671  11.546   4.834  0.4336  0.5211 -0.3050
  563MOL0     C77570   7.815  11.502   4.855 -0.6713  0.1463  0.8294
  563MOL0     C77571   7.888  11.453   4.738 -0.7675 -0.1232  1.1267
  563MOL0     C77572   8.015  11.383   4.781 -0.2167 -0.6581 -0.6218
  563MOL0     N77573   8.113  11.479   4.844  0.6682  0.1117  0.0373
  563MOL0     C77574   8.240  11.450   4.891 -1.0823  0.3011  0.0466
  563MOL0     C77575   8.292  11.573   4.906 -0.6041  0.4911  0.6999
  563MOL0     C77576   8.438  11.590   4.961  0.1993 -0.5276  0.6417
  563MOL0     C77577   8.463  11.695   5.064 -0.3903  0.5131 -0.7177
  563MOL0     C77578   8.378  11.659   5.199  0.3045  0.5274  0.2105
  563MOL0     C77579   8.405  11.537   5.275  0.5737  0.4147 -0.3015
  563MOL0     O77580   8.522  11.537   5.361 -0.6614  0.0975  0.5523
  563MOL0     C77581   8.617  11.434   5.336  0.7392 -0.1261 -0.2116
  563MOL0     C77582   8.567  11.302   5.317 -0.3990  0.4586  0.3013
  563MOL0     C77583   8.651  11.186   5.318  0.1470 -0.7798  0.8605
  563MOL0     C77584   8.577  11.057   5.309 -0.4806 -0.1127  0.8054
  563MOL0     C77585   8.790  11.210   5.346  0.2712 -0.3348  0.1874
  563MOL0     C77586   8.897  11.103   5.350 -0.3324 -0.9449 -0.2952
  563MOL0     O77587   9.019  11.141   5.410 -0.1434  0.1685 -0.4785
  563MOL0     C77588   9.120  11.050   5.426  0.1186  0.5827  0.1115
  563MOL0     C77589   9.160  10.962   5.322 -0.5818  0.4068  0.3013
  563MOL0     C77590   9.281  10.890   5.337  1.1454  1.0012  0.2821
  563MOL0     C77591   9.352  10.889   5.462 -0.8447 -0.2794  0.3194
  563MOL0     O77592   9.468  10.825   5.485 -0.2816  0.0516  0.0723
  563MOL0     C77593   9.543  10.775   5.368  0.6160 -0.0512 -0.0566
  563MOL0     C77594   9.687  10.761   5.408 -0.2284  0.2405 -0.1645
  563MOL0     C77595   9.704  10.614   5.465 -0.4180 -0.8268 -0.5689
  563MOL0     C77596   9.690  10.498   5.364  0.2180  0.3119  0.2761
  563MOL0     C77597   9.757  10.384   5.434  0.2913 -0.1949 -0.6849
  563MOL0     C77598   9.750  10.254   5.359  1.2786  0.4717  0.9305
  563MOL0     C77599   9.791  10.121   5.429 -0.4907 -0.1231 -0.3840
  563MOL0     C77600   9.940  10.143   5.478  0.0431 -0.0892 -0.9824
  563MOL0    Cl77601   9.948  10.201   5.650  0.0646  0.0380  0.0321
  563MOL0     C77602   9.300  10.974   5.567 -0.3302  0.6349 -0.1554
  563MOL0     C77603   9.188  11.049   5.551  0.2616  0.0658 -0.6194
  563MOL0     O77604   8.878  11.001   5.290 -0.2631 -0.1518  0.5963
  563MOL0     C77605   8.835  11.339   5.359 -0.4794  0.7874 -0.3880
  563MOL0     C77606   8.752  11.454   5.357  0.6871 -0.7883 -0.4676
  563MOL0     N77607   8.211  11.672   4.878 -1.3366  0.4907 -0.2028
  563MOL0     N77608   8.102  11.617   4.838 -0.1849  0.2836 -0.1452
  563MOL0     C77609   6.983  11.573   4.912  0.0008 -0.3017  0.8068
  563MOL0     C77610   6.845  11.539   4.927  0.6114  0.3732 -0.0035
  563MOL0     C77611   6.470  11.339   4.791  0.5118 -0.9758  0.1856
  563MOL0     C77612   6.445  11.336   4.932 -0.2991  0.9550 -1.0544
  563MOL0     C77613   6.334  11.277   4.993  0.3696 -0.0858 -0.4153
  563MOL0     C77614   6.234  11.230   4.906 -0.0144  0.3053 -0.2873
  563MOL0     O77615   6.115  11.176   4.950 -0.5574  0.8890 -0.3442
  563MOL0     C77616   6.080  11.173   5.093 -0.3515 -0.9102  1.1796
  563MOL0     C77617   5.935  11.144   5.116  0.0053 -0.4095  0.6121
  563MOL0     C77618   5.924  11.138   5.271  0.2679  1.2772  0.0983
  563MOL0     C77619   5.781  11.089   5.301 -0.5230  0.2576  0.1387
  563MOL0     C77620   5.678  11.204   5.302  0.1456  0.0332 -0.4630
  563MOL0     C77621   5.607  11.300   5.323  0.7702  0.6496 -0.4510
  563MOL0     C77622   6.253  11.229   4.766  0.5608  0.0482  0.0870
  563MOL0     C77623   6.371  11.282   4.705 -0.3174 -0.2338  0.2068
  563MOL0     C77624   6.387  11.288   4.562  0.5446  0.3537  0.8353
  563MOL0     H77625   6.768  11.581   4.592 -2.4596 -2.9761  0.1700
  563MOL0     H77626   6.993  11.665   4.589 -0.6154 -1.5677 -0.5906
  563MOL0     H77627   7.224  11.676   4.610  3.3877 -0.4313 -0.4733
  563MOL0     H77628   7.201  11.502   4.656  0.5520 -0.0241 -0.7762
  563MOL0     H77629   7.428  11.574   4.597 -0.1187 -0.8905  0.1362
  563MOL0     H77630   7.425  11.694   4.732 -0.4195  1.2600 -0.1932
  563MOL0     H77631   7.420  11.480   4.887  0.9786 -0.7586  0.9779
  563MOL0     H77632   7.382  11.389   4.740 -0.3057 -0.3775  0.8209
  563MOL0     H77633   7.610  11.347   4.801 -1.5209  0.9131  3.0055
  563MOL0     H77634   7.612  11.456   4.653 -2.0142  1.4594  0.0546
  563MOL0     H77635   7.625  11.561   4.932  0.1493  1.2239 -0.5404
  563MOL0     H77636   7.657  11.648   4.797 -2.7345 -0.0161 -0.9115
  563MOL0     H77637   7.866  11.591   4.890 -0.6370  1.1460 -1.5946
  563MOL0     H77638   7.817  11.429   4.937  0.3153  0.6837  1.2875
  563MOL0     H77639   7.916  11.537   4.674 -0.8078  0.8883  2.3948
  563MOL0     H77640   7.821  11.383   4.688 -2.0049  0.9981  1.1687
  563MOL0     H77641   8.005  11.312   4.864  2.2990  0.5300  0.7965
  563MOL0     H77642   8.065  11.330   4.699 -0.0874 -1.8032  0.1739
  563MOL0     H77643   8.284  11.351   4.904 -0.3902  0.8929  2.6767
  563MOL0     H77644   8.504  11.596   4.874 -0.7846  1.0701 -0.0289
  563MOL0     H77645   8.458  11.492   5.006  1.3362 -3.0097 -4.5586
  563MOL0     H77646   8.571  11.700   5.081 -0.1839 -0.5951 -1.5652
  563MOL0     H77647   8.450  11.797   5.026  0.0282  1.4526  1.5069
  563MOL0     H77648   8.381  11.743   5.268  0.8388  1.7624 -1.2538
  563MOL0     H77649   8.273  11.645   5.173  0.7684 -0.9148 -1.0539
  563MOL0     H77650   8.316  11.520   5.336  1.2794  0.0970  0.6654
  563MOL0     H77651   8.419  11.457   5.202  4.9047  0.8255 -0.1811
  563MOL0     H77652   8.464  11.285   5.287  0.9029 -1.6801 -3.7854
  563MOL0     H77653   8.482  11.056   5.255 -0.0781  2.6295 -0.1032
  563MOL0     H77654   8.565  11.035   5.416  3.2581  1.3905  1.7105
  563MOL0     H77655   8.635  10.981   5.257  0.6743  0.5767  1.0425
  563MOL0     H77656   9.105  10.957   5.229 -0.1657  1.4933 -0.0179
  563MOL0     H77657   9.307  10.820   5.258  2.7799  0.5157  1.2103
  563MOL0     H77658   9.502  10.682   5.329 -1.1292  1.1930 -1.3495
  563MOL0     H77659   9.536  10.847   5.286 -0.1477  1.2526  1.0920
  563MOL0     H77660   9.740  10.777   5.314  0.5865  1.4129  0.4574
  563MOL0     H77661   9.703  10.845   5.477  0.2648  0.4983 -0.5837
  563MOL0     H77662   9.631  10.598   5.545  0.8337 -1.0010  0.5661
  563MOL0     H77663   9.806  10.612   5.505  0.5104  2.5644 -2.3611
  563MOL0     H77664   9.734  10.523   5.267 -1.8500 -0.6805 -0.9890
  563MOL0     H77665   9.583  10.474   5.361  0.7241 -2.4278  0.8450
  563MOL0     H77666   9.860  10.414   5.456  0.4173  0.7804 -2.4248
  563MOL0     H77667   9.712  10.367   5.532  2.5793 -2.4380  0.0758
  563MOL0     H77668   9.787  10.257   5.256  0.2404 -0.2303  0.5043
  563MOL0     H77669   9.645  10.228   5.338  1.7920 -0.9538 -0.0344
  563MOL0     H77670   9.787  10.036   5.361  0.0945  0.0085 -0.5918
  563MOL0     H77671   9.726  10.105   5.515 -1.9370 -0.0136 -1.4231
  563MOL0     H77672   9.989  10.226   5.425 -0.0968  0.5263 -0.1695
  563MOL0     H77673   9.989  10.046   5.469  1.6234  0.5368  0.3448
  563MOL0     H77674   9.338  10.968   5.668 -1.5910 -0.4210  0.2783
  563MOL0     H77675   9.148  11.103   5.637  1.8794 -0.6688  0.6583
  563MOL0     H77676   8.942  11.354   5.365 -0.4788  0.2994  0.9102
  563MOL0     H77677   8.789  11.556   5.364  0.6983 -0.7674 -0.8088
  563MOL0     H77678   7.055  11.565   4.993 -0.8458  0.9158  1.6911
  563MOL0     H77679   6.824  11.482   5.017  1.3918  1.7390  1.0703
  563MOL0     H77680   6.517  11.385   4.996  1.8682 -0.1717 -2.5038
  563MOL0     H77681   6.318  11.272   5.100 -2.6394 -4.2102 -0.8049
  563MOL0     H77682   6.145  11.115   5.159 -0.4805 -3.6239 -0.8972
  563MOL0     H77683   6.096  11.271   5.139  0.1064 -1.0006  1.2159
  563MOL0     H77684   5.915  11.042   5.084 -0.0319 -1.2258  3.0216
  563MOL0     H77685   5.864  11.219   5.078  0.8950  0.1468  0.0261
  563MOL0     H77686   5.998  11.066   5.309 -1.3692  0.0161  1.0540
  563MOL0     H77687   5.933  11.235   5.321 -0.6673  0.5259  1.8341
  563MOL0     H77688   5.788  11.039   5.398  2.2117 -3.4781 -1.6919
  563MOL0     H77689   5.749  11.016   5.225  1.2138 -2.7202  2.0526
  563MOL0     H77690   5.538  11.380   5.342 -2.2019 -1.0543 -3.0146
  563MOL0     H77691   6.179  11.193   4.696  1.7753 -0.0554 -1.1870
  563MOL0     H77692   6.468  11.220   4.534 -0.1120 -0.8646  1.7775
  563MOL0     H77693   6.299  11.257   4.505  1.5440 -0.2141 -0.4504
  563MOL0     H77694   6.410  11.387   4.521  1.1696 -0.0655  0.1478
  564MOL0     O77695   3.172   2.133   3.075 -0.5773 -0.0755  0.3236
  564MOL0     C77696   3.196   2.082   2.966 -0.3222  0.6430  0.0581
  564MOL0     O77697   3.264   2.144   2.863  0.4123  0.5502 -0.4794
  564MOL0     C77698   3.294   2.276   2.882  0.3460 -0.5920  1.3960
  564MOL0     C77699   3.421   2.315   2.922  0.2316  0.2742  0.3854
  564MOL0     C77700   3.442   2.452   2.926 -0.9986  0.2016  0.7757
  564MOL0     C77701   3.343   2.550   2.917  0.4388  0.3894 -0.1352
  564MOL0     O77702   3.377   2.679   2.945  0.0517  0.2799 -0.0765
  564MOL0     C77703   3.278   2.792   2.935 -0.7504  0.6147  0.3222
  564MOL0     C77704   3.329   2.920   3.003  0.0055  0.7130 -0.2371
  564MOL0     C77705   3.462   2.955   2.934  0.3504 -0.8288 -0.1505
  564MOL0     C77706   3.525   3.072   3.025  0.7662 -0.0936 -0.0203
  564MOL0     C77707   3.669   3.111   2.988 -0.4361  0.1098  0.2118
  564MOL0     C77708   3.673   3.173   2.852 -0.0161  0.2067 -0.4363
  564MOL0     C77709   3.797   3.250   2.813  0.3130 -0.3660 -0.7967
  564MOL0     C77710   3.917   3.163   2.788  0.7849  0.4595 -0.4377
  564MOL0     N77711   4.032   3.236   2.742 -1.1338 -0.0656 -0.1218
  564MOL0     C77712   4.034   3.309   2.628  0.5363 -0.1083  0.0924
  564MOL0     C77713   4.157   3.363   2.615 -0.0461 -1.1373 -0.6909
  564MOL0     C77714   4.205   3.455   2.503 -0.1485  0.5037  0.3467
  564MOL0     C77715   4.348   3.419   2.464  0.5196  0.4772  0.4256
  564MOL0     C77716   4.403   3.505   2.354  0.0137 -0.0584 -1.4024
  564MOL0     C77717   4.501   3.435   2.258  0.0211 -0.5343  0.3495
  564MOL0     O77718   4.584   3.355   2.341  0.0448 -0.2544 -0.6279
  564MOL0     C77719   4.686   3.410   2.430  0.8647 -0.3882  0.5219
  564MOL0     C77720   4.705   3.352   2.552  0.3682  0.3025  0.8313
  564MOL0     C77721   4.800   3.397   2.645 -0.3534  0.1199 -0.0160
  564MOL0     C77722   4.810   3.333   2.773 -0.7166  0.2590  0.1908
  564MOL0     C77723   4.895   3.498   2.602  0.7457 -0.1175  0.7726
  564MOL0     C77724   5.011   3.552   2.688  0.1604 -0.1060  0.6110
  564MOL0     O77725   5.083   3.457   2.748  0.1165  0.8696 -0.2110
  564MOL0     C77726   5.163   3.486   2.852 -0.1171  0.3188  0.1515
  564MOL0     C77727   5.279   3.415   2.854 -0.2717  0.0399 -0.8190
  564MOL0     C77728   5.364   3.444   2.960  0.1578 -0.0262  0.2162
  564MOL0     C77729   5.321   3.527   3.069 -0.6114  0.3707  0.2684
  564MOL0     O77730   5.405   3.534   3.175 -0.3568 -1.0270 -0.6200
  564MOL0     C77731   5.386   3.634   3.275 -0.3145 -0.3607  0.2308
  564MOL0     C77732   5.443   3.761   3.222 -0.5199 -0.4918  0.1554
  564MOL0     C77733   5.426   3.875   3.318  0.1135 -0.3240  0.5651
  564MOL0     C77734   5.494   4.011   3.281 -0.4243 -0.1159 -0.1926
  564MOL0     C77735   5.649   4.006   3.245  0.7552 -0.4978  0.4528
  564MOL0     C77736   5.717   4.147   3.222  0.1393  0.9541  0.5309
  564MOL0     C77737   5.668   4.209   3.082  0.0719 -0.3648 -0.0730
  564MOL0     C77738   5.771   4.316   3.036 -0.1287  0.6732  0.0037
  564MOL0    Cl77739   5.691   4.409   2.911  0.1925 -0.3336  0.2769
  564MOL0     C77740   5.199   3.586   3.062 -0.7863 -0.8401  0.3294
  564MOL0     C77741   5.119   3.574   2.951 -0.6422  0.3661 -0.5287
  564MOL0     O77742   5.020   3.674   2.699  0.3607  0.5314 -0.4460
  564MOL0     C77743   4.871   3.563   2.480  0.5582 -0.0812  0.0056
  564MOL0     C77744   4.764   3.523   2.399 -0.7187 -0.1888  0.0985
  564MOL0     N77745   4.230   3.348   2.735 -0.0758 -0.4997 -0.1346
  564MOL0     N77746   4.156   3.263   2.807 -0.1125 -0.2085 -0.0513
  564MOL0     C77747   3.213   2.504   2.884 -0.7750  0.5155  0.0307
  564MOL0     C77748   3.191   2.372   2.858 -0.5809  0.5051 -0.7151
  564MOL0     C77749   3.174   1.935   2.946  0.1740 -0.1508 -0.5336
  564MOL0     C77750   3.274   1.858   2.897 -0.1300 -0.3089 -0.0827
  564MOL0     C77751   3.268   1.719   2.876 -0.8371  0.0473 -0.4412
  564MOL0     C77752   3.153   1.646   2.923  0.1324  0.1808  0.2405
  564MOL0     O77753   3.136   1.508   2.920 -1.4285 -0.0676 -0.1666
  564MOL0     C77754   3.229   1.425   2.843 -0.1049 -0.4112 -0.4903
  564MOL0     C77755   3.197   1.428   2.684  0.3532 -0.9300  0.1978
  564MOL0     C77756   3.046   1.410   2.656 -0.3129 -0.3359  1.1332
  564MOL0     C77757   2.981   1.302   2.744 -0.3548 -0.5822 -0.7515
  564MOL0     C77758   2.847   1.276   2.709 -0.6027  0.5434 -0.3902
  564MOL0     C77759   2.729   1.270   2.674 -0.1882 -0.4320 -0.3596
  564MOL0     C77760   3.046   1.722   2.974 -0.0179  0.5513 -0.1459
  564MOL0     C77761   3.057   1.864   2.984  0.0064 -0.2186  0.0663
  564MOL0     C77762   2.944   1.938   3.041 -0.5473  0.2701 -0.1674
  564MOL0     H77763   3.506   2.248   2.927 -0.6409 -0.9827 -0.6892
  564MOL0     H77764   3.548   2.476   2.931 -0.5191 -1.7946  0.8084
  564MOL0     H77765   3.185   2.762   2.985  0.8403 -1.0608  2.4467
  564MOL0     H77766   3.256   2.805   2.828 -1.7763 -0.1645  0.4165
  564MOL0     H77767   3.250   2.996   2.995 -0.3879  0.4586  1.0780
  564MOL0     H77768   3.338   2.896   3.109  0.5150  0.6180 -0.3011
  564MOL0     H77769   3.539   2.878   2.947  2.8747  1.6875  0.7804
  564MOL0     H77770   3.457   2.987   2.830  2.1892 -0.0145 -0.0334
  564MOL0     H77771   3.460   3.160   3.031  1.8560  0.7603 -0.4233
  564MOL0     H77772   3.526   3.031   3.126  0.1161  1.3439  0.6016
  564MOL0     H77773   3.740   3.030   3.003  0.9577  1.2174 -0.1657
  564MOL0     H77774   3.721   3.193   3.038  0.3557  0.8609 -1.7679
  564MOL0     H77775   3.656   3.101   2.771  0.8366  1.1652 -1.4991
  564MOL0     H77776   3.590   3.243   2.844  0.4247  0.8277  0.3349
  564MOL0     H77777   3.828   3.312   2.898  2.0771  0.6189 -2.0974
  564MOL0     H77778   3.780   3.319   2.730 -0.2754  2.7934  1.7373
  564MOL0     H77779   3.937   3.102   2.877  1.0068 -0.1659 -0.9076
  564MOL0     H77780   3.893   3.093   2.707 -0.9304  0.2192  0.2351
  564MOL0     H77781   3.946   3.317   2.565  1.6286 -1.0266 -1.6425
  564MOL0     H77782   4.187   3.559   2.532 -1.2236 -0.1593  2.2020
  564MOL0     H77783   4.137   3.437   2.420  0.5366 -0.8719  0.0581
  564MOL0     H77784   4.411   3.443   2.550 -0.2428 -1.7091  1.6599
  564MOL0     H77785   4.356   3.312   2.442 -1.7472  0.0684  1.2609
  564MOL0     H77786   4.314   3.536   2.299 -0.7278 -0.7213 -0.6120
  564MOL0     H77787   4.444   3.595   2.400  0.3547 -1.0615  0.3288
  564MOL0     H77788   4.443   3.371   2.190 -0.0820  0.3307 -0.3973
  564MOL0     H77789   4.551   3.514   2.201  0.3150  2.5241  4.3949
  564MOL0     H77790   4.638   3.272   2.582 -0.8398 -0.3836 -3.0774
  564MOL0     H77791   4.897   3.268   2.769 -1.0689 -0.2035 -3.2507
  564MOL0     H77792   4.722   3.275   2.802  0.0936 -0.8257  0.5483
  564MOL0     H77793   4.820   3.411   2.849 -0.4871  0.5406 -0.1264
  564MOL0     H77794   5.310   3.349   2.774 -2.6706 -1.2584 -0.7726
  564MOL0     H77795   5.463   3.401   2.970  0.3501  0.6159  1.1894
  564MOL0     H77796   5.282   3.658   3.301  0.1717  1.0306  1.0220
  564MOL0     H77797   5.435   3.615   3.371  0.4333 -1.8265 -0.4075
  564MOL0     H77798   5.550   3.739   3.213 -0.7547 -1.2742 -0.9447
  564MOL0     H77799   5.410   3.785   3.120  0.4309 -0.0507 -0.0687
  564MOL0     H77800   5.488   3.841   3.401 -1.5797 -1.1935  1.5381
  564MOL0     H77801   5.320   3.887   3.344  0.6295  2.3697  1.7945
  564MOL0     H77802   5.483   4.078   3.367  1.3792 -0.6759  0.5146
  564MOL0     H77803   5.436   4.047   3.196 -0.9489  0.3831  0.3696
  564MOL0     H77804   5.706   3.937   3.307 -1.4842 -2.8888  0.0332
  564MOL0     H77805   5.652   3.967   3.143  0.2014  0.3705  0.0883
  564MOL0     H77806   5.826   4.139   3.216  0.0502  0.6123 -1.0623
  564MOL0     H77807   5.699   4.214   3.306  0.8249  2.6908 -0.6693
  564MOL0     H77808   5.578   4.266   3.106 -0.4543 -1.4051  0.4742
  564MOL0     H77809   5.650   4.129   3.011  1.7010 -2.4386  1.6900
  564MOL0     H77810   5.863   4.264   3.006 -0.1096 -0.3479  1.7424
  564MOL0     H77811   5.797   4.378   3.122 -3.5920  0.2654  1.5093
  564MOL0     H77812   5.171   3.669   3.127  0.6315  2.2896 -2.6907
  564MOL0     H77813   5.026   3.630   2.957 -2.2866 -2.2110 -0.6130
  564MOL0     H77814   4.944   3.641   2.457  0.1032  0.7244  1.1792
  564MOL0     H77815   4.756   3.558   2.297 -0.5674  0.2095  0.2220
  564MOL0     H77816   3.138   2.583   2.878 -0.0534  1.2924  1.0828
  564MOL0     H77817   3.096   2.329   2.827  0.0939 -0.4338 -1.5417
  564MOL0     H77818   3.357   1.923   2.870 -1.8550  2.0209 -0.0105
  564MOL0     H77819   3.347   1.671   2.819 -1.3596 -0.0680 -1.0712
  564MOL0     H77820   3.329   1.460   2.871 -1.6140  0.6553  4.6572
  564MOL0     H77821   3.213   1.323   2.879  0.0885 -0.1615  0.3323
  564MOL0     H77822   3.253   1.355   2.625 -0.8022 -0.5418 -1.4316
  564MOL0     H77823   3.230   1.526   2.647  0.7791 -0.4608  1.7316
  564MOL0     H77824   3.010   1.513   2.667  2.3824  1.0065 -1.1092
  564MOL0     H77825   3.029   1.374   2.554  0.1297 -1.7089  1.5155
  564MOL0     H77826   2.985   1.338   2.847  0.2674  1.0019 -1.2918
  564MOL0     H77827   3.035   1.208   2.738  1.4828  0.4734 -1.6285
  564MOL0     H77828   2.628   1.261   2.640 -1.5954  0.4938  3.2200
  564MOL0     H77829   2.961   1.678   3.025  0.2894  3.7729  3.6132
  564MOL0     H77830   2.973   1.978   3.138 -1.3196  1.9933 -0.6042
  564MOL0     H77831   2.903   2.010   2.969 -1.5950 -1.3942 -1.3097
  564MOL0     H77832   2.864   1.865   3.052  1.2769 -2.1726 -1.9788
  565MOL0     O77833   6.056   6.438   7.809 -0.0683  0.5990  0.0921
  565MOL0     C77834   6.017   6.462   7.699  0.0242  0.0286  0.2989
  565MOL0     O77835   6.072   6.544   7.608  0.2760  0.5728 -0.0306
  565MOL0     C77836   6.152   6.651   7.623 -0.8946  0.8166  0.1667
  565MOL0     C77837   6.132   6.755   7.548 -1.0659 -0.6714  0.4658
  565MOL0     C77838   6.223   6.860   7.554 -0.6550 -0.5246 -0.5641
  565MOL0     C77839   6.328   6.868   7.650  0.8746  0.0001 -0.2247
  565MOL0     O77840   6.421   6.969   7.676  0.4914 -0.1338 -1.0911
  565MOL0     C77841   6.398   7.094   7.613 -0.3004  0.1281 -0.5581
  565MOL0     C77842   6.507   7.201   7.661 -0.4024 -0.4239  0.3939
  565MOL0     C77843   6.645   7.164   7.603  0.9740  0.3394 -0.8170
  565MOL0     C77844   6.763   7.234   7.667 -1.2595 -0.4789  0.4520
  565MOL0     C77845   6.813   7.151   7.795 -0.3467  1.0272  0.3232
  565MOL0     C77846   6.941   7.203   7.858 -0.6447 -0.3011  0.3844
  565MOL0     C77847   6.923   7.337   7.924  0.0178  0.3321 -0.7398
  565MOL0     C77848   6.976   7.452   7.833  0.8789 -0.5850 -0.6546
  565MOL0     N77849   7.037   7.566   7.914 -0.0320 -0.0694  0.0789
  565MOL0     C77850   7.161   7.557   7.981  0.2706 -0.4138  0.4485
  565MOL0     C77851   7.172   7.666   8.057  0.1824  0.1522  0.1307
  565MOL0     C77852   7.270   7.718   8.159 -1.1398 -0.4689  0.7326
  565MOL0     C77853   7.410   7.643   8.130 -0.3444  0.0587 -0.5634
  565MOL0     C77854   7.503   7.681   8.245 -0.1716  0.0713 -0.0065
  565MOL0     C77855   7.571   7.816   8.217  0.3625 -0.8254 -0.3679
  565MOL0     O77856   7.623   7.863   8.343  0.2722  1.4486 -0.3358
  565MOL0     C77857   7.751   7.914   8.347  0.2178  0.3306  1.4250
  565MOL0     C77858   7.813   7.924   8.470 -0.2474 -0.0945 -0.8378
  565MOL0     C77859   7.937   7.990   8.487 -0.7849  0.1415 -0.1665
  565MOL0     C77860   8.006   7.992   8.632  0.3026 -0.3612  0.1773
  565MOL0     C77861   8.002   8.046   8.374  0.2131 -0.3892  0.3410
  565MOL0     C77862   8.138   8.114   8.374  0.4210  0.1295 -0.6171
  565MOL0     O77863   8.192   8.160   8.495  0.4574  0.1319 -0.8110
  565MOL0     C77864   8.276   8.265   8.491 -0.1654  0.2194 -0.3091
  565MOL0     C77865   8.248   8.378   8.410 -0.1803  0.4535 -0.4624
  565MOL0     C77866   8.344   8.476   8.394  1.6778 -0.8467 -0.3705
  565MOL0     C77867   8.467   8.472   8.468  0.6193 -0.0855  0.4504
  565MOL0     O77868   8.557   8.577   8.447 -0.5330  0.0171 -0.2548
  565MOL0     C77869   8.646   8.609   8.562 -0.6494  0.2107  0.3514
  565MOL0     C77870   8.785   8.563   8.541 -0.3699  0.6104  0.3574
  565MOL0     C77871   8.843   8.626   8.405 -0.0517 -0.7607 -0.9943
  565MOL0     C77872   8.975   8.703   8.452 -0.5112  0.1418 -0.2216
  565MOL0     C77873   9.066   8.739   8.329  0.5384 -0.3253 -0.1889
  565MOL0     C77874   8.991   8.842   8.237  0.1329 -1.0275 -0.8964
  565MOL0     C77875   9.073   8.888   8.119 -0.2532  0.5181 -0.5636
  565MOL0     C77876   9.202   8.959   8.158 -0.4664 -0.1018  0.5085
  565MOL0    Cl77877   9.342   8.841   8.164  0.5935 -0.6887 -0.3904
  565MOL0     C77878   8.487   8.365   8.558 -0.5314  0.3432  0.4275
  565MOL0     C77879   8.393   8.257   8.565 -0.8044 -0.6620  0.4207
  565MOL0     O77880   8.189   8.128   8.260 -0.0447 -0.8011  0.0825
  565MOL0     C77881   7.935   8.030   8.247  0.8293 -0.8343  0.9664
  565MOL0     C77882   7.808   7.970   8.232  0.0704 -0.2531 -0.4979
  565MOL0     N77883   7.062   7.738   8.036  0.6691  0.7772  0.6691
  565MOL0     N77884   6.986   7.680   7.943  0.0839 -0.3490  0.3536
  565MOL0     C77885   6.355   6.747   7.729  0.4400  0.0684  0.9443
  565MOL0     C77886   6.269   6.636   7.710  0.1081 -0.5573 -0.8709
  565MOL0     C77887   5.903   6.389   7.643 -0.4661  0.2295  0.6601
  565MOL0     C77888   5.787   6.370   7.718  0.3614  0.3460  0.2004
  565MOL0     C77889   5.669   6.304   7.667 -0.2988  0.5174  0.2268
  565MOL0     C77890   5.663   6.250   7.533 -0.1987  0.4880 -0.0210
  565MOL0     O77891   5.557   6.179   7.483  0.0955  0.1047  0.2282
  565MOL0     C77892   5.526   6.201   7.345  0.9828  0.3210 -1.2328
  565MOL0     C77893   5.471   6.065   7.305  0.3112 -0.7444  0.0075
  565MOL0     C77894   5.572   5.955   7.306 -0.0226 -0.3398 -0.1854
  565MOL0     C77895   5.510   5.821   7.261 -0.0767  0.1627 -0.4152
  565MOL0     C77896   5.597   5.736   7.180  0.3505 -0.5359 -0.4569
  565MOL0     C77897   5.663   5.663   7.109 -1.4372  0.2472 -0.1857
  565MOL0     C77898   5.786   6.261   7.467  0.5509  0.2975  0.3945
  565MOL0     C77899   5.902   6.329   7.507 -0.0763  0.0778  0.8293
  565MOL0     C77900   6.013   6.351   7.411  0.8524 -0.1695  0.2889
  565MOL0     H77901   6.058   6.752   7.469  1.7677 -2.0424 -2.3481
  565MOL0     H77902   6.218   6.941   7.482  1.2625  0.3626  0.2136
  565MOL0     H77903   6.307   7.136   7.657  0.0257 -0.9596  1.2399
  565MOL0     H77904   6.395   7.074   7.505  0.0979  0.0994 -0.5627
  565MOL0     H77905   6.473   7.298   7.624 -1.0584 -0.4332  0.9529
  565MOL0     H77906   6.505   7.220   7.769 -2.4497  2.4799 -0.0409
  565MOL0     H77907   6.668   7.058   7.613  2.0005  0.7033  1.2989
  565MOL0     H77908   6.645   7.181   7.495 -2.0033 -1.0956 -1.1169
  565MOL0     H77909   6.845   7.249   7.596 -1.2827 -1.7271  0.1396
  565MOL0     H77910   6.736   7.334   7.701  0.7647  1.1128 -2.2043
  565MOL0     H77911   6.839   7.047   7.772  2.0376  1.6189  0.0442
  565MOL0     H77912   6.731   7.157   7.866  1.9826  0.0799  3.2863
  565MOL0     H77913   6.971   7.137   7.939  1.3397 -1.7803 -1.4593
  565MOL0     H77914   7.020   7.201   7.782 -0.8204 -0.4911  0.2040
  565MOL0     H77915   6.983   7.325   8.015  0.9549 -0.0074 -1.3882
  565MOL0     H77916   6.816   7.350   7.941 -0.7050 -1.0285 -3.6770
  565MOL0     H77917   7.051   7.410   7.765  0.3092  0.9044 -2.2903
  565MOL0     H77918   6.904   7.505   7.768 -0.0634 -1.0515 -0.0061
  565MOL0     H77919   7.218   7.465   7.978  1.2437  0.2042 -0.5027
  565MOL0     H77920   7.238   7.695   8.261  1.5513 -2.5562  1.2339
  565MOL0     H77921   7.282   7.825   8.143  1.0024 -0.8607 -0.7786
  565MOL0     H77922   7.385   7.536   8.123 -1.7652  0.4593 -2.3835
  565MOL0     H77923   7.448   7.681   8.036 -2.1961 -0.9127 -1.7696
  565MOL0     H77924   7.461   7.687   8.345  3.4750  2.8782  1.6044
  565MOL0     H77925   7.583   7.606   8.239  0.0767  0.2525  0.9217
  565MOL0     H77926   7.651   7.807   8.142  2.6248  3.1505  1.2838
  565MOL0     H77927   7.492   7.884   8.185 -0.5176 -1.1000  1.1377
  565MOL0     H77928   7.768   7.885   8.561  0.1031 -0.0111 -0.6305
  565MOL0     H77929   7.996   8.087   8.686 -2.6700 -1.6879  2.2568
  565MOL0     H77930   8.112   7.964   8.627  0.3600 -0.0084 -0.8062
  565MOL0     H77931   7.956   7.921   8.698  0.7673 -1.1762 -0.3287
  565MOL0     H77932   8.150   8.401   8.369 -0.7574 -0.4116  0.4049
  565MOL0     H77933   8.337   8.566   8.334 -1.0479 -1.2425 -0.7703
  565MOL0     H77934   8.655   8.717   8.577  2.2563 -0.3093  3.5027
  565MOL0     H77935   8.613   8.564   8.656  1.4299 -0.0522  1.0033
  565MOL0     H77936   8.845   8.587   8.629 -0.0197  2.8632 -0.4212
  565MOL0     H77937   8.780   8.455   8.526  0.4663  0.2747  2.2236
  565MOL0     H77938   8.779   8.702   8.359  1.0927 -1.0598 -3.2120
  565MOL0     H77939   8.859   8.549   8.329  1.1457 -0.7928 -0.7400
  565MOL0     H77940   9.044   8.640   8.509 -0.1998  0.0790 -0.6670
  565MOL0     H77941   8.947   8.786   8.517  1.9483  1.4683 -0.7352
  565MOL0     H77942   9.159   8.781   8.368  0.9051 -2.2052  1.1433
  565MOL0     H77943   9.092   8.654   8.266  0.5760  0.9392 -1.9298
  565MOL0     H77944   8.971   8.932   8.295 -0.9245 -2.3389  0.8484
  565MOL0     H77945   8.897   8.804   8.196 -0.9125  1.8448 -1.3804
  565MOL0     H77946   9.014   8.958   8.059  0.7429  2.0613  0.1943
  565MOL0     H77947   9.097   8.803   8.055 -0.7073  2.7053 -3.8656
  565MOL0     H77948   9.191   9.023   8.247 -2.3788  2.1096 -1.1968
  565MOL0     H77949   9.220   9.023   8.071 -2.9317  0.1071  0.0839
  565MOL0     H77950   8.579   8.348   8.613  1.0832  0.4434 -2.0588
  565MOL0     H77951   8.415   8.181   8.639  0.6476  1.0569  1.8220
  565MOL0     H77952   7.977   8.077   8.158 -2.1906 -0.3349 -0.3190
  565MOL0     H77953   7.765   7.978   8.132  0.2998 -0.5175 -0.6177
  565MOL0     H77954   6.437   6.734   7.800 -0.0990 -2.6372  1.1656
  565MOL0     H77955   6.282   6.545   7.767  2.4877 -1.1130 -2.1780
  565MOL0     H77956   5.787   6.403   7.822  0.7026 -0.7622  0.5728
  565MOL0     H77957   5.576   6.287   7.720 -0.3655 -1.1674 -0.3721
  565MOL0     H77958   5.453   6.282   7.338  2.1942  1.5312 -0.4568
  565MOL0     H77959   5.616   6.236   7.293  2.3700 -1.3831 -0.0637
  565MOL0     H77960   5.432   6.073   7.203 -0.0153 -3.4697 -0.1502
  565MOL0     H77961   5.387   6.037   7.370 -1.0498  2.3028 -0.2420
  565MOL0     H77962   5.660   5.978   7.246  1.1219 -0.3167  1.4357
  565MOL0     H77963   5.607   5.938   7.408 -0.2708  2.7385  0.5226
  565MOL0     H77964   5.415   5.838   7.208  0.3212  0.9039 -0.9112
  565MOL0     H77965   5.484   5.770   7.354  0.1927 -1.8030 -1.3712
  565MOL0     H77966   5.741   5.610   7.059 -0.0126  1.9712  0.1212
  565MOL0     H77967   5.795   6.202   7.376 -0.7976 -0.4223  0.7013
  565MOL0     H77968   6.113   6.332   7.452  2.1040  0.2539 -2.3343
  565MOL0     H77969   6.017   6.285   7.324  0.7874  0.3032 -0.0799
  565MOL0     H77970   6.018   6.453   7.371  3.1621  0.2413  1.4778
  566MOL0     O77971   9.462   9.835   1.283 -0.1256  0.1935 -0.4496
  566MOL0     C77972   9.559   9.755   1.294  0.4298  0.4366  0.7159
  566MOL0     O77973   9.591   9.660   1.196  0.5683  0.9142 -0.0156
  566MOL0     C77974   9.513   9.657   1.076  0.1059 -0.8121  0.7953
  566MOL0     C77975   9.517   9.770   0.989 -0.2622  0.7452 -0.0316
  566MOL0     C77976   9.420   9.778   0.891  0.4176 -0.7364  0.2623
  566MOL0     C77977   9.319   9.678   0.865 -0.2003  0.0578 -0.1926
  566MOL0     O77978   9.218   9.688   0.771 -0.1776  0.6554 -0.2776
  566MOL0     C77979   9.173   9.819   0.723 -0.0657 -0.1809  0.0495
  566MOL0     C77980   9.025   9.819   0.675 -1.3446 -1.3603  0.1507
  566MOL0     C77981   8.931   9.819   0.792 -0.5399  0.2177 -0.4767
  566MOL0     C77982   8.794   9.781   0.732 -0.1306 -0.5835  1.0620
  566MOL0     C77983   8.681   9.786   0.833  0.8043 -0.6775  0.5573
  566MOL0     C77984   8.539   9.764   0.766 -0.6144  0.5023 -0.8491
  566MOL0     C77985   8.512   9.829   0.627  0.1310 -0.1455  0.6275
  566MOL0     C77986   8.377   9.801   0.563 -0.3408  0.4098 -0.5075
  566MOL0     N77987   8.367   9.662   0.506  0.1716 -0.1968 -0.1731
  566MOL0     C77988   8.453   9.585   0.430  0.7763 -0.3429  0.1242
  566MOL0     C77989   8.391   9.485   0.366  0.7550  0.2456  0.6165
  566MOL0     C77990   8.457   9.376   0.280  0.4047 -0.5142  0.3464
  566MOL0     C77991   8.471   9.419   0.140 -0.3668  0.2377 -0.4749
  566MOL0     C77992   8.340   9.422   0.062 -0.3465  0.0196 -0.5299
  566MOL0     C77993   8.336   9.485  -0.072 -0.0830 -0.4229 -0.1603
  566MOL0     O77994   8.394   9.389  -0.157  0.1631  0.5607 -1.3365
  566MOL0     C77995   8.502   9.424  -0.239  0.1697  0.5975 -1.3400
  566MOL0     C77996   8.594   9.526  -0.214 -0.3863 -0.8379  0.5351
  566MOL0     C77997   8.715   9.527  -0.286  0.0983 -0.4462 -0.6854
  566MOL0     C77998   8.829   9.619  -0.239 -0.4135 -0.4460  0.5589
  566MOL0     C77999   8.742   9.428  -0.377 -0.2105  0.5051 -0.0710
  566MOL0     C78000   8.856   9.436  -0.473  0.2274 -0.1623  1.5551
  566MOL0     O78001   8.912   9.308  -0.492 -0.7509  0.3299  0.4853
  566MOL0     C78002   8.998   9.280  -0.605  0.0455  0.3114 -0.9128
  566MOL0     C78003   9.124   9.230  -0.575 -0.6344  0.6948  0.7936
  566MOL0     C78004   9.215   9.186  -0.669  0.4396 -0.3820 -0.0436
  566MOL0     C78005   9.178   9.212  -0.803  0.0174 -0.8395 -0.4593
  566MOL0     O78006   9.266   9.152  -0.888 -0.1147  0.4085  0.1624
  566MOL0     C78007   9.294   9.215  -1.009  0.5813 -1.1916 -0.2809
  566MOL0     C78008   9.394   9.336  -0.993  0.1142 -0.3987  0.4664
  566MOL0     C78009   9.527   9.297  -0.933 -0.0791  0.0952  0.8443
  566MOL0     C78010   9.518   9.310  -0.779  0.0393  0.6668  0.0387
  566MOL0     C78011   9.657   9.282  -0.711 -0.0021  0.6404  0.1296
  566MOL0     C78012   9.641   9.293  -0.560 -0.2092  0.4182 -0.4756
  566MOL0     C78013   9.776   9.296  -0.488 -0.5740 -0.0415 -0.5010
  566MOL0     C78014   9.750   9.332  -0.339  0.6440 -0.1438  0.1609
  566MOL0    Cl78015   9.906   9.308  -0.245 -0.5570  0.1552 -0.5284
  566MOL0     C78016   9.052   9.261  -0.836 -0.5680  0.2927  0.4136
  566MOL0     C78017   8.962   9.288  -0.738 -0.0868 -0.9855 -0.0766
  566MOL0     O78018   8.897   9.541  -0.534  0.9340 -0.2869 -0.1194
  566MOL0     C78019   8.647   9.334  -0.408  0.1299  0.0761  0.0909
  566MOL0     C78020   8.526   9.328  -0.340  0.2797 -0.3765 -0.5897
  566MOL0     N78021   8.256   9.503   0.410 -0.3647  0.0953  0.0728
  566MOL0     N78022   8.247   9.607   0.485 -0.2813  0.6484 -0.6477
  566MOL0     C78023   9.331   9.562   0.947  0.1800 -0.4398  0.1286
  566MOL0     C78024   9.431   9.552   1.043  0.2207  0.5691 -1.4462
  566MOL0     C78025   9.631   9.749   1.423  0.0929  0.5355  0.6439
  566MOL0     C78026   9.758   9.694   1.423  0.0057 -0.3287  0.1240
  566MOL0     C78027   9.824   9.670   1.543  0.8540  0.2976 -0.4667
  566MOL0     C78028   9.772   9.707   1.662  0.9530 -0.3224  0.4686
  566MOL0     O78029   9.843   9.706   1.782  0.3231  0.0155 -0.6008
  566MOL0     C78030   9.980   9.683   1.778 -0.6490  0.5544 -0.0164
  566MOL0     C78031  10.025   9.665   1.922 -0.1831  0.5176 -0.7750
  566MOL0     C78032  10.179   9.655   1.923 -0.1536  0.4068  0.0749
  566MOL0     C78033  10.233   9.614   2.052 -0.0078 -0.1501 -0.1591
  566MOL0     C78034  10.367   9.559   2.041  0.5089  0.8242  0.5339
  566MOL0     C78035  10.470   9.495   2.040 -0.2230  0.8829 -0.5029
  566MOL0     C78036   9.641   9.762   1.666  0.4141  0.1277 -0.4031
  566MOL0     C78037   9.568   9.779   1.547 -0.1713 -0.3285 -0.3502
  566MOL0     C78038   9.422   9.823   1.558 -0.6920  0.0173 -1.0033
  566MOL0     H78039   9.596   9.844   0.990  1.1885 -0.5728 -2.8315
  566MOL0     H78040   9.409   9.872   0.837  0.4066 -0.8086  0.1383
  566MOL0     H78041   9.234   9.860   0.641  0.9582 -1.2558  0.2591
  566MOL0     H78042   9.186   9.891   0.804 -1.9186  0.1960  0.0531
  566MOL0     H78043   9.011   9.914   0.622  1.8455 -0.2831  0.9789
  566MOL0     H78044   9.001   9.737   0.608 -4.2982 -1.0519  0.7298
  566MOL0     H78045   8.966   9.753   0.872  1.9048  0.7504 -1.0087
  566MOL0     H78046   8.928   9.923   0.828 -1.1383  1.2084 -3.1552
  566MOL0     H78047   8.766   9.848   0.651 -2.7780 -3.8504 -0.9898
  566MOL0     H78048   8.796   9.686   0.678 -0.3693  1.7206 -3.4790
  566MOL0     H78049   8.684   9.885   0.879 -2.2782 -0.1616 -0.2075
  566MOL0     H78050   8.699   9.715   0.915  1.4810 -0.8091  0.3069
  566MOL0     H78051   8.525   9.656   0.751  0.0260  0.4504 -1.1353
  566MOL0     H78052   8.464   9.795   0.838 -1.0465  2.2353 -1.9940
  566MOL0     H78053   8.585   9.788   0.557 -1.8140  1.7157 -2.7019
  566MOL0     H78054   8.534   9.936   0.628  3.6545 -0.7347  2.7863
  566MOL0     H78055   8.292   9.818   0.630 -0.8415 -1.2635 -0.6625
  566MOL0     H78056   8.349   9.867   0.481  0.2325 -2.2155 -2.9591
  566MOL0     H78057   8.559   9.607   0.425  0.3397  1.8808 -0.4380
  566MOL0     H78058   8.397   9.284   0.289 -2.0358  0.5138 -3.2071
  566MOL0     H78059   8.559   9.367   0.318  0.6149 -1.0797 -0.3254
  566MOL0     H78060   8.531   9.510   0.138  2.1820 -1.3785 -1.2372
  566MOL0     H78061   8.537   9.355   0.082 -1.0100 -0.1061 -0.8413
  566MOL0     H78062   8.309   9.318   0.051  0.4067 -0.2030 -0.5933
  566MOL0     H78063   8.265   9.477   0.120  0.2569  0.1088  0.1817
  566MOL0     H78064   8.238   9.495  -0.119  0.9104 -0.9780 -2.4588
  566MOL0     H78065   8.378   9.586  -0.067 -4.8359  1.7893  0.2249
  566MOL0     H78066   8.584   9.580  -0.121  3.9274  2.5220 -0.6437
  566MOL0     H78067   8.922   9.561  -0.238  0.0821  0.3439  0.8951
  566MOL0     H78068   8.814   9.645  -0.134  0.1370  0.9121  0.3173
  566MOL0     H78069   8.843   9.699  -0.312 -1.8022 -0.6561  0.0359
  566MOL0     H78070   9.134   9.219  -0.468 -2.8965 -0.1601  0.9756
  566MOL0     H78071   9.299   9.118  -0.659  0.0887 -0.5929  1.7416
  566MOL0     H78072   9.337   9.140  -1.077 -0.3252  1.2231 -3.8088
  566MOL0     H78073   9.203   9.253  -1.055  1.5095  1.8678  0.2049
  566MOL0     H78074   9.412   9.375  -1.094 -2.1875  3.3413  1.3107
  566MOL0     H78075   9.346   9.422  -0.947 -0.3966  0.5391 -1.7232
  566MOL0     H78076   9.597   9.379  -0.956 -0.2584  0.2450  0.8315
  566MOL0     H78077   9.568   9.204  -0.973 -0.0316  0.4690 -0.0002
  566MOL0     H78078   9.438   9.248  -0.739 -0.1972  1.2060  0.4247
  566MOL0     H78079   9.478   9.410  -0.757  1.6661  1.5389 -0.7639
  566MOL0     H78080   9.679   9.181  -0.748  0.0003  0.2061  1.2839
  566MOL0     H78081   9.745   9.339  -0.740 -0.3453  0.0134 -2.3579
  566MOL0     H78082   9.581   9.209  -0.526  1.9548 -1.1075 -0.2157
  566MOL0     H78083   9.587   9.386  -0.540 -1.8073 -0.9419  2.1174
  566MOL0     H78084   9.837   9.378  -0.527 -0.5653  0.8865  1.3596
  566MOL0     H78085   9.826   9.201  -0.507 -0.8822 -0.2211 -0.4122
  566MOL0     H78086   9.680   9.261  -0.293 -2.3224  0.8120 -2.5237
  566MOL0     H78087   9.712   9.434  -0.333  0.5560 -0.1343 -0.4691
  566MOL0     H78088   9.025   9.275  -0.940  1.2302  0.0478 -0.1251
  566MOL0     H78089   8.864   9.306  -0.781  0.4025 -3.0338 -2.2755
  566MOL0     H78090   8.662   9.264  -0.490 -2.2524  2.1586 -2.3011
  566MOL0     H78091   8.446   9.264  -0.376  0.1548  1.0889 -3.1132
  566MOL0     H78092   9.261   9.481   0.930 -1.6832  0.7027  1.9679
  566MOL0     H78093   9.438   9.460   1.101  5.1023 -0.2784 -2.9311
  566MOL0     H78094   9.807   9.669   1.329  2.2650  0.3917  1.0238
  566MOL0     H78095   9.921   9.622   1.534  2.0691  2.1227  1.8258
  566MOL0     H78096  10.006   9.592   1.723 -0.4808  1.0814 -0.8237
  566MOL0     H78097  10.018   9.770   1.723 -6.1328  2.8824 -0.8292
  566MOL0     H78098   9.969   9.581   1.964  1.1023 -0.5007 -1.0125
  566MOL0     H78099   9.998   9.752   1.982  1.5159  0.0751  0.6961
  566MOL0     H78100  10.202   9.583   1.843  2.1388 -0.7121  1.6274
  566MOL0     H78101  10.212   9.755   1.896 -2.1377  0.9351 -0.6366
  566MOL0     H78102  10.170   9.546   2.110  0.1162 -0.1460 -0.0175
  566MOL0     H78103  10.241   9.699   2.121  0.4820 -1.2803  1.2366
  566MOL0     H78104  10.564   9.446   2.051 -2.5833 -3.5669  3.5432
  566MOL0     H78105   9.612   9.810   1.759  1.3774  3.1670 -1.5319
  566MOL0     H78106   9.408   9.920   1.510  0.7639  0.4600 -0.5788
  566MOL0     H78107   9.371   9.750   1.495  2.0877 -2.7033 -0.3377
  566MOL0     H78108   9.389   9.826   1.663  1.2051  1.5847 -0.3858
  567MOL0     O78109   0.813   7.336  10.062  1.0892 -0.6790 -0.2130
  567MOL0     C78110   0.896   7.253  10.071  0.3093  0.5894  0.8896
  567MOL0     O78111   0.879   7.116  10.077 -0.4332 -0.3564 -0.5639
  567MOL0     C78112   0.753   7.058  10.059 -0.2012 -0.6913  0.1055
  567MOL0     C78113   0.730   6.972   9.952 -0.3046 -0.1026 -0.0240
  567MOL0     C78114   0.610   6.906   9.945 -0.0796  1.2063 -0.6724
  567MOL0     C78115   0.509   6.925  10.038  0.4401 -0.2231  0.2474
  567MOL0     O78116   0.388   6.857  10.016  0.9709  0.4204 -0.0654
  567MOL0     C78117   0.271   6.929   9.985  0.2929 -0.4246 -0.8478
  567MOL0     C78118   0.166   6.936  10.095  0.9624  1.2005 -0.5204
  567MOL0     C78119   0.062   7.052  10.082 -0.6593  0.2242 -0.0532
  567MOL0     C78120  -0.024   7.079  10.204  0.1580 -0.2098  0.3685
  567MOL0     C78121  -0.144   7.176  10.185  0.4433 -0.8455  0.0876
  567MOL0     C78122  -0.229   7.195  10.313 -0.6223 -0.4722  0.7061
  567MOL0     C78123  -0.337   7.297  10.296  0.6039 -0.1270  0.4506
  567MOL0     C78124  -0.442   7.287  10.404  1.5619 -0.1472  0.5441
  567MOL0     N78125  -0.575   7.329  10.363  0.5681 -0.6259  0.8845
  567MOL0     C78126  -0.669   7.245  10.300 -0.5266 -0.1172  0.2542
  567MOL0     C78127  -0.764   7.325  10.251 -0.7189 -0.6750 -0.0558
  567MOL0     C78128  -0.883   7.309  10.156  0.0336 -0.4001  0.1178
  567MOL0     C78129  -0.858   7.225  10.026 -0.7178  0.4412  0.4798
  567MOL0     C78130  -0.990   7.160   9.984  0.5106  0.1104  0.5154
  567MOL0     C78131  -1.000   7.113   9.841 -0.0662 -1.2851  0.3823
  567MOL0     O78132  -1.119   7.039   9.816 -0.3497 -0.6551 -0.2668
  567MOL0     C78133  -1.126   6.949   9.713 -0.2715  0.2452 -0.0157
  567MOL0     C78134  -1.239   6.963   9.634  0.1342 -0.0919 -0.7112
  567MOL0     C78135  -1.255   6.877   9.526  0.0948  0.3173 -0.8624
  567MOL0     C78136  -1.370   6.915   9.433  0.2634  0.3861 -0.9269
  567MOL0     C78137  -1.170   6.762   9.518 -0.7414  0.2164 -0.1492
  567MOL0     C78138  -1.187   6.657   9.414 -0.1079  0.1037 -0.4665
  567MOL0     O78139  -1.298   6.658   9.331 -0.9748 -0.2260 -0.0066
  567MOL0     C78140  -1.293   6.604   9.204 -0.2036 -0.9613  0.2636
  567MOL0     C78141  -1.276   6.690   9.100  0.5325  1.3621  0.0177
  567MOL0     C78142  -1.251   6.633   8.972  0.7992 -0.9207  0.1914
  567MOL0     C78143  -1.258   6.498   8.947 -0.2884  0.3345  0.1481
  567MOL0     O78144  -1.234   6.445   8.820  0.2578 -0.2445 -1.4715
  567MOL0     C78145  -1.317   6.343   8.766  0.3839  0.6725 -1.0297
  567MOL0     C78146  -1.233   6.231   8.710  0.2141 -0.7081  0.0482
  567MOL0     C78147  -1.158   6.134   8.805 -0.4257  0.0812  0.7964
  567MOL0     C78148  -1.073   6.025   8.727 -0.2926  0.0445  0.0908
  567MOL0     C78149  -1.020   5.929   8.832 -1.0508  0.0982 -0.0157
  567MOL0     C78150  -0.917   5.832   8.770  0.3045  1.3398  0.4648
  567MOL0     C78151  -0.890   5.722   8.871  0.3761 -0.4097  0.2534
  567MOL0     C78152  -0.757   5.649   8.844 -0.3566 -0.1592  0.3546
  567MOL0    Cl78153  -0.746   5.527   8.967  0.0189  0.7449  0.3743
  567MOL0     C78154  -1.288   6.415   9.056  0.0854  0.2723  0.0865
  567MOL0     C78155  -1.304   6.468   9.183  0.3809 -0.6749 -0.6037
  567MOL0     O78156  -1.092   6.572   9.401  0.9507 -0.7254 -0.8546
  567MOL0     C78157  -1.066   6.739   9.602  1.0016 -0.8195 -0.4389
  567MOL0     C78158  -1.034   6.839   9.699 -0.1668 -0.0503 -0.7456
  567MOL0     N78159  -0.722   7.458  10.281  0.0903 -0.8365 -0.1976
  567MOL0     N78160  -0.611   7.460  10.346  0.1365 -0.0982 -0.0819
  567MOL0     C78161   0.529   7.005  10.152 -0.8067  0.4041  0.1694
  567MOL0     C78162   0.653   7.069  10.161 -0.1633  1.0124  0.3479
  567MOL0     C78163   1.032   7.294  10.091  0.9094 -1.2125 -0.2404
  567MOL0     C78164   1.103   7.229  10.194 -0.4743 -0.8790  1.1884
  567MOL0     C78165   1.238   7.248  10.218 -0.4091 -0.4824  0.1472
  567MOL0     C78166   1.304   7.358  10.152  0.5617  0.6682 -0.1882
  567MOL0     O78167   1.430   7.399  10.161 -0.2444 -0.2280  0.3605
  567MOL0     C78168   1.539   7.329  10.222 -0.1733  0.6463  0.2263
  567MOL0     C78169   1.678   7.362  10.155 -0.1809  0.4956  0.0472
  567MOL0     C78170   1.675   7.305  10.012 -0.4572 -0.3482 -0.4146
  567MOL0     C78171   1.802   7.219   9.985  0.2618  0.8203  0.2137
  567MOL0     C78172   1.793   7.178   9.842 -0.1371  0.5845  0.4318
  567MOL0     C78173   1.797   7.143   9.727 -0.7446  0.3711  0.7845
  567MOL0     C78174   1.238   7.433  10.058  0.1151 -0.1849 -0.4304
  567MOL0     C78175   1.103   7.395  10.018  0.6130 -0.1712  0.8494
  567MOL0     C78176   1.033   7.473   9.914 -0.1149 -0.3313 -0.3458
  567MOL0     H78177   0.806   6.955   9.876 -1.2520 -1.2799 -0.7286
  567MOL0     H78178   0.573   6.835   9.872  0.6519 -0.1944  0.2636
  567MOL0     H78179   0.238   6.886   9.891  2.2940 -0.0948 -1.7590
  567MOL0     H78180   0.296   7.032   9.958  1.2203 -0.3806  0.0911
  567MOL0     H78181   0.122   6.835  10.097  0.0065  1.5896 -1.2098
  567MOL0     H78182   0.222   6.943  10.189 -1.0827 -0.7066  0.9727
  567MOL0     H78183   0.113   7.147  10.069 -0.9847  0.5781  1.1393
  567MOL0     H78184  -0.002   7.024   9.998 -2.2785 -1.5879  1.6630
  567MOL0     H78185  -0.063   6.991  10.256 -1.0184  0.2884  0.3480
  567MOL0     H78186   0.036   7.138  10.274 -1.7288  3.1201 -0.6132
  567MOL0     H78187  -0.211   7.151  10.102 -1.3736 -0.0562  1.2648
  567MOL0     H78188  -0.108   7.277  10.164 -1.5348  0.1078  1.0974
  567MOL0     H78189  -0.264   7.093  10.336  1.1557 -1.6106 -1.2494
  567MOL0     H78190  -0.157   7.234  10.386  1.5339  2.1397 -2.5272
  567MOL0     H78191  -0.387   7.267  10.204 -3.6197  0.3588  2.3297
  567MOL0     H78192  -0.303   7.401  10.296  2.0144 -0.5564 -0.7039
  567MOL0     H78193  -0.466   7.183  10.430 -1.1242  0.2771  0.0032
  567MOL0     H78194  -0.403   7.340  10.492  3.3075 -1.1663  0.4284
  567MOL0     H78195  -0.668   7.137  10.288 -1.2932  0.0224 -1.2205
  567MOL0     H78196  -0.927   7.405  10.127  0.2169 -0.8812 -1.9300
  567MOL0     H78197  -0.959   7.263  10.220  2.7576 -1.3852  2.8900
  567MOL0     H78198  -0.816   7.284   9.944  0.7717 -2.7053 -1.2075
  567MOL0     H78199  -0.794   7.145  10.063 -1.7497  0.5472  2.6218
  567MOL0     H78200  -0.998   7.074  10.051 -1.2033  0.4046  0.7222
  567MOL0     H78201  -1.069   7.235   9.994 -0.5490 -0.7665 -0.8850
  567MOL0     H78202  -1.002   7.201   9.776 -1.1084 -1.7755 -0.2975
  567MOL0     H78203  -0.916   7.047   9.816 -0.1692 -2.3342  2.5842
  567MOL0     H78204  -1.300   7.051   9.645  2.9909  2.1322 -1.4402
  567MOL0     H78205  -1.332   6.922   9.331 -0.6606 -3.9798 -1.7505
  567MOL0     H78206  -1.418   7.006   9.471  1.4015  1.4732 -1.9957
  567MOL0     H78207  -1.444   6.835   9.423  0.3408  0.2762 -0.6402
  567MOL0     H78208  -1.293   6.796   9.115 -1.6636  1.0166  0.3137
  567MOL0     H78209  -1.246   6.701   8.888 -2.3642 -1.0320 -0.2179
  567MOL0     H78210  -1.383   6.310   8.847  1.6611 -0.0352 -0.2322
  567MOL0     H78211  -1.384   6.381   8.689 -2.2798 -3.3518 -1.0156
  567MOL0     H78212  -1.293   6.163   8.649  2.9936 -0.1632 -3.7043
  567MOL0     H78213  -1.170   6.274   8.631  1.6223 -5.0089 -1.4561
  567MOL0     H78214  -1.237   6.077   8.854 -0.5875  3.0332  4.4111
  567MOL0     H78215  -1.088   6.190   8.868  2.1115 -1.9332 -0.0766
  567MOL0     H78216  -0.999   6.063   8.657 -0.7817  0.3194 -0.2840
  567MOL0     H78217  -1.136   5.967   8.658 -1.1565  0.2143  0.7151
  567MOL0     H78218  -0.968   5.975   8.917  0.8065 -0.4786 -0.7908
  567MOL0     H78219  -1.100   5.876   8.885 -0.7058 -0.7362 -0.3166
  567MOL0     H78220  -0.830   5.880   8.726  1.8044  1.0111  2.8646
  567MOL0     H78221  -0.978   5.797   8.686  0.3966  0.4635  0.7445
  567MOL0     H78222  -0.967   5.645   8.869  0.5903 -0.6463  0.8280
  567MOL0     H78223  -0.873   5.772   8.967 -0.0751  0.7597 -0.2578
  567MOL0     H78224  -0.668   5.712   8.849 -0.7539  0.3296  2.0351
  567MOL0     H78225  -0.759   5.591   8.751  2.7564 -1.2129  0.8336
  567MOL0     H78226  -1.304   6.308   9.044 -2.4998  0.7410 -1.3546
  567MOL0     H78227  -1.325   6.397   9.263 -0.3516 -0.0649 -0.2509
  567MOL0     H78228  -1.003   6.651   9.594  1.7189 -0.1978 -1.9724
  567MOL0     H78229  -0.957   6.837   9.775 -2.8170 -2.2609  2.1470
  567MOL0     H78230   0.449   7.017  10.225  0.2536  2.8689  1.0293
  567MOL0     H78231   0.683   7.113  10.255  1.2312 -0.9248  0.8821
  567MOL0     H78232   1.048   7.154  10.251  1.3056 -4.1940 -1.1239
  567MOL0     H78233   1.292   7.180  10.283 -2.2247 -1.0794  1.1121
  567MOL0     H78234   1.525   7.351  10.328 -0.4560 -1.6933  0.7068
  567MOL0     H78235   1.529   7.222  10.203 -1.8046  0.1201  3.4479
  567MOL0     H78236   1.765   7.332  10.213 -0.4603  0.6918  0.5808
  567MOL0     H78237   1.690   7.470  10.147 -1.4562  0.6927  0.5045
  567MOL0     H78238   1.583   7.258   9.977  0.5374 -2.0079 -0.8985
  567MOL0     H78239   1.691   7.394   9.951  2.0487  1.5141  2.6246
  567MOL0     H78240   1.804   7.131  10.050  2.5573  1.7307  1.4857
  567MOL0     H78241   1.897   7.269  10.007 -0.4583  2.1574  0.4344
  567MOL0     H78242   1.774   7.131   9.623  0.5254  1.4650  0.3445
  567MOL0     H78243   1.285   7.515  10.004 -3.2965  1.6270 -0.9818
  567MOL0     H78244   1.110   7.514   9.848 -0.0234 -0.7958 -0.5271
  567MOL0     H78245   0.971   7.403   9.857  0.9817  0.1415 -2.2099
  567MOL0     H78246   0.969   7.550   9.958  0.5350 -0.6487  1.2052
  568MOL0     O78247  10.354   5.557   6.850 -1.0245  0.6752 -1.0102
  568MOL0     C78248  10.375   5.448   6.900  0.0097  0.1587  0.5563
  568MOL0     O78249  10.471   5.426   6.992  1.0829 -0.3541 -0.8105
  568MOL0     C78250  10.587   5.502   7.004 -0.0623 -0.0407 -0.1082
  568MOL0     C78251  10.700   5.422   6.981  0.4707  0.3102  0.4334
  568MOL0     C78252  10.827   5.473   6.984 -0.1556 -0.8172  0.1182
  568MOL0     C78253  10.835   5.603   7.025 -0.0597  0.5039 -0.1508
  568MOL0     O78254  10.965   5.651   7.038  0.1436 -0.4236 -0.3684
  568MOL0     C78255  11.053   5.606   7.147 -0.8172 -0.4613 -0.5117
  568MOL0     C78256  11.170   5.697   7.164  0.1293  0.3558 -0.0169
  568MOL0     C78257  11.271   5.675   7.050  0.2461  1.1634 -0.4997
  568MOL0     C78258  11.361   5.793   7.041  0.4740  0.4076 -0.1276
  568MOL0     C78259  11.475   5.775   6.950 -1.5649 -0.0125  0.6029
  568MOL0     C78260  11.549   5.914   6.946  0.1322 -0.2884  0.1967
  568MOL0     C78261  11.654   5.914   6.833  0.0422  0.4016  0.5633
  568MOL0     C78262  11.721   6.057   6.831 -0.1870  0.2095 -0.1685
  568MOL0     N78263  11.820   6.087   6.927 -1.0981 -0.1082  0.1125
  568MOL0     C78264  11.794   6.148   7.045 -0.3560 -0.0628  0.0039
  568MOL0     C78265  11.908   6.127   7.121  0.0018 -0.0622  0.1323
  568MOL0     C78266  11.922   6.172   7.270 -0.2409  0.7874 -0.2228
  568MOL0     C78267  12.035   6.090   7.333 -0.3957 -0.2865 -0.1623
  568MOL0     C78268  12.175   6.164   7.344  1.2465  0.6066  0.5484
  568MOL0     C78269  12.193   6.241   7.475  0.6130 -0.0060  0.1079
  568MOL0     O78270  12.157   6.151   7.587 -0.1748  0.3958 -0.1947
  568MOL0     C78271  12.244   6.054   7.621  0.9865  0.6571  0.1814
  568MOL0     C78272  12.188   5.930   7.670 -0.1154  0.0617 -0.5889
  568MOL0     C78273  12.270   5.834   7.726 -0.7395 -0.0852  0.7031
  568MOL0     C78274  12.183   5.713   7.769 -0.7278 -0.6249  0.3361
  568MOL0     C78275  12.409   5.836   7.715 -0.8168  1.0140  1.0939
  568MOL0     C78276  12.493   5.719   7.740 -0.4623  0.0967  0.7798
  568MOL0     O78277  12.631   5.745   7.731 -0.5768 -0.4728 -0.5022
  568MOL0     C78278  12.719   5.649   7.773  0.3439 -0.8422  0.3873
  568MOL0     C78279  12.769   5.560   7.687  0.2613 -0.6575 -0.1580
  568MOL0     C78280  12.870   5.473   7.735 -0.2621 -0.4876 -0.3849
  568MOL0     C78281  12.911   5.458   7.870  0.0805 -0.5681  0.3573
  568MOL0     O78282  13.014   5.370   7.913  0.0164 -0.2343 -0.5160
  568MOL0     C78283  13.102   5.313   7.810  1.1671 -1.0542 -0.4241
  568MOL0     C78284  13.230   5.264   7.881  0.2107  0.5622  1.0012
  568MOL0     C78285  13.295   5.376   7.964  0.3420  0.3058 -0.7090
  568MOL0     C78286  13.295   5.360   8.114 -0.0366  0.0283 -0.2618
  568MOL0     C78287  13.393   5.456   8.169  0.6144 -0.2126  1.5286
  568MOL0     C78288  13.409   5.433   8.311  0.1273 -0.1802  0.2250
  568MOL0     C78289  13.533   5.512   8.358  0.5781  0.1492  1.2510
  568MOL0     C78290  13.531   5.509   8.506 -0.2194 -0.0989  0.2485
  568MOL0    Cl78291  13.577   5.351   8.571  0.3621  0.4786 -0.1160
  568MOL0     C78292  12.838   5.539   7.960 -0.4856  0.2787  0.4193
  568MOL0     C78293  12.751   5.639   7.911  0.1759  0.2157 -0.1391
  568MOL0     O78294  12.442   5.608   7.754 -0.1034 -0.2220 -0.5205
  568MOL0     C78295  12.469   5.954   7.665 -0.3518  0.1888  0.8198
  568MOL0     C78296  12.388   6.060   7.628  0.1739 -0.1147  0.3364
  568MOL0     N78297  12.005   6.074   7.037 -0.7317 -1.7131  0.2869
  568MOL0     N78298  11.949   6.048   6.927 -0.1791 -0.0736  0.0573
  568MOL0     C78299  10.729   5.689   7.051  0.9502 -0.1978  0.6477
  568MOL0     C78300  10.597   5.639   7.034 -0.2904  0.1126 -0.3956
  568MOL0     C78301  10.288   5.331   6.859  0.0769  0.3458  0.5832
  568MOL0     C78302  10.344   5.198   6.859  0.5729 -0.3762 -0.4143
  568MOL0     C78303  10.270   5.083   6.841  0.2866  0.3982 -0.2715
  568MOL0     C78304  10.146   5.098   6.787 -0.5076 -0.8095 -0.4779
  568MOL0     O78305  10.082   4.991   6.731 -0.0344  0.0263 -1.1829
  568MOL0     C78306  10.146   4.865   6.710  0.6462 -0.3760 -0.8603
  568MOL0     C78307  10.224   4.869   6.579  0.3836  0.1183  0.2252
  568MOL0     C78308  10.283   4.730   6.550 -1.0554 -0.0404 -0.2096
  568MOL0     C78309  10.427   4.748   6.481  0.4793 -0.5895  0.6898
  568MOL0     C78310  10.425   4.820   6.353 -0.4950  0.4395 -0.1775
  568MOL0     C78311  10.422   4.869   6.248  0.1526  0.2969  0.5361
  568MOL0     C78312  10.088   5.225   6.786  0.5993  0.7929  0.1584
  568MOL0     C78313  10.156   5.341   6.817  0.1376  0.0434 -0.6613
  568MOL0     C78314  10.081   5.471   6.794 -0.8412  0.1971 -1.3847
  568MOL0     H78315  10.688   5.316   6.958 -1.6613  0.0916  2.2175
  568MOL0     H78316  10.908   5.402   6.968  1.6083  0.6620  1.8898
  568MOL0     H78317  11.088   5.504   7.128  0.6194 -0.7108  2.8365
  568MOL0     H78318  10.986   5.609   7.233 -0.7691 -3.9365 -0.1985
  568MOL0     H78319  11.138   5.799   7.187  0.8481  0.1208  2.3383
  568MOL0     H78320  11.221   5.662   7.254  1.5552 -1.3759 -1.4226
  568MOL0     H78321  11.331   5.585   7.064  0.6177  1.2653 -1.3583
  568MOL0     H78322  11.224   5.660   6.952  3.9434 -0.4890 -2.2225
  568MOL0     H78323  11.304   5.885   7.025 -1.4097 -0.6978  0.0089
  568MOL0     H78324  11.400   5.795   7.144  0.8172  0.0999 -0.2491
  568MOL0     H78325  11.442   5.758   6.847  1.3385  2.9137 -1.0361
  568MOL0     H78326  11.536   5.687   6.973  1.2805  2.0456  1.4723
  568MOL0     H78327  11.478   5.994   6.925  0.2598 -0.0203  0.7451
  568MOL0     H78328  11.592   5.937   7.044 -1.7043  0.2193  0.9226
  568MOL0     H78329  11.596   5.906   6.741 -1.0266  2.7951  0.9568
  568MOL0     H78330  11.730   5.836   6.841  0.0807  0.0535 -2.1870
  568MOL0     H78331  11.754   6.072   6.728 -4.4101  1.9228 -1.5055
  568MOL0     H78332  11.641   6.130   6.848 -0.7066 -0.3308 -0.2093
  568MOL0     H78333  11.705   6.191   7.088  0.6502  1.4014  0.7026
  568MOL0     H78334  11.832   6.145   7.327 -1.0795  0.1262 -1.7830
  568MOL0     H78335  11.940   6.280   7.279 -4.4408  1.6171  0.2958
  568MOL0     H78336  12.002   6.054   7.431 -0.2740 -0.2715 -0.1161
  568MOL0     H78337  12.061   6.007   7.267  2.5916  1.5427 -1.5247
  568MOL0     H78338  12.251   6.087   7.331 -1.2054 -1.4815 -4.0867
  568MOL0     H78339  12.186   6.217   7.249 -1.8748  0.3123 -0.1039
  568MOL0     H78340  12.296   6.277   7.487  0.8505 -0.2732 -0.9559
  568MOL0     H78341  12.139   6.335   7.470  2.0073  0.7703 -1.4732
  568MOL0     H78342  12.079   5.930   7.669 -0.1642  1.2478  0.7450
  568MOL0     H78343  12.089   5.746   7.814 -1.9264 -2.9198 -0.3077
  568MOL0     H78344  12.232   5.663   7.853  1.1166 -0.3142 -0.5272
  568MOL0     H78345  12.168   5.637   7.691 -0.3950  1.4327 -1.8330
  568MOL0     H78346  12.730   5.574   7.586 -3.6714  0.3064  1.3340
  568MOL0     H78347  12.917   5.417   7.655 -1.9649 -1.8188 -0.5140
  568MOL0     H78348  13.046   5.231   7.764 -1.4204  0.3692 -0.0520
  568MOL0     H78349  13.121   5.388   7.733 -3.6537 -0.7437 -1.6870
  568MOL0     H78350  13.200   5.180   7.943 -2.9150  1.2499  0.6018
  568MOL0     H78351  13.294   5.216   7.807 -1.2130 -1.0243  0.7294
  568MOL0     H78352  13.248   5.470   7.936  1.9926  1.4551  0.2143
  568MOL0     H78353  13.401   5.378   7.936  1.2857 -3.1556  1.8533
  568MOL0     H78354  13.346   5.264   8.129 -1.8206 -1.5123 -3.0869
  568MOL0     H78355  13.197   5.367   8.162  0.7241  1.2308  1.1879
  568MOL0     H78356  13.484   5.444   8.109 -0.4051  0.7505 -0.3073
  568MOL0     H78357  13.350   5.552   8.140 -0.0686 -1.7784 -3.7180
  568MOL0     H78358  13.420   5.328   8.336  2.0914  0.4142  2.1011
  568MOL0     H78359  13.325   5.476   8.367  0.0085 -1.4185  1.0199
  568MOL0     H78360  13.524   5.616   8.325  1.3284  1.2519  4.2052
  568MOL0     H78361  13.621   5.473   8.307 -1.4165  0.1446 -2.5957
  568MOL0     H78362  13.432   5.544   8.538  0.3283  3.7867 -1.7131
  568MOL0     H78363  13.593   5.589   8.548  0.4214 -0.7966  0.6777
  568MOL0     H78364  12.861   5.508   8.061  1.6302 -5.1118 -1.3608
  568MOL0     H78365  12.704   5.713   7.975 -0.3979  0.1222 -0.4457
  568MOL0     H78366  12.575   5.969   7.651 -0.0783 -0.6727  1.8486
  568MOL0     H78367  12.444   6.151   7.608  1.7421 -0.9744  0.6717
  568MOL0     H78368  10.734   5.797   7.058 -3.2000  0.1087  1.6083
  568MOL0     H78369  10.499   5.686   7.039 -1.7947 -2.7560 -0.6799
  568MOL0     H78370  10.451   5.187   6.872  0.1724 -3.5100  1.3162
  568MOL0     H78371  10.318   4.987   6.858  3.7872  2.0546  0.3048
  568MOL0     H78372  10.201   4.832   6.799 -2.8901  1.9961  2.5427
  568MOL0     H78373  10.063   4.794   6.716  1.4180 -1.1667  2.7558
  568MOL0     H78374  10.305   4.943   6.579 -0.0389  0.7445 -3.0880
  568MOL0     H78375  10.164   4.910   6.497  0.7877  0.5783  0.1541
  568MOL0     H78376  10.289   4.668   6.641 -1.4695 -3.0920 -2.0950
  568MOL0     H78377  10.218   4.675   6.482 -2.6221  0.2648  0.9736
  568MOL0     H78378  10.469   4.650   6.455  1.3010  0.2199 -1.1941
  568MOL0     H78379  10.494   4.805   6.546 -2.1225  0.4626  2.6577
  568MOL0     H78380  10.433   4.927   6.159  3.5346 -3.1928 -1.6897
  568MOL0     H78381   9.982   5.227   6.764  0.2145  2.4740  1.8825
  568MOL0     H78382  10.121   5.526   6.708  3.4608  2.2907  1.5445
  568MOL0     H78383   9.975   5.451   6.777 -0.7982 -0.1030 -1.3099
  568MOL0     H78384  10.096   5.539   6.878 -2.2700  1.5810 -2.2095
  569MOL0     O78385   5.761   0.035   6.964 -0.0977 -0.7202 -0.3100
  569MOL0     C78386   5.824  -0.009   7.055  0.6486  0.3108  0.7598
  569MOL0     O78387   5.949   0.014   7.093  0.2441 -0.5809 -0.1604
  569MOL0     C78388   6.026   0.120   7.048 -0.0152  0.6057  0.5219
  569MOL0     C78389   5.971   0.248   7.015 -0.4693  0.8192 -0.1951
  569MOL0     C78390   6.059   0.359   6.991 -0.5912  0.2334  0.5802
  569MOL0     C78391   6.195   0.345   6.983 -0.1303 -0.5271  0.5008
  569MOL0     O78392   6.289   0.446   6.948  0.0855 -0.0110  0.7905
  569MOL0     C78393   6.240   0.571   6.892  0.0039  0.1704  0.1871
  569MOL0     C78394   6.206   0.683   6.993  0.1392 -0.1790  0.6244
  569MOL0     C78395   6.327   0.726   7.076  0.0575  0.4241  0.2898
  569MOL0     C78396   6.276   0.831   7.185 -0.4866  0.1424 -0.0300
  569MOL0     C78397   6.373   0.840   7.303 -0.3919 -0.2189 -0.2172
  569MOL0     C78398   6.469   0.955   7.293  0.0401  0.2807  0.0155
  569MOL0     C78399   6.390   1.089   7.331 -0.0868  0.3236  0.1141
  569MOL0     C78400   6.482   1.194   7.388 -0.2796 -0.1108  0.8372
  569MOL0     N78401   6.402   1.320   7.398 -0.6887 -0.0530  0.6734
  569MOL0     C78402   6.315   1.346   7.502  0.0869 -0.1671  0.6955
  569MOL0     C78403   6.248   1.465   7.473  0.6957  0.4416 -0.8428
  569MOL0     C78404   6.129   1.520   7.554  0.4397 -0.3881  0.2964
  569MOL0     C78405   6.176   1.624   7.659 -0.2336  0.3218  0.4521
  569MOL0     C78406   6.065   1.702   7.731  0.5604  0.5759 -0.1227
  569MOL0     C78407   6.108   1.812   7.812  0.6960 -0.3177 -0.6216
  569MOL0     O78408   6.186   1.912   7.746 -0.6637 -0.2931 -0.1069
  569MOL0     C78409   6.220   2.028   7.809  0.7911 -0.8266 -0.1029
  569MOL0     C78410   6.205   2.058   7.950 -0.1718 -0.5146 -1.0377
  569MOL0     C78411   6.232   2.186   8.000  0.8208  0.0528 -0.1972
  569MOL0     C78412   6.222   2.206   8.151  0.6768  1.7354  0.8121
  569MOL0     C78413   6.282   2.288   7.912  0.6612 -0.2783 -0.0707
  569MOL0     C78414   6.322   2.423   7.951  0.5704  0.6335 -0.4474
  569MOL0     O78415   6.325   2.518   7.853  0.4687 -0.8346  0.6105
  569MOL0     C78416   6.314   2.644   7.905 -0.2387  0.0217  0.3222
  569MOL0     C78417   6.429   2.717   7.923  0.8186 -0.3679 -0.5793
  569MOL0     C78418   6.415   2.850   7.966  0.4841 -0.1625 -0.3609
  569MOL0     C78419   6.287   2.915   7.993 -0.6482 -0.1061  0.4192
  569MOL0     O78420   6.265   3.042   8.037 -0.3287 -0.5434  0.3186
  569MOL0     C78421   6.367   3.123   8.090 -0.3507 -0.8488 -1.2086
  569MOL0     C78422   6.370   3.267   8.027 -0.0189 -0.4447  0.0915
  569MOL0     C78423   6.423   3.272   7.879  0.1849 -0.5593 -0.0995
  569MOL0     C78424   6.581   3.286   7.882 -0.3283  0.4847 -0.8668
  569MOL0     C78425   6.641   3.269   7.738  0.1673  0.2600 -0.6839
  569MOL0     C78426   6.613   3.396   7.653  0.2792  0.3098  0.3706
  569MOL0     C78427   6.662   3.379   7.509  0.2500  0.0045  0.0126
  569MOL0     C78428   6.686   3.515   7.431 -0.2892 -0.2960 -0.7273
  569MOL0    Cl78429   6.668   3.496   7.254 -0.3525 -0.2509 -0.0862
  569MOL0     C78430   6.168   2.834   7.981 -0.0903  0.8026  0.3114
  569MOL0     C78431   6.189   2.700   7.932  0.0584 -0.4961 -2.2973
  569MOL0     O78432   6.366   2.442   8.071  0.5942 -0.9105  0.1692
  569MOL0     C78433   6.276   2.260   7.774 -0.2146  0.2290  0.9261
  569MOL0     C78434   6.251   2.134   7.729 -0.2321  0.7056  0.1612
  569MOL0     N78435   6.294   1.505   7.350 -0.3217  0.1675  0.2653
  569MOL0     N78436   6.383   1.421   7.307  0.1678 -0.0705 -0.4359
  569MOL0     C78437   6.246   0.219   7.004  0.1530 -0.5647 -0.3164
  569MOL0     C78438   6.166   0.109   7.043  0.0766 -0.1532 -0.3185
  569MOL0     C78439   5.765  -0.125   7.115  0.5301  1.1059  0.1917
  569MOL0     C78440   5.768  -0.136   7.252  0.2938  0.0954 -0.0954
  569MOL0     C78441   5.723  -0.242   7.322  0.3982 -0.5923  0.8559
  569MOL0     C78442   5.672  -0.354   7.249  0.1787  0.2229 -0.6238
  569MOL0     O78443   5.624  -0.465   7.308  0.5683 -0.0216  0.4739
  569MOL0     C78444   5.656  -0.495   7.445 -1.3163  0.2247 -1.2632
  569MOL0     C78445   5.653  -0.650   7.466  0.5067  0.4393 -0.1751
  569MOL0     C78446   5.760  -0.716   7.375 -0.1167 -0.1302 -0.9334
  569MOL0     C78447   5.785  -0.862   7.406 -0.6181  0.7148 -0.1067
  569MOL0     C78448   5.779  -0.947   7.290  0.3107 -0.5038  1.2080
  569MOL0     C78449   5.752  -1.018   7.198 -0.3758 -0.4535  0.5850
  569MOL0     C78450   5.655  -0.348   7.115  0.5700 -0.1689  1.0274
  569MOL0     C78451   5.703  -0.233   7.050  0.2303 -0.1011  0.4940
  569MOL0     C78452   5.709  -0.250   6.895 -0.9031 -0.3303 -0.2336
  569MOL0     H78453   5.868   0.282   7.026  0.3816  3.9913 -1.1604
  569MOL0     H78454   5.998   0.447   6.975  0.5080  1.1754  1.3756
  569MOL0     H78455   6.144   0.546   6.846  0.6452 -0.6151 -0.7829
  569MOL0     H78456   6.307   0.610   6.816 -0.5188  0.0328 -0.3513
  569MOL0     H78457   6.156   0.762   6.936  0.9200 -1.1403 -1.5113
  569MOL0     H78458   6.119   0.658   7.053 -1.3798  4.3533  0.6442
  569MOL0     H78459   6.370   0.635   7.120 -0.9381 -0.4320 -0.4299
  569MOL0     H78460   6.398   0.777   7.010 -1.5774  1.6645 -0.5731
  569MOL0     H78461   6.255   0.928   7.140 -1.6825  0.2864  0.7952
  569MOL0     H78462   6.180   0.798   7.225  0.2320 -2.2562 -0.1142
  569MOL0     H78463   6.429   0.746   7.301  3.2610  1.7873 -1.6854
  569MOL0     H78464   6.318   0.842   7.398 -0.4788 -2.1213 -0.1899
  569MOL0     H78465   6.559   0.938   7.352  1.7161 -1.1395 -2.7558
  569MOL0     H78466   6.504   0.945   7.190 -0.9322  0.7439 -0.3730
  569MOL0     H78467   6.321   1.068   7.413  0.6502 -0.1339  0.6345
  569MOL0     H78468   6.344   1.128   7.240 -1.7962  0.5861  1.0523
  569MOL0     H78469   6.509   1.160   7.489 -1.2108  3.5843  2.5213
  569MOL0     H78470   6.572   1.207   7.327 -0.9733 -1.0333 -0.4251
  569MOL0     H78471   6.297   1.292   7.594 -0.0589 -4.9358 -1.8054
  569MOL0     H78472   6.089   1.439   7.615 -0.2006 -0.8409 -0.6987
  569MOL0     H78473   6.052   1.567   7.491 -0.2148 -2.2103 -0.3158
  569MOL0     H78474   6.235   1.572   7.735  0.6158 -0.6838 -0.8589
  569MOL0     H78475   6.236   1.702   7.611 -0.6025  1.0154  1.0849
  569MOL0     H78476   6.010   1.741   7.646 -0.2710 -1.0231 -0.3721
  569MOL0     H78477   6.009   1.629   7.790  1.2546  1.3271  1.5559
  569MOL0     H78478   6.016   1.861   7.847  0.5542  0.9076 -2.5190
  569MOL0     H78479   6.166   1.765   7.891  0.2490 -1.7421 -1.1024
  569MOL0     H78480   6.168   1.976   8.011 -1.2528  1.3465  0.9473
  569MOL0     H78481   6.215   2.106   8.194  1.1311  1.7701  0.9740
  569MOL0     H78482   6.145   2.276   8.183 -3.9436 -1.5605 -1.8664
  569MOL0     H78483   6.312   2.239   8.204  0.3615  0.1310  2.4536
  569MOL0     H78484   6.528   2.674   7.915  1.1651 -0.5846  3.2868
  569MOL0     H78485   6.503   2.914   7.971  1.1468 -1.1246  3.6746
  569MOL0     H78486   6.350   3.118   8.198  0.3076 -1.0898 -1.1077
  569MOL0     H78487   6.467   3.080   8.079  1.0562  2.3158 -1.7392
  569MOL0     H78488   6.270   3.310   8.031  0.6607  1.3277 -0.7977
  569MOL0     H78489   6.438   3.329   8.086 -2.2950  1.6762  0.6579
  569MOL0     H78490   6.377   3.355   7.825 -0.3645 -1.4737 -1.0859
  569MOL0     H78491   6.399   3.176   7.832 -3.9939  1.3766 -2.4706
  569MOL0     H78492   6.629   3.214   7.950  0.8239  3.6677  1.9290
  569MOL0     H78493   6.612   3.384   7.918  1.3571 -0.1347 -0.5080
  569MOL0     H78494   6.747   3.243   7.745 -0.3988 -1.8355  1.3877
  569MOL0     H78495   6.606   3.181   7.684 -2.2621  2.2377 -2.5378
  569MOL0     H78496   6.659   3.478   7.709 -0.7830 -1.2884  3.8563
  569MOL0     H78497   6.504   3.408   7.652  0.1194 -0.9937  0.3428
  569MOL0     H78498   6.582   3.325   7.458 -0.8588  2.3474 -0.8371
  569MOL0     H78499   6.755   3.321   7.509  1.8283  2.0801  4.5498
  569MOL0     H78500   6.783   3.558   7.456  1.4355 -3.0826 -2.1363
  569MOL0     H78501   6.599   3.578   7.453 -0.8235 -1.5925  1.0956
  569MOL0     H78502   6.068   2.877   7.987  0.9065  3.4545 -0.7166
  569MOL0     H78503   6.102   2.641   7.905 -0.3348 -0.7484 -0.5946
  569MOL0     H78504   6.299   2.333   7.698  1.2824 -1.9790 -0.8695
  569MOL0     H78505   6.234   2.125   7.622 -2.2978  2.1086  0.2980
  569MOL0     H78506   6.353   0.216   6.987 -0.0852 -0.2214 -2.0758
  569MOL0     H78507   6.222   0.020   7.069 -1.3458 -1.3893 -1.3023
  569MOL0     H78508   5.790  -0.052   7.317 -1.8200 -0.8041  1.8926
  569MOL0     H78509   5.727  -0.248   7.431  1.2313 -1.4082  0.7994
  569MOL0     H78510   5.756  -0.467   7.480 -1.1484 -1.7125 -0.0377
  569MOL0     H78511   5.584  -0.442   7.510 -1.7197  0.2747 -1.7484
  569MOL0     H78512   5.551  -0.682   7.444 -0.1716  2.2203  0.1990
  569MOL0     H78513   5.661  -0.678   7.572 -2.2482 -0.2852 -0.0958
  569MOL0     H78514   5.720  -0.708   7.274 -2.4617  0.5043 -0.0145
  569MOL0     H78515   5.855  -0.661   7.374 -0.0428 -0.1727 -3.6446
  569MOL0     H78516   5.725  -0.895   7.492  1.6078  3.2040  2.6119
  569MOL0     H78517   5.888  -0.861   7.443  0.0065 -0.8793 -1.6534
  569MOL0     H78518   5.723  -1.081   7.117 -2.8913 -0.8285  1.6851
  569MOL0     H78519   5.628  -0.435   7.056  1.6972  1.8482 -2.7705
  569MOL0     H78520   5.790  -0.189   6.855  1.0932 -2.5607  0.1625
  569MOL0     H78521   5.728  -0.346   6.846  2.5485 -0.6987  1.5547
  569MOL0     H78522   5.612  -0.220   6.854 -0.2026  1.8040 -0.4504
  570MOL0     O78523   8.666   9.163   1.064  1.0192  0.5858 -0.3988
  570MOL0     C78524   8.789   9.181   1.059  0.5166 -0.5262 -0.6647
  570MOL0     O78525   8.862   9.258   1.150  0.3242 -0.0009  0.4174
  570MOL0     C78526   8.788   9.328   1.250 -0.0048  0.5331  0.3029
  570MOL0     C78527   8.810   9.459   1.262  0.3713  0.1988  0.1812
  570MOL0     C78528   8.753   9.543   1.358 -0.0669  0.3985  0.3292
  570MOL0     C78529   8.672   9.483   1.455  0.0051  0.5367 -0.1631
  570MOL0     O78530   8.611   9.553   1.550  0.1013  0.6566  0.1029
  570MOL0     C78531   8.654   9.689   1.567 -0.7150  0.6593  0.5154
  570MOL0     C78532   8.592   9.732   1.698 -0.2928  0.0720 -0.1659
  570MOL0     C78533   8.639   9.643   1.810  1.3541  0.1251  0.0319
  570MOL0     C78534   8.606   9.710   1.946  0.3020 -0.2180  0.2721
  570MOL0     C78535   8.683   9.649   2.065 -0.3229  0.0165 -0.0973
  570MOL0     C78536   8.609   9.655   2.202  0.2704 -0.5136  0.1484
  570MOL0     C78537   8.677   9.586   2.311  0.1189  0.0373  0.3278
  570MOL0     C78538   8.693   9.439   2.279  0.0074 -0.2439 -0.0395
  570MOL0     N78539   8.781   9.374   2.381  0.9281 -0.7075 -0.8937
  570MOL0     C78540   8.781   9.405   2.517  0.1807  0.5573  0.0552
  570MOL0     C78541   8.882   9.325   2.567 -0.6765  0.0889  0.7877
  570MOL0     C78542   8.939   9.305   2.699  0.0530  0.5302 -0.2559
  570MOL0     C78543   8.879   9.409   2.799  1.2272  0.3061 -0.8456
  570MOL0     C78544   8.939   9.400   2.942 -0.1764 -0.8230  0.5874
  570MOL0     C78545   9.061   9.497   2.971  0.1730  0.7488  0.2124
  570MOL0     O78546   9.174   9.452   2.887 -0.6138 -0.2009  1.1294
  570MOL0     C78547   9.267   9.367   2.939 -0.7642  0.0459  0.2137
  570MOL0     C78548   9.352   9.395   3.039  0.2170  0.5703 -0.5674
  570MOL0     C78549   9.457   9.310   3.082 -0.0839 -0.0908  0.0948
  570MOL0     C78550   9.544   9.346   3.203  0.4043 -0.1285 -0.4790
  570MOL0     C78551   9.482   9.196   2.997 -0.4052  0.4380 -0.4117
  570MOL0     C78552   9.593   9.104   3.020 -1.2348 -0.5185  0.0483
  570MOL0     O78553   9.726   9.138   3.052 -0.1859 -1.3096 -0.0589
  570MOL0     C78554   9.818   9.044   3.098 -0.7757 -0.8150 -0.0427
  570MOL0     C78555   9.844   8.925   3.032  0.2143  0.4214 -0.1819
  570MOL0     C78556   9.957   8.844   3.062 -0.0099  0.3959 -0.3141
  570MOL0     C78557  10.051   8.894   3.156  0.4333  1.3238 -0.9850
  570MOL0     O78558  10.149   8.804   3.202  0.0913 -0.4693 -0.2491
  570MOL0     C78559  10.231   8.758   3.093 -0.1450 -0.6495 -1.1821
  570MOL0     C78560  10.364   8.693   3.141 -0.5765 -0.0468 -1.1089
  570MOL0     C78561  10.425   8.632   3.017  0.3103 -0.2767 -0.1872
  570MOL0     C78562  10.572   8.591   3.053  0.2289 -0.1215 -0.5762
  570MOL0     C78563  10.641   8.536   2.929  0.3368 -0.1543  0.3662
  570MOL0     C78564  10.777   8.474   2.949  0.8742 -0.0059 -1.3176
  570MOL0     C78565  10.848   8.411   2.830  0.2679  0.2760 -0.6589
  570MOL0     C78566  10.763   8.314   2.745 -0.5537 -0.3170 -0.6452
  570MOL0    Cl78567  10.859   8.261   2.609 -0.1265  0.6500  0.1753
  570MOL0     C78568  10.025   9.019   3.221  0.1665  0.1024 -0.7557
  570MOL0     C78569   9.912   9.088   3.191 -0.1181 -1.0107  0.0179
  570MOL0     O78570   9.549   8.988   3.020  0.3824 -0.1844  0.2238
  570MOL0     C78571   9.393   9.159   2.894 -0.5467  0.5759 -0.7394
  570MOL0     C78572   9.288   9.247   2.863  0.0033  0.1351 -0.3276
  570MOL0     N78573   8.949   9.260   2.459 -0.7234 -0.2699  0.2260
  570MOL0     N78574   8.896   9.293   2.353  0.2289 -0.2213 -0.2180
  570MOL0     C78575   8.637   9.346   1.435  0.3157 -0.6181 -0.0952
  570MOL0     C78576   8.691   9.267   1.334 -0.8164 -0.3572 -0.3282
  570MOL0     C78577   8.856   9.102   0.946 -0.8432 -0.0478 -0.2180
  570MOL0     C78578   8.806   8.973   0.902 -0.0769  0.2341  0.0598
  570MOL0     C78579   8.871   8.886   0.818  0.0072  0.5103 -0.0420
  570MOL0     C78580   8.984   8.925   0.751  0.1267  0.7793  0.2113
  570MOL0     O78581   9.053   8.850   0.655  0.4571 -0.9221  1.1190
  570MOL0     C78582   9.054   8.717   0.673 -0.2656 -1.1017 -0.0838
  570MOL0     C78583   9.164   8.676   0.580  0.4603 -1.2013  1.0005
  570MOL0     C78584   9.182   8.524   0.560  0.0618  1.0041 -0.6160
  570MOL0     C78585   9.107   8.455   0.450  0.2653  0.4199 -0.5448
  570MOL0     C78586   9.161   8.323   0.427  0.0521  0.0297 -0.3113
  570MOL0     C78587   9.206   8.214   0.427 -0.2316  0.8906  0.2421
  570MOL0     C78588   9.036   9.046   0.785 -0.1576  0.2596 -0.0423
  570MOL0     C78589   8.974   9.138   0.888 -0.0757 -0.6529 -0.3659
  570MOL0     C78590   9.048   9.265   0.922 -0.8008 -0.5186  0.5733
  570MOL0     H78591   8.870   9.520   1.195 -0.9777  2.8005  1.1934
  570MOL0     H78592   8.781   9.647   1.344  0.5015  0.0003 -1.9582
  570MOL0     H78593   8.617   9.736   1.476  1.9273  1.2693 -0.3364
  570MOL0     H78594   8.763   9.689   1.581 -0.6282  1.1498 -0.1467
  570MOL0     H78595   8.610   9.837   1.721 -0.8984  0.2931 -0.6939
  570MOL0     H78596   8.483   9.730   1.703 -0.2754  0.5277  0.6579
  570MOL0     H78597   8.591   9.545   1.799  2.2859 -0.4350  0.7107
  570MOL0     H78598   8.748   9.629   1.803  1.4267  1.4673 -3.2935
  570MOL0     H78599   8.638   9.814   1.934  1.3928 -0.5265  0.3878
  570MOL0     H78600   8.499   9.700   1.965  0.1953 -0.6156 -0.4980
  570MOL0     H78601   8.784   9.692   2.067 -1.2371  2.3669 -0.9815
  570MOL0     H78602   8.697   9.544   2.040  2.0722  0.2871 -0.1706
  570MOL0     H78603   8.597   9.760   2.230 -0.9942 -1.0733  1.8341
  570MOL0     H78604   8.511   9.607   2.198  0.4209 -0.7865 -0.4013
  570MOL0     H78605   8.623   9.593   2.406 -0.1329 -2.0435  0.3863
  570MOL0     H78606   8.772   9.635   2.335  0.6192 -2.1016  3.3166
  570MOL0     H78607   8.597   9.387   2.288  1.0021 -2.0000  1.1627
  570MOL0     H78608   8.728   9.418   2.177 -1.1169 -0.1413 -0.4608
  570MOL0     H78609   8.714   9.469   2.573 -3.0069 -3.4616  1.3550
  570MOL0     H78610   9.048   9.310   2.697  0.1116 -0.6104 -0.3963
  570MOL0     H78611   8.928   9.203   2.736  2.0966  0.8245  1.3343
  570MOL0     H78612   8.884   9.512   2.763 -1.7358  0.8332 -0.0965
  570MOL0     H78613   8.771   9.391   2.809  1.2245  1.4021  2.1243
  570MOL0     H78614   8.872   9.432   3.022  1.0866 -1.0673  1.7803
  570MOL0     H78615   8.964   9.296   2.964 -1.2327 -1.9007 -2.7236
  570MOL0     H78616   9.035   9.601   2.948 -2.0736  0.5180  1.5068
  570MOL0     H78617   9.085   9.491   3.077  0.0803  1.1560  0.2557
  570MOL0     H78618   9.327   9.478   3.105 -0.9089  0.6176 -1.0289
  570MOL0     H78619   9.583   9.257   3.254  0.6668  0.4893  0.4227
  570MOL0     H78620   9.485   9.400   3.277  2.5917  2.8992 -0.7666
  570MOL0     H78621   9.634   9.399   3.173  0.6821 -1.1945 -1.6210
  570MOL0     H78622   9.790   8.912   2.939  0.1783 -0.2217 -0.0765
  570MOL0     H78623   9.979   8.756   3.003  1.2728  1.1072 -0.9483
  570MOL0     H78624  10.179   8.679   3.039 -1.2535 -1.0660  0.4240
  570MOL0     H78625  10.259   8.840   3.025  2.7891 -1.1977 -0.7678
  570MOL0     H78626  10.434   8.759   3.193 -0.0064 -0.8033 -0.9132
  570MOL0     H78627  10.329   8.615   3.209 -0.6831  0.3239 -0.7307
  570MOL0     H78628  10.428   8.708   2.937  1.3503  1.0488  1.0490
  570MOL0     H78629  10.371   8.542   2.988  2.2884 -1.6845  0.3078
  570MOL0     H78630  10.557   8.521   3.135 -1.2866 -0.1597 -0.8645
  570MOL0     H78631  10.626   8.678   3.090  2.0493 -1.0677 -0.8945
  570MOL0     H78632  10.574   8.461   2.886  0.1521  0.3489 -0.2589
  570MOL0     H78633  10.654   8.618   2.857 -0.5841  2.0106  2.5031
  570MOL0     H78634  10.755   8.387   3.011  3.0649 -1.1232 -2.0250
  570MOL0     H78635  10.840   8.549   3.000  1.2700 -1.6770  0.7759
  570MOL0     H78636  10.938   8.362   2.869 -0.4377  0.0401  0.7122
  570MOL0     H78637  10.874   8.497   2.768  0.8988  1.1969  0.8493
  570MOL0     H78638  10.666   8.360   2.722 -2.0281 -2.7356  0.3167
  570MOL0     H78639  10.727   8.236   2.813 -1.1920  0.0246 -0.5738
  570MOL0     H78640  10.090   9.062   3.297 -2.5932  1.1109  1.1600
  570MOL0     H78641   9.904   9.184   3.240 -1.6064  0.4398 -2.7958
  570MOL0     H78642   9.411   9.067   2.838  2.1066 -1.5713  3.1882
  570MOL0     H78643   9.226   9.235   2.775 -0.9255 -0.2508  0.3569
  570MOL0     H78644   8.572   9.296   1.507  0.0325  0.5530  0.4765
  570MOL0     H78645   8.676   9.160   1.339 -0.1946 -0.4090  0.8913
  570MOL0     H78646   8.715   8.940   0.952  0.3751 -2.8068 -0.9503
  570MOL0     H78647   8.826   8.789   0.798 -1.2078  0.6678  1.7158
  570MOL0     H78648   9.068   8.692   0.779 -0.3711 -1.9503 -0.2593
  570MOL0     H78649   8.966   8.679   0.620  0.2281 -2.2376 -0.1245
  570MOL0     H78650   9.265   8.709   0.603 -0.0318  0.7537  0.5841
  570MOL0     H78651   9.137   8.722   0.484  1.0363 -1.8994  0.4936
  570MOL0     H78652   9.283   8.516   0.520  0.0402  0.8458 -0.6412
  570MOL0     H78653   9.170   8.480   0.660 -0.5368  0.0960 -1.0750
  570MOL0     H78654   9.115   8.518   0.360  2.6692  0.8876 -0.0526
  570MOL0     H78655   9.001   8.460   0.479  0.7252  1.1635  1.0948
  570MOL0     H78656   9.256   8.119   0.424 -0.1683  0.9135  0.5477
  570MOL0     H78657   9.123   9.083   0.731  3.1922 -1.1073  3.8828
  570MOL0     H78658   8.982   9.351   0.930 -0.2180  0.2810 -2.3205
  570MOL0     H78659   9.100   9.270   1.019 -0.2933  0.4137  0.2580
  570MOL0     H78660   9.116   9.293   0.841 -1.9837  0.0863 -0.2193
  571MOL0     O78661   9.993   8.180   4.110 -0.6730 -0.6629 -0.4921
  571MOL0     C78662  10.062   8.085   4.149  0.5486 -0.0924 -0.8904
  571MOL0     O78663  10.206   8.092   4.161 -0.3351  0.6337 -0.1055
  571MOL0     C78664  10.261   8.210   4.133  0.2556 -0.5779  0.6780
  571MOL0     C78665  10.253   8.312   4.231  0.2968  0.1449  0.0786
  571MOL0     C78666  10.333   8.424   4.207 -1.0156 -0.1528 -0.1349
  571MOL0     C78667  10.411   8.437   4.089 -0.1426 -0.4067 -0.1974
  571MOL0     O78668  10.446   8.562   4.053 -1.0302 -0.7361  0.5414
  571MOL0     C78669  10.342   8.621   3.986  0.0215 -0.2296  0.6671
  571MOL0     C78670  10.371   8.774   3.971 -0.2150  0.2018  0.0027
  571MOL0     C78671  10.450   8.850   4.085 -0.4707  0.2926 -0.7842
  571MOL0     C78672  10.521   8.978   4.031 -0.6438  0.1688 -0.6656
  571MOL0     C78673  10.625   9.039   4.142  0.8307 -0.3595  0.5060
  571MOL0     C78674  10.670   9.169   4.083 -0.5303  0.3806  0.3504
  571MOL0     C78675  10.774   9.245   4.166 -0.4940 -0.0805 -0.1563
  571MOL0     C78676  10.922   9.183   4.156  0.2121  0.5059 -0.0495
  571MOL0     N78677  11.013   9.261   4.073 -0.4713 -0.1454 -0.5769
  571MOL0     C78678  11.038   9.229   3.948 -0.7883 -0.3457 -0.2785
  571MOL0     C78679  11.118   9.328   3.896 -0.1272  0.4097 -0.3437
  571MOL0     C78680  11.208   9.313   3.777  0.6368  0.1307  0.9452
  571MOL0     C78681  11.111   9.325   3.645  0.5776 -0.8509 -0.8410
  571MOL0     C78682  11.180   9.270   3.519  0.6654 -0.5982  0.4832
  571MOL0     C78683  11.323   9.313   3.478 -0.0842  0.2323 -0.0631
  571MOL0     O78684  11.323   9.454   3.442 -0.4874  0.1738 -0.4206
  571MOL0     C78685  11.419   9.495   3.353 -1.1795  0.2398  0.2378
  571MOL0     C78686  11.558   9.475   3.349  0.0011  0.1695  0.9018
  571MOL0     C78687  11.645   9.544   3.262  0.6055 -1.1568  0.2812
  571MOL0     C78688  11.787   9.490   3.253  0.1413  0.6018 -0.2516
  571MOL0     C78689  11.597   9.646   3.169 -0.1319  0.1135 -0.6479
  571MOL0     C78690  11.684   9.725   3.073  1.2509  0.9312  0.1655
  571MOL0     O78691  11.817   9.707   3.081 -0.5465 -0.0359 -0.3320
  571MOL0     C78692  11.893   9.776   2.992  0.4921  0.1774 -0.6445
  571MOL0     C78693  11.884   9.914   2.968  0.1109 -0.1326  1.1071
  571MOL0     C78694  11.959   9.985   2.878 -0.8561  1.0220  0.5133
  571MOL0     C78695  12.070   9.917   2.816 -0.3413  0.2843  0.0151
  571MOL0     O78696  12.161   9.960   2.723  0.3642 -0.6066 -0.3292
  571MOL0     C78697  12.192  10.100   2.740  0.4706  0.2326 -0.1580
  571MOL0     C78698  12.124  10.193   2.626  0.0393  0.2121  0.7298
  571MOL0     C78699  12.144  10.146   2.478  0.2026 -0.5577  0.7527
  571MOL0     C78700  12.267  10.206   2.406 -0.4295  0.5721 -0.1383
  571MOL0     C78701  12.311  10.151   2.268  0.2016  0.9854  0.4143
  571MOL0     C78702  12.231  10.211   2.153 -0.1573  0.8602 -0.2821
  571MOL0     C78703  12.272  10.133   2.022 -0.0966 -0.3615 -0.3847
  571MOL0     C78704  12.175  10.174   1.917  1.1200  0.0628  1.3786
  571MOL0    Cl78705  12.030  10.068   1.933  0.0498 -0.0206 -0.1762
  571MOL0     C78706  12.093   9.783   2.854 -0.3721  0.9673  0.1954
  571MOL0     C78707  12.002   9.716   2.937 -0.6962 -0.0445  0.1774
  571MOL0     O78708  11.622   9.806   2.999 -0.2227  0.3810 -0.1296
  571MOL0     C78709  11.453   9.674   3.178  0.6296  0.1811  0.2936
  571MOL0     C78710  11.372   9.599   3.265 -0.9342 -0.7720 -0.1219
  571MOL0     N78711  11.148   9.415   3.999 -0.0279 -0.5218 -0.5057
  571MOL0     N78712  11.089   9.375   4.107  0.5530  1.5887 -0.2747
  571MOL0     C78713  10.418   8.330   4.000  0.4345  1.4823  0.2177
  571MOL0     C78714  10.350   8.212   4.021  0.0047  0.0575  1.3962
  571MOL0     C78715   9.997   7.951   4.173  0.4378 -0.4951 -0.8691
  571MOL0     C78716  10.082   7.837   4.137  1.1690  0.7674  0.2864
  571MOL0     C78717  10.026   7.705   4.162  0.4580  0.7573  0.3367
  571MOL0     C78718   9.899   7.690   4.220 -0.1230 -0.1908  0.3810
  571MOL0     O78719   9.843   7.563   4.232 -0.2303  0.6337  0.1499
  571MOL0     C78720   9.732   7.543   4.321  0.1461 -0.0955 -0.6766
  571MOL0     C78721   9.687   7.403   4.307 -1.1096 -0.5195  0.7493
  571MOL0     C78722   9.775   7.304   4.379 -0.3675 -0.1399 -0.9093
  571MOL0     C78723   9.752   7.171   4.317  0.3985 -0.7768 -0.3758
  571MOL0     C78724   9.822   7.071   4.404  0.0278 -0.1665 -0.5820
  571MOL0     C78725   9.875   6.974   4.457  0.6905 -0.9638  0.8490
  571MOL0     C78726   9.825   7.808   4.258  0.1705  0.2589 -0.0674
  571MOL0     C78727   9.870   7.931   4.232  0.1031  0.4123 -0.7041
  571MOL0     C78728   9.790   8.047   4.279 -0.0009 -1.2958  0.2330
  571MOL0     H78729  10.184   8.303   4.313  0.2207 -0.2100 -0.0227
  571MOL0     H78730  10.339   8.507   4.275  2.3432 -0.3845 -0.0088
  571MOL0     H78731  10.254   8.615   4.050  0.1432 -1.2202  0.7510
  571MOL0     H78732  10.318   8.565   3.895 -0.3819  0.6467  0.2218
  571MOL0     H78733  10.435   8.767   3.882 -1.9918  0.2148 -1.3277
  571MOL0     H78734  10.279   8.824   3.941  0.2776  0.3960 -1.2831
  571MOL0     H78735  10.381   8.883   4.164  1.6163 -2.0427  2.2605
  571MOL0     H78736  10.533   8.787   4.118 -3.1588 -2.6671  0.9010
  571MOL0     H78737  10.568   8.960   3.934  1.7469 -2.0156  0.7668
  571MOL0     H78738  10.455   9.063   4.013  0.3390  1.7578  2.4486
  571MOL0     H78739  10.710   8.972   4.160  0.9228 -0.3276  0.1925
  571MOL0     H78740  10.574   9.049   4.238  2.1573  0.3080  1.1726
  571MOL0     H78741  10.720   9.146   3.988 -3.1444 -1.7298 -0.6435
  571MOL0     H78742  10.586   9.237   4.068 -1.1206 -0.6571 -1.3407
  571MOL0     H78743  10.738   9.251   4.269 -0.0961  2.6597 -0.1125
  571MOL0     H78744  10.779   9.349   4.134 -1.9151  1.1736  3.1968
  571MOL0     H78745  10.961   9.170   4.257  2.8960 -2.5471 -1.3381
  571MOL0     H78746  10.929   9.080   4.120 -0.6070  0.1077  0.8734
  571MOL0     H78747  11.002   9.136   3.905 -0.9592  0.8273 -2.8697
  571MOL0     H78748  11.260   9.217   3.777  2.6738  0.9160 -3.9014
  571MOL0     H78749  11.286   9.390   3.777 -0.8974  1.7617  0.6744
  571MOL0     H78750  11.028   9.255   3.659 -0.5030  0.8784  2.1943
  571MOL0     H78751  11.085   9.431   3.650 -0.8799 -1.2387  1.0670
  571MOL0     H78752  11.178   9.161   3.528  0.4966 -0.4866  2.0656
  571MOL0     H78753  11.124   9.289   3.427 -0.0009 -2.7247  0.3865
  571MOL0     H78754  11.389   9.282   3.559  0.1468  2.6427  0.7453
  571MOL0     H78755  11.352   9.263   3.385 -0.0741 -0.5006  0.3309
  571MOL0     H78756  11.581   9.397   3.421 -0.5866  0.4870  1.4374
  571MOL0     H78757  11.811   9.416   3.330  2.0896  0.1752 -1.1860
  571MOL0     H78758  11.854   9.574   3.275  1.1456 -0.2570  0.0239
  571MOL0     H78759  11.819   9.460   3.152 -0.2788  2.1250 -0.8671
  571MOL0     H78760  11.803   9.954   3.027 -1.0406 -2.1501  0.9553
  571MOL0     H78761  11.939  10.090   2.863  1.7113  1.4114 -0.7884
  571MOL0     H78762  12.153  10.132   2.837 -2.1450 -0.6792 -0.8249
  571MOL0     H78763  12.299  10.109   2.718  0.0662 -1.2342 -3.2129
  571MOL0     H78764  12.018  10.213   2.645 -0.3220 -0.2270 -0.6924
  571MOL0     H78765  12.168  10.293   2.628 -0.6601  0.6136 -1.5804
  571MOL0     H78766  12.057  10.175   2.418  0.1804 -1.4401  0.3381
  571MOL0     H78767  12.137  10.037   2.477 -0.3228 -0.5453 -1.2482
  571MOL0     H78768  12.353  10.188   2.472 -0.6821 -1.3563 -0.2622
  571MOL0     H78769  12.254  10.314   2.398  0.7140  0.9835  2.4586
  571MOL0     H78770  12.419  10.161   2.256  0.2368  1.9372  1.3704
  571MOL0     H78771  12.282  10.045   2.266 -0.9922  1.1957  2.6615
  571MOL0     H78772  12.261  10.316   2.153  2.0115  0.2955  0.8402
  571MOL0     H78773  12.123  10.198   2.165 -0.1334  0.9375  0.0329
  571MOL0     H78774  12.286  10.025   2.029  0.4860 -0.2745 -0.2272
  571MOL0     H78775  12.375  10.167   2.006  0.8729 -3.3491 -1.1862
  571MOL0     H78776  12.211  10.166   1.814  0.1615  1.8860  0.8600
  571MOL0     H78777  12.142  10.277   1.933 -1.3463 -0.5771  0.8219
  571MOL0     H78778  12.182   9.733   2.818 -0.7665 -1.2288  2.0439
  571MOL0     H78779  12.030   9.614   2.961 -4.1249 -0.8923  1.1384
  571MOL0     H78780  11.415   9.752   3.112 -0.3305 -1.2614 -0.9088
  571MOL0     H78781  11.264   9.611   3.269 -1.2074 -3.1434  1.7867
  571MOL0     H78782  10.464   8.339   3.902 -1.6450 -0.8535 -1.0931
  571MOL0     H78783  10.344   8.122   3.961 -0.7055  0.4844  0.8014
  571MOL0     H78784  10.179   7.843   4.088  2.5884  1.3705  2.9395
  571MOL0     H78785  10.075   7.608   4.173 -2.6412 -0.8052  1.6449
  571MOL0     H78786   9.746   7.574   4.425 -0.8344 -2.7910  0.3392
  571MOL0     H78787   9.653   7.604   4.276  0.7249  1.5369  0.4392
  571MOL0     H78788   9.676   7.380   4.201  1.8124  0.2458  0.1824
  571MOL0     H78789   9.592   7.395   4.360 -1.2874 -0.8936  0.3782
  571MOL0     H78790   9.877   7.343   4.374 -0.6402  0.4452 -3.6555
  571MOL0     H78791   9.745   7.298   4.484  2.7258 -3.7814  0.0041
  571MOL0     H78792   9.779   7.157   4.212 -2.5170 -4.6964 -0.8102
  571MOL0     H78793   9.647   7.145   4.302  0.7935 -2.9843  0.1939
  571MOL0     H78794   9.905   6.880   4.498 -1.6266 -1.5286  1.3461
  571MOL0     H78795   9.732   7.798   4.313  0.2858  1.2835  0.3214
  571MOL0     H78796   9.694   8.021   4.323 -1.3495 -0.8114 -2.2377
  571MOL0     H78797   9.853   8.099   4.352  0.5717 -1.0789 -0.4048
  571MOL0     H78798   9.769   8.105   4.189  1.9799  0.3038  0.6927
  572MOL0     O78799  11.334   7.596   3.341  0.6723 -0.0998 -0.2508
  572MOL0     C78800  11.354   7.501   3.414  0.3035 -0.7467  0.0188
  572MOL0     O78801  11.435   7.396   3.384 -0.0797  0.4719 -0.2252
  572MOL0     C78802  11.459   7.370   3.247  0.2551  0.0745 -0.8705
  572MOL0     C78803  11.387   7.270   3.192 -0.7005 -0.1646 -0.0038
  572MOL0     C78804  11.407   7.234   3.060  0.6056 -0.4159  0.0349
  572MOL0     C78805  11.490   7.318   2.975 -0.4734  0.0089  0.0500
  572MOL0     O78806  11.503   7.283   2.844  0.6838  0.2810 -0.3045
  572MOL0     C78807  11.635   7.244   2.801 -0.1761  0.1597  0.1460
  572MOL0     C78808  11.609   7.166   2.664  0.9496  0.2013  0.2769
  572MOL0     C78809  11.730   7.137   2.589  0.3329 -0.4293  0.4563
  572MOL0     C78810  11.696   7.050   2.468 -0.5797 -0.5195  1.3099
  572MOL0     C78811  11.817   7.026   2.377 -0.6031  0.1935 -0.0481
  572MOL0     C78812  11.933   6.974   2.463 -1.0825  0.3514  0.8651
  572MOL0     C78813  12.032   6.912   2.361 -0.2578 -0.3552  0.4251
  572MOL0     C78814  12.168   6.893   2.427  0.2425  0.0507 -0.5583
  572MOL0     N78815  12.247   6.797   2.344 -0.9046  0.1136 -0.1235
  572MOL0     C78816  12.250   6.664   2.378 -0.0697  0.3880  0.2518
  572MOL0     C78817  12.342   6.613   2.300 -0.4830  0.2205  0.5131
  572MOL0     C78818  12.369   6.466   2.293  0.1205  0.9100 -0.4393
  572MOL0     C78819  12.503   6.444   2.373 -0.0629 -0.5224  0.5453
  572MOL0     C78820  12.634   6.394   2.305 -0.1874 -0.2837  0.5979
  572MOL0     C78821  12.726   6.499   2.260 -0.6406 -0.4782  0.9716
  572MOL0     O78822  12.785   6.570   2.368  0.3416 -0.8655 -0.0178
  572MOL0     C78823  12.908   6.634   2.361 -0.1109  0.4621  0.2934
  572MOL0     C78824  12.977   6.642   2.482 -0.1603 -0.8018 -0.0957
  572MOL0     C78825  13.097   6.717   2.496 -0.4595 -0.0517  0.3181
  572MOL0     C78826  13.159   6.731   2.633  0.2027 -0.6171 -0.0016
  572MOL0     C78827  13.147   6.786   2.387 -0.5712 -0.1778 -0.0219
  572MOL0     C78828  13.277   6.865   2.386  0.0620  0.3949 -0.2101
  572MOL0     O78829  13.371   6.855   2.491 -0.2042 -0.0828  0.2796
  572MOL0     C78830  13.481   6.939   2.506  0.4825  0.2684  0.0724
  572MOL0     C78831  13.570   6.901   2.603 -0.0571 -0.0927 -0.2297
  572MOL0     C78832  13.689   6.965   2.617 -0.1107  0.0749 -0.0169
  572MOL0     C78833  13.705   7.092   2.554 -0.3506 -0.4567  0.4630
  572MOL0     O78834  13.810   7.171   2.579  0.3076 -0.5871  0.5368
  572MOL0     C78835  13.855   7.188   2.710 -0.5130  0.2862  0.7854
  572MOL0     C78836  13.939   7.318   2.706 -0.9166  0.5253 -0.3142
  572MOL0     C78837  14.065   7.293   2.610  0.4125  0.2033  0.0861
  572MOL0     C78838  14.140   7.424   2.577 -0.2683 -0.2378  0.4979
  572MOL0     C78839  14.278   7.389   2.512  0.6881  0.1718  0.3076
  572MOL0     C78840  14.353   7.522   2.482  1.8803 -0.1483  0.0640
  572MOL0     C78841  14.484   7.515   2.420 -0.6031  0.4579 -0.0328
  572MOL0     C78842  14.530   7.658   2.363 -0.6742  0.6568  0.2298
  572MOL0    Cl78843  14.704   7.667   2.322  0.1946  0.2541 -0.2354
  572MOL0     C78844  13.621   7.127   2.452  0.3823 -1.1623  0.4815
  572MOL0     C78845  13.502   7.057   2.437 -0.3422 -0.5975  0.3449
  572MOL0     O78846  13.281   6.941   2.293 -0.3491 -0.3484  0.1728
  572MOL0     C78847  13.074   6.780   2.269 -0.0987 -0.3155  0.2693
  572MOL0     C78848  12.956   6.707   2.255  0.2549 -1.3263 -0.8980
  572MOL0     N78849  12.386   6.705   2.208 -0.6302 -0.4897 -0.3197
  572MOL0     N78850  12.338   6.822   2.242 -0.3829 -0.0029  0.2417
  572MOL0     C78851  11.552   7.437   3.027 -0.1619 -0.1791 -0.1245
  572MOL0     C78852  11.535   7.456   3.167 -0.2745  0.0940  0.3133
  572MOL0     C78853  11.283   7.494   3.554 -0.5293 -0.1081  0.1173
  572MOL0     C78854  11.297   7.383   3.640  0.4953  0.5747  0.6478
  572MOL0     C78855  11.237   7.366   3.766 -0.2071  0.1553 -0.5061
  572MOL0     C78856  11.143   7.464   3.818  0.1648  0.4563  0.1484
  572MOL0     O78857  11.086   7.453   3.945 -0.1271 -0.2853  0.0875
  572MOL0     C78858  11.068   7.325   4.010 -0.5319 -0.1041  0.2021
  572MOL0     C78859  10.973   7.232   3.934 -0.2056 -0.0071 -0.0812
  572MOL0     C78860  10.970   7.101   4.012  0.3764 -0.0960 -0.2689
  572MOL0     C78861  10.879   7.002   3.953  0.1376  0.0467  0.3890
  572MOL0     C78862  10.868   6.879   4.036  0.2047 -0.5512 -0.4383
  572MOL0     C78863  10.870   6.789   4.119  0.3251 -0.2145 -0.2949
  572MOL0     C78864  11.127   7.576   3.734 -0.2782  0.2688 -0.5528
  572MOL0     C78865  11.191   7.594   3.605 -0.4566 -0.1048 -1.3021
  572MOL0     C78866  11.157   7.720   3.531  0.4675 -0.5776  0.2728
  572MOL0     H78867  11.313   7.212   3.247 -2.1104  0.4244 -1.1957
  572MOL0     H78868  11.362   7.143   3.021 -1.1621 -0.8052  2.7425
  572MOL0     H78869  11.690   7.192   2.880 -0.3948 -1.4461 -0.7296
  572MOL0     H78870  11.693   7.333   2.774 -1.1680  0.7342 -0.1521
  572MOL0     H78871  11.560   7.070   2.683 -1.8840  1.5114  0.1542
  572MOL0     H78872  11.536   7.209   2.594  0.2918 -3.1415 -1.2947
  572MOL0     H78873  11.774   7.229   2.551 -0.8500  0.7205  1.7109
  572MOL0     H78874  11.792   7.083   2.662 -2.2093 -2.2858  1.4287
  572MOL0     H78875  11.677   6.952   2.512  0.2484 -1.2488  0.0772
  572MOL0     H78876  11.598   7.081   2.431 -0.5739 -1.5434  0.3926
  572MOL0     H78877  11.854   7.114   2.325 -0.5097  1.6897  2.4051
  572MOL0     H78878  11.779   6.954   2.304 -2.4451  1.0362  0.0151
  572MOL0     H78879  11.986   7.051   2.521  0.9529  0.1678 -0.6168
  572MOL0     H78880  11.907   6.896   2.535  2.1427  1.0830  3.0579
  572MOL0     H78881  12.046   6.983   2.279  2.0663 -0.7223  0.4284
  572MOL0     H78882  11.993   6.823   2.312  0.9135  0.0528 -1.3480
  572MOL0     H78883  12.232   6.982   2.421  1.4310 -0.7886 -0.7179
  572MOL0     H78884  12.170   6.865   2.532 -0.8180 -0.1176 -0.5668
  572MOL0     H78885  12.197   6.606   2.453 -0.0810 -0.9558 -0.7632
  572MOL0     H78886  12.366   6.421   2.193  1.0243 -2.6147  0.9686
  572MOL0     H78887  12.287   6.417   2.346  1.9103 -4.9212 -2.3564
  572MOL0     H78888  12.521   6.535   2.430 -1.5703 -0.2064  0.5754
  572MOL0     H78889  12.473   6.364   2.441  3.4067 -1.3309  1.3283
  572MOL0     H78890  12.683   6.321   2.369 -0.5533 -1.1829 -0.1243
  572MOL0     H78891  12.603   6.330   2.221  2.5811 -0.9834  0.0258
  572MOL0     H78892  12.789   6.450   2.185 -3.5238 -0.8141 -1.4346
  572MOL0     H78893  12.669   6.572   2.202 -2.0447  0.2751  3.1542
  572MOL0     H78894  12.931   6.607   2.574 -0.0002  1.3175  0.8419
  572MOL0     H78895  13.173   6.836   2.657  0.3352 -0.7962  0.7067
  572MOL0     H78896  13.252   6.677   2.649  2.7419  2.9303 -1.5866
  572MOL0     H78897  13.081   6.699   2.703 -0.0343  0.8623  0.4386
  572MOL0     H78898  13.579   6.800   2.641  0.3294 -0.4014 -1.1250
  572MOL0     H78899  13.763   6.925   2.686  0.0592  2.1989  1.1100
  572MOL0     H78900  13.772   7.187   2.780 -1.0132  1.6953  0.2519
  572MOL0     H78901  13.918   7.107   2.747 -1.6640 -0.2154  1.6923
  572MOL0     H78902  13.865   7.393   2.678 -1.7594 -0.4453 -0.7472
  572MOL0     H78903  13.973   7.333   2.809 -1.7279 -0.8499  0.1815
  572MOL0     H78904  14.029   7.261   2.512 -0.8873  1.8412 -0.0181
  572MOL0     H78905  14.135   7.222   2.657 -0.8668  1.5034  4.4514
  572MOL0     H78906  14.149   7.482   2.669 -0.9398  0.3717  0.1936
  572MOL0     H78907  14.079   7.492   2.517  0.9115  2.0679  1.7530
  572MOL0     H78908  14.343   7.327   2.575 -1.3878  0.6310  3.1192
  572MOL0     H78909  14.254   7.331   2.422  0.2981 -2.8743  2.2075
  572MOL0     H78910  14.359   7.579   2.575 -1.3785 -1.6264  1.3374
  572MOL0     H78911  14.293   7.581   2.412  1.3752  1.1619  1.5498
  572MOL0     H78912  14.489   7.441   2.339  1.9666 -0.9498  1.3092
  572MOL0     H78913  14.564   7.486   2.488  1.0128  2.9663 -0.7281
  572MOL0     H78914  14.525   7.727   2.448 -0.6939  0.1454  0.6472
  572MOL0     H78915  14.474   7.686   2.274  0.6759  1.3247 -0.4338
  572MOL0     H78916  13.630   7.223   2.403 -2.6132  0.7165  3.2302
  572MOL0     H78917  13.435   7.101   2.364  2.3825  0.6971 -1.5551
  572MOL0     H78918  13.107   6.836   2.182  3.8794 -1.7874  0.5769
  572MOL0     H78919  12.901   6.708   2.161 -0.8579 -1.1648 -0.2672
  572MOL0     H78920  11.599   7.505   2.957 -3.4462  1.3555 -1.0701
  572MOL0     H78921  11.585   7.540   3.215 -1.8384  1.3287 -0.1551
  572MOL0     H78922  11.357   7.301   3.601 -1.9753 -2.3101  2.3714
  572MOL0     H78923  11.259   7.274   3.818  1.2715 -1.2122 -3.3102
  572MOL0     H78924  11.161   7.270   4.027 -1.4125 -1.7719 -0.1272
  572MOL0     H78925  11.028   7.332   4.112 -3.6662  1.6545 -1.0236
  572MOL0     H78926  11.002   7.214   3.830  3.4904 -1.3729  1.0086
  572MOL0     H78927  10.878   7.284   3.942 -1.0510 -1.4061 -0.6768
  572MOL0     H78928  11.073   7.064   4.021  0.5032  0.6750  2.7058
  572MOL0     H78929  10.933   7.120   4.113 -1.1768 -1.2323 -0.6000
  572MOL0     H78930  10.917   6.980   3.853  0.1773  3.3833 -0.4390
  572MOL0     H78931  10.775   7.031   3.937 -0.0436 -1.2859 -0.9991
  572MOL0     H78932  10.865   6.716   4.197  2.3923 -0.5619 -0.4303
  572MOL0     H78933  11.049   7.649   3.749  0.3345  1.3972 -2.4777
  572MOL0     H78934  11.097   7.693   3.444 -0.5293 -0.0978  0.7911
  572MOL0     H78935  11.112   7.792   3.600  2.2392  0.7974  0.0821
  572MOL0     H78936  11.254   7.760   3.501  1.0513 -1.6525  0.6915
  573MOL0     O78937   8.219   5.176   7.981 -0.1031 -0.1480  0.3891
  573MOL0     C78938   8.195   5.294   7.960  0.4084 -0.4889  0.2003
  573MOL0     O78939   8.281   5.400   7.975 -0.0680 -0.6597  0.0053
  573MOL0     C78940   8.410   5.383   8.024  0.0193  0.3745 -0.6735
  573MOL0     C78941   8.519   5.439   7.952  0.0317 -0.9974  0.8116
  573MOL0     C78942   8.656   5.417   7.988 -0.0090 -0.5492  0.3021
  573MOL0     C78943   8.680   5.371   8.115 -0.1083 -0.3271  0.2558
  573MOL0     O78944   8.803   5.377   8.164  0.1511  0.0389 -0.3913
  573MOL0     C78945   8.869   5.250   8.180  0.1902 -0.0456 -0.4836
  573MOL0     C78946   8.950   5.224   8.316 -0.6960 -0.7289 -0.2874
  573MOL0     C78947   8.968   5.085   8.368  0.0740  0.8045  0.3888
  573MOL0     C78948   8.991   4.986   8.247 -0.4474  0.6899 -1.2676
  573MOL0     C78949   9.087   4.873   8.280 -0.1643 -0.0123  0.5177
  573MOL0     C78950   9.116   4.791   8.157  0.2388  0.1692  0.8765
  573MOL0     C78951   9.210   4.675   8.174 -0.2861 -0.0023  0.4694
  573MOL0     C78952   9.353   4.715   8.177  0.3318 -0.0651  0.7189
  573MOL0     N78953   9.403   4.773   8.056  0.1965 -0.3671 -0.1518
  573MOL0     C78954   9.417   4.711   7.933  0.0449  0.3182 -0.3065
  573MOL0     C78955   9.467   4.804   7.850  0.3614 -0.6057  0.4465
  573MOL0     C78956   9.498   4.779   7.706 -0.0133 -0.2194 -0.5063
  573MOL0     C78957   9.647   4.752   7.687 -0.2443 -0.0064 -0.3652
  573MOL0     C78958   9.727   4.887   7.655  0.9535 -0.4787 -0.3743
  573MOL0     C78959   9.841   4.877   7.564  0.0910 -0.1337  0.3505
  573MOL0     O78960   9.955   4.821   7.632  0.6669  0.3672 -0.1104
  573MOL0     C78961  10.074   4.844   7.564  0.3962  0.0139  0.0461
  573MOL0     C78962  10.081   4.898   7.435  0.9447  0.1537  0.3765
  573MOL0     C78963  10.208   4.926   7.384 -0.2063 -0.3533  0.8175
  573MOL0     C78964  10.221   4.972   7.239  0.1497 -0.1289 -0.1282
  573MOL0     C78965  10.323   4.904   7.463 -0.8083  0.6212  0.7865
  573MOL0     C78966  10.465   4.930   7.417  0.1757  0.2746 -0.1684
  573MOL0     O78967  10.483   5.032   7.336 -0.2062 -0.7359  0.6165
  573MOL0     C78968  10.602   5.048   7.268 -0.0359  0.6110  0.4804
  573MOL0     C78969  10.730   5.055   7.328  0.1454  0.9587  0.2415
  573MOL0     C78970  10.854   5.064   7.260  0.3617 -0.2402  0.1536
  573MOL0     C78971  10.843   5.084   7.124  0.1996 -0.5689 -0.4394
  573MOL0     O78972  10.954   5.108   7.052 -0.3482  0.3880  0.9474
  573MOL0     C78973  11.062   5.184   7.114  0.6329 -0.4234 -0.2328
  573MOL0     C78974  11.177   5.220   7.010 -0.5448 -0.2654 -0.2451
  573MOL0     C78975  11.288   5.114   7.022  0.5440  1.0141  0.4317
  573MOL0     C78976  11.391   5.138   6.914  0.7606 -0.7651  0.1899
  573MOL0     C78977  11.521   5.054   6.925 -0.0710 -0.0125  0.8804
  573MOL0     C78978  11.603   5.061   6.806 -1.9977 -0.0084  0.0793
  573MOL0     C78979  11.729   4.971   6.816 -0.1420  0.8908  0.1472
  573MOL0     C78980  11.812   4.980   6.689 -0.2632  0.4981  0.2958
  573MOL0    Cl78981  11.951   4.867   6.709  0.1266 -0.4212 -0.0137
  573MOL0     C78982  10.720   5.064   7.065 -0.1364 -0.0109 -0.3671
  573MOL0     C78983  10.596   5.049   7.129 -0.2414 -0.8819  0.3128
  573MOL0     O78984  10.554   4.860   7.460  0.4264  0.0883 -1.0109
  573MOL0     C78985  10.316   4.863   7.589 -0.7533  0.0009 -0.1082
  573MOL0     C78986  10.188   4.827   7.636  0.0804  0.4075  0.1859
  573MOL0     N78987   9.485   4.920   7.919  0.5855 -0.3143  1.0154
  573MOL0     N78988   9.445   4.897   8.039  0.4305  0.0609  0.1034
  573MOL0     C78989   8.575   5.333   8.197  0.0414  0.2574  0.6770
  573MOL0     C78990   8.439   5.329   8.150 -0.0112  0.2459 -0.3135
  573MOL0     C78991   8.069   5.327   7.904 -1.0140  0.5432  0.3187
  573MOL0     C78992   7.958   5.259   7.944  0.6681 -0.0167 -0.5009
  573MOL0     C78993   7.834   5.268   7.872 -0.1500 -0.5665 -0.1592
  573MOL0     C78994   7.831   5.349   7.755  0.0418  1.1459  0.4831
  573MOL0     O78995   7.705   5.349   7.690 -0.3924  0.3358 -0.0482
  573MOL0     C78996   7.647   5.226   7.638  0.6922 -0.8546  0.0111
  573MOL0     C78997   7.494   5.240   7.652  0.6257  0.2028  0.0047
  573MOL0     C78998   7.425   5.357   7.579 -0.7042  0.2467  0.0781
  573MOL0     C78999   7.276   5.379   7.623  0.0033 -0.2446  0.1567
  573MOL0     C79000   7.222   5.487   7.542 -0.1901  0.1179 -0.9245
  573MOL0     C79001   7.156   5.564   7.479 -0.2365 -0.3274 -0.1739
  573MOL0     C79002   7.944   5.413   7.710 -0.7816 -0.5317 -0.0868
  573MOL0     C79003   8.061   5.416   7.788  0.5502 -0.0757  0.3222
  573MOL0     C79004   8.183   5.483   7.731  0.6006 -0.1140 -0.0180
  573MOL0     H79005   8.506   5.492   7.857  1.6313 -1.8607  0.0767
  573MOL0     H79006   8.742   5.447   7.929 -0.0629 -2.4368 -0.8146
  573MOL0     H79007   8.942   5.239   8.099  1.5399  2.2103  0.3190
  573MOL0     H79008   8.796   5.170   8.168  0.3775 -0.3474  0.2806
  573MOL0     H79009   9.048   5.272   8.323 -0.7952 -0.7242  2.3992
  573MOL0     H79010   8.893   5.278   8.393  0.5228 -0.0912  0.1994
  573MOL0     H79011   9.052   5.073   8.436 -1.4618 -3.4413  1.8924
  573MOL0     H79012   8.887   5.054   8.435 -2.0731  1.6084 -1.6959
  573MOL0     H79013   8.890   4.948   8.225  0.2441 -1.7423 -0.4744
  573MOL0     H79014   9.036   5.043   8.165  1.0702  1.8205  0.2939
  573MOL0     H79015   9.034   4.802   8.345 -0.8563 -1.9573 -1.9829
  573MOL0     H79016   9.178   4.912   8.327  0.5448 -0.2781 -0.5952
  573MOL0     H79017   9.024   4.743   8.123 -0.3042  1.8680 -0.1636
  573MOL0     H79018   9.158   4.863   8.086  0.4715  1.1601  1.9804
  573MOL0     H79019   9.204   4.605   8.089 -2.9548 -0.6435  1.1045
  573MOL0     H79020   9.185   4.625   8.268 -1.4742 -0.7276 -0.2104
  573MOL0     H79021   9.372   4.771   8.268 -1.6096  1.1064  0.4646
  573MOL0     H79022   9.420   4.632   8.199  1.9208  1.9233  4.1506
  573MOL0     H79023   9.385   4.611   7.904 -0.3155  0.1525  0.6400
  573MOL0     H79024   9.456   4.856   7.640  1.3204 -0.2672 -1.4418
  573MOL0     H79025   9.434   4.693   7.682 -2.2737  1.6612 -1.7413
  573MOL0     H79026   9.681   4.701   7.778  1.9737  2.5664  0.3808
  573MOL0     H79027   9.651   4.690   7.597 -2.1416 -1.2758  0.3561
  573MOL0     H79028   9.658   4.962   7.613  1.7519 -0.0117 -0.8633
  573MOL0     H79029   9.762   4.939   7.744 -1.8149  1.4454 -0.2692
  573MOL0     H79030   9.806   4.812   7.483 -1.2147 -2.4106  2.6086
  573MOL0     H79031   9.861   4.979   7.529 -1.4931 -1.0174 -3.7111
  573MOL0     H79032   9.993   4.910   7.372  0.7290 -1.2603  0.3743
  573MOL0     H79033  10.309   4.923   7.195  1.1691  1.1125  0.4489
  573MOL0     H79034  10.219   5.079   7.217 -1.7333 -0.5745 -2.5723
  573MOL0     H79035  10.135   4.934   7.183  0.9834 -0.0014 -1.5598
  573MOL0     H79036  10.735   5.055   7.437  0.8350  4.5426  0.3316
  573MOL0     H79037  10.947   5.056   7.315 -0.3885 -1.9254  1.2939
  573MOL0     H79038  11.033   5.285   7.143  2.0576 -0.7598  2.7536
  573MOL0     H79039  11.106   5.143   7.206 -2.0976 -0.2890  1.2536
  573MOL0     H79040  11.133   5.239   6.912 -0.5253 -1.4078 -0.4908
  573MOL0     H79041  11.224   5.316   7.036  0.1861 -0.1220 -1.9648
  573MOL0     H79042  11.238   5.021   6.995 -1.7462  1.6887  2.0280
  573MOL0     H79043  11.319   5.084   7.123 -0.2668 -0.2596  0.3202
  573MOL0     H79044  11.413   5.245   6.923 -2.5273  0.0547 -0.1646
  573MOL0     H79045  11.331   5.130   6.823 -1.8960 -3.0130  1.9542
  573MOL0     H79046  11.586   5.079   7.010  3.7396  2.9646 -2.4919
  573MOL0     H79047  11.488   4.951   6.936  0.4727 -0.8229 -3.2965
  573MOL0     H79048  11.634   5.162   6.778 -2.9281  0.5639  1.0232
  573MOL0     H79049  11.535   5.020   6.731 -3.3230  0.5023  0.9592
  573MOL0     H79050  11.709   4.867   6.842 -1.6202  1.0004 -0.4234
  573MOL0     H79051  11.797   5.002   6.895  1.2364  1.9270 -1.3817
  573MOL0     H79052  11.852   5.081   6.674 -0.0421  0.2985 -0.5003
  573MOL0     H79053  11.770   4.946   6.595  2.9006 -0.6569 -0.8323
  573MOL0     H79054  10.709   5.069   6.957 -1.1542  0.6098 -0.2501
  573MOL0     H79055  10.508   5.035   7.066  0.2158 -4.8205  0.2717
  573MOL0     H79056  10.404   4.845   7.651 -0.0834  3.2441  0.0355
  573MOL0     H79057  10.185   4.797   7.740  0.5689  0.2085  0.1454
  573MOL0     H79058   8.584   5.295   8.297 -2.4375 -1.0403  0.4755
  573MOL0     H79059   8.353   5.290   8.204  0.1142 -0.1791 -0.4127
  573MOL0     H79060   7.950   5.181   8.019 -3.0724  0.7792  0.1542
  573MOL0     H79061   7.746   5.211   7.899  0.2213 -1.3338 -0.5535
  573MOL0     H79062   7.680   5.214   7.535  4.2900 -1.5599  1.1128
  573MOL0     H79063   7.669   5.132   7.690 -0.9053 -1.1562  0.1973
  573MOL0     H79064   7.482   5.255   7.760  0.5573  2.2146 -0.2486
  573MOL0     H79065   7.461   5.144   7.610  2.1996  0.0549 -0.9502
  573MOL0     H79066   7.466   5.454   7.609 -2.5320  0.8843  0.6511
  573MOL0     H79067   7.439   5.340   7.472  1.0055  1.5058  0.0734
  573MOL0     H79068   7.262   5.400   7.730  0.1431 -2.6735  0.7118
  573MOL0     H79069   7.220   5.286   7.612  1.4631 -1.0652 -0.7494
  573MOL0     H79070   7.100   5.629   7.415 -1.9500 -0.1231  1.4426
  573MOL0     H79071   7.942   5.473   7.619 -0.2871 -0.5229 -0.0974
  573MOL0     H79072   8.263   5.411   7.712  1.0860 -0.1249  1.9038
  573MOL0     H79073   8.176   5.519   7.628  0.5392 -2.6007 -0.9531
  573MOL0     H79074   8.223   5.557   7.801 -0.0750 -0.4602  0.7517
  574MOL0     O79075   3.289  10.114   4.219 -0.3427  0.4038 -0.0929
  574MOL0     C79076   3.301  10.063   4.330  0.0168 -0.4106  0.0505
  574MOL0     O79077   3.237   9.956   4.376 -0.1358 -0.5719  0.1177
  574MOL0     C79078   3.114   9.908   4.348 -0.1461  0.0678  0.1399
  574MOL0     C79079   3.077   9.788   4.409 -0.9662  0.0545  0.0937
  574MOL0     C79080   2.944   9.751   4.378 -0.1378  0.1265 -0.9077
  574MOL0     C79081   2.845   9.823   4.301 -0.0817  0.2407 -0.9648
  574MOL0     O79082   2.712   9.787   4.284  0.1022  0.4631 -0.4287
  574MOL0     C79083   2.688   9.649   4.256 -0.5512  0.1242 -0.3396
  574MOL0     C79084   2.574   9.633   4.156  0.6262 -0.3988 -0.6933
  574MOL0     C79085   2.570   9.508   4.071  0.1084  0.7236 -0.1080
  574MOL0     C79086   2.479   9.397   4.129  0.1028 -0.1679  0.1499
  574MOL0     C79087   2.476   9.275   4.043 -0.4829  0.5962  0.3302
  574MOL0     C79088   2.337   9.212   4.066  0.6489  0.2495  1.1186
  574MOL0     C79089   2.334   9.073   3.990  0.5597  0.0016 -0.3660
  574MOL0     C79090   2.207   8.986   4.007  0.3258 -0.9002  0.9325
  574MOL0     N79091   2.207   8.871   3.914 -0.7042 -0.4902 -0.4980
  574MOL0     C79092   2.245   8.745   3.942  1.1319  0.7344 -0.1378
  574MOL0     C79093   2.247   8.686   3.821 -0.9112 -0.5612 -0.4087
  574MOL0     C79094   2.268   8.539   3.796 -0.5533 -0.3635  0.0289
  574MOL0     C79095   2.164   8.454   3.861 -0.3745 -0.2561  0.1257
  574MOL0     C79096   2.021   8.446   3.798  1.6703  0.2371  0.0679
  574MOL0     C79097   1.945   8.313   3.817  0.0641  0.3730  0.4865
  574MOL0     O79098   1.932   8.285   3.961 -0.2941  0.1555 -0.3267
  574MOL0     C79099   1.847   8.186   4.002  0.3892 -0.4281 -0.1426
  574MOL0     C79100   1.779   8.193   4.123  0.1443 -0.8126  0.2597
  574MOL0     C79101   1.680   8.102   4.162  0.2737 -0.1899  0.2939
  574MOL0     C79102   1.622   8.129   4.293  0.2724 -0.2314  0.6068
  574MOL0     C79103   1.655   7.999   4.077 -0.0640 -0.1404  0.2436
  574MOL0     C79104   1.544   7.907   4.092 -0.6780  0.1619  0.5732
  574MOL0     O79105   1.497   7.845   3.982 -0.2025  0.1641  0.7027
  574MOL0     C79106   1.390   7.756   4.008  0.4518  0.0180  0.5117
  574MOL0     C79107   1.262   7.804   3.980 -0.3955  0.2396  0.3735
  574MOL0     C79108   1.147   7.723   3.993 -0.4548 -1.5573  0.4150
  574MOL0     C79109   1.163   7.588   4.037 -0.1099 -0.2673  0.6416
  574MOL0     O79110   1.049   7.515   4.058  0.4908 -0.4215 -0.0362
  574MOL0     C79111   1.035   7.422   4.158  0.7907  0.3133 -0.1303
  574MOL0     C79112   0.890   7.402   4.186 -0.6188  0.5389 -0.2303
  574MOL0     C79113   0.869   7.311   4.307  0.2385 -0.4221  0.4591
  574MOL0     C79114   0.720   7.294   4.342  0.1282  0.0414  0.2631
  574MOL0     C79115   0.678   7.176   4.428 -0.9314  0.1567  0.0004
  574MOL0     C79116   0.524   7.161   4.442  0.4782  0.2098 -0.6064
  574MOL0     C79117   0.491   7.050   4.539 -1.2169  0.2099  0.1579
  574MOL0     C79118   0.348   7.072   4.584 -0.7560 -1.3102 -0.9134
  574MOL0    Cl79119   0.266   6.933   4.629  0.0218  0.1177 -0.2638
  574MOL0     C79120   1.289   7.538   4.073  0.4187  0.0230  0.5619
  574MOL0     C79121   1.404   7.621   4.060  0.5070 -0.1411  0.6707
  574MOL0     O79122   1.492   7.894   4.203  0.1997 -0.4684  0.2417
  574MOL0     C79123   1.730   7.986   3.956 -1.1044  0.3570  0.0455
  574MOL0     C79124   1.818   8.082   3.913 -0.3980  0.4691  0.0941
  574MOL0     N79125   2.227   8.771   3.718  0.0051 -0.3142 -0.3819
  574MOL0     N79126   2.211   8.884   3.779  0.1970  0.3614 -0.0537
  574MOL0     C79127   2.888   9.943   4.252  0.0800 -0.7325 -0.0317
  574MOL0     C79128   3.021   9.983   4.272 -1.1246  0.1372  0.1275
  574MOL0     C79129   3.398  10.111   4.426  0.4197  1.9016 -0.4454
  574MOL0     C79130   3.383  10.246   4.456  0.4325  0.3800 -0.6013
  574MOL0     C79131   3.457  10.300   4.564 -0.1755  0.0554 -0.1754
  574MOL0     C79132   3.555  10.230   4.630  0.6310 -0.4620  0.2722
  574MOL0     O79133   3.628  10.289   4.730  0.8147 -0.2775 -0.9324
  574MOL0     C79134   3.755  10.230   4.778  1.0404  0.2235  0.7038
  574MOL0     C79135   3.843  10.323   4.863 -1.0051 -0.3780  0.4684
  574MOL0     C79136   3.869  10.463   4.803 -0.2436 -0.5271 -0.5118
  574MOL0     C79137   3.759  10.573   4.823  0.3189 -0.1922 -0.1687
  574MOL0     C79138   3.771  10.608   4.964 -0.8596  0.3498  0.1372
  574MOL0     C79139   3.800  10.623   5.079 -0.2131  0.1621  0.5426
  574MOL0     C79140   3.572  10.098   4.596  0.3151 -0.1740  0.0207
  574MOL0     C79141   3.494  10.037   4.498 -0.0646  0.3135  0.5675
  574MOL0     C79142   3.512   9.889   4.481  0.5138  0.3903  0.0538
  574MOL0     H79143   3.132   9.726   4.479  0.2616  0.8561 -0.1487
  574MOL0     H79144   2.902   9.667   4.433 -0.9992  0.7622 -0.5779
  574MOL0     H79145   2.672   9.595   4.350 -0.8122  1.8976  0.6688
  574MOL0     H79146   2.776   9.614   4.202 -1.2118 -0.1625 -1.2466
  574MOL0     H79147   2.479   9.635   4.211 -0.3463 -2.5955 -2.1592
  574MOL0     H79148   2.564   9.724   4.096 -2.3300  0.5158  0.9818
  574MOL0     H79149   2.531   9.530   3.971 -3.8784 -3.2709  0.2463
  574MOL0     H79150   2.668   9.465   4.047 -0.8543 -0.2890 -2.7224
  574MOL0     H79151   2.521   9.371   4.226 -0.5176  1.1855  0.8161
  574MOL0     H79152   2.378   9.436   4.141 -0.3504 -1.4025  0.3953
  574MOL0     H79153   2.561   9.209   4.067 -2.4238 -2.0215  0.4819
  574MOL0     H79154   2.476   9.286   3.934 -0.5313 -0.3074  0.2286
  574MOL0     H79155   2.319   9.197   4.172  2.5987 -1.3025  1.2790
  574MOL0     H79156   2.261   9.270   4.012  1.4794 -2.0028 -2.9257
  574MOL0     H79157   2.414   9.012   4.033 -1.6024 -2.8435 -0.0339
  574MOL0     H79158   2.359   9.080   3.884 -0.5402 -0.6109 -0.6835
  574MOL0     H79159   2.187   8.934   4.101 -0.1967 -4.2658 -0.8622
  574MOL0     H79160   2.119   9.044   3.976  0.5162 -2.0657 -2.1415
  574MOL0     H79161   2.279   8.698   4.033  0.1819  0.4850  0.0975
  574MOL0     H79162   2.360   8.503   3.843  0.6197  2.0528 -0.2347
  574MOL0     H79163   2.271   8.521   3.688 -0.3900  2.5578 -0.5361
  574MOL0     H79164   2.202   8.352   3.858 -0.8965 -0.4309 -1.3906
  574MOL0     H79165   2.153   8.474   3.968  0.1509  0.1533  0.1051
  574MOL0     H79166   1.959   8.528   3.834  1.0232 -0.9233  1.7177
  574MOL0     H79167   2.033   8.468   3.691 -1.1514 -0.9246 -0.5658
  574MOL0     H79168   1.847   8.316   3.769  1.1408  0.5656 -1.8176
  574MOL0     H79169   2.004   8.238   3.764  2.4915  0.9553  2.1994
  574MOL0     H79170   1.802   8.279   4.186 -1.2877 -0.5012  0.3962
  574MOL0     H79171   1.668   8.211   4.348  0.2080  0.6075 -0.5479
  574MOL0     H79172   1.641   8.041   4.355  2.3869 -0.9221 -0.8894
  574MOL0     H79173   1.516   8.150   4.277  0.1674 -1.4979 -0.6021
  574MOL0     H79174   1.259   7.907   3.946  3.1380  1.3261  2.7534
  574MOL0     H79175   1.053   7.757   3.950  0.6665  1.5736  0.1451
  574MOL0     H79176   1.089   7.332   4.125  0.5772  0.5457 -1.1278
  574MOL0     H79177   1.087   7.461   4.246 -0.8726  2.0057  0.1474
  574MOL0     H79178   0.845   7.498   4.212 -1.4490 -0.4774  2.4979
  574MOL0     H79179   0.844   7.359   4.096  0.9387  0.6742 -1.1291
  574MOL0     H79180   0.912   7.355   4.398  0.0966 -1.4276  1.0289
  574MOL0     H79181   0.909   7.213   4.278  0.8901  0.2256 -0.9415
  574MOL0     H79182   0.670   7.273   4.247 -0.3282  0.5687  0.3828
  574MOL0     H79183   0.689   7.392   4.379  1.5071  0.7896 -0.4894
  574MOL0     H79184   0.723   7.082   4.394 -1.3525 -0.6974  1.6625
  574MOL0     H79185   0.732   7.186   4.523  4.1191  0.2942 -2.5594
  574MOL0     H79186   0.486   7.129   4.345  1.0223  1.3633 -1.2226
  574MOL0     H79187   0.474   7.251   4.481 -1.4442 -1.6803  1.5708
  574MOL0     H79188   0.563   7.037   4.620  1.1540 -1.8648 -2.0752
  574MOL0     H79189   0.491   6.949   4.496 -1.7773 -0.2431  1.1868
  574MOL0     H79190   0.296   7.113   4.497 -0.0560  0.1462 -0.6725
  574MOL0     H79191   0.334   7.143   4.667 -0.9810 -0.9296 -1.2745
  574MOL0     H79192   1.291   7.434   4.102 -0.6039 -1.0095 -2.6063
  574MOL0     H79193   1.504   7.590   4.089  1.3825  2.3793  0.6343
  574MOL0     H79194   1.722   7.894   3.899  1.8652 -0.7093  1.1192
  574MOL0     H79195   1.858   8.063   3.814 -0.3944 -3.2077  0.6640
  574MOL0     H79196   2.814  10.004   4.200  0.4604 -1.3648 -1.3450
  574MOL0     H79197   3.054  10.079   4.233  1.3789 -1.6413 -2.5782
  574MOL0     H79198   3.303  10.301   4.409 -0.4582 -1.3965 -1.2396
  574MOL0     H79199   3.439  10.402   4.594 -0.3755 -0.1259  0.3298
  574MOL0     H79200   3.729  10.139   4.832 -1.6978  2.1648  2.9596
  574MOL0     H79201   3.824  10.196   4.700  2.2580  0.8060  1.4886
  574MOL0     H79202   3.939  10.270   4.859 -1.6809 -1.5878 -1.9101
  574MOL0     H79203   3.806  10.333   4.965  1.1416  1.0502  1.1745
  574MOL0     H79204   3.960  10.505   4.846  0.6283 -2.0576 -0.7879
  574MOL0     H79205   3.887  10.450   4.696  3.3080 -0.8894  0.0196
  574MOL0     H79206   3.658  10.533   4.813  0.5351 -2.1603  3.6647
  574MOL0     H79207   3.762  10.661   4.758  2.1477 -0.1886 -0.1340
  574MOL0     H79208   3.828  10.632   5.182  1.3600 -2.2658  0.4148
  574MOL0     H79209   3.647  10.036   4.645  1.8073 -0.0740 -2.0244
  574MOL0     H79210   3.458   9.839   4.562 -0.4138  1.3299  0.0235
  574MOL0     H79211   3.471   9.852   4.386  2.2337 -2.0152  0.1350
  574MOL0     H79212   3.618   9.860   4.482  0.4504  0.1602  0.1052
  575MOL0     O79213   7.135  10.372   1.111 -0.2212  0.6116 -0.0778
  575MOL0     C79214   7.088  10.462   1.034 -0.1739  0.9004 -0.8614
  575MOL0     O79215   7.029  10.577   1.074 -0.8918 -0.4867  0.3584
  575MOL0     C79216   7.022  10.612   1.211 -0.2032 -0.0221  0.4605
  575MOL0     C79217   7.096  10.715   1.257 -0.9477 -0.5380  0.3836
  575MOL0     C79218   7.080  10.754   1.391  1.2696 -0.1038 -0.0220
  575MOL0     C79219   6.983  10.698   1.480 -1.3283  0.9812  0.2819
  575MOL0     O79220   6.961  10.743   1.609 -0.7664 -0.1577  0.6052
  575MOL0     C79221   6.943  10.654   1.714 -0.7308  0.4983  0.4897
  575MOL0     C79222   7.026  10.704   1.837  0.4606 -0.2011  1.4168
  575MOL0     C79223   7.000  10.602   1.960 -0.4310 -0.0801  0.3650
  575MOL0     C79224   6.865  10.641   2.035 -0.3327  0.0056  0.0964
  575MOL0     C79225   6.813  10.538   2.138  0.0774 -1.2686  0.0622
  575MOL0     C79226   6.918  10.502   2.242 -0.0684  0.6820  0.7622
  575MOL0     C79227   6.852  10.426   2.358  0.1085  0.4103  0.1485
  575MOL0     C79228   6.957  10.392   2.468  0.1916  0.1336  0.5703
  575MOL0     N79229   7.000  10.511   2.536 -0.6492 -0.6239  0.7730
  575MOL0     C79230   6.999  10.523   2.671  0.0593 -0.3219 -0.3858
  575MOL0     C79231   7.046  10.653   2.705  0.2536  0.3253 -0.0122
  575MOL0     C79232   7.079  10.706   2.840 -0.0023  0.7161 -0.9332
  575MOL0     C79233   7.213  10.757   2.870  0.0088  0.0372 -0.7028
  575MOL0     C79234   7.320  10.656   2.820 -0.3185  0.8202  0.8517
  575MOL0     C79235   7.460  10.671   2.880  0.1862 -0.2035  0.0964
  575MOL0     O79236   7.503  10.812   2.871 -0.3803  0.8476  0.3738
  575MOL0     C79237   7.632  10.837   2.829  0.1364  0.3829 -0.0936
  575MOL0     C79238   7.647  10.954   2.753 -0.0430 -0.6748  0.8449
  575MOL0     C79239   7.782  10.980   2.715  0.1742 -0.4466  0.7299
  575MOL0     C79240   7.793  11.112   2.638 -0.1933  0.1579  0.4569
  575MOL0     C79241   7.891  10.893   2.743  0.7760 -0.8289  1.0186
  575MOL0     C79242   8.027  10.904   2.673 -1.3016 -0.2924 -0.4255
  575MOL0     O79243   8.134  10.851   2.746  0.6159 -0.0489 -0.1928
  575MOL0     C79244   8.258  10.867   2.692 -1.3117  0.3051  0.1432
  575MOL0     C79245   8.315  10.983   2.729  0.1260  0.0137  0.1737
  575MOL0     C79246   8.448  11.012   2.707 -0.5040 -0.7582  0.0121
  575MOL0     C79247   8.524  10.917   2.634 -0.1271 -0.1585  0.3117
  575MOL0     O79248   8.659  10.933   2.608  0.2584 -0.9207  0.3150
  575MOL0     C79249   8.722  11.051   2.574  0.1057 -0.8611 -0.7092
  575MOL0     C79250   8.858  11.022   2.521 -0.0417 -0.2245  0.7359
  575MOL0     C79251   8.958  10.950   2.607  0.2042  0.0612  0.0344
  575MOL0     C79252   9.079  10.924   2.529 -0.1501  0.5665  0.8621
  575MOL0     C79253   9.183  10.864   2.628 -0.9397  1.3011  0.3977
  575MOL0     C79254   9.291  10.780   2.558  0.7606 -0.1616  0.5688
  575MOL0     C79255   9.398  10.707   2.642 -0.7189  0.3771  0.1807
  575MOL0     C79256   9.511  10.797   2.691 -0.0751  0.1019 -0.5136
  575MOL0    Cl79257   9.651  10.698   2.738  0.1995 -0.2117  0.7620
  575MOL0     C79258   8.470  10.798   2.584 -0.2957 -0.2541  0.4131
  575MOL0     C79259   8.333  10.775   2.616 -0.2877 -0.4652  0.6547
  575MOL0     O79260   8.029  10.957   2.561 -0.9113  0.0895 -0.8419
  575MOL0     C79261   7.868  10.780   2.823  0.0888 -0.3199  0.4488
  575MOL0     C79262   7.736  10.756   2.870 -0.5639  0.0092 -0.0026
  575MOL0     N79263   7.082  10.710   2.583  0.1998 -0.3418  0.1822
  575MOL0     N79264   7.059  10.624   2.484  0.0747  0.0226  0.1009
  575MOL0     C79265   6.913  10.580   1.423  0.0219  0.4839  0.1018
  575MOL0     C79266   6.931  10.540   1.291  0.9629 -0.8344  0.9509
  575MOL0     C79267   7.108  10.457   0.887 -0.2776  0.3482 -0.5144
  575MOL0     C79268   7.146  10.572   0.819 -0.6059 -0.5368 -0.1177
  575MOL0     C79269   7.159  10.575   0.684 -0.3314  0.8433  0.0586
  575MOL0     C79270   7.156  10.459   0.607  0.0920  0.0589 -0.1415
  575MOL0     O79271   7.173  10.483   0.473  0.4062 -0.1511  0.1176
  575MOL0     C79272   7.131  10.380   0.382  0.4799  0.1045 -0.4067
  575MOL0     C79273   7.216  10.390   0.252  0.3118 -0.4115 -0.5359
  575MOL0     C79274   7.368  10.358   0.291  1.1325  0.3501  0.2553
  575MOL0     C79275   7.448  10.352   0.162  0.4043 -0.4402 -0.2532
  575MOL0     C79276   7.591  10.334   0.177  0.9999 -0.6488 -0.4300
  575MOL0     C79277   7.705  10.299   0.181  1.1358 -0.3126 -0.0124
  575MOL0     C79278   7.126  10.338   0.669 -0.2635  0.1741 -0.6256
  575MOL0     C79279   7.102  10.339   0.811 -0.4456  0.5021  0.5985
  575MOL0     C79280   7.063  10.210   0.867  0.5778  0.6988 -0.5168
  575MOL0     H79281   7.157  10.782   1.197 -0.3255 -0.0330  1.5647
  575MOL0     H79282   7.126  10.843   1.433 -3.8248  1.8831  2.1204
  575MOL0     H79283   6.978  10.555   1.685 -0.5716  1.4174 -2.8390
  575MOL0     H79284   6.837  10.651   1.742 -0.9551 -0.3743 -0.3881
  575MOL0     H79285   7.132  10.717   1.816  0.6782  3.2762  3.7738
  575MOL0     H79286   6.989  10.800   1.873 -1.5414 -0.9820  1.5959
  575MOL0     H79287   7.003  10.500   1.920  0.1817  0.4721 -1.0903
  575MOL0     H79288   7.081  10.614   2.032 -0.5577  1.1860  0.3234
  575MOL0     H79289   6.882  10.737   2.085 -1.4074 -0.3394  1.1584
  575MOL0     H79290   6.793  10.656   1.954  1.3211  2.7437 -1.0298
  575MOL0     H79291   6.784  10.448   2.083 -2.2051  0.3810 -1.6467
  575MOL0     H79292   6.728  10.579   2.194  0.8955  5.4521 -2.6542
  575MOL0     H79293   7.006  10.448   2.204 -2.7054 -3.0256 -0.6737
  575MOL0     H79294   6.947  10.602   2.275 -2.3724  1.4238  0.6812
  575MOL0     H79295   6.815  10.328   2.329  3.4278 -1.2554  0.9958
  575MOL0     H79296   6.780  10.498   2.399 -1.2734 -1.8574  1.9243
  575MOL0     H79297   6.906  10.343   2.551  0.3466  1.0357  1.2185
  575MOL0     H79298   7.040  10.334   2.427 -0.1266 -0.6863  1.0721
  575MOL0     H79299   6.940  10.454   2.729 -0.9753 -0.3065 -1.3858
  575MOL0     H79300   7.062  10.621   2.908 -2.0557 -0.9476 -3.3253
  575MOL0     H79301   7.018  10.792   2.870  0.0262  0.6385 -0.6447
  575MOL0     H79302   7.229  10.852   2.818  1.6375  1.4193  2.0733
  575MOL0     H79303   7.227  10.779   2.976  1.5697 -1.3181 -0.5924
  575MOL0     H79304   7.299  10.548   2.821  2.8391  0.0062 -1.8384
  575MOL0     H79305   7.339  10.676   2.714  1.7130 -0.5346  0.8814
  575MOL0     H79306   7.463  10.641   2.985 -0.8979 -1.1870 -0.1378
  575MOL0     H79307   7.515  10.601   2.817 -2.2753 -2.9335  0.7813
  575MOL0     H79308   7.560  11.010   2.723  0.5089  0.5655  1.4686
  575MOL0     H79309   7.709  11.179   2.659 -1.2593 -0.3172 -1.9744
  575MOL0     H79310   7.797  11.102   2.529  1.6008 -0.7521  0.5718
  575MOL0     H79311   7.883  11.157   2.680  0.4572 -0.3772 -0.3357
  575MOL0     H79312   8.260  11.064   2.775  0.5073  0.5859 -0.3617
  575MOL0     H79313   8.488  11.106   2.742  1.6936 -1.9076  0.8221
  575MOL0     H79314   8.655  11.103   2.505 -3.8517 -0.5357  2.9359
  575MOL0     H79315   8.726  11.117   2.661  0.3455  1.7506 -2.5688
  575MOL0     H79316   8.853  10.980   2.420 -0.9804  2.9046 -0.6470
  575MOL0     H79317   8.901  11.120   2.495 -1.2670  0.1323 -0.0128
  575MOL0     H79318   8.915  10.856   2.643  1.4826 -0.4046  0.3911
  575MOL0     H79319   8.967  11.004   2.702 -1.2845 -2.8782  2.0275
  575MOL0     H79320   9.118  11.018   2.488  0.3774 -0.5187 -1.3136
  575MOL0     H79321   9.067  10.864   2.438 -2.0746  3.5703 -1.0146
  575MOL0     H79322   9.233  10.947   2.679  0.6045  1.5161 -1.3541
  575MOL0     H79323   9.125  10.794   2.688  1.4351 -1.5164 -0.3924
  575MOL0     H79324   9.340  10.857   2.498  0.6496 -0.6065 -0.0973
  575MOL0     H79325   9.244  10.717   2.482  1.4436  4.4114 -4.1565
  575MOL0     H79326   9.445  10.630   2.580  0.5207 -1.1079  2.7893
  575MOL0     H79327   9.349  10.651   2.723  0.4206 -0.8114  0.0773
  575MOL0     H79328   9.479  10.862   2.773  0.1671  0.6703 -0.8669
  575MOL0     H79329   9.542  10.865   2.610 -1.7970 -1.8216 -2.9660
  575MOL0     H79330   8.522  10.736   2.511 -4.2790 -2.9787 -0.4306
  575MOL0     H79331   8.275  10.692   2.579 -1.3351  0.6855 -0.3565
  575MOL0     H79332   7.949  10.711   2.843  1.3643  0.9377 -0.2005
  575MOL0     H79333   7.728  10.663   2.925  1.4669 -0.1128  0.1347
  575MOL0     H79334   6.840  10.526   1.482 -1.7223  3.6083  0.9982
  575MOL0     H79335   6.874  10.454   1.258 -1.1871  0.8361  0.1046
  575MOL0     H79336   7.166  10.665   0.873  1.6214 -1.6747  1.1886
  575MOL0     H79337   7.183  10.666   0.631  1.3464 -0.0745 -0.8372
  575MOL0     H79338   7.147  10.278   0.420  1.3641  0.0610 -0.8890
  575MOL0     H79339   7.023  10.393   0.368  0.9396  3.1337 -1.9342
  575MOL0     H79340   7.206  10.490   0.207 -2.3990 -1.3411 -2.2620
  575MOL0     H79341   7.177  10.326   0.172  1.1798 -1.8602  0.1698
  575MOL0     H79342   7.401  10.439   0.356 -0.4735 -0.2357  1.8976
  575MOL0     H79343   7.377  10.261   0.341  1.8540  0.4129  0.2598
  575MOL0     H79344   7.416  10.439   0.104  0.5658  0.1460  0.5235
  575MOL0     H79345   7.413  10.265   0.106  1.8478 -0.5563 -1.0158
  575MOL0     H79346   7.804  10.258   0.173  1.4623 -0.1311  2.4566
  575MOL0     H79347   7.133  10.239   0.627  0.5592 -1.1705  2.4414
  575MOL0     H79348   7.050  10.134   0.789  0.6834 -0.8834  0.9705
  575MOL0     H79349   7.131  10.176   0.945 -2.3797 -0.9696  1.5476
  575MOL0     H79350   6.962  10.223   0.908  0.5437  0.8877 -0.6562
  576MOL0     O79351   1.245   9.333   1.602  0.5670  0.5754 -0.1729
  576MOL0     C79352   1.150   9.253   1.595 -0.2364 -0.4344 -0.1822
  576MOL0     O79353   1.096   9.201   1.486 -0.3368  0.7731 -0.0139
  576MOL0     C79354   1.133   9.254   1.369 -0.2905 -0.1538  0.1708
  576MOL0     C79355   1.084   9.379   1.325 -0.3540  0.2381  0.5273
  576MOL0     C79356   1.131   9.433   1.204 -0.2963  1.3932 -0.0117
  576MOL0     C79357   1.214   9.362   1.124  0.5017 -0.7136  0.0680
  576MOL0     O79358   1.255   9.403   0.996  0.2893 -0.4339  0.1459
  576MOL0     C79359   1.258   9.543   0.963  0.4776  0.2359  0.0542
  576MOL0     C79360   1.331   9.568   0.827 -0.3529  0.5186  0.8158
  576MOL0     C79361   1.325   9.713   0.769 -0.0141  0.4255 -0.3960
  576MOL0     C79362   1.367   9.830   0.865  0.6873 -0.3470 -0.2783
  576MOL0     C79363   1.319   9.969   0.821  0.1910 -0.3765  1.0542
  576MOL0     C79364   1.363  10.002   0.675 -0.5130 -0.1026 -0.7758
  576MOL0     C79365   1.316  10.141   0.628  0.1088 -0.0063  0.2550
  576MOL0     C79366   1.344  10.151   0.481 -0.4987 -0.0755  0.2914
  576MOL0     N79367   1.292  10.274   0.429  0.5546  0.0480  0.8324
  576MOL0     C79368   1.342  10.403   0.455  0.2320  0.5005 -0.0095
  576MOL0     C79369   1.273  10.480   0.363 -0.8822 -0.5260 -0.1125
  576MOL0     C79370   1.319  10.617   0.316 -0.1242 -0.5024 -0.0302
  576MOL0     C79371   1.459  10.628   0.259 -0.4155 -0.1806 -0.8717
  576MOL0     C79372   1.488  10.520   0.155  0.0101  0.2411 -0.6545
  576MOL0     C79373   1.624  10.519   0.094  0.1180 -0.1169 -0.2801
  576MOL0     O79374   1.709  10.495   0.201 -0.6242 -0.1189  0.3824
  576MOL0     C79375   1.822  10.417   0.176 -0.1550  0.1694  0.0374
  576MOL0     C79376   1.852  10.335   0.070  1.2769  0.1892  0.7270
  576MOL0     C79377   1.971  10.257   0.057  0.2521  0.7717  0.1454
  576MOL0     C79378   2.007  10.199  -0.081  1.1876 -0.2975 -0.1050
  576MOL0     C79379   2.055  10.254   0.169  0.2982 -0.7374  0.0646
  576MOL0     C79380   2.187  10.186   0.169 -0.0959 -0.7376 -0.0039
  576MOL0     O79381   2.275  10.233   0.270 -0.2697 -0.3828 -0.4927
  576MOL0     C79382   2.381  10.153   0.302  0.3621 -0.2757 -0.1621
  576MOL0     C79383   2.497  10.224   0.331 -0.2344 -0.6579 -0.0207
  576MOL0     C79384   2.610  10.147   0.361  0.0051 -0.3110 -0.1804
  576MOL0     C79385   2.607  10.013   0.363 -1.2208 -0.0722 -0.7185
  576MOL0     O79386   2.721   9.953   0.407  0.0681 -0.1644  0.0340
  576MOL0     C79387   2.716   9.841   0.497  0.7933 -0.1357  0.2464
  576MOL0     C79388   2.846   9.804   0.570 -0.5623 -0.1873  0.3008
  576MOL0     C79389   2.823   9.707   0.688  0.1164 -0.0895  0.2986
  576MOL0     C79390   2.932   9.731   0.779  0.0697 -0.3953 -0.6062
  576MOL0     C79391   2.925   9.642   0.905  0.0925  0.0761 -0.3268
  576MOL0     C79392   2.808   9.677   0.997 -0.5741  0.3561  0.2074
  576MOL0     C79393   2.823   9.628   1.143 -0.1502  0.1633 -0.2130
  576MOL0     C79394   2.758   9.715   1.253  0.1044  0.7550  0.0570
  576MOL0    Cl79395   2.793   9.637   1.424  0.0373 -0.2313  0.2109
  576MOL0     C79396   2.487   9.948   0.341 -0.3088 -1.0763  0.2922
  576MOL0     C79397   2.376  10.015   0.295  0.3741  0.5472  0.2198
  576MOL0     O79398   2.225  10.115   0.073 -0.0395 -0.2975 -0.5154
  576MOL0     C79399   2.027  10.334   0.282 -0.2547  0.5402  0.9467
  576MOL0     C79400   1.916  10.424   0.279 -0.2827  1.2682  0.6158
  576MOL0     N79401   1.188  10.402   0.285  0.2485 -0.4303  0.0926
  576MOL0     N79402   1.200  10.282   0.321 -0.1413 -0.3195  0.0417
  576MOL0     C79403   1.261   9.237   1.164 -0.1893  0.1795  0.1845
  576MOL0     C79404   1.219   9.186   1.288  0.2206 -0.1614 -0.5779
  576MOL0     C79405   1.077   9.220   1.720 -0.1135 -0.5427 -0.6421
  576MOL0     C79406   1.005   9.324   1.794  0.4276  0.0434 -1.2570
  576MOL0     C79407   0.964   9.296   1.921 -0.1842  0.5908 -0.3829
  576MOL0     C79408   0.974   9.168   1.979  0.7548 -0.5173  0.5125
  576MOL0     O79409   0.919   9.143   2.103 -0.1966 -0.2811 -0.2890
  576MOL0     C79410   0.836   9.234   2.178  0.8768  0.2559 -0.3813
  576MOL0     C79411   0.925   9.336   2.257  0.0090 -0.0227 -0.4077
  576MOL0     C79412   0.967   9.273   2.392 -0.4204 -0.5535  0.0806
  576MOL0     C79413   1.091   9.337   2.454  0.5898 -0.7601  0.6802
  576MOL0     C79414   1.071   9.482   2.454 -0.4040 -0.2679 -0.0348
  576MOL0     C79415   1.057   9.603   2.448 -0.0473  0.7151 -0.1994
  576MOL0     C79416   1.035   9.069   1.911 -0.9694 -0.1584 -0.1855
  576MOL0     C79417   1.099   9.091   1.783 -0.9602  0.0434 -0.7620
  576MOL0     C79418   1.188   8.993   1.711 -0.0835  0.9653 -0.2155
  576MOL0     H79419   1.020   9.437   1.391 -0.6667 -1.2165  1.5502
  576MOL0     H79420   1.077   9.519   1.165  0.1241  2.3487  1.4211
  576MOL0     H79421   1.318   9.606   1.029  1.2606  1.0987 -1.4288
  576MOL0     H79422   1.159   9.589   0.954  0.4130 -0.0091 -0.5091
  576MOL0     H79423   1.437   9.540   0.836 -0.8949 -1.4399  1.5882
  576MOL0     H79424   1.289   9.503   0.750 -0.1131  1.7227 -0.3773
  576MOL0     H79425   1.388   9.709   0.680 -1.4611 -1.1702 -1.4113
  576MOL0     H79426   1.224   9.728   0.730  0.3396 -2.2359 -2.6031
  576MOL0     H79427   1.312   9.822   0.959 -5.3522 -0.2886 -3.2980
  576MOL0     H79428   1.474   9.825   0.884  0.7839  0.1762 -0.6638
  576MOL0     H79429   1.369  10.039   0.889  2.4065 -2.0324  1.2354
  576MOL0     H79430   1.210   9.981   0.819  0.3175  0.8479 -1.3875
  576MOL0     H79431   1.472  10.011   0.675 -0.4971  0.3470 -3.3327
  576MOL0     H79432   1.335   9.922   0.607 -1.3488 -0.3833 -0.1188
  576MOL0     H79433   1.362  10.224   0.681  3.3190 -2.2415  1.3050
  576MOL0     H79434   1.211  10.150   0.655  0.7096 -0.8149  3.2078
  576MOL0     H79435   1.453  10.156   0.473 -0.3452  1.6031  2.4486
  576MOL0     H79436   1.312  10.058   0.433 -2.4489 -0.1759  1.6293
  576MOL0     H79437   1.432  10.423   0.511  0.2928 -1.2517  0.5673
  576MOL0     H79438   1.307  10.694   0.393  2.1269  0.5166 -0.6236
  576MOL0     H79439   1.237  10.645   0.248  1.8604 -0.5834 -2.6338
  576MOL0     H79440   1.471  10.725   0.210  1.2078 -0.5482 -1.2887
  576MOL0     H79441   1.528  10.613   0.342 -0.7011 -0.7295 -0.7286
  576MOL0     H79442   1.461  10.420   0.190  1.5806  0.1842  0.5069
  576MOL0     H79443   1.420  10.553   0.076  0.5007 -1.6579 -1.9375
  576MOL0     H79444   1.615  10.448   0.011  1.9521 -0.6164 -0.0883
  576MOL0     H79445   1.643  10.618   0.051  1.4893  0.0914  0.7532
  576MOL0     H79446   1.778  10.337  -0.009  0.3280 -2.8245  1.4410
  576MOL0     H79447   1.926  10.219  -0.151 -1.3934 -0.4576  2.6547
  576MOL0     H79448   2.013  10.090  -0.079  1.4875 -0.2917  2.4519
  576MOL0     H79449   2.103  10.242  -0.113  0.9716 -1.7561 -3.0907
  576MOL0     H79450   2.494  10.331   0.318  0.9083 -0.7177 -0.9839
  576MOL0     H79451   2.700  10.204   0.380 -0.9847  2.1830 -2.2768
  576MOL0     H79452   2.644   9.853   0.579 -2.4391 -2.2871 -2.0398
  576MOL0     H79453   2.680   9.757   0.437  2.2251 -0.7330  0.1830
  576MOL0     H79454   2.916   9.758   0.499 -0.3343  1.7487 -0.8281
  576MOL0     H79455   2.902   9.891   0.604 -1.4157 -0.0810  1.4815
  576MOL0     H79456   2.833   9.609   0.641  1.2101  0.4892 -0.7501
  576MOL0     H79457   2.729   9.724   0.740 -0.0369 -1.6104  0.5663
  576MOL0     H79458   2.916   9.833   0.817 -4.6742 -1.7663  2.0119
  576MOL0     H79459   3.024   9.714   0.724 -0.0183 -0.6451 -0.6766
  576MOL0     H79460   2.921   9.536   0.877 -0.6686  0.1769 -0.6387
  576MOL0     H79461   3.021   9.649   0.958 -0.4728  0.1843  0.7153
  576MOL0     H79462   2.717   9.625   0.965  0.0629 -2.5355  2.6442
  576MOL0     H79463   2.791   9.785   0.993  0.8283  0.5707 -0.8644
  576MOL0     H79464   2.930   9.614   1.160  0.3524 -1.8416 -3.8651
  576MOL0     H79465   2.781   9.527   1.150  0.4586 -0.1209 -0.5523
  576MOL0     H79466   2.652   9.726   1.228  0.1506 -0.8474 -1.0155
  576MOL0     H79467   2.807   9.813   1.251  0.2070  0.7391  1.0814
  576MOL0     H79468   2.482   9.840   0.337  1.1137 -1.1305 -0.9776
  576MOL0     H79469   2.278   9.972   0.276  0.8095 -0.0968 -0.6244
  576MOL0     H79470   2.092  10.331   0.368  1.2315 -0.1432 -0.1473
  576MOL0     H79471   1.901  10.499   0.356 -0.3500  0.2619  1.6153
  576MOL0     H79472   1.338   9.183   1.109 -0.2141  0.7741 -0.4442
  576MOL0     H79473   1.255   9.091   1.325  0.1197  0.6499  1.7367
  576MOL0     H79474   0.981   9.422   1.754  0.0473  0.1739 -0.7209
  576MOL0     H79475   0.913   9.369   1.983 -0.9757 -1.7279  1.8698
  576MOL0     H79476   0.772   9.297   2.115  1.3720  1.6163  0.4437
  576MOL0     H79477   0.763   9.167   2.224  2.6039 -2.6925 -1.6205
  576MOL0     H79478   0.881   9.435   2.272  2.0397  0.7255  0.9703
  576MOL0     H79479   1.015   9.359   2.200 -0.0242 -0.9944 -0.8704
  576MOL0     H79480   0.882   9.283   2.461  1.5251  2.5858  2.2366
  576MOL0     H79481   0.974   9.165   2.376  2.7701 -0.1987 -1.5824
  576MOL0     H79482   1.180   9.316   2.393 -1.2749 -2.5076 -1.6471
  576MOL0     H79483   1.113   9.307   2.556  2.1120 -1.3762  0.2040
  576MOL0     H79484   1.035   9.708   2.450 -2.1185  0.3570 -1.0742
  576MOL0     H79485   1.045   8.972   1.959 -0.9069  1.1347  2.6506
  576MOL0     H79486   1.272   8.994   1.781 -0.6275  1.4731  0.4381
  576MOL0     H79487   1.138   8.896   1.708 -0.6928  1.2975 -1.9498
  576MOL0     H79488   1.216   9.022   1.609  0.5634 -1.5329 -0.8327
  577MOL0     O79489  10.322   3.565   0.572 -0.6184 -0.5269 -0.2105
  577MOL0     C79490  10.248   3.481   0.515  0.2993  0.1813  0.5998
  577MOL0     O79491  10.239   3.452   0.385 -0.5636  0.0751  0.3944
  577MOL0     C79492  10.328   3.514   0.301 -0.8340  0.0794  0.6169
  577MOL0     C79493  10.416   3.438   0.217 -0.2220  0.1593 -0.0140
  577MOL0     C79494  10.520   3.488   0.144 -0.4487 -0.7665 -0.6299
  577MOL0     C79495  10.540   3.632   0.134 -0.4735  0.6961  0.4548
  577MOL0     O79496  10.649   3.684   0.066 -0.7267  0.1068 -0.1333
  577MOL0     C79497  10.698   3.607  -0.042  0.2728 -0.3399  0.7342
  577MOL0     C79498  10.773   3.700  -0.133 -0.2082  0.1917  0.4698
  577MOL0     C79499  10.697   3.820  -0.188  0.8805 -0.5631  0.3192
  577MOL0     C79500  10.736   3.894  -0.311 -0.1669  0.0059  0.2245
  577MOL0     C79501  10.752   3.794  -0.422  0.3231 -0.7965 -0.1297
  577MOL0     C79502  10.791   3.872  -0.548 -0.5602 -0.2869  0.4088
  577MOL0     C79503  10.825   3.778  -0.669  0.4319 -1.0878 -0.6554
  577MOL0     C79504  10.887   3.870  -0.782  0.0313 -0.3194  0.3471
  577MOL0     N79505  10.798   3.990  -0.825 -0.2396  0.5759 -0.4004
  577MOL0     C79506  10.681   3.973  -0.881  0.3475 -0.5397  0.1756
  577MOL0     C79507  10.620   4.091  -0.876  0.3290 -0.9987  0.6474
  577MOL0     C79508  10.489   4.121  -0.940 -0.1367  0.2073 -0.8821
  577MOL0     C79509  10.428   4.263  -0.928  0.4247  0.3931 -0.0529
  577MOL0     C79510  10.517   4.351  -1.013  0.0057 -0.4302 -1.0949
  577MOL0     C79511  10.434   4.418  -1.117  0.9403 -0.2178  0.3652
  577MOL0     O79512  10.516   4.470  -1.231 -0.3383 -0.0514  0.1204
  577MOL0     C79513  10.462   4.538  -1.338  0.0179 -0.0542  0.2687
  577MOL0     C79514  10.548   4.557  -1.447 -0.0349 -0.5957  0.0977
  577MOL0     C79515  10.511   4.643  -1.553 -0.6135  0.3818 -0.3336
  577MOL0     C79516  10.619   4.679  -1.658 -0.2934  0.4486  0.1486
  577MOL0     C79517  10.380   4.699  -1.550 -0.0884  0.4617 -0.0866
  577MOL0     C79518  10.349   4.812  -1.642 -0.3123 -0.3420 -0.5748
  577MOL0     O79519  10.288   4.916  -1.572  0.4913  0.2419 -0.0203
  577MOL0     C79520  10.300   5.041  -1.615  0.1465  0.0632 -0.2980
  577MOL0     C79521  10.218   5.094  -1.719  0.1371  0.2730  0.0726
  577MOL0     C79522  10.206   5.232  -1.751  0.4027  0.3763  0.6843
  577MOL0     C79523  10.294   5.330  -1.695  0.0214  0.4300 -1.1367
  577MOL0     O79524  10.311   5.462  -1.729  0.4572 -0.0147  0.0027
  577MOL0     C79525  10.213   5.528  -1.806  0.4873  0.1334 -0.1251
  577MOL0     C79526  10.292   5.655  -1.852 -0.6243 -0.1225  0.6730
  577MOL0     C79527  10.207   5.744  -1.942 -0.7998  0.1630  0.2849
  577MOL0     C79528  10.296   5.869  -1.983  0.2132 -1.0541  1.0322
  577MOL0     C79529  10.215   5.965  -2.070 -0.3867 -1.2799 -0.8680
  577MOL0     C79530  10.173   5.910  -2.207  0.4890 -0.4757  0.0734
  577MOL0     C79531  10.102   6.025  -2.284 -0.0215 -0.0347  0.9509
  577MOL0     C79532  10.007   5.966  -2.388 -0.2070  0.0040 -0.1360
  577MOL0    Cl79533   9.921   6.097  -2.467 -0.0882 -0.2867 -0.0634
  577MOL0     C79534  10.384   5.275  -1.599 -0.6988  0.5955  0.1065
  577MOL0     C79535  10.386   5.139  -1.559  0.2350 -0.4200 -0.1822
  577MOL0     O79536  10.384   4.817  -1.760  0.3714 -0.1795 -0.2220
  577MOL0     C79537  10.288   4.671  -1.448  1.2257 -0.1624 -0.0322
  577MOL0     C79538  10.322   4.592  -1.340 -0.9172  0.1516  0.1117
  577MOL0     N79539  10.700   4.184  -0.806  0.9112 -0.3628  0.2419
  577MOL0     N79540  10.793   4.114  -0.762 -0.3680 -1.1239  0.3101
  577MOL0     C79541  10.449   3.711   0.219  0.0767  0.0008 -0.1338
  577MOL0     C79542  10.348   3.649   0.297 -0.7684 -0.9176 -0.7019
  577MOL0     C79543  10.161   3.405   0.604  0.3585 -0.0501  0.4962
  577MOL0     C79544  10.223   3.343   0.710 -0.5768  0.4542 -0.0128
  577MOL0     C79545  10.134   3.267   0.792 -0.5478  1.0095  0.0475
  577MOL0     C79546   9.997   3.252   0.773  0.6992  0.1468 -0.5688
  577MOL0     O79547   9.925   3.180   0.868 -0.0703 -0.1683  0.4086
  577MOL0     C79548   9.830   3.082   0.817 -0.2313  0.8468  0.4315
  577MOL0     C79549   9.774   2.988   0.920 -0.4940  0.4908 -0.3663
  577MOL0     C79550   9.889   2.922   0.992 -0.5201  1.1801  0.1017
  577MOL0     C79551   9.824   2.830   1.106 -0.0012  0.3398  1.6129
  577MOL0     C79552   9.932   2.749   1.175 -0.1895 -1.2104 -1.0340
  577MOL0     C79553  10.014   2.672   1.230 -0.1789  0.0972  0.2035
  577MOL0     C79554   9.946   3.308   0.656 -0.0818 -0.3839 -0.1855
  577MOL0     C79555  10.026   3.385   0.569  0.6383 -0.5282 -0.1318
  577MOL0     C79556   9.959   3.470   0.461 -0.4015 -0.0125  0.8015
  577MOL0     H79557  10.402   3.331   0.222 -1.0542  0.2349 -0.5956
  577MOL0     H79558  10.595   3.420   0.106  0.4410 -1.8099  2.6540
  577MOL0     H79559  10.625   3.560  -0.108 -1.8619 -0.2469  2.9184
  577MOL0     H79560  10.759   3.530   0.006 -0.4558 -2.2773 -1.2795
  577MOL0     H79561  10.868   3.727  -0.084 -1.0815  1.7549  1.3629
  577MOL0     H79562  10.802   3.640  -0.220  0.9665  2.6821 -0.9652
  577MOL0     H79563  10.598   3.774  -0.190  1.6348 -2.2263 -0.4181
  577MOL0     H79564  10.684   3.884  -0.100 -1.5616  0.6089 -0.7984
  577MOL0     H79565  10.659   3.969  -0.330  0.8042  1.2913  1.1738
  577MOL0     H79566  10.827   3.953  -0.299  0.8315 -1.7088  1.4787
  577MOL0     H79567  10.654   3.751  -0.445 -0.5291  0.2871  1.3281
  577MOL0     H79568  10.820   3.714  -0.393  1.1177 -0.1684 -0.2481
  577MOL0     H79569  10.708   3.940  -0.573  0.0935  0.3133 -0.1812
  577MOL0     H79570  10.877   3.935  -0.524 -1.3078  1.6050 -1.4769
  577MOL0     H79571  10.737   3.723  -0.702  0.2437 -1.4787  0.4709
  577MOL0     H79572  10.899   3.711  -0.624  0.4115 -0.3476  0.5170
  577MOL0     H79573  10.973   3.928  -0.748 -0.8290  0.9316  0.4275
  577MOL0     H79574  10.911   3.802  -0.865  1.0006  1.6468 -1.0706
  577MOL0     H79575  10.644   3.886  -0.934  1.6093 -0.2229 -1.2893
  577MOL0     H79576  10.426   4.050  -0.885 -1.6600  1.4522 -0.9790
  577MOL0     H79577  10.496   4.091  -1.045  0.9165  1.8445 -1.3188
  577MOL0     H79578  10.322   4.254  -0.956  0.4740 -1.1931  0.1650
  577MOL0     H79579  10.420   4.294  -0.823 -0.3877  0.3274 -0.0839
  577MOL0     H79580  10.571   4.417  -0.945 -2.5352  1.4573 -0.7938
  577MOL0     H79581  10.596   4.303  -1.071  2.2745  2.3113 -0.5090
  577MOL0     H79582  10.370   4.345  -1.165  1.9650  1.0411 -3.2185
  577MOL0     H79583  10.368   4.493  -1.072 -2.0381 -1.8640 -0.9969
  577MOL0     H79584  10.643   4.507  -1.443  0.8856  0.6682 -2.9072
  577MOL0     H79585  10.722   4.682  -1.623 -0.2886 -1.2474  0.3863
  577MOL0     H79586  10.613   4.776  -1.707  2.6283 -0.4897 -2.3872
  577MOL0     H79587  10.617   4.601  -1.734  1.8677  0.7938 -0.3352
  577MOL0     H79588  10.144   5.028  -1.763  0.9921 -1.8130  1.5759
  577MOL0     H79589  10.124   5.258  -1.817 -1.6974  1.3274  3.4733
  577MOL0     H79590  10.175   5.469  -1.889  1.7098 -4.1095  2.0656
  577MOL0     H79591  10.128   5.557  -1.742  1.2856  0.9135  0.6105
  577MOL0     H79592  10.318   5.706  -1.759  1.9136 -2.5590  1.4475
  577MOL0     H79593  10.392   5.633  -1.891 -1.0784 -1.4960  0.2013
  577MOL0     H79594  10.115   5.765  -1.887 -0.7678  0.3524  0.2644
  577MOL0     H79595  10.195   5.680  -2.029  3.7228  1.2073 -1.3978
  577MOL0     H79596  10.385   5.835  -2.037  0.7180 -0.2630  1.3505
  577MOL0     H79597  10.345   5.919  -1.899 -1.5163  2.3283  0.2091
  577MOL0     H79598  10.123   5.997  -2.020 -0.9145 -2.5877 -0.9569
  577MOL0     H79599  10.275   6.056  -2.080 -1.3965 -0.4451  0.3148
  577MOL0     H79600  10.111   5.821  -2.198  0.3475 -0.4124 -0.2500
  577MOL0     H79601  10.262   5.879  -2.261  0.2982 -0.2094 -0.3996
  577MOL0     H79602  10.174   6.096  -2.326 -0.9703  0.3472 -0.0829
  577MOL0     H79603  10.030   6.088  -2.231 -1.2987 -0.4420 -0.2262
  577MOL0     H79604   9.942   5.896  -2.334 -1.0609  1.2934  0.5604
  577MOL0     H79605  10.053   5.910  -2.470  2.6013  1.6203  0.2118
  577MOL0     H79606  10.468   5.335  -1.565  2.9634 -3.6022 -0.7006
  577MOL0     H79607  10.452   5.100  -1.482  2.2702  1.2579 -0.9453
  577MOL0     H79608  10.186   4.705  -1.457  1.4715  0.9054  1.0603
  577MOL0     H79609  10.265   4.571  -1.251  3.9103  0.3276  3.6721
  577MOL0     H79610  10.468   3.818   0.220  1.7474 -0.2101 -1.9286
  577MOL0     H79611  10.297   3.715   0.368  3.6302  0.7055  1.3025
  577MOL0     H79612  10.329   3.346   0.736 -0.6040 -0.3172  0.2170
  577MOL0     H79613  10.173   3.201   0.868 -0.2723  0.8861 -0.2011
  577MOL0     H79614   9.742   3.133   0.776 -1.5924  0.0877  2.2420
  577MOL0     H79615   9.868   3.011   0.744 -0.6657  1.1880 -0.1306
  577MOL0     H79616   9.717   2.906   0.877 -0.0238  0.2113 -0.4636
  577MOL0     H79617   9.694   3.031   0.980 -1.0929  1.3744 -1.7523
  577MOL0     H79618   9.951   2.867   0.920 -0.6024 -0.6060  1.3270
  577MOL0     H79619   9.948   2.999   1.042  0.4001  1.4369 -1.3184
  577MOL0     H79620   9.764   2.751   1.059  0.2187  1.1916 -0.1941
  577MOL0     H79621   9.764   2.886   1.178 -3.6887 -2.1807  0.8161
  577MOL0     H79622  10.076   2.602   1.282  1.0854  0.8017 -0.3116
  577MOL0     H79623   9.840   3.296   0.634  0.3408 -0.9150 -2.1848
  577MOL0     H79624   9.851   3.476   0.481 -0.5704  0.9788 -0.3243
  577MOL0     H79625  10.000   3.571   0.460 -1.0135  0.2430 -0.5521
  577MOL0     H79626   9.964   3.415   0.367 -0.0651 -2.0757  1.9439
  578MOL0     O79627   7.148   7.972   9.100  0.0714  0.3261  0.2352
  578MOL0     C79628   7.026   7.972   9.121  1.2420  0.4021  0.2661
  578MOL0     O79629   6.933   8.063   9.069 -0.3458 -0.6609 -0.4459
  578MOL0     C79630   6.982   8.146   8.971  0.9690  1.2421  0.1673
  578MOL0     C79631   6.971   8.114   8.839 -0.4020  0.2696 -0.3688
  578MOL0     C79632   7.028   8.182   8.738  0.6973 -0.8874 -0.1138
  578MOL0     C79633   7.078   8.310   8.763 -0.1969  0.3271  0.4390
  578MOL0     O79634   7.119   8.400   8.670  0.1142 -0.9117 -0.2236
  578MOL0     C79635   7.090   8.389   8.528 -0.1474  0.1715  0.6061
  578MOL0     C79636   7.194   8.299   8.454 -0.2726 -0.0664  0.4092
  578MOL0     C79637   7.183   8.321   8.296 -0.8217 -0.3176  0.0712
  578MOL0     C79638   7.294   8.253   8.207 -0.5726  0.2814 -0.1355
  578MOL0     C79639   7.307   8.314   8.074  0.6969 -0.0467 -0.2573
  578MOL0     C79640   7.402   8.239   7.989 -1.1661 -0.4582 -0.0929
  578MOL0     C79641   7.416   8.300   7.856  0.8717 -0.3998 -0.0829
  578MOL0     C79642   7.468   8.197   7.756 -0.0288 -0.1213  0.7358
  578MOL0     N79643   7.589   8.123   7.800  0.4331 -0.8742  0.0680
  578MOL0     C79644   7.612   7.988   7.768  0.2479 -0.6799  0.1081
  578MOL0     C79645   7.737   7.961   7.819 -0.6135  0.4671  0.2905
  578MOL0     C79646   7.819   7.844   7.779 -0.2188 -0.2049 -0.2721
  578MOL0     C79647   7.957   7.833   7.842  0.5315 -1.0915 -0.6825
  578MOL0     C79648   8.002   7.685   7.852  0.1286  0.2253 -0.2657
  578MOL0     C79649   8.150   7.668   7.870  0.2077  0.2692  0.2703
  578MOL0     O79650   8.167   7.526   7.917  0.0712  0.3693  0.7101
  578MOL0     C79651   8.288   7.488   7.973  0.2921 -0.2086  0.3214
  578MOL0     C79652   8.321   7.351   7.974  0.2707 -0.4274  0.8255
  578MOL0     C79653   8.436   7.300   8.036 -0.7059  0.2129 -0.2063
  578MOL0     C79654   8.451   7.146   8.021  0.3858  0.6448 -0.6916
  578MOL0     C79655   8.522   7.393   8.107 -0.3785  0.0419  0.4477
  578MOL0     C79656   8.650   7.370   8.173 -0.7986  0.1719  0.9701
  578MOL0     O79657   8.703   7.457   8.261 -0.1947 -0.1316 -0.2738
  578MOL0     C79658   8.797   7.413   8.348 -0.2862 -0.2084 -1.4715
  578MOL0     C79659   8.898   7.497   8.399  0.4123 -0.6113 -1.2496
  578MOL0     C79660   8.982   7.467   8.504  0.1127 -0.2436 -0.3135
  578MOL0     C79661   8.978   7.337   8.564  0.5296 -0.7100 -0.3470
  578MOL0     O79662   9.070   7.314   8.666 -0.4473  0.7093  0.0342
  578MOL0     C79663   9.044   7.202   8.750 -0.4715  0.7904  0.3589
  578MOL0     C79664   9.169   7.198   8.839 -0.0794 -0.2053  0.5568
  578MOL0     C79665   9.175   7.303   8.952  0.2082 -0.9014 -0.6225
  578MOL0     C79666   9.194   7.229   9.086 -0.3467  0.2903  0.4173
  578MOL0     C79667   9.195   7.321   9.207 -1.1144 -0.0402 -0.5523
  578MOL0     C79668   9.272   7.269   9.331  0.3506  0.3332 -0.2820
  578MOL0     C79669   9.243   7.337   9.463 -0.0324  0.6696 -0.3921
  578MOL0     C79670   9.312   7.258   9.581  0.0192 -0.3338  0.6263
  578MOL0    Cl79671   9.233   7.106   9.611 -0.2532  0.1626  0.2044
  578MOL0     C79672   8.871   7.256   8.527 -1.0584 -0.1905 -0.4407
  578MOL0     C79673   8.788   7.292   8.417 -0.3715 -0.1650 -0.0428
  578MOL0     O79674   8.701   7.261   8.150  0.6260  0.5531  0.3283
  578MOL0     C79675   8.490   7.533   8.102 -0.9481  0.4889  0.3558
  578MOL0     C79676   8.371   7.582   8.033 -0.6264  0.9514 -0.1607
  578MOL0     N79677   7.781   8.080   7.872  0.8072  0.5231  0.6883
  578MOL0     N79678   7.689   8.176   7.865  0.9724 -0.2498  0.0266
  578MOL0     C79679   7.083   8.355   8.894 -0.6308  0.4717  0.1283
  578MOL0     C79680   7.036   8.274   8.995 -0.6876  0.0380 -0.6541
  578MOL0     C79681   6.960   7.868   9.211  0.7156  1.0572  0.0235
  578MOL0     C79682   6.822   7.873   9.226 -0.1938 -0.0859 -0.7266
  578MOL0     C79683   6.747   7.794   9.312 -0.2907  0.4276 -0.1116
  578MOL0     C79684   6.818   7.696   9.386  0.3952 -0.5204  0.3770
  578MOL0     O79685   6.758   7.607   9.468  0.8966 -0.7479 -0.0718
  578MOL0     C79686   6.671   7.508   9.405 -0.8469  0.6527  0.0507
  578MOL0     C79687   6.573   7.428   9.493  0.2553  0.1792  0.7537
  578MOL0     C79688   6.462   7.515   9.550  0.0400 -0.5755 -0.2090
  578MOL0     C79689   6.330   7.434   9.577 -0.4660 -0.3014 -0.2502
  578MOL0     C79690   6.232   7.495   9.660 -0.4457 -0.2749  0.1056
  578MOL0     C79691   6.140   7.519   9.726 -0.5235  0.5890  0.0630
  578MOL0     C79692   6.950   7.690   9.361  0.5596  0.0865 -0.6966
  578MOL0     C79693   7.030   7.766   9.275  0.5385  1.0071 -0.7856
  578MOL0     C79694   7.179   7.737   9.285  0.0595  0.1465  0.0534
  578MOL0     H79695   6.934   8.016   8.810 -1.6809  0.2115  1.3081
  578MOL0     H79696   7.021   8.140   8.638  0.7171 -3.1684  0.7909
  578MOL0     H79697   7.100   8.490   8.488  0.8368  0.0923  0.6246
  578MOL0     H79698   6.985   8.359   8.518 -1.0771  2.8918  1.4820
  578MOL0     H79699   7.297   8.332   8.474  0.7067 -2.3709 -0.5507
  578MOL0     H79700   7.202   8.196   8.488  2.3420  0.3341  1.2487
  578MOL0     H79701   7.081   8.314   8.258 -1.1097  4.6420 -0.7853
  578MOL0     H79702   7.200   8.428   8.282  0.6480 -0.1056  2.7798
  578MOL0     H79703   7.393   8.264   8.254 -0.8989  0.5527  0.5082
  578MOL0     H79704   7.269   8.147   8.195 -1.5429  0.4182  0.5430
  578MOL0     H79705   7.335   8.419   8.081 -0.8620  0.3229  0.9464
  578MOL0     H79706   7.205   8.318   8.033  1.8778  1.4354 -3.3176
  578MOL0     H79707   7.498   8.242   8.042 -0.9638 -0.7068 -0.4422
  578MOL0     H79708   7.370   8.135   7.981 -1.4624 -0.2575 -1.8401
  578MOL0     H79709   7.476   8.389   7.872 -1.3700  1.8079 -2.8771
  578MOL0     H79710   7.321   8.346   7.825  0.9005  1.4158  2.2942
  578MOL0     H79711   7.384   8.128   7.750 -0.3036  0.2306  0.4990
  578MOL0     H79712   7.472   8.243   7.657 -2.0741 -0.2233  0.5706
  578MOL0     H79713   7.550   7.923   7.707 -1.1259  2.0191 -1.6109
  578MOL0     H79714   7.839   7.851   7.672 -1.4064  0.9355 -0.4443
  578MOL0     H79715   7.758   7.756   7.800 -1.7022  0.7889 -0.2041
  578MOL0     H79716   8.029   7.884   7.777 -0.1872 -1.5246 -1.8528
  578MOL0     H79717   7.968   7.884   7.938  0.7210  0.2565 -1.4030
  578MOL0     H79718   7.953   7.629   7.932  2.0154  2.0752  2.3385
  578MOL0     H79719   7.987   7.648   7.750  1.6298 -2.9858  0.5776
  578MOL0     H79720   8.205   7.697   7.780 -2.2713  0.8299 -1.1896
  578MOL0     H79721   8.171   7.746   7.943  1.7377  0.5879 -0.4667
  578MOL0     H79722   8.257   7.291   7.909  2.2512 -1.3090 -0.4352
  578MOL0     H79723   8.440   7.102   8.121  0.4858  4.6121  1.2675
  578MOL0     H79724   8.550   7.120   7.983  1.1462  0.5083  1.2647
  578MOL0     H79725   8.380   7.105   7.949  0.5011 -2.1900  0.6515
  578MOL0     H79726   8.904   7.592   8.347  0.2491  0.2936  0.2955
  578MOL0     H79727   9.061   7.538   8.526 -1.9357  1.8756  0.8269
  578MOL0     H79728   8.955   7.218   8.811  0.3316  0.9735  1.5203
  578MOL0     H79729   9.039   7.110   8.692  2.0295  1.4926 -1.1502
  578MOL0     H79730   9.205   7.104   8.882  5.4124  0.7712 -1.1217
  578MOL0     H79731   9.255   7.216   8.773  1.0981 -2.4978  1.3364
  578MOL0     H79732   9.093   7.375   8.955  1.9710  1.2612  4.1217
  578MOL0     H79733   9.260   7.370   8.936 -0.8195  0.0484 -2.4014
  578MOL0     H79734   9.293   7.184   9.074  0.5072  2.4578 -1.6839
  578MOL0     H79735   9.113   7.158   9.100 -2.8683  2.9900  0.4334
  578MOL0     H79736   9.230   7.418   9.171 -1.1717  0.1814 -0.0268
  578MOL0     H79737   9.097   7.343   9.249 -0.0501 -0.6647  2.5336
  578MOL0     H79738   9.374   7.291   9.300  0.0027  0.6114 -1.2889
  578MOL0     H79739   9.267   7.161   9.344  1.9515 -0.1959 -3.1496
  578MOL0     H79740   9.141   7.371   9.484 -0.0424  0.5021 -0.1780
  578MOL0     H79741   9.291   7.435   9.451  0.0159  0.9877  2.0516
  578MOL0     H79742   9.305   7.314   9.674  0.8465 -1.7195  1.5544
  578MOL0     H79743   9.418   7.245   9.556 -0.4931 -0.6568 -1.6117
  578MOL0     H79744   8.860   7.161   8.579 -2.3392 -0.4270 -1.0961
  578MOL0     H79745   8.712   7.217   8.396 -0.4158 -0.2215  0.3062
  578MOL0     H79746   8.546   7.618   8.139  0.6314  0.5499 -1.9319
  578MOL0     H79747   8.342   7.686   8.023  0.2199  1.5036  2.4546
  578MOL0     H79748   7.121   8.450   8.930 -3.4429  1.2457  1.2551
  578MOL0     H79749   7.060   8.306   9.096  3.2034  1.4297 -1.8307
  578MOL0     H79750   6.762   7.950   9.179  1.2361  0.8696 -1.0203
  578MOL0     H79751   6.643   7.811   9.340 -0.2887  1.9117 -0.8839
  578MOL0     H79752   6.624   7.547   9.314  0.4651  2.9144  0.2729
  578MOL0     H79753   6.733   7.428   9.364 -0.2823  1.5611 -0.9212
  578MOL0     H79754   6.627   7.389   9.580 -0.3757 -0.5287  0.8306
  578MOL0     H79755   6.537   7.348   9.429  1.9399  1.8198 -2.5038
  578MOL0     H79756   6.495   7.573   9.637  1.8378 -1.3450 -0.3370
  578MOL0     H79757   6.441   7.583   9.467  0.2725  0.0145  0.2024
  578MOL0     H79758   6.363   7.344   9.630  2.1160 -0.1649 -1.4431
  578MOL0     H79759   6.285   7.396   9.485 -1.6701 -0.0857  0.2342
  578MOL0     H79760   6.064   7.541   9.799  1.1589  2.0533  1.4620
  578MOL0     H79761   7.005   7.618   9.420  1.0476 -0.3236 -1.6226
  578MOL0     H79762   7.236   7.828   9.266  2.9298 -1.6656 -0.7555
  578MOL0     H79763   7.211   7.706   9.385 -2.1652  1.7136  1.3545
  578MOL0     H79764   7.203   7.662   9.209 -0.3015  0.3473 -0.2610
  579MOL0     O79765   7.391   5.349   1.594 -0.5311  0.7796 -0.4377
  579MOL0     C79766   7.410   5.455   1.660  1.2137 -1.0065  0.0887
  579MOL0     O79767   7.322   5.558   1.672  0.6817 -0.1564  0.5792
  579MOL0     C79768   7.208   5.544   1.604  1.0525 -0.9671  0.6722
  579MOL0     C79769   7.207   5.533   1.464 -0.5649 -0.2214  0.0639
  579MOL0     C79770   7.091   5.537   1.386  1.2653 -0.0078 -0.9893
  579MOL0     C79771   6.972   5.558   1.456 -0.7363  0.9572 -0.6979
  579MOL0     O79772   6.857   5.571   1.401  0.4143  0.0397  0.4309
  579MOL0     C79773   6.842   5.528   1.264  0.0338  0.4276 -0.5117
  579MOL0     C79774   6.694   5.537   1.211 -0.1082  0.1900  0.2578
  579MOL0     C79775   6.680   5.454   1.081 -0.4619 -0.4064 -0.6822
  579MOL0     C79776   6.543   5.490   1.022  0.1925  0.0459 -0.9684
  579MOL0     C79777   6.526   5.428   0.890  0.4448 -0.8832 -0.2593
  579MOL0     C79778   6.376   5.444   0.856  0.0967 -0.7657 -0.3401
  579MOL0     C79779   6.330   5.422   0.705 -1.2439  0.0621 -0.6573
  579MOL0     C79780   6.283   5.280   0.677 -0.1437 -0.3552 -0.4198
  579MOL0     N79781   6.372   5.180   0.724 -0.4689  0.0850  0.6064
  579MOL0     C79782   6.511   5.163   0.711 -0.1755 -0.5965  0.5670
  579MOL0     C79783   6.543   5.059   0.786 -0.5953 -0.4451 -0.2423
  579MOL0     C79784   6.675   4.995   0.800  1.0508 -0.5657  0.7481
  579MOL0     C79785   6.665   4.897   0.919  0.1305 -0.6303 -0.1672
  579MOL0     C79786   6.811   4.848   0.945  0.0938  0.7682 -0.5910
  579MOL0     C79787   6.833   4.794   1.088 -0.2327 -0.4260 -0.6114
  579MOL0     O79788   6.973   4.819   1.114  0.4195 -0.7537 -0.0444
  579MOL0     C79789   7.016   4.748   1.222  0.6131 -0.4993 -0.1417
  579MOL0     C79790   7.144   4.702   1.218  0.8435 -0.2339 -0.4200
  579MOL0     C79791   7.194   4.626   1.322  0.2666  0.2056 -0.0066
  579MOL0     C79792   7.337   4.572   1.302 -0.6871  0.3319 -0.1541
  579MOL0     C79793   7.112   4.591   1.433 -0.4493  0.6614  0.0410
  579MOL0     C79794   7.156   4.490   1.528 -0.4124 -0.6437 -0.1426
  579MOL0     O79795   7.101   4.513   1.646  1.2364 -0.4934 -0.6001
  579MOL0     C79796   7.150   4.457   1.759 -0.3193  0.3805 -0.2003
  579MOL0     C79797   7.256   4.371   1.777 -0.2388 -0.2181  0.1512
  579MOL0     C79798   7.285   4.319   1.897 -0.3773 -1.1450 -0.1284
  579MOL0     C79799   7.207   4.356   2.009  0.8080  0.8225 -0.4450
  579MOL0     O79800   7.233   4.304   2.135 -0.4368 -0.3506 -0.1282
  579MOL0     C79801   7.132   4.236   2.206 -0.2642  0.1710  0.3731
  579MOL0     C79802   7.204   4.162   2.321  0.6006 -0.6510 -0.7156
  579MOL0     C79803   7.098   4.118   2.422  0.1784  0.3556 -0.0322
  579MOL0     C79804   7.158   4.025   2.517 -0.3648 -1.2986 -0.5181
  579MOL0     C79805   7.063   3.971   2.620  0.2179 -0.6442  0.4237
  579MOL0     C79806   7.136   3.876   2.716  0.3902 -0.8823 -0.0771
  579MOL0     C79807   7.040   3.824   2.826 -0.9096  0.2856 -0.6584
  579MOL0     C79808   7.078   3.686   2.874  0.1359 -0.5585 -0.1388
  579MOL0    Cl79809   7.100   3.564   2.742 -0.1936 -0.0630  0.0981
  579MOL0     C79810   7.105   4.444   1.996  0.3260  0.1392 -0.9268
  579MOL0     C79811   7.071   4.491   1.872 -0.8292 -0.3596 -0.4311
  579MOL0     O79812   7.230   4.399   1.499  0.0741 -0.2065  0.1595
  579MOL0     C79813   6.982   4.652   1.448 -0.2169 -0.2869  0.4648
  579MOL0     C79814   6.934   4.715   1.337 -0.2081  0.9253 -0.4293
  579MOL0     N79815   6.424   5.031   0.858  0.5282 -0.7209 -0.4730
  579MOL0     N79816   6.327   5.104   0.823  0.5426 -0.1497  0.6542
  579MOL0     C79817   6.976   5.572   1.598 -0.2698  0.0218 -0.6016
  579MOL0     C79818   7.090   5.562   1.672 -0.2361  0.2266  0.0973
  579MOL0     C79819   7.540   5.467   1.738  0.2798 -0.3101 -0.9920
  579MOL0     C79820   7.618   5.349   1.732 -0.6400  0.1804  0.4027
  579MOL0     C79821   7.750   5.344   1.771 -0.9624 -0.5218 -0.6926
  579MOL0     C79822   7.815   5.454   1.829 -0.6712  0.3623  0.0610
  579MOL0     O79823   7.945   5.426   1.857  0.2955 -0.6138 -0.9480
  579MOL0     C79824   8.023   5.519   1.926 -0.3477  0.3501  0.5753
  579MOL0     C79825   8.145   5.450   1.990  0.1314  0.0526 -0.4951
  579MOL0     C79826   8.264   5.544   2.023  0.0810  0.6246  0.4268
  579MOL0     C79827   8.228   5.673   2.089  0.1986  0.8597  0.1515
  579MOL0     C79828   8.339   5.754   2.143 -0.1512  0.4318  0.3562
  579MOL0     C79829   8.436   5.820   2.170 -0.2252 -0.7413  0.4393
  579MOL0     C79830   7.748   5.575   1.839  0.1962 -0.4254 -0.1750
  579MOL0     C79831   7.607   5.580   1.804 -0.5303 -0.4936 -0.1223
  579MOL0     C79832   7.529   5.701   1.839 -0.4087 -0.0236 -1.2242
  579MOL0     H79833   7.305   5.523   1.419 -0.2445 -1.6058  1.0131
  579MOL0     H79834   7.086   5.522   1.279  1.4293  0.6824 -1.0985
  579MOL0     H79835   6.870   5.422   1.260  1.0672  0.7229 -1.8349
  579MOL0     H79836   6.895   5.592   1.193  3.2239  0.0136  1.3058
  579MOL0     H79837   6.625   5.497   1.287  0.4828  0.3857  0.9065
  579MOL0     H79838   6.659   5.638   1.187 -2.1320 -1.0681 -2.7494
  579MOL0     H79839   6.751   5.486   1.005 -1.2275  2.9052 -0.1372
  579MOL0     H79840   6.691   5.345   1.089 -0.6118 -0.3302  0.7662
  579MOL0     H79841   6.483   5.439   1.098  1.6499  0.3528  0.4583
  579MOL0     H79842   6.524   5.597   1.008  0.0158  0.0392 -0.7867
  579MOL0     H79843   6.557   5.323   0.903  1.9918 -0.4885 -0.5910
  579MOL0     H79844   6.589   5.476   0.815  0.8062 -0.1569  0.4989
  579MOL0     H79845   6.307   5.390   0.921 -2.1169  1.4435 -0.6981
  579MOL0     H79846   6.349   5.549   0.870  3.8226  0.2277  0.4141
  579MOL0     H79847   6.414   5.440   0.638  0.5267 -2.3104  0.7777
  579MOL0     H79848   6.255   5.500   0.685 -0.5145  1.9253  3.1029
  579MOL0     H79849   6.187   5.264   0.727  1.2510 -2.3747  1.8320
  579MOL0     H79850   6.268   5.272   0.569 -1.2135  0.7178 -0.3746
  579MOL0     H79851   6.578   5.216   0.645 -1.1856  1.8723  1.4044
  579MOL0     H79852   6.754   5.068   0.816  0.9463 -0.3523  0.2954
  579MOL0     H79853   6.690   4.944   0.704  1.0411 -0.5723  0.7500
  579MOL0     H79854   6.625   4.945   1.008  1.5249  2.4107 -1.0646
  579MOL0     H79855   6.600   4.812   0.893 -0.9382  0.1982 -0.2440
  579MOL0     H79856   6.830   4.764   0.877 -0.0230  2.1892 -2.4479
  579MOL0     H79857   6.885   4.924   0.919 -1.6710  1.7985 -2.9701
  579MOL0     H79858   6.759   4.841   1.153  2.3684  1.3093  1.2882
  579MOL0     H79859   6.811   4.686   1.090  1.6436 -0.9742  4.4033
  579MOL0     H79860   7.198   4.723   1.126 -1.5249  1.1315 -1.5980
  579MOL0     H79861   7.400   4.569   1.391  1.2367  2.3011 -1.3289
  579MOL0     H79862   7.398   4.630   1.232  1.1197 -0.7584  0.4446
  579MOL0     H79863   7.325   4.469   1.267 -1.2666 -0.4052  2.0634
  579MOL0     H79864   7.326   4.342   1.698  0.9327  3.3060 -0.2883
  579MOL0     H79865   7.373   4.258   1.917 -0.6869 -2.4318 -2.3407
  579MOL0     H79866   7.058   4.313   2.233  0.2896  0.3131  1.5714
  579MOL0     H79867   7.081   4.162   2.143  2.2920  0.0491 -1.7154
  579MOL0     H79868   7.262   4.080   2.278  1.7240  0.8007 -2.0689
  579MOL0     H79869   7.271   4.237   2.363  0.3260 -0.4172 -0.6933
  579MOL0     H79870   7.010   4.084   2.367 -0.6042  1.9885  0.1294
  579MOL0     H79871   7.063   4.209   2.473 -1.9709  1.2588 -2.8506
  579MOL0     H79872   7.233   4.079   2.574 -0.7762 -1.1458 -0.1131
  579MOL0     H79873   7.199   3.940   2.461 -2.2415 -1.6911 -1.4068
  579MOL0     H79874   7.041   4.063   2.676 -0.7508 -1.5873  1.6748
  579MOL0     H79875   6.980   3.922   2.569  1.8862 -1.7582 -1.3510
  579MOL0     H79876   7.205   3.943   2.768 -1.2551  1.3727 -0.6448
  579MOL0     H79877   7.191   3.800   2.659 -1.0446 -0.9112 -1.4792
  579MOL0     H79878   6.937   3.812   2.793 -1.3601 -1.4768  1.2154
  579MOL0     H79879   7.033   3.893   2.911 -0.9388  0.6672 -0.9657
  579MOL0     H79880   6.991   3.650   2.929 -2.9132  0.5951 -3.7864
  579MOL0     H79881   7.153   3.688   2.954 -0.9835 -0.1688  0.9324
  579MOL0     H79882   7.061   4.483   2.087  1.2458 -0.5819 -0.1457
  579MOL0     H79883   6.994   4.565   1.852 -0.9970 -0.7637 -1.3155
  579MOL0     H79884   6.910   4.633   1.527 -3.9680  0.2758 -2.5163
  579MOL0     H79885   6.838   4.759   1.361  0.1330  1.3476  0.1883
  579MOL0     H79886   6.876   5.586   1.638 -0.7395 -0.1776 -1.6550
  579MOL0     H79887   7.079   5.593   1.776 -1.9181 -0.8960  0.3028
  579MOL0     H79888   7.583   5.256   1.688 -0.0176 -1.0601  2.4275
  579MOL0     H79889   7.805   5.251   1.762  0.7594  0.4214 -0.3991
  579MOL0     H79890   8.050   5.595   1.852 -0.8290 -1.3791 -1.4585
  579MOL0     H79891   7.966   5.574   2.002 -1.5130 -3.0709  2.4103
  579MOL0     H79892   8.185   5.367   1.932 -1.4893 -2.4555  1.7290
  579MOL0     H79893   8.122   5.402   2.086  0.4534 -0.3794 -0.6293
  579MOL0     H79894   8.340   5.491   2.080  1.0008  0.8354 -0.5609
  579MOL0     H79895   8.302   5.563   1.922  0.2625 -4.3501 -0.6996
  579MOL0     H79896   8.169   5.645   2.177  0.8268  0.2536  0.3876
  579MOL0     H79897   8.159   5.738   2.034  2.3744  0.2953 -3.6364
  579MOL0     H79898   8.519   5.882   2.200  0.8104 -1.6743 -0.3914
  579MOL0     H79899   7.795   5.665   1.877  0.6302 -0.9534  0.5733
  579MOL0     H79900   7.420   5.692   1.826 -0.3442  0.8103 -2.5734
  579MOL0     H79901   7.541   5.737   1.942 -3.4109  1.4592 -1.2613
  579MOL0     H79902   7.567   5.792   1.792  1.3913 -0.9417 -1.5953
  580MOL0     O79903   0.153   6.084   6.322  0.6126  0.7643  0.3201
  580MOL0     C79904   0.111   6.022   6.228 -0.2561 -0.0316 -0.6173
  580MOL0     O79905   0.178   6.015   6.113  0.7649 -0.3786  0.7382
  580MOL0     C79906   0.309   6.043   6.105 -0.5164 -0.3340 -0.1615
  580MOL0     C79907   0.327   6.169   6.034 -0.4752  0.3557 -0.8204
  580MOL0     C79908   0.456   6.210   6.017  0.6271 -0.2436  0.3376
  580MOL0     C79909   0.567   6.139   6.069  0.3504  0.4588  0.3932
  580MOL0     O79910   0.699   6.169   6.070  0.2635  0.4024 -0.1858
  580MOL0     C79911   0.720   6.305   6.027  0.0207 -0.2311 -0.3766
  580MOL0     C79912   0.861   6.339   6.046 -0.2402  0.7311 -0.3259
  580MOL0     C79913   0.943   6.252   5.946  0.2869  0.6582  0.4697
  580MOL0     C79914   1.090   6.301   5.958  0.2676 -0.6434 -0.3975
  580MOL0     C79915   1.183   6.221   5.869 -0.3526 -0.0602 -0.5150
  580MOL0     C79916   1.201   6.072   5.908  0.7835  0.5310 -0.2314
  580MOL0     C79917   1.298   6.044   6.026 -0.0530 -1.0093 -0.3489
  580MOL0     C79918   1.322   5.892   6.044 -0.5766  1.4162 -0.4623
  580MOL0     N79919   1.454   5.879   6.115 -0.2776 -0.0649 -0.1630
  580MOL0     C79920   1.464   5.886   6.256 -0.1986 -0.6165  0.6483
  580MOL0     C79921   1.573   5.811   6.284  0.3938  0.5058 -0.2251
  580MOL0     C79922   1.634   5.756   6.415  0.5030  0.0156  0.4614
  580MOL0     C79923   1.625   5.856   6.536  0.0637 -0.3833 -0.4247
  580MOL0     C79924   1.681   5.788   6.659 -0.9901 -0.5908  0.5825
  580MOL0     C79925   1.674   5.866   6.791  0.8084 -0.0461 -0.2484
  580MOL0     O79926   1.747   5.994   6.779  0.6403  0.0414 -0.2740
  580MOL0     C79927   1.735   6.074   6.891  0.2608  0.5450 -0.0520
  580MOL0     C79928   1.705   6.208   6.869  0.5220  0.2417 -0.6693
  580MOL0     C79929   1.699   6.307   6.973 -0.8767  0.1986 -0.6919
  580MOL0     C79930   1.665   6.441   6.933 -0.1282 -0.3870  0.2243
  580MOL0     C79931   1.707   6.253   7.109  0.6241  0.1255  0.4971
  580MOL0     C79932   1.679   6.336   7.218 -0.6282  0.1560  0.1243
  580MOL0     O79933   1.616   6.272   7.319 -0.2178  0.0360  0.2444
  580MOL0     C79934   1.614   6.332   7.441  0.2221 -0.1135 -0.1025
  580MOL0     C79935   1.553   6.463   7.466 -0.3591  0.8863 -0.2271
  580MOL0     C79936   1.543   6.510   7.593 -0.6075  0.6683  0.0469
  580MOL0     C79937   1.574   6.432   7.707  1.5459  0.3717 -0.5702
  580MOL0     O79938   1.540   6.462   7.840 -0.0510 -0.5111  0.2309
  580MOL0     C79939   1.474   6.587   7.846  0.3925 -0.4457 -0.7113
  580MOL0     C79940   1.419   6.599   7.992 -0.5433 -0.7345  0.3327
  580MOL0     C79941   1.533   6.618   8.093 -0.3773  1.0485  0.8254
  580MOL0     C79942   1.492   6.638   8.238 -1.0344  0.7245  0.2935
  580MOL0     C79943   1.608   6.622   8.335  0.4554  0.5646 -0.2331
  580MOL0     C79944   1.560   6.631   8.477  0.4547  0.9495  0.4741
  580MOL0     C79945   1.674   6.607   8.581  0.7192  0.1631 -0.1217
  580MOL0     C79946   1.765   6.727   8.584 -1.4151  0.9580 -0.8093
  580MOL0    Cl79947   1.895   6.723   8.701  0.0884 -0.0806 -0.0785
  580MOL0     C79948   1.637   6.310   7.682 -0.5601  0.3128  0.2284
  580MOL0     C79949   1.656   6.267   7.552  0.1784  0.0330 -0.4692
  580MOL0     O79950   1.736   6.445   7.229 -0.0153  0.7158  0.1038
  580MOL0     C79951   1.714   6.111   7.128 -0.7975 -0.4644  0.0942
  580MOL0     C79952   1.744   6.025   7.022  0.7817  0.4099  0.3359
  580MOL0     N79953   1.631   5.766   6.167 -0.2379  0.3874 -0.3828
  580MOL0     N79954   1.556   5.808   6.067 -0.0583 -0.5732 -0.0478
  580MOL0     C79955   0.542   6.018   6.138 -0.5388  0.0578 -0.4709
  580MOL0     C79956   0.413   5.960   6.152  0.0180 -1.2234 -0.6708
  580MOL0     C79957  -0.021   5.948   6.231  0.5313 -0.0503  0.0772
  580MOL0     C79958  -0.097   5.951   6.116  0.1936  0.2551 -0.6317
  580MOL0     C79959  -0.223   5.891   6.118 -0.6458  1.0168  0.3370
  580MOL0     C79960  -0.280   5.824   6.222 -0.7605 -0.7149 -0.6695
  580MOL0     O79961  -0.406   5.768   6.211 -0.6494  0.3701  1.0796
  580MOL0     C79962  -0.438   5.661   6.302 -0.3895  0.5397 -1.1678
  580MOL0     C79963  -0.574   5.621   6.294 -0.0758  0.2472  0.0316
  580MOL0     C79964  -0.617   5.561   6.158  0.1240  0.5467 -0.4940
  580MOL0     C79965  -0.762   5.525   6.152 -0.4927 -1.0538 -1.6433
  580MOL0     C79966  -0.849   5.630   6.099  0.6511 -0.7699  0.0149
  580MOL0     C79967  -0.930   5.703   6.048 -0.4591 -0.7500 -0.5009
  580MOL0     C79968  -0.194   5.816   6.337  0.2480 -0.6724  0.3519
  580MOL0     C79969  -0.069   5.873   6.341 -0.2725 -0.2504 -0.3968
  580MOL0     C79970   0.007   5.848   6.469  0.0965  0.9362  0.4230
  580MOL0     H79971   0.248   6.221   5.981 -0.5007 -0.2615 -1.4012
  580MOL0     H79972   0.479   6.299   5.960  2.1891  0.0906  1.4303
  580MOL0     H79973   0.653   6.366   6.089  0.9565 -1.0431  1.4935
  580MOL0     H79974   0.689   6.320   5.923  0.3050 -0.8404 -0.5539
  580MOL0     H79975   0.884   6.444   6.025  2.4897  0.4746  0.9007
  580MOL0     H79976   0.891   6.328   6.151 -0.2438  1.7389 -0.2118
  580MOL0     H79977   0.938   6.147   5.975 -2.7112  0.6127  0.1168
  580MOL0     H79978   0.901   6.265   5.846  0.9778 -1.4972 -0.1621
  580MOL0     H79979   1.100   6.404   5.924 -0.2590  1.5309  4.9909
  580MOL0     H79980   1.131   6.298   6.060 -1.0841 -0.5806  0.1617
  580MOL0     H79981   1.286   6.257   5.869  0.3217 -1.8651  1.3321
  580MOL0     H79982   1.144   6.219   5.766 -2.2220  0.2912  0.1555
  580MOL0     H79983   1.104   6.024   5.920  1.1889 -0.1587  0.3214
  580MOL0     H79984   1.263   6.024   5.832  1.0214 -0.0806  0.3407
  580MOL0     H79985   1.267   6.087   6.121 -1.5047 -0.2130 -1.1408
  580MOL0     H79986   1.392   6.093   5.999 -0.3362  0.1446  0.6879
  580MOL0     H79987   1.240   5.842   6.097 -1.4143  1.8578 -1.2945
  580MOL0     H79988   1.316   5.844   5.946 -4.0395  2.0865 -0.7075
  580MOL0     H79989   1.396   5.928   6.329  0.3437 -0.4007  1.0361
  580MOL0     H79990   1.740   5.742   6.397  0.8980  1.7270  1.2497
  580MOL0     H79991   1.591   5.661   6.447  1.0160  0.0986  1.4196
  580MOL0     H79992   1.684   5.946   6.516 -1.9973  1.0874 -0.1277
  580MOL0     H79993   1.522   5.884   6.560 -0.6815 -2.4983 -0.9357
  580MOL0     H79994   1.624   5.696   6.673 -1.6159  0.1057  2.9423
  580MOL0     H79995   1.788   5.764   6.651 -0.7244 -0.0048  2.1449
  580MOL0     H79996   1.570   5.893   6.814  0.9069  0.0304  0.1261
  580MOL0     H79997   1.707   5.814   6.882  0.9757  2.9614  1.5715
  580MOL0     H79998   1.693   6.243   6.767 -4.6107 -1.4174 -0.8870
  580MOL0     H79999   1.614   6.502   7.008  3.6907  1.6410  1.4876
  580MOL0     H80000   1.601   6.438   6.845  0.3319 -0.4419 -0.1095
  580MOL0     H80001   1.765   6.484   6.917  0.7429 -1.4153  2.4712
  580MOL0     H80002   1.530   6.539   7.392 -2.3213  0.0346 -0.5480
  580MOL0     H80003   1.509   6.611   7.611 -0.0131  0.7170  0.9816
  580MOL0     H80004   1.549   6.666   7.836  0.1683 -0.1251  0.0706
  580MOL0     H80005   1.385   6.586   7.782 -0.0656 -0.1363 -0.0985
  580MOL0     H80006   1.359   6.690   8.004 -1.8720 -1.9650  4.6591
  580MOL0     H80007   1.353   6.520   8.026 -0.0954 -0.6832  1.3616
  580MOL0     H80008   1.599   6.695   8.050  1.5344 -0.0601  1.6605
  580MOL0     H80009   1.585   6.522   8.081 -0.3321  0.7958  2.8212
  580MOL0     H80010   1.411   6.568   8.262 -1.2312  2.3967  6.1182
  580MOL0     H80011   1.461   6.742   8.249 -1.9421  0.9301 -3.0130
  580MOL0     H80012   1.647   6.521   8.316  0.2587 -0.1166  2.5776
  580MOL0     H80013   1.690   6.691   8.312  1.5217 -0.8663 -0.8937
  580MOL0     H80014   1.475   6.563   8.487  0.1630  1.1349 -0.6484
  580MOL0     H80015   1.521   6.730   8.500 -1.7407  0.2885 -0.1855
  580MOL0     H80016   1.735   6.518   8.562  2.4787  0.5352  3.0403
  580MOL0     H80017   1.636   6.591   8.682 -3.0246  2.6473 -0.9473
  580MOL0     H80018   1.701   6.814   8.602 -0.9377  0.9696  0.9647
  580MOL0     H80019   1.817   6.744   8.488 -1.2231 -0.1166 -0.9087
  580MOL0     H80020   1.659   6.246   7.767  0.3064  0.7264  0.3327
  580MOL0     H80021   1.693   6.168   7.531 -0.0690  0.3710 -2.8545
  580MOL0     H80022   1.721   6.062   7.224  2.2629  0.1466  0.2891
  580MOL0     H80023   1.786   5.925   7.038 -1.8615 -1.2117 -1.9853
  580MOL0     H80024   0.631   5.970   6.177  2.0260  3.0029 -2.1951
  580MOL0     H80025   0.397   5.862   6.197  1.1793 -0.4568  1.5419
  580MOL0     H80026  -0.045   5.989   6.029  1.0628 -2.9073 -1.6603
  580MOL0     H80027  -0.298   5.889   6.040 -0.1738 -0.8331 -0.1095
  580MOL0     H80028  -0.366   5.579   6.294 -0.6574  0.3320 -1.5037
  580MOL0     H80029  -0.431   5.696   6.405  2.9247  3.2962 -2.1492
  580MOL0     H80030  -0.634   5.707   6.325 -1.5703 -0.5919 -0.4439
  580MOL0     H80031  -0.595   5.541   6.367  0.2107 -0.7578 -0.9580
  580MOL0     H80032  -0.590   5.632   6.079  0.3704 -0.6056 -1.4768
  580MOL0     H80033  -0.557   5.470   6.166  0.5828  1.0213  3.6708
  580MOL0     H80034  -0.799   5.484   6.246  0.6143  0.1911 -0.6174
  580MOL0     H80035  -0.764   5.448   6.074  0.4472  0.8589 -3.6765
  580MOL0     H80036  -0.994   5.763   5.988 -0.7650 -1.0478 -0.4773
  580MOL0     H80037  -0.219   5.764   6.429  0.5967  1.6702  1.8693
  580MOL0     H80038   0.072   5.933   6.491  1.9230 -0.5349  0.9258
  580MOL0     H80039  -0.063   5.838   6.551  0.5634 -2.6003  0.5176
  580MOL0     H80040   0.072   5.761   6.457  1.0640  1.4918  1.5070
  581MOL0     O80041  11.009   5.934   4.830 -0.4379  0.4920  0.0845
  581MOL0     C80042  10.945   5.904   4.737 -0.3970  0.2689  0.0001
  581MOL0     O80043  10.975   5.805   4.641  0.1545 -0.4573 -0.2896
  581MOL0     C80044  11.094   5.742   4.630  0.0078 -1.0541 -0.2990
  581MOL0     C80045  11.155   5.723   4.507  0.3235 -0.0333  0.6305
  581MOL0     C80046  11.282   5.662   4.490  0.4670  0.0146 -0.2593
  581MOL0     C80047  11.356   5.630   4.602 -0.2676  0.1221  0.3076
  581MOL0     O80048  11.493   5.592   4.601 -0.3847 -0.3130  0.6246
  581MOL0     C80049  11.550   5.576   4.469 -0.8818 -0.3111 -0.8501
  581MOL0     C80050  11.589   5.709   4.397 -0.0687 -0.6516  0.7148
  581MOL0     C80051  11.717   5.764   4.458 -0.1534  0.4594 -0.0092
  581MOL0     C80052  11.847   5.711   4.403 -1.2582  0.4751  0.4145
  581MOL0     C80053  11.971   5.749   4.481 -0.3481 -0.1172 -0.6534
  581MOL0     C80054  12.089   5.650   4.470 -0.9484 -0.8854  1.1831
  581MOL0     C80055  12.211   5.698   4.545  1.1340 -0.0163 -0.4584
  581MOL0     C80056  12.311   5.589   4.584  0.7890  0.2621  0.3112
  581MOL0     N80057  12.435   5.641   4.627 -0.9105  0.3899  0.2512
  581MOL0     C80058  12.566   5.608   4.589  0.1816 -0.3080  0.3258
  581MOL0     C80059  12.645   5.693   4.647 -0.1804 -0.2635  0.6223
  581MOL0     C80060  12.782   5.736   4.618 -0.2146  0.7552  0.9250
  581MOL0     C80061  12.827   5.736   4.466  0.0411 -0.0933  0.2215
  581MOL0     C80062  12.947   5.828   4.442  0.2550  0.6291  0.5710
  581MOL0     C80063  12.997   5.806   4.297  0.3263 -0.2761  0.0968
  581MOL0     O80064  13.056   5.671   4.293  0.2060 -0.5654 -0.1841
  581MOL0     C80065  13.121   5.633   4.175  0.2487  0.5853  0.2020
  581MOL0     C80066  13.153   5.718   4.066 -0.1858 -0.0192 -0.8073
  581MOL0     C80067  13.179   5.666   3.940  0.3521  0.1229 -0.9442
  581MOL0     C80068  13.206   5.770   3.828  0.4379 -0.6185 -0.9749
  581MOL0     C80069  13.193   5.526   3.921  0.0851 -0.7523  0.0446
  581MOL0     C80070  13.213   5.461   3.788 -0.4023 -0.4256  0.4007
  581MOL0     O80071  13.185   5.535   3.671 -0.1486 -0.5159  0.1323
  581MOL0     C80072  13.205   5.472   3.552 -0.3048  0.0224  0.0688
  581MOL0     C80073  13.265   5.540   3.447 -0.2388  0.9004 -0.1772
  581MOL0     C80074  13.277   5.489   3.316 -0.7272 -1.1320  0.3819
  581MOL0     C80075  13.225   5.364   3.291  0.6245  0.4891  0.0378
  581MOL0     O80076  13.214   5.312   3.168 -0.2914 -0.3637  0.4432
  581MOL0     C80077  13.334   5.272   3.104 -0.5186  0.1481  0.2086
  581MOL0     C80078  13.307   5.143   3.029 -0.5915 -0.5569 -0.1972
  581MOL0     C80079  13.420   5.104   2.932 -0.9480  0.5954  0.4166
  581MOL0     C80080  13.381   4.993   2.839  0.2697  0.7400  0.4046
  581MOL0     C80081  13.447   4.856   2.866  0.0725 -0.0245  0.0332
  581MOL0     C80082  13.345   4.756   2.811  0.1367 -0.5394 -0.5379
  581MOL0     C80083  13.246   4.707   2.920 -0.2467  0.3616 -0.3166
  581MOL0     C80084  13.135   4.614   2.868 -0.1240  0.3568 -0.3550
  581MOL0    Cl80085  13.234   4.466   2.834 -0.2396  0.2378  0.2350
  581MOL0     C80086  13.151   5.296   3.390  0.3467 -0.5631  0.2624
  581MOL0     C80087  13.151   5.349   3.523  0.2602  0.0686  0.2398
  581MOL0     O80088  13.255   5.345   3.797  0.0651 -0.1799  0.2460
  581MOL0     C80089  13.178   5.448   4.036  0.3032  0.2565  0.1387
  581MOL0     C80090  13.143   5.498   4.155  0.4235 -0.2676 -0.7884
  581MOL0     N80091  12.576   5.761   4.746  0.6569  0.8527  0.0242
  581MOL0     N80092  12.450   5.721   4.735 -0.3602  0.2520 -0.6691
  581MOL0     C80093  11.298   5.653   4.727 -1.3991 -0.0438  0.3157
  581MOL0     C80094  11.169   5.707   4.738 -0.3144  0.8181 -0.6297
  581MOL0     C80095  10.825   5.991   4.711 -0.0166 -0.0393 -0.8370
  581MOL0     C80096  10.753   5.958   4.592 -0.9894  0.0119  0.4033
  581MOL0     C80097  10.641   6.028   4.560  0.5902 -0.5559  0.7016
  581MOL0     C80098  10.595   6.142   4.643 -1.3103  0.3161  1.0608
  581MOL0     O80099  10.499   6.223   4.604  0.1371 -0.9754  0.5745
  581MOL0     C80100  10.451   6.332   4.682 -1.4872 -0.4617 -0.1448
  581MOL0     C80101  10.386   6.297   4.815  0.5327  0.5843  0.0213
  581MOL0     C80102  10.424   6.410   4.920  0.0823  0.9251 -0.3650
  581MOL0     C80103  10.371   6.384   5.056 -0.2318 -0.2711 -0.2530
  581MOL0     C80104  10.401   6.257   5.120  0.6742 -0.1699  0.1967
  581MOL0     C80105  10.431   6.150   5.162  0.2517  0.1079  0.1452
  581MOL0     C80106  10.666   6.171   4.763  0.0407 -0.2576 -0.4618
  581MOL0     C80107  10.786   6.093   4.796 -0.1450 -0.8366 -0.3986
  581MOL0     C80108  10.847   6.134   4.925 -0.3070  0.4640  0.4575
  581MOL0     H80109  11.090   5.754   4.425 -0.7644 -2.2527  0.5946
  581MOL0     H80110  11.317   5.650   4.388  2.0956 -2.4427  0.5200
  581MOL0     H80111  11.477   5.514   4.417 -3.2992 -0.7138  2.7111
  581MOL0     H80112  11.637   5.511   4.477 -0.8818 -0.3462 -1.1074
  581MOL0     H80113  11.606   5.672   4.296  0.5260  0.0333  0.5551
  581MOL0     H80114  11.506   5.780   4.400 -0.8005 -1.4413 -0.2713
  581MOL0     H80115  11.715   5.873   4.458  0.2113  0.5400  2.7825
  581MOL0     H80116  11.724   5.739   4.564  1.5057 -2.8138 -0.7477
  581MOL0     H80117  11.847   5.602   4.394  0.6356  0.4805 -0.2508
  581MOL0     H80118  11.859   5.756   4.304 -3.3516  0.3696  0.0701
  581MOL0     H80119  11.942   5.753   4.587  0.4933 -3.1792 -0.2018
  581MOL0     H80120  12.010   5.847   4.453 -1.5849  1.6950  3.2368
  581MOL0     H80121  12.062   5.555   4.517 -0.9959  0.3971  3.9392
  581MOL0     H80122  12.111   5.647   4.363  2.0923  3.1493  1.4286
  581MOL0     H80123  12.179   5.726   4.646 -0.4893 -6.3012  1.2609
  581MOL0     H80124  12.262   5.777   4.490 -0.6459 -1.1774 -4.1245
  581MOL0     H80125  12.263   5.533   4.664  2.4735 -0.8156  0.6113
  581MOL0     H80126  12.329   5.529   4.494  0.0732  1.1568 -0.4623
  581MOL0     H80127  12.590   5.552   4.500 -0.9461 -0.1378 -0.1088
  581MOL0     H80128  12.846   5.657   4.659 -0.0705  0.6372  0.4707
  581MOL0     H80129  12.807   5.833   4.662  1.8925  1.0143 -0.6889
  581MOL0     H80130  12.847   5.635   4.429 -2.2874 -0.2960 -0.6653
  581MOL0     H80131  12.744   5.775   4.405 -0.1491 -0.8451 -0.0051
  581MOL0     H80132  12.913   5.931   4.456 -2.9631 -0.2817  0.1432
  581MOL0     H80133  13.029   5.807   4.511 -0.5965  1.4020  1.8599
  581MOL0     H80134  12.927   5.827   4.216  2.5462 -1.5624 -2.2885
  581MOL0     H80135  13.077   5.877   4.274 -1.1253  2.4248  2.6636
  581MOL0     H80136  13.129   5.823   4.076 -0.6166 -0.2273  0.5930
  581MOL0     H80137  13.284   5.746   3.754  2.8524  3.9826 -0.2863
  581MOL0     H80138  13.241   5.863   3.872  0.9907 -2.3714  2.6318
  581MOL0     H80139  13.106   5.792   3.788  0.6908 -0.7047 -1.6643
  581MOL0     H80140  13.316   5.636   3.455 -0.6551  1.0944  0.1785
  581MOL0     H80141  13.320   5.553   3.239 -0.6450  0.4583  1.6839
  581MOL0     H80142  13.354   5.358   3.039  0.6989 -0.2105  0.0748
  581MOL0     H80143  13.420   5.270   3.171  2.0576  1.6399 -2.7537
  581MOL0     H80144  13.281   5.056   3.090  2.9266 -0.8879  1.0389
  581MOL0     H80145  13.221   5.165   2.965 -0.0823  0.9618 -0.4085
  581MOL0     H80146  13.507   5.078   2.992  1.3376  1.1414 -2.4469
  581MOL0     H80147  13.436   5.194   2.873  0.3676  1.0207  1.3820
  581MOL0     H80148  13.415   5.024   2.740 -3.7204  2.8814 -0.5001
  581MOL0     H80149  13.272   4.984   2.835  0.3364 -1.2797  1.6938
  581MOL0     H80150  13.540   4.840   2.810  0.8378 -0.0472  1.2556
  581MOL0     H80151  13.465   4.842   2.973  1.1520  1.5956  0.0952
  581MOL0     H80152  13.404   4.671   2.777 -1.9324 -2.3194  0.1340
  581MOL0     H80153  13.282   4.786   2.727 -3.7742  1.8882  2.8816
  581MOL0     H80154  13.202   4.792   2.972 -3.3348  0.1506 -2.3514
  581MOL0     H80155  13.295   4.656   3.004 -0.2434 -1.4284 -1.3618
  581MOL0     H80156  13.078   4.648   2.781 -0.5886  0.8841  0.1426
  581MOL0     H80157  13.064   4.594   2.949  1.9265 -1.8169  1.0338
  581MOL0     H80158  13.087   5.210   3.370 -0.6226 -1.0726  4.5143
  581MOL0     H80159  13.078   5.298   3.586 -1.9483  2.6920 -0.0047
  581MOL0     H80160  13.187   5.340   4.032  0.5670  0.2291  1.1529
  581MOL0     H80161  13.120   5.430   4.236 -1.5281  1.7974  0.4895
  581MOL0     H80162  11.348   5.631   4.821 -0.2791  0.1647 -0.2155
  581MOL0     H80163  11.138   5.712   4.842 -0.2282 -1.1065 -0.4707
  581MOL0     H80164  10.783   5.874   4.529  0.1454  0.4012  0.3958
  581MOL0     H80165  10.584   5.988   4.478  1.5180 -2.6329  0.9961
  581MOL0     H80166  10.534   6.402   4.692 -0.8250 -1.2363 -0.0960
  581MOL0     H80167  10.371   6.366   4.616  1.1367  0.6948 -2.9560
  581MOL0     H80168  10.421   6.201   4.854 -0.6608  0.0136 -0.2601
  581MOL0     H80169  10.278   6.290   4.798 -0.1967 -1.0314  4.0604
  581MOL0     H80170  10.533   6.421   4.925  0.3168 -1.3961  2.5755
  581MOL0     H80171  10.387   6.509   4.891 -1.0463  1.1821  1.7489
  581MOL0     H80172  10.262   6.387   5.056 -0.2688 -0.4691  1.3123
  581MOL0     H80173  10.410   6.461   5.123 -0.3128  0.5921 -1.1818
  581MOL0     H80174  10.456   6.055   5.206  2.7492  2.1502  3.6679
  581MOL0     H80175  10.644   6.257   4.824 -1.2835 -2.7329  2.8641
  581MOL0     H80176  10.785   6.204   4.981 -1.6547 -0.6167  0.3741
  581MOL0     H80177  10.864   6.048   4.990  0.8014  1.0533  0.9583
  581MOL0     H80178  10.946   6.177   4.908 -1.1773  1.7546 -1.8254
  582MOL0     O80179   7.970   3.316   9.822 -0.1700  0.4235 -0.2101
  582MOL0     C80180   7.892   3.399   9.768 -0.7933  0.2721  0.5005
  582MOL0     O80181   7.930   3.528   9.735 -0.1759  0.1113 -0.4050
  582MOL0     C80182   8.070   3.559   9.746  0.5819 -0.0853 -0.3155
  582MOL0     C80183   8.159   3.524   9.852 -0.2494  0.7917 -0.0518
  582MOL0     C80184   8.292   3.555   9.843 -0.3214  0.0663 -0.6592
  582MOL0     C80185   8.338   3.651   9.752  0.0992  1.0398  0.0631
  582MOL0     O80186   8.475   3.669   9.727 -0.2845  0.5931 -0.1465
  582MOL0     C80187   8.564   3.555   9.748 -0.2111 -0.2344  1.1655
  582MOL0     C80188   8.695   3.602   9.689 -0.3490  0.4761  0.0371
  582MOL0     C80189   8.803   3.484   9.665  0.4311  0.1094  0.5245
  582MOL0     C80190   8.858   3.419   9.789  0.0275 -0.0037 -0.5811
  582MOL0     C80191   8.973   3.319   9.769 -0.4103 -0.0880 -0.5047
  582MOL0     C80192   9.026   3.240   9.876  0.4617 -0.5500 -0.0190
  582MOL0     C80193   9.085   3.321  10.000 -0.1981 -0.4000 -0.4398
  582MOL0     C80194   9.096   3.231  10.129 -0.4084  0.2810  0.8861
  582MOL0     N80195   9.205   3.138  10.122  0.6487 -0.0946 -0.7278
  582MOL0     C80196   9.328   3.178  10.141  0.4871 -0.8761 -1.3234
  582MOL0     C80197   9.405   3.073  10.113 -1.1401  0.7053 -0.7072
  582MOL0     C80198   9.561   3.075  10.112  0.2089  0.8045 -0.0972
  582MOL0     C80199   9.625   3.046   9.984  0.6029  0.8769 -0.3813
  582MOL0     C80200   9.778   3.047   9.988  0.2557  0.2574 -0.7635
  582MOL0     C80201   9.846   3.071   9.857 -0.1604 -0.7112 -0.0064
  582MOL0     O80202   9.804   2.993   9.750 -0.4532  0.3178 -0.3508
  582MOL0     C80203   9.831   2.864   9.735 -0.0301  0.0614 -0.1280
  582MOL0     C80204   9.739   2.768   9.699 -0.0717  0.3851  0.8130
  582MOL0     C80205   9.773   2.638   9.678  0.2583 -0.0305  0.2134
  582MOL0     C80206   9.661   2.551   9.609 -0.3630 -0.5762  0.7590
  582MOL0     C80207   9.901   2.591   9.730  0.8794 -0.3995 -0.0136
  582MOL0     C80208   9.937   2.453   9.753  0.4413 -0.1609 -0.3267
  582MOL0     O80209   9.941   2.400   9.882 -0.2194 -0.9314 -0.3833
  582MOL0     C80210   9.904   2.484   9.982  0.5637 -0.4886  0.4281
  582MOL0     C80211   9.989   2.528  10.076  0.2377 -0.0656 -0.7815
  582MOL0     C80212   9.945   2.608  10.185  0.5381 -0.3096  0.3441
  582MOL0     C80213   9.800   2.642  10.188 -0.6479  0.3617 -0.6054
  582MOL0     O80214   9.752   2.723  10.286 -0.1566  0.2369 -0.1709
  582MOL0     C80215   9.785   2.683  10.419 -0.7113  0.4118 -0.6965
  582MOL0     C80216   9.697   2.744  10.530 -0.0454 -0.2058  0.1836
  582MOL0     C80217   9.568   2.660  10.548  0.2268  0.2662 -0.5260
  582MOL0     C80218   9.489   2.706  10.672  0.0474  0.0164  0.8311
  582MOL0     C80219   9.396   2.595  10.726  1.0944 -1.3908  0.0390
  582MOL0     C80220   9.304   2.652  10.833  0.8064  0.0718  0.4721
  582MOL0     C80221   9.237   2.518  10.885  0.1604  0.8493 -0.4083
  582MOL0     C80222   9.129   2.550  10.985 -0.5981  0.2297  0.6987
  582MOL0    Cl80223   9.000   2.659  10.906 -0.2846 -0.4339  0.2059
  582MOL0     C80224   9.713   2.591  10.099 -0.0855  0.1178  0.6897
  582MOL0     C80225   9.763   2.512   9.996 -0.8662 -0.0793  0.9661
  582MOL0     O80226   9.960   2.387   9.654  0.4837  0.0786  0.0876
  582MOL0     C80227   9.993   2.685   9.766 -0.0211  1.2352  0.2804
  582MOL0     C80228   9.961   2.819   9.772  0.0093  0.9026 -0.7509
  582MOL0     N80229   9.320   2.969  10.086 -0.0063 -0.2484 -0.2759
  582MOL0     N80230   9.198   3.004  10.106  0.3577 -0.0501  0.9498
  582MOL0     C80231   8.247   3.696   9.654  0.3933  0.1288 -0.3581
  582MOL0     C80232   8.116   3.650   9.654 -0.5094 -0.7429 -0.2660
  582MOL0     C80233   7.758   3.360   9.726 -0.7188  0.6286  0.2078
  582MOL0     C80234   7.704   3.420   9.614 -0.5702 -0.5005  0.0654
  582MOL0     C80235   7.577   3.390   9.563 -1.0013  0.0065 -0.7835
  582MOL0     C80236   7.489   3.312   9.646 -0.1803 -0.4884 -0.2113
  582MOL0     O80237   7.364   3.290   9.596 -0.2870  0.2513  0.4358
  582MOL0     C80238   7.260   3.303   9.693  0.3969 -0.2737  0.4286
  582MOL0     C80239   7.112   3.282   9.637 -0.1864  0.2816  0.1847
  582MOL0     C80240   7.076   3.130   9.613  0.4790 -0.6770 -0.3312
  582MOL0     C80241   6.928   3.134   9.569 -0.0568  0.1218  0.2127
  582MOL0     C80242   6.839   3.119   9.686 -0.4248  0.0380  0.4838
  582MOL0     C80243   6.773   3.139   9.786  0.6150  0.4440  0.3687
  582MOL0     C80244   7.542   3.252   9.753  0.6918 -0.5301  0.0809
  582MOL0     C80245   7.672   3.272   9.798  0.2753  0.5126 -0.7939
  582MOL0     C80246   7.726   3.195   9.926  0.4151 -0.0551  0.2308
  582MOL0     H80247   8.124   3.451   9.924 -0.2452  0.2483 -0.5866
  582MOL0     H80248   8.364   3.514   9.914 -0.3909 -0.9342 -1.1511
  582MOL0     H80249   8.540   3.475   9.678 -0.0290  1.9446 -1.5981
  582MOL0     H80250   8.577   3.520   9.850  0.2720 -1.1960  0.7879
  582MOL0     H80251   8.680   3.644   9.589  0.3385 -4.7904 -2.6600
  582MOL0     H80252   8.744   3.675   9.753  0.6509  0.8765 -1.1382
  582MOL0     H80253   8.755   3.425   9.587  1.0715 -0.0844  0.2690
  582MOL0     H80254   8.881   3.536   9.609 -2.1518  2.9504 -0.7486
  582MOL0     H80255   8.895   3.499   9.855 -0.2959 -0.6701  0.4407
  582MOL0     H80256   8.772   3.388   9.849  1.0660  3.4000  3.1315
  582MOL0     H80257   9.056   3.379   9.731 -0.2807  1.3308  1.7573
  582MOL0     H80258   8.944   3.250   9.689 -0.1845 -1.1574  0.3108
  582MOL0     H80259   8.937   3.187   9.912  0.5353 -1.1418 -0.6878
  582MOL0     H80260   9.106   3.175   9.838  0.1299  0.6776 -3.1068
  582MOL0     H80261   9.011   3.400  10.018  2.7612  2.8442 -1.3063
  582MOL0     H80262   9.180   3.371   9.980  0.9498 -1.0747  2.7384
  582MOL0     H80263   9.105   3.300  10.214  1.3933  0.1521  0.8342
  582MOL0     H80264   9.004   3.174  10.144 -0.9154  0.3260 -1.5754
  582MOL0     H80265   9.353   3.281  10.165 -1.0525  0.4245 -4.6020
  582MOL0     H80266   9.586   2.996  10.184 -0.3106  0.1292 -0.6441
  582MOL0     H80267   9.600   3.170  10.150 -1.3819  1.0330  1.0492
  582MOL0     H80268   9.586   2.952   9.944  2.5543  0.2597 -0.9599
  582MOL0     H80269   9.593   3.130   9.922  0.2684  0.6750 -0.4882
  582MOL0     H80270   9.815   3.126  10.054  2.3868  1.3534 -3.0728
  582MOL0     H80271   9.815   2.955  10.034 -1.0029  0.5695  0.9460
  582MOL0     H80272   9.810   3.172   9.833  3.2307  1.1077  1.7059
  582MOL0     H80273   9.955   3.066   9.870 -0.0704 -0.1400 -0.4423
  582MOL0     H80274   9.645   2.806   9.659  0.0343 -3.7641 -4.5232
  582MOL0     H80275   9.659   2.454   9.660  0.0142 -0.0214  1.8687
  582MOL0     H80276   9.673   2.539   9.501 -1.7458  0.4782  0.4684
  582MOL0     H80277   9.561   2.594   9.617 -1.2981 -1.7729 -2.5955
  582MOL0     H80278  10.095   2.504  10.077  0.2958 -0.3556  3.7073
  582MOL0     H80279  10.018   2.655  10.250  1.1008 -2.1498  1.1302
  582MOL0     H80280   9.784   2.575  10.433  2.3954  0.5734  2.1318
  582MOL0     H80281   9.891   2.706  10.437 -0.7240 -1.0702  1.7650
  582MOL0     H80282   9.757   2.752  10.621 -0.6575 -0.1816  0.5882
  582MOL0     H80283   9.679   2.846  10.494  1.4617 -0.0431 -0.1570
  582MOL0     H80284   9.587   2.554  10.565  2.8414  0.6827 -0.5289
  582MOL0     H80285   9.499   2.662  10.463 -2.0693 -1.9427  1.0989
  582MOL0     H80286   9.432   2.794  10.640  0.3736 -0.3329 -0.7689
  582MOL0     H80287   9.551   2.747  10.753  0.0770  1.6105  0.0419
  582MOL0     H80288   9.342   2.551  10.641 -0.9016  2.8171 -1.1189
  582MOL0     H80289   9.461   2.518  10.768 -2.3814 -2.6261  3.8683
  582MOL0     H80290   9.232   2.720  10.787 -1.2668 -1.6424  0.9725
  582MOL0     H80291   9.363   2.700  10.911  0.3204  2.0277 -0.3149
  582MOL0     H80292   9.309   2.452  10.933  1.7400  1.0866 -2.3396
  582MOL0     H80293   9.182   2.464  10.808 -2.2405 -0.7702  2.2499
  582MOL0     H80294   9.168   2.599  11.074 -1.0952 -0.0338  1.0684
  582MOL0     H80295   9.083   2.458  11.022  3.5632 -2.1713  0.3978
  582MOL0     H80296   9.608   2.605  10.123 -0.2778  1.7790 -0.8865
  582MOL0     H80297   9.698   2.471   9.919 -0.3442 -0.3784  0.6752
  582MOL0     H80298  10.092   2.657   9.802 -0.7383 -0.1958  1.2198
  582MOL0     H80299  10.035   2.893   9.798  0.6115 -0.4995  1.9094
  582MOL0     H80300   8.270   3.768   9.576 -2.9624  1.2102 -0.4940
  582MOL0     H80301   8.054   3.704   9.583 -0.3960 -0.6271 -0.2780
  582MOL0     H80302   7.761   3.490   9.554 -0.3282 -1.6501 -1.1107
  582MOL0     H80303   7.550   3.421   9.463  1.0962 -1.2157 -1.7849
  582MOL0     H80304   7.278   3.232   9.774 -3.4842 -1.3453  0.5286
  582MOL0     H80305   7.272   3.406   9.727  2.0932  0.2818 -1.5963
  582MOL0     H80306   7.090   3.332   9.542 -0.8930 -1.4361 -0.5972
  582MOL0     H80307   7.045   3.317   9.717  0.3479  0.2649  0.6454
  582MOL0     H80308   7.143   3.087   9.538  1.2829  2.4901 -1.5710
  582MOL0     H80309   7.090   3.067   9.701 -5.0967 -1.1666  0.5897
  582MOL0     H80310   6.906   3.053   9.499  4.4949 -0.0478 -1.3429
  582MOL0     H80311   6.901   3.234   9.535  2.9180  1.5128  1.5800
  582MOL0     H80312   6.722   3.182   9.870 -1.1726  1.5580 -1.2074
  582MOL0     H80313   7.466   3.192   9.803 -0.1899  0.4971  0.0187
  582MOL0     H80314   7.640   3.155   9.981  0.7291  0.4147  1.0827
  582MOL0     H80315   7.782   3.108   9.891 -1.5037 -1.0053 -0.6659
  582MOL0     H80316   7.782   3.263   9.990  0.2948  0.8372 -0.5892
  583MOL0     O80317   4.386  11.378   6.165  0.3389 -0.3349 -0.5876
  583MOL0     C80318   4.378  11.259   6.202 -0.5038  0.5492  0.2274
  583MOL0     O80319   4.276  11.174   6.164 -0.1419 -0.5185 -0.6587
  583MOL0     C80320   4.167  11.236   6.099  0.2945  0.1965 -0.3964
  583MOL0     C80321   4.159  11.231   5.959  0.6207  0.0954 -0.5395
  583MOL0     C80322   4.057  11.294   5.889 -0.0280 -0.4510 -0.4659
  583MOL0     C80323   3.954  11.356   5.965  0.1551 -0.2397 -0.7566
  583MOL0     O80324   3.856  11.421   5.896 -0.7042  1.0658  0.4690
  583MOL0     C80325   3.727  11.442   5.951 -0.8679  0.0816 -0.5293
  583MOL0     C80326   3.639  11.470   5.835 -0.2652 -0.3859 -0.4083
  583MOL0     C80327   3.619  11.612   5.801  0.5066 -0.6667  0.7950
  583MOL0     C80328   3.564  11.622   5.660 -0.3826  0.3453 -0.6581
  583MOL0     C80329   3.537  11.770   5.623 -0.3911  0.4272 -0.6001
  583MOL0     C80330   3.414  11.783   5.540 -0.4038  0.0863 -0.1471
  583MOL0     C80331   3.408  11.905   5.456  0.1770 -0.6645  0.1718
  583MOL0     C80332   3.448  12.040   5.532  0.4320 -0.0934 -0.5420
  583MOL0     N80333   3.429  12.161   5.448  1.1056  0.3948 -0.0527
  583MOL0     C80334   3.475  12.172   5.319 -0.4418  0.7625  0.2739
  583MOL0     C80335   3.439  12.293   5.294 -0.6849  0.4634  0.8227
  583MOL0     C80336   3.463  12.354   5.160  0.6771 -0.4946  0.8464
  583MOL0     C80337   3.541  12.484   5.156 -0.8578 -0.6729 -0.3332
  583MOL0     C80338   3.531  12.556   5.018  0.4741 -0.2542  0.2494
  583MOL0     C80339   3.558  12.701   5.034  0.7577 -1.4594 -0.0827
  583MOL0     O80340   3.458  12.765   5.107  0.1534  0.4522 -0.4847
  583MOL0     C80341   3.487  12.896   5.132  0.0884  0.7569 -0.1183
  583MOL0     C80342   3.541  12.932   5.257 -0.1436  0.3963 -0.1653
  583MOL0     C80343   3.561  13.069   5.291 -0.0703  0.2289 -0.0480
  583MOL0     C80344   3.609  13.095   5.431  0.6745 -0.1408  0.0615
  583MOL0     C80345   3.541  13.170   5.194  0.3543  0.8142  0.2015
  583MOL0     C80346   3.557  13.323   5.215  0.1275 -0.5486 -0.2224
  583MOL0     O80347   3.541  13.409   5.109 -0.5727 -0.3720 -0.2447
  583MOL0     C80348   3.534  13.541   5.142 -0.1437  0.5572  0.2199
  583MOL0     C80349   3.407  13.609   5.153  0.3619  0.7852 -0.0291
  583MOL0     C80350   3.403  13.743   5.197 -0.8060 -1.0933 -0.2994
  583MOL0     C80351   3.521  13.817   5.226  0.1218 -0.1883  0.6337
  583MOL0     O80352   3.519  13.938   5.283 -0.1284 -0.3459 -0.1630
  583MOL0     C80353   3.413  14.033   5.260  0.3273 -0.0665 -0.2363
  583MOL0     C80354   3.391  14.055   5.108  0.2828  0.6192 -0.4420
  583MOL0     C80355   3.300  14.171   5.065  0.6788  0.3393 -0.0316
  583MOL0     C80356   3.341  14.309   5.124 -0.4918 -0.6573 -0.2300
  583MOL0     C80357   3.245  14.425   5.073 -0.6874  1.1692  0.1145
  583MOL0     C80358   3.235  14.444   4.917 -0.2205  0.0961  0.7572
  583MOL0     C80359   3.198  14.593   4.871  0.2125 -0.3283 -0.2648
  583MOL0     C80360   3.314  14.684   4.844  0.1246  1.0285 -0.2891
  583MOL0    Cl80361   3.436  14.618   4.733 -0.1492 -0.0750  0.4439
  583MOL0     C80362   3.643  13.757   5.209  0.4203  1.2120 -0.5722
  583MOL0     C80363   3.650  13.615   5.173  0.1245  0.1457 -0.4101
  583MOL0     O80364   3.605  13.361   5.322 -0.1169 -0.0930 -0.2369
  583MOL0     C80365   3.489  13.127   5.068 -0.0116  0.8884  0.2153
  583MOL0     C80366   3.462  12.997   5.041 -0.0523  0.7638  1.2431
  583MOL0     N80367   3.358  12.343   5.395  0.5088 -0.1532 -0.1533
  583MOL0     N80368   3.345  12.254   5.483  0.4325  0.2162 -0.0370
  583MOL0     C80369   3.955  11.355   6.109 -0.1079 -0.9903  0.7836
  583MOL0     C80370   4.058  11.293   6.173 -0.1904  0.3885 -0.1290
  583MOL0     C80371   4.491  11.193   6.279  0.1846  0.4470 -0.3449
  583MOL0     C80372   4.478  11.068   6.331  0.5280 -0.5004  0.2879
  583MOL0     C80373   4.577  11.023   6.419  0.3996 -0.6722  0.1563
  583MOL0     C80374   4.689  11.089   6.458 -1.3605 -0.1300  0.6172
  583MOL0     O80375   4.782  11.023   6.538  0.1328 -0.1489 -0.2508
  583MOL0     C80376   4.877  10.963   6.452  0.1884  0.5185 -0.1411
  583MOL0     C80377   4.859  10.808   6.442 -0.3593 -0.0896 -0.5933
  583MOL0     C80378   4.860  10.748   6.580  0.0385  0.9164 -0.1749
  583MOL0     C80379   4.871  10.598   6.571  0.1937  1.0532  0.0382
  583MOL0     C80380   4.777  10.530   6.489  0.0372  0.5947 -0.2614
  583MOL0     C80381   4.684  10.474   6.423 -1.0752 -0.4700 -0.3812
  583MOL0     C80382   4.706  11.216   6.416 -0.5672 -0.5081  0.7642
  583MOL0     C80383   4.611  11.267   6.318 -1.4680 -0.2385 -0.5789
  583MOL0     C80384   4.649  11.403   6.269  0.0323 -0.1897  0.0163
  583MOL0     H80385   4.242  11.183   5.908  0.1859 -1.5340  0.2283
  583MOL0     H80386   4.055  11.298   5.780 -0.6103  0.2326 -0.4419
  583MOL0     H80387   3.738  11.531   6.013  3.3095  1.4329 -2.8305
  583MOL0     H80388   3.700  11.350   6.004  1.1965 -0.7444 -0.8166
  583MOL0     H80389   3.684  11.415   5.752  3.6321  2.4349 -0.4640
  583MOL0     H80390   3.538  11.432   5.852  0.2100 -1.1571  0.8701
  583MOL0     H80391   3.547  11.667   5.862 -0.6235  1.4723 -2.2379
  583MOL0     H80392   3.714  11.665   5.813  0.5080 -0.8343  1.6370
  583MOL0     H80393   3.645  11.586   5.595 -1.9206 -2.3286 -1.2383
  583MOL0     H80394   3.475  11.560   5.649  0.1781 -1.1090  2.0981
  583MOL0     H80395   3.623  11.802   5.564 -1.0764  2.7609 -0.4277
  583MOL0     H80396   3.542  11.836   5.710 -1.8479  0.1335 -0.2593
  583MOL0     H80397   3.412  11.704   5.464  1.9618  1.9026 -2.2810
  583MOL0     H80398   3.329  11.771   5.607  0.2738  0.4766  0.8041
  583MOL0     H80399   3.305  11.910   5.421  0.1851  1.6598  0.2937
  583MOL0     H80400   3.470  11.893   5.366 -1.4762  1.2221 -1.3326
  583MOL0     H80401   3.383  12.046   5.620 -0.6413 -0.6200 -1.2750
  583MOL0     H80402   3.551  12.038   5.566 -0.3190 -1.8818  1.9663
  583MOL0     H80403   3.534  12.100   5.264 -1.8326  0.8324 -1.4009
  583MOL0     H80404   3.363  12.377   5.121 -0.8428 -1.2346  4.0018
  583MOL0     H80405   3.518  12.293   5.087 -0.2953 -0.4716  0.0707
  583MOL0     H80406   3.492  12.550   5.229 -2.0050 -1.9452  0.0891
  583MOL0     H80407   3.644  12.466   5.189 -1.1538  0.4504  1.3206
  583MOL0     H80408   3.598  12.525   4.938 -1.3931  0.6775 -1.7967
  583MOL0     H80409   3.429  12.548   4.979 -0.3456  0.4111  2.1042
  583MOL0     H80410   3.650  12.716   5.091  1.2056  3.5757 -1.6385
  583MOL0     H80411   3.568  12.750   4.936  1.9399 -1.2920  0.1111
  583MOL0     H80412   3.560  12.845   5.319  1.3536 -0.0475 -1.1946
  583MOL0     H80413   3.569  13.013   5.491  0.0926  1.2493  1.6412
  583MOL0     H80414   3.558  13.183   5.472 -1.2110 -1.4195  0.6048
  583MOL0     H80415   3.718  13.103   5.436  0.7162  1.8562 -2.1160
  583MOL0     H80416   3.315  13.557   5.127 -0.3359  2.5933 -1.3670
  583MOL0     H80417   3.306  13.791   5.208  0.6121  1.6079  1.5674
  583MOL0     H80418   3.323  13.995   5.308 -1.0269  1.8569 -1.1279
  583MOL0     H80419   3.438  14.121   5.319 -1.9380 -1.9202  3.8999
  583MOL0     H80420   3.489  14.070   5.061  1.1505 -0.9050  0.7577
  583MOL0     H80421   3.354  13.961   5.066 -2.9371  0.5966  2.0496
  583MOL0     H80422   3.198  14.134   5.083  0.2276  0.4661 -2.0789
  583MOL0     H80423   3.319  14.179   4.958  0.2767  1.8377 -0.0101
  583MOL0     H80424   3.443  14.328   5.087 -1.4558  2.2467 -1.6639
  583MOL0     H80425   3.341  14.312   5.233  1.2181  1.1609 -0.2166
  583MOL0     H80426   3.148  14.411   5.122 -0.2228 -2.2016  0.3109
  583MOL0     H80427   3.283  14.518   5.116  0.3223  0.3556  1.0542
  583MOL0     H80428   3.163  14.371   4.879  1.0054 -1.0387  0.5369
  583MOL0     H80429   3.323  14.419   4.858  0.0027 -0.0452  1.1461
  583MOL0     H80430   3.131  14.640   4.944 -1.5204 -1.1746 -1.2528
  583MOL0     H80431   3.141  14.580   4.779 -0.4091 -3.7034  0.4322
  583MOL0     H80432   3.352  14.711   4.943 -3.3215 -1.6729  1.9935
  583MOL0     H80433   3.282  14.774   4.791  1.7046  0.8328 -1.6469
  583MOL0     H80434   3.731  13.818   5.230  1.4965 -0.4587 -0.0450
  583MOL0     H80435   3.746  13.566   5.173  0.2590  0.2887  2.0211
  583MOL0     H80436   3.464  13.209   5.001  1.5080  1.0762 -0.1665
  583MOL0     H80437   3.440  12.968   4.939  1.7299  0.7699  0.8224
  583MOL0     H80438   3.879  11.401   6.171 -2.3644 -0.5062 -2.1449
  583MOL0     H80439   4.060  11.290   6.282 -1.8846 -1.1309 -0.0805
  583MOL0     H80440   4.394  11.000   6.319  3.5298 -4.4301 -0.4268
  583MOL0     H80441   4.562  10.920   6.450 -0.6655  0.1599  2.6774
  583MOL0     H80442   4.881  11.010   6.354 -1.8554  2.4065  0.5882
  583MOL0     H80443   4.975  10.975   6.500 -1.2418 -0.0130  3.2290
  583MOL0     H80444   4.936  10.783   6.369  0.8534  0.0331  0.5900
  583MOL0     H80445   4.763  10.779   6.400 -1.4024 -1.5014  2.4449
  583MOL0     H80446   4.940  10.799   6.636  1.3280  0.4241 -1.5038
  583MOL0     H80447   4.762  10.773   6.621  0.0425  2.5964 -1.1133
  583MOL0     H80448   4.840  10.563   6.669  1.6653 -1.0569 -0.1897
  583MOL0     H80449   4.967  10.551   6.548  0.2758  0.9438  0.5983
  583MOL0     H80450   4.620  10.420   6.356  0.3439  1.0578 -3.1141
  583MOL0     H80451   4.793  11.277   6.441  0.1945 -1.5403  0.6638
  583MOL0     H80452   4.624  11.399   6.163 -0.9361 -0.9648  0.2588
  583MOL0     H80453   4.599  11.491   6.310 -1.5648  0.0239 -2.1880
  583MOL0     H80454   4.757  11.417   6.278  0.0959  0.6553 -1.6786
  584MOL0     O80455   3.753   3.138  11.235 -0.2791 -0.3585  0.6233
  584MOL0     C80456   3.748   3.240  11.160  0.2394  0.5517 -0.7206
  584MOL0     O80457   3.852   3.286  11.091  0.0110  0.6846 -0.1225
  584MOL0     C80458   3.961   3.202  11.081 -0.6437 -0.3459 -0.2006
  584MOL0     C80459   3.958   3.118  10.978  0.1606 -0.4186  0.1496
  584MOL0     C80460   4.064   3.026  10.968  0.0324  0.0408  0.8475
  584MOL0     C80461   4.171   3.029  11.058  0.5897 -0.9568  0.4490
  584MOL0     O80462   4.267   2.942  11.046 -0.3383 -0.1250  0.5587
  584MOL0     C80463   4.318   2.877  11.169 -0.0930 -0.1513 -0.1126
  584MOL0     C80464   4.453   2.935  11.198  0.6787  0.1162 -0.4334
  584MOL0     C80465   4.543   2.885  11.075 -0.0524  0.0464 -0.4142
  584MOL0     C80466   4.691   2.906  11.118  1.1110 -0.7155  0.3070
  584MOL0     C80467   4.722   3.052  11.123  0.2050 -0.3199  0.4558
  584MOL0     C80468   4.867   3.063  11.152 -0.8169 -0.1205  0.2301
  584MOL0     C80469   4.903   3.207  11.139  0.1527 -0.3157 -0.2845
  584MOL0     C80470   5.049   3.240  11.149 -0.1403  0.5861  0.1388
  584MOL0     N80471   5.096   3.373  11.156 -0.0424  0.2648  0.7361
  584MOL0     C80472   5.084   3.477  11.068 -1.0077  0.5088  0.1558
  584MOL0     C80473   5.178   3.564  11.097 -0.5791 -1.1001 -0.1127
  584MOL0     C80474   5.217   3.686  11.012  0.0902 -0.5904  0.3164
  584MOL0     C80475   5.124   3.808  11.040  0.3078 -0.2472 -1.1588
  584MOL0     C80476   4.977   3.789  10.991  1.0200 -0.1608  0.1409
  584MOL0     C80477   4.882   3.902  10.984  0.1720  0.1449 -0.3161
  584MOL0     O80478   4.933   3.990  10.883 -0.4877 -0.4764  0.1520
  584MOL0     C80479   4.871   4.112  10.863 -1.7847  1.3394  0.2664
  584MOL0     C80480   4.943   4.214  10.796 -0.5865  0.2970  0.1245
  584MOL0     C80481   4.894   4.348  10.787  0.3494 -0.4310 -0.1700
  584MOL0     C80482   4.991   4.463  10.751 -0.4621  0.3639 -0.5566
  584MOL0     C80483   4.771   4.377  10.855  0.8913  0.6104  1.0875
  584MOL0     C80484   4.731   4.518  10.856 -0.3584 -1.6492  0.8652
  584MOL0     O80485   4.654   4.548  10.750  0.3773 -0.3323 -0.6060
  584MOL0     C80486   4.620   4.678  10.716 -0.3871 -0.1971  0.3429
  584MOL0     C80487   4.526   4.688  10.615  0.8966  0.7656  0.0962
  584MOL0     C80488   4.473   4.806  10.564  0.5971 -0.5194  0.5162
  584MOL0     C80489   4.523   4.935  10.610  0.6921 -0.2746  0.5797
  584MOL0     O80490   4.465   5.045  10.546 -0.9812 -0.2371  0.4672
  584MOL0     C80491   4.541   5.160  10.512  0.3525  0.0622 -0.1261
  584MOL0     C80492   4.523   5.193  10.367  0.8391  0.3439  0.0004
  584MOL0     C80493   4.376   5.233  10.326 -0.3096  0.4991  0.2867
  584MOL0     C80494   4.364   5.275  10.180 -0.0191  0.2692 -0.0659
  584MOL0     C80495   4.220   5.316  10.143  0.3695  0.1747  0.0948
  584MOL0     C80496   4.217   5.466  10.180  0.9961  0.1530 -0.6089
  584MOL0     C80497   4.076   5.521  10.170  0.7013 -0.4336  0.0827
  584MOL0     C80498   4.005   5.516  10.034 -0.6947 -0.6591  0.1924
  584MOL0    Cl80499   3.857   5.615  10.060  0.4270 -0.2717  0.5903
  584MOL0     C80500   4.616   4.935  10.713 -0.8339  0.0253 -0.0933
  584MOL0     C80501   4.666   4.808  10.761  0.2515  0.3228  0.0400
  584MOL0     O80502   4.752   4.591  10.961 -0.2244 -0.5801  0.6571
  584MOL0     C80503   4.694   4.266  10.911 -0.2726 -0.6703  0.3912
  584MOL0     C80504   4.750   4.140  10.915 -0.1914 -0.6353 -0.6272
  584MOL0     N80505   5.230   3.517  11.216 -0.2926  0.0410 -0.6289
  584MOL0     N80506   5.183   3.403  11.249  0.9301 -0.0568 -0.2442
  584MOL0     C80507   4.174   3.127  11.161 -0.0434  0.2478  0.8485
  584MOL0     C80508   4.066   3.215  11.169 -0.3852 -0.0618 -0.1322
  584MOL0     C80509   3.636   3.324  11.181 -0.0121 -1.0571  1.0739
  584MOL0     C80510   3.641   3.470  11.145  0.8094 -0.7837  0.2367
  584MOL0     C80511   3.538   3.563  11.162 -0.0119 -0.4581  0.0125
  584MOL0     C80512   3.416   3.513  11.210 -0.0621 -0.0636  0.3602
  584MOL0     O80513   3.306   3.589  11.246 -0.0111 -0.6103  0.5151
  584MOL0     C80514   3.307   3.731  11.211 -0.1658 -0.0559 -0.8955
  584MOL0     C80515   3.371   3.817  11.327 -0.3076  0.1028 -0.1408
  584MOL0     C80516   3.383   3.958  11.288 -0.4161 -0.8251  0.8146
  584MOL0     C80517   3.444   4.043  11.399 -0.5420 -0.2231  0.4683
  584MOL0     C80518   3.583   4.003  11.432  0.4578  1.4549  0.4132
  584MOL0     C80519   3.695   3.981  11.453  0.3132  0.8227 -0.1513
  584MOL0     C80520   3.405   3.372  11.232  0.3788 -0.3714 -1.0885
  584MOL0     C80521   3.504   3.279  11.209 -0.2556 -0.4656  0.4806
  584MOL0     C80522   3.477   3.132  11.230 -0.0517 -0.1141 -0.5611
  584MOL0     H80523   3.885   3.129  10.899 -0.2643  0.8603  0.6826
  584MOL0     H80524   4.069   2.964  10.879 -3.5453 -1.4115  1.4834
  584MOL0     H80525   4.343   2.773  11.148  0.6972 -0.1230  0.6199
  584MOL0     H80526   4.254   2.882  11.257  1.8418 -0.2881  1.3682
  584MOL0     H80527   4.445   3.044  11.201 -2.0268  0.1680 -3.4359
  584MOL0     H80528   4.502   2.898  11.288 -2.0172 -0.1279  1.0498
  584MOL0     H80529   4.535   2.779  11.049  1.1104 -0.4912  1.2373
  584MOL0     H80530   4.524   2.945  10.986  2.6098 -0.9743 -1.7641
  584MOL0     H80531   4.724   2.853  11.208  2.2220  0.7115  0.7671
  584MOL0     H80532   4.744   2.861  11.034 -1.2766  0.6895 -2.1172
  584MOL0     H80533   4.670   3.106  11.202 -1.2470  0.6757 -1.1046
  584MOL0     H80534   4.702   3.094  11.024  1.8567 -0.4440  0.0335
  584MOL0     H80535   4.893   3.018  11.248  1.3675  3.3908  1.4789
  584MOL0     H80536   4.919   3.017  11.067 -2.0979 -0.6490 -0.2881
  584MOL0     H80537   4.842   3.268  11.207 -0.0160  1.1476 -1.6931
  584MOL0     H80538   4.883   3.225  11.033  2.1984 -3.0053 -1.2409
  584MOL0     H80539   5.098   3.184  11.229  0.6880  1.7115  0.4361
  584MOL0     H80540   5.085   3.194  11.057 -1.6523 -1.1771  0.3448
  584MOL0     H80541   5.018   3.483  10.982  0.2795  2.5559 -0.7621
  584MOL0     H80542   5.217   3.656  10.907 -2.5083 -1.7416  0.5707
  584MOL0     H80543   5.317   3.727  11.029 -0.0417 -0.2348  0.2544
  584MOL0     H80544   5.125   3.821  11.149 -3.5172  0.0688 -1.0148
  584MOL0     H80545   5.177   3.884  10.982  0.5559 -1.9806 -3.3533
  584MOL0     H80546   4.990   3.746  10.891  1.3822 -0.7110  0.4138
  584MOL0     H80547   4.934   3.722  11.066  3.9279  1.1054  3.1900
  584MOL0     H80548   4.784   3.864  10.954 -0.1877  1.0008 -0.2364
  584MOL0     H80549   4.863   3.951  11.079 -1.2136  2.5581 -1.7465
  584MOL0     H80550   5.046   4.206  10.762 -0.0888  4.4742  0.1257
  584MOL0     H80551   5.092   4.424  10.737 -0.0876  0.7614  0.8710
  584MOL0     H80552   5.000   4.538  10.829  0.4931  1.7216 -1.9096
  584MOL0     H80553   4.953   4.505  10.657  1.5215  0.2081 -1.4724
  584MOL0     H80554   4.484   4.594  10.581 -1.2801  0.3242  3.4945
  584MOL0     H80555   4.394   4.800  10.490  1.1481 -0.2275 -0.1005
  584MOL0     H80556   4.511   5.243  10.577 -0.9154 -0.6595  0.2407
  584MOL0     H80557   4.646   5.152  10.542  1.0504  3.5927 -1.1122
  584MOL0     H80558   4.583   5.282  10.347  0.5451  0.2275 -1.5346
  584MOL0     H80559   4.560   5.109  10.307  1.0761  1.7718 -1.9331
  584MOL0     H80560   4.344   5.315  10.391  0.6350 -0.4841  2.0708
  584MOL0     H80561   4.309   5.147  10.337 -0.3933  0.5717  0.3469
  584MOL0     H80562   4.386   5.178  10.134 -1.7576 -0.8197  1.2813
  584MOL0     H80563   4.433   5.355  10.152  0.7281  0.0394  1.0598
  584MOL0     H80564   4.192   5.300  10.038  2.5799  0.5113 -0.6024
  584MOL0     H80565   4.162   5.259  10.216  2.0520 -0.9143  0.6505
  584MOL0     H80566   4.285   5.526  10.119 -0.7365  1.6931 -1.1374
  584MOL0     H80567   4.240   5.477  10.287 -1.0090 -2.4016  0.2062
  584MOL0     H80568   4.080   5.624  10.205  3.1829 -1.1204  2.1700
  584MOL0     H80569   4.008   5.481  10.246  0.8671 -2.2620 -0.6755
  584MOL0     H80570   3.999   5.409  10.012 -2.2305 -0.7255  0.8368
  584MOL0     H80571   4.066   5.557   9.953 -0.7763  1.0215  0.9557
  584MOL0     H80572   4.643   5.032  10.752  1.3641  0.1670 -1.7400
  584MOL0     H80573   4.754   4.817  10.824  0.6392  0.3458 -0.4912
  584MOL0     H80574   4.595   4.296  10.944 -2.6741 -3.0462 -3.7794
  584MOL0     H80575   4.689   4.066  10.966  1.0653 -0.2274  1.6002
  584MOL0     H80576   4.257   3.128  11.232  0.7278  0.5607 -0.0303
  584MOL0     H80577   4.076   3.292  11.245  0.2942 -1.0073  0.7625
  584MOL0     H80578   3.734   3.516  11.114 -0.9010  0.5182 -3.5935
  584MOL0     H80579   3.573   3.665  11.148 -0.3341 -0.3500 -0.0081
  584MOL0     H80580   3.357   3.747  11.115 -0.1682  1.4143 -0.6714
  584MOL0     H80581   3.202   3.760  11.212 -0.2299 -0.0905  2.3726
  584MOL0     H80582   3.466   3.773  11.359 -0.5908 -0.1097  0.4147
  584MOL0     H80583   3.316   3.818  11.421 -0.4210  1.1533 -0.2005
  584MOL0     H80584   3.457   3.960  11.208 -1.8337  0.0804 -0.5386
  584MOL0     H80585   3.289   4.008  11.259  0.0637  1.2430  2.5462
  584MOL0     H80586   3.385   4.030  11.490 -0.4723 -0.2412  0.5112
  584MOL0     H80587   3.449   4.150  11.378  1.5310 -0.2840  0.3737
  584MOL0     H80588   3.796   3.950  11.472  0.5573  2.2043  0.9726
  584MOL0     H80589   3.306   3.334  11.259 -1.4047  2.5900 -2.8767
  584MOL0     H80590   3.371   3.104  11.233  0.5363 -2.5478  2.3245
  584MOL0     H80591   3.512   3.083  11.138  1.5844  0.1441 -0.1102
  584MOL0     H80592   3.524   3.087  11.318  0.3561  0.7418 -0.3357
  585MOL0     O80593   9.951  11.212   8.303 -0.1005  0.0824 -0.0037
  585MOL0     C80594  10.028  11.271   8.383 -0.2296 -0.2309 -0.2088
  585MOL0     O80595  10.038  11.410   8.414 -0.2920  0.5312 -0.5467
  585MOL0     C80596   9.996  11.513   8.336 -0.7239  0.6512 -0.2175
  585MOL0     C80597   9.952  11.628   8.391 -1.2442  0.3011 -0.6836
  585MOL0     C80598   9.914  11.743   8.321  0.3121  0.0146  0.1233
  585MOL0     C80599   9.924  11.746   8.180 -1.3252  1.1835 -0.5588
  585MOL0     O80600   9.888  11.837   8.090 -0.3515 -0.5400  0.2905
  585MOL0     C80601   9.786  11.927   8.129 -0.6111 -0.9172  0.0082
  585MOL0     C80602   9.705  11.977   8.009 -0.2248  0.4641  0.7095
  585MOL0     C80603   9.598  11.874   7.957 -0.1984  0.5437 -0.8284
  585MOL0     C80604   9.654  11.747   7.893  0.8754 -0.3574  0.8484
  585MOL0     C80605   9.546  11.663   7.816  0.3321  0.0678 -0.6249
  585MOL0     C80606   9.620  11.550   7.734  0.4124  0.5853  0.2377
  585MOL0     C80607   9.556  11.414   7.718 -0.1054  0.3487 -0.6730
  585MOL0     C80608   9.670  11.331   7.651  0.6210  0.5112 -0.3526
  585MOL0     N80609   9.698  11.360   7.514 -0.6359  0.1330  0.0744
  585MOL0     C80610   9.619  11.327   7.410 -0.4115 -1.0458  0.5948
  585MOL0     C80611   9.682  11.379   7.307  0.2454 -0.5301 -0.4134
  585MOL0     C80612   9.619  11.366   7.171  0.3802 -0.1109  0.3827
  585MOL0     C80613   9.520  11.485   7.141  0.5371  0.4899 -0.1653
  585MOL0     C80614   9.586  11.613   7.100 -0.4596 -0.1347  1.2366
  585MOL0     C80615   9.482  11.709   7.028 -0.4197  0.5607  0.4094
  585MOL0     O80616   9.549  11.818   6.981 -0.3380 -0.0526 -0.2197
  585MOL0     C80617   9.494  11.908   6.896  0.7553 -0.4071 -0.2377
  585MOL0     C80618   9.370  11.888   6.830  0.6974 -0.2332  0.7935
  585MOL0     C80619   9.318  11.987   6.750  1.7311  0.6289 -0.4115
  585MOL0     C80620   9.176  11.962   6.689  0.3330 -0.0058  0.6166
  585MOL0     C80621   9.383  12.119   6.733 -0.1338  0.6679  0.1012
  585MOL0     C80622   9.331  12.241   6.651 -0.3972 -0.2900  0.5595
  585MOL0     O80623   9.388  12.365   6.679  0.4403  0.5768  0.0289
  585MOL0     C80624   9.380  12.468   6.597 -0.5683  0.7432  0.5887
  585MOL0     C80625   9.338  12.596   6.645 -1.2694 -0.1744  0.6346
  585MOL0     C80626   9.347  12.708   6.559  0.3462  0.1363 -0.9752
  585MOL0     C80627   9.384  12.689   6.427 -0.6053 -1.1559  0.1792
  585MOL0     O80628   9.406  12.793   6.342 -0.4322  0.8237  0.4202
  585MOL0     C80629   9.349  12.782   6.215  0.9194  0.1745  0.5259
  585MOL0     C80630   9.270  12.916   6.196 -0.0055  0.1189 -0.1449
  585MOL0     C80631   9.176  12.890   6.073  0.7925 -0.1887 -0.2392
  585MOL0     C80632   9.092  13.008   6.020 -0.3160 -0.5357 -0.0614
  585MOL0     C80633   8.982  12.970   5.912  0.6057 -0.5823 -0.2562
  585MOL0     C80634   8.898  13.087   5.868 -0.3812  0.8973  0.6709
  585MOL0     C80635   8.794  13.058   5.759 -0.7292  0.0854 -0.2433
  585MOL0     C80636   8.694  13.170   5.730  0.1336 -0.4346  0.2482
  585MOL0    Cl80637   8.633  13.147   5.566  0.0885  0.1662 -0.3663
  585MOL0     C80638   9.420  12.563   6.381  0.1849 -0.3754  0.2104
  585MOL0     C80639   9.422  12.455   6.464 -0.3244  0.1157 -0.1997
  585MOL0     O80640   9.245  12.216   6.567  0.0719  0.0474 -0.3966
  585MOL0     C80641   9.506  12.130   6.787 -0.3688 -0.3882  0.4433
  585MOL0     C80642   9.563  12.033   6.875 -0.3414 -0.2043 -0.0329
  585MOL0     N80643   9.789  11.453   7.348 -0.7207  0.1638  0.0408
  585MOL0     N80644   9.803  11.431   7.466  0.4542  0.2754  0.4293
  585MOL0     C80645   9.989  11.626   8.127 -0.0624 -0.0261 -0.6150
  585MOL0     C80646  10.022  11.514   8.199 -0.4692  0.7092 -0.7332
  585MOL0     C80647  10.108  11.185   8.466 -0.0842  0.1117 -0.8529
  585MOL0     C80648  10.040  11.081   8.544  0.1761 -0.0783 -0.1877
  585MOL0     C80649  10.103  10.997   8.638 -0.2677  0.1614  0.0678
  585MOL0     C80650  10.240  11.006   8.658  0.1147 -0.6974  0.1759
  585MOL0     O80651  10.288  10.940   8.769  0.8268 -0.5338  0.0883
  585MOL0     C80652  10.425  10.953   8.808  0.2581  0.1331 -0.3391
  585MOL0     C80653  10.442  10.841   8.912 -0.0576 -0.5042 -0.5274
  585MOL0     C80654  10.403  10.711   8.845 -0.3029 -0.8439  0.8632
  585MOL0     C80655  10.427  10.596   8.932  0.1582  0.9486 -0.1517
  585MOL0     C80656  10.412  10.471   8.841  0.0200  0.0745 -1.2886
  585MOL0     C80657  10.397  10.382   8.768 -0.0747  0.2039  0.6599
  585MOL0     C80658  10.315  11.096   8.575  0.9819 -0.5871 -0.0182
  585MOL0     C80659  10.253  11.186   8.480  0.3851  0.5413  0.3323
  585MOL0     C80660  10.336  11.285   8.412  0.6674 -0.4298  0.1566
  585MOL0     H80661   9.938  11.627   8.498  0.2600 -0.3659 -0.4747
  585MOL0     H80662   9.865  11.823   8.376  2.8416  0.4926  1.8263
  585MOL0     H80663   9.832  12.016   8.172 -0.7805 -1.2655  0.9377
  585MOL0     H80664   9.720  11.896   8.211  2.2155 -0.3992  2.7069
  585MOL0     H80665   9.667  12.074   8.042  0.6322  1.0244  0.0844
  585MOL0     H80666   9.765  11.999   7.920 -1.6610  0.1614 -0.3544
  585MOL0     H80667   9.542  11.850   8.048  1.4153  3.5776  1.1239
  585MOL0     H80668   9.538  11.925   7.880  1.4423  3.2756 -0.4479
  585MOL0     H80669   9.733  11.770   7.821  0.1148 -1.3021 -0.3262
  585MOL0     H80670   9.707  11.690   7.970  1.7648 -1.1167 -0.2941
  585MOL0     H80671   9.495  11.728   7.744 -0.5067 -1.3590 -1.3621
  585MOL0     H80672   9.471  11.619   7.883  2.0700 -0.6011  0.9602
  585MOL0     H80673   9.636  11.591   7.633  2.1580  3.1864  1.4573
  585MOL0     H80674   9.719  11.535   7.777 -0.0370 -1.6554  0.6146
  585MOL0     H80675   9.460  11.407   7.665 -1.0203 -1.6376  1.0778
  585MOL0     H80676   9.535  11.377   7.819 -1.1483  0.8284 -0.6955
  585MOL0     H80677   9.764  11.345   7.705  0.3290  2.0933 -0.2164
  585MOL0     H80678   9.639  11.227   7.666 -3.3631  1.2817 -1.9441
  585MOL0     H80679   9.526  11.271   7.400  0.0497 -2.0597  1.7306
  585MOL0     H80680   9.571  11.267   7.164  1.4551 -0.7671  1.7618
  585MOL0     H80681   9.694  11.372   7.092 -2.0994 -0.6727 -2.1966
  585MOL0     H80682   9.453  11.452   7.061  0.6062  0.6909 -0.3075
  585MOL0     H80683   9.461  11.505   7.231  1.3613 -1.7045  0.9535
  585MOL0     H80684   9.630  11.671   7.182  1.8594  0.7161 -0.4685
  585MOL0     H80685   9.677  11.599   7.040 -0.8057  0.9641  0.4291
  585MOL0     H80686   9.436  11.647   6.950  0.8619  0.3229 -0.1722
  585MOL0     H80687   9.394  11.729   7.091 -1.4812  2.1633 -1.4717
  585MOL0     H80688   9.312  11.797   6.842 -2.2277  1.4980  0.6465
  585MOL0     H80689   9.173  11.999   6.587  0.3116  0.3839  0.7562
  585MOL0     H80690   9.096  12.009   6.747 -0.2993 -0.2722 -0.0174
  585MOL0     H80691   9.163  11.853   6.687 -3.3339  0.2322  2.5334
  585MOL0     H80692   9.333  12.611   6.752 -0.9987 -1.3650  0.8358
  585MOL0     H80693   9.320  12.806   6.595  1.8171  0.6710 -1.2576
  585MOL0     H80694   9.423  12.764   6.136 -0.3607  2.7241 -1.4169
  585MOL0     H80695   9.268  12.708   6.213 -1.3829  2.5576 -0.2368
  585MOL0     H80696   9.196  12.946   6.271  0.4273  3.0645 -0.7924
  585MOL0     H80697   9.351  12.989   6.190 -0.2646  0.3479 -0.8541
  585MOL0     H80698   9.118  12.811   6.121 -0.3205  0.5861 -0.2824
  585MOL0     H80699   9.218  12.844   5.983 -1.7190 -2.6896 -0.2446
  585MOL0     H80700   9.159  13.074   5.964 -0.8857 -0.3505 -0.5462
  585MOL0     H80701   9.051  13.065   6.104  1.2697  0.6736 -0.0565
  585MOL0     H80702   9.005  12.904   5.828 -1.6590  0.4286 -1.7764
  585MOL0     H80703   8.911  12.907   5.967 -0.9774 -0.0380 -1.5770
  585MOL0     H80704   8.967  13.157   5.818 -0.4096 -0.5616 -1.5814
  585MOL0     H80705   8.859  13.133   5.959 -0.3612  5.6654 -1.4197
  585MOL0     H80706   8.734  12.971   5.784 -1.3527  0.7063  0.4771
  585MOL0     H80707   8.848  13.023   5.670 -0.4333 -2.6645  0.9222
  585MOL0     H80708   8.745  13.266   5.739  0.7496 -0.9034  2.2937
  585MOL0     H80709   8.607  13.175   5.797 -0.7339 -2.2901 -0.6564
  585MOL0     H80710   9.468  12.550   6.285  1.7798 -3.2829  1.2562
  585MOL0     H80711   9.461  12.363   6.422  0.9347  0.3671  0.3818
  585MOL0     H80712   9.560  12.221   6.768  0.0839 -0.4323  1.4247
  585MOL0     H80713   9.663  12.033   6.917 -0.4085 -0.4247  0.1308
  585MOL0     H80714  10.015  11.650   8.025  0.5695 -0.4136 -0.5488
  585MOL0     H80715  10.081  11.431   8.161 -0.4002  0.7483 -0.7112
  585MOL0     H80716   9.933  11.081   8.527  0.3899  1.2792 -1.7907
  585MOL0     H80717  10.045  10.941   8.711  1.1832  0.0168  1.1559
  585MOL0     H80718  10.500  10.931   8.732  3.4038 -3.9032  3.4306
  585MOL0     H80719  10.435  11.056   8.844 -2.4240  1.1007 -2.0613
  585MOL0     H80720  10.368  10.860   8.989  1.0043  0.5684  0.2707
  585MOL0     H80721  10.540  10.840   8.961  0.4257 -0.1111 -1.4486
  585MOL0     H80722  10.296  10.725   8.825  0.4258  3.8179 -0.9672
  585MOL0     H80723  10.461  10.701   8.753 -2.0558 -1.4698 -0.2103
  585MOL0     H80724  10.356  10.594   9.016  0.5364  1.0279  0.1714
  585MOL0     H80725  10.528  10.605   8.972  0.7819 -2.3543 -0.7012
  585MOL0     H80726  10.380  10.301   8.699 -1.2841 -0.3188  1.5489
  585MOL0     H80727  10.420  11.108   8.598  1.5972  0.2741 -2.8881
  585MOL0     H80728  10.336  11.267   8.304 -2.8393  2.7287 -0.5635
  585MOL0     H80729  10.281  11.376   8.433  3.7490  1.8692 -0.9517
  585MOL0     H80730  10.438  11.294   8.453  0.8337  0.1820 -0.3839
  586MOL0     O80731   2.420   6.839   4.407 -0.4843 -0.2149  0.5813
  586MOL0     C80732   2.497   6.774   4.475  0.1274 -0.6423  0.3264
  586MOL0     O80733   2.450   6.670   4.561  0.0792  0.4681  0.0616
  586MOL0     C80734   2.311   6.665   4.568  0.3683  0.1956 -0.6016
  586MOL0     C80735   2.246   6.592   4.462  0.0742 -0.1228 -0.9336
  586MOL0     C80736   2.107   6.569   4.474  0.2121 -0.5825  0.2229
  586MOL0     C80737   2.039   6.608   4.586 -0.1590  0.3070 -0.5146
  586MOL0     O80738   1.911   6.585   4.617  0.6368  0.6196 -0.2364
  586MOL0     C80739   1.823   6.585   4.503  0.6306  0.3710  0.7428
  586MOL0     C80740   1.677   6.588   4.559 -0.2705 -0.4109 -0.6513
  586MOL0     C80741   1.650   6.726   4.618  0.2412  0.6535  0.9194
  586MOL0     C80742   1.612   6.717   4.764 -0.1784  0.7767  0.1063
  586MOL0     C80743   1.520   6.830   4.814 -0.6937 -0.4338 -0.3633
  586MOL0     C80744   1.584   6.975   4.804  0.4710  0.0310  0.0891
  586MOL0     C80745   1.508   7.090   4.873 -0.1262  0.5528  0.1365
  586MOL0     C80746   1.458   7.058   5.018  0.2874 -0.5510  0.4043
  586MOL0     N80747   1.569   7.015   5.096 -0.1264 -0.6266  0.4472
  586MOL0     C80748   1.584   6.898   5.171  0.3718 -0.6572  0.0950
  586MOL0     C80749   1.707   6.901   5.222 -0.0803  0.3125  0.2070
  586MOL0     C80750   1.757   6.800   5.321 -0.7409 -0.4889 -0.1898
  586MOL0     C80751   1.780   6.862   5.459  0.0927 -0.6462  0.6580
  586MOL0     C80752   1.651   6.852   5.542  0.3690  0.4857 -0.3799
  586MOL0     C80753   1.692   6.868   5.689 -0.0791  0.2219  0.6134
  586MOL0     O80754   1.575   6.898   5.768 -0.3580  0.8878 -0.1163
  586MOL0     C80755   1.600   6.954   5.885  0.2232  0.5134  0.6930
  586MOL0     C80756   1.717   6.943   5.971  0.1475  0.0926  0.6818
  586MOL0     C80757   1.718   7.004   6.090 -0.5712  0.4621  0.2617
  586MOL0     C80758   1.841   6.995   6.168  0.4881 -0.0535 -0.0256
  586MOL0     C80759   1.604   7.064   6.140 -0.4122 -0.5370  0.2541
  586MOL0     C80760   1.592   7.120   6.280 -1.1532  0.0328  0.9331
  586MOL0     O80761   1.490   7.215   6.295  0.3686 -0.1354  0.4246
  586MOL0     C80762   1.453   7.249   6.419 -1.3876  0.4080 -0.1095
  586MOL0     C80763   1.528   7.330   6.507  0.0906  0.4521  0.1749
  586MOL0     C80764   1.483   7.358   6.631 -0.4743  0.6958  0.4595
  586MOL0     C80765   1.364   7.298   6.687 -0.2627  0.8654 -0.3482
  586MOL0     O80766   1.329   7.334   6.812 -0.0457  0.1520 -0.4867
  586MOL0     C80767   1.208   7.300   6.877  0.2042  0.3227  0.1042
  586MOL0     C80768   1.213   7.339   7.025  0.6616 -1.0384 -0.2128
  586MOL0     C80769   1.084   7.299   7.106 -0.4663 -0.1868 -0.9838
  586MOL0     C80770   0.959   7.380   7.060 -0.1971  0.6739  0.1916
  586MOL0     C80771   0.836   7.369   7.157  0.0091  0.7694  0.3071
  586MOL0     C80772   0.784   7.221   7.171 -1.0194  0.2505  0.2973
  586MOL0     C80773   0.677   7.202   7.276  0.4504  0.3258 -0.0961
  586MOL0     C80774   0.543   7.242   7.215  0.8392 -0.2869  0.1290
  586MOL0    Cl80775   0.415   7.219   7.333  0.0942  0.0069 -0.1974
  586MOL0     C80776   1.299   7.215   6.599  0.2073  0.1386 -0.2204
  586MOL0     C80777   1.339   7.186   6.465 -1.3350 -0.7766 -1.2423
  586MOL0     O80778   1.665   7.077   6.372 -0.0721 -0.0829  0.5402
  586MOL0     C80779   1.484   7.065   6.068  0.4281  0.3088  0.9319
  586MOL0     C80780   1.486   7.030   5.936 -0.4762  1.0720 -0.2697
  586MOL0     N80781   1.761   7.024   5.190  0.5949  0.3212 -0.0359
  586MOL0     N80782   1.676   7.095   5.116  0.0833  1.1170 -0.3488
  586MOL0     C80783   2.097   6.678   4.685  0.5198 -0.2560  0.5580
  586MOL0     C80784   2.235   6.705   4.677  0.3753 -0.5266 -0.1046
  586MOL0     C80785   2.643   6.795   4.471  0.2519  0.2926 -0.1592
  586MOL0     C80786   2.727   6.691   4.509 -0.8795  0.0174 -0.0305
  586MOL0     C80787   2.868   6.687   4.486  0.2476  1.4683 -0.9016
  586MOL0     C80788   2.924   6.804   4.445  1.2876 -0.1615 -1.0274
  586MOL0     O80789   3.061   6.805   4.430 -0.0387  0.0963 -0.0058
  586MOL0     C80790   3.136   6.889   4.340  0.3184 -0.4634  0.0385
  586MOL0     C80791   3.266   6.906   4.424 -0.9552 -0.4578  0.4730
  586MOL0     C80792   3.251   7.008   4.538  0.0672 -0.3373  0.5148
  586MOL0     C80793   3.222   7.151   4.498 -0.0834 -0.4084  0.5164
  586MOL0     C80794   3.339   7.212   4.423 -0.2119 -0.8865  0.9587
  586MOL0     C80795   3.435   7.263   4.378 -0.0722 -0.6452 -0.4218
  586MOL0     C80796   2.848   6.916   4.400  0.6837  0.6611 -0.1431
  586MOL0     C80797   2.704   6.903   4.409  0.1001  0.1328 -0.9454
  586MOL0     C80798   2.625   7.026   4.367  0.3192 -0.6618 -0.2342
  586MOL0     H80799   2.311   6.536   4.396  1.1687  0.9147 -0.7761
  586MOL0     H80800   2.058   6.510   4.397  1.0234 -0.6690 -0.2283
  586MOL0     H80801   1.829   6.498   4.437 -0.6540  0.7908  0.0365
  586MOL0     H80802   1.846   6.664   4.430  4.0289 -1.1235 -0.0370
  586MOL0     H80803   1.599   6.572   4.484 -2.4250  0.1249  1.3944
  586MOL0     H80804   1.675   6.513   4.638  2.1063  0.9098  0.7795
  586MOL0     H80805   1.734   6.792   4.598  1.1932 -0.9517 -0.7428
  586MOL0     H80806   1.573   6.785   4.567 -0.6036  1.5899  3.1288
  586MOL0     H80807   1.572   6.619   4.792 -0.3211  0.9903  0.6543
  586MOL0     H80808   1.708   6.726   4.816 -1.5265 -1.6324  3.4062
  586MOL0     H80809   1.525   6.799   4.919  1.0801  0.0986 -0.2652
  586MOL0     H80810   1.418   6.816   4.776 -0.6626  1.6527 -1.3493
  586MOL0     H80811   1.690   6.976   4.833  0.3315 -0.7726  0.6672
  586MOL0     H80812   1.584   7.000   4.698 -0.5822 -0.4764 -0.0365
  586MOL0     H80813   1.413   7.109   4.822  0.0115 -0.8346 -0.6750
  586MOL0     H80814   1.578   7.174   4.867  0.8476 -0.3031 -0.8027
  586MOL0     H80815   1.415   7.146   5.068  1.7682  1.1378 -1.1361
  586MOL0     H80816   1.381   6.981   5.010 -1.4278  1.1344 -0.0276
  586MOL0     H80817   1.511   6.821   5.197 -0.9054  0.6148  0.4102
  586MOL0     H80818   1.857   6.770   5.286 -0.6377  1.1467 -1.4423
  586MOL0     H80819   1.690   6.714   5.321  0.2228 -1.2636 -0.9459
  586MOL0     H80820   1.869   6.826   5.512  0.0360 -1.8808 -0.0274
  586MOL0     H80821   1.796   6.970   5.451  0.0544 -0.6473  0.5490
  586MOL0     H80822   1.579   6.924   5.501  1.7651  2.7924  0.9900
  586MOL0     H80823   1.603   6.754   5.536 -1.6971  1.5023 -2.2604
  586MOL0     H80824   1.747   6.784   5.731  0.4300 -0.0226 -0.4977
  586MOL0     H80825   1.758   6.955   5.695 -2.1198  2.1174 -1.9942
  586MOL0     H80826   1.807   6.899   5.931 -0.0675  0.2706  0.0015
  586MOL0     H80827   1.928   6.963   6.110 -0.1239 -1.4901 -0.2130
  586MOL0     H80828   1.822   6.914   6.239 -1.7959 -1.9220 -2.5448
  586MOL0     H80829   1.868   7.089   6.217  2.0448 -0.5538  0.1293
  586MOL0     H80830   1.618   7.374   6.463  0.4100 -1.7640 -1.5571
  586MOL0     H80831   1.535   7.429   6.693  0.1640  2.9398 -2.4498
  586MOL0     H80832   1.136   7.352   6.813  0.3728 -0.5283 -0.7915
  586MOL0     H80833   1.193   7.192   6.880  3.0665 -0.1756 -0.4922
  586MOL0     H80834   1.296   7.286   7.072  1.5036 -0.3640 -0.9218
  586MOL0     H80835   1.240   7.443   7.042 -1.2785 -1.1276  5.8150
  586MOL0     H80836   1.091   7.323   7.213 -2.3693  2.6817 -1.3716
  586MOL0     H80837   1.075   7.191   7.098  1.8367 -0.6360  1.2149
  586MOL0     H80838   0.942   7.347   6.957  1.5459  0.9619 -0.2223
  586MOL0     H80839   0.971   7.489   7.063 -0.0449  0.6917 -0.6996
  586MOL0     H80840   0.874   7.382   7.259  0.2494 -1.0869  0.4911
  586MOL0     H80841   0.757   7.437   7.123 -2.3390 -1.0972  1.6961
  586MOL0     H80842   0.863   7.150   7.200 -1.3020  0.3084  1.2599
  586MOL0     H80843   0.742   7.191   7.075  0.2805  2.5577 -1.0648
  586MOL0     H80844   0.709   7.259   7.363  0.7670 -1.5671  1.0836
  586MOL0     H80845   0.665   7.095   7.296 -0.7407 -0.2060 -3.1216
  586MOL0     H80846   0.522   7.172   7.134 -0.2614 -1.0152  1.0140
  586MOL0     H80847   0.540   7.348   7.187  1.6906  0.3881  2.2992
  586MOL0     H80848   1.209   7.174   6.644 -0.9129  2.2837 -0.3816
  586MOL0     H80849   1.279   7.111   6.417 -1.8788 -0.6517 -0.7662
  586MOL0     H80850   1.390   7.101   6.109  0.7444 -0.8356  2.7713
  586MOL0     H80851   1.398   7.048   5.875 -1.6756 -1.5202  0.5498
  586MOL0     H80852   2.054   6.694   4.783  1.3082  0.7404  0.7487
  586MOL0     H80853   2.277   6.771   4.752 -0.1128  1.8049 -1.7697
  586MOL0     H80854   2.687   6.605   4.563 -1.7118  0.6595  0.3892
  586MOL0     H80855   2.929   6.603   4.516 -1.4351  0.2383 -0.7971
  586MOL0     H80856   3.146   6.858   4.235 -2.0876  1.2937 -0.7864
  586MOL0     H80857   3.086   6.985   4.328  0.6194 -0.3738 -0.5623
  586MOL0     H80858   3.347   6.936   4.357  0.1952  0.6369  2.2518
  586MOL0     H80859   3.283   6.807   4.468 -1.1023 -0.8830 -0.4068
  586MOL0     H80860   3.171   6.976   4.605  1.5531  0.5001  2.8188
  586MOL0     H80861   3.349   7.014   4.588 -0.9794 -0.9615  2.7805
  586MOL0     H80862   3.193   7.214   4.582 -2.4695  0.7419 -1.0812
  586MOL0     H80863   3.142   7.157   4.424  0.5226  2.0752 -0.0217
  586MOL0     H80864   3.519   7.312   4.333 -1.2006  0.1896 -1.6946
  586MOL0     H80865   2.890   7.005   4.355 -1.1699  2.3585  1.3176
  586MOL0     H80866   2.567   6.993   4.281 -1.5924 -1.2432  1.2160
  586MOL0     H80867   2.558   7.075   4.438 -0.6490  0.8512 -2.1014
  586MOL0     H80868   2.691   7.103   4.326  0.9864  0.2937  2.3996
  587MOL0     O80869   2.289   0.251   7.578 -0.0660  0.1492 -1.0037
  587MOL0     C80870   2.361   0.196   7.498  0.1038 -0.3281  0.7806
  587MOL0     O80871   2.481   0.129   7.522  0.6128  0.7250 -0.3674
  587MOL0     C80872   2.511   0.123   7.654  0.7996  0.4580  0.2913
  587MOL0     C80873   2.608   0.209   7.704 -0.0689 -0.2355 -0.0058
  587MOL0     C80874   2.653   0.178   7.831 -1.0855 -1.1309 -0.3905
  587MOL0     C80875   2.612   0.069   7.908  0.0729 -0.5982  0.4593
  587MOL0     O80876   2.659   0.038   8.033 -0.6073 -0.3998 -0.5278
  587MOL0     C80877   2.736   0.142   8.091  1.0611 -0.3062 -0.5358
  587MOL0     C80878   2.736   0.122   8.242  0.0898  0.6386  0.3264
  587MOL0     C80879   2.824  -0.008   8.284  0.1382  1.0311  0.0659
  587MOL0     C80880   2.824  -0.055   8.426  0.7382  0.0598  0.5740
  587MOL0     C80881   2.924  -0.158   8.451 -1.2372 -0.0970 -0.0262
  587MOL0     C80882   2.931  -0.204   8.590 -0.1335 -0.1965  1.1019
  587MOL0     C80883   3.069  -0.258   8.635 -0.0651 -0.2660 -0.1240
  587MOL0     C80884   3.073  -0.299   8.792  0.1802  0.6295 -0.3835
  587MOL0     N80885   3.210  -0.308   8.848 -0.2405  1.1341 -0.0140
  587MOL0     C80886   3.295  -0.209   8.871  1.0089 -0.9554  0.7055
  587MOL0     C80887   3.396  -0.261   8.943  0.2020  0.3190  0.1006
  587MOL0     C80888   3.520  -0.182   8.969 -0.1751  0.2570  0.7397
  587MOL0     C80889   3.657  -0.247   8.939  0.5622  0.3865 -0.8715
  587MOL0     C80890   3.671  -0.232   8.789 -0.4998  0.4575 -0.1890
  587MOL0     C80891   3.760  -0.110   8.746 -0.6702 -0.1492 -0.4453
  587MOL0     O80892   3.682   0.009   8.762 -0.2078 -0.4678  0.5983
  587MOL0     C80893   3.745   0.133   8.727  0.2320  0.9470  0.8532
  587MOL0     C80894   3.876   0.154   8.691 -0.1446  0.1852 -0.3770
  587MOL0     C80895   3.930   0.284   8.665 -0.0689  1.1176  0.0360
  587MOL0     C80896   4.080   0.295   8.619 -0.0981  0.6013  1.3404
  587MOL0     C80897   3.844   0.393   8.665 -0.1240 -1.0531  0.2220
  587MOL0     C80898   3.882   0.529   8.624  0.7569  1.1178 -0.1105
  587MOL0     O80899   3.807   0.628   8.689  0.6167 -0.2603 -0.2232
  587MOL0     C80900   3.807   0.755   8.628  1.4401  0.4124  0.2566
  587MOL0     C80901   3.801   0.789   8.488  0.0552  0.4132 -0.0276
  587MOL0     C80902   3.795   0.926   8.452  0.4827  0.4340  1.4327
  587MOL0     C80903   3.792   1.025   8.546  0.1476 -0.5647  0.5379
  587MOL0     O80904   3.794   1.161   8.496  0.1731 -0.2345 -0.0447
  587MOL0     C80905   3.806   1.268   8.585 -0.1505  0.7485  0.7374
  587MOL0     C80906   3.894   1.373   8.525 -0.0891 -0.3066  0.2557
  587MOL0     C80907   4.041   1.326   8.521 -0.3575  0.0444  0.8428
  587MOL0     C80908   4.123   1.446   8.508 -0.4552 -0.1798  0.8277
  587MOL0     C80909   4.173   1.503   8.644  0.1503 -0.8582  0.6424
  587MOL0     C80910   4.288   1.608   8.622  0.3384  0.4306  0.2023
  587MOL0     C80911   4.237   1.731   8.551  1.3659 -0.0416  0.6877
  587MOL0     C80912   4.309   1.867   8.574 -0.4265 -1.4522  0.5771
  587MOL0    Cl80913   4.487   1.862   8.550 -0.2264  0.3910  0.0389
  587MOL0     C80914   3.796   0.986   8.679  0.5174  0.2830 -0.7161
  587MOL0     C80915   3.806   0.856   8.720 -0.0465 -0.3354 -0.1553
  587MOL0     O80916   3.954   0.551   8.534 -0.1151 -0.3549 -0.6840
  587MOL0     C80917   3.712   0.366   8.714 -0.0638  0.2124 -0.6419
  587MOL0     C80918   3.659   0.239   8.736 -0.9453 -1.6616  0.5296
  587MOL0     N80919   3.362  -0.393   8.980 -0.0390 -0.2164 -0.0765
  587MOL0     N80920   3.252  -0.419   8.921 -0.2704 -0.1425  0.0128
  587MOL0     C80921   2.510  -0.010   7.855  0.5602 -0.5334  0.3246
  587MOL0     C80922   2.464   0.016   7.726  0.4869  0.4118  0.4898
  587MOL0     C80923   2.329   0.233   7.359  0.0889  0.1728 -0.3533
  587MOL0     C80924   2.429   0.223   7.274 -0.1180  0.5020 -0.0189
  587MOL0     C80925   2.414   0.263   7.141 -0.4867 -0.1178  0.0269
  587MOL0     C80926   2.292   0.311   7.104 -0.1258  0.1139 -0.1211
  587MOL0     O80927   2.279   0.373   6.980 -0.4123 -0.1211 -0.2571
  587MOL0     C80928   2.342   0.306   6.866 -0.2150 -1.2246  0.3882
  587MOL0     C80929   2.232   0.243   6.786 -0.2622  0.1675 -0.0509
  587MOL0     C80930   2.285   0.206   6.647 -0.3672 -1.3354 -0.1567
  587MOL0     C80931   2.281   0.054   6.611  0.0299  0.1064 -0.9589
  587MOL0     C80932   2.361  -0.023   6.704 -0.2170  0.8778 -1.1213
  587MOL0     C80933   2.434  -0.109   6.749  0.5623 -0.1642 -0.2996
  587MOL0     C80934   2.189   0.309   7.188 -0.5960 -0.2862  0.4252
  587MOL0     C80935   2.200   0.265   7.313  0.0997  0.3903 -0.5680
  587MOL0     C80936   2.069   0.289   7.384  0.7914  0.3568 -0.3461
  587MOL0     H80937   2.647   0.285   7.636 -1.2394 -0.5379 -1.0423
  587MOL0     H80938   2.729   0.251   7.857 -0.5797 -1.3256 -1.2883
  587MOL0     H80939   2.690   0.240   8.071  0.0499 -1.0476 -2.0843
  587MOL0     H80940   2.841   0.138   8.062  0.9963  4.4864 -2.3749
  587MOL0     H80941   2.784   0.218   8.265  0.7220  0.5871 -0.7569
  587MOL0     H80942   2.638   0.101   8.287  0.8084 -2.2035  0.7683
  587MOL0     H80943   2.789  -0.092   8.223  0.4463  2.7006 -2.5851
  587MOL0     H80944   2.925   0.018   8.252 -0.6647  2.7676 -1.2264
  587MOL0     H80945   2.848   0.035   8.483 -0.2077  3.3665 -3.7097
  587MOL0     H80946   2.725  -0.093   8.450  0.9715 -1.8224 -1.1970
  587MOL0     H80947   3.020  -0.115   8.420 -1.2186 -1.7249 -2.5467
  587MOL0     H80948   2.907  -0.246   8.388  0.1383 -2.5104  2.7320
  587MOL0     H80949   2.913  -0.110   8.643 -2.0670  1.3782 -2.0370
  587MOL0     H80950   2.857  -0.282   8.612 -1.0303  0.2653 -0.1749
  587MOL0     H80951   3.149  -0.185   8.622  0.1883 -0.6321 -0.6857
  587MOL0     H80952   3.094  -0.347   8.576  1.5331  1.6630 -2.5261
  587MOL0     H80953   3.015  -0.226   8.850 -1.6453 -0.7498 -0.3957
  587MOL0     H80954   3.016  -0.390   8.810  2.2290 -0.7416 -0.5812
  587MOL0     H80955   3.295  -0.120   8.809  1.5571 -1.9921 -0.8411
  587MOL0     H80956   3.523  -0.152   9.074 -3.5673  3.8616  0.0567
  587MOL0     H80957   3.502  -0.092   8.909  1.0410  0.4563  0.6619
  587MOL0     H80958   3.731  -0.193   9.000  0.1359 -1.8236  1.7925
  587MOL0     H80959   3.646  -0.351   8.969 -1.3030  1.0644  1.0396
  587MOL0     H80960   3.721  -0.316   8.740  0.6700  1.4581 -0.7478
  587MOL0     H80961   3.573  -0.233   8.741 -0.5391  0.0435 -0.1037
  587MOL0     H80962   3.852  -0.092   8.802  0.0019 -1.3566 -1.1206
  587MOL0     H80963   3.798  -0.123   8.644 -0.2128  1.1228 -0.4662
  587MOL0     H80964   3.937   0.066   8.677 -1.8459 -1.0648 -0.1552
  587MOL0     H80965   4.070   0.278   8.511 -0.8870  1.5820  1.2358
  587MOL0     H80966   4.150   0.226   8.666  0.8426  0.9330  0.4563
  587MOL0     H80967   4.118   0.396   8.632 -1.2993  1.5628 -1.6558
  587MOL0     H80968   3.800   0.710   8.412 -0.1237  2.8670 -2.7531
  587MOL0     H80969   3.801   0.959   8.349 -0.4548  2.1306  1.8770
  587MOL0     H80970   3.705   1.307   8.599 -0.8972 -0.4918 -0.8676
  587MOL0     H80971   3.840   1.254   8.689 -0.6991 -0.4745  0.7653
  587MOL0     H80972   3.857   1.393   8.424 -0.6202 -2.2615  0.0303
  587MOL0     H80973   3.887   1.460   8.591  0.8179 -1.4372  1.8998
  587MOL0     H80974   4.052   1.252   8.441 -0.2561  0.3389  0.5839
  587MOL0     H80975   4.071   1.275   8.613 -0.1774 -0.3159  0.5900
  587MOL0     H80976   4.075   1.515   8.438 -1.1273 -1.8142 -0.3833
  587MOL0     H80977   4.220   1.419   8.464  0.0645  1.5951  0.7916
  587MOL0     H80978   4.094   1.559   8.696  1.6029 -0.8525  2.9737
  587MOL0     H80979   4.207   1.424   8.712  2.4046  0.2098  0.8363
  587MOL0     H80980   4.362   1.560   8.557 -0.6360 -0.0964 -0.5429
  587MOL0     H80981   4.345   1.630   8.713  0.0284  3.1314 -0.1906
  587MOL0     H80982   4.136   1.747   8.590  1.4742 -1.0844  1.4341
  587MOL0     H80983   4.228   1.699   8.446 -3.1079  2.3746  0.0518
  587MOL0     H80984   4.289   1.894   8.678  0.6012  2.5267 -0.1114
  587MOL0     H80985   4.261   1.938   8.507 -0.9635 -1.2518  1.1611
  587MOL0     H80986   3.788   1.060   8.759 -1.1698 -1.4493  0.8289
  587MOL0     H80987   3.801   0.830   8.826 -1.7274 -1.0650 -0.3791
  587MOL0     H80988   3.649   0.453   8.732  1.5497  1.0099  1.5804
  587MOL0     H80989   3.559   0.217   8.771 -0.9162 -1.1160  0.9715
  587MOL0     H80990   2.482  -0.104   7.903  2.0204 -1.2210 -0.1199
  587MOL0     H80991   2.403  -0.063   7.683  0.4758  0.8363 -0.2816
  587MOL0     H80992   2.526   0.187   7.304 -0.2709 -0.5100 -0.6773
  587MOL0     H80993   2.503   0.259   7.078  3.1129 -0.1168  4.5962
  587MOL0     H80994   2.397   0.380   6.808 -2.5811  0.3465 -0.0298
  587MOL0     H80995   2.409   0.224   6.892 -1.0478 -1.2015  2.8463
  587MOL0     H80996   2.160   0.325   6.777 -0.6499 -0.1574  0.0545
  587MOL0     H80997   2.187   0.159   6.839 -0.3162  0.6177  0.6309
  587MOL0     H80998   2.225   0.262   6.574  0.0517  2.2411  2.0074
  587MOL0     H80999   2.388   0.235   6.625 -0.4308 -1.3523 -0.4811
  587MOL0     H81000   2.327   0.039   6.513  5.3742  0.3063  1.1855
  587MOL0     H81001   2.180   0.014   6.599  0.0926 -0.2095 -0.4838
  587MOL0     H81002   2.504  -0.187   6.771 -0.6327 -1.5412 -1.1736
  587MOL0     H81003   2.109   0.363   7.138  0.9661 -0.3546 -2.3253
  587MOL0     H81004   2.054   0.223   7.469 -3.2001 -1.4710 -2.2551
  587MOL0     H81005   2.064   0.393   7.417  2.1984  0.2481  0.2840
  587MOL0     H81006   1.987   0.257   7.319 -1.8021  4.0909  0.7492
  588MOL0     O81007   8.038   1.111   3.812 -0.1141  0.7561 -1.0074
  588MOL0     C81008   7.974   1.145   3.916  0.3706 -0.2280 -0.1962
  588MOL0     O81009   7.989   1.083   4.040  0.0714  0.4961  0.0095
  588MOL0     C81010   8.066   0.968   4.050  0.2522 -0.3034 -0.3426
  588MOL0     C81011   8.184   0.978   4.116  0.0937  0.6486  0.2772
  588MOL0     C81012   8.278   0.874   4.113 -0.6537 -0.5057 -0.2335
  588MOL0     C81013   8.259   0.755   4.051  0.8214 -0.7078  0.3741
  588MOL0     O81014   8.347   0.648   4.056 -0.0277 -0.8474  0.3449
  588MOL0     C81015   8.470   0.658   4.116  0.3201  0.3560  0.0374
  588MOL0     C81016   8.557   0.539   4.064  0.2494  0.0018 -0.2692
  588MOL0     C81017   8.701   0.597   4.046  0.0932 -0.6407  0.4406
  588MOL0     C81018   8.814   0.497   4.023 -0.3884  0.5634 -0.4797
  588MOL0     C81019   8.961   0.541   4.033  0.5050  0.0054  0.1447
  588MOL0     C81020   8.985   0.580   4.179 -0.1911  0.0828 -0.0429
  588MOL0     C81021   9.130   0.624   4.214  0.3155  1.0252  0.2428
  588MOL0     C81022   9.195   0.513   4.306  0.0626 -0.7643  0.1346
  588MOL0     N81023   9.244   0.403   4.220 -0.5257  0.6739  0.0350
  588MOL0     C81024   9.375   0.386   4.175  0.4166  0.1570 -0.0131
  588MOL0     C81025   9.395   0.251   4.149  0.7396  0.0222 -0.3599
  588MOL0     C81026   9.525   0.198   4.092 -0.1329  0.1339  0.7707
  588MOL0     C81027   9.478   0.097   3.995  0.4077  0.1643  0.3215
  588MOL0     C81028   9.595   0.062   3.896 -0.5967  0.3636  0.4594
  588MOL0     C81029   9.727   0.008   3.973 -0.7170  0.0957  0.9499
  588MOL0     O81030   9.845  -0.000   3.884 -0.0410  0.0765  0.1083
  588MOL0     C81031   9.969  -0.044   3.938  0.5612 -0.1251  1.5462
  588MOL0     C81032   9.998  -0.051   4.074  0.2823 -0.0179 -0.8544
  588MOL0     C81033  10.133  -0.074   4.118  0.1460  0.4125 -0.3986
  588MOL0     C81034  10.149  -0.086   4.264  0.4353  0.1766  0.8126
  588MOL0     C81035  10.232  -0.084   4.018 -0.5404 -0.6594 -1.4539
  588MOL0     C81036  10.377  -0.112   4.054 -0.4431 -0.5202 -0.5519
  588MOL0     O81037  10.412  -0.173   4.179 -0.8916  0.1470  0.6819
  588MOL0     C81038  10.544  -0.222   4.172  0.1787 -0.7115  0.3966
  588MOL0     C81039  10.620  -0.201   4.286 -0.1223 -0.0020  0.6543
  588MOL0     C81040  10.740  -0.269   4.301  0.9185 -0.0736 -0.7396
  588MOL0     C81041  10.803  -0.331   4.195 -0.0180 -0.4295  0.3170
  588MOL0     O81042  10.931  -0.382   4.226  0.6835  0.4051  0.8698
  588MOL0     C81043  10.971  -0.510   4.163 -0.0473  0.6113 -0.5292
  588MOL0     C81044  11.089  -0.561   4.256  0.4105  0.0086  0.2337
  588MOL0     C81045  11.140  -0.711   4.232 -0.5662  0.9101  0.1505
  588MOL0     C81046  11.230  -0.718   4.103  0.0662 -0.8790  0.7092
  588MOL0     C81047  11.303  -0.855   4.094 -0.4512 -0.2218 -0.1519
  588MOL0     C81048  11.436  -0.841   4.023 -0.3379 -0.4393  0.3520
  588MOL0     C81049  11.429  -0.775   3.884  0.0449 -0.2776  0.3263
  588MOL0     C81050  11.576  -0.751   3.822  1.0129 -0.4575  0.2709
  588MOL0    Cl81051  11.631  -0.910   3.776  0.2538 -0.2290  0.1844
  588MOL0     C81052  10.735  -0.334   4.069 -1.4209  0.0545 -0.6607
  588MOL0     C81053  10.604  -0.288   4.067 -0.5628 -0.3025  0.6036
  588MOL0     O81054  10.455  -0.073   3.962 -0.0340 -0.0448 -0.6916
  588MOL0     C81055  10.207  -0.076   3.885  0.6406  0.2029  0.8192
  588MOL0     C81056  10.076  -0.054   3.839  0.3831  1.1639  0.4545
  588MOL0     N81057   9.280   0.186   4.186  0.2409 -0.0700 -0.1578
  588MOL0     N81058   9.190   0.274   4.229 -0.1771  0.2768  0.3176
  588MOL0     C81059   8.143   0.745   3.979  0.3351  0.2127  0.4690
  588MOL0     C81060   8.048   0.854   3.972 -0.5313  1.0207  0.4746
  588MOL0     C81061   7.891   1.259   3.918  0.0584 -0.5114 -0.5043
  588MOL0     C81062   7.866   1.321   4.041  0.3209 -0.5598 -0.2027
  588MOL0     C81063   7.819   1.452   4.060 -0.3158  0.6235  0.1640
  588MOL0     C81064   7.791   1.520   3.946  0.2130  0.0488  0.3304
  588MOL0     O81065   7.750   1.645   3.973 -0.5290  0.7015  0.3438
  588MOL0     C81066   7.717   1.730   3.860 -0.3668 -0.3102  0.1513
  588MOL0     C81067   7.673   1.871   3.911  0.8260  0.4975 -0.4396
  588MOL0     C81068   7.671   1.972   3.793  0.8499  0.0252 -0.2902
  588MOL0     C81069   7.662   2.125   3.843 -0.5241  0.1924  0.1191
  588MOL0     C81070   7.676   2.226   3.740 -0.4524  0.4045 -0.1236
  588MOL0     C81071   7.685   2.309   3.655 -0.2745  0.2049  0.7605
  588MOL0     C81072   7.807   1.455   3.822  0.6527 -0.9041  0.2181
  588MOL0     C81073   7.853   1.325   3.802 -0.3281 -0.0094 -1.0092
  588MOL0     C81074   7.861   1.285   3.656  0.7001  0.0907  0.6628
  588MOL0     H81075   8.199   1.075   4.163 -0.7520  1.0818 -0.3198
  588MOL0     H81076   8.373   0.904   4.155 -0.4922 -0.0738 -0.8945
  588MOL0     H81077   8.460   0.671   4.224 -0.9707 -3.1465  0.4674
  588MOL0     H81078   8.514   0.748   4.071  0.3148 -0.4649 -1.6868
  588MOL0     H81079   8.565   0.463   4.142  3.9445 -0.2415 -0.6822
  588MOL0     H81080   8.529   0.499   3.966 -0.9401 -0.7406  0.3584
  588MOL0     H81081   8.705   0.669   3.964  0.4683 -2.2250 -0.9856
  588MOL0     H81082   8.702   0.642   4.146 -0.9855 -2.1020  1.1479
  588MOL0     H81083   8.794   0.413   4.089 -0.9454 -0.2656 -1.6564
  588MOL0     H81084   8.799   0.452   3.924 -2.1819 -1.6618  0.7150
  588MOL0     H81085   8.977   0.631   3.972 -1.7032 -0.3050 -0.9658
  588MOL0     H81086   9.033   0.467   3.997  0.3927  0.4860 -1.1345
  588MOL0     H81087   8.923   0.669   4.193 -2.4463 -1.7626  3.0229
  588MOL0     H81088   8.945   0.504   4.247 -0.2436 -3.4806 -3.6606
  588MOL0     H81089   9.136   0.725   4.255  3.5910  1.0762 -0.0709
  588MOL0     H81090   9.194   0.640   4.127  0.2207 -1.1604 -0.3030
  588MOL0     H81091   9.280   0.558   4.359  1.7251 -0.9956 -2.2104
  588MOL0     H81092   9.132   0.471   4.386  0.8565 -1.5770  0.3509
  588MOL0     H81093   9.458   0.456   4.175 -0.2299  0.9393 -0.0427
  588MOL0     H81094   9.600   0.163   4.163  2.1408  2.0076 -0.5743
  588MOL0     H81095   9.569   0.282   4.038  0.1567 -1.1017 -0.9960
  588MOL0     H81096   9.445   0.002   4.039 -0.4544  0.2047 -0.2094
  588MOL0     H81097   9.399   0.139   3.932  1.2201  1.2303 -0.0144
  588MOL0     H81098   9.546  -0.000   3.821 -1.2164  1.4118 -0.0266
  588MOL0     H81099   9.620   0.154   3.843 -0.1658 -0.8172 -1.4829
  588MOL0     H81100   9.752   0.074   4.056  0.9090 -0.8315  1.2501
  588MOL0     H81101   9.709  -0.091   4.017  1.9520 -0.6771  0.4680
  588MOL0     H81102   9.919  -0.032   4.146  0.9303  1.0130 -0.3981
  588MOL0     H81103  10.062  -0.055   4.321  1.6506  2.9158  1.3528
  588MOL0     H81104  10.229  -0.018   4.297  0.4684 -0.0978  1.3025
  588MOL0     H81105  10.173  -0.188   4.293 -2.3808 -0.4786  1.0761
  588MOL0     H81106  10.579  -0.146   4.370  0.4628  2.7372 -0.7236
  588MOL0     H81107  10.785  -0.248   4.397  0.2751  2.5037 -0.9211
  588MOL0     H81108  10.887  -0.580   4.168 -0.4223  1.1274  1.1997
  588MOL0     H81109  10.988  -0.494   4.056 -1.6559 -0.5304 -0.9980
  588MOL0     H81110  11.166  -0.483   4.247 -1.6235  1.8526 -3.4093
  588MOL0     H81111  11.039  -0.560   4.353  0.4994  3.3369  0.3752
  588MOL0     H81112  11.060  -0.784   4.214  0.1362 -0.1310  1.1420
  588MOL0     H81113  11.207  -0.740   4.314  1.2517  2.6300 -0.6455
  588MOL0     H81114  11.295  -0.630   4.108 -1.9722  0.6307  2.3854
  588MOL0     H81115  11.178  -0.713   4.007  1.7672 -1.3024 -0.2743
  588MOL0     H81116  11.314  -0.905   4.191  0.2706 -0.9814 -0.6064
  588MOL0     H81117  11.233  -0.916   4.036 -1.9117 -0.5341  1.8559
  588MOL0     H81118  11.486  -0.938   4.015  0.7094  0.0336  1.0226
  588MOL0     H81119  11.508  -0.781   4.079 -0.5680 -1.7329  2.1577
  588MOL0     H81120  11.378  -0.678   3.886 -0.2908 -0.4544  1.8305
  588MOL0     H81121  11.382  -0.843   3.812  0.6055 -0.3768  0.0508
  588MOL0     H81122  11.651  -0.717   3.894  1.8545  0.5539 -1.0297
  588MOL0     H81123  11.571  -0.688   3.732 -2.0063 -1.5365 -0.4339
  588MOL0     H81124  10.791  -0.378   3.988 -1.7500 -1.1199 -0.2758
  588MOL0     H81125  10.549  -0.313   3.977 -2.1349 -4.2339  2.3741
  588MOL0     H81126  10.284  -0.096   3.812 -0.8624 -0.7015 -0.5927
  588MOL0     H81127  10.060  -0.051   3.732 -0.8214  0.4288  0.5836
  588MOL0     H81128   8.116   0.654   3.926 -2.8851  1.2602  0.0479
  588MOL0     H81129   7.969   0.843   3.898  0.7694 -2.0068 -0.6527
  588MOL0     H81130   7.876   1.269   4.135  0.0212 -0.0658  0.1025
  588MOL0     H81131   7.810   1.491   4.160  0.5799 -0.5614  0.7278
  588MOL0     H81132   7.801   1.736   3.790  0.7379 -2.2411  1.2112
  588MOL0     H81133   7.629   1.688   3.812 -0.3766 -0.9383  0.7070
  588MOL0     H81134   7.752   1.899   3.982  1.2756  0.0111 -0.7430
  588MOL0     H81135   7.578   1.860   3.964  1.5268 -3.7957  0.3859
  588MOL0     H81136   7.768   1.955   3.745  1.1108  0.7485 -0.0370
  588MOL0     H81137   7.587   1.968   3.722 -0.5320  2.1898  1.1194
  588MOL0     H81138   7.746   2.135   3.913  1.3893 -1.9470 -1.7053
  588MOL0     H81139   7.569   2.139   3.899 -0.6326 -0.0335 -0.0044
  588MOL0     H81140   7.683   2.377   3.572 -3.6448 -1.0327 -0.3282
  588MOL0     H81141   7.759   1.506   3.739  1.7409 -0.2345 -0.0178
  588MOL0     H81142   7.961   1.305   3.616  0.3215 -0.1842 -0.4581
  588MOL0     H81143   7.840   1.178   3.645 -2.1019  0.8310 -2.9561
  588MOL0     H81144   7.783   1.337   3.601  0.3108 -1.9730 -0.8836
  589MOL0     O81145   6.647   3.829   1.545 -0.1595 -0.0664  0.1528
  589MOL0     C81146   6.660   3.707   1.538  0.5374 -0.0671 -0.8308
  589MOL0     O81147   6.637   3.612   1.644 -0.3274 -0.5411  0.2203
  589MOL0     C81148   6.572   3.640   1.756  0.1409 -0.4071  0.2116
  589MOL0     C81149   6.648   3.643   1.876  0.3918 -0.2706 -0.7975
  589MOL0     C81150   6.587   3.641   2.001 -0.6907  0.2878  0.8422
  589MOL0     C81151   6.449   3.645   2.010 -0.4142 -0.6584  0.2448
  589MOL0     O81152   6.390   3.635   2.136 -0.2830 -0.1464  0.2634
  589MOL0     C81153   6.251   3.630   2.126  0.4346 -0.2350 -0.3082
  589MOL0     C81154   6.190   3.615   2.262 -0.0976  0.1077 -0.0136
  589MOL0     C81155   6.186   3.475   2.315  0.3311 -0.2859  0.6510
  589MOL0     C81156   6.149   3.475   2.463 -0.7239 -0.3318  0.1913
  589MOL0     C81157   6.174   3.330   2.521  0.2268 -0.4380 -0.2589
  589MOL0     C81158   6.141   3.313   2.671  0.8376  0.4868  0.1471
  589MOL0     C81159   6.236   3.382   2.770 -0.2276  0.2743 -0.6029
  589MOL0     C81160   6.192   3.372   2.919 -1.1330  0.2823 -0.5644
  589MOL0     N81161   6.229   3.244   2.967 -0.6305 -0.7319  0.1153
  589MOL0     C81162   6.350   3.208   3.008 -0.3843  0.0083  0.1906
  589MOL0     C81163   6.346   3.073   3.032  0.1818  0.2239  0.0011
  589MOL0     C81164   6.455   2.984   3.090  0.0465  0.0160 -0.1277
  589MOL0     C81165   6.572   2.958   3.000 -0.0307  0.6257  0.2468
  589MOL0     C81166   6.659   2.856   3.063  0.0953  0.0036  0.0959
  589MOL0     C81167   6.797   2.853   3.004 -0.7836  0.5435  0.7718
  589MOL0     O81168   6.869   2.727   3.033 -0.1285  0.7967 -0.7853
  589MOL0     C81169   6.974   2.698   2.955 -0.0786  1.0173 -0.2923
  589MOL0     C81170   7.043   2.587   2.984 -1.0732  0.3715  0.2279
  589MOL0     C81171   7.164   2.551   2.922  0.1711 -0.0612  0.0637
  589MOL0     C81172   7.233   2.430   2.972  0.0217 -0.1729  0.2577
  589MOL0     C81173   7.216   2.639   2.819  0.5836  0.1127  0.1199
  589MOL0     C81174   7.327   2.602   2.733  0.1065 -0.4795  0.3236
  589MOL0     O81175   7.388   2.701   2.662  0.1953 -0.5454  0.7335
  589MOL0     C81176   7.466   2.672   2.551  0.6157  0.0577  0.1750
  589MOL0     C81177   7.591   2.735   2.525  0.1543  0.6151  0.0025
  589MOL0     C81178   7.675   2.706   2.413  0.5197  0.0695 -0.1680
  589MOL0     C81179   7.625   2.621   2.315  0.1764 -0.4746  0.4408
  589MOL0     O81180   7.714   2.617   2.210 -0.2309 -0.1582 -0.2823
  589MOL0     C81181   7.656   2.552   2.092  0.0281 -0.4892  0.8813
  589MOL0     C81182   7.572   2.649   2.009  0.5238 -0.7467 -0.9993
  589MOL0     C81183   7.458   2.569   1.943 -1.1319  0.0772  0.2508
  589MOL0     C81184   7.406   2.653   1.833 -0.2054 -1.1760  0.6898
  589MOL0     C81185   7.285   2.591   1.771  1.0378 -0.3090  0.6868
  589MOL0     C81186   7.164   2.597   1.877  0.6780  0.5268 -0.1878
  589MOL0     C81187   7.016   2.568   1.813  0.4699 -0.0137 -1.5854
  589MOL0     C81188   6.927   2.477   1.905 -0.1035  0.0464  0.5237
  589MOL0    Cl81189   6.993   2.314   1.888 -0.0369 -0.6893  0.0556
  589MOL0     C81190   7.496   2.560   2.335 -0.0266  0.3565  0.2391
  589MOL0     C81191   7.416   2.581   2.450 -0.7485  0.0055  0.6855
  589MOL0     O81192   7.346   2.485   2.708  0.1817 -0.0396 -0.1615
  589MOL0     C81193   7.152   2.758   2.794  0.2220 -0.9230  0.1978
  589MOL0     C81194   7.030   2.784   2.855 -0.6280 -0.0015 -0.8193
  589MOL0     N81195   6.213   3.037   3.025  0.3139 -0.0701  0.5737
  589MOL0     N81196   6.150   3.135   2.964  0.7774  0.4724 -0.4101
  589MOL0     C81197   6.375   3.665   1.886 -0.2723  0.3295  0.1950
  589MOL0     C81198   6.432   3.657   1.758  0.0355  0.1154 -0.2118
  589MOL0     C81199   6.693   3.662   1.402 -0.2894 -1.0132 -0.8911
  589MOL0     C81200   6.661   3.526   1.376 -0.3708  0.4504 -0.3091
  589MOL0     C81201   6.692   3.470   1.245 -0.0483  0.1532 -0.4483
  589MOL0     C81202   6.744   3.549   1.148 -0.3930 -0.1159 -0.0518
  589MOL0     O81203   6.756   3.507   1.021  0.2949  0.1284  0.0501
  589MOL0     C81204   6.709   3.377   0.982 -0.6699 -0.4323  0.4390
  589MOL0     C81205   6.741   3.394   0.831 -0.7260  0.2747  0.9424
  589MOL0     C81206   6.887   3.408   0.793 -0.7552 -0.5477  0.2839
  589MOL0     C81207   6.928   3.552   0.732 -0.5767  0.3633 -0.0728
  589MOL0     C81208   7.056   3.558   0.652 -0.9265  0.5635 -0.6443
  589MOL0     C81209   7.156   3.541   0.586  0.4580  0.8398  0.9172
  589MOL0     C81210   6.775   3.690   1.175 -0.2557  0.0969 -0.4134
  589MOL0     C81211   6.751   3.746   1.298 -0.1233 -0.1305 -1.2785
  589MOL0     C81212   6.782   3.896   1.308  0.0990  0.3684  1.2853
  589MOL0     H81213   6.755   3.626   1.883  0.4305  0.5691  2.9721
  589MOL0     H81214   6.643   3.630   2.093 -1.0808  0.3415  1.0878
  589MOL0     H81215   6.222   3.551   2.057  1.1508 -0.4658 -0.3524
  589MOL0     H81216   6.206   3.725   2.093 -1.1775 -0.7978  0.1998
  589MOL0     H81217   6.242   3.682   2.331 -2.3964  2.5463 -0.4878
  589MOL0     H81218   6.088   3.652   2.274 -0.3691 -0.8976  0.9955
  589MOL0     H81219   6.113   3.413   2.263  2.3100 -1.3328 -1.0099
  589MOL0     H81220   6.284   3.429   2.302  0.3560  0.2935 -1.6342
  589MOL0     H81221   6.207   3.548   2.521  0.9481 -1.8836  0.5827
  589MOL0     H81222   6.045   3.509   2.458 -0.0485  2.1124  1.2206
  589MOL0     H81223   6.279   3.301   2.508  1.6819  3.3715  1.5279
  589MOL0     H81224   6.104   3.271   2.461 -1.4966  1.7298 -0.4790
  589MOL0     H81225   6.039   3.351   2.680 -0.5730 -2.6387 -1.1956
  589MOL0     H81226   6.144   3.206   2.692  2.1490  0.6018  0.6252
  589MOL0     H81227   6.233   3.487   2.737 -3.4559  0.7800  0.9276
  589MOL0     H81228   6.339   3.347   2.761 -0.2042 -0.2754  1.4211
  589MOL0     H81229   6.230   3.442   2.994 -5.0095  1.3916  0.5768
  589MOL0     H81230   6.083   3.376   2.925 -1.1460 -1.3574  1.2160
  589MOL0     H81231   6.445   3.259   3.022 -0.2695  0.3687 -1.7024
  589MOL0     H81232   6.403   2.892   3.118 -0.7072 -0.0388 -1.6056
  589MOL0     H81233   6.477   3.029   3.187 -0.0569 -3.1121  1.4717
  589MOL0     H81234   6.543   2.930   2.899  1.1712 -0.3213  0.1391
  589MOL0     H81235   6.629   3.052   2.999  2.3829 -0.5264  4.1567
  589MOL0     H81236   6.670   2.867   3.171 -1.2583 -0.8291  0.3535
  589MOL0     H81237   6.621   2.753   3.053  2.2504 -0.7916 -0.3017
  589MOL0     H81238   6.782   2.873   2.897  3.0389 -0.9493 -0.2114
  589MOL0     H81239   6.853   2.939   3.043  0.2530 -0.3507  1.3260
  589MOL0     H81240   7.008   2.520   3.062 -0.0208  1.2147  1.4739
  589MOL0     H81241   7.199   2.392   3.069 -1.1941 -0.7635 -0.3678
  589MOL0     H81242   7.341   2.443   2.983 -0.1744 -0.0559  2.7395
  589MOL0     H81243   7.206   2.349   2.903  1.7953 -2.0485  1.6289
  589MOL0     H81244   7.608   2.805   2.607  1.0617 -0.1263  0.4606
  589MOL0     H81245   7.764   2.765   2.394  0.6947 -0.1430 -0.0136
  589MOL0     H81246   7.735   2.506   2.033 -1.3053 -0.7255 -0.8134
  589MOL0     H81247   7.596   2.468   2.128 -2.5609  1.5527  1.7009
  589MOL0     H81248   7.534   2.728   2.073  3.3121  0.9376 -1.2934
  589MOL0     H81249   7.639   2.697   1.937 -0.2403  1.8908 -0.0507
  589MOL0     H81250   7.383   2.561   2.023  0.0413 -1.8403  1.2040
  589MOL0     H81251   7.487   2.470   1.909 -1.9642 -0.2788  0.5537
  589MOL0     H81252   7.478   2.657   1.750 -0.2961  0.8816  0.6720
  589MOL0     H81253   7.386   2.758   1.856  0.6971 -0.5509 -1.1118
  589MOL0     H81254   7.248   2.656   1.691 -3.2719 -1.8043  1.1742
  589MOL0     H81255   7.306   2.491   1.732  1.1489 -0.1247  0.2759
  589MOL0     H81256   7.158   2.694   1.928 -2.7106  0.0563  0.5332
  589MOL0     H81257   7.187   2.517   1.948 -1.2295  0.9700  1.0015
  589MOL0     H81258   7.023   2.522   1.714  1.4788  2.8586 -2.9579
  589MOL0     H81259   6.961   2.662   1.802  1.1367  0.8266  1.2826
  589MOL0     H81260   6.822   2.478   1.875  0.0889 -0.7219 -0.2115
  589MOL0     H81261   6.937   2.521   2.005 -0.1995 -0.2663  0.6706
  589MOL0     H81262   7.449   2.493   2.264  0.5814  1.1623 -0.9619
  589MOL0     H81263   7.316   2.538   2.452 -0.6996 -0.4284 -2.0521
  589MOL0     H81264   7.200   2.830   2.729  1.8504 -1.5458  0.6526
  589MOL0     H81265   6.983   2.878   2.827 -2.2954 -1.0196 -1.5502
  589MOL0     H81266   6.268   3.679   1.875 -0.3317 -0.2762 -0.0696
  589MOL0     H81267   6.370   3.659   1.669 -1.5692  1.1515  0.8766
  589MOL0     H81268   6.617   3.461   1.452  0.7902  1.0434  0.9217
  589MOL0     H81269   6.657   3.369   1.230 -0.0899  0.0219  0.4557
  589MOL0     H81270   6.776   3.300   1.023  0.5898 -0.4856 -1.5990
  589MOL0     H81271   6.605   3.353   1.007 -0.7046 -0.1172  0.6005
  589MOL0     H81272   6.691   3.485   0.797 -1.7648 -0.8927 -0.7649
  589MOL0     H81273   6.702   3.316   0.766  1.5367 -0.0286 -0.1576
  589MOL0     H81274   6.948   3.382   0.880 -1.5182 -1.8637  0.4504
  589MOL0     H81275   6.919   3.329   0.723 -1.1845 -2.5006  2.1685
  589MOL0     H81276   6.934   3.630   0.808 -0.6517 -0.5503  0.8816
  589MOL0     H81277   6.845   3.585   0.668 -0.2006 -1.5805 -1.6614
  589MOL0     H81278   7.239   3.533   0.518 -1.4331 -1.7094 -1.3118
  589MOL0     H81279   6.812   3.738   1.086  0.9676 -1.2483 -0.6623
  589MOL0     H81280   6.831   3.942   1.223 -0.8675  3.1443  2.0955
  589MOL0     H81281   6.685   3.948   1.302 -0.4108 -0.6232  0.8528
  589MOL0     H81282   6.836   3.933   1.396 -1.0234  4.0905  0.6195
  590MOL0     O81283   2.112   9.714   5.854 -0.0646 -0.0703 -0.2939
  590MOL0     C81284   2.023   9.767   5.794 -0.1474 -0.1517  0.0232
  590MOL0     O81285   2.010   9.900   5.768 -0.0224  0.6069 -0.0546
  590MOL0     C81286   2.088   9.991   5.831 -0.2093  0.2565  0.2756
  590MOL0     C81287   2.025  10.106   5.871  0.9582  0.6738  0.0862
  590MOL0     C81288   2.088  10.208   5.950 -0.7669  0.6183  0.0259
  590MOL0     C81289   2.212  10.190   5.998 -0.0245 -0.5501 -0.2062
  590MOL0     O81290   2.290  10.282   6.067 -0.6385  0.1618 -0.2193
  590MOL0     C81291   2.322  10.402   5.995  0.3198  0.4426 -0.2376
  590MOL0     C81292   2.471  10.398   5.961  0.4129  0.1361 -0.1138
  590MOL0     C81293   2.555  10.344   6.076 -0.6916 -0.0540 -0.4591
  590MOL0     C81294   2.694  10.419   6.111 -0.8058 -0.3017  0.1262
  590MOL0     C81295   2.778  10.339   6.204  0.4599 -0.4865 -0.5803
  590MOL0     C81296   2.898  10.421   6.266 -0.3648 -0.9542 -0.5409
  590MOL0     C81297   2.874  10.565   6.309  1.2388  0.2807 -0.6421
  590MOL0     C81298   2.940  10.600   6.444  0.2223  0.5400 -1.2908
  590MOL0     N81299   2.887  10.729   6.502  0.9104  0.2932  0.4118
  590MOL0     C81300   2.872  10.841   6.422  0.7244  0.3006 -0.1836
  590MOL0     C81301   2.872  10.953   6.499 -0.4877  0.6372 -0.9378
  590MOL0     C81302   2.834  11.090   6.449 -0.8261  0.1159 -0.8573
  590MOL0     C81303   2.951  11.184   6.480  0.6923 -1.1013  0.3092
  590MOL0     C81304   2.974  11.221   6.630 -0.0658  0.1138  1.5569
  590MOL0     C81305   2.849  11.259   6.717  0.2840  0.2359 -0.6417
  590MOL0     O81306   2.749  11.337   6.648  0.2355 -0.6238 -0.0349
  590MOL0     C81307   2.783  11.470   6.629  0.4771  0.9215  0.2712
  590MOL0     C81308   2.689  11.548   6.560 -0.3973 -0.7337  0.2682
  590MOL0     C81309   2.705  11.683   6.526 -0.2488 -0.4610 -0.2244
  590MOL0     C81310   2.603  11.753   6.455 -0.0563  0.2429 -0.4951
  590MOL0     C81311   2.824  11.754   6.571 -0.0461  0.0568  0.4750
  590MOL0     C81312   2.842  11.899   6.572 -0.5758 -0.3008  0.2833
  590MOL0     O81313   2.941  11.935   6.489 -0.8213 -0.4903 -0.2437
  590MOL0     C81314   2.962  12.067   6.470 -0.8648  0.1153 -1.0837
  590MOL0     C81315   3.007  12.149   6.574  0.3728 -0.7376  1.1402
  590MOL0     C81316   3.040  12.282   6.559 -0.1656  0.6541 -0.1496
  590MOL0     C81317   3.034  12.342   6.432  0.2109 -0.3845  0.0258
  590MOL0     O81318   3.062  12.475   6.429 -0.2079 -1.0036 -0.0476
  590MOL0     C81319   2.946  12.547   6.400 -0.1622  0.7743 -0.3626
  590MOL0     C81320   2.999  12.690   6.381 -0.4865 -0.1158  0.2066
  590MOL0     C81321   2.886  12.778   6.355  0.2043  0.5618 -0.6640
  590MOL0     C81322   2.924  12.924   6.314 -0.5120 -0.4448 -0.0956
  590MOL0     C81323   2.812  13.017   6.290  0.3972 -1.0735  0.4086
  590MOL0     C81324   2.751  13.001   6.150  0.3546 -0.9166 -0.3042
  590MOL0     C81325   2.649  13.114   6.130  0.5560  0.4142  0.5499
  590MOL0     C81326   2.574  13.075   6.010  0.6162 -0.2519  0.0164
  590MOL0    Cl81327   2.424  13.171   5.969  0.1386 -0.2196 -0.1499
  590MOL0     C81328   2.992  12.256   6.328 -0.8378 -0.5733  0.2747
  590MOL0     C81329   2.962  12.121   6.343  0.2149 -0.4693 -0.9005
  590MOL0     O81330   2.757  11.972   6.621 -0.5471  0.1751 -0.1216
  590MOL0     C81331   2.919  11.676   6.633  0.0279  0.2112 -0.2293
  590MOL0     C81332   2.901  11.538   6.661  0.4629 -0.0010 -0.1287
  590MOL0     N81333   2.884  10.905   6.627  0.0313 -0.7159  0.0047
  590MOL0     N81334   2.905  10.776   6.625  0.1332 -0.3190 -0.5122
  590MOL0     C81335   2.280  10.074   5.956 -0.0474  0.7416  0.3355
  590MOL0     C81336   2.216   9.976   5.880 -1.1982  0.6240  0.6106
  590MOL0     C81337   1.913   9.682   5.751  0.0486 -1.2754 -0.5882
  590MOL0     C81338   1.805   9.741   5.686 -0.0142 -0.4021 -0.4855
  590MOL0     C81339   1.686   9.680   5.649 -0.5835 -0.3895 -0.4728
  590MOL0     C81340   1.668   9.544   5.680  0.9530  0.2673 -0.6231
  590MOL0     O81341   1.548   9.479   5.648 -0.0358  0.3469 -0.1037
  590MOL0     C81342   1.435   9.538   5.574 -0.4868 -0.3192 -0.1668
  590MOL0     C81343   1.312   9.452   5.556  0.4360  0.1532  0.1824
  590MOL0     C81344   1.356   9.328   5.469  0.2447 -0.2376  0.1964
  590MOL0     C81345   1.299   9.337   5.319 -0.0363 -0.6252 -0.1497
  590MOL0     C81346   1.160   9.302   5.306 -0.0111 -0.6353  0.3931
  590MOL0     C81347   1.039   9.279   5.300 -0.9947  0.4159 -0.1911
  590MOL0     C81348   1.776   9.474   5.738  0.5925  0.2657  0.6761
  590MOL0     C81349   1.899   9.543   5.767  1.1728 -0.3055 -0.3221
  590MOL0     C81350   2.010   9.461   5.829 -0.5574 -0.4439 -0.1017
  590MOL0     H81351   1.923  10.127   5.841  0.6168 -1.3071 -0.2763
  590MOL0     H81352   2.019  10.289   5.973 -3.8811 -2.0736  1.0433
  590MOL0     H81353   2.312  10.483   6.068 -0.1798  0.0238  0.1687
  590MOL0     H81354   2.254  10.426   5.912  1.4522 -0.8677 -1.5931
  590MOL0     H81355   2.490  10.335   5.874 -2.5258 -1.4054  0.2308
  590MOL0     H81356   2.519  10.495   5.941 -0.2519  0.9538  1.9516
  590MOL0     H81357   2.497  10.360   6.167 -0.2502 -2.8380  0.4066
  590MOL0     H81358   2.566  10.237   6.057  0.3768 -0.4884  2.2664
  590MOL0     H81359   2.751  10.427   6.018 -0.9346 -5.5198 -0.7082
  590MOL0     H81360   2.668  10.517   6.151  0.6357  0.3050 -0.3797
  590MOL0     H81361   2.804  10.237   6.172 -0.7297 -0.7192 -0.8568
  590MOL0     H81362   2.707  10.315   6.284  0.7077  1.3285  0.2284
  590MOL0     H81363   2.932  10.357   6.348 -2.5078 -0.3798  0.8721
  590MOL0     H81364   2.984  10.424   6.198 -0.1825  1.6607 -0.2839
  590MOL0     H81365   2.769  10.594   6.313  0.6037 -1.8479 -0.7527
  590MOL0     H81366   2.916  10.633   6.234  1.1960 -1.3175 -2.1577
  590MOL0     H81367   2.936  10.518   6.517  1.4784 -0.1215 -1.9374
  590MOL0     H81368   3.046  10.621   6.428  0.9903 -0.9749  1.2263
  590MOL0     H81369   2.861  10.828   6.315  1.5841 -0.8048 -0.1580
  590MOL0     H81370   2.747  11.121   6.506  0.5544  1.5708  0.5697
  590MOL0     H81371   2.812  11.094   6.342  0.1020  1.8307 -1.0351
  590MOL0     H81372   3.042  11.148   6.429  1.7974  2.5007 -0.5683
  590MOL0     H81373   2.926  11.274   6.424 -0.5518 -1.9202 -0.4828
  590MOL0     H81374   3.031  11.134   6.664 -0.8085 -1.3185 -0.6477
  590MOL0     H81375   3.040  11.308   6.627  0.8971 -0.6187 -1.0906
  590MOL0     H81376   2.800  11.164   6.738 -1.9916  0.7631 -2.9823
  590MOL0     H81377   2.869  11.301   6.815 -3.3105 -0.2635  0.4533
  590MOL0     H81378   2.599  11.492   6.538 -0.2627 -1.2174  0.9169
  590MOL0     H81379   2.568  11.832   6.522 -2.2787 -1.3589  0.3651
  590MOL0     H81380   2.518  11.690   6.428 -0.3388 -1.6482  3.9043
  590MOL0     H81381   2.636  11.800   6.362  1.0012 -0.6264 -0.5782
  590MOL0     H81382   3.020  12.098   6.669  0.9731 -1.1134  0.8641
  590MOL0     H81383   3.074  12.348   6.638  0.3738  1.4522 -1.0282
  590MOL0     H81384   2.900  12.494   6.316  0.0404 -0.5576  0.3306
  590MOL0     H81385   2.890  12.549   6.493  1.1690  1.5466  0.4505
  590MOL0     H81386   3.049  12.706   6.477 -3.1489  0.5907  1.5711
  590MOL0     H81387   3.076  12.693   6.303  1.2926  1.3032  1.8989
  590MOL0     H81388   2.803  12.780   6.426 -0.5783  2.0983 -1.5559
  590MOL0     H81389   2.847  12.732   6.263 -2.6859  0.4497  0.5130
  590MOL0     H81390   2.988  12.914   6.226 -1.9823 -1.2327 -1.1306
  590MOL0     H81391   2.991  12.962   6.391  0.3824  0.1312 -1.1347
  590MOL0     H81392   2.731  13.013   6.363  0.7100  1.7327  1.0275
  590MOL0     H81393   2.850  13.118   6.307  0.6136 -1.4143  2.1067
  590MOL0     H81394   2.696  12.906   6.155 -2.3770  0.5739  0.3333
  590MOL0     H81395   2.825  12.994   6.070 -0.8755  0.3527 -1.6314
  590MOL0     H81396   2.707  13.203   6.103 -1.6071  1.7729  0.1632
  590MOL0     H81397   2.582  13.133   6.214  0.2340 -1.5454  0.7797
  590MOL0     H81398   2.559  12.967   5.999 -2.0771  0.1503 -0.7519
  590MOL0     H81399   2.646  13.091   5.929  0.2155 -0.0176 -0.2962
  590MOL0     H81400   3.002  12.282   6.223 -0.9116  1.7693  0.7781
  590MOL0     H81401   2.945  12.057   6.258  3.0370 -1.0173 -1.1463
  590MOL0     H81402   3.013  11.712   6.674 -0.6295  0.3849  1.1963
  590MOL0     H81403   2.982  11.487   6.713  0.0954 -0.3301  0.1217
  590MOL0     H81404   2.386  10.073   5.976  0.3585  2.0340 -1.4512
  590MOL0     H81405   2.270   9.883   5.867 -4.6579 -1.7139  1.7726
  590MOL0     H81406   1.807   9.847   5.663 -1.1810 -0.6194 -1.6842
  590MOL0     H81407   1.615   9.742   5.594  2.3471  2.7428 -1.0882
  590MOL0     H81408   1.413   9.631   5.628  0.0266  0.5733 -1.4357
  590MOL0     H81409   1.473   9.578   5.480 -0.1340  0.4706  0.3008
  590MOL0     H81410   1.233   9.512   5.510  0.6717  0.2960 -0.0319
  590MOL0     H81411   1.280   9.406   5.650  0.7056 -1.1450 -0.3303
  590MOL0     H81412   1.465   9.327   5.460  0.2883 -0.0869  0.6957
  590MOL0     H81413   1.326   9.235   5.517 -0.0069 -0.2997 -0.0795
  590MOL0     H81414   1.355   9.263   5.261  1.5605 -2.0342  2.9243
  590MOL0     H81415   1.320   9.435   5.276 -2.1411  0.6189  1.4743
  590MOL0     H81416   0.936   9.250   5.287 -0.2830 -1.5991 -1.8805
  590MOL0     H81417   1.753   9.369   5.751 -6.5145  1.1349 -0.5569
  590MOL0     H81418   2.099   9.471   5.766 -0.5239 -0.3352 -0.0378
  590MOL0     H81419   2.045   9.503   5.924 -2.0697  1.7341 -0.4294
  590MOL0     H81420   1.990   9.353   5.826 -3.2675 -0.0022 -2.7942
  591MOL0     O81421   7.652   7.556   3.990  0.3141  0.7441  0.5393
  591MOL0     C81422   7.639   7.520   4.109  0.7602 -0.3758  1.0143
  591MOL0     O81423   7.710   7.569   4.214 -0.6644  1.2306  0.0404
  591MOL0     C81424   7.816   7.653   4.194 -0.0753 -0.5841 -0.0281
  591MOL0     C81425   7.816   7.772   4.270 -0.1454 -0.4277  0.3273
  591MOL0     C81426   7.908   7.871   4.241 -0.5647  0.7902 -0.1421
  591MOL0     C81427   8.013   7.851   4.150 -0.1772  0.7101  0.4271
  591MOL0     O81428   8.104   7.956   4.128 -0.1794 -0.0211 -0.5527
  591MOL0     C81429   8.245   7.929   4.142  0.5797 -1.2393 -0.3010
  591MOL0     C81430   8.329   8.054   4.120 -0.2638 -0.4198  0.7651
  591MOL0     C81431   8.482   8.020   4.134 -0.7799 -0.7816  0.3770
  591MOL0     C81432   8.541   7.941   4.012 -0.1156 -0.0949  0.4925
  591MOL0     C81433   8.678   7.874   4.039 -0.0914  0.2771  0.7117
  591MOL0     C81434   8.673   7.759   4.143  1.8661 -1.1369 -0.1815
  591MOL0     C81435   8.807   7.676   4.160 -0.2388 -0.0307 -0.1120
  591MOL0     C81436   8.923   7.768   4.206 -0.7688  0.0785  0.5680
  591MOL0     N81437   9.053   7.700   4.188 -0.3815 -0.0822  0.2515
  591MOL0     C81438   9.108   7.684   4.061 -0.8092 -0.9907  0.4477
  591MOL0     C81439   9.213   7.597   4.084  0.3025  0.3593  0.0241
  591MOL0     C81440   9.318   7.552   3.987 -0.2162  0.1924 -0.0881
  591MOL0     C81441   9.440   7.646   3.989 -0.6347  0.7292 -0.0919
  591MOL0     C81442   9.566   7.583   3.920 -0.0875  0.9456  0.3904
  591MOL0     C81443   9.688   7.676   3.901 -0.2520 -0.2567  0.6830
  591MOL0     O81444   9.805   7.609   3.847  0.2914 -0.1278 -0.3565
  591MOL0     C81445   9.925   7.685   3.835 -0.4442 -0.3063  0.5075
  591MOL0     C81446   9.941   7.821   3.825 -0.1303 -0.4246  0.4124
  591MOL0     C81447  10.065   7.887   3.801 -0.5515 -0.8515 -0.1167
  591MOL0     C81448  10.063   8.043   3.794  0.5513  0.5760  0.1753
  591MOL0     C81449  10.179   7.808   3.783 -0.1190  0.9916 -0.0788
  591MOL0     C81450  10.315   7.859   3.770  0.5089  0.5536  0.8885
  591MOL0     O81451  10.420   7.760   3.774  0.0037  0.8535 -0.6601
  591MOL0     C81452  10.547   7.812   3.780 -0.0078 -0.7483  0.3746
  591MOL0     C81453  10.618   7.839   3.662 -1.1422  0.6301  0.5058
  591MOL0     C81454  10.750   7.900   3.673  0.4396 -0.7259 -0.1362
  591MOL0     C81455  10.810   7.925   3.791  1.2157  0.5890  0.5930
  591MOL0     O81456  10.937   7.973   3.804  1.3379 -0.3858  0.3419
  591MOL0     C81457  10.978   8.054   3.700 -0.6866  0.3886  0.8442
  591MOL0     C81458  11.118   8.111   3.726 -0.3283  0.0574  0.3638
  591MOL0     C81459  11.218   8.011   3.793 -0.1720  0.0246 -0.4734
  591MOL0     C81460  11.364   8.040   3.736  0.2170  0.4726 -0.1279
  591MOL0     C81461  11.410   8.180   3.783 -0.0985 -0.5593  0.8021
  591MOL0     C81462  11.561   8.173   3.809  0.6740 -0.6280  0.0385
  591MOL0     C81463  11.645   8.311   3.790 -0.4602  0.3195  0.2001
  591MOL0     C81464  11.586   8.420   3.873 -0.9619  0.2098 -0.7753
  591MOL0    Cl81465  11.706   8.558   3.897  0.3383  0.1710  0.3523
  591MOL0     C81466  10.734   7.889   3.911 -0.1164  0.0573  0.3699
  591MOL0     C81467  10.603   7.840   3.904 -0.2764  0.4239  0.1474
  591MOL0     O81468  10.336   7.980   3.760 -0.4182  0.5765 -0.0688
  591MOL0     C81469  10.160   7.667   3.796  0.0644  0.3576  0.4684
  591MOL0     C81470  10.040   7.608   3.815  0.4754  0.7786 -0.0913
  591MOL0     N81471   9.218   7.565   4.224 -0.1393 -0.2465  0.6797
  591MOL0     N81472   9.128   7.631   4.284  0.0187  0.0372  0.2546
  591MOL0     C81473   8.018   7.729   4.086  0.0555  0.7851  0.6195
  591MOL0     C81474   7.917   7.626   4.099 -0.2120 -0.4696  0.4174
  591MOL0     C81475   7.530   7.417   4.126  0.0204 -0.2266  0.6307
  591MOL0     C81476   7.407   7.437   4.069 -0.6183  0.1715  0.2885
  591MOL0     C81477   7.301   7.344   4.106  0.1467  0.0714 -0.6752
  591MOL0     C81478   7.313   7.232   4.188 -0.3471 -0.2436  0.6395
  591MOL0     O81479   7.218   7.136   4.184 -0.2683  0.3324  0.2570
  591MOL0     C81480   7.232   7.026   4.281 -0.2361  0.2439 -0.9494
  591MOL0     C81481   7.095   6.955   4.268 -0.0065 -0.6487 -1.1216
  591MOL0     C81482   7.066   6.901   4.128  0.7183 -0.2317 -0.0744
  591MOL0     C81483   6.919   6.845   4.122 -0.3484  0.5248  0.4093
  591MOL0     C81484   6.873   6.818   3.985 -0.5562 -0.2660  0.2307
  591MOL0     C81485   6.831   6.802   3.875  0.5905  0.1620 -0.7185
  591MOL0     C81486   7.437   7.222   4.244 -0.3770 -0.6113  0.5958
  591MOL0     C81487   7.553   7.307   4.212 -0.1197 -0.3565 -0.2347
  591MOL0     C81488   7.684   7.273   4.263 -1.2970  0.1789 -0.0461
  591MOL0     H81489   7.741   7.772   4.349  1.0443  1.6505  1.5833
  591MOL0     H81490   7.901   7.970   4.284 -3.0651  1.5527 -2.0150
  591MOL0     H81491   8.268   7.857   4.063 -3.1543 -2.0633 -0.8645
  591MOL0     H81492   8.268   7.890   4.241  0.3067 -0.9206 -0.1113
  591MOL0     H81493   8.315   8.087   4.017  4.1939  1.1111  0.4437
  591MOL0     H81494   8.295   8.125   4.196  0.2685 -0.3223  0.9137
  591MOL0     H81495   8.542   8.110   4.154 -2.1274  0.1639  0.2829
  591MOL0     H81496   8.487   7.952   4.220  3.0187 -1.4035 -0.1420
  591MOL0     H81497   8.473   7.866   3.969  1.0875  0.5573 -2.9060
  591MOL0     H81498   8.552   7.999   3.919 -0.9211 -4.2238 -2.4467
  591MOL0     H81499   8.749   7.956   4.057 -0.5025  1.3815 -2.2082
  591MOL0     H81500   8.706   7.826   3.945  0.3987 -0.0252  1.0030
  591MOL0     H81501   8.638   7.793   4.242  0.5902 -2.8676  0.0020
  591MOL0     H81502   8.597   7.685   4.115 -0.9217 -0.1012  3.7527
  591MOL0     H81503   8.831   7.620   4.069  1.2012  0.3220  0.0331
  591MOL0     H81504   8.787   7.598   4.234 -4.3500 -0.4833 -1.4402
  591MOL0     H81505   8.919   7.861   4.148  1.1643 -0.8479 -1.1778
  591MOL0     H81506   8.926   7.788   4.313  0.5011 -0.8300  0.7329
  591MOL0     H81507   9.093   7.723   3.961 -0.1995 -2.6116 -0.3083
  591MOL0     H81508   9.269   7.558   3.889 -4.6882  0.0245  1.9272
  591MOL0     H81509   9.346   7.449   4.012  0.8640  0.3224 -0.6708
  591MOL0     H81510   9.417   7.739   3.935 -0.0795 -0.2634 -2.1330
  591MOL0     H81511   9.466   7.663   4.094 -1.3463 -1.7221  0.5469
  591MOL0     H81512   9.606   7.496   3.972  1.4545  0.2888 -1.7456
  591MOL0     H81513   9.546   7.535   3.824  1.1826 -0.2299  0.6852
  591MOL0     H81514   9.652   7.760   3.840 -3.1098 -1.9696 -0.2079
  591MOL0     H81515   9.703   7.706   4.005 -0.6877 -0.7627  0.8957
  591MOL0     H81516   9.852   7.880   3.842  0.2538 -0.3539  2.5212
  591MOL0     H81517  10.121   8.074   3.882 -1.7976  0.4914  1.8466
  591MOL0     H81518   9.962   8.084   3.795  0.9212  1.5317  1.4230
  591MOL0     H81519  10.106   8.069   3.697 -1.3674  0.4287 -0.7435
  591MOL0     H81520  10.591   7.808   3.561  3.3279  1.3406 -1.1140
  591MOL0     H81521  10.799   7.935   3.582  0.2306 -0.8465 -0.2975
  591MOL0     H81522  10.993   7.991   3.612  1.1410 -0.0599  1.4251
  591MOL0     H81523  10.911   8.136   3.672 -0.6667 -0.3916 -1.6666
  591MOL0     H81524  11.159   8.144   3.631 -2.1915  1.8156  0.1013
  591MOL0     H81525  11.106   8.198   3.790  0.2303 -0.1533  0.7691
  591MOL0     H81526  11.172   7.916   3.763 -1.4150  0.7501 -0.9423
  591MOL0     H81527  11.205   8.007   3.902 -0.7980 -1.0296 -0.5695
  591MOL0     H81528  11.376   8.042   3.627  2.9841 -2.0737 -0.0020
  591MOL0     H81529  11.429   7.961   3.773  0.1401  0.5921  0.2646
  591MOL0     H81530  11.386   8.253   3.705 -2.3328  0.8388  2.6806
  591MOL0     H81531  11.369   8.205   3.881  2.4418  0.2964  1.7208
  591MOL0     H81532  11.608   8.111   3.732  3.0875  1.5902 -0.4007
  591MOL0     H81533  11.576   8.141   3.912 -2.7992 -2.2267  0.2033
  591MOL0     H81534  11.629   8.339   3.686 -0.2009 -1.4033 -0.3303
  591MOL0     H81535  11.750   8.298   3.817  0.6443  3.6095 -1.8529
  591MOL0     H81536  11.576   8.369   3.970  0.9743  0.5329 -0.3782
  591MOL0     H81537  11.483   8.452   3.855 -0.9394  3.0694  2.9783
  591MOL0     H81538  10.784   7.910   4.005  2.0527  1.1128 -0.9376
  591MOL0     H81539  10.557   7.813   3.999 -2.2531 -1.9957 -1.3858
  591MOL0     H81540  10.246   7.604   3.777 -0.1697  0.2059 -0.1263
  591MOL0     H81541  10.035   7.500   3.820 -0.8335  0.6254 -2.8532
  591MOL0     H81542   8.092   7.707   4.010 -2.4235  0.7835 -1.9674
  591MOL0     H81543   7.912   7.542   4.031  2.0226  0.5984 -1.2018
  591MOL0     H81544   7.397   7.516   3.995  0.6783  0.2081  0.1266
  591MOL0     H81545   7.209   7.348   4.048 -0.4574  2.7614  0.2792
  591MOL0     H81546   7.318   6.967   4.247  0.9400  1.2477  0.1702
  591MOL0     H81547   7.247   7.071   4.380  1.1156 -1.3788 -0.3620
  591MOL0     H81548   7.023   7.027   4.307  4.4001  2.9910  1.2489
  591MOL0     H81549   7.111   6.867   4.331  1.2583  0.8356  0.7328
  591MOL0     H81550   7.076   6.980   4.053 -1.8661  1.3217  1.0785
  591MOL0     H81551   7.148   6.832   4.103  0.6976 -0.5164  0.6195
  591MOL0     H81552   6.840   6.917   4.147 -3.7562 -2.5156 -0.5950
  591MOL0     H81553   6.913   6.754   4.183 -0.2911 -0.0605 -0.4315
  591MOL0     H81554   6.796   6.790   3.774 -1.6955  0.8996 -0.0692
  591MOL0     H81555   7.467   7.140   4.310 -0.3729  0.8878  2.5566
  591MOL0     H81556   7.739   7.257   4.170 -1.7167 -0.1499 -0.2453
  591MOL0     H81557   7.734   7.361   4.304  0.2918 -0.7816  0.1392
  591MOL0     H81558   7.711   7.186   4.323  1.5216  0.2339 -1.0932
  592MOL0     O81559   0.034   6.656  11.047  0.0963 -0.3667 -0.1035
  592MOL0     C81560   0.128   6.658  11.129  0.5052  0.3423  0.0637
  592MOL0     O81561   0.139   6.574  11.230  0.1943  0.8584 -0.6740
  592MOL0     C81562   0.069   6.464  11.231  0.5584  0.3275 -0.5424
  592MOL0     C81563   0.099   6.357  11.145  0.4061 -0.8197  0.4411
  592MOL0     C81564   0.027   6.239  11.136 -0.3052 -0.0887 -0.8758
  592MOL0     C81565  -0.100   6.227  11.209 -0.2416 -0.4225  0.6191
  592MOL0     O81566  -0.171   6.114  11.210  0.5212  0.0203 -0.5332
  592MOL0     C81567  -0.147   6.041  11.334  0.6455 -0.5711  0.4129
  592MOL0     C81568  -0.198   5.903  11.320  0.7693  0.2870  0.1438
  592MOL0     C81569  -0.170   5.840  11.458 -0.0214 -0.4642 -0.2171
  592MOL0     C81570  -0.207   5.694  11.448 -0.4656  0.9979 -0.2420
  592MOL0     C81571  -0.273   5.641  11.577 -0.4084 -0.1446  0.1074
  592MOL0     C81572  -0.195   5.652  11.707  0.5092 -0.7099 -0.2246
  592MOL0     C81573  -0.266   5.589  11.836  0.9519  0.6711 -0.0715
  592MOL0     C81574  -0.403   5.647  11.872 -0.0001  0.4701 -0.3779
  592MOL0     N81575  -0.509   5.553  11.920 -0.8560 -0.2632 -0.3426
  592MOL0     C81576  -0.586   5.474  11.848  0.2789  0.7718  0.0107
  592MOL0     C81577  -0.700   5.450  11.919  0.2242  0.1051 -0.2178
  592MOL0     C81578  -0.813   5.361  11.878  0.6297  0.2789  0.3237
  592MOL0     C81579  -0.768   5.211  11.862  0.5675 -0.4575 -0.9317
  592MOL0     C81580  -0.886   5.139  11.782 -0.0630  0.7215 -0.4082
  592MOL0     C81581  -1.021   5.149  11.852  0.5237  0.3037  0.3946
  592MOL0     O81582  -1.020   5.105  11.992  0.4824 -0.1085  0.7625
  592MOL0     C81583  -1.131   5.141  12.064  0.5282  0.7949 -0.1797
  592MOL0     C81584  -1.265   5.130  12.022  0.1922  0.5248  0.0249
  592MOL0     C81585  -1.366   5.181  12.104  0.2744 -0.2802 -0.0032
  592MOL0     C81586  -1.511   5.175  12.069  0.9410 -0.8214  0.4858
  592MOL0     C81587  -1.339   5.227  12.237 -0.1977 -0.1410  0.1888
  592MOL0     C81588  -1.430   5.270  12.343 -0.6882  0.4417 -1.2524
  592MOL0     O81589  -1.401   5.386  12.399 -0.1537 -0.0766 -0.7094
  592MOL0     C81590  -1.467   5.417  12.514  0.9789 -0.0562 -0.7185
  592MOL0     C81591  -1.421   5.365  12.636  0.8743 -0.5074  0.3258
  592MOL0     C81592  -1.492   5.396  12.753  0.3318 -0.0238  0.5048
  592MOL0     C81593  -1.597   5.478  12.745 -0.1076  0.3129 -0.1509
  592MOL0     O81594  -1.670   5.510  12.861 -0.4146  0.0082 -0.0075
  592MOL0     C81595  -1.809   5.490  12.855  0.1984  0.2416  0.3550
  592MOL0     C81596  -1.874   5.509  12.990  0.1817  0.0833 -0.8840
  592MOL0     C81597  -1.864   5.656  13.033 -0.2337 -0.1202 -0.4273
  592MOL0     C81598  -1.964   5.671  13.148 -1.0140  0.7694  0.2966
  592MOL0     C81599  -2.006   5.816  13.165 -0.4649 -0.0991 -0.3723
  592MOL0     C81600  -2.143   5.827  13.236 -0.5194 -0.4675 -0.2364
  592MOL0     C81601  -2.163   5.974  13.273  0.5717  0.3095  0.1675
  592MOL0     C81602  -2.301   5.988  13.343  0.6120 -0.1279  0.4876
  592MOL0    Cl81603  -2.298   5.909  13.503 -0.0141  0.6722 -0.3791
  592MOL0     C81604  -1.642   5.538  12.626  0.7937  0.5454  0.5365
  592MOL0     C81605  -1.568   5.512  12.510  0.8133  0.3083  0.6742
  592MOL0     O81606  -1.517   5.191  12.382 -0.2553  0.4803  0.0661
  592MOL0     C81607  -1.203   5.234  12.278  0.1976 -0.4064 -1.1356
  592MOL0     C81608  -1.105   5.186  12.193  0.0271  0.0392 -0.3339
  592MOL0     N81609  -0.682   5.510  12.038 -0.0653 -0.1134 -0.0238
  592MOL0     N81610  -0.566   5.571  12.037 -0.4810 -0.2538  1.1204
  592MOL0     C81611  -0.138   6.336  11.282 -0.9238 -0.9007 -0.6982
  592MOL0     C81612  -0.058   6.453  11.290 -0.2820 -0.4156 -0.1733
  592MOL0     C81613   0.216   6.774  11.125 -0.1261  0.1001 -0.5490
  592MOL0     C81614   0.298   6.803  11.237 -0.0902 -0.1587 -0.4027
  592MOL0     C81615   0.387   6.910  11.241  0.4903 -0.4810 -0.1081
  592MOL0     C81616   0.422   6.978  11.126 -0.5510 -1.0942 -0.0869
  592MOL0     O81617   0.514   7.081  11.134 -0.0616  0.3530 -0.4349
  592MOL0     C81618   0.530   7.169  11.020  0.9206  0.1277 -0.3342
  592MOL0     C81619   0.661   7.234  11.027 -0.1170 -0.4135 -0.0819
  592MOL0     C81620   0.665   7.346  10.919 -0.7390  0.1937 -0.0553
  592MOL0     C81621   0.774   7.443  10.952 -1.4356 -0.3503  0.2315
  592MOL0     C81622   0.764   7.556  10.856  0.2278  0.0932  0.1118
  592MOL0     C81623   0.741   7.642  10.780 -0.7221 -0.1863  0.8006
  592MOL0     C81624   0.337   6.951  11.020 -0.6301  0.0027 -0.0387
  592MOL0     C81625   0.235   6.849  11.005  0.4421 -0.0023 -0.4972
  592MOL0     C81626   0.152   6.848  10.874 -0.0795  0.5070  0.2301
  592MOL0     H81627   0.185   6.353  11.080 -1.0730  0.5261 -1.7064
  592MOL0     H81628   0.060   6.162  11.067 -1.8224 -0.4289 -1.2607
  592MOL0     H81629  -0.206   6.087  11.413  0.5757 -1.4002  0.8573
  592MOL0     H81630  -0.039   6.046  11.354  0.4655  2.5373  0.9733
  592MOL0     H81631  -0.306   5.905  11.300  0.2084  0.4111  2.7462
  592MOL0     H81632  -0.142   5.856  11.239 -0.9946  0.8829 -1.5046
  592MOL0     H81633  -0.064   5.843  11.484  0.6142  0.1812 -2.6104
  592MOL0     H81634  -0.228   5.901  11.528  1.3418  1.0517 -0.3396
  592MOL0     H81635  -0.284   5.690  11.370 -0.3509  0.1029 -0.3252
  592MOL0     H81636  -0.119   5.636  11.419 -1.5376 -0.4661 -0.7383
  592MOL0     H81637  -0.319   5.543  11.563  2.5013 -1.4415 -1.1938
  592MOL0     H81638  -0.358   5.709  11.587  0.3719  0.4983  4.8718
  592MOL0     H81639  -0.105   5.591  11.691  0.0314 -1.0143 -2.0558
  592MOL0     H81640  -0.152   5.751  11.717  0.2045 -0.7211  1.4258
  592MOL0     H81641  -0.194   5.606  11.916 -2.1851 -2.2447  3.7743
  592MOL0     H81642  -0.281   5.482  11.817 -0.3656  0.4388  1.9771
  592MOL0     H81643  -0.392   5.717  11.955  0.2531 -1.5104  1.3595
  592MOL0     H81644  -0.442   5.700  11.785 -2.3533 -0.9614 -0.2975
  592MOL0     H81645  -0.564   5.428  11.752  2.0001 -1.4476  1.3572
  592MOL0     H81646  -0.853   5.395  11.782 -0.9149 -0.3597  0.7107
  592MOL0     H81647  -0.895   5.383  11.947 -1.3609  2.1747 -2.4273
  592MOL0     H81648  -0.674   5.194  11.809  0.1321 -4.5760 -0.7125
  592MOL0     H81649  -0.763   5.165  11.961  0.3751 -2.0598 -1.6332
  592MOL0     H81650  -0.901   5.178  11.681  0.7291  0.5736 -0.5934
  592MOL0     H81651  -0.861   5.033  11.768  0.0553  1.0156 -2.8401
  592MOL0     H81652  -1.053   5.253  11.854 -1.0150 -0.1269 -0.2202
  592MOL0     H81653  -1.091   5.090  11.792 -0.3652 -1.0552  2.6218
  592MOL0     H81654  -1.306   5.103  11.925  0.7854  3.2179 -1.0657
  592MOL0     H81655  -1.580   5.228  12.135 -1.7229 -2.7373 -0.5577
  592MOL0     H81656  -1.544   5.070  12.066  0.5928 -0.7971  2.2987
  592MOL0     H81657  -1.535   5.235  11.981 -0.1415  2.7279  2.9826
  592MOL0     H81658  -1.335   5.299  12.634 -0.3708 -2.3556  2.3808
  592MOL0     H81659  -1.468   5.356  12.850  3.1788  0.1369 -0.0440
  592MOL0     H81660  -1.850   5.548  12.772 -0.3395 -2.5678 -1.4657
  592MOL0     H81661  -1.825   5.386  12.827  1.2804 -0.1270  1.0582
  592MOL0     H81662  -1.978   5.476  12.984  0.5918 -1.9950  1.7140
  592MOL0     H81663  -1.818   5.450  13.063  1.4349  4.5170  2.1164
  592MOL0     H81664  -1.882   5.733  12.958 -1.0167  0.5363  0.4185
  592MOL0     H81665  -1.761   5.666  13.070  0.8540  2.2978 -3.6175
  592MOL0     H81666  -1.925   5.616  13.235 -0.0684  2.9827  1.3381
  592MOL0     H81667  -2.055   5.617  13.122 -0.0180  0.7085 -3.6219
  592MOL0     H81668  -1.932   5.883  13.210 -0.0107 -1.5578  1.1309
  592MOL0     H81669  -2.016   5.850  13.061 -0.5528 -3.3252 -1.5341
  592MOL0     H81670  -2.133   5.770  13.328  0.3056 -0.7166 -0.4753
  592MOL0     H81671  -2.227   5.781  13.182 -0.4637 -1.8023  0.7739
  592MOL0     H81672  -2.165   6.020  13.173 -2.1272 -3.0738 -1.5542
  592MOL0     H81673  -2.082   6.017  13.333 -0.7431 -0.2069  2.4158
  592MOL0     H81674  -2.376   5.941  13.280  1.2631 -1.8186  0.9236
  592MOL0     H81675  -2.327   6.094  13.344 -2.1749 -0.6698 -2.1700
  592MOL0     H81676  -1.731   5.599  12.625  0.4914  0.1011 -0.0253
  592MOL0     H81677  -1.599   5.551  12.414 -3.0211  0.2258  1.7472
  592MOL0     H81678  -1.175   5.273  12.376  3.0909  1.0919 -2.4375
  592MOL0     H81679  -1.001   5.183  12.224  2.0422 -1.6411 -6.0092
  592MOL0     H81680  -0.240   6.330  11.319 -1.0453 -1.2943 -1.0779
  592MOL0     H81681  -0.106   6.539  11.335 -1.7784 -0.0521 -2.3555
  592MOL0     H81682   0.278   6.750  11.330  0.1837  1.0487  0.3725
  592MOL0     H81683   0.443   6.923  11.333 -0.4512 -0.5563  0.4810
  592MOL0     H81684   0.533   7.111  10.927 -0.2025 -1.0884  0.3554
  592MOL0     H81685   0.444   7.237  11.013 -0.1497 -1.2176 -0.7183
  592MOL0     H81686   0.748   7.170  11.012 -1.4036 -2.6317  1.4027
  592MOL0     H81687   0.672   7.280  11.126 -0.5412 -0.9752  0.2297
  592MOL0     H81688   0.690   7.304  10.822 -0.6314 -1.2220  0.5569
  592MOL0     H81689   0.565   7.390  10.913 -1.1808 -0.8352 -0.4996
  592MOL0     H81690   0.869   7.389  10.939 -0.3053  2.1039 -2.9701
  592MOL0     H81691   0.759   7.483  11.053  0.3882  1.3142 -0.0793
  592MOL0     H81692   0.735   7.702  10.691  0.4413 -0.2034  0.6993
  592MOL0     H81693   0.344   7.020  10.937 -2.4859  2.4079  1.6313
  592MOL0     H81694   0.188   6.769  10.808 -1.2208  0.9545 -0.9544
  592MOL0     H81695   0.047   6.832  10.902 -0.4667  1.6766 -0.4858
  592MOL0     H81696   0.161   6.943  10.822 -0.6041  0.4498  0.0298
  593MOL0     O81697   0.057   7.228   9.594  0.4184  0.1161 -0.0857
  593MOL0     C81698   0.156   7.182   9.647  0.1215 -0.1289  0.3639
  593MOL0     O81699   0.212   7.072   9.608 -0.1318 -0.3771 -0.3694
  593MOL0     C81700   0.170   7.014   9.490 -0.2742 -0.0031 -0.2924
  593MOL0     C81701   0.053   6.935   9.495  0.4318  0.7155 -0.3890
  593MOL0     C81702   0.005   6.866   9.389  0.4527  0.3897  0.6975
  593MOL0     C81703   0.073   6.878   9.267 -0.2079  0.9944 -0.4085
  593MOL0     O81704   0.039   6.798   9.158  0.0265  0.7199 -0.5193
  593MOL0     C81705  -0.082   6.832   9.102  0.0728 -1.0858 -0.1421
  593MOL0     C81706  -0.139   6.733   9.003  0.6143  0.3061  0.9731
  593MOL0     C81707  -0.150   6.595   9.054  1.1229  0.4169 -0.1576
  593MOL0     C81708  -0.187   6.495   8.946 -0.8484 -0.7006  0.6423
  593MOL0     C81709  -0.165   6.352   8.996 -0.4905 -0.0558  0.3922
  593MOL0     C81710  -0.235   6.245   8.911  0.1885 -0.4924 -0.5268
  593MOL0     C81711  -0.381   6.281   8.870  0.6117  0.2268 -0.0139
  593MOL0     C81712  -0.476   6.160   8.830 -1.1037  0.3652  0.2939
  593MOL0     N81713  -0.401   6.043   8.776 -1.4546  0.8982 -0.7612
  593MOL0     C81714  -0.389   5.917   8.850  0.0680 -0.0397  0.1115
  593MOL0     C81715  -0.330   5.836   8.765 -0.2829 -0.0377 -0.0421
  593MOL0     C81716  -0.269   5.707   8.782 -0.4478  0.0385 -0.9853
  593MOL0     C81717  -0.365   5.600   8.743 -0.3739 -0.4469  0.3520
  593MOL0     C81718  -0.293   5.468   8.724 -0.8121 -0.7815 -0.5498
  593MOL0     C81719  -0.387   5.350   8.726 -0.4235 -0.3082 -0.6358
  593MOL0     O81720  -0.314   5.233   8.707 -0.0060 -0.2409 -0.2894
  593MOL0     C81721  -0.248   5.177   8.816  0.8065 -0.3031  0.5944
  593MOL0     C81722  -0.233   5.233   8.943  0.6726  0.6570  0.4458
  593MOL0     C81723  -0.178   5.155   9.044 -0.3481 -0.4358  0.6887
  593MOL0     C81724  -0.166   5.219   9.177 -0.2192 -0.6762 -0.0018
  593MOL0     C81725  -0.139   5.019   9.027  0.3272  0.3039  0.0328
  593MOL0     C81726  -0.063   4.929   9.130 -0.8192  0.0114  0.1574
  593MOL0     O81727  -0.072   4.796   9.129  0.7669  0.0434  0.2796
  593MOL0     C81728  -0.023   4.741   9.239 -0.3700 -0.1368 -0.3949
  593MOL0     C81729  -0.072   4.750   9.368 -0.1665 -0.4288  0.3370
  593MOL0     C81730  -0.011   4.698   9.478 -0.0230  0.5849 -0.1768
  593MOL0     C81731   0.111   4.629   9.463 -0.3076 -0.3422 -0.5294
  593MOL0     O81732   0.177   4.603   9.582  0.7530 -0.4728 -0.6794
  593MOL0     C81733   0.316   4.553   9.561  0.0584  0.3343 -0.5938
  593MOL0     C81734   0.373   4.510   9.693  0.3196 -0.7574 -1.1272
  593MOL0     C81735   0.381   4.625   9.799 -0.8889 -0.4925 -0.6690
  593MOL0     C81736   0.500   4.714   9.768 -0.0390  0.8644  0.5461
  593MOL0     C81737   0.500   4.836   9.866 -0.3974  0.2074 -0.2583
  593MOL0     C81738   0.601   4.946   9.816 -0.1108  1.1691  0.2081
  593MOL0     C81739   0.629   5.064   9.918 -0.1343  0.5512  0.6016
  593MOL0     C81740   0.510   5.154   9.961  0.2516 -1.3841  0.3738
  593MOL0    Cl81741   0.509   5.305   9.864  0.4655  0.5080  0.2212
  593MOL0     C81742   0.164   4.613   9.334  0.9652 -0.1307 -0.4848
  593MOL0     C81743   0.096   4.668   9.225  1.1252  0.7538 -0.2768
  593MOL0     O81744   0.019   4.990   9.199 -0.5101 -0.5448 -0.0174
  593MOL0     C81745  -0.155   4.966   8.894  0.3908 -0.3637  0.5844
  593MOL0     C81746  -0.216   5.047   8.792 -0.2828  0.1269  0.5706
  593MOL0     N81747  -0.312   5.913   8.650 -0.0594  0.4726 -0.0860
  593MOL0     N81748  -0.356   6.030   8.654  0.2953  0.1310 -0.3455
  593MOL0     C81749   0.182   6.960   9.264  0.1570 -0.2525  0.3477
  593MOL0     C81750   0.247   7.015   9.376 -0.9900 -0.0487 -0.7335
  593MOL0     C81751   0.232   7.274   9.739  0.0925  0.6147 -0.2991
  593MOL0     C81752   0.155   7.371   9.803  0.7490 -0.5042 -0.2136
  593MOL0     C81753   0.207   7.450   9.913 -0.0948  0.7449  0.8692
  593MOL0     C81754   0.329   7.420   9.968  1.0591  0.0480 -0.2951
  593MOL0     O81755   0.381   7.480  10.083 -0.1290 -0.3133 -0.2612
  593MOL0     C81756   0.412   7.387  10.192 -0.4523 -0.4359  0.5221
  593MOL0     C81757   0.301   7.387  10.291 -0.5778  0.6938 -0.1994
  593MOL0     C81758   0.281   7.516  10.366  0.7019  0.2273  0.5185
  593MOL0     C81759   0.138   7.514  10.428  0.1827 -0.4827 -0.3156
  593MOL0     C81760   0.028   7.518  10.333 -0.8560 -0.4417 -0.5336
  593MOL0     C81761  -0.052   7.517  10.243  0.1654  0.1923 -0.5331
  593MOL0     C81762   0.410   7.326   9.895 -0.7322 -0.5672  0.7144
  593MOL0     C81763   0.368   7.252   9.776  0.0125 -0.6967  0.1748
  593MOL0     C81764   0.477   7.157   9.708 -0.2508  0.2168 -0.4747
  593MOL0     H81765   0.007   6.921   9.592  2.7769 -0.9809  0.5743
  593MOL0     H81766  -0.082   6.801   9.397 -0.4943  1.7128  1.5476
  593MOL0     H81767  -0.057   6.924   9.050 -0.4690  0.4983  2.2415
  593MOL0     H81768  -0.156   6.856   9.179 -0.9591 -0.9601 -1.1396
  593MOL0     H81769  -0.234   6.767   8.962  0.3917 -4.4807 -3.4701
  593MOL0     H81770  -0.065   6.719   8.924  0.2060  1.5766  0.3451
  593MOL0     H81771  -0.050   6.571   9.091  1.5147  2.4870  0.2748
  593MOL0     H81772  -0.223   6.587   9.135 -1.4310  0.4204 -2.3150
  593MOL0     H81773  -0.280   6.522   8.894  1.1403  0.5588 -2.5425
  593MOL0     H81774  -0.117   6.523   8.867  0.0025  0.4990  1.7627
  593MOL0     H81775  -0.210   6.342   9.095  0.4930  0.7921  0.9497
  593MOL0     H81776  -0.060   6.324   9.007 -0.1526  0.7980 -0.4407
  593MOL0     H81777  -0.175   6.241   8.820  0.7745 -0.1526 -0.1661
  593MOL0     H81778  -0.223   6.147   8.959  0.0810 -1.1337 -1.7791
  593MOL0     H81779  -0.369   6.341   8.779  2.8594 -1.6269 -1.0412
  593MOL0     H81780  -0.435   6.326   8.954 -1.3859 -0.3615 -0.9174
  593MOL0     H81781  -0.546   6.122   8.904 -4.5271  2.4863 -1.5763
  593MOL0     H81782  -0.544   6.194   8.752 -0.1840 -0.3756 -0.8795
  593MOL0     H81783  -0.396   5.896   8.956  4.5903 -1.9892  0.2590
  593MOL0     H81784  -0.229   5.691   8.883 -1.9904 -1.5418 -0.5711
  593MOL0     H81785  -0.181   5.703   8.717  0.2670  0.2028 -0.0443
  593MOL0     H81786  -0.444   5.588   8.817 -0.3435  2.0462  0.8779
  593MOL0     H81787  -0.423   5.631   8.655  1.0252 -0.5103 -0.6150
  593MOL0     H81788  -0.228   5.463   8.636 -0.0638  0.6585 -0.1120
  593MOL0     H81789  -0.215   5.455   8.800  0.5501 -0.8144 -1.9053
  593MOL0     H81790  -0.448   5.345   8.816 -2.2360 -1.5718 -1.8702
  593MOL0     H81791  -0.460   5.374   8.648 -0.8601  2.5839  0.5580
  593MOL0     H81792  -0.261   5.336   8.962  0.7287  0.9934 -1.1666
  593MOL0     H81793  -0.175   5.143   9.254  0.1469  1.3064  2.1018
  593MOL0     H81794  -0.241   5.297   9.194 -1.4851 -1.9586  0.4355
  593MOL0     H81795  -0.065   5.258   9.191 -1.0410  1.3215  0.7030
  593MOL0     H81796  -0.159   4.803   9.403  0.7403  0.3505  1.4737
  593MOL0     H81797  -0.053   4.726   9.574 -1.0314  1.7817 -0.9341
  593MOL0     H81798   0.313   4.465   9.496 -0.5981  0.4150 -0.6853
  593MOL0     H81799   0.372   4.637   9.520 -2.0982  1.8141 -0.6433
  593MOL0     H81800   0.313   4.428   9.733 -0.0546 -0.1942 -0.5263
  593MOL0     H81801   0.477   4.478   9.681  0.5137 -1.5868  2.0316
  593MOL0     H81802   0.412   4.583   9.895 -2.6407  2.3478  1.3085
  593MOL0     H81803   0.285   4.677   9.801 -0.7831 -0.3170  0.1925
  593MOL0     H81804   0.489   4.754   9.667 -3.0196  0.0381  0.4467
  593MOL0     H81805   0.598   4.664   9.770 -0.2041  0.5069 -0.1237
  593MOL0     H81806   0.403   4.885   9.855  0.8383  2.4116 -2.4650
  593MOL0     H81807   0.516   4.814   9.972 -3.9039  0.3893  0.4070
  593MOL0     H81808   0.560   4.987   9.723  0.3588 -1.7205 -1.3706
  593MOL0     H81809   0.699   4.901   9.805  1.0083  3.2702  0.9857
  593MOL0     H81810   0.714   5.117   9.873 -1.7024  2.1793 -0.6291
  593MOL0     H81811   0.654   5.012  10.010 -0.1865 -0.3767  0.1005
  593MOL0     H81812   0.520   5.178  10.068 -2.1200  0.2354  0.3064
  593MOL0     H81813   0.419   5.094   9.952 -0.1827 -1.0594  2.2030
  593MOL0     H81814   0.267   4.585   9.316  0.8715  0.9632 -3.0788
  593MOL0     H81815   0.137   4.643   9.128  0.3805 -1.1678 -0.1237
  593MOL0     H81816  -0.120   4.864   8.880  0.6992 -0.2951  0.8498
  593MOL0     H81817  -0.230   5.003   8.694 -0.5024 -0.8745  1.0350
  593MOL0     H81818   0.237   6.974   9.171 -2.5457 -0.4399 -1.3907
  593MOL0     H81819   0.340   7.068   9.360 -1.9506  1.9811  0.1128
  593MOL0     H81820   0.049   7.388   9.790  1.0863  0.8198 -1.4198
  593MOL0     H81821   0.148   7.531   9.955 -3.0826 -0.7929 -0.0428
  593MOL0     H81822   0.421   7.286  10.150  1.3102  0.1537 -0.5933
  593MOL0     H81823   0.504   7.405  10.247 -0.8384  0.7907  0.7917
  593MOL0     H81824   0.334   7.308  10.359  0.4286  2.7159  1.7603
  593MOL0     H81825   0.208   7.349  10.247 -0.5982 -0.4912  0.8167
  593MOL0     H81826   0.367   7.531  10.431  1.6701  0.7158 -0.8386
  593MOL0     H81827   0.290   7.611  10.312  3.0830  1.1303  2.3392
  593MOL0     H81828   0.124   7.601  10.492 -0.9373  0.0703 -1.2708
  593MOL0     H81829   0.137   7.420  10.483 -2.2001  0.7462  1.9666
  593MOL0     H81830  -0.118   7.516  10.159 -1.8920  1.0859  0.9836
  593MOL0     H81831   0.510   7.306   9.932 -1.0446 -0.2222  1.7662
  593MOL0     H81832   0.443   7.053   9.719 -0.3872  0.4251  1.4629
  593MOL0     H81833   0.490   7.162   9.600  0.5072  0.1250 -0.3910
  593MOL0     H81834   0.573   7.173   9.757 -0.0122  0.3321 -0.9779
  594MOL0     O81835   8.836   2.393   1.468 -0.6681  0.5845  0.5139
  594MOL0     C81836   8.955   2.415   1.447 -0.1304 -0.2457 -1.2754
  594MOL0     O81837   9.005   2.472   1.334  0.0223 -0.5156 -0.0210
  594MOL0     C81838   8.933   2.471   1.214 -0.1543  0.3230  0.2386
  594MOL0     C81839   8.964   2.572   1.126  0.4963  0.2839  0.3825
  594MOL0     C81840   8.901   2.570   0.995 -0.9036  0.2519 -1.3430
  594MOL0     C81841   8.813   2.471   0.951 -0.4817 -0.0611 -0.3096
  594MOL0     O81842   8.744   2.489   0.837  1.1421 -0.6137 -0.1691
  594MOL0     C81843   8.672   2.382   0.765  0.2810  0.0193  0.5188
  594MOL0     C81844   8.537   2.364   0.824 -0.5718 -0.2656 -0.9814
  594MOL0     C81845   8.477   2.231   0.789  0.7014  0.9500 -0.3930
  594MOL0     C81846   8.440   2.220   0.640 -0.7239 -0.2154 -0.4299
  594MOL0     C81847   8.297   2.171   0.601  0.6950 -0.0841  0.0615
  594MOL0     C81848   8.264   2.025   0.637 -0.2397 -0.0170  0.4191
  594MOL0     C81849   8.126   1.988   0.592  0.1951 -0.3126 -0.1067
  594MOL0     C81850   8.099   1.843   0.608 -0.4247  0.5139 -0.1026
  594MOL0     N81851   7.958   1.796   0.623 -0.9510 -1.1379  0.1106
  594MOL0     C81852   7.857   1.875   0.560 -0.2488  0.1624  1.1524
  594MOL0     C81853   7.745   1.836   0.619 -0.8517  0.3566 -0.7400
  594MOL0     C81854   7.612   1.887   0.595  0.5242 -0.5695 -0.0076
  594MOL0     C81855   7.504   1.781   0.605 -0.0383  0.5543  0.5739
  594MOL0     C81856   7.449   1.766   0.745  0.7653  0.1326  0.0683
  594MOL0     C81857   7.373   1.639   0.764 -0.2733  0.6925 -0.3707
  594MOL0     O81858   7.256   1.647   0.679  0.3350 -0.3668 -0.0751
  594MOL0     C81859   7.142   1.567   0.713  1.4148 -1.0342  0.5351
  594MOL0     C81860   7.030   1.583   0.629  1.2409 -0.3867  0.1980
  594MOL0     C81861   6.910   1.509   0.647 -0.1232  0.7369  0.0924
  594MOL0     C81862   6.798   1.538   0.542  0.3267 -0.0265  0.4813
  594MOL0     C81863   6.902   1.414   0.749  0.4794 -0.4101 -0.2223
  594MOL0     C81864   6.791   1.317   0.758  0.0841  0.2861 -0.1577
  594MOL0     O81865   6.822   1.196   0.807 -0.0791 -0.2299 -0.1418
  594MOL0     C81866   6.746   1.078   0.802  0.8061 -0.2554  0.4067
  594MOL0     C81867   6.785   0.968   0.893 -0.0771 -0.0072  0.6368
  594MOL0     C81868   6.716   0.850   0.894 -0.5044  0.3948 -0.3965
  594MOL0     C81869   6.596   0.837   0.818 -0.7019  0.1640 -0.3271
  594MOL0     O81870   6.515   0.727   0.836 -0.0072 -0.4656 -0.2401
  594MOL0     C81871   6.509   0.628   0.732  0.7776  0.0701  0.5656
  594MOL0     C81872   6.644   0.548   0.707  0.8042  0.2663  0.3177
  594MOL0     C81873   6.727   0.618   0.603  0.5665  0.6368  0.5099
  594MOL0     C81874   6.757   0.529   0.481  0.2649  0.4319  0.0261
  594MOL0     C81875   6.866   0.423   0.528  0.4025  0.5576 -0.0438
  594MOL0     C81876   6.881   0.292   0.438 -0.2385  0.5952  0.5444
  594MOL0     C81877   6.998   0.199   0.498 -0.3228  0.1276 -0.4881
  594MOL0     C81878   7.061   0.102   0.394  0.5834 -0.3158  0.4310
  594MOL0    Cl81879   6.945  -0.010   0.330 -0.0855 -0.1340 -0.1917
  594MOL0     C81880   6.565   0.932   0.725  0.2486  0.0365  0.5101
  594MOL0     C81881   6.633   1.051   0.719 -0.4441 -0.4683 -0.3857
  594MOL0     O81882   6.675   1.355   0.722 -0.6290  0.1947 -0.0397
  594MOL0     C81883   7.006   1.410   0.846  0.6496  0.1081 -0.3361
  594MOL0     C81884   7.127   1.484   0.827  0.2093 -0.4013 -0.8755
  594MOL0     N81885   7.777   1.742   0.719 -1.3258  0.0596  0.1886
  594MOL0     N81886   7.906   1.726   0.721  0.1491  0.8433 -0.5734
  594MOL0     C81887   8.796   2.364   1.039 -0.4308  0.3426  1.0263
  594MOL0     C81888   8.852   2.363   1.168 -0.0156  0.6657  1.0508
  594MOL0     C81889   9.036   2.376   1.567  0.6778 -0.3175  0.0684
  594MOL0     C81890   9.032   2.475   1.675 -0.3481  0.1331  1.0013
  594MOL0     C81891   9.108   2.440   1.784 -0.1444 -0.5325 -1.0739
  594MOL0     C81892   9.182   2.321   1.797 -0.3114  0.6465 -0.1352
  594MOL0     O81893   9.246   2.293   1.919 -0.3694  0.4012  0.1239
  594MOL0     C81894   9.381   2.236   1.898 -0.0319  0.1251  0.0053
  594MOL0     C81895   9.467   2.263   2.016  0.8890  0.8117 -0.2341
  594MOL0     C81896   9.506   2.407   2.043  0.1460 -0.5785 -0.2456
  594MOL0     C81897   9.617   2.397   2.149  1.1071 -0.1059 -0.8096
  594MOL0     C81898   9.641   2.520   2.220 -0.5868 -0.7234 -0.8266
  594MOL0     C81899   9.646   2.614   2.293  0.3075  0.2806 -0.2571
  594MOL0     C81900   9.179   2.236   1.690 -0.1101 -1.0544 -0.0151
  594MOL0     C81901   9.104   2.258   1.572 -0.5482  0.0750 -0.0988
  594MOL0     C81902   9.108   2.156   1.458 -0.0313 -0.1434 -0.0434
  594MOL0     H81903   9.035   2.647   1.161  1.3752 -1.0140  1.5159
  594MOL0     H81904   8.933   2.651   0.930  2.0828 -0.0670 -0.4243
  594MOL0     H81905   8.720   2.285   0.746 -1.4659 -1.0930  1.5576
  594MOL0     H81906   8.652   2.420   0.664 -2.0768  0.5806  1.1380
  594MOL0     H81907   8.539   2.374   0.933 -0.5484  0.3789 -1.0355
  594MOL0     H81908   8.471   2.443   0.787 -2.6371 -1.4238  0.0557
  594MOL0     H81909   8.535   2.143   0.817  1.6107  0.1615 -4.1634
  594MOL0     H81910   8.387   2.228   0.851 -0.7324  3.4953 -2.1417
  594MOL0     H81911   8.455   2.323   0.606 -1.2168  0.1454  0.4059
  594MOL0     H81912   8.506   2.154   0.583 -1.0363  0.5353 -1.6901
  594MOL0     H81913   8.300   2.174   0.492  0.8510  1.1826  0.0867
  594MOL0     H81914   8.215   2.228   0.645 -0.7988 -1.8400 -0.3149
  594MOL0     H81915   8.333   1.962   0.581  2.4151  2.5426  0.6165
  594MOL0     H81916   8.282   1.997   0.742 -2.6978 -0.0592  0.8889
  594MOL0     H81917   8.120   2.015   0.486  1.0301  0.0435 -0.0642
  594MOL0     H81918   8.048   2.040   0.649  0.7138  0.7926 -0.3843
  594MOL0     H81919   8.148   1.786   0.529 -1.0377  2.5339 -2.0181
  594MOL0     H81920   8.149   1.813   0.701  2.5399  1.1809 -1.3553
  594MOL0     H81921   7.884   1.933   0.472 -0.1706 -2.9428 -1.0092
  594MOL0     H81922   7.614   1.950   0.506  0.4016  3.8176  2.8211
  594MOL0     H81923   7.596   1.965   0.669 -0.9790  1.6587 -2.5211
  594MOL0     H81924   7.419   1.798   0.538 -1.1790 -1.4790  1.4038
  594MOL0     H81925   7.531   1.677   0.582 -0.4466  0.8878 -1.6471
  594MOL0     H81926   7.532   1.745   0.814  0.4785  0.4611  0.5195
  594MOL0     H81927   7.391   1.852   0.781  0.8143  0.8793 -1.5048
  594MOL0     H81928   7.439   1.557   0.734  1.4937  2.3700 -1.2025
  594MOL0     H81929   7.349   1.626   0.870  1.3777 -1.4167 -0.1930
  594MOL0     H81930   7.046   1.642   0.539 -2.5553 -0.3206 -0.5893
  594MOL0     H81931   6.839   1.583   0.451 -0.6564  0.6910  0.3784
  594MOL0     H81932   6.726   1.605   0.590  0.5957 -0.9694  2.3254
  594MOL0     H81933   6.750   1.443   0.519  1.8966 -0.8612  0.5143
  594MOL0     H81934   6.859   0.981   0.971  1.2923  1.4519 -0.8103
  594MOL0     H81935   6.755   0.769   0.954 -0.1647 -0.0095 -1.1481
  594MOL0     H81936   6.431   0.553   0.739  1.7513 -1.0066  0.1944
  594MOL0     H81937   6.479   0.687   0.644 -2.2926  0.0446  1.4795
  594MOL0     H81938   6.701   0.547   0.800  0.0667 -1.1546  0.7799
  594MOL0     H81939   6.619   0.445   0.679  3.7444  0.1170 -2.2495
  594MOL0     H81940   6.825   0.653   0.638  2.7272 -1.2002 -3.0002
  594MOL0     H81941   6.678   0.707   0.563  3.2988  2.4198  0.8052
  594MOL0     H81942   6.795   0.583   0.394 -0.7329  2.5815  0.8451
  594MOL0     H81943   6.670   0.471   0.448 -1.5417  1.3653  2.7782
  594MOL0     H81944   6.963   0.469   0.548  0.5692  2.0695 -3.6413
  594MOL0     H81945   6.831   0.383   0.624  2.6378 -1.4362  0.0134
  594MOL0     H81946   6.915   0.330   0.341 -1.7508  1.0888  0.1686
  594MOL0     H81947   6.785   0.240   0.430 -0.5428  1.3565 -1.1627
  594MOL0     H81948   6.979   0.141   0.589  2.6735  2.1258  1.6023
  594MOL0     H81949   7.078   0.260   0.541 -1.5452  0.5998  1.2764
  594MOL0     H81950   7.140   0.045   0.444  0.3549  0.3348  1.5736
  594MOL0     H81951   7.097   0.164   0.312  1.4407 -2.3055 -0.7954
  594MOL0     H81952   6.486   0.904   0.657 -0.3534  2.8907 -0.0955
  594MOL0     H81953   6.612   1.117   0.635 -3.2712 -0.4670  0.2340
  594MOL0     H81954   6.987   1.349   0.934 -0.2930 -1.1717 -1.3892
  594MOL0     H81955   7.200   1.489   0.907 -1.9671  1.0637  1.1758
  594MOL0     H81956   8.740   2.277   1.007  1.0357 -0.1387 -0.3425
  594MOL0     H81957   8.834   2.276   1.230 -3.5214  0.4469 -0.0594
  594MOL0     H81958   8.978   2.568   1.658 -2.6581 -1.3549 -0.4315
  594MOL0     H81959   9.117   2.504   1.871  0.6937 -0.7102 -1.0137
  594MOL0     H81960   9.386   2.129   1.874 -0.4008 -0.3489  1.9243
  594MOL0     H81961   9.422   2.293   1.814  0.3019  2.8745  1.9149
  594MOL0     H81962   9.561   2.206   2.020  0.6808  0.4912  0.2078
  594MOL0     H81963   9.411   2.233   2.105  2.1382 -0.2461  0.2297
  594MOL0     H81964   9.548   2.453   1.952 -1.5086  2.1494  0.2449
  594MOL0     H81965   9.417   2.462   2.076  0.9471  1.8365 -1.7718
  594MOL0     H81966   9.705   2.365   2.093  0.8986  0.0406 -1.2192
  594MOL0     H81967   9.598   2.316   2.221  0.5047  2.3049  1.9329
  594MOL0     H81968   9.639   2.699   2.359 -3.0097 -0.1000  0.0534
  594MOL0     H81969   9.247   2.151   1.687  1.9237  0.3084  2.6971
  594MOL0     H81970   9.158   2.199   1.370  1.8448  1.0087  1.4936
  594MOL0     H81971   9.157   2.065   1.493  0.5850 -0.0821 -0.7120
  594MOL0     H81972   9.005   2.132   1.430 -1.1832  1.6438  2.3096
  595MOL0     O81973   9.384   2.978  11.479 -1.3102 -0.6443 -0.5616
  595MOL0     C81974   9.360   3.042  11.374 -0.2183  0.2323  0.2066
  595MOL0     O81975   9.395   3.002  11.249  0.1308 -0.0448 -0.4423
  595MOL0     C81976   9.464   2.892  11.215 -0.5697  0.7912 -0.1160
  595MOL0     C81977   9.605   2.896  11.220 -0.3748 -0.0732  0.1058
  595MOL0     C81978   9.686   2.780  11.203 -0.2347 -0.5948 -0.2116
  595MOL0     C81979   9.619   2.663  11.187  0.2163 -0.1435  0.3617
  595MOL0     O81980   9.691   2.535  11.175 -0.1773 -0.3377  0.2195
  595MOL0     C81981   9.831   2.519  11.199  0.4083 -0.3267  0.7295
  595MOL0     C81982   9.868   2.373  11.211 -0.1166 -0.0849  0.1400
  595MOL0     C81983   9.830   2.295  11.083 -0.3581 -0.4363  0.4725
  595MOL0     C81984   9.881   2.160  11.091 -0.1433  0.3518  0.3974
  595MOL0     C81985   9.821   2.073  10.981 -0.3479  0.9701  0.0872
  595MOL0     C81986   9.667   2.058  10.985 -0.2024 -0.7415 -0.1354
  595MOL0     C81987   9.612   1.951  10.880  0.1040 -1.0282 -0.7201
  595MOL0     C81988   9.647   1.803  10.919 -0.1131  0.5659 -0.7023
  595MOL0     N81989   9.552   1.748  11.015 -0.3036  0.6142 -0.4197
  595MOL0     C81990   9.421   1.710  10.987 -0.5132 -0.5220 -0.3445
  595MOL0     C81991   9.370   1.708  11.118 -0.0318  0.5635  0.3818
  595MOL0     C81992   9.236   1.697  11.164 -0.3903  0.1225  0.5147
  595MOL0     C81993   9.145   1.649  11.040 -0.5718 -0.0521 -0.2951
  595MOL0     C81994   9.001   1.614  11.077  0.4016 -0.1288  0.2200
  595MOL0     C81995   8.925   1.597  10.952 -0.7296  0.9049 -0.2871
  595MOL0     O81996   8.788   1.585  10.981 -0.1938  0.2986  0.3766
  595MOL0     C81997   8.702   1.570  10.875 -1.0807  0.4462  0.1560
  595MOL0     C81998   8.736   1.531  10.744 -0.2648 -0.3179  0.5354
  595MOL0     C81999   8.639   1.515  10.651  0.9973  0.0379 -0.2789
  595MOL0     C82000   8.676   1.466  10.515 -0.7241  0.8392  0.6675
  595MOL0     C82001   8.504   1.541  10.690  0.3645  0.4321 -0.0927
  595MOL0     C82002   8.390   1.517  10.603 -0.4335  0.1453 -1.0929
  595MOL0     O82003   8.265   1.495  10.670  0.3407  0.3683  0.4545
  595MOL0     C82004   8.156   1.479  10.582  0.2546 -0.3372 -0.4112
  595MOL0     C82005   8.153   1.424  10.446 -0.3451  0.8034 -0.4445
  595MOL0     C82006   8.029   1.412  10.379 -0.6065  0.1367 -0.7425
  595MOL0     C82007   7.905   1.461  10.439 -0.6015 -0.1645 -0.5377
  595MOL0     O82008   7.780   1.455  10.376  0.2111 -0.3655 -0.0706
  595MOL0     C82009   7.768   1.387  10.255  0.2068  0.1411  0.3481
  595MOL0     C82010   7.619   1.367  10.252  0.5115  0.9028  0.0555
  595MOL0     C82011   7.575   1.295  10.129 -0.6680 -0.1365  0.1413
  595MOL0     C82012   7.577   1.387  10.002  0.7884 -0.3363  0.3870
  595MOL0     C82013   7.496   1.331   9.875  0.0431  0.4114  0.6206
  595MOL0     C82014   7.347   1.322   9.916  0.4103  0.5350 -0.3984
  595MOL0     C82015   7.267   1.302   9.786  0.1747  0.9029  0.2045
  595MOL0     C82016   7.117   1.330   9.802 -0.4573 -0.3766  0.1734
  595MOL0    Cl82017   7.046   1.191   9.890 -0.1882  0.1383  0.7060
  595MOL0     C82018   7.912   1.498  10.576  0.0078 -0.7230 -0.0414
  595MOL0     C82019   8.031   1.507  10.644  0.6489 -0.4469  0.4183
  595MOL0     O82020   8.403   1.536  10.485  0.4977 -0.5094 -0.0429
  595MOL0     C82021   8.470   1.593  10.815  0.5856 -0.4184  0.0971
  595MOL0     C82022   8.571   1.608  10.900 -0.0049  0.8684 -0.2628
  595MOL0     N82023   9.475   1.725  11.212  1.0059  0.2045  0.1127
  595MOL0     N82024   9.582   1.741  11.147  0.4228  0.5314 -1.2025
  595MOL0     C82025   9.476   2.655  11.182  0.1306 -1.6311  0.8326
  595MOL0     C82026   9.399   2.766  11.188 -0.5730 -1.1281 -0.5537
  595MOL0     C82027   9.278   3.164  11.381  0.2478  0.2661 -0.7084
  595MOL0     C82028   9.304   3.263  11.287 -0.0694 -0.2857 -0.9833
  595MOL0     C82029   9.243   3.383  11.299 -0.7062  0.3097 -0.5702
  595MOL0     C82030   9.149   3.402  11.401  1.5488 -1.0012  0.6350
  595MOL0     O82031   9.089   3.526  11.407  0.4926 -0.0706  0.6227
  595MOL0     C82032   8.980   3.563  11.497  0.7382 -0.1942  0.9846
  595MOL0     C82033   8.847   3.500  11.440  0.4452 -0.8491 -0.3231
  595MOL0     C82034   8.748   3.449  11.548 -0.0350 -0.9589 -0.5050
  595MOL0     C82035   8.608   3.426  11.504  0.2949 -0.2753 -0.1173
  595MOL0     C82036   8.609   3.344  11.381  0.0271 -0.0479  0.7004
  595MOL0     C82037   8.617   3.272  11.287  0.3931  0.2906 -0.4289
  595MOL0     C82038   9.104   3.295  11.478 -0.1220  0.8546  0.0208
  595MOL0     C82039   9.167   3.176  11.463  0.1963 -0.4131  0.6818
  595MOL0     C82040   9.122   3.057  11.552  1.0608 -0.6295 -0.6779
  595MOL0     H82041   9.641   2.996  11.240  2.5603 -0.2622 -3.2294
  595MOL0     H82042   9.793   2.764  11.209 -0.2519 -0.6785 -0.1025
  595MOL0     H82043   9.863   2.569  11.290 -0.5513 -1.7435  1.8930
  595MOL0     H82044   9.882   2.558  11.111 -0.5668 -4.2133 -1.8248
  595MOL0     H82045   9.975   2.395  11.216 -0.5017  1.7722  1.0567
  595MOL0     H82046   9.815   2.340  11.301 -1.3350  0.0571 -0.5162
  595MOL0     H82047   9.722   2.292  11.066 -0.8219 -4.2240  2.9577
  595MOL0     H82048   9.878   2.341  10.996  1.1062  0.6180  1.7891
  595MOL0     H82049   9.989   2.164  11.074 -0.6129  1.5366 -3.4769
  595MOL0     H82050   9.871   2.112  11.188  1.3654  0.8434  0.8323
  595MOL0     H82051   9.882   1.983  10.988  0.1253  1.3003  0.2333
  595MOL0     H82052   9.848   2.113  10.884  1.6991  1.7437  0.9360
  595MOL0     H82053   9.630   2.034  11.085  3.5016 -2.1828  1.0791
  595MOL0     H82054   9.610   2.149  10.962  0.1138  0.4337  3.1345
  595MOL0     H82055   9.654   1.980  10.784 -2.5961 -1.9232 -2.2846
  595MOL0     H82056   9.505   1.962  10.858 -0.0687  1.1592  0.8599
  595MOL0     H82057   9.643   1.734  10.834 -2.8824 -0.5462  0.2056
  595MOL0     H82058   9.749   1.799  10.958 -0.1910 -1.5938 -0.6280
  595MOL0     H82059   9.384   1.706  10.885  0.3476  2.2301 -0.8432
  595MOL0     H82060   9.205   1.796  11.199 -1.3262  0.6346 -1.6133
  595MOL0     H82061   9.226   1.622  11.244  2.7622 -1.7465 -0.6464
  595MOL0     H82062   9.154   1.732  10.969  0.7270  1.5306  1.5798
  595MOL0     H82063   9.188   1.565  10.984  0.7712  0.8234 -0.6473
  595MOL0     H82064   8.989   1.519  11.131 -0.8754  0.7481  1.5625
  595MOL0     H82065   8.963   1.688  11.148 -0.5459  0.3575 -0.7825
  595MOL0     H82066   8.950   1.665  10.871  1.2269 -0.3982 -0.8390
  595MOL0     H82067   8.963   1.502  10.912  3.9255  3.1816 -1.9919
  595MOL0     H82068   8.838   1.536  10.705 -0.3476  2.9675  0.4267
  595MOL0     H82069   8.676   1.550  10.446 -0.7778  0.2219 -0.1021
  595MOL0     H82070   8.607   1.390  10.476  0.3684 -0.7578  1.7013
  595MOL0     H82071   8.775   1.419  10.516 -1.6495 -1.5746 -2.6497
  595MOL0     H82072   8.236   1.370  10.402 -0.9397 -0.4352 -0.0757
  595MOL0     H82073   8.038   1.357  10.286  0.2765 -2.6818  0.8994
  595MOL0     H82074   7.801   1.452  10.173 -1.4387 -0.9838 -1.2662
  595MOL0     H82075   7.812   1.287  10.253 -1.6381 -0.7109 -1.7854
  595MOL0     H82076   7.590   1.310  10.340 -0.4943  1.7371  0.2865
  595MOL0     H82077   7.556   1.456  10.257 -0.6326  0.2041 -1.2461
  595MOL0     H82078   7.478   1.248  10.147 -0.8400  0.2590  0.2556
  595MOL0     H82079   7.644   1.214  10.104 -0.3534  0.1088  0.2109
  595MOL0     H82080   7.680   1.388   9.965  0.7183 -2.4075  0.0047
  595MOL0     H82081   7.527   1.483  10.016 -1.7630 -0.0220 -6.6373
  595MOL0     H82082   7.515   1.389   9.785  1.7098  0.2108  0.8080
  595MOL0     H82083   7.534   1.230   9.858  0.7854  0.9023 -0.8376
  595MOL0     H82084   7.316   1.420   9.953 -0.7971  0.2284 -0.5622
  595MOL0     H82085   7.327   1.237   9.982 -0.2948  0.8916 -0.1557
  595MOL0     H82086   7.285   1.202   9.744  1.4225  1.1023  0.2528
  595MOL0     H82087   7.310   1.371   9.714  0.5398 -1.2745 -1.7711
  595MOL0     H82088   7.078   1.345   9.701  0.5738  1.3397 -0.0013
  595MOL0     H82089   7.089   1.414   9.867 -1.8454 -0.5299 -0.1835
  595MOL0     H82090   7.817   1.539  10.609 -0.6995 -1.5272 -1.0009
  595MOL0     H82091   8.038   1.511  10.753 -0.7264  0.7374  0.5062
  595MOL0     H82092   8.366   1.609  10.841  1.6299  3.7484  2.7369
  595MOL0     H82093   8.542   1.625  11.003 -3.2654 -0.0892 -0.9036
  595MOL0     H82094   9.432   2.559  11.159 -1.2851 -0.3432 -2.4668
  595MOL0     H82095   9.292   2.769  11.200 -1.1840  1.5011 -4.6147
  595MOL0     H82096   9.367   3.258  11.198 -0.8819 -2.6170 -1.4906
  595MOL0     H82097   9.278   3.464  11.236 -0.4014 -1.3448 -2.6261
  595MOL0     H82098   9.004   3.530  11.599  1.4600  0.1014  0.9111
  595MOL0     H82099   8.978   3.671  11.510 -1.1693 -0.2454  1.4486
  595MOL0     H82100   8.875   3.421  11.370 -0.1025 -0.1461 -1.3512
  595MOL0     H82101   8.802   3.580  11.380  2.0552  1.4037  1.2875
  595MOL0     H82102   8.792   3.354  11.579  1.0986  0.0224  1.0811
  595MOL0     H82103   8.745   3.517  11.633 -0.4690 -1.3312 -0.2199
  595MOL0     H82104   8.556   3.518  11.475 -0.6197  0.1120  2.4928
  595MOL0     H82105   8.554   3.365  11.577  1.1464 -0.5094  0.3309
  595MOL0     H82106   8.648   3.202  11.212  1.3629  0.2376  0.0104
  595MOL0     H82107   9.022   3.306  11.548 -1.3546 -0.8578 -1.0838
  595MOL0     H82108   9.140   2.956  11.516 -2.8306 -2.3804  1.5872
  595MOL0     H82109   9.150   3.075  11.657  0.0418  1.6526 -0.7348
  595MOL0     H82110   9.012   3.055  11.559  1.0127  1.3695 -0.1640
  596MOL0     O82111  11.204   8.748   8.172  0.3057  0.8159 -0.1305
  596MOL0     C82112  11.316   8.708   8.203  0.2803 -0.0049 -0.0353
  596MOL0     O82113  11.373   8.592   8.156  0.3975  0.1394  0.1264
  596MOL0     C82114  11.301   8.508   8.076  0.6859  0.1389  0.6068
  596MOL0     C82115  11.293   8.375   8.104  0.3018  0.7054  0.2325
  596MOL0     C82116  11.220   8.286   8.024 -0.1512  0.3743 -0.5282
  596MOL0     C82117  11.157   8.330   7.910  0.8684  0.2933  0.1357
  596MOL0     O82118  11.081   8.247   7.825  0.0975  0.3982  0.2225
  596MOL0     C82119  11.038   8.117   7.864 -0.9379 -0.5669  0.2997
  596MOL0     C82120  10.939   8.078   7.756 -0.3954  0.5956  0.1449
  596MOL0     C82121  10.866   7.945   7.796 -0.5591 -1.2725 -0.3793
  596MOL0     C82122  10.748   7.921   7.690 -0.5405 -0.7053 -0.4143
  596MOL0     C82123  10.712   7.763   7.687 -0.0285  0.0653 -0.8453
  596MOL0     C82124  10.601   7.747   7.580  0.1549 -0.5775 -0.6009
  596MOL0     C82125  10.542   7.602   7.582 -0.3235 -0.4460 -0.7084
  596MOL0     C82126  10.599   7.505   7.483 -0.5771  0.3421  0.0109
  596MOL0     N82127  10.738   7.476   7.518 -1.0253  0.3194  0.8447
  596MOL0     C82128  10.848   7.493   7.438  0.6921  1.2730  0.9547
  596MOL0     C82129  10.954   7.438   7.492  0.8470 -0.0982 -0.2225
  596MOL0     C82130  11.101   7.422   7.442  0.6633  0.6124  0.4390
  596MOL0     C82131  11.164   7.562   7.393 -0.0576  0.5009 -0.2048
  596MOL0     C82132  11.214   7.643   7.513 -0.2723  0.4522 -0.3166
  596MOL0     C82133  11.247   7.787   7.466 -0.0675 -0.3564 -0.5446
  596MOL0     O82134  11.242   7.878   7.583  0.0341 -0.6654  0.3283
  596MOL0     C82135  11.344   7.961   7.608 -0.4813  0.1764  0.1317
  596MOL0     C82136  11.474   7.916   7.627 -0.5413 -0.6988  0.6698
  596MOL0     C82137  11.585   7.996   7.644  0.1775 -0.0204  0.5944
  596MOL0     C82138  11.718   7.926   7.660  0.1592 -0.0826 -0.2524
  596MOL0     C82139  11.561   8.138   7.645 -0.1954  0.0116 -0.0413
  596MOL0     C82140  11.660   8.242   7.668 -1.2866  0.5146  0.3466
  596MOL0     O82141  11.620   8.366   7.719 -0.0538 -0.3406 -0.4534
  596MOL0     C82142  11.702   8.455   7.791 -0.6410  0.3835  1.2389
  596MOL0     C82143  11.642   8.508   7.906 -1.2247 -1.2145  0.4356
  596MOL0     C82144  11.710   8.606   7.985 -0.2898  0.0937 -0.7633
  596MOL0     C82145  11.841   8.644   7.942 -0.6210 -1.0804  0.7288
  596MOL0     O82146  11.911   8.750   7.989 -0.4859  0.0546  0.1072
  596MOL0     C82147  11.908   8.778   8.130  0.0649 -0.5385 -0.4005
  596MOL0     C82148  11.995   8.665   8.203  0.1726 -0.3166  1.1220
  596MOL0     C82149  12.012   8.694   8.350  0.0577  0.4461 -0.1152
  596MOL0     C82150  12.043   8.568   8.438  0.5558 -0.5647 -0.2013
  596MOL0     C82151  12.178   8.507   8.387  0.2390  0.7237 -0.4803
  596MOL0     C82152  12.219   8.372   8.460 -0.1968 -0.3419  0.2451
  596MOL0     C82153  12.347   8.309   8.411  0.4905  0.5507  0.8224
  596MOL0     C82154  12.465   8.401   8.409 -0.8612  0.1557 -0.0941
  596MOL0    Cl82155  12.603   8.292   8.351  0.5466 -0.0613 -0.3890
  596MOL0     C82156  11.900   8.571   7.831  1.0773 -0.8675 -0.9102
  596MOL0     C82157  11.833   8.480   7.761  1.1154 -0.0890  0.0873
  596MOL0     O82158  11.781   8.219   7.631  0.5837 -0.5274  0.0897
  596MOL0     C82159  11.429   8.179   7.635 -0.0416  0.6883  0.3430
  596MOL0     C82160  11.319   8.095   7.619  0.6074  0.2288 -0.9117
  596MOL0     N82161  10.912   7.400   7.621  0.5102  0.1161  0.1061
  596MOL0     N82162  10.781   7.420   7.631 -0.0719 -0.5246 -0.4956
  596MOL0     C82163  11.166   8.461   7.869 -0.5955  0.2391  0.2974
  596MOL0     C82164  11.248   8.547   7.951 -0.7112 -0.2421 -0.6746
  596MOL0     C82165  11.393   8.800   8.289 -0.0519 -0.4885  0.3616
  596MOL0     C82166  11.397   8.934   8.267 -0.3126  0.6919 -0.1415
  596MOL0     C82167  11.487   9.011   8.335 -0.2332  0.3334 -0.0613
  596MOL0     C82168  11.575   8.960   8.427 -0.8709 -0.5344 -0.0350
  596MOL0     O82169  11.657   9.052   8.492 -0.0828 -0.4464 -0.2073
  596MOL0     C82170  11.774   9.012   8.566 -0.3012 -0.1068 -0.0175
  596MOL0     C82171  11.885   9.119   8.563  0.2120  0.2532 -0.1384
  596MOL0     C82172  11.912   9.172   8.421 -0.9082 -0.4806 -0.5656
  596MOL0     C82173  11.991   9.307   8.434 -0.2495 -0.3493 -0.3488
  596MOL0     C82174  12.114   9.295   8.509 -0.3590 -0.2597 -0.9036
  596MOL0     C82175  12.217   9.278   8.571  0.5885 -1.1246 -0.0956
  596MOL0     C82176  11.559   8.823   8.454  0.0887 -0.0570  0.3598
  596MOL0     C82177  11.474   8.736   8.385 -0.6604 -0.2814  0.1386
  596MOL0     C82178  11.473   8.599   8.428 -0.2331 -0.1628  0.4081
  596MOL0     H82179  11.347   8.335   8.189  1.8113 -2.4833 -2.0271
  596MOL0     H82180  11.222   8.179   8.042 -1.8534  0.0552 -1.9404
  596MOL0     H82181  10.980   8.137   7.955 -1.7523 -2.4377  0.2327
  596MOL0     H82182  11.126   8.055   7.885  0.1492  1.4478  2.1616
  596MOL0     H82183  10.871   8.163   7.742  1.4650  2.8310  3.3564
  596MOL0     H82184  10.984   8.059   7.658 -0.3029  2.4228 -0.1999
  596MOL0     H82185  10.935   7.861   7.804 -0.8932 -1.5483 -0.3798
  596MOL0     H82186  10.829   7.969   7.896 -0.2991  2.2076 -0.9955
  596MOL0     H82187  10.660   7.979   7.717 -1.1018 -1.6973 -0.0684
  596MOL0     H82188  10.783   7.953   7.592 -2.1471 -3.5149 -2.0393
  596MOL0     H82189  10.668   7.730   7.782 -2.0099  1.2855 -1.2693
  596MOL0     H82190  10.791   7.692   7.661  0.1906  0.7784 -2.1940
  596MOL0     H82191  10.525   7.816   7.618  1.6573  2.0989 -2.1849
  596MOL0     H82192  10.638   7.770   7.480 -2.4967 -0.7068 -1.7150
  596MOL0     H82193  10.435   7.612   7.560 -0.3976 -0.1064 -0.2048
  596MOL0     H82194  10.545   7.569   7.686 -0.3359  1.8801  0.1027
  596MOL0     H82195  10.536   7.418   7.504  0.2686  0.6029  4.4099
  596MOL0     H82196  10.596   7.534   7.377  2.7998  0.1664 -0.2395
  596MOL0     H82197  10.859   7.550   7.347  2.6367 -2.2609 -1.2590
  596MOL0     H82198  11.088   7.359   7.353 -0.0892  2.4144 -0.7906
  596MOL0     H82199  11.162   7.374   7.519 -2.1957 -0.9967  1.8304
  596MOL0     H82200  11.237   7.543   7.314 -0.7117 -3.0494 -0.1134
  596MOL0     H82201  11.089   7.615   7.334  0.2077  0.7858 -0.2906
  596MOL0     H82202  11.141   7.649   7.595 -2.7080 -1.2667 -2.1888
  596MOL0     H82203  11.302   7.603   7.564 -2.0899  0.0703  2.7939
  596MOL0     H82204  11.350   7.796   7.431  0.5220  0.1519  1.1813
  596MOL0     H82205  11.170   7.807   7.392 -0.3235 -1.3132 -0.5534
  596MOL0     H82206  11.489   7.808   7.626 -1.3682 -0.8197  0.4118
  596MOL0     H82207  11.744   7.880   7.564  2.8443 -0.4311  0.5533
  596MOL0     H82208  11.702   7.844   7.731 -0.5530 -0.7701 -1.1872
  596MOL0     H82209  11.806   7.982   7.694  2.0111 -0.5395 -3.7644
  596MOL0     H82210  11.540   8.486   7.934 -2.3900  1.6105 -1.1468
  596MOL0     H82211  11.661   8.652   8.070 -1.2427 -2.7611  0.3323
  596MOL0     H82212  11.951   8.879   8.134 -4.2507  1.6744 -2.9511
  596MOL0     H82213  11.807   8.784   8.170  0.5437 -2.0299  1.0984
  596MOL0     H82214  11.941   8.569   8.198  1.2982 -0.9836  1.4143
  596MOL0     H82215  12.091   8.657   8.153 -1.1489 -0.9879 -1.4945
  596MOL0     H82216  11.918   8.731   8.394  0.0379 -0.0460  0.2742
  596MOL0     H82217  12.082   8.777   8.358  0.0263  0.5464 -0.8188
  596MOL0     H82218  11.970   8.493   8.406  0.2281  0.9358 -3.3150
  596MOL0     H82219  12.039   8.587   8.546  0.2580 -0.3886 -0.2415
  596MOL0     H82220  12.178   8.488   8.279  0.8278  3.1505 -0.9738
  596MOL0     H82221  12.249   8.588   8.405 -2.8823  3.3833  0.9069
  596MOL0     H82222  12.138   8.301   8.439 -0.3977 -0.4156  1.1974
  596MOL0     H82223  12.215   8.388   8.569 -0.9605 -0.2948  0.2146
  596MOL0     H82224  12.339   8.269   8.310  1.5702  1.8750  0.1774
  596MOL0     H82225  12.372   8.220   8.469  2.9757 -1.2959 -2.6935
  596MOL0     H82226  12.474   8.451   8.506  0.9142  1.3914 -0.8484
  596MOL0     H82227  12.447   8.485   8.341  0.2323  2.6608  2.4743
  596MOL0     H82228  12.006   8.582   7.811  1.0601 -0.1250 -0.6120
  596MOL0     H82229  11.886   8.438   7.676 -1.3446 -1.7056 -0.7698
  596MOL0     H82230  11.414   8.286   7.641 -1.4037  0.4723  1.1550
  596MOL0     H82231  11.217   8.131   7.613  0.5339 -0.2114 -3.8598
  596MOL0     H82232  11.104   8.506   7.792 -1.9015  2.4067  2.5015
  596MOL0     H82233  11.276   8.646   7.916 -0.6482 -0.7203 -2.0708
  596MOL0     H82234  11.334   8.988   8.196 -0.5297 -0.5036 -0.8758
  596MOL0     H82235  11.498   9.112   8.297  2.2081 -1.0837 -3.6813
  596MOL0     H82236  11.753   8.977   8.668  0.0255 -3.3952 -0.9415
  596MOL0     H82237  11.817   8.923   8.518  0.3193  0.7505 -1.0850
  596MOL0     H82238  11.976   9.073   8.603  1.3603  3.2391  0.9573
  596MOL0     H82239  11.852   9.199   8.631  0.0666 -1.4304  1.8780
  596MOL0     H82240  11.963   9.095   8.362  0.6955  1.5106 -1.9186
  596MOL0     H82241  11.821   9.207   8.371  0.1647  1.4923 -1.2442
  596MOL0     H82242  11.939   9.390   8.481  2.2726  0.6362  0.9174
  596MOL0     H82243  12.018   9.348   8.336  2.4089  1.7763  1.1130
  596MOL0     H82244  12.310   9.272   8.623  0.9998  4.0010  0.2748
  596MOL0     H82245  11.610   8.780   8.540  2.3181 -0.1366 -0.9308
  596MOL0     H82246  11.493   8.581   8.534  0.4989 -0.6439  0.2028
  596MOL0     H82247  11.373   8.560   8.409 -0.3667  1.4341 -2.9291
  596MOL0     H82248  11.553   8.558   8.366 -2.0219 -2.8420 -0.2890
  597MOL0     O82249   2.242   4.981   3.342  0.4838  0.2375  0.0553
  597MOL0     C82250   2.148   4.933   3.284 -0.1908  0.2462  0.2996
  597MOL0     O82251   2.150   4.895   3.155 -0.3462 -0.0816  0.1763
  597MOL0     C82252   2.272   4.863   3.098 -0.9436 -0.4866 -0.4406
  597MOL0     C82253   2.376   4.784   3.157  0.0394 -0.1556  0.3956
  597MOL0     C82254   2.496   4.778   3.092 -0.4867  0.3770  0.1009
  597MOL0     C82255   2.526   4.847   2.982 -0.8622  1.2673 -0.0687
  597MOL0     O82256   2.646   4.812   2.916 -0.1947 -0.0425 -0.3002
  597MOL0     C82257   2.750   4.880   2.983 -0.4025 -1.0916 -0.0948
  597MOL0     C82258   2.833   4.940   2.868  0.2349 -0.3818 -0.4680
  597MOL0     C82259   2.848   5.094   2.870 -0.7575  0.2755  0.3181
  597MOL0     C82260   2.928   5.137   2.992  0.4448 -0.1752 -0.4840
  597MOL0     C82261   3.007   5.273   2.964 -0.8224  0.0891  0.9909
  597MOL0     C82262   3.059   5.331   3.096  0.7812 -0.3829  0.1558
  597MOL0     C82263   3.143   5.463   3.089 -0.2137  0.6367 -0.1578
  597MOL0     C82264   3.078   5.591   3.034  0.3876  0.3292 -0.0223
  597MOL0     N82265   2.967   5.654   3.118 -0.9892 -0.2182  0.4374
  597MOL0     C82266   2.852   5.595   3.157 -0.5400 -0.2174 -0.0372
  597MOL0     C82267   2.784   5.700   3.209  0.1771  0.4510  0.5444
  597MOL0     C82268   2.638   5.685   3.226  0.1915  1.0096  0.4842
  597MOL0     C82269   2.562   5.811   3.174  0.6625 -0.3277 -0.3532
  597MOL0     C82270   2.532   5.834   3.028 -0.0452 -0.7003 -0.9755
  597MOL0     C82271   2.447   5.952   2.993  0.6225 -0.4873 -0.7135
  597MOL0     O82272   2.439   6.048   3.088 -0.5452 -1.2576 -0.2522
  597MOL0     C82273   2.551   6.130   3.098  0.1362  0.0601  0.2963
  597MOL0     C82274   2.544   6.234   3.187  0.4101 -0.1509 -0.0354
  597MOL0     C82275   2.636   6.344   3.187 -0.1226  0.4400  0.9465
  597MOL0     C82276   2.608   6.453   3.290  0.3033 -0.1307  0.0904
  597MOL0     C82277   2.743   6.342   3.095 -0.5507  0.0085 -0.2934
  597MOL0     C82278   2.846   6.448   3.083 -0.1758  0.1439  0.6913
  597MOL0     O82279   2.910   6.447   2.970 -0.3504  0.0099  0.1237
  597MOL0     C82280   2.980   6.561   2.938  0.0843 -0.2129  0.4732
  597MOL0     C82281   2.931   6.665   2.847  1.0426  1.1230  0.9712
  597MOL0     C82282   3.011   6.780   2.835  0.5431 -0.2932 -0.2640
  597MOL0     C82283   3.128   6.803   2.904  0.1675  0.2160 -0.2428
  597MOL0     O82284   3.184   6.922   2.886  0.3013  0.4502  0.3365
  597MOL0     C82285   3.328   6.922   2.900  0.3125 -0.7494 -0.6476
  597MOL0     C82286   3.399   7.032   2.817 -0.1586  0.4413 -0.7031
  597MOL0     C82287   3.539   7.081   2.875  0.7517  0.7806  0.0970
  597MOL0     C82288   3.599   7.208   2.810 -0.4248 -0.5563  0.4571
  597MOL0     C82289   3.724   7.265   2.883  0.0970  0.3921 -0.1016
  597MOL0     C82290   3.840   7.162   2.888 -0.1194 -0.5205 -0.8397
  597MOL0     C82291   3.966   7.246   2.911 -1.5602 -0.4016 -0.4629
  597MOL0     C82292   4.092   7.153   2.917  0.4237 -0.9660  0.3826
  597MOL0    Cl82293   4.123   7.123   2.747  0.0105  0.0742  0.0509
  597MOL0     C82294   3.175   6.697   2.989  0.5691 -0.0968  0.2736
  597MOL0     C82295   3.103   6.576   2.998 -0.0250  0.6930  0.4500
  597MOL0     O82296   2.855   6.536   3.173  0.3462 -0.2064 -0.3039
  597MOL0     C82297   2.746   6.233   3.002 -0.2277 -0.8789 -0.1933
  597MOL0     C82298   2.651   6.135   2.997  0.1422  0.5721  0.0875
  597MOL0     N82299   2.858   5.816   3.204  0.7621 -0.4471  0.3025
  597MOL0     N82300   2.969   5.785   3.147  0.3161 -1.1967  0.7705
  597MOL0     C82301   2.419   4.914   2.916  0.5846 -0.0616 -0.7797
  597MOL0     C82302   2.296   4.932   2.980  0.0853  0.0167 -0.2041
  597MOL0     C82303   2.026   4.915   3.361  0.7693 -0.0628  0.2145
  597MOL0     C82304   1.905   4.911   3.285 -1.0518 -0.1766  0.4475
  597MOL0     C82305   1.779   4.910   3.353 -0.4622  0.0706  0.1691
  597MOL0     C82306   1.770   4.899   3.490  0.6113 -0.0518 -0.3227
  597MOL0     O82307   1.644   4.878   3.535 -0.3739  0.4751 -0.1812
  597MOL0     C82308   1.617   4.963   3.655 -0.0632  0.2337  0.1768
  597MOL0     C82309   1.598   4.871   3.775  0.0382 -0.2794 -0.7691
  597MOL0     C82310   1.557   4.939   3.905  0.2692 -1.3487 -0.6934
  597MOL0     C82311   1.408   4.986   3.916  0.7262  0.3170 -0.0231
  597MOL0     C82312   1.394   5.127   3.885 -0.3135 -0.2291 -0.2267
  597MOL0     C82313   1.392   5.244   3.856 -1.0844 -0.0656  0.8297
  597MOL0     C82314   1.889   4.897   3.564  0.1184 -0.1098 -0.3779
  597MOL0     C82315   2.015   4.914   3.502 -0.2871 -0.1091 -0.7061
  597MOL0     C82316   2.131   4.928   3.594  0.3519 -0.0258  0.4232
  597MOL0     H82317   2.374   4.732   3.252 -0.0853 -4.4926 -1.7177
  597MOL0     H82318   2.573   4.716   3.138 -1.8899 -0.8386  0.8744
  597MOL0     H82319   2.817   4.810   3.033 -1.3322 -0.5995  1.9462
  597MOL0     H82320   2.714   4.953   3.056  0.4975  0.3563 -1.0464
  597MOL0     H82321   2.934   4.898   2.878  0.5421 -0.1410 -2.1781
  597MOL0     H82322   2.790   4.919   2.769 -3.4745  0.1072  0.8776
  597MOL0     H82323   2.912   5.122   2.785  1.8642 -1.1149  1.7148
  597MOL0     H82324   2.751   5.145   2.869 -1.0163 -0.1170  1.9895
  597MOL0     H82325   2.873   5.144   3.086  0.5938  0.1244 -0.4194
  597MOL0     H82326   3.011   5.066   3.002  1.2975  1.0174  1.6216
  597MOL0     H82327   2.939   5.345   2.917  0.3887  0.3959 -0.3597
  597MOL0     H82328   3.088   5.251   2.894 -0.8490  2.7524  0.0095
  597MOL0     H82329   2.979   5.337   3.170  0.6156  0.5964 -0.0979
  597MOL0     H82330   3.129   5.257   3.137 -0.8645 -1.0767  1.8714
  597MOL0     H82331   3.235   5.444   3.034  1.6610  1.2605  2.5526
  597MOL0     H82332   3.184   5.476   3.190 -1.9673 -2.3116  1.0856
  597MOL0     H82333   3.167   5.655   3.028  2.0313 -1.8052  0.4363
  597MOL0     H82334   3.029   5.569   2.939 -0.5888  0.7998  0.3503
  597MOL0     H82335   2.810   5.498   3.132  1.3878 -1.1075 -0.0698
  597MOL0     H82336   2.620   5.677   3.334 -0.8679  0.6951  0.2938
  597MOL0     H82337   2.613   5.592   3.175  1.6089  1.6704 -1.5293
  597MOL0     H82338   2.470   5.819   3.232  0.6872 -0.8297 -0.2422
  597MOL0     H82339   2.626   5.893   3.206  1.9624 -1.5140  0.2018
  597MOL0     H82340   2.629   5.852   2.982 -0.7037  1.4504 -1.6539
  597MOL0     H82341   2.484   5.744   2.988  0.1443 -0.3476 -2.0380
  597MOL0     H82342   2.463   5.983   2.890 -2.7229 -1.2748 -1.5980
  597MOL0     H82343   2.351   5.900   2.990  0.0022  0.5053  0.7736
  597MOL0     H82344   2.453   6.241   3.247 -2.1683  1.9010 -3.7480
  597MOL0     H82345   2.638   6.553   3.259 -2.6166  0.6955 -0.3630
  597MOL0     H82346   2.667   6.429   3.379  4.0373  0.5121 -2.0412
  597MOL0     H82347   2.504   6.459   3.325  0.8134  2.0109  1.4048
  597MOL0     H82348   2.842   6.632   2.795  0.6777  1.2478  1.5210
  597MOL0     H82349   2.992   6.868   2.773  1.2693 -0.5067 -0.7992
  597MOL0     H82350   3.345   6.952   3.004  0.4268  0.2996 -0.9584
  597MOL0     H82351   3.377   6.825   2.884 -1.0192 -2.6470  4.6876
  597MOL0     H82352   3.408   6.995   2.715 -1.3756  1.5899 -1.2595
  597MOL0     H82353   3.343   7.126   2.808 -0.3788  0.1987 -1.9231
  597MOL0     H82354   3.611   6.999   2.881  1.0211  0.9433 -0.8485
  597MOL0     H82355   3.527   7.107   2.981 -1.2754  2.7541 -0.5218
  597MOL0     H82356   3.514   7.278   2.816  1.4192  1.7117  1.8802
  597MOL0     H82357   3.619   7.193   2.704  0.9887 -1.1254  0.7851
  597MOL0     H82358   3.750   7.351   2.821 -1.7530  0.1104 -1.3700
  597MOL0     H82359   3.693   7.289   2.986  0.4112  0.6311 -0.0628
  597MOL0     H82360   3.841   7.122   2.787 -1.6644 -2.1850 -0.2470
  597MOL0     H82361   3.829   7.085   2.964 -0.1179  1.5802  1.4391
  597MOL0     H82362   3.965   7.314   2.996 -5.0001  0.0122 -0.6940
  597MOL0     H82363   3.980   7.322   2.833 -1.8332 -0.1045 -0.2216
  597MOL0     H82364   4.077   7.054   2.962  1.8356 -1.1632  0.4586
  597MOL0     H82365   4.168   7.204   2.977 -2.1892 -0.5460  3.6096
  597MOL0     H82366   3.269   6.696   3.043  1.0274 -0.3562 -0.5131
  597MOL0     H82367   3.155   6.499   3.055  0.1596 -0.6446 -1.4157
  597MOL0     H82368   2.821   6.235   2.924  1.3980  0.9040  1.3227
  597MOL0     H82369   2.654   6.064   2.915  0.6134 -2.0068  2.1689
  597MOL0     H82370   2.437   4.974   2.827  4.5228  2.6354  1.5270
  597MOL0     H82371   2.211   4.979   2.931  0.9734 -1.5101 -3.4385
  597MOL0     H82372   1.889   4.911   3.178 -0.3691  1.7884  0.3004
  597MOL0     H82373   1.692   4.906   3.288  1.2217 -2.3622 -2.1791
  597MOL0     H82374   1.691   5.040   3.678 -1.0925  0.9703  1.1076
  597MOL0     H82375   1.525   5.019   3.641  1.2910  2.3494 -0.8991
  597MOL0     H82376   1.692   4.821   3.799 -0.8739 -0.9314  1.7896
  597MOL0     H82377   1.530   4.790   3.745 -0.3197 -1.0814  1.9230
  597MOL0     H82378   1.561   4.863   3.983 -1.2842 -2.3539 -1.5328
  597MOL0     H82379   1.625   5.020   3.934 -2.0935  0.1163  1.1758
  597MOL0     H82380   1.371   4.965   4.016  0.4174  2.0629  0.2547
  597MOL0     H82381   1.351   4.919   3.851  0.9571 -1.9882  1.9829
  597MOL0     H82382   1.400   5.349   3.835 -4.0995  0.0284 -0.2549
  597MOL0     H82383   1.886   4.891   3.672 -0.4806 -1.3691 -0.4478
  597MOL0     H82384   2.199   4.848   3.565  0.3888  0.5596 -1.2551
  597MOL0     H82385   2.177   5.027   3.585 -0.4384  0.2192 -1.6143
  597MOL0     H82386   2.101   4.910   3.697  3.4709 -1.2400  1.2083
  598MOL0     O82387   3.814   4.100   0.516  0.0233  0.4641  0.5028
  598MOL0     C82388   3.847   4.157   0.626  0.3082  0.3435  0.2909
  598MOL0     O82389   3.756   4.158   0.734 -0.6201  0.6768  0.1418
  598MOL0     C82390   3.656   4.064   0.746 -0.5022  0.1092 -0.7615
  598MOL0     C82391   3.666   3.927   0.705 -0.4171 -0.3736  0.1151
  598MOL0     C82392   3.562   3.842   0.739 -1.2210  0.8910 -1.0972
  598MOL0     C82393   3.458   3.879   0.820  0.1484  0.6143 -0.3535
  598MOL0     O82394   3.375   3.779   0.854  0.3699 -0.2711  0.1482
  598MOL0     C82395   3.259   3.811   0.923 -0.6150  0.0446  0.5101
  598MOL0     C82396   3.169   3.689   0.937 -0.5239 -0.2069  0.8146
  598MOL0     C82397   3.130   3.637   0.788 -0.0872 -0.7453  0.5965
  598MOL0     C82398   3.184   3.495   0.792 -0.1660 -0.1089 -0.0546
  598MOL0     C82399   3.145   3.430   0.660 -0.0745  0.2412 -0.0863
  598MOL0     C82400   3.238   3.471   0.546 -0.2539  0.5476 -0.5571
  598MOL0     C82401   3.231   3.375   0.430 -0.3203 -0.0392  0.0719
  598MOL0     C82402   3.327   3.417   0.322 -0.7401 -0.6715  0.3874
  598MOL0     N82403   3.311   3.332   0.202  0.5235 -0.1620  0.4685
  598MOL0     C82404   3.205   3.340   0.109 -0.7262 -0.8528 -0.4523
  598MOL0     C82405   3.226   3.234   0.031 -0.1455  0.2705 -0.5284
  598MOL0     C82406   3.152   3.196  -0.091 -0.0057 -0.5462 -0.5206
  598MOL0     C82407   3.024   3.112  -0.056  0.4829  0.4872  0.6004
  598MOL0     C82408   3.037   2.959  -0.067  0.5679 -0.1197 -0.4951
  598MOL0     C82409   2.929   2.891   0.016 -0.4479  0.2474  0.0052
  598MOL0     O82410   2.809   2.934  -0.043  0.4971 -0.2098  0.2560
  598MOL0     C82411   2.689   2.913   0.023 -0.0030  0.6142 -0.2755
  598MOL0     C82412   2.574   2.977  -0.024 -0.1694  0.4165 -0.2653
  598MOL0     C82413   2.450   2.991   0.052  0.3864  0.2750  0.7933
  598MOL0     C82414   2.349   3.073  -0.019  0.0843  0.5176 -0.4163
  598MOL0     C82415   2.442   2.922   0.178 -0.9738  0.0076  0.0148
  598MOL0     C82416   2.317   2.923   0.264  0.7013 -0.0234  0.1730
  598MOL0     O82417   2.304   2.836   0.376 -0.3282  0.4025  0.2063
  598MOL0     C82418   2.189   2.800   0.437  0.9481 -0.2587  1.1605
  598MOL0     C82419   2.062   2.785   0.378 -0.7551 -0.4432 -0.1171
  598MOL0     C82420   1.948   2.763   0.462  0.5076 -0.5308  0.1532
  598MOL0     C82421   1.968   2.731   0.591  0.9085 -0.8900 -0.1477
  598MOL0     O82422   1.866   2.692   0.676  0.5249 -0.5278 -0.6676
  598MOL0     C82423   1.733   2.664   0.620 -0.9571  0.5352 -0.5666
  598MOL0     C82424   1.647   2.583   0.718 -0.1083 -1.0960  0.2067
  598MOL0     C82425   1.592   2.660   0.834 -1.0932 -0.3932 -1.2263
  598MOL0     C82426   1.515   2.558   0.918  0.0532 -0.8148 -0.1435
  598MOL0     C82427   1.407   2.627   1.006 -0.1924  0.0988 -0.1278
  598MOL0     C82428   1.486   2.701   1.124 -1.0218  0.1464 -0.4013
  598MOL0     C82429   1.387   2.746   1.234  0.0443 -0.1202  1.5540
  598MOL0     C82430   1.466   2.816   1.344  0.8780  1.1471  0.0479
  598MOL0    Cl82431   1.346   2.819   1.478 -0.1268  0.1787  0.0437
  598MOL0     C82432   2.094   2.739   0.646  0.1171 -0.6135 -0.2547
  598MOL0     C82433   2.206   2.778   0.573 -0.2266 -0.2990  0.5070
  598MOL0     O82434   2.230   2.990   0.221  1.1614  0.2029 -0.4771
  598MOL0     C82435   2.560   2.851   0.224 -0.2261  0.1014  0.5102
  598MOL0     C82436   2.680   2.852   0.146  0.5921  0.5264  0.2146
  598MOL0     N82437   3.337   3.163   0.074  0.0078  0.5001  0.2064
  598MOL0     N82438   3.377   3.214   0.181 -0.0671 -0.1829  0.0985
  598MOL0     C82439   3.455   4.014   0.863 -0.0363 -0.2119  0.6523
  598MOL0     C82440   3.557   4.100   0.832  0.3988 -0.6651 -0.5231
  598MOL0     C82441   3.953   4.270   0.611  0.5377 -0.1630 -0.1672
  598MOL0     C82442   3.938   4.379   0.704  0.6384 -0.2601 -1.1469
  598MOL0     C82443   4.025   4.492   0.701  1.2155  0.3234  0.8745
  598MOL0     C82444   4.136   4.493   0.613  0.0352  0.0199  0.4077
  598MOL0     O82445   4.228   4.591   0.632 -0.4755 -1.0468 -0.2022
  598MOL0     C82446   4.311   4.633   0.528  0.9720 -0.1472  0.6807
  598MOL0     C82447   4.430   4.703   0.606 -0.0233  0.1496  0.0041
  598MOL0     C82448   4.378   4.840   0.669  0.5922 -0.7521  0.0021
  598MOL0     C82449   4.494   4.945   0.701  1.0331  0.7689  0.9823
  598MOL0     C82450   4.561   4.991   0.583  0.2862 -1.3191 -0.7214
  598MOL0     C82451   4.611   5.015   0.472  0.1907  0.2686  0.1311
  598MOL0     C82452   4.160   4.379   0.532 -0.4777  0.6716 -0.3172
  598MOL0     C82453   4.071   4.263   0.534  0.2550  0.4820 -0.4766
  598MOL0     C82454   4.115   4.144   0.456  0.0899 -0.2465 -0.1351
  598MOL0     H82455   3.753   3.893   0.650 -0.6446  0.0009 -0.4813
  598MOL0     H82456   3.579   3.738   0.713  2.2117  1.3216 -0.9506
  598MOL0     H82457   3.204   3.883   0.861 -0.2125  2.0639  2.3526
  598MOL0     H82458   3.279   3.853   1.022  1.5535 -0.4125  0.3001
  598MOL0     H82459   3.233   3.623   0.997  1.8032 -1.0426 -2.3360
  598MOL0     H82460   3.076   3.711   0.990 -0.3778 -0.5224  1.2070
  598MOL0     H82461   3.022   3.632   0.772  0.1538 -0.8026 -1.1885
  598MOL0     H82462   3.180   3.697   0.712  3.1185 -2.5175  1.1284
  598MOL0     H82463   3.293   3.499   0.804 -0.2155  0.6367  0.1795
  598MOL0     H82464   3.139   3.436   0.872  0.0908  1.0379  0.9757
  598MOL0     H82465   3.038   3.447   0.644 -0.3572 -1.1693  0.0878
  598MOL0     H82466   3.165   3.322   0.668  4.1121  0.7602 -1.2375
  598MOL0     H82467   3.212   3.574   0.520  0.1423  0.7901 -0.0152
  598MOL0     H82468   3.341   3.471   0.584  0.1745 -4.0708 -1.1515
  598MOL0     H82469   3.129   3.369   0.392  0.2208 -1.5066 -1.2744
  598MOL0     H82470   3.259   3.273   0.457 -0.9760  0.0997  1.3234
  598MOL0     H82471   3.309   3.520   0.290 -2.5395 -1.9696 -3.4339
  598MOL0     H82472   3.429   3.418   0.361 -0.4664  0.3482 -0.2885
  598MOL0     H82473   3.133   3.421   0.112 -0.0245 -0.2607  1.0386
  598MOL0     H82474   3.220   3.128  -0.144 -0.2755 -2.1104  1.0305
  598MOL0     H82475   3.121   3.279  -0.154 -3.0094  0.0742  1.5633
  598MOL0     H82476   2.998   3.148   0.044  0.5180  1.8614  0.1317
  598MOL0     H82477   2.942   3.146  -0.120  0.8074 -0.9763 -0.6522
  598MOL0     H82478   3.033   2.934  -0.174 -1.2620  1.0810 -0.7499
  598MOL0     H82479   3.135   2.926  -0.031  1.5845  1.6195 -1.5424
  598MOL0     H82480   2.949   2.784   0.007  2.6765  0.9247 -5.1945
  598MOL0     H82481   2.924   2.924   0.121  0.1675 -0.2301  0.1873
  598MOL0     H82482   2.596   3.024  -0.119  5.0537  1.1173  0.9981
  598MOL0     H82483   2.310   3.142   0.056 -1.1520 -0.3013 -0.2663
  598MOL0     H82484   2.272   3.000  -0.047 -0.1574  0.3570  0.6239
  598MOL0     H82485   2.393   3.130  -0.102 -0.7056  1.1815 -0.3926
  598MOL0     H82486   2.051   2.794   0.270 -5.3413  0.7195  0.2343
  598MOL0     H82487   1.854   2.780   0.411 -0.8078  3.1683  3.3034
  598MOL0     H82488   1.682   2.752   0.580  0.2959  2.2889  1.5240
  598MOL0     H82489   1.750   2.606   0.529  2.0424  1.3643 -0.6388
  598MOL0     H82490   1.565   2.533   0.665  1.1194 -2.6920 -0.2640
  598MOL0     H82491   1.709   2.503   0.759  0.1124 -0.9923  0.0707
  598MOL0     H82492   1.534   2.749   0.805  2.1488  2.4761  0.3594
  598MOL0     H82493   1.675   2.697   0.895 -1.0714 -1.2847 -0.6970
  598MOL0     H82494   1.588   2.510   0.983  0.6613 -2.2504 -1.8026
  598MOL0     H82495   1.473   2.472   0.864 -3.2072 -0.5383  1.7048
  598MOL0     H82496   1.350   2.702   0.952  1.9238  1.3824 -0.7179
  598MOL0     H82497   1.333   2.554   1.040  0.9035  0.0350  2.3387
  598MOL0     H82498   1.559   2.775   1.090  1.5925 -2.2625 -0.4173
  598MOL0     H82499   1.551   2.623   1.165 -1.2070  0.1377 -0.1195
  598MOL0     H82500   1.340   2.657   1.277 -1.2993  1.3649  3.3177
  598MOL0     H82501   1.307   2.814   1.203  1.6271  1.9441  1.8351
  598MOL0     H82502   1.490   2.916   1.308 -0.8756  1.9400  0.9466
  598MOL0     H82503   1.553   2.752   1.362 -0.6226 -0.8649  0.4869
  598MOL0     H82504   2.123   2.736   0.751  0.5945  0.2108 -0.3496
  598MOL0     H82505   2.292   2.806   0.632 -1.4521 -0.7808  2.6258
  598MOL0     H82506   2.555   2.799   0.319 -0.3360  0.0301  0.4659
  598MOL0     H82507   2.766   2.818   0.203  0.4552 -0.1963 -0.0021
  598MOL0     H82508   3.373   4.056   0.921 -2.0922 -1.3775 -1.2691
  598MOL0     H82509   3.559   4.201   0.873 -1.3201  0.1429 -2.3190
  598MOL0     H82510   3.853   4.370   0.770 -1.2672 -1.0710 -3.5234
  598MOL0     H82511   4.029   4.571   0.774 -3.4054  0.9393  0.7308
  598MOL0     H82512   4.339   4.558   0.454 -1.6008 -0.8991  0.3508
  598MOL0     H82513   4.246   4.702   0.474 -0.7840 -0.5170  2.1894
  598MOL0     H82514   4.512   4.721   0.536 -0.5784 -1.0006 -0.9838
  598MOL0     H82515   4.470   4.634   0.681 -0.1044  1.6807  1.5039
  598MOL0     H82516   4.306   4.885   0.600 -0.4452 -1.6661  0.4599
  598MOL0     H82517   4.315   4.815   0.754 -1.7333 -0.5147 -1.5576
  598MOL0     H82518   4.573   4.901   0.762 -0.7956 -1.5627  1.8417
  598MOL0     H82519   4.446   5.031   0.750 -1.0629  1.4291 -1.9332
  598MOL0     H82520   4.649   5.027   0.373  1.9980 -0.1379  0.7307
  598MOL0     H82521   4.253   4.369   0.479 -1.1291 -1.9909 -1.1111
  598MOL0     H82522   4.070   4.144   0.356  0.3117  1.7535 -0.2742
  598MOL0     H82523   4.224   4.152   0.454  0.0442  0.3646 -0.6596
  598MOL0     H82524   4.088   4.057   0.516 -1.8880  0.7650  0.5251
  599MOL0     O82525   3.831   6.388   8.043 -0.2061  0.3273  0.2889
  599MOL0     C82526   3.874   6.469   7.958 -0.4792  0.0756  0.4550
  599MOL0     O82527   4.010   6.501   7.932  0.4966 -0.7032  0.1134
  599MOL0     C82528   4.101   6.398   7.966  0.5193 -1.1650 -0.3431
  599MOL0     C82529   4.167   6.396   8.088 -0.3731 -0.0281 -0.7660
  599MOL0     C82530   4.257   6.295   8.123  0.1702  0.6241 -0.1045
  599MOL0     C82531   4.284   6.189   8.031  0.1738 -0.6098  1.0967
  599MOL0     O82532   4.374   6.094   8.065 -0.2529 -0.2927  0.3204
  599MOL0     C82533   4.465   6.032   7.969  0.0963 -0.0590  0.0787
  599MOL0     C82534   4.545   5.927   8.045 -0.6295  0.4372  0.1183
  599MOL0     C82535   4.635   5.993   8.156  0.4799  0.4734 -0.6141
  599MOL0     C82536   4.670   5.898   8.276  0.0502  0.2071 -0.0536
  599MOL0     C82537   4.758   5.961   8.382  0.0198 -0.1338  0.8852
  599MOL0     C82538   4.784   5.860   8.496  0.1909 -0.1854 -0.8017
  599MOL0     C82539   4.861   5.901   8.623  0.3146 -0.3165  0.8070
  599MOL0     C82540   5.004   5.939   8.595  0.3325  0.2112 -0.2253
  599MOL0     N82541   5.066   6.019   8.707  0.4759  0.1041  1.4724
  599MOL0     C82542   5.050   5.988   8.839  0.0611  0.7295  0.5772
  599MOL0     C82543   5.096   6.093   8.911  0.3195  0.1577 -0.1717
  599MOL0     C82544   5.108   6.122   9.064 -0.2548  0.9756  0.1891
  599MOL0     C82545   5.253   6.098   9.120 -0.2761  1.0922 -0.0575
  599MOL0     C82546   5.254   6.109   9.273 -0.0189  0.4311  0.3768
  599MOL0     C82547   5.376   6.059   9.355  0.2233 -0.5865 -0.0743
  599MOL0     O82548   5.463   6.169   9.376 -0.2165  0.8327 -0.6914
  599MOL0     C82549   5.599   6.153   9.393 -0.7384  0.1393  0.2082
  599MOL0     C82550   5.670   6.271   9.375  0.4215  0.5496  0.4697
  599MOL0     C82551   5.813   6.273   9.385 -0.3935  0.7927  0.5132
  599MOL0     C82552   5.877   6.403   9.375 -0.1636 -0.0096  0.2950
  599MOL0     C82553   5.875   6.148   9.388  0.0463 -0.5963 -0.6718
  599MOL0     C82554   6.021   6.124   9.397  0.0409  0.1021  0.4195
  599MOL0     O82555   6.066   6.008   9.328 -0.2187 -0.2845  0.3395
  599MOL0     C82556   6.204   5.981   9.344  0.3998 -0.3984 -0.4426
  599MOL0     C82557   6.291   5.980   9.238 -0.4052  1.1114  0.1093
  599MOL0     C82558   6.428   5.946   9.262  0.3630 -0.3746  0.2973
  599MOL0     C82559   6.471   5.907   9.392 -0.9731  0.3583 -1.2918
  599MOL0     O82560   6.610   5.897   9.405  0.0482  0.0149 -0.2255
  599MOL0     C82561   6.650   5.792   9.501  0.1050  0.2528 -0.2532
  599MOL0     C82562   6.791   5.784   9.533 -0.6516 -0.8305 -0.2681
  599MOL0     C82563   6.856   5.917   9.583  0.3161  0.2979 -0.7912
  599MOL0     C82564   6.910   5.890   9.727 -0.2947  0.7571  0.9107
  599MOL0     C82565   6.792   5.876   9.828  0.5902  0.1026  0.2754
  599MOL0     C82566   6.838   5.829   9.972 -0.1310 -1.4589 -0.1410
  599MOL0     C82567   6.916   5.939  10.028  0.0752  0.0758  0.2022
  599MOL0     C82568   6.905   5.923  10.181  0.3350  0.0296 -0.8247
  599MOL0    Cl82569   6.740   5.950  10.237  0.2416  0.0072 -0.0456
  599MOL0     C82570   6.383   5.904   9.504 -0.6462  0.9955 -0.2673
  599MOL0     C82571   6.245   5.930   9.472 -0.2600 -0.3931  0.6071
  599MOL0     O82572   6.091   6.203   9.459 -0.2316 -0.3792  0.2934
  599MOL0     C82573   5.804   6.028   9.410  0.0634 -0.1581 -0.2659
  599MOL0     C82574   5.667   6.031   9.421  0.1028  0.2006 -0.2243
  599MOL0     N82575   5.146   6.180   8.818 -0.6151 -0.4380 -0.8881
  599MOL0     N82576   5.139   6.133   8.696 -0.4703 -0.0149  0.1338
  599MOL0     C82577   4.219   6.196   7.903 -0.0114  0.5853 -0.5884
  599MOL0     C82578   4.131   6.304   7.868  0.2491  0.2372  0.1404
  599MOL0     C82579   3.773   6.546   7.876 -0.0936  0.1433 -0.4938
  599MOL0     C82580   3.776   6.688   7.881 -0.4825 -0.3314 -0.8225
  599MOL0     C82581   3.684   6.774   7.819  0.6015 -0.1017  0.4591
  599MOL0     C82582   3.596   6.711   7.721  0.4832  0.3201 -1.4855
  599MOL0     O82583   3.519   6.786   7.634  0.0222  0.3108  0.5488
  599MOL0     C82584   3.563   6.909   7.606 -1.0865 -0.4811  0.0163
  599MOL0     C82585   3.481   6.970   7.490  0.4464  0.3526 -0.7955
  599MOL0     C82586   3.538   7.110   7.451 -0.2819 -0.4748  0.5834
  599MOL0     C82587   3.442   7.176   7.360 -0.5386  0.4630 -0.7738
  599MOL0     C82588   3.514   7.264   7.260  0.3584  0.6700  0.5269
  599MOL0     C82589   3.572   7.332   7.177 -0.7124 -0.7105 -0.6103
  599MOL0     C82590   3.582   6.566   7.726 -0.0681  0.4035  0.8402
  599MOL0     C82591   3.672   6.488   7.802 -0.0567  0.6569 -1.4065
  599MOL0     C82592   3.658   6.335   7.809 -0.1703 -0.6477 -0.2849
  599MOL0     H82593   4.150   6.463   8.171  4.3639 -0.5418  0.9350
  599MOL0     H82594   4.322   6.291   8.209  1.9066  1.1628 -1.3344
  599MOL0     H82595   4.529   6.105   7.917 -2.7627  2.5506 -0.0937
  599MOL0     H82596   4.418   5.973   7.890 -0.3112  1.8221 -1.1408
  599MOL0     H82597   4.463   5.868   8.086 -0.7228  1.1211  0.9412
  599MOL0     H82598   4.604   5.868   7.975 -1.8351 -0.5190 -0.1368
  599MOL0     H82599   4.722   6.030   8.101  0.8596  0.1797 -0.2237
  599MOL0     H82600   4.583   6.073   8.209 -0.8137 -0.7318  0.0110
  599MOL0     H82601   4.584   5.861   8.332 -0.3147 -1.1057 -1.4191
  599MOL0     H82602   4.725   5.812   8.237 -1.2480 -0.2814 -0.8834
  599MOL0     H82603   4.718   6.052   8.429  2.0255  0.5612  1.3845
  599MOL0     H82604   4.849   5.999   8.334  0.4225 -0.5528  1.3119
  599MOL0     H82605   4.685   5.825   8.526  0.2586  0.4298  0.1637
  599MOL0     H82606   4.837   5.772   8.458 -0.2292 -0.3375 -1.0376
  599MOL0     H82607   4.858   5.812   8.686  0.0703 -0.1698  0.9995
  599MOL0     H82608   4.807   5.979   8.677 -3.7990 -2.1830 -0.2435
  599MOL0     H82609   5.058   5.849   8.565 -0.1598 -0.0366 -0.3926
  599MOL0     H82610   5.013   6.002   8.506 -1.1178  1.9380  0.7933
  599MOL0     H82611   5.000   5.898   8.874 -0.3871  1.2180  1.2285
  599MOL0     H82612   5.030   6.064   9.114 -1.3566 -0.9130 -3.4073
  599MOL0     H82613   5.088   6.228   9.081  1.9102  1.3536  0.6479
  599MOL0     H82614   5.294   6.005   9.081  0.6693  1.2805  0.4555
  599MOL0     H82615   5.327   6.173   9.090  1.8951 -0.0013  2.1967
  599MOL0     H82616   5.229   6.215   9.287 -2.2288 -0.0839  0.6751
  599MOL0     H82617   5.161   6.057   9.297  0.5800 -1.1034 -0.5026
  599MOL0     H82618   5.336   6.004   9.441 -1.4177 -0.6838 -0.8527
  599MOL0     H82619   5.431   5.985   9.297  1.7415 -0.0507  0.6372
  599MOL0     H82620   5.623   6.367   9.353 -1.1630 -0.5153 -1.0488
  599MOL0     H82621   5.939   6.428   9.462 -0.2667 -0.4591  0.4987
  599MOL0     H82622   5.797   6.478   9.367 -1.3120 -1.2612 -0.2993
  599MOL0     H82623   5.936   6.404   9.283  0.5852 -2.3499  0.6839
  599MOL0     H82624   6.268   6.015   9.138 -1.4525  0.9180  0.2689
  599MOL0     H82625   6.497   5.958   9.179  0.9491 -0.7697  0.7280
  599MOL0     H82626   6.619   5.821   9.602  1.8310  1.4597 -0.0164
  599MOL0     H82627   6.612   5.697   9.462  2.2191 -0.8373  0.2244
  599MOL0     H82628   6.805   5.716   9.617  0.5960 -0.4403 -0.1402
  599MOL0     H82629   6.852   5.749   9.450  1.9624 -3.5795  2.5548
  599MOL0     H82630   6.773   5.988   9.596  0.4569  0.1456  1.2179
  599MOL0     H82631   6.924   5.957   9.507 -0.0896  1.1526 -0.7256
  599MOL0     H82632   6.978   5.966   9.767 -0.8199  2.0395 -0.4938
  599MOL0     H82633   6.973   5.801   9.730  0.2935  1.1409  0.2856
  599MOL0     H82634   6.732   5.967   9.838  1.4253  0.7862 -0.7258
  599MOL0     H82635   6.718   5.802   9.793  0.6311  0.6740 -1.0708
  599MOL0     H82636   6.895   5.737   9.960 -0.6597 -1.7385 -0.5614
  599MOL0     H82637   6.750   5.802  10.031  0.3042 -1.6876  0.4084
  599MOL0     H82638   6.876   6.038  10.003 -2.4080 -0.6998  0.7745
  599MOL0     H82639   7.022   5.935  10.003  0.3144  1.5949  0.9050
  599MOL0     H82640   6.977   5.993  10.226 -1.8192  1.4508  0.5760
  599MOL0     H82641   6.931   5.828  10.228 -1.3323  0.4559  1.1013
  599MOL0     H82642   6.399   5.869   9.606 -2.6502 -2.2089 -0.9091
  599MOL0     H82643   6.177   5.930   9.557  1.4731  2.1615  2.1418
  599MOL0     H82644   5.862   5.939   9.432 -0.0004 -0.0080  0.5427
  599MOL0     H82645   5.618   5.937   9.445 -0.3072  0.8085  1.4583
  599MOL0     H82646   4.231   6.106   7.844  0.3635 -1.4477  2.3852
  599MOL0     H82647   4.074   6.304   7.776 -2.2523 -1.2566  1.5997
  599MOL0     H82648   3.862   6.714   7.941  0.6231 -3.4569 -0.8578
  599MOL0     H82649   3.694   6.880   7.838 -0.6005 -0.2529  2.1695
  599MOL0     H82650   3.556   6.973   7.695  0.7845  2.0894 -1.5379
  599MOL0     H82651   3.672   6.907   7.591 -0.7570  4.4726  0.1622
  599MOL0     H82652   3.372   6.979   7.500 -0.1893 -1.9776 -4.0356
  599MOL0     H82653   3.498   6.908   7.402 -0.7145 -0.2977 -0.5840
  599MOL0     H82654   3.549   7.172   7.540 -0.3748 -0.9345  0.9201
  599MOL0     H82655   3.637   7.095   7.409  0.0995  3.8401 -0.5342
  599MOL0     H82656   3.375   7.239   7.420 -0.2489  0.5663 -0.5558
  599MOL0     H82657   3.383   7.107   7.299  0.5578 -2.4155  1.1766
  599MOL0     H82658   3.621   7.393   7.103 -1.4650  1.0830  0.2951
  599MOL0     H82659   3.511   6.516   7.661  0.7724  0.6781 -0.3490
  599MOL0     H82660   3.575   6.326   7.879  0.5008  0.8813  0.7469
  599MOL0     H82661   3.630   6.303   7.708 -0.8340  0.8074 -0.5991
  599MOL0     H82662   3.760   6.300   7.825  1.4432  1.6069 -4.0346
  600MOL0     O82663   7.894   4.258   5.373  0.0089 -0.6726 -0.1948
  600MOL0     C82664   7.804   4.251   5.452 -0.3685 -0.5464 -0.6318
  600MOL0     O82665   7.707   4.155   5.446 -0.1165 -0.7009 -0.1925
  600MOL0     C82666   7.720   4.062   5.349 -0.7727  0.4330  0.0126
  600MOL0     C82667   7.705   3.933   5.403 -0.1687 -0.0513 -0.1505
  600MOL0     C82668   7.711   3.816   5.320 -0.2994  0.0352  0.1101
  600MOL0     C82669   7.727   3.828   5.180  0.6548  0.5437 -0.4048
  600MOL0     O82670   7.728   3.726   5.099  0.5951  0.5417  0.1836
  600MOL0     C82671   7.846   3.703   5.018 -0.7953 -0.0065 -0.5863
  600MOL0     C82672   7.818   3.575   4.941  0.5963 -0.4425 -0.3395
  600MOL0     C82673   7.939   3.519   4.865 -0.1754 -0.3143 -0.2249
  600MOL0     C82674   7.902   3.400   4.778  0.4395  0.7832  0.7089
  600MOL0     C82675   8.018   3.331   4.703  0.0993  0.4480 -0.1035
  600MOL0     C82676   7.982   3.187   4.653 -0.2414 -0.5479  0.3812
  600MOL0     C82677   8.089   3.132   4.548 -0.2965  0.5965 -1.0850
  600MOL0     C82678   8.240   3.164   4.585  0.7365 -0.6021 -0.0562
  600MOL0     N82679   8.323   3.090   4.491 -0.3956 -0.8454 -0.2045
  600MOL0     C82680   8.357   3.126   4.362  0.1759 -0.1108  0.6114
  600MOL0     C82681   8.461   3.042   4.328  0.0335 -0.4280 -0.2195
  600MOL0     C82682   8.553   3.046   4.219  0.3179 -0.5056  0.1183
  600MOL0     C82683   8.697   3.066   4.250  0.1572 -0.6557  0.0401
  600MOL0     C82684   8.756   2.924   4.292  0.2538 -0.8614 -0.0698
  600MOL0     C82685   8.861   2.937   4.407  0.1205 -1.0422  0.3682
  600MOL0     O82686   8.967   3.029   4.356  0.7150 -0.1410 -1.0327
  600MOL0     C82687   9.092   2.979   4.336  0.0598  0.0776  1.0414
  600MOL0     C82688   9.121   2.848   4.282  1.2323 -0.0407  0.0411
  600MOL0     C82689   9.245   2.797   4.263 -0.0377  0.1572 -0.6317
  600MOL0     C82690   9.255   2.660   4.207  0.6611  0.1018  0.3611
  600MOL0     C82691   9.366   2.879   4.290  0.3362  0.3118  0.7841
  600MOL0     C82692   9.504   2.829   4.284 -0.5008  0.2403 -0.3071
  600MOL0     O82693   9.540   2.760   4.173 -0.0634  0.4544  0.5032
  600MOL0     C82694   9.678   2.735   4.168 -0.7191  0.6825 -0.4194
  600MOL0     C82695   9.778   2.839   4.159  0.1664  0.1982 -0.5203
  600MOL0     C82696   9.912   2.793   4.151 -0.5896 -0.2293 -0.2781
  600MOL0     C82697   9.949   2.655   4.161 -0.2199 -0.3087 -0.1417
  600MOL0     O82698  10.083   2.614   4.174  0.1644  0.6214 -0.6944
  600MOL0     C82699  10.191   2.695   4.217 -1.2757  0.3432  0.7497
  600MOL0     C82700  10.295   2.597   4.266  0.5327  0.1785 -0.1096
  600MOL0     C82701  10.425   2.656   4.324 -0.7569  0.5370  0.4922
  600MOL0     C82702  10.535   2.640   4.216 -0.4705  0.0579  1.3888
  600MOL0     C82703  10.655   2.738   4.243 -0.4586 -0.3047 -0.0463
  600MOL0     C82704  10.785   2.714   4.162  0.4120  0.2820 -0.1377
  600MOL0     C82705  10.886   2.821   4.195  0.7128 -0.7158  0.2053
  600MOL0     C82706  11.019   2.782   4.133  0.3336  0.1557  1.0226
  600MOL0    Cl82707  11.107   2.635   4.192  0.0080 -0.5636  0.0072
  600MOL0     C82708   9.850   2.559   4.163  0.2145 -0.1656  0.5315
  600MOL0     C82709   9.722   2.603   4.167  0.7430  0.1900  0.1223
  600MOL0     O82710   9.578   2.879   4.370  0.1045  0.1492 -0.4975
  600MOL0     C82711   9.344   3.009   4.340  0.0685  0.1613  1.2896
  600MOL0     C82712   9.214   3.061   4.365 -0.0705  0.5748  0.1606
  600MOL0     N82713   8.495   2.967   4.438  0.3894 -0.0213  0.4052
  600MOL0     N82714   8.411   2.996   4.527 -0.7133 -0.0013  0.4455
  600MOL0     C82715   7.746   3.952   5.127  0.4257 -0.3852 -0.5788
  600MOL0     C82716   7.740   4.075   5.208 -1.1250  0.6365 -0.2926
  600MOL0     C82717   7.806   4.336   5.572  0.0716 -0.1241 -0.8969
  600MOL0     C82718   7.689   4.348   5.648  0.0761  0.2064 -0.4811
  600MOL0     C82719   7.672   4.431   5.752  0.4239 -1.6221  0.1577
  600MOL0     C82720   7.782   4.502   5.799 -0.7588 -0.0469 -0.0502
  600MOL0     O82721   7.777   4.595   5.906  0.2018  0.2378 -0.6056
  600MOL0     C82722   7.657   4.613   5.979  0.5238  0.1646  0.1408
  600MOL0     C82723   7.699   4.682   6.115  0.0647  1.8480 -0.6518
  600MOL0     C82724   7.587   4.719   6.203 -0.0315 -0.6516  0.1057
  600MOL0     C82725   7.645   4.788   6.331 -0.2429  0.6030 -0.5730
  600MOL0     C82726   7.529   4.855   6.383 -0.4797 -0.0560  0.4210
  600MOL0     C82727   7.426   4.910   6.416  0.2544 -0.3255  0.0743
  600MOL0     C82728   7.899   4.498   5.728  0.0375  0.7309  0.7312
  600MOL0     C82729   7.913   4.410   5.613 -0.0291 -0.1144 -0.5653
  600MOL0     C82730   8.057   4.406   5.560 -0.1860 -0.2115  0.3257
  600MOL0     H82731   7.707   3.916   5.510  0.9111 -3.3511 -0.5865
  600MOL0     H82732   7.703   3.718   5.366 -2.1382 -0.4658 -1.1295
  600MOL0     H82733   7.931   3.679   5.083 -1.4900 -2.2987 -0.4212
  600MOL0     H82734   7.876   3.785   4.952 -0.1338  1.4226  1.3778
  600MOL0     H82735   7.782   3.508   5.020  0.5056 -0.1153 -0.1005
  600MOL0     H82736   7.737   3.587   4.868  1.5368  0.4332 -1.2730
  600MOL0     H82737   7.989   3.589   4.797  1.9564  0.9461  2.4585
  600MOL0     H82738   8.015   3.474   4.929 -0.5506 -0.8922 -0.1784
  600MOL0     H82739   7.844   3.325   4.832 -2.0219  0.9531 -1.5181
  600MOL0     H82740   7.830   3.432   4.702  1.6824  0.2052 -0.7707
  600MOL0     H82741   8.102   3.322   4.773  1.2845 -1.8371 -1.6935
  600MOL0     H82742   8.058   3.388   4.619  1.1353 -2.1859 -1.4891
  600MOL0     H82743   7.974   3.117   4.737 -2.0573 -0.8555 -0.0121
  600MOL0     H82744   7.886   3.187   4.601 -0.1730  1.8652  0.1319
  600MOL0     H82745   8.076   3.174   4.448 -2.3665  0.4819 -0.8933
  600MOL0     H82746   8.072   3.025   4.534 -3.0238  0.6692  0.9323
  600MOL0     H82747   8.267   3.270   4.584  2.9719 -1.0853 -2.7582
  600MOL0     H82748   8.240   3.132   4.689  0.5554  3.0184  1.1984
  600MOL0     H82749   8.332   3.216   4.306  2.1397 -0.5691 -1.1252
  600MOL0     H82750   8.518   3.122   4.148 -2.7868 -2.8950 -1.1508
  600MOL0     H82751   8.561   2.961   4.150 -2.3608 -1.0581  0.3814
  600MOL0     H82752   8.764   3.099   4.170  1.0722 -2.5494 -0.0367
  600MOL0     H82753   8.697   3.130   4.338 -4.4516 -0.7781  0.3407
  600MOL0     H82754   8.673   2.856   4.314  0.5105 -0.1681  3.6093
  600MOL0     H82755   8.809   2.877   4.209 -2.9502 -2.6790 -1.2732
  600MOL0     H82756   8.817   2.971   4.501 -0.5642  0.5657 -0.4942
  600MOL0     H82757   8.911   2.841   4.424  0.6883 -0.7539  0.3431
  600MOL0     H82758   9.039   2.787   4.245 -1.2517  0.3665  4.2767
  600MOL0     H82759   9.157   2.634   4.166  1.1103  1.2931 -1.6176
  600MOL0     H82760   9.293   2.589   4.280 -0.3669 -0.2789  0.5441
  600MOL0     H82761   9.322   2.656   4.120 -0.8302  0.0128 -0.8267
  600MOL0     H82762   9.753   2.944   4.158 -0.7507  0.1184  2.7006
  600MOL0     H82763   9.986   2.866   4.122 -0.3695 -0.9645 -1.6377
  600MOL0     H82764  10.230   2.744   4.127 -1.9057 -0.8638 -0.2146
  600MOL0     H82765  10.145   2.765   4.288  1.6711  0.8331  2.3102
  600MOL0     H82766  10.254   2.542   4.351 -1.1704  1.0504 -0.3139
  600MOL0     H82767  10.299   2.521   4.187 -0.5031  3.6937 -3.9254
  600MOL0     H82768  10.448   2.589   4.407 -0.8140 -1.6460 -1.1567
  600MOL0     H82769  10.418   2.762   4.350  1.1339  0.0949  3.1965
  600MOL0     H82770  10.498   2.648   4.114  0.2074 -0.1287  1.1216
  600MOL0     H82771  10.581   2.541   4.222  1.5671  0.8737  0.2662
  600MOL0     H82772  10.625   2.841   4.221 -4.2142 -1.6075 -1.9040
  600MOL0     H82773  10.682   2.741   4.349  1.1136  3.7250 -0.3882
  600MOL0     H82774  10.765   2.720   4.055 -0.0647 -1.8076 -0.1930
  600MOL0     H82775  10.836   2.618   4.177 -0.5830 -0.1832  0.3318
  600MOL0     H82776  10.889   2.839   4.303 -2.0612  1.5980  0.0297
  600MOL0     H82777  10.862   2.912   4.138 -1.7784 -1.2512  0.3309
  600MOL0     H82778  11.092   2.864   4.142  3.4892 -2.2672 -0.5680
  600MOL0     H82779  11.005   2.760   4.027 -1.2414 -1.5919  1.5422
  600MOL0     H82780   9.864   2.451   4.170  1.6288 -0.0477 -0.2168
  600MOL0     H82781   9.647   2.524   4.177 -0.1381  0.7568 -1.5832
  600MOL0     H82782   9.427   3.079   4.350 -0.6842  1.1080  1.0907
  600MOL0     H82783   9.190   3.154   4.415  1.4138  0.1507  1.7622
  600MOL0     H82784   7.759   3.962   5.020  0.4228 -3.1257 -0.9239
  600MOL0     H82785   7.754   4.169   5.154  0.5375  0.0691 -0.9340
  600MOL0     H82786   7.601   4.287   5.628  0.3874  0.5463 -3.2500
  600MOL0     H82787   7.576   4.437   5.804  0.2400  2.1039 -0.3914
  600MOL0     H82788   7.593   4.677   5.917 -0.5766  0.0172  1.0975
  600MOL0     H82789   7.594   4.528   6.008 -0.5226  1.4240  1.6891
  600MOL0     H82790   7.771   4.764   6.108  2.6247 -0.2300 -0.2060
  600MOL0     H82791   7.756   4.605   6.168  1.4389  1.5422 -2.4971
  600MOL0     H82792   7.520   4.790   6.154 -0.5321 -0.3961  1.1176
  600MOL0     H82793   7.532   4.627   6.223 -1.6083  0.2469  0.0940
  600MOL0     H82794   7.726   4.857   6.305  0.0829  1.7710  2.9981
  600MOL0     H82795   7.687   4.716   6.402  2.8114  3.4095  0.7243
  600MOL0     H82796   7.348   4.980   6.442  3.5244  4.0568 -0.7146
  600MOL0     H82797   7.989   4.551   5.761  0.7066  0.2664 -0.3039
  600MOL0     H82798   8.067   4.476   5.476 -2.3111  0.1681  0.3279
  600MOL0     H82799   8.134   4.428   5.634  1.5620  1.3603 -1.8553
  600MOL0     H82800   8.080   4.309   5.515 -0.4733  0.7099 -1.9636
  601MOL0     O82801   2.998   4.437   7.836 -0.4671  0.7731 -0.3217
  601MOL0     C82802   2.998   4.533   7.908  0.1313  0.4863  0.3905
  601MOL0     O82803   3.084   4.560   8.011 -0.2472  0.3999  0.6160
  601MOL0     C82804   3.186   4.479   8.047 -0.2807 -0.4419  0.1997
  601MOL0     C82805   3.199   4.336   8.019  0.7813 -0.2331 -0.5511
  601MOL0     C82806   3.310   4.266   8.073  0.6863  0.5129 -0.8507
  601MOL0     C82807   3.406   4.333   8.152 -0.6391  1.1415 -0.4370
  601MOL0     O82808   3.501   4.260   8.224  0.5717 -0.1736  0.4363
  601MOL0     C82809   3.539   4.128   8.180 -0.0725 -0.0051  0.4876
  601MOL0     C82810   3.650   4.070   8.274 -0.6576 -0.8808  0.5480
  601MOL0     C82811   3.766   4.170   8.289 -0.4280 -0.8198 -0.1577
  601MOL0     C82812   3.907   4.101   8.268 -0.7274 -0.6783  0.3962
  601MOL0     C82813   4.019   4.212   8.268  0.0259 -0.3407 -0.2460
  601MOL0     C82814   4.154   4.153   8.258  0.0966 -0.6589  0.2895
  601MOL0     C82815   4.227   4.098   8.386  0.2078  0.2891  0.1177
  601MOL0     C82816   4.367   4.052   8.351  0.4111  0.3426  0.7246
  601MOL0     N82817   4.447   4.172   8.310  0.1903 -0.3958 -0.6424
  601MOL0     C82818   4.574   4.165   8.258  0.6925  0.3679  0.9188
  601MOL0     C82819   4.613   4.287   8.249 -0.9971 -0.1281 -0.4564
  601MOL0     C82820   4.742   4.328   8.178  0.5804  0.1684 -0.0185
  601MOL0     C82821   4.822   4.418   8.280 -0.9428 -0.6220  0.1985
  601MOL0     C82822   4.963   4.429   8.231 -0.6767 -0.1643 -0.6234
  601MOL0     C82823   5.065   4.524   8.299 -0.5583  0.1504  0.3294
  601MOL0     O82824   5.198   4.515   8.231 -0.0034 -0.2243  0.0949
  601MOL0     C82825   5.235   4.612   8.139  0.0935  0.3169 -0.3524
  601MOL0     C82826   5.374   4.607   8.109  0.1711 -1.3597  0.6547
  601MOL0     C82827   5.426   4.706   8.030 -0.2930  0.2242  0.9864
  601MOL0     C82828   5.575   4.707   8.016 -0.1653  0.4510 -0.6459
  601MOL0     C82829   5.344   4.798   7.964 -0.9080  0.8613 -0.1341
  601MOL0     C82830   5.375   4.910   7.871  0.0937 -0.5092 -0.2016
  601MOL0     O82831   5.276   4.976   7.800 -0.1751  0.2642 -0.2591
  601MOL0     C82832   5.318   5.074   7.719 -0.4193  0.0387 -0.3342
  601MOL0     C82833   5.405   5.053   7.602 -0.0991 -0.4704 -0.7660
  601MOL0     C82834   5.429   5.164   7.521 -0.5481 -0.5246 -0.2935
  601MOL0     C82835   5.404   5.296   7.573 -0.0183  0.7871  0.2274
  601MOL0     O82836   5.415   5.407   7.500 -0.1323  0.9629 -0.0026
  601MOL0     C82837   5.476   5.416   7.370  0.7814 -0.3435  0.1743
  601MOL0     C82838   5.384   5.368   7.256 -0.4166  0.4812  0.5168
  601MOL0     C82839   5.468   5.359   7.128  0.7984 -0.0907  0.5645
  601MOL0     C82840   5.388   5.331   7.002  0.1616  0.2644 -0.1653
  601MOL0     C82841   5.253   5.408   6.979  0.4572 -0.1161 -0.4115
  601MOL0     C82842   5.192   5.368   6.849  0.4913 -0.1445 -0.1331
  601MOL0     C82843   5.068   5.441   6.811  0.3916 -0.1015 -0.2078
  601MOL0     C82844   5.043   5.447   6.658  0.8575  0.3099  0.1098
  601MOL0    Cl82845   5.015   5.293   6.586 -0.3333 -0.4127  0.2472
  601MOL0     C82846   5.322   5.309   7.683  0.4975 -0.0217  0.2812
  601MOL0     C82847   5.286   5.200   7.756 -0.1698 -0.7968  0.5751
  601MOL0     O82848   5.493   4.942   7.871  0.0138  0.3230 -0.6799
  601MOL0     C82849   5.208   4.788   7.995 -0.0820  0.2582  0.5033
  601MOL0     C82850   5.148   4.694   8.073 -0.0230  0.6003 -0.8704
  601MOL0     N82851   4.531   4.377   8.317 -0.2500  0.5431  0.7507
  601MOL0     N82852   4.431   4.302   8.358 -0.0555 -0.3019  0.0750
  601MOL0     C82853   3.393   4.464   8.171  0.4453 -0.5291  0.1176
  601MOL0     C82854   3.291   4.539   8.121  0.4900  0.1296  0.5496
  601MOL0     C82855   2.911   4.650   7.875  0.2380  0.1727  0.3621
  601MOL0     C82856   2.883   4.741   7.970  0.0547 -0.5351 -0.6664
  601MOL0     C82857   2.817   4.870   7.949  0.0036 -0.6733  0.7600
  601MOL0     C82858   2.767   4.888   7.824  0.4508 -1.1213  0.4522
  601MOL0     O82859   2.715   5.015   7.786 -0.0599  0.1040 -0.7293
  601MOL0     C82860   2.660   5.108   7.890  0.1121  0.1466  0.0762
  601MOL0     C82861   2.533   5.049   7.966 -0.3818  0.1829 -0.0218
  601MOL0     C82862   2.426   4.994   7.874  0.5519  0.6261 -0.3140
  601MOL0     C82863   2.376   5.097   7.772 -0.2767 -0.1516 -1.0790
  601MOL0     C82864   2.314   5.213   7.838  0.3530 -1.4799  0.1977
  601MOL0     C82865   2.250   5.309   7.876  0.3916 -1.2730 -0.7620
  601MOL0     C82866   2.779   4.792   7.720 -0.1051 -0.0267  0.6402
  601MOL0     C82867   2.846   4.668   7.741 -0.1262 -0.3342 -0.5492
  601MOL0     C82868   2.870   4.571   7.628  0.0649  0.3200  0.2193
  601MOL0     H82869   3.140   4.267   7.961  2.2999 -3.9262  1.9123
  601MOL0     H82870   3.285   4.161   8.059  0.8634  0.7061 -2.8321
  601MOL0     H82871   3.567   4.140   8.075 -0.4632  1.4447  0.5316
  601MOL0     H82872   3.459   4.054   8.180 -1.3392  1.2199  3.0937
  601MOL0     H82873   3.602   4.055   8.372 -2.9849  2.0917  0.0226
  601MOL0     H82874   3.686   3.979   8.227 -0.2162 -1.1543  1.3980
  601MOL0     H82875   3.761   4.242   8.207 -0.7867 -2.0560 -1.2631
  601MOL0     H82876   3.766   4.207   8.392 -0.8762  1.7574 -1.0243
  601MOL0     H82877   3.925   4.034   8.352  0.2271  1.6038  2.1112
  601MOL0     H82878   3.918   4.049   8.172  2.4185 -0.1479  0.3393
  601MOL0     H82879   4.006   4.268   8.361  0.1230 -0.5591 -0.0992
  601MOL0     H82880   3.999   4.274   8.181  1.5352  1.8475  0.8967
  601MOL0     H82881   4.170   4.068   8.191 -0.5478  0.8800 -1.9242
  601MOL0     H82882   4.205   4.246   8.230 -0.8030 -0.1721  0.2245
  601MOL0     H82883   4.181   4.010   8.433  1.5910  0.7513  2.4685
  601MOL0     H82884   4.218   4.180   8.457 -1.7550  0.0030  0.2579
  601MOL0     H82885   4.421   3.997   8.428  1.0228 -0.6493 -0.3732
  601MOL0     H82886   4.362   3.980   8.268 -1.2328 -2.3515  2.9987
  601MOL0     H82887   4.617   4.075   8.215 -0.5956  1.5093 -3.1485
  601MOL0     H82888   4.723   4.393   8.093  2.9417  2.3931  1.0204
  601MOL0     H82889   4.802   4.243   8.145 -0.7434  0.2555 -2.9552
  601MOL0     H82890   4.776   4.516   8.285 -1.1114 -0.7245  0.6502
  601MOL0     H82891   4.818   4.389   8.385  0.3285 -0.8713  0.1943
  601MOL0     H82892   5.016   4.335   8.216 -2.1847 -1.1008 -0.3688
  601MOL0     H82893   4.953   4.473   8.131  1.8667  2.3292  0.0921
  601MOL0     H82894   5.023   4.625   8.294  0.5346  0.5462 -2.0996
  601MOL0     H82895   5.070   4.511   8.408 -1.9565 -0.2829  0.3587
  601MOL0     H82896   5.437   4.528   8.150  1.9707 -1.1771 -1.5406
  601MOL0     H82897   5.619   4.733   7.920  0.7307  0.4826 -0.2319
  601MOL0     H82898   5.617   4.617   8.061 -3.2257 -0.2056  1.2204
  601MOL0     H82899   5.606   4.789   8.082  0.6077  0.9967 -1.6600
  601MOL0     H82900   5.439   4.956   7.568  2.7972 -0.1282  0.8217
  601MOL0     H82901   5.492   5.158   7.433  2.4536 -1.3875  1.7857
  601MOL0     H82902   5.493   5.522   7.346  1.4795 -0.2054  1.2400
  601MOL0     H82903   5.580   5.383   7.369  2.2835  3.7906  0.7126
  601MOL0     H82904   5.357   5.264   7.279  3.2466 -0.8014 -0.2845
  601MOL0     H82905   5.299   5.437   7.258 -0.2598  0.6834  0.2771
  601MOL0     H82906   5.547   5.285   7.142 -0.2788 -0.9053  2.6244
  601MOL0     H82907   5.516   5.455   7.104 -0.7066  0.4928 -0.2605
  601MOL0     H82908   5.373   5.223   6.985 -2.0102  0.7531 -1.8534
  601MOL0     H82909   5.452   5.364   6.920 -0.3895 -0.9830 -1.1461
  601MOL0     H82910   5.183   5.380   7.058  1.9966 -1.9957  0.3827
  601MOL0     H82911   5.274   5.515   6.979 -0.1976  0.0615 -2.4267
  601MOL0     H82912   5.163   5.263   6.853 -1.2926  0.0379 -3.7339
  601MOL0     H82913   5.268   5.384   6.771  0.0139 -0.2150 -0.6233
  601MOL0     H82914   5.068   5.542   6.852 -0.6450 -1.2635  2.8993
  601MOL0     H82915   4.977   5.397   6.854  1.0047 -0.0056  1.2354
  601MOL0     H82916   5.129   5.497   6.614  0.9935  1.0175  1.1393
  601MOL0     H82917   4.951   5.506   6.653  2.1913  2.4579 -0.2016
  601MOL0     H82918   5.288   5.407   7.715  1.5146  0.8769 -1.3158
  601MOL0     H82919   5.227   5.211   7.847 -3.2549 -0.6084 -1.2993
  601MOL0     H82920   5.141   4.864   7.956 -1.7174  0.3302  3.1842
  601MOL0     H82921   5.040   4.698   8.082 -0.3462  0.3928 -3.7460
  601MOL0     H82922   3.460   4.523   8.232  0.5309 -0.1647 -0.3222
  601MOL0     H82923   3.269   4.642   8.146  0.0084  0.4811 -1.1870
  601MOL0     H82924   2.907   4.725   8.075 -6.1338  2.5960  1.7203
  601MOL0     H82925   2.811   4.935   8.036  1.9928 -0.2121  0.5933
  601MOL0     H82926   2.731   5.125   7.971 -1.4548  1.5110  1.2189
  601MOL0     H82927   2.635   5.201   7.839  2.7335 -0.8155 -3.4016
  601MOL0     H82928   2.494   5.128   8.031 -5.4863 -1.1142 -1.0851
  601MOL0     H82929   2.569   4.963   8.023  0.2676  0.3931 -0.1102
  601MOL0     H82930   2.477   4.923   7.808 -0.2057  0.0361 -0.2838
  601MOL0     H82931   2.341   4.943   7.921  1.9857 -0.9966  0.6302
  601MOL0     H82932   2.301   5.039   7.719  0.0926 -1.2237 -0.4549
  601MOL0     H82933   2.459   5.129   7.708  2.3251 -2.0035  1.1367
  601MOL0     H82934   2.204   5.402   7.901 -0.3238 -2.0812  1.1694
  601MOL0     H82935   2.735   4.821   7.625  0.9562  1.1829  0.4923
  601MOL0     H82936   2.838   4.471   7.657  0.9051  0.2817  1.0653
  601MOL0     H82937   2.814   4.604   7.540  2.0326 -1.5740 -1.8824
  601MOL0     H82938   2.975   4.565   7.599 -0.5069 -2.7742 -1.5993
  602MOL0     O82939   9.052   5.506   2.764  0.1093 -0.4257  0.4835
  602MOL0     C82940   8.995   5.600   2.704 -0.8695  1.4473  0.3856
  602MOL0     O82941   8.992   5.734   2.738  1.0130  0.5333  0.0503
  602MOL0     C82942   9.076   5.766   2.840  0.2703 -0.4016 -0.6909
  602MOL0     C82943   9.010   5.807   2.956 -0.5148  0.1970  0.2990
  602MOL0     C82944   9.080   5.844   3.060 -0.9562 -0.3617 -0.4314
  602MOL0     C82945   9.226   5.852   3.046 -0.5899  0.1630 -0.1696
  602MOL0     O82946   9.313   5.872   3.145  0.4795  0.1752  0.4181
  602MOL0     C82947   9.286   5.844   3.280  0.0873 -0.4714  0.0641
  602MOL0     C82948   9.397   5.882   3.373  0.2834 -0.3401 -0.0374
  602MOL0     C82949   9.534   5.868   3.293  0.0854  0.2185  0.8755
  602MOL0     C82950   9.642   5.857   3.393 -1.0654 -0.1434 -0.6177
  602MOL0     C82951   9.779   5.906   3.359  0.1428 -0.1213  0.2810
  602MOL0     C82952   9.776   6.057   3.334 -0.8695 -0.4865 -0.6805
  602MOL0     C82953   9.919   6.107   3.313 -0.0191  0.6434  0.0712
  602MOL0     C82954   9.928   6.257   3.273  1.1681  1.0220  0.6306
  602MOL0     N82955  10.063   6.300   3.241  0.6524  0.6573 -0.2001
  602MOL0     C82956  10.154   6.224   3.171  1.1027  0.0355 -0.5120
  602MOL0     C82957  10.256   6.304   3.154 -0.2551 -0.2545 -0.9961
  602MOL0     C82958  10.385   6.249   3.103  0.3788  0.2094  0.8405
  602MOL0     C82959  10.389   6.254   2.950  0.2263  0.8580 -0.9135
  602MOL0     C82960  10.530   6.228   2.906 -0.0704  0.4000  1.0684
  602MOL0     C82961  10.543   6.234   2.751  0.6130 -0.5201  0.0702
  602MOL0     O82962  10.465   6.137   2.690  0.0739 -0.2270 -0.4618
  602MOL0     C82963  10.524   6.083   2.583 -0.0806 -0.5644  0.2293
  602MOL0     C82964  10.506   6.141   2.453  0.2734  0.4011  0.3222
  602MOL0     C82965  10.579   6.095   2.341 -0.6163 -0.4063  0.0114
  602MOL0     C82966  10.541   6.156   2.206  1.0210  0.1364 -0.3710
  602MOL0     C82967  10.679   5.991   2.360  0.1082  0.3102  0.2806
  602MOL0     C82968  10.772   5.934   2.258  0.0963 -0.2410  0.1354
  602MOL0     O82969  10.725   5.939   2.131  0.1575 -0.2212 -0.0680
  602MOL0     C82970  10.793   5.897   2.019 -0.4366  0.6737  0.2580
  602MOL0     C82971  10.726   5.945   1.905 -0.0483  0.2112  0.3802
  602MOL0     C82972  10.771   5.928   1.775  0.0203  0.5782  0.2815
  602MOL0     C82973  10.895   5.857   1.759 -0.1582  0.4083  0.2522
  602MOL0     O82974  10.949   5.825   1.637 -0.4735 -0.5748 -0.1258
  602MOL0     C82975  10.884   5.878   1.516  0.0893 -0.3225 -0.4525
  602MOL0     C82976  10.964   5.801   1.406  1.2384 -0.5052  0.2958
  602MOL0     C82977  10.914   5.815   1.263  0.1642 -0.0667  0.2680
  602MOL0     C82978  10.763   5.792   1.244  0.0827  0.2676 -0.8855
  602MOL0     C82979  10.729   5.776   1.099 -0.7671  0.8113  0.5137
  602MOL0     C82980  10.584   5.736   1.074  0.4202  0.2462 -0.4503
  602MOL0     C82981  10.553   5.727   0.922  0.6113  0.8056  0.0252
  602MOL0     C82982  10.617   5.602   0.859 -0.7961 -0.0104  0.7647
  602MOL0    Cl82983  10.531   5.454   0.887  0.0997  0.2458 -0.2997
  602MOL0     C82984  10.955   5.802   1.876  0.0216 -0.0195 -0.2202
  602MOL0     C82985  10.907   5.818   2.002 -0.3809  0.5832 -1.4943
  602MOL0     O82986  10.882   5.894   2.292  0.1527  0.5167 -0.4012
  602MOL0     C82987  10.691   5.931   2.483  0.0711 -0.0083 -0.4246
  602MOL0     C82988  10.612   5.969   2.586 -0.4885 -0.9364 -0.9565
  602MOL0     N82989  10.240   6.421   3.221  0.4625 -0.4486 -0.5614
  602MOL0     N82990  10.120   6.424   3.269  0.0615 -0.3645 -0.3466
  602MOL0     C82991   9.297   5.813   2.933 -1.0679 -0.1556  0.1158
  602MOL0     C82992   9.219   5.766   2.829  1.6344 -0.2267 -0.4206
  602MOL0     C82993   8.916   5.564   2.575 -0.4747 -0.1156 -0.6341
  602MOL0     C82994   8.804   5.649   2.553  0.2359  1.1450  0.2339
  602MOL0     C82995   8.721   5.623   2.438 -0.2769  0.2419 -0.0179
  602MOL0     C82996   8.756   5.524   2.345 -0.6318  1.1493 -0.9875
  602MOL0     O82997   8.674   5.531   2.238  0.6339  0.5776  0.5163
  602MOL0     C82998   8.707   5.472   2.111 -0.7727 -0.0066  1.0305
  602MOL0     C82999   8.676   5.326   2.114 -0.0110  0.7380 -0.6398
  602MOL0     C83000   8.542   5.294   2.171 -0.8391 -0.6165  0.3065
  602MOL0     C83001   8.539   5.158   2.238 -0.2542 -0.3804 -0.0223
  602MOL0     C83002   8.393   5.125   2.258 -0.4524 -0.6930 -0.3774
  602MOL0     C83003   8.273   5.130   2.290  0.0594 -0.3716  0.2302
  602MOL0     C83004   8.870   5.442   2.373  0.7641  0.2637  0.0839
  602MOL0     C83005   8.947   5.460   2.490  0.1304 -0.0112 -0.4325
  602MOL0     C83006   9.064   5.366   2.512  1.0308 -1.1989 -0.1507
  602MOL0     H83007   8.904   5.798   2.976 -0.5523  1.1715  0.6018
  602MOL0     H83008   9.029   5.852   3.156 -0.3769 -2.3525  0.0785
  602MOL0     H83009   9.269   5.737   3.294  0.6514 -1.0998 -3.2190
  602MOL0     H83010   9.205   5.911   3.313  2.0695  1.5931  0.9916
  602MOL0     H83011   9.387   5.987   3.402  3.3773 -0.5436  2.2416
  602MOL0     H83012   9.392   5.809   3.455 -0.0733 -1.8844 -1.3875
  602MOL0     H83013   9.534   5.779   3.229 -0.5610  0.6806  0.2162
  602MOL0     H83014   9.553   5.952   3.226 -0.7126  0.4442  0.9127
  602MOL0     H83015   9.619   5.919   3.480  1.6229 -0.0796  0.1307
  602MOL0     H83016   9.662   5.757   3.433  0.6305  0.3362 -0.1797
  602MOL0     H83017   9.808   5.839   3.278 -0.6546 -0.9868  0.6843
  602MOL0     H83018   9.849   5.888   3.442 -1.4528 -0.9883  1.4881
  602MOL0     H83019   9.723   6.075   3.240 -1.4408 -2.4360 -0.7665
  602MOL0     H83020   9.739   6.103   3.426 -0.9569 -1.9119  0.0216
  602MOL0     H83021   9.953   6.043   3.231  1.0817 -0.2898  1.2077
  602MOL0     H83022   9.978   6.079   3.401  0.4685  0.3338 -0.3429
  602MOL0     H83023   9.859   6.278   3.191  0.9414  1.0622  0.8301
  602MOL0     H83024   9.886   6.325   3.348 -2.4693 -0.6187  0.2413
  602MOL0     H83025  10.136   6.120   3.148 -1.0929  0.3140 -0.3413
  602MOL0     H83026  10.391   6.142   3.125  0.8716  0.4210  1.7796
  602MOL0     H83027  10.467   6.310   3.141 -1.2281  1.5670  2.2853
  602MOL0     H83028  10.310   6.188   2.911 -0.6995 -0.2348  2.4469
  602MOL0     H83029  10.374   6.354   2.910  0.1329  0.3401 -2.2009
  602MOL0     H83030  10.600   6.305   2.941  1.7518 -1.0731  0.8692
  602MOL0     H83031  10.558   6.127   2.939  0.8800 -0.1974 -1.3259
  602MOL0     H83032  10.504   6.329   2.714  0.5241 -0.4441  0.3495
  602MOL0     H83033  10.649   6.229   2.726  0.9260 -1.0933  1.4222
  602MOL0     H83034  10.435   6.223   2.450 -0.1047  0.0652 -0.2721
  602MOL0     H83035  10.488   6.251   2.221  1.2957  0.2912 -0.3884
  602MOL0     H83036  10.460   6.097   2.162 -2.3015  1.3623  3.4254
  602MOL0     H83037  10.625   6.177   2.139 -1.6590  1.0024 -3.7589
  602MOL0     H83038  10.637   6.003   1.927 -0.2188 -0.9744  3.3147
  602MOL0     H83039  10.716   5.969   1.691  2.2657 -0.4462 -1.8434
  602MOL0     H83040  10.777   5.860   1.513 -0.4947  2.4999  0.2360
  602MOL0     H83041  10.903   5.982   1.486 -0.5320  0.3790  1.4249
  602MOL0     H83042  11.069   5.829   1.413  1.4991 -1.5739  0.9674
  602MOL0     H83043  10.934   5.699   1.431  1.1720 -0.8055 -0.9485
  602MOL0     H83044  10.964   5.753   1.189 -0.0818  1.6183 -1.3670
  602MOL0     H83045  10.932   5.919   1.235 -3.5563  0.8434  0.6100
  602MOL0     H83046  10.700   5.866   1.294  1.0810  1.0777 -0.8013
  602MOL0     H83047  10.740   5.700   1.299  1.7614  0.1695 -0.2941
  602MOL0     H83048  10.753   5.868   1.044 -2.4487 -0.1366 -2.0003
  602MOL0     H83049  10.790   5.694   1.057 -0.3614  0.6882  1.3296
  602MOL0     H83050  10.529   5.815   1.127  1.3152  0.3168  0.4018
  602MOL0     H83051  10.569   5.642   1.128 -1.4867  2.0246  2.4093
  602MOL0     H83052  10.598   5.815   0.875  2.3609 -0.0637 -0.0009
  602MOL0     H83053  10.445   5.715   0.908  0.5493 -0.1666  1.1268
  602MOL0     H83054  10.724   5.585   0.877 -0.3818 -0.0420 -1.5243
  602MOL0     H83055  10.625   5.606   0.750  2.9031 -2.8126  0.7576
  602MOL0     H83056  11.038   5.731   1.875  2.2603  2.4185  1.0246
  602MOL0     H83057  10.946   5.766   2.089 -1.9797  1.6560 -0.0559
  602MOL0     H83058  10.773   5.866   2.511 -0.7885 -0.0334  2.3381
  602MOL0     H83059  10.625   5.903   2.671 -1.6514 -0.8569 -0.6972
  602MOL0     H83060   9.403   5.827   2.916 -1.2540 -1.2300 -2.2881
  602MOL0     H83061   9.264   5.740   2.734 -1.2067  1.8697 -2.4962
  602MOL0     H83062   8.775   5.739   2.607 -1.0466  2.1931 -2.0270
  602MOL0     H83063   8.650   5.702   2.413 -0.9210 -0.5516 -0.7525
  602MOL0     H83064   8.652   5.523   2.031  2.9110 -0.1945 -1.9060
  602MOL0     H83065   8.810   5.497   2.084 -1.4110  2.4412  0.6413
  602MOL0     H83066   8.748   5.269   2.173 -0.4301  2.5807  1.7830
  602MOL0     H83067   8.688   5.287   2.012 -0.3753 -1.5400  0.1409
  602MOL0     H83068   8.508   5.364   2.248  0.1191 -0.3375  0.4821
  602MOL0     H83069   8.471   5.300   2.088 -1.9415 -1.6907  1.1268
  602MOL0     H83070   8.592   5.168   2.333 -2.8004 -1.7233  1.6424
  602MOL0     H83071   8.575   5.071   2.183 -1.3914 -1.6876  1.2324
  602MOL0     H83072   8.167   5.129   2.309  0.0900 -0.0053  0.4398
  602MOL0     H83073   8.884   5.374   2.289  1.3044  0.3512  0.1003
  602MOL0     H83074   9.103   5.338   2.414  0.9158 -0.3895 -0.4340
  602MOL0     H83075   9.147   5.408   2.571 -0.0235  0.2405  0.3748
  602MOL0     H83076   9.021   5.281   2.565  0.8153 -2.3951 -2.1816
  603MOL0     O83077   7.964   7.332   3.899 -0.6777  0.9368  0.0736
  603MOL0     C83078   7.876   7.303   3.820 -0.3955 -0.9636 -1.3762
  603MOL0     O83079   7.848   7.370   3.703 -0.0414  0.2746  0.2357
  603MOL0     C83080   7.936   7.472   3.677 -0.8178 -0.2039 -0.6869
  603MOL0     C83081   7.918   7.590   3.746 -0.2437 -0.6619 -1.0196
  603MOL0     C83082   7.998   7.703   3.714 -0.1580  0.4581  0.3251
  603MOL0     C83083   8.111   7.683   3.638 -0.3020 -0.0908  0.1806
  603MOL0     O83084   8.213   7.776   3.622 -0.2784  0.1898 -0.0676
  603MOL0     C83085   8.164   7.903   3.576 -0.0969 -0.2001  0.2385
  603MOL0     C83086   8.224   7.925   3.430  1.2675 -0.1098 -0.9303
  603MOL0     C83087   8.178   8.060   3.359 -0.2823  0.8152  0.5681
  603MOL0     C83088   8.212   8.065   3.217 -0.6178 -0.2466  0.3336
  603MOL0     C83089   8.174   8.189   3.141  0.6833  0.1215  0.8481
  603MOL0     C83090   8.191   8.147   2.989 -0.3473 -0.4351 -0.9659
  603MOL0     C83091   8.188   8.270   2.910  0.0887 -0.4220  0.5953
  603MOL0     C83092   8.318   8.354   2.911 -0.6793 -0.2307 -0.8180
  603MOL0     N83093   8.316   8.449   2.802  0.3140 -0.6838  0.5710
  603MOL0     C83094   8.340   8.420   2.666  0.3057  0.2708  0.0896
  603MOL0     C83095   8.315   8.544   2.607  0.5451 -1.0436 -0.5183
  603MOL0     C83096   8.316   8.577   2.463 -0.0179 -0.9171  0.4516
  603MOL0     C83097   8.178   8.628   2.409  0.5027  0.6457 -0.4920
  603MOL0     C83098   8.188   8.672   2.267 -0.2667  0.0058 -0.5068
  603MOL0     C83099   8.059   8.736   2.223 -0.2201 -0.2745 -0.1995
  603MOL0     O83100   8.065   8.747   2.078  0.0372 -0.3761  0.1796
  603MOL0     C83101   7.954   8.710   2.002 -0.4520 -0.2881  0.1078
  603MOL0     C83102   7.974   8.672   1.868 -0.3048 -0.5298  0.4270
  603MOL0     C83103   7.866   8.657   1.778  0.6282 -0.1172  1.2316
  603MOL0     C83104   7.895   8.618   1.638  0.5730 -1.1177  0.7401
  603MOL0     C83105   7.731   8.676   1.827  0.3133 -0.3510 -0.1402
  603MOL0     C83106   7.618   8.672   1.730  0.6734 -0.4559 -0.7731
  603MOL0     O83107   7.546   8.555   1.729  0.7318  0.6631  0.0958
  603MOL0     C83108   7.452   8.556   1.630 -0.2333  0.0253  0.5292
  603MOL0     C83109   7.482   8.471   1.519  0.0579  0.3294 -1.4921
  603MOL0     C83110   7.394   8.474   1.403 -0.8699 -0.3966 -0.3561
  603MOL0     C83111   7.281   8.552   1.412 -0.7491 -1.0018  0.0461
  603MOL0     O83112   7.202   8.554   1.300  0.2593 -0.4195 -0.4076
  603MOL0     C83113   7.058   8.577   1.323  0.2519  0.4981  0.2353
  603MOL0     C83114   6.998   8.461   1.409  0.7785 -0.1289 -0.0471
  603MOL0     C83115   6.841   8.463   1.409 -0.5737 -0.6081 -0.2904
  603MOL0     C83116   6.781   8.413   1.280  0.4313  0.8042  0.9930
  603MOL0     C83117   6.666   8.312   1.297 -0.1410 -0.1195 -0.1663
  603MOL0     C83118   6.552   8.375   1.381 -0.5235 -0.4196  0.2954
  603MOL0     C83119   6.409   8.334   1.324  0.4339 -0.2008 -0.2322
  603MOL0     C83120   6.373   8.192   1.317  0.1515  0.7123  0.7327
  603MOL0    Cl83121   6.362   8.098   1.480 -0.0918  0.2419 -0.1111
  603MOL0     C83122   7.246   8.630   1.530  0.5310  0.2176  0.5867
  603MOL0     C83123   7.335   8.630   1.637 -0.6200  0.2440  0.6726
  603MOL0     O83124   7.596   8.776   1.665 -0.5911  0.7965  0.2146
  603MOL0     C83125   7.713   8.690   1.965  0.0818  0.6069 -0.3285
  603MOL0     C83126   7.823   8.699   2.051 -0.0927 -0.9616 -0.4795
  603MOL0     N83127   8.286   8.642   2.702  0.1772  0.0911 -0.1774
  603MOL0     N83128   8.281   8.586   2.819 -0.2037  0.4984 -0.4445
  603MOL0     C83129   8.125   7.561   3.571  0.3693  0.3596 -0.6972
  603MOL0     C83130   8.035   7.455   3.583 -0.2879  0.1484 -0.9015
  603MOL0     C83131   7.793   7.190   3.876 -0.2483  0.2110  0.3290
  603MOL0     C83132   7.656   7.209   3.883  0.0024 -0.2893 -0.0046
  603MOL0     C83133   7.581   7.104   3.933 -0.1982 -0.8129 -0.3858
  603MOL0     C83134   7.631   6.990   3.986  0.0065 -1.1863  0.4482
  603MOL0     O83135   7.560   6.896   4.049  0.3638 -0.6461 -0.5428
  603MOL0     C83136   7.525   6.788   3.967  0.8188  0.4873 -0.0467
  603MOL0     C83137   7.419   6.694   4.027 -0.2053  0.4008  0.0507
  603MOL0     C83138   7.433   6.658   4.172 -0.4286 -0.2520  0.2457
  603MOL0     C83139   7.568   6.583   4.188 -0.0490 -0.0541 -0.5891
  603MOL0     C83140   7.582   6.499   4.307  0.6879 -0.1929  0.4280
  603MOL0     C83141   7.616   6.449   4.411  0.2918 -0.6467 -0.4093
  603MOL0     C83142   7.768   6.979   3.992  0.5425  0.2093  0.5028
  603MOL0     C83143   7.852   7.073   3.933 -0.4970  0.2084  0.6227
  603MOL0     C83144   7.996   7.040   3.936  0.0207 -0.1990 -1.2204
  603MOL0     H83145   7.836   7.603   3.815 -0.3147 -0.1871 -1.1841
  603MOL0     H83146   7.989   7.794   3.773  1.4519  0.2581  0.9149
  603MOL0     H83147   8.199   7.989   3.634 -0.0630 -0.1979  0.2145
  603MOL0     H83148   8.055   7.903   3.570 -0.1308 -0.2898  0.7955
  603MOL0     H83149   8.332   7.923   3.447  0.7362 -1.2009  3.7019
  603MOL0     H83150   8.186   7.838   3.376 -4.1200 -1.4075  3.9158
  603MOL0     H83151   8.075   8.094   3.372  0.4035  3.9578 -1.1899
  603MOL0     H83152   8.234   8.139   3.411 -0.1798 -1.7488  4.8345
  603MOL0     H83153   8.321   8.066   3.216 -0.6149 -0.2654 -1.3414
  603MOL0     H83154   8.168   7.978   3.169 -0.5692 -1.0505  1.6954
  603MOL0     H83155   8.228   8.283   3.157  0.1536  0.7636 -0.9058
  603MOL0     H83156   8.068   8.207   3.161  0.5349  0.8577 -0.4618
  603MOL0     H83157   8.292   8.108   2.973  0.5517 -0.4850  3.5917
  603MOL0     H83158   8.115   8.074   2.958 -0.3231 -2.1226  2.5211
  603MOL0     H83159   8.111   8.339   2.944  0.7734  1.3742 -1.2540
  603MOL0     H83160   8.171   8.232   2.808  1.6060  1.5267 -0.4638
  603MOL0     H83161   8.323   8.402   3.009 -0.1789 -2.2520  0.1864
  603MOL0     H83162   8.406   8.292   2.894  1.2263  2.4420 -1.3947
  603MOL0     H83163   8.359   8.327   2.613 -3.0191  0.1703 -1.1303
  603MOL0     H83164   8.334   8.484   2.407 -1.4598 -1.3073  0.6116
  603MOL0     H83165   8.397   8.648   2.440 -0.8779 -0.3234 -0.8451
  603MOL0     H83166   8.104   8.548   2.406  0.2882  0.7987 -3.8588
  603MOL0     H83167   8.146   8.713   2.470 -0.7359  0.2612 -0.5884
  603MOL0     H83168   8.260   8.755   2.264  0.0289 -0.2505 -0.5309
  603MOL0     H83169   8.225   8.598   2.195 -1.4278 -1.0763 -0.0125
  603MOL0     H83170   7.972   8.676   2.254 -2.1477  2.0203 -0.8634
  603MOL0     H83171   8.055   8.840   2.255  0.1307 -0.4423  0.3932
  603MOL0     H83172   8.077   8.660   1.836 -0.3470 -0.0392  0.0886
  603MOL0     H83173   7.806   8.588   1.582  3.4577 -2.5012 -3.7254
  603MOL0     H83174   7.969   8.538   1.628  0.0540 -1.6316  0.9339
  603MOL0     H83175   7.922   8.713   1.592 -0.5585 -0.6130  1.0847
  603MOL0     H83176   7.560   8.395   1.523  0.4295  0.6971 -1.6398
  603MOL0     H83177   7.403   8.416   1.312 -1.3723 -0.7087 -0.2085
  603MOL0     H83178   7.039   8.674   1.369 -0.6446  0.7122 -0.5603
  603MOL0     H83179   7.005   8.575   1.228  0.0262  0.8583  0.3512
  603MOL0     H83180   7.029   8.364   1.370 -2.6817 -1.5965  0.4615
  603MOL0     H83181   7.030   8.468   1.513  4.3278  1.6701 -1.1401
  603MOL0     H83182   6.825   8.570   1.426 -1.6009 -0.9476  1.0387
  603MOL0     H83183   6.801   8.408   1.495 -0.5309 -1.0639 -0.5621
  603MOL0     H83184   6.861   8.368   1.220 -0.7245  0.2555 -0.1910
  603MOL0     H83185   6.739   8.499   1.228  1.6461  2.6912  2.9652
  603MOL0     H83186   6.640   8.296   1.192  0.0337  1.4505 -0.4692
  603MOL0     H83187   6.697   8.221   1.350  0.2523  2.3918  4.4122
  603MOL0     H83188   6.557   8.484   1.374 -2.6004 -0.3849 -2.1635
  603MOL0     H83189   6.557   8.342   1.485 -2.0401  0.2352  0.6108
  603MOL0     H83190   6.383   8.398   1.239 -0.4347  2.3368  1.7792
  603MOL0     H83191   6.340   8.372   1.401  1.0327  0.8024 -0.1707
  603MOL0     H83192   6.434   8.144   1.240 -0.4837 -0.5779  1.0085
  603MOL0     H83193   6.275   8.179   1.270  1.3248 -0.3892 -1.5784
  603MOL0     H83194   7.153   8.682   1.551  1.0618 -0.2574  5.1556
  603MOL0     H83195   7.326   8.687   1.729 -3.1743 -0.0135  0.6550
  603MOL0     H83196   7.618   8.700   2.016  0.2785 -1.0339  0.4240
  603MOL0     H83197   7.806   8.686   2.157  0.0548 -2.4303 -0.6162
  603MOL0     H83198   8.213   7.558   3.508  1.2468 -2.1333  0.5224
  603MOL0     H83199   8.057   7.362   3.533 -0.0871 -0.2882 -0.0195
  603MOL0     H83200   7.616   7.304   3.849  2.4900  1.3259  1.2399
  603MOL0     H83201   7.473   7.106   3.933 -0.2793  3.7838 -0.2419
  603MOL0     H83202   7.485   6.805   3.866 -3.4216 -1.3987  1.0745
  603MOL0     H83203   7.615   6.727   3.960 -0.8968 -2.6449  2.4826
  603MOL0     H83204   7.419   6.597   3.977 -1.6301 -0.3791  1.4681
  603MOL0     H83205   7.317   6.730   4.014 -0.2697  0.8152  1.4986
  603MOL0     H83206   7.434   6.747   4.236  2.0421  0.4247 -0.6158
  603MOL0     H83207   7.341   6.604   4.199  1.0222 -2.4028  1.1302
  603MOL0     H83208   7.652   6.653   4.187  0.7297 -0.8995 -3.1974
  603MOL0     H83209   7.582   6.521   4.099  2.0119  1.8624 -1.7063
  603MOL0     H83210   7.641   6.403   4.505 -0.9533 -0.1037  0.2174
  603MOL0     H83211   7.810   6.885   4.028 -1.6512 -0.6631  0.9253
  603MOL0     H83212   8.017   7.007   4.038 -2.8868 -1.1688 -0.8346
  603MOL0     H83213   8.026   6.950   3.882 -2.7507 -0.5711 -2.3177
  603MOL0     H83214   8.055   7.124   3.899 -2.7926  1.5049 -2.2194
  604MOL0     O83215   1.814   1.757   7.335  0.6026 -0.1352 -0.1245
  604MOL0     C83216   1.843   1.653   7.389 -0.1433 -0.3730  0.2871
  604MOL0     O83217   1.964   1.589   7.385 -0.0662  0.5963 -0.4127
  604MOL0     C83218   2.072   1.661   7.339  0.7756  0.0014 -0.2787
  604MOL0     C83219   2.146   1.594   7.242 -0.0879  0.4961 -0.7640
  604MOL0     C83220   2.263   1.657   7.205 -1.0015 -0.7204 -0.2896
  604MOL0     C83221   2.312   1.779   7.260 -0.5898 -0.5630  0.5882
  604MOL0     O83222   2.422   1.840   7.207 -0.5176  0.4233  0.3391
  604MOL0     C83223   2.491   1.947   7.263 -0.5545 -0.9803  0.6209
  604MOL0     C83224   2.600   2.004   7.175  0.7244 -0.2919 -0.0695
  604MOL0     C83225   2.718   1.912   7.142 -0.0432  0.9616  0.5352
  604MOL0     C83226   2.855   1.956   7.182  0.4999  0.0939 -0.3123
  604MOL0     C83227   2.954   1.838   7.167  0.1027  0.2032  0.4490
  604MOL0     C83228   3.096   1.899   7.211  0.6244  0.6002  0.4684
  604MOL0     C83229   3.205   1.790   7.212 -0.0337  0.4294  0.5430
  604MOL0     C83230   3.229   1.740   7.349 -0.1490 -0.5613 -1.2325
  604MOL0     N83231   3.331   1.631   7.350  0.7946 -0.3582 -0.6607
  604MOL0     C83232   3.459   1.652   7.384 -0.8415  0.4949  0.4610
  604MOL0     C83233   3.512   1.530   7.393 -0.9877 -0.1639 -0.0257
  604MOL0     C83234   3.659   1.510   7.425  0.1443  0.2249  0.1997
  604MOL0     C83235   3.667   1.484   7.570  0.4592 -0.0406  0.3500
  604MOL0     C83236   3.788   1.416   7.609 -0.5728 -0.1424  0.2986
  604MOL0     C83237   3.904   1.516   7.660  0.3472  0.0624  0.1500
  604MOL0     O83238   4.031   1.443   7.688 -0.6702  0.1965  0.2598
  604MOL0     C83239   4.146   1.507   7.739  0.5030  0.2779 -0.2137
  604MOL0     C83240   4.267   1.434   7.731 -0.7387 -0.4102  0.3589
  604MOL0     C83241   4.386   1.472   7.794 -1.3699 -0.1800  0.4862
  604MOL0     C83242   4.508   1.387   7.773  0.1898  0.6140  0.6139
  604MOL0     C83243   4.382   1.595   7.867  0.0774 -0.3177 -0.5885
  604MOL0     C83244   4.500   1.661   7.929 -0.8847  0.4170 -0.4194
  604MOL0     O83245   4.482   1.757   8.031 -0.4046 -0.1261  0.2130
  604MOL0     C83246   4.593   1.820   8.082  0.1380  0.2065  0.1264
  604MOL0     C83247   4.580   1.957   8.121  0.7784  0.8590 -0.2531
  604MOL0     C83248   4.688   2.026   8.179  0.1444  0.2888  0.4682
  604MOL0     C83249   4.813   1.965   8.191 -0.4994 -0.4245 -0.0693
  604MOL0     O83250   4.937   2.034   8.213  1.5530 -0.0244 -0.0841
  604MOL0     C83251   5.026   1.973   8.313  0.6217  0.4048 -0.0783
  604MOL0     C83252   5.121   2.093   8.353  0.5274  0.8521 -0.1053
  604MOL0     C83253   5.068   2.177   8.472  0.0282  0.0646 -0.6548
  604MOL0     C83254   5.164   2.277   8.531  0.3077 -0.5948 -0.2082
  604MOL0     C83255   5.089   2.376   8.616  0.7210 -0.7978 -0.6877
  604MOL0     C83256   5.170   2.488   8.691  0.0595 -1.3843  1.2944
  604MOL0     C83257   5.081   2.606   8.736 -1.3116 -0.0459 -0.7200
  604MOL0     C83258   5.155   2.729   8.786 -0.3355  0.2176  0.0060
  604MOL0    Cl83259   5.030   2.838   8.839 -0.0211 -0.0632 -0.0773
  604MOL0     C83260   4.822   1.824   8.158  0.4262  1.1516 -0.3701
  604MOL0     C83261   4.713   1.756   8.097 -0.7525 -0.2680 -0.6027
  604MOL0     O83262   4.608   1.636   7.869 -0.0886 -0.4125 -0.0475
  604MOL0     C83263   4.266   1.680   7.858 -0.2062 -0.3572 -1.4957
  604MOL0     C83264   4.156   1.635   7.794 -0.3572 -0.5729  0.9844
  604MOL0     N83265   3.419   1.433   7.355  0.5200  0.0087 -1.1974
  604MOL0     N83266   3.307   1.494   7.324  0.4460 -0.1291  0.2354
  604MOL0     C83267   2.228   1.842   7.354 -0.3338 -0.3099  0.9589
  604MOL0     C83268   2.109   1.787   7.394  0.9885  0.4630  0.6641
  604MOL0     C83269   1.734   1.577   7.461 -0.5855  0.1369 -0.1566
  604MOL0     C83270   1.757   1.526   7.588  0.1438 -1.0168  0.4042
  604MOL0     C83271   1.663   1.476   7.669  0.4573  0.2105 -0.1558
  604MOL0     C83272   1.533   1.450   7.628  1.4124  0.0799  0.6968
  604MOL0     O83273   1.447   1.391   7.726  0.6462 -0.0813  0.4554
  604MOL0     C83274   1.300   1.405   7.711 -0.8005 -0.1336  0.3478
  604MOL0     C83275   1.222   1.306   7.801  0.1515  0.2437  0.1681
  604MOL0     C83276   1.080   1.304   7.757  0.2147 -0.2977  0.4175
  604MOL0     C83277   0.985   1.227   7.857 -0.7161  0.7799 -0.0189
  604MOL0     C83278   0.961   1.306   7.976  0.8000  0.6347 -0.1113
  604MOL0     C83279   0.944   1.358   8.083  0.3312  0.2736 -0.7336
  604MOL0     C83280   1.498   1.503   7.498 -0.3975 -0.6376 -0.6370
  604MOL0     C83281   1.599   1.571   7.414  0.0211 -0.0113  0.0297
  604MOL0     C83282   1.565   1.638   7.280 -0.0444 -0.6574  0.0827
  604MOL0     H83283   2.119   1.497   7.202 -0.5245  0.1171  0.3982
  604MOL0     H83284   2.326   1.615   7.127  2.3758  1.3019  1.1737
  604MOL0     H83285   2.530   1.922   7.363  2.2588  0.3657 -0.0271
  604MOL0     H83286   2.422   2.031   7.273 -1.3717 -1.3677 -1.4011
  604MOL0     H83287   2.562   2.050   7.083  0.5132 -3.7401 -1.8517
  604MOL0     H83288   2.648   2.086   7.228  0.1258 -0.5376  0.8682
  604MOL0     H83289   2.699   1.816   7.190 -1.6379 -0.3332 -2.3716
  604MOL0     H83290   2.719   1.894   7.034  4.4545  3.0880  0.0101
  604MOL0     H83291   2.888   2.039   7.120  1.4941 -0.0156  0.0573
  604MOL0     H83292   2.854   1.998   7.283  4.9231  0.4129 -0.2072
  604MOL0     H83293   2.965   1.800   7.065  0.1773 -1.3448  1.0115
  604MOL0     H83294   2.926   1.764   7.242 -0.8913  2.4143  2.4199
  604MOL0     H83295   3.129   1.983   7.148  2.1754  0.0830  0.5383
  604MOL0     H83296   3.088   1.935   7.314  0.6304 -1.1761  1.1187
  604MOL0     H83297   3.296   1.828   7.166 -0.1286  0.2571  0.2089
  604MOL0     H83298   3.182   1.705   7.146  1.1628  0.9309 -0.5596
  604MOL0     H83299   3.278   1.819   7.408 -1.1961 -1.7569  1.4278
  604MOL0     H83300   3.130   1.717   7.389  0.2851 -0.8282 -0.2866
  604MOL0     H83301   3.514   1.742   7.411 -0.2154  0.1433  0.3945
  604MOL0     H83302   3.723   1.592   7.390 -0.1978 -0.3594 -1.9391
  604MOL0     H83303   3.689   1.426   7.362 -5.1389 -1.0436 -1.1262
  604MOL0     H83304   3.658   1.577   7.628  2.5013 -0.2527  1.0667
  604MOL0     H83305   3.584   1.417   7.595  1.0360 -0.8265  0.1923
  604MOL0     H83306   3.759   1.349   7.691 -1.9511  0.9944  0.7898
  604MOL0     H83307   3.827   1.352   7.530 -1.4663 -0.5540  0.1856
  604MOL0     H83308   3.912   1.597   7.586 -1.9677 -1.3455 -1.8137
  604MOL0     H83309   3.851   1.547   7.751 -1.0515 -1.9940  0.1177
  604MOL0     H83310   4.267   1.344   7.671  0.0067 -1.3998  1.7832
  604MOL0     H83311   4.564   1.371   7.866  0.1817 -1.3773  0.3102
  604MOL0     H83312   4.565   1.430   7.690 -1.7546  1.9764 -0.1088
  604MOL0     H83313   4.481   1.290   7.731 -0.1483  1.2401 -0.6666
  604MOL0     H83314   4.489   2.014   8.117  0.5726  0.5085 -4.2646
  604MOL0     H83315   4.683   2.134   8.194  0.7828  0.3511  0.2445
  604MOL0     H83316   4.966   1.929   8.393  1.6899 -2.4922 -0.7545
  604MOL0     H83317   5.075   1.892   8.259  0.0413 -0.6411  0.9386
  604MOL0     H83318   5.212   2.035   8.373 -2.0764 -3.4587  0.6235
  604MOL0     H83319   5.135   2.154   8.264  2.8600  0.2998 -0.1814
  604MOL0     H83320   5.041   2.103   8.547  1.4531 -0.1307 -0.3096
  604MOL0     H83321   4.985   2.234   8.429 -0.4363 -0.7305 -0.8276
  604MOL0     H83322   5.215   2.332   8.452  2.9863  2.7876  3.4829
  604MOL0     H83323   5.228   2.221   8.600  0.5163  1.2832  1.1944
  604MOL0     H83324   5.029   2.439   8.550 -0.0436 -1.8079 -0.9815
  604MOL0     H83325   5.024   2.328   8.690 -1.5879 -2.1744 -3.4603
  604MOL0     H83326   5.241   2.535   8.622  0.0723 -1.4989  1.2282
  604MOL0     H83327   5.234   2.456   8.774  1.5592  2.4202  1.7947
  604MOL0     H83328   5.017   2.581   8.821  1.5894  1.5709  2.1775
  604MOL0     H83329   5.037   2.646   8.645 -0.0881  1.4370 -0.7064
  604MOL0     H83330   5.206   2.773   8.699  2.7584 -1.8812  0.5705
  604MOL0     H83331   5.223   2.703   8.868  1.2813  3.4466 -0.1679
  604MOL0     H83332   4.914   1.767   8.163 -0.7129 -0.8515 -1.1320
  604MOL0     H83333   4.717   1.650   8.072 -5.7062 -1.1378  1.1856
  604MOL0     H83334   4.266   1.779   7.903  1.5688 -1.2997  0.8117
  604MOL0     H83335   4.063   1.691   7.788 -0.8534 -1.2116  2.3485
  604MOL0     H83336   2.251   1.941   7.393 -3.2364 -0.4432  3.3954
  604MOL0     H83337   2.046   1.839   7.465 -0.8204 -2.3337  1.2887
  604MOL0     H83338   1.857   1.543   7.626 -1.4658  3.6125  3.5069
  604MOL0     H83339   1.700   1.451   7.768  6.0117 -0.5065 -2.0308
  604MOL0     H83340   1.271   1.508   7.735 -1.4818  0.8039 -3.8032
  604MOL0     H83341   1.270   1.399   7.606  0.4667  1.4665 -0.1549
  604MOL0     H83342   1.237   1.356   7.897  0.2557  0.2239  0.1619
  604MOL0     H83343   1.257   1.203   7.805 -4.0327 -1.4474 -1.3037
  604MOL0     H83344   1.049   1.407   7.735  0.4219 -0.3337 -0.0542
  604MOL0     H83345   1.071   1.262   7.656  2.6207 -1.5204  0.6415
  604MOL0     H83346   1.046   1.141   7.886  2.7242  2.3373 -1.9569
  604MOL0     H83347   0.884   1.205   7.820 -0.6506  0.1629  0.1677
  604MOL0     H83348   0.916   1.379   8.184  1.4711 -1.7757  0.0776
  604MOL0     H83349   1.392   1.496   7.473 -0.7797 -4.6629  1.3474
  604MOL0     H83350   1.466   1.628   7.234 -0.5358  1.6746  0.4779
  604MOL0     H83351   1.566   1.746   7.298 -0.5877  0.0022 -3.1891
  604MOL0     H83352   1.644   1.616   7.208  1.1228  1.2561  0.7133
  605MOL0     O83353   6.309   1.785   5.983 -0.4916  0.8048 -0.4600
  605MOL0     C83354   6.304   1.907   5.998 -0.5062 -0.3004  1.0559
  605MOL0     O83355   6.413   1.989   6.013 -0.1877 -0.1021 -0.3423
  605MOL0     C83356   6.540   1.927   6.035  0.6094  0.3280  0.9810
  605MOL0     C83357   6.557   1.819   6.124  1.0260  0.5705  0.3621
  605MOL0     C83358   6.689   1.782   6.157  0.2301 -0.0770 -0.0450
  605MOL0     C83359   6.798   1.839   6.093  0.0973 -0.6437  0.5887
  605MOL0     O83360   6.921   1.814   6.144 -0.4335 -0.9875 -0.0703
  605MOL0     C83361   7.015   1.931   6.145 -0.2304 -0.2500  0.3435
  605MOL0     C83362   7.133   1.881   6.227  0.7454  0.5772 -0.2910
  605MOL0     C83363   7.107   1.881   6.382  0.7527  0.1096  0.8649
  605MOL0     C83364   7.233   1.878   6.467  0.8219 -1.1899  0.5010
  605MOL0     C83365   7.197   1.929   6.608 -0.4995 -0.4938  0.3620
  605MOL0     C83366   7.280   1.887   6.732  0.6254  0.2122  0.8263
  605MOL0     C83367   7.230   1.953   6.858  0.3647  0.1632 -0.2039
  605MOL0     C83368   7.323   1.934   6.976  0.1208  0.3252  0.5831
  605MOL0     N83369   7.351   1.798   7.026  0.6093  0.9796 -0.7979
  605MOL0     C83370   7.262   1.720   7.099 -0.4385  1.0682 -0.4303
  605MOL0     C83371   7.324   1.595   7.102 -0.0399  0.0904  0.2277
  605MOL0     C83372   7.269   1.490   7.197  0.3772 -0.1903  0.4271
  605MOL0     C83373   7.381   1.430   7.284  0.4775  0.5574 -0.7877
  605MOL0     C83374   7.448   1.314   7.205  0.9754 -0.0039 -0.2120
  605MOL0     C83375   7.589   1.280   7.254  0.6008  0.8923 -0.1782
  605MOL0     O83376   7.643   1.177   7.179 -0.0761  0.0626 -0.1641
  605MOL0     C83377   7.721   1.098   7.254  0.2145 -0.2057  0.2548
  605MOL0     C83378   7.678   1.018   7.349  0.6312  0.4217  0.1267
  605MOL0     C83379   7.750   0.944   7.439 -1.2719 -0.3508 -0.0671
  605MOL0     C83380   7.681   0.872   7.546  0.4638  0.3100 -0.1782
  605MOL0     C83381   7.893   0.962   7.428 -0.2354  0.2077  0.3591
  605MOL0     C83382   7.989   0.912   7.531  0.5051  0.5334  0.5844
  605MOL0     O83383   8.090   0.988   7.571 -0.2280  0.2741 -0.5866
  605MOL0     C83384   8.194   0.925   7.642  0.4390 -1.0353 -0.2380
  605MOL0     C83385   8.188   0.878   7.775  0.1892 -0.1228 -1.0737
  605MOL0     C83386   8.300   0.817   7.831  0.7077  0.1736 -0.3129
  605MOL0     C83387   8.427   0.811   7.768  0.1253 -0.0193  0.4169
  605MOL0     O83388   8.516   0.744   7.841 -0.2051  0.1354 -0.5490
  605MOL0     C83389   8.659   0.759   7.813  0.4323  0.1409 -0.0626
  605MOL0     C83390   8.727   0.630   7.839 -0.9337  0.0730 -0.5777
  605MOL0     C83391   8.682   0.519   7.753 -0.3182 -0.0955 -1.2041
  605MOL0     C83392   8.787   0.414   7.734  0.5191  0.0916  0.3037
  605MOL0     C83393   8.826   0.338   7.863 -0.2358  0.5804 -0.1047
  605MOL0     C83394   8.722   0.239   7.915 -0.1741 -0.2653  0.0254
  605MOL0     C83395   8.779   0.125   8.001 -0.7147 -0.4710  0.4094
  605MOL0     C83396   8.860   0.190   8.110  0.4552  0.5210 -0.2259
  605MOL0    Cl83397   8.761   0.310   8.204  0.0440  0.0502 -0.7378
  605MOL0     C83398   8.431   0.848   7.631  0.8366 -0.6888 -0.0903
  605MOL0     C83399   8.312   0.904   7.579 -0.3102  0.5934  0.2398
  605MOL0     O83400   7.982   0.790   7.562 -0.4586 -0.0965  0.6216
  605MOL0     C83401   7.942   1.042   7.327  0.3452  0.2457  0.1251
  605MOL0     C83402   7.853   1.103   7.231  0.3611  0.5165  0.0151
  605MOL0     N83403   7.444   1.602   7.029  0.6939  0.3959 -0.0319
  605MOL0     N83404   7.445   1.717   6.968 -0.0566  0.4029 -0.6155
  605MOL0     C83405   6.778   1.933   5.992  0.4944  0.0800 -0.6778
  605MOL0     C83406   6.647   1.979   5.967 -0.1883  0.4434  0.9484
  605MOL0     C83407   6.174   1.973   5.977 -0.7659  0.0100 -0.0526
  605MOL0     C83408   6.161   2.091   6.058 -0.6994  0.4698  0.8694
  605MOL0     C83409   6.047   2.171   6.051  0.5964 -0.0979  0.6885
  605MOL0     C83410   5.939   2.136   5.967  0.1551  0.1738  0.5873
  605MOL0     O83411   5.825   2.216   5.930  0.1242  0.8414 -0.6532
  605MOL0     C83412   5.804   2.339   6.001  0.3114 -0.3891 -0.3075
  605MOL0     C83413   5.828   2.465   5.925  0.2076 -0.1556  0.1937
  605MOL0     C83414   5.746   2.466   5.796 -0.2856 -0.7401  0.0676
  605MOL0     C83415   5.598   2.480   5.821 -0.5096  0.0582  0.8790
  605MOL0     C83416   5.530   2.347   5.850  0.3088 -0.8436 -0.1934
  605MOL0     C83417   5.463   2.240   5.861 -0.0141  0.1302 -0.4218
  605MOL0     C83418   5.949   2.015   5.894 -0.3371  0.1035 -1.2063
  605MOL0     C83419   6.064   1.936   5.897 -0.4711 -0.3617 -0.2864
  605MOL0     C83420   6.061   1.816   5.809 -0.0645 -0.1170 -0.5509
  605MOL0     H83421   6.478   1.764   6.173 -0.1942  2.9178  1.1356
  605MOL0     H83422   6.698   1.715   6.243  0.8739  1.3558  1.0552
  605MOL0     H83423   6.971   2.020   6.192  1.5497 -1.0975  3.9789
  605MOL0     H83424   7.048   1.950   6.043  1.1174  0.7761  0.9562
  605MOL0     H83425   7.159   1.780   6.194  0.3251  0.9396 -1.7849
  605MOL0     H83426   7.219   1.945   6.205  1.4177 -0.3966 -0.5186
  605MOL0     H83427   7.040   1.965   6.404  0.3807 -0.0580  0.4074
  605MOL0     H83428   7.052   1.795   6.421 -0.0330  1.7057  3.5491
  605MOL0     H83429   7.271   1.776   6.481  1.3859 -0.7727  2.2760
  605MOL0     H83430   7.315   1.936   6.424 -2.5912  1.8241 -2.6029
  605MOL0     H83431   7.103   1.879   6.632 -0.5948 -1.1778 -1.3066
  605MOL0     H83432   7.175   2.035   6.622  0.2296 -0.1465 -0.9860
  605MOL0     H83433   7.283   1.779   6.752 -1.2168  0.1454  0.8996
  605MOL0     H83434   7.384   1.915   6.714  1.0121  0.1213  2.7175
  605MOL0     H83435   7.129   1.919   6.885 -0.1470  2.5700  1.1805
  605MOL0     H83436   7.224   2.062   6.850 -1.8985 -0.0156 -2.2621
  605MOL0     H83437   7.418   1.972   6.935 -1.2525  0.2993 -2.9733
  605MOL0     H83438   7.285   1.997   7.056 -2.2738 -0.2715 -0.0199
  605MOL0     H83439   7.168   1.733   7.153  0.5148  0.5789  1.4215
  605MOL0     H83440   7.227   1.401   7.147 -0.0680 -0.5972  1.4897
  605MOL0     H83441   7.193   1.532   7.264 -1.0832  1.2982 -1.9910
  605MOL0     H83442   7.460   1.501   7.313  4.3969 -3.1408 -1.2952
  605MOL0     H83443   7.337   1.379   7.370 -1.3851 -1.9210 -3.0689
  605MOL0     H83444   7.388   1.223   7.213 -1.0718  1.4642  2.9829
  605MOL0     H83445   7.455   1.343   7.100  0.0329  3.2313  0.5160
  605MOL0     H83446   7.654   1.368   7.240  0.5139  0.7478 -1.6681
  605MOL0     H83447   7.585   1.266   7.362 -3.1078 -0.5586 -0.3925
  605MOL0     H83448   7.569   1.012   7.351  0.6706 -0.5848 -0.0345
  605MOL0     H83449   7.574   0.893   7.547  1.0401  3.8627 -0.4461
  605MOL0     H83450   7.726   0.893   7.644  1.1032 -1.9998  0.1011
  605MOL0     H83451   7.690   0.763   7.534 -1.8318 -0.6359  4.4084
  605MOL0     H83452   8.100   0.879   7.839 -1.1298 -1.7143 -2.7712
  605MOL0     H83453   8.290   0.790   7.936 -2.7392 -4.3679 -1.4643
  605MOL0     H83454   8.682   0.783   7.708  2.4874  0.3190  0.3994
  605MOL0     H83455   8.690   0.840   7.879 -1.4861 -0.2431  1.3857
  605MOL0     H83456   8.836   0.641   7.836 -0.9687  0.9176  0.7812
  605MOL0     H83457   8.703   0.597   7.940  2.2589 -1.4016 -0.1568
  605MOL0     H83458   8.666   0.569   7.657  1.0642  1.0090 -0.9010
  605MOL0     H83459   8.593   0.478   7.801  1.3517 -0.3226  1.9967
  605MOL0     H83460   8.879   0.464   7.701  1.2802 -0.0470  2.1040
  605MOL0     H83461   8.754   0.341   7.659  0.5782 -2.7515  2.8652
  605MOL0     H83462   8.913   0.278   7.835  0.6671  0.4974  2.5671
  605MOL0     H83463   8.847   0.415   7.939 -4.1029  1.3290  0.3967
  605MOL0     H83464   8.669   0.200   7.827 -0.0785  0.0821 -0.1905
  605MOL0     H83465   8.642   0.286   7.974 -0.2289 -0.8040  0.3865
  605MOL0     H83466   8.832   0.052   7.939  2.2560  0.2300  1.9157
  605MOL0     H83467   8.700   0.068   8.051  1.3399 -1.6551  2.5329
  605MOL0     H83468   8.947   0.245   8.071 -0.9309  1.2712 -2.4368
  605MOL0     H83469   8.912   0.125   8.181 -0.4921 -0.3571 -0.3192
  605MOL0     H83470   8.512   0.831   7.560 -0.0652 -2.3493 -0.7668
  605MOL0     H83471   8.309   0.924   7.472 -0.8134 -0.4170  0.0459
  605MOL0     H83472   8.050   1.046   7.318  0.3515 -1.1174 -0.7194
  605MOL0     H83473   7.888   1.165   7.149 -0.1698 -0.6277 -1.0980
  605MOL0     H83474   6.859   1.984   5.940 -1.9707  3.8035 -1.2454
  605MOL0     H83475   6.625   2.059   5.897  3.0769  0.1513 -0.5859
  605MOL0     H83476   6.240   2.110   6.130  0.7513 -1.0250 -0.2512
  605MOL0     H83477   6.051   2.265   6.105 -0.8749 -1.0773  2.6113
  605MOL0     H83478   5.703   2.353   6.043 -0.1370 -2.0761 -0.7617
  605MOL0     H83479   5.868   2.342   6.089  0.9202 -1.6427 -0.6944
  605MOL0     H83480   5.935   2.467   5.901 -0.0956 -0.7538 -1.2942
  605MOL0     H83481   5.804   2.544   5.996  0.8332 -1.6298  2.1389
  605MOL0     H83482   5.762   2.556   5.737 -0.5085 -0.0902  0.9707
  605MOL0     H83483   5.766   2.383   5.728 -1.0515  1.1092 -2.5660
  605MOL0     H83484   5.547   2.539   5.744 -2.8572  3.0374  4.3608
  605MOL0     H83485   5.586   2.546   5.906 -3.2643 -0.3959  0.9429
  605MOL0     H83486   5.412   2.147   5.872  0.7990 -0.1393  1.5379
  605MOL0     H83487   5.864   1.995   5.830  1.7910 -1.5457 -3.7664
  605MOL0     H83488   6.164   1.783   5.793 -0.1491  0.1241 -1.6965
  605MOL0     H83489   6.013   1.739   5.869 -3.2292  1.2381 -1.1429
  605MOL0     H83490   6.005   1.838   5.717 -0.8033 -2.0075 -0.5890
  606MOL0     O83491   7.075  10.034   2.484  0.8869  0.2620 -0.4089
  606MOL0     C83492   7.193  10.008   2.453 -0.3915  0.0945  0.2969
  606MOL0     O83493   7.303  10.069   2.503 -0.5777 -0.5125  0.2890
  606MOL0     C83494   7.307  10.141   2.617  0.7897  0.6578  0.1750
  606MOL0     C83495   7.414  10.221   2.649  0.1282  0.1767  0.4020
  606MOL0     C83496   7.422  10.287   2.775 -0.2040 -0.9533 -0.1171
  606MOL0     C83497   7.327  10.263   2.873 -0.1183 -0.1676 -0.0797
  606MOL0     O83498   7.353  10.325   2.994  0.1632  0.3281 -0.6430
  606MOL0     C83499   7.412  10.237   3.088 -0.1994 -0.5422 -0.4365
  606MOL0     C83500   7.388  10.274   3.229 -1.0613  0.3640  0.1380
  606MOL0     C83501   7.470  10.400   3.256 -0.4737  0.9423 -0.7717
  606MOL0     C83502   7.463  10.447   3.403 -0.0437 -0.3934 -1.0039
  606MOL0     C83503   7.538  10.589   3.421  0.7472  0.1873  0.1996
  606MOL0     C83504   7.468  10.696   3.333 -0.0870 -0.1280  0.1369
  606MOL0     C83505   7.504  10.843   3.368 -0.3883 -0.6371 -0.0261
  606MOL0     C83506   7.437  10.899   3.498  0.5275  0.5902  0.4644
  606MOL0     N83507   7.291  10.909   3.484  0.1378  0.7777  0.0014
  606MOL0     C83508   7.206  10.876   3.378  0.2274 -0.0186 -0.3790
  606MOL0     C83509   7.078  10.878   3.432  0.6173 -0.3875  0.5126
  606MOL0     C83510   6.953  10.853   3.358 -0.5191  0.4776  0.3118
  606MOL0     C83511   6.976  10.723   3.272 -0.4420 -0.9888 -0.3974
  606MOL0     C83512   6.854  10.679   3.188  0.0207  0.8382 -0.2727
  606MOL0     C83513   6.873  10.538   3.141 -0.6265  0.2821 -1.5160
  606MOL0     O83514   6.874  10.445   3.249  0.9357 -0.3913 -0.1353
  606MOL0     C83515   6.914  10.316   3.225  1.2468 -0.8648  0.8168
  606MOL0     C83516   6.996  10.254   3.327  0.1436  0.0527  0.2191
  606MOL0     C83517   7.052  10.129   3.306  1.4461  0.6937  0.2063
  606MOL0     C83518   7.138  10.080   3.423 -0.6552  1.1395  0.0985
  606MOL0     C83519   7.018  10.053   3.193 -0.6398  0.6401 -0.2450
  606MOL0     C83520   7.075   9.915   3.167 -0.4824 -0.0723 -0.4262
  606MOL0     O83521   7.181   9.884   3.240 -0.4726  0.4777 -0.1325
  606MOL0     C83522   7.241   9.765   3.225  0.1304 -0.5242  0.1590
  606MOL0     C83523   7.310   9.729   3.106 -0.7043  0.4920  0.2984
  606MOL0     C83524   7.343   9.590   3.090  0.3369  0.0390  0.5623
  606MOL0     C83525   7.318   9.502   3.191 -0.6928  0.4434 -0.7437
  606MOL0     O83526   7.360   9.373   3.171  0.1567 -0.4762  0.3670
  606MOL0     C83527   7.410   9.282   3.277 -0.0349 -0.7987  1.8547
  606MOL0     C83528   7.376   9.139   3.234 -0.7200  0.2823 -0.1200
  606MOL0     C83529   7.408   9.033   3.325  0.1420  0.4953 -0.0782
  606MOL0     C83530   7.310   9.029   3.439  0.1838  0.1274  0.3725
  606MOL0     C83531   7.315   8.899   3.517  0.0501  0.5694  0.1294
  606MOL0     C83532   7.182   8.883   3.595 -1.3553  0.6823  0.2451
  606MOL0     C83533   7.178   8.745   3.655  0.2854 -0.1014 -0.6008
  606MOL0     C83534   7.278   8.704   3.764 -0.9945  0.0271 -0.3260
  606MOL0    Cl83535   7.203   8.553   3.824  0.0650 -0.3066  0.0539
  606MOL0     C83536   7.236   9.538   3.303  0.2828  0.8551  0.2512
  606MOL0     C83537   7.209   9.676   3.321 -0.5044  1.4528  0.1652
  606MOL0     O83538   7.017   9.841   3.090 -0.7860  0.2538  0.2095
  606MOL0     C83539   6.953  10.118   3.092  0.9783  0.6420  0.5999
  606MOL0     C83540   6.901  10.247   3.104 -0.2971  0.0514  0.0761
  606MOL0     N83541   7.097  10.903   3.569  0.1182  0.1569  0.2649
  606MOL0     N83542   7.220  10.935   3.596 -0.0404 -0.3802  0.2428
  606MOL0     C83543   7.215  10.194   2.846  0.5029 -0.2357 -0.0672
  606MOL0     C83544   7.205  10.129   2.720 -0.4703 -0.3928 -0.8249
  606MOL0     C83545   7.218   9.926   2.327  0.5588  0.3000  0.2403
  606MOL0     C83546   7.331   9.956   2.253 -0.8172 -0.9677  0.0365
  606MOL0     C83547   7.351   9.900   2.128  0.2421  0.3106  0.2905
  606MOL0     C83548   7.272   9.796   2.080  0.2507  0.0287  0.0756
  606MOL0     O83549   7.288   9.735   1.960 -0.5698  0.3159 -0.4711
  606MOL0     C83550   7.380   9.778   1.857  0.3401  0.5104  0.0335
  606MOL0     C83551   7.321   9.899   1.786 -0.0178 -1.0026  0.4507
  606MOL0     C83552   7.409   9.953   1.666 -0.5447 -0.3844  0.0314
  606MOL0     C83553   7.564   9.962   1.697  0.2563 -0.1300  0.1961
  606MOL0     C83554   7.598  10.042   1.813  0.2913 -0.1899 -0.2055
  606MOL0     C83555   7.624  10.108   1.909  0.2069  0.1571  0.3636
  606MOL0     C83556   7.164   9.765   2.161 -0.5779  0.1102  0.4132
  606MOL0     C83557   7.131   9.831   2.278 -0.0959  0.2765  0.6227
  606MOL0     C83558   7.028   9.763   2.354 -0.9122 -0.1656  0.4781
  606MOL0     H83559   7.492  10.240   2.575 -2.0663  0.8973 -1.8683
  606MOL0     H83560   7.503  10.355   2.798 -0.1976 -1.3016  0.9316
  606MOL0     H83561   7.519  10.220   3.068 -0.5893 -6.0861  0.6647
  606MOL0     H83562   7.374  10.136   3.076  0.7633 -1.1218  1.0356
  606MOL0     H83563   7.284  10.300   3.249 -1.1437  0.3990 -0.3372
  606MOL0     H83564   7.414  10.201   3.306  0.8367  2.3301  1.5142
  606MOL0     H83565   7.575  10.386   3.228 -0.8464 -4.0046 -0.6284
  606MOL0     H83566   7.421  10.480   3.200 -2.6531  0.5034  0.3974
  606MOL0     H83567   7.364  10.461   3.447  1.1651 -0.4739  1.9769
  606MOL0     H83568   7.515  10.375   3.467  1.5458 -0.2442 -2.0588
  606MOL0     H83569   7.645  10.580   3.401  0.9050 -1.1923  1.4741
  606MOL0     H83570   7.530  10.628   3.523 -0.2264 -1.8782  0.9680
  606MOL0     H83571   7.516  10.679   3.236 -0.4364 -0.0789 -0.0462
  606MOL0     H83572   7.362  10.679   3.315 -1.0895  1.7961  3.2578
  606MOL0     H83573   7.488  10.908   3.282 -0.1752 -1.8046 -0.9716
  606MOL0     H83574   7.612  10.843   3.380 -0.4303  1.1266  0.5563
  606MOL0     H83575   7.448  10.836   3.587 -0.1338  0.1592  0.2444
  606MOL0     H83576   7.481  10.998   3.513 -0.8000  1.1873  0.5455
  606MOL0     H83577   7.239  10.834   3.283  4.0213 -2.1645  1.6500
  606MOL0     H83578   6.923  10.938   3.295  0.5118 -0.3679 -1.3848
  606MOL0     H83579   6.871  10.837   3.429 -0.2230  2.4803  1.1828
  606MOL0     H83580   7.054  10.734   3.195  0.8390  1.2620  1.0828
  606MOL0     H83581   7.003  10.639   3.336  1.0072 -2.8363 -3.2065
  606MOL0     H83582   6.762  10.706   3.241  1.3082  1.7988  1.6018
  606MOL0     H83583   6.854  10.724   3.089  2.4722 -0.0819 -0.7677
  606MOL0     H83584   6.793  10.518   3.069 -2.9700  1.9197  0.4704
  606MOL0     H83585   6.970  10.513   3.098 -0.6321 -5.5778  0.9294
  606MOL0     H83586   7.017  10.315   3.415 -1.0363 -0.2135  0.7086
  606MOL0     H83587   7.125   9.981   3.467  1.9570  0.0100 -1.5004
  606MOL0     H83588   7.142  10.149   3.508  1.8553  0.4911  0.5834
  606MOL0     H83589   7.240  10.072   3.387 -0.0222  0.9052  1.8280
  606MOL0     H83590   7.333   9.803   3.030  0.6915 -0.2986 -0.0845
  606MOL0     H83591   7.396   9.542   3.008  2.1843 -2.5962  3.1251
  606MOL0     H83592   7.519   9.281   3.278 -0.0159 -0.6029  0.7279
  606MOL0     H83593   7.376   9.303   3.379 -2.3712 -1.4553  1.2635
  606MOL0     H83594   7.273   9.135   3.196 -0.2643  1.6565 -1.6298
  606MOL0     H83595   7.438   9.109   3.149  0.9166 -1.6059  1.6596
  606MOL0     H83596   7.500   9.041   3.384  0.2988  0.9311 -0.3760
  606MOL0     H83597   7.397   8.936   3.276 -3.5422 -0.9782  3.1493
  606MOL0     H83598   7.211   9.039   3.394  0.5384 -1.8789 -1.0108
  606MOL0     H83599   7.349   9.112   3.498  2.4962 -0.1265 -0.6871
  606MOL0     H83600   7.315   8.809   3.455 -1.5952  0.4633  0.2371
  606MOL0     H83601   7.401   8.897   3.584 -0.2223  1.5989  0.5351
  606MOL0     H83602   7.099   8.895   3.525 -2.5543  0.5695  1.6074
  606MOL0     H83603   7.170   8.959   3.672 -2.3552  0.1148  0.6643
  606MOL0     H83604   7.156   8.675   3.574 -1.7186  0.8664 -0.9766
  606MOL0     H83605   7.083   8.740   3.710 -1.4196  3.6071 -2.7610
  606MOL0     H83606   7.288   8.771   3.850 -0.8786  1.6041 -1.5292
  606MOL0     H83607   7.372   8.687   3.712 -2.0153 -0.2450 -2.2037
  606MOL0     H83608   7.205   9.458   3.369  1.1422  1.0070  0.8549
  606MOL0     H83609   7.165   9.715   3.412  1.1461  0.6190  1.3672
  606MOL0     H83610   6.938  10.065   2.998 -0.9235  1.9894  0.0589
  606MOL0     H83611   6.877  10.299   3.011 -2.1899 -3.0025 -1.3090
  606MOL0     H83612   7.136  10.177   2.919 -1.4461 -0.2775 -2.0745
  606MOL0     H83613   7.124  10.057   2.715 -0.0439 -0.7997 -2.3818
  606MOL0     H83614   7.386  10.047   2.273 -0.3798 -1.5164  1.4460
  606MOL0     H83615   7.431   9.945   2.070  2.2250 -3.1185  0.0501
  606MOL0     H83616   7.479   9.808   1.892  0.4122  1.0232 -0.5957
  606MOL0     H83617   7.381   9.691   1.791  0.1403  0.1282  0.5228
  606MOL0     H83618   7.300   9.963   1.873  2.7797 -1.9963  1.9773
  606MOL0     H83619   7.223   9.875   1.744 -0.5466 -2.4427  2.3461
  606MOL0     H83620   7.396   9.888   1.580  0.5213 -2.9925  1.7147
  606MOL0     H83621   7.367  10.052   1.646 -4.4083 -2.0380 -0.9355
  606MOL0     H83622   7.611  10.003   1.607  4.4266  3.5804  3.5885
  606MOL0     H83623   7.603   9.861   1.707  0.1605 -0.6941 -3.6227
  606MOL0     H83624   7.643  10.170   1.995  5.0510 -0.4152 -0.0213
  606MOL0     H83625   7.104   9.680   2.131  3.3441 -3.1451  0.9924
  606MOL0     H83626   6.947   9.832   2.380  0.8552  1.9789  0.6425
  606MOL0     H83627   6.973   9.691   2.293 -3.4746 -0.2326  2.7109
  606MOL0     H83628   7.069   9.722   2.446 -1.3096  2.4749  1.9248
  607MOL0     O83629  10.928  11.379  11.499 -0.0764  0.7811 -0.0909
  607MOL0     C83630  10.884  11.412  11.392  0.0942  0.1992 -0.1709
  607MOL0     O83631  10.897  11.538  11.331  0.4344  0.7996 -0.0371
  607MOL0     C83632  10.950  11.641  11.401  0.2657 -0.1635  0.9454
  607MOL0     C83633  10.880  11.766  11.403 -0.2149  0.0370 -0.3630
  607MOL0     C83634  10.931  11.877  11.478  0.5536  0.3240 -0.9169
  607MOL0     C83635  11.051  11.869  11.537  0.4739 -1.6613  0.0193
  607MOL0     O83636  11.093  11.975  11.616  0.1152  0.2159 -0.2477
  607MOL0     C83637  11.165  12.081  11.541  0.1426  1.0237  0.3412
  607MOL0     C83638  11.260  12.138  11.643  0.2179 -0.9475 -0.7942
  607MOL0     C83639  11.395  12.062  11.666  0.4752 -0.3983  0.4082
  607MOL0     C83640  11.487  12.131  11.777 -0.5399  0.8035  0.0616
  607MOL0     C83641  11.515  12.281  11.741 -0.2867 -0.5183 -0.4243
  607MOL0     C83642  11.619  12.337  11.834  0.4906 -0.8304 -0.1075
  607MOL0     C83643  11.658  12.482  11.805 -0.2636 -0.2111 -0.5328
  607MOL0     C83644  11.754  12.505  11.689 -0.4158  1.0977 -0.4007
  607MOL0     N83645  11.885  12.434  11.713  0.3374 -0.2362 -0.4371
  607MOL0     C83646  11.958  12.414  11.833 -0.1201  0.3038  0.5451
  607MOL0     C83647  12.070  12.351  11.790  0.3272  0.0401 -0.1888
  607MOL0     C83648  12.185  12.307  11.872  0.0030 -0.2140 -0.2174
  607MOL0     C83649  12.301  12.405  11.864  0.6601  0.2749  1.0154
  607MOL0     C83650  12.417  12.348  11.948  0.1671 -0.3172 -0.4671
  607MOL0     C83651  12.544  12.432  11.915  0.0114  0.2960  0.4259
  607MOL0     O83652  12.648  12.417  12.013 -0.1849 -0.6073  0.1203
  607MOL0     C83653  12.766  12.481  11.989 -0.7926 -0.1417 -0.4468
  607MOL0     C83654  12.870  12.453  12.074  0.6366  0.2780  0.2119
  607MOL0     C83655  12.996  12.505  12.048 -0.5909 -0.2556 -0.9100
  607MOL0     C83656  13.104  12.446  12.147 -0.5995 -0.7078  0.1697
  607MOL0     C83657  13.017  12.601  11.939  0.7310  0.0005 -0.6487
  607MOL0     C83658  13.143  12.675  11.910  0.3754  1.0294 -0.1975
  607MOL0     O83659  13.156  12.784  11.825 -0.1082 -0.3551  0.0461
  607MOL0     C83660  13.271  12.854  11.794 -0.3736 -0.2603 -0.6807
  607MOL0     C83661  13.391  12.861  11.872  0.3556 -0.5844  0.2321
  607MOL0     C83662  13.506  12.919  11.811  0.0631 -0.5503 -0.2949
  607MOL0     C83663  13.494  12.982  11.690  0.6617 -0.4669 -0.2428
  607MOL0     O83664  13.604  13.043  11.632 -0.0741  1.0162 -0.1263
  607MOL0     C83665  13.631  13.182  11.669  0.2851 -0.9274 -0.3108
  607MOL0     C83666  13.757  13.235  11.606 -0.6815  0.1461 -0.4647
  607MOL0     C83667  13.745  13.391  11.602  0.2760 -0.0780 -0.3304
  607MOL0     C83668  13.877  13.447  11.531  0.5622 -0.0035 -0.2302
  607MOL0     C83669  13.900  13.596  11.581  0.4429 -0.1856 -0.3462
  607MOL0     C83670  14.033  13.650  11.522 -0.2938  0.9315  0.0157
  607MOL0     C83671  14.043  13.675  11.369  0.8862 -1.0886  0.0768
  607MOL0     C83672  14.186  13.726  11.327 -0.1454 -0.0197  0.5002
  607MOL0    Cl83673  14.286  13.583  11.340  0.2161 -0.1193  0.0488
  607MOL0     C83674  13.368  12.987  11.626 -0.4021 -0.0613 -0.0912
  607MOL0     C83675  13.259  12.918  11.671 -0.2046 -0.1319  0.0787
  607MOL0     O83676  13.242  12.614  11.949  0.6982  0.4403 -0.2227
  607MOL0     C83677  12.901  12.641  11.869  0.7917  0.3285 -0.0231
  607MOL0     C83678  12.789  12.580  11.895  0.8725  0.9403 -0.1134
  607MOL0     N83679  12.059  12.329  11.654  0.3371 -1.3400 -0.8781
  607MOL0     N83680  11.951  12.390  11.611 -0.0065 -0.0340  0.1047
  607MOL0     C83681  11.113  11.742  11.546  0.5539 -0.0359 -0.0626
  607MOL0     C83682  11.064  11.634  11.470  0.4756  0.4073 -0.8746
  607MOL0     C83683  10.803  11.313  11.323 -0.5647 -0.5558  0.2734
  607MOL0     C83684  10.702  11.357  11.231 -0.4669 -0.2641  0.5501
  607MOL0     C83685  10.615  11.266  11.154  0.2537  0.5533 -0.2364
  607MOL0     C83686  10.637  11.134  11.177  0.5619  0.0015 -0.0044
  607MOL0     O83687  10.557  11.035  11.133 -0.4774 -1.3107  0.3435
  607MOL0     C83688  10.444  11.064  11.049  0.0643  0.5962 -0.3508
  607MOL0     C83689  10.377  10.936  10.989  0.4649  0.7586 -0.8099
  607MOL0     C83690  10.268  10.991  10.895 -0.1881  0.0288 -0.3282
  607MOL0     C83691  10.230  10.891  10.779 -0.0225 -0.4059 -0.4373
  607MOL0     C83692  10.213  10.754  10.831 -0.5078 -0.1066 -0.6890
  607MOL0     C83693  10.202  10.633  10.849  0.1842  0.9916  0.2991
  607MOL0     C83694  10.739  11.083  11.254 -0.1738 -0.2974  0.3849
  607MOL0     C83695  10.816  11.167  11.332  0.2273 -0.4249 -0.8058
  607MOL0     C83696  10.927  11.105  11.415  0.1031  0.0332 -0.6533
  607MOL0     H83697  10.785  11.775  11.351 -1.0947  0.9006  1.3083
  607MOL0     H83698  10.885  11.974  11.462  0.7168  0.1677 -2.5258
  607MOL0     H83699  11.111  12.163  11.494  0.7840  1.3831  0.2167
  607MOL0     H83700  11.222  12.028  11.464  0.5865  0.1516  1.2451
  607MOL0     H83701  11.276  12.242  11.613 -0.6638 -0.1214  1.3368
  607MOL0     H83702  11.200  12.143  11.735 -0.1600 -2.1939 -0.9552
  607MOL0     H83703  11.382  11.955  11.684 -3.3717 -0.0325  0.6498
  607MOL0     H83704  11.458  12.068  11.577  0.6695 -0.6362  0.5290
  607MOL0     H83705  11.426  12.113  11.866 -0.5834 -0.7263 -0.2388
  607MOL0     H83706  11.582  12.078  11.785 -0.3945  1.1150  0.4042
  607MOL0     H83707  11.422  12.338  11.748  0.9441  1.8532 -2.0728
  607MOL0     H83708  11.553  12.285  11.639 -2.0024 -0.7700 -1.1058
  607MOL0     H83709  11.569  12.353  11.930  0.0894  2.7070 -0.7659
  607MOL0     H83710  11.702  12.266  11.840  3.7997  2.4975 -2.2373
  607MOL0     H83711  11.711  12.507  11.897  0.4648 -0.9983 -0.7185
  607MOL0     H83712  11.574  12.550  11.794  0.3742  0.4468 -1.5199
  607MOL0     H83713  11.702  12.462  11.603  0.4868 -0.0271 -0.4078
  607MOL0     H83714  11.773  12.613  11.687 -0.3476  1.2183  2.8060
  607MOL0     H83715  11.926  12.425  11.936 -1.7679 -2.7146  0.4735
  607MOL0     H83716  12.219  12.212  11.829  1.2269  1.0302 -2.1667
  607MOL0     H83717  12.159  12.296  11.977  1.2355 -1.4620 -0.0158
  607MOL0     H83718  12.335  12.402  11.761 -0.0497 -0.4769  0.7889
  607MOL0     H83719  12.267  12.508  11.876 -1.0792  0.4316 -3.3821
  607MOL0     H83720  12.403  12.364  12.055  4.1508  1.7532 -0.0581
  607MOL0     H83721  12.420  12.241  11.924 -3.4977 -0.5500 -0.4289
  607MOL0     H83722  12.580  12.407  11.815 -1.1927 -1.9255  0.4723
  607MOL0     H83723  12.509  12.535  11.912 -3.1792 -0.6512 -2.7352
  607MOL0     H83724  12.861  12.381  12.155 -1.1741 -1.8815 -1.7374
  607MOL0     H83725  13.205  12.488  12.143  0.4945 -3.2227 -0.5341
  607MOL0     H83726  13.104  12.338  12.133 -1.6042 -0.6193 -0.6861
  607MOL0     H83727  13.060  12.463  12.246 -0.1493  0.7548  0.1454
  607MOL0     H83728  13.401  12.816  11.970  0.2088 -0.1044  0.4710
  607MOL0     H83729  13.606  12.934  11.850  0.2100 -1.4365 -0.3033
  607MOL0     H83730  13.547  13.241  11.633  1.3853 -1.3381 -4.0886
  607MOL0     H83731  13.636  13.199  11.777 -2.6759 -1.0445 -0.0762
  607MOL0     H83732  13.845  13.206  11.665 -0.2964  2.3505  0.1286
  607MOL0     H83733  13.758  13.191  11.506 -0.4472  3.4235 -2.0238
  607MOL0     H83734  13.744  13.441  11.700  1.4892  0.1880 -0.4331
  607MOL0     H83735  13.648  13.421  11.563 -0.8531 -0.3723  2.0670
  607MOL0     H83736  13.872  13.444  11.421  3.5621 -1.6656 -0.4447
  607MOL0     H83737  13.956  13.377  11.559  1.0482  1.4039  2.1982
  607MOL0     H83738  13.817  13.660  11.551  0.5665  0.1213 -0.0420
  607MOL0     H83739  13.915  13.589  11.690  4.7977  1.3588 -0.6577
  607MOL0     H83740  14.102  13.569  11.544 -0.8113  0.0790 -1.3283
  607MOL0     H83741  14.070  13.736  11.578 -2.1507  0.4522  2.1124
  607MOL0     H83742  13.964  13.746  11.341  0.1532 -2.0884 -0.4220
  607MOL0     H83743  14.029  13.585  11.309  0.8991 -0.3573 -1.0559
  607MOL0     H83744  14.218  13.814  11.384  2.2055  0.8407 -1.9364
  607MOL0     H83745  14.182  13.758  11.223 -1.9302 -0.4035  0.4286
  607MOL0     H83746  13.366  13.023  11.523 -0.8350  0.0724 -0.0400
  607MOL0     H83747  13.166  12.924  11.615  0.1964  3.7921 -0.4667
  607MOL0     H83748  12.916  12.724  11.801 -0.2959 -1.0987 -2.1160
  607MOL0     H83749  12.706  12.621  11.839 -1.5106 -1.5583  1.3557
  607MOL0     H83750  11.205  11.744  11.603  1.1415  1.0371 -1.0132
  607MOL0     H83751  11.118  11.540  11.463  0.0637  0.1076 -0.1762
  607MOL0     H83752  10.695  11.464  11.212 -0.0416 -0.2276  0.5848
  607MOL0     H83753  10.528  11.294  11.096 -1.0018 -2.7455 -0.1157
  607MOL0     H83754  10.371  11.124  11.104 -1.1050  0.0428 -1.2425
  607MOL0     H83755  10.488  11.127  10.971 -0.5718  1.9444  0.3461
  607MOL0     H83756  10.341  10.864  11.064  2.7874  2.9888  2.7689
  607MOL0     H83757  10.455  10.889  10.928  0.5294  0.4761 -0.5169
  607MOL0     H83758  10.180  11.017  10.953 -0.9471 -1.5103 -0.7410
  607MOL0     H83759  10.297  11.083  10.842 -0.5230  0.9460  1.0376
  607MOL0     H83760  10.292  10.898  10.689  0.7034  1.4076  0.1591
  607MOL0     H83761  10.137  10.922  10.731 -0.3229  0.3451  0.5887
  607MOL0     H83762  10.198  10.526  10.859  3.0377  0.7621  0.0742
  607MOL0     H83763  10.740  10.974  11.259  0.8286 -0.4369 -1.7340
  607MOL0     H83764  10.921  10.998  11.395 -2.2271 -0.0361  0.1864
  607MOL0     H83765  11.027  11.147  11.399  0.8885 -0.0314  3.1214
  607MOL0     H83766  10.905  11.120  11.522  1.3581 -0.3725 -0.3207
  608MOL0     O83767   8.342   2.976   5.481 -0.2578  0.0936  0.4641
  608MOL0     C83768   8.247   2.896   5.495 -0.2164 -0.6646 -0.4268
  608MOL0     O83769   8.128   2.921   5.565  0.7106 -0.1424  0.1584
  608MOL0     C83770   8.116   3.025   5.650 -0.0491 -0.8525 -0.0961
  608MOL0     C83771   8.102   3.153   5.588  0.1325  0.4009 -0.2582
  608MOL0     C83772   8.081   3.266   5.672 -0.6627  0.7954  0.5786
  608MOL0     C83773   8.068   3.248   5.814  0.2194 -0.0717 -0.1408
  608MOL0     O83774   8.048   3.363   5.888  0.0999 -0.3195  0.3402
  608MOL0     C83775   7.927   3.367   5.974  0.5931  0.5880 -0.1309
  608MOL0     C83776   7.910   3.522   5.994  0.1925 -0.5737  0.0795
  608MOL0     C83777   7.815   3.560   6.113  0.0320  0.3781  0.0472
  608MOL0     C83778   7.669   3.558   6.070 -0.3904  0.8656  0.3344
  608MOL0     C83779   7.582   3.527   6.186 -0.2331 -0.4743 -0.6071
  608MOL0     C83780   7.440   3.475   6.159  0.0167 -0.0851  0.4143
  608MOL0     C83781   7.382   3.406   6.282 -0.4546  0.1744 -0.9986
  608MOL0     C83782   7.247   3.343   6.258 -0.3138 -0.1931  0.0027
  608MOL0     N83783   7.180   3.340   6.393 -1.0221  0.0689  0.0195
  608MOL0     C83784   7.178   3.244   6.490 -0.6965 -0.2691  0.1575
  608MOL0     C83785   7.092   3.289   6.586  0.1397 -0.5192 -0.0901
  608MOL0     C83786   7.040   3.204   6.698 -0.5278 -0.8947 -0.6636
  608MOL0     C83787   6.890   3.169   6.670  0.5006 -0.3171 -0.1235
  608MOL0     C83788   6.800   3.292   6.658  0.2095 -0.3691 -0.0472
  608MOL0     C83789   6.650   3.255   6.645 -1.4276  0.0286  0.7494
  608MOL0     O83790   6.608   3.157   6.734  0.4890  0.5001 -0.3925
  608MOL0     C83791   6.477   3.118   6.731  0.5855 -0.0548  1.1185
  608MOL0     C83792   6.433   3.028   6.823  0.4444 -0.1114  0.0791
  608MOL0     C83793   6.303   2.991   6.837 -0.9914  0.5208 -0.4848
  608MOL0     C83794   6.267   2.908   6.949 -0.4896 -0.8474  0.1145
  608MOL0     C83795   6.208   3.037   6.749 -0.6601 -0.8043 -1.1905
  608MOL0     C83796   6.060   3.002   6.759  0.8544 -0.6601  0.3212
  608MOL0     O83797   6.007   2.989   6.632  0.1277  0.6726 -0.6189
  608MOL0     C83798   5.870   2.982   6.615 -0.5669  0.9752 -0.5413
  608MOL0     C83799   5.795   3.101   6.620 -0.4220  0.1511  0.7295
  608MOL0     C83800   5.652   3.096   6.599  0.7392  0.9113  0.0163
  608MOL0     C83801   5.586   2.971   6.586  0.5392 -0.4729  0.0722
  608MOL0     O83802   5.451   2.969   6.561 -0.1691 -0.6826  0.0678
  608MOL0     C83803   5.384   2.849   6.516  0.2934  0.4733 -0.1079
  608MOL0     C83804   5.345   2.760   6.636 -0.4274 -0.7617 -0.4538
  608MOL0     C83805   5.218   2.787   6.708  0.5997 -0.4029 -0.2322
  608MOL0     C83806   5.199   2.701   6.825  0.8147 -0.3955 -0.3112
  608MOL0     C83807   5.072   2.738   6.901  0.3784 -0.3606  0.3879
  608MOL0     C83808   5.043   2.649   7.019 -0.5188  0.1589  0.4762
  608MOL0     C83809   4.902   2.638   7.064  0.9063  0.1944 -0.4095
  608MOL0     C83810   4.793   2.621   6.960 -0.2848 -0.7955  0.3704
  608MOL0    Cl83811   4.844   2.487   6.852 -0.0552  0.3507 -0.3123
  608MOL0     C83812   5.666   2.854   6.593 -0.5817  0.7195  0.7158
  608MOL0     C83813   5.811   2.859   6.613  1.2129 -0.7666 -0.1379
  608MOL0     O83814   5.995   2.982   6.862 -0.7436 -0.6011 -0.2426
  608MOL0     C83815   6.252   3.119   6.645  0.4324  0.0031  0.4078
  608MOL0     C83816   6.386   3.161   6.630 -0.1913  0.0701  0.3119
  608MOL0     N83817   7.060   3.424   6.550 -0.3668  0.1377 -0.6983
  608MOL0     N83818   7.102   3.448   6.432  0.1029  0.1305  0.0466
  608MOL0     C83819   8.094   3.123   5.865 -0.1670 -0.4710  0.5271
  608MOL0     C83820   8.111   3.005   5.781 -0.1699 -0.5957 -0.3099
  608MOL0     C83821   8.267   2.774   5.420  0.7514 -0.1358  0.7052
  608MOL0     C83822   8.333   2.782   5.294 -0.2154  0.8312  0.4042
  608MOL0     C83823   8.365   2.664   5.225  0.8885 -0.1993  0.3400
  608MOL0     C83824   8.317   2.544   5.271 -0.4945  0.9649  0.6432
  608MOL0     O83825   8.336   2.424   5.199  0.5566 -0.2515 -0.2211
  608MOL0     C83826   8.368   2.410   5.062  0.1612 -0.2765  0.9637
  608MOL0     C83827   8.319   2.276   5.018  0.0254  0.3144  0.3338
  608MOL0     C83828   8.350   2.243   4.873 -1.0061  0.2263  0.3536
  608MOL0     C83829   8.329   2.098   4.846  0.3180 -0.0727  0.6433
  608MOL0     C83830   8.378   2.057   4.718  0.0226  0.4331 -0.5924
  608MOL0     C83831   8.431   2.021   4.614 -1.0267 -0.6281 -0.3873
  608MOL0     C83832   8.261   2.543   5.393  0.1019  0.0064 -0.3964
  608MOL0     C83833   8.234   2.651   5.474 -0.1390 -0.1566  0.3752
  608MOL0     C83834   8.204   2.619   5.622  0.0271 -0.2423  0.1354
  608MOL0     H83835   8.116   3.164   5.481 -0.9606  1.2023 -0.3445
  608MOL0     H83836   8.080   3.356   5.612  1.6017  0.8548  0.5517
  608MOL0     H83837   7.950   3.309   6.063 -1.9480 -0.3638 -0.0198
  608MOL0     H83838   7.837   3.318   5.937  0.8572  1.1355 -1.5670
  608MOL0     H83839   8.005   3.563   6.030 -0.3703 -1.1898  2.4684
  608MOL0     H83840   7.871   3.574   5.906 -0.6072  1.8628  1.7409
  608MOL0     H83841   7.831   3.492   6.197  0.4149 -2.2163 -2.0045
  608MOL0     H83842   7.853   3.656   6.150  5.2944 -1.6750  0.8085
  608MOL0     H83843   7.642   3.653   6.022  0.6733  0.8129 -0.3940
  608MOL0     H83844   7.662   3.482   5.992 -3.1557  1.8501 -0.4812
  608MOL0     H83845   7.583   3.618   6.246  0.7430 -0.2467 -0.9504
  608MOL0     H83846   7.630   3.450   6.247  3.5971  2.0860  0.0188
  608MOL0     H83847   7.382   3.563   6.130  0.3005  0.2301  0.7857
  608MOL0     H83848   7.452   3.396   6.084 -0.8561  0.1925 -0.0227
  608MOL0     H83849   7.373   3.480   6.362 -1.2795 -1.4297  0.4509
  608MOL0     H83850   7.451   3.330   6.320  1.4371  2.9964  1.6170
  608MOL0     H83851   7.192   3.411   6.192 -1.9646  0.8438  2.2921
  608MOL0     H83852   7.245   3.243   6.215  0.1918 -1.6686  3.1113
  608MOL0     H83853   7.224   3.149   6.469  3.2790  1.7811 -1.4526
  608MOL0     H83854   7.059   3.257   6.791  0.3014 -1.0525 -0.7400
  608MOL0     H83855   7.092   3.109   6.712  0.2612 -0.6501 -1.7497
  608MOL0     H83856   6.889   3.105   6.581 -1.8903 -0.3196 -0.1557
  608MOL0     H83857   6.862   3.106   6.755 -0.7707  0.7898  0.3186
  608MOL0     H83858   6.813   3.358   6.744 -1.4623 -0.2720  0.1684
  608MOL0     H83859   6.817   3.348   6.566  1.2008 -0.6081 -0.0209
  608MOL0     H83860   6.602   3.349   6.669  0.1614  0.7123  1.3599
  608MOL0     H83861   6.635   3.226   6.540 -1.4200  0.8578  0.5171
  608MOL0     H83862   6.512   2.994   6.889 -0.0910 -1.0820  0.2315
  608MOL0     H83863   6.208   2.980   7.006 -0.7550  0.9023 -2.2119
  608MOL0     H83864   6.351   2.879   7.012  0.2692  1.4724  0.2802
  608MOL0     H83865   6.206   2.821   6.922  0.3567 -1.6710  0.8061
  608MOL0     H83866   5.840   3.200   6.631 -2.7209  1.2646  0.6647
  608MOL0     H83867   5.588   3.184   6.604  0.9974  1.0628  0.7867
  608MOL0     H83868   5.290   2.892   6.480  0.2782  0.9981  0.5270
  608MOL0     H83869   5.445   2.790   6.447 -1.2430  0.6572 -1.7108
  608MOL0     H83870   5.335   2.661   6.591  3.0250 -3.0703  3.1426
  608MOL0     H83871   5.425   2.761   6.711  0.2590  1.1056 -1.1450
  608MOL0     H83872   5.133   2.781   6.640  0.7379  1.6309 -0.6494
  608MOL0     H83873   5.220   2.892   6.739  0.4899 -0.0601 -1.3581
  608MOL0     H83874   5.289   2.706   6.888  2.0257  2.0689 -2.0939
  608MOL0     H83875   5.194   2.595   6.798 -0.8385 -0.1264 -1.1927
  608MOL0     H83876   5.088   2.837   6.944  0.3929  0.2584 -0.9796
  608MOL0     H83877   4.991   2.738   6.827  1.4688 -1.8572 -0.8863
  608MOL0     H83878   5.106   2.698   7.094  0.0587 -1.1081  0.8505
  608MOL0     H83879   5.089   2.550   7.008  2.0948  0.9785  2.8865
  608MOL0     H83880   4.876   2.727   7.122  0.1943 -1.5624  2.1423
  608MOL0     H83881   4.896   2.549   7.128  1.3874  0.7038  0.3580
  608MOL0     H83882   4.780   2.713   6.903 -0.7155 -0.1127  1.5506
  608MOL0     H83883   4.692   2.600   6.996 -0.8917 -2.9430 -2.2650
  608MOL0     H83884   5.631   2.753   6.581  0.5499  0.4842 -0.9845
  608MOL0     H83885   5.869   2.768   6.628  1.1059 -1.2071 -2.0868
  608MOL0     H83886   6.183   3.152   6.568  0.4962  3.0152  1.5110
  608MOL0     H83887   6.411   3.223   6.545 -0.3892 -0.1982  0.0528
  608MOL0     H83888   8.076   3.113   5.971 -0.2065  2.1502  0.8262
  608MOL0     H83889   8.116   2.903   5.818 -0.3606 -0.6381 -0.4008
  608MOL0     H83890   8.362   2.878   5.253  0.1726  0.8472  0.7056
  608MOL0     H83891   8.425   2.659   5.135 -1.9856 -2.7385 -1.6237
  608MOL0     H83892   8.326   2.493   5.005  0.6018 -0.4528  0.3878
  608MOL0     H83893   8.475   2.406   5.040 -0.1276 -1.0778 -0.4218
  608MOL0     H83894   8.211   2.293   5.018  0.1783  1.4279 -1.0633
  608MOL0     H83895   8.360   2.205   5.090  2.3128  1.4613  0.2518
  608MOL0     H83896   8.282   2.301   4.811  1.0908  1.0683 -1.3207
  608MOL0     H83897   8.453   2.268   4.846 -1.4609  0.1672 -1.5720
  608MOL0     H83898   8.224   2.070   4.837  0.3989 -0.5759  1.2321
  608MOL0     H83899   8.366   2.037   4.929  1.6081  1.4865  1.2623
  608MOL0     H83900   8.465   1.972   4.524 -0.2665 -2.3085  0.7563
  608MOL0     H83901   8.232   2.445   5.431  2.7886 -0.5763  0.3709
  608MOL0     H83902   8.126   2.542   5.625  1.3528 -1.5851  1.2298
  608MOL0     H83903   8.290   2.576   5.672 -0.9542 -2.4083  0.0528
  608MOL0     H83904   8.170   2.705   5.681 -2.5885 -0.6649 -0.6307
  609MOL0     O83905   6.789   1.959   0.049 -0.0800  0.6005 -0.6545
  609MOL0     C83906   6.688   2.009   0.004  0.0112 -0.3531 -0.0205
  609MOL0     O83907   6.659   2.031  -0.131 -1.0772  0.0452 -0.5891
  609MOL0     C83908   6.748   1.980  -0.227 -0.8414 -0.5238  0.8966
  609MOL0     C83909   6.885   1.943  -0.206  1.1440  0.8304 -0.3956
  609MOL0     C83910   6.947   1.874  -0.310 -0.4821  0.7622 -0.3079
  609MOL0     C83911   6.888   1.852  -0.434  0.1151  0.1440  0.1723
  609MOL0     O83912   6.955   1.764  -0.521  0.4340  0.7089  0.1454
  609MOL0     C83913   6.880   1.655  -0.570 -1.0290  0.0275  0.2624
  609MOL0     C83914   6.874   1.554  -0.459  0.1138  0.8418 -0.2906
  609MOL0     C83915   7.008   1.493  -0.419  0.3848 -0.1817  0.9444
  609MOL0     C83916   6.974   1.399  -0.295 -0.2914 -0.5650 -0.2578
  609MOL0     C83917   7.109   1.335  -0.255  0.2907  0.1257  0.2997
  609MOL0     C83918   7.106   1.199  -0.182  1.3439 -0.3614  0.3291
  609MOL0     C83919   7.045   1.211  -0.033  0.2769 -1.0044 -0.0433
  609MOL0     C83920   7.149   1.267   0.075 -0.0482  1.6877  0.3700
  609MOL0     N83921   7.253   1.165   0.092  0.6483 -0.4031 -0.0193
  609MOL0     C83922   7.225   1.039   0.146 -0.4893  0.2942  0.1086
  609MOL0     C83923   7.334   0.965   0.109  0.7921  0.0507 -0.1488
  609MOL0     C83924   7.353   0.820   0.158  0.4986  0.1429  0.0483
  609MOL0     C83925   7.406   0.815   0.303 -0.5863 -0.5071  0.0109
  609MOL0     C83926   7.553   0.867   0.322 -0.0981 -0.6595 -0.0905
  609MOL0     C83927   7.615   0.809   0.447  0.4147  1.0622 -0.4634
  609MOL0     O83928   7.528   0.835   0.555  0.2198  0.2001 -0.1641
  609MOL0     C83929   7.541   0.931   0.647 -0.0465  0.9831  0.3087
  609MOL0     C83930   7.424   0.960   0.724 -0.4714 -0.7990  0.0706
  609MOL0     C83931   7.422   1.052   0.829 -0.1606  0.2610  0.2401
  609MOL0     C83932   7.287   1.076   0.894 -0.1348 -0.1013  0.4769
  609MOL0     C83933   7.535   1.139   0.849 -0.4924  0.4873 -0.3039
  609MOL0     C83934   7.552   1.250   0.945 -0.3381  1.1534  0.5411
  609MOL0     O83935   7.675   1.273   0.992 -0.4333 -0.3787 -0.6873
  609MOL0     C83936   7.695   1.382   1.069  0.0525 -0.2904  0.3203
  609MOL0     C83937   7.706   1.504   0.998 -0.7051  0.2801  0.3389
  609MOL0     C83938   7.766   1.614   1.064  0.8545  0.6124  0.0720
  609MOL0     C83939   7.792   1.604   1.196 -0.1042  0.1980 -0.3098
  609MOL0     O83940   7.842   1.723   1.250  0.3052  0.3244  0.7946
  609MOL0     C83941   7.898   1.717   1.378 -0.2829 -0.1778  0.8008
  609MOL0     C83942   7.955   1.856   1.419 -0.4383 -0.3724 -0.2580
  609MOL0     C83943   7.848   1.963   1.427  0.9456  0.2594  0.5552
  609MOL0     C83944   7.896   2.105   1.452 -0.7000  0.2675 -0.8823
  609MOL0     C83945   7.788   2.211   1.470 -0.5621 -0.2611  0.2769
  609MOL0     C83946   7.695   2.183   1.598  0.2268  0.2861  0.0420
  609MOL0     C83947   7.631   2.310   1.659  0.4270  0.9705  0.0588
  609MOL0     C83948   7.729   2.405   1.718 -0.9152  0.3270 -1.1064
  609MOL0    Cl83949   7.780   2.524   1.594 -0.0952  0.2991 -0.4090
  609MOL0     C83950   7.785   1.479   1.262 -0.8702  0.5523  0.4660
  609MOL0     C83951   7.747   1.364   1.195 -0.2781 -0.2987 -0.8790
  609MOL0     O83952   7.452   1.311   0.974  0.0223  0.0735 -0.4274
  609MOL0     C83953   7.646   1.107   0.771  0.8927 -0.0944 -0.5431
  609MOL0     C83954   7.656   1.003   0.681  1.0954 -0.2268 -0.0266
  609MOL0     N83955   7.416   1.049   0.032 -0.1343 -0.7805 -0.6294
  609MOL0     N83956   7.375   1.168   0.028 -0.0513  0.4088  0.7732
  609MOL0     C83957   6.761   1.909  -0.456  1.1270 -0.1161 -0.6013
  609MOL0     C83958   6.692   1.962  -0.350  0.6644  0.2225 -0.1404
  609MOL0     C83959   6.583   2.069   0.104 -0.0161 -0.0818 -0.6565
  609MOL0     C83960   6.497   2.167   0.049  0.3853 -0.0322 -0.4833
  609MOL0     C83961   6.412   2.240   0.133 -0.1248 -0.4194  0.8125
  609MOL0     C83962   6.404   2.222   0.271  1.4768  0.6144 -0.4082
  609MOL0     O83963   6.327   2.300   0.355 -0.8046 -0.4360 -0.0502
  609MOL0     C83964   6.227   2.390   0.299  0.3430  0.0198  0.6684
  609MOL0     C83965   6.149   2.469   0.406 -0.1383  0.4962 -0.0829
  609MOL0     C83966   6.022   2.544   0.359  0.8711 -0.8550 -0.1302
  609MOL0     C83967   6.001   2.545   0.212  0.0783 -0.4445  0.2356
  609MOL0     C83968   5.872   2.606   0.183  0.3674  0.9187  0.0258
  609MOL0     C83969   5.764   2.660   0.172 -0.2235  0.1752  1.0063
  609MOL0     C83970   6.485   2.116   0.324 -0.3034  0.0631 -0.0482
  609MOL0     C83971   6.568   2.040   0.244 -0.2375  0.2681 -0.1250
  609MOL0     C83972   6.646   1.921   0.308  0.5199 -0.7833  1.1826
  609MOL0     H83973   6.948   1.954  -0.118 -1.0854 -2.8492  1.9336
  609MOL0     H83974   7.038   1.822  -0.284 -0.0073  0.7019 -1.9434
  609MOL0     H83975   6.928   1.614  -0.659  0.9508 -1.4413  1.9126
  609MOL0     H83976   6.781   1.685  -0.606 -0.2557 -0.9351 -2.9585
  609MOL0     H83977   6.828   1.594  -0.368 -0.1981 -0.3524  0.0883
  609MOL0     H83978   6.817   1.469  -0.495 -1.4181  1.0105  1.5887
  609MOL0     H83979   7.049   1.440  -0.505 -1.1306 -1.1083  0.7553
  609MOL0     H83980   7.082   1.568  -0.390  3.9859 -3.5174  1.3212
  609MOL0     H83981   6.916   1.453  -0.219 -0.0110 -0.1863 -0.3087
  609MOL0     H83982   6.896   1.326  -0.317 -1.9905  0.1515  2.7731
  609MOL0     H83983   7.157   1.402  -0.183 -0.6573 -0.4231  1.4724
  609MOL0     H83984   7.170   1.316  -0.344  1.0455  0.5749  0.7027
  609MOL0     H83985   7.040   1.140  -0.247  0.4413  2.1959 -1.2413
  609MOL0     H83986   7.205   1.154  -0.186  1.2237 -0.7078  1.0698
  609MOL0     H83987   7.002   1.111  -0.022 -2.8763 -0.1800 -2.9868
  609MOL0     H83988   6.953   1.271  -0.032 -0.1510 -1.5836 -1.5837
  609MOL0     H83989   7.203   1.354   0.036  0.7134  1.0866  0.0524
  609MOL0     H83990   7.102   1.282   0.173  1.5247 -1.8846  1.8599
  609MOL0     H83991   7.145   1.007   0.212 -0.6889  2.3807  0.9543
  609MOL0     H83992   7.429   0.769   0.097  0.3987  0.5334 -0.4092
  609MOL0     H83993   7.256   0.769   0.158  1.1454 -1.1653  1.1093
  609MOL0     H83994   7.334   0.862   0.371 -0.7732 -1.4921  0.5161
  609MOL0     H83995   7.416   0.709   0.330 -0.1282 -0.4761 -0.0237
  609MOL0     H83996   7.620   0.839   0.240 -0.3151  0.6353 -0.7337
  609MOL0     H83997   7.552   0.975   0.336  1.2758 -0.9680  3.4476
  609MOL0     H83998   7.610   0.700   0.439 -2.0814  1.1136 -0.4195
  609MOL0     H83999   7.714   0.852   0.465  0.5111  1.1413 -1.1631
  609MOL0     H84000   7.328   0.914   0.703 -0.2232 -0.3896 -2.1727
  609MOL0     H84001   7.291   1.031   0.994  1.0251  1.5147  1.2058
  609MOL0     H84002   7.202   1.031   0.842 -1.9648 -1.3605  4.1802
  609MOL0     H84003   7.262   1.182   0.897 -0.3257 -0.1703  1.6324
  609MOL0     H84004   7.706   1.517   0.891  2.2644 -0.2869  0.1853
  609MOL0     H84005   7.793   1.704   1.010  1.6562  0.7725  0.7247
  609MOL0     H84006   7.833   1.673   1.454  1.7277 -3.2800  0.9285
  609MOL0     H84007   7.986   1.651   1.378 -2.2568 -3.0403 -0.8834
  609MOL0     H84008   8.017   1.846   1.509  1.8233 -0.0887 -1.6982
  609MOL0     H84009   8.020   1.873   1.333 -1.1534 -1.5099 -1.0422
  609MOL0     H84010   7.775   1.934   1.503 -1.2661 -0.6778 -1.7490
  609MOL0     H84011   7.800   1.960   1.328  0.0218 -1.4278  1.0118
  609MOL0     H84012   7.943   2.129   1.356 -0.0482  1.1580 -0.3609
  609MOL0     H84013   7.978   2.113   1.524  0.2268 -0.4491 -1.8139
  609MOL0     H84014   7.830   2.311   1.478 -1.4724  0.1466  0.1337
  609MOL0     H84015   7.721   2.216   1.384 -0.1903  1.8272  0.0769
  609MOL0     H84016   7.767   2.137   1.666 -1.3345  0.5791  1.9602
  609MOL0     H84017   7.617   2.116   1.560 -1.1247  0.0850  2.9307
  609MOL0     H84018   7.564   2.268   1.734  1.5686  0.0520  0.5876
  609MOL0     H84019   7.587   2.375   1.582  0.8770  0.2870 -0.8024
  609MOL0     H84020   7.812   2.349   1.763 -1.6717  0.1801  0.1659
  609MOL0     H84021   7.678   2.463   1.796  0.7008 -0.5665  0.7050
  609MOL0     H84022   7.810   1.467   1.366  1.9965  0.6653 -0.1344
  609MOL0     H84023   7.746   1.273   1.254  1.9306  0.6205  0.7321
  609MOL0     H84024   7.727   1.179   0.771 -0.6657  1.7919  0.9516
  609MOL0     H84025   7.742   0.985   0.617  0.5873 -2.2315 -0.2027
  609MOL0     H84026   6.715   1.914  -0.555 -0.0410  1.4217 -0.0200
  609MOL0     H84027   6.596   2.010  -0.365  0.7817 -0.6154 -5.3187
  609MOL0     H84028   6.504   2.186  -0.057  0.0325 -0.6142 -0.6136
  609MOL0     H84029   6.350   2.312   0.080 -1.3626  0.4059  3.2729
  609MOL0     H84030   6.269   2.472   0.240 -1.8365  0.5569 -0.2463
  609MOL0     H84031   6.158   2.325   0.244 -1.1531  0.5032  1.9211
  609MOL0     H84032   6.212   2.546   0.451  1.2305  1.0508 -2.7441
  609MOL0     H84033   6.131   2.402   0.490 -1.5205  0.4045 -0.4274
  609MOL0     H84034   5.932   2.512   0.412 -0.2556 -0.4228 -1.6909
  609MOL0     H84035   6.035   2.645   0.399 -2.5831 -0.7887  1.1424
  609MOL0     H84036   6.011   2.444   0.171 -0.2857 -0.4658  0.1919
  609MOL0     H84037   6.078   2.602   0.160 -0.4617 -0.4491 -0.5941
  609MOL0     H84038   5.669   2.708   0.159 -0.6805 -1.1799 -1.0987
  609MOL0     H84039   6.487   2.090   0.429 -1.0964 -2.8123 -0.6482
  609MOL0     H84040   6.751   1.949   0.297  0.9287 -2.6182 -0.0550
  609MOL0     H84041   6.633   1.907   0.416 -1.6493 -0.8661  0.9465
  609MOL0     H84042   6.623   1.833   0.247  2.2936  0.4697 -1.4447
  610MOL0     O84043   9.619   5.751   9.019 -0.2257 -0.3411  0.3714
  610MOL0     C84044   9.644   5.793   8.908 -0.5086 -0.4112 -0.8841
  610MOL0     O84045   9.618   5.912   8.857  0.2051  0.1860  0.6704
  610MOL0     C84046   9.553   6.010   8.923  0.1219  0.6323 -0.7091
  610MOL0     C84047   9.591   6.143   8.905 -0.1063  0.2201 -0.1055
  610MOL0     C84048   9.543   6.253   8.977  0.6812  0.7067  0.3618
  610MOL0     C84049   9.458   6.217   9.090  0.7509  0.1600  0.7234
  610MOL0     O84050   9.409   6.305   9.183  0.0225  0.1923  0.7539
  610MOL0     C84051   9.384   6.436   9.133 -1.2253 -0.5192 -0.5476
  610MOL0     C84052   9.327   6.518   9.254  0.0323 -0.1605  0.0552
  610MOL0     C84053   9.391   6.657   9.278  0.8755  0.7101 -0.5792
  610MOL0     C84054   9.371   6.710   9.426  0.0233 -0.7193  0.0189
  610MOL0     C84055   9.231   6.761   9.452 -0.7684  0.0501 -0.4800
  610MOL0     C84056   9.207   6.773   9.605  0.2727 -0.2201  0.5049
  610MOL0     C84057   9.066   6.825   9.630 -0.3273  0.2570 -0.4376
  610MOL0     C84058   8.952   6.733   9.582  0.5248 -0.2790  0.7080
  610MOL0     N84059   8.827   6.777   9.643 -0.1608 -0.9336 -0.3468
  610MOL0     C84060   8.742   6.871   9.604  0.3751 -0.1968 -0.5495
  610MOL0     C84061   8.645   6.882   9.695  0.9434  0.4240  0.6688
  610MOL0     C84062   8.509   6.946   9.675  0.2106  0.9365 -0.0950
  610MOL0     C84063   8.508   7.100   9.687 -0.1950  0.8958  0.0502
  610MOL0     C84064   8.362   7.157   9.661  0.9155 -0.8767 -0.7983
  610MOL0     C84065   8.341   7.301   9.730  0.7835  0.5281  0.4402
  610MOL0     O84066   8.444   7.401   9.694  0.0945  0.4060 -0.3655
  610MOL0     C84067   8.452   7.519   9.759  0.1678  0.9441  0.0580
  610MOL0     C84068   8.574   7.589   9.749  0.0124  1.3884 -0.9645
  610MOL0     C84069   8.596   7.713   9.801 -0.7425  0.0493 -0.6478
  610MOL0     C84070   8.735   7.766   9.802 -1.0346 -0.0233 -0.3215
  610MOL0     C84071   8.480   7.777   9.861 -0.2027  0.2714 -1.4685
  610MOL0     C84072   8.479   7.908   9.934  0.9770  0.3459  0.1731
  610MOL0     O84073   8.595   7.960   9.967 -0.1472 -0.1517 -0.3294
  610MOL0     C84074   8.591   8.073  10.041  0.2069 -0.4520 -0.2978
  610MOL0     C84075   8.573   8.098  10.179 -0.7101  0.1920  0.2022
  610MOL0     C84076   8.583   8.221  10.238  0.2813  0.8714  0.1493
  610MOL0     C84077   8.605   8.336  10.156 -0.1766 -0.1014  0.0340
  610MOL0     O84078   8.617   8.462  10.207  0.2651  0.0457 -0.3077
  610MOL0     C84079   8.698   8.487  10.326  0.0272  0.4682 -0.1958
  610MOL0     C84080   8.686   8.639  10.370 -0.6221  0.3015  0.4082
  610MOL0     C84081   8.725   8.729  10.253 -0.3978  0.8098 -0.5225
  610MOL0     C84082   8.749   8.881  10.305  0.5190  0.5304 -0.5506
  610MOL0     C84083   8.755   8.970  10.192  0.1349 -0.3973 -1.2007
  610MOL0     C84084   8.897   8.967  10.141  0.0532 -0.2530 -0.0519
  610MOL0     C84085   8.929   9.068  10.028  0.0187 -0.2831 -0.7952
  610MOL0     C84086   9.079   9.072  10.022 -0.3688 -0.3689  0.7507
  610MOL0    Cl84087   9.131   9.217   9.929 -0.3063 -0.0536 -0.1808
  610MOL0     C84088   8.627   8.309  10.019  0.9753 -0.1735 -0.4828
  610MOL0     C84089   8.612   8.186   9.968  0.2489 -0.2633 -0.5811
  610MOL0     O84090   8.363   7.967   9.954  0.1473  0.0182  0.9304
  610MOL0     C84091   8.362   7.701   9.872  0.5639 -0.7955  0.4480
  610MOL0     C84092   8.345   7.573   9.828  0.8378 -0.6071  0.0848
  610MOL0     N84093   8.679   6.790   9.792  0.5201  0.2812 -0.9242
  610MOL0     N84094   8.787   6.730   9.760 -0.2692 -0.4210  0.0571
  610MOL0     C84095   9.408   6.085   9.100  0.2745  0.7931 -1.1131
  610MOL0     C84096   9.461   5.982   9.025  0.4096  0.1471 -0.2710
  610MOL0     C84097   9.699   5.690   8.820  0.7012  0.1631 -0.1203
  610MOL0     C84098   9.631   5.687   8.700 -0.5396 -0.0953  0.3280
  610MOL0     C84099   9.665   5.598   8.602 -1.2064 -1.3684 -1.0014
  610MOL0     C84100   9.765   5.501   8.626  0.1571 -0.3800  0.1093
  610MOL0     O84101   9.761   5.406   8.528 -0.4627  0.0082  0.5983
  610MOL0     C84102   9.873   5.311   8.515  0.0699 -0.2472 -0.2396
  610MOL0     C84103   9.875   5.197   8.618 -0.4667  0.0695  0.5021
  610MOL0     C84104   9.982   5.094   8.571  0.9852 -1.0564 -0.0080
  610MOL0     C84105   9.996   4.994   8.687 -0.0341  0.5670  0.2138
  610MOL0     C84106   9.870   4.936   8.724  0.1995  0.4580  0.6852
  610MOL0     C84107   9.767   4.884   8.759 -0.4332 -0.0256  0.7604
  610MOL0     C84108   9.837   5.509   8.752  1.3138  0.5767  0.3673
  610MOL0     C84109   9.800   5.603   8.851 -0.9880 -0.0167  0.5541
  610MOL0     C84110   9.892   5.619   8.970  0.9110 -0.8647  0.3079
  610MOL0     H84111   9.667   6.161   8.829  1.3333 -0.6568  1.0489
  610MOL0     H84112   9.573   6.355   8.956 -1.3460  1.2156 -0.2214
  610MOL0     H84113   9.310   6.450   9.054 -1.1320  1.2049 -0.3604
  610MOL0     H84114   9.482   6.476   9.103 -1.3576  0.6845  0.5428
  610MOL0     H84115   9.222   6.539   9.234 -0.4564 -1.7493  0.7357
  610MOL0     H84116   9.333   6.452   9.342  2.0375  0.0595  0.1303
  610MOL0     H84117   9.500   6.657   9.266  1.2445 -0.4321  2.1326
  610MOL0     H84118   9.341   6.734   9.218 -0.4809  1.1977  1.0965
  610MOL0     H84119   9.399   6.633   9.499  2.9686 -0.4945 -0.7382
  610MOL0     H84120   9.435   6.796   9.450  0.3677 -2.0759  5.1251
  610MOL0     H84121   9.165   6.683   9.415  0.1372 -0.8060 -0.3172
  610MOL0     H84122   9.217   6.858   9.402 -1.5007  0.6088  0.7388
  610MOL0     H84123   9.235   6.677   9.651  2.1759 -0.5983 -1.3160
  610MOL0     H84124   9.282   6.842   9.644 -0.0518  0.2676  0.2830
  610MOL0     H84125   9.065   6.923   9.582  0.8866  2.7322  4.0057
  610MOL0     H84126   9.058   6.836   9.739  0.2107 -1.7258 -0.1607
  610MOL0     H84127   8.953   6.731   9.473  4.0565 -4.6643  0.5170
  610MOL0     H84128   8.975   6.631   9.615  0.7991 -0.3259  0.3798
  610MOL0     H84129   8.748   6.917   9.506 -0.3886 -0.4640 -0.7323
  610MOL0     H84130   8.448   6.899   9.753  1.9469 -3.7128 -1.2160
  610MOL0     H84131   8.457   6.915   9.584 -1.5697  3.4471 -0.0680
  610MOL0     H84132   8.537   7.111   9.792  1.8819 -0.2708 -0.3413
  610MOL0     H84133   8.579   7.154   9.623  0.2724  0.2378  0.0046
  610MOL0     H84134   8.335   7.152   9.555 -0.1191 -0.8703 -0.5471
  610MOL0     H84135   8.300   7.084   9.713  2.3113  0.4443  3.0586
  610MOL0     H84136   8.247   7.350   9.703  1.5236  0.8950 -1.7040
  610MOL0     H84137   8.339   7.290   9.838 -3.9156  2.2192  0.7702
  610MOL0     H84138   8.642   7.532   9.686 -0.9463 -2.3033  1.0418
  610MOL0     H84139   8.727   7.870   9.770  2.2913  0.5803  0.4286
  610MOL0     H84140   8.805   7.713   9.736  1.1972  1.1582  0.9842
  610MOL0     H84141   8.772   7.766   9.905  2.1480  0.8734 -1.3293
  610MOL0     H84142   8.553   8.009  10.239  1.1848 -0.2359  0.2577
  610MOL0     H84143   8.582   8.223  10.346  1.2712 -1.8450  0.2884
  610MOL0     H84144   8.672   8.425  10.412  3.3631 -1.8887 -0.6570
  610MOL0     H84145   8.805   8.471  10.309  0.7457  0.4643  3.5007
  610MOL0     H84146   8.586   8.663  10.406  0.0576 -1.5636  4.0295
  610MOL0     H84147   8.757   8.648  10.453  0.9314 -1.6352 -0.5995
  610MOL0     H84148   8.649   8.733  10.175  0.8983  0.2225 -1.8720
  610MOL0     H84149   8.818   8.698  10.204 -0.9924 -1.9078 -0.0894
  610MOL0     H84150   8.837   8.883  10.371  1.4732 -0.0067 -1.7662
  610MOL0     H84151   8.661   8.907  10.364  0.1342 -1.5853 -0.1314
  610MOL0     H84152   8.680   8.939  10.118 -2.7463  2.7957  0.0862
  610MOL0     H84153   8.727   9.073  10.219  1.9435 -0.1347 -0.1651
  610MOL0     H84154   8.913   8.872  10.090  2.2560 -0.6795  1.2966
  610MOL0     H84155   8.967   8.965  10.225  0.3683 -1.9073 -0.3178
  610MOL0     H84156   8.898   9.166  10.065  1.7953 -0.4126  1.2524
  610MOL0     H84157   8.875   9.049   9.935 -0.3677  1.1619 -0.8797
  610MOL0     H84158   9.109   8.984   9.964 -4.4379 -0.6556 -1.2655
  610MOL0     H84159   9.139   9.063  10.113 -0.9745 -0.7640  1.1168
  610MOL0     H84160   8.631   8.392   9.949  0.5690 -1.1506 -1.7159
  610MOL0     H84161   8.634   8.165   9.864 -0.6525 -1.9158 -0.4697
  610MOL0     H84162   8.286   7.738   9.939 -0.5327 -2.4386  0.1779
  610MOL0     H84163   8.245   7.537   9.851 -1.0106  2.4515 -2.3567
  610MOL0     H84164   9.343   6.061   9.183  1.3421 -0.0477 -0.4835
  610MOL0     H84165   9.413   5.888   9.052  0.7514  0.5094  1.8115
  610MOL0     H84166   9.554   5.760   8.675 -0.0027  0.9301  1.5460
  610MOL0     H84167   9.622   5.600   8.502 -1.0858  3.7344 -1.2260
  610MOL0     H84168   9.880   5.265   8.416 -0.2258 -2.8483  0.8898
  610MOL0     H84169   9.959   5.377   8.531 -0.3237  0.9041 -2.4003
  610MOL0     H84170   9.777   5.150   8.626 -0.6525  0.5409  1.0638
  610MOL0     H84171   9.909   5.242   8.712  0.2070  1.2295 -0.2633
  610MOL0     H84172   9.939   5.033   8.491 -0.2953  0.5135 -0.5704
  610MOL0     H84173  10.083   5.128   8.548  1.9512 -4.2264 -0.8715
  610MOL0     H84174  10.031   5.053   8.772 -2.8726 -0.1752  2.0226
  610MOL0     H84175  10.064   4.914   8.656 -1.1499  0.2298 -1.5495
  610MOL0     H84176   9.682   4.825   8.782 -0.7786  0.2655  0.2577
  610MOL0     H84177   9.918   5.450   8.793  0.8014 -0.1675  0.3273
  610MOL0     H84178   9.882   5.524   9.023 -3.2281 -1.0428 -0.4425
  610MOL0     H84179   9.995   5.633   8.937 -0.0348  2.5157 -1.7041
  610MOL0     H84180   9.867   5.705   9.032  0.3174 -0.7554 -0.0746
  611MOL0     O84181   8.649   6.161   1.435 -0.3222  0.2458 -0.1934
  611MOL0     C84182   8.616   6.274   1.474 -0.0335 -0.0979  0.0682
  611MOL0     O84183   8.687   6.355   1.558 -0.5576 -0.7158  0.1509
  611MOL0     C84184   8.818   6.322   1.583  0.1322  0.0764  0.0364
  611MOL0     C84185   8.852   6.278   1.711  0.2655  0.4763  0.3292
  611MOL0     C84186   8.993   6.286   1.737  0.8081  0.3202 -0.4749
  611MOL0     C84187   9.088   6.304   1.641  0.4120 -0.5377  0.2619
  611MOL0     O84188   9.223   6.279   1.656  0.4089 -0.3424  0.2996
  611MOL0     C84189   9.292   6.403   1.648  0.1621 -0.1809  0.6771
  611MOL0     C84190   9.412   6.410   1.741  0.6879  0.1033 -0.0540
  611MOL0     C84191   9.383   6.375   1.885 -0.2915  0.0933  0.7827
  611MOL0     C84192   9.266   6.471   1.943 -0.5628  0.9158 -0.5172
  611MOL0     C84193   9.271   6.456   2.099 -0.0642  0.6934  0.7532
  611MOL0     C84194   9.209   6.323   2.152 -0.4575  0.2032  0.3555
  611MOL0     C84195   9.212   6.311   2.307 -0.9841 -0.1399  0.1572
  611MOL0     C84196   9.366   6.303   2.348 -0.4531  0.1635 -0.5285
  611MOL0     N84197   9.393   6.258   2.487 -0.3049 -0.4248  0.0361
  611MOL0     C84198   9.513   6.245   2.552 -1.1515  1.2325 -0.8236
  611MOL0     C84199   9.485   6.193   2.675  0.0739  0.5947  0.1428
  611MOL0     C84200   9.579   6.160   2.792  0.7007 -0.4321  0.4938
  611MOL0     C84201   9.683   6.057   2.754  0.7159 -0.1559  0.1609
  611MOL0     C84202   9.759   6.028   2.883 -0.0025  0.1339 -0.0408
  611MOL0     C84203   9.869   5.925   2.869  0.5810  0.2485  0.8857
  611MOL0     O84204   9.923   5.880   2.996 -0.6349  0.1773  0.3022
  611MOL0     C84205   9.970   5.752   3.000 -0.4666 -0.2375  0.8004
  611MOL0     C84206  10.074   5.705   2.915 -0.7230  0.2338 -0.9559
  611MOL0     C84207  10.117   5.579   2.910 -0.1934  1.3011 -0.1217
  611MOL0     C84208  10.238   5.554   2.826 -0.3843 -0.1395 -0.0611
  611MOL0     C84209  10.070   5.482   3.006  0.1237 -0.7116  0.5186
  611MOL0     C84210  10.130   5.353   3.044  0.1317 -0.2169 -0.7531
  611MOL0     O84211  10.033   5.252   3.055  0.1238  0.1996 -0.0153
  611MOL0     C84212  10.087   5.128   3.059  0.3267 -0.3308  0.3038
  611MOL0     C84213  10.076   5.046   2.944 -0.4494 -0.7311 -0.1064
  611MOL0     C84214  10.156   4.930   2.941  0.0575 -0.1192 -0.0276
  611MOL0     C84215  10.230   4.885   3.052 -0.5428  0.5527  0.0228
  611MOL0     O84216  10.313   4.782   3.054  0.0493 -0.0687  0.9391
  611MOL0     C84217  10.351   4.720   2.925  0.9517 -0.4637 -0.2009
  611MOL0     C84218  10.476   4.635   2.935  0.6399 -0.2180 -1.0963
  611MOL0     C84219  10.608   4.722   2.959 -0.8226  0.6040 -0.7507
  611MOL0     C84220  10.731   4.647   2.903 -0.2374 -1.2974 -0.3456
  611MOL0     C84221  10.859   4.726   2.935  0.3607 -0.6935 -0.0988
  611MOL0     C84222  10.889   4.768   3.081  0.2809  0.2394 -0.2896
  611MOL0     C84223  10.907   4.654   3.183  0.3574  0.7849  0.7002
  611MOL0     C84224  10.933   4.740   3.308  0.7282 -0.2994  0.7331
  611MOL0    Cl84225  10.980   4.623   3.439  0.0923  0.3925 -0.8336
  611MOL0     C84226  10.203   4.955   3.170 -0.5489 -0.1084 -0.2271
  611MOL0     C84227  10.142   5.080   3.176  1.0419 -0.4689  0.1823
  611MOL0     O84228  10.248   5.337   3.076  0.4156 -0.1637  0.1498
  611MOL0     C84229   9.968   5.527   3.091  0.2950  0.8403 -0.1607
  611MOL0     C84230   9.910   5.656   3.085 -0.0686 -0.3510 -0.2131
  611MOL0     N84231   9.344   6.172   2.678  0.6469 -0.3050 -0.0691
  611MOL0     N84232   9.290   6.200   2.561 -0.1303  0.3361  0.7809
  611MOL0     C84233   9.038   6.353   1.514 -0.0108 -0.0247  0.2016
  611MOL0     C84234   8.903   6.356   1.482 -0.3346 -0.8281  0.6103
  611MOL0     C84235   8.492   6.348   1.421  0.8386  0.4093  0.2204
  611MOL0     C84236   8.462   6.471   1.482  0.2330 -0.2292  0.4279
  611MOL0     C84237   8.351   6.549   1.446  0.0742  0.1618 -0.2741
  611MOL0     C84238   8.276   6.511   1.335  0.1692  0.4942  0.6019
  611MOL0     O84239   8.184   6.595   1.267 -0.3514 -0.1356 -0.6530
  611MOL0     C84240   8.132   6.721   1.332  0.2997  0.4805 -0.0700
  611MOL0     C84241   8.029   6.682   1.455  0.4265  0.1338 -0.1618
  611MOL0     C84242   7.915   6.590   1.412 -1.3379  0.1954 -0.8707
  611MOL0     C84243   7.896   6.472   1.510  0.1872 -0.9358  0.7584
  611MOL0     C84244   7.815   6.518   1.618  0.3243  0.1016 -1.5187
  611MOL0     C84245   7.758   6.554   1.717 -0.1488 -0.3019 -0.5386
  611MOL0     C84246   8.308   6.398   1.262  0.2951  0.9392 -0.0568
  611MOL0     C84247   8.413   6.313   1.305 -0.5037  0.4305 -0.6168
  611MOL0     C84248   8.451   6.203   1.211 -0.3197  0.5891  1.1965
  611MOL0     H84249   8.773   6.241   1.775  0.8885 -3.4145 -0.8991
  611MOL0     H84250   9.027   6.267   1.838  1.9257 -2.1619 -1.2447
  611MOL0     H84251   9.228   6.491   1.664  1.2263  0.8711 -0.5520
  611MOL0     H84252   9.319   6.415   1.542 -1.2029 -0.1710  0.3109
  611MOL0     H84253   9.492   6.341   1.712  1.4205  0.3574  1.2506
  611MOL0     H84254   9.458   6.509   1.728 -0.0956  0.1524 -3.2692
  611MOL0     H84255   9.357   6.269   1.879 -1.2629  0.4273 -2.6641
  611MOL0     H84256   9.479   6.391   1.937 -0.7567  0.3957  1.5712
  611MOL0     H84257   9.286   6.577   1.921  1.2957  0.9907  1.2981
  611MOL0     H84258   9.171   6.433   1.903  0.3945 -0.7125 -1.3127
  611MOL0     H84259   9.221   6.549   2.127  1.5231  1.8061 -0.0206
  611MOL0     H84260   9.377   6.466   2.123  0.3253 -1.8473  0.3326
  611MOL0     H84261   9.106   6.311   2.117  0.2249  0.8350 -2.0173
  611MOL0     H84262   9.256   6.241   2.098  1.5065  3.0160 -2.5255
  611MOL0     H84263   9.168   6.220   2.349 -1.2338  0.0525  0.3169
  611MOL0     H84264   9.146   6.391   2.344 -3.4094 -2.8724  2.3180
  611MOL0     H84265   9.424   6.230   2.289  2.4909  1.7584  0.1966
  611MOL0     H84266   9.418   6.397   2.329 -2.7691  1.1035 -2.7168
  611MOL0     H84267   9.611   6.276   2.517  0.1816 -0.4504  1.1723
  611MOL0     H84268   9.511   6.121   2.868 -1.1243 -2.0583 -1.8521
  611MOL0     H84269   9.619   6.255   2.828 -1.9404  0.6034  0.9160
  611MOL0     H84270   9.625   5.966   2.738 -0.2456  0.1542  1.6539
  611MOL0     H84271   9.736   6.083   2.662  0.3611 -0.9897 -0.2922
  611MOL0     H84272   9.807   6.111   2.937 -0.5668 -0.5713  1.5930
  611MOL0     H84273   9.689   5.993   2.959 -0.7046 -0.4186 -0.9308
  611MOL0     H84274   9.836   5.840   2.810  0.4719  0.3502  0.8004
  611MOL0     H84275   9.949   5.978   2.816 -1.3839  2.8480  0.3372
  611MOL0     H84276  10.130   5.781   2.860  2.4006 -1.4778 -0.3817
  611MOL0     H84277  10.330   5.566   2.884  0.8177 -2.4436 -1.3565
  611MOL0     H84278  10.253   5.616   2.737 -1.3931  1.3182  0.7433
  611MOL0     H84279  10.230   5.449   2.797  0.6960 -0.0147 -0.8819
  611MOL0     H84280  10.020   5.068   2.853 -0.5130 -0.8769 -0.1023
  611MOL0     H84281  10.155   4.874   2.848  0.3932 -0.0664 -0.0625
  611MOL0     H84282  10.266   4.659   2.891 -0.3094  1.7990 -1.3428
  611MOL0     H84283  10.368   4.802   2.854 -1.0416 -0.4809 -0.7750
  611MOL0     H84284  10.454   4.560   3.011  2.0642 -0.8011 -1.2386
  611MOL0     H84285  10.480   4.582   2.839  3.7675 -0.7958 -0.7323
  611MOL0     H84286  10.628   4.739   3.066  0.2949 -1.1017 -0.6415
  611MOL0     H84287  10.593   4.822   2.919  0.5655  1.8430  1.5791
  611MOL0     H84288  10.714   4.640   2.795  0.7199  0.0552 -0.5966
  611MOL0     H84289  10.747   4.548   2.947  0.3422 -0.2774  1.8622
  611MOL0     H84290  10.943   4.662   2.904  1.1481  0.1836  0.1748
  611MOL0     H84291  10.855   4.817   2.874  0.0971  0.2559  1.2833
  611MOL0     H84292  10.815   4.841   3.113 -1.1025 -1.2340 -0.0225
  611MOL0     H84293  10.985   4.822   3.081  2.0483 -2.6018  1.3077
  611MOL0     H84294  10.989   4.586   3.157  1.3049  1.6478  1.3551
  611MOL0     H84295  10.818   4.592   3.194 -1.0234  2.8573  2.1192
  611MOL0     H84296  10.841   4.793   3.333 -0.7696 -2.0642 -0.7145
  611MOL0     H84297  11.014   4.813   3.294  1.2826 -1.2601 -1.6144
  611MOL0     H84298  10.238   4.922   3.267  0.3348  2.1828  0.2933
  611MOL0     H84299  10.114   5.131   3.268 -1.6836  0.6884 -1.1797
  611MOL0     H84300   9.921   5.453   3.155 -2.3752  0.2160 -2.6266
  611MOL0     H84301   9.835   5.672   3.161  1.4116  0.5480  1.1150
  611MOL0     H84302   9.113   6.371   1.438 -1.3245  2.4309 -0.6151
  611MOL0     H84303   8.871   6.368   1.379 -1.3666  1.5319  1.1417
  611MOL0     H84304   8.510   6.523   1.565 -2.4078  1.5005  1.0098
  611MOL0     H84305   8.362   6.647   1.491  0.2920  0.1815 -0.3686
  611MOL0     H84306   8.213   6.790   1.358 -0.2006  0.8461  0.5150
  611MOL0     H84307   8.078   6.779   1.257 -1.1177  1.5920  1.7377
  611MOL0     H84308   7.978   6.776   1.475 -0.6079 -0.0716 -1.6495
  611MOL0     H84309   8.092   6.642   1.535  1.0771 -2.0619 -1.6521
  611MOL0     H84310   7.825   6.651   1.403 -1.9419 -0.1370  1.8781
  611MOL0     H84311   7.930   6.556   1.310  0.6973  1.7539 -1.1558
  611MOL0     H84312   7.989   6.426   1.545  1.8097  3.7574  3.5688
  611MOL0     H84313   7.832   6.397   1.462 -1.3567  1.9356 -1.9864
  611MOL0     H84314   7.688   6.585   1.792 -0.9884 -2.1767 -0.4795
  611MOL0     H84315   8.260   6.369   1.169 -1.1962 -3.1312  1.7556
  611MOL0     H84316   8.376   6.167   1.139  1.8565  2.7432 -2.4547
  611MOL0     H84317   8.538   6.226   1.149 -0.9234  0.7469  0.3828
  611MOL0     H84318   8.475   6.108   1.259  2.3800 -0.8904 -2.5662
  612MOL0     O84319  11.231   5.342   6.687  0.2264 -0.3012 -0.0494
  612MOL0     C84320  11.203   5.457   6.655 -0.2378 -0.1433  0.5030
  612MOL0     O84321  11.287   5.552   6.613  0.4416 -1.0989 -0.3538
  612MOL0     C84322  11.423   5.518   6.612  0.4936 -0.4755  0.6807
  612MOL0     C84323  11.502   5.496   6.729  0.4475 -0.2621  0.4755
  612MOL0     C84324  11.634   5.480   6.727 -0.5080 -0.7808  0.1758
  612MOL0     C84325  11.702   5.474   6.606 -0.6708 -0.2319 -0.5497
  612MOL0     O84326  11.833   5.459   6.610  0.0925  0.0546 -0.3937
  612MOL0     C84327  11.889   5.367   6.514 -0.1003  0.0311 -0.0043
  612MOL0     C84328  12.043   5.340   6.547  0.0529  0.3444  0.7590
  612MOL0     C84329  12.114   5.208   6.496  0.3026 -0.2138  0.0385
  612MOL0     C84330  12.258   5.189   6.544 -0.5585 -0.7181  0.2080
  612MOL0     C84331  12.312   5.052   6.521 -0.0178  0.1793  0.0920
  612MOL0     C84332  12.445   5.030   6.580  0.6236 -0.1981 -0.1272
  612MOL0     C84333  12.518   4.927   6.495 -0.8555 -0.4446 -0.1586
  612MOL0     C84334  12.516   4.787   6.546 -0.6144  0.0907  0.5084
  612MOL0     N84335  12.393   4.718   6.514 -0.0462 -0.5717 -0.2525
  612MOL0     C84336  12.320   4.719   6.398 -0.0231  0.5925  0.0626
  612MOL0     C84337  12.202   4.659   6.430 -0.6346 -0.0085 -0.0889
  612MOL0     C84338  12.101   4.615   6.332 -1.2591 -0.6496 -0.6893
  612MOL0     C84339  11.997   4.731   6.320 -0.2408 -0.1560  0.0139
  612MOL0     C84340  12.058   4.866   6.270  0.1033  0.9197  0.6922
  612MOL0     C84341  11.957   4.966   6.210  0.1532  0.2113  0.4078
  612MOL0     O84342  11.853   5.006   6.305  0.1649 -0.4308  0.2000
  612MOL0     C84343  11.749   5.080   6.254  0.7243 -0.2581 -0.0291
  612MOL0     C84344  11.647   5.097   6.344  0.9208 -0.1060  1.2415
  612MOL0     C84345  11.528   5.159   6.310  0.3806  0.6750  0.3449
  612MOL0     C84346  11.416   5.169   6.417  0.1557 -0.1437 -1.0918
  612MOL0     C84347  11.507   5.219   6.186 -0.3915  0.2543  0.3053
  612MOL0     C84348  11.396   5.298   6.135  0.0950 -0.3803  0.3645
  612MOL0     O84349  11.412   5.350   6.017 -0.1496 -0.3786 -0.0301
  612MOL0     C84350  11.297   5.384   5.952  0.2044  0.7827 -0.7772
  612MOL0     C84351  11.262   5.514   5.937 -0.8965 -0.7512 -0.3241
  612MOL0     C84352  11.166   5.559   5.842 -0.8139 -0.1626 -0.0948
  612MOL0     C84353  11.105   5.472   5.751 -0.5335  0.3768  0.0552
  612MOL0     O84354  11.031   5.527   5.655  0.6097  0.2410 -0.5675
  612MOL0     C84355  10.966   5.450   5.558 -0.8571 -0.1462 -0.0459
  612MOL0     C84356  10.864   5.541   5.492 -0.0212 -1.0532  0.1304
  612MOL0     C84357  10.778   5.464   5.401 -0.0370 -0.4760  0.2114
  612MOL0     C84358  10.667   5.386   5.470  0.7231 -0.3062 -0.8483
  612MOL0     C84359  10.548   5.365   5.367 -0.1674 -0.1799 -0.5715
  612MOL0     C84360  10.432   5.311   5.442 -0.5791 -0.0172 -0.3826
  612MOL0     C84361  10.309   5.286   5.357  0.8733 -0.0292 -0.0344
  612MOL0     C84362  10.205   5.209   5.426  0.0636 -1.0043 -0.1345
  612MOL0    Cl84363  10.224   5.042   5.478  0.2920  0.2618 -0.1006
  612MOL0     C84364  11.137   5.332   5.771  0.7357 -0.0128 -0.6143
  612MOL0     C84365  11.230   5.293   5.871 -0.2137  0.2625 -0.0836
  612MOL0     O84366  11.287   5.292   6.197  0.0150 -0.2831  0.1628
  612MOL0     C84367  11.621   5.208   6.096 -1.0713  0.4401  0.5241
  612MOL0     C84368  11.737   5.137   6.131  0.5903 -0.3144  0.4423
  612MOL0     N84369  12.207   4.629   6.567 -0.4018  0.0004 -0.2730
  612MOL0     N84370  12.318   4.677   6.618 -0.2425 -0.5218  0.1474
  612MOL0     C84371  11.631   5.495   6.490  0.2551 -0.0765 -0.2373
  612MOL0     C84372  11.488   5.513   6.487 -0.0672 -0.1668  0.5272
  612MOL0     C84373  11.058   5.485   6.652  0.4103 -0.5670  0.7215
  612MOL0     C84374  10.967   5.387   6.601 -0.4375 -0.0502 -0.4387
  612MOL0     C84375  10.837   5.423   6.576  0.2392 -0.4025  0.3810
  612MOL0     C84376  10.790   5.550   6.598  0.7588 -0.0084 -0.3503
  612MOL0     O84377  10.665   5.596   6.565 -0.1350  0.2371 -0.2816
  612MOL0     C84378  10.549   5.510   6.552 -0.3920  0.4031  0.1082
  612MOL0     C84379  10.426   5.593   6.534  0.2673 -0.5293 -0.0610
  612MOL0     C84380  10.408   5.643   6.386  0.6803 -0.3461 -0.6716
  612MOL0     C84381  10.259   5.673   6.343 -0.7152 -0.5413 -0.4794
  612MOL0     C84382  10.161   5.565   6.350 -0.1329 -0.8895  0.8353
  612MOL0     C84383  10.097   5.459   6.355  0.4348  0.1424  0.2826
  612MOL0     C84384  10.876   5.645   6.634 -1.5078 -0.8383 -1.1136
  612MOL0     C84385  11.007   5.620   6.663 -0.8961 -0.6581  1.1290
  612MOL0     C84386  11.080   5.744   6.711 -0.2629  1.0790  0.4057
  612MOL0     H84387  11.451   5.496   6.824 -1.0623 -1.5442 -0.2910
  612MOL0     H84388  11.685   5.464   6.821 -2.1053 -1.4356  0.9730
  612MOL0     H84389  11.892   5.415   6.415  3.7842  0.8480  0.3582
  612MOL0     H84390  11.829   5.275   6.510 -1.6830  1.0384 -0.8951
  612MOL0     H84391  12.095   5.424   6.500 -2.8582  0.3549 -2.8903
  612MOL0     H84392  12.059   5.348   6.655 -1.4204  0.9611  0.9542
  612MOL0     H84393  12.048   5.130   6.534 -1.7055  2.0107  1.3665
  612MOL0     H84394  12.105   5.206   6.387 -0.4031  2.0301  0.0070
  612MOL0     H84395  12.315   5.267   6.495  1.2181 -0.6632  2.2396
  612MOL0     H84396  12.262   5.214   6.650  0.9368  2.4361 -0.4784
  612MOL0     H84397  12.308   5.028   6.414 -1.9512 -0.0241  0.1798
  612MOL0     H84398  12.245   4.978   6.566 -1.9332  2.1530  0.6586
  612MOL0     H84399  12.505   5.121   6.579 -0.2854  0.4431 -2.0767
  612MOL0     H84400  12.432   4.997   6.684 -2.9833 -0.5467 -0.5462
  612MOL0     H84401  12.626   4.943   6.494 -0.1287 -3.8249  2.8913
  612MOL0     H84402  12.491   4.916   6.390  1.5036 -1.5526 -0.7042
  612MOL0     H84403  12.601   4.731   6.506  0.3870  1.1367  1.0874
  612MOL0     H84404  12.538   4.796   6.653 -2.8513 -0.0617  1.0402
  612MOL0     H84405  12.351   4.754   6.300 -0.1715 -0.9209 -0.5472
  612MOL0     H84406  12.053   4.523   6.369  2.4008 -1.6061  2.2958
  612MOL0     H84407  12.139   4.580   6.236  1.8832 -0.9776  0.5716
  612MOL0     H84408  11.920   4.699   6.249  1.7878 -1.1923 -1.8305
  612MOL0     H84409  11.941   4.751   6.412  0.2369  1.3135  0.0159
  612MOL0     H84410  12.109   4.907   6.358  0.3424 -0.8030  1.4064
  612MOL0     H84411  12.120   4.844   6.183 -0.4062  2.9432 -0.2415
  612MOL0     H84412  12.020   5.047   6.173  3.0117 -2.4712 -1.0912
  612MOL0     H84413  11.910   4.922   6.122 -0.4914 -5.2135  3.0197
  612MOL0     H84414  11.652   5.038   6.435  0.9128 -3.1989 -0.6482
  612MOL0     H84415  11.317   5.163   6.370 -0.4392 -0.3759  0.1697
  612MOL0     H84416  11.429   5.260   6.476  0.7360 -1.2289  0.5082
  612MOL0     H84417  11.412   5.091   6.493 -2.8832  0.1573 -0.8324
  612MOL0     H84418  11.312   5.590   5.995  0.2926 -1.3624 -0.5197
  612MOL0     H84419  11.150   5.665   5.825 -3.3181 -0.6420 -1.1900
  612MOL0     H84420  11.034   5.404   5.486 -0.8996 -1.7577  0.9025
  612MOL0     H84421  10.913   5.364   5.599  2.0398 -3.2579 -2.2617
  612MOL0     H84422  10.803   5.589   5.569 -0.8192  2.5497 -2.4813
  612MOL0     H84423  10.915   5.616   5.431 -1.3724  0.0197  0.2676
  612MOL0     H84424  10.836   5.388   5.349  3.1048  2.3035 -0.6615
  612MOL0     H84425  10.740   5.527   5.320  3.0711 -1.1232 -1.9164
  612MOL0     H84426  10.627   5.447   5.552  0.4722  0.7193 -1.7040
  612MOL0     H84427  10.693   5.296   5.527 -1.9152  0.8686  2.5989
  612MOL0     H84428  10.516   5.455   5.313 -3.2616 -1.5327 -1.2097
  612MOL0     H84429  10.573   5.283   5.298  0.1714  0.2741 -1.0026
  612MOL0     H84430  10.414   5.377   5.527  2.8221  1.7442 -0.8457
  612MOL0     H84431  10.465   5.216   5.486  0.3483 -0.3935 -1.7936
  612MOL0     H84432  10.338   5.223   5.273  1.4644 -0.2954  0.3670
  612MOL0     H84433  10.263   5.379   5.322  1.1344  0.4406  0.8295
  612MOL0     H84434  10.116   5.199   5.363  0.7253 -1.1848 -1.0625
  612MOL0     H84435  10.178   5.272   5.511 -2.0403 -3.5343  1.2232
  612MOL0     H84436  11.103   5.255   5.703 -1.3922 -1.0853  1.4900
  612MOL0     H84437  11.259   5.189   5.874  1.4358  0.6823 -0.5492
  612MOL0     H84438  11.621   5.265   6.003 -1.6648 -1.7674 -0.9190
  612MOL0     H84439  11.823   5.150   6.066 -1.5785  0.8828 -2.4041
  612MOL0     H84440  11.691   5.498   6.400  1.0373  1.8067  0.3249
  612MOL0     H84441  11.429   5.521   6.397  0.9812 -2.3348 -0.4287
  612MOL0     H84442  11.004   5.286   6.586  1.6918  0.4911  0.7917
  612MOL0     H84443  10.764   5.355   6.533 -2.3416  2.6949 -0.4349
  612MOL0     H84444  10.565   5.447   6.463 -0.6623  1.2013 -0.5139
  612MOL0     H84445  10.539   5.437   6.633  1.0227 -0.1125 -0.1614
  612MOL0     H84446  10.439   5.677   6.602 -0.3614 -2.8160  3.1283
  612MOL0     H84447  10.334   5.536   6.551 -0.8404  1.0932 -0.4921
  612MOL0     H84448  10.478   5.726   6.375  3.3745 -0.9879  6.2848
  612MOL0     H84449  10.435   5.566   6.314 -3.1566 -2.5150 -0.0884
  612MOL0     H84450  10.256   5.713   6.241 -2.7509 -2.3572 -1.2081
  612MOL0     H84451  10.233   5.764   6.398  0.6593 -0.1542 -0.4169
  612MOL0     H84452  10.038   5.369   6.358 -0.0304  0.4655  1.1526
  612MOL0     H84453  10.825   5.740   6.640  1.2658  0.6569  0.6433
  612MOL0     H84454  11.015   5.808   6.771  0.1425  1.8926 -0.0128
  612MOL0     H84455  11.172   5.707   6.758 -0.0964  1.4873  0.4011
  612MOL0     H84456  11.102   5.797   6.618  2.7224 -1.0232 -0.2684
  613MOL0     O84457   1.030  11.288   8.084 -0.9222 -0.5829  0.3353
  613MOL0     C84458   1.133  11.323   8.015 -0.1168  0.4554 -0.5345
  613MOL0     O84459   1.135  11.360   7.887 -0.3494  0.6302  0.6236
  613MOL0     C84460   1.018  11.332   7.817 -0.7893  0.0121 -0.1291
  613MOL0     C84461   0.891  11.376   7.859 -0.2057 -0.6914 -0.2280
  613MOL0     C84462   0.775  11.344   7.777  0.1544  0.8744 -0.2755
  613MOL0     C84463   0.787  11.275   7.659  0.2170  0.2577  0.8523
  613MOL0     O84464   0.682  11.223   7.584 -0.1752 -0.1483  0.0604
  613MOL0     C84465   0.557  11.288   7.604  1.3611 -0.3501 -0.5682
  613MOL0     C84466   0.457  11.276   7.489 -0.8524  0.1739 -0.4353
  613MOL0     C84467   0.401  11.142   7.455 -0.1318 -0.4682  0.3512
  613MOL0     C84468   0.406  11.118   7.301  0.2421 -0.1353  0.2842
  613MOL0     C84469   0.298  11.012   7.261 -0.1686 -0.1388  0.0147
  613MOL0     C84470   0.267  11.013   7.107 -0.2456 -0.5698  0.3601
  613MOL0     C84471   0.195  10.893   7.041  0.5824 -0.6678 -0.4165
  613MOL0     C84472   0.156  10.899   6.890 -0.3143 -1.1654  1.0106
  613MOL0     N84473   0.274  10.945   6.817 -0.2249  0.9651  0.0994
  613MOL0     C84474   0.400  10.887   6.819 -0.3627 -0.5262 -0.6293
  613MOL0     C84475   0.482  10.986   6.755  1.1028 -0.8817 -0.1516
  613MOL0     C84476   0.629  10.979   6.736 -0.2271 -0.6950  0.3465
  613MOL0     C84477   0.706  11.092   6.797 -1.2251 -0.7088 -0.4695
  613MOL0     C84478   0.697  11.102   6.953  0.3400  0.5434 -0.4633
  613MOL0     C84479   0.770  11.220   7.003 -0.1037 -0.2345  0.4529
  613MOL0     O84480   0.912  11.203   7.008  0.1677  0.0717 -0.1832
  613MOL0     C84481   0.958  11.133   7.115 -0.3022 -0.2270 -0.0993
  613MOL0     C84482   1.092  11.117   7.132  0.2659 -0.5887 -0.6722
  613MOL0     C84483   1.158  11.056   7.243  0.3156  1.1084 -0.3344
  613MOL0     C84484   1.307  11.042   7.243 -1.5856  0.3930 -0.3288
  613MOL0     C84485   1.078  11.006   7.349 -0.2550  0.4445 -0.6554
  613MOL0     C84486   1.134  10.941   7.466 -0.3737  1.1978  0.8231
  613MOL0     O84487   1.266  10.946   7.510  0.9745  0.0477  0.1556
  613MOL0     C84488   1.324  10.884   7.617  0.6905  0.5814  0.3316
  613MOL0     C84489   1.459  10.896   7.618  0.1113 -1.1041  1.1046
  613MOL0     C84490   1.530  10.845   7.730 -0.5303  0.3789  0.3789
  613MOL0     C84491   1.468  10.779   7.837 -0.5575  0.0232 -0.2028
  613MOL0     O84492   1.547  10.738   7.942 -0.0907  0.5847  0.7236
  613MOL0     C84493   1.496  10.756   8.076 -1.3803  0.0808 -0.0253
  613MOL0     C84494   1.428  10.637   8.139 -0.5390  0.1020 -0.1809
  613MOL0     C84495   1.529  10.520   8.162 -0.6725 -0.0449 -0.3401
  613MOL0     C84496   1.647  10.576   8.240  0.3762 -0.0312 -0.2869
  613MOL0     C84497   1.743  10.465   8.270 -0.3436 -0.5755  0.4357
  613MOL0     C84498   1.858  10.532   8.349 -0.0637  0.2528  0.2465
  613MOL0     C84499   1.938  10.425   8.422 -0.9386  0.2807  0.7396
  613MOL0     C84500   2.026  10.490   8.526  0.4922  0.0029  0.7853
  613MOL0    Cl84501   2.126  10.354   8.595  0.3280 -0.0203 -0.0732
  613MOL0     C84502   1.322  10.764   7.829 -0.0437 -0.7370  0.4993
  613MOL0     C84503   1.260  10.809   7.714  0.6827  0.2480 -0.4956
  613MOL0     O84504   1.049  10.881   7.524 -0.1532 -0.0427 -0.3422
  613MOL0     C84505   0.938  11.019   7.338 -0.3307 -1.1374  0.0982
  613MOL0     C84506   0.884  11.076   7.223  0.3799  0.2110  0.1469
  613MOL0     N84507   0.402  11.091   6.724 -0.2179 -0.7571 -0.0400
  613MOL0     N84508   0.282  11.065   6.753 -1.2015  0.6592 -0.9914
  613MOL0     C84509   0.916  11.238   7.619  0.3838  0.0639 -0.5937
  613MOL0     C84510   1.030  11.258   7.700 -0.6587 -0.1079 -0.0605
  613MOL0     C84511   1.255  11.320   8.083 -0.3899  0.3028 -1.2777
  613MOL0     C84512   1.276  11.400   8.200  0.4982 -0.4501 -0.3625
  613MOL0     C84513   1.405  11.406   8.262  0.4143  0.8410 -1.4430
  613MOL0     C84514   1.510  11.328   8.216  0.4725 -0.8192  0.4426
  613MOL0     O84515   1.628  11.348   8.274  0.4970 -0.4717  0.3224
  613MOL0     C84516   1.744  11.283   8.224 -0.7066  0.0471 -0.0164
  613MOL0     C84517   1.860  11.342   8.294 -0.5709 -0.1604  0.4450
  613MOL0     C84518   1.879  11.283   8.443 -0.5608 -0.1827  0.7434
  613MOL0     C84519   1.992  11.356   8.528  0.4353 -1.0693  0.1128
  613MOL0     C84520   2.122  11.333   8.468  0.2499 -0.3304  0.2283
  613MOL0     C84521   2.233  11.322   8.421  0.4018 -0.0190 -0.1750
  613MOL0     C84522   1.483  11.234   8.114  0.6086  1.3766 -0.3155
  613MOL0     C84523   1.356  11.232   8.047 -0.2500 -0.3048  0.0684
  613MOL0     C84524   1.336  11.115   7.944 -0.0529 -0.0254  0.2413
  613MOL0     H84525   0.865  11.435   7.946 -2.5106  2.4702 -2.8596
  613MOL0     H84526   0.678  11.375   7.814 -0.1465 -1.4230  1.0523
  613MOL0     H84527   0.581  11.394   7.612 -1.1486  0.2182  0.5529
  613MOL0     H84528   0.517  11.246   7.697  3.6010  0.8893  1.0454
  613MOL0     H84529   0.376  11.348   7.501 -0.9269 -0.2232  1.9414
  613MOL0     H84530   0.516  11.302   7.400 -0.1475  0.7744  0.1941
  613MOL0     H84531   0.452  11.056   7.501 -0.7563 -0.9991  0.0658
  613MOL0     H84532   0.298  11.142   7.492 -0.2102  0.3807  0.1446
  613MOL0     H84533   0.368  11.211   7.256 -1.2111 -0.2504  1.2096
  613MOL0     H84534   0.511  11.105   7.273  0.2685  1.4186 -0.4485
  613MOL0     H84535   0.198  11.028   7.300 -1.0317 -1.6187 -1.4717
  613MOL0     H84536   0.342  10.919   7.300  2.7994  1.6606  1.2879
  613MOL0     H84537   0.211  11.103   7.083  2.2838  1.4227  1.4387
  613MOL0     H84538   0.369  11.014   7.069 -0.2273 -0.1809  0.4202
  613MOL0     H84539   0.107  10.866   7.100  0.3533  2.8970  1.0832
  613MOL0     H84540   0.269  10.812   7.045  0.5529 -1.0570 -4.2271
  613MOL0     H84541   0.117  10.804   6.853 -4.6357  0.0559  1.9102
  613MOL0     H84542   0.075  10.970   6.870 -1.0424 -1.7932  1.6614
  613MOL0     H84543   0.440  10.795   6.859  2.4786  0.6639 -0.5018
  613MOL0     H84544   0.662  10.968   6.632  1.8574 -0.3077  0.9242
  613MOL0     H84545   0.664  10.888   6.785  0.4030 -1.1027 -0.8324
  613MOL0     H84546   0.810  11.080   6.766 -1.2187 -1.5130 -0.1689
  613MOL0     H84547   0.655  11.168   6.737 -2.0603 -2.1649 -1.6649
  613MOL0     H84548   0.592  11.107   6.982 -0.2906 -4.7382 -0.8413
  613MOL0     H84549   0.747  11.011   6.985 -0.5279  0.4476  0.6937
  613MOL0     H84550   0.746  11.312   6.949 -4.5179 -0.2561  1.9807
  613MOL0     H84551   0.716  11.254   7.091 -1.4225  3.3019 -1.5205
  613MOL0     H84552   1.148  11.151   7.045  0.6392 -0.8306 -0.5306
  613MOL0     H84553   1.329  11.059   7.137 -3.2370  0.5903 -0.6679
  613MOL0     H84554   1.340  10.941   7.267  0.0647  1.1299  0.6831
  613MOL0     H84555   1.349  11.119   7.309 -0.3712  1.5702 -2.3421
  613MOL0     H84556   1.513  10.947   7.538  0.9015 -1.7496  1.2167
  613MOL0     H84557   1.632  10.878   7.746 -0.5242  0.1493  0.8453
  613MOL0     H84558   1.581  10.789   8.136 -0.2612  1.0752 -2.0471
  613MOL0     H84559   1.414  10.829   8.075 -1.4880  0.0092  1.2065
  613MOL0     H84560   1.376  10.675   8.228  0.5347  0.6673  0.2275
  613MOL0     H84561   1.354  10.594   8.071 -0.0805  2.1322 -2.0875
  613MOL0     H84562   1.569  10.494   8.063  3.8118  1.3131  0.8662
  613MOL0     H84563   1.479  10.438   8.213 -1.8824  1.5954  1.2506
  613MOL0     H84564   1.602  10.608   8.334  0.0589  1.1769 -0.8352
  613MOL0     H84565   1.705  10.656   8.194  0.9749  0.0706  0.6347
  613MOL0     H84566   1.701  10.387   8.333 -1.2544 -0.2293  0.2733
  613MOL0     H84567   1.783  10.423   8.178  0.2876  2.8858 -1.0407
  613MOL0     H84568   1.812  10.589   8.430 -0.9330 -0.4410  0.2523
  613MOL0     H84569   1.925  10.594   8.289  0.6291  0.6522  1.3848
  613MOL0     H84570   1.991  10.372   8.342  2.2504 -0.2352  3.0034
  613MOL0     H84571   1.877  10.342   8.459 -3.9802  0.7757 -2.6411
  613MOL0     H84572   1.967  10.533   8.608 -1.8796  0.8932 -1.2725
  613MOL0     H84573   2.102  10.559   8.487 -0.1178  0.8307  1.0382
  613MOL0     H84574   1.265  10.710   7.904 -1.1762 -2.0349 -1.2359
  613MOL0     H84575   1.154  10.786   7.712  0.2655  1.8277  0.8617
  613MOL0     H84576   0.860  10.985   7.405 -0.4359 -2.8454 -0.8396
  613MOL0     H84577   0.776  11.073   7.213  0.1030  1.5804  2.0609
  613MOL0     H84578   0.919  11.178   7.528 -1.0987 -1.5953  0.3984
  613MOL0     H84579   1.129  11.222   7.674 -0.4539 -0.1977  0.8290
  613MOL0     H84580   1.199  11.466   8.240  1.7127  0.5756  0.3467
  613MOL0     H84581   1.421  11.485   8.334 -0.1600 -0.1187 -0.2216
  613MOL0     H84582   1.739  11.175   8.241  0.4196  0.1836  1.4290
  613MOL0     H84583   1.758  11.306   8.118 -2.0029  1.8378  0.1507
  613MOL0     H84584   1.846  11.450   8.291 -1.2577 -0.2553 -2.6597
  613MOL0     H84585   1.952  11.332   8.235 -2.3929 -1.0978 -2.4625
  613MOL0     H84586   1.780  11.284   8.490 -1.3501 -3.1008 -0.6631
  613MOL0     H84587   1.916  11.182   8.424  3.0245  1.2745 -0.9819
  613MOL0     H84588   2.007  11.321   8.631  0.8303  1.0334  0.8297
  613MOL0     H84589   1.964  11.460   8.550 -1.3352 -1.5933  0.5083
  613MOL0     H84590   2.336  11.313   8.393  0.2447 -1.2379 -0.4255
  613MOL0     H84591   1.556  11.161   8.080  0.2698  2.4678 -3.6804
  613MOL0     H84592   1.415  11.098   7.870 -0.6368 -1.9840  0.0155
  613MOL0     H84593   1.322  11.020   7.997  1.1399 -0.8269 -0.8064
  613MOL0     H84594   1.244  11.128   7.886 -1.9202 -2.6082  2.3533
  614MOL0     O84595   5.351   4.210   4.311 -0.3671  0.0654  1.0035
  614MOL0     C84596   5.287   4.138   4.235 -0.5610 -0.5040  0.5806
  614MOL0     O84597   5.283   4.159   4.099  0.0517  0.6679  0.0456
  614MOL0     C84598   5.371   4.252   4.038  0.6327 -0.0471  0.6485
  614MOL0     C84599   5.491   4.206   3.983 -0.8157 -0.9590  0.3330
  614MOL0     C84600   5.570   4.304   3.913  0.7219  0.2776  0.0009
  614MOL0     C84601   5.542   4.445   3.926  0.1295  0.1003  0.0158
  614MOL0     O84602   5.631   4.538   3.876 -0.9182  0.0433 -0.8939
  614MOL0     C84603   5.754   4.551   3.943 -0.4820  0.8492 -0.7396
  614MOL0     C84604   5.767   4.686   4.002  0.3683 -0.2538 -0.4428
  614MOL0     C84605   5.875   4.717   4.099 -0.1747 -0.8123 -0.4859
  614MOL0     C84606   6.009   4.696   4.031  0.0364  0.6558  0.0533
  614MOL0     C84607   6.115   4.745   4.134 -0.4454  0.4146 -0.2576
  614MOL0     C84608   6.264   4.740   4.096  0.1747  0.2981  0.1578
  614MOL0     C84609   6.350   4.798   4.211 -0.1901 -0.8581 -0.6426
  614MOL0     C84610   6.355   4.948   4.213  0.7368 -0.4727  0.2650
  614MOL0     N84611   6.442   5.007   4.315 -0.7982 -0.4669  0.4002
  614MOL0     C84612   6.398   5.081   4.422 -0.0542  1.1852 -0.6432
  614MOL0     C84613   6.500   5.081   4.510 -0.3452 -0.2611 -0.6954
  614MOL0     C84614   6.500   5.119   4.652  0.1571  0.1326 -0.1888
  614MOL0     C84615   6.364   5.183   4.689 -0.3846 -0.1757  0.5245
  614MOL0     C84616   6.381   5.257   4.817  0.2853 -0.9779 -0.2977
  614MOL0     C84617   6.248   5.327   4.878 -0.5343 -0.2330  0.0177
  614MOL0     O84618   6.168   5.398   4.779  0.0997  0.6785  1.0916
  614MOL0     C84619   6.055   5.465   4.811 -0.0985  0.1979 -0.0660
  614MOL0     C84620   5.993   5.536   4.707 -0.4667 -0.1250  0.4429
  614MOL0     C84621   5.896   5.627   4.734  0.0115 -0.8041  0.7011
  614MOL0     C84622   5.833   5.702   4.618 -0.3937  0.0374 -0.7624
  614MOL0     C84623   5.838   5.645   4.855  0.1370  0.3115  0.5224
  614MOL0     C84624   5.712   5.714   4.879  0.2047  0.8128  0.5971
  614MOL0     O84625   5.708   5.797   4.989 -0.5720 -0.3133  0.2596
  614MOL0     C84626   5.601   5.874   5.028 -0.3425  0.5276  0.9015
  614MOL0     C84627   5.633   6.003   5.079  0.0517  0.0392  0.0126
  614MOL0     C84628   5.527   6.085   5.126 -0.2638 -0.5471  0.7767
  614MOL0     C84629   5.394   6.056   5.108 -0.1709  1.4927 -0.0620
  614MOL0     O84630   5.294   6.149   5.122 -0.0187 -0.2329  0.2467
  614MOL0     C84631   5.332   6.290   5.124  0.1678 -0.4733  0.1895
  614MOL0     C84632   5.203   6.368   5.148 -0.3360 -0.3627  0.3321
  614MOL0     C84633   5.168   6.489   5.047 -1.2292  0.5628 -1.1219
  614MOL0     C84634   5.257   6.615   5.072  0.7443  0.2621 -0.1092
  614MOL0     C84635   5.210   6.738   4.985 -0.6905  0.5325 -0.2746
  614MOL0     C84636   5.073   6.772   5.008  0.0394  0.5632  0.9188
  614MOL0     C84637   5.033   6.823   5.146 -0.5710 -0.4772  0.6564
  614MOL0     C84638   4.877   6.833   5.155  0.3015  0.5175 -0.0777
  614MOL0    Cl84639   4.834   6.875   5.328 -0.2856 -0.0786 -0.3287
  614MOL0     C84640   5.368   5.923   5.055  0.2356  0.3241 -0.2190
  614MOL0     C84641   5.466   5.830   5.015 -0.3149 -0.2006  0.0493
  614MOL0     O84642   5.618   5.686   4.805  0.1073 -0.3932  0.3144
  614MOL0     C84643   5.890   5.566   4.959 -0.2859 -0.0815 -0.9890
  614MOL0     C84644   5.992   5.472   4.937  0.5454  0.1332 -0.4786
  614MOL0     N84645   6.612   5.027   4.444  0.9808  0.8695  0.5666
  614MOL0     N84646   6.565   4.971   4.339 -0.6154 -0.7908  0.5311
  614MOL0     C84647   5.419   4.481   3.977  0.4108 -0.7785 -0.3310
  614MOL0     C84648   5.331   4.386   4.020 -0.7341  0.2657  1.0977
  614MOL0     C84649   5.212   4.029   4.291  0.1312  0.3563 -0.5846
  614MOL0     C84650   5.185   3.921   4.207  0.4024  0.1572 -0.4118
  614MOL0     C84651   5.110   3.806   4.238 -1.1623 -0.9823  0.6617
  614MOL0     C84652   5.052   3.808   4.372  0.0611  0.6242 -0.0057
  614MOL0     O84653   4.978   3.702   4.422  0.2546  0.0776  0.5739
  614MOL0     C84654   4.938   3.591   4.337 -0.3334 -0.3255 -0.6903
  614MOL0     C84655   4.946   3.466   4.417  0.9515  0.6619  0.3569
  614MOL0     C84656   5.084   3.430   4.459  0.0843  0.0831  0.3021
  614MOL0     C84657   5.081   3.316   4.553  0.5637  0.2295 -0.0415
  614MOL0     C84658   5.221   3.280   4.582 -0.1767 -0.7174  0.7870
  614MOL0     C84659   5.340   3.263   4.621  1.0225  0.3219  0.3761
  614MOL0     C84660   5.080   3.907   4.462  0.2486 -0.5792  0.1779
  614MOL0     C84661   5.155   4.023   4.422  0.1743 -0.0877  0.4682
  614MOL0     C84662   5.173   4.131   4.520  0.1228 -0.7001 -0.2675
  614MOL0     H84663   5.525   4.105   4.002  2.4256  0.2298  1.7442
  614MOL0     H84664   5.668   4.274   3.876  1.3191  0.5584  1.2999
  614MOL0     H84665   5.847   4.534   3.888 -0.9844 -1.6628 -0.9252
  614MOL0     H84666   5.747   4.485   4.030 -0.7718  0.2717 -1.1944
  614MOL0     H84667   5.772   4.762   3.923 -0.3701  4.9111  3.9213
  614MOL0     H84668   5.676   4.713   4.057 -1.0784  0.4676 -3.0042
  614MOL0     H84669   5.849   4.813   4.143 -2.1795 -0.3744 -2.4285
  614MOL0     H84670   5.870   4.642   4.179  0.8079 -1.5203 -1.0678
  614MOL0     H84671   6.025   4.589   4.010 -0.9007  0.2214  1.4108
  614MOL0     H84672   6.016   4.755   3.939 -2.1713 -2.1954 -2.1565
  614MOL0     H84673   6.103   4.689   4.227  3.4933  1.4218  1.0666
  614MOL0     H84674   6.097   4.849   4.163  3.4436  1.4896 -1.1108
  614MOL0     H84675   6.281   4.632   4.099  0.3892  0.2922 -0.7371
  614MOL0     H84676   6.289   4.792   4.002 -2.4769  3.1657  0.8469
  614MOL0     H84677   6.447   4.748   4.207 -0.6088 -1.6227 -2.6724
  614MOL0     H84678   6.299   4.771   4.304  1.4190 -1.5445  0.0880
  614MOL0     H84679   6.386   4.979   4.113 -1.7686 -0.3338 -0.5366
  614MOL0     H84680   6.253   4.989   4.219  0.8492  0.5593 -3.0081
  614MOL0     H84681   6.303   5.126   4.447  0.4171  1.4494  0.7355
  614MOL0     H84682   6.586   5.180   4.680 -1.1428  0.9380  2.2947
  614MOL0     H84683   6.513   5.042   4.728 -1.8503  2.2974  2.5402
  614MOL0     H84684   6.340   5.245   4.602  4.1741 -0.8028 -1.4576
  614MOL0     H84685   6.287   5.106   4.703  1.0433 -2.5294 -3.0395
  614MOL0     H84686   6.416   5.186   4.892  3.5283 -1.5041 -2.1139
  614MOL0     H84687   6.456   5.336   4.810 -1.8971  1.1400 -1.1430
  614MOL0     H84688   6.179   5.262   4.931 -1.2508  1.0811  0.7605
  614MOL0     H84689   6.284   5.396   4.955 -0.7314 -1.7535  1.5168
  614MOL0     H84690   6.034   5.524   4.608 -0.0729  1.2388  0.4209
  614MOL0     H84691   5.906   5.691   4.537  1.4205 -2.9291  1.1052
  614MOL0     H84692   5.817   5.809   4.633 -1.1889  0.2778 -2.8511
  614MOL0     H84693   5.737   5.655   4.591 -0.7230 -0.2892  0.8676
  614MOL0     H84694   5.736   6.034   5.089  0.0193  0.6600 -1.4255
  614MOL0     H84695   5.553   6.186   5.154  0.7439 -0.9598  1.4010
  614MOL0     H84696   5.402   6.320   5.202 -0.2949  1.0359  0.0517
  614MOL0     H84697   5.379   6.333   5.035 -0.3684 -2.3707 -1.0670
  614MOL0     H84698   5.113   6.306   5.158 -1.3415  0.5558 -2.2099
  614MOL0     H84699   5.227   6.412   5.245 -0.1955  2.5383 -0.9108
  614MOL0     H84700   5.060   6.503   5.061 -1.0613 -0.5054  1.9555
  614MOL0     H84701   5.172   6.451   4.944 -0.2833 -1.5085 -0.3797
  614MOL0     H84702   5.358   6.587   5.039  0.8757 -1.3521  1.5300
  614MOL0     H84703   5.258   6.626   5.181  2.5590 -1.2846  0.0801
  614MOL0     H84704   5.274   6.821   5.015  1.8842 -1.1288 -0.8982
  614MOL0     H84705   5.217   6.716   4.878 -0.7642  0.4012 -0.2522
  614MOL0     H84706   5.012   6.686   4.978  3.1216 -0.4941 -3.2888
  614MOL0     H84707   5.038   6.850   4.940 -1.8573  1.6580  2.9943
  614MOL0     H84708   5.076   6.923   5.157  0.4709 -0.1485 -4.1275
  614MOL0     H84709   5.081   6.759   5.219  0.8347 -1.8517 -1.3600
  614MOL0     H84710   4.828   6.739   5.129 -0.9511  1.1835 -0.2144
  614MOL0     H84711   4.832   6.911   5.093 -2.5613 -0.8281  0.1511
  614MOL0     H84712   5.272   5.877   5.033  1.7218 -2.5069 -1.3161
  614MOL0     H84713   5.435   5.735   4.971  1.6954 -1.5761  1.4208
  614MOL0     H84714   5.851   5.567   5.060  3.5076  0.8770  0.6394
  614MOL0     H84715   6.031   5.422   5.025 -0.6739  0.0001  0.0038
  614MOL0     H84716   5.383   4.583   3.965 -0.4007 -0.8670  1.1750
  614MOL0     H84717   5.230   4.420   4.037  0.0891  2.2673  2.3153
  614MOL0     H84718   5.209   3.919   4.101 -3.2042 -0.8546 -1.3775
  614MOL0     H84719   5.087   3.746   4.151  0.1310  1.1481 -1.2932
  614MOL0     H84720   4.837   3.610   4.300 -0.7831  1.4124  1.2243
  614MOL0     H84721   5.008   3.584   4.253  1.5653  0.4788  0.7281
  614MOL0     H84722   4.914   3.382   4.355  2.5720 -2.0782  2.9175
  614MOL0     H84723   4.874   3.491   4.496 -2.6200  1.8740 -2.9823
  614MOL0     H84724   5.144   3.398   4.373  0.6869 -3.2534  1.8301
  614MOL0     H84725   5.142   3.512   4.504  3.5672 -2.8117  1.5762
  614MOL0     H84726   5.040   3.223   4.514  3.8344 -2.4490  2.2682
  614MOL0     H84727   5.036   3.339   4.650  3.9300 -5.3135  3.4024
  614MOL0     H84728   5.442   3.241   4.646  1.1763  2.4746  1.8540
  614MOL0     H84729   5.044   3.908   4.564  0.9485  4.8687  0.6740
  614MOL0     H84730   5.114   4.216   4.483  0.9667  0.3267  0.6787
  614MOL0     H84731   5.126   4.111   4.617  0.1381 -1.9373 -0.4982
  614MOL0     H84732   5.277   4.153   4.544  0.2945  3.0260 -3.3668
  615MOL0     O84733   3.665   3.740   8.169 -0.1385 -0.1415  1.3013
  615MOL0     C84734   3.630   3.667   8.072 -0.6583 -0.2688 -1.1359
  615MOL0     O84735   3.688   3.671   7.948  0.6218 -0.2625 -0.6139
  615MOL0     C84736   3.802   3.743   7.951  0.4360 -0.1702 -0.4136
  615MOL0     C84737   3.822   3.881   7.928  0.3416 -0.5056  0.3511
  615MOL0     C84738   3.950   3.936   7.929  0.5597  0.7193  0.1260
  615MOL0     C84739   4.059   3.854   7.938 -0.6782  0.6451  0.4547
  615MOL0     O84740   4.178   3.905   7.929 -0.0462  0.0364 -0.1493
  615MOL0     C84741   4.253   3.860   7.818 -0.1435  0.0879  1.1716
  615MOL0     C84742   4.247   3.959   7.696  0.5649 -1.4586 -0.2642
  615MOL0     C84743   4.336   4.078   7.728 -0.4722  0.0016 -0.6935
  615MOL0     C84744   4.301   4.141   7.865  0.0891 -0.1351 -0.7683
  615MOL0     C84745   4.360   4.287   7.870 -0.4938  0.2098  0.3707
  615MOL0     C84746   4.316   4.355   7.999  0.6938 -0.3112  0.5958
  615MOL0     C84747   4.384   4.493   8.000  0.7251 -0.8113  0.2483
  615MOL0     C84748   4.336   4.588   8.106 -0.1075  0.4624 -0.5294
  615MOL0     N84749   4.190   4.623   8.085 -0.7620 -0.0684 -0.5228
  615MOL0     C84750   4.089   4.594   8.165  0.3329 -0.2794  0.7883
  615MOL0     C84751   3.981   4.652   8.094 -0.3917 -0.1028 -0.0089
  615MOL0     C84752   3.837   4.658   8.137  0.2095 -0.5428  0.2725
  615MOL0     C84753   3.743   4.591   8.035 -0.2562 -0.6462  0.1185
  615MOL0     C84754   3.725   4.672   7.910 -0.6703  0.0220  0.5470
  615MOL0     C84755   3.595   4.628   7.841  0.2265  0.1513 -0.2493
  615MOL0     O84756   3.608   4.502   7.775 -0.0709  0.5405  0.2258
  615MOL0     C84757   3.508   4.452   7.706  0.4621  0.4245  0.0507
  615MOL0     C84758   3.543   4.404   7.580 -1.2422 -0.2440 -0.3556
  615MOL0     C84759   3.452   4.352   7.490 -0.1390  0.6930  0.0304
  615MOL0     C84760   3.491   4.291   7.360  0.1817 -0.4756 -1.2707
  615MOL0     C84761   3.316   4.378   7.508  0.2434 -0.0952 -0.7339
  615MOL0     C84762   3.217   4.363   7.406  0.9021 -0.3071  0.0001
  615MOL0     O84763   3.212   4.238   7.342 -0.1166 -0.2640 -0.2909
  615MOL0     C84764   3.103   4.205   7.257  0.1889 -0.5963  0.0706
  615MOL0     C84765   3.029   4.087   7.274 -0.4020  0.7762  0.7880
  615MOL0     C84766   2.929   4.048   7.182 -0.5424  0.4066 -0.0890
  615MOL0     C84767   2.906   4.127   7.070  0.1840  0.1944  0.0926
  615MOL0     O84768   2.804   4.079   6.988  0.5805 -0.8677 -0.2648
  615MOL0     C84769   2.805   4.115   6.850 -0.0182  0.3278  0.1051
  615MOL0     C84770   2.685   4.216   6.820  0.1592 -0.4851  0.5672
  615MOL0     C84771   2.551   4.157   6.794 -0.3102 -0.1124 -0.2481
  615MOL0     C84772   2.541   4.087   6.669  0.9264  0.0684 -0.3036
  615MOL0     C84773   2.400   4.037   6.639  0.3164  0.6206  0.1553
  615MOL0     C84774   2.393   3.972   6.499  0.3090 -0.0794 -0.4055
  615MOL0     C84775   2.246   3.918   6.474  0.2560  0.1956 -0.8902
  615MOL0     C84776   2.148   4.017   6.428  0.2834 -0.3437 -0.4555
  615MOL0    Cl84777   2.154   4.034   6.251  0.5575 -0.1070  0.1048
  615MOL0     C84778   2.975   4.244   7.044 -0.6511 -0.0812  0.7957
  615MOL0     C84779   3.083   4.278   7.139  0.3390 -0.6725  0.1452
  615MOL0     O84780   3.149   4.460   7.385 -0.0325 -0.5837 -0.3945
  615MOL0     C84781   3.281   4.449   7.625 -0.3288  0.4776  1.3524
  615MOL0     C84782   3.368   4.479   7.724 -0.2961 -0.0602  0.0280
  615MOL0     N84783   4.029   4.714   7.980 -0.2065 -0.4570  0.0922
  615MOL0     N84784   4.154   4.690   7.978 -0.3646 -0.2587  0.7477
  615MOL0     C84785   4.042   3.715   7.962 -1.8182  0.6886  0.8647
  615MOL0     C84786   3.918   3.660   7.957  0.6821  0.3320 -0.4542
  615MOL0     C84787   3.535   3.553   8.099 -0.4007 -0.5199  0.2363
  615MOL0     C84788   3.482   3.492   7.986 -0.3024  0.0989  0.5154
  615MOL0     C84789   3.372   3.409   7.986 -0.1547 -0.0900 -0.1866
  615MOL0     C84790   3.323   3.380   8.122  0.0590  0.1860  0.5609
  615MOL0     O84791   3.214   3.300   8.159 -0.5535  0.0327 -0.0138
  615MOL0     C84792   3.155   3.232   8.057  0.6124  0.0243 -0.1696
  615MOL0     C84793   3.243   3.114   8.010 -0.1501 -0.0619  0.2175
  615MOL0     C84794   3.162   3.050   7.882 -0.2120 -0.0455 -0.4128
  615MOL0     C84795   3.254   2.978   7.785 -0.5106  0.0384 -0.2224
  615MOL0     C84796   3.192   2.883   7.688  0.3318  0.4816  0.0016
  615MOL0     C84797   3.145   2.821   7.591  0.1933  1.0759 -0.3444
  615MOL0     C84798   3.392   3.435   8.234  0.6693 -0.0201 -0.4381
  615MOL0     C84799   3.499   3.519   8.230  1.2065  0.0233  1.0431
  615MOL0     C84800   3.565   3.564   8.356  0.3661  0.5895 -0.0894
  615MOL0     H84801   3.736   3.947   7.932 -1.4464 -2.7535  1.7705
  615MOL0     H84802   3.972   4.043   7.926  0.6912  0.7332 -3.6459
  615MOL0     H84803   4.207   3.774   7.769  0.3144 -0.7044  2.0818
  615MOL0     H84804   4.352   3.817   7.835  1.8979  2.6534 -2.7646
  615MOL0     H84805   4.292   3.905   7.612 -3.1123 -4.7838 -0.3591
  615MOL0     H84806   4.147   3.990   7.664  1.1475 -0.6919 -1.4179
  615MOL0     H84807   4.439   4.041   7.729 -0.6218 -0.4694 -1.7739
  615MOL0     H84808   4.313   4.151   7.650 -0.0316 -0.0137 -0.8362
  615MOL0     H84809   4.193   4.153   7.880  0.0520  0.0775 -1.1778
  615MOL0     H84810   4.336   4.079   7.947 -1.2826 -0.9674 -0.7792
  615MOL0     H84811   4.325   4.334   7.777 -0.3948 -2.4058 -1.1086
  615MOL0     H84812   4.469   4.289   7.882 -0.5412 -0.2116  0.9347
  615MOL0     H84813   4.207   4.367   7.997  0.7596  0.2484  0.3007
  615MOL0     H84814   4.350   4.302   8.089 -1.0652  1.8216  2.6500
  615MOL0     H84815   4.352   4.542   7.908 -0.1189  0.0085  0.9494
  615MOL0     H84816   4.493   4.487   8.006  1.1612  1.7899 -2.7491
  615MOL0     H84817   4.362   4.558   8.208  1.4071  1.3689 -0.6079
  615MOL0     H84818   4.394   4.680   8.094  1.7153 -0.7965 -2.0895
  615MOL0     H84819   4.078   4.547   8.263  0.3350 -0.4109  0.7251
  615MOL0     H84820   3.802   4.761   8.149  0.7808 -0.2764 -0.2577
  615MOL0     H84821   3.828   4.598   8.227 -4.5739 -1.5583 -0.6442
  615MOL0     H84822   3.778   4.489   8.018 -1.4265 -0.9714 -0.4668
  615MOL0     H84823   3.641   4.598   8.076 -1.2432  2.1708 -2.4749
  615MOL0     H84824   3.721   4.781   7.924 -1.1530 -0.0624  1.1010
  615MOL0     H84825   3.801   4.639   7.838  2.8174  1.6922  3.1608
  615MOL0     H84826   3.513   4.624   7.913  0.5434  3.9779  0.5210
  615MOL0     H84827   3.565   4.703   7.767  2.4928  0.2257 -1.1832
  615MOL0     H84828   3.648   4.393   7.555 -0.5226 -2.5229  2.9363
  615MOL0     H84829   3.448   4.341   7.273  0.6651  0.8166 -0.8042
  615MOL0     H84830   3.472   4.184   7.362 -1.4158 -0.2259  1.1589
  615MOL0     H84831   3.599   4.299   7.349 -0.0216  0.4368 -2.8069
  615MOL0     H84832   3.035   4.022   7.362  0.7928 -3.6049 -2.1797
  615MOL0     H84833   2.876   3.958   7.210 -0.7146  1.7648  5.0563
  615MOL0     H84834   2.900   4.154   6.814  0.5042 -0.7417  0.2935
  615MOL0     H84835   2.784   4.024   6.792  0.6634  0.3960 -0.2468
  615MOL0     H84836   2.674   4.291   6.899 -1.0480 -1.7329  1.6420
  615MOL0     H84837   2.714   4.259   6.725 -0.5850  0.1510  0.6214
  615MOL0     H84838   2.485   4.242   6.810  1.9185  1.2227  2.8128
  615MOL0     H84839   2.523   4.082   6.868 -0.7063  1.1955  0.9759
  615MOL0     H84840   2.622   4.013   6.673  0.4163 -0.4892 -0.1359
  615MOL0     H84841   2.567   4.156   6.589  0.7181 -0.5191 -0.8907
  615MOL0     H84842   2.377   3.961   6.714  1.8244 -1.1428 -1.0848
  615MOL0     H84843   2.328   4.119   6.647  0.2598  0.5022  0.9631
  615MOL0     H84844   2.461   3.886   6.502  0.1500 -0.1986  1.4588
  615MOL0     H84845   2.412   4.036   6.413 -0.7230  0.8461  0.0353
  615MOL0     H84846   2.203   3.859   6.555  1.3866 -1.8626 -1.7160
  615MOL0     H84847   2.266   3.846   6.394  3.1750 -0.1509  0.0306
  615MOL0     H84848   2.164   4.116   6.472 -1.5761 -0.4302  0.5275
  615MOL0     H84849   2.048   3.989   6.461 -0.2240  0.9882 -0.7940
  615MOL0     H84850   2.937   4.316   6.972 -0.7960 -1.1147 -0.1798
  615MOL0     H84851   3.142   4.369   7.131  0.7296 -1.0572 -1.8239
  615MOL0     H84852   3.175   4.464   7.643 -0.9843  0.8389 -2.0674
  615MOL0     H84853   3.337   4.529   7.816 -2.4490 -2.2809  0.6091
  615MOL0     H84854   4.130   3.657   7.989 -0.0098  3.1397  0.4898
  615MOL0     H84855   3.906   3.553   7.970  0.0278  0.4993  0.4650
  615MOL0     H84856   3.529   3.499   7.888 -0.5959 -1.8079  0.2124
  615MOL0     H84857   3.308   3.369   7.909 -3.6392 -1.7171  3.2088
  615MOL0     H84858   3.062   3.184   8.089  0.5242  1.3195  1.6765
  615MOL0     H84859   3.131   3.303   7.977 -1.1420  0.6603  0.8533
  615MOL0     H84860   3.250   3.043   8.093  1.0499 -0.6152 -0.3314
  615MOL0     H84861   3.347   3.143   7.990 -0.1884 -0.2262 -0.2219
  615MOL0     H84862   3.095   2.972   7.920  3.3310 -2.8173  0.6327
  615MOL0     H84863   3.124   3.137   7.828  0.7644 -1.2983 -3.2768
  615MOL0     H84864   3.330   2.920   7.838 -0.9734  0.4882  0.9835
  615MOL0     H84865   3.320   3.053   7.740 -0.8537  0.6694  0.3129
  615MOL0     H84866   3.111   2.783   7.497  2.4404  0.1295 -0.8209
  615MOL0     H84867   3.352   3.406   8.331  2.0454 -1.0376 -0.1306
  615MOL0     H84868   3.673   3.555   8.340  0.1196 -1.7035 -0.8539
  615MOL0     H84869   3.545   3.669   8.380  0.2290  0.4046  0.6463
  615MOL0     H84870   3.530   3.521   8.450 -1.9522 -0.1784 -1.2429
  616MOL0     O84871   0.931   1.756   7.300 -0.6333  0.2368  0.4036
  616MOL0     C84872   0.907   1.808   7.404  0.5209 -0.0729 -0.0089
  616MOL0     O84873   0.785   1.843   7.449  0.1222 -0.0582  0.2631
  616MOL0     C84874   0.685   1.810   7.371  0.6338 -0.5775  0.7116
  616MOL0     C84875   0.670   1.867   7.244  0.9497  0.2675  0.0248
  616MOL0     C84876   0.555   1.843   7.163  0.5218  0.4155 -0.4749
  616MOL0     C84877   0.451   1.763   7.220 -0.8498  0.0859 -0.7503
  616MOL0     O84878   0.333   1.740   7.158  0.4983  0.2107  0.4457
  616MOL0     C84879   0.267   1.853   7.106  0.4181 -0.4445 -0.4404
  616MOL0     C84880   0.119   1.834   7.083 -0.4872  0.0600  0.4109
  616MOL0     C84881   0.078   1.699   7.020  0.3023  0.5551 -0.1855
  616MOL0     C84882  -0.050   1.726   6.935 -0.0389 -0.3293  0.3865
  616MOL0     C84883  -0.130   1.602   6.899 -0.0965  0.7309  0.3404
  616MOL0     C84884  -0.248   1.620   6.802 -0.3596 -0.6572 -0.1737
  616MOL0     C84885  -0.368   1.696   6.853 -0.3220  0.2497  0.5112
  616MOL0     C84886  -0.439   1.613   6.964  0.1070 -0.2068  0.1267
  616MOL0     N84887  -0.575   1.669   6.994  0.0875 -0.2610 -0.1268
  616MOL0     C84888  -0.687   1.608   6.957  0.3706  0.7533 -0.3909
  616MOL0     C84889  -0.792   1.663   7.033 -0.6612  0.6009 -0.8315
  616MOL0     C84890  -0.936   1.621   7.027 -0.3325 -0.1160  0.1634
  616MOL0     C84891  -1.024   1.686   7.142  0.3534 -0.1055  0.1566
  616MOL0     C84892  -1.162   1.637   7.128  0.4830 -0.3906 -0.0115
  616MOL0     C84893  -1.248   1.723   7.221 -0.6879  0.0861 -0.0533
  616MOL0     O84894  -1.376   1.738   7.164 -0.8115  0.3192  0.0453
  616MOL0     C84895  -1.473   1.792   7.249 -0.1931 -0.3991  0.0129
  616MOL0     C84896  -1.602   1.728   7.260 -0.6674 -0.1280  0.0952
  616MOL0     C84897  -1.688   1.754   7.366  0.2712 -0.5812  0.6057
  616MOL0     C84898  -1.814   1.657   7.380 -0.9989 -0.3934  0.5753
  616MOL0     C84899  -1.677   1.872   7.441 -0.4660  0.2498  0.0116
  616MOL0     C84900  -1.782   1.910   7.541 -0.0528 -0.4915  0.5467
  616MOL0     O84901  -1.737   1.981   7.646 -0.5004 -0.4682 -0.6907
  616MOL0     C84902  -1.834   2.036   7.718 -0.5339  0.1215  0.3292
  616MOL0     C84903  -1.907   1.967   7.813 -0.0487  0.2933  0.1253
  616MOL0     C84904  -2.007   2.026   7.883 -0.4499 -0.8875 -0.3932
  616MOL0     C84905  -2.041   2.165   7.865 -0.1255  0.2551  0.9042
  616MOL0     O84906  -2.141   2.237   7.939  0.2742 -0.2548  0.1689
  616MOL0     C84907  -2.244   2.160   8.002 -0.4203 -1.5550 -0.3551
  616MOL0     C84908  -2.352   2.260   8.050  0.3904 -0.9994 -0.6180
  616MOL0     C84909  -2.445   2.167   8.143  0.5080 -0.9346  0.3393
  616MOL0     C84910  -2.537   2.250   8.225 -0.3456 -1.1107 -1.2822
  616MOL0     C84911  -2.645   2.186   8.321 -0.1761  0.3438  0.8278
  616MOL0     C84912  -2.584   2.070   8.408 -0.4317 -0.6599 -0.2466
  616MOL0     C84913  -2.687   2.019   8.515  0.1535 -0.6643 -0.3856
  616MOL0     C84914  -2.633   1.894   8.595 -0.3238 -0.1111 -0.1073
  616MOL0    Cl84915  -2.600   1.754   8.492 -0.0938 -0.1168  0.3073
  616MOL0     C84916  -1.968   2.224   7.759 -0.0391 -0.4898 -0.8724
  616MOL0     C84917  -1.870   2.167   7.693 -0.4684 -0.2850  0.4151
  616MOL0     O84918  -1.899   1.874   7.536  0.5195 -0.0450 -0.1094
  616MOL0     C84919  -1.556   1.942   7.428  0.3156 -0.2583  0.6342
  616MOL0     C84920  -1.455   1.905   7.334 -0.1416  1.4412  0.6108
  616MOL0     N84921  -0.732   1.757   7.113  0.5431  0.2471 -0.2286
  616MOL0     N84922  -0.608   1.759   7.090 -0.4237  0.6439  0.0415
  616MOL0     C84923   0.461   1.708   7.348  0.4807 -1.0145  0.2147
  616MOL0     C84924   0.580   1.736   7.418 -0.9596 -0.1040  0.6227
  616MOL0     C84925   1.008   1.797   7.507  0.3993 -0.1494  0.5764
  616MOL0     C84926   0.963   1.750   7.629  0.2308 -0.3165  0.3327
  616MOL0     C84927   1.038   1.756   7.744 -0.4299  0.6403 -0.0985
  616MOL0     C84928   1.164   1.794   7.733 -0.1632  0.4233 -0.9011
  616MOL0     O84929   1.236   1.792   7.849 -0.0377  0.3670 -0.1239
  616MOL0     C84930   1.376   1.758   7.843 -0.3473  0.8817 -0.3446
  616MOL0     C84931   1.411   1.674   7.961 -0.1116  0.8221 -0.3518
  616MOL0     C84932   1.336   1.701   8.099  0.9753 -0.5131 -0.9403
  616MOL0     C84933   1.383   1.598   8.199 -1.1368  0.6517  0.3286
  616MOL0     C84934   1.528   1.623   8.238  1.1126  0.2401  0.0949
  616MOL0     C84935   1.643   1.618   8.279  0.4890  0.5050 -0.7801
  616MOL0     C84936   1.215   1.838   7.611 -0.0818 -0.1917  0.1068
  616MOL0     C84937   1.143   1.834   7.494 -0.5942  0.6942  0.2726
  616MOL0     C84938   1.206   1.877   7.367  0.2251 -0.3282  0.3084
  616MOL0     H84939   0.746   1.939   7.213  2.6295  0.2229  3.5777
  616MOL0     H84940   0.549   1.891   7.066  3.6707  0.6441 -0.6363
  616MOL0     H84941   0.312   1.860   7.006 -0.4957 -0.3390 -0.8512
  616MOL0     H84942   0.273   1.945   7.165 -4.0702  0.5035 -1.1254
  616MOL0     H84943   0.078   1.843   7.184  0.0814  1.2222  0.5474
  616MOL0     H84944   0.086   1.917   7.021 -0.0702  1.6714  2.2536
  616MOL0     H84945   0.149   1.651   6.952 -0.4596  1.8570 -2.0007
  616MOL0     H84946   0.046   1.633   7.101  1.0890  1.3422  0.7981
  616MOL0     H84947  -0.112   1.786   7.002  3.1659  1.8011  1.7177
  616MOL0     H84948  -0.026   1.787   6.848 -0.7033  3.0469  2.4005
  616MOL0     H84949  -0.146   1.556   6.996 -0.0259  2.9142  1.4539
  616MOL0     H84950  -0.048   1.550   6.848  1.9651  1.7487  2.4471
  616MOL0     H84951  -0.211   1.669   6.711  1.3363 -0.5999  0.5042
  616MOL0     H84952  -0.264   1.516   6.771  2.6299 -2.0299  2.2881
  616MOL0     H84953  -0.426   1.723   6.764  2.1210  0.7448 -1.0337
  616MOL0     H84954  -0.353   1.798   6.892 -2.3696  0.2009  1.5301
  616MOL0     H84955  -0.443   1.509   6.930  0.3076 -0.2225  0.1500
  616MOL0     H84956  -0.371   1.613   7.049 -0.2953  0.2586  0.4576
  616MOL0     H84957  -0.709   1.537   6.878 -0.1103  2.0809 -1.4903
  616MOL0     H84958  -0.944   1.513   7.043  0.7749 -0.3193 -0.5451
  616MOL0     H84959  -0.970   1.638   6.925  2.8112 -0.5846 -1.1011
  616MOL0     H84960  -0.983   1.662   7.241  2.9614  0.9739 -0.5823
  616MOL0     H84961  -1.034   1.794   7.129  2.2957  0.3072  1.6614
  616MOL0     H84962  -1.191   1.659   7.025  0.1703  1.3158  0.4118
  616MOL0     H84963  -1.178   1.535   7.165 -1.2183 -1.0781 -2.3945
  616MOL0     H84964  -1.254   1.668   7.316  4.5772  2.4237  2.0732
  616MOL0     H84965  -1.210   1.825   7.236 -3.2202  0.6688  4.1111
  616MOL0     H84966  -1.617   1.637   7.203 -2.1201 -3.3446  4.9639
  616MOL0     H84967  -1.842   1.637   7.484 -0.5678  0.7541  0.9260
  616MOL0     H84968  -1.783   1.567   7.325  1.5696  1.1953 -0.7673
  616MOL0     H84969  -1.907   1.683   7.329 -0.5883 -2.1124 -1.1689
  616MOL0     H84970  -1.870   1.870   7.844  2.3789  2.1165  3.6707
  616MOL0     H84971  -2.068   1.971   7.954 -2.3639  2.1698  0.5384
  616MOL0     H84972  -2.295   2.087   7.939 -1.5062 -2.1630  1.1522
  616MOL0     H84973  -2.198   2.110   8.088  0.3683  1.8828  1.4266
  616MOL0     H84974  -2.310   2.332   8.120 -1.3113 -0.2068 -0.3625
  616MOL0     H84975  -2.415   2.312   7.977  1.9117  1.3518 -0.3620
  616MOL0     H84976  -2.372   2.128   8.216  3.1445  2.3794 -0.2683
  616MOL0     H84977  -2.511   2.092   8.100 -1.6862  0.1933  1.5378
  616MOL0     H84978  -2.598   2.312   8.160  0.0717 -0.8557 -1.4339
  616MOL0     H84979  -2.480   2.327   8.278 -2.5027  1.6195 -2.6570
  616MOL0     H84980  -2.691   2.262   8.385  1.7736  2.1986  0.1390
  616MOL0     H84981  -2.722   2.141   8.256  2.2600 -0.1185 -1.9578
  616MOL0     H84982  -2.493   2.102   8.458 -0.5772  1.7407 -1.3508
  616MOL0     H84983  -2.556   1.984   8.347  1.5999 -0.1909 -0.0304
  616MOL0     H84984  -2.785   1.997   8.472 -1.7205  2.6306  1.7392
  616MOL0     H84985  -2.709   2.103   8.582 -2.2246 -0.9350 -0.7335
  616MOL0     H84986  -2.709   1.849   8.661 -0.5156  0.4474  0.0545
  616MOL0     H84987  -2.551   1.916   8.664 -1.0565  1.4026  0.3064
  616MOL0     H84988  -1.988   2.331   7.755  0.8513 -0.3343 -1.4807
  616MOL0     H84989  -1.813   2.230   7.626 -1.4093  1.6194  1.3311
  616MOL0     H84990  -1.531   2.025   7.494 -1.8505  0.8934  0.0910
  616MOL0     H84991  -1.364   1.964   7.336  0.9506 -0.1372 -0.0077
  616MOL0     H84992   0.387   1.644   7.395 -0.2231 -0.1448  0.3262
  616MOL0     H84993   0.590   1.700   7.520 -1.4975  0.1740  0.7744
  616MOL0     H84994   0.861   1.715   7.640 -0.3691  1.8097  2.2668
  616MOL0     H84995   0.994   1.717   7.836  0.8742  0.7682  0.6014
  616MOL0     H84996   1.397   1.696   7.756 -0.4378  1.6637 -0.9267
  616MOL0     H84997   1.449   1.838   7.853  0.7659 -0.3532  2.5499
  616MOL0     H84998   1.520   1.668   7.977  0.1691 -0.5879 -2.4159
  616MOL0     H84999   1.386   1.572   7.930  3.6990 -0.1376 -0.8725
  616MOL0     H85000   1.342   1.803   8.138 -0.0469 -0.7233 -0.1987
  616MOL0     H85001   1.227   1.689   8.097  0.3261  2.5748  3.0893
  616MOL0     H85002   1.364   1.498   8.157 -0.6662  0.1953  1.1650
  616MOL0     H85003   1.325   1.608   8.291  2.2534  2.7447  2.4471
  616MOL0     H85004   1.741   1.608   8.321 -0.4418 -0.9856  1.1732
  616MOL0     H85005   1.321   1.852   7.590  0.0738 -2.2094 -0.7396
  616MOL0     H85006   1.210   1.787   7.305  1.0331  0.2853 -0.5362
  616MOL0     H85007   1.146   1.951   7.314  0.3862  0.9758  1.8740
  616MOL0     H85008   1.311   1.907   7.371 -0.3433  1.7698  0.5581
  617MOL0     O85009   0.295  10.287   6.239  0.9216  0.7002  0.5101
  617MOL0     C85010   0.340  10.235   6.143  0.0228  0.0080 -0.1501
  617MOL0     O85011   0.476  10.259   6.095 -0.2668  0.7966 -0.3767
  617MOL0     C85012   0.569  10.279   6.193 -0.9850  0.0086  0.6919
  617MOL0     C85013   0.673  10.186   6.197  0.5751  0.3849 -0.2137
  617MOL0     C85014   0.783  10.203   6.294  0.7049  0.1710  0.8141
  617MOL0     C85015   0.779  10.318   6.371  0.2686 -0.2257 -0.4715
  617MOL0     O85016   0.879  10.357   6.453 -0.2383 -0.0389 -0.2439
  617MOL0     C85017   1.006  10.286   6.442 -0.7889 -0.7450 -0.5789
  617MOL0     C85018   1.123  10.389   6.484  0.1337  0.2458 -0.4791
  617MOL0     C85019   1.190  10.473   6.373  0.8809 -0.4179  0.1505
  617MOL0     C85020   1.293  10.388   6.293  0.7456  0.0579 -0.3841
  617MOL0     C85021   1.385  10.487   6.208  0.1313  0.1208  0.0960
  617MOL0     C85022   1.455  10.404   6.100 -0.0887 -0.2263  0.3997
  617MOL0     C85023   1.551  10.485   6.015 -0.1981 -0.5782  0.0816
  617MOL0     C85024   1.665  10.566   6.091  0.2410 -0.1200 -0.2619
  617MOL0     N85025   1.750  10.638   5.991 -0.1499 -0.7377  0.2789
  617MOL0     C85026   1.716  10.749   5.915 -0.2198 -0.3038 -0.2498
  617MOL0     C85027   1.830  10.781   5.847  0.3006 -0.2123  0.0557
  617MOL0     C85028   1.847  10.897   5.763  0.1129 -0.2103 -0.1969
  617MOL0     C85029   1.837  10.875   5.612 -0.2281  0.5089  0.9896
  617MOL0     C85030   1.976  10.819   5.558  0.1490  0.4074 -0.5558
  617MOL0     C85031   1.980  10.783   5.407  1.1469  0.5230 -0.6682
  617MOL0     O85032   1.883  10.673   5.387  0.4785 -0.5805 -0.5445
  617MOL0     C85033   1.896  10.571   5.290 -0.5485 -0.1350  0.9895
  617MOL0     C85034   2.011  10.497   5.254 -0.5521 -1.1877 -0.3940
  617MOL0     C85035   2.003  10.405   5.153  0.2255 -0.0809  0.7889
  617MOL0     C85036   2.140  10.354   5.111 -0.3806 -0.4840 -0.2516
  617MOL0     C85037   1.886  10.356   5.095  0.2133  0.1800  0.1713
  617MOL0     C85038   1.867  10.258   4.976 -0.6642  0.6904  0.0725
  617MOL0     O85039   1.738  10.227   4.947 -0.4392  0.5118  0.1950
  617MOL0     C85040   1.715  10.181   4.819 -0.2050 -0.6097 -0.7717
  617MOL0     C85041   1.680  10.265   4.716  0.5907  0.5111 -0.6669
  617MOL0     C85042   1.640  10.216   4.598  0.2240  0.1329  0.3712
  617MOL0     C85043   1.642  10.078   4.578 -0.5131 -0.0393 -0.0093
  617MOL0     O85044   1.583  10.034   4.458 -0.5811  0.3149  0.4638
  617MOL0     C85045   1.548   9.894   4.443  0.7588  0.3486  0.2861
  617MOL0     C85046   1.659   9.797   4.394 -0.0517 -0.6021  0.1274
  617MOL0     C85047   1.736   9.880   4.289  0.7954  0.3740 -0.5518
  617MOL0     C85048   1.840   9.784   4.222  0.6430  0.3317 -0.7132
  617MOL0     C85049   1.944   9.859   4.137 -0.1350 -1.0250  0.6146
  617MOL0     C85050   1.991   9.766   4.017 -1.1684  0.5935  0.6080
  617MOL0     C85051   2.042   9.639   4.082 -0.5310  0.0263 -0.4829
  617MOL0     C85052   2.153   9.559   4.007 -0.0309  0.7944 -0.2980
  617MOL0    Cl85053   2.102   9.548   3.832  0.2520  0.0306 -0.0383
  617MOL0     C85054   1.677   9.996   4.686 -0.6463  1.6609  0.4075
  617MOL0     C85055   1.707  10.044   4.807 -0.2230 -0.2707  0.1448
  617MOL0     O85056   1.962  10.219   4.910 -0.2134 -0.1656 -0.1560
  617MOL0     C85057   1.768  10.428   5.136  0.7287  0.5304 -0.2131
  617MOL0     C85058   1.773  10.534   5.225 -0.8406  0.4917 -0.3852
  617MOL0     N85059   1.928  10.688   5.881  0.0550  0.1021 -0.2763
  617MOL0     N85060   1.870  10.604   5.957  0.3215  1.1743  0.9093
  617MOL0     C85061   0.675  10.406   6.369 -0.2340  0.5314 -0.6409
  617MOL0     C85062   0.573  10.389   6.274  0.0258 -0.0262  0.4930
  617MOL0     C85063   0.253  10.151   6.048 -0.0818 -0.7324 -0.9904
  617MOL0     C85064   0.316  10.073   5.952  0.0892  0.2511 -0.4522
  617MOL0     C85065   0.242  10.009   5.854  0.4899 -0.5655  1.1382
  617MOL0     C85066   0.102  10.005   5.859  0.1471  0.0781 -0.1267
  617MOL0     O85067   0.048   9.941   5.753  0.1607  0.9489 -0.1192
  617MOL0     C85068  -0.098   9.932   5.758  0.0040 -0.4418  0.6436
  617MOL0     C85069  -0.148   9.852   5.636 -0.2636  0.4875 -0.2825
  617MOL0     C85070  -0.143   9.946   5.514  0.5756  0.7604 -0.0814
  617MOL0     C85071  -0.189   9.867   5.388  0.7096  0.1884 -0.0176
  617MOL0     C85072  -0.339   9.854   5.381 -0.1395 -0.1134 -0.0891
  617MOL0     C85073  -0.457   9.866   5.389 -0.0771  0.1625 -0.1116
  617MOL0     C85074   0.043  10.074   5.959  0.9732 -0.7413  1.0603
  617MOL0     C85075   0.113  10.147   6.056  0.3324 -0.6880 -0.0725
  617MOL0     C85076   0.024  10.236   6.139  0.0827  0.7865 -0.3249
  617MOL0     H85077   0.662  10.103   6.128 -2.4046 -0.6625  1.3360
  617MOL0     H85078   0.861  10.129   6.304 -1.5405 -2.3044  0.9114
  617MOL0     H85079   1.035  10.249   6.343  0.8630 -0.0403 -0.3972
  617MOL0     H85080   0.992  10.198   6.505  0.6852 -1.0792 -0.6849
  617MOL0     H85081   1.080  10.464   6.550 -0.4728 -0.6278  0.1550
  617MOL0     H85082   1.187  10.329   6.550 -1.9657 -3.4612 -1.5088
  617MOL0     H85083   1.111  10.519   6.313 -0.4917 -0.1920  2.0735
  617MOL0     H85084   1.239  10.560   6.417 -0.9641  0.2914  0.8959
  617MOL0     H85085   1.357  10.326   6.356  0.8153 -0.4976 -0.9938
  617MOL0     H85086   1.241  10.324   6.222  0.1823 -0.1120  0.1784
  617MOL0     H85087   1.459  10.527   6.278 -0.4702  2.0900 -0.3364
  617MOL0     H85088   1.325  10.557   6.149 -0.5453 -1.1314 -0.7300
  617MOL0     H85089   1.510  10.319   6.140  1.5472  0.4868 -0.2424
  617MOL0     H85090   1.376  10.365   6.035 -1.0393 -1.1893  2.0668
  617MOL0     H85091   1.498  10.556   5.949  0.4326 -0.1719  0.0023
  617MOL0     H85092   1.604  10.411   5.955 -1.3750 -0.5012 -1.1039
  617MOL0     H85093   1.617  10.642   6.154  1.3844  0.1771  0.2650
  617MOL0     H85094   1.713  10.486   6.148 -0.3719  0.2676  0.8507
  617MOL0     H85095   1.625  10.809   5.923 -0.2717 -0.6445  2.3898
  617MOL0     H85096   1.946  10.938   5.783  0.5890 -1.6379  0.6037
  617MOL0     H85097   1.761  10.963   5.777 -0.7557 -1.3710  0.1677
  617MOL0     H85098   1.755  10.810   5.583  1.3071 -0.8389 -0.5052
  617MOL0     H85099   1.825  10.971   5.562  1.7829  0.9460  1.2326
  617MOL0     H85100   2.062  10.878   5.591 -0.1380 -0.3436  1.7626
  617MOL0     H85101   1.984  10.724   5.613 -2.8817  0.2811 -0.1353
  617MOL0     H85102   1.957  10.876   5.354 -1.1922  0.5740  0.2784
  617MOL0     H85103   2.078  10.742   5.384  1.5876  0.0700  1.6988
  617MOL0     H85104   2.100  10.532   5.306 -1.7485  0.2643  0.7625
  617MOL0     H85105   2.151  10.245   5.111 -0.8977 -0.5388 -0.5524
  617MOL0     H85106   2.212  10.406   5.175 -0.6565  0.6715 -0.8635
  617MOL0     H85107   2.167  10.381   5.009  0.9879  1.7598  0.6238
  617MOL0     H85108   1.678  10.372   4.732  0.2594  0.1598  2.0414
  617MOL0     H85109   1.599  10.276   4.518  1.4709  1.4800  0.6905
  617MOL0     H85110   1.502   9.860   4.536 -4.6598 -1.3411 -2.6025
  617MOL0     H85111   1.468   9.900   4.369 -2.7927 -0.1441  3.7510
  617MOL0     H85112   1.725   9.782   4.480  2.4103  3.8190 -0.7258
  617MOL0     H85113   1.618   9.708   4.345 -1.1798  1.3975 -2.7699
  617MOL0     H85114   1.797   9.957   4.336  3.2898 -3.2632  2.7746
  617MOL0     H85115   1.661   9.925   4.222 -0.9193  3.2482  2.9723
  617MOL0     H85116   1.784   9.713   4.161  0.9688  0.6074 -1.3405
  617MOL0     H85117   1.880   9.732   4.310 -0.7849 -0.8770 -0.7377
  617MOL0     H85118   1.896   9.946   4.092 -0.5923 -1.1520  0.8539
  617MOL0     H85119   2.032   9.902   4.186 -0.8601  0.5166  0.6100
  617MOL0     H85120   2.073   9.817   3.966 -2.5667  0.5387 -1.8542
  617MOL0     H85121   1.906   9.753   3.951 -0.4435  1.0229 -0.4299
  617MOL0     H85122   1.966   9.564   4.105 -0.7365  0.2111 -0.5547
  617MOL0     H85123   2.085   9.666   4.179 -0.8566 -1.6195  0.1443
  617MOL0     H85124   2.158   9.460   4.055 -2.9675 -0.0955 -1.5983
  617MOL0     H85125   2.249   9.612   4.010 -0.1868  1.0479  0.9064
  617MOL0     H85126   1.678   9.889   4.672 -2.2874  1.7598 -0.8178
  617MOL0     H85127   1.728   9.973   4.886 -5.4824 -0.2071  1.9918
  617MOL0     H85128   1.671  10.405   5.092  0.3072  1.0151  0.4455
  617MOL0     H85129   1.678  10.579   5.253 -0.5987  1.5692 -1.2477
  617MOL0     H85130   0.663  10.481   6.446 -4.1303 -1.2693  0.7556
  617MOL0     H85131   0.489  10.458   6.271  1.2982  1.7318  2.3378
  617MOL0     H85132   0.419  10.064   5.917 -0.1882 -2.8657 -0.7098
  617MOL0     H85133   0.297   9.945   5.786  0.5139 -3.0245  3.3128
  617MOL0     H85134  -0.147   9.899   5.850  1.4413 -2.5684  0.7085
  617MOL0     H85135  -0.131  10.035   5.738 -0.4042 -1.0595 -2.2845
  617MOL0     H85136  -0.252   9.819   5.644 -0.4181  0.6974 -1.2865
  617MOL0     H85137  -0.087   9.765   5.612  1.1094  0.9943  1.1959
  617MOL0     H85138  -0.206  10.033   5.537 -2.2166 -0.8452 -1.2770
  617MOL0     H85139  -0.039   9.977   5.502  1.1055 -0.3282  1.3713
  617MOL0     H85140  -0.147   9.766   5.381 -1.1444 -0.6800  0.7042
  617MOL0     H85141  -0.159   9.920   5.297 -0.8537 -0.9292 -1.2559
  617MOL0     H85142  -0.564   9.863   5.396 -0.0408 -1.9347  0.5122
  617MOL0     H85143  -0.063  10.066   5.982  1.3449 -1.7283  2.6059
  617MOL0     H85144   0.056  10.340   6.129  1.6348  0.4660  0.8247
  617MOL0     H85145  -0.080  10.218   6.113  0.4945 -0.3930 -1.2572
  617MOL0     H85146   0.035  10.198   6.241  4.7574  1.8764 -0.1583
  618MOL0     O85147   4.764   5.062   9.160  0.8418  0.5700  0.9012
  618MOL0     C85148   4.775   4.944   9.124  0.9482 -0.4057  1.1436
  618MOL0     O85149   4.855   4.905   9.024 -0.1622  0.6615 -0.0514
  618MOL0     C85150   4.965   4.986   8.990 -0.2705 -0.1496 -0.0900
  618MOL0     C85151   4.995   4.979   8.851  0.1162  0.3559  0.4209
  618MOL0     C85152   5.105   5.044   8.803  0.0450 -0.3482  0.9360
  618MOL0     C85153   5.192   5.114   8.892  0.8181  0.7189 -0.6539
  618MOL0     O85154   5.310   5.173   8.857  0.1670  0.3305 -0.1571
  618MOL0     C85155   5.314   5.223   8.725 -0.0995 -0.9572 -0.2075
  618MOL0     C85156   5.447   5.280   8.700  0.1881 -0.8536  0.2141
  618MOL0     C85157   5.485   5.319   8.558  0.2314  0.1238  1.2085
  618MOL0     C85158   5.411   5.455   8.517  0.0993  0.6679 -1.1353
  618MOL0     C85159   5.495   5.531   8.414  0.2709  1.1215 -0.2032
  618MOL0     C85160   5.401   5.622   8.338 -0.5889  0.5702  0.1440
  618MOL0     C85161   5.356   5.742   8.423  0.5281 -0.0468 -0.1083
  618MOL0     C85162   5.294   5.855   8.344 -0.2494 -0.3806 -0.0420
  618MOL0     N85163   5.181   5.800   8.259 -0.3220 -0.1436  0.1915
  618MOL0     C85164   5.198   5.781   8.124  0.6439 -0.0254 -0.6068
  618MOL0     C85165   5.070   5.769   8.080  0.3863 -0.0175 -0.1263
  618MOL0     C85166   5.015   5.759   7.945  0.6347 -0.8473 -0.0434
  618MOL0     C85167   5.024   5.613   7.884  0.5905 -0.0702 -0.4968
  618MOL0     C85168   4.938   5.613   7.760  0.3401 -0.1219  0.2290
  618MOL0     C85169   4.953   5.471   7.699  0.1540 -0.4141  0.2430
  618MOL0     O85170   4.951   5.487   7.556  0.6198 -0.2843  0.1501
  618MOL0     C85171   4.991   5.384   7.468 -0.5997 -0.1593 -0.1859
  618MOL0     C85172   5.020   5.253   7.506 -0.5659 -0.4920 -1.1764
  618MOL0     C85173   5.044   5.153   7.407  0.0395 -1.0294 -0.6978
  618MOL0     C85174   5.075   5.008   7.452  0.0575 -0.3605 -0.9624
  618MOL0     C85175   5.035   5.188   7.264 -1.4992  0.1585  0.6792
  618MOL0     C85176   5.049   5.085   7.158 -0.7985  0.2838  0.9319
  618MOL0     O85177   4.968   5.103   7.047  1.2278  0.3289 -0.1694
  618MOL0     C85178   4.958   5.006   6.950  0.1640  0.3342  0.1229
  618MOL0     C85179   4.975   5.046   6.823  0.0940 -0.0982  0.7601
  618MOL0     C85180   4.978   4.944   6.727 -0.2511 -0.4042  0.5040
  618MOL0     C85181   4.940   4.814   6.757  0.4580  0.6590  0.4641
  618MOL0     O85182   4.877   4.737   6.653  0.0628 -1.0784  0.0239
  618MOL0     C85183   4.897   4.592   6.671  0.0422  0.6567  0.4207
  618MOL0     C85184   4.843   4.510   6.560  0.0626 -0.2996 -1.0344
  618MOL0     C85185   4.693   4.540   6.540 -0.6632  0.9202 -0.2961
  618MOL0     C85186   4.607   4.497   6.668 -0.5476 -0.1456  0.4228
  618MOL0     C85187   4.463   4.542   6.662 -0.4505 -0.1584 -0.6856
  618MOL0     C85188   4.371   4.468   6.562 -0.3858 -0.8923 -0.3279
  618MOL0     C85189   4.239   4.543   6.531 -0.7560  0.6405 -0.4349
  618MOL0     C85190   4.163   4.586   6.661  0.4702  0.7174  1.0516
  618MOL0    Cl85191   4.077   4.441   6.722  0.0741 -0.0599  0.2172
  618MOL0     C85192   4.934   4.774   6.889  0.5780 -0.2094  0.4496
  618MOL0     C85193   4.949   4.871   6.982 -0.6746  0.1459  0.7298
  618MOL0     O85194   5.143   5.004   7.165 -0.2125 -0.0965 -0.8795
  618MOL0     C85195   4.999   5.319   7.230  0.0979  0.3883  0.3815
  618MOL0     C85196   4.971   5.412   7.333 -0.2795  0.1008  0.6248
  618MOL0     N85197   4.988   5.766   8.191  0.1297  0.0007  1.2017
  618MOL0     N85198   5.056   5.792   8.295  0.0911 -0.9627  0.5257
  618MOL0     C85199   5.153   5.131   9.025 -0.7138 -0.1455 -0.1958
  618MOL0     C85200   5.041   5.065   9.082 -0.0613 -0.2251 -0.1760
  618MOL0     C85201   4.666   4.851   9.160  0.1326  0.3183 -0.5644
  618MOL0     C85202   4.626   4.754   9.070  0.9802 -0.4152  0.1859
  618MOL0     C85203   4.517   4.676   9.093 -0.2173  0.2051 -0.2336
  618MOL0     C85204   4.448   4.681   9.213  0.5276  0.1402 -0.0657
  618MOL0     O85205   4.330   4.612   9.248 -0.3892  0.4832 -0.0927
  618MOL0     C85206   4.246   4.557   9.139 -0.1461 -0.6842  0.5379
  618MOL0     C85207   4.241   4.419   9.179 -0.3327  0.7365 -0.0475
  618MOL0     C85208   4.190   4.334   9.062  0.6637 -0.1930 -0.2813
  618MOL0     C85209   4.040   4.341   9.035  0.3543  0.4765 -0.3838
  618MOL0     C85210   4.005   4.272   8.906 -0.5508  0.9773 -0.4680
  618MOL0     C85211   3.951   4.193   8.820  0.1361  0.2488  0.0629
  618MOL0     C85212   4.495   4.767   9.303 -0.0689  0.1433 -0.5247
  618MOL0     C85213   4.603   4.857   9.286 -0.0972  0.3083 -0.2404
  618MOL0     C85214   4.635   4.949   9.390  0.2931  0.4665  0.3510
  618MOL0     H85215   4.931   4.919   8.787  1.2421  0.5743 -0.9542
  618MOL0     H85216   5.127   5.040   8.697  0.2068  2.0867  0.8094
  618MOL0     H85217   5.244   5.306   8.718  0.9389  0.4765  3.6982
  618MOL0     H85218   5.292   5.151   8.645 -1.4369  0.0025 -0.7327
  618MOL0     H85219   5.449   5.370   8.763 -1.8483 -0.8847  0.3900
  618MOL0     H85220   5.517   5.203   8.733 -1.3192 -2.5598 -0.3991
  618MOL0     H85221   5.591   5.345   8.551 -0.1965  1.4709 -2.3172
  618MOL0     H85222   5.476   5.240   8.483  0.6581  0.2251  1.0472
  618MOL0     H85223   5.310   5.430   8.483 -0.6914  3.0234 -0.7134
  618MOL0     H85224   5.411   5.512   8.610 -0.2359 -1.3261  0.1312
  618MOL0     H85225   5.548   5.460   8.350  1.2707 -0.1008  1.8419
  618MOL0     H85226   5.564   5.594   8.471  0.6318 -0.3991  1.1458
  618MOL0     H85227   5.454   5.655   8.249 -1.1561 -1.0472 -0.8179
  618MOL0     H85228   5.321   5.551   8.315  2.6228 -2.4876 -2.7074
  618MOL0     H85229   5.441   5.789   8.471  1.7353 -0.3150 -1.8710
  618MOL0     H85230   5.287   5.707   8.500  0.6850 -1.4735 -0.5752
  618MOL0     H85231   5.249   5.922   8.419  1.6093  2.1676 -1.0493
  618MOL0     H85232   5.367   5.918   8.293 -0.1663  1.9151  2.6630
  618MOL0     H85233   5.283   5.801   8.060 -0.3917  0.1734 -1.9822
  618MOL0     H85234   5.076   5.819   7.876  0.6394 -3.1345 -2.1713
  618MOL0     H85235   4.912   5.794   7.944  0.8690 -0.0874 -1.7353
  618MOL0     H85236   5.131   5.601   7.864  0.1882  1.8276 -4.8535
  618MOL0     H85237   4.980   5.544   7.958 -1.2191  1.2438 -0.2706
  618MOL0     H85238   4.832   5.632   7.779  0.5891  0.0040  1.6115
  618MOL0     H85239   4.960   5.695   7.690 -1.6662 -1.0345 -1.5933
  618MOL0     H85240   5.041   5.424   7.745  0.4216 -0.0361  0.1208
  618MOL0     H85241   4.869   5.406   7.724 -1.3455  0.4163 -2.3160
  618MOL0     H85242   5.052   5.240   7.609 -0.3639 -0.1032 -1.1899
  618MOL0     H85243   5.013   4.940   7.392 -2.4970  0.4278  0.5983
  618MOL0     H85244   5.042   5.002   7.556  0.4264 -0.1948 -0.8342
  618MOL0     H85245   5.182   4.996   7.438  0.4364 -0.1243  1.4061
  618MOL0     H85246   4.988   5.152   6.803  0.8837 -0.4317 -0.6471
  618MOL0     H85247   4.986   4.978   6.624  2.1683  2.2687  1.4233
  618MOL0     H85248   5.004   4.569   6.667 -0.0498  0.0700 -4.2788
  618MOL0     H85249   4.852   4.562   6.766  1.2463  1.2753  1.2021
  618MOL0     H85250   4.892   4.523   6.463 -1.0021 -5.0707 -2.4652
  618MOL0     H85251   4.859   4.409   6.599 -2.7058 -0.2146  0.5650
  618MOL0     H85252   4.650   4.484   6.457 -2.8425  0.4381  1.0722
  618MOL0     H85253   4.683   4.645   6.510 -2.6003  0.9789  0.4686
  618MOL0     H85254   4.646   4.542   6.760  1.2148 -1.6817  0.4965
  618MOL0     H85255   4.609   4.389   6.686 -3.9209 -0.6881 -1.7596
  618MOL0     H85256   4.430   4.515   6.763  2.1476 -4.5474 -0.7296
  618MOL0     H85257   4.463   4.650   6.646 -0.4123 -0.1090 -0.3528
  618MOL0     H85258   4.333   4.371   6.595  0.8189 -1.8186 -1.5484
  618MOL0     H85259   4.433   4.437   6.477  0.6587 -1.2961  0.5523
  618MOL0     H85260   4.177   4.466   6.483  1.4748 -1.8135  0.4127
  618MOL0     H85261   4.262   4.627   6.464  2.6689  1.2731  1.3210
  618MOL0     H85262   4.089   4.660   6.630 -1.3170 -1.9017 -1.4185
  618MOL0     H85263   4.225   4.639   6.733  0.2718  2.2988  0.1243
  618MOL0     H85264   4.894   4.678   6.922 -2.1955  1.5786  2.7397
  618MOL0     H85265   4.941   4.834   7.083  0.2878 -0.7978  0.4765
  618MOL0     H85266   4.974   5.348   7.128 -0.1427  1.0739  0.6295
  618MOL0     H85267   4.932   5.510   7.306  0.8968  0.4524  0.1329
  618MOL0     H85268   5.215   5.198   9.083 -0.7945 -0.3230  0.0956
  618MOL0     H85269   5.014   5.086   9.185  1.8830  2.1475 -0.0333
  618MOL0     H85270   4.674   4.730   8.976 -2.9024 -0.8741 -1.8548
  618MOL0     H85271   4.488   4.599   9.022  0.0717  0.9422 -1.1708
  618MOL0     H85272   4.150   4.610   9.140  0.8895  1.4076 -1.4609
  618MOL0     H85273   4.288   4.568   9.039  0.6248 -0.8171  0.8345
  618MOL0     H85274   4.186   4.395   9.270 -1.2362 -0.5959 -0.9051
  618MOL0     H85275   4.341   4.382   9.203 -0.4723  1.1953  1.3398
  618MOL0     H85276   4.228   4.375   8.968 -3.3461 -0.8218 -2.4164
  618MOL0     H85277   4.217   4.228   9.069  1.3660  0.0503  1.0330
  618MOL0     H85278   3.990   4.438   9.043 -0.5561 -0.1032  2.0162
  618MOL0     H85279   3.993   4.288   9.119  2.0496  0.8371  0.8492
  618MOL0     H85280   3.905   4.129   8.747  1.1362 -0.2121 -0.1848
  618MOL0     H85281   4.427   4.774   9.387 -0.7293 -1.1839 -0.9244
  618MOL0     H85282   4.608   5.054   9.371 -1.1721 -0.2038 -1.6566
  618MOL0     H85283   4.592   4.911   9.483  1.8488 -0.0827  0.8795
  618MOL0     H85284   4.741   4.933   9.411  0.2239  0.6586  0.8668
  619MOL0     O85285   1.869   9.137   1.602 -0.8364 -0.2757 -0.9689
  619MOL0     C85286   1.878   9.185   1.716 -0.5358  0.9601 -0.1406
  619MOL0     O85287   1.982   9.245   1.765 -0.8511 -0.1202 -0.2924
  619MOL0     C85288   2.095   9.287   1.706 -0.2302 -0.2660  0.5172
  619MOL0     C85289   2.201   9.309   1.802 -0.4833 -0.2441  1.1937
  619MOL0     C85290   2.324   9.360   1.745  0.5481 -0.4919 -0.5455
  619MOL0     C85291   2.346   9.377   1.609  0.0204 -0.8985  0.4212
  619MOL0     O85292   2.454   9.426   1.539  0.5144  0.0353 -0.6996
  619MOL0     C85293   2.580   9.420   1.610  0.8481  0.7804 -0.4377
  619MOL0     C85294   2.603   9.537   1.704  0.5412 -0.9171  0.2814
  619MOL0     C85295   2.717   9.538   1.809  0.3925  0.1904  0.8344
  619MOL0     C85296   2.851   9.494   1.746  0.2664 -0.1670  0.2360
  619MOL0     C85297   2.960   9.524   1.850  0.7727 -1.3562 -0.6987
  619MOL0     C85298   3.106   9.514   1.799  0.5814  0.8726  0.3415
  619MOL0     C85299   3.206   9.504   1.913  0.4301  0.2611  0.9129
  619MOL0     C85300   3.350   9.488   1.880  0.3346 -0.0932  0.2846
  619MOL0     N85301   3.432   9.501   2.006 -0.4141  0.4692 -0.1744
  619MOL0     C85302   3.533   9.593   2.025 -0.2363  1.1084 -0.5520
  619MOL0     C85303   3.593   9.547   2.143  0.7844 -0.3978  0.1046
  619MOL0     C85304   3.719   9.617   2.200  1.0818  0.0831  0.9241
  619MOL0     C85305   3.818   9.509   2.242 -0.2288 -0.2691 -1.0495
  619MOL0     C85306   3.944   9.591   2.285  0.1390 -0.0240 -0.4645
  619MOL0     C85307   4.066   9.499   2.313 -0.7469  0.2926  0.1247
  619MOL0     O85308   4.153   9.575   2.400 -0.0021  0.2957  0.3509
  619MOL0     C85309   4.282   9.546   2.378 -0.4769 -0.5398  0.0979
  619MOL0     C85310   4.373   9.649   2.415  0.7290  0.7306  0.1909
  619MOL0     C85311   4.511   9.638   2.405  0.2266 -0.1452 -0.5873
  619MOL0     C85312   4.589   9.763   2.454 -0.5503  0.7577 -0.2734
  619MOL0     C85313   4.558   9.519   2.343 -1.4870  0.2073  0.6164
  619MOL0     C85314   4.711   9.487   2.336  0.3651  0.6972  0.7803
  619MOL0     O85315   4.754   9.359   2.300 -0.3169  0.0510  0.5631
  619MOL0     C85316   4.890   9.324   2.309 -0.2198  0.4186 -0.5893
  619MOL0     C85317   4.988   9.384   2.237 -0.6986  0.1581  0.5522
  619MOL0     C85318   5.124   9.341   2.235 -0.1108  0.9739  0.0288
  619MOL0     C85319   5.154   9.223   2.296 -0.7675  0.8336  1.0348
  619MOL0     O85320   5.265   9.147   2.283  0.0983  0.3886  0.5532
  619MOL0     C85321   5.360   9.183   2.191  1.0242 -0.2763 -0.0505
  619MOL0     C85322   5.478   9.085   2.200 -0.1448 -0.0920 -0.0451
  619MOL0     C85323   5.440   8.942   2.150 -0.0524 -0.0028 -1.0505
  619MOL0     C85324   5.437   8.928   1.994  0.5343  1.0725  0.2713
  619MOL0     C85325   5.381   8.779   1.958 -0.0740  0.0498 -0.2656
  619MOL0     C85326   5.366   8.756   1.810 -0.0199  0.2482 -0.2248
  619MOL0     C85327   5.323   8.620   1.765  0.6179 -0.0700  0.2807
  619MOL0     C85328   5.310   8.592   1.614  0.5642  0.1852 -0.2510
  619MOL0    Cl85329   5.477   8.562   1.548 -0.3007  0.0050  0.1849
  619MOL0     C85330   5.061   9.153   2.366 -0.0023 -0.9844 -0.3687
  619MOL0     C85331   4.924   9.201   2.372 -0.3433 -0.0415 -1.1743
  619MOL0     O85332   4.787   9.573   2.380  0.3353 -0.2622 -0.2663
  619MOL0     C85333   4.472   9.419   2.300  0.3953 -0.5413  0.9941
  619MOL0     C85334   4.340   9.430   2.326 -0.6759  0.2062  0.1521
  619MOL0     N85335   3.522   9.438   2.186  0.2955 -0.6328 -1.0990
  619MOL0     N85336   3.424   9.415   2.107 -0.4947  0.6376 -0.4211
  619MOL0     C85337   2.239   9.340   1.524 -0.8903  0.1582  1.2485
  619MOL0     C85338   2.114   9.296   1.572  0.0099  0.4005  0.4077
  619MOL0     C85339   1.755   9.189   1.809 -0.5216 -0.5340 -0.2537
  619MOL0     C85340   1.624   9.171   1.752 -0.3074 -0.1268  0.4571
  619MOL0     C85341   1.510   9.175   1.828  0.2991  0.2537  0.2459
  619MOL0     C85342   1.517   9.218   1.962 -0.8509  0.5041  0.0710
  619MOL0     O85343   1.393   9.222   2.019  0.2448 -0.5844  0.3264
  619MOL0     C85344   1.367   9.328   2.111 -0.6353 -0.2876  0.5850
  619MOL0     C85345   1.263   9.409   2.045 -0.0941 -0.1355  0.3212
  619MOL0     C85346   1.239   9.543   2.114 -0.6541 -0.5636 -0.4240
  619MOL0     C85347   1.109   9.607   2.066 -1.1607 -0.3448 -0.6813
  619MOL0     C85348   1.106   9.745   2.117 -0.4244 -0.5211 -0.0052
  619MOL0     C85349   1.098   9.857   2.158 -0.0023 -0.3644 -0.2434
  619MOL0     C85350   1.642   9.249   2.021  0.5522 -0.0241 -0.0450
  619MOL0     C85351   1.759   9.235   1.949  0.0715  1.0082  0.5151
  619MOL0     C85352   1.885   9.262   2.025 -0.4465 -0.3916  0.1389
  619MOL0     H85353   2.185   9.304   1.909  0.2603  2.4450  1.5144
  619MOL0     H85354   2.405   9.382   1.813  1.2063  0.0441 -1.4792
  619MOL0     H85355   2.653   9.416   1.529  0.4232  0.8739 -0.8310
  619MOL0     H85356   2.601   9.325   1.660  1.2820  2.4529  2.7724
  619MOL0     H85357   2.603   9.625   1.639 -2.4441 -1.2254 -0.2802
  619MOL0     H85358   2.515   9.562   1.765  2.7607  2.6928  2.3484
  619MOL0     H85359   2.720   9.641   1.848 -1.6604  1.2412 -1.4640
  619MOL0     H85360   2.690   9.471   1.891  0.6690  3.1874  3.6178
  619MOL0     H85361   2.852   9.390   1.712 -0.6228 -0.4122  0.8999
  619MOL0     H85362   2.865   9.554   1.655  1.2026 -2.8101 -1.4912
  619MOL0     H85363   2.943   9.471   1.944  0.4003 -0.4500 -0.2393
  619MOL0     H85364   2.949   9.629   1.879 -2.3638 -0.8106 -3.2176
  619MOL0     H85365   3.114   9.429   1.730  3.9436  1.0566  0.3325
  619MOL0     H85366   3.129   9.603   1.740  1.3227  0.4194 -0.0585
  619MOL0     H85367   3.184   9.411   1.967  2.3927 -0.0957  1.1795
  619MOL0     H85368   3.193   9.585   1.985  2.6395 -1.8154  3.9266
  619MOL0     H85369   3.353   9.390   1.833 -1.1332 -0.7768  1.5346
  619MOL0     H85370   3.394   9.560   1.810 -1.0255  0.1430 -0.3500
  619MOL0     H85371   3.572   9.673   1.963 -0.7379  1.5052 -0.3621
  619MOL0     H85372   3.706   9.679   2.289  0.2553  0.5619  0.4823
  619MOL0     H85373   3.763   9.661   2.110 -1.8710 -3.4893 -2.6243
  619MOL0     H85374   3.791   9.454   2.332  2.0977  0.7175  0.3233
  619MOL0     H85375   3.835   9.454   2.149 -1.0691 -0.7151 -0.9576
  619MOL0     H85376   3.973   9.659   2.204 -0.7843 -0.2710 -1.0047
  619MOL0     H85377   3.924   9.638   2.382  1.9020 -0.2617  0.0571
  619MOL0     H85378   4.023   9.407   2.354 -0.6879 -0.0056 -0.4845
  619MOL0     H85379   4.117   9.467   2.222  0.5506 -0.0106  0.9302
  619MOL0     H85380   4.319   9.731   2.461 -1.1204 -0.2529 -0.0954
  619MOL0     H85381   4.678   9.786   2.394 -0.9601  0.1123 -1.1367
  619MOL0     H85382   4.617   9.735   2.556 -0.6758 -1.7894 -0.8724
  619MOL0     H85383   4.521   9.848   2.463 -0.0912  1.2322 -1.1113
  619MOL0     H85384   4.961   9.470   2.175 -0.7403  1.8281  2.7587
  619MOL0     H85385   5.185   9.404   2.171 -1.5586 -0.1076 -2.5745
  619MOL0     H85386   5.321   9.176   2.089 -2.2874 -2.9689  1.2210
  619MOL0     H85387   5.390   9.285   2.216  2.1079 -0.8384  1.0568
  619MOL0     H85388   5.563   9.122   2.143  0.6747 -0.1288  1.1072
  619MOL0     H85389   5.508   9.076   2.305 -1.5379  0.8486  0.4615
  619MOL0     H85390   5.352   8.897   2.197  3.0698 -0.6088  5.2578
  619MOL0     H85391   5.521   8.885   2.198 -0.3519  1.1092  0.8555
  619MOL0     H85392   5.533   8.956   1.950  0.6178  1.0127  0.4118
  619MOL0     H85393   5.364   8.990   1.941 -2.5487 -3.1985 -0.9861
  619MOL0     H85394   5.447   8.716   2.019 -0.3525  0.9822  1.0331
  619MOL0     H85395   5.280   8.768   1.996 -1.0513  1.1732 -2.3508
  619MOL0     H85396   5.466   8.766   1.765  0.8901 -3.2487  0.7189
  619MOL0     H85397   5.308   8.831   1.756 -1.3400 -0.0455  0.7402
  619MOL0     H85398   5.223   8.605   1.807 -0.8720 -1.4440 -3.3879
  619MOL0     H85399   5.390   8.542   1.803 -0.5197 -1.5709 -0.7044
  619MOL0     H85400   5.267   8.681   1.566  0.6658 -1.6537 -4.1013
  619MOL0     H85401   5.239   8.510   1.597 -0.7207  1.1240  0.4183
  619MOL0     H85402   5.086   9.064   2.423 -1.7040 -0.2109  1.7383
  619MOL0     H85403   4.854   9.161   2.444 -1.1005  0.9010 -1.3712
  619MOL0     H85404   4.501   9.324   2.257 -0.0651  0.1073 -0.8183
  619MOL0     H85405   4.276   9.343   2.321 -1.2589  0.6011  0.5866
  619MOL0     H85406   2.256   9.326   1.417  1.9357  0.5657  1.5803
  619MOL0     H85407   2.038   9.263   1.501 -3.0412  2.6057  2.3769
  619MOL0     H85408   1.624   9.138   1.649 -0.4058  0.3631  0.2983
  619MOL0     H85409   1.415   9.154   1.780  0.5757  0.4430 -0.3926
  619MOL0     H85410   1.323   9.268   2.191 -0.2782 -1.6054 -0.1757
  619MOL0     H85411   1.456   9.388   2.132  2.1017 -3.2382 -1.5543
  619MOL0     H85412   1.170   9.353   2.034 -0.5537  1.0177 -2.4005
  619MOL0     H85413   1.295   9.433   1.943 -0.9291 -3.7583 -0.9406
  619MOL0     H85414   1.231   9.522   2.221  0.6187  2.0176  0.2881
  619MOL0     H85415   1.326   9.607   2.094  2.1989 -3.0148  2.9806
  619MOL0     H85416   1.025   9.559   2.118 -0.9788  1.6860  1.6654
  619MOL0     H85417   1.095   9.609   1.958 -2.6039 -1.3441 -0.5482
  619MOL0     H85418   1.073   9.951   2.203 -0.8106 -0.1195 -1.1722
  619MOL0     H85419   1.646   9.268   2.128 -3.4939 -0.9931  0.4068
  619MOL0     H85420   1.922   9.360   1.996  0.2613 -1.1343 -1.6201
  619MOL0     H85421   1.871   9.260   2.134 -0.3016  2.0311  0.2552
  619MOL0     H85422   1.965   9.188   2.008 -1.6359 -1.9569  1.0202
  620MOL0     O85423   8.614   0.634   9.512 -0.1114  0.1618  0.7930
  620MOL0     C85424   8.724   0.579   9.527  0.6762 -0.1657 -0.5340
  620MOL0     O85425   8.818   0.623   9.610 -0.2945 -0.0150 -0.6705
  620MOL0     C85426   8.807   0.738   9.688 -0.0255 -0.5264 -0.2547
  620MOL0     C85427   8.690   0.794   9.743 -0.2869  0.2252 -0.2301
  620MOL0     C85428   8.694   0.910   9.815  0.9335 -0.8329  0.7205
  620MOL0     C85429   8.814   0.965   9.853 -0.0276 -1.1224 -0.1988
  620MOL0     O85430   8.821   1.071   9.938 -0.3638  0.1300 -0.2128
  620MOL0     C85431   8.885   1.190   9.877  0.6159 -0.5961 -0.3699
  620MOL0     C85432   8.881   1.303   9.978  0.0774 -0.2867  0.4950
  620MOL0     C85433   8.988   1.289  10.083  0.6988 -0.6114 -0.7225
  620MOL0     C85434   8.978   1.375  10.215  0.7690  0.3261 -0.0172
  620MOL0     C85435   9.098   1.341  10.300  0.1284 -1.0628  0.1394
  620MOL0     C85436   9.230   1.377  10.226  0.7098  0.1214 -0.4535
  620MOL0     C85437   9.353   1.381  10.323  0.2473 -0.7817 -0.1924
  620MOL0     C85438   9.484   1.368  10.244 -0.6584  0.3391  0.6580
  620MOL0     N85439   9.610   1.371  10.330  0.3177 -1.0336  0.2251
  620MOL0     C85440   9.698   1.268  10.337 -0.5348  0.1892  0.2051
  620MOL0     C85441   9.800   1.313  10.411 -0.0011  0.6433  0.5157
  620MOL0     C85442   9.913   1.236  10.480  1.0081 -0.0226  0.1535
  620MOL0     C85443  10.049   1.278  10.416 -0.3722 -0.1591  0.4300
  620MOL0     C85444  10.074   1.232  10.272 -0.1971  0.5557 -0.1053
  620MOL0     C85445  10.223   1.232  10.227 -0.7714  0.4684  0.0015
  620MOL0     O85446  10.280   1.366  10.215  0.1806 -0.3478  0.1229
  620MOL0     C85447  10.316   1.445  10.322  0.3200 -0.1788 -0.2424
  620MOL0     C85448  10.308   1.589  10.308  0.0114  0.0212  1.2113
  620MOL0     C85449  10.344   1.680  10.406 -0.3371 -0.5366 -0.1827
  620MOL0     C85450  10.350   1.823  10.367 -0.0227  0.1567  0.2931
  620MOL0     C85451  10.405   1.628  10.523  0.7622  0.3067  0.4191
  620MOL0     C85452  10.441   1.722  10.641 -1.3347  0.6194  0.0305
  620MOL0     O85453  10.392   1.849  10.649 -0.5029  0.1271 -0.3347
  620MOL0     C85454  10.444   1.936  10.747 -0.6986 -0.1808  0.7275
  620MOL0     C85455  10.344   1.999  10.829 -0.2698  0.4783  0.4003
  620MOL0     C85456  10.389   2.070  10.940  0.5031 -0.5468  0.6774
  620MOL0     C85457  10.527   2.078  10.974 -0.4181 -0.5214  0.3572
  620MOL0     O85458  10.571   2.141  11.091 -0.4015  0.2642  0.5898
  620MOL0     C85459  10.509   2.099  11.211  0.1554  0.5729 -0.5415
  620MOL0     C85460  10.615   2.109  11.321  0.8454  0.1019 -0.3044
  620MOL0     C85461  10.630   2.255  11.374 -0.7790 -1.0424  0.3003
  620MOL0     C85462  10.628   2.264  11.523  0.4023 -0.3918  0.4500
  620MOL0     C85463  10.612   2.407  11.570  0.2494  0.3061  0.5493
  620MOL0     C85464  10.589   2.409  11.718  0.8548 -0.4751 -0.0199
  620MOL0     C85465  10.594   2.552  11.776  1.1700  0.8080  0.2427
  620MOL0     C85466  10.545   2.564  11.918  0.1927  0.1310 -0.2495
  620MOL0    Cl85467  10.370   2.529  11.948  0.0110  0.7776 -0.1965
  620MOL0     C85468  10.618   2.035  10.878 -0.7309  0.0783 -0.4070
  620MOL0     C85469  10.582   1.958  10.764 -0.2197 -0.6638  0.0904
  620MOL0     O85470  10.517   1.674  10.725  0.1055  0.7686 -0.0266
  620MOL0     C85471  10.414   1.483  10.539 -0.2955 -0.6030 -1.1056
  620MOL0     C85472  10.379   1.395  10.438  0.1588  0.0264  0.6409
  620MOL0     N85473   9.786   1.448  10.432 -0.1239  0.2676  0.1341
  620MOL0     N85474   9.664   1.482  10.398 -1.0286  0.1912  0.1950
  620MOL0     C85475   8.935   0.904   9.810 -0.1640  0.1037  0.0187
  620MOL0     C85476   8.926   0.788   9.730 -0.3417  0.2557 -0.3002
  620MOL0     C85477   8.755   0.472   9.433  0.8109 -0.6230 -1.0754
  620MOL0     C85478   8.887   0.420   9.423  0.4583 -0.1857  0.3242
  620MOL0     C85479   8.930   0.326   9.331  0.2000  0.3219  0.0521
  620MOL0     C85480   8.844   0.278   9.236 -0.0125  0.0520 -0.3248
  620MOL0     O85481   8.884   0.173   9.151 -0.1437 -0.2801  0.1524
  620MOL0     C85482   8.798   0.136   9.040 -0.0493 -0.6561 -0.4245
  620MOL0     C85483   8.851   0.012   8.967 -0.4023 -0.3124 -0.4378
  620MOL0     C85484   8.862  -0.108   9.050  0.2714 -0.9986  0.4776
  620MOL0     C85485   8.968  -0.213   9.001 -0.9033 -0.6083 -1.1662
  620MOL0     C85486   8.942  -0.247   8.866 -0.4166 -0.6864  1.0600
  620MOL0     C85487   8.908  -0.265   8.750  0.0602 -0.7605  0.4231
  620MOL0     C85488   8.708   0.325   9.241 -0.3536  0.0628 -0.9697
  620MOL0     C85489   8.668   0.424   9.330 -1.1339  0.0630  0.9826
  620MOL0     C85490   8.525   0.463   9.315  0.3980 -0.1260 -0.5017
  620MOL0     H85491   8.596   0.740   9.731  0.2431 -0.8498  0.3293
  620MOL0     H85492   8.598   0.947   9.848  1.2314  0.9696 -0.2962
  620MOL0     H85493   8.849   1.222   9.778  1.6677  3.1084  0.2830
  620MOL0     H85494   8.989   1.159   9.874  0.9460  0.0935  2.0502
  620MOL0     H85495   8.888   1.403   9.934  1.1024  0.3389  2.0151
  620MOL0     H85496   8.778   1.293  10.015 -0.1349 -4.1396 -0.7034
  620MOL0     H85497   8.982   1.183  10.112 -2.0838  0.1004  1.9292
  620MOL0     H85498   9.077   1.308  10.024  1.3985  2.5781  1.1620
  620MOL0     H85499   8.988   1.482  10.196 -0.6888  0.2909 -1.1878
  620MOL0     H85500   8.878   1.357  10.256 -1.2016  2.9118 -3.1609
  620MOL0     H85501   9.091   1.239  10.339  1.8380 -1.6760 -1.0564
  620MOL0     H85502   9.100   1.402  10.391  0.1040 -1.8626  0.6878
  620MOL0     H85503   9.255   1.300  10.153 -0.9676 -1.2685  0.3449
  620MOL0     H85504   9.215   1.469  10.169 -1.3673  0.4238  0.4885
  620MOL0     H85505   9.342   1.294  10.389  0.9297 -2.7394 -2.5025
  620MOL0     H85506   9.341   1.463  10.393 -0.2803 -0.8117 -0.2417
  620MOL0     H85507   9.494   1.281  10.179  0.6855  2.4134 -2.1418
  620MOL0     H85508   9.490   1.454  10.176  0.7716  1.0646  1.6522
  620MOL0     H85509   9.675   1.163  10.321  0.7441  0.1417 -1.6678
  620MOL0     H85510   9.912   1.127  10.478  0.9933 -0.0175 -0.7662
  620MOL0     H85511   9.899   1.267  10.584  1.7659  0.8196  0.0203
  620MOL0     H85512  10.066   1.385  10.431 -0.0228  0.1379 -1.7693
  620MOL0     H85513  10.123   1.228  10.478 -1.1230 -1.3816  0.3754
  620MOL0     H85514  10.031   1.135  10.247 -0.9878 -0.2477  3.7064
  620MOL0     H85515  10.031   1.312  10.210  1.8683  2.3785  0.6530
  620MOL0     H85516  10.278   1.170  10.300  0.1473  0.8023 -0.3854
  620MOL0     H85517  10.226   1.187  10.127  1.9429 -0.8117  0.5497
  620MOL0     H85518  10.270   1.621  10.212  1.2363 -2.2292 -0.1184
  620MOL0     H85519  10.441   1.867  10.409 -2.7519  4.8547  2.0460
  620MOL0     H85520  10.269   1.874  10.421 -0.4324  0.5183 -0.6338
  620MOL0     H85521  10.343   1.850  10.261 -2.3280 -1.0263  0.0643
  620MOL0     H85522  10.240   1.986  10.802 -0.8350  0.3960  2.5173
  620MOL0     H85523  10.309   2.106  11.004  1.2855  0.0300  1.3352
  620MOL0     H85524  10.417   2.155  11.231 -0.2808  0.1070 -1.2110
  620MOL0     H85525  10.496   1.991  11.196 -0.7774  1.0983 -4.5107
  620MOL0     H85526  10.606   2.040  11.406  2.5498  0.8910  0.5499
  620MOL0     H85527  10.713   2.086  11.279  1.7359  0.2551  1.5818
  620MOL0     H85528  10.546   2.311  11.330  0.4259  0.7649  0.1693
  620MOL0     H85529  10.725   2.299  11.341 -0.9549 -0.3114  0.7554
  620MOL0     H85530  10.709   2.208  11.570  2.5831  1.8160 -0.4846
  620MOL0     H85531  10.534   2.217  11.553 -0.7947  0.9857 -0.9482
  620MOL0     H85532  10.700   2.461  11.532 -2.8433  3.9833 -2.2342
  620MOL0     H85533  10.528   2.454  11.518  0.7589  1.8201  1.0267
  620MOL0     H85534  10.679   2.366  11.763  1.5988  0.2210 -0.8083
  620MOL0     H85535  10.501   2.349  11.742  0.9289 -0.5668  0.0239
  620MOL0     H85536  10.513   2.605  11.725 -0.9317 -0.3762  2.1288
  620MOL0     H85537  10.683   2.614  11.762  0.4822  1.8253  0.2701
  620MOL0     H85538  10.571   2.664  11.954  0.2873  0.6839 -1.7877
  620MOL0     H85539  10.593   2.501  11.993 -0.2950 -1.3588 -1.1594
  620MOL0     H85540  10.721   2.044  10.911 -0.6716 -2.5769  0.4095
  620MOL0     H85541  10.661   1.910  10.707 -0.0301 -2.0107  1.4237
  620MOL0     H85542  10.471   1.446  10.624  0.2548 -0.4221 -1.3857
  620MOL0     H85543  10.399   1.289  10.446 -0.7809 -0.1489  0.8390
  620MOL0     H85544   9.027   0.946   9.850 -1.0470  1.7600  0.3638
  620MOL0     H85545   9.007   0.734   9.683  2.9746  2.5486  2.2857
  620MOL0     H85546   8.961   0.460   9.492 -0.0715  1.7386 -0.1774
  620MOL0     H85547   9.032   0.290   9.326 -0.8635 -4.2934  3.8294
  620MOL0     H85548   8.704   0.102   9.086 -2.8111  1.9226 -3.6336
  620MOL0     H85549   8.793   0.229   8.982  2.5816  2.3377  3.6193
  620MOL0     H85550   8.950   0.046   8.936  0.1702  0.0072  1.5621
  620MOL0     H85551   8.797  -0.019   8.878 -1.6280  1.7189 -0.4683
  620MOL0     H85552   8.871  -0.076   9.154  0.7756 -0.1252  0.1778
  620MOL0     H85553   8.766  -0.159   9.040 -1.9556  3.0184 -1.2673
  620MOL0     H85554   8.979  -0.304   9.060  2.9293  0.4581  0.0414
  620MOL0     H85555   9.068  -0.169   8.999 -1.7510  1.6032  0.5885
  620MOL0     H85556   8.872  -0.268   8.649  1.6340  3.3775 -0.4747
  620MOL0     H85557   8.627   0.295   9.175 -1.6098  0.4047  0.3713
  620MOL0     H85558   8.461   0.393   9.261 -0.2877  0.1280 -0.0283
  620MOL0     H85559   8.482   0.465   9.415  3.3149 -0.2139  0.8530
  620MOL0     H85560   8.512   0.557   9.260  0.3200 -1.1473 -2.3017
  621MOL0     O85561   7.659   5.908   1.426 -0.2567  0.3177 -0.3331
  621MOL0     C85562   7.641   5.839   1.334  0.0035  0.7211  0.5651
  621MOL0     O85563   7.737   5.760   1.277  0.4076 -0.3418 -0.6418
  621MOL0     C85564   7.854   5.752   1.347  0.3607  0.5554  0.1992
  621MOL0     C85565   7.967   5.724   1.268 -0.5668 -0.2466 -0.0613
  621MOL0     C85566   8.084   5.687   1.327 -0.0352  0.7217  0.0951
  621MOL0     C85567   8.116   5.711   1.460 -0.6516 -0.5359 -0.8926
  621MOL0     O85568   8.231   5.683   1.521  0.4738  0.1591  0.6088
  621MOL0     C85569   8.322   5.600   1.454 -0.2555  0.0074  0.3796
  621MOL0     C85570   8.410   5.679   1.374  0.6765 -0.2457  0.5232
  621MOL0     C85571   8.496   5.593   1.278  0.1565  0.5784  0.0666
  621MOL0     C85572   8.592   5.693   1.209 -0.7618  0.2497 -0.3947
  621MOL0     C85573   8.657   5.643   1.079  0.3689 -0.2551 -0.1506
  621MOL0     C85574   8.762   5.545   1.122 -0.0620 -0.2510  0.8388
  621MOL0     C85575   8.830   5.501   1.000 -0.1112  0.3605  0.4235
  621MOL0     C85576   8.942   5.600   0.960  0.7465 -0.4980 -0.6208
  621MOL0     N85577   8.963   5.601   0.810 -0.7411 -0.9200 -0.4144
  621MOL0     C85578   8.999   5.715   0.744  0.2775  0.9989 -0.4055
  621MOL0     C85579   9.036   5.663   0.624 -0.0650  0.1679  0.6160
  621MOL0     C85580   9.122   5.735   0.521  0.3730 -0.6830 -0.4958
  621MOL0     C85581   9.135   5.657   0.397  0.8672  1.0464 -0.8151
  621MOL0     C85582   9.199   5.740   0.284  0.7082  0.3555  0.2055
  621MOL0     C85583   9.341   5.774   0.293 -0.4547  0.5386 -0.0755
  621MOL0     O85584   9.387   5.832   0.173  0.0350  0.1746  0.5327
  621MOL0     C85585   9.482   5.929   0.192 -0.5993  0.9971 -1.1462
  621MOL0     C85586   9.601   5.881   0.251 -0.4656 -0.1179 -0.3319
  621MOL0     C85587   9.693   5.978   0.289 -0.1108  0.2042 -0.1571
  621MOL0     C85588   9.825   5.932   0.342 -0.5404 -0.3313  0.4249
  621MOL0     C85589   9.669   6.119   0.282 -0.1300  0.5040  0.3097
  621MOL0     C85590   9.774   6.217   0.331  0.1406 -0.6678 -0.4553
  621MOL0     O85591   9.827   6.309   0.249 -0.3323  0.0951  0.3044
  621MOL0     C85592   9.939   6.381   0.281 -0.1856 -0.5206 -0.2115
  621MOL0     C85593   9.946   6.485   0.372 -0.8049 -0.5580 -0.7460
  621MOL0     C85594  10.067   6.560   0.388 -0.0202 -0.3987  0.3206
  621MOL0     C85595  10.187   6.515   0.323 -0.3167 -0.6052  0.2933
  621MOL0     O85596  10.302   6.596   0.343  0.1737 -0.5691 -0.5400
  621MOL0     C85597  10.428   6.530   0.320 -0.7236 -0.7112 -0.8362
  621MOL0     C85598  10.547   6.617   0.360  0.9942  0.5066 -0.2193
  621MOL0     C85599  10.678   6.553   0.303 -1.1023  0.5594  0.3554
  621MOL0     C85600  10.730   6.433   0.389 -0.1716  0.0286  0.8601
  621MOL0     C85601  10.886   6.404   0.377  0.1243  0.4320  0.0401
  621MOL0     C85602  10.951   6.434   0.244  0.3237  0.3998 -0.8594
  621MOL0     C85603  11.102   6.429   0.253  0.0774 -0.1409 -0.6617
  621MOL0     C85604  11.164   6.410   0.112 -0.0770  1.1006 -0.2261
  621MOL0    Cl85605  11.102   6.250   0.054  0.2548  0.3026  0.0402
  621MOL0     C85606  10.174   6.406   0.236 -0.8978 -0.4092  0.6393
  621MOL0     C85607  10.054   6.346   0.210  0.5178 -0.3769  0.2777
  621MOL0     O85608   9.777   6.223   0.453 -1.0257 -0.5055 -0.4629
  621MOL0     C85609   9.553   6.157   0.214 -0.4923  0.4671 -0.3478
  621MOL0     C85610   9.461   6.064   0.169 -0.5284  0.5729  0.0134
  621MOL0     N85611   9.010   5.528   0.622  0.4741  0.8139  0.4423
  621MOL0     N85612   8.966   5.488   0.737 -0.8830 -0.4649 -0.4718
  621MOL0     C85613   8.004   5.734   1.539 -0.1652 -0.2088 -0.7625
  621MOL0     C85614   7.875   5.756   1.485  0.2009  0.0364  0.2595
  621MOL0     C85615   7.503   5.844   1.277 -0.0305  0.9406  0.5004
  621MOL0     C85616   7.504   5.848   1.135  0.5195 -0.8043  0.4139
  621MOL0     C85617   7.382   5.857   1.062 -0.6108 -0.3901  0.6035
  621MOL0     C85618   7.262   5.869   1.125  0.3743 -1.1115 -0.8145
  621MOL0     O85619   7.157   5.897   1.045  0.1941 -0.2567  0.3349
  621MOL0     C85620   7.026   5.896   1.097  0.3451  0.1491 -0.8384
  621MOL0     C85621   6.934   5.937   0.985 -0.2132  0.2513 -0.2270
  621MOL0     C85622   6.808   5.852   0.986 -0.4022  0.3831  0.0685
  621MOL0     C85623   6.692   5.918   1.055 -0.1153 -0.6096 -0.3127
  621MOL0     C85624   6.708   5.936   1.199 -0.3618  0.8697  0.2118
  621MOL0     C85625   6.728   5.959   1.319  0.4485  0.4985  0.3829
  621MOL0     C85626   7.257   5.863   1.265  0.5186  0.6917 -0.5019
  621MOL0     C85627   7.372   5.853   1.343 -0.6073  0.0749  0.1695
  621MOL0     C85628   7.357   5.859   1.494 -0.0433  0.1498 -0.3857
  621MOL0     H85629   7.952   5.713   1.161 -2.5074  3.0590 -0.2875
  621MOL0     H85630   8.168   5.655   1.268  1.7672 -0.2050  2.9551
  621MOL0     H85631   8.271   5.516   1.404 -0.3794 -0.4428  1.2484
  621MOL0     H85632   8.386   5.549   1.525  0.9897  2.0268  0.7770
  621MOL0     H85633   8.358   5.758   1.319 -2.6593 -1.4106  1.7103
  621MOL0     H85634   8.484   5.725   1.440 -0.1819  1.2101  0.5083
  621MOL0     H85635   8.549   5.509   1.323 -1.8508 -0.3701  0.7510
  621MOL0     H85636   8.430   5.548   1.204 -0.1875  2.4809 -0.8530
  621MOL0     H85637   8.540   5.785   1.178  0.7832  1.7214  1.1089
  621MOL0     H85638   8.671   5.723   1.279 -0.1746  2.7308 -2.0074
  621MOL0     H85639   8.715   5.728   1.041  5.5044 -2.1675  2.4171
  621MOL0     H85640   8.587   5.609   1.002 -2.8029  2.8374  1.1192
  621MOL0     H85641   8.842   5.587   1.184 -0.6083 -1.0437  2.1134
  621MOL0     H85642   8.720   5.462   1.179  1.3028 -0.8601  0.9975
  621MOL0     H85643   8.762   5.482   0.916 -0.8947  0.3101  1.0638
  621MOL0     H85644   8.873   5.405   1.029  0.9112 -0.6622 -3.7124
  621MOL0     H85645   8.922   5.703   0.992 -1.2690 -0.5725 -1.5357
  621MOL0     H85646   9.030   5.567   1.017  1.2524 -2.4279 -2.4130
  621MOL0     H85647   9.008   5.815   0.785 -0.2229  0.5656  0.8236
  621MOL0     H85648   9.224   5.758   0.554  0.9390 -0.5449 -2.2443
  621MOL0     H85649   9.077   5.833   0.503 -1.2028 -0.8895  1.8121
  621MOL0     H85650   9.193   5.567   0.418 -0.4213 -0.1375 -2.0636
  621MOL0     H85651   9.037   5.621   0.362  1.4139 -1.4628  0.0504
  621MOL0     H85652   9.195   5.683   0.191  0.6606  0.7145 -0.0136
  621MOL0     H85653   9.147   5.836   0.277  0.2353  0.2078  1.4381
  621MOL0     H85654   9.352   5.847   0.374  0.9193  1.1823 -0.8037
  621MOL0     H85655   9.402   5.686   0.313 -0.6029  0.8626  2.0323
  621MOL0     H85656   9.611   5.773   0.260 -4.4638 -0.5923  0.5757
  621MOL0     H85657   9.836   5.825   0.322  2.1838 -0.5120  2.3642
  621MOL0     H85658   9.833   5.945   0.450 -2.1171  0.1638  0.5070
  621MOL0     H85659   9.910   5.994   0.310  0.0936 -0.2012  2.2528
  621MOL0     H85660   9.852   6.506   0.422 -1.6023 -2.7145 -1.2096
  621MOL0     H85661  10.068   6.650   0.450 -1.0911  0.3244 -0.6707
  621MOL0     H85662  10.437   6.438   0.378 -2.6123 -0.2144  0.3554
  621MOL0     H85663  10.439   6.491   0.218  1.6906 -0.0001 -0.9076
  621MOL0     H85664  10.527   6.716   0.318  1.9948  1.6202  1.8421
  621MOL0     H85665  10.551   6.634   0.468  2.0441  1.6782 -0.4337
  621MOL0     H85666  10.755   6.630   0.313 -0.0735 -0.5190  1.2030
  621MOL0     H85667  10.676   6.518   0.199 -2.0662  1.3196  0.1093
  621MOL0     H85668  10.676   6.339   0.381  1.9775 -1.1889 -0.0760
  621MOL0     H85669  10.708   6.455   0.494 -0.1492  0.4241  0.7844
  621MOL0     H85670  10.940   6.470   0.446  2.8549  0.6131 -2.0969
  621MOL0     H85671  10.912   6.300   0.402  1.4267  0.2608 -1.8159
  621MOL0     H85672  10.923   6.529   0.199 -2.9102 -1.2642 -2.7814
  621MOL0     H85673  10.903   6.354   0.186 -1.3146 -0.8560  2.0135
  621MOL0     H85674  11.137   6.351   0.322  0.4852 -0.3149 -1.0602
  621MOL0     H85675  11.149   6.521   0.288 -0.0409  0.4934 -2.1090
  621MOL0     H85676  11.273   6.407   0.121 -0.1769  1.1626  1.1780
  621MOL0     H85677  11.127   6.486   0.043 -1.1657  0.4992 -0.3428
  621MOL0     H85678  10.255   6.388   0.166 -0.6144  3.3592 -0.2700
  621MOL0     H85679  10.041   6.275   0.129  0.9576  0.7071 -0.7643
  621MOL0     H85680   9.533   6.262   0.195 -2.0717  0.4414  1.0090
  621MOL0     H85681   9.365   6.093   0.126 -0.6153  0.9468  0.4422
  621MOL0     H85682   8.021   5.739   1.646  1.9520  1.4114 -1.0960
  621MOL0     H85683   7.794   5.774   1.554 -0.0656  0.4675 -0.1628
  621MOL0     H85684   7.593   5.851   1.074  0.4105  0.6669  0.2909
  621MOL0     H85685   7.397   5.862   0.955 -3.6407  1.2051  0.1512
  621MOL0     H85686   7.002   5.801   1.145 -0.2402  1.0360  0.7173
  621MOL0     H85687   7.028   5.971   1.177  0.0229  0.1114 -0.7935
  621MOL0     H85688   6.999   5.926   0.897 -1.0051  1.7513 -1.0433
  621MOL0     H85689   6.910   6.043   0.995  0.6235  0.4990 -0.7939
  621MOL0     H85690   6.776   5.837   0.882  1.0713  1.8471 -0.6491
  621MOL0     H85691   6.832   5.756   1.033 -1.0225  2.2632  4.7282
  621MOL0     H85692   6.595   5.870   1.035 -0.4630  0.5753 -1.6278
  621MOL0     H85693   6.670   6.016   1.011 -2.7852 -0.5629  0.9167
  621MOL0     H85694   6.737   5.990   1.421 -0.2371 -1.5094  1.1155
  621MOL0     H85695   7.160   5.857   1.313  1.3637  0.2522  1.2596
  621MOL0     H85696   7.343   5.963   1.528 -2.3979 -0.5290  0.9217
  621MOL0     H85697   7.263   5.812   1.521 -0.7246  0.9119 -1.3694
  621MOL0     H85698   7.432   5.796   1.544 -1.0994 -1.4514 -0.7643
  622MOL0     O85699   6.812  10.500   0.231 -0.4616  0.3631  0.0035
  622MOL0     C85700   6.745  10.578   0.161 -0.6164  0.3888  1.1813
  622MOL0     O85701   6.774  10.609   0.030  0.2168 -0.5531  0.3013
  622MOL0     C85702   6.900  10.558  -0.012 -0.0366  0.2935 -0.5437
  622MOL0     C85703   7.012  10.628   0.002  1.1745 -0.1028  0.4125
  622MOL0     C85704   7.137  10.574  -0.044 -0.7442 -0.5862 -0.2245
  622MOL0     C85705   7.144  10.441  -0.091 -0.4370 -0.2693 -0.6934
  622MOL0     O85706   7.265  10.397  -0.135  0.2616  0.1192 -0.0120
  622MOL0     C85707   7.264  10.330  -0.257  0.2963  0.4028  1.3494
  622MOL0     C85708   7.409  10.309  -0.296 -0.0625  0.6454  0.0845
  622MOL0     C85709   7.438  10.165  -0.232  0.2860 -1.0042 -0.1197
  622MOL0     C85710   7.575  10.110  -0.260 -0.4617 -0.1888  0.4875
  622MOL0     C85711   7.577  10.011  -0.368 -0.0402 -0.7988 -0.4742
  622MOL0     C85712   7.712   9.985  -0.440  0.0982  0.2858 -0.7175
  622MOL0     C85713   7.704   9.898  -0.560 -0.0184  0.8067  0.3822
  622MOL0     C85714   7.672   9.759  -0.521 -0.4489 -0.1884  0.0321
  622MOL0     N85715   7.677   9.655  -0.623  0.6095 -0.6556 -0.2799
  622MOL0     C85716   7.582   9.571  -0.663 -0.4361 -0.5363 -1.3463
  622MOL0     C85717   7.645   9.488  -0.744 -0.1272  0.0898 -0.7694
  622MOL0     C85718   7.566   9.370  -0.798 -0.6960  0.4137  0.2942
  622MOL0     C85719   7.508   9.423  -0.935  0.2618 -0.2332 -0.0686
  622MOL0     C85720   7.387   9.529  -0.920 -0.0160  0.0890  0.0346
  622MOL0     C85721   7.256   9.458  -0.925 -0.6013 -0.5027  0.7056
  622MOL0     O85722   7.241   9.368  -0.816  1.0559 -0.4790  0.1428
  622MOL0     C85723   7.130   9.278  -0.820  1.3836  0.3197 -0.0806
  622MOL0     C85724   7.001   9.315  -0.853  0.0877  0.7945  0.3531
  622MOL0     C85725   6.909   9.215  -0.861  0.2042  0.3940 -1.1838
  622MOL0     C85726   6.761   9.255  -0.880 -0.4495 -0.3627  0.0615
  622MOL0     C85727   6.942   9.077  -0.833  0.5553 -0.9852 -0.6915
  622MOL0     C85728   6.847   8.965  -0.860 -0.5013  0.1664 -0.0483
  622MOL0     O85729   6.906   8.844  -0.835  0.3786  0.1654  0.2873
  622MOL0     C85730   6.850   8.723  -0.871  0.7169 -0.5218  0.2927
  622MOL0     C85731   6.820   8.688  -1.001  1.2525 -0.5241 -0.1668
  622MOL0     C85732   6.790   8.557  -1.032  0.2352  0.1010 -0.0838
  622MOL0     C85733   6.763   8.461  -0.938 -0.4841  0.2294  0.3223
  622MOL0     O85734   6.738   8.333  -0.970  0.0655 -0.2344 -0.4409
  622MOL0     C85735   6.868   8.275  -0.997 -0.1393  0.3976  0.6189
  622MOL0     C85736   6.854   8.132  -1.047  0.1391 -0.2189 -0.2275
  622MOL0     C85737   6.784   8.113  -1.180 -0.1282 -0.0421 -0.1405
  622MOL0     C85738   6.792   7.959  -1.223 -0.2468 -0.0880  0.1607
  622MOL0     C85739   6.691   7.935  -1.343  0.4595  0.2666 -0.0699
  622MOL0     C85740   6.653   7.787  -1.358  0.1744  0.2277  0.0088
  622MOL0     C85741   6.531   7.780  -1.460 -0.1213 -0.7704  0.1360
  622MOL0     C85742   6.512   7.632  -1.514 -0.3357  0.2285  0.0520
  622MOL0    Cl85743   6.650   7.561  -1.601 -0.0782 -0.1268  0.0142
  622MOL0     C85744   6.775   8.497  -0.802 -0.5113  0.4980  0.2053
  622MOL0     C85745   6.824   8.625  -0.772  0.3097  0.4257  0.6867
  622MOL0     O85746   6.735   8.984  -0.917 -0.6573  0.3996  0.1158
  622MOL0     C85747   7.067   9.051  -0.774 -0.6522 -0.4966 -0.2262
  622MOL0     C85748   7.170   9.148  -0.779 -0.4233  0.4829  0.3490
  622MOL0     N85749   7.772   9.530  -0.770 -0.1706 -0.3640  0.0355
  622MOL0     N85750   7.791   9.628  -0.684 -0.8586  0.9602  0.5762
  622MOL0     C85751   7.028  10.367  -0.092  0.3420 -0.5688  0.8832
  622MOL0     C85752   6.903  10.421  -0.058  0.6536 -0.0510  0.0507
  622MOL0     C85753   6.624  10.641   0.219 -0.8551  0.3541 -0.3378
  622MOL0     C85754   6.596  10.778   0.204 -0.9372 -0.9575 -0.3297
  622MOL0     C85755   6.499  10.838   0.285  0.8544 -0.1055 -0.4470
  622MOL0     C85756   6.426  10.762   0.384 -0.0805 -0.6445 -0.4799
  622MOL0     O85757   6.347  10.837   0.472 -0.2311 -0.2409  0.2844
  622MOL0     C85758   6.255  10.768   0.562  0.9506  0.2490  0.9038
  622MOL0     C85759   6.124  10.736   0.495 -0.0851 -0.3283  0.0426
  622MOL0     C85760   6.045  10.645   0.588 -1.0683  0.0294 -0.1073
  622MOL0     C85761   5.897  10.648   0.544  0.2220 -0.4010  0.4894
  622MOL0     C85762   5.836  10.779   0.553  0.3941 -0.0122  1.3237
  622MOL0     C85763   5.792  10.893   0.577 -0.9858  0.8557 -0.8599
  622MOL0     C85764   6.442  10.629   0.379 -0.0116  0.2559 -0.1063
  622MOL0     C85765   6.534  10.563   0.296 -0.3158  0.1081 -0.2880
  622MOL0     C85766   6.551  10.413   0.313 -0.8732  0.2646  0.6237
  622MOL0     H85767   7.001  10.725   0.048  0.4211 -0.2575  0.5758
  622MOL0     H85768   7.232  10.626  -0.050 -0.4251 -1.0520  0.6820
  622MOL0     H85769   7.210  10.382  -0.336  4.0649  1.3673 -0.8793
  622MOL0     H85770   7.199  10.242  -0.253  0.0613  0.1564 -2.8762
  622MOL0     H85771   7.413  10.312  -0.406 -1.4052  0.7516  0.0214
  622MOL0     H85772   7.475  10.389  -0.261 -0.8437  0.3585  2.3201
  622MOL0     H85773   7.436  10.183  -0.124  3.2865  1.6575 -0.3741
  622MOL0     H85774   7.360  10.097  -0.269  0.0780 -0.2514 -1.1157
  622MOL0     H85775   7.643  10.193  -0.280 -0.5196  0.3952  2.4549
  622MOL0     H85776   7.605  10.047  -0.175 -1.4395 -3.1417 -1.2267
  622MOL0     H85777   7.515  10.043  -0.452 -0.0426  1.0533  0.1854
  622MOL0     H85778   7.534   9.913  -0.349 -3.3481  0.1578 -2.2462
  622MOL0     H85779   7.751  10.082  -0.470 -0.6708  0.5610 -0.8509
  622MOL0     H85780   7.777   9.934  -0.368  1.0528  1.8301 -0.4260
  622MOL0     H85781   7.800   9.899  -0.611 -0.2542  1.9642 -0.0890
  622MOL0     H85782   7.617   9.919  -0.624  0.4085 -0.9390 -0.8501
  622MOL0     H85783   7.742   9.722  -0.445 -0.9900 -1.5832 -0.1111
  622MOL0     H85784   7.571   9.751  -0.480  0.2361 -0.8474  1.7004
  622MOL0     H85785   7.487   9.552  -0.615 -0.9507  1.9842 -1.2594
  622MOL0     H85786   7.481   9.346  -0.734  0.3419  0.1115  1.6229
  622MOL0     H85787   7.628   9.281  -0.813 -0.8246  0.4207 -0.3235
  622MOL0     H85788   7.584   9.466  -1.000 -1.4563  1.0429 -1.3166
  622MOL0     H85789   7.468   9.341  -0.996 -3.9159 -0.4583  2.5249
  622MOL0     H85790   7.383   9.596  -0.833 -0.6303  0.3174 -0.1639
  622MOL0     H85791   7.382   9.594  -1.008 -2.0146  0.4921  0.3967
  622MOL0     H85792   7.174   9.530  -0.931  0.1979  0.4092  0.6401
  622MOL0     H85793   7.257   9.405  -1.021 -2.4307  1.8148 -0.7050
  622MOL0     H85794   6.972   9.420  -0.865 -0.8086  0.3588 -1.9967
  622MOL0     H85795   6.729   9.257  -0.985  0.9586  0.2395 -0.3737
  622MOL0     H85796   6.743   9.353  -0.835 -2.2999 -0.9847  0.7831
  622MOL0     H85797   6.687   9.203  -0.818 -1.1370  0.8590  0.2925
  622MOL0     H85798   6.838   8.764  -1.077 -0.4943  1.3754  1.1978
  622MOL0     H85799   6.788   8.524  -1.135  2.0129 -0.2400 -0.0438
  622MOL0     H85800   6.917   8.319  -1.084  1.0714  0.2739  1.2209
  622MOL0     H85801   6.932   8.273  -0.908 -2.3661  1.2457  2.3425
  622MOL0     H85802   6.955   8.090  -1.044  0.8507  1.3722 -0.7364
  622MOL0     H85803   6.800   8.080  -0.966  0.9645 -1.2470 -0.3188
  622MOL0     H85804   6.836   8.180  -1.249 -3.0983  1.1058 -1.4175
  622MOL0     H85805   6.682   8.151  -1.182  0.4850  1.7512 -2.4580
  622MOL0     H85806   6.760   7.904  -1.134 -0.9373  1.1071  0.6780
  622MOL0     H85807   6.886   7.924  -1.266 -1.0594 -2.0506 -0.1599
  622MOL0     H85808   6.602   7.987  -1.306  3.0918  3.5950  2.1568
  622MOL0     H85809   6.731   7.980  -1.434  2.5452  0.6996  0.9893
  622MOL0     H85810   6.639   7.735  -1.263  1.2444  1.4659  0.8750
  622MOL0     H85811   6.745   7.749  -1.405  0.8266  2.4097 -0.5958
  622MOL0     H85812   6.550   7.832  -1.554  2.4341 -0.9920  0.4630
  622MOL0     H85813   6.435   7.821  -1.426 -1.4260 -3.4786 -0.0201
  622MOL0     H85814   6.426   7.636  -1.581  0.0505  2.2260 -0.3845
  622MOL0     H85815   6.486   7.573  -1.426  1.6497 -2.4888 -1.0442
  622MOL0     H85816   6.749   8.423  -0.727  4.8709 -0.6218  1.3991
  622MOL0     H85817   6.820   8.658  -0.669 -0.6947  0.8102  0.5341
  622MOL0     H85818   7.088   8.954  -0.731 -0.2023 -0.4004 -0.2171
  622MOL0     H85819   7.275   9.136  -0.756  0.2642  2.9099 -1.1805
  622MOL0     H85820   7.036  10.262  -0.120  1.5233 -0.0321 -0.9955
  622MOL0     H85821   6.812  10.363  -0.048  0.9438 -0.4018  0.7557
  622MOL0     H85822   6.656  10.845   0.143  0.1438 -1.5889  0.0015
  622MOL0     H85823   6.492  10.946   0.288  0.2947 -0.1740  1.6818
  622MOL0     H85824   6.288  10.676   0.610 -4.1374 -1.5247  1.6376
  622MOL0     H85825   6.233  10.836   0.644 -3.3962 -1.9085  1.8645
  622MOL0     H85826   6.139  10.681   0.402 -1.7128  3.7280 -2.9087
  622MOL0     H85827   6.070  10.827   0.469 -0.2166 -0.9875 -2.2053
  622MOL0     H85828   6.071  10.538   0.594 -3.0932 -0.4210  1.6342
  622MOL0     H85829   6.051  10.695   0.685  1.1101 -0.3890  0.0428
  622MOL0     H85830   5.835  10.578   0.602 -2.6890 -0.0718 -1.9700
  622MOL0     H85831   5.870  10.613   0.444  4.3093 -1.5634 -0.4080
  622MOL0     H85832   5.756  10.991   0.599 -1.2260  0.4274  0.7204
  622MOL0     H85833   6.381  10.562   0.438 -1.8872 -0.7688 -2.9441
  622MOL0     H85834   6.620  10.375   0.388 -0.5652 -0.1003  0.1583
  622MOL0     H85835   6.459  10.359   0.334 -0.9890  0.7570  1.4351
  622MOL0     H85836   6.590  10.372   0.220  1.7848 -2.0436  2.5881
  623MOL0     O85837   8.924  11.093   4.084  0.4254  0.1527 -0.4214
  623MOL0     C85838   8.935  11.040   3.974 -1.0635  0.0537  0.0101
  623MOL0     O85839   9.046  10.988   3.913  0.2097  0.8293  0.2773
  623MOL0     C85840   9.171  11.022   3.955 -0.0058  0.4282 -0.3405
  623MOL0     C85841   9.268  10.920   3.950 -0.0312  0.0391 -0.5590
  623MOL0     C85842   9.395  10.954   3.980 -0.3425  0.2198  0.0647
  623MOL0     C85843   9.438  11.088   4.008 -0.2764 -0.2464 -0.5361
  623MOL0     O85844   9.566  11.126   4.022  0.4698  0.5063 -0.4889
  623MOL0     C85845   9.662  11.023   4.024  0.2722  1.2494 -0.4023
  623MOL0     C85846   9.797  11.073   4.049  0.6118  0.0756 -0.3181
  623MOL0     C85847   9.812  11.133   4.196  0.1063 -0.2936  0.3521
  623MOL0     C85848   9.836  11.038   4.311  0.0677 -0.0481 -0.1056
  623MOL0     C85849   9.832  11.101   4.451  0.4796  0.0331 -0.4101
  623MOL0     C85850   9.901  11.020   4.565  0.1950 -0.7221 -0.4882
  623MOL0     C85851   9.872  11.088   4.700  0.3634  1.6009  0.9663
  623MOL0     C85852   9.929  11.233   4.705  0.1877  0.0296 -0.3902
  623MOL0     N85853   9.911  11.285   4.840  0.2928 -0.2909 -1.5725
  623MOL0     C85854   9.802  11.277   4.919  0.0189  0.7213 -0.4025
  623MOL0     C85855   9.832  11.324   5.042 -0.5569  0.2106 -0.0227
  623MOL0     C85856   9.753  11.303   5.171  0.0902 -0.7958 -0.4540
  623MOL0     C85857   9.763  11.164   5.242  0.5636 -0.1753 -0.1663
  623MOL0     C85858   9.787  11.046   5.155  0.7766  1.1822 -0.5522
  623MOL0     C85859   9.941  11.024   5.125 -0.1290 -1.3833  0.1428
  623MOL0     O85860   9.992  10.898   5.177  0.0652 -0.3954 -0.3922
  623MOL0     C85861  10.124  10.871   5.138  0.2943  0.8618 -0.2717
  623MOL0     C85862  10.234  10.903   5.220  0.1128 -0.0658 -0.4830
  623MOL0     C85863  10.367  10.864   5.197 -0.0592  0.5387 -0.7299
  623MOL0     C85864  10.463  10.902   5.298  0.5617  0.7114  0.7890
  623MOL0     C85865  10.389  10.792   5.074 -0.0499  0.5769 -0.3496
  623MOL0     C85866  10.515  10.748   5.028 -0.7348  0.4487  0.4915
  623MOL0     O85867  10.546  10.764   4.896  0.2080  0.5966  0.2333
  623MOL0     C85868  10.668  10.707   4.868  0.2625 -0.1474 -0.2617
  623MOL0     C85869  10.772  10.794   4.841  0.1815  0.3919 -0.0165
  623MOL0     C85870  10.904  10.749   4.833  0.3468 -0.2360  0.1565
  623MOL0     C85871  10.926  10.608   4.845 -0.1705 -0.1847  0.2587
  623MOL0     O85872  11.047  10.553   4.847  0.0614 -0.0848  0.5860
  623MOL0     C85873  11.168  10.625   4.825 -1.2452  0.0740  0.1183
  623MOL0     C85874  11.211  10.684   4.963  0.3432 -0.1398 -0.0464
  623MOL0     C85875  11.359  10.710   4.954  0.0874 -0.5680  0.6646
  623MOL0     C85876  11.399  10.801   5.063 -0.6874 -0.3409 -0.3651
  623MOL0     C85877  11.547  10.845   5.063 -0.2971  0.2468  0.0513
  623MOL0     C85878  11.632  10.712   5.073  0.1345  0.8744 -0.4411
  623MOL0     C85879  11.769  10.729   5.129 -0.5771 -0.1352 -0.0692
  623MOL0     C85880  11.827  10.589   5.175  0.9038 -0.1481 -0.3286
  623MOL0    Cl85881  12.004  10.594   5.209 -0.0475 -0.5695 -0.2970
  623MOL0     C85882  10.821  10.523   4.867 -1.0616  0.7683 -0.4968
  623MOL0     C85883  10.695  10.570   4.892 -0.2523  0.2750  0.4069
  623MOL0     O85884  10.599  10.713   5.117 -0.1113 -0.2297  0.2654
  623MOL0     C85885  10.276  10.753   4.999 -0.2504 -0.3808 -0.2470
  623MOL0     C85886  10.146  10.801   5.027 -0.2768 -0.6947 -1.5086
  623MOL0     N85887   9.958  11.371   5.030  0.1326 -0.2382 -0.1992
  623MOL0     N85888  10.011  11.342   4.918 -0.4237  0.4610  0.6144
  623MOL0     C85889   9.344  11.189   4.025  0.6899  0.2038  0.4155
  623MOL0     C85890   9.204  11.156   3.997 -0.4703 -0.3281  0.1301
  623MOL0     C85891   8.801  11.012   3.914  0.0016 -0.2887  0.1834
  623MOL0     C85892   8.683  11.032   3.991  0.7036  0.0092 -0.0308
  623MOL0     C85893   8.560  10.992   3.935  0.4525 -0.1756 -0.0766
  623MOL0     C85894   8.555  10.933   3.810  1.1737  0.9054  0.4906
  623MOL0     O85895   8.430  10.900   3.767 -0.2843 -0.3264 -0.3843
  623MOL0     C85896   8.406  10.869   3.627  0.1949 -0.1892  0.3682
  623MOL0     C85897   8.261  10.814   3.612  0.3239  0.8021  0.6559
  623MOL0     C85898   8.156  10.866   3.704 -0.2724  0.0950 -0.1142
  623MOL0     C85899   8.012  10.810   3.670 -0.3287  0.0019  0.2197
  623MOL0     C85900   8.003  10.659   3.663 -0.3898  0.0495 -0.6008
  623MOL0     C85901   7.980  10.537   3.655 -0.2395 -1.2766 -0.2898
  623MOL0     C85902   8.671  10.914   3.735 -0.2292  0.1622  0.0385
  623MOL0     C85903   8.792  10.967   3.776  0.6723  0.0038 -0.4204
  623MOL0     C85904   8.907  10.937   3.684 -0.5506 -0.7582  0.6419
  623MOL0     H85905   9.238  10.818   3.935  2.2496 -0.9843  1.1448
  623MOL0     H85906   9.463  10.870   3.986 -0.9089 -0.3011 -0.6811
  623MOL0     H85907   9.652  10.974   3.926  0.3896  0.9273 -0.2572
  623MOL0     H85908   9.649  10.952   4.106 -0.9486  0.3551 -1.3247
  623MOL0     H85909   9.877  10.998   4.044  0.3868 -0.2699  0.9107
  623MOL0     H85910   9.827  11.143   3.971 -0.1275 -0.8225 -1.4496
  623MOL0     H85911   9.903  11.195   4.194 -0.6309  0.8051  0.0884
  623MOL0     H85912   9.723  11.191   4.223 -0.4055  0.0141 -1.8034
  623MOL0     H85913   9.753  10.967   4.305  0.1498 -0.0575 -1.2374
  623MOL0     H85914   9.941  11.008   4.299  0.6043  1.5114  0.4608
  623MOL0     H85915   9.731  11.135   4.476  1.1321  1.9888 -0.2493
  623MOL0     H85916   9.895  11.189   4.432  3.0905 -1.9908 -1.9874
  623MOL0     H85917   9.862  10.918   4.570 -0.5677 -0.3913  1.0211
  623MOL0     H85918  10.007  11.005   4.542  0.0470  1.2149 -2.8393
  623MOL0     H85919   9.924  11.027   4.774  0.5172 -2.8491 -2.4368
  623MOL0     H85920   9.764  11.085   4.718  0.5314  1.7531  2.0748
  623MOL0     H85921  10.032  11.241   4.668 -1.0471  2.3363 -3.7913
  623MOL0     H85922   9.863  11.295   4.644 -1.1330 -0.2083  0.7656
  623MOL0     H85923   9.712  11.220   4.899  1.0125 -0.7152 -0.9451
  623MOL0     H85924   9.645  11.314   5.156 -0.2496 -0.6444  1.7514
  623MOL0     H85925   9.783  11.383   5.240  1.2204 -2.1797  0.7298
  623MOL0     H85926   9.839  11.168   5.322  1.0010  1.8100 -0.6306
  623MOL0     H85927   9.670  11.144   5.295  1.6397 -0.5000  1.7087
  623MOL0     H85928   9.750  10.963   5.215 -1.9303  0.9018 -2.4494
  623MOL0     H85929   9.738  11.045   5.057  0.2885  0.6662 -0.3024
  623MOL0     H85930   9.968  11.026   5.019  1.2597 -1.4622  0.4831
  623MOL0     H85931  10.003  11.107   5.160 -1.2864  0.0691 -1.1114
  623MOL0     H85932  10.215  10.964   5.308  0.3758 -0.3785 -0.2022
  623MOL0     H85933  10.472  10.821   5.372 -0.4959 -0.2299 -0.0804
  623MOL0     H85934  10.430  10.990   5.354  0.1174 -0.9691  3.3803
  623MOL0     H85935  10.560  10.914   5.249 -0.6849  0.0342 -2.0653
  623MOL0     H85936  10.744  10.899   4.833  0.8896  0.6814  1.0516
  623MOL0     H85937  10.984  10.820   4.816  0.4925 -0.0893  1.4035
  623MOL0     H85938  11.248  10.563   4.783  0.5349  2.1809  0.2413
  623MOL0     H85939  11.145  10.705   4.754 -1.4139  0.4800  0.6296
  623MOL0     H85940  11.159  10.780   4.970  0.9031  0.3705 -2.0587
  623MOL0     H85941  11.205  10.616   5.049  5.1920 -4.8953 -2.8321
  623MOL0     H85942  11.373  10.771   4.864  1.0390  0.8663  1.7494
  623MOL0     H85943  11.405  10.613   4.937 -0.2262 -0.2332 -2.6845
  623MOL0     H85944  11.383  10.749   5.158 -0.3644  1.8546  0.9493
  623MOL0     H85945  11.340  10.893   5.064 -0.5540 -0.2466  1.1338
  623MOL0     H85946  11.565  10.895   4.967 -1.3932  0.6731  0.0505
  623MOL0     H85947  11.571  10.911   5.147  0.5814  2.1592 -1.6348
  623MOL0     H85948  11.632  10.668   4.973 -1.0551  0.1762 -0.1565
  623MOL0     H85949  11.588  10.636   5.139  1.2714  0.4100 -0.1911
  623MOL0     H85950  11.778  10.799   5.212  2.7648 -1.0122  0.4671
  623MOL0     H85951  11.833  10.772   5.051  1.1290 -3.4436 -0.6980
  623MOL0     H85952  11.805  10.516   5.097  1.2573  1.5260 -2.0418
  623MOL0     H85953  11.778  10.564   5.270  1.3055  2.6530  0.7182
  623MOL0     H85954  10.831  10.415   4.863 -1.7663  0.6422  0.7336
  623MOL0     H85955  10.613  10.502   4.914 -0.8549 -0.2511 -2.8777
  623MOL0     H85956  10.300  10.686   4.917  2.5407  0.2980 -0.0874
  623MOL0     H85957  10.060  10.793   4.961 -1.5700 -1.7875  0.2307
  623MOL0     H85958   9.376  11.290   4.049  0.4935 -0.7904  6.1238
  623MOL0     H85959   9.139  11.243   4.003  0.0358  0.1537 -1.0492
  623MOL0     H85960   8.681  11.065   4.095 -3.8050  0.9381 -0.1955
  623MOL0     H85961   8.463  11.005   3.983 -0.3515 -1.2585 -1.3223
  623MOL0     H85962   8.413  10.965   3.575  0.9011  0.4497  1.5960
  623MOL0     H85963   8.468  10.792   3.581  0.7346  0.3521  0.1661
  623MOL0     H85964   8.266  10.705   3.621 -0.7659  0.4766 -1.8906
  623MOL0     H85965   8.238  10.835   3.507  0.3146 -0.1401  0.4621
  623MOL0     H85966   8.184  10.827   3.802  0.3073 -2.0010 -1.0597
  623MOL0     H85967   8.149  10.976   3.707  0.1580  0.1099  0.6187
  623MOL0     H85968   7.988  10.846   3.569 -3.6029 -1.5405  0.3149
  623MOL0     H85969   7.940  10.849   3.741  0.0717  0.6021  0.3019
  623MOL0     H85970   7.958  10.433   3.637 -1.7345 -0.9510 -0.4609
  623MOL0     H85971   8.666  10.873   3.634 -1.0788 -0.3592  0.2801
  623MOL0     H85972   8.872  10.922   3.581  1.5911  0.9842 -0.4162
  623MOL0     H85973   8.977  11.020   3.666  1.9922 -3.0723 -0.9466
  623MOL0     H85974   8.972  10.854   3.712  2.1536  1.5772  1.7620
  624MOL0     O85975   9.581   5.070  10.747  0.0624  0.8188 -0.1761
  624MOL0     C85976   9.573   5.078  10.869  0.6823  0.8382  0.2078
  624MOL0     O85977   9.677   5.083  10.955  0.6388 -0.2705 -0.0710
  624MOL0     C85978   9.795   5.082  10.893 -0.2576 -0.0606  0.5804
  624MOL0     C85979   9.855   4.954  10.883  0.9493 -0.9090 -0.5778
  624MOL0     C85980   9.991   4.947  10.854  0.4536  0.5219  1.2224
  624MOL0     C85981  10.069   5.052  10.827  0.3655 -0.0358  0.7614
  624MOL0     O85982  10.199   5.016  10.791  0.4429 -0.2946 -0.6698
  624MOL0     C85983  10.303   5.113  10.782 -0.5337  0.0159  0.9543
  624MOL0     C85984  10.336   5.173  10.918 -0.5474  0.3036 -0.5857
  624MOL0     C85985  10.485   5.216  10.939 -0.3423 -0.0545 -0.3840
  624MOL0     C85986  10.527   5.263  11.083 -0.0812  0.0750 -0.1990
  624MOL0     C85987  10.675   5.303  11.081 -0.6981 -0.3618  0.2541
  624MOL0     C85988  10.723   5.375  11.210  0.4946  0.2362 -0.0621
  624MOL0     C85989  10.863   5.437  11.198 -0.2294 -0.7366  0.2327
  624MOL0     C85990  10.965   5.359  11.112 -0.0577  0.3775  0.2405
  624MOL0     N85991  11.084   5.437  11.075  0.9169  0.1574 -0.0571
  624MOL0     C85992  11.092   5.547  10.992  0.2494 -0.4037  0.3750
  624MOL0     C85993  11.226   5.586  11.003 -0.1092 -0.3644  1.1123
  624MOL0     C85994  11.304   5.708  10.945  0.0534  0.0121 -0.1377
  624MOL0     C85995  11.457   5.711  10.981 -0.1684  1.0287 -0.2972
  624MOL0     C85996  11.536   5.840  10.984 -0.2010  0.5356 -0.1148
  624MOL0     C85997  11.687   5.825  11.004 -0.1177 -0.9776  0.4668
  624MOL0     O85998  11.741   5.952  11.008  0.0076 -0.3935  0.4372
  624MOL0     C85999  11.870   5.958  10.981  0.0602 -1.0812  0.4974
  624MOL0     C86000  11.924   6.071  10.919 -0.0559  0.5285 -0.3819
  624MOL0     C86001  12.070   6.083  10.912 -0.3605  0.0640 -0.3066
  624MOL0     C86002  12.115   6.218  10.874  0.5777 -0.1727  0.9237
  624MOL0     C86003  12.160   5.977  10.958  0.7211 -0.0737 -0.2132
  624MOL0     C86004  12.307   5.995  10.944  0.2430  0.0933  0.8872
  624MOL0     O86005  12.357   6.066  10.839 -0.8335  0.5482  0.2640
  624MOL0     C86006  12.496   6.075  10.840 -0.0302 -0.6782 -0.3635
  624MOL0     C86007  12.555   6.173  10.927  0.5014 -0.1752  0.3029
  624MOL0     C86008  12.693   6.201  10.922 -0.1826 -0.1177 -0.1009
  624MOL0     C86009  12.774   6.131  10.829 -0.5333 -1.2233  0.8349
  624MOL0     O86010  12.905   6.153  10.816  0.3073  1.0935 -0.5747
  624MOL0     C86011  12.988   6.132  10.919 -0.5001  0.2973 -0.0918
  624MOL0     C86012  13.120   6.074  10.860 -0.2954  0.3087  0.1304
  624MOL0     C86013  13.102   5.926  10.815 -0.0963  0.3718  0.6939
  624MOL0     C86014  13.227   5.855  10.770  0.3511  0.1383 -0.1344
  624MOL0     C86015  13.287   5.894  10.624 -0.1685  0.5706  0.0000
  624MOL0     C86016  13.433   5.848  10.597 -0.2404  0.2909 -0.3761
  624MOL0     C86017  13.487   5.922  10.470  0.5989 -0.3931 -0.1726
  624MOL0     C86018  13.642   5.944  10.504  0.2865 -0.0352  0.2624
  624MOL0    Cl86019  13.718   6.075  10.405  0.0582 -0.3949  0.4287
  624MOL0     C86020  12.718   6.043  10.749  0.5219  0.4759 -0.4076
  624MOL0     C86021  12.581   6.001  10.759 -0.0495 -0.4602  0.7798
  624MOL0     O86022  12.377   5.938  11.024 -0.7232  0.9442  1.2006
  624MOL0     C86023  12.101   5.870  11.012  0.6507  0.0735 -0.2388
  624MOL0     C86024  11.960   5.860  11.023 -0.2529  0.0860  0.9328
  624MOL0     N86025  11.297   5.491  11.074  0.6248  0.1462 -0.5208
  624MOL0     N86026  11.205   5.403  11.124 -0.2522  0.1372 -0.5879
  624MOL0     C86027  10.012   5.177  10.826  0.0763 -0.1940 -0.9646
  624MOL0     C86028   9.871   5.199  10.855 -0.3754  0.1886 -0.2795
  624MOL0     C86029   9.444   5.096  10.926  0.7644 -0.1140 -0.0818
  624MOL0     C86030   9.427   5.058  11.059 -0.7314  0.0217  0.0913
  624MOL0     C86031   9.300   5.042  11.115  0.4242 -0.2803  0.4595
  624MOL0     C86032   9.185   5.082  11.044 -0.0605  0.0045  1.0206
  624MOL0     O86033   9.054   5.080  11.093 -0.3447  0.1782 -0.5157
  624MOL0     C86034   9.016   4.948  11.132  1.1555 -0.6386 -0.2981
  624MOL0     C86035   8.898   4.971  11.236 -0.0467  0.1145 -0.3345
  624MOL0     C86036   8.944   5.032  11.362 -0.0641 -0.1171 -1.4801
  624MOL0     C86037   8.842   5.015  11.475  0.3840  0.0730 -0.3304
  624MOL0     C86038   8.853   4.880  11.515  0.1403  0.4582  0.5129
  624MOL0     C86039   8.859   4.770  11.567  0.7350  0.8315  0.2375
  624MOL0     C86040   9.202   5.137  10.915  0.0800 -0.5411  0.8807
  624MOL0     C86041   9.329   5.142  10.850  0.0899  0.2331  0.3246
  624MOL0     C86042   9.322   5.193  10.707 -0.0260  0.2861  0.5570
  624MOL0     H86043   9.808   4.857  10.900  2.3031 -1.5014  0.0305
  624MOL0     H86044  10.021   4.845  10.834  0.0923  0.4181  1.2048
  624MOL0     H86045  10.283   5.184  10.701 -1.1199 -0.9538  0.2246
  624MOL0     H86046  10.391   5.062  10.744 -0.2373  0.6743  0.7462
  624MOL0     H86047  10.285   5.268  10.932  2.0015  2.1021 -2.4879
  624MOL0     H86048  10.307   5.119  11.008  2.3537  1.5180  1.2194
  624MOL0     H86049  10.545   5.125  10.923 -1.5421 -0.7294 -1.2392
  624MOL0     H86050  10.515   5.300  10.875 -1.5543 -0.7356 -1.9190
  624MOL0     H86051  10.467   5.349  11.114 -0.6417  0.1752 -1.5080
  624MOL0     H86052  10.521   5.184  11.158 -0.6038 -0.9981 -1.3287
  624MOL0     H86053  10.681   5.374  10.999  5.8989 -2.8410 -2.0242
  624MOL0     H86054  10.742   5.220  11.056 -0.5246  0.3627 -1.8323
  624MOL0     H86055  10.653   5.457  11.234 -0.7558 -0.3827 -1.4033
  624MOL0     H86056  10.716   5.307  11.295  2.9894  1.1695  0.9766
  624MOL0     H86057  10.902   5.445  11.300  1.2333  1.8130 -0.4244
  624MOL0     H86058  10.857   5.544  11.175 -0.5364  1.5294  7.9595
  624MOL0     H86059  10.985   5.262  11.157  0.5240  0.1617 -0.4515
  624MOL0     H86060  10.915   5.328  11.019 -3.0378 -0.7836  2.0841
  624MOL0     H86061  11.013   5.598  10.939 -1.6950 -2.1870  1.3854
  624MOL0     H86062  11.260   5.799  10.988  0.3468  0.5018 -0.8705
  624MOL0     H86063  11.292   5.719  10.837  1.0087 -1.6227 -0.4481
  624MOL0     H86064  11.464   5.665  11.080  1.6358 -0.4026 -1.0342
  624MOL0     H86065  11.505   5.639  10.914 -0.4056 -0.3151  0.9267
  624MOL0     H86066  11.516   5.885  10.886  0.4439 -1.0916 -1.0403
  624MOL0     H86067  11.496   5.905  11.061  0.8791  0.8971  0.1600
  624MOL0     H86068  11.696   5.769  11.098 -1.9372 -1.5837  0.3333
  624MOL0     H86069  11.718   5.758  10.923  0.8008 -1.0825  0.8981
  624MOL0     H86070  11.854   6.148  10.888 -3.4419 -2.6074 -1.1765
  624MOL0     H86071  12.142   6.215  10.768  1.5757 -4.1929  1.1280
  624MOL0     H86072  12.197   6.258  10.934 -1.2227  3.8610  0.9953
  624MOL0     H86073  12.031   6.287  10.884 -2.0895 -3.0270 -0.0588
  624MOL0     H86074  12.496   6.224  11.003  0.3329  0.4325 -0.2179
  624MOL0     H86075  12.746   6.276  10.979 -0.5379 -0.7917  1.1422
  624MOL0     H86076  13.009   6.228  10.967  0.8238  0.1327 -0.3019
  624MOL0     H86077  12.951   6.061  10.994 -1.8134  2.4804  1.4287
  624MOL0     H86078  13.167   6.131  10.780  2.4268 -1.2497  0.4895
  624MOL0     H86079  13.197   6.084  10.937 -0.4874  0.6572  0.2826
  624MOL0     H86080  13.015   5.912  10.751 -1.2814 -2.0228  2.6641
  624MOL0     H86081  13.082   5.869  10.906  0.2533  0.0427  0.5671
  624MOL0     H86082  13.216   5.746  10.772  2.7867 -0.1323  0.5963
  624MOL0     H86083  13.302   5.879  10.845  0.3675  0.2203 -0.1777
  624MOL0     H86084  13.220   5.837  10.558 -1.0314 -0.2125  1.4846
  624MOL0     H86085  13.268   6.000  10.609 -0.6257  0.3045 -1.5854
  624MOL0     H86086  13.440   5.739  10.589  0.2229  0.3759 -1.3662
  624MOL0     H86087  13.489   5.876  10.686  3.6583  0.8760 -2.7725
  624MOL0     H86088  13.427   6.013  10.459 -1.6811 -1.7712  0.3087
  624MOL0     H86089  13.473   5.861  10.381 -2.2199  2.4332 -1.8843
  624MOL0     H86090  13.701   5.857  10.473  0.4605 -0.4850  1.7560
  624MOL0     H86091  13.663   5.960  10.610 -0.5766  0.4292  0.3716
  624MOL0     H86092  12.787   5.984  10.691 -0.2482 -0.7246 -0.1508
  624MOL0     H86093  12.541   5.918  10.703 -0.0971 -1.1335  1.7849
  624MOL0     H86094  12.159   5.786  11.048 -1.6897 -0.9335  1.4304
  624MOL0     H86095  11.938   5.765  11.071  0.4449 -0.6273 -0.0978
  624MOL0     H86096  10.069   5.268  10.809 -2.1899  1.5486  0.2570
  624MOL0     H86097   9.830   5.300  10.851  1.1303  0.7760 -2.8210
  624MOL0     H86098   9.507   5.016  11.120 -0.9098 -1.3449 -0.5852
  624MOL0     H86099   9.280   5.001  11.213 -2.0613  2.8363  1.4047
  624MOL0     H86100   8.981   4.884  11.051 -1.1766 -1.7807  1.4628
  624MOL0     H86101   9.095   4.895  11.187 -0.3245 -2.6627 -0.0158
  624MOL0     H86102   8.850   4.874  11.251  1.4004 -0.2604  2.7116
  624MOL0     H86103   8.826   5.041  11.193 -2.0084 -3.0861 -2.7047
  624MOL0     H86104   9.035   4.978  11.387 -1.8982 -3.1123 -0.6898
  624MOL0     H86105   8.966   5.137  11.340 -1.0802 -0.1857 -3.0557
  624MOL0     H86106   8.743   5.035  11.434 -0.9480 -2.0932  1.6038
  624MOL0     H86107   8.868   5.078  11.560 -2.4837 -0.7134  1.2683
  624MOL0     H86108   8.857   4.678  11.621 -0.6831 -0.0365 -1.2136
  624MOL0     H86109   9.111   5.160  10.860  1.2632  0.3185 -0.8262
  624MOL0     H86110   9.386   5.282  10.701 -3.5366  2.9307 -0.7240
  624MOL0     H86111   9.363   5.115  10.641  0.0814  1.2043 -0.5027
  624MOL0     H86112   9.218   5.219  10.685 -0.9089 -1.6855  2.1113
  625MOL0     O86113   8.169   9.782   5.451  0.5150  0.4522  0.3710
  625MOL0     C86114   8.175   9.704   5.359  0.3291 -0.2974 -0.7810
  625MOL0     O86115   8.278   9.692   5.270 -0.4924 -0.3792  0.1529
  625MOL0     C86116   8.380   9.775   5.301  0.8372 -0.0329 -0.2365
  625MOL0     C86117   8.488   9.736   5.380 -0.2254 -0.4565  0.0501
  625MOL0     C86118   8.597   9.809   5.396 -0.6793 -1.0794  0.6505
  625MOL0     C86119   8.604   9.943   5.352  0.7261 -0.5208 -1.0708
  625MOL0     O86120   8.721  10.008   5.367  0.0196  0.5975 -0.1268
  625MOL0     C86121   8.723  10.147   5.351 -0.3422 -0.4402  0.0559
  625MOL0     C86122   8.856  10.203   5.412  0.0921 -0.2264 -1.0089
  625MOL0     C86123   8.859  10.197   5.569  0.2947  0.1042  0.1131
  625MOL0     C86124   8.791  10.307   5.638 -0.4666  0.5702  0.1687
  625MOL0     C86125   8.834  10.323   5.782  0.6567 -0.7936  0.3280
  625MOL0     C86126   8.743  10.429   5.851 -0.9577  0.0834  0.6266
  625MOL0     C86127   8.768  10.428   6.005 -0.2965  0.8824  0.5596
  625MOL0     C86128   8.911  10.449   6.059  1.0163 -0.9196  0.1109
  625MOL0     N86129   8.996  10.322   6.061  0.9948  0.3004  0.5404
  625MOL0     C86130   8.967  10.205   6.138 -0.4670  0.3258  0.2418
  625MOL0     C86131   9.065  10.112   6.113  0.4849  0.6044 -0.3627
  625MOL0     C86132   9.058   9.967   6.169 -0.6434 -0.5504  0.6495
  625MOL0     C86133   9.091   9.984   6.317  0.4036  0.8686 -0.6518
  625MOL0     C86134   9.100   9.846   6.393  0.3554  0.2954 -0.7190
  625MOL0     C86135   9.146   9.853   6.532 -0.6537 -0.6961  0.2195
  625MOL0     O86136   9.281   9.907   6.535  0.4103 -0.0928 -0.2861
  625MOL0     C86137   9.344   9.911   6.660 -0.4665  0.1396 -0.2757
  625MOL0     C86138   9.278   9.884   6.778 -0.3189  0.3317 -0.0190
  625MOL0     C86139   9.350   9.877   6.906  0.4546 -0.1096 -0.3596
  625MOL0     C86140   9.266   9.851   7.028 -0.1076 -0.5736  0.5108
  625MOL0     C86141   9.491   9.868   6.901  1.0772  0.2602 -0.3285
  625MOL0     C86142   9.578   9.834   7.018 -0.1752 -0.6731 -0.1763
  625MOL0     O86143   9.531   9.876   7.140 -0.9848  0.7492  0.0188
  625MOL0     C86144   9.617   9.905   7.236 -0.8373 -0.0229 -1.0558
  625MOL0     C86145   9.738   9.839   7.268 -0.4187 -0.2212 -0.2813
  625MOL0     C86146   9.832   9.904   7.350  0.2018  0.0029  0.5592
  625MOL0     C86147   9.797  10.016   7.430 -0.1440  0.9329  0.2010
  625MOL0     O86148   9.894  10.060   7.514  0.0537 -0.6004  0.1378
  625MOL0     C86149   9.848  10.066   7.657 -0.5832  0.1266 -0.7441
  625MOL0     C86150   9.974  10.067   7.748 -0.6570  0.2961 -0.1166
  625MOL0     C86151   9.947  10.130   7.888  0.3863  0.6752 -0.8038
  625MOL0     C86152  10.035  10.062   7.996  0.7259 -0.0398 -0.1694
  625MOL0     C86153  10.063  10.168   8.098 -0.1168  0.2826 -0.0356
  625MOL0     C86154  10.155  10.126   8.216 -0.9730  0.8768 -0.3418
  625MOL0     C86155  10.092  10.021   8.309  0.5591  0.0345 -0.3802
  625MOL0     C86156  10.170  10.009   8.444 -0.6519 -0.3968  0.1226
  625MOL0    Cl86157  10.178  10.158   8.541  0.0497  0.2309 -0.0789
  625MOL0     C86158   9.669  10.073   7.419 -0.4543 -0.7189 -0.5026
  625MOL0     C86159   9.587  10.010   7.326 -1.1045  0.0498 -0.9299
  625MOL0     O86160   9.692   9.789   6.995  0.1905  0.4828  0.7742
  625MOL0     C86161   9.554   9.898   6.774  0.1914  0.2975 -0.4002
  625MOL0     C86162   9.485   9.933   6.660  0.2276 -0.1155  0.3170
  625MOL0     N86163   9.143  10.160   6.009  0.1003 -0.6541  0.7390
  625MOL0     N86164   9.111  10.281   5.992 -0.3353 -0.0652  0.5040
  625MOL0     C86165   8.486   9.997   5.284 -0.5860  0.0865 -0.2562
  625MOL0     C86166   8.381   9.903   5.249  1.1025 -0.9149  0.2429
  625MOL0     C86167   8.048   9.619   5.347  0.6949 -0.1180  0.1488
  625MOL0     C86168   7.946   9.617   5.445  0.3393  0.0316 -0.8802
  625MOL0     C86169   7.831   9.543   5.430 -0.4230 -0.2223  0.3970
  625MOL0     C86170   7.817   9.469   5.308 -0.3455 -0.7008 -0.5461
  625MOL0     O86171   7.716   9.379   5.275  0.2598  0.6593  0.0724
  625MOL0     C86172   7.618   9.348   5.374 -1.0413  0.4621 -0.1191
  625MOL0     C86173   7.519   9.232   5.328  0.5223  0.4889 -0.1029
  625MOL0     C86174   7.580   9.097   5.285  0.6341  0.4169 -0.2206
  625MOL0     C86175   7.614   9.002   5.396 -0.9290 -1.1087  0.2965
  625MOL0     C86176   7.631   8.868   5.343  0.1291 -0.2667  0.8927
  625MOL0     C86177   7.667   8.759   5.288 -0.5253 -0.2014 -0.1437
  625MOL0     C86178   7.915   9.471   5.211  0.9659 -0.8868  0.0769
  625MOL0     C86179   8.025   9.545   5.228 -0.8304  0.5988  0.1891
  625MOL0     C86180   8.118   9.547   5.100 -0.0282  0.0044 -0.2524
  625MOL0     H86181   8.477   9.631   5.407 -1.3886 -1.9135 -4.9782
  625MOL0     H86182   8.682   9.764   5.446  4.0266  4.1074 -1.6003
  625MOL0     H86183   8.645  10.186   5.418 -0.7416 -0.7457 -0.2227
  625MOL0     H86184   8.703  10.184   5.250  3.6412 -0.0630 -0.7281
  625MOL0     H86185   8.942  10.149   5.372 -0.4616 -3.0988  1.3338
  625MOL0     H86186   8.878  10.305   5.379  0.6975  0.3106  0.9199
  625MOL0     H86187   8.829  10.103   5.615  0.6924  0.9166  2.1421
  625MOL0     H86188   8.967  10.213   5.578  0.1638  3.5776 -2.5048
  625MOL0     H86189   8.805  10.390   5.569  1.5570 -0.6218 -0.9366
  625MOL0     H86190   8.685  10.278   5.642 -0.6329  1.3415  2.3330
  625MOL0     H86191   8.941  10.345   5.782  1.4830 -4.2568  0.2260
  625MOL0     H86192   8.833  10.233   5.844 -0.7300 -0.7764  0.3606
  625MOL0     H86193   8.769  10.523   5.801  0.5976  0.5154  2.1569
  625MOL0     H86194   8.637  10.405   5.832 -0.4866 -0.0716 -2.3052
  625MOL0     H86195   8.727  10.332   6.040 -1.3740  0.5851 -1.3556
  625MOL0     H86196   8.688  10.490   6.046 -0.5134  1.5499 -0.8074
  625MOL0     H86197   8.957  10.530   6.001 -0.7435  3.1113  3.7210
  625MOL0     H86198   8.900  10.492   6.159 -2.5349  0.8811 -0.8592
  625MOL0     H86199   8.884  10.191   6.206 -0.7573  2.2932  0.3633
  625MOL0     H86200   9.134   9.910   6.116 -0.7681 -1.6795  1.6482
  625MOL0     H86201   8.958   9.925   6.155 -0.7611  0.6754 -3.4719
  625MOL0     H86202   9.186  10.036   6.334  1.4113 -1.6068  2.5992
  625MOL0     H86203   9.021  10.045   6.374  1.1744  1.4481 -0.3117
  625MOL0     H86204   9.001   9.808   6.416  0.7669 -0.2488  0.2023
  625MOL0     H86205   9.152   9.770   6.333 -1.3921 -0.6592 -1.0816
  625MOL0     H86206   9.080   9.925   6.580  0.3702  1.8346 -1.9487
  625MOL0     H86207   9.142   9.756   6.584  2.1348 -1.3891 -0.6772
  625MOL0     H86208   9.170   9.879   6.781 -0.4625  2.4577 -0.1028
  625MOL0     H86209   9.161   9.850   6.996 -0.0976  1.2102  0.3312
  625MOL0     H86210   9.278   9.930   7.102 -0.0179  0.7382 -0.8490
  625MOL0     H86211   9.276   9.752   7.072 -1.0746  0.2444  2.6772
  625MOL0     H86212   9.764   9.747   7.217 -1.7474  0.7687 -2.9616
  625MOL0     H86213   9.931   9.864   7.374  0.0471  0.5887  2.3724
  625MOL0     H86214   9.787  10.157   7.660 -0.8460 -0.0426 -0.9367
  625MOL0     H86215   9.786   9.981   7.687  1.8058 -1.4153  0.0964
  625MOL0     H86216  10.018   9.967   7.761 -0.8635  0.4380  2.0397
  625MOL0     H86217  10.049  10.132   7.704  2.3350  0.4258  4.4727
  625MOL0     H86218   9.840  10.115   7.902  0.1890 -0.0276 -2.7949
  625MOL0     H86219   9.964  10.238   7.892 -0.4645  0.7959 -0.0403
  625MOL0     H86220  10.124  10.024   7.945 -1.3021 -2.9752 -1.8114
  625MOL0     H86221   9.982   9.973   8.031 -0.6726  0.8347  0.0251
  625MOL0     H86222  10.110  10.256   8.054  1.5721 -1.4457 -1.8531
  625MOL0     H86223   9.965  10.199   8.136 -0.4129 -3.0212  2.2995
  625MOL0     H86224  10.186  10.218   8.266  0.6934  1.2037 -1.8562
  625MOL0     H86225  10.252  10.091   8.179 -1.2289 -2.0017  1.4545
  625MOL0     H86226  10.085   9.925   8.258  0.2048  0.4130 -1.0606
  625MOL0     H86227   9.985  10.034   8.326  0.6534  1.0298 -0.4935
  625MOL0     H86228  10.273   9.978   8.423 -0.7331  0.0926 -1.1278
  625MOL0     H86229  10.117   9.923   8.487  1.7432 -3.6278 -2.7999
  625MOL0     H86230   9.646  10.160   7.480 -0.1249 -0.4760 -0.7204
  625MOL0     H86231   9.487  10.050   7.312 -0.9656  0.5763 -0.4308
  625MOL0     H86232   9.662   9.895   6.770  0.2231 -1.6276  0.5935
  625MOL0     H86233   9.537   9.965   6.570  2.9252 -2.5870  0.8400
  625MOL0     H86234   8.499  10.098   5.247  1.8082  0.3019  0.9531
  625MOL0     H86235   8.286   9.917   5.198  0.8933 -2.0296  0.2995
  625MOL0     H86236   7.966   9.660   5.543  0.6407 -1.3195 -0.3170
  625MOL0     H86237   7.757   9.547   5.509 -0.2893 -2.2727  0.6864
  625MOL0     H86238   7.680   9.325   5.461  1.9983  3.7899 -1.1656
  625MOL0     H86239   7.563   9.440   5.395  0.5461  1.0844  1.5994
  625MOL0     H86240   7.461   9.270   5.244  0.3003 -2.2538 -1.3085
  625MOL0     H86241   7.444   9.218   5.406 -0.0276 -0.7767 -0.8333
  625MOL0     H86242   7.507   9.054   5.216 -0.1039  1.5356 -0.1638
  625MOL0     H86243   7.671   9.126   5.232  0.1773  0.6202 -0.8997
  625MOL0     H86244   7.537   8.995   5.473 -0.6961  3.0138  1.1172
  625MOL0     H86245   7.708   9.033   5.442 -2.4211  0.6591  2.3518
  625MOL0     H86246   7.692   8.666   5.240  3.3603  0.8111 -0.3609
  625MOL0     H86247   7.893   9.400   5.131 -0.2409 -0.3679 -0.0774
  625MOL0     H86248   8.215   9.503   5.122  0.6570  0.2370 -2.5605
  625MOL0     H86249   8.070   9.490   5.020 -3.1691  1.9144  0.0834
  625MOL0     H86250   8.124   9.651   5.067 -2.5459 -0.2033 -1.6346
  626MOL0     O86251   5.109   6.678  11.316  0.4039 -0.6929  0.2148
  626MOL0     C86252   5.154   6.641  11.205 -0.8870  0.1717 -1.1972
  626MOL0     O86253   5.135   6.706  11.096 -0.6358 -0.4909 -0.2682
  626MOL0     C86254   5.083   6.832  11.099 -0.0407  0.3058  0.5488
  626MOL0     C86255   5.117   6.929  11.194  0.0386  0.3712  0.2740
  626MOL0     C86256   5.076   7.067  11.178  0.5892  0.6210  0.5911
  626MOL0     C86257   5.005   7.106  11.063  0.7102  0.1809  0.4274
  626MOL0     O86258   4.949   7.227  11.049 -0.7906 -0.1912  0.4333
  626MOL0     C86259   4.817   7.250  10.988 -0.0942  0.5033 -0.0347
  626MOL0     C86260   4.840   7.261  10.842 -0.1294  0.1017  0.1086
  626MOL0     C86261   4.715   7.231  10.750 -0.7200 -0.6376  0.3628
  626MOL0     C86262   4.605   7.337  10.768 -0.2404 -0.1130  0.2641
  626MOL0     C86263   4.505   7.361  10.655 -0.0281  0.4275  0.7331
  626MOL0     C86264   4.560   7.447  10.538 -0.1357  0.6398  0.2680
  626MOL0     C86265   4.451   7.460  10.422  1.3583 -0.3152  0.1131
  626MOL0     C86266   4.508   7.517  10.295 -0.5674  0.1861 -0.0128
  626MOL0     N86267   4.595   7.629  10.310 -0.1474  0.3250 -0.0800
  626MOL0     C86268   4.571   7.760  10.337  0.1591  0.0541  0.0351
  626MOL0     C86269   4.690   7.817  10.368  0.7596 -0.4551 -0.4246
  626MOL0     C86270   4.718   7.953  10.433  0.6784  0.6017  0.9077
  626MOL0     C86271   4.596   7.994  10.523  0.1756 -0.6832  0.3601
  626MOL0     C86272   4.639   8.098  10.634 -0.5529 -0.4775  0.1779
  626MOL0     C86273   4.701   8.224  10.581  0.2020 -0.4637  0.1722
  626MOL0     O86274   4.827   8.205  10.507  0.1099 -0.0175  0.3436
  626MOL0     C86275   4.865   8.307  10.418 -0.1770 -0.2386  0.3930
  626MOL0     C86276   4.955   8.263  10.322  0.0488  0.0537  0.4394
  626MOL0     C86277   4.996   8.346  10.211 -0.4821 -0.8981 -0.3103
  626MOL0     C86278   5.099   8.294  10.118  0.1852  0.5581  0.5966
  626MOL0     C86279   4.943   8.474  10.212  0.6577 -0.3342  0.5667
  626MOL0     C86280   4.973   8.582  10.109 -1.2123  0.0027 -0.8625
  626MOL0     O86281   4.946   8.703  10.147  0.1642 -0.1003 -0.6676
  626MOL0     C86282   5.005   8.804  10.071  0.8453 -0.1793  0.0904
  626MOL0     C86283   4.920   8.896  10.012 -0.9342  0.6797 -0.0508
  626MOL0     C86284   4.971   8.985   9.915 -0.5381  0.3835 -0.6732
  626MOL0     C86285   5.100   9.000   9.888 -0.6148  0.5266 -0.5371
  626MOL0     O86286   5.138   9.103   9.804  0.1400  0.1793  0.0554
  626MOL0     C86287   5.277   9.103   9.765  0.2560 -0.4348 -0.6301
  626MOL0     C86288   5.294   9.141   9.620  0.3544 -0.3524 -0.3438
  626MOL0     C86289   5.443   9.164   9.580 -0.3179  0.1764 -0.2154
  626MOL0     C86290   5.450   9.229   9.443 -0.1599 -0.5464 -1.1989
  626MOL0     C86291   5.580   9.263   9.386 -0.6108  0.6728  0.1206
  626MOL0     C86292   5.651   9.138   9.333  0.2387  0.3214 -0.8358
  626MOL0     C86293   5.777   9.167   9.259 -0.8637 -0.4020 -0.8149
  626MOL0     C86294   5.776   9.111   9.120 -0.3895 -0.2910 -0.7049
  626MOL0    Cl86295   5.739   8.937   9.123 -0.4738  0.1044  0.3583
  626MOL0     C86296   5.192   8.904   9.954 -0.6386 -0.8838  0.1637
  626MOL0     C86297   5.144   8.816  10.049  0.7699  0.5025 -0.4527
  626MOL0     O86298   5.005   8.542   9.995 -0.3144 -0.1649 -0.0368
  626MOL0     C86299   4.848   8.516  10.310 -0.0128  1.0361  0.9395
  626MOL0     C86300   4.808   8.430  10.416 -0.7551  1.1250  0.4515
  626MOL0     N86301   4.783   7.718  10.353 -0.1601  0.1846  0.7025
  626MOL0     N86302   4.728   7.613  10.319 -1.1143  0.5656  0.2716
  626MOL0     C86303   4.956   7.010  10.981  0.2796 -0.1557 -0.1052
  626MOL0     C86304   4.999   6.880  10.991  0.5513 -0.6213 -0.1067
  626MOL0     C86305   5.248   6.533  11.198 -1.0882  1.3415 -0.0605
  626MOL0     C86306   5.317   6.519  11.080 -0.4259  0.5371 -0.4091
  626MOL0     C86307   5.412   6.420  11.061  0.2769 -0.5308  0.8678
  626MOL0     C86308   5.448   6.331  11.156  0.5843  0.4870 -0.0690
  626MOL0     O86309   5.548   6.244  11.143 -0.3586 -0.4263 -0.2022
  626MOL0     C86310   5.573   6.146  11.243  0.4380  0.3064  0.1280
  626MOL0     C86311   5.701   6.064  11.209  0.5906 -0.2042 -1.0359
  626MOL0     C86312   5.719   6.016  11.056 -0.3526 -0.0723 -1.6268
  626MOL0     C86313   5.611   5.908  11.018 -0.3028 -0.9679 -0.4531
  626MOL0     C86314   5.645   5.865  10.878 -0.7171 -0.3085  0.1408
  626MOL0     C86315   5.680   5.823  10.774 -0.0020  0.7229  0.3090
  626MOL0     C86316   5.376   6.342  11.279 -0.1727 -0.2761  0.6621
  626MOL0     C86317   5.279   6.442  11.297 -0.6257  0.4978 -0.2203
  626MOL0     C86318   5.204   6.440  11.429 -0.1636 -0.7129 -0.1101
  626MOL0     H86319   5.173   6.906  11.285  0.9641  0.7564 -0.1813
  626MOL0     H86320   5.106   7.141  11.252  0.5191  1.1604  0.0873
  626MOL0     H86321   4.767   7.341  11.021  0.6522  1.2427 -0.9201
  626MOL0     H86322   4.747   7.170  11.017 -0.6270  0.7062 -0.7474
  626MOL0     H86323   4.885   7.358  10.822 -0.1722 -0.1452 -1.3054
  626MOL0     H86324   4.922   7.193  10.814 -3.5617 -4.3599 -0.2893
  626MOL0     H86325   4.746   7.241  10.646  1.8943  3.3240  1.2978
  626MOL0     H86326   4.674   7.131  10.765 -0.5574 -0.6562  0.7100
  626MOL0     H86327   4.561   7.309  10.864  0.2262  0.1422  0.5573
  626MOL0     H86328   4.646   7.437  10.788 -0.8851 -0.0229  1.2020
  626MOL0     H86329   4.418   7.415  10.695 -0.7105 -0.6394  0.7418
  626MOL0     H86330   4.463   7.270  10.611 -0.9357  1.2757 -0.2246
  626MOL0     H86331   4.571   7.550  10.573 -1.8781  0.6481  0.9370
  626MOL0     H86332   4.652   7.405  10.497 -0.6469 -0.8976  0.6014
  626MOL0     H86333   4.363   7.513  10.459  2.0128  1.4590 -0.7521
  626MOL0     H86334   4.413   7.360  10.401 -2.2415  0.7610  0.7811
  626MOL0     H86335   4.556   7.431  10.247 -1.7571 -0.5779  0.1304
  626MOL0     H86336   4.424   7.552  10.234 -0.3481  1.5085  0.4084
  626MOL0     H86337   4.469   7.796  10.350  0.2166  0.1656  0.1910
  626MOL0     H86338   4.740   8.025  10.355 -1.9694 -1.5063 -2.0374
  626MOL0     H86339   4.804   7.936  10.498  0.0529 -2.7329  1.0829
  626MOL0     H86340   4.522   8.046  10.462  1.6157  3.1722  1.6273
  626MOL0     H86341   4.548   7.915  10.582  0.4185  1.3206  3.4817
  626MOL0     H86342   4.550   8.134  10.686 -1.0944 -0.5279 -0.6819
  626MOL0     H86343   4.707   8.055  10.708  1.9896  0.5991 -1.3710
  626MOL0     H86344   4.622   8.278  10.529 -0.1442  1.1028  2.1863
  626MOL0     H86345   4.717   8.287  10.670  2.4038 -2.4006  1.2501
  626MOL0     H86346   4.995   8.162  10.329  0.4911  0.1855 -0.0867
  626MOL0     H86347   5.048   8.225  10.049 -1.3582 -0.4665  2.6531
  626MOL0     H86348   5.168   8.228  10.171 -1.5975 -1.6484  0.3219
  626MOL0     H86349   5.159   8.371  10.069  1.2359  0.1308  1.1653
  626MOL0     H86350   4.813   8.900  10.023 -1.0332 -2.9324  1.8627
  626MOL0     H86351   4.903   9.052   9.865 -1.4676  0.3423  0.4914
  626MOL0     H86352   5.327   9.177   9.828 -1.2619  0.6146 -0.6101
  626MOL0     H86353   5.320   9.003   9.770 -2.0668 -1.5274 -1.2235
  626MOL0     H86354   5.253   9.063   9.554  0.0553 -3.2280  2.9603
  626MOL0     H86355   5.235   9.230   9.599  0.5672  0.4670  2.2272
  626MOL0     H86356   5.492   9.066   9.583 -1.8828 -0.7400 -2.1284
  626MOL0     H86357   5.493   9.226   9.655 -1.0832 -2.0404  2.2768
  626MOL0     H86358   5.390   9.321   9.447 -1.1067 -1.1917  0.8146
  626MOL0     H86359   5.405   9.161   9.370  2.5267 -0.5769 -2.9758
  626MOL0     H86360   5.576   9.333   9.302  1.0673 -1.2070 -1.6498
  626MOL0     H86361   5.642   9.319   9.456 -0.9846 -0.0799  1.0654
  626MOL0     H86362   5.588   9.086   9.260  2.6580  0.1452 -2.9609
  626MOL0     H86363   5.686   9.064   9.407 -0.2048  0.6292 -0.3153
  626MOL0     H86364   5.859   9.131   9.321 -1.6189 -0.9662 -0.1247
  626MOL0     H86365   5.801   9.274   9.257  0.0200 -0.5504  0.5785
  626MOL0     H86366   5.864   9.146   9.066  0.3387  0.9400  1.1727
  626MOL0     H86367   5.695   9.171   9.076  0.7801  0.6992 -1.5756
  626MOL0     H86368   5.299   8.921   9.946 -0.8005 -0.0386 -0.3602
  626MOL0     H86369   5.216   8.754  10.101 -1.0634 -0.1496  1.4863
  626MOL0     H86370   4.795   8.610  10.308 -3.5548 -0.7923 -0.0332
  626MOL0     H86371   4.748   8.476  10.493 -2.1626 -1.4743  1.0257
  626MOL0     H86372   4.881   7.025  10.904  0.3763 -3.7563 -1.0671
  626MOL0     H86373   4.943   6.815  10.924 -1.5671  0.4316  0.5655
  626MOL0     H86374   5.301   6.587  10.996 -2.2037  0.4213 -0.2105
  626MOL0     H86375   5.450   6.422  10.959 -1.4440  3.0507  0.1411
  626MOL0     H86376   5.577   6.198  11.339 -3.6585  0.9114  0.1356
  626MOL0     H86377   5.499   6.065  11.245  2.1827 -1.7437 -4.4730
  626MOL0     H86378   5.702   5.971  11.267 -2.3541  1.0755  1.4373
  626MOL0     H86379   5.785   6.127  11.241  2.7956 -2.8256 -1.3229
  626MOL0     H86380   5.720   6.102  10.989  0.7570  3.6506  2.6524
  626MOL0     H86381   5.825   5.989  11.054  0.6406  2.6228  2.5111
  626MOL0     H86382   5.512   5.955  11.022  0.2650  1.9268 -6.8620
  626MOL0     H86383   5.605   5.818  11.079 -0.6520 -0.1951  0.6739
  626MOL0     H86384   5.718   5.764  10.692 -1.3795 -0.2078  0.3071
  626MOL0     H86385   5.385   6.267  11.358 -1.7198 -0.2507  0.8850
  626MOL0     H86386   5.220   6.349  11.488 -3.0246 -1.1317  0.1659
  626MOL0     H86387   5.217   6.530  11.490 -0.0135  0.7367 -2.2003
  626MOL0     H86388   5.097   6.429  11.409 -1.2142  0.2483  4.0531
  627MOL0     O86389   7.396   1.307   2.810  0.2967 -0.2900  0.8844
  627MOL0     C86390   7.354   1.224   2.723 -0.0544 -0.5197 -0.0839
  627MOL0     O86391   7.384   1.091   2.716 -0.0549  0.3259 -0.4663
  627MOL0     C86392   7.471   1.035   2.801  0.1259  0.0682  0.1738
  627MOL0     C86393   7.597   1.090   2.847  0.1704 -0.0189 -0.3334
  627MOL0     C86394   7.670   1.010   2.938  0.4943  0.3518 -0.1971
  627MOL0     C86395   7.636   0.874   2.975 -0.3564  0.3620  0.7060
  627MOL0     O86396   7.714   0.790   3.051  0.2968  0.3689  0.2043
  627MOL0     C86397   7.852   0.790   3.015  0.2541  0.0872 -0.5996
  627MOL0     C86398   7.934   0.856   3.123 -0.0375  0.0012 -0.0540
  627MOL0     C86399   8.083   0.832   3.110  0.0237 -0.1876 -0.2083
  627MOL0     C86400   8.152   0.919   3.215 -1.2411  0.2205 -0.2385
  627MOL0     C86401   8.311   0.905   3.191 -0.2981 -0.3441 -0.2160
  627MOL0     C86402   8.377   0.770   3.220  0.0889 -0.2373 -1.0028
  627MOL0     C86403   8.526   0.779   3.167 -0.3224  0.4438 -0.2439
  627MOL0     C86404   8.601   0.648   3.126 -0.1665 -0.2122 -0.4162
  627MOL0     N86405   8.744   0.639   3.106 -0.6200 -0.5254  0.0040
  627MOL0     C86406   8.827   0.732   3.059 -0.9525  0.2161  1.0425
  627MOL0     C86407   8.956   0.680   3.064  0.0384 -0.0723 -0.4630
  627MOL0     C86408   9.081   0.739   3.000  0.1426 -0.2595  1.0443
  627MOL0     C86409   9.200   0.743   3.100  0.3062  0.3307  0.7864
  627MOL0     C86410   9.166   0.818   3.232  0.1899 -0.7765 -0.0021
  627MOL0     C86411   9.295   0.839   3.327 -0.1542  2.0269 -0.1794
  627MOL0     O86412   9.273   0.743   3.437  0.2145 -0.8339 -1.0869
  627MOL0     C86413   9.377   0.726   3.534  0.4850  0.0840  0.0527
  627MOL0     C86414   9.340   0.652   3.645 -0.2820 -0.5469 -0.5584
  627MOL0     C86415   9.432   0.634   3.749  0.0274  0.6379  0.6501
  627MOL0     C86416   9.383   0.572   3.872 -0.4836 -0.6386 -1.1171
  627MOL0     C86417   9.573   0.677   3.739  0.0274 -0.2800  0.0528
  627MOL0     C86418   9.685   0.639   3.837  0.3603  0.8673 -0.1427
  627MOL0     O86419   9.681   0.517   3.897 -0.0870 -0.3357  0.2211
  627MOL0     C86420   9.773   0.489   4.000  0.3647 -0.3994  0.4133
  627MOL0     C86421   9.829   0.361   3.999  0.3975  0.0599  0.5877
  627MOL0     C86422   9.911   0.317   4.104 -0.2413 -0.0589  0.8967
  627MOL0     C86423   9.958   0.411   4.188 -0.4127 -0.2312 -0.0566
  627MOL0     O86424  10.060   0.380   4.280 -1.4044  0.4938  1.1334
  627MOL0     C86425  10.182   0.332   4.209  0.8107  0.7377  0.7632
  627MOL0     C86426  10.316   0.342   4.281  0.1240  0.0043  0.9036
  627MOL0     C86427  10.438   0.288   4.201  0.2227 -0.1162 -0.3677
  627MOL0     C86428  10.578   0.309   4.268  0.5072  0.0729  1.1272
  627MOL0     C86429  10.681   0.264   4.167 -0.3223  0.0622  0.4054
  627MOL0     C86430  10.823   0.317   4.200  0.0873  0.0220  1.1324
  627MOL0     C86431  10.877   0.255   4.326 -0.3504 -0.1142  0.2451
  627MOL0     C86432  11.030   0.227   4.326  1.0309 -0.4589  0.9447
  627MOL0    Cl86433  11.063   0.176   4.505 -0.1957  0.2084  0.1693
  627MOL0     C86434   9.898   0.538   4.196 -1.0926 -0.0376  0.2141
  627MOL0     C86435   9.807   0.575   4.099  0.3401 -0.1032  0.0887
  627MOL0     O86436   9.776   0.716   3.846 -0.1913 -0.2173  0.1558
  627MOL0     C86437   9.607   0.755   3.629  0.9745  0.5711 -0.0090
  627MOL0     C86438   9.508   0.781   3.529  0.3760  0.2363 -0.1342
  627MOL0     N86439   8.941   0.553   3.122 -0.2698  0.3425 -0.5080
  627MOL0     N86440   8.817   0.531   3.146  0.0512 -0.5179  0.8214
  627MOL0     C86441   7.526   0.822   2.918 -0.1037  0.4207  0.3903
  627MOL0     C86442   7.447   0.901   2.833  0.7243 -0.8034  0.2330
  627MOL0     C86443   7.286   1.275   2.611 -0.2228  0.8547 -0.1672
  627MOL0     C86444   7.158   1.226   2.574 -0.6578 -0.2333 -0.7110
  627MOL0     C86445   7.092   1.276   2.468  0.8785  0.8279  0.0591
  627MOL0     C86446   7.139   1.390   2.406  0.1353 -0.4451  0.0534
  627MOL0     O86447   7.051   1.425   2.309 -0.8213  0.2331 -0.1785
  627MOL0     C86448   7.089   1.517   2.206  0.4804  0.5169 -0.5068
  627MOL0     C86449   6.971   1.540   2.109  0.0789  0.8492  0.4495
  627MOL0     C86450   6.984   1.648   1.999 -0.3692  0.3210 -0.3235
  627MOL0     C86451   7.050   1.778   2.034  0.3460 -0.8171  0.7332
  627MOL0     C86452   7.098   1.842   1.908 -0.2664  0.0617 -0.4725
  627MOL0     C86453   7.112   1.915   1.816 -0.7772 -0.9517 -0.0270
  627MOL0     C86454   7.266   1.442   2.440 -0.5099  0.4483  0.1677
  627MOL0     C86455   7.345   1.374   2.532  0.1137 -0.7082 -0.0170
  627MOL0     C86456   7.489   1.427   2.553  0.4035 -0.4413  0.2914
  627MOL0     H86457   7.636   1.190   2.830  1.1401 -0.5432 -1.2659
  627MOL0     H86458   7.759   1.052   2.984  0.9176 -0.1188 -0.5667
  627MOL0     H86459   7.864   0.842   2.920 -0.6611  1.9926  0.2690
  627MOL0     H86460   7.892   0.689   3.006 -1.3800 -0.5829 -0.7131
  627MOL0     H86461   7.909   0.962   3.121 -2.9406 -0.5104  2.1468
  627MOL0     H86462   7.898   0.834   3.224  1.2714  0.5827  0.5669
  627MOL0     H86463   8.108   0.732   3.145  0.4940  0.9590  3.1163
  627MOL0     H86464   8.126   0.849   3.010 -0.9410 -0.1691 -0.6265
  627MOL0     H86465   8.131   1.026   3.200  2.2897  0.8562 -1.8947
  627MOL0     H86466   8.143   0.870   3.313  0.8291 -0.3136 -0.2710
  627MOL0     H86467   8.357   0.979   3.257 -0.6163  0.4088 -0.8152
  627MOL0     H86468   8.327   0.934   3.087 -1.1437  5.4919  0.9461
  627MOL0     H86469   8.368   0.733   3.322  1.5846 -1.3480 -1.2394
  627MOL0     H86470   8.321   0.693   3.167 -3.7760  0.3582  1.7825
  627MOL0     H86471   8.590   0.832   3.238  1.0289 -3.0167  1.3588
  627MOL0     H86472   8.518   0.844   3.080  0.3054 -0.6540 -1.1540
  627MOL0     H86473   8.572   0.579   3.205  0.7822 -0.3284 -0.1534
  627MOL0     H86474   8.554   0.613   3.033 -0.6024  1.4169 -0.8358
  627MOL0     H86475   8.795   0.820   3.005  3.1198 -0.8302 -3.8612
  627MOL0     H86476   9.066   0.840   2.961 -2.3340 -1.0090 -0.1767
  627MOL0     H86477   9.107   0.674   2.916 -0.5685  2.2645 -1.2946
  627MOL0     H86478   9.215   0.636   3.118 -1.2312  0.0831  0.7622
  627MOL0     H86479   9.289   0.774   3.045  1.6053 -2.6780  1.0067
  627MOL0     H86480   9.131   0.920   3.211  0.1516 -0.7021  0.4138
  627MOL0     H86481   9.087   0.773   3.293  0.7914 -3.8653 -1.3506
  627MOL0     H86482   9.385   0.811   3.272 -1.4195  0.1850 -1.4037
  627MOL0     H86483   9.314   0.941   3.363  2.1815  1.2546  1.0305
  627MOL0     H86484   9.236   0.620   3.650  0.9032 -4.9481  0.0004
  627MOL0     H86485   9.409   0.636   3.956  0.5266 -1.5758 -0.6890
  627MOL0     H86486   9.427   0.474   3.893 -0.5408 -0.5146 -0.3957
  627MOL0     H86487   9.276   0.554   3.872 -0.1266 -3.2267 -1.8563
  627MOL0     H86488   9.804   0.299   3.914  1.0245  0.7225 -0.1010
  627MOL0     H86489   9.950   0.216   4.100 -4.0557 -1.7738  2.3253
  627MOL0     H86490  10.164   0.225   4.195  2.2623  0.8107 -2.8986
  627MOL0     H86491  10.181   0.368   4.105 -2.2817 -0.1761  0.3627
  627MOL0     H86492  10.325   0.447   4.310  0.5986 -0.3998  2.2982
  627MOL0     H86493  10.299   0.268   4.360  0.8126 -1.8355 -0.5993
  627MOL0     H86494  10.447   0.345   4.107  2.7762  2.7840  1.4228
  627MOL0     H86495  10.438   0.180   4.189 -2.9783 -0.0833 -1.5994
  627MOL0     H86496  10.591   0.248   4.358  2.7461  0.3196  1.0454
  627MOL0     H86497  10.579   0.416   4.290  3.3678  0.6081 -0.9765
  627MOL0     H86498  10.696   0.156   4.162 -0.0547  0.1666 -2.3980
  627MOL0     H86499  10.661   0.303   4.067 -0.7046  1.7257  1.1054
  627MOL0     H86500  10.820   0.425   4.212  0.9743  0.5616 -2.4800
  627MOL0     H86501  10.889   0.293   4.117 -2.6944  4.2892 -2.8407
  627MOL0     H86502  10.823   0.165   4.356  0.5148 -0.1139  2.0073
  627MOL0     H86503  10.863   0.334   4.401 -0.1285  1.4768 -1.3105
  627MOL0     H86504  11.081   0.319   4.296 -0.6980 -0.0083 -0.8087
  627MOL0     H86505  11.055   0.150   4.251 -2.1443 -1.3750  0.7027
  627MOL0     H86506   9.934   0.617   4.260 -3.5286  0.9226  0.4938
  627MOL0     H86507   9.764   0.675   4.096  1.7301  0.5041 -3.1937
  627MOL0     H86508   9.711   0.776   3.609  1.2535  1.4035  2.1579
  627MOL0     H86509   9.531   0.830   3.435  4.9159 -1.5135 -0.2234
  627MOL0     H86510   7.505   0.720   2.951 -1.2872  0.9264  1.3202
  627MOL0     H86511   7.353   0.867   2.792 -1.9262  2.3596  3.1052
  627MOL0     H86512   7.126   1.140   2.632 -0.3936 -0.5260 -0.9953
  627MOL0     H86513   6.993   1.246   2.437 -0.4595  4.9063 -0.1086
  627MOL0     H86514   7.102   1.613   2.257  2.0728 -0.0152  0.1359
  627MOL0     H86515   7.182   1.483   2.161  1.2825 -0.2134  1.5836
  627MOL0     H86516   6.883   1.572   2.165 -2.2689 -2.4674 -1.0539
  627MOL0     H86517   6.940   1.443   2.069  0.0792  0.7245  0.7485
  627MOL0     H86518   7.039   1.606   1.914 -0.5131 -0.4729 -0.0315
  627MOL0     H86519   6.887   1.678   1.958 -1.0560 -1.0482  0.2455
  627MOL0     H86520   7.134   1.754   2.101  0.7548 -2.3955 -0.3042
  627MOL0     H86521   6.972   1.834   2.087  1.3728 -0.8651  2.3836
  627MOL0     H86522   7.112   1.975   1.727 -1.7726  1.4793  1.4975
  627MOL0     H86523   7.308   1.526   2.385 -1.9640  1.4726  0.5554
  627MOL0     H86524   7.476   1.510   2.624 -0.5764 -1.5754  1.5017
  627MOL0     H86525   7.556   1.347   2.585 -1.2397 -1.3589  1.6222
  627MOL0     H86526   7.528   1.472   2.462 -1.5166 -0.6440 -0.6793
  628MOL0     O86527  10.329   4.584   1.370 -0.4627 -0.3436 -0.4696
  628MOL0     C86528  10.264   4.590   1.475  1.3983  1.0197 -0.4431
  628MOL0     O86529  10.265   4.682   1.568  0.3435 -0.3495  0.3163
  628MOL0     C86530  10.356   4.783   1.547 -0.5007 -0.2150 -0.0983
  628MOL0     C86531  10.318   4.899   1.482  0.0260  0.8082 -0.0477
  628MOL0     C86532  10.404   5.004   1.470  0.3656  0.6674 -0.4102
  628MOL0     C86533  10.522   5.002   1.536 -1.1523 -0.1490  0.0085
  628MOL0     O86534  10.594   5.120   1.528  0.4550 -0.1188 -0.0549
  628MOL0     C86535  10.733   5.117   1.534  0.6720 -0.4361 -0.2937
  628MOL0     C86536  10.788   5.266   1.528 -0.0105  0.2304 -0.7540
  628MOL0     C86537  10.912   5.285   1.611  0.0143  0.1282 -1.1936
  628MOL0     C86538  10.970   5.423   1.575  0.7197  0.4000  0.5752
  628MOL0     C86539  11.097   5.479   1.645  0.2337  0.5700  0.1115
  628MOL0     C86540  11.219   5.382   1.641  0.2202  0.0470 -0.2262
  628MOL0     C86541  11.256   5.341   1.497  0.5908  0.6990 -0.2463
  628MOL0     C86542  11.377   5.250   1.500  1.1654 -0.1592  0.6964
  628MOL0     N86543  11.344   5.118   1.553  0.2519 -0.6746 -0.8327
  628MOL0     C86544  11.420   5.053   1.657  0.3526 -0.3750 -0.5077
  628MOL0     C86545  11.385   4.921   1.659 -0.2003  0.7156  0.8947
  628MOL0     C86546  11.444   4.826   1.762 -0.9007  0.6400  0.5407
  628MOL0     C86547  11.377   4.841   1.890 -0.5956 -0.4739  0.5651
  628MOL0     C86548  11.387   4.736   1.990 -0.3957  0.6710  0.5020
  628MOL0     C86549  11.530   4.688   2.035  0.5718  0.5373  0.3719
  628MOL0     O86550  11.609   4.793   2.079  0.0919 -0.0087 -0.1528
  628MOL0     C86551  11.726   4.831   2.020 -0.3043  0.5430 -0.3224
  628MOL0     C86552  11.732   4.952   1.948  0.0812 -0.2764 -0.6960
  628MOL0     C86553  11.838   4.985   1.866 -0.1110  0.1321  0.6467
  628MOL0     C86554  11.835   5.114   1.805 -0.1898 -0.0035  0.1120
  628MOL0     C86555  11.957   4.903   1.873 -0.2521 -0.2542 -0.6500
  628MOL0     C86556  12.088   4.931   1.811  0.7222 -0.2163 -0.4168
  628MOL0     O86557  12.187   4.841   1.837 -1.3401  0.9408  0.2518
  628MOL0     C86558  12.321   4.885   1.829 -0.1776 -0.6527  0.1652
  628MOL0     C86559  12.370   4.974   1.930  0.4489  0.8415 -0.3085
  628MOL0     C86560  12.506   5.004   1.920 -0.2144 -0.0257  0.1133
  628MOL0     C86561  12.593   4.955   1.820  0.7196  0.0824 -0.4172
  628MOL0     O86562  12.724   4.986   1.837 -0.1504 -0.7518  0.3920
  628MOL0     C86563  12.826   4.908   1.783 -0.1426 -0.1985  0.3829
  628MOL0     C86564  12.928   5.017   1.748 -0.2725 -0.3215 -0.3618
  628MOL0     C86565  13.050   4.958   1.699  0.7402 -0.0528  0.2788
  628MOL0     C86566  13.175   5.032   1.730 -0.8105  0.3041  0.6433
  628MOL0     C86567  13.227   5.002   1.877 -0.7775 -0.5220 -0.7194
  628MOL0     C86568  13.384   4.971   1.873 -0.4167  0.2755 -0.5985
  628MOL0     C86569  13.438   4.975   2.015  0.1580  0.6818  0.3547
  628MOL0     C86570  13.404   4.854   2.096 -0.1154 -0.7416 -0.5756
  628MOL0    Cl86571  13.476   4.714   2.016  0.3402 -0.2503 -0.1841
  628MOL0     C86572  12.538   4.873   1.718 -0.0233 -0.4854 -0.0662
  628MOL0     C86573  12.399   4.836   1.724  0.0962 -0.0484 -0.1573
  628MOL0     O86574  12.101   5.035   1.752  0.0927 -0.0458 -0.9005
  628MOL0     C86575  11.948   4.789   1.953  0.2176  0.7466 -0.0936
  628MOL0     C86576  11.834   4.744   2.026  0.5830  0.0901 -0.1326
  628MOL0     N86577  11.276   4.911   1.575 -0.6281  0.2261  0.3451
  628MOL0     N86578  11.254   5.023   1.512 -0.2882 -0.7966  0.5419
  628MOL0     C86579  10.564   4.894   1.609 -0.5690 -0.3972 -0.1516
  628MOL0     C86580  10.482   4.783   1.620  1.3396  0.7382 -0.4011
  628MOL0     C86581  10.176   4.475   1.489  0.2513 -0.3679  0.5652
  628MOL0     C86582  10.137   4.440   1.624  0.0723 -0.1407  0.2009
  628MOL0     C86583  10.052   4.328   1.647 -0.4458  0.7269 -0.6736
  628MOL0     C86584  10.006   4.259   1.540  0.3214  1.1583 -0.7584
  628MOL0     O86585   9.930   4.146   1.557 -0.8486  0.1709 -0.1145
  628MOL0     C86586  10.003   4.037   1.612  0.4126  0.0974  0.5551
  628MOL0     C86587  10.095   3.983   1.517  0.5935 -0.6297 -0.7610
  628MOL0     C86588  10.143   3.845   1.570 -0.2875  0.1182  0.2196
  628MOL0     C86589  10.247   3.788   1.465  0.2911  0.2293 -0.4292
  628MOL0     C86590  10.367   3.870   1.464 -0.7121 -0.5204 -0.5838
  628MOL0     C86591  10.474   3.927   1.464 -0.8078 -0.8298 -0.6240
  628MOL0     C86592  10.037   4.298   1.413 -0.0445 -0.2009 -0.5538
  628MOL0     C86593  10.114   4.406   1.382  0.1221  0.0636 -0.5976
  628MOL0     C86594  10.124   4.445   1.237  0.5329  0.7290 -0.8393
  628MOL0     H86595  10.222   4.890   1.434  0.5518 -0.1607 -0.9535
  628MOL0     H86596  10.384   5.089   1.407  0.9110 -0.3227 -1.9620
  628MOL0     H86597  10.772   5.053   1.454  0.0130 -2.2543  0.7971
  628MOL0     H86598  10.755   5.070   1.629  0.0972  2.1645  1.2334
  628MOL0     H86599  10.807   5.295   1.424  0.2529 -0.7029 -0.9728
  628MOL0     H86600  10.712   5.334   1.568  0.4207  0.6106 -0.5713
  628MOL0     H86601  10.879   5.279   1.715 -0.7003 -0.7951 -1.4603
  628MOL0     H86602  10.986   5.205   1.598 -0.4807 -0.5907  0.2794
  628MOL0     H86603  10.998   5.412   1.469 -2.1115  0.3535 -0.2396
  628MOL0     H86604  10.898   5.503   1.591 -0.4503 -0.6422  0.6432
  628MOL0     H86605  11.074   5.514   1.747 -4.3763 -2.7792  0.5672
  628MOL0     H86606  11.125   5.568   1.588 -2.2158  1.5557  0.3314
  628MOL0     H86607  11.309   5.429   1.683  0.7051 -2.3981  1.7441
  628MOL0     H86608  11.193   5.292   1.698  0.8438 -1.2752 -1.9705
  628MOL0     H86609  11.275   5.425   1.429  1.7526 -0.8748 -1.9745
  628MOL0     H86610  11.176   5.276   1.460  1.5171 -0.8015  0.3134
  628MOL0     H86611  11.420   5.237   1.400  0.9194 -1.9462  0.8065
  628MOL0     H86612  11.452   5.300   1.562  1.3215  2.4614 -1.4106
  628MOL0     H86613  11.502   5.097   1.713 -0.0167 -0.2565 -0.0537
  628MOL0     H86614  11.552   4.845   1.770 -0.9027  0.8206  0.1872
  628MOL0     H86615  11.443   4.722   1.729 -1.1766  0.8382 -0.1001
  628MOL0     H86616  11.398   4.930   1.950 -0.2719 -0.0476 -0.1723
  628MOL0     H86617  11.273   4.858   1.860  0.2712  1.4667 -1.6029
  628MOL0     H86618  11.329   4.751   2.082 -2.0457  0.9665 -0.5386
  628MOL0     H86619  11.334   4.653   1.941 -0.4346  1.6636 -1.1957
  628MOL0     H86620  11.522   4.602   2.102 -0.6234 -0.4511 -0.9682
  628MOL0     H86621  11.576   4.639   1.948 -0.8130  1.5688 -1.0019
  628MOL0     H86622  11.646   5.018   1.949  1.2865  1.3832 -1.8474
  628MOL0     H86623  11.855   5.188   1.883  0.7794 -1.6198  1.4540
  628MOL0     H86624  11.733   5.133   1.771  1.4546  2.7371 -3.9741
  628MOL0     H86625  11.899   5.135   1.719 -1.0178 -0.1882 -0.5653
  628MOL0     H86626  12.306   5.021   2.005  0.6502  0.3830  0.1588
  628MOL0     H86627  12.560   5.059   1.996 -1.1439 -1.5508  1.9534
  628MOL0     H86628  12.853   4.831   1.855  0.2962  0.5067  0.9951
  628MOL0     H86629  12.801   4.844   1.698 -0.8016 -2.0822  1.9168
  628MOL0     H86630  12.880   5.081   1.672 -0.6753  1.1332  1.0517
  628MOL0     H86631  12.960   5.081   1.831  1.5116 -0.8029 -0.6481
  628MOL0     H86632  13.046   4.962   1.590  3.1159 -1.3978  0.0598
  628MOL0     H86633  13.046   4.854   1.734 -0.0855 -0.2187 -0.2715
  628MOL0     H86634  13.168   5.141   1.717  0.4994  0.2891 -0.3992
  628MOL0     H86635  13.253   4.987   1.668 -0.5277 -0.0799  1.2627
  628MOL0     H86636  13.218   5.091   1.940  2.1882 -1.0019  0.5508
  628MOL0     H86637  13.173   4.919   1.924 -1.6196  0.8613  0.8876
  628MOL0     H86638  13.438   5.033   1.801  0.5401 -1.3433 -1.3220
  628MOL0     H86639  13.397   4.873   1.829 -1.7991  1.0189 -2.8335
  628MOL0     H86640  13.403   5.067   2.064  0.5496  0.0902  1.8012
  628MOL0     H86641  13.547   4.975   2.006  0.2931 -2.8070  0.6897
  628MOL0     H86642  13.296   4.838   2.102  0.3314 -5.4897 -0.9114
  628MOL0     H86643  13.445   4.870   2.196  1.4018  3.2039 -1.6438
  628MOL0     H86644  12.591   4.822   1.638  4.3582 -0.6781  2.6484
  628MOL0     H86645  12.348   4.777   1.649  0.2964 -1.3791  0.7199
  628MOL0     H86646  12.026   4.715   1.940 -0.1897  0.3941 -0.5935
  628MOL0     H86647  11.853   4.652   2.081 -1.0679 -0.4335 -0.3895
  628MOL0     H86648  10.659   4.902   1.660  0.6100 -1.2031 -2.1176
  628MOL0     H86649  10.510   4.691   1.669 -2.6005  0.6299  2.0367
  628MOL0     H86650  10.168   4.499   1.709  2.4080  1.2966 -1.5047
  628MOL0     H86651  10.041   4.315   1.755  0.1143  0.3642 -0.6566
  628MOL0     H86652  10.058   4.074   1.699 -1.4446  1.3599  1.2526
  628MOL0     H86653   9.926   3.969   1.650  1.2922 -1.5693 -0.5526
  628MOL0     H86654  10.184   4.045   1.503  1.3800 -2.1586 -3.1033
  628MOL0     H86655  10.052   3.969   1.417  1.3954 -2.0455 -0.9345
  628MOL0     H86656  10.197   3.854   1.665 -3.5640  0.2316  2.1897
  628MOL0     H86657  10.056   3.779   1.567 -1.9045  2.1315  0.9193
  628MOL0     H86658  10.213   3.776   1.362 -0.9431 -1.2769  0.0988
  628MOL0     H86659  10.264   3.685   1.500 -2.1390 -0.0878  0.0093
  628MOL0     H86660  10.565   3.980   1.448 -1.1649 -0.7320 -2.5798
  628MOL0     H86661   9.987   4.240   1.336 -0.4775  2.5801 -2.5341
  628MOL0     H86662  10.057   4.385   1.175  0.7835  2.0584 -2.4651
  628MOL0     H86663  10.089   4.549   1.230  1.3634  0.9238 -2.6405
  628MOL0     H86664  10.230   4.432   1.215  0.1866 -1.5992 -1.3777
  629MOL0     O86665  10.179   3.654   3.289 -0.0907 -0.2188  0.0595
  629MOL0     C86666  10.211   3.655   3.409 -0.4387 -0.2116  0.5310
  629MOL0     O86667  10.230   3.545   3.489  0.2552  0.7598  0.0678
  629MOL0     C86668  10.217   3.416   3.433  0.0191  0.9577  0.1202
  629MOL0     C86669  10.092   3.354   3.413 -0.0973 -1.4409  1.4895
  629MOL0     C86670  10.078   3.240   3.335  0.0460 -0.1026  1.1508
  629MOL0     C86671  10.184   3.170   3.290  0.5645  0.5483 -0.4708
  629MOL0     O86672  10.181   3.050   3.217 -0.3305 -0.3062  0.3410
  629MOL0     C86673  10.113   3.067   3.090  0.0856 -0.1048 -0.3118
  629MOL0     C86674  10.102   2.934   3.016  0.2058 -0.0764 -0.4061
  629MOL0     C86675  10.232   2.864   2.976 -0.3124 -0.1575 -0.3163
  629MOL0     C86676  10.310   2.956   2.878  0.3009  0.3472  0.0742
  629MOL0     C86677  10.460   2.942   2.893  0.0949  0.8130 -0.6628
  629MOL0     C86678  10.530   3.014   3.003  0.3099 -0.0356  0.5056
  629MOL0     C86679  10.521   3.166   2.985 -0.2753 -0.3891  0.4712
  629MOL0     C86680  10.654   3.237   3.024 -0.1824  0.7185  0.1791
  629MOL0     N86681  10.707   3.211   3.159  0.6576 -0.5713  0.7032
  629MOL0     C86682  10.835   3.249   3.200 -0.6422  0.1684  0.7111
  629MOL0     C86683  10.850   3.170   3.308 -0.2169  0.4493  0.2265
  629MOL0     C86684  10.978   3.160   3.383  0.0400 -0.0712 -0.4173
  629MOL0     C86685  11.046   3.296   3.400 -0.7795 -0.0105  1.0011
  629MOL0     C86686  11.161   3.305   3.299  1.1760 -0.6335 -0.1539
  629MOL0     C86687  11.237   3.428   3.322  0.2785  0.1776 -0.8203
  629MOL0     O86688  11.364   3.387   3.376 -1.1839 -0.0317  0.3932
  629MOL0     C86689  11.432   3.489   3.435 -0.4312 -0.1054 -0.1908
  629MOL0     C86690  11.541   3.461   3.515  0.2707  0.0263  0.3466
  629MOL0     C86691  11.622   3.551   3.580 -0.3494  1.0814  0.9240
  629MOL0     C86692  11.752   3.492   3.628 -0.1120 -0.7355 -0.3186
  629MOL0     C86693  11.584   3.690   3.571 -0.0816 -0.1562 -0.7989
  629MOL0     C86694  11.669   3.797   3.633  1.0924 -0.6879  0.0144
  629MOL0     O86695  11.620   3.926   3.616  0.4172  0.4856  0.7285
  629MOL0     C86696  11.692   4.035   3.646 -0.3405  0.0893 -0.8684
  629MOL0     C86697  11.838   4.046   3.674 -0.5114  0.7088  0.1054
  629MOL0     C86698  11.890   4.159   3.713 -0.4969 -0.0612  0.7475
  629MOL0     C86699  11.809   4.281   3.731 -0.0371 -0.0017  0.7990
  629MOL0     O86700  11.859   4.399   3.768  0.4314 -0.4578 -0.8614
  629MOL0     C86701  12.004   4.421   3.773  0.5825  0.1246 -0.0802
  629MOL0     C86702  12.028   4.559   3.827 -0.5829 -0.4501  0.5402
  629MOL0     C86703  12.176   4.613   3.827 -0.0769  0.3385 -0.0389
  629MOL0     C86704  12.246   4.584   3.962  0.0450 -0.0392  0.1792
  629MOL0     C86705  12.402   4.585   3.957 -0.0243 -0.3287 -0.6418
  629MOL0     C86706  12.465   4.714   3.918  0.1978 -1.5247 -0.2458
  629MOL0     C86707  12.425   4.843   4.003  0.4255  0.7137  0.1442
  629MOL0     C86708  12.457   4.819   4.156  0.4467  0.0471 -0.9866
  629MOL0    Cl86709  12.603   4.737   4.199 -0.0726 -0.0943 -0.3799
  629MOL0     C86710  11.671   4.275   3.702 -0.3087  0.2859  0.0962
  629MOL0     C86711  11.625   4.153   3.658  0.4167 -0.6119  0.4737
  629MOL0     O86712  11.766   3.764   3.693 -0.5353  0.4387 -0.2855
  629MOL0     C86713  11.472   3.728   3.489 -0.8451  1.4923  0.8961
  629MOL0     C86714  11.401   3.630   3.426  0.2049  0.6402 -0.2765
  629MOL0     N86715  10.731   3.110   3.339  0.1256 -0.1528  0.1541
  629MOL0     N86716  10.643   3.146   3.255 -0.0397  0.0757 -0.1503
  629MOL0     C86717  10.311   3.221   3.326  0.0768 -0.2751 -0.8452
  629MOL0     C86718  10.325   3.337   3.407 -0.9202 -0.1926  0.1270
  629MOL0     C86719  10.241   3.787   3.465  0.2393 -0.7588 -0.4955
  629MOL0     C86720  10.241   3.789   3.603 -0.7643 -0.6621  0.6000
  629MOL0     C86721  10.265   3.908   3.673 -0.7565 -0.0764  0.4125
  629MOL0     C86722  10.296   4.034   3.610  0.0295  0.1872  0.2500
  629MOL0     O86723  10.336   4.151   3.676  0.4211 -1.2835 -0.1926
  629MOL0     C86724  10.386   4.150   3.808  0.1901 -0.2243  0.2074
  629MOL0     C86725  10.503   4.243   3.837  0.1547 -0.4869 -0.1529
  629MOL0     C86726  10.573   4.198   3.967  0.0659 -0.1400  0.4567
  629MOL0     C86727  10.492   4.217   4.094 -0.0973 -0.7408  0.1110
  629MOL0     C86728  10.409   4.100   4.114 -0.1607 -0.0469 -0.2814
  629MOL0     C86729  10.334   4.010   4.145  0.2271  1.0771  0.6047
  629MOL0     C86730  10.280   4.030   3.469 -0.3056  0.0656  0.7891
  629MOL0     C86731  10.249   3.910   3.392 -0.2285 -0.4929 -0.1703
  629MOL0     C86732  10.249   3.929   3.243  0.2591 -0.4768  0.2624
  629MOL0     H86733  10.003   3.399   3.455 -0.3244 -0.8606  0.4088
  629MOL0     H86734   9.983   3.197   3.303  0.6922 -1.6987  1.2886
  629MOL0     H86735  10.163   3.138   3.023 -3.4116  0.6461 -2.3895
  629MOL0     H86736  10.016   3.115   3.110 -0.9460 -1.9192 -0.6893
  629MOL0     H86737  10.029   2.865   3.058  0.2577 -1.3126 -2.2467
  629MOL0     H86738  10.056   2.970   2.924  2.0150 -0.8990 -1.6905
  629MOL0     H86739  10.290   2.857   3.069 -0.8193  0.3927  0.0509
  629MOL0     H86740  10.225   2.762   2.940  2.1685 -1.0411  1.4405
  629MOL0     H86741  10.278   2.906   2.786 -1.1148 -0.6831  1.0861
  629MOL0     H86742  10.279   3.061   2.875 -0.8930  0.0033 -2.2765
  629MOL0     H86743  10.511   2.974   2.802 -1.0399 -0.2425 -1.7185
  629MOL0     H86744  10.491   2.837   2.903  2.7325  1.7170  2.1155
  629MOL0     H86745  10.492   2.982   3.100 -1.1654 -0.2489 -0.1096
  629MOL0     H86746  10.634   2.980   3.006 -0.8362 -4.0932  0.6017
  629MOL0     H86747  10.436   3.209   3.039 -1.2085 -2.8715  1.1184
  629MOL0     H86748  10.488   3.190   2.883 -0.6477  0.5348  0.7953
  629MOL0     H86749  10.730   3.207   2.951 -1.1688  1.5442 -1.2445
  629MOL0     H86750  10.642   3.345   3.009  0.5406  0.5012 -2.5586
  629MOL0     H86751  10.902   3.328   3.167 -3.0181  2.0849  0.1716
  629MOL0     H86752  11.050   3.100   3.325 -0.1014 -1.3554  0.6812
  629MOL0     H86753  10.960   3.109   3.478 -0.8441  0.8359 -0.0938
  629MOL0     H86754  10.980   3.383   3.402  1.4765  1.8041  3.1903
  629MOL0     H86755  11.094   3.287   3.498  1.3948  0.1732  0.0062
  629MOL0     H86756  11.228   3.219   3.292  0.9865 -0.6987 -1.4158
  629MOL0     H86757  11.128   3.314   3.195  1.1228  1.6094  0.0026
  629MOL0     H86758  11.251   3.484   3.230  0.0637 -2.1051 -2.3267
  629MOL0     H86759  11.179   3.485   3.395  3.1810  0.0835  1.7774
  629MOL0     H86760  11.572   3.358   3.528 -1.6328 -0.5375  0.8001
  629MOL0     H86761  11.767   3.528   3.730  0.8217  0.0952 -0.7320
  629MOL0     H86762  11.840   3.521   3.570 -2.0489  0.7976 -2.7281
  629MOL0     H86763  11.748   3.384   3.642 -1.2130 -0.7739 -0.7829
  629MOL0     H86764  11.904   3.962   3.655 -1.8817 -0.7660  1.4877
  629MOL0     H86765  11.998   4.163   3.715 -0.4616 -0.5112  0.0267
  629MOL0     H86766  12.055   4.342   3.828 -1.1439 -1.8828 -1.2194
  629MOL0     H86767  12.035   4.409   3.669 -1.1829  0.0267 -0.6266
  629MOL0     H86768  11.974   4.628   3.762  0.7875  0.8010  0.6892
  629MOL0     H86769  11.980   4.571   3.924 -1.2351 -1.9707  0.4418
  629MOL0     H86770  12.171   4.721   3.809 -0.8675  0.2049 -0.6773
  629MOL0     H86771  12.226   4.573   3.738 -0.2244 -0.5551  0.2698
  629MOL0     H86772  12.218   4.482   3.986  2.0894 -1.1500 -1.7395
  629MOL0     H86773  12.219   4.657   4.038  2.7098 -2.7459  4.0833
  629MOL0     H86774  12.441   4.550   4.053 -1.3095  0.8393  0.3425
  629MOL0     H86775  12.426   4.504   3.887 -3.2176 -1.7254 -0.2684
  629MOL0     H86776  12.427   4.743   3.819  1.8545  2.5809  0.1122
  629MOL0     H86777  12.574   4.711   3.905  0.1626 -0.4330 -0.9772
  629MOL0     H86778  12.324   4.879   3.984  0.8725  1.6298 -0.5914
  629MOL0     H86779  12.486   4.924   3.962  1.1189  0.1023 -0.0572
  629MOL0     H86780  12.370   4.766   4.196  1.7056  1.0691  3.8069
  629MOL0     H86781  12.446   4.918   4.201  0.6447 -0.5140  0.3313
  629MOL0     H86782  11.605   4.360   3.715 -0.1741  0.3509  0.3698
  629MOL0     H86783  11.518   4.162   3.646  0.1613  1.1777  3.0940
  629MOL0     H86784  11.461   3.834   3.468  1.5697  1.9907  1.7705
  629MOL0     H86785  11.322   3.665   3.361  1.3388 -0.6199 -2.4422
  629MOL0     H86786  10.393   3.159   3.291 -1.1038 -1.9071 -0.8282
  629MOL0     H86787  10.421   3.373   3.442 -1.4326  0.9311  0.4285
  629MOL0     H86788  10.235   3.709   3.676 -3.5155  0.8557  2.1727
  629MOL0     H86789  10.262   3.905   3.781  1.3528 -1.1731  0.4866
  629MOL0     H86790  10.306   4.168   3.881 -1.4618  0.1916 -1.6097
  629MOL0     H86791  10.424   4.049   3.827  1.1981 -0.5866 -3.0584
  629MOL0     H86792  10.459   4.342   3.850  3.0813  0.7580  1.2417
  629MOL0     H86793  10.569   4.244   3.750  0.1340 -1.6152 -0.1972
  629MOL0     H86794  10.622   4.101   3.965 -0.2494 -0.3415  1.5391
  629MOL0     H86795  10.658   4.267   3.974 -1.4228  1.8138  0.3452
  629MOL0     H86796  10.435   4.310   4.082  1.5054  0.0916 -1.5941
  629MOL0     H86797  10.550   4.231   4.185 -0.3679 -1.8257  0.4580
  629MOL0     H86798  10.256   3.945   4.182  0.4836  0.1561 -0.4018
  629MOL0     H86799  10.306   4.120   3.414 -4.5449  1.2587  0.3570
  629MOL0     H86800  10.196   3.861   3.177  0.2208 -0.8759  0.6968
  629MOL0     H86801  10.208   4.027   3.217  2.4159  0.3337 -0.2954
  629MOL0     H86802  10.356   3.926   3.218  1.0067  1.1581  2.8376
  630MOL0     O86803   8.403   6.033   7.240 -0.3897 -0.0153  0.3335
  630MOL0     C86804   8.371   5.932   7.178  0.2501  0.5814  0.1556
  630MOL0     O86805   8.429   5.809   7.175 -0.7076  0.5844 -0.5703
  630MOL0     C86806   8.504   5.779   7.286  0.1357 -0.3311  1.1910
  630MOL0     C86807   8.621   5.848   7.328  0.2867 -0.1226  0.5645
  630MOL0     C86808   8.694   5.795   7.435 -0.3406 -0.7354 -0.1298
  630MOL0     C86809   8.638   5.685   7.517  0.2072  0.2048 -0.2638
  630MOL0     O86810   8.685   5.650   7.640 -0.4913 -0.2495 -0.9029
  630MOL0     C86811   8.803   5.715   7.694 -0.2122 -0.3498 -0.1657
  630MOL0     C86812   8.934   5.651   7.640 -0.3025  0.1338  0.0800
  630MOL0     C86813   8.936   5.505   7.703 -0.0436  0.4082  0.1903
  630MOL0     C86814   9.077   5.454   7.716  0.0626 -0.0052  0.6988
  630MOL0     C86815   9.077   5.309   7.765  0.1465 -0.1256  1.1467
  630MOL0     C86816   8.958   5.221   7.733 -0.5365  1.0073  0.5714
  630MOL0     C86817   8.973   5.070   7.766 -0.2558  0.3930 -0.6881
  630MOL0     C86818   9.088   4.990   7.703 -0.2397 -0.2173 -0.7387
  630MOL0     N86819   9.075   4.845   7.718 -0.1750  0.3037 -0.0489
  630MOL0     C86820   9.140   4.751   7.644 -0.3272 -0.1751 -0.8337
  630MOL0     C86821   9.132   4.631   7.708  0.4862 -1.1301  0.6363
  630MOL0     C86822   9.166   4.493   7.640  0.2064  0.5831 -0.1583
  630MOL0     C86823   9.296   4.498   7.560  0.3408  0.9805 -0.3431
  630MOL0     C86824   9.299   4.367   7.488 -0.3598 -0.8864  0.6882
  630MOL0     C86825   9.415   4.360   7.389 -0.4730  1.0169 -0.8560
  630MOL0     O86826   9.540   4.359   7.463  0.5337 -0.0156 -0.6779
  630MOL0     C86827   9.651   4.411   7.396  0.1246  0.3196  0.6101
  630MOL0     C86828   9.661   4.423   7.259 -0.8057  0.0794 -0.0834
  630MOL0     C86829   9.780   4.462   7.192  0.1774  0.1569  0.2962
  630MOL0     C86830   9.805   4.445   7.045 -0.1469  0.1133 -0.1854
  630MOL0     C86831   9.887   4.500   7.279  0.5266 -0.7724  0.9611
  630MOL0     C86832  10.018   4.550   7.225  0.0611  0.1918 -0.0589
  630MOL0     O86833  10.124   4.464   7.220 -0.5559 -0.2715  0.7719
  630MOL0     C86834  10.237   4.514   7.151 -0.1246  0.5595  0.2150
  630MOL0     C86835  10.245   4.524   7.015 -0.3425 -0.4019  0.8046
  630MOL0     C86836  10.353   4.593   6.958 -0.2609 -0.4906 -0.4786
  630MOL0     C86837  10.459   4.645   7.035  1.2820  0.1051  0.5942
  630MOL0     O86838  10.556   4.727   6.984 -0.8503  0.5428 -0.5493
  630MOL0     C86839  10.586   4.729   6.840  0.4521 -1.6228 -0.2919
  630MOL0     C86840  10.673   4.605   6.819  0.0773  0.6258  0.4527
  630MOL0     C86841  10.767   4.625   6.695  0.4746 -0.1286 -0.0039
  630MOL0     C86842  10.751   4.528   6.590 -0.2097  0.4125  0.2318
  630MOL0     C86843  10.825   4.563   6.465  0.4868 -0.2766  0.5263
  630MOL0     C86844  10.813   4.443   6.374  0.0077 -0.4359 -0.5147
  630MOL0     C86845  10.910   4.453   6.261  1.2196 -0.2928  0.0766
  630MOL0     C86846  10.891   4.320   6.186 -0.0100 -0.1613  0.1215
  630MOL0    Cl86847  11.000   4.337   6.049 -0.4555 -0.4835  0.3526
  630MOL0     C86848  10.451   4.627   7.173  0.0510  0.0195  0.1553
  630MOL0     C86849  10.341   4.559   7.231  0.0566 -0.0468  0.2187
  630MOL0     O86850  10.021   4.668   7.190  0.2303 -0.1257  0.0130
  630MOL0     C86851   9.876   4.505   7.415  0.6096  0.5214  0.1116
  630MOL0     C86852   9.759   4.456   7.471  0.4726  0.4946  0.6837
  630MOL0     N86853   9.068   4.658   7.831 -0.6561 -0.8711 -1.0389
  630MOL0     N86854   9.033   4.785   7.832 -0.2867  0.8458 -0.3687
  630MOL0     C86855   8.531   5.617   7.472  0.6448  0.4591 -0.9237
  630MOL0     C86856   8.462   5.662   7.356 -0.2032  0.2331 -0.3104
  630MOL0     C86857   8.288   5.962   7.061 -0.2735 -0.2434 -0.2768
  630MOL0     C86858   8.290   5.881   6.949 -0.7449  0.3117 -0.1822
  630MOL0     C86859   8.223   5.908   6.833 -0.4878  0.1264  0.4020
  630MOL0     C86860   8.135   6.025   6.823  0.2478 -0.4375  0.3023
  630MOL0     O86861   8.039   6.051   6.721 -0.4627 -0.4281 -0.3305
  630MOL0     C86862   8.067   5.992   6.600 -0.6694 -0.1174  0.6154
  630MOL0     C86863   7.972   6.062   6.502  0.2807  0.7778  0.2787
  630MOL0     C86864   7.827   6.003   6.506 -0.1420 -0.8357 -0.0674
  630MOL0     C86865   7.726   6.100   6.436  0.3907  1.0620 -0.1655
  630MOL0     C86866   7.592   6.049   6.447 -0.0573  0.0402  0.2459
  630MOL0     C86867   7.491   5.990   6.451  0.1699 -0.2426  0.6671
  630MOL0     C86868   8.131   6.102   6.937  0.0732 -0.9569  0.1093
  630MOL0     C86869   8.197   6.067   7.055 -0.1219 -0.1600 -0.2150
  630MOL0     C86870   8.159   6.156   7.173  0.1578  0.2557  0.1483
  630MOL0     H86871   8.652   5.938   7.275  2.4001  1.1999  3.7093
  630MOL0     H86872   8.785   5.851   7.453  0.5875 -1.8176 -1.2380
  630MOL0     H86873   8.789   5.717   7.803 -2.4292  0.5683 -0.4055
  630MOL0     H86874   8.800   5.821   7.666 -0.1088 -0.7895 -1.9431
  630MOL0     H86875   8.936   5.661   7.531  1.4372 -0.1967  0.0611
  630MOL0     H86876   9.013   5.713   7.683  0.4593 -0.9773  0.3220
  630MOL0     H86877   8.901   5.516   7.806 -1.8482 -0.5207 -0.2828
  630MOL0     H86878   8.879   5.442   7.634  1.2021 -0.2653 -0.2586
  630MOL0     H86879   9.112   5.459   7.612  1.7898 -3.9261  0.9332
  630MOL0     H86880   9.138   5.528   7.769 -1.7910  1.6772  0.6238
  630MOL0     H86881   9.082   5.322   7.874 -1.7176  4.2895  0.9097
  630MOL0     H86882   9.166   5.255   7.731  0.9539  0.4333  2.2929
  630MOL0     H86883   8.871   5.269   7.778  0.6104  2.3855  1.4240
  630MOL0     H86884   8.944   5.209   7.625 -0.5497 -0.5210  0.7201
  630MOL0     H86885   8.882   5.026   7.724 -0.4246 -0.1857  0.2583
  630MOL0     H86886   8.963   5.047   7.873 -4.9557 -1.5985 -1.2663
  630MOL0     H86887   9.080   5.004   7.595  0.0285  0.2778 -0.6997
  630MOL0     H86888   9.184   5.028   7.739 -1.0582 -0.2824  1.7039
  630MOL0     H86889   9.190   4.760   7.548  0.7599 -3.2918 -0.6617
  630MOL0     H86890   9.083   4.456   7.579 -0.2598 -3.0678  2.3467
  630MOL0     H86891   9.179   4.428   7.727 -1.3890  1.7323  0.9878
  630MOL0     H86892   9.289   4.585   7.493 -3.6686  2.5047  1.6792
  630MOL0     H86893   9.386   4.501   7.622 -1.3097 -0.6091  2.3267
  630MOL0     H86894   9.299   4.283   7.558  0.6006  0.5080  2.4380
  630MOL0     H86895   9.207   4.356   7.429  0.6675  2.2049 -1.7486
  630MOL0     H86896   9.402   4.267   7.333  1.1523  2.0767 -3.1619
  630MOL0     H86897   9.409   4.450   7.326 -0.0161  4.0221  2.9823
  630MOL0     H86898   9.571   4.383   7.212 -0.8624  0.1961 -0.0756
  630MOL0     H86899   9.843   4.530   6.987 -0.3540  0.2145 -0.1773
  630MOL0     H86900   9.723   4.402   6.986 -1.2488  0.0648  1.3160
  630MOL0     H86901   9.878   4.365   7.036 -1.6800 -1.4058  0.3213
  630MOL0     H86902  10.156   4.504   6.956  0.5570 -0.9194 -0.4300
  630MOL0     H86903  10.354   4.590   6.849  1.6135 -3.8487 -0.4924
  630MOL0     H86904  10.503   4.736   6.770 -0.1713  1.8521  0.6260
  630MOL0     H86905  10.639   4.824   6.835  0.4199 -1.4855  1.4344
  630MOL0     H86906  10.727   4.569   6.907  0.3534  1.5225  0.6611
  630MOL0     H86907  10.601   4.524   6.811 -0.9091  1.4271  0.9091
  630MOL0     H86908  10.872   4.629   6.726  1.1426 -0.9623 -1.9804
  630MOL0     H86909  10.740   4.722   6.651  1.4706  0.7089  1.1378
  630MOL0     H86910  10.646   4.521   6.561  0.0102 -0.0842 -0.4857
  630MOL0     H86911  10.766   4.424   6.621  0.1053  0.6125  0.7526
  630MOL0     H86912  10.782   4.652   6.416  2.1452  0.3197  0.0810
  630MOL0     H86913  10.930   4.587   6.483  0.0201  0.5680  2.4314
  630MOL0     H86914  10.710   4.442   6.335  0.4405  3.9816 -2.2789
  630MOL0     H86915  10.844   4.355   6.432 -0.0941  0.6858  1.3157
  630MOL0     H86916  11.006   4.455   6.313  0.1658  0.8855  2.1069
  630MOL0     H86917  10.890   4.538   6.196 -2.3938 -0.2931  0.9578
  630MOL0     H86918  10.793   4.305   6.142 -0.3891  0.1179  0.8473
  630MOL0     H86919  10.922   4.232   6.243  1.2413  0.1799  0.0120
  630MOL0     H86920  10.532   4.658   7.238 -1.5640 -1.4110  3.0490
  630MOL0     H86921  10.345   4.548   7.339  1.5007 -0.4050  0.1497
  630MOL0     H86922   9.949   4.535   7.489  0.0988 -0.7724  1.1821
  630MOL0     H86923   9.749   4.458   7.579 -1.1773 -0.6586  0.5910
  630MOL0     H86924   8.494   5.531   7.528  0.4951  0.6551 -0.7215
  630MOL0     H86925   8.371   5.615   7.320  0.4147 -0.4494 -1.0486
  630MOL0     H86926   8.357   5.796   6.938  1.1401  1.5396  1.2525
  630MOL0     H86927   8.230   5.833   6.756  4.6357 -0.6875  1.3374
  630MOL0     H86928   8.172   6.018   6.583 -0.6186  0.4583  1.7263
  630MOL0     H86929   8.049   5.884   6.601  2.5782 -0.8920 -2.4534
  630MOL0     H86930   8.005   6.038   6.400 -0.7222 -1.2320  0.3663
  630MOL0     H86931   7.976   6.170   6.514 -2.1261  0.8730  0.5776
  630MOL0     H86932   7.835   5.908   6.452  1.4559  0.8548 -3.0895
  630MOL0     H86933   7.801   5.981   6.610 -0.7510 -2.1777 -0.4798
  630MOL0     H86934   7.762   6.114   6.334  0.4178  1.3506 -0.1181
  630MOL0     H86935   7.718   6.189   6.500 -1.2306  1.5054 -0.9296
  630MOL0     H86936   7.410   5.923   6.473 -0.5221 -0.6671 -2.6741
  630MOL0     H86937   8.055   6.180   6.931 -1.4702 -2.4901 -1.9923
  630MOL0     H86938   8.226   6.240   7.189 -1.4137  1.6312 -0.1918
  630MOL0     H86939   8.059   6.198   7.156 -1.4257 -2.3358  2.1949
  630MOL0     H86940   8.158   6.098   7.266 -0.8296 -2.1387 -1.2544
  631MOL0     O86941   0.710   3.144   6.447 -0.0832  0.6557  0.1018
  631MOL0     C86942   0.638   3.197   6.528  0.4202 -0.0007 -0.3267
  631MOL0     O86943   0.640   3.178   6.658 -1.0502  0.1286  0.0506
  631MOL0     C86944   0.755   3.134   6.712 -0.7587  0.1473 -0.0893
  631MOL0     C86945   0.764   3.006   6.770  0.1561 -0.2074 -0.2998
  631MOL0     C86946   0.890   2.966   6.813 -0.9771 -0.2019  0.6353
  631MOL0     C86947   1.010   3.048   6.806  0.5182  0.8447 -0.2912
  631MOL0     O86948   1.129   2.991   6.852 -0.5217  0.3863 -0.1798
  631MOL0     C86949   1.257   3.046   6.808 -0.2315 -0.5614 -0.4308
  631MOL0     C86950   1.366   2.962   6.864 -0.6308  0.1573  0.0280
  631MOL0     C86951   1.511   3.031   6.855 -0.1294 -0.0746  0.5581
  631MOL0     C86952   1.624   2.949   6.928  0.2755  0.2423 -0.6112
  631MOL0     C86953   1.746   3.046   6.958 -0.3966 -0.3089  0.2847
  631MOL0     C86954   1.870   2.959   6.935  0.4454 -0.4361  0.4781
  631MOL0     C86955   1.998   3.015   6.985 -0.3141 -0.4100  0.4398
  631MOL0     C86956   2.038   3.149   6.909  1.0184 -0.3735  0.5748
  631MOL0     N86957   2.144   3.208   6.983  0.1756 -0.1617 -0.1337
  631MOL0     C86958   2.276   3.204   6.952 -0.9374  0.1511 -0.2168
  631MOL0     C86959   2.339   3.289   7.032 -0.3014  0.4078 -0.6027
  631MOL0     C86960   2.486   3.316   7.033 -0.2378 -0.6395  0.3992
  631MOL0     C86961   2.552   3.310   6.899 -0.3878  0.1014 -0.3388
  631MOL0     C86962   2.609   3.166   6.873  0.1052 -0.5437 -0.2189
  631MOL0     C86963   2.683   3.162   6.740  0.5995 -0.5398  0.1577
  631MOL0     O86964   2.813   3.226   6.749 -0.4012 -0.1595 -0.1985
  631MOL0     C86965   2.901   3.192   6.655 -0.4614 -0.1921  0.6352
  631MOL0     C86966   2.877   3.134   6.526  0.0351 -1.6120 -0.9783
  631MOL0     C86967   2.974   3.127   6.429 -0.0242 -0.3290  0.9372
  631MOL0     C86968   2.936   3.051   6.305  0.3369 -0.5327 -0.2700
  631MOL0     C86969   3.097   3.196   6.441 -0.4051 -0.5213  0.7291
  631MOL0     C86970   3.193   3.215   6.333 -0.4537 -0.1596  0.6399
  631MOL0     O86971   3.300   3.300   6.364  0.2674  0.4543 -0.4192
  631MOL0     C86972   3.391   3.322   6.266  0.2193 -0.1242  0.7054
  631MOL0     C86973   3.355   3.391   6.150 -0.1887 -0.1056 -0.5101
  631MOL0     C86974   3.444   3.406   6.051 -0.2487  0.4348 -0.0066
  631MOL0     C86975   3.575   3.361   6.062  1.5845 -0.0026 -0.7505
  631MOL0     O86976   3.666   3.380   5.967 -0.0846  0.1380 -0.1252
  631MOL0     C86977   3.617   3.381   5.832 -0.1520 -0.0837 -0.5199
  631MOL0     C86978   3.724   3.373   5.720 -0.2194  0.0190  0.4439
  631MOL0     C86979   3.828   3.259   5.731 -0.5304  0.0618 -0.2281
  631MOL0     C86980   3.905   3.239   5.599 -0.2225  0.8695  1.0283
  631MOL0     C86981   4.029   3.325   5.564 -0.1518  0.2941  0.5540
  631MOL0     C86982   4.137   3.335   5.672  0.2721 -0.7932  0.4752
  631MOL0     C86983   4.260   3.405   5.610 -0.0850  0.2648 -0.2287
  631MOL0     C86984   4.376   3.409   5.701 -0.2179 -0.1378  0.5725
  631MOL0    Cl86985   4.336   3.487   5.852 -0.1740  0.0925 -0.2963
  631MOL0     C86986   3.608   3.287   6.174  0.1982  1.0808 -0.7840
  631MOL0     C86987   3.518   3.270   6.285  0.3236  0.1306 -0.0065
  631MOL0     O86988   3.177   3.150   6.226  1.0047  0.3074 -0.4278
  631MOL0     C86989   3.123   3.255   6.572  0.8827  0.5575  0.6038
  631MOL0     C86990   3.029   3.233   6.671 -0.1967  0.2669 -0.7555
  631MOL0     N86991   2.239   3.358   7.109 -0.1920 -0.0600  0.2737
  631MOL0     N86992   2.123   3.298   7.088 -0.1451 -0.4476  0.0006
  631MOL0     C86993   1.003   3.170   6.734  0.1876  0.6298  0.3840
  631MOL0     C86994   0.875   3.209   6.700  0.4502 -0.7094  0.4681
  631MOL0     C86995   0.543   3.312   6.485 -0.8052  0.7067 -0.1398
  631MOL0     C86996   0.468   3.393   6.575 -0.5886  1.2077  0.1552
  631MOL0     C86997   0.372   3.476   6.538 -0.2114  0.5169 -0.1331
  631MOL0     C86998   0.329   3.485   6.402  0.7454 -0.2537  0.3685
  631MOL0     O86999   0.223   3.563   6.367  0.4921 -0.4169 -0.1234
  631MOL0     C87000   0.215   3.628   6.236  0.0553 -0.6869 -0.0849
  631MOL0     C87001   0.194   3.775   6.274  0.0505  0.6430 -1.0713
  631MOL0     C87002   0.148   3.875   6.162 -0.1528 -0.6814  0.4766
  631MOL0     C87003   0.067   3.986   6.231  0.0195 -0.7359  0.1015
  631MOL0     C87004   0.039   4.100   6.140 -0.8630  0.1812  0.6043
  631MOL0     C87005   0.018   4.198   6.067  0.1827 -0.6989  0.2100
  631MOL0     C87006   0.404   3.420   6.305  0.7289  0.2596  0.2937
  631MOL0     C87007   0.513   3.334   6.348  1.0027 -0.4894 -0.3213
  631MOL0     C87008   0.580   3.266   6.237 -0.0336 -0.1327 -0.0907
  631MOL0     H87009   0.674   2.949   6.789  0.2211  0.2093  1.3815
  631MOL0     H87010   0.892   2.871   6.866 -1.3845 -0.4114  0.2802
  631MOL0     H87011   1.269   3.149   6.842  3.0042 -0.8392 -0.4256
  631MOL0     H87012   1.252   3.043   6.699 -4.1099 -1.9937 -0.3589
  631MOL0     H87013   1.341   2.918   6.961 -1.0667 -1.5056 -0.8077
  631MOL0     H87014   1.366   2.881   6.791  1.7777  0.9499 -0.9358
  631MOL0     H87015   1.539   3.051   6.751 -0.0241 -3.2819 -0.1617
  631MOL0     H87016   1.514   3.125   6.910  0.9073 -2.2252  4.5586
  631MOL0     H87017   1.600   2.912   7.028  2.0857  1.2515  0.2427
  631MOL0     H87018   1.637   2.863   6.861 -0.1222 -0.3684  0.0808
  631MOL0     H87019   1.734   3.077   7.062  0.5379  0.0853  0.2864
  631MOL0     H87020   1.749   3.130   6.888  3.3752 -0.8363 -0.3996
  631MOL0     H87021   1.851   2.860   6.977 -2.4393  0.5496  1.7691
  631MOL0     H87022   1.877   2.939   6.828 -1.1913  0.1608  0.2337
  631MOL0     H87023   2.076   2.942   6.963  0.1061  0.1347  0.0762
  631MOL0     H87024   1.992   3.028   7.093  1.1050  3.3794  0.2209
  631MOL0     H87025   2.066   3.132   6.805 -0.6560  0.6789 -0.0994
  631MOL0     H87026   1.953   3.219   6.905  0.0375 -1.5938 -1.4237
  631MOL0     H87027   2.334   3.158   6.872  0.0036  1.0449 -0.0715
  631MOL0     H87028   2.531   3.248   7.105 -1.7645 -0.8560  1.1900
  631MOL0     H87029   2.492   3.417   7.076  1.4514  0.0008 -1.1864
  631MOL0     H87030   2.480   3.344   6.824  0.1072  2.2791  0.1109
  631MOL0     H87031   2.633   3.382   6.893 -0.2342 -0.1970 -3.7443
  631MOL0     H87032   2.685   3.146   6.949  0.1309 -0.7758 -0.3045
  631MOL0     H87033   2.525   3.097   6.858  1.5167 -2.0390 -1.5738
  631MOL0     H87034   2.694   3.057   6.712 -2.6212 -0.5773 -1.3205
  631MOL0     H87035   2.625   3.208   6.660  2.2775 -2.9317 -2.6439
  631MOL0     H87036   2.773   3.109   6.506 -0.1160  0.3619 -3.0057
  631MOL0     H87037   2.935   3.131   6.230 -1.0953  0.9147  1.2015
  631MOL0     H87038   2.833   3.013   6.305 -0.4885  1.6105 -0.4032
  631MOL0     H87039   3.014   2.977   6.284  0.7386 -0.4682  0.9280
  631MOL0     H87040   3.249   3.411   6.138  0.4277  2.7583 -2.1820
  631MOL0     H87041   3.402   3.440   5.956 -1.7946  0.8076  0.7734
  631MOL0     H87042   3.550   3.296   5.817 -0.7163  0.3550 -0.4712
  631MOL0     H87043   3.560   3.472   5.816 -1.4681 -0.2248  2.6430
  631MOL0     H87044   3.668   3.367   5.626 -0.7652 -2.4168  0.8574
  631MOL0     H87045   3.782   3.466   5.719  0.5867 -0.4379 -1.8912
  631MOL0     H87046   3.781   3.164   5.758 -1.8436  0.5583 -0.6983
  631MOL0     H87047   3.893   3.281   5.816  0.5585  1.9386 -1.4740
  631MOL0     H87048   3.832   3.242   5.517 -1.2332 -1.2462  1.7684
  631MOL0     H87049   3.948   3.138   5.607 -1.5004  0.1534 -0.5353
  631MOL0     H87050   4.071   3.277   5.476 -0.4091  1.8397 -0.4408
  631MOL0     H87051   3.998   3.422   5.525 -0.4131 -0.6852 -1.8415
  631MOL0     H87052   4.162   3.232   5.699 -1.0538 -1.7248 -1.5946
  631MOL0     H87053   4.098   3.395   5.755 -1.6500 -0.1703 -0.8142
  631MOL0     H87054   4.238   3.507   5.578 -0.4197  0.3903  0.3870
  631MOL0     H87055   4.297   3.349   5.524  0.2836 -1.5567  1.0620
  631MOL0     H87056   4.465   3.452   5.656 -0.5185 -1.9119 -1.9527
  631MOL0     H87057   4.409   3.309   5.731  1.9502 -0.1711 -1.6699
  631MOL0     H87058   3.709   3.259   6.199 -0.7523 -1.2012  0.8526
  631MOL0     H87059   3.543   3.221   6.379 -1.9055  2.9599  2.2708
  631MOL0     H87060   3.219   3.302   6.589  1.7290 -0.9193  0.0562
  631MOL0     H87061   3.044   3.272   6.771 -0.8126 -0.2527 -0.4590
  631MOL0     H87062   1.094   3.217   6.699 -0.3814  0.3804 -1.5728
  631MOL0     H87063   0.860   3.307   6.655 -0.8527 -0.8655  0.5223
  631MOL0     H87064   0.499   3.385   6.679  3.0113 -1.5712 -0.9006
  631MOL0     H87065   0.324   3.532   6.617 -0.2534 -4.1572  3.6243
  631MOL0     H87066   0.303   3.627   6.171 -0.9846  0.0467 -1.5811
  631MOL0     H87067   0.128   3.586   6.185 -0.5241  0.1222  0.2130
  631MOL0     H87068   0.287   3.810   6.322 -1.6284  2.2546  1.2287
  631MOL0     H87069   0.112   3.778   6.346  0.0253  1.6399 -1.1297
  631MOL0     H87070   0.228   3.922   6.105  1.2076 -0.1406  2.7102
  631MOL0     H87071   0.101   3.823   6.078  1.1883  2.8081 -2.6865
  631MOL0     H87072   0.124   4.019   6.318 -2.2376 -2.2410  2.3009
  631MOL0     H87073  -0.024   3.956   6.285 -0.4075  2.4684  1.3809
  631MOL0     H87074   0.012   4.287   6.008 -0.3975 -0.4339  0.6587
  631MOL0     H87075   0.376   3.425   6.200  0.3409 -0.1678  0.3690
  631MOL0     H87076   0.570   3.325   6.146 -0.0008 -1.9157 -1.3034
  631MOL0     H87077   0.688   3.273   6.253 -0.0356  0.3076 -0.2623
  631MOL0     H87078   0.548   3.163   6.220 -1.4934  0.6392 -2.4104
  632MOL0     O87079   1.899   7.801   8.093 -0.3989  0.0976 -0.2462
  632MOL0     C87080   1.930   7.770   8.208  0.3174  0.3154 -0.0478
  632MOL0     O87081   1.966   7.641   8.241  0.2278  0.4545 -0.0649
  632MOL0     C87082   1.959   7.544   8.152  0.4214  0.7569 -0.1625
  632MOL0     C87083   2.076   7.480   8.106 -0.2284 -0.1762  0.6663
  632MOL0     C87084   2.073   7.370   8.016 -0.0237  0.6942 -0.5239
  632MOL0     C87085   1.952   7.313   7.981  0.2285 -0.5069  0.4705
  632MOL0     O87086   1.942   7.203   7.901  0.4647 -0.1534  0.1875
  632MOL0     C87087   1.931   7.239   7.761  0.0513  0.0311 -0.2590
  632MOL0     C87088   1.961   7.117   7.673  0.4122 -0.6538  0.7209
  632MOL0     C87089   2.106   7.118   7.642 -0.6109  0.2943 -0.4530
  632MOL0     C87090   2.151   7.000   7.553  0.1102 -0.2041 -0.0285
  632MOL0     C87091   2.297   6.997   7.518 -0.1001  0.9143  0.9868
  632MOL0     C87092   2.334   6.902   7.398 -0.1233 -0.3624  0.5428
  632MOL0     C87093   2.471   6.947   7.341 -0.5655  0.7209  0.9608
  632MOL0     C87094   2.514   6.872   7.209  0.7418  0.1385  1.1186
  632MOL0     N87095   2.547   6.733   7.226  0.3126 -0.2249 -0.1586
  632MOL0     C87096   2.486   6.614   7.180 -0.0220 -0.2657 -0.3285
  632MOL0     C87097   2.561   6.505   7.222 -0.1467 -0.8593 -0.3463
  632MOL0     C87098   2.523   6.365   7.200  0.0195 -0.1219  0.8451
  632MOL0     C87099   2.443   6.307   7.310  0.0366  0.5726 -0.0483
  632MOL0     C87100   2.298   6.354   7.307 -0.4530 -0.3038 -1.0084
  632MOL0     C87101   2.264   6.468   7.397 -0.8713  0.0608  0.4346
  632MOL0     O87102   2.122   6.465   7.430 -0.3357  0.5934  0.6659
  632MOL0     C87103   2.094   6.520   7.553  0.1567 -0.0671  0.2306
  632MOL0     C87104   2.173   6.601   7.636 -0.0261 -0.6350  0.1352
  632MOL0     C87105   2.143   6.654   7.765  0.1519  0.1653  0.1789
  632MOL0     C87106   2.229   6.757   7.834  0.0662 -0.6274  0.5331
  632MOL0     C87107   2.017   6.617   7.813  0.3964  0.9220  0.4551
  632MOL0     C87108   1.984   6.652   7.949  0.6000 -0.3064  0.3053
  632MOL0     O87109   2.006   6.557   8.048  0.5130  0.4912  0.5216
  632MOL0     C87110   2.082   6.441   8.010 -0.0557 -0.8425 -0.0566
  632MOL0     C87111   2.034   6.340   7.937  0.5416  0.0880 -0.6598
  632MOL0     C87112   2.119   6.227   7.907  0.3094  0.6130  0.0464
  632MOL0     C87113   2.252   6.231   7.951 -1.0718  0.3696 -0.4397
  632MOL0     O87114   2.342   6.134   7.910 -0.0892  0.1482  0.5708
  632MOL0     C87115   2.353   6.137   7.762 -0.6462 -0.5218  0.2028
  632MOL0     C87116   2.467   6.054   7.705  0.3433  0.2101 -0.3148
  632MOL0     C87117   2.605   6.084   7.772  0.6214 -0.9445 -0.6036
  632MOL0     C87118   2.717   6.006   7.705 -0.1905 -0.0219  0.3480
  632MOL0     C87119   2.856   6.054   7.738 -0.7828 -1.1137  0.6953
  632MOL0     C87120   2.899   6.041   7.878  0.1693 -0.2298 -0.8629
  632MOL0     C87121   3.036   6.100   7.909  0.1674  0.0376 -0.2010
  632MOL0     C87122   3.079   6.051   8.043 -0.9947 -0.1111  0.5823
  632MOL0    Cl87123   2.972   6.129   8.158  0.0765 -0.2613 -0.3772
  632MOL0     C87124   2.303   6.346   8.016 -0.9175  0.2220  1.3441
  632MOL0     C87125   2.211   6.437   8.044 -0.2186 -0.0136 -0.0522
  632MOL0     O87126   1.920   6.754   7.971  0.9143 -0.1502 -0.0140
  632MOL0     C87127   1.932   6.540   7.732 -0.2533  0.5247  0.3594
  632MOL0     C87128   1.965   6.497   7.604 -0.1498 -1.2506  0.0951
  632MOL0     N87129   2.654   6.560   7.311 -0.6605 -0.5696 -0.4085
  632MOL0     N87130   2.643   6.689   7.316 -0.4378 -0.3512  0.4796
  632MOL0     C87131   1.828   7.380   8.019  0.5249  0.2585 -0.0517
  632MOL0     C87132   1.835   7.488   8.107  0.6388 -0.5106 -0.3084
  632MOL0     C87133   1.923   7.863   8.324  0.8593  0.2076 -0.0516
  632MOL0     C87134   1.948   7.815   8.455  0.2752 -0.0054 -0.0796
  632MOL0     C87135   1.950   7.903   8.560 -0.7422 -0.1949  1.1676
  632MOL0     C87136   1.916   8.039   8.548  0.1492  0.4837 -0.4486
  632MOL0     O87137   1.923   8.145   8.639  0.2266  0.6071  0.4565
  632MOL0     C87138   1.847   8.139   8.756  0.9919  0.9004  0.5280
  632MOL0     C87139   1.698   8.099   8.721  1.1061 -0.1813 -0.4489
  632MOL0     C87140   1.632   8.220   8.655 -0.7308 -0.2091  0.3376
  632MOL0     C87141   1.499   8.177   8.582  0.4917 -0.7958  1.1215
  632MOL0     C87142   1.387   8.154   8.666 -0.2086  0.2195 -0.6757
  632MOL0     C87143   1.292   8.152   8.741 -0.4771 -0.5107  0.2542
  632MOL0     C87144   1.884   8.088   8.423  0.1908 -0.0282 -0.1799
  632MOL0     C87145   1.890   8.006   8.310 -0.6277  1.1750  0.2642
  632MOL0     C87146   1.869   8.075   8.180 -0.1648 -0.2381  0.2683
  632MOL0     H87147   2.167   7.505   8.160 -0.9749  2.1545  0.9937
  632MOL0     H87148   2.170   7.326   7.995 -0.0050 -0.1299  1.1083
  632MOL0     H87149   1.999   7.320   7.735  1.7989 -1.0514  0.7303
  632MOL0     H87150   1.825   7.265   7.746 -0.2708 -0.1299  1.4783
  632MOL0     H87151   1.929   7.021   7.713  2.1712 -2.9700 -2.9004
  632MOL0     H87152   1.906   7.129   7.579  4.0661  2.2605 -1.3191
  632MOL0     H87153   2.118   7.211   7.586 -1.0934  0.3143 -0.5239
  632MOL0     H87154   2.162   7.114   7.736 -0.1487  1.0559 -0.6845
  632MOL0     H87155   2.112   6.917   7.613 -2.2141  0.2484 -0.8254
  632MOL0     H87156   2.097   7.000   7.458  1.4928 -2.2827 -0.8767
  632MOL0     H87157   2.355   6.962   7.604  2.1436  0.2073 -0.7059
  632MOL0     H87158   2.323   7.099   7.490 -0.5554  0.6341 -0.5656
  632MOL0     H87159   2.350   6.798   7.430 -0.8071 -0.5133  0.4030
  632MOL0     H87160   2.258   6.908   7.319  0.7073  0.2839 -0.2390
  632MOL0     H87161   2.545   6.936   7.421  2.4286 -3.4304 -1.9725
  632MOL0     H87162   2.463   7.050   7.305 -1.9312  0.1681 -0.4103
  632MOL0     H87163   2.432   6.880   7.137  0.5616 -1.4014  1.1282
  632MOL0     H87164   2.610   6.908   7.171 -0.3902  0.2265 -1.8809
  632MOL0     H87165   2.394   6.612   7.122 -1.1769  0.9389  1.3736
  632MOL0     H87166   2.611   6.302   7.186 -0.2775 -0.8005  1.8753
  632MOL0     H87167   2.471   6.362   7.104  3.2876 -2.2326 -1.0297
  632MOL0     H87168   2.434   6.200   7.293 -0.2641  0.7879 -1.3623
  632MOL0     H87169   2.497   6.321   7.404  2.1654 -1.3522 -0.8881
  632MOL0     H87170   2.279   6.394   7.207 -2.4761  1.5057  0.0152
  632MOL0     H87171   2.230   6.271   7.328 -0.3437 -0.5678 -1.6714
  632MOL0     H87172   2.332   6.456   7.481  1.2632 -2.2352 -1.4922
  632MOL0     H87173   2.281   6.561   7.342  0.0389 -2.1879 -3.4401
  632MOL0     H87174   2.274   6.610   7.597  0.6791 -1.6106  1.6409
  632MOL0     H87175   2.299   6.801   7.762  1.1470 -2.3772  0.4404
  632MOL0     H87176   2.284   6.712   7.917  1.1953  0.2933  0.3166
  632MOL0     H87177   2.172   6.840   7.877  0.5041 -0.5881  1.0604
  632MOL0     H87178   1.927   6.347   7.920  0.2775 -0.2486  0.7884
  632MOL0     H87179   2.087   6.138   7.852 -0.0203  1.1505 -0.6508
  632MOL0     H87180   2.262   6.108   7.707 -0.9861  2.6336 -1.1518
  632MOL0     H87181   2.373   6.241   7.736 -4.5483  0.9233  2.2231
  632MOL0     H87182   2.444   5.951   7.733  2.0795  0.0743  0.8078
  632MOL0     H87183   2.466   6.056   7.596 -1.0403 -1.6461 -0.3750
  632MOL0     H87184   2.609   6.070   7.880  1.3256 -1.1993 -0.6620
  632MOL0     H87185   2.630   6.189   7.756  0.3873 -0.6908  0.6067
  632MOL0     H87186   2.712   6.002   7.595  0.7927  1.6311  0.2009
  632MOL0     H87187   2.714   5.905   7.747  2.2134  0.0844  0.9618
  632MOL0     H87188   2.918   5.986   7.678  0.6653  0.5262  0.2448
  632MOL0     H87189   2.877   6.152   7.695 -2.8729 -1.1997 -0.6424
  632MOL0     H87190   2.900   5.933   7.896  2.1446 -0.7977 -3.7546
  632MOL0     H87191   2.824   6.094   7.938 -2.0013 -3.5822 -0.3232
  632MOL0     H87192   3.027   6.208   7.923  0.1679 -0.2075  2.2795
  632MOL0     H87193   3.110   6.073   7.834 -0.2131 -0.0690 -0.5430
  632MOL0     H87194   3.183   6.069   8.070 -1.1645  1.1003  0.5003
  632MOL0     H87195   3.084   5.942   8.036  1.0977 -0.0042 -0.0173
  632MOL0     H87196   2.409   6.353   8.041 -1.0380  1.3366  1.5976
  632MOL0     H87197   2.251   6.521   8.101  0.7962 -2.4963  3.2262
  632MOL0     H87198   1.839   6.512   7.780 -0.3947 -0.0891 -0.2481
  632MOL0     H87199   1.898   6.432   7.549 -2.0747  0.0034  0.8742
  632MOL0     H87200   1.739   7.326   7.987  0.5492 -0.3101  0.8074
  632MOL0     H87201   1.740   7.524   8.144  0.7810  0.7432 -1.0872
  632MOL0     H87202   1.985   7.716   8.480  0.8819  0.7950  2.4964
  632MOL0     H87203   1.993   7.867   8.653 -0.1611 -1.7539  0.3342
  632MOL0     H87204   1.898   8.064   8.817  0.3058 -1.4775 -1.6601
  632MOL0     H87205   1.863   8.237   8.803  0.1769  1.2596  0.0635
  632MOL0     H87206   1.644   8.084   8.815  0.2805 -1.0300 -1.0390
  632MOL0     H87207   1.678   8.013   8.657 -3.3497 -0.9298  1.5462
  632MOL0     H87208   1.621   8.296   8.732  1.9635 -0.1453  0.7506
  632MOL0     H87209   1.700   8.262   8.580  0.4981 -3.5049 -0.5703
  632MOL0     H87210   1.510   8.090   8.517  2.1435  1.0200 -1.2283
  632MOL0     H87211   1.483   8.257   8.509  2.1939  1.2286  2.8380
  632MOL0     H87212   1.224   8.161   8.823 -1.9814 -0.3515 -0.9758
  632MOL0     H87213   1.859   8.193   8.417 -1.6166 -0.4256 -0.0773
  632MOL0     H87214   1.785   8.027   8.127 -0.0127 -0.1148 -0.0844
  632MOL0     H87215   1.833   8.175   8.206  0.9194  0.5086 -0.9941
  632MOL0     H87216   1.958   8.090   8.119 -0.9207 -2.7212 -1.6561
  633MOL0     O87217   9.629  11.440   2.464  0.6365  0.1616 -0.1143
  633MOL0     C87218   9.631  11.550   2.528 -0.9735 -0.1958  0.8549
  633MOL0     O87219   9.741  11.609   2.572  0.2772  1.1057  0.6224
  633MOL0     C87220   9.858  11.541   2.560 -0.2226  0.3775 -0.4138
  633MOL0     C87221   9.895  11.430   2.629  0.6034  0.7984 -0.1138
  633MOL0     C87222  10.022  11.373   2.623  0.2901  0.4654 -0.2152
  633MOL0     C87223  10.124  11.437   2.559 -0.3686  0.1709 -0.2985
  633MOL0     O87224  10.249  11.382   2.576 -0.0833 -0.1888  0.1947
  633MOL0     C87225  10.337  11.376   2.456  0.4218 -0.3937  0.2146
  633MOL0     C87226  10.438  11.258   2.450 -0.0655  0.0345 -1.1425
  633MOL0     C87227  10.555  11.290   2.541 -0.2392  0.1809  0.1914
  633MOL0     C87228  10.676  11.189   2.537 -0.1159 -0.2403  0.2977
  633MOL0     C87229  10.759  11.204   2.415  0.3852 -0.3458 -0.0215
  633MOL0     C87230  10.843  11.068   2.398  0.8155 -0.1789  1.4898
  633MOL0     C87231  10.969  11.055   2.492  0.3580 -0.2914 -0.1938
  633MOL0     C87232  11.096  11.129   2.450 -0.1471  0.0678 -0.3498
  633MOL0     N87233  11.112  11.162   2.308 -0.2019  0.3792  0.2167
  633MOL0     C87234  11.181  11.089   2.207  0.2074 -0.0038 -0.7633
  633MOL0     C87235  11.158  11.156   2.094  0.4699 -0.3680 -0.0417
  633MOL0     C87236  11.198  11.114   1.956 -0.1295  0.0090 -0.4540
  633MOL0     C87237  11.209  10.965   1.932 -0.9400  0.7474 -0.3005
  633MOL0     C87238  11.256  10.933   1.792  0.1004 -0.6800 -0.3201
  633MOL0     C87239  11.241  10.779   1.757  0.4209  0.1489 -0.8652
  633MOL0     O87240  11.306  10.709   1.868  0.1714 -0.1176 -0.4093
  633MOL0     C87241  11.293  10.568   1.857 -0.3247 -0.5289 -0.3084
  633MOL0     C87242  11.204  10.496   1.780  0.2306  0.0263 -0.1913
  633MOL0     C87243  11.214  10.358   1.765 -0.0424 -0.2733  0.6456
  633MOL0     C87244  11.123  10.288   1.667 -0.3019  0.4674 -0.0637
  633MOL0     C87245  11.311  10.288   1.835 -0.2187  1.0815  0.6742
  633MOL0     C87246  11.316  10.142   1.837  0.2173  0.4012 -0.2954
  633MOL0     O87247  11.202  10.080   1.866  0.2175  0.2483 -0.5778
  633MOL0     C87248  11.212   9.944   1.844  0.8570  0.0343 -0.7056
  633MOL0     C87249  11.273   9.861   1.941 -0.9024 -0.2343  1.0427
  633MOL0     C87250  11.274   9.718   1.937 -0.2804  0.2884 -0.3155
  633MOL0     C87251  11.207   9.655   1.832 -0.1651  0.2321 -1.4161
  633MOL0     O87252  11.213   9.517   1.828  0.3110  0.5840 -0.1475
  633MOL0     C87253  11.185   9.458   1.703  0.0750 -0.4809  0.3484
  633MOL0     C87254  11.203   9.302   1.701 -0.4997 -0.2336  0.4010
  633MOL0     C87255  11.126   9.229   1.591 -0.4579 -0.6877  0.9193
  633MOL0     C87256  11.181   9.250   1.443  0.7050  0.1040 -0.0841
  633MOL0     C87257  11.112   9.157   1.349 -0.6994  0.0683 -0.6471
  633MOL0     C87258  11.171   9.176   1.203 -0.5168 -0.4571 -0.5400
  633MOL0     C87259  11.140   9.061   1.111  0.5521  0.2945 -0.0572
  633MOL0     C87260  11.185   9.107   0.972 -0.1973 -0.0773  0.4837
  633MOL0    Cl87261  11.122   8.986   0.858  0.0753 -0.3677  0.1857
  633MOL0     C87262  11.146   9.735   1.739  0.4869  0.3740 -0.9056
  633MOL0     C87263  11.148   9.870   1.745  0.1573 -0.2338 -0.4542
  633MOL0     O87264  11.420  10.092   1.797 -1.2301 -0.4251  1.1538
  633MOL0     C87265  11.402  10.359   1.917 -0.0353  0.7796  0.1397
  633MOL0     C87266  11.397  10.492   1.919 -0.4775  0.1402 -1.2429
  633MOL0     N87267  11.073  11.256   2.122 -0.4652 -0.7294 -0.5709
  633MOL0     N87268  11.045  11.258   2.246  0.6522 -0.5852  0.8045
  633MOL0     C87269  10.087  11.551   2.483 -0.9704 -0.0317  0.3198
  633MOL0     C87270   9.959  11.608   2.490  0.0586 -0.0171 -0.6341
  633MOL0     C87271   9.505  11.621   2.550  0.0549 -0.3297  1.2026
  633MOL0     C87272   9.383  11.553   2.571  0.0692 -0.6463 -0.3016
  633MOL0     C87273   9.268  11.624   2.598 -0.8324 -0.4138 -0.0252
  633MOL0     C87274   9.257  11.759   2.618 -0.1144 -0.3190  0.0684
  633MOL0     O87275   9.153  11.836   2.663  0.1355  0.1929  0.2226
  633MOL0     C87276   9.025  11.771   2.698 -0.3753  0.4007  0.3698
  633MOL0     C87277   8.911  11.834   2.615 -0.6791  0.2480 -0.3336
  633MOL0     C87278   8.782  11.785   2.685 -0.4687 -0.7422  0.0921
  633MOL0     C87279   8.735  11.907   2.761 -0.2547 -0.0681 -0.2180
  633MOL0     C87280   8.605  11.874   2.828  0.7352  0.0004 -1.3364
  633MOL0     C87281   8.498  11.823   2.873  0.1934 -0.5720  0.8570
  633MOL0     C87282   9.374  11.829   2.605 -0.4171 -0.0967  0.3073
  633MOL0     C87283   9.503  11.765   2.577  0.6071 -0.6984  0.0595
  633MOL0     C87284   9.621  11.859   2.590 -0.6265  0.3156  0.3008
  633MOL0     H87285   9.809  11.381   2.675  1.6223 -0.3695  0.6133
  633MOL0     H87286  10.040  11.274   2.661  0.3346 -0.2952 -2.0918
  633MOL0     H87287  10.392  11.470   2.444 -0.4191  0.0062 -0.6667
  633MOL0     H87288  10.277  11.378   2.365  2.4064  1.4966 -1.1639
  633MOL0     H87289  10.389  11.168   2.487 -1.1192  1.2514  0.5236
  633MOL0     H87290  10.459  11.257   2.343 -3.1880  0.1571 -1.8244
  633MOL0     H87291  10.589  11.392   2.521  1.9328 -0.7083 -0.9409
  633MOL0     H87292  10.503  11.290   2.637 -5.9793  0.0589 -2.5034
  633MOL0     H87293  10.734  11.212   2.627 -0.7619  1.4871  0.3067
  633MOL0     H87294  10.637  11.087   2.535 -0.1302 -0.2351  0.3292
  633MOL0     H87295  10.835  11.282   2.423 -1.2802  1.2662  0.7523
  633MOL0     H87296  10.690  11.217   2.332 -1.7989 -2.9577  1.2247
  633MOL0     H87297  10.781  10.979   2.415 -0.3735  0.1096 -0.9811
  633MOL0     H87298  10.878  11.064   2.295  0.5806  4.3421  1.0586
  633MOL0     H87299  11.001  10.951   2.491  1.1849 -0.0461 -1.3496
  633MOL0     H87300  10.941  11.082   2.594  0.6271  1.4541 -0.5455
  633MOL0     H87301  11.087  11.226   2.500  1.7376  0.9498 -1.6115
  633MOL0     H87302  11.188  11.089   2.494 -1.3280  0.4527  2.6886
  633MOL0     H87303  11.236  10.997   2.225  0.6644  0.4095  0.0323
  633MOL0     H87304  11.298  11.150   1.929 -0.3518  0.7393 -0.3210
  633MOL0     H87305  11.134  11.165   1.884 -1.6570  3.0601  2.8013
  633MOL0     H87306  11.284  10.921   1.998 -2.4191 -0.6127  0.5495
  633MOL0     H87307  11.124  10.906   1.968  1.1246 -1.1626  1.8385
  633MOL0     H87308  11.185  10.977   1.722  2.3292  1.0653 -1.6361
  633MOL0     H87309  11.352  10.982   1.770  0.0424  0.0606  0.9570
  633MOL0     H87310  11.132  10.766   1.755  0.4297 -1.2540  1.9107
  633MOL0     H87311  11.280  10.749   1.660 -1.8238 -3.2308 -0.8785
  633MOL0     H87312  11.123  10.552   1.734  0.5799 -0.4757 -1.4622
  633MOL0     H87313  11.151  10.189   1.628 -2.9685 -0.4784  0.1960
  633MOL0     H87314  11.100  10.354   1.582 -1.8421  0.0547 -0.0120
  633MOL0     H87315  11.022  10.271   1.706 -0.5377  0.2366 -0.7555
  633MOL0     H87316  11.325   9.915   2.020  0.3786  0.1372 -0.0178
  633MOL0     H87317  11.318   9.661   2.018 -3.6516  1.1993  2.3897
  633MOL0     H87318  11.081   9.487   1.689  0.3332  0.4308  0.2591
  633MOL0     H87319  11.241   9.498   1.618  1.4347 -0.3778  1.2640
  633MOL0     H87320  11.310   9.283   1.692 -0.3024  0.0897  1.8137
  633MOL0     H87321  11.171   9.262   1.798  0.9546 -1.1302  0.5455
  633MOL0     H87322  11.021   9.255   1.608  0.5451  3.4045  1.9479
  633MOL0     H87323  11.138   9.121   1.608  1.7157 -0.3862  1.5242
  633MOL0     H87324  11.290   9.241   1.442  0.8007  1.2302 -1.2092
  633MOL0     H87325  11.159   9.350   1.405 -1.4423 -0.4251 -0.4017
  633MOL0     H87326  11.138   9.056   1.383 -1.3332  0.0485 -0.2118
  633MOL0     H87327  11.004   9.166   1.362 -0.4270  1.5531  0.9179
  633MOL0     H87328  11.280   9.174   1.205 -0.4311  0.4076 -2.4304
  633MOL0     H87329  11.137   9.265   1.149 -0.5505  0.3014  0.6946
  633MOL0     H87330  11.032   9.044   1.101  0.4431  1.7959 -2.4390
  633MOL0     H87331  11.188   8.967   1.140  0.4911 -0.5128 -2.3418
  633MOL0     H87332  11.293   9.106   0.954 -0.4216 -1.4561 -1.0054
  633MOL0     H87333  11.163   9.209   0.941  2.0173  0.1870 -0.3580
  633MOL0     H87334  11.073   9.696   1.669 -0.4020 -0.0977  0.2557
  633MOL0     H87335  11.088   9.919   1.669 -1.7505  0.5914  1.4659
  633MOL0     H87336  11.481  10.296   1.957 -0.3019  0.2119 -0.2157
  633MOL0     H87337  11.477  10.543   1.971  0.2080 -1.6775 -0.4285
  633MOL0     H87338  10.163  11.606   2.428 -0.5624  0.1950  1.1069
  633MOL0     H87339   9.934  11.698   2.436 -0.2806 -0.4979 -1.2877
  633MOL0     H87340   9.381  11.445   2.562 -2.6545 -0.6426 -0.5295
  633MOL0     H87341   9.189  11.558   2.632 -1.1826 -1.3918 -2.5642
  633MOL0     H87342   9.021  11.662   2.691  0.0888  0.4212 -0.2063
  633MOL0     H87343   9.020  11.790   2.806 -0.8644 -0.0224  0.4236
  633MOL0     H87344   8.899  11.805   2.510 -1.7553  1.4454 -0.5812
  633MOL0     H87345   8.929  11.942   2.620 -1.6953  0.3793  2.3761
  633MOL0     H87346   8.703  11.763   2.612 -1.0353 -5.0126  1.6840
  633MOL0     H87347   8.798  11.704   2.757  1.9003 -0.2496  0.2180
  633MOL0     H87348   8.718  11.987   2.689 -2.8089  0.2008  0.5808
  633MOL0     H87349   8.809  11.941   2.834  0.8178 -0.6206 -1.0260
  633MOL0     H87350   8.404  11.782   2.904  0.2047 -1.7819 -0.5956
  633MOL0     H87351   9.356  11.935   2.619  0.8221  0.0428  1.0251
  633MOL0     H87352   9.696  11.840   2.513  0.6601 -2.4773  2.0513
  633MOL0     H87353   9.579  11.960   2.586 -1.7916 -0.1657 -0.0432
  633MOL0     H87354   9.673  11.838   2.684  1.7935 -0.8668 -1.2034
  634MOL0     O87355   3.304   6.361   8.338 -0.2967 -1.1705 -0.3648
  634MOL0     C87356   3.327   6.289   8.241  0.6602  0.4318  0.1337
  634MOL0     O87357   3.340   6.332   8.109  0.4417  0.1380  0.3057
  634MOL0     C87358   3.256   6.439   8.074 -0.5758 -0.3116  0.4545
  634MOL0     C87359   3.123   6.453   8.125 -0.2642 -0.3649  0.0792
  634MOL0     C87360   3.050   6.560   8.082 -0.8902 -1.1153 -0.5956
  634MOL0     C87361   3.101   6.657   7.998  0.5337 -0.9407  0.6209
  634MOL0     O87362   3.030   6.771   7.963  0.2059 -0.4788  0.6210
  634MOL0     C87363   2.925   6.814   8.050  0.2124  0.1007 -0.8196
  634MOL0     C87364   2.874   6.950   8.021  0.3869 -0.7990 -0.1193
  634MOL0     C87365   2.982   7.062   8.049 -0.2126 -0.3194  0.4561
  634MOL0     C87366   2.948   7.193   7.976 -0.2204 -0.5900 -0.4398
  634MOL0     C87367   3.006   7.323   8.039  0.3446 -1.2019 -0.1291
  634MOL0     C87368   3.152   7.338   8.047 -0.1827  0.0638  0.4142
  634MOL0     C87369   3.210   7.475   8.038  0.5667  0.4169  0.1307
  634MOL0     C87370   3.359   7.470   8.035  1.0390  0.4641  0.4743
  634MOL0     N87371   3.400   7.608   8.018  0.1071  0.3390  0.2988
  634MOL0     C87372   3.408   7.673   7.906  0.8327 -0.7981 -0.2027
  634MOL0     C87373   3.429   7.805   7.946 -0.6872 -1.2755  0.3681
  634MOL0     C87374   3.460   7.931   7.866 -0.1886  0.1427  0.5614
  634MOL0     C87375   3.512   7.895   7.724  0.7538 -0.2921 -0.3681
  634MOL0     C87376   3.499   8.019   7.630  0.2695  0.5463 -0.0497
  634MOL0     C87377   3.400   8.009   7.518 -0.4945  0.6955  0.4407
  634MOL0     O87378   3.278   7.949   7.558 -0.7133  0.5693 -0.4178
  634MOL0     C87379   3.178   7.937   7.467  0.1946  0.8339 -0.0385
  634MOL0     C87380   3.178   7.998   7.340  0.1412 -0.6071 -0.4676
  634MOL0     C87381   3.079   7.956   7.247  0.0725 -0.6237  1.4686
  634MOL0     C87382   3.096   8.012   7.112 -0.0329  0.0306  0.3179
  634MOL0     C87383   2.976   7.861   7.286  1.0615 -0.2723  0.5894
  634MOL0     C87384   2.874   7.811   7.191 -0.0561 -0.2462 -0.7078
  634MOL0     O87385   2.755   7.889   7.182 -0.8337  0.3460  0.2301
  634MOL0     C87386   2.664   7.851   7.088  0.2963  0.5727 -0.2473
  634MOL0     C87387   2.555   7.769   7.128  0.1526  0.2333  0.4449
  634MOL0     C87388   2.454   7.716   7.050  0.2365 -0.3634  0.3914
  634MOL0     C87389   2.446   7.770   6.918  0.6344 -0.3672  0.0038
  634MOL0     O87390   2.356   7.748   6.819  0.1645  0.2982  0.2034
  634MOL0     C87391   2.250   7.660   6.856 -0.2474  1.2180 -0.0514
  634MOL0     C87392   2.133   7.672   6.763 -0.1970 -0.1627  0.1685
  634MOL0     C87393   2.035   7.555   6.772  0.4246 -0.1198  0.4006
  634MOL0     C87394   1.990   7.517   6.913  0.2261 -0.2725 -0.1744
  634MOL0     C87395   1.876   7.420   6.890 -1.3830 -0.1401  0.1477
  634MOL0     C87396   1.817   7.367   7.023  0.4790  0.6577  1.0137
  634MOL0     C87397   1.922   7.266   7.093 -0.5057 -0.1988  0.1392
  634MOL0     C87398   1.889   7.223   7.234  1.2250 -0.8687  0.0213
  634MOL0    Cl87399   1.740   7.138   7.243  1.1271 -0.1397  0.1177
  634MOL0     C87400   2.558   7.855   6.871  0.0214  0.7216  0.1729
  634MOL0     C87401   2.660   7.895   6.957 -0.8777  0.2273  0.5324
  634MOL0     O87402   2.895   7.707   7.130 -0.6149  0.2377 -0.2146
  634MOL0     C87403   2.978   7.811   7.413  0.3536  0.3240  0.5909
  634MOL0     C87404   3.078   7.841   7.500  0.3430 -0.6464  0.8780
  634MOL0     N87405   3.432   7.816   8.080  0.3626  0.1573 -0.0808
  634MOL0     N87406   3.412   7.693   8.117 -0.8577 -1.5376 -0.7883
  634MOL0     C87407   3.226   6.641   7.945 -0.8981 -0.9850 -0.0448
  634MOL0     C87408   3.305   6.529   7.986  0.1490 -0.2013  0.3134
  634MOL0     C87409   3.379   6.148   8.265 -0.9777  0.3971  0.4494
  634MOL0     C87410   3.489   6.111   8.188  1.5584  0.5037 -0.1136
  634MOL0     C87411   3.538   5.980   8.203 -0.7157 -0.6251 -0.5672
  634MOL0     C87412   3.494   5.890   8.301  0.0070  0.0144 -0.7256
  634MOL0     O87413   3.569   5.774   8.324 -0.1301  0.0654  0.0446
  634MOL0     C87414   3.530   5.672   8.416 -0.0285 -0.8519  0.2809
  634MOL0     C87415   3.565   5.704   8.564 -0.2307  0.2778 -0.4449
  634MOL0     C87416   3.713   5.759   8.587  0.3568 -0.0655 -0.0387
  634MOL0     C87417   3.813   5.644   8.575 -0.1654 -0.4043  0.9066
  634MOL0     C87418   3.951   5.689   8.599 -0.4865 -0.3530  0.0163
  634MOL0     C87419   4.074   5.706   8.598 -0.4122 -0.8610  0.1885
  634MOL0     C87420   3.393   5.933   8.382  0.3858 -0.4503 -0.8019
  634MOL0     C87421   3.335   6.061   8.368  0.1113 -0.0604 -0.2997
  634MOL0     C87422   3.222   6.100   8.462  0.0082  0.1447  0.3000
  634MOL0     H87423   3.070   6.380   8.185 -0.5169 -1.1078 -1.0075
  634MOL0     H87424   2.951   6.567   8.126 -0.6341 -2.7441  0.3065
  634MOL0     H87425   2.972   6.818   8.148  1.7179  0.1738 -1.5086
  634MOL0     H87426   2.848   6.738   8.038 -1.1479  1.5069 -1.3348
  634MOL0     H87427   2.849   6.965   7.915 -1.1407 -1.2958  0.1432
  634MOL0     H87428   2.792   6.972   8.090 -0.9920 -1.7008 -1.3918
  634MOL0     H87429   2.977   7.098   8.152 -1.5267  1.5944 -0.2203
  634MOL0     H87430   3.081   7.024   8.021 -0.5886 -2.3390  1.6325
  634MOL0     H87431   2.975   7.181   7.870  3.3720  1.5545  0.0747
  634MOL0     H87432   2.839   7.204   7.978 -0.1230  0.3512  0.1256
  634MOL0     H87433   2.983   7.348   8.143  1.2613  2.3618 -0.6660
  634MOL0     H87434   2.955   7.400   7.981 -2.8342 -1.8464  1.5445
  634MOL0     H87435   3.195   7.283   8.132 -1.3224 -3.9898 -1.4012
  634MOL0     H87436   3.197   7.281   7.965  0.8002  0.7914  0.4219
  634MOL0     H87437   3.179   7.542   8.119  0.4130 -1.4898  1.7172
  634MOL0     H87438   3.174   7.520   7.945  1.8915  0.7964 -0.2199
  634MOL0     H87439   3.402   7.426   8.126 -1.9444 -1.1510  1.2122
  634MOL0     H87440   3.396   7.413   7.949  2.1144 -0.0526  1.2435
  634MOL0     H87441   3.395   7.635   7.806 -2.9710 -0.4256 -0.0282
  634MOL0     H87442   3.534   8.002   7.905  1.8609 -1.4806 -0.1248
  634MOL0     H87443   3.364   7.982   7.856  0.0749  0.7217  0.9356
  634MOL0     H87444   3.614   7.856   7.732  0.3790 -1.8222 -2.2709
  634MOL0     H87445   3.459   7.810   7.679  1.2028 -0.6680 -0.1903
  634MOL0     H87446   3.488   8.112   7.686  1.7875  3.5006 -4.1590
  634MOL0     H87447   3.597   8.029   7.582  0.2136  3.1312  0.2582
  634MOL0     H87448   3.371   8.113   7.497  0.1853  0.4076 -2.3138
  634MOL0     H87449   3.441   7.963   7.428  0.3453  1.9428  0.1527
  634MOL0     H87450   3.247   8.079   7.318 -0.8261  1.3648  2.9847
  634MOL0     H87451   3.002   8.027   7.058  0.2936  0.9411 -0.0081
  634MOL0     H87452   3.156   7.950   7.044  0.1931  0.4181  0.1591
  634MOL0     H87453   3.144   8.110   7.104 -0.6900  0.2579 -1.0871
  634MOL0     H87454   2.550   7.746   7.234  1.5687  2.1934  1.0092
  634MOL0     H87455   2.377   7.656   7.098 -1.6845  2.2218  0.7650
  634MOL0     H87456   2.294   7.560   6.860  2.2114  2.1902 -0.4177
  634MOL0     H87457   2.210   7.676   6.957 -0.9714  2.6778 -0.5392
  634MOL0     H87458   2.089   7.767   6.795  3.0544  1.6695 -0.3541
  634MOL0     H87459   2.155   7.684   6.657 -1.4561  3.3626  0.1796
  634MOL0     H87460   2.072   7.464   6.724 -0.8588  0.4803 -1.9099
  634MOL0     H87461   1.946   7.590   6.718  1.2846 -1.0577 -1.7058
  634MOL0     H87462   1.976   7.609   6.970  0.9898  0.9373 -1.8509
  634MOL0     H87463   2.068   7.458   6.962 -1.8720 -2.6990  0.4906
  634MOL0     H87464   1.809   7.462   6.815 -0.1791  0.3887 -0.6657
  634MOL0     H87465   1.913   7.334   6.833  1.5638 -1.2758  3.4374
  634MOL0     H87466   1.735   7.299   6.996  2.3715 -1.1715 -0.4733
  634MOL0     H87467   1.779   7.453   7.080 -1.5569  1.0643 -0.8111
  634MOL0     H87468   2.020   7.314   7.085 -1.1976  1.2268 -0.0995
  634MOL0     H87469   1.940   7.180   7.028 -1.1877 -0.2059 -0.0444
  634MOL0     H87470   1.860   7.311   7.293 -1.5206  0.1690 -2.6172
  634MOL0     H87471   1.969   7.167   7.282  1.9257  0.3820  0.3668
  634MOL0     H87472   2.540   7.892   6.771 -0.5387  1.9543  0.7012
  634MOL0     H87473   2.720   7.972   6.910 -4.4220  2.8747 -0.0209
  634MOL0     H87474   2.900   7.743   7.449  0.4021 -1.3458 -2.1632
  634MOL0     H87475   3.084   7.791   7.596  3.6183 -3.9134 -0.7642
  634MOL0     H87476   3.275   6.710   7.877  0.8436  0.2683  2.3206
  634MOL0     H87477   3.410   6.526   7.956 -0.3698  1.6527 -1.9492
  634MOL0     H87478   3.525   6.188   8.120  1.1563  0.6594 -0.1522
  634MOL0     H87479   3.623   5.970   8.135  0.1951 -1.8646  0.6935
  634MOL0     H87480   3.421   5.657   8.422 -0.5890  2.6031  0.5084
  634MOL0     H87481   3.589   5.582   8.396  2.4729  0.6347  0.7031
  634MOL0     H87482   3.557   5.612   8.621  0.9525  0.8513  0.7131
  634MOL0     H87483   3.495   5.769   8.617 -0.2633 -0.4935  0.4877
  634MOL0     H87484   3.733   5.832   8.508 -0.8284 -1.3127 -1.5439
  634MOL0     H87485   3.720   5.805   8.686  1.2975 -4.4117  2.1553
  634MOL0     H87486   3.812   5.600   8.474 -0.7806 -0.2289  0.8338
  634MOL0     H87487   3.792   5.565   8.647  1.7298 -0.5035  1.4012
  634MOL0     H87488   4.177   5.733   8.611 -0.4306 -0.1102 -1.1385
  634MOL0     H87489   3.351   5.873   8.461 -0.0688  1.9531  0.8758
  634MOL0     H87490   3.180   6.020   8.523 -5.1141  2.2949  0.1499
  634MOL0     H87491   3.265   6.176   8.528 -0.8297  0.8318  0.0771
  634MOL0     H87492   3.132   6.152   8.427 -1.0518 -1.4828  0.4919
  635MOL0     O87493   1.745  11.079   7.689  0.2822 -0.0718 -0.3786
  635MOL0     C87494   1.833  11.163   7.687 -0.5221 -0.4890 -0.6079
  635MOL0     O87495   1.863  11.245   7.584  0.3854 -0.2287  0.1929
  635MOL0     C87496   1.774  11.270   7.485  0.0105 -0.5082  0.7179
  635MOL0     C87497   1.637  11.313   7.511  0.3511 -0.1468  0.2219
  635MOL0     C87498   1.555  11.338   7.397  0.2169  1.0813  0.9371
  635MOL0     C87499   1.600  11.322   7.264  0.3652  0.1858  0.5208
  635MOL0     O87500   1.527  11.335   7.152  0.4995 -0.1158  0.7518
  635MOL0     C87501   1.402  11.410   7.152 -0.3214 -0.4309  0.2134
  635MOL0     C87502   1.345  11.409   7.013  0.5493 -0.8954  0.1927
  635MOL0     C87503   1.437  11.469   6.895  0.5648  0.3146  0.3987
  635MOL0     C87504   1.376  11.597   6.842  0.2884 -0.3753 -0.4026
  635MOL0     C87505   1.454  11.632   6.723  0.0576  0.4944 -0.5565
  635MOL0     C87506   1.419  11.769   6.670 -0.8110 -0.7122  0.2523
  635MOL0     C87507   1.429  11.886   6.758 -0.0492 -0.1652 -0.7264
  635MOL0     C87508   1.421  12.031   6.683 -0.1975  0.3125 -0.4451
  635MOL0     N87509   1.291  12.076   6.666  0.1106 -0.4875  1.0013
  635MOL0     C87510   1.207  12.048   6.562 -0.4101  0.0121 -0.4528
  635MOL0     C87511   1.111  12.144   6.585  0.0777  0.5701  0.2588
  635MOL0     C87512   0.988  12.173   6.497 -0.1497  0.7938 -0.8234
  635MOL0     C87513   0.868  12.071   6.516 -0.1096 -0.7859 -0.2677
  635MOL0     C87514   0.897  11.926   6.484  0.2411 -0.1864  0.0843
  635MOL0     C87515   0.898  11.886   6.335  0.7258 -0.2106 -0.3659
  635MOL0     O87516   1.003  11.948   6.263  0.1648  0.0270  0.3704
  635MOL0     C87517   1.126  11.882   6.274 -0.5981 -0.7681  0.2552
  635MOL0     C87518   1.233  11.961   6.232  0.3759 -0.1946 -0.9249
  635MOL0     C87519   1.363  11.914   6.245  0.1186 -0.0583  0.0147
  635MOL0     C87520   1.475  12.003   6.206  0.6450  0.1465 -0.1703
  635MOL0     C87521   1.390  11.785   6.297 -0.3684  0.4621  0.2545
  635MOL0     C87522   1.524  11.727   6.327  0.3049  0.2870  0.0724
  635MOL0     O87523   1.523  11.592   6.316 -0.1659  0.4738 -0.2741
  635MOL0     C87524   1.635  11.529   6.372 -0.1690  0.5371 -0.8433
  635MOL0     C87525   1.606  11.432   6.478 -0.2864  0.1241  0.9681
  635MOL0     C87526   1.706  11.363   6.538  0.5790  0.7557 -0.0486
  635MOL0     C87527   1.840  11.376   6.499 -0.1464  0.1194  0.0837
  635MOL0     O87528   1.944  11.306   6.553  0.4032 -0.0890 -0.0246
  635MOL0     C87529   2.019  11.224   6.472 -0.2366  0.7668 -0.2309
  635MOL0     C87530   2.082  11.117   6.550 -0.1606  0.3982 -0.6333
  635MOL0     C87531   1.993  10.991   6.579  0.0992  0.4312  0.0853
  635MOL0     C87532   2.073  10.891   6.659  0.3841  0.4247 -0.1429
  635MOL0     C87533   1.984  10.801   6.737  0.7029 -0.2452  0.5150
  635MOL0     C87534   2.071  10.702   6.812 -0.9899 -0.6413  0.3473
  635MOL0     C87535   1.997  10.591   6.887  0.8318  0.1231 -0.6959
  635MOL0     C87536   2.056  10.452   6.878  0.2560 -0.6439 -0.7860
  635MOL0    Cl87537   1.968  10.342   6.979  0.4919 -0.1749  0.5214
  635MOL0     C87538   1.873  11.474   6.414 -0.4441  0.5957 -0.6467
  635MOL0     C87539   1.777  11.549   6.351  0.2223  0.5267  0.2272
  635MOL0     O87540   1.615  11.801   6.348 -0.2009  0.7013 -0.1341
  635MOL0     C87541   1.279  11.711   6.341  0.1367  0.7838  0.2484
  635MOL0     C87542   1.149  11.756   6.328  0.8017 -0.6140  0.1991
  635MOL0     N87543   1.139  12.224   6.702  1.4473 -0.3279  0.1635
  635MOL0     N87544   1.252  12.191   6.745 -0.1659  0.3938  0.7863
  635MOL0     C87545   1.728  11.267   7.252 -0.1717 -0.3321 -0.2751
  635MOL0     C87546   1.819  11.254   7.356  0.9172  0.1774 -0.3478
  635MOL0     C87547   1.936  11.167   7.799 -0.0974  0.8092 -0.3399
  635MOL0     C87548   2.038  11.267   7.793 -0.2923  0.2643  0.1852
  635MOL0     C87549   2.132  11.270   7.898 -0.6621 -0.2906  0.1218
  635MOL0     C87550   2.129  11.185   8.005  0.5596  0.1893 -0.2323
  635MOL0     O87551   2.211  11.212   8.110  0.3126  0.3166  0.1053
  635MOL0     C87552   2.295  11.101   8.140  0.1912  0.8183  1.1012
  635MOL0     C87553   2.429  11.157   8.092 -0.0291  0.9159  0.1581
  635MOL0     C87554   2.546  11.076   8.161  0.0023 -0.1573 -1.0219
  635MOL0     C87555   2.622  11.174   8.254  0.1108  0.0873  0.2244
  635MOL0     C87556   2.727  11.092   8.309  0.2282 -0.1397  0.0663
  635MOL0     C87557   2.815  11.018   8.343 -0.1896 -0.5089 -0.3522
  635MOL0     C87558   2.043  11.081   8.006 -0.0875 -0.6706  0.7060
  635MOL0     C87559   1.946  11.070   7.900 -0.0785 -0.3960 -0.4894
  635MOL0     C87560   1.844  10.953   7.912 -0.4990  0.0978  0.4865
  635MOL0     H87561   1.605  11.330   7.614 -1.3333  3.8683 -0.8033
  635MOL0     H87562   1.450  11.360   7.412 -0.6166 -1.1911 -0.8517
  635MOL0     H87563   1.430  11.513   7.176  2.2776 -1.2385  1.0064
  635MOL0     H87564   1.327  11.374   7.223  2.6223 -1.6686  2.9808
  635MOL0     H87565   1.292  11.317   6.992  1.5386 -1.8527  1.6766
  635MOL0     H87566   1.260  11.478   7.014 -0.9854 -2.6968 -0.4674
  635MOL0     H87567   1.543  11.477   6.919  0.5074  0.2698  0.6662
  635MOL0     H87568   1.427  11.396   6.814 -0.4780  1.9510 -1.0245
  635MOL0     H87569   1.272  11.582   6.812  0.2241 -0.8048  0.0237
  635MOL0     H87570   1.378  11.676   6.918 -3.0118 -0.6626  0.1414
  635MOL0     H87571   1.435  11.556   6.646  2.2417 -0.9886  0.2676
  635MOL0     H87572   1.561  11.623   6.745  0.8450  1.5419 -3.4816
  635MOL0     H87573   1.483  11.795   6.584  0.5083 -2.6253  0.5694
  635MOL0     H87574   1.315  11.762   6.637 -0.4582  1.0980 -1.4524
  635MOL0     H87575   1.531  11.878   6.797  0.2958 -2.7967 -1.9976
  635MOL0     H87576   1.369  11.887   6.849  2.9409  3.0197  1.4646
  635MOL0     H87577   1.482  12.099   6.743 -0.1158 -0.9533  0.9788
  635MOL0     H87578   1.477  12.014   6.591 -0.0394 -1.4988 -0.0732
  635MOL0     H87579   1.204  11.989   6.471 -1.5641  1.5306 -1.4402
  635MOL0     H87580   1.028  12.176   6.395  3.0396  0.8697  0.3111
  635MOL0     H87581   0.963  12.276   6.524 -2.1087  1.2300 -3.8262
  635MOL0     H87582   0.842  12.066   6.622 -0.7482  1.2299 -0.2967
  635MOL0     H87583   0.781  12.108   6.461  0.8747  1.9341 -0.1580
  635MOL0     H87584   0.983  11.891   6.543  0.3361  0.6388  0.4442
  635MOL0     H87585   0.814  11.867   6.522 -0.3842  0.9819  0.5751
  635MOL0     H87586   0.879  11.780   6.319 -0.5886  0.1337 -1.2540
  635MOL0     H87587   0.807  11.922   6.285  0.2761 -1.7464 -0.7008
  635MOL0     H87588   1.203  12.059   6.196  1.5862 -0.1339 -1.8298
  635MOL0     H87589   1.499  12.085   6.274 -1.2326  1.8784 -1.4598
  635MOL0     H87590   1.451  12.060   6.116 -0.2568  3.7945  2.1644
  635MOL0     H87591   1.571  11.958   6.177  1.3464  0.3764  1.6469
  635MOL0     H87592   1.501  11.418   6.501 -0.9167  1.9058 -0.4765
  635MOL0     H87593   1.678  11.289   6.612 -2.0844  1.0073 -0.7206
  635MOL0     H87594   1.957  11.179   6.394 -0.5422  0.5004  0.1616
  635MOL0     H87595   2.099  11.284   6.427 -0.4300  2.2176  1.2673
  635MOL0     H87596   2.176  11.077   6.510  1.6782 -0.5570  3.9947
  635MOL0     H87597   2.115  11.153   6.648 -1.7287 -0.8950  0.4194
  635MOL0     H87598   1.955  10.945   6.487 -0.7731  0.6158  0.3417
  635MOL0     H87599   1.901  11.027   6.625 -1.4537  0.8125 -3.0575
  635MOL0     H87600   2.150  10.940   6.719  1.2380  0.1761 -1.0223
  635MOL0     H87601   2.119  10.827   6.584  1.2373  1.6729 -0.7143
  635MOL0     H87602   1.908  10.844   6.803 -1.1923 -1.3973 -0.7987
  635MOL0     H87603   1.925  10.740   6.668  3.2543 -1.6321 -0.5693
  635MOL0     H87604   2.142  10.754   6.877 -4.4864  1.6733  2.6793
  635MOL0     H87605   2.137  10.654   6.739  2.1923  2.5784  0.8229
  635MOL0     H87606   1.904  10.591   6.829  1.9105  2.9344 -2.7010
  635MOL0     H87607   1.974  10.625   6.988  0.9861  0.7267 -0.8599
  635MOL0     H87608   2.160  10.459   6.914 -0.3286 -2.6276  1.5513
  635MOL0     H87609   2.055  10.409   6.778 -0.0021 -1.5904 -0.3910
  635MOL0     H87610   1.978  11.497   6.404 -0.1642 -0.0397  0.6375
  635MOL0     H87611   1.809  11.622   6.277  0.7636  0.4503  0.3814
  635MOL0     H87612   1.300  11.614   6.384  1.6344 -0.1541 -2.3696
  635MOL0     H87613   1.082  11.677   6.361  2.2879 -2.6707 -1.4500
  635MOL0     H87614   1.765  11.260   7.150 -2.0122 -0.0898 -0.9906
  635MOL0     H87615   1.913  11.204   7.337  0.6081 -0.2103 -0.9000
  635MOL0     H87616   2.033  11.337   7.710 -3.6177 -1.8446 -1.6052
  635MOL0     H87617   2.222  11.330   7.905 -0.2944 -1.0330  2.7943
  635MOL0     H87618   2.301  11.064   8.243 -2.5022 -0.6854  0.8027
  635MOL0     H87619   2.284  11.008   8.084  0.3663  1.0782  0.6235
  635MOL0     H87620   2.437  11.258   8.132  2.5030  0.9344 -0.2377
  635MOL0     H87621   2.425  11.148   7.983 -3.0328 -0.9539  0.3051
  635MOL0     H87622   2.504  10.989   8.214 -3.5757  2.0146  0.1237
  635MOL0     H87623   2.605  11.045   8.075  0.3940  2.3749 -1.7348
  635MOL0     H87624   2.549  11.199   8.332  0.8190  1.2287  0.5510
  635MOL0     H87625   2.653  11.262   8.198 -1.0906 -0.5945 -1.5798
  635MOL0     H87626   2.890  10.948   8.372  1.1995  0.6734 -1.0101
  635MOL0     H87627   2.046  11.003   8.082  3.5627 -2.1159 -0.7327
  635MOL0     H87628   1.847  10.897   7.818 -0.3930  2.2351 -0.8612
  635MOL0     H87629   1.870  10.875   7.984 -1.0084 -1.6108 -1.0842
  635MOL0     H87630   1.746  10.995   7.937 -0.7673 -2.1607  4.0026
  636MOL0     O87631   4.095   0.842   9.355  0.0748  0.0959 -0.2224
  636MOL0     C87632   4.049   0.817   9.465 -0.6763  0.2099 -0.0939
  636MOL0     O87633   4.132   0.775   9.575  0.1232 -0.3418  0.0341
  636MOL0     C87634   4.261   0.750   9.536 -0.6907 -0.4545  0.2073
  636MOL0     C87635   4.294   0.626   9.473  0.0743 -0.6741  0.1076
  636MOL0     C87636   4.436   0.598   9.459  0.0336 -0.4002 -0.2430
  636MOL0     C87637   4.525   0.695   9.501 -0.5398  0.3385  0.4760
  636MOL0     O87638   4.650   0.657   9.463  0.8849  0.4760 -0.3589
  636MOL0     C87639   4.764   0.727   9.507 -0.0492 -0.6206 -0.0231
  636MOL0     C87640   4.882   0.637   9.475 -0.6518  0.2328  0.2710
  636MOL0     C87641   4.906   0.625   9.321 -0.0622  1.3606 -0.5212
  636MOL0     C87642   5.019   0.535   9.270 -0.9077  0.6214  0.5641
  636MOL0     C87643   5.007   0.524   9.114  0.3394  0.3051 -0.3019
  636MOL0     C87644   5.108   0.422   9.062  0.3584 -0.3070  0.0492
  636MOL0     C87645   5.100   0.415   8.910 -0.3532 -0.5743  0.7517
  636MOL0     C87646   5.214   0.325   8.846  0.4840 -1.3251 -0.1397
  636MOL0     N87647   5.230   0.190   8.889 -0.2163  0.1724 -0.9700
  636MOL0     C87648   5.175   0.081   8.859  0.1429  1.2512  1.0554
  636MOL0     C87649   5.241  -0.019   8.929  0.6298  0.1737 -0.5369
  636MOL0     C87650   5.219  -0.170   8.907  0.4979  0.3563  0.1518
  636MOL0     C87651   5.193  -0.204   8.757  0.2828 -0.5193 -0.6791
  636MOL0     C87652   5.202  -0.356   8.731 -0.9266  0.3181  0.1498
  636MOL0     C87653   5.061  -0.422   8.706  0.2599 -0.8308 -1.3259
  636MOL0     O87654   4.999  -0.369   8.590 -0.9982  0.4326  1.1017
  636MOL0     C87655   4.882  -0.414   8.542  0.0531  0.2974  0.0014
  636MOL0     C87656   4.836  -0.358   8.419 -1.2151  0.2565 -0.5536
  636MOL0     C87657   4.719  -0.406   8.356 -0.4651 -0.3629 -0.0423
  636MOL0     C87658   4.715  -0.368   8.206  0.5387  0.8819  0.7606
  636MOL0     C87659   4.640  -0.499   8.423 -0.6661 -0.1739 -0.6695
  636MOL0     C87660   4.519  -0.562   8.363  0.3021 -0.2834 -0.1757
  636MOL0     O87661   4.441  -0.660   8.425  0.5351  0.5832 -0.3006
  636MOL0     C87662   4.333  -0.710   8.360  1.1289  0.0442 -0.2908
  636MOL0     C87663   4.203  -0.645   8.358 -0.3172  0.6353 -0.3537
  636MOL0     C87664   4.083  -0.715   8.316 -0.2163  0.2103  0.7337
  636MOL0     C87665   4.104  -0.843   8.263  0.3481 -0.8495 -0.7481
  636MOL0     O87666   3.995  -0.916   8.227  0.5859 -0.0438 -0.0665
  636MOL0     C87667   3.869  -0.893   8.290 -0.0796  0.3936  0.3107
  636MOL0     C87668   3.832  -1.027   8.354  0.0825  0.1129  0.1977
  636MOL0     C87669   3.952  -1.087   8.445 -0.4819 -0.2588 -0.7148
  636MOL0     C87670   3.927  -1.200   8.538  0.5385 -0.2916 -0.3351
  636MOL0     C87671   4.053  -1.264   8.595  0.3278  0.3890 -1.2530
  636MOL0     C87672   4.152  -1.178   8.674  0.0970  0.3139  0.8137
  636MOL0     C87673   4.234  -1.281   8.749 -0.7018  0.0646  0.6641
  636MOL0     C87674   4.341  -1.220   8.837  0.5482 -0.0041  0.4505
  636MOL0    Cl87675   4.469  -1.126   8.745  0.1067 -0.0439  0.1239
  636MOL0     C87676   4.227  -0.897   8.247  0.2016 -0.2718 -0.4534
  636MOL0     C87677   4.344  -0.833   8.295  1.0872  0.3776 -0.4682
  636MOL0     O87678   4.497  -0.531   8.244 -0.0562 -0.2386  0.2624
  636MOL0     C87679   4.678  -0.543   8.554  0.7574  1.1169  0.7110
  636MOL0     C87680   4.803  -0.513   8.604  0.1553 -0.0364 -0.0038
  636MOL0     N87681   5.340   0.044   9.007  0.1181  0.3359  0.1081
  636MOL0     N87682   5.314   0.173   8.991  0.0645  0.4384  0.4881
  636MOL0     C87683   4.487   0.825   9.542  0.1138 -1.5673 -0.0151
  636MOL0     C87684   4.357   0.846   9.570  0.8220  0.2420 -0.1766
  636MOL0     C87685   3.903   0.833   9.480 -0.0373 -0.5809 -0.4695
  636MOL0     C87686   3.854   0.798   9.607  0.0645 -0.1636 -0.5180
  636MOL0     C87687   3.721   0.803   9.642  0.1164  0.1309 -0.2739
  636MOL0     C87688   3.629   0.845   9.547 -0.4240 -0.2295 -0.2874
  636MOL0     O87689   3.499   0.853   9.595 -0.6586  0.8501  0.1678
  636MOL0     C87690   3.386   0.814   9.509 -0.4695  0.2018  0.2433
  636MOL0     C87691   3.257   0.856   9.562 -0.5868  0.9768 -0.2404
  636MOL0     C87692   3.217   0.790   9.695 -0.1205  0.2488 -0.0955
  636MOL0     C87693   3.086   0.849   9.735 -0.1485 -0.0275 -0.1619
  636MOL0     C87694   3.055   0.789   9.864 -0.4478  0.2754  0.2561
  636MOL0     C87695   3.053   0.747   9.977  0.0933  0.3529 -0.9400
  636MOL0     C87696   3.672   0.880   9.415  0.3217 -0.3247  0.3373
  636MOL0     C87697   3.808   0.878   9.383 -0.2200 -0.3743  0.2363
  636MOL0     C87698   3.841   0.930   9.239  0.1994  0.0248 -0.5312
  636MOL0     H87699   4.207   0.569   9.442 -2.4937  1.4100  2.8577
  636MOL0     H87700   4.469   0.503   9.416  0.7624 -0.6569  0.8703
  636MOL0     H87701   4.762   0.751   9.613 -1.5466 -4.5937  1.0179
  636MOL0     H87702   4.795   0.821   9.459  1.8317  0.0589  2.3334
  636MOL0     H87703   4.974   0.677   9.519  0.8837 -2.4131 -0.3161
  636MOL0     H87704   4.862   0.538   9.517  0.4921 -0.7844 -1.4135
  636MOL0     H87705   4.811   0.592   9.277 -2.0285  4.2176  1.2399
  636MOL0     H87706   4.928   0.721   9.272  1.9434  1.2964  0.1763
  636MOL0     H87707   5.113   0.583   9.299  0.3100 -3.1369  3.5554
  636MOL0     H87708   5.011   0.432   9.304  1.1866 -0.9736 -3.1216
  636MOL0     H87709   5.020   0.622   9.067  0.6626 -0.3818 -1.7057
  636MOL0     H87710   4.907   0.484   9.093  0.3818  0.8583 -1.6506
  636MOL0     H87711   5.204   0.469   9.087  0.1789 -0.7013  1.5443
  636MOL0     H87712   5.098   0.325   9.112 -1.4233  0.6834  1.7376
  636MOL0     H87713   5.129   0.516   8.880 -0.2530 -1.1186 -1.0871
  636MOL0     H87714   4.999   0.388   8.879  0.1866 -1.9286  0.0863
  636MOL0     H87715   5.174   0.325   8.744  0.0233 -0.5789  0.0308
  636MOL0     H87716   5.309   0.378   8.857  0.5064 -0.8828 -2.0881
  636MOL0     H87717   5.094   0.062   8.789 -1.1689 -0.6388  2.9569
  636MOL0     H87718   5.139  -0.205   8.973  2.1713 -0.2826  1.9565
  636MOL0     H87719   5.310  -0.217   8.947  0.2197 -1.5335 -1.3032
  636MOL0     H87720   5.093  -0.171   8.728 -2.9826 -6.6770  1.7683
  636MOL0     H87721   5.277  -0.157   8.705  2.4025 -0.2419  2.6336
  636MOL0     H87722   5.262  -0.367   8.640  1.0736 -2.9193  1.6721
  636MOL0     H87723   5.254  -0.400   8.817  0.1724  2.2249  0.5119
  636MOL0     H87724   5.077  -0.530   8.701  1.4667 -0.9612  2.2913
  636MOL0     H87725   4.989  -0.404   8.787  0.7068  1.4405 -1.3870
  636MOL0     H87726   4.902  -0.290   8.365 -0.2833  0.7854  1.1972
  636MOL0     H87727   4.634  -0.298   8.184  1.4723  2.2602  1.5377
  636MOL0     H87728   4.717  -0.464   8.154  0.1586  0.5432  1.3627
  636MOL0     H87729   4.804  -0.310   8.182  1.0420 -0.0198  0.4112
  636MOL0     H87730   4.183  -0.557   8.419  2.2679 -1.8978  4.7312
  636MOL0     H87731   3.989  -0.660   8.313  1.0435  2.5242  1.6246
  636MOL0     H87732   3.869  -0.821   8.372 -2.6989  0.6526  0.1698
  636MOL0     H87733   3.792  -0.872   8.215  0.7388  4.5489  0.4043
  636MOL0     H87734   3.738  -1.008   8.407  0.3047  0.5624  0.4344
  636MOL0     H87735   3.811  -1.108   8.284 -0.8548  0.1494  0.4151
  636MOL0     H87736   3.991  -0.997   8.493 -0.1940  0.4857 -2.2697
  636MOL0     H87737   4.036  -1.123   8.384 -0.1714 -2.1690  0.7618
  636MOL0     H87738   3.880  -1.289   8.495  4.2428 -1.3099 -2.8561
  636MOL0     H87739   3.865  -1.154   8.615  2.2645 -1.3931  1.8425
  636MOL0     H87740   4.014  -1.328   8.675  1.7009  1.1646  0.0933
  636MOL0     H87741   4.104  -1.325   8.520 -1.3939 -0.6106 -1.6624
  636MOL0     H87742   4.092  -1.107   8.732  0.0465  0.3868  0.6750
  636MOL0     H87743   4.213  -1.119   8.604 -0.5231 -1.2278 -1.1190
  636MOL0     H87744   4.282  -1.344   8.673  0.7394  2.7472 -0.8157
  636MOL0     H87745   4.172  -1.337   8.819 -0.0957  0.8002  1.8061
  636MOL0     H87746   4.382  -1.302   8.896 -1.5623 -0.8032  0.9208
  636MOL0     H87747   4.291  -1.157   8.911  0.7164 -1.5000  1.8970
  636MOL0     H87748   4.224  -0.993   8.196 -0.3857  0.0553 -1.0578
  636MOL0     H87749   4.438  -0.885   8.284 -0.3297 -1.8444 -3.7117
  636MOL0     H87750   4.608  -0.606   8.607 -0.2986  2.6486  1.2052
  636MOL0     H87751   4.824  -0.551   8.703 -1.0024 -2.4921 -0.6372
  636MOL0     H87752   4.564   0.902   9.546 -1.9651  0.5868  1.5776
  636MOL0     H87753   4.317   0.928   9.629  1.5913 -0.6680  1.6816
  636MOL0     H87754   3.918   0.753   9.683 -1.7309  1.2910  1.9829
  636MOL0     H87755   3.695   0.777   9.744 -0.8643  0.2205 -0.4983
  636MOL0     H87756   3.388   0.846   9.404 -3.3833  0.6474  0.2244
  636MOL0     H87757   3.387   0.705   9.510 -1.6169  0.1023  3.5980
  636MOL0     H87758   3.188   0.835   9.480  0.5549 -0.2168 -0.9435
  636MOL0     H87759   3.256   0.963   9.584  1.6082  0.9886  0.0079
  636MOL0     H87760   3.213   0.681   9.685 -2.0549  0.2238  0.5493
  636MOL0     H87761   3.289   0.821   9.772 -1.5194 -1.3335  1.9405
  636MOL0     H87762   3.004   0.817   9.669 -0.9779 -0.4896  1.0471
  636MOL0     H87763   3.089   0.957   9.751  0.4290 -0.3554  2.3402
  636MOL0     H87764   3.075   0.707  10.075  1.1287  0.3410 -1.1639
  636MOL0     H87765   3.602   0.926   9.346  2.9013  2.7806 -0.4526
  636MOL0     H87766   3.922   1.003   9.247  2.3854 -1.8899 -2.9347
  636MOL0     H87767   3.875   0.849   9.174 -1.1385 -0.5014 -0.6031
  636MOL0     H87768   3.756   0.982   9.194  0.2055  0.6592  0.1804
  637MOL0     O87769   5.565   7.313   6.560  0.2862  0.1860 -0.0554
  637MOL0     C87770   5.586   7.197   6.605  1.3664 -0.5716  0.0926
  637MOL0     O87771   5.709   7.144   6.627  0.3042 -0.3463 -0.3997
  637MOL0     C87772   5.824   7.229   6.613  0.4345 -0.1015 -0.0629
  637MOL0     C87773   5.865   7.294   6.497  0.2530  0.6712  0.4370
  637MOL0     C87774   5.995   7.358   6.492  0.1294 -0.2576  0.2514
  637MOL0     C87775   6.083   7.358   6.599  0.8089  0.8984 -0.4783
  637MOL0     O87776   6.212   7.409   6.617  0.0260  0.4258  0.7862
  637MOL0     C87777   6.268   7.491   6.503  0.6983 -0.4537 -0.8022
  637MOL0     C87778   6.383   7.564   6.558  0.5484 -0.2223  0.2475
  637MOL0     C87779   6.483   7.597   6.446 -0.1472 -0.6611  0.3765
  637MOL0     C87780   6.416   7.684   6.330  1.3871  0.2953 -0.3212
  637MOL0     C87781   6.507   7.722   6.219  1.0895  0.3357  0.4678
  637MOL0     C87782   6.632   7.805   6.245 -0.9438 -0.6069 -0.1551
  637MOL0     C87783   6.681   7.879   6.121  0.9403  0.4795 -0.2320
  637MOL0     C87784   6.612   8.010   6.098 -0.5983 -0.0660  0.2074
  637MOL0     N87785   6.655   8.074   5.971 -1.1588 -0.0725  0.7527
  637MOL0     C87786   6.585   8.059   5.855  1.2483  0.4915 -0.0268
  637MOL0     C87787   6.644   8.147   5.770 -0.0420  0.5646 -0.4333
  637MOL0     C87788   6.605   8.165   5.629 -0.5065 -0.2642  0.3945
  637MOL0     C87789   6.721   8.188   5.529 -0.5142 -1.5097 -0.2717
  637MOL0     C87790   6.776   8.058   5.470 -0.7344 -0.2460 -0.8706
  637MOL0     C87791   6.680   7.979   5.389 -0.0666  0.4116 -0.0245
  637MOL0     O87792   6.562   8.056   5.359  0.1120  0.5966  0.1821
  637MOL0     C87793   6.465   7.987   5.289  0.5897 -0.2855 -0.3974
  637MOL0     C87794   6.490   7.943   5.162  0.5647  0.0339 -0.3400
  637MOL0     C87795   6.403   7.868   5.089 -0.5050 -0.3784  0.0952
  637MOL0     C87796   6.461   7.844   4.948 -0.3183 -0.0687  0.0661
  637MOL0     C87797   6.273   7.840   5.144 -0.5829 -0.5947 -0.4176
  637MOL0     C87798   6.158   7.800   5.065  0.6111  0.0365  0.0631
  637MOL0     O87799   6.192   7.737   4.953  0.9210  0.8134  0.8308
  637MOL0     C87800   6.107   7.685   4.856 -0.5365 -0.0229  0.6822
  637MOL0     C87801   5.999   7.607   4.891  0.3538 -0.4876  0.0324
  637MOL0     C87802   5.924   7.560   4.787 -0.3167  1.1479  0.4586
  637MOL0     C87803   5.952   7.579   4.653  0.0620  0.2645  0.0271
  637MOL0     O87804   5.861   7.529   4.562  0.2871  0.5862 -0.0704
  637MOL0     C87805   5.923   7.469   4.443 -0.0851 -0.4546  0.2900
  637MOL0     C87806   5.856   7.340   4.406  0.9052  0.1814 -0.6641
  637MOL0     C87807   5.754   7.361   4.289 -0.2668 -0.0430 -0.2797
  637MOL0     C87808   5.742   7.239   4.201 -0.8752  1.2544 -0.3676
  637MOL0     C87809   5.626   7.261   4.098  0.3751  0.2181 -0.1205
  637MOL0     C87810   5.628   7.162   3.983 -0.0590 -0.3937  0.2146
  637MOL0     C87811   5.501   7.177   3.907  0.2142  0.5482  0.1540
  637MOL0     C87812   5.366   7.162   3.989  0.1552 -0.4603 -0.3654
  637MOL0    Cl87813   5.373   6.999   4.082 -0.1860 -0.1116  0.3640
  637MOL0     C87814   6.061   7.655   4.618  0.4656 -0.3018 -0.4607
  637MOL0     C87815   6.149   7.707   4.720  1.7604 -0.1364  0.1132
  637MOL0     O87816   6.044   7.829   5.105  0.7326  0.1209 -0.1422
  637MOL0     C87817   6.251   7.867   5.286 -0.3503 -1.0853  0.7098
  637MOL0     C87818   6.348   7.944   5.362  0.0946 -0.0224  1.2863
  637MOL0     N87819   6.746   8.207   5.839 -0.2464 -0.7810  0.2080
  637MOL0     N87820   6.755   8.164   5.959  0.9584  0.0478  0.1063
  637MOL0     C87821   6.046   7.280   6.711 -0.3546  0.1171  0.2139
  637MOL0     C87822   5.920   7.221   6.715 -0.1500 -0.8045  0.7464
  637MOL0     C87823   5.476   7.106   6.644  0.6643 -0.9822  0.5382
  637MOL0     C87824   5.518   6.995   6.716  0.2773  0.7175  0.8146
  637MOL0     C87825   5.427   6.903   6.759  0.0657  0.2594 -0.9755
  637MOL0     C87826   5.294   6.901   6.729 -0.4888 -0.3236  0.5461
  637MOL0     O87827   5.205   6.797   6.756 -0.0732  0.1095  1.0110
  637MOL0     C87828   5.255   6.664   6.757 -0.5575  0.2380  1.1200
  637MOL0     C87829   5.151   6.561   6.713  0.7717  0.6472 -0.1613
  637MOL0     C87830   5.110   6.561   6.563  0.0921  0.1592 -0.9909
  637MOL0     C87831   5.020   6.439   6.531 -0.0864 -0.5175 -0.5389
  637MOL0     C87832   5.095   6.315   6.523  0.1289  1.1282  0.1364
  637MOL0     C87833   5.144   6.201   6.510  0.2466 -0.9399  0.8411
  637MOL0     C87834   5.259   7.019   6.655  0.9307  0.2645 -0.4681
  637MOL0     C87835   5.342   7.122   6.609  0.2445  0.7314  0.5594
  637MOL0     C87836   5.288   7.240   6.529 -0.2198 -0.4932 -0.0302
  637MOL0     H87837   5.802   7.279   6.410 -0.3338 -0.6747  1.0634
  637MOL0     H87838   6.023   7.421   6.408 -0.0797 -1.1100 -0.4731
  637MOL0     H87839   6.184   7.550   6.464 -1.2129 -2.3189  0.2463
  637MOL0     H87840   6.314   7.423   6.432 -0.6999  0.2782 -2.4969
  637MOL0     H87841   6.340   7.654   6.604  0.3194 -0.0789 -0.2455
  637MOL0     H87842   6.430   7.504   6.637 -1.5938  2.3670  3.8090
  637MOL0     H87843   6.574   7.647   6.482  0.0021 -1.5678  1.3186
  637MOL0     H87844   6.510   7.499   6.404 -0.3593  0.0550 -1.5239
  637MOL0     H87845   6.340   7.610   6.303 -0.9212  1.9138  1.4118
  637MOL0     H87846   6.364   7.768   6.377  2.4929 -0.0133  1.5669
  637MOL0     H87847   6.444   7.769   6.143 -0.3752 -0.3062  1.2309
  637MOL0     H87848   6.541   7.630   6.170  2.6037  0.1615  1.7514
  637MOL0     H87849   6.615   7.880   6.324  2.0299  2.3943 -2.0977
  637MOL0     H87850   6.716   7.754   6.292  1.5182  0.0878 -3.4760
  637MOL0     H87851   6.666   7.822   6.029  1.5876 -1.3779  0.7596
  637MOL0     H87852   6.790   7.888   6.120  1.0908 -1.0465 -0.7289
  637MOL0     H87853   6.503   8.006   6.103 -0.6198  1.1186  1.2598
  637MOL0     H87854   6.628   8.069   6.189 -1.6850  0.1696  0.2591
  637MOL0     H87855   6.513   7.984   5.824  1.9121  0.0047 -0.4227
  637MOL0     H87856   6.531   8.245   5.619  0.1534  0.1714 -1.3492
  637MOL0     H87857   6.551   8.075   5.598  0.3893 -0.5634 -0.3374
  637MOL0     H87858   6.690   8.242   5.439 -0.6048 -3.1771 -1.3032
  637MOL0     H87859   6.811   8.235   5.570 -1.2025 -1.7946  1.6500
  637MOL0     H87860   6.865   8.079   5.410 -0.8693  1.8332 -0.4151
  637MOL0     H87861   6.818   7.981   5.535 -0.0269  1.7852  1.2100
  637MOL0     H87862   6.731   7.965   5.293  2.2103 -0.8805  1.2754
  637MOL0     H87863   6.658   7.880   5.429 -0.0808 -0.1492 -1.3767
  637MOL0     H87864   6.579   7.989   5.119  2.3176 -2.4282  0.4455
  637MOL0     H87865   6.558   7.893   4.935 -1.4141  2.1139 -0.2423
  637MOL0     H87866   6.395   7.868   4.864  1.2982  0.6269 -1.0624
  637MOL0     H87867   6.490   7.739   4.935  0.8451  0.4130 -1.6165
  637MOL0     H87868   5.984   7.603   4.999  0.0408  1.2814  0.0862
  637MOL0     H87869   5.841   7.492   4.804  3.4942 -4.0706  0.7726
  637MOL0     H87870   5.907   7.543   4.363 -2.3426 -2.2986 -1.0770
  637MOL0     H87871   6.028   7.446   4.465 -0.4565 -1.2280  1.3202
  637MOL0     H87872   5.938   7.277   4.369  0.0751 -0.9979 -0.5164
  637MOL0     H87873   5.809   7.300   4.495 -1.8978 -2.1981 -3.0118
  637MOL0     H87874   5.775   7.439   4.216  0.9056 -0.3512 -0.2837
  637MOL0     H87875   5.658   7.390   4.334 -0.2673 -2.5187  1.5153
  637MOL0     H87876   5.733   7.144   4.255  2.3404  0.1679 -1.4734
  637MOL0     H87877   5.833   7.227   4.141  0.0852 -0.7079  1.3506
  637MOL0     H87878   5.539   7.243   4.162  0.7753 -3.4788 -0.4070
  637MOL0     H87879   5.636   7.363   4.061  2.5069  0.4995  1.0446
  637MOL0     H87880   5.646   7.061   4.022 -0.6607 -0.9123 -0.8248
  637MOL0     H87881   5.708   7.199   3.918 -1.4031  0.8391 -0.7680
  637MOL0     H87882   5.500   7.093   3.837 -1.6481 -0.4162  1.2412
  637MOL0     H87883   5.494   7.274   3.857  0.0389  0.9950  1.0190
  637MOL0     H87884   5.281   7.155   3.920  0.2553  0.3511 -0.5940
  637MOL0     H87885   5.357   7.243   4.062  1.1278  0.5082 -1.2825
  637MOL0     H87886   6.104   7.674   4.520  1.3185 -3.6045 -0.8495
  637MOL0     H87887   6.231   7.772   4.693  1.3152  1.2299  1.8195
  637MOL0     H87888   6.157   7.858   5.339  0.8321 -1.7646  2.7830
  637MOL0     H87889   6.338   7.973   5.466  1.2606  0.1418  1.3610
  637MOL0     H87890   6.102   7.253   6.800 -0.0557 -1.0633 -0.3079
  637MOL0     H87891   5.890   7.160   6.800 -2.3851  0.3042  0.8197
  637MOL0     H87892   5.623   6.972   6.735 -0.0116 -2.4057 -0.7634
  637MOL0     H87893   5.459   6.813   6.811  1.7060  0.8223 -0.9376
  637MOL0     H87894   5.342   6.662   6.690 -0.2680 -0.7177  1.5059
  637MOL0     H87895   5.290   6.624   6.853 -0.4623 -5.4711 -0.9011
  637MOL0     H87896   5.066   6.580   6.780  1.7067  0.6889  1.0348
  637MOL0     H87897   5.180   6.459   6.741 -3.4524 -0.9373 -0.6699
  637MOL0     H87898   5.067   6.659   6.538  1.2759  0.2673 -2.7812
  637MOL0     H87899   5.203   6.559   6.505  1.1366 -1.5279  0.6298
  637MOL0     H87900   4.984   6.448   6.428 -1.0840  0.2956 -0.1335
  637MOL0     H87901   4.942   6.425   6.606  0.9134 -0.7589  0.4815
  637MOL0     H87902   5.180   6.101   6.501 -2.0150 -1.6170 -3.7752
  637MOL0     H87903   5.154   7.028   6.627  0.6417  5.1421  1.0629
  637MOL0     H87904   5.338   7.245   6.432 -1.6731  0.3414 -0.7689
  637MOL0     H87905   5.180   7.227   6.514  0.0167  0.2419 -2.9655
  637MOL0     H87906   5.317   7.333   6.579 -0.0339 -0.4704 -0.1846
  638MOL0     O87907  10.991   8.716   2.898 -0.1704  0.0383  0.0003
  638MOL0     C87908  11.009   8.817   2.831  1.7811  0.3930 -0.7352
  638MOL0     O87909  11.039   8.816   2.703  0.5289  0.3298 -0.4984
  638MOL0     C87910  11.083   8.692   2.645  0.0240 -1.4155 -0.2182
  638MOL0     C87911  11.070   8.683   2.499 -0.0668  1.0737 -0.2242
  638MOL0     C87912  11.119   8.576   2.419 -0.6821 -0.4848  0.4584
  638MOL0     C87913  11.187   8.475   2.475 -0.5365  0.3441 -0.3903
  638MOL0     O87914  11.236   8.379   2.402  0.3401  0.0263 -0.4310
  638MOL0     C87915  11.144   8.275   2.358  0.2777 -0.8335 -0.3226
  638MOL0     C87916  11.194   8.189   2.240  0.5936  0.0291 -0.1729
  638MOL0     C87917  11.255   8.280   2.130 -0.6526 -0.3731 -1.1199
  638MOL0     C87918  11.243   8.207   1.994 -0.0961 -0.3466 -0.0465
  638MOL0     C87919  11.310   8.277   1.876 -0.3471  0.0558  0.1738
  638MOL0     C87920  11.269   8.221   1.738 -0.5890  0.4465  0.0985
  638MOL0     C87921  11.334   8.286   1.619 -0.2377  0.2329  0.3028
  638MOL0     C87922  11.490   8.264   1.601  0.6653  0.6186 -0.5019
  638MOL0     N87923  11.522   8.116   1.603  0.4192  0.3625 -0.2073
  638MOL0     C87924  11.560   8.043   1.719  0.3959 -0.2209  0.1341
  638MOL0     C87925  11.550   7.907   1.686 -0.4005  0.4771  0.3072
  638MOL0     C87926  11.578   7.795   1.788 -0.6807 -0.4459  0.2856
  638MOL0     C87927  11.584   7.653   1.716 -0.4970 -0.3485  0.0731
  638MOL0     C87928  11.696   7.645   1.621  0.0788  0.8574  0.1488
  638MOL0     C87929  11.830   7.632   1.693 -0.1344 -0.1678  0.7952
  638MOL0     O87930  11.830   7.525   1.789 -0.5253 -0.9709  0.2222
  638MOL0     C87931  11.914   7.509   1.886 -0.7481 -0.4772 -0.0617
  638MOL0     C87932  12.051   7.539   1.870  0.4942 -0.7309  1.7904
  638MOL0     C87933  12.143   7.498   1.961  0.6531 -0.8584 -0.0698
  638MOL0     C87934  12.279   7.539   1.933 -0.7237 -0.2011  0.1903
  638MOL0     C87935  12.106   7.434   2.084  0.0687 -0.9647  0.5164
  638MOL0     C87936  12.212   7.366   2.172  0.0544 -0.5281  0.4822
  638MOL0     O87937  12.150   7.281   2.259 -0.1729 -0.0664 -0.2770
  638MOL0     C87938  12.189   7.266   2.386 -0.8028 -0.1382  0.5536
  638MOL0     C87939  12.106   7.295   2.498  1.0074 -0.6838 -0.4041
  638MOL0     C87940  12.151   7.300   2.630  0.8913  0.4510  0.1301
  638MOL0     C87941  12.278   7.252   2.653 -0.1189 -0.0859 -0.3460
  638MOL0     O87942  12.308   7.243   2.789 -0.2605  0.1678  0.4038
  638MOL0     C87943  12.294   7.360   2.873  0.8126 -0.3390  0.3125
  638MOL0     C87944  12.366   7.492   2.842  0.2498 -0.5237  0.6490
  638MOL0     C87945  12.483   7.508   2.936 -0.6259 -0.9597  0.4906
  638MOL0     C87946  12.612   7.448   2.870  0.5238  0.4159 -0.4304
  638MOL0     C87947  12.721   7.497   2.962 -0.2054  0.1599 -0.1174
  638MOL0     C87948  12.867   7.464   2.904  0.2066 -0.3094  0.1726
  638MOL0     C87949  12.974   7.554   2.970  1.0250  1.1103  0.3267
  638MOL0     C87950  12.968   7.694   2.911 -0.0109 -0.5232 -0.1823
  638MOL0    Cl87951  13.080   7.782   3.013 -0.0423 -0.4884  0.3998
  638MOL0     C87952  12.363   7.206   2.552 -0.4042 -0.1202  0.2991
  638MOL0     C87953  12.323   7.223   2.419 -0.4456  0.3867  0.3636
  638MOL0     O87954  12.334   7.380   2.155 -0.0714  0.0164 -0.7514
  638MOL0     C87955  11.970   7.409   2.103 -0.4356  0.4808 -0.3992
  638MOL0     C87956  11.873   7.447   2.004  0.0472  0.1531 -0.1517
  638MOL0     N87957  11.518   7.910   1.552  0.1715 -0.0720 -0.3019
  638MOL0     N87958  11.514   8.028   1.502 -0.3434 -0.9612  0.1968
  638MOL0     C87959  11.203   8.475   2.617 -0.3169 -0.5189 -0.2454
  638MOL0     C87960  11.165   8.587   2.708  0.3174  0.0757 -0.2350
  638MOL0     C87961  10.977   8.955   2.898  0.0757  1.1577  0.3026
  638MOL0     C87962  10.987   9.072   2.826  0.2034  0.9293  0.2006
  638MOL0     C87963  10.948   9.202   2.876  0.3781  0.1287 -0.5509
  638MOL0     C87964  10.912   9.216   3.008 -0.1959  0.7611 -0.5085
  638MOL0     O87965  10.884   9.327   3.078  0.8014 -0.2795 -0.4135
  638MOL0     C87966  10.961   9.449   3.046  1.0543  0.6915 -0.4175
  638MOL0     C87967  10.923   9.558   3.154  0.0375 -0.1945  0.9285
  638MOL0     C87968  10.957   9.523   3.303  0.4079 -0.1530  0.4550
  638MOL0     C87969  10.913   9.623   3.407  0.2948 -0.2052  0.7130
  638MOL0     C87970  10.928   9.769   3.384  0.4930 -1.1191  0.8272
  638MOL0     C87971  10.924   9.884   3.364 -1.0142 -0.5190 -0.9317
  638MOL0     C87972  10.906   9.099   3.093  0.8396 -0.0242  0.5614
  638MOL0     C87973  10.927   8.972   3.027  0.5241 -0.3933  0.4069
  638MOL0     C87974  10.881   8.858   3.112  0.1213 -0.3601  0.5704
  638MOL0     H87975  11.015   8.757   2.442  1.0459  3.1628  1.3055
  638MOL0     H87976  11.097   8.578   2.313 -0.7772 -2.0221  0.4311
  638MOL0     H87977  11.050   8.321   2.326  1.8240  0.4592 -3.3534
  638MOL0     H87978  11.141   8.208   2.445  1.0094 -0.1532  0.2378
  638MOL0     H87979  11.273   8.124   2.277  0.2258 -1.9071 -2.5150
  638MOL0     H87980  11.111   8.125   2.209 -0.3446  1.8201 -1.5308
  638MOL0     H87981  11.186   8.363   2.111 -0.8548 -0.9320 -3.0850
  638MOL0     H87982  11.356   8.319   2.144 -2.0516  2.7459  1.9484
  638MOL0     H87983  11.288   8.108   2.012  0.4364  0.2078  1.9077
  638MOL0     H87984  11.137   8.190   1.974 -1.3126  1.5969  3.8218
  638MOL0     H87985  11.419   8.265   1.880 -0.1825  1.4264  0.1454
  638MOL0     H87986  11.292   8.384   1.866  1.3454  0.1404 -3.9730
  638MOL0     H87987  11.296   8.115   1.735 -1.9597  0.0568  0.9326
  638MOL0     H87988  11.160   8.214   1.729 -0.7438  0.3341  1.8207
  638MOL0     H87989  11.312   8.394   1.620  0.3241  0.3589  2.1344
  638MOL0     H87990  11.280   8.240   1.535  0.9813  1.6589 -1.3521
  638MOL0     H87991  11.521   8.317   1.510  3.1013  1.2253  0.6154
  638MOL0     H87992  11.539   8.311   1.686 -0.6626 -2.0939  1.9314
  638MOL0     H87993  11.576   8.082   1.819  0.8530  3.5538 -1.2644
  638MOL0     H87994  11.480   7.800   1.836 -0.3567  0.2198  0.8913
  638MOL0     H87995  11.660   7.813   1.858 -1.7888  0.1989  1.4420
  638MOL0     H87996  11.601   7.576   1.791  2.0429 -0.5326 -0.5684
  638MOL0     H87997  11.494   7.629   1.659  0.2891 -2.7029 -0.2966
  638MOL0     H87998  11.687   7.559   1.555 -0.4375 -0.4557  1.8413
  638MOL0     H87999  11.710   7.734   1.560  0.5371 -0.1484 -1.2677
  638MOL0     H88000  11.903   7.609   1.614 -2.2414  0.4789 -1.4656
  638MOL0     H88001  11.851   7.726   1.745  3.1157 -0.3583  0.0800
  638MOL0     H88002  12.078   7.579   1.773  0.3093 -3.0192  0.7298
  638MOL0     H88003  12.345   7.453   1.923  0.4915  0.7569 -0.2695
  638MOL0     H88004  12.313   7.597   2.019  1.3095  0.4233 -0.9695
  638MOL0     H88005  12.289   7.595   1.840  1.0944  0.9630  1.0304
  638MOL0     H88006  12.006   7.327   2.471  0.6007 -1.0552  0.6110
  638MOL0     H88007  12.082   7.328   2.708  1.3447  2.1598 -0.0426
  638MOL0     H88008  12.194   7.403   2.867  0.1924 -1.5035  1.5998
  638MOL0     H88009  12.322   7.328   2.974  0.6050 -0.3675  0.3625
  638MOL0     H88010  12.390   7.496   2.735 -3.3261  4.9132 -0.3773
  638MOL0     H88011  12.297   7.577   2.852 -0.5370 -1.1322  0.4632
  638MOL0     H88012  12.456   7.477   3.038 -1.6514 -2.2840 -0.1669
  638MOL0     H88013  12.500   7.616   2.933 -2.9059 -0.5908 -1.1635
  638MOL0     H88014  12.627   7.489   2.770 -1.4422  4.4868  0.7243
  638MOL0     H88015  12.609   7.339   2.876 -2.1219  0.4792  1.1936
  638MOL0     H88016  12.718   7.606   2.974 -0.4656  0.1443 -0.0440
  638MOL0     H88017  12.702   7.455   3.061 -1.3635  2.4339  0.7010
  638MOL0     H88018  12.879   7.479   2.796  1.7407 -0.3947  0.3145
  638MOL0     H88019  12.875   7.356   2.917 -0.6421 -0.8573 -3.0805
  638MOL0     H88020  13.071   7.511   2.947  0.7429  0.3937  0.4504
  638MOL0     H88021  12.953   7.534   3.076  0.7816 -2.0275 -0.2269
  638MOL0     H88022  12.867   7.737   2.910  0.3976  0.5385 -2.0766
  638MOL0     H88023  13.016   7.695   2.812 -0.8373 -0.4983 -0.5961
  638MOL0     H88024  12.461   7.169   2.582 -1.1185  0.2273  3.4095
  638MOL0     H88025  12.402   7.201   2.347 -0.1600 -1.3384  1.1398
  638MOL0     H88026  11.929   7.340   2.176  2.2458 -0.5128  0.2721
  638MOL0     H88027  11.771   7.416   2.024 -1.1285  3.7937  0.2245
  638MOL0     H88028  11.266   8.397   2.658  1.3688  0.4772 -0.8672
  638MOL0     H88029  11.197   8.579   2.812  1.0359  2.8691 -0.1721
  638MOL0     H88030  11.028   9.082   2.726  2.2354  1.1035  1.0005
  638MOL0     H88031  10.960   9.290   2.814 -2.3745 -0.1932 -1.6704
  638MOL0     H88032  11.070   9.441   3.036  0.8818 -0.2455 -1.7847
  638MOL0     H88033  10.920   9.490   2.954 -0.1135  0.6431  0.0693
  638MOL0     H88034  10.815   9.573   3.151  0.1766  0.6609 -0.1104
  638MOL0     H88035  10.980   9.646   3.123  0.6142 -1.1735 -0.9389
  638MOL0     H88036  10.913   9.429   3.337 -0.4235  0.4182  0.9926
  638MOL0     H88037  11.066   9.517   3.304  0.6362  2.4745 -0.7822
  638MOL0     H88038  10.966   9.616   3.503  0.8702  2.6302  0.6712
  638MOL0     H88039  10.808   9.603   3.430  0.2367 -0.7178  0.0311
  638MOL0     H88040  10.931   9.990   3.353 -0.8981 -0.4026  0.1449
  638MOL0     H88041  10.862   9.105   3.192  0.6603  2.7250  0.4131
  638MOL0     H88042  10.819   8.792   3.051 -1.8828  0.7393  1.3450
  638MOL0     H88043  10.974   8.811   3.147  0.7646  0.1334 -0.4373
  638MOL0     H88044  10.821   8.884   3.200 -1.1041  3.2657 -1.1580
  639MOL0     O88045   0.297   2.752   2.039  0.3490 -0.0284 -0.2779
  639MOL0     C88046   0.272   2.858   2.104 -0.4672  0.3289  0.9718
  639MOL0     O88047   0.338   2.974   2.088 -0.1329  0.7200  0.4852
  639MOL0     C88048   0.461   2.975   2.024  0.5956 -0.7576  0.6762
  639MOL0     C88049   0.558   2.882   2.029 -1.0165  0.7751  0.1692
  639MOL0     C88050   0.680   2.892   1.953 -0.3683 -0.3054  0.1234
  639MOL0     C88051   0.706   3.011   1.887 -0.2273  0.0969  1.1147
  639MOL0     O88052   0.827   3.030   1.823  0.1610  0.2131  0.0094
  639MOL0     C88053   0.877   3.159   1.805 -0.3989 -0.3849 -1.0413
  639MOL0     C88054   1.032   3.158   1.777  0.1022  0.2655  0.2111
  639MOL0     C88055   1.087   3.307   1.777 -0.0578 -0.3068 -0.0139
  639MOL0     C88056   1.240   3.305   1.768 -0.2699  0.1820 -0.0883
  639MOL0     C88057   1.285   3.446   1.725  0.1834  0.1450  0.3737
  639MOL0     C88058   1.438   3.453   1.704  0.0431  0.0501 -0.3783
  639MOL0     C88059   1.513   3.484   1.830 -0.1542 -0.0989 -1.4942
  639MOL0     C88060   1.504   3.626   1.875  0.2982 -0.1467  0.3728
  639MOL0     N88061   1.575   3.726   1.795  0.1861 -0.1569  0.3501
  639MOL0     C88062   1.700   3.716   1.740 -0.4737  0.1418 -0.4127
  639MOL0     C88063   1.714   3.819   1.659  0.4151  0.0122 -0.5849
  639MOL0     C88064   1.826   3.850   1.572  0.6132  0.5835  0.3746
  639MOL0     C88065   1.964   3.864   1.635  0.3277  0.5924  0.7467
  639MOL0     C88066   2.068   3.930   1.546 -0.3967 -0.3519 -0.2651
  639MOL0     C88067   2.088   4.085   1.572  0.0791 -0.3348 -0.6500
  639MOL0     O88068   2.171   4.145   1.474 -0.3175  0.4806  0.4221
  639MOL0     C88069   2.306   4.153   1.486  0.0088  0.5452  0.0958
  639MOL0     C88070   2.377   4.090   1.590  0.0536  0.2925  0.1287
  639MOL0     C88071   2.514   4.109   1.613  0.0163  0.3235 -0.1376
  639MOL0     C88072   2.579   4.034   1.733 -0.2087 -0.4373 -0.5689
  639MOL0     C88073   2.585   4.196   1.521  0.0038  0.1251 -0.2835
  639MOL0     C88074   2.731   4.198   1.523  0.2170 -0.0319 -0.4700
  639MOL0     O88075   2.795   4.302   1.469 -0.4575 -0.3230 -0.3700
  639MOL0     C88076   2.929   4.324   1.511  0.1023 -0.2101 -0.2068
  639MOL0     C88077   3.036   4.317   1.423  0.1346 -0.4223 -0.0584
  639MOL0     C88078   3.168   4.324   1.476 -0.0552  0.5292 -0.5691
  639MOL0     C88079   3.192   4.358   1.611  0.1956  0.8436  0.7065
  639MOL0     O88080   3.314   4.394   1.663 -0.1057  0.8883 -0.2754
  639MOL0     C88081   3.429   4.398   1.573 -0.5030 -0.2222 -0.0476
  639MOL0     C88082   3.554   4.380   1.663 -0.8680 -0.1707 -0.3869
  639MOL0     C88083   3.568   4.479   1.773 -0.1517  0.1107 -0.0241
  639MOL0     C88084   3.599   4.617   1.704  0.4172 -0.1023  0.1835
  639MOL0     C88085   3.618   4.718   1.816  0.2303  0.3573 -0.7155
  639MOL0     C88086   3.617   4.854   1.772  0.1145 -0.3415  0.3392
  639MOL0     C88087   3.681   4.950   1.878  0.4647 -0.0719  0.1811
  639MOL0     C88088   3.658   5.097   1.845 -0.5483  1.2696  0.4604
  639MOL0    Cl88089   3.752   5.191   1.956  0.4238  0.1478 -0.4801
  639MOL0     C88090   3.079   4.365   1.698  0.7933  0.3248  1.0462
  639MOL0     C88091   2.949   4.359   1.647  0.7501 -0.2534  0.6589
  639MOL0     O88092   2.788   4.106   1.575  0.3524  0.9121 -0.0030
  639MOL0     C88093   2.522   4.259   1.411  0.2260  0.0505  0.3517
  639MOL0     C88094   2.378   4.237   1.397 -0.6026  0.4540 -0.0705
  639MOL0     N88095   1.605   3.905   1.670  0.2651  0.7936  0.2665
  639MOL0     N88096   1.518   3.837   1.734  0.2916  0.3249 -0.1324
  639MOL0     C88097   0.601   3.108   1.873 -0.8209  0.9153 -0.2060
  639MOL0     C88098   0.485   3.095   1.948  0.0014 -0.6041  0.8667
  639MOL0     C88099   0.158   2.859   2.205 -0.3846 -0.1046 -0.4226
  639MOL0     C88100   0.066   2.755   2.193 -0.2275  0.7387 -0.4639
  639MOL0     C88101  -0.035   2.742   2.285  0.5256 -0.6058 -0.4972
  639MOL0     C88102  -0.045   2.833   2.398 -0.1867  0.1923  0.7285
  639MOL0     O88103  -0.120   2.808   2.510  0.8644 -0.0554 -0.0832
  639MOL0     C88104  -0.189   2.675   2.532 -0.4259  0.0652 -0.2132
  639MOL0     C88105  -0.244   2.648   2.665  0.0447  0.5763 -0.2240
  639MOL0     C88106  -0.297   2.506   2.692 -0.0382  0.3190  0.4393
  639MOL0     C88107  -0.381   2.443   2.585  0.1675  0.0785  0.5351
  639MOL0     C88108  -0.295   2.369   2.496 -0.1347  0.8380  0.4501
  639MOL0     C88109  -0.225   2.292   2.428  0.5018  0.5321 -1.1394
  639MOL0     C88110   0.036   2.946   2.401  0.2829 -0.6129  1.0844
  639MOL0     C88111   0.139   2.963   2.297  0.4919  0.0655 -0.4189
  639MOL0     C88112   0.231   3.086   2.315  0.1471 -0.0557 -0.2595
  639MOL0     H88113   0.555   2.787   2.081  0.6217 -0.0019 -1.0754
  639MOL0     H88114   0.755   2.813   1.951 -0.8462 -0.8116  1.3534
  639MOL0     H88115   0.864   3.206   1.903  0.2052 -2.8435  0.3087
  639MOL0     H88116   0.836   3.221   1.725  1.1363  1.6192 -0.3440
  639MOL0     H88117   1.082   3.109   1.860  1.2235 -0.0733 -0.6394
  639MOL0     H88118   1.051   3.108   1.682  5.3454  0.4856  0.8695
  639MOL0     H88119   1.045   3.368   1.695  2.2844 -0.8128 -1.6800
  639MOL0     H88120   1.056   3.352   1.872 -0.5399  2.2470 -1.2730
  639MOL0     H88121   1.294   3.278   1.859  1.9539 -2.6270 -2.0497
  639MOL0     H88122   1.268   3.232   1.692 -4.5691 -0.4427 -1.3567
  639MOL0     H88123   1.242   3.516   1.798 -0.2801  0.2555 -0.0041
  639MOL0     H88124   1.220   3.474   1.642 -0.3680 -0.5223  0.5699
  639MOL0     H88125   1.487   3.360   1.672  1.3148  0.3329  0.6763
  639MOL0     H88126   1.464   3.531   1.632  2.3988  0.8268  1.1898
  639MOL0     H88127   1.617   3.451   1.823 -0.1377 -0.0029 -1.7069
  639MOL0     H88128   1.474   3.422   1.910  3.1300 -0.4642  0.0159
  639MOL0     H88129   1.398   3.653   1.885  0.6904  0.9793  1.8207
  639MOL0     H88130   1.542   3.629   1.977  0.7826 -0.0229  0.1878
  639MOL0     H88131   1.768   3.636   1.767 -2.1310 -0.2046  3.4598
  639MOL0     H88132   1.799   3.944   1.522 -0.3921  1.2727  2.1341
  639MOL0     H88133   1.828   3.768   1.500  0.1099 -0.1965  1.2315
  639MOL0     H88134   1.943   3.920   1.727  0.2105  1.4590  0.2029
  639MOL0     H88135   2.010   3.767   1.656 -0.5809 -0.3626 -1.3812
  639MOL0     H88136   2.161   3.872   1.545 -0.3681 -0.3007 -1.8831
  639MOL0     H88137   2.041   3.924   1.441 -0.6629 -1.1428 -0.1594
  639MOL0     H88138   1.995   4.142   1.584  1.2493  1.7001 -0.7999
  639MOL0     H88139   2.131   4.098   1.672 -0.9774  1.2269 -0.3547
  639MOL0     H88140   2.322   4.020   1.652 -0.2385  0.7028  0.3383
  639MOL0     H88141   2.647   3.951   1.712  0.0908 -0.7700  1.5215
  639MOL0     H88142   2.507   3.995   1.805 -0.1890  0.1705 -0.2088
  639MOL0     H88143   2.629   4.113   1.789  1.1863 -3.8860  3.5443
  639MOL0     H88144   3.026   4.286   1.320  3.7269  1.3704 -1.1099
  639MOL0     H88145   3.245   4.329   1.400 -0.2539  0.5962 -0.7683
  639MOL0     H88146   3.419   4.312   1.505 -0.1241 -0.1611 -0.1854
  639MOL0     H88147   3.439   4.498   1.529  0.0985  0.6950  2.0564
  639MOL0     H88148   3.549   4.277   1.700 -1.9545 -0.8212 -2.2510
  639MOL0     H88149   3.637   4.383   1.593 -0.6173 -0.6255 -0.1139
  639MOL0     H88150   3.643   4.449   1.846  1.1108  1.9307 -0.5216
  639MOL0     H88151   3.476   4.479   1.832 -0.9264  0.2247 -1.1962
  639MOL0     H88152   3.515   4.641   1.638  1.9001 -1.3952 -2.3013
  639MOL0     H88153   3.687   4.615   1.639 -0.7505  1.4892 -1.5566
  639MOL0     H88154   3.544   4.702   1.895  0.6985 -3.8261 -0.8979
  639MOL0     H88155   3.716   4.687   1.852  0.5361  0.4936 -1.4051
  639MOL0     H88156   3.512   4.882   1.760 -0.4713 -2.5450 -0.1056
  639MOL0     H88157   3.670   4.867   1.678  0.6205  1.0306  0.7928
  639MOL0     H88158   3.788   4.932   1.890  0.3432 -1.0506 -0.1559
  639MOL0     H88159   3.641   4.930   1.978 -0.4409 -3.6714 -0.7669
  639MOL0     H88160   3.549   5.103   1.848 -0.7401 -0.9387 -0.3765
  639MOL0     H88161   3.694   5.131   1.748 -0.5428  1.2303  0.4490
  639MOL0     H88162   3.101   4.373   1.804  2.5755 -2.4167  0.9851
  639MOL0     H88163   2.862   4.356   1.713 -0.6041 -1.4707 -1.0637
  639MOL0     H88164   2.579   4.316   1.339  3.4932 -3.5692 -0.2285
  639MOL0     H88165   2.337   4.288   1.310 -1.0643 -2.0872 -1.4330
  639MOL0     H88166   0.613   3.203   1.822 -0.2204  1.6594  1.2739
  639MOL0     H88167   0.412   3.174   1.941  1.3076  0.5014 -1.3754
  639MOL0     H88168   0.063   2.689   2.107 -2.5472  2.3869 -1.7701
  639MOL0     H88169  -0.109   2.664   2.269  0.4965 -0.3955 -1.4039
  639MOL0     H88170  -0.278   2.672   2.468 -2.6223  0.3513  2.6039
  639MOL0     H88171  -0.110   2.602   2.514 -0.0508  0.5366 -0.4979
  639MOL0     H88172  -0.333   2.711   2.676 -1.3580 -1.2770 -0.4366
  639MOL0     H88173  -0.168   2.688   2.732  0.8757 -2.4831  0.7846
  639MOL0     H88174  -0.215   2.438   2.717 -0.5519 -0.1837  0.7614
  639MOL0     H88175  -0.364   2.526   2.777 -1.6945  2.4783 -1.2645
  639MOL0     H88176  -0.435   2.529   2.542  0.9422  0.2229 -0.1801
  639MOL0     H88177  -0.458   2.380   2.629  0.2585  0.3087  1.0285
  639MOL0     H88178  -0.156   2.243   2.362  0.1071 -0.5595 -0.7696
  639MOL0     H88179   0.039   3.014   2.485 -1.2622  3.9213 -2.1002
  639MOL0     H88180   0.326   3.067   2.366  0.7123  1.6075 -0.6590
  639MOL0     H88181   0.247   3.137   2.220  0.5162  2.4421  1.0683
  639MOL0     H88182   0.172   3.154   2.378  0.7233  1.0455 -0.8923
  640MOL0     O88183   2.910   3.405   9.408 -0.3944 -0.5193  0.0052
  640MOL0     C88184   2.904   3.283   9.390 -0.6471 -0.2643  0.4161
  640MOL0     O88185   3.013   3.197   9.395 -0.0906 -0.3980  0.1745
  640MOL0     C88186   3.122   3.214   9.478  0.1935  0.1658 -0.3224
  640MOL0     C88187   3.091   3.256   9.611 -0.1428  0.5622  0.9620
  640MOL0     C88188   3.200   3.260   9.704 -0.0954  0.6078  0.9995
  640MOL0     C88189   3.326   3.205   9.665  0.5200 -0.3224  0.0000
  640MOL0     O88190   3.429   3.190   9.754  0.0680 -0.6466  0.0285
  640MOL0     C88191   3.440   3.261   9.878  0.0814  0.2552 -0.6567
  640MOL0     C88192   3.588   3.278   9.923  1.0663 -0.2918  0.4761
  640MOL0     C88193   3.665   3.391   9.839 -0.1066  0.0312 -0.2312
  640MOL0     C88194   3.802   3.392   9.901 -0.0647 -0.0278  0.0760
  640MOL0     C88195   3.910   3.444   9.807 -0.6826  0.0330 -0.9298
  640MOL0     C88196   3.885   3.586   9.768 -0.3790 -0.0550 -0.8588
  640MOL0     C88197   4.007   3.662   9.718 -0.2238 -0.1139  0.1230
  640MOL0     C88198   3.965   3.771   9.618  0.1528  0.5315  0.2532
  640MOL0     N88199   4.085   3.824   9.550  0.3850  0.2384 -0.8276
  640MOL0     C88200   4.148   3.942   9.586 -0.3442 -0.7589 -1.0355
  640MOL0     C88201   4.244   3.965   9.486 -0.3401  0.3522 -0.6035
  640MOL0     C88202   4.342   4.081   9.466  0.6828 -0.1294  0.7314
  640MOL0     C88203   4.468   4.054   9.555 -0.1232  0.8216 -0.1227
  640MOL0     C88204   4.597   4.121   9.513 -0.1535 -0.1781  0.0230
  640MOL0     C88205   4.702   4.116   9.621 -0.2050 -0.3681 -0.7097
  640MOL0     O88206   4.829   4.119   9.562  0.9763  0.3255 -0.5799
  640MOL0     C88207   4.938   4.053   9.607  0.2247  0.3951  1.0043
  640MOL0     C88208   5.040   4.018   9.516  0.0852  0.3483  0.1780
  640MOL0     C88209   5.148   3.945   9.563  0.9389 -0.7088  0.6364
  640MOL0     C88210   5.245   3.903   9.447  0.1975 -0.7166 -0.1779
  640MOL0     C88211   5.158   3.916   9.701  0.3528  1.1509 -1.4639
  640MOL0     C88212   5.260   3.831   9.763  0.5665  0.4354  0.2482
  640MOL0     O88213   5.348   3.769   9.677  0.6779  0.7615  0.1682
  640MOL0     C88214   5.428   3.679   9.735 -0.2454  0.2923  0.1169
  640MOL0     C88215   5.395   3.543   9.766  0.2091 -0.2537 -0.2798
  640MOL0     C88216   5.481   3.475   9.849  0.0311  0.0298  0.0090
  640MOL0     C88217   5.599   3.524   9.896 -0.5808  0.8108 -0.3901
  640MOL0     O88218   5.683   3.438   9.962 -0.5395 -0.2853  0.3848
  640MOL0     C88219   5.733   3.485  10.090 -0.2960 -0.9636  0.1270
  640MOL0     C88220   5.693   3.378  10.186  0.2053 -0.0979  0.2449
  640MOL0     C88221   5.561   3.305  10.174  0.6692 -0.2710 -0.1707
  640MOL0     C88222   5.519   3.261  10.315  0.2171 -0.2971  0.4300
  640MOL0     C88223   5.606   3.147  10.386  0.3374 -0.0413 -0.0728
  640MOL0     C88224   5.657   3.032  10.295  0.6910 -1.5410  0.0917
  640MOL0     C88225   5.749   2.938  10.371  0.8244 -0.0755  0.1068
  640MOL0     C88226   5.845   2.864  10.280  0.0288 -1.1561  0.7958
  640MOL0    Cl88227   5.964   2.784  10.394 -0.4506 -0.1529 -0.1561
  640MOL0     C88228   5.628   3.663   9.877  0.1334  0.8589  0.1156
  640MOL0     C88229   5.537   3.738   9.801  1.2720  0.5360  0.2409
  640MOL0     O88230   5.262   3.819   9.887 -0.7088  0.4957  0.8423
  640MOL0     C88231   5.063   3.963   9.793 -0.2511  0.2939  0.4858
  640MOL0     C88232   4.947   4.022   9.743  0.2697 -0.2444  0.0202
  640MOL0     N88233   4.230   3.862   9.389  0.3081 -0.1893  0.1628
  640MOL0     N88234   4.142   3.776   9.432  0.3525  0.0591  0.1229
  640MOL0     C88235   3.347   3.163   9.535 -0.1819  1.2288  0.4397
  640MOL0     C88236   3.247   3.163   9.443  0.1185 -0.1776  0.4937
  640MOL0     C88237   2.779   3.208   9.360  0.1556 -0.8133  0.4032
  640MOL0     C88238   2.773   3.072   9.368  0.2619  0.0332 -0.1800
  640MOL0     C88239   2.653   3.001   9.357 -0.4757  0.2647 -0.4312
  640MOL0     C88240   2.530   3.069   9.327 -0.0222 -0.7879  0.3630
  640MOL0     O88241   2.409   2.995   9.336  0.5813  0.0571  0.1970
  640MOL0     C88242   2.276   3.056   9.326  0.2904 -0.2493 -0.7987
  640MOL0     C88243   2.170   2.950   9.331  0.0951  0.2264 -0.5023
  640MOL0     C88244   2.032   3.019   9.312 -0.4187 -1.4166 -0.1321
  640MOL0     C88245   1.929   2.921   9.286  0.1655  0.2506 -0.1642
  640MOL0     C88246   1.783   2.968   9.302  0.2140 -0.4809 -0.6906
  640MOL0     C88247   1.669   2.993   9.339 -0.0573 -0.0139 -0.7954
  640MOL0     C88248   2.537   3.208   9.302 -0.1241  0.3591  0.1870
  640MOL0     C88249   2.658   3.282   9.323  0.1472  0.4438 -0.0592
  640MOL0     C88250   2.647   3.432   9.309 -0.2621 -0.5592  0.1412
  640MOL0     H88251   2.986   3.274   9.633 -0.8702 -0.1081 -1.6503
  640MOL0     H88252   3.166   3.302   9.798 -1.6503  2.4436 -0.2800
  640MOL0     H88253   3.390   3.205   9.957  0.2695  0.3038 -0.5029
  640MOL0     H88254   3.406   3.365   9.875  3.0504  1.4845  1.9534
  640MOL0     H88255   3.587   3.308  10.028  0.0871  1.9008 -0.1069
  640MOL0     H88256   3.645   3.184   9.918  0.7146 -0.4609 -1.2580
  640MOL0     H88257   3.670   3.358   9.735 -1.0786  1.4604 -0.7654
  640MOL0     H88258   3.618   3.490   9.847  2.0700  1.4716 -3.3679
  640MOL0     H88259   3.804   3.441   9.999 -1.8524 -1.9232  1.1302
  640MOL0     H88260   3.832   3.295   9.942  1.3278  1.1527  2.0632
  640MOL0     H88261   3.899   3.381   9.718 -2.5539 -0.6197 -0.2884
  640MOL0     H88262   4.009   3.431   9.851  1.5570  0.1464 -5.3714
  640MOL0     H88263   3.817   3.574   9.683 -0.0889 -2.4558 -0.8067
  640MOL0     H88264   3.835   3.651   9.840 -0.7493  0.1097 -1.2559
  640MOL0     H88265   4.068   3.588   9.665  2.5808  1.6253  0.7481
  640MOL0     H88266   4.052   3.713   9.803 -2.2629  1.3199  0.4107
  640MOL0     H88267   3.901   3.731   9.539  3.0694  1.6299 -2.8792
  640MOL0     H88268   3.930   3.862   9.668 -0.3270  2.4018 -3.1814
  640MOL0     H88269   4.152   3.998   9.679 -0.4495  0.0032 -1.4853
  640MOL0     H88270   4.300   4.179   9.491 -0.5033  0.2916 -2.4621
  640MOL0     H88271   4.377   4.085   9.363 -0.9120 -0.0859  0.1747
  640MOL0     H88272   4.434   4.090   9.653 -0.3930  2.0715 -0.6565
  640MOL0     H88273   4.489   3.947   9.568 -0.3779  1.0349  2.4963
  640MOL0     H88274   4.648   4.061   9.438  4.7139  2.2856  0.9224
  640MOL0     H88275   4.582   4.226   9.486 -1.0963 -0.1247  0.6684
  640MOL0     H88276   4.670   4.210   9.666 -2.3473 -1.3767 -0.0037
  640MOL0     H88277   4.675   4.042   9.698 -1.6524  1.3523  0.5277
  640MOL0     H88278   5.028   4.043   9.411 -0.0727 -0.7424 -0.0704
  640MOL0     H88279   5.253   3.794   9.444  1.6668 -0.6447  0.1828
  640MOL0     H88280   5.347   3.939   9.466 -0.4421  1.8303 -1.1108
  640MOL0     H88281   5.208   3.934   9.349 -0.6244 -2.2342 -0.3800
  640MOL0     H88282   5.307   3.487   9.737 -0.3336  0.3263  0.2034
  640MOL0     H88283   5.458   3.376   9.886 -2.7972 -0.4814 -2.7006
  640MOL0     H88284   5.842   3.490  10.089 -0.3296  2.2793  1.5309
  640MOL0     H88285   5.706   3.588  10.112  2.1460  0.1052 -1.5222
  640MOL0     H88286   5.765   3.296  10.188  0.4571  0.0908 -0.5789
  640MOL0     H88287   5.685   3.429  10.282 -4.0065  2.2817 -1.0914
  640MOL0     H88288   5.577   3.223  10.103 -0.3082  0.2369 -1.0091
  640MOL0     H88289   5.488   3.383  10.151  1.8111  0.2320 -2.3813
  640MOL0     H88290   5.415   3.229  10.299  0.1122  1.4612 -3.2576
  640MOL0     H88291   5.506   3.351  10.376  0.5285  0.7603 -1.0187
  640MOL0     H88292   5.689   3.192  10.441  2.3944 -4.3919  0.7968
  640MOL0     H88293   5.537   3.108  10.462  0.8059 -0.3619  0.1908
  640MOL0     H88294   5.708   3.082  10.212 -0.3343  1.1019  0.9488
  640MOL0     H88295   5.570   2.978  10.257 -0.3409  1.3881 -2.0522
  640MOL0     H88296   5.678   2.860  10.400  1.6378 -1.4447 -1.4324
  640MOL0     H88297   5.797   2.987  10.456  1.7217 -1.6577  0.5375
  640MOL0     H88298   5.890   2.937  10.212 -0.2392 -3.6009 -2.2240
  640MOL0     H88299   5.796   2.792  10.214  1.5621 -0.4249 -1.2426
  640MOL0     H88300   5.715   3.711   9.921 -1.0616  0.9413  2.5575
  640MOL0     H88301   5.551   3.844   9.784  0.0970  1.1115  2.4335
  640MOL0     H88302   5.071   3.941   9.899  0.0592 -1.8997  0.0741
  640MOL0     H88303   4.864   4.035   9.812  1.1698 -0.0988  1.1034
  640MOL0     H88304   3.440   3.116   9.504 -0.1738  1.2247  0.4713
  640MOL0     H88305   3.267   3.104   9.354 -2.1595  0.1792 -0.3189
  640MOL0     H88306   2.855   3.009   9.402  0.3393  0.6518  0.8202
  640MOL0     H88307   2.653   2.892   9.364  0.3672  0.3393  1.2251
  640MOL0     H88308   2.254   3.121   9.412  0.0977 -0.2484 -0.8474
  640MOL0     H88309   2.278   3.115   9.233  0.2364 -2.0861 -2.0084
  640MOL0     H88310   2.175   2.895   9.425 -0.8092 -0.1439 -0.6655
  640MOL0     H88311   2.180   2.879   9.249  0.2086 -1.6468  1.0637
  640MOL0     H88312   2.006   3.072   9.404 -1.2176 -1.8995 -0.0651
  640MOL0     H88313   2.026   3.091   9.230 -1.9238 -0.1015  1.0580
  640MOL0     H88314   1.941   2.828   9.342 -2.2438  0.0827  0.1925
  640MOL0     H88315   1.931   2.902   9.179  0.7852  0.4554 -0.1944
  640MOL0     H88316   1.577   3.029   9.380 -0.4782  0.0150 -1.7458
  640MOL0     H88317   2.437   3.248   9.289 -0.7798 -1.0349  0.6690
  640MOL0     H88318   2.709   3.473   9.229  0.1752 -0.8279  0.3353
  640MOL0     H88319   2.544   3.463   9.291  0.7237  1.4657 -2.6941
  640MOL0     H88320   2.684   3.474   9.403  1.5206 -2.6438  0.4569
  641MOL0     O88321   0.354   1.437   8.861 -0.2400  0.3268 -0.7985
  641MOL0     C88322   0.399   1.402   8.974 -0.0116 -0.4016 -0.1641
  641MOL0     O88323   0.337   1.400   9.094 -0.1092 -0.0178 -0.6950
  641MOL0     C88324   0.201   1.407   9.105 -0.0582 -0.2401 -0.3123
  641MOL0     C88325   0.115   1.339   9.015  0.1269  0.5028 -0.4255
  641MOL0     C88326  -0.024   1.343   9.026  0.4283 -0.5452  0.0121
  641MOL0     C88327  -0.093   1.433   9.114 -0.1286  0.0539  0.9267
  641MOL0     O88328  -0.240   1.450   9.131 -0.9630  0.1573 -0.0988
  641MOL0     C88329  -0.328   1.426   9.015 -0.1336  0.5616  0.9248
  641MOL0     C88330  -0.462   1.385   9.067 -0.8643 -0.1690  0.0689
  641MOL0     C88331  -0.529   1.490   9.155  0.0724  0.2032  0.4252
  641MOL0     C88332  -0.642   1.430   9.236  0.8617  0.2008  0.3558
  641MOL0     C88333  -0.744   1.538   9.278  0.5910 -0.4251 -0.9516
  641MOL0     C88334  -0.669   1.680   9.282 -0.5503 -0.8350 -0.3714
  641MOL0     C88335  -0.769   1.783   9.327 -0.4843 -0.6635 -0.1607
  641MOL0     C88336  -0.710   1.924   9.345 -0.2397 -0.4967 -0.4127
  641MOL0     N88337  -0.614   1.931   9.461  0.5141 -0.0501  1.0795
  641MOL0     C88338  -0.481   1.953   9.445 -0.2630 -0.3271 -0.5230
  641MOL0     C88339  -0.434   1.935   9.576 -0.0968 -0.2987 -0.1870
  641MOL0     C88340  -0.285   1.950   9.611  0.0312  0.1328 -0.0321
  641MOL0     C88341  -0.194   1.819   9.580  0.4124 -0.6241  0.5276
  641MOL0     C88342  -0.055   1.862   9.532  1.4294  0.0665 -0.7219
  641MOL0     C88343   0.042   1.748   9.534 -0.2407 -0.1068 -0.2442
  641MOL0     O88344   0.153   1.803   9.464  0.4338 -0.2423  0.2924
  641MOL0     C88345   0.281   1.763   9.488 -0.3554  0.6394  0.3082
  641MOL0     C88346   0.387   1.851   9.459  0.9491 -0.3453  0.1867
  641MOL0     C88347   0.521   1.817   9.473  0.5435  0.1695 -1.0772
  641MOL0     C88348   0.609   1.927   9.430  0.6762  0.2499 -0.1463
  641MOL0     C88349   0.558   1.695   9.522 -0.2973 -0.1109 -0.1736
  641MOL0     C88350   0.694   1.651   9.551 -0.7668  0.1012  0.3883
  641MOL0     O88351   0.780   1.753   9.569  0.2534 -0.5619  0.5625
  641MOL0     C88352   0.915   1.722   9.581  0.4338 -0.4687 -0.4552
  641MOL0     C88353   0.987   1.689   9.699 -0.4939 -0.2064 -0.5058
  641MOL0     C88354   1.124   1.661   9.698  0.4410  0.0761  0.3064
  641MOL0     C88355   1.197   1.668   9.579  0.7175  0.5848 -0.0105
  641MOL0     O88356   1.330   1.634   9.571  0.7372  0.5323  0.6852
  641MOL0     C88357   1.402   1.611   9.442 -0.4092 -0.1138  0.2286
  641MOL0     C88358   1.559   1.605   9.471  0.3091 -0.5698  0.3664
  641MOL0     C88359   1.651   1.600   9.346  1.3941 -0.9833 -1.4416
  641MOL0     C88360   1.651   1.464   9.286  0.1919  0.5625  0.2573
  641MOL0     C88361   1.737   1.462   9.157 -0.4693  0.6416 -0.0307
  641MOL0     C88362   1.735   1.314   9.093 -0.8807 -1.0640 -0.2835
  641MOL0     C88363   1.856   1.317   9.003  0.3070 -0.4375 -0.6596
  641MOL0     C88364   1.879   1.177   8.931  0.1486 -1.2535 -0.7686
  641MOL0    Cl88365   1.987   1.189   8.794  0.1079 -0.0472  0.6149
  641MOL0     C88366   1.127   1.692   9.463 -0.7270  0.0774  0.1800
  641MOL0     C88367   0.991   1.721   9.460  0.0332 -0.2389 -0.9202
  641MOL0     O88368   0.730   1.536   9.556  0.5722  0.1556 -0.3507
  641MOL0     C88369   0.456   1.602   9.536  0.2144 -0.6958  0.9878
  641MOL0     C88370   0.322   1.635   9.516  0.5896 -0.1092  0.1206
  641MOL0     N88371  -0.545   1.919   9.660  0.5725 -0.0802  0.0766
  641MOL0     N88372  -0.651   1.911   9.589 -0.4433  0.0874  0.9191
  641MOL0     C88373  -0.008   1.496   9.211  1.1033  0.1822 -0.0165
  641MOL0     C88374   0.130   1.485   9.207  0.5326  0.2066 -0.4889
  641MOL0     C88375   0.546   1.374   8.972  0.1155  0.0114 -0.6862
  641MOL0     C88376   0.605   1.291   8.874 -0.4327 -0.4317  0.5408
  641MOL0     C88377   0.743   1.257   8.872 -0.7573  0.1726 -0.0611
  641MOL0     C88378   0.827   1.302   8.979 -0.6141  0.6760 -0.1258
  641MOL0     O88379   0.961   1.293   8.973  0.0765  0.5304  0.6532
  641MOL0     C88380   1.015   1.197   9.061 -0.2990  0.6939 -0.0448
  641MOL0     C88381   1.161   1.212   9.093  0.8172 -0.0912 -0.1790
  641MOL0     C88382   1.245   1.181   8.971 -0.3764 -0.3555 -0.1490
  641MOL0     C88383   1.385   1.161   9.008 -0.1182 -0.5427 -0.9349
  641MOL0     C88384   1.467   1.134   8.889 -1.2406 -0.1469 -0.6344
  641MOL0     C88385   1.536   1.104   8.800 -0.7326  0.1208  0.1450
  641MOL0     C88386   0.772   1.391   9.073 -0.2991  0.1786  0.4843
  641MOL0     C88387   0.633   1.417   9.073 -0.4387  0.1512  1.4452
  641MOL0     C88388   0.585   1.517   9.178 -0.2462 -0.5850 -0.4502
  641MOL0     H88389   0.163   1.283   8.936  1.9888  1.2111  0.1547
  641MOL0     H88390  -0.073   1.297   8.940 -1.4563  0.5699  0.4386
  641MOL0     H88391  -0.293   1.343   8.953 -1.6979  0.0903  0.6186
  641MOL0     H88392  -0.345   1.511   8.948 -1.8867  0.4258  1.1500
  641MOL0     H88393  -0.522   1.360   8.979 -0.8033  1.3565 -0.4399
  641MOL0     H88394  -0.439   1.293   9.120  1.2618 -1.1929 -2.4353
  641MOL0     H88395  -0.457   1.543   9.217  1.4310 -1.0855  0.0053
  641MOL0     H88396  -0.563   1.553   9.072  0.7505  0.7924  0.5874
  641MOL0     H88397  -0.699   1.365   9.169  0.5746 -1.3776  2.0675
  641MOL0     H88398  -0.615   1.374   9.326 -0.9130  0.1301  0.8840
  641MOL0     H88399  -0.789   1.519   9.375  0.4640 -0.0534 -0.9382
  641MOL0     H88400  -0.818   1.545   9.198  0.4759  5.4452 -0.7288
  641MOL0     H88401  -0.578   1.691   9.341 -1.0034  0.4789  0.1216
  641MOL0     H88402  -0.640   1.717   9.184 -2.3460  3.3743  0.4446
  641MOL0     H88403  -0.820   1.752   9.418  1.4667 -2.5002  0.3655
  641MOL0     H88404  -0.846   1.803   9.251 -1.8864 -3.9439  0.2279
  641MOL0     H88405  -0.655   1.966   9.261  0.2532 -0.4074 -0.0485
  641MOL0     H88406  -0.791   1.992   9.373  2.2178  3.1254 -1.5509
  641MOL0     H88407  -0.428   1.969   9.352 -1.1497  0.2329 -0.9362
  641MOL0     H88408  -0.285   1.966   9.719  0.0051 -1.9664  0.3247
  641MOL0     H88409  -0.245   2.045   9.576  1.8074 -0.1099  1.2091
  641MOL0     H88410  -0.204   1.763   9.673  0.2497 -0.1380  0.8108
  641MOL0     H88411  -0.240   1.750   9.510 -0.6612  0.5351  0.0420
  641MOL0     H88412  -0.072   1.898   9.430  0.8893  0.4620 -0.4975
  641MOL0     H88413  -0.022   1.944   9.596 -0.6317  1.0563 -0.8509
  641MOL0     H88414   0.069   1.725   9.638  1.1799 -0.9520 -0.7630
  641MOL0     H88415  -0.004   1.663   9.483 -0.2819  1.3732 -2.8306
  641MOL0     H88416   0.358   1.945   9.413 -0.5809  0.3176  2.3476
  641MOL0     H88417   0.679   1.903   9.349 -0.0517 -1.1115 -0.4079
  641MOL0     H88418   0.671   1.960   9.513  3.2923  0.9840 -2.2323
  641MOL0     H88419   0.550   2.011   9.393 -2.1044 -1.6578 -0.3528
  641MOL0     H88420   0.939   1.691   9.797  1.0886 -0.8619  0.3137
  641MOL0     H88421   1.191   1.655   9.784 -1.4556 -1.6110  1.7867
  641MOL0     H88422   1.371   1.513   9.403  0.6927  0.3173 -1.8833
  641MOL0     H88423   1.384   1.690   9.369  0.6950 -1.6998 -1.8823
  641MOL0     H88424   1.572   1.705   9.512 -0.4910 -1.3314  2.6773
  641MOL0     H88425   1.590   1.547   9.559  4.0116 -0.2660 -0.5734
  641MOL0     H88426   1.753   1.630   9.370  0.3817  1.5156  0.0302
  641MOL0     H88427   1.610   1.667   9.269  4.2229  0.3349 -1.9070
  641MOL0     H88428   1.546   1.436   9.269  0.5276 -0.4367 -0.2478
  641MOL0     H88429   1.684   1.394   9.364 -0.7985 -0.2396 -0.0120
  641MOL0     H88430   1.707   1.536   9.083  0.5956  0.2817 -0.8576
  641MOL0     H88431   1.842   1.484   9.180 -0.2251 -1.6431  1.3155
  641MOL0     H88432   1.643   1.285   9.040 -1.4154 -0.5212  0.3184
  641MOL0     H88433   1.749   1.230   9.161 -1.1993 -1.9753 -1.3102
  641MOL0     H88434   1.946   1.330   9.064 -0.0445  0.0154 -0.2289
  641MOL0     H88435   1.852   1.401   8.933  1.5303  0.4750  0.3111
  641MOL0     H88436   1.790   1.130   8.888 -0.3403  1.2640 -2.7292
  641MOL0     H88437   1.917   1.115   9.013  0.9654  1.6652  1.2624
  641MOL0     H88438   1.174   1.681   9.366  0.6305 -1.7013  0.9885
  641MOL0     H88439   0.949   1.726   9.360 -4.4110 -3.5644  0.4252
  641MOL0     H88440   0.481   1.499   9.559 -0.1387 -0.6170  1.7575
  641MOL0     H88441   0.251   1.558   9.544 -0.9008  0.3235 -2.2260
  641MOL0     H88442  -0.057   1.553   9.289 -0.1458  2.3865 -2.2680
  641MOL0     H88443   0.191   1.539   9.278  1.0848 -1.3647  0.2703
  641MOL0     H88444   0.544   1.262   8.789 -0.4543 -0.8237  0.6887
  641MOL0     H88445   0.791   1.216   8.784 -0.4420  1.1496 -0.3526
  641MOL0     H88446   0.967   1.213   9.158 -2.9714 -0.0052 -1.1784
  641MOL0     H88447   1.004   1.093   9.030  1.7621 -0.0331  1.4268
  641MOL0     H88448   1.187   1.140   9.172  0.1716 -0.7019 -0.5050
  641MOL0     H88449   1.191   1.314   9.116 -0.2669  0.2186 -0.0915
  641MOL0     H88450   1.212   1.088   8.925 -3.4232 -0.0617  1.2264
  641MOL0     H88451   1.232   1.269   8.907  1.1480 -2.0105 -2.9526
  641MOL0     H88452   1.385   1.076   9.077 -2.4536  3.2259  4.5320
  641MOL0     H88453   1.430   1.241   9.067 -2.3166  1.2126 -1.4959
  641MOL0     H88454   1.596   1.084   8.714 -0.4141 -2.4637  0.8800
  641MOL0     H88455   0.840   1.439   9.143 -0.5943  0.6070  0.4825
  641MOL0     H88456   0.552   1.610   9.131 -0.9979 -1.1155 -0.9840
  641MOL0     H88457   0.510   1.477   9.247  0.8493  1.3251  2.0470
  641MOL0     H88458   0.663   1.551   9.248 -2.6663  1.2978  1.5420
  642MOL0     O88459   6.342   8.933   2.791 -0.3319  0.9311  1.3372
  642MOL0     C88460   6.379   8.993   2.687 -0.7470  0.2722  0.1546
  642MOL0     O88461   6.506   9.052   2.668 -0.8849 -0.5189 -0.0863
  642MOL0     C88462   6.595   9.035   2.769  0.0581 -0.6950  0.6127
  642MOL0     C88463   6.600   9.121   2.875 -0.4178 -0.2609  0.2214
  642MOL0     C88464   6.701   9.107   2.972 -0.1566  0.3017 -0.1330
  642MOL0     C88465   6.807   9.017   2.952 -0.3844 -0.1957 -0.2742
  642MOL0     O88466   6.884   8.987   3.061 -0.4918  0.1721  1.0949
  642MOL0     C88467   6.972   8.872   3.057  0.0023 -0.1367  0.2093
  642MOL0     C88468   7.041   8.844   3.193  0.3560 -0.2518 -0.0038
  642MOL0     C88469   7.121   8.714   3.200 -0.3026  0.2052  0.9103
  642MOL0     C88470   7.214   8.674   3.086  0.6894  0.5705 -0.0377
  642MOL0     C88471   7.324   8.771   3.060 -0.1518 -0.8881  0.5754
  642MOL0     C88472   7.390   8.762   2.918  0.2528  0.0488  0.2305
  642MOL0     C88473   7.486   8.884   2.899  0.4719  0.6890  0.2223
  642MOL0     C88474   7.612   8.887   2.993  0.2503  0.1664  0.4758
  642MOL0     N88475   7.686   8.766   2.967  0.2008  1.2971 -0.9223
  642MOL0     C88476   7.776   8.755   2.862  0.4259 -0.7198 -0.2265
  642MOL0     C88477   7.829   8.635   2.871  0.2114 -0.1820  0.2602
  642MOL0     C88478   7.924   8.580   2.769  0.0633 -0.5651 -0.4216
  642MOL0     C88479   7.854   8.523   2.646 -0.4052 -0.6931  0.6730
  642MOL0     C88480   7.763   8.633   2.580  0.1485 -0.4784 -0.1740
  642MOL0     C88481   7.716   8.575   2.450 -0.0357 -1.0543  1.4757
  642MOL0     O88482   7.609   8.487   2.460  0.4533 -0.4167  1.1830
  642MOL0     C88483   7.496   8.525   2.531  0.4792  0.2772 -0.2309
  642MOL0     C88484   7.437   8.440   2.634 -0.2148 -0.1522 -0.4723
  642MOL0     C88485   7.319   8.480   2.693 -0.1953  0.0034 -0.4383
  642MOL0     C88486   7.282   8.407   2.821 -0.2044  0.4175 -0.0783
  642MOL0     C88487   7.246   8.587   2.642  0.2500 -0.3493  0.6229
  642MOL0     C88488   7.109   8.606   2.690  0.4969 -0.1340  0.0620
  642MOL0     O88489   7.032   8.493   2.695  0.2421  0.4368 -0.6669
  642MOL0     C88490   6.912   8.513   2.771  0.2211  0.1172  0.1290
  642MOL0     C88491   6.898   8.470   2.902  1.3808  0.4124 -0.6076
  642MOL0     C88492   6.773   8.486   2.973  0.0246  0.5709 -0.2347
  642MOL0     C88493   6.671   8.564   2.906 -0.6721  1.5244 -0.4400
  642MOL0     O88494   6.559   8.585   2.975  0.8663  0.2436 -0.3448
  642MOL0     C88495   6.476   8.698   2.942  0.1952 -0.3964  1.0377
  642MOL0     C88496   6.379   8.730   3.055 -0.4550 -0.0242 -0.4024
  642MOL0     C88497   6.238   8.678   3.017 -0.1367 -0.2549  0.0108
  642MOL0     C88498   6.142   8.744   3.117  0.6461  0.0097 -0.3023
  642MOL0     C88499   5.995   8.690   3.085 -0.1417  0.5004 -0.0140
  642MOL0     C88500   5.903   8.735   3.203 -0.2381  0.6775  0.8944
  642MOL0     C88501   5.839   8.869   3.164 -0.1238  0.5409 -0.6671
  642MOL0     C88502   5.753   8.923   3.281  0.3450  1.1121  0.7689
  642MOL0    Cl88503   5.625   8.809   3.324 -0.2876  0.3480  0.3970
  642MOL0     C88504   6.684   8.599   2.768 -0.3097 -0.0242 -0.9278
  642MOL0     C88505   6.806   8.581   2.705 -0.6919 -0.4314  0.2394
  642MOL0     O88506   7.077   8.721   2.727  0.7746  0.3210 -0.0884
  642MOL0     C88507   7.311   8.676   2.554 -0.2661  0.2843  0.1409
  642MOL0     C88508   7.429   8.643   2.487  0.0446 -0.1464 -0.1752
  642MOL0     N88509   7.760   8.560   2.963 -0.4014  0.7445 -0.5100
  642MOL0     N88510   7.683   8.642   3.033  0.2734 -0.3796  0.4301
  642MOL0     C88511   6.801   8.926   2.837  0.3099  0.7307  0.0487
  642MOL0     C88512   6.692   8.944   2.750 -0.9869 -0.1227  1.0121
  642MOL0     C88513   6.288   9.001   2.564  0.0555 -0.2295 -1.2293
  642MOL0     C88514   6.337   9.039   2.444 -0.0024  0.3748 -0.3963
  642MOL0     C88515   6.260   9.046   2.326  0.5954  0.4810  0.4798
  642MOL0     C88516   6.121   9.021   2.322 -0.6187 -0.1635  0.5368
  642MOL0     O88517   6.044   9.031   2.213 -0.6901  0.0004  0.6652
  642MOL0     C88518   6.076   9.144   2.123  0.3657 -0.2748 -0.3834
  642MOL0     C88519   5.973   9.159   2.017 -0.7744  0.3177  0.3036
  642MOL0     C88520   5.842   9.221   2.054  0.1145  0.1444  1.2647
  642MOL0     C88521   5.753   9.244   1.929  1.0040  0.7991  0.5865
  642MOL0     C88522   5.650   9.346   1.954  0.0876 -0.2615  0.2693
  642MOL0     C88523   5.559   9.430   1.982 -0.1973 -0.8111  0.1380
  642MOL0     C88524   6.075   8.966   2.446 -0.1346 -0.2502 -0.1408
  642MOL0     C88525   6.153   8.942   2.567  0.2543 -0.3946  0.1896
  642MOL0     C88526   6.075   8.895   2.690  1.0582  0.1965  0.0570
  642MOL0     H88527   6.518   9.192   2.881 -0.8875 -0.2079 -3.8895
  642MOL0     H88528   6.695   9.163   3.065 -1.9892  3.0849 -1.8127
  642MOL0     H88529   7.052   8.885   2.984 -0.1593  0.0490  0.0619
  642MOL0     H88530   6.923   8.779   3.027  0.7580 -0.1151 -1.1673
  642MOL0     H88531   7.106   8.930   3.209 -0.4579  0.5215 -0.7779
  642MOL0     H88532   6.970   8.836   3.275  2.3866  0.3864  1.9269
  642MOL0     H88533   7.177   8.713   3.294 -3.3239  2.1505  2.9301
  642MOL0     H88534   7.058   8.625   3.210 -0.9410  0.1797 -2.3185
  642MOL0     H88535   7.255   8.575   3.111 -3.2034 -1.1239  0.2655
  642MOL0     H88536   7.143   8.660   3.004 -1.9836 -0.6338  2.3117
  642MOL0     H88537   7.396   8.777   3.142 -0.0693  1.2904  0.4068
  642MOL0     H88538   7.284   8.872   3.067  1.8315 -0.0653  0.5933
  642MOL0     H88539   7.437   8.669   2.886 -2.3213 -0.9665 -0.9395
  642MOL0     H88540   7.299   8.776   2.859 -1.7813 -0.1743  3.1011
  642MOL0     H88541   7.426   8.974   2.913 -2.3978 -1.0153 -0.2886
  642MOL0     H88542   7.524   8.883   2.796 -4.3777  0.7858 -1.8345
  642MOL0     H88543   7.679   8.967   2.961  0.1235  0.6139  1.3277
  642MOL0     H88544   7.582   8.907   3.096 -0.5351 -2.7354  0.8890
  642MOL0     H88545   7.796   8.830   2.786  0.0115  0.3926  0.7237
  642MOL0     H88546   7.979   8.497   2.816  2.4612 -0.2388 -2.4478
  642MOL0     H88547   8.007   8.644   2.736  0.2011 -1.3091 -1.5510
  642MOL0     H88548   7.936   8.489   2.582 -0.8268  1.7316 -1.3120
  642MOL0     H88549   7.789   8.439   2.671  0.6549 -1.3520  1.2422
  642MOL0     H88550   7.680   8.666   2.644  0.8684 -1.4970  1.3574
  642MOL0     H88551   7.824   8.719   2.551  0.3012  0.2611  2.1692
  642MOL0     H88552   7.702   8.660   2.384  1.0935 -1.1757  1.0601
  642MOL0     H88553   7.805   8.531   2.405 -0.2451  1.7472 -2.0549
  642MOL0     H88554   7.491   8.351   2.665 -0.4599 -0.1504 -0.0312
  642MOL0     H88555   7.361   8.343   2.861 -1.5466  0.0469  2.1932
  642MOL0     H88556   7.199   8.335   2.816  2.3021 -2.6256 -3.6776
  642MOL0     H88557   7.257   8.479   2.899 -1.3974  0.6179 -0.6132
  642MOL0     H88558   6.985   8.420   2.943  1.3095 -3.7716 -4.7015
  642MOL0     H88559   6.761   8.455   3.076  1.0083  1.1552  0.0628
  642MOL0     H88560   6.541   8.783   2.919 -1.5125  0.5974 -0.3710
  642MOL0     H88561   6.414   8.672   2.855  0.3896 -2.3525  1.4294
  642MOL0     H88562   6.412   8.667   3.138  2.1332  1.6913 -0.0339
  642MOL0     H88563   6.363   8.833   3.088  3.0652  0.6617 -0.5275
  642MOL0     H88564   6.239   8.569   3.027 -2.2751 -0.4537 -1.2871
  642MOL0     H88565   6.219   8.700   2.912  4.1286 -0.1089 -0.9149
  642MOL0     H88566   6.141   8.853   3.120  0.2062  0.1324 -3.0076
  642MOL0     H88567   6.165   8.708   3.218  0.2556  0.2143 -0.1383
  642MOL0     H88568   5.961   8.724   2.987 -1.6784  5.7424  1.9459
  642MOL0     H88569   5.994   8.582   3.074 -0.2132 -0.2395  4.8489
  642MOL0     H88570   5.960   8.740   3.297  1.4200  0.6406 -0.0653
  642MOL0     H88571   5.833   8.655   3.227  2.6639 -1.7187  2.0111
  642MOL0     H88572   5.784   8.843   3.073  0.4123  1.4745 -1.2729
  642MOL0     H88573   5.920   8.939   3.139  0.1931  1.7025  3.0154
  642MOL0     H88574   5.706   9.018   3.255 -1.2548  0.3801  0.8494
  642MOL0     H88575   5.821   8.936   3.366  2.2783 -5.3387  0.7440
  642MOL0     H88576   6.599   8.640   2.715 -1.8133  0.1216  1.4722
  642MOL0     H88577   6.824   8.610   2.602 -3.1601  1.8684  0.3303
  642MOL0     H88578   7.250   8.761   2.525 -1.9697 -0.5900  1.0156
  642MOL0     H88579   7.471   8.704   2.408 -0.1512 -0.2671 -0.3730
  642MOL0     H88580   6.865   8.838   2.831  1.2822  0.9842  3.8471
  642MOL0     H88581   6.686   8.877   2.665 -1.3072 -0.8879  1.6271
  642MOL0     H88582   6.445   9.045   2.449  0.1345 -1.7423  0.2172
  642MOL0     H88583   6.310   9.086   2.239 -0.7071  0.3852 -0.3273
  642MOL0     H88584   6.083   9.240   2.174 -0.8079 -0.2932 -0.1454
  642MOL0     H88585   6.171   9.123   2.074  0.6279  0.5717 -0.2474
  642MOL0     H88586   5.963   9.059   1.973  0.7726 -1.5907  3.8014
  642MOL0     H88587   6.034   9.216   1.947  0.5833  0.1367  1.2961
  642MOL0     H88588   5.781   9.164   2.126 -2.1034  1.4648  0.5486
  642MOL0     H88589   5.872   9.315   2.101 -0.7372  1.6450 -0.9843
  642MOL0     H88590   5.707   9.157   1.883  1.6495  1.2852 -1.0584
  642MOL0     H88591   5.824   9.275   1.851  2.4031 -0.6550  1.2348
  642MOL0     H88592   5.470   9.486   2.004 -0.9584 -2.0930  0.4223
  642MOL0     H88593   5.967   8.950   2.449 -0.1235 -0.3016 -0.0376
  642MOL0     H88594   6.089   8.788   2.708 -1.5506 -0.8106 -3.0494
  642MOL0     H88595   6.107   8.951   2.779  0.6185  1.3326 -0.4866
  642MOL0     H88596   5.969   8.915   2.675  0.4295  1.3851  4.5180
  643MOL0     O88597   5.999   5.033   5.351 -0.2065 -1.3117  0.0953
  643MOL0     C88598   5.984   4.937   5.267  0.5774 -0.3952 -0.0444
  643MOL0     O88599   5.870   4.875   5.241 -0.5377  0.0002 -0.1225
  643MOL0     C88600   5.773   4.887   5.334  0.0774  0.3295  0.8196
  643MOL0     C88601   5.778   4.830   5.457 -0.2788 -0.6058 -0.3660
  643MOL0     C88602   5.668   4.821   5.542 -0.6331  0.0176 -0.3425
  643MOL0     C88603   5.543   4.859   5.501 -0.8927 -0.3489 -0.2686
  643MOL0     O88604   5.445   4.837   5.591 -0.2357  0.0315  0.0823
  643MOL0     C88605   5.305   4.826   5.553 -0.3546 -0.3649  0.5899
  643MOL0     C88606   5.269   4.682   5.505  0.0456  0.6333 -0.9270
  643MOL0     C88607   5.339   4.668   5.369  0.1493 -0.4302 -0.5415
  643MOL0     C88608   5.282   4.547   5.312 -0.2236  0.2664  0.3475
  643MOL0     C88609   5.353   4.502   5.179  0.8640  0.7780 -0.2119
  643MOL0     C88610   5.266   4.407   5.083  0.3986 -0.1809  0.6371
  643MOL0     C88611   5.344   4.346   4.965  0.4117 -0.0052 -0.3772
  643MOL0     C88612   5.431   4.431   4.881 -1.0548  0.4146  0.1902
  643MOL0     N88613   5.349   4.496   4.780  0.0322 -0.2888  0.1693
  643MOL0     C88614   5.334   4.495   4.640 -0.2964  0.9117 -0.8151
  643MOL0     C88615   5.259   4.609   4.607 -0.3110  0.0088  0.1771
  643MOL0     C88616   5.242   4.664   4.470  0.4620 -0.6645  0.0574
  643MOL0     C88617   5.115   4.594   4.409  0.1720  0.4614 -0.7510
  643MOL0     C88618   5.080   4.667   4.272  0.0235  0.2995 -0.0374
  643MOL0     C88619   5.191   4.674   4.171 -0.3375 -0.5525 -0.2302
  643MOL0     O88620   5.151   4.730   4.051  0.6818 -0.2328 -0.5218
  643MOL0     C88621   5.127   4.864   4.044  0.3118  0.0693 -0.0355
  643MOL0     C88622   5.047   4.905   3.939  0.5001  0.0802  0.0722
  643MOL0     C88623   5.025   5.046   3.913  1.2225  0.7762 -0.6877
  643MOL0     C88624   4.941   5.074   3.791 -0.1608  0.3699  0.4676
  643MOL0     C88625   5.076   5.137   4.010 -0.4495  0.5014  0.0157
  643MOL0     C88626   5.054   5.291   3.989 -0.6907  0.3328 -0.9238
  643MOL0     O88627   5.087   5.375   4.095 -0.2125  0.3230 -0.0213
  643MOL0     C88628   5.101   5.512   4.088 -0.2220 -0.0861  0.4338
  643MOL0     C88629   5.232   5.557   4.110  1.0587 -0.1449  0.7184
  643MOL0     C88630   5.253   5.698   4.107 -0.1538 -0.6311  0.4339
  643MOL0     C88631   5.146   5.782   4.113  0.3296  1.1128  0.4626
  643MOL0     O88632   5.177   5.913   4.114 -0.3391  0.2774  0.7673
  643MOL0     C88633   5.133   5.996   4.218  0.4701  0.0204 -0.0842
  643MOL0     C88634   5.071   6.127   4.164  0.2748  0.2685 -1.2097
  643MOL0     C88635   5.036   6.224   4.279 -0.1236  0.4319  0.1331
  643MOL0     C88636   4.911   6.183   4.370 -0.5793 -0.0376  0.4200
  643MOL0     C88637   4.786   6.162   4.290 -0.1114 -0.0656 -0.0788
  643MOL0     C88638   4.654   6.198   4.358 -0.1576 -0.6705 -0.5632
  643MOL0     C88639   4.663   6.345   4.421 -1.1703 -0.2458  0.1149
  643MOL0     C88640   4.523   6.401   4.450 -0.3859  0.5544  0.2722
  643MOL0    Cl88641   4.531   6.570   4.506  0.3173  0.0737 -0.2267
  643MOL0     C88642   5.011   5.738   4.089  0.1723 -0.4609  0.4101
  643MOL0     C88643   4.991   5.595   4.085  0.8497  0.7335  0.4947
  643MOL0     O88644   5.026   5.336   3.881 -0.0391 -0.0110 -0.1528
  643MOL0     C88645   5.152   5.093   4.120  0.1402 -0.3463  0.8907
  643MOL0     C88646   5.186   4.954   4.129 -0.0524 -0.3779  0.6010
  643MOL0     N88647   5.209   4.659   4.729 -0.2086  1.0952  1.1189
  643MOL0     N88648   5.256   4.594   4.822 -0.4643  0.5333 -0.2994
  643MOL0     C88649   5.530   4.922   5.373  0.7939  0.0634 -0.2989
  643MOL0     C88650   5.650   4.938   5.292 -0.5919  1.0220 -0.7761
  643MOL0     C88651   6.097   4.929   5.181 -0.5613 -0.1612 -0.1829
  643MOL0     C88652   6.082   4.966   5.046  0.0412 -0.0115  0.6295
  643MOL0     C88653   6.179   4.930   4.955  0.0853  0.2817 -0.2117
  643MOL0     C88654   6.307   4.882   4.998 -0.1851 -0.0228 -0.0104
  643MOL0     O88655   6.390   4.857   4.894 -0.1547  0.0569 -0.1088
  643MOL0     C88656   6.521   4.803   4.933  0.2322  0.3042 -0.1914
  643MOL0     C88657   6.578   4.714   4.825  0.2733 -0.1657  0.1364
  643MOL0     C88658   6.517   4.572   4.834  0.4896 -0.0417  0.1601
  643MOL0     C88659   6.572   4.477   4.945  0.4877  1.1847 -0.8469
  643MOL0     C88660   6.586   4.335   4.899 -0.2010  0.5322  0.1160
  643MOL0     C88661   6.586   4.219   4.858  1.0702  0.0364  0.2874
  643MOL0     C88662   6.328   4.852   5.137 -0.2265 -0.0594 -0.4754
  643MOL0     C88663   6.217   4.867   5.230  0.5023  0.2748  0.2239
  643MOL0     C88664   6.231   4.832   5.379 -1.5211 -0.9562  0.8390
  643MOL0     H88665   5.868   4.782   5.492 -1.4119 -1.0847  2.0746
  643MOL0     H88666   5.679   4.774   5.640 -0.7309  0.9938  0.1556
  643MOL0     H88667   5.282   4.897   5.474 -1.7605 -2.9089 -1.4426
  643MOL0     H88668   5.239   4.844   5.639 -1.9401 -2.9380  0.0486
  643MOL0     H88669   5.307   4.604   5.571 -1.9401 -1.6883 -2.3883
  643MOL0     H88670   5.160   4.674   5.507 -0.1243  2.3066  1.0579
  643MOL0     H88671   5.333   4.752   5.299  2.0308  0.9841  0.8726
  643MOL0     H88672   5.444   4.647   5.392 -0.4983  0.0872  3.7835
  643MOL0     H88673   5.280   4.454   5.369 -0.0577  0.1391  0.1501
  643MOL0     H88674   5.180   4.577   5.286 -0.5136 -2.1508 -1.7272
  643MOL0     H88675   5.443   4.448   5.209  0.6331  0.2069 -0.5354
  643MOL0     H88676   5.386   4.593   5.128  1.6942  1.8914  2.1730
  643MOL0     H88677   5.224   4.329   5.146  0.5004 -2.2363 -1.6865
  643MOL0     H88678   5.186   4.461   5.033  1.0499 -1.5434 -2.0583
  643MOL0     H88679   5.273   4.289   4.905 -2.2052  0.8843  1.6812
  643MOL0     H88680   5.409   4.270   5.008 -2.3309 -2.9347 -1.0176
  643MOL0     H88681   5.477   4.507   4.944  0.8800 -2.0563  1.9598
  643MOL0     H88682   5.506   4.370   4.828 -0.1444 -0.1282  2.0434
  643MOL0     H88683   5.394   4.432   4.575 -0.3725 -0.5987  0.5163
  643MOL0     H88684   5.327   4.651   4.403 -1.1944  1.3591 -2.6507
  643MOL0     H88685   5.228   4.772   4.483 -1.3803 -0.8906  0.2917
  643MOL0     H88686   5.136   4.492   4.378 -2.3821 -0.5965  0.6669
  643MOL0     H88687   5.034   4.590   4.482 -0.1357 -0.8456 -1.1396
  643MOL0     H88688   4.990   4.628   4.224  0.3023  3.1130 -3.2544
  643MOL0     H88689   5.058   4.770   4.304  0.7893  0.6165 -0.4980
  643MOL0     H88690   5.274   4.737   4.205 -2.1353  2.8257 -1.6002
  643MOL0     H88691   5.236   4.576   4.156  1.8161  0.0090  1.9472
  643MOL0     H88692   4.995   4.839   3.870 -0.9452  2.5056 -1.2712
  643MOL0     H88693   4.852   5.132   3.819  0.9050  0.9269  3.0304
  643MOL0     H88694   4.900   4.989   3.735 -3.9922  1.1141  1.7954
  643MOL0     H88695   4.998   5.139   3.725  0.0438 -1.0086 -0.7611
  643MOL0     H88696   5.306   5.479   4.128 -1.0198 -1.5859  4.0041
  643MOL0     H88697   5.351   5.744   4.099 -0.3799 -0.2551 -0.3971
  643MOL0     H88698   5.056   5.952   4.281 -0.3907  0.3920 -0.8483
  643MOL0     H88699   5.217   6.017   4.285 -0.6720  1.6141  0.9079
  643MOL0     H88700   5.138   6.167   4.088  2.8090  0.6524  1.0853
  643MOL0     H88701   4.979   6.100   4.111 -0.8113  1.5589 -0.0444
  643MOL0     H88702   5.014   6.311   4.216 -0.6327  0.3775  0.2294
  643MOL0     H88703   5.120   6.249   4.344 -0.3369  0.9176  0.2239
  643MOL0     H88704   4.908   6.260   4.447  2.7962 -0.3418  1.0359
  643MOL0     H88705   4.926   6.088   4.423  1.8833  0.8551  1.4994
  643MOL0     H88706   4.797   6.217   4.196 -0.5818  0.0197 -0.0912
  643MOL0     H88707   4.769   6.060   4.254  1.7014  0.1008 -1.5011
  643MOL0     H88708   4.634   6.127   4.440  0.6723 -2.3936 -1.7770
  643MOL0     H88709   4.560   6.195   4.302  0.0041  0.7497 -0.9240
  643MOL0     H88710   4.718   6.411   4.355 -0.5322 -1.3906 -0.5315
  643MOL0     H88711   4.728   6.340   4.509 -0.1255  0.2156 -0.6099
  643MOL0     H88712   4.468   6.336   4.518  0.7624 -0.7434  0.0149
  643MOL0     H88713   4.467   6.386   4.357  0.8932  2.2565 -0.8410
  643MOL0     H88714   4.933   5.811   4.073 -0.0954  0.0624  3.5528
  643MOL0     H88715   4.887   5.562   4.081  0.0330  3.0591 -2.9002
  643MOL0     H88716   5.213   5.166   4.171 -0.5837  1.4274 -0.6632
  643MOL0     H88717   5.255   4.930   4.209  2.7191  2.1395 -0.8435
  643MOL0     H88718   5.440   4.959   5.327 -1.5357 -1.5866  2.6016
  643MOL0     H88719   5.648   4.975   5.190  0.4234 -0.3418 -1.3231
  643MOL0     H88720   5.992   5.022   5.023  1.7564  3.3010  1.2759
  643MOL0     H88721   6.157   4.937   4.849 -0.7295 -0.8576 -0.1459
  643MOL0     H88722   6.597   4.880   4.948 -1.0064  1.6256 -0.4465
  643MOL0     H88723   6.509   4.736   5.019  1.7287 -2.6222 -2.1157
  643MOL0     H88724   6.685   4.705   4.843  0.0363  0.4517  2.1268
  643MOL0     H88725   6.566   4.755   4.725  2.5021 -0.2061 -0.1926
  643MOL0     H88726   6.412   4.586   4.861  0.7912  0.9850  0.8495
  643MOL0     H88727   6.529   4.518   4.739  0.3614  0.3870 -0.0993
  643MOL0     H88728   6.511   4.472   5.036  2.8510 -3.3459  0.8087
  643MOL0     H88729   6.676   4.502   4.969 -0.1377  2.1053  1.2268
  643MOL0     H88730   6.600   4.124   4.810  0.0040  0.8581 -1.7951
  643MOL0     H88731   6.418   4.818   5.187 -0.4166  2.8490  2.1411
  643MOL0     H88732   6.261   4.919   5.437 -0.0522 -1.1963  0.4740
  643MOL0     H88733   6.137   4.794   5.421 -0.2052 -2.9016  2.2377
  643MOL0     H88734   6.306   4.753   5.388  0.9513  1.4454  3.2426
  644MOL0     O88735   7.833   3.564   8.363 -0.0972  0.7759 -0.2536
  644MOL0     C88736   7.862   3.648   8.447 -0.0356  0.6417  0.4177
  644MOL0     O88737   7.961   3.733   8.439  0.7743 -0.8710 -0.8721
  644MOL0     C88738   8.022   3.760   8.319 -0.7461 -0.2410  0.3483
  644MOL0     C88739   8.158   3.728   8.308  0.0224 -0.0426  0.1149
  644MOL0     C88740   8.228   3.748   8.189 -0.3963 -0.5670 -0.0253
  644MOL0     C88741   8.158   3.791   8.077 -1.1476  0.3969  0.3092
  644MOL0     O88742   8.221   3.821   7.963  0.3062  0.2535 -0.0829
  644MOL0     C88743   8.298   3.944   7.957  0.5551  1.2649  0.8713
  644MOL0     C88744   8.232   4.066   8.022  0.1553 -0.7586  0.7706
  644MOL0     C88745   8.113   4.108   7.931 -0.8005  0.7530 -0.0081
  644MOL0     C88746   8.104   4.260   7.901  0.0032 -0.0582  0.6910
  644MOL0     C88747   7.966   4.282   7.836 -0.4144 -0.5958 -0.2430
  644MOL0     C88748   7.860   4.281   7.940 -0.0270  0.3474 -0.1534
  644MOL0     C88749   7.733   4.364   7.895  0.6905  0.4197 -0.2610
  644MOL0     C88750   7.616   4.276   7.836 -0.8361  0.7885 -0.0682
  644MOL0     N88751   7.564   4.342   7.722 -0.3538  0.2172  0.0388
  644MOL0     C88752   7.464   4.434   7.725 -0.3413  0.7662  0.1033
  644MOL0     C88753   7.442   4.469   7.603 -0.2423  0.6183  0.1378
  644MOL0     C88754   7.336   4.563   7.556  0.4928 -0.0535 -0.4698
  644MOL0     C88755   7.257   4.511   7.435 -0.2345 -0.0733  0.1155
  644MOL0     C88756   7.122   4.585   7.420  0.8429  0.4291 -0.1094
  644MOL0     C88757   7.011   4.538   7.516 -0.1075 -0.0554  0.1842
  644MOL0     O88758   6.888   4.604   7.486  0.3027 -0.0393 -0.3905
  644MOL0     C88759   6.771   4.531   7.483 -0.7940 -0.4414  0.2541
  644MOL0     C88760   6.671   4.571   7.394  0.4551  0.5127  1.6320
  644MOL0     C88761   6.553   4.491   7.382 -0.2902 -0.7353  1.1683
  644MOL0     C88762   6.450   4.552   7.289 -0.6336  0.0077  0.3424
  644MOL0     C88763   6.536   4.385   7.467  0.3247  0.2372  0.2348
  644MOL0     C88764   6.411   4.309   7.460 -0.2204  0.3428 -0.0326
  644MOL0     O88765   6.365   4.277   7.588 -0.4000 -0.8976 -0.3687
  644MOL0     C88766   6.272   4.175   7.606 -0.1515  0.1975 -0.1112
  644MOL0     C88767   6.140   4.180   7.554 -0.2989  0.8260 -0.4923
  644MOL0     C88768   6.051   4.084   7.576 -0.3467 -0.4292  0.2379
  644MOL0     C88769   6.083   3.974   7.657 -0.1996 -0.0437  0.8364
  644MOL0     O88770   5.976   3.890   7.684  0.6689 -0.0894  0.6125
  644MOL0     C88771   6.016   3.752   7.703 -0.4262 -0.2306 -0.1182
  644MOL0     C88772   5.935   3.662   7.605 -0.3032 -0.1932  0.7092
  644MOL0     C88773   5.977   3.653   7.459 -0.5687  0.2638  0.7185
  644MOL0     C88774   5.998   3.786   7.380 -0.3683  0.2729  0.5297
  644MOL0     C88775   5.999   3.771   7.222 -0.2374 -0.0730 -0.0945
  644MOL0     C88776   6.027   3.908   7.158  0.1073  0.6021 -0.0617
  644MOL0     C88777   5.910   4.000   7.154  0.3449 -0.8166  0.3968
  644MOL0     C88778   5.944   4.145   7.127  0.4475 -0.3595  0.1385
  644MOL0    Cl88779   6.057   4.155   6.986  0.1583  0.0410  0.2928
  644MOL0     C88780   6.217   3.963   7.713  0.8634 -0.5771 -0.0375
  644MOL0     C88781   6.307   4.069   7.688 -0.0171  1.4028 -0.2281
  644MOL0     O88782   6.360   4.272   7.356  0.4893  0.1181 -0.7259
  644MOL0     C88783   6.642   4.340   7.555  0.0184 -0.4128 -0.0793
  644MOL0     C88784   6.759   4.411   7.557 -0.0960 -0.4802 -0.3618
  644MOL0     N88785   7.528   4.398   7.516 -0.3074 -1.1217 -0.0806
  644MOL0     N88786   7.610   4.330   7.592 -0.3214  1.0325 -0.4952
  644MOL0     C88787   8.020   3.811   8.076 -0.3315  0.1203 -0.2659
  644MOL0     C88788   7.959   3.795   8.201 -0.4430 -1.3198 -0.2495
  644MOL0     C88789   7.756   3.662   8.553 -0.8189  0.1321 -0.1105
  644MOL0     C88790   7.756   3.789   8.627 -0.1375 -1.3858 -0.1281
  644MOL0     C88791   7.655   3.827   8.716 -0.2274  0.1671 -0.3864
  644MOL0     C88792   7.549   3.745   8.731  0.1974  1.1604  0.0369
  644MOL0     O88793   7.442   3.800   8.803 -0.2260 -0.0309 -0.5570
  644MOL0     C88794   7.342   3.718   8.869 -0.0229  0.7610 -0.4381
  644MOL0     C88795   7.408   3.650   8.992 -0.5141  0.4579 -0.6607
  644MOL0     C88796   7.307   3.579   9.078 -0.8346  0.4616 -0.4225
  644MOL0     C88797   7.229   3.467   9.013  0.0746 -0.3582  0.9407
  644MOL0     C88798   7.143   3.384   9.094  0.0244 -0.0203 -0.2050
  644MOL0     C88799   7.080   3.309   9.165 -0.3267  0.1115  0.8302
  644MOL0     C88800   7.550   3.625   8.676  0.0939  0.6888  0.3881
  644MOL0     C88801   7.657   3.571   8.597  0.2894  0.1424  0.6409
  644MOL0     C88802   7.656   3.433   8.543  0.8977 -0.4688 -0.5757
  644MOL0     H88803   8.213   3.683   8.390  1.2699  0.7749 -0.2441
  644MOL0     H88804   8.337   3.752   8.193 -0.4152  3.4286  1.5855
  644MOL0     H88805   8.331   3.971   7.856 -1.4313  0.0573 -0.1587
  644MOL0     H88806   8.393   3.930   8.010  0.5373 -0.9930  0.4020
  644MOL0     H88807   8.199   4.031   8.120 -0.8953 -2.4991 -0.1299
  644MOL0     H88808   8.306   4.146   8.021 -0.3763 -0.2268 -1.1071
  644MOL0     H88809   8.117   4.063   7.831  2.9288 -0.9215  0.7235
  644MOL0     H88810   8.023   4.065   7.978 -1.1259  1.5315  0.1004
  644MOL0     H88811   8.102   4.318   7.994  0.1276 -0.1163  0.7297
  644MOL0     H88812   8.178   4.298   7.830 -1.1116  1.3257  0.2262
  644MOL0     H88813   7.952   4.225   7.743  0.7844  1.0488 -1.4977
  644MOL0     H88814   7.976   4.386   7.803  1.0801 -0.3976  0.7841
  644MOL0     H88815   7.830   4.181   7.973 -1.9342 -0.2496 -3.2742
  644MOL0     H88816   7.899   4.333   8.028 -2.1639  2.4132 -0.3262
  644MOL0     H88817   7.755   4.445   7.824  1.0937 -0.7517 -1.5277
  644MOL0     H88818   7.708   4.416   7.987  3.3704  0.3930  0.5901
  644MOL0     H88819   7.655   4.178   7.807 -0.8657  0.4924  0.8568
  644MOL0     H88820   7.536   4.247   7.905  0.9097 -1.7201  1.0760
  644MOL0     H88821   7.408   4.458   7.815  0.5133 -0.3593  0.9581
  644MOL0     H88822   7.376   4.664   7.545  1.4109 -0.5657 -2.1420
  644MOL0     H88823   7.266   4.567   7.640  0.1299  0.0143 -0.7717
  644MOL0     H88824   7.326   4.534   7.352  0.5593  2.1855  1.3106
  644MOL0     H88825   7.237   4.404   7.427  3.1389 -0.9850  1.9110
  644MOL0     H88826   7.138   4.691   7.445 -3.2345  1.3651 -0.7035
  644MOL0     H88827   7.085   4.582   7.317  0.7104 -1.6246 -0.0338
  644MOL0     H88828   7.010   4.429   7.502 -0.7038  0.0560 -0.7592
  644MOL0     H88829   7.036   4.558   7.621 -0.2828  2.0221 -0.1390
  644MOL0     H88830   6.690   4.657   7.330 -0.6652 -1.0047 -0.9444
  644MOL0     H88831   6.459   4.508   7.189  2.0480  1.8213 -0.3155
  644MOL0     H88832   6.482   4.656   7.281 -0.2762 -0.0216  1.3044
  644MOL0     H88833   6.347   4.551   7.326 -1.1053 -1.9406 -0.8825
  644MOL0     H88834   6.105   4.272   7.509 -0.0396  1.4593  0.5446
  644MOL0     H88835   5.957   4.097   7.524 -0.0731 -1.6848 -0.6131
  644MOL0     H88836   6.123   3.734   7.692  0.1505  1.7827  1.5540
  644MOL0     H88837   5.979   3.730   7.803 -2.0819  0.6605 -0.4891
  644MOL0     H88838   5.928   3.562   7.650 -0.7505  0.0071  1.0939
  644MOL0     H88839   5.831   3.695   7.614  0.6774  2.7918  3.0700
  644MOL0     H88840   5.918   3.579   7.406  0.9462 -0.5220  0.0764
  644MOL0     H88841   6.077   3.610   7.459  0.6123  2.7995  0.3699
  644MOL0     H88842   6.097   3.824   7.406 -0.8782  1.1702  1.1951
  644MOL0     H88843   5.921   3.861   7.403  1.8697  2.5111  1.0892
  644MOL0     H88844   6.079   3.703   7.189 -0.5107 -1.4898  1.9607
  644MOL0     H88845   5.906   3.725   7.189  0.1023 -1.8775  1.2790
  644MOL0     H88846   6.062   3.892   7.056  3.1454 -0.1985  0.9953
  644MOL0     H88847   6.111   3.948   7.216  1.3528 -1.2889 -0.4808
  644MOL0     H88848   5.856   3.996   7.249 -0.0403 -0.9467  0.1737
  644MOL0     H88849   5.838   3.966   7.079  2.0143  1.6845 -2.5937
  644MOL0     H88850   5.987   4.184   7.219 -0.3546  1.0968 -0.0686
  644MOL0     H88851   5.850   4.198   7.107  0.2144 -1.9198 -3.8067
  644MOL0     H88852   6.249   3.885   7.782  0.7014 -1.6465 -1.1424
  644MOL0     H88853   6.401   4.067   7.743 -1.1910 -2.5717  2.0083
  644MOL0     H88854   6.649   4.244   7.606 -0.1637 -0.4908 -0.2013
  644MOL0     H88855   6.839   4.379   7.622 -1.5906 -1.5505  1.0224
  644MOL0     H88856   7.965   3.837   7.986  1.0293  1.3310 -0.7914
  644MOL0     H88857   7.852   3.809   8.213 -0.2787  0.5777 -0.7251
  644MOL0     H88858   7.833   3.862   8.604  0.4045 -1.2286  1.9371
  644MOL0     H88859   7.659   3.924   8.765 -3.0462  0.6837 -1.0285
  644MOL0     H88860   7.253   3.772   8.901 -1.7210 -2.2248  0.2656
  644MOL0     H88861   7.315   3.646   8.791  1.0793 -0.6602  0.4258
  644MOL0     H88862   7.458   3.721   9.058  3.6736 -1.6205 -1.2761
  644MOL0     H88863   7.487   3.578   8.967 -1.1956 -1.4483  2.2152
  644MOL0     H88864   7.359   3.544   9.167 -3.9399 -2.0946  0.5412
  644MOL0     H88865   7.233   3.647   9.121  1.7792  2.6122  1.0469
  644MOL0     H88866   7.299   3.401   8.961  1.0992 -0.3349  2.2527
  644MOL0     H88867   7.155   3.515   8.948  0.5735 -0.6517  0.1379
  644MOL0     H88868   7.024   3.244   9.230  1.8204 -2.1690  0.5535
  644MOL0     H88869   7.462   3.561   8.675  0.5537  0.0420 -0.1543
  644MOL0     H88870   7.756   3.396   8.519 -0.3153 -2.1365 -3.6415
  644MOL0     H88871   7.602   3.360   8.605 -0.3359  0.4599 -0.5252
  644MOL0     H88872   7.606   3.439   8.446  3.8670  2.3522 -2.1201
  645MOL0     O88873   2.588   3.281   0.359  0.0058 -0.9689  0.2753
  645MOL0     C88874   2.483   3.325   0.317 -0.1949 -0.2567  0.0616
  645MOL0     O88875   2.466   3.411   0.213  0.1256  0.1116 -0.0858
  645MOL0     C88876   2.561   3.446   0.114  0.3961 -0.4111  0.4882
  645MOL0     C88877   2.679   3.376   0.084  0.3315  0.2636  0.1937
  645MOL0     C88878   2.758   3.422  -0.022 -1.1581  0.8689  0.0110
  645MOL0     C88879   2.729   3.528  -0.100  0.0391 -0.2744  0.1038
  645MOL0     O88880   2.813   3.552  -0.206  0.1593  0.8826 -0.3160
  645MOL0     C88881   2.780   3.655  -0.304  0.3441 -0.4484  0.6546
  645MOL0     C88882   2.910   3.699  -0.382 -0.2921  0.2670 -0.4201
  645MOL0     C88883   2.972   3.609  -0.481 -0.2257  0.2249 -0.1120
  645MOL0     C88884   3.063   3.687  -0.575  0.0872  1.1191  0.5929
  645MOL0     C88885   3.168   3.594  -0.633 -0.1383  0.7799 -0.3748
  645MOL0     C88886   3.107   3.471  -0.716 -0.6715 -0.3089  0.5524
  645MOL0     C88887   3.220   3.380  -0.779  0.8806  0.2595  1.0806
  645MOL0     C88888   3.149   3.269  -0.855  0.0079 -0.4401 -0.2691
  645MOL0     N88889   3.233   3.170  -0.904 -0.8431  0.5083  0.0369
  645MOL0     C88890   3.347   3.168  -0.984  0.3978 -0.1698 -0.0352
  645MOL0     C88891   3.378   3.041  -1.009 -0.4708 -0.3320 -0.5606
  645MOL0     C88892   3.493   2.994  -1.080  0.1249 -0.3139  0.0815
  645MOL0     C88893   3.617   2.955  -0.993 -0.2858  1.6165 -0.9565
  645MOL0     C88894   3.702   3.075  -0.945 -0.0662  0.3070  0.0278
  645MOL0     C88895   3.789   3.043  -0.816 -0.7588 -0.0740 -0.4086
  645MOL0     O88896   3.865   2.927  -0.823  0.0954  0.4562 -0.6333
  645MOL0     C88897   3.977   2.910  -0.898 -0.1666  0.6112  0.0778
  645MOL0     C88898   4.015   2.775  -0.922  1.0363 -0.9555 -0.4820
  645MOL0     C88899   4.124   2.742  -1.007  0.1582  0.6627 -0.3687
  645MOL0     C88900   4.164   2.597  -1.008 -0.1688 -0.4786 -0.0591
  645MOL0     C88901   4.186   2.845  -1.070  0.0700  0.1577 -0.4887
  645MOL0     C88902   4.276   2.833  -1.188  0.3510 -0.6128  0.0913
  645MOL0     O88903   4.306   2.958  -1.246  0.3588 -0.5883  0.2016
  645MOL0     C88904   4.396   2.967  -1.348 -0.4692  0.6437 -0.3017
  645MOL0     C88905   4.523   2.943  -1.328 -0.7089  0.5235  0.0262
  645MOL0     C88906   4.617   2.980  -1.431  0.5520  0.1450  0.6187
  645MOL0     C88907   4.576   3.038  -1.551  0.1710 -0.2043 -0.4388
  645MOL0     O88908   4.672   3.086  -1.639  0.6407 -0.2578  0.3859
  645MOL0     C88909   4.650   3.060  -1.780  0.0098  0.2044  0.6994
  645MOL0     C88910   4.628   2.904  -1.813 -0.7840 -0.2869 -0.0822
  645MOL0     C88911   4.766   2.820  -1.809 -0.4349  0.4465  1.0760
  645MOL0     C88912   4.825   2.807  -1.955  0.5121 -0.0360 -0.1451
  645MOL0     C88913   4.972   2.777  -1.983 -0.4098  0.2476 -0.5301
  645MOL0     C88914   5.082   2.876  -1.930 -0.7757  0.4314  0.7468
  645MOL0     C88915   5.215   2.839  -2.002  0.4550 -0.8476 -0.3088
  645MOL0     C88916   5.335   2.896  -1.918  0.0343  0.1267 -0.0507
  645MOL0    Cl88917   5.484   2.891  -2.022  0.0252 -0.0889 -0.2065
  645MOL0     C88918   4.434   3.071  -1.561 -0.9099 -0.2776 -0.1217
  645MOL0     C88919   4.348   3.025  -1.458 -0.3480  0.4015  0.2501
  645MOL0     O88920   4.318   2.724  -1.216 -0.5788 -1.1165 -0.2524
  645MOL0     C88921   4.150   2.981  -1.052  0.4243 -0.3220 -0.4299
  645MOL0     C88922   4.050   3.009  -0.961 -0.1387 -0.7153 -0.1376
  645MOL0     N88923   3.279   2.960  -0.946  0.6435  1.0451  0.4503
  645MOL0     N88924   3.188   3.034  -0.887  0.0090 -0.5350 -1.3432
  645MOL0     C88925   2.610   3.597  -0.076 -0.2096  0.0650  0.4959
  645MOL0     C88926   2.520   3.537   0.014  0.1011 -0.2700 -0.9287
  645MOL0     C88927   2.369   3.320   0.413  0.2378 -0.1522  0.3932
  645MOL0     C88928   2.265   3.414   0.410 -0.3635 -0.3322  0.2233
  645MOL0     C88929   2.160   3.419   0.502  0.0083  0.4240 -0.3863
  645MOL0     C88930   2.138   3.313   0.591 -0.0253  0.3407  0.3217
  645MOL0     O88931   2.016   3.310   0.656  0.5316  0.0149  0.3112
  645MOL0     C88932   1.981   3.200   0.736  0.3656 -0.2546 -0.3847
  645MOL0     C88933   1.932   3.074   0.664 -0.5605 -0.2978  1.2158
  645MOL0     C88934   1.785   3.085   0.608 -0.1742  0.6830 -0.6067
  645MOL0     C88935   1.757   3.207   0.514  0.3189 -0.0128 -0.0623
  645MOL0     C88936   1.627   3.200   0.454  0.4693 -0.2371 -0.1498
  645MOL0     C88937   1.514   3.185   0.421 -0.1882  0.9634  0.4356
  645MOL0     C88938   2.236   3.216   0.596  0.1417  1.2704  1.0892
  645MOL0     C88939   2.358   3.225   0.518  0.2765 -0.2832 -0.1011
  645MOL0     C88940   2.467   3.130   0.544  0.3908  0.3125 -0.4411
  645MOL0     H88941   2.705   3.290   0.145  0.8296 -0.2035 -0.6671
  645MOL0     H88942   2.846   3.365  -0.052 -0.5204  0.6010  2.1712
  645MOL0     H88943   2.740   3.745  -0.258  1.1003 -1.2900  3.1680
  645MOL0     H88944   2.704   3.618  -0.373 -1.8577  0.6696  2.3709
  645MOL0     H88945   2.874   3.786  -0.439  2.1627  0.5967 -1.5657
  645MOL0     H88946   2.987   3.727  -0.310 -0.8978  2.0945 -0.4120
  645MOL0     H88947   3.022   3.532  -0.422  0.5243 -0.5332 -1.6512
  645MOL0     H88948   2.896   3.548  -0.533  0.2266 -2.8537  2.5366
  645MOL0     H88949   3.013   3.734  -0.660  1.3831  1.8550  0.2041
  645MOL0     H88950   3.109   3.771  -0.522  0.0890  0.2869  1.9805
  645MOL0     H88951   3.211   3.537  -0.550 -1.4262  0.8346  0.3660
  645MOL0     H88952   3.251   3.646  -0.682  2.1103  1.4686  3.7187
  645MOL0     H88953   3.044   3.412  -0.647 -1.6043 -0.2440 -0.2246
  645MOL0     H88954   3.042   3.508  -0.796  1.5636  0.5669 -0.9597
  645MOL0     H88955   3.282   3.325  -0.709  1.1005 -0.9485 -0.0249
  645MOL0     H88956   3.289   3.443  -0.836 -1.0480  1.6192  0.1125
  645MOL0     H88957   3.067   3.225  -0.797 -1.8865 -1.5819 -3.5386
  645MOL0     H88958   3.098   3.322  -0.937  0.8295  1.0456  0.1345
  645MOL0     H88959   3.406   3.255  -1.011  2.5730 -1.2278  1.0418
  645MOL0     H88960   3.519   3.072  -1.152  1.1505  1.0733  1.8486
  645MOL0     H88961   3.444   2.914  -1.135  1.0852  0.9155 -2.7223
  645MOL0     H88962   3.591   2.900  -0.903  1.0259 -2.3492 -2.7887
  645MOL0     H88963   3.682   2.888  -1.050 -0.8844 -0.0889  0.2996
  645MOL0     H88964   3.774   3.104  -1.022  0.8014 -2.5411 -0.3274
  645MOL0     H88965   3.636   3.158  -0.916  1.1954  0.8524  1.5097
  645MOL0     H88966   3.855   3.127  -0.794 -0.5180 -0.4983  0.5794
  645MOL0     H88967   3.724   3.018  -0.731 -0.2248 -1.1816 -0.3052
  645MOL0     H88968   3.952   2.699  -0.877  0.5160  0.3477  1.0844
  645MOL0     H88969   4.142   2.534  -1.095  0.4807 -2.8713  1.3987
  645MOL0     H88970   4.119   2.550  -0.920 -1.2707  0.9161  0.1476
  645MOL0     H88971   4.274   2.598  -1.006 -0.0143 -1.4768 -2.9125
  645MOL0     H88972   4.557   2.873  -1.252  0.4491  1.3100  0.2540
  645MOL0     H88973   4.717   2.939  -1.436  1.4987  2.0778  2.0801
  645MOL0     H88974   4.566   3.118  -1.817 -0.7968  0.0756  2.2920
  645MOL0     H88975   4.742   3.094  -1.830  0.5611 -0.7626  1.0219
  645MOL0     H88976   4.557   2.855  -1.746 -2.7692 -2.1282 -3.2619
  645MOL0     H88977   4.592   2.903  -1.916  1.4759  3.3309 -1.0877
  645MOL0     H88978   4.758   2.719  -1.768 -0.7483  0.2910  0.6385
  645MOL0     H88979   4.846   2.873  -1.756  0.9293 -1.1395  0.6795
  645MOL0     H88980   4.824   2.908  -1.999  0.8052 -0.5121 -1.2729
  645MOL0     H88981   4.755   2.753  -2.020 -0.5179  0.5985  0.3995
  645MOL0     H88982   4.987   2.678  -1.938 -1.5544  1.9644  4.1043
  645MOL0     H88983   4.990   2.760  -2.090 -2.4336  2.6257 -1.3326
  645MOL0     H88984   5.105   2.869  -1.823  3.4365  1.5937  0.0988
  645MOL0     H88985   5.050   2.977  -1.957 -2.9225 -0.8057 -1.8051
  645MOL0     H88986   5.228   2.878  -2.104 -0.5282  1.9603  0.5727
  645MOL0     H88987   5.236   2.732  -2.004  2.4370 -0.4909 -0.5723
  645MOL0     H88988   5.344   2.839  -1.824 -0.9671 -1.0785 -0.6491
  645MOL0     H88989   5.318   3.001  -1.892  0.0746 -0.0247  0.6030
  645MOL0     H88990   4.388   3.119  -1.646  0.2741  3.8333  1.3154
  645MOL0     H88991   4.241   3.040  -1.461 -0.3144  0.9330 -3.4547
  645MOL0     H88992   4.192   3.075  -1.086  0.3760 -0.9684 -2.3986
  645MOL0     H88993   4.025   3.114  -0.952 -0.6921 -0.4891 -3.1954
  645MOL0     H88994   2.565   3.673  -0.139 -2.9504  2.0162  4.4182
  645MOL0     H88995   2.415   3.565   0.025  0.0429 -0.4180 -1.0980
  645MOL0     H88996   2.261   3.490   0.332  1.3631 -0.0629  0.3592
  645MOL0     H88997   2.098   3.508   0.498 -0.8352 -0.1216  0.2588
  645MOL0     H88998   2.065   3.173   0.801  0.7319  3.4418  0.9157
  645MOL0     H88999   1.902   3.242   0.798 -2.2126 -0.5509 -3.2195
  645MOL0     H89000   1.937   2.993   0.738 -1.3117 -1.1531  0.3703
  645MOL0     H89001   1.992   3.055   0.575 -3.2475 -2.4581 -0.3043
  645MOL0     H89002   1.775   2.994   0.548  0.8030  1.4545 -1.9851
  645MOL0     H89003   1.708   3.074   0.686 -1.5938 -2.0858 -2.2601
  645MOL0     H89004   1.825   3.214   0.429 -0.2750 -1.5513 -0.6882
  645MOL0     H89005   1.760   3.299   0.573  1.0744 -0.7126  1.0263
  645MOL0     H89006   1.416   3.173   0.379 -0.1871 -0.2438  0.7569
  645MOL0     H89007   2.226   3.133   0.666  0.7023  1.4116  1.3377
  645MOL0     H89008   2.455   3.055   0.622 -3.3954  2.9298  1.8350
  645MOL0     H89009   2.492   3.077   0.452  1.7955 -0.4460  0.3493
  645MOL0     H89010   2.549   3.192   0.580  0.7276 -0.1421 -0.4264
  646MOL0     O89011   6.143   0.722   8.300  0.2591 -0.4649  0.3384
  646MOL0     C89012   6.073   0.817   8.324  0.5970  0.4197  0.2286
  646MOL0     O89013   6.110   0.923   8.378 -0.2794  0.0653  0.2797
  646MOL0     C89014   6.229   0.975   8.357 -0.3408 -0.1212 -1.1121
  646MOL0     C89015   6.286   0.997   8.230 -0.1739  0.4900  0.4155
  646MOL0     C89016   6.410   1.057   8.217 -0.0224  0.9119 -1.1467
  646MOL0     C89017   6.482   1.094   8.330 -0.0847 -0.1029 -0.3191
  646MOL0     O89018   6.603   1.156   8.315 -0.0327 -0.5732  0.2532
  646MOL0     C89019   6.686   1.202   8.426  0.0929  0.6923  0.1353
  646MOL0     C89020   6.819   1.262   8.388  0.9408 -0.2002  0.2308
  646MOL0     C89021   6.895   1.326   8.502 -0.7651  0.6492 -0.4739
  646MOL0     C89022   6.824   1.454   8.568 -0.6037  0.7050  1.0320
  646MOL0     C89023   6.920   1.556   8.627 -0.2875 -0.1889 -0.2132
  646MOL0     C89024   7.032   1.505   8.722  1.2141  0.1147  0.7324
  646MOL0     C89025   7.108   1.612   8.799 -0.7273 -0.1063 -0.5668
  646MOL0     C89026   7.019   1.672   8.910  0.3271 -0.2465  0.9959
  646MOL0     N89027   7.093   1.773   8.989  0.3158 -0.3397 -0.0965
  646MOL0     C89028   7.196   1.751   9.078  0.4119 -0.1643  0.2517
  646MOL0     C89029   7.250   1.879   9.091 -0.2276  0.0647 -0.1283
  646MOL0     C89030   7.381   1.916   9.165 -0.4300 -0.2966 -0.4066
  646MOL0     C89031   7.374   2.000   9.287  0.3943  0.5912  0.4333
  646MOL0     C89032   7.466   1.955   9.389  0.8764  0.7143 -0.1146
  646MOL0     C89033   7.477   2.049   9.511  0.2163 -0.0492 -0.0082
  646MOL0     O89034   7.576   1.992   9.601 -0.2857  0.2106  0.0973
  646MOL0     C89035   7.706   2.030   9.592 -0.5954 -0.5839  0.5171
  646MOL0     C89036   7.790   1.987   9.688 -1.2162 -0.1309 -0.7200
  646MOL0     C89037   7.931   2.005   9.674 -0.1520  0.3338 -0.2461
  646MOL0     C89038   8.015   1.932   9.780 -0.4449  0.3136  0.0038
  646MOL0     C89039   7.984   2.082   9.568  0.3786 -0.7657  0.2957
  646MOL0     C89040   8.127   2.114   9.551 -0.2023  0.2824  0.7357
  646MOL0     O89041   8.169   2.138   9.423 -1.0734  0.2078 -0.2951
  646MOL0     C89042   8.285   2.206   9.396 -0.3065 -0.5392 -0.2262
  646MOL0     C89043   8.291   2.332   9.337 -1.0728  0.0431  0.1813
  646MOL0     C89044   8.411   2.389   9.307  0.4039 -0.2718  0.0929
  646MOL0     C89045   8.535   2.335   9.337 -0.8033  0.2253 -0.5232
  646MOL0     O89046   8.660   2.391   9.295  0.3843 -0.1592  0.3595
  646MOL0     C89047   8.783   2.364   9.367  0.4449 -0.0981 -0.1791
  646MOL0     C89048   8.789   2.408   9.519 -0.7114  0.0742  0.9546
  646MOL0     C89049   8.778   2.557   9.526  0.2222  0.4836  0.0471
  646MOL0     C89050   8.890   2.640   9.467  1.0751  0.3700  0.2344
  646MOL0     C89051   8.853   2.781   9.475 -0.4311 -1.4483 -0.3903
  646MOL0     C89052   8.967   2.878   9.443  0.6516  0.2935 -0.1221
  646MOL0     C89053   8.928   3.028   9.425 -1.0537  0.4825 -0.7120
  646MOL0     C89054   9.021   3.117   9.338 -1.0642  0.6011  0.1060
  646MOL0    Cl89055   8.984   3.285   9.373  0.1326 -0.2272 -0.2804
  646MOL0     C89056   8.527   2.208   9.397 -0.3948  0.5329 -0.1942
  646MOL0     C89057   8.402   2.147   9.424  0.5395 -0.1085 -0.1066
  646MOL0     O89058   8.198   2.125   9.650 -0.4021 -0.4789 -0.6112
  646MOL0     C89059   7.893   2.135   9.473  1.0156  0.1250  0.1134
  646MOL0     C89060   7.765   2.114   9.484  1.7735  0.0495 -0.5342
  646MOL0     N89061   7.169   1.977   9.033  0.3788  0.0461  0.7085
  646MOL0     N89062   7.077   1.909   8.966 -0.4165 -0.9443 -0.0570
  646MOL0     C89063   6.422   1.075   8.459  0.0084  0.9007  0.6171
  646MOL0     C89064   6.300   1.010   8.478 -0.7863 -0.0307  0.1241
  646MOL0     C89065   5.928   0.795   8.320  0.0407  0.3962  0.7013
  646MOL0     C89066   5.847   0.878   8.397 -0.2822  0.9026 -0.1338
  646MOL0     C89067   5.705   0.854   8.409  1.1027 -0.0167  0.1982
  646MOL0     C89068   5.649   0.740   8.353  0.4590 -0.7694  0.5216
  646MOL0     O89069   5.521   0.690   8.338 -0.1096  0.3551 -0.2094
  646MOL0     C89070   5.431   0.730   8.446  0.1181 -0.7798 -0.1375
  646MOL0     C89071   5.390   0.608   8.531  0.8861 -0.3662  0.3627
  646MOL0     C89072   5.289   0.631   8.647 -0.0628  0.4318  0.0562
  646MOL0     C89073   5.340   0.717   8.764 -0.1685  0.5344  0.5907
  646MOL0     C89074   5.441   0.655   8.854 -0.0047  0.7131 -0.8570
  646MOL0     C89075   5.525   0.614   8.937 -0.0696  0.0084 -0.0083
  646MOL0     C89076   5.734   0.665   8.269  0.2016 -1.0106 -0.3892
  646MOL0     C89077   5.872   0.688   8.246  1.2358  0.6164 -0.2841
  646MOL0     C89078   5.941   0.585   8.152 -0.3551 -0.0364  0.3258
  646MOL0     H89079   6.238   0.980   8.135  2.3761  1.1632 -1.0886
  646MOL0     H89080   6.454   1.080   8.120  6.0002  2.8610  1.5743
  646MOL0     H89081   6.706   1.127   8.504 -3.4503 -2.3224 -1.5594
  646MOL0     H89082   6.626   1.276   8.481 -1.3105 -0.2052 -0.1353
  646MOL0     H89083   6.883   1.193   8.332  0.2684 -0.2759 -0.4654
  646MOL0     H89084   6.799   1.346   8.321 -3.0288  0.6655  2.2322
  646MOL0     H89085   6.921   1.253   8.580 -2.9951  1.3788  1.0437
  646MOL0     H89086   6.997   1.348   8.470 -1.1462  0.5358 -1.8057
  646MOL0     H89087   6.758   1.498   8.492  1.2985 -3.1219 -3.3085
  646MOL0     H89088   6.749   1.421   8.641 -2.1287  0.8439 -0.4224
  646MOL0     H89089   6.858   1.626   8.684 -1.4658 -1.7206  0.4727
  646MOL0     H89090   6.967   1.610   8.544  0.0001 -1.9091 -1.2428
  646MOL0     H89091   6.989   1.436   8.795  0.4126 -2.4388 -1.9396
  646MOL0     H89092   7.111   1.456   8.664 -0.8093 -2.0056 -0.4075
  646MOL0     H89093   7.143   1.679   8.720  0.8085 -0.7080 -0.4139
  646MOL0     H89094   7.190   1.557   8.845  2.7030  4.2512 -0.8444
  646MOL0     H89095   6.929   1.711   8.861  0.4559  1.8445  2.3017
  646MOL0     H89096   6.989   1.595   8.983  0.5723  0.2225  1.5964
  646MOL0     H89097   7.249   1.662   9.112  1.8468  1.5532  2.8658
  646MOL0     H89098   7.456   1.960   9.099  1.5977  1.6007  2.8728
  646MOL0     H89099   7.419   1.819   9.196  3.7246  1.5007  0.7397
  646MOL0     H89100   7.393   2.103   9.256 -1.7920  0.4285 -1.8133
  646MOL0     H89101   7.277   1.979   9.332  0.5513 -1.6157 -0.1446
  646MOL0     H89102   7.433   1.863   9.438  1.4422  1.0272  0.8880
  646MOL0     H89103   7.562   1.943   9.338 -0.3562 -0.1760 -2.3159
  646MOL0     H89104   7.491   2.154   9.482 -2.4423  0.7726  1.3256
  646MOL0     H89105   7.380   2.062   9.560  1.3768  2.7066  1.7953
  646MOL0     H89106   7.760   1.933   9.776  1.6722 -0.9038 -0.0984
  646MOL0     H89107   8.030   2.001   9.864 -1.2268  0.3019  0.1591
  646MOL0     H89108   8.116   1.898   9.755  0.4407  0.9459  2.3569
  646MOL0     H89109   7.951   1.853   9.820 -1.3381  1.7248  1.5377
  646MOL0     H89110   8.208   2.398   9.314  0.1445  1.5094 -0.1220
  646MOL0     H89111   8.399   2.488   9.264 -1.2027  1.7897  4.6640
  646MOL0     H89112   8.807   2.259   9.381  1.8535  0.5206  2.8378
  646MOL0     H89113   8.856   2.415   9.304  2.3112 -2.1340  0.2064
  646MOL0     H89114   8.715   2.360   9.582  3.1003  0.1887  6.1385
  646MOL0     H89115   8.891   2.389   9.555  0.0433 -0.0410 -1.1013
  646MOL0     H89116   8.779   2.573   9.634  3.9999 -3.7414  0.9708
  646MOL0     H89117   8.682   2.593   9.489  0.4019  2.8481  1.6723
  646MOL0     H89118   8.903   2.611   9.363  2.5297 -2.0505  1.0184
  646MOL0     H89119   8.981   2.617   9.523  1.1133  2.9159  1.3464
  646MOL0     H89120   8.770   2.810   9.409 -1.3145  1.3144  1.7691
  646MOL0     H89121   8.823   2.801   9.578  0.8188  1.7665 -0.5280
  646MOL0     H89122   9.019   2.860   9.349 -0.4252  5.0580 -1.9091
  646MOL0     H89123   9.048   2.869   9.517 -1.6298  2.2085  2.8618
  646MOL0     H89124   8.937   3.060   9.529 -0.2775 -3.0910  0.4711
  646MOL0     H89125   8.824   3.038   9.394 -1.0061  3.8303 -0.1876
  646MOL0     H89126   9.009   3.082   9.235 -0.8379  1.9346 -0.3967
  646MOL0     H89127   9.127   3.101   9.360 -0.3515  2.9040 -1.2349
  646MOL0     H89128   8.612   2.146   9.425 -0.9319 -0.5431 -0.8918
  646MOL0     H89129   8.401   2.055   9.481 -0.0307  0.1665  0.3410
  646MOL0     H89130   7.914   2.194   9.384 -0.2790 -0.8672 -0.8842
  646MOL0     H89131   7.701   2.151   9.404  1.4931  1.1672  0.1817
  646MOL0     H89132   6.478   1.109   8.546 -0.3964  3.5716 -0.0596
  646MOL0     H89133   6.266   0.977   8.575  3.5649  0.0452  1.8873
  646MOL0     H89134   5.897   0.952   8.458 -0.9377 -0.6836  2.4498
  646MOL0     H89135   5.655   0.922   8.476 -3.5471 -1.5006 -1.4017
  646MOL0     H89136   5.476   0.806   8.511 -2.3922  0.3857  0.3678
  646MOL0     H89137   5.338   0.765   8.400 -0.2678 -1.7739 -0.1411
  646MOL0     H89138   5.480   0.576   8.584  0.9481 -1.2613 -0.2552
  646MOL0     H89139   5.355   0.529   8.464  0.1480  0.9595 -0.8861
  646MOL0     H89140   5.196   0.671   8.606  1.1220  2.2550 -1.0209
  646MOL0     H89141   5.276   0.530   8.688  0.1317  1.2938  2.4341
  646MOL0     H89142   5.251   0.744   8.821 -0.1156 -0.6682  1.2792
  646MOL0     H89143   5.388   0.806   8.722  0.6219 -1.4202 -3.0867
  646MOL0     H89144   5.598   0.583   9.008 -0.2172  2.3307  1.2783
  646MOL0     H89145   5.691   0.582   8.215 -0.0258 -1.8339  1.0111
  646MOL0     H89146   5.990   0.504   8.206  1.8917  1.2909  0.4060
  646MOL0     H89147   5.865   0.533   8.093 -0.2227  1.8435 -1.6041
  646MOL0     H89148   6.021   0.628   8.092  0.0372 -1.7407 -0.4238
  647MOL0     O89149   6.326   2.813   1.827  0.5371  0.2037 -1.1713
  647MOL0     C89150   6.333   2.687   1.855  0.7449 -0.3403  1.0360
  647MOL0     O89151   6.441   2.617   1.859 -0.6054  0.2337 -0.6051
  647MOL0     C89152   6.562   2.682   1.857  0.2212  0.8219 -0.0994
  647MOL0     C89153   6.624   2.710   1.974  0.9733  0.3117 -0.7366
  647MOL0     C89154   6.741   2.791   1.970 -0.0063  0.9390 -0.2923
  647MOL0     C89155   6.792   2.841   1.850  0.0848 -1.0284 -0.2885
  647MOL0     O89156   6.907   2.920   1.858 -0.8199  0.2317  0.4839
  647MOL0     C89157   6.966   2.990   1.755  0.1201  0.7807  0.4302
  647MOL0     C89158   6.946   3.137   1.785 -0.0836  0.2590  0.3895
  647MOL0     C89159   6.937   3.221   1.657  0.3411 -0.4444 -0.3968
  647MOL0     C89160   6.888   3.372   1.668 -0.4335  0.9140  0.2401
  647MOL0     C89161   6.960   3.471   1.754  1.6800 -0.2861  0.1858
  647MOL0     C89162   7.104   3.483   1.717 -0.3780 -0.2540  0.2206
  647MOL0     C89163   7.147   3.518   1.572 -0.0264 -0.3563  0.9457
  647MOL0     C89164   7.105   3.658   1.538 -0.5096 -0.2622  0.7270
  647MOL0     N89165   7.205   3.768   1.553 -0.1610  0.0856 -0.5692
  647MOL0     C89166   7.240   3.864   1.464 -0.1349 -0.1633 -0.3227
  647MOL0     C89167   7.320   3.950   1.531  0.0492 -0.6352 -0.6823
  647MOL0     C89168   7.397   4.069   1.483  0.6376  0.6320  0.5206
  647MOL0     C89169   7.484   4.025   1.370 -0.1579 -1.0615 -0.3975
  647MOL0     C89170   7.565   4.143   1.312 -0.4967 -0.0629  0.7415
  647MOL0     C89171   7.650   4.097   1.197 -0.1048  1.0724  0.7062
  647MOL0     O89172   7.780   4.080   1.248 -0.2132  0.0722 -0.8480
  647MOL0     C89173   7.872   4.015   1.176  0.0400 -0.4549 -0.3969
  647MOL0     C89174   8.000   4.003   1.224 -0.2208 -0.1391 -0.5760
  647MOL0     C89175   8.114   3.947   1.158  0.7069  0.2189  0.0051
  647MOL0     C89176   8.251   3.958   1.221 -1.0857 -0.1514 -0.2668
  647MOL0     C89177   8.089   3.906   1.023  0.0601  0.7926 -0.8677
  647MOL0     C89178   8.202   3.866   0.929  0.2967  0.5467  0.0077
  647MOL0     O89179   8.165   3.774   0.834 -0.3405 -0.5928 -0.1272
  647MOL0     C89180   8.253   3.753   0.734 -0.1079 -0.0406  0.5249
  647MOL0     C89181   8.362   3.662   0.738 -0.4222  0.0558 -0.4911
  647MOL0     C89182   8.432   3.630   0.633  0.3602 -0.4526  0.5676
  647MOL0     C89183   8.400   3.669   0.506  0.4620 -0.2408  0.0418
  647MOL0     O89184   8.456   3.603   0.396  0.4587  0.1968 -0.0881
  647MOL0     C89185   8.397   3.623   0.266 -0.2018  0.5263  0.0693
  647MOL0     C89186   8.257   3.539   0.250 -0.0485  0.1974  0.1932
  647MOL0     C89187   8.278   3.392   0.270 -0.6458  0.9435  0.6015
  647MOL0     C89188   8.146   3.322   0.236  0.4471 -0.2962  0.2777
  647MOL0     C89189   8.159   3.173   0.280  0.1262 -0.0975 -0.3353
  647MOL0     C89190   8.028   3.094   0.265  0.1551 -0.5897  0.2861
  647MOL0     C89191   8.055   2.946   0.302 -0.5233  0.5529 -0.1379
  647MOL0     C89192   7.937   2.842   0.282 -0.0013 -0.9653  0.2117
  647MOL0    Cl89193   7.794   2.891   0.377  0.1138 -0.0591  0.0464
  647MOL0     C89194   8.297   3.771   0.497 -0.2356  0.3760  0.5247
  647MOL0     C89195   8.219   3.803   0.603 -0.2127  0.5168  0.2259
  647MOL0     O89196   8.314   3.901   0.944  0.5902  0.1990 -0.2757
  647MOL0     C89197   7.963   3.919   0.971 -0.1603  1.2588  0.4745
  647MOL0     C89198   7.857   3.971   1.046  0.6327 -0.4659  0.6031
  647MOL0     N89199   7.333   3.907   1.664  0.4860  0.2087  0.4074
  647MOL0     N89200   7.255   3.805   1.676 -1.0356  0.4437  0.3431
  647MOL0     C89201   6.730   2.806   1.733  0.9633  0.0343 -0.0166
  647MOL0     C89202   6.621   2.723   1.737  0.4681 -0.2741 -0.7808
  647MOL0     C89203   6.203   2.621   1.887 -0.2210 -0.0999 -0.7971
  647MOL0     C89204   6.193   2.485   1.846  0.1198 -0.2340 -0.6431
  647MOL0     C89205   6.084   2.409   1.891  0.4645  0.8598  0.6372
  647MOL0     C89206   5.977   2.462   1.963  0.1312 -0.2991  0.3846
  647MOL0     O89207   5.894   2.365   2.021  0.3955 -0.9256  0.3216
  647MOL0     C89208   5.831   2.396   2.140  0.7652 -0.4098  0.3854
  647MOL0     C89209   5.753   2.276   2.190  0.5860 -0.6844 -0.1332
  647MOL0     C89210   5.616   2.268   2.107  0.3395 -0.0874  0.3188
  647MOL0     C89211   5.501   2.378   2.122  0.0920  0.7123  0.0898
  647MOL0     C89212   5.399   2.389   2.013  0.8992 -0.0177  0.6957
  647MOL0     C89213   5.340   2.381   1.902 -0.2289 -0.7019 -0.9855
  647MOL0     C89214   5.981   2.597   1.999 -0.7467 -0.8488 -0.2230
  647MOL0     C89215   6.094   2.683   1.959 -0.2442  0.7584 -1.1015
  647MOL0     C89216   6.090   2.834   2.010 -0.6035 -0.3476 -0.4680
  647MOL0     H89217   6.576   2.684   2.068  0.9847  0.8614 -0.5717
  647MOL0     H89218   6.794   2.830   2.056  0.2210  0.0304 -0.0126
  647MOL0     H89219   6.916   2.975   1.659  0.0140  0.4103  0.5421
  647MOL0     H89220   7.074   2.974   1.751 -0.0740 -0.3657 -1.0511
  647MOL0     H89221   6.856   3.141   1.847 -0.3209  1.2126  0.0029
  647MOL0     H89222   7.031   3.165   1.848 -0.0267 -1.1791  0.9929
  647MOL0     H89223   7.026   3.205   1.595  0.1010 -0.7069 -0.6729
  647MOL0     H89224   6.852   3.175   1.607  0.1389  0.8030 -1.2504
  647MOL0     H89225   6.890   3.417   1.568 -3.5146  0.2379 -0.2529
  647MOL0     H89226   6.783   3.380   1.700 -1.0277  1.7738 -1.7499
  647MOL0     H89227   6.965   3.435   1.858  0.9557  0.2661  0.4208
  647MOL0     H89228   6.913   3.569   1.747 -0.7188 -1.4608 -1.1060
  647MOL0     H89229   7.135   3.561   1.787 -2.8679  1.5540 -0.5774
  647MOL0     H89230   7.150   3.385   1.733 -2.8608 -1.3894  0.7943
  647MOL0     H89231   7.109   3.449   1.496  1.4947  0.5248 -0.6931
  647MOL0     H89232   7.254   3.501   1.556 -0.4368 -1.5396 -0.8531
  647MOL0     H89233   7.086   3.659   1.431 -3.3496 -0.8554  1.1340
  647MOL0     H89234   7.020   3.697   1.596  0.9835 -0.8192  3.5051
  647MOL0     H89235   7.222   3.879   1.358  3.6334 -2.4357 -1.4701
  647MOL0     H89236   7.469   4.106   1.557  1.2556 -0.2139  0.3574
  647MOL0     H89237   7.329   4.147   1.448  0.4680  0.4899  0.5350
  647MOL0     H89238   7.546   3.939   1.396 -1.4228 -1.8859 -0.0061
  647MOL0     H89239   7.415   3.980   1.297 -1.7685 -2.0526  1.6216
  647MOL0     H89240   7.500   4.219   1.268 -1.4780 -0.8191  0.8570
  647MOL0     H89241   7.622   4.190   1.394 -1.0493  0.7953  0.6498
  647MOL0     H89242   7.615   4.010   1.142 -3.7777  3.5715 -1.3837
  647MOL0     H89243   7.668   4.180   1.128  2.1574  0.5426  0.5834
  647MOL0     H89244   8.013   4.040   1.325 -0.2601 -1.2502 -0.1488
  647MOL0     H89245   8.239   3.979   1.328 -0.1032  1.6795 -0.4668
  647MOL0     H89246   8.311   4.036   1.173  1.0864 -1.0998  0.7437
  647MOL0     H89247   8.307   3.867   1.202  1.2390  0.6332  2.1868
  647MOL0     H89248   8.391   3.611   0.830 -2.4765 -2.5524 -1.1755
  647MOL0     H89249   8.501   3.549   0.654 -1.3538 -1.4811  2.6160
  647MOL0     H89250   8.383   3.730   0.248  0.2877  0.7108  0.7595
  647MOL0     H89251   8.475   3.602   0.192 -1.2851 -0.3696 -0.8499
  647MOL0     H89252   8.181   3.583   0.316  1.9307  3.5537  0.4076
  647MOL0     H89253   8.227   3.547   0.145 -1.0829 -0.3955  0.4219
  647MOL0     H89254   8.312   3.366   0.371  0.1496 -1.4641 -0.2381
  647MOL0     H89255   8.359   3.351   0.210 -1.4101 -1.0512  0.8491
  647MOL0     H89256   8.130   3.322   0.127 -1.5559  1.9928  0.4956
  647MOL0     H89257   8.065   3.364   0.296  0.2557 -0.3124  0.0332
  647MOL0     H89258   8.243   3.137   0.220 -1.0151  0.2193 -2.1951
  647MOL0     H89259   8.184   3.182   0.386 -1.4272  2.9362 -0.1231
  647MOL0     H89260   7.973   3.103   0.171 -1.8567 -0.4155  1.4167
  647MOL0     H89261   7.956   3.143   0.332  2.0187  2.3470  0.3099
  647MOL0     H89262   8.106   2.934   0.398 -0.9682 -1.6878 -0.1160
  647MOL0     H89263   8.135   2.914   0.234 -1.7429 -0.1820 -1.2709
  647MOL0     H89264   7.970   2.744   0.318 -1.9708 -1.5283  0.5951
  647MOL0     H89265   7.912   2.843   0.175  2.4106  0.7259 -0.4038
  647MOL0     H89266   8.268   3.813   0.402  0.2323  2.2768  1.1795
  647MOL0     H89267   8.136   3.873   0.601 -0.8680 -0.2498 -1.3799
  647MOL0     H89268   7.936   3.885   0.871 -0.9236  2.2107  0.3347
  647MOL0     H89269   7.768   3.984   0.985  0.4375 -1.0399  0.7613
  647MOL0     H89270   6.764   2.831   1.633  1.0409 -3.0716 -0.8667
  647MOL0     H89271   6.580   2.683   1.645 -0.9679 -0.8697  0.0798
  647MOL0     H89272   6.276   2.438   1.793  0.8100  0.1511  0.0700
  647MOL0     H89273   6.079   2.304   1.861 -0.0836  1.1036 -0.1645
  647MOL0     H89274   5.907   2.427   2.212  3.6326 -2.3790 -1.5769
  647MOL0     H89275   5.755   2.475   2.134 -1.0681 -2.1214 -0.0767
  647MOL0     H89276   5.718   2.287   2.293  1.7449 -0.7304  0.2797
  647MOL0     H89277   5.820   2.190   2.183  0.6749 -0.5550 -0.8660
  647MOL0     H89278   5.651   2.267   2.003  1.1861  0.5119  0.5897
  647MOL0     H89279   5.573   2.167   2.113 -0.8750  0.3108 -1.0456
  647MOL0     H89280   5.549   2.477   2.121  0.3949  0.5741 -0.8966
  647MOL0     H89281   5.445   2.349   2.210  0.8307 -1.4481 -0.1065
  647MOL0     H89282   5.284   2.384   1.811 -1.5405  1.7405 -0.1783
  647MOL0     H89283   5.906   2.644   2.062 -1.7175 -0.0047 -1.9465
  647MOL0     H89284   6.089   2.898   1.921  1.6816 -0.1381 -0.3998
  647MOL0     H89285   6.004   2.862   2.071 -1.2225 -2.5640 -0.2350
  647MOL0     H89286   6.185   2.865   2.053 -1.1277  3.3060 -1.5715
  648MOL0     O89287  10.847   7.656   8.929  0.6446 -0.6214  0.5388
  648MOL0     C89288  10.803   7.751   8.999  0.2748 -0.3418 -0.1059
  648MOL0     O89289  10.857   7.879   9.010 -0.4181  0.1281 -0.2209
  648MOL0     C89290  10.978   7.910   8.950  0.4784  0.6152  0.3023
  648MOL0     C89291  10.979   7.939   8.810  0.2304 -0.0115 -0.2751
  648MOL0     C89292  11.101   7.965   8.743 -0.3591 -0.1986  0.3099
  648MOL0     C89293  11.228   7.974   8.812  0.7083  0.8868  0.0862
  648MOL0     O89294  11.334   8.022   8.733 -0.0938 -0.3421 -0.9588
  648MOL0     C89295  11.372   7.934   8.622  0.6384 -0.0823 -0.2100
  648MOL0     C89296  11.329   8.012   8.493 -0.9979  0.4894 -0.3581
  648MOL0     C89297  11.425   8.127   8.454  1.3100 -0.1277 -0.4016
  648MOL0     C89298  11.561   8.077   8.403 -0.4351 -0.3595 -0.8665
  648MOL0     C89299  11.688   8.140   8.472  0.5796 -0.4822  0.2559
  648MOL0     C89300  11.684   8.297   8.489  0.0221  0.5533 -0.3897
  648MOL0     C89301  11.791   8.364   8.571  0.4280  0.3447  0.9798
  648MOL0     C89302  11.769   8.339   8.728 -0.6047  0.3341 -0.4454
  648MOL0     N89303  11.648   8.407   8.776  0.6222  0.2108  0.4855
  648MOL0     C89304  11.530   8.342   8.804  0.0966 -0.2976 -0.3650
  648MOL0     C89305  11.435   8.439   8.798  0.5617 -0.3494  0.6812
  648MOL0     C89306  11.284   8.411   8.793  0.3335  0.8515 -0.1749
  648MOL0     C89307  11.205   8.421   8.920 -0.2756  0.7775  0.4668
  648MOL0     C89308  11.186   8.576   8.954 -0.2645 -0.7302  0.9598
  648MOL0     C89309  11.261   8.622   9.087 -0.2017  0.3178  0.3981
  648MOL0     O89310  11.255   8.763   9.122  0.0344  0.6013 -0.2502
  648MOL0     C89311  11.289   8.804   9.242 -0.4945 -0.1923 -0.6521
  648MOL0     C89312  11.382   8.747   9.334  0.4046  0.7333  0.9582
  648MOL0     C89313  11.419   8.798   9.459  0.9525 -0.7160 -0.3176
  648MOL0     C89314  11.520   8.717   9.537 -0.7675  0.5200  0.0633
  648MOL0     C89315  11.368   8.924   9.502 -0.2683 -0.6081  0.7632
  648MOL0     C89316  11.415   9.001   9.623 -0.6585 -0.7738  0.4028
  648MOL0     O89317  11.368   9.132   9.641 -0.2991 -0.0780 -0.1312
  648MOL0     C89318  11.418   9.192   9.755 -0.3014  0.6907 -0.0475
  648MOL0     C89319  11.545   9.262   9.763 -0.2740  0.7547  0.0225
  648MOL0     C89320  11.587   9.312   9.882 -0.8311 -0.0545 -0.1856
  648MOL0     C89321  11.511   9.300   9.998 -0.8313 -0.0557  0.2240
  648MOL0     O89322  11.543   9.364  10.114 -0.1067 -0.6776  1.1080
  648MOL0     C89323  11.677   9.333  10.167  0.1285  0.1336 -0.1546
  648MOL0     C89324  11.737   9.451  10.245  0.1045  0.5627  0.2109
  648MOL0     C89325  11.873   9.401  10.303 -0.0065  1.0361  0.4774
  648MOL0     C89326  11.948   9.505  10.380 -0.0966  0.7461  0.0557
  648MOL0     C89327  12.086   9.463  10.447 -0.0454  0.4693 -0.0200
  648MOL0     C89328  12.107   9.549  10.577 -0.6579  0.3882  0.4592
  648MOL0     C89329  12.076   9.697  10.553  1.2028  0.6607  0.1486
  648MOL0     C89330  12.114   9.768  10.682 -0.1435 -0.0405 -0.2014
  648MOL0    Cl89331  12.041   9.931  10.664 -0.2733  0.0554  0.0450
  648MOL0     C89332  11.389   9.230   9.989  0.1874 -0.5792  1.3710
  648MOL0     C89333  11.336   9.180   9.866 -0.8451  0.1004  0.3817
  648MOL0     O89334  11.469   8.931   9.710  0.0028 -0.1286 -0.2687
  648MOL0     C89335  11.275   8.982   9.416  1.5584 -1.0590 -0.0129
  648MOL0     C89336  11.244   8.925   9.288 -0.2220 -0.6936 -0.4479
  648MOL0     N89337  11.492   8.566   8.799 -0.9819 -0.4729 -0.5536
  648MOL0     N89338  11.622   8.541   8.790 -0.6145 -0.1437 -0.0375
  648MOL0     C89339  11.221   7.954   8.953  0.0701  0.2123 -0.4297
  648MOL0     C89340  11.103   7.917   9.019  0.7822  0.3860 -0.2749
  648MOL0     C89341  10.676   7.732   9.074  0.3366  0.6136 -0.0557
  648MOL0     C89342  10.584   7.836   9.090  0.4864  0.4640  0.1360
  648MOL0     C89343  10.455   7.819   9.152  0.2490  0.1321 -0.5190
  648MOL0     C89344  10.419   7.693   9.210 -0.7609 -0.2243  0.4681
  648MOL0     O89345  10.302   7.666   9.267  0.0708 -0.0319  0.1172
  648MOL0     C89346  10.202   7.764   9.258  0.3303 -0.5646 -0.2251
  648MOL0     C89347  10.153   7.782   9.118  0.9057 -0.3675  0.0962
  648MOL0     C89348  10.082   7.661   9.068  0.4030  0.0471 -1.1052
  648MOL0     C89349  10.011   7.694   8.939 -0.4749 -0.7777  0.7216
  648MOL0     C89350   9.953   7.581   8.885  0.3641 -0.8950  0.2138
  648MOL0     C89351   9.894   7.488   8.835  0.3814  0.0594 -0.3491
  648MOL0     C89352  10.516   7.602   9.214 -0.1913  0.4159  0.1899
  648MOL0     C89353  10.647   7.613   9.148  0.1136  0.4342 -0.1522
  648MOL0     C89354  10.750   7.497   9.148 -0.2023 -0.1070  0.1050
  648MOL0     H89355  10.893   7.929   8.745 -0.9733 -3.1895  1.5841
  648MOL0     H89356  11.094   7.987   8.637 -0.8026  2.3529  0.7997
  648MOL0     H89357  11.320   7.838   8.632  0.5817 -0.4819 -3.3552
  648MOL0     H89358  11.475   7.897   8.619  1.1635  0.8929  2.5486
  648MOL0     H89359  11.330   7.939   8.411 -3.3784  1.1727 -1.0691
  648MOL0     H89360  11.225   8.045   8.496 -0.4479  2.2708 -0.1251
  648MOL0     H89361  11.374   8.194   8.383 -3.9765 -1.8889  1.3041
  648MOL0     H89362  11.444   8.186   8.544 -0.5131  0.2404 -0.2190
  648MOL0     H89363  11.558   7.968   8.409 -0.2785 -0.3935 -1.3745
  648MOL0     H89364  11.567   8.102   8.296 -0.9312  0.5758 -0.6861
  648MOL0     H89365  11.781   8.111   8.422  1.6682  1.9429  0.7449
  648MOL0     H89366  11.690   8.098   8.573 -1.6051 -1.7445 -0.1735
  648MOL0     H89367  11.694   8.348   8.393 -2.3340  1.7342 -0.0704
  648MOL0     H89368  11.591   8.341   8.524 -0.4602  0.7375 -1.8353
  648MOL0     H89369  11.774   8.470   8.554 -0.5300  0.2266  1.1158
  648MOL0     H89370  11.892   8.335   8.543  1.3287  3.1776  1.0617
  648MOL0     H89371  11.780   8.234   8.755  0.9556  0.2909 -1.1172
  648MOL0     H89372  11.854   8.394   8.769 -1.0905  1.7742 -1.2646
  648MOL0     H89373  11.533   8.234   8.811  0.6780 -0.2122  1.3093
  648MOL0     H89374  11.285   8.307   8.761  0.2832  1.6095 -2.9192
  648MOL0     H89375  11.237   8.471   8.714 -0.1246  1.0318  0.2295
  648MOL0     H89376  11.117   8.360   8.901  1.3199 -1.5255  0.0184
  648MOL0     H89377  11.253   8.373   9.006  2.7558  1.2356 -0.8150
  648MOL0     H89378  11.221   8.639   8.872  1.2337 -0.6612  1.6302
  648MOL0     H89379  11.077   8.582   8.968 -0.4606 -0.9472 -0.3742
  648MOL0     H89380  11.228   8.556   9.168 -0.3580  1.2654  1.1322
  648MOL0     H89381  11.366   8.592   9.082 -1.5667 -5.7433  1.0536
  648MOL0     H89382  11.395   8.646   9.297 -0.9937  1.6841 -2.5029
  648MOL0     H89383  11.569   8.643   9.473  1.2051  0.6975  1.2948
  648MOL0     H89384  11.478   8.672   9.627  2.1767  1.2371  1.9442
  648MOL0     H89385  11.611   8.763   9.577  0.4682 -0.8080 -1.0950
  648MOL0     H89386  11.596   9.266   9.668 -0.3506 -2.4426 -0.2523
  648MOL0     H89387  11.684   9.362   9.890 -0.2375 -0.4544 -3.4737
  648MOL0     H89388  11.666   9.253  10.240 -2.0553 -0.1757 -0.7469
  648MOL0     H89389  11.738   9.302  10.082 -0.9959 -0.5754 -0.7222
  648MOL0     H89390  11.756   9.538  10.181 -1.8040 -0.6097 -2.1117
  648MOL0     H89391  11.669   9.483  10.324 -2.3063 -0.3926 -1.3592
  648MOL0     H89392  11.934   9.359  10.223 -0.8366 -0.9503  0.8236
  648MOL0     H89393  11.847   9.315  10.365 -0.0846  1.3261  0.8506
  648MOL0     H89394  11.878   9.531  10.460  1.8608 -0.7173  2.3739
  648MOL0     H89395  11.953   9.596  10.320 -3.1279  0.8479 -0.1937
  648MOL0     H89396  12.074   9.356  10.467 -0.5794  0.0821 -2.2173
  648MOL0     H89397  12.165   9.482  10.374  0.0782 -0.1537 -0.0522
  648MOL0     H89398  12.209   9.535  10.613 -0.3357 -1.3222 -0.9583
  648MOL0     H89399  12.030   9.512  10.646 -0.2552 -1.2357  0.0874
  648MOL0     H89400  11.967   9.704  10.546  1.3659  1.5543 -2.2131
  648MOL0     H89401  12.116   9.740  10.461  0.5992 -2.0191 -1.4506
  648MOL0     H89402  12.222   9.782  10.695 -0.0332 -1.0229 -0.0099
  648MOL0     H89403  12.071   9.709  10.762 -0.7139 -0.3473 -0.7263
  648MOL0     H89404  11.333   9.229  10.082  0.1814  0.4576  1.3898
  648MOL0     H89405  11.237   9.136   9.863 -1.2525  0.2634  4.6843
  648MOL0     H89406  11.218   9.070   9.441  0.5783 -1.5659 -0.3828
  648MOL0     H89407  11.181   8.983   9.221  1.4237 -0.6429 -2.0225
  648MOL0     H89408  11.320   7.971   8.993 -0.0174  0.8391 -0.4741
  648MOL0     H89409  11.101   7.898   9.126 -1.1249  1.1473 -0.1282
  648MOL0     H89410  10.608   7.936   9.056  0.8042  0.1755 -0.5044
  648MOL0     H89411  10.384   7.901   9.154  0.0557  0.0031  2.8671
  648MOL0     H89412  10.120   7.735   9.325 -0.3570 -0.9310 -1.1952
  648MOL0     H89413  10.236   7.861   9.295  0.1789 -0.7042  0.2900
  648MOL0     H89414  10.231   7.802   9.043  1.7411 -3.8630 -0.1832
  648MOL0     H89415  10.082   7.865   9.111  0.7764 -0.4442  0.4683
  648MOL0     H89416  10.162   7.587   9.060  0.1178 -0.6867  1.8504
  648MOL0     H89417  10.004   7.644   9.143 -0.7486 -0.0297 -2.2795
  648MOL0     H89418  10.088   7.741   8.878  0.5712  0.5159  2.9045
  648MOL0     H89419   9.939   7.775   8.951 -0.1003 -0.4763  0.9613
  648MOL0     H89420   9.851   7.402   8.788  2.8934 -1.6371  0.1985
  648MOL0     H89421  10.479   7.505   9.247  0.4952  0.5040  1.2586
  648MOL0     H89422  10.735   7.445   9.053  2.9144  0.6153 -0.8860
  648MOL0     H89423  10.853   7.530   9.141  0.3936 -2.1539 -4.9403
  648MOL0     H89424  10.747   7.440   9.242  2.2657 -0.0024  0.3003
  649MOL0     O89425   4.912   5.192   8.609 -0.1233  0.4930 -0.0563
  649MOL0     C89426   4.828   5.233   8.688 -1.1991  0.2578  0.1061
  649MOL0     O89427   4.846   5.334   8.775 -0.3485  0.4859 -0.0941
  649MOL0     C89428   4.946   5.419   8.756 -0.4975  0.4955 -0.9024
  649MOL0     C89429   4.958   5.502   8.645 -0.7763  0.0682 -0.0539
  649MOL0     C89430   5.061   5.595   8.642  1.0668  0.1488 -0.4498
  649MOL0     C89431   5.147   5.614   8.751 -1.8957  0.3212 -0.2065
  649MOL0     O89432   5.236   5.711   8.734 -0.4547  0.3818 -0.1150
  649MOL0     C89433   5.343   5.743   8.821  0.0384  0.3462  0.4051
  649MOL0     C89434   5.410   5.880   8.784 -0.8052  0.3539 -1.2789
  649MOL0     C89435   5.518   5.880   8.895 -0.0221 -0.1269 -0.0715
  649MOL0     C89436   5.605   6.001   8.884  0.2512  0.2799  0.5131
  649MOL0     C89437   5.735   5.993   8.961  0.0068 -0.7894  0.8311
  649MOL0     C89438   5.817   6.122   8.947  0.0567 -0.7612 -0.0870
  649MOL0     C89439   5.943   6.107   9.029  0.9558 -0.4499  0.2735
  649MOL0     C89440   6.027   6.236   9.055 -0.4991 -0.2952  0.1155
  649MOL0     N89441   6.082   6.299   8.940 -0.4096 -0.2163  1.1996
  649MOL0     C89442   6.016   6.370   8.843 -0.5181  0.4387  0.3916
  649MOL0     C89443   6.106   6.406   8.752  0.1788  0.1251 -0.3832
  649MOL0     C89444   6.082   6.502   8.643  0.6843 -1.0573 -0.2438
  649MOL0     C89445   6.114   6.642   8.682 -0.6377 -0.4304  0.2625
  649MOL0     C89446   6.265   6.661   8.724  0.3466 -0.2157  0.4345
  649MOL0     C89447   6.312   6.808   8.704 -0.0917 -0.7662 -0.3981
  649MOL0     O89448   6.255   6.908   8.796  0.3705 -0.4946 -0.4891
  649MOL0     C89449   6.274   7.043   8.776 -0.1497 -0.5683 -0.4561
  649MOL0     C89450   6.223   7.131   8.872  0.7044 -0.3464 -0.4285
  649MOL0     C89451   6.246   7.260   8.888  0.0519 -0.6461 -0.0352
  649MOL0     C89452   6.176   7.323   8.998  0.2930  0.1582  0.0231
  649MOL0     C89453   6.345   7.309   8.793  0.0357  0.4212 -1.1273
  649MOL0     C89454   6.402   7.442   8.802  0.9292 -0.6914 -0.2251
  649MOL0     O89455   6.342   7.524   8.888 -0.4113  0.0309  0.5972
  649MOL0     C89456   6.379   7.662   8.887 -0.0368  0.3302 -0.1310
  649MOL0     C89457   6.286   7.761   8.861  0.0714 -0.1797 -0.5685
  649MOL0     C89458   6.319   7.904   8.857  0.2861 -0.4071  0.2727
  649MOL0     C89459   6.454   7.941   8.890 -0.0724  0.3432 -0.0241
  649MOL0     O89460   6.476   8.071   8.891  0.3339 -0.3830 -0.2850
  649MOL0     C89461   6.614   8.131   8.898  0.5493  0.9052  0.2072
  649MOL0     C89462   6.619   8.260   8.831  0.1114  0.6960  0.5959
  649MOL0     C89463   6.661   8.240   8.682 -0.2801  0.7060 -0.3235
  649MOL0     C89464   6.668   8.382   8.620  0.7716 -0.1578 -0.3305
  649MOL0     C89465   6.681   8.389   8.471  0.4976  0.0122  0.7664
  649MOL0     C89466   6.726   8.524   8.408  0.7007  0.3904  0.4981
  649MOL0     C89467   6.784   8.511   8.265  0.0851 -0.4164  0.3430
  649MOL0     C89468   6.667   8.501   8.166  0.3817  0.7837 -0.4987
  649MOL0    Cl89469   6.725   8.427   8.016  0.3144 -0.2632 -0.0514
  649MOL0     C89470   6.543   7.836   8.916 -0.9116  0.0587  0.1926
  649MOL0     C89471   6.513   7.703   8.909  0.0835  0.8768 -0.3502
  649MOL0     O89472   6.501   7.475   8.728 -0.1136 -0.4351 -0.7003
  649MOL0     C89473   6.401   7.225   8.691 -0.8215 -0.2765  0.6128
  649MOL0     C89474   6.373   7.085   8.683  0.6727 -0.3702 -0.1251
  649MOL0     N89475   6.226   6.352   8.792 -0.7889  0.1137  0.4342
  649MOL0     N89476   6.212   6.289   8.904 -0.3951  0.1239  0.6463
  649MOL0     C89477   5.125   5.535   8.868 -0.2943 -0.4233  0.7074
  649MOL0     C89478   5.037   5.431   8.869  0.9521  0.9604  0.2276
  649MOL0     C89479   4.712   5.142   8.691  1.0181 -0.5176  0.0323
  649MOL0     C89480   4.667   5.101   8.816  0.1714  0.2166 -0.1179
  649MOL0     C89481   4.570   5.001   8.834 -0.3213  0.1709 -0.0555
  649MOL0     C89482   4.507   4.953   8.723 -0.2234 -0.7638  0.3981
  649MOL0     O89483   4.395   4.875   8.741 -0.8533 -0.0643  0.8500
  649MOL0     C89484   4.318   4.817   8.633  0.1510 -0.1831 -0.1763
  649MOL0     C89485   4.238   4.703   8.693  0.7108  0.1046 -0.1147
  649MOL0     C89486   4.153   4.635   8.573 -0.7147  0.2072  0.0018
  649MOL0     C89487   4.070   4.510   8.608 -0.2749 -0.0955 -0.5533
  649MOL0     C89488   3.964   4.542   8.707 -0.2331 -0.1124 -0.2754
  649MOL0     C89489   3.887   4.574   8.800  0.1674  0.5009  0.1290
  649MOL0     C89490   4.545   5.001   8.595  0.6924  0.3642  0.1123
  649MOL0     C89491   4.654   5.090   8.577  0.3485 -0.7629 -0.1057
  649MOL0     C89492   4.674   5.143   8.444  0.2667 -0.1340  0.6826
  649MOL0     H89493   4.878   5.492   8.572 -0.7390  0.6644 -0.1843
  649MOL0     H89494   5.070   5.650   8.549  2.3286  0.3120 -0.2531
  649MOL0     H89495   5.407   5.654   8.829  1.1334  1.1118  0.4287
  649MOL0     H89496   5.307   5.745   8.924  0.0778 -2.0616  0.5165
  649MOL0     H89497   5.456   5.879   8.685 -1.3428  1.6350 -1.5493
  649MOL0     H89498   5.344   5.967   8.781  0.9392  1.7804 -0.1410
  649MOL0     H89499   5.467   5.874   8.992 -0.6427  1.3856 -0.2829
  649MOL0     H89500   5.570   5.784   8.891  1.6749  0.7887 -0.8478
  649MOL0     H89501   5.619   6.031   8.780  0.8713  4.5962  1.6399
  649MOL0     H89502   5.539   6.075   8.930  0.3062  1.8079 -1.7463
  649MOL0     H89503   5.796   5.905   8.940 -1.9397 -2.0658  0.3394
  649MOL0     H89504   5.709   5.983   9.066 -1.6381 -0.1552  0.5107
  649MOL0     H89505   5.842   6.137   8.842  1.6923 -2.0562  0.0681
  649MOL0     H89506   5.756   6.212   8.962 -1.9999 -1.7979 -1.8882
  649MOL0     H89507   6.006   6.032   8.979 -0.8649 -3.5515  2.2929
  649MOL0     H89508   5.914   6.069   9.127 -0.4551  1.3425  0.5961
  649MOL0     H89509   5.962   6.301   9.113 -3.2843 -2.4860 -0.3507
  649MOL0     H89510   6.111   6.197   9.114  1.3693  1.7844 -1.0115
  649MOL0     H89511   5.908   6.379   8.833 -0.2522  3.4500 -1.1753
  649MOL0     H89512   5.974   6.490   8.628 -0.1217  2.8981  1.0948
  649MOL0     H89513   6.131   6.482   8.547  1.9013  0.7982 -0.0612
  649MOL0     H89514   6.090   6.711   8.601 -0.8795 -1.0148 -0.1681
  649MOL0     H89515   6.056   6.677   8.769  0.4620 -0.4216  1.0135
  649MOL0     H89516   6.259   6.632   8.829 -3.6748  0.8474  0.6611
  649MOL0     H89517   6.330   6.588   8.675  0.2194  1.4952 -2.5181
  649MOL0     H89518   6.418   6.809   8.731  0.1705  3.5661 -0.8441
  649MOL0     H89519   6.310   6.838   8.599  3.5088 -0.4997 -0.4911
  649MOL0     H89520   6.160   7.085   8.948 -0.1705  1.7991  0.2240
  649MOL0     H89521   6.097   7.384   8.955 -0.3367 -0.8129 -0.2360
  649MOL0     H89522   6.240   7.389   9.058 -0.1094  1.0939 -0.5516
  649MOL0     H89523   6.123   7.256   9.066 -2.5271  3.1190  0.9637
  649MOL0     H89524   6.183   7.725   8.859 -0.0723 -0.0347  1.8641
  649MOL0     H89525   6.251   7.988   8.850  0.4550  0.1733  3.6432
  649MOL0     H89526   6.636   8.155   9.002  0.0714  1.0585  0.2749
  649MOL0     H89527   6.686   8.063   8.851  0.3472  1.2332 -0.5944
  649MOL0     H89528   6.519   8.299   8.848  0.3000  0.2468  3.1771
  649MOL0     H89529   6.686   8.322   8.891 -1.0036  1.3899  1.1585
  649MOL0     H89530   6.596   8.174   8.623  1.1346  0.7104 -2.0082
  649MOL0     H89531   6.757   8.187   8.673 -0.2930  1.0194 -3.7312
  649MOL0     H89532   6.760   8.428   8.659  0.0791 -0.2142  1.4493
  649MOL0     H89533   6.579   8.437   8.651 -0.4534 -1.1122 -2.0153
  649MOL0     H89534   6.745   8.304   8.445 -2.0742 -1.5116 -1.0471
  649MOL0     H89535   6.584   8.372   8.423  0.0728  1.0451  1.2255
  649MOL0     H89536   6.811   8.555   8.470  1.0349 -3.2083  2.0991
  649MOL0     H89537   6.642   8.591   8.422 -1.2752 -1.8292 -0.1338
  649MOL0     H89538   6.848   8.423   8.260  1.7817  0.8209 -2.6203
  649MOL0     H89539   6.853   8.595   8.248 -1.8703  0.9161 -1.6940
  649MOL0     H89540   6.614   8.596   8.157 -1.8039 -0.3674 -0.3962
  649MOL0     H89541   6.590   8.436   8.209  0.5704  1.3550  0.7245
  649MOL0     H89542   6.642   7.860   8.952 -0.0627 -0.5979 -1.5918
  649MOL0     H89543   6.568   7.613   8.935 -2.1461 -0.8894 -1.4246
  649MOL0     H89544   6.480   7.258   8.624 -1.0837 -1.3215 -0.2436
  649MOL0     H89545   6.420   7.025   8.607  0.3025 -2.2280  1.0554
  649MOL0     H89546   5.188   5.556   8.954  2.0724  1.6646 -1.3768
  649MOL0     H89547   5.028   5.363   8.953  1.6704  0.0350 -0.4222
  649MOL0     H89548   4.718   5.141   8.903 -0.1533  0.7966 -0.1909
  649MOL0     H89549   4.523   4.965   8.925 -0.8362  0.1975 -0.3062
  649MOL0     H89550   4.248   4.891   8.593 -2.3756 -1.9690  0.7094
  649MOL0     H89551   4.380   4.774   8.553  0.6066 -0.4610  0.3183
  649MOL0     H89552   4.163   4.749   8.758 -1.1967  0.1757 -2.2382
  649MOL0     H89553   4.295   4.629   8.749 -1.1200 -0.1893  1.4576
  649MOL0     H89554   4.091   4.714   8.530  0.1106  1.0974  0.4100
  649MOL0     H89555   4.222   4.602   8.495  0.5760 -1.4802  1.7732
  649MOL0     H89556   4.136   4.427   8.634  1.7439  1.0551 -1.7133
  649MOL0     H89557   4.017   4.467   8.523 -1.8926 -1.4978  1.0809
  649MOL0     H89558   3.818   4.579   8.882 -1.1217  1.1678 -0.9697
  649MOL0     H89559   4.489   4.961   8.511  0.8474  1.4992 -0.5461
  649MOL0     H89560   4.601   5.095   8.379 -0.9855  0.0624  1.8834
  649MOL0     H89561   4.645   5.248   8.439 -0.9414 -0.5283 -1.3863
  649MOL0     H89562   4.780   5.135   8.416  0.6074 -0.3424  1.9211
  650MOL0     O89563   7.484   4.180   2.694  0.2396 -0.0802  0.6248
  650MOL0     C89564   7.556   4.199   2.793 -0.1943 -0.5680 -0.1464
  650MOL0     O89565   7.606   4.105   2.870 -0.4929  0.0407  0.8212
  650MOL0     C89566   7.570   3.977   2.837 -0.7512 -0.5107  0.1389
  650MOL0     C89567   7.478   3.910   2.916  0.0757 -0.5158  0.0093
  650MOL0     C89568   7.448   3.770   2.896 -0.4245 -0.1795 -0.7671
  650MOL0     C89569   7.526   3.697   2.803 -0.2814 -0.6848 -1.1658
  650MOL0     O89570   7.505   3.558   2.803  0.0438 -0.4055 -0.3958
  650MOL0     C89571   7.469   3.530   2.670 -0.4675  0.4715 -1.1112
  650MOL0     C89572   7.418   3.390   2.650  0.1385 -0.4549 -0.3711
  650MOL0     C89573   7.504   3.283   2.700 -0.0615  0.5764 -1.5582
  650MOL0     C89574   7.429   3.146   2.664 -0.7197 -0.3296 -0.5517
  650MOL0     C89575   7.499   3.024   2.728 -0.4864 -0.5851 -0.0583
  650MOL0     C89576   7.462   3.011   2.877 -0.6072  0.9275 -0.9633
  650MOL0     C89577   7.526   2.891   2.946 -0.4012 -0.1683 -0.2527
  650MOL0     C89578   7.462   2.864   3.080 -0.2627  0.0636  0.9526
  650MOL0     N89579   7.530   2.756   3.143 -0.0044 -0.7172  0.1905
  650MOL0     C89580   7.647   2.764   3.216 -1.3324 -0.5950 -0.2420
  650MOL0     C89581   7.661   2.633   3.263 -1.0271  0.5617 -0.0990
  650MOL0     C89582   7.779   2.585   3.344 -0.1815  0.5513 -0.7019
  650MOL0     C89583   7.872   2.483   3.269  0.6105  0.4046  0.1999
  650MOL0     C89584   7.911   2.546   3.139  0.8054 -0.8209  0.2242
  650MOL0     C89585   8.019   2.463   3.075 -0.2353 -0.4046  0.1904
  650MOL0     O89586   8.013   2.324   3.101 -0.2145  0.5522 -0.2329
  650MOL0     C89587   8.124   2.254   3.084  0.5107 -0.0057 -0.4852
  650MOL0     C89588   8.188   2.241   2.962  0.1938  1.1044  1.1843
  650MOL0     C89589   8.318   2.187   2.953  0.1674 -0.9711 -0.3758
  650MOL0     C89590   8.392   2.218   2.825  0.0554 -0.1735 -0.4807
  650MOL0     C89591   8.378   2.134   3.074 -0.1165  0.1962  0.0770
  650MOL0     C89592   8.519   2.080   3.083  1.4177  0.3279 -0.0414
  650MOL0     O89593   8.567   2.038   3.208  0.4852  0.0800  0.0691
  650MOL0     C89594   8.692   1.976   3.220  0.2732 -0.0494 -0.3840
  650MOL0     C89595   8.717   1.932   3.355 -0.5815 -0.2597 -0.2064
  650MOL0     C89596   8.837   1.861   3.396  0.1161  0.1642 -0.2898
  650MOL0     C89597   8.928   1.831   3.298 -0.1067  0.1300  0.7094
  650MOL0     O89598   9.030   1.746   3.325  0.2852  0.8868  0.1867
  650MOL0     C89599   9.053   1.642   3.225  0.5266  0.3103  0.5728
  650MOL0     C89600   8.929   1.556   3.184 -0.0920 -0.7093  0.0460
  650MOL0     C89601   8.827   1.514   3.289 -0.1035  0.3545  0.0111
  650MOL0     C89602   8.730   1.417   3.221 -0.6253 -0.5428  0.3339
  650MOL0     C89603   8.617   1.362   3.313  0.7113 -0.5709 -0.1109
  650MOL0     C89604   8.526   1.267   3.236  0.9134 -0.3386 -0.1917
  650MOL0     C89605   8.377   1.251   3.304 -0.0143 -0.5264 -0.3743
  650MOL0     C89606   8.294   1.380   3.306 -0.2501  0.3427 -1.0492
  650MOL0    Cl89607   8.125   1.363   3.361  0.3698 -0.2340  0.1071
  650MOL0     C89608   8.918   1.892   3.170 -0.3779  0.5182  0.6762
  650MOL0     C89609   8.804   1.968   3.127 -0.8575  0.6007  0.1877
  650MOL0     O89610   8.573   2.060   2.974  0.3282 -0.8025  0.0243
  650MOL0     C89611   8.304   2.140   3.193  0.4247  0.5323 -0.0616
  650MOL0     C89612   8.181   2.206   3.200  0.1624  0.8622 -0.7222
  650MOL0     N89613   7.553   2.560   3.215  0.5075  0.3438 -0.6609
  650MOL0     N89614   7.486   2.631   3.132  0.0451 -0.2142 -0.0936
  650MOL0     C89615   7.626   3.770   2.733  0.2325  0.0063 -0.1450
  650MOL0     C89616   7.659   3.907   2.754  0.4895  0.9079  0.8177
  650MOL0     C89617   7.570   4.341   2.839 -0.4653  0.1106 -0.8888
  650MOL0     C89618   7.533   4.445   2.756 -0.8566 -0.0308 -0.7114
  650MOL0     C89619   7.527   4.576   2.793 -0.2680 -0.3171 -0.8449
  650MOL0     C89620   7.573   4.612   2.910 -0.3771 -0.8346 -0.2717
  650MOL0     O89621   7.571   4.746   2.935 -0.6519 -0.3325 -0.6798
  650MOL0     C89622   7.636   4.783   3.056  0.6614 -0.4637 -0.2009
  650MOL0     C89623   7.630   4.928   3.092  0.1750  0.1297 -0.2451
  650MOL0     C89624   7.702   5.030   2.999  0.1549  0.7540  0.1889
  650MOL0     C89625   7.683   5.176   3.027  0.1448 -0.3463 -0.6217
  650MOL0     C89626   7.785   5.252   2.962 -0.1589 -0.2403  0.8503
  650MOL0     C89627   7.887   5.302   2.917 -0.5480  0.1217  0.5103
  650MOL0     C89628   7.616   4.511   2.998 -0.4436 -0.0280  0.1528
  650MOL0     C89629   7.606   4.374   2.968  0.7315 -0.1702 -0.1659
  650MOL0     C89630   7.657   4.274   3.072 -0.1358 -0.2691  0.1782
  650MOL0     H89631   7.418   3.959   2.993 -0.5294 -1.9281  0.4608
  650MOL0     H89632   7.364   3.735   2.956 -1.0995  0.2684 -1.4355
  650MOL0     H89633   7.555   3.526   2.602 -0.0808  2.2611 -0.7776
  650MOL0     H89634   7.396   3.601   2.630 -2.3024 -0.4957  0.4007
  650MOL0     H89635   7.319   3.379   2.693 -0.2657 -0.7611 -1.3432
  650MOL0     H89636   7.405   3.383   2.541 -0.9342  1.3059 -0.3931
  650MOL0     H89637   7.606   3.275   2.660  0.8886 -0.0664  0.7934
  650MOL0     H89638   7.513   3.291   2.809 -2.3208 -0.6146 -1.2311
  650MOL0     H89639   7.326   3.149   2.703 -0.3313 -1.9084  0.7283
  650MOL0     H89640   7.437   3.136   2.556  1.9201 -2.8767 -0.2206
  650MOL0     H89641   7.605   3.038   2.710 -0.4719 -0.6142  0.0034
  650MOL0     H89642   7.470   2.938   2.667  0.7311 -0.7281 -0.4540
  650MOL0     H89643   7.498   3.104   2.921  3.5430  0.5718 -3.1028
  650MOL0     H89644   7.353   3.001   2.884 -0.7181  2.4973 -0.0209
  650MOL0     H89645   7.635   2.885   2.948 -0.4629 -2.0503 -0.7555
  650MOL0     H89646   7.497   2.804   2.886 -0.9563 -2.5505  3.1879
  650MOL0     H89647   7.461   2.955   3.141 -1.6708  1.3990 -0.9169
  650MOL0     H89648   7.357   2.845   3.057  0.3561 -3.5061  0.5448
  650MOL0     H89649   7.717   2.846   3.223  2.6145 -3.5100 -1.9845
  650MOL0     H89650   7.750   2.546   3.442  0.4366 -1.3727 -1.2572
  650MOL0     H89651   7.836   2.673   3.374 -2.1616  1.4820  0.5203
  650MOL0     H89652   7.947   2.459   3.344  0.9039  0.9191  0.0749
  650MOL0     H89653   7.818   2.389   3.254  0.4981 -0.2217  3.6892
  650MOL0     H89654   7.818   2.564   3.085 -1.1247 -0.2661  3.4611
  650MOL0     H89655   7.957   2.643   3.163  1.3633 -0.7774 -0.9593
  650MOL0     H89656   8.008   2.481   2.968  0.4858  0.8090  0.3009
  650MOL0     H89657   8.116   2.504   3.105 -0.3219  0.8554 -1.1673
  650MOL0     H89658   8.150   2.285   2.871  1.6568 -1.5710 -0.8319
  650MOL0     H89659   8.463   2.291   2.864 -0.5782  0.8841 -1.2507
  650MOL0     H89660   8.332   2.270   2.750  1.6319 -0.8793 -2.3212
  650MOL0     H89661   8.436   2.136   2.767  0.6982  0.9117 -1.5902
  650MOL0     H89662   8.632   1.944   3.422 -0.6924  1.1814 -0.5734
  650MOL0     H89663   8.853   1.819   3.495  0.2340 -0.6952 -0.6659
  650MOL0     H89664   9.098   1.686   3.136  0.0495 -1.4295 -0.5844
  650MOL0     H89665   9.130   1.576   3.267  1.7185  1.4359  0.2163
  650MOL0     H89666   8.879   1.606   3.100  2.6966  1.1798 -0.6067
  650MOL0     H89667   8.972   1.472   3.128  0.4569  0.4292 -1.3075
  650MOL0     H89668   8.773   1.603   3.321  0.5105  1.0341 -0.8177
  650MOL0     H89669   8.868   1.456   3.373 -2.1782  2.2283  2.4944
  650MOL0     H89670   8.779   1.327   3.182  2.4581  0.2119  2.1590
  650MOL0     H89671   8.679   1.460   3.135  0.0972 -0.8119 -0.2487
  650MOL0     H89672   8.659   1.317   3.403  0.1062  1.3740  1.2125
  650MOL0     H89673   8.554   1.449   3.331  2.7416  1.0362 -0.4592
  650MOL0     H89674   8.579   1.172   3.228  2.8010  0.6242  0.2598
  650MOL0     H89675   8.519   1.310   3.136 -2.2124  0.7199  0.3833
  650MOL0     H89676   8.392   1.222   3.409 -1.5802  1.9343  0.6339
  650MOL0     H89677   8.316   1.181   3.247  0.6740 -1.5892  0.1740
  650MOL0     H89678   8.287   1.424   3.206 -2.2831 -0.8300 -1.4687
  650MOL0     H89679   8.339   1.459   3.367 -2.1053 -0.0102  0.8831
  650MOL0     H89680   8.999   1.895   3.099 -2.1536  2.1466 -1.4193
  650MOL0     H89681   8.795   2.012   3.029 -1.4633 -0.0552 -0.0601
  650MOL0     H89682   8.345   2.105   3.287 -1.0479  5.2054  2.6744
  650MOL0     H89683   8.137   2.205   3.299  1.5860  0.5333 -0.0709
  650MOL0     H89684   7.691   3.710   2.670 -0.8611 -1.3252 -0.0496
  650MOL0     H89685   7.736   3.962   2.701 -1.2405  1.9746 -0.7528
  650MOL0     H89686   7.504   4.412   2.657 -3.3721  0.7765 -0.3050
  650MOL0     H89687   7.489   4.650   2.723 -0.3032 -0.2695 -0.7756
  650MOL0     H89688   7.592   4.721   3.136  3.0383 -4.8391 -1.9096
  650MOL0     H89689   7.742   4.761   3.042  0.3622 -0.8599 -2.0558
  650MOL0     H89690   7.673   4.938   3.192 -1.6115  0.1409  0.5543
  650MOL0     H89691   7.525   4.950   3.111 -0.4354 -0.7584 -2.2787
  650MOL0     H89692   7.809   5.008   2.991  0.3783  1.9884 -0.5167
  650MOL0     H89693   7.650   5.016   2.903 -1.4352 -1.8171  1.3211
  650MOL0     H89694   7.691   5.205   3.132 -1.8903 -1.2933 -0.1559
  650MOL0     H89695   7.583   5.206   2.994 -1.2932  0.1775  3.6961
  650MOL0     H89696   7.963   5.362   2.870 -0.0802 -0.6722  0.2374
  650MOL0     H89697   7.678   4.525   3.086 -1.8526 -1.0792  1.3849
  650MOL0     H89698   7.588   4.190   3.084  0.1227 -0.7115 -1.3062
  650MOL0     H89699   7.751   4.232   3.035  0.0033  0.1097  0.0948
  650MOL0     H89700   7.677   4.322   3.169 -1.5668 -0.1881  0.4651
  651MOL0     O89701   1.748  10.972   4.477  0.0546 -0.2320  0.1288
  651MOL0     C89702   1.738  11.088   4.433 -0.1531  0.6919 -0.3715
  651MOL0     O89703   1.618  11.151   4.422 -0.1460  0.8887  0.3060
  651MOL0     C89704   1.507  11.090   4.481 -0.6079  0.1980  0.2713
  651MOL0     C89705   1.444  11.150   4.588  0.2847  0.5625  0.7096
  651MOL0     C89706   1.333  11.079   4.648 -0.9982 -0.8240 -0.5337
  651MOL0     C89707   1.280  10.978   4.586 -0.9661 -0.4176  0.4646
  651MOL0     O89708   1.171  10.921   4.631  0.3169 -0.1446 -0.2001
  651MOL0     C89709   1.057  10.919   4.540  0.9316 -0.4375  0.9626
  651MOL0     C89710   0.948  11.008   4.605 -0.3979  0.3629 -0.2021
  651MOL0     C89711   0.797  10.972   4.581 -0.1151 -0.0379  0.0536
  651MOL0     C89712   0.766  10.984   4.426  0.5257  0.4789 -0.2875
  651MOL0     C89713   0.620  11.023   4.402  0.4003 -0.1429  0.3595
  651MOL0     C89714   0.580  10.999   4.255 -0.3509 -0.4336  0.5435
  651MOL0     C89715   0.443  11.073   4.232  0.6247  0.2499 -0.6366
  651MOL0     C89716   0.401  11.032   4.090  0.3086 -0.6380  0.1307
  651MOL0     N89717   0.258  11.077   4.069  1.0568  0.5785  0.4049
  651MOL0     C89718   0.187  11.153   4.158  0.0035 -0.7366  0.0949
  651MOL0     C89719   0.057  11.153   4.104 -0.2393 -0.4641 -0.2751
  651MOL0     C89720  -0.042  11.238   4.165  0.4818  0.2760  0.0433
  651MOL0     C89721  -0.145  11.283   4.062  0.4266 -0.1615  0.1331
  651MOL0     C89722  -0.246  11.352   4.149  0.9146  0.1663 -0.7939
  651MOL0     C89723  -0.380  11.366   4.070 -0.2505  0.4155 -0.0546
  651MOL0     O89724  -0.366  11.481   3.987  0.4614  0.1094  0.0847
  651MOL0     C89725  -0.477  11.524   3.925 -0.1469 -0.0761 -0.6338
  651MOL0     C89726  -0.452  11.619   3.825  0.5174  0.0561  1.0866
  651MOL0     C89727  -0.556  11.683   3.763 -0.2024 -0.2424  0.4666
  651MOL0     C89728  -0.525  11.777   3.645 -0.3945 -0.2358  0.0737
  651MOL0     C89729  -0.695  11.656   3.800  0.9328 -0.2623 -0.0920
  651MOL0     C89730  -0.811  11.715   3.734  0.0131 -0.1277  0.2404
  651MOL0     O89731  -0.924  11.730   3.814 -0.2025 -1.1498 -0.1644
  651MOL0     C89732  -1.020  11.822   3.768 -0.3187  0.1194  0.0838
  651MOL0     C89733  -1.007  11.919   3.670 -0.1363 -0.5581  0.1156
  651MOL0     C89734  -1.124  11.993   3.629 -0.2222  0.1670  1.2746
  651MOL0     C89735  -1.252  11.965   3.669 -0.9907  0.1311  0.3690
  651MOL0     O89736  -1.354  12.032   3.624  0.2146  0.5503 -0.2152
  651MOL0     C89737  -1.491  12.005   3.653  0.6130  0.1893 -1.0230
  651MOL0     C89738  -1.593  12.063   3.558 -0.9658 -1.3485 -0.6707
  651MOL0     C89739  -1.549  12.061   3.406  0.8314 -0.3224  0.3440
  651MOL0     C89740  -1.670  12.115   3.325 -0.3071  0.2719  0.1667
  651MOL0     C89741  -1.638  12.103   3.172  0.8798  0.2014 -0.1280
  651MOL0     C89742  -1.739  12.149   3.069  0.9219  0.2616 -0.6879
  651MOL0     C89743  -1.866  12.064   3.062 -0.0723  0.3685 -0.5123
  651MOL0     C89744  -1.955  12.097   2.940  0.3182 -0.7013 -0.5144
  651MOL0    Cl89745  -2.064  11.959   2.903 -0.1655  0.4466  0.3571
  651MOL0     C89746  -1.262  11.858   3.754 -0.5028 -0.1834 -0.5842
  651MOL0     C89747  -1.150  11.793   3.807 -0.4211  0.5902  0.5998
  651MOL0     O89748  -0.802  11.735   3.611  0.2387  0.1819 -0.5493
  651MOL0     C89749  -0.718  11.569   3.906 -0.4901  0.2386  0.4721
  651MOL0     C89750  -0.611  11.501   3.963 -0.3067 -0.5499 -0.0583
  651MOL0     N89751   0.049  11.064   4.000  0.2787 -0.4885 -0.3492
  651MOL0     N89752   0.168  11.010   3.988 -0.4343 -0.3206  0.1723
  651MOL0     C89753   1.338  10.919   4.466  0.6054 -0.8199  0.7083
  651MOL0     C89754   1.451  10.982   4.414  0.6517 -0.6333 -0.0884
  651MOL0     C89755   1.865  11.159   4.392  0.1201  0.6819  0.5820
  651MOL0     C89756   1.970  11.170   4.482 -1.3228 -0.0652 -0.1580
  651MOL0     C89757   2.078  11.250   4.449 -0.6571  0.0077  0.8743
  651MOL0     C89758   2.100  11.298   4.320  0.4355  0.1728  1.3907
  651MOL0     O89759   2.207  11.368   4.281 -0.4813  0.1986  0.0590
  651MOL0     C89760   2.322  11.293   4.245 -0.0620 -0.1987 -0.1954
  651MOL0     C89761   2.308  11.183   4.131 -0.3182 -0.1103  0.4474
  651MOL0     C89762   2.423  11.086   4.145 -0.0225 -0.2405  0.5846
  651MOL0     C89763   2.514  11.091   4.015  0.0779 -0.9917 -0.3648
  651MOL0     C89764   2.579  11.220   4.020 -0.2500  0.3775 -0.3612
  651MOL0     C89765   2.648  11.325   4.041  0.1375 -0.2125  1.2983
  651MOL0     C89766   1.997  11.272   4.225  0.5377  0.1695  0.7745
  651MOL0     C89767   1.877  11.205   4.263 -0.6475  0.0386 -0.2731
  651MOL0     C89768   1.774  11.180   4.155  0.7521  0.1965 -0.1117
  651MOL0     H89769   1.495  11.239   4.624 -1.2756  1.8029 -0.0256
  651MOL0     H89770   1.285  11.109   4.741 -0.0708  0.0205 -0.3091
  651MOL0     H89771   1.034  10.815   4.516  2.3746 -0.5612 -0.0576
  651MOL0     H89772   1.085  10.974   4.450 -1.8024  0.3581  0.5275
  651MOL0     H89773   0.956  11.015   4.714 -1.5556  3.2282 -0.2134
  651MOL0     H89774   0.961  11.111   4.571 -1.2564  0.9366  1.1093
  651MOL0     H89775   0.793  10.868   4.615  0.5350 -0.2760 -0.5762
  651MOL0     H89776   0.732  11.042   4.635 -1.2858 -0.1855 -1.1152
  651MOL0     H89777   0.835  11.058   4.384  0.0238  1.3641  0.4242
  651MOL0     H89778   0.771  10.880   4.391 -3.3575 -0.0095  0.0991
  651MOL0     H89779   0.608  11.124   4.442  0.4846 -1.0357  2.7499
  651MOL0     H89780   0.556  10.957   4.462  0.9254  0.7610  1.9668
  651MOL0     H89781   0.656  11.035   4.186  0.2556 -0.3390  1.2504
  651MOL0     H89782   0.575  10.892   4.235 -1.8349 -0.6287  1.6915
  651MOL0     H89783   0.459  11.181   4.233 -2.6134  0.8348  1.3241
  651MOL0     H89784   0.372  11.049   4.312  0.6688  0.5177 -0.5156
  651MOL0     H89785   0.466  11.087   4.020 -0.0849 -0.2047  0.1012
  651MOL0     H89786   0.404  10.926   4.067  1.6335 -0.0582 -2.8313
  651MOL0     H89787   0.222  11.205   4.247 -1.5463 -1.7447  1.3636
  651MOL0     H89788   0.006  11.321   4.218 -1.4099 -0.0237  2.3938
  651MOL0     H89789  -0.072  11.177   4.250  4.2359 -0.6679  0.8592
  651MOL0     H89790  -0.109  11.358   3.992  0.0227  1.1070  1.2440
  651MOL0     H89791  -0.188  11.200   4.004  1.4471 -0.7158  0.1515
  651MOL0     H89792  -0.272  11.294   4.238 -1.3051 -0.6665 -1.8984
  651MOL0     H89793  -0.208  11.448   4.185  1.7736 -0.4277 -0.0714
  651MOL0     H89794  -0.413  11.279   4.013 -3.8814 -0.0445  2.4248
  651MOL0     H89795  -0.448  11.382   4.154  2.5872 -0.2081  2.5696
  651MOL0     H89796  -0.350  11.643   3.795  0.4213  1.0624  1.5243
  651MOL0     H89797  -0.420  11.808   3.643 -0.8763  1.4364 -1.2553
  651MOL0     H89798  -0.584  11.868   3.656  2.3630  1.3736  3.6366
  651MOL0     H89799  -0.552  11.718   3.557 -1.7599  1.0131 -0.3805
  651MOL0     H89800  -0.914  11.932   3.616 -0.0782 -0.3230  0.2727
  651MOL0     H89801  -1.116  12.066   3.549 -0.0890 -0.3300  0.8293
  651MOL0     H89802  -1.504  11.897   3.657  0.5588  0.2127  1.7709
  651MOL0     H89803  -1.517  12.044   3.752  0.8288 -0.9622 -0.4928
  651MOL0     H89804  -1.692  12.020   3.578  0.7752 -4.8665  1.3389
  651MOL0     H89805  -1.604  12.168   3.585 -3.6368 -1.4457 -1.1552
  651MOL0     H89806  -1.529  11.957   3.376  4.0558 -0.2031  1.6638
  651MOL0     H89807  -1.457  12.120   3.394  0.5738 -0.4720 -3.7273
  651MOL0     H89808  -1.690  12.221   3.344 -3.1773 -0.4185  1.4690
  651MOL0     H89809  -1.753  12.050   3.355  0.8451 -1.8842 -1.0961
  651MOL0     H89810  -1.543  12.155   3.156  1.3839 -1.1376 -1.8786
  651MOL0     H89811  -1.609  12.005   3.131 -1.1611 -1.2804  1.7230
  651MOL0     H89812  -1.688  12.149   2.973 -0.3788 -2.6373 -1.4870
  651MOL0     H89813  -1.755  12.255   3.090  1.6339  0.2307  0.0943
  651MOL0     H89814  -1.925  12.081   3.153 -1.2873 -1.1797 -0.9724
  651MOL0     H89815  -1.828  11.964   3.037 -0.2520 -0.4352  2.1012
  651MOL0     H89816  -1.888  12.114   2.855 -0.3846  1.5525 -0.7056
  651MOL0     H89817  -2.005  12.193   2.959  0.9309 -0.4393 -0.1968
  651MOL0     H89818  -1.357  11.817   3.786 -0.3679 -0.0898 -0.0588
  651MOL0     H89819  -1.165  11.708   3.873  2.1567 -0.8469 -0.4885
  651MOL0     H89820  -0.815  11.537   3.944 -0.3185 -3.8917 -1.9021
  651MOL0     H89821  -0.631  11.431   4.043  2.0532 -0.4346  0.7229
  651MOL0     H89822   1.297  10.834   4.413 -0.7724 -0.1228  0.6180
  651MOL0     H89823   1.498  10.935   4.328 -0.7781 -0.4869 -0.9841
  651MOL0     H89824   1.957  11.129   4.581  0.0905  1.4288  0.6980
  651MOL0     H89825   2.136  11.286   4.534 -0.9948 -0.9337  1.5248
  651MOL0     H89826   2.394  11.369   4.213 -1.7185  1.5937  0.1299
  651MOL0     H89827   2.365  11.255   4.337 -2.3193  1.1810  1.5358
  651MOL0     H89828   2.285  11.223   4.032 -1.4087  0.8596  1.0701
  651MOL0     H89829   2.221  11.121   4.153 -0.5152 -1.2831 -3.0213
  651MOL0     H89830   2.487  11.106   4.232  0.6703  3.3070 -0.5758
  651MOL0     H89831   2.390  10.982   4.144  3.8738 -1.6370  0.0097
  651MOL0     H89832   2.456  11.076   3.924 -2.3496 -1.5859  1.2066
  651MOL0     H89833   2.592  11.013   4.019  0.2969 -0.7353  1.6741
  651MOL0     H89834   2.706  11.415   4.042  2.2267 -1.4495  0.2610
  651MOL0     H89835   2.007  11.323   4.129 -1.9517 -2.8022 -1.2680
  651MOL0     H89836   1.817  11.211   4.059  2.3818  1.2113  0.8929
  651MOL0     H89837   1.751  11.074   4.145  2.4397 -0.0609 -1.7733
  651MOL0     H89838   1.685  11.241   4.173  1.0239  0.7461 -0.5755
  652MOL0     O89839   8.346   4.372   0.007  0.3073  0.5103  0.5184
  652MOL0     C89840   8.362   4.262  -0.045 -0.0301  0.5153  0.2233
  652MOL0     O89841   8.462   4.228  -0.137  0.6175 -0.3930 -0.2789
  652MOL0     C89842   8.570   4.313  -0.147 -0.4528 -0.3321  0.1538
  652MOL0     C89843   8.637   4.356  -0.029 -0.1158  0.4892 -0.7206
  652MOL0     C89844   8.754   4.426  -0.042  0.3586 -0.1233 -0.3495
  652MOL0     C89845   8.811   4.461  -0.163 -0.3299 -0.1917  0.3129
  652MOL0     O89846   8.934   4.509  -0.154  0.1337 -0.1271  0.1207
  652MOL0     C89847   8.996   4.551  -0.277 -0.5192 -0.1277 -0.2708
  652MOL0     C89848   9.072   4.435  -0.339 -1.0497 -0.4105 -1.0380
  652MOL0     C89849   9.170   4.486  -0.447 -0.0046  0.3853 -0.2709
  652MOL0     C89850   9.271   4.375  -0.476 -0.5658  0.2668  0.0828
  652MOL0     C89851   9.351   4.392  -0.603 -0.2258  0.0234  1.0338
  652MOL0     C89852   9.456   4.278  -0.635  0.5654  0.7974  0.5015
  652MOL0     C89853   9.582   4.265  -0.548  0.8517  0.0100  0.4582
  652MOL0     C89854   9.649   4.135  -0.568 -0.5318  0.1976  0.3281
  652MOL0     N89855   9.704   4.126  -0.706 -0.2938 -0.1487 -0.2977
  652MOL0     C89856   9.837   4.150  -0.749 -0.1726  0.1113 -0.5060
  652MOL0     C89857   9.839   4.102  -0.870 -0.3836  0.7073 -0.2952
  652MOL0     C89858   9.970   4.076  -0.948  0.3038  0.2347  0.3903
  652MOL0     C89859  10.010   3.923  -0.947  0.8397 -0.3650 -0.7998
  652MOL0     C89860  10.153   3.901  -0.999 -0.7335 -0.5553  0.2138
  652MOL0     C89861  10.171   3.947  -1.145 -0.3258 -0.7058 -0.2046
  652MOL0     O89862  10.281   3.875  -1.213  0.2231 -0.4620  0.0849
  652MOL0     C89863  10.253   3.745  -1.251  0.2842 -0.2092  0.3944
  652MOL0     C89864  10.363   3.685  -1.320 -0.2596  0.0890  0.2038
  652MOL0     C89865  10.345   3.565  -1.382  0.0305  0.5946  0.7143
  652MOL0     C89866  10.461   3.508  -1.450 -0.8498 -0.0690 -0.1156
  652MOL0     C89867  10.227   3.486  -1.358 -0.2927  0.0993  0.1222
  652MOL0     C89868  10.205   3.346  -1.400  0.2450 -0.1265 -0.0022
  652MOL0     O89869  10.307   3.263  -1.394 -0.3450  0.1655  0.9036
  652MOL0     C89870  10.294   3.125  -1.424 -0.1574  0.5949  0.7600
  652MOL0     C89871  10.180   3.045  -1.432 -0.2583 -0.6195 -0.0289
  652MOL0     C89872  10.191   2.907  -1.453 -0.7203  0.3853  0.9210
  652MOL0     C89873  10.308   2.844  -1.488  0.9040 -0.7432 -0.5263
  652MOL0     O89874  10.320   2.709  -1.505 -0.5554 -0.4715  0.6372
  652MOL0     C89875  10.442   2.647  -1.471 -0.2848 -0.2481  0.5464
  652MOL0     C89876  10.431   2.499  -1.525  0.9454  0.0423  0.1520
  652MOL0     C89877  10.386   2.490  -1.671  0.5835  0.0016  0.5128
  652MOL0     C89878  10.415   2.346  -1.725  0.3116  0.2547  0.8522
  652MOL0     C89879  10.412   2.360  -1.882 -0.6912  0.4224  0.2749
  652MOL0     C89880  10.555   2.385  -1.933  0.0037  0.8801  0.2757
  652MOL0     C89881  10.616   2.246  -1.977  0.1609  0.5292  0.3157
  652MOL0     C89882  10.763   2.261  -2.032  0.9264 -0.2634 -0.7578
  652MOL0    Cl89883  10.775   2.411  -2.123  0.0919 -0.3225 -0.0270
  652MOL0     C89884  10.426   2.921  -1.492  0.1870  1.1573 -0.3847
  652MOL0     C89885  10.415   3.061  -1.457  0.0330  0.5109 -0.5974
  652MOL0     O89886  10.094   3.324  -1.446 -0.5694  0.9422  0.2754
  652MOL0     C89887  10.120   3.554  -1.289  0.2165  0.2470 -0.1136
  652MOL0     C89888  10.130   3.679  -1.238 -1.0992  0.4183 -0.1847
  652MOL0     N89889   9.713   4.055  -0.910  0.1317 -0.2266  0.4619
  652MOL0     N89890   9.626   4.068  -0.807  0.3776 -0.5181 -0.0245
  652MOL0     C89891   8.751   4.414  -0.280  0.4497 -0.3774  0.4828
  652MOL0     C89892   8.629   4.335  -0.272 -0.2958  0.6808  0.5443
  652MOL0     C89893   8.268   4.159  -0.008 -0.3790  1.0326  0.2626
  652MOL0     C89894   8.282   4.105   0.124  0.0767  0.2686  0.3119
  652MOL0     C89895   8.209   3.991   0.154 -0.0772  0.0892 -0.4415
  652MOL0     C89896   8.105   3.934   0.069 -0.7525 -0.9852 -0.7181
  652MOL0     O89897   8.052   3.821   0.118 -0.6612 -0.5287 -0.5659
  652MOL0     C89898   7.920   3.786   0.087 -1.3692  0.1962 -0.3776
  652MOL0     C89899   7.874   3.682   0.194 -0.4205  0.0800  0.9525
  652MOL0     C89900   7.830   3.744   0.321  0.4963 -0.4421 -0.5444
  652MOL0     C89901   7.891   3.678   0.446 -0.3020 -0.7016 -1.1003
  652MOL0     C89902   7.831   3.555   0.501 -0.8375 -0.2249  0.2958
  652MOL0     C89903   7.775   3.446   0.512 -0.2206 -0.7355 -0.4426
  652MOL0     C89904   8.081   3.996  -0.053  0.3493 -0.4810 -0.0801
  652MOL0     C89905   8.169   4.104  -0.098 -0.0310  0.0894  0.7948
  652MOL0     C89906   8.149   4.168  -0.232 -0.1118  0.6331  0.2947
  652MOL0     H89907   8.600   4.327   0.068  2.4360  0.4312  0.3081
  652MOL0     H89908   8.803   4.453   0.051 -0.5638 -0.5802  0.2782
  652MOL0     H89909   9.064   4.634  -0.257 -0.7671 -0.4452  2.1763
  652MOL0     H89910   8.929   4.594  -0.352  1.6676  0.3548 -2.0684
  652MOL0     H89911   9.120   4.370  -0.265 -0.6570 -1.0109 -1.8117
  652MOL0     H89912   9.002   4.373  -0.397  0.2004 -1.7884 -1.1127
  652MOL0     H89913   9.108   4.494  -0.537 -0.7565  0.0114  0.2007
  652MOL0     H89914   9.208   4.586  -0.423 -1.4422  0.6617  1.0502
  652MOL0     H89915   9.344   4.365  -0.395  0.5764 -0.9926 -1.0544
  652MOL0     H89916   9.228   4.275  -0.476  0.2676 -0.0948  0.2930
  652MOL0     H89917   9.388   4.495  -0.602 -0.8304  0.2592  0.5715
  652MOL0     H89918   9.280   4.385  -0.687 -0.0330 -0.8037  0.9353
  652MOL0     H89919   9.392   4.190  -0.630  0.5753  0.7979  0.6386
  652MOL0     H89920   9.489   4.285  -0.739 -0.9038  2.0505  0.0739
  652MOL0     H89921   9.558   4.281  -0.442  1.5685  0.2283  0.5879
  652MOL0     H89922   9.652   4.344  -0.576  0.4419 -0.3842 -1.8653
  652MOL0     H89923   9.720   4.118  -0.487 -2.2747  0.1786  1.9171
  652MOL0     H89924   9.575   4.055  -0.558 -0.7698  0.6028  2.3389
  652MOL0     H89925   9.916   4.185  -0.683 -0.0069  3.1013 -2.1401
  652MOL0     H89926  10.049   4.136  -0.903 -1.5459  3.5721 -0.4620
  652MOL0     H89927   9.957   4.110  -1.051 -0.1292 -0.2502  0.2775
  652MOL0     H89928  10.009   3.872  -0.850 -0.7380 -0.7160 -0.9871
  652MOL0     H89929   9.948   3.867  -1.017  1.3599 -2.2978  0.2054
  652MOL0     H89930  10.222   3.949  -0.930 -1.4999 -0.5180  0.9704
  652MOL0     H89931  10.178   3.795  -0.996 -1.7260 -0.8722 -1.1961
  652MOL0     H89932  10.083   3.937  -1.208 -0.7721  0.0259  0.2835
  652MOL0     H89933  10.187   4.054  -1.130  1.1732 -0.9533  0.1843
  652MOL0     H89934  10.451   3.747  -1.333  0.9879 -1.4018  1.1983
  652MOL0     H89935  10.437   3.465  -1.548 -0.6093  0.8030 -0.5662
  652MOL0     H89936  10.503   3.430  -1.385 -2.9997 -2.4031 -1.3122
  652MOL0     H89937  10.538   3.584  -1.464 -0.8249  0.7055  3.3410
  652MOL0     H89938  10.082   3.087  -1.412 -0.3285  2.0266 -4.5854
  652MOL0     H89939  10.103   2.845  -1.443  0.4595 -1.3841  0.7622
  652MOL0     H89940  10.536   2.689  -1.508 -0.8267  0.6142  0.1242
  652MOL0     H89941  10.447   2.648  -1.362 -2.6339 -2.4834  0.7685
  652MOL0     H89942  10.527   2.450  -1.505  1.4253  0.2374 -1.4894
  652MOL0     H89943  10.361   2.437  -1.469 -0.1339  1.1038  0.0206
  652MOL0     H89944  10.433   2.568  -1.731  0.6706 -1.0100 -0.7731
  652MOL0     H89945  10.278   2.508  -1.676  0.5131 -0.3443  0.7070
  652MOL0     H89946  10.343   2.267  -1.699 -1.1253  0.6243 -1.6836
  652MOL0     H89947  10.511   2.312  -1.687  1.4430  1.3248 -0.9176
  652MOL0     H89948  10.368   2.265  -1.913 -0.8517 -0.4904  2.9916
  652MOL0     H89949  10.344   2.441  -1.910 -1.4475 -0.2561  0.1123
  652MOL0     H89950  10.619   2.429  -1.855  2.4828  0.1189 -1.2230
  652MOL0     H89951  10.555   2.459  -2.014 -2.6612  1.2590  0.5359
  652MOL0     H89952  10.556   2.205  -2.059 -0.1965  1.6333  0.0044
  652MOL0     H89953  10.610   2.168  -1.900 -1.9206  1.2445  0.9682
  652MOL0     H89954  10.782   2.176  -2.098  0.4806 -0.1043 -1.0963
  652MOL0     H89955  10.835   2.264  -1.950  1.1425 -1.5347 -0.8892
  652MOL0     H89956  10.530   2.894  -1.507  0.9283  2.8379  1.3863
  652MOL0     H89957  10.498   3.130  -1.445 -0.1842  0.5397  0.9567
  652MOL0     H89958  10.026   3.506  -1.264  1.2031 -1.4758  0.4801
  652MOL0     H89959  10.050   3.735  -1.190  1.2405  4.2509 -0.3222
  652MOL0     H89960   8.791   4.425  -0.380 -0.9684  2.2958  0.1250
  652MOL0     H89961   8.578   4.288  -0.355 -1.3215  1.8290  0.4942
  652MOL0     H89962   8.358   4.135   0.195 -1.6215 -2.0119  3.2940
  652MOL0     H89963   8.222   3.936   0.247  2.1675  0.0222 -0.7479
  652MOL0     H89964   7.862   3.877   0.069 -0.2661  0.6443 -1.9254
  652MOL0     H89965   7.909   3.730  -0.006 -1.4241 -0.4505  0.0108
  652MOL0     H89966   7.957   3.613   0.207 -0.7519 -0.8010 -1.2420
  652MOL0     H89967   7.792   3.622   0.153 -0.4900  0.1405  1.0015
  652MOL0     H89968   7.862   3.849   0.320 -0.1168 -0.2361 -2.1555
  652MOL0     H89969   7.721   3.754   0.321  0.5075  0.3798  2.0022
  652MOL0     H89970   7.887   3.761   0.516  0.9056 -0.1175 -1.6830
  652MOL0     H89971   7.997   3.654   0.429 -0.7060 -1.1979 -3.3427
  652MOL0     H89972   7.739   3.348   0.535 -1.1726 -0.3222 -0.1046
  652MOL0     H89973   8.003   3.959  -0.118  0.6072 -1.2137  0.0103
  652MOL0     H89974   8.245   4.159  -0.283 -1.3466 -0.8178 -1.9479
  652MOL0     H89975   8.074   4.112  -0.288 -0.7853  0.7226  1.0867
  652MOL0     H89976   8.116   4.272  -0.224  1.0511  0.9844  0.7282
  653MOL0     O89977   7.425  10.933   0.010 -0.7967  0.3743 -0.6928
  653MOL0     C89978   7.443  10.872  -0.096  0.1006 -0.6255  0.5054
  653MOL0     O89979   7.531  10.768  -0.116  0.7023 -0.5021 -0.0885
  653MOL0     C89980   7.606  10.727  -0.019  0.3955  0.2251 -0.8494
  653MOL0     C89981   7.556  10.705   0.114  0.0737  1.0966 -0.4444
  653MOL0     C89982   7.642  10.655   0.213  0.6657 -0.3295  0.1244
  653MOL0     C89983   7.781  10.652   0.186  0.0477 -0.5688 -0.0760
  653MOL0     O89984   7.869  10.605   0.276  0.0670 -0.6835 -0.4283
  653MOL0     C89985   7.846  10.630   0.419 -0.1471  0.7236  0.2473
  653MOL0     C89986   7.974  10.682   0.484 -0.6576  0.2005 -0.5722
  653MOL0     C89987   8.084  10.580   0.478 -0.0441  0.7077  0.5793
  653MOL0     C89988   8.211  10.634   0.524 -1.0371  0.4349  0.3314
  653MOL0     C89989   8.341  10.544   0.519 -0.0814  0.9067  0.4194
  653MOL0     C89990   8.341  10.427   0.618 -0.7955  0.5588  0.0773
  653MOL0     C89991   8.468  10.336   0.587  0.0339  0.7796  1.2445
  653MOL0     C89992   8.599  10.391   0.631 -0.9143  0.2398 -0.5574
  653MOL0     N89993   8.711  10.310   0.574  1.1482  0.2338 -0.6548
  653MOL0     C89994   8.817  10.356   0.504  0.4364  0.1402  0.4392
  653MOL0     C89995   8.897  10.251   0.496 -0.4390  0.9835  0.3335
  653MOL0     C89996   9.020  10.261   0.409  0.3211 -0.3036  0.6187
  653MOL0     C89997   9.134  10.340   0.468 -0.3654 -0.9673 -1.0603
  653MOL0     C89998   9.168  10.336   0.621 -0.1887 -0.3336 -0.0223
  653MOL0     C89999   9.196  10.194   0.660 -0.0166  0.1505 -0.5835
  653MOL0     O90000   9.260  10.186   0.791  0.2048  0.1633 -0.0790
  653MOL0     C90001   9.394  10.211   0.805  0.7486 -0.4083  0.0094
  653MOL0     C90002   9.439  10.200   0.936  0.1887 -0.6137  0.6086
  653MOL0     C90003   9.576  10.219   0.968 -0.3387  0.7967 -0.2938
  653MOL0     C90004   9.613  10.180   1.109 -0.1276  0.4145  0.0744
  653MOL0     C90005   9.661  10.270   0.873  0.0437  0.4313 -0.7668
  653MOL0     C90006   9.802  10.315   0.901  1.0470  0.4270 -0.0966
  653MOL0     O90007   9.882  10.327   0.795 -0.5595 -0.6227 -0.6448
  653MOL0     C90008  10.017  10.362   0.812  0.5664 -1.2082  0.9041
  653MOL0     C90009  10.093  10.353   0.924  0.3996 -0.2457 -0.0726
  653MOL0     C90010  10.233  10.407   0.931  0.2771  0.2444 -0.5929
  653MOL0     C90011  10.277  10.480   0.819  0.6983 -0.6704  0.2338
  653MOL0     O90012  10.411  10.521   0.803  0.3573 -0.7872  0.2814
  653MOL0     C90013  10.436  10.657   0.854 -1.2433  0.1615  0.1140
  653MOL0     C90014  10.473  10.654   1.005 -0.2181 -0.0572 -0.5570
  653MOL0     C90015  10.581  10.565   1.045 -0.9999  0.7285  0.0258
  653MOL0     C90016  10.610  10.568   1.195 -0.1130 -0.5627  0.1481
  653MOL0     C90017  10.695  10.448   1.231 -1.1126 -0.2705  0.0804
  653MOL0     C90018  10.732  10.452   1.381  0.0964 -0.0474 -0.0371
  653MOL0     C90019  10.810  10.334   1.448  0.1306  0.1643  0.9473
  653MOL0     C90020  10.722  10.214   1.489  0.9092  0.6928  0.3634
  653MOL0    Cl90021  10.848  10.093   1.540  0.3396 -0.1150 -0.0850
  653MOL0     C90022  10.202  10.479   0.699 -0.0275  0.0328  0.8507
  653MOL0     C90023  10.075  10.419   0.695  0.1566 -0.4515  0.2278
  653MOL0     O90024   9.832  10.360   1.008 -0.3479  0.1687 -0.5539
  653MOL0     C90025   9.612  10.279   0.735 -0.0322 -0.5678 -0.4864
  653MOL0     C90026   9.482  10.251   0.710  0.1491 -0.1195 -0.3096
  653MOL0     N90027   8.849  10.143   0.566 -0.2036  0.7901 -0.6005
  653MOL0     N90028   8.739  10.184   0.614  0.2608  0.2843 -0.2797
  653MOL0     C90029   7.828  10.686   0.062 -1.0368  0.1154  0.1597
  653MOL0     C90030   7.740  10.708  -0.041 -0.1245 -0.8866  0.2468
  653MOL0     C90031   7.368  10.916  -0.218 -0.2346  0.9369  0.0111
  653MOL0     C90032   7.325  11.050  -0.216  0.1083  0.0883 -0.5311
  653MOL0     C90033   7.242  11.108  -0.318  0.3882  1.0429  0.2537
  653MOL0     C90034   7.210  11.023  -0.423 -0.1490  0.6718 -0.0122
  653MOL0     O90035   7.125  11.077  -0.524 -0.5684 -0.2776  0.5266
  653MOL0     C90036   7.075  10.980  -0.612 -0.2691 -0.3967  0.7855
  653MOL0     C90037   6.958  11.045  -0.687 -0.3541 -0.5270  0.1787
  653MOL0     C90038   6.875  10.938  -0.748  0.2223 -1.3217  0.1188
  653MOL0     C90039   6.783  10.998  -0.863 -0.9534 -0.1904 -0.0165
  653MOL0     C90040   6.679  11.080  -0.812 -0.5609  0.5856  0.5454
  653MOL0     C90041   6.591  11.157  -0.779 -0.0071 -0.3871  0.6992
  653MOL0     C90042   7.261  10.888  -0.424 -1.0179  0.0541  0.1874
  653MOL0     C90043   7.339  10.835  -0.321  0.8481 -0.1367  0.2223
  653MOL0     C90044   7.408  10.698  -0.350 -0.3409  0.5420  0.6898
  653MOL0     H90045   7.448  10.695   0.126  0.3606 -0.6315  0.9809
  653MOL0     H90046   7.596  10.618   0.304 -1.7360 -0.4414 -1.0448
  653MOL0     H90047   7.808  10.539   0.464  0.7376 -1.3572 -2.8670
  653MOL0     H90048   7.775  10.713   0.429 -1.6427 -0.7724  3.0124
  653MOL0     H90049   8.010  10.763   0.419  1.6912 -1.5674 -1.6225
  653MOL0     H90050   7.966  10.723   0.585 -1.4329  4.0670 -2.0091
  653MOL0     H90051   8.050  10.508   0.553 -0.8370  1.4698  0.9685
  653MOL0     H90052   8.087  10.537   0.377 -2.5255 -0.2621  0.8508
  653MOL0     H90053   8.227  10.722   0.461 -1.4649 -0.0587 -0.4829
  653MOL0     H90054   8.195  10.677   0.623 -0.7158  0.0911  0.5313
  653MOL0     H90055   8.432  10.602   0.532 -2.1159  3.6469  4.9786
  653MOL0     H90056   8.353  10.494   0.422  1.5300 -0.7344  1.4195
  653MOL0     H90057   8.361  10.464   0.718  3.7318  0.8914 -0.7492
  653MOL0     H90058   8.252  10.366   0.599 -0.3000 -0.8342  1.9582
  653MOL0     H90059   8.475  10.317   0.479 -2.1290  1.2381  0.9731
  653MOL0     H90060   8.473  10.239   0.638  1.7062  1.8197  3.1709
  653MOL0     H90061   8.614  10.493   0.592  0.6146  1.7457  3.4135
  653MOL0     H90062   8.607  10.415   0.737  0.9289 -0.2895 -0.5421
  653MOL0     H90063   8.825  10.455   0.461 -0.4056  0.2126  0.4445
  653MOL0     H90064   9.010  10.302   0.309 -0.0317 -0.1226  0.7286
  653MOL0     H90065   9.055  10.158   0.392  0.1219 -0.0122 -1.8191
  653MOL0     H90066   9.220  10.315   0.405  2.1390  0.6233  1.4783
  653MOL0     H90067   9.102  10.442   0.445 -1.5616 -1.5511 -2.0720
  653MOL0     H90068   9.243  10.410   0.649 -1.7183  2.2499 -2.2250
  653MOL0     H90069   9.080  10.371   0.677 -1.0272  0.8087 -1.9543
  653MOL0     H90070   9.099  10.146   0.674  0.8101 -2.6626 -3.2806
  653MOL0     H90071   9.255  10.147   0.581 -0.7090 -2.0289  0.1177
  653MOL0     H90072   9.375  10.186   1.022  0.6383 -1.4409  0.8196
  653MOL0     H90073   9.668  10.086   1.116  3.1782  1.8517 -3.3258
  653MOL0     H90074   9.535  10.177   1.185  0.9556  2.5524  1.3875
  653MOL0     H90075   9.680  10.255   1.153 -0.3505  0.6863 -0.0470
  653MOL0     H90076  10.055  10.297   1.009 -1.1463  1.8585  0.6967
  653MOL0     H90077  10.288  10.394   1.024 -1.4791  1.6801  0.6920
  653MOL0     H90078  10.517  10.694   0.791 -0.6751 -0.2655  0.5775
  653MOL0     H90079  10.347  10.718   0.840 -2.6457 -1.3097  1.9977
  653MOL0     H90080  10.486  10.756   1.042 -0.3148 -0.5377  0.8552
  653MOL0     H90081  10.381  10.607   1.039  0.7622 -2.1674 -0.6925
  653MOL0     H90082  10.674  10.573   0.988  1.4144 -4.7867  2.4029
  653MOL0     H90083  10.558  10.459   1.027  2.7459 -0.8999  3.2338
  653MOL0     H90084  10.520  10.547   1.254 -0.4636 -2.4566 -0.9588
  653MOL0     H90085  10.635  10.668   1.230 -1.8911 -0.1192  0.2183
  653MOL0     H90086  10.645  10.356   1.201  2.5076 -2.6362  0.7022
  653MOL0     H90087  10.788  10.439   1.173 -1.3697 -0.8417 -0.2479
  653MOL0     H90088  10.632  10.464   1.425  0.4378  5.4800 -0.0222
  653MOL0     H90089  10.782  10.544   1.412 -2.5553  1.7882 -0.8156
  653MOL0     H90090  10.870  10.373   1.530  1.0236  1.9417 -0.4791
  653MOL0     H90091  10.869  10.296   1.364  0.7219  0.2568  1.3169
  653MOL0     H90092  10.671  10.173   1.401 -1.2486  0.5806  1.6064
  653MOL0     H90093  10.645  10.248   1.558  1.9817  0.3314  1.7710
  653MOL0     H90094  10.247  10.514   0.607  0.0123  1.4318  1.3864
  653MOL0     H90095  10.021  10.410   0.602  0.0082  0.2287  0.2405
  653MOL0     H90096   9.683  10.310   0.659 -1.2836  2.3391 -0.5912
  653MOL0     H90097   9.464  10.284   0.608  1.6168  0.5705 -0.3696
  653MOL0     H90098   7.935  10.682   0.045 -0.9571  0.2778  0.6220
  653MOL0     H90099   7.779  10.720  -0.142  0.2644  2.5746  0.6552
  653MOL0     H90100   7.346  11.108  -0.127 -1.6474 -0.9726  0.6432
  653MOL0     H90101   7.197  11.205  -0.301 -0.1426  0.7448  0.5880
  653MOL0     H90102   7.155  10.951  -0.681 -0.9322  0.4025 -0.3498
  653MOL0     H90103   7.036  10.896  -0.554 -3.4592 -1.8933 -3.0275
  653MOL0     H90104   6.999  11.103  -0.769  1.1118 -0.1582  1.1427
  653MOL0     H90105   6.898  11.109  -0.621 -4.2646 -3.3326 -0.2781
  653MOL0     H90106   6.935  10.853  -0.783  2.9702 -1.3693  4.2470
  653MOL0     H90107   6.820  10.893  -0.665 -0.3914 -1.5736 -0.4184
  653MOL0     H90108   6.738  10.910  -0.910  1.6465 -3.2572  2.7324
  653MOL0     H90109   6.839  11.058  -0.935  0.6950 -0.8214  0.6906
  653MOL0     H90110   6.527  11.231  -0.737 -0.0114 -0.2972  0.5356
  653MOL0     H90111   7.241  10.819  -0.506  0.4637  1.0683 -1.0638
  653MOL0     H90112   7.357  10.654  -0.435 -1.1038  1.1781  0.8055
  653MOL0     H90113   7.515  10.706  -0.368 -0.2198 -1.3380  0.3762
  653MOL0     H90114   7.400  10.623  -0.270 -2.7519  0.8444  0.8141
  654MOL0     O90115   4.132   8.101   0.661 -0.0251  0.2026  0.1652
  654MOL0     C90116   4.104   8.187   0.738  0.1129 -1.0402  0.7524
  654MOL0     O90117   4.193   8.247   0.819 -0.2484  0.8807 -0.5345
  654MOL0     C90118   4.323   8.191   0.820  0.4919 -0.2840  0.0604
  654MOL0     C90119   4.352   8.075   0.884  0.8866  0.8411  0.1801
  654MOL0     C90120   4.479   8.016   0.874  0.3103 -0.1284  0.7127
  654MOL0     C90121   4.576   8.085   0.808 -0.0523 -0.7280 -0.8403
  654MOL0     O90122   4.709   8.042   0.800  0.7763 -0.1671  0.2765
  654MOL0     C90123   4.764   7.944   0.900 -0.3128 -0.0983 -0.4840
  654MOL0     C90124   4.919   7.945   0.896 -0.1520 -0.1470 -0.9821
  654MOL0     C90125   4.974   7.952   0.752 -0.1577 -0.3373 -0.0667
  654MOL0     C90126   4.904   7.838   0.660 -0.8171 -0.1999 -0.3090
  654MOL0     C90127   5.013   7.799   0.556  0.4647  0.2803  0.0111
  654MOL0     C90128   4.969   7.659   0.501  0.3307  0.1834 -0.2706
  654MOL0     C90129   5.082   7.588   0.419  0.5823 -0.6042  0.4735
  654MOL0     C90130   5.079   7.627   0.268  1.3768 -0.0638 -1.0814
  654MOL0     N90131   5.182   7.558   0.187 -0.6475  0.0822 -0.4397
  654MOL0     C90132   5.192   7.421   0.160  0.8125 -0.8529 -0.4409
  654MOL0     C90133   5.299   7.404   0.078  0.6738  0.0632  0.6261
  654MOL0     C90134   5.337   7.282   0.005  0.1267 -0.1250  0.0921
  654MOL0     C90135   5.424   7.188   0.093  0.2786 -0.4123  0.1581
  654MOL0     C90136   5.530   7.122   0.004 -0.4897 -0.6953  0.0697
  654MOL0     C90137   5.637   7.043   0.089  1.1235  0.6426 -0.2252
  654MOL0     O90138   5.698   7.129   0.183 -0.5658  0.1264  0.1298
  654MOL0     C90139   5.833   7.106   0.203  0.1878  0.1931 -0.3897
  654MOL0     C90140   5.907   7.205   0.271  0.2200  0.5034  0.1026
  654MOL0     C90141   6.042   7.182   0.305  0.4038 -0.3249  0.3618
  654MOL0     C90142   6.108   7.295   0.379  0.1538  0.8805  0.2825
  654MOL0     C90143   6.109   7.063   0.288 -0.1559  0.2780  0.2618
  654MOL0     C90144   6.256   7.036   0.307  0.4250 -0.9716 -0.5603
  654MOL0     O90145   6.298   6.902   0.311  1.2590  0.3695 -0.0452
  654MOL0     C90146   6.405   6.873   0.385 -1.3733  1.3443  0.0892
  654MOL0     C90147   6.386   6.820   0.514  0.4367 -1.0698 -0.3820
  654MOL0     C90148   6.490   6.761   0.587 -1.0181 -1.4246  0.9841
  654MOL0     C90149   6.609   6.736   0.519 -0.1172  0.9527  0.6826
  654MOL0     O90150   6.718   6.651   0.558 -0.0048 -0.5651 -0.1496
  654MOL0     C90151   6.723   6.599   0.694  0.4069 -0.2100  0.0941
  654MOL0     C90152   6.649   6.473   0.701  0.1694  0.9483 -0.3651
  654MOL0     C90153   6.726   6.368   0.621  0.5959 -0.4167  0.6039
  654MOL0     C90154   6.658   6.237   0.650 -1.0366  0.0780  0.1796
  654MOL0     C90155   6.686   6.125   0.542 -0.2054 -0.0689  0.4625
  654MOL0     C90156   6.625   5.996   0.597 -0.6085  0.5232 -0.8652
  654MOL0     C90157   6.479   6.004   0.637  0.1700 -0.2347 -0.1111
  654MOL0     C90158   6.419   5.869   0.666  0.1778 -0.1866  0.2997
  654MOL0    Cl90159   6.509   5.793   0.798 -0.0849 -0.3643  0.0907
  654MOL0     C90160   6.625   6.782   0.389 -0.0021  0.1957  0.7707
  654MOL0     C90161   6.530   6.859   0.322  0.1219  0.3155 -0.2822
  654MOL0     O90162   6.330   7.133   0.322 -0.3816  0.5939 -0.2471
  654MOL0     C90163   6.038   6.964   0.229  0.8556 -0.0136  0.1576
  654MOL0     C90164   5.901   6.984   0.193 -0.1907 -0.5196  0.5762
  654MOL0     N90165   5.346   7.532   0.061 -0.0196  0.2672 -0.8245
  654MOL0     N90166   5.276   7.628   0.110  0.3513 -0.2527  0.0764
  654MOL0     C90167   4.553   8.211   0.757  0.1409 -0.8856  0.1717
  654MOL0     C90168   4.420   8.266   0.759  0.6079  0.9244 -0.1700
  654MOL0     C90169   3.971   8.254   0.739  0.2824  0.9755 -0.8518
  654MOL0     C90170   3.959   8.395   0.744  0.4053 -0.5061  0.9008
  654MOL0     C90171   3.844   8.459   0.719 -0.0201 -0.2004  0.3788
  654MOL0     C90172   3.735   8.379   0.693  0.2119 -1.1098 -0.5636
  654MOL0     O90173   3.624   8.459   0.670 -0.5715  0.3414  0.7552
  654MOL0     C90174   3.500   8.414   0.728 -0.6447  0.3822  0.6144
  654MOL0     C90175   3.380   8.522   0.712 -0.5480  0.3071  0.2169
  654MOL0     C90176   3.348   8.555   0.560  1.1754 -0.6909  0.3062
  654MOL0     C90177   3.321   8.426   0.475 -0.5905 -0.5417  0.3913
  654MOL0     C90178   3.211   8.352   0.525 -0.5546 -0.5227 -1.1501
  654MOL0     C90179   3.132   8.280   0.585 -0.0814 -0.3915 -0.1067
  654MOL0     C90180   3.736   8.242   0.666 -0.2570  0.2326 -0.4119
  654MOL0     C90181   3.855   8.177   0.718 -0.0180  0.3112  0.2703
  654MOL0     C90182   3.855   8.027   0.737 -0.3013 -0.0430  0.5105
  654MOL0     H90183   4.273   8.012   0.923  0.6772  0.6926 -0.4621
  654MOL0     H90184   4.507   7.928   0.930  3.0370 -1.3326 -2.2223
  654MOL0     H90185   4.730   7.844   0.873 -0.5631 -0.1834  0.1373
  654MOL0     H90186   4.732   7.966   1.002  0.5360 -2.0631  0.2376
  654MOL0     H90187   4.950   8.030   0.957 -1.5461 -2.9048  4.0978
  654MOL0     H90188   4.956   7.855   0.946 -0.5605 -0.4662 -1.2462
  654MOL0     H90189   4.949   8.051   0.713  2.3839  0.0475 -0.8996
  654MOL0     H90190   5.083   7.951   0.759  0.1769  4.1077 -1.5481
  654MOL0     H90191   4.875   7.749   0.716 -0.0352 -0.4889 -0.3402
  654MOL0     H90192   4.820   7.881   0.606 -1.3340 -1.5342 -0.5834
  654MOL0     H90193   5.116   7.791   0.591  0.2691 -1.1356  0.3216
  654MOL0     H90194   5.027   7.873   0.477  2.1327 -0.6280 -0.5792
  654MOL0     H90195   4.959   7.587   0.583  2.1277 -0.5677 -0.6525
  654MOL0     H90196   4.874   7.660   0.447 -0.1340  0.9973  0.5419
  654MOL0     H90197   5.073   7.479   0.421  2.8746 -0.8397  0.3652
  654MOL0     H90198   5.185   7.602   0.452  0.9371 -0.0549 -0.7885
  654MOL0     H90199   4.976   7.616   0.234  0.5625  1.0661  0.8570
  654MOL0     H90200   5.115   7.730   0.266 -0.1507  0.5016 -0.5705
  654MOL0     H90201   5.126   7.341   0.193 -0.4930  0.8191  1.2233
  654MOL0     H90202   5.395   7.305  -0.085  1.7846 -1.5799  0.7312
  654MOL0     H90203   5.246   7.236  -0.035 -1.6775  1.4086  2.2128
  654MOL0     H90204   5.477   7.243   0.171  0.6059 -1.4017  0.6557
  654MOL0     H90205   5.356   7.117   0.141 -2.3399  1.5851 -0.3471
  654MOL0     H90206   5.489   7.052  -0.070  0.6304  1.0364 -2.3032
  654MOL0     H90207   5.594   7.192  -0.051  0.3291 -1.1341  0.4411
  654MOL0     H90208   5.590   6.968   0.154  0.1768  0.0793 -1.5293
  654MOL0     H90209   5.700   6.979   0.027 -1.4010 -2.9041  0.5595
  654MOL0     H90210   5.857   7.299   0.291 -1.5340  0.1870 -2.2783
  654MOL0     H90211   6.115   7.247   0.477 -1.3916 -1.3797 -0.6334
  654MOL0     H90212   6.045   7.385   0.383  1.0003  1.4972 -0.1357
  654MOL0     H90213   6.200   7.336   0.337  0.1880  1.4085  0.8530
  654MOL0     H90214   6.286   6.841   0.549  0.3427  0.5791 -1.5429
  654MOL0     H90215   6.489   6.742   0.694 -2.3003  1.0423  1.4935
  654MOL0     H90216   6.828   6.600   0.725  0.6752  1.6710 -0.7162
  654MOL0     H90217   6.678   6.663   0.770 -0.2182 -1.1183  0.4982
  654MOL0     H90218   6.625   6.437   0.802 -1.0966 -0.5802 -1.1623
  654MOL0     H90219   6.552   6.489   0.652 -0.6103 -1.2938  0.3040
  654MOL0     H90220   6.825   6.359   0.667  0.6359 -0.3996  0.5215
  654MOL0     H90221   6.738   6.386   0.514 -1.7308  0.0417  0.3773
  654MOL0     H90222   6.552   6.262   0.658 -0.6541  1.4061  1.5918
  654MOL0     H90223   6.685   6.194   0.747 -0.9158 -1.7111 -0.6103
  654MOL0     H90224   6.638   6.151   0.448  0.8170  1.8278  0.4175
  654MOL0     H90225   6.794   6.117   0.527 -0.0424 -0.3470  1.6391
  654MOL0     H90226   6.685   5.971   0.686 -0.6950  0.8553 -0.7146
  654MOL0     H90227   6.634   5.914   0.526  0.1242 -2.2673  2.1758
  654MOL0     H90228   6.411   6.045   0.561 -1.5333 -1.3728  0.7514
  654MOL0     H90229   6.456   6.066   0.724 -3.7994  0.9665 -1.7631
  654MOL0     H90230   6.418   5.801   0.581  1.1146  0.3452 -0.1535
  654MOL0     H90231   6.315   5.881   0.700 -0.5289 -2.1731 -1.0121
  654MOL0     H90232   6.708   6.756   0.324  0.9350  0.5671  1.7860
  654MOL0     H90233   6.543   6.893   0.220  1.6922 -0.4686 -0.3856
  654MOL0     H90234   6.084   6.867   0.213  0.9799 -0.3523  2.3494
  654MOL0     H90235   5.846   6.902   0.149 -2.4003  0.1997  1.8391
  654MOL0     H90236   4.639   8.274   0.736 -0.1320  0.7166  3.2786
  654MOL0     H90237   4.399   8.358   0.705  0.8232  2.1344  1.7204
  654MOL0     H90238   4.049   8.452   0.770  0.3185  1.3174 -2.2343
  654MOL0     H90239   3.851   8.567   0.727 -1.3453  0.3461 -3.7453
  654MOL0     H90240   3.466   8.326   0.672  0.1111  0.5836 -0.1767
  654MOL0     H90241   3.517   8.384   0.832  0.7894 -0.9993  0.0343
  654MOL0     H90242   3.407   8.616   0.763 -0.9988  1.3198 -1.3261
  654MOL0     H90243   3.299   8.481   0.773  0.3751 -1.7119  0.1445
  654MOL0     H90244   3.264   8.625   0.559  1.6641 -0.0827 -1.5825
  654MOL0     H90245   3.435   8.604   0.515  0.4336  2.6005  2.1457
  654MOL0     H90246   3.416   8.373   0.465  0.6694  2.0081 -3.2241
  654MOL0     H90247   3.297   8.454   0.372  0.9603  0.4295  0.2561
  654MOL0     H90248   3.068   8.221   0.648  0.3733  0.0859  0.8211
  654MOL0     H90249   3.651   8.184   0.632 -0.0527  1.4710 -3.3631
  654MOL0     H90250   3.920   7.996   0.819 -0.1406 -1.6084 -0.1734
  654MOL0     H90251   3.753   7.991   0.755 -1.0836  2.1779  0.7799
  654MOL0     H90252   3.893   7.983   0.644 -2.0113  0.5354 -0.5211
  655MOL0     O90253   9.808   0.470   0.462  0.3487 -0.6387 -0.3563
  655MOL0     C90254   9.852   0.390   0.542  0.6015  0.2098 -0.2255
  655MOL0     O90255   9.985   0.361   0.559 -0.0680 -0.6580  0.0905
  655MOL0     C90256  10.075   0.458   0.524  0.0589  0.3491 -0.0304
  655MOL0     C90257  10.164   0.429   0.426 -0.0379  0.5697 -0.8550
  655MOL0     C90258  10.244   0.528   0.362 -1.6557 -0.4410  0.2901
  655MOL0     C90259  10.260   0.648   0.436  0.8835 -0.1096  0.0902
  655MOL0     O90260  10.362   0.732   0.384  0.4183  0.1859 -0.0766
  655MOL0     C90261  10.404   0.839   0.465 -0.5180  0.4210 -0.6880
  655MOL0     C90262  10.529   0.901   0.400  0.8388  0.0914 -0.8933
  655MOL0     C90263  10.598   0.991   0.497 -0.0810 -0.9909 -0.3091
  655MOL0     C90264  10.734   1.039   0.437  0.8539  0.4659 -0.4297
  655MOL0     C90265  10.833   1.065   0.548  0.4970  0.4315  0.9249
  655MOL0     C90266  10.797   1.170   0.646 -0.3697  0.1283 -0.2054
  655MOL0     C90267  10.897   1.188   0.764  0.0453 -0.0880  0.1102
  655MOL0     C90268  10.851   1.291   0.872  0.0344 -1.0452  0.4139
  655MOL0     N90269  10.934   1.296   0.993  0.5857 -0.2726 -0.1548
  655MOL0     C90270  10.882   1.297   1.124  0.5963 -0.0703 -0.1218
  655MOL0     C90271  11.000   1.303   1.196 -0.3934 -0.3479 -0.7789
  655MOL0     C90272  11.033   1.290   1.348  0.0045 -0.6157 -0.1482
  655MOL0     C90273  11.029   1.417   1.439 -0.2905  0.6613  0.8693
  655MOL0     C90274  10.888   1.477   1.460 -0.9099  0.0143 -0.3545
  655MOL0     C90275  10.802   1.383   1.547  1.2832 -1.0816 -0.0328
  655MOL0     O90276  10.671   1.434   1.567  0.5169  0.0195  0.2136
  655MOL0     C90277  10.564   1.352   1.606  0.6654  0.4265  0.1862
  655MOL0     C90278  10.430   1.380   1.563  0.0578 -0.3474 -0.0651
  655MOL0     C90279  10.326   1.284   1.576 -0.4619 -0.3229  0.5568
  655MOL0     C90280  10.196   1.319   1.508  0.5782 -0.8873  0.2115
  655MOL0     C90281  10.352   1.161   1.640 -0.0599  0.4997 -0.1490
  655MOL0     C90282  10.250   1.057   1.656  0.2625  0.1083  0.2181
  655MOL0     O90283  10.294   0.936   1.700 -0.5407  0.1600 -0.1924
  655MOL0     C90284  10.197   0.847   1.744  0.1605  0.5570  0.2867
  655MOL0     C90285  10.159   0.745   1.650 -0.1863 -0.0005 -0.2350
  655MOL0     C90286  10.063   0.651   1.687  0.2931  0.4440 -0.5163
  655MOL0     C90287  10.013   0.649   1.820 -0.0593  0.3537  0.7004
  655MOL0     O90288   9.927   0.556   1.852  0.4458 -0.2790  0.6536
  655MOL0     C90289   9.820   0.535   1.764 -1.2585 -0.6918  0.4487
  655MOL0     C90290   9.686   0.560   1.829 -0.4201  0.3850 -0.2323
  655MOL0     C90291   9.646   0.706   1.810  0.6636 -0.8463  0.3651
  655MOL0     C90292   9.511   0.746   1.879 -0.7517  0.5445  0.0023
  655MOL0     C90293   9.388   0.722   1.789 -0.7316  0.3396 -0.0045
  655MOL0     C90294   9.258   0.743   1.866 -0.5486  1.2518  0.5028
  655MOL0     C90295   9.141   0.754   1.762  0.8911 -0.2295 -0.0403
  655MOL0     C90296   8.998   0.758   1.826 -0.0464 -0.2538 -0.1523
  655MOL0    Cl90297   8.989   0.879   1.956  0.7763 -0.2949 -0.3547
  655MOL0     C90298  10.056   0.748   1.909  0.1964 -1.1105  0.3725
  655MOL0     C90299  10.145   0.850   1.872 -0.6591 -1.2794 -0.8006
  655MOL0     O90300  10.130   1.088   1.637 -0.5107  0.5678  0.1357
  655MOL0     C90301  10.484   1.141   1.690 -0.2663 -0.6831  0.6770
  655MOL0     C90302  10.586   1.230   1.669  0.1789  0.5444  0.0368
  655MOL0     N90303  11.110   1.310   1.114 -0.1137  0.1010  0.1423
  655MOL0     N90304  11.074   1.303   0.990  0.6307  0.2576 -0.0249
  655MOL0     C90305  10.173   0.678   0.539  0.4572  0.5759 -0.2232
  655MOL0     C90306  10.078   0.586   0.582  0.3803 -0.5972 -0.4317
  655MOL0     C90307   9.756   0.319   0.629 -0.3442 -0.0560 -0.1625
  655MOL0     C90308   9.629   0.373   0.635  0.8651 -0.2908 -0.9033
  655MOL0     C90309   9.518   0.312   0.699 -0.0307 -0.1299  0.2775
  655MOL0     C90310   9.540   0.175   0.738  0.9065  0.3860  0.7624
  655MOL0     O90311   9.431   0.091   0.770 -0.2893 -0.5481 -0.5691
  655MOL0     C90312   9.445  -0.060   0.784  0.1739  0.0032  0.5935
  655MOL0     C90313   9.305  -0.124   0.812  0.2068  0.5347 -0.5575
  655MOL0     C90314   9.235  -0.088   0.940 -0.1617 -0.1062 -0.7175
  655MOL0     C90315   9.098  -0.162   0.954  0.8251  0.0161  0.0500
  655MOL0     C90316   9.124  -0.302   0.993 -0.6591  0.0971 -0.2858
  655MOL0     C90317   9.161  -0.412   1.025 -0.9740  0.8898  0.3027
  655MOL0     C90318   9.671   0.117   0.733 -0.7327 -0.7504 -0.4207
  655MOL0     C90319   9.782   0.198   0.689  0.2105  0.2392 -0.3436
  655MOL0     C90320   9.919   0.132   0.698 -0.4534 -0.0718  0.8148
  655MOL0     H90321  10.157   0.333   0.376  1.5124 -0.0018 -0.0331
  655MOL0     H90322  10.301   0.512   0.271  1.7225  2.2767  1.6863
  655MOL0     H90323  10.407   0.804   0.569 -0.8683  0.5180 -0.6427
  655MOL0     H90324  10.325   0.915   0.469 -2.0012 -1.0718 -0.0788
  655MOL0     H90325  10.594   0.816   0.379 -0.1037 -0.6454 -0.8714
  655MOL0     H90326  10.492   0.965   0.319 -1.5018  0.3529  0.3075
  655MOL0     H90327  10.535   1.079   0.516 -3.7857 -3.0854 -1.8036
  655MOL0     H90328  10.626   0.937   0.587  1.1226 -2.7139 -1.6569
  655MOL0     H90329  10.770   0.959   0.372  0.4867 -1.8199  2.0130
  655MOL0     H90330  10.708   1.130   0.383 -0.8494  0.0675 -0.3515
  655MOL0     H90331  10.920   1.095   0.490 -0.0263 -0.8208 -0.5716
  655MOL0     H90332  10.851   0.970   0.601  1.8901 -1.2585 -2.2816
  655MOL0     H90333  10.796   1.262   0.586 -0.7647  0.1734 -0.1377
  655MOL0     H90334  10.695   1.156   0.685  0.0019 -2.6146 -0.0475
  655MOL0     H90335  10.995   1.213   0.722  0.2673 -0.1527  0.5718
  655MOL0     H90336  10.899   1.090   0.812  0.0764 -0.7697 -1.2423
  655MOL0     H90337  10.869   1.390   0.830  0.6586 -0.7096  1.4206
  655MOL0     H90338  10.746   1.273   0.896 -0.6090  1.3054 -0.3249
  655MOL0     H90339  10.776   1.292   1.146  0.1287  0.1400 -2.1786
  655MOL0     H90340  11.136   1.254   1.349  0.4295  0.5177 -0.9728
  655MOL0     H90341  10.976   1.209   1.394  1.1113  0.6808  3.9573
  655MOL0     H90342  11.072   1.391   1.537 -0.2895  1.2758  1.0368
  655MOL0     H90343  11.093   1.498   1.404 -2.3127  1.8993 -0.1510
  655MOL0     H90344  10.910   1.572   1.510  1.6717 -0.8561  0.3063
  655MOL0     H90345  10.842   1.494   1.363 -0.7599 -0.5072 -0.5198
  655MOL0     H90346  10.787   1.291   1.490 -1.2330 -1.0750  0.4738
  655MOL0     H90347  10.851   1.367   1.644 -0.2275  3.1522  1.6988
  655MOL0     H90348  10.407   1.473   1.513 -1.5140 -1.4464 -1.5066
  655MOL0     H90349  10.168   1.233   1.446 -0.2893 -0.4410 -0.0386
  655MOL0     H90350  10.200   1.413   1.451 -0.6383 -0.8255  0.1955
  655MOL0     H90351  10.119   1.340   1.583 -1.9302 -0.0265 -2.3793
  655MOL0     H90352  10.200   0.751   1.550 -0.8633  2.6366 -0.4185
  655MOL0     H90353  10.028   0.578   1.614 -2.8645 -1.1395  2.2769
  655MOL0     H90354   9.811   0.597   1.674  0.1907 -1.8335 -0.5353
  655MOL0     H90355   9.821   0.434   1.722  1.7323  0.4334 -2.6723
  655MOL0     H90356   9.604   0.500   1.790  1.6710 -2.5482 -0.4402
  655MOL0     H90357   9.688   0.533   1.935  2.0526  2.2782  0.2941
  655MOL0     H90358   9.637   0.738   1.706  1.2430 -0.5934  0.3900
  655MOL0     H90359   9.721   0.760   1.869  1.5450 -2.3425  0.6567
  655MOL0     H90360   9.498   0.845   1.923 -0.1410 -0.0105  1.5097
  655MOL0     H90361   9.511   0.678   1.964  0.2030 -0.7892 -1.0135
  655MOL0     H90362   9.390   0.782   1.698  1.0503 -2.5096 -2.0344
  655MOL0     H90363   9.384   0.619   1.751  0.1194 -1.1118  3.4818
  655MOL0     H90364   9.267   0.838   1.920  1.0915  2.2543 -1.3742
  655MOL0     H90365   9.251   0.664   1.941  1.0078  0.4082 -0.1780
  655MOL0     H90366   9.148   0.662   1.704  1.0090 -1.5466  1.9948
  655MOL0     H90367   9.161   0.844   1.703 -0.6903  1.2396  1.5477
  655MOL0     H90368   8.989   0.663   1.879 -2.2532  1.0862  2.0875
  655MOL0     H90369   8.921   0.758   1.748 -1.9474 -0.8513  1.6256
  655MOL0     H90370  10.019   0.751   2.011 -0.6025  1.6876  0.0987
  655MOL0     H90371  10.161   0.930   1.944  2.8977 -1.7685 -0.8899
  655MOL0     H90372  10.510   1.048   1.740 -3.0493 -2.9528 -1.7775
  655MOL0     H90373  10.683   1.190   1.699 -0.9515 -1.7490  0.9366
  655MOL0     H90374  10.176   0.778   0.580  1.1873  0.1899  0.6840
  655MOL0     H90375  10.004   0.612   0.658 -1.1443 -0.3442 -1.9520
  655MOL0     H90376   9.612   0.471   0.591 -0.4840  1.6888  3.5023
  655MOL0     H90377   9.419   0.357   0.707 -0.4453 -1.3208  3.3519
  655MOL0     H90378   9.478  -0.105   0.690 -1.9133  0.0998 -0.2446
  655MOL0     H90379   9.505  -0.090   0.871 -1.8349 -0.8184  1.7545
  655MOL0     H90380   9.331  -0.231   0.812  0.1248  0.5082 -1.1740
  655MOL0     H90381   9.245  -0.113   0.721  1.1255 -0.9115 -1.3874
  655MOL0     H90382   9.296  -0.112   1.028  0.5314 -2.9667 -1.8523
  655MOL0     H90383   9.205   0.017   0.939 -3.2748 -0.8869 -0.3734
  655MOL0     H90384   9.038  -0.151   0.864 -2.8853  0.6715  2.3822
  655MOL0     H90385   9.045  -0.106   1.032  0.5396 -1.1364  0.6976
  655MOL0     H90386   9.186  -0.510   1.062 -3.7963  0.0779  0.2733
  655MOL0     H90387   9.693   0.019   0.772 -1.3914 -0.1977  1.4489
  655MOL0     H90388   9.916   0.054   0.775 -0.1207 -2.7819 -1.7641
  655MOL0     H90389   9.947   0.089   0.601  0.7648  0.5184  0.8863
  655MOL0     H90390  10.003   0.195   0.730  0.2834  0.2272 -1.5478
  656MOL0     O90391   5.967   8.492   3.996  0.0268  0.2366 -0.2743
  656MOL0     C90392   6.015   8.514   4.104  0.1518 -0.0035  0.1148
  656MOL0     O90393   5.962   8.592   4.196  0.2300 -0.2680 -0.3871
  656MOL0     C90394   5.846   8.648   4.184  0.1290 -0.4836 -0.4929
  656MOL0     C90395   5.726   8.573   4.201 -0.5341 -0.3707  0.2559
  656MOL0     C90396   5.606   8.641   4.216 -0.6349  1.2281 -0.5930
  656MOL0     C90397   5.596   8.780   4.182 -0.4891 -0.8118 -0.2719
  656MOL0     O90398   5.488   8.870   4.178  0.1127  0.1033 -0.0630
  656MOL0     C90399   5.359   8.800   4.175 -0.0918  0.8271 -1.1212
  656MOL0     C90400   5.250   8.903   4.142  0.1419  0.5661  0.4248
  656MOL0     C90401   5.164   8.846   4.029  0.1177  0.1582 -0.6346
  656MOL0     C90402   5.039   8.932   4.018 -0.2169 -0.4299 -0.5927
  656MOL0     C90403   4.952   8.865   3.913 -0.1697 -0.4454  0.6560
  656MOL0     C90404   4.828   8.942   3.887 -0.5135 -0.3829 -0.5256
  656MOL0     C90405   4.732   8.865   3.794  0.0454 -0.1447 -0.1876
  656MOL0     C90406   4.761   8.885   3.653  0.6489  0.5195  0.1747
  656MOL0     N90407   4.701   9.015   3.610 -0.2147  0.5687 -0.1428
  656MOL0     C90408   4.718   9.144   3.654  0.1531  0.2093  0.0043
  656MOL0     C90409   4.648   9.229   3.575 -0.1407  0.3926  0.6203
  656MOL0     C90410   4.634   9.375   3.578  0.3895  0.3486 -0.0208
  656MOL0     C90411   4.707   9.462   3.476 -0.1103 -0.9633  0.8278
  656MOL0     C90412   4.867   9.436   3.473 -0.0781 -0.1940 -0.3730
  656MOL0     C90413   4.903   9.319   3.387 -0.8745  0.7444  0.0327
  656MOL0     O90414   5.049   9.281   3.383  0.2529  0.0455 -0.6038
  656MOL0     C90415   5.135   9.369   3.320  0.8147 -0.7029  0.5360
  656MOL0     C90416   5.260   9.408   3.375 -0.2941 -0.0682 -0.0295
  656MOL0     C90417   5.347   9.497   3.317 -1.0342 -0.8784  0.5227
  656MOL0     C90418   5.485   9.518   3.379 -0.0809 -0.2958 -0.7186
  656MOL0     C90419   5.312   9.565   3.191 -0.0206  0.6256 -0.8449
  656MOL0     C90420   5.385   9.672   3.120  0.1593  0.1370 -0.1830
  656MOL0     O90421   5.473   9.756   3.190 -0.1244 -0.4834 -0.3410
  656MOL0     C90422   5.514   9.885   3.169  1.1070  0.0549  0.1528
  656MOL0     C90423   5.470   9.969   3.060 -0.4971  0.1252 -1.0002
  656MOL0     C90424   5.517  10.099   3.049 -0.0989 -0.0511 -0.0749
  656MOL0     C90425   5.607  10.145   3.138 -0.0298  0.3100  0.3673
  656MOL0     O90426   5.663  10.267   3.102  0.0433  0.4867  0.3251
  656MOL0     C90427   5.709  10.351   3.208 -0.2439 -0.8012  0.0809
  656MOL0     C90428   5.736  10.502   3.165 -0.2429 -0.4376  0.4119
  656MOL0     C90429   5.784  10.588   3.285  0.1106  0.3792  1.1022
  656MOL0     C90430   5.865  10.714   3.252  0.5485 -0.4022  0.9229
  656MOL0     C90431   6.014  10.693   3.223 -1.4767 -0.1624 -0.2540
  656MOL0     C90432   6.092  10.824   3.218 -0.5007 -1.0063 -0.0065
  656MOL0     C90433   6.225  10.798   3.154 -0.5455 -0.3843  0.1862
  656MOL0     C90434   6.332  10.769   3.266 -1.5528  0.4532 -0.0493
  656MOL0    Cl90435   6.465  10.673   3.197  0.1535  0.4353 -0.1882
  656MOL0     C90436   5.657  10.064   3.246  1.2087  1.0001  0.1239
  656MOL0     C90437   5.610   9.927   3.249  0.6368 -0.0258  0.0626
  656MOL0     O90438   5.357   9.678   3.001 -0.0591 -0.2712 -0.3081
  656MOL0     C90439   5.186   9.539   3.136 -0.1238  0.3038  0.2516
  656MOL0     C90440   5.103   9.446   3.199 -0.2236  1.0410  0.1177
  656MOL0     N90441   4.598   9.147   3.478 -0.0810  0.5923 -0.0875
  656MOL0     N90442   4.634   9.024   3.494  0.0777  0.6720 -0.3646
  656MOL0     C90443   5.711   8.852   4.151 -0.5068  0.3538  0.7260
  656MOL0     C90444   5.839   8.786   4.143 -0.3917 -0.5872 -0.7027
  656MOL0     C90445   6.140   8.445   4.132 -0.5352  0.1837  0.1077
  656MOL0     C90446   6.181   8.336   4.044  0.0306  0.3758  0.5098
  656MOL0     C90447   6.306   8.266   4.072  0.9925  0.3256 -0.5783
  656MOL0     C90448   6.392   8.295   4.174  0.5201 -0.6349 -0.0862
  656MOL0     O90449   6.520   8.254   4.190  0.2507 -0.1340 -0.3079
  656MOL0     C90450   6.595   8.173   4.091 -0.1663 -0.2208  0.3499
  656MOL0     C90451   6.604   8.037   4.154  0.1392 -0.1181  0.7317
  656MOL0     C90452   6.465   7.968   4.154  0.3524  0.3738 -0.1682
  656MOL0     C90453   6.466   7.816   4.188  0.9260 -0.3051  0.5718
  656MOL0     C90454   6.539   7.738   4.092 -0.6144  0.7976 -0.2396
  656MOL0     C90455   6.616   7.677   4.018  0.7284  0.3010  1.1213
  656MOL0     C90456   6.344   8.397   4.251  1.2859  0.2601 -0.0411
  656MOL0     C90457   6.225   8.474   4.243 -0.7624 -0.9038  0.2568
  656MOL0     C90458   6.201   8.572   4.359  0.1662 -0.2927  0.5440
  656MOL0     H90459   5.728   8.469   4.232  0.9900 -0.2983  0.4556
  656MOL0     H90460   5.519   8.585   4.251 -0.5082 -0.3634 -2.6886
  656MOL0     H90461   5.346   8.744   4.268 -0.9255 -1.9401 -2.7776
  656MOL0     H90462   5.362   8.721   4.099 -2.2114  0.6440 -1.0676
  656MOL0     H90463   5.191   8.944   4.225  0.7019  1.2482  0.5005
  656MOL0     H90464   5.297   8.992   4.098 -0.9285  1.1284  0.3953
  656MOL0     H90465   5.204   8.836   3.927 -1.6408  2.2821 -1.6299
  656MOL0     H90466   5.135   8.746   4.062  2.9795 -0.0099  1.7320
  656MOL0     H90467   4.990   8.939   4.116  2.0803  1.8732  0.5001
  656MOL0     H90468   5.052   9.036   3.989 -3.8845  0.6663  1.0594
  656MOL0     H90469   4.927   8.764   3.946 -0.4062  0.0678  2.1358
  656MOL0     H90470   5.018   8.853   3.826 -1.4197 -4.2516  0.0198
  656MOL0     H90471   4.780   8.949   3.985  0.8511 -0.5131  0.1655
  656MOL0     H90472   4.850   9.044   3.852  1.5193 -0.7071 -0.2865
  656MOL0     H90473   4.628   8.898   3.807 -0.1408 -0.7493 -0.0907
  656MOL0     H90474   4.741   8.759   3.819 -0.6978  0.0548  1.0074
  656MOL0     H90475   4.870   8.886   3.637  0.8365  0.9437  1.3748
  656MOL0     H90476   4.714   8.799   3.604  0.8077 -1.7801  3.6943
  656MOL0     H90477   4.756   9.182   3.748 -0.1540 -0.4984  0.4229
  656MOL0     H90478   4.658   9.404   3.680 -0.3114  2.9291 -0.5180
  656MOL0     H90479   4.526   9.389   3.570 -0.2344 -3.3119  0.0531
  656MOL0     H90480   4.675   9.437   3.374  0.4374  0.1470  0.3680
  656MOL0     H90481   4.688   9.569   3.490  1.3882 -0.1781 -2.2258
  656MOL0     H90482   4.918   9.525   3.435 -0.1448 -0.7795 -1.8950
  656MOL0     H90483   4.889   9.412   3.578 -3.9950  2.3064  1.2184
  656MOL0     H90484   4.845   9.233   3.421 -2.5226  1.6814 -0.3024
  656MOL0     H90485   4.866   9.349   3.289 -0.3298 -1.2198 -0.8290
  656MOL0     H90486   5.284   9.368   3.473 -1.2490 -0.9327 -0.1294
  656MOL0     H90487   5.488   9.460   3.472  0.0474  1.1151  0.1955
  656MOL0     H90488   5.496   9.621   3.416 -0.2297 -1.1725  1.9987
  656MOL0     H90489   5.552   9.487   3.299 -0.4664  1.8122 -1.9490
  656MOL0     H90490   5.393   9.935   2.991  0.5409  0.5631 -2.4260
  656MOL0     H90491   5.492  10.162   2.965 -0.4476 -0.8351 -0.5706
  656MOL0     H90492   5.633  10.342   3.287 -1.8275  3.9959 -0.5616
  656MOL0     H90493   5.806  10.317   3.243  1.1345  2.9044  0.3383
  656MOL0     H90494   5.816  10.494   3.091  1.3973  0.6929  1.9858
  656MOL0     H90495   5.646  10.551   3.127 -1.9702 -1.8109  2.5299
  656MOL0     H90496   5.842  10.523   3.351  2.2143  0.9464 -0.1136
  656MOL0     H90497   5.697  10.623   3.342  0.3428 -0.4980  2.0172
  656MOL0     H90498   5.855  10.784   3.335 -3.3597  3.5548 -2.3906
  656MOL0     H90499   5.828  10.767   3.164  3.2427  0.3717  0.1459
  656MOL0     H90500   6.057  10.640   3.308 -1.2028  0.4939  0.0155
  656MOL0     H90501   6.026  10.634   3.131 -0.8090  0.1290 -0.3564
  656MOL0     H90502   6.097  10.869   3.318  2.2851  1.9417 -1.2986
  656MOL0     H90503   6.029  10.893   3.163  0.4989  0.5624  0.7486
  656MOL0     H90504   6.249  10.887   3.094 -1.0137  0.1549  0.7944
  656MOL0     H90505   6.205  10.717   3.083  0.2336  0.2743 -0.8148
  656MOL0     H90506   6.293  10.716   3.353  0.6569 -1.3641 -0.0456
  656MOL0     H90507   6.377  10.862   3.301  0.4405  0.0514 -1.3589
  656MOL0     H90508   5.735  10.107   3.308  0.7164 -1.8776  3.0597
  656MOL0     H90509   5.657   9.855   3.315 -0.3504 -0.7083  0.0488
  656MOL0     H90510   5.156   9.587   3.044  3.2147  0.9789 -0.6057
  656MOL0     H90511   5.020   9.408   3.140  0.9447  0.2182 -1.0489
  656MOL0     H90512   5.694   8.959   4.137  1.0218  0.5361 -0.0005
  656MOL0     H90513   5.933   8.830   4.114 -2.3097  2.9498 -2.2544
  656MOL0     H90514   6.119   8.323   3.956  0.5462 -1.9893  0.4309
  656MOL0     H90515   6.332   8.193   3.997 -0.6544 -1.8826  0.8560
  656MOL0     H90516   6.535   8.164   4.000 -0.4110  0.4284  0.4388
  656MOL0     H90517   6.695   8.206   4.063  0.2425 -2.9374 -1.7878
  656MOL0     H90518   6.633   8.038   4.259 -2.0720  0.6773  1.3856
  656MOL0     H90519   6.676   7.977   4.097 -0.9404  0.5738 -1.4893
  656MOL0     H90520   6.388   8.021   4.211  0.6335  0.4290  0.1658
  656MOL0     H90521   6.431   7.974   4.050 -0.7389  2.2082  0.2539
  656MOL0     H90522   6.362   7.782   4.189  2.1428 -4.8686 -1.6617
  656MOL0     H90523   6.510   7.813   4.288  4.7359 -0.1441 -0.9317
  656MOL0     H90524   6.672   7.626   3.943 -2.2542 -1.0640 -0.3828
  656MOL0     H90525   6.395   8.414   4.345  1.3047  2.2866 -0.3679
  656MOL0     H90526   6.230   8.674   4.332 -0.0335  0.0484  1.5784
  656MOL0     H90527   6.095   8.566   4.387 -0.5351 -3.9353 -2.2120
  656MOL0     H90528   6.262   8.549   4.446  1.0493  1.7069  0.5109
  657MOL0     O90529   5.443  10.273  10.948 -0.0256  0.5295  0.2284
  657MOL0     C90530   5.475  10.161  10.990  0.0477  0.3818  0.4370
  657MOL0     O90531   5.423  10.101  11.099  0.3427 -0.5151  0.1842
  657MOL0     C90532   5.377  10.180  11.201 -0.1964  0.4660 -0.1798
  657MOL0     C90533   5.244  10.216  11.203 -0.3045  0.3582  0.0165
  657MOL0     C90534   5.200  10.301  11.308  0.4267  0.6721 -0.2709
  657MOL0     C90535   5.284  10.345  11.409 -0.0088  0.2165 -0.5775
  657MOL0     O90536   5.241  10.427  11.510  0.0437  0.3806 -0.0372
  657MOL0     C90537   5.338  10.536  11.556 -0.4501 -0.1654  0.2287
  657MOL0     C90538   5.270  10.643  11.629  0.0722 -0.2781 -0.3053
  657MOL0     C90539   5.146  10.684  11.540  0.3200  0.2256  0.3847
  657MOL0     C90540   5.049  10.783  11.605  0.3190 -1.1684 -0.2435
  657MOL0     C90541   5.103  10.915  11.639 -0.1121 -0.4881 -0.0344
  657MOL0     C90542   5.003  10.984  11.730  0.7926 -0.4479  0.0358
  657MOL0     C90543   4.907  11.071  11.641 -0.3040  0.4705  0.5931
  657MOL0     C90544   4.788  11.124  11.708  0.0017  0.0904 -0.2957
  657MOL0     N90545   4.826  11.219  11.818  0.1383 -0.4399 -0.3766
  657MOL0     C90546   4.814  11.354  11.806 -1.0607 -0.0076 -0.8881
  657MOL0     C90547   4.815  11.396  11.932  1.0257 -0.8494 -0.5335
  657MOL0     C90548   4.790  11.533  11.979 -0.1770 -0.6667  0.2369
  657MOL0     C90549   4.922  11.624  11.971  0.5673  0.0910  0.3762
  657MOL0     C90550   4.909  11.736  12.076 -0.5562  0.1058 -0.1456
  657MOL0     C90551   5.004  11.850  12.075 -1.9647  0.1800  0.5975
  657MOL0     O90552   5.143  11.819  12.062  0.3289  0.1164 -0.4746
  657MOL0     C90553   5.195  11.721  12.135 -0.0954 -0.0544  0.9399
  657MOL0     C90554   5.176  11.699  12.276 -0.2605 -0.0196 -0.0333
  657MOL0     C90555   5.241  11.591  12.335 -0.5496 -0.0067  0.6613
  657MOL0     C90556   5.195  11.574  12.481  0.4156  0.3989  0.2245
  657MOL0     C90557   5.344  11.517  12.266 -0.3005  0.6594 -0.0562
  657MOL0     C90558   5.437  11.409  12.326 -0.5991 -0.1796  0.8485
  657MOL0     O90559   5.539  11.357  12.244  0.2614  0.2235 -0.5095
  657MOL0     C90560   5.623  11.256  12.298 -0.1496 -0.3773  0.2863
  657MOL0     C90561   5.752  11.285  12.319  0.4418 -0.2706  0.0969
  657MOL0     C90562   5.840  11.190  12.370 -0.9278 -0.6672 -0.2673
  657MOL0     C90563   5.802  11.064  12.394 -0.2245 -0.1245 -0.0834
  657MOL0     O90564   5.895  10.986  12.459 -0.0288  0.8568 -0.2161
  657MOL0     C90565   5.976  10.902  12.369  1.0097 -0.0805  0.4161
  657MOL0     C90566   6.104  10.859  12.438 -0.5034 -0.0112 -0.6684
  657MOL0     C90567   6.198  10.982  12.451  0.2293 -0.0978  0.8268
  657MOL0     C90568   6.346  10.951  12.506 -0.4780  0.1331  0.0910
  657MOL0     C90569   6.344  10.900  12.648  0.0471  0.9979  0.3305
  657MOL0     C90570   6.483  10.874  12.705 -0.3182 -0.4549 -0.9881
  657MOL0     C90571   6.474  10.837  12.855 -0.4318  0.9200  1.2566
  657MOL0     C90572   6.618  10.801  12.909 -0.4689 -0.2274  1.3555
  657MOL0    Cl90573   6.617  10.758  13.082  0.2826 -0.2285 -0.3118
  657MOL0     C90574   5.667  11.030  12.360 -1.2161  0.3967  0.7841
  657MOL0     C90575   5.584  11.127  12.309  0.1229 -0.2864 -0.6268
  657MOL0     O90576   5.421  11.367  12.440  0.3424  0.2169 -0.2985
  657MOL0     C90577   5.365  11.551  12.127 -1.3511 -0.5724  0.1374
  657MOL0     C90578   5.290  11.645  12.069  0.4059 -0.3470  1.2641
  657MOL0     N90579   4.852  11.287  12.009 -0.5651  0.3244  0.3513
  657MOL0     N90580   4.860  11.179  11.936 -0.6203  0.3246  0.1318
  657MOL0     C90581   5.413  10.293  11.403 -0.9618  0.7384  0.8322
  657MOL0     C90582   5.457  10.211  11.303 -0.2724 -1.0976  0.1731
  657MOL0     C90583   5.561  10.088  10.897 -0.4955  0.5006  0.2752
  657MOL0     C90584   5.571  10.135  10.761 -0.4278  0.2502 -0.1760
  657MOL0     C90585   5.642  10.062  10.665 -0.4865 -0.3662  0.3409
  657MOL0     C90586   5.721   9.947  10.706  0.7424 -0.2309  0.4789
  657MOL0     O90587   5.783   9.868  10.611 -0.7728 -0.6947 -1.1264
  657MOL0     C90588   5.812   9.729  10.625  0.2739  0.0048 -0.6190
  657MOL0     C90589   5.868   9.664  10.498  0.3187 -0.1109  0.5860
  657MOL0     C90590   6.005   9.727  10.444  0.7059 -0.9356 -1.1319
  657MOL0     C90591   6.066   9.638  10.330 -0.2094 -0.0641  0.8481
  657MOL0     C90592   5.984   9.651  10.212  0.2525  0.4669  0.9889
  657MOL0     C90593   5.924   9.660  10.105  0.6432  0.0603  0.3957
  657MOL0     C90594   5.726   9.917  10.841  0.8543  0.2281  0.1157
  657MOL0     C90595   5.634   9.972  10.934 -0.1960  0.5926  0.8756
  657MOL0     C90596   5.634   9.912  11.069  0.1578 -0.2102  0.3377
  657MOL0     H90597   5.170  10.181  11.132  0.1796 -1.0851  0.1847
  657MOL0     H90598   5.095  10.330  11.303 -0.7132 -2.2374  2.6781
  657MOL0     H90599   5.381  10.582  11.467 -1.2021  0.3681  0.1226
  657MOL0     H90600   5.417  10.493  11.618 -0.4637  1.7073  1.6308
  657MOL0     H90601   5.242  10.609  11.729  1.2953  1.4595  0.6868
  657MOL0     H90602   5.337  10.729  11.637 -1.8715  1.2568  0.5478
  657MOL0     H90603   5.203  10.721  11.454  0.5015  1.7146  1.1003
  657MOL0     H90604   5.086  10.597  11.510  1.6961 -0.4396 -0.5288
  657MOL0     H90605   4.966  10.804  11.537 -1.3827  1.2697  2.4009
  657MOL0     H90606   5.003  10.745  11.696  3.1629 -0.7482  1.5021
  657MOL0     H90607   5.136  10.977  11.555  3.0606  1.1508  2.1780
  657MOL0     H90608   5.186  10.893  11.706 -1.3459  1.2265  2.1889
  657MOL0     H90609   4.937  10.921  11.791  1.3838 -1.5063 -0.3830
  657MOL0     H90610   5.051  11.059  11.793 -0.3310 -0.6191  1.1480
  657MOL0     H90611   4.876  11.007  11.557 -1.3997  0.8224  0.7017
  657MOL0     H90612   4.954  11.158  11.596 -3.6463  2.2104  0.0884
  657MOL0     H90613   4.721  11.174  11.636 -4.0363 -1.3699  2.0963
  657MOL0     H90614   4.729  11.040  11.745 -0.1096  0.6883  0.9158
  657MOL0     H90615   4.799  11.406  11.712  0.4181 -0.3840 -1.3652
  657MOL0     H90616   4.756  11.541  12.083  1.2138  3.7708  0.5339
  657MOL0     H90617   4.720  11.591  11.918  2.4080  0.8325 -1.4927
  657MOL0     H90618   5.017  11.572  11.987 -0.6840 -1.7281  2.6789
  657MOL0     H90619   4.930  11.667  11.871  1.8274 -1.7305 -0.3527
  657MOL0     H90620   4.809  11.777  12.061 -0.1769  0.7671 -0.9507
  657MOL0     H90621   4.906  11.693  12.176  2.0870  3.6450  1.6663
  657MOL0     H90622   4.986  11.924  11.996  2.0276  1.7853  0.9785
  657MOL0     H90623   4.991  11.907  12.168 -3.6525 -0.1818  0.6253
  657MOL0     H90624   5.108  11.764  12.329 -1.1097 -2.6981  2.4199
  657MOL0     H90625   5.121  11.646  12.517 -0.9269 -1.8371  2.2716
  657MOL0     H90626   5.277  11.590  12.552 -2.0695  2.4581  2.8661
  657MOL0     H90627   5.147  11.476  12.494 -0.0094  0.1682 -2.5590
  657MOL0     H90628   5.795  11.381  12.293  1.2969 -0.7865 -0.4335
  657MOL0     H90629   5.945  11.219  12.374 -0.1187 -3.3372 -0.1185
  657MOL0     H90630   5.923  10.811  12.338 -1.2932  0.9106  1.2235
  657MOL0     H90631   5.999  10.952  12.275 -2.3305  1.5842  0.3441
  657MOL0     H90632   6.083  10.820  12.538 -2.5859  0.6612 -0.7993
  657MOL0     H90633   6.158  10.780  12.385 -0.9984 -0.0956 -1.0586
  657MOL0     H90634   6.152  11.054  12.519 -1.2993 -0.2217 -0.0264
  657MOL0     H90635   6.208  11.035  12.356 -0.3332 -0.1847  0.7144
  657MOL0     H90636   6.406  11.042  12.498 -2.2563  1.3450 -0.2475
  657MOL0     H90637   6.397  10.877  12.444  0.3746  0.7694  0.0118
  657MOL0     H90638   6.287  10.966  12.714  0.5666  2.0269 -0.2219
  657MOL0     H90639   6.287  10.807  12.648  1.8688 -0.2746 -2.5161
  657MOL0     H90640   6.549  10.961  12.697  0.4800 -0.8281  0.9933
  657MOL0     H90641   6.535  10.794  12.651  3.3524  2.6157 -2.4509
  657MOL0     H90642   6.410  10.753  12.882 -2.3179  1.3421 -1.5731
  657MOL0     H90643   6.422  10.915  12.912 -1.6841  1.7204 -0.8817
  657MOL0     H90644   6.686  10.886  12.894  2.6933 -2.3643  2.5948
  657MOL0     H90645   6.665  10.717  12.859  1.5453  1.9529 -0.6533
  657MOL0     H90646   5.630  10.931  12.383  0.1843 -0.4615 -0.5033
  657MOL0     H90647   5.482  11.104  12.278 -0.9930  0.3448  2.1980
  657MOL0     H90648   5.441  11.501  12.067  1.9881 -0.7718  4.0644
  657MOL0     H90649   5.303  11.677  11.966  3.3569 -0.5436  1.5064
  657MOL0     H90650   5.476  10.312  11.489  1.5350 -2.2545 -0.1389
  657MOL0     H90651   5.556  10.172  11.326 -0.1962 -0.6765  0.5870
  657MOL0     H90652   5.509  10.216  10.725 -1.7028 -1.3270 -1.7232
  657MOL0     H90653   5.637  10.094  10.562  0.8131 -2.2105 -0.3384
  657MOL0     H90654   5.877   9.715  10.712  0.5795  3.1614 -0.2021
  657MOL0     H90655   5.722   9.675  10.655  0.3364 -0.7457 -1.7431
  657MOL0     H90656   5.795   9.674  10.417 -0.6897 -2.3290  1.1354
  657MOL0     H90657   5.892   9.557  10.502  0.6752 -0.0914 -0.5273
  657MOL0     H90658   5.981   9.824  10.401 -0.2932 -0.4493  0.4292
  657MOL0     H90659   6.084   9.743  10.518  0.4878  0.5931 -1.2027
  657MOL0     H90660   6.077   9.533  10.358  1.3924  0.1630  1.1731
  657MOL0     H90661   6.166   9.681  10.316 -0.6916  0.5339 -1.0680
  657MOL0     H90662   5.878   9.689  10.012  1.1776  2.2120  0.7499
  657MOL0     H90663   5.779   9.831  10.879 -0.5997 -1.3231 -1.1985
  657MOL0     H90664   5.549   9.844  11.072 -2.8905  3.2440 -0.7319
  657MOL0     H90665   5.721   9.846  11.082 -1.6774 -2.8920 -0.1051
  657MOL0     H90666   5.626   9.988  11.148  4.3053 -0.8587  1.6584
  658MOL0     O90667   3.485   9.807   9.769  0.1387  0.4189 -1.2584
  658MOL0     C90668   3.511   9.906   9.834  0.5460 -0.4338 -0.7550
  658MOL0     O90669   3.629   9.948   9.888  0.5298  0.1172 -0.7213
  658MOL0     C90670   3.740   9.864   9.879  0.2567 -0.0468 -0.2292
  658MOL0     C90671   3.794   9.817   9.767  0.5622  0.0405  0.1112
  658MOL0     C90672   3.910   9.743   9.763  1.3360 -0.8850  0.0778
  658MOL0     C90673   3.990   9.722   9.872  0.2492  0.3766 -0.0878
  658MOL0     O90674   4.107   9.642   9.883 -0.3316 -0.6513 -0.7044
  658MOL0     C90675   4.187   9.634   9.772 -0.6298 -0.6188 -0.1295
  658MOL0     C90676   4.286   9.514   9.785  0.1975 -0.7230 -0.4119
  658MOL0     C90677   4.383   9.551   9.897 -0.5195  0.1710  1.0641
  658MOL0     C90678   4.494   9.644   9.854  0.6281  0.7612  0.2491
  658MOL0     C90679   4.574   9.674   9.981 -0.4957  0.4150  0.0220
  658MOL0     C90680   4.644   9.811   9.976 -0.5703 -0.6690  0.3508
  658MOL0     C90681   4.694   9.845  10.121  0.3284  0.2082 -0.4952
  658MOL0     C90682   4.762   9.728  10.200 -0.5312  0.0877 -0.2741
  658MOL0     N90683   4.820   9.756  10.329 -0.5045 -0.0557 -0.7712
  658MOL0     C90684   4.891   9.868  10.360  0.3188  0.5331  0.4770
  658MOL0     C90685   4.945   9.845  10.481  0.0682 -0.2851 -0.7809
  658MOL0     C90686   5.032   9.921  10.571  0.4370 -0.2046  0.4778
  658MOL0     C90687   5.148   9.833  10.618  0.2781  0.1431  0.6306
  658MOL0     C90688   5.248   9.818  10.515 -0.1823  0.6313 -0.2478
  658MOL0     C90689   5.342   9.707  10.555 -0.2013 -0.5594  0.2645
  658MOL0     O90690   5.434   9.688  10.450  0.2405  0.1148 -0.0523
  658MOL0     C90691   5.513   9.582  10.465  0.3286  0.8526 -0.0123
  658MOL0     C90692   5.582   9.533  10.353  0.0883 -0.0105 -0.1671
  658MOL0     C90693   5.676   9.428  10.366 -0.7946  0.6482 -0.4698
  658MOL0     C90694   5.751   9.394  10.239 -0.2786  0.7923  0.2332
  658MOL0     C90695   5.689   9.368  10.490  0.1558  0.9523 -0.5012
  658MOL0     C90696   5.788   9.262  10.514 -0.2043  0.3187 -0.5036
  658MOL0     O90697   5.909   9.251  10.450 -0.6216  0.3782 -0.9159
  658MOL0     C90698   5.991   9.144  10.475  0.3713 -0.1314 -0.0902
  658MOL0     C90699   6.111   9.159  10.546 -0.7356 -1.1289 -0.4116
  658MOL0     C90700   6.193   9.051  10.578  0.7627  0.3127  0.1945
  658MOL0     C90701   6.151   8.924  10.545  0.4700  0.4742 -0.7623
  658MOL0     O90702   6.221   8.807  10.581  0.1808  0.0908  0.3003
  658MOL0     C90703   6.358   8.828  10.611  0.3523  0.5615 -0.1154
  658MOL0     C90704   6.429   8.697  10.620  0.0206 -0.2911  1.1446
  658MOL0     C90705   6.419   8.605  10.495 -0.1613  0.3948 -0.4919
  658MOL0     C90706   6.274   8.548  10.455 -0.0328 -0.5247 -0.0374
  658MOL0     C90707   6.279   8.420  10.368 -0.1844 -0.6195 -0.1883
  658MOL0     C90708   6.317   8.452  10.224  0.3427  0.0810  0.3378
  658MOL0     C90709   6.290   8.327  10.130 -0.4510  0.0880 -0.8745
  658MOL0     C90710   6.391   8.336  10.012  0.5078  0.4884 -0.3353
  658MOL0    Cl90711   6.561   8.310  10.070  0.0559 -0.3869 -0.6486
  658MOL0     C90712   6.035   8.906  10.476  0.0403 -0.2802 -0.9454
  658MOL0     C90713   5.954   9.020  10.446 -0.2303  0.7114 -0.2513
  658MOL0     O90714   5.748   9.186  10.603 -0.0881  0.9387 -0.5467
  658MOL0     C90715   5.604   9.405  10.601  1.3581 -0.6400  0.8150
  658MOL0     C90716   5.526   9.515  10.588  0.0334  0.2950  0.0676
  658MOL0     N90717   4.897   9.720  10.527  0.1563  0.1091 -0.3964
  658MOL0     N90718   4.822   9.671  10.435  0.1958 -0.3913 -0.5569
  658MOL0     C90719   3.935   9.774   9.992  0.4147 -0.3980  0.0032
  658MOL0     C90720   3.812   9.831   9.994  0.9850 -1.5094 -0.5384
  658MOL0     C90721   3.389   9.997   9.867  0.2410  0.7638 -0.0699
  658MOL0     C90722   3.406  10.101   9.962 -1.1429 -0.5303 -0.4360
  658MOL0     C90723   3.304  10.194   9.976 -0.5105  0.3024 -0.4669
  658MOL0     C90724   3.180  10.180   9.919  0.0948  0.2082  0.3090
  658MOL0     O90725   3.077  10.272   9.946  0.2629 -0.1807  0.9628
  658MOL0     C90726   2.943  10.229   9.938  0.4672  0.0010 -0.0088
  658MOL0     C90727   2.843  10.313  10.028  0.6456  0.1031  0.2067
  658MOL0     C90728   2.922  10.428  10.119  0.4375  0.9904  0.6163
  658MOL0     C90729   2.990  10.370  10.248  0.2259  0.2471  0.1540
  658MOL0     C90730   2.912  10.316  10.354 -0.0854 -0.4429  0.7369
  658MOL0     C90731   2.842  10.287  10.447 -0.2713  0.0426  0.1439
  658MOL0     C90732   3.159  10.067   9.837 -0.3845  0.6202 -1.6626
  658MOL0     C90733   3.254   9.980   9.807 -1.0534  0.6981 -0.0282
  658MOL0     C90734   3.211   9.863   9.714  0.7214  0.1330 -0.1230
  658MOL0     H90735   3.762   9.847   9.668  2.4679  2.0077  0.0330
  658MOL0     H90736   3.938   9.721   9.661  1.3939  2.6142 -0.8097
  658MOL0     H90737   4.236   9.731   9.756 -0.0738 -1.0425 -1.1002
  658MOL0     H90738   4.134   9.605   9.681 -0.3088 -0.8814 -0.2371
  658MOL0     H90739   4.242   9.415   9.804  1.1428 -0.7141  2.2571
  658MOL0     H90740   4.358   9.513   9.702  2.5126  4.6512  1.1052
  658MOL0     H90741   4.338   9.589   9.989  1.8798 -1.1449  2.9166
  658MOL0     H90742   4.433   9.462   9.937 -1.2108 -0.0542  1.4409
  658MOL0     H90743   4.555   9.589   9.781  1.2231 -2.3629  2.8395
  658MOL0     H90744   4.450   9.728   9.800 -0.4849  1.2642  1.8754
  658MOL0     H90745   4.639   9.589  10.003  0.0521  0.9099  0.3485
  658MOL0     H90746   4.511   9.680  10.071  0.6543  1.8888  0.7859
  658MOL0     H90747   4.735   9.795   9.917 -0.2108 -1.1988  1.0314
  658MOL0     H90748   4.587   9.897   9.940  0.4585  0.9049  2.2577
  658MOL0     H90749   4.608   9.874  10.182  1.3183 -3.3849  3.0413
  658MOL0     H90750   4.766   9.926  10.110  1.0805 -0.0087  2.1899
  658MOL0     H90751   4.700   9.638  10.211 -1.3427  0.7618  0.8253
  658MOL0     H90752   4.851   9.702  10.141 -1.5293  0.6618 -2.1106
  658MOL0     H90753   4.880   9.954  10.295 -3.9423  0.7897  1.2133
  658MOL0     H90754   4.974   9.957  10.656  1.0771 -0.2709  0.9481
  658MOL0     H90755   5.077  10.010  10.527 -1.2406  1.2365  1.5216
  658MOL0     H90756   5.187   9.872  10.712 -0.6054  0.3841  0.9129
  658MOL0     H90757   5.126   9.727  10.637  2.4180 -0.6426 -0.8431
  658MOL0     H90758   5.200   9.781  10.424  0.1518 -0.1058 -0.1330
  658MOL0     H90759   5.300   9.912  10.497 -1.0659  1.4596  1.3331
  658MOL0     H90760   5.394   9.746  10.643 -3.6877  1.4516  1.6433
  658MOL0     H90761   5.299   9.607  10.567  4.1476 -2.7163  0.0084
  658MOL0     H90762   5.554   9.580  10.259  1.9458  0.7173 -0.3880
  658MOL0     H90763   5.858   9.414  10.251 -0.6018  1.1126  3.5573
  658MOL0     H90764   5.714   9.452  10.154 -0.0899  0.5065 -0.0466
  658MOL0     H90765   5.729   9.290  10.212 -1.0559  0.6162  1.4395
  658MOL0     H90766   6.120   9.263  10.575 -4.9702 -0.1044 -2.0043
  658MOL0     H90767   6.280   9.067  10.642 -0.2541 -0.0060  1.7187
  658MOL0     H90768   6.389   8.893  10.529 -0.7440 -0.7062 -1.5818
  658MOL0     H90769   6.361   8.881  10.707  0.8430 -0.5847  0.5178
  658MOL0     H90770   6.536   8.722  10.619 -0.6095  2.7730  0.0891
  658MOL0     H90771   6.396   8.652  10.714  0.8535 -0.7460  1.2327
  658MOL0     H90772   6.472   8.515  10.528 -2.7398 -0.1007  2.9197
  658MOL0     H90773   6.465   8.655  10.410  0.0025  1.3066  0.1162
  658MOL0     H90774   6.226   8.628  10.398  4.4648  1.0236 -2.1284
  658MOL0     H90775   6.216   8.526  10.545 -1.0560  0.6713 -0.3692
  658MOL0     H90776   6.340   8.344  10.417 -1.8727 -1.8803  0.0867
  658MOL0     H90777   6.177   8.379  10.367 -0.9359  1.0745 -2.3745
  658MOL0     H90778   6.424   8.468  10.214  0.2128  0.3014 -0.9392
  658MOL0     H90779   6.266   8.539  10.182  0.2155 -0.0949  0.1254
  658MOL0     H90780   6.187   8.337  10.094 -0.5109  1.3387 -0.4058
  658MOL0     H90781   6.304   8.236  10.189 -0.0461  1.4235  1.1877
  658MOL0     H90782   6.387   8.432   9.960  3.3208 -0.8958 -3.5045
  658MOL0     H90783   6.373   8.254   9.941  0.4407 -0.7412  1.0672
  658MOL0     H90784   6.010   8.802  10.454 -0.8922 -0.5276  1.0921
  658MOL0     H90785   5.861   9.004  10.393 -0.5824 -3.1398  1.1772
  658MOL0     H90786   5.624   9.360  10.698 -2.0332 -0.3866  1.7494
  658MOL0     H90787   5.497   9.560  10.682  1.6530 -0.3906  0.9336
  658MOL0     H90788   3.995   9.769  10.083 -2.4538 -2.4084  1.9465
  658MOL0     H90789   3.775   9.869  10.089  1.4125 -1.0391 -0.5615
  658MOL0     H90790   3.493  10.125  10.022 -3.1873 -0.1215  2.6492
  658MOL0     H90791   3.316  10.292  10.021 -3.6338  2.3076 -3.5152
  658MOL0     H90792   2.914  10.238   9.833  2.7038 -1.9791 -0.8835
  658MOL0     H90793   2.933  10.124   9.969  0.4224 -0.1757 -0.6053
  658MOL0     H90794   2.799  10.240  10.097 -0.9614  0.4814 -0.3891
  658MOL0     H90795   2.767  10.357   9.964 -0.3578 -3.0590 -0.9552
  658MOL0     H90796   3.002  10.465  10.055  2.4888 -2.1840  1.1549
  658MOL0     H90797   2.855  10.509  10.150  0.3690  1.7669 -1.4407
  658MOL0     H90798   3.037  10.451  10.305 -0.7406  0.5047  0.6012
  658MOL0     H90799   3.057  10.289  10.219 -2.0242 -2.5331  2.1669
  658MOL0     H90800   2.773  10.257  10.522 -0.9387 -3.2474 -1.6099
  658MOL0     H90801   3.066  10.056   9.782 -0.8904  1.0735 -0.9113
  658MOL0     H90802   3.121   9.873   9.653  1.1083 -3.0793 -1.4252
  658MOL0     H90803   3.284   9.845   9.634 -0.0045  0.7347 -0.9501
  658MOL0     H90804   3.194   9.768   9.766 -2.0631  1.0304  0.7795
  659MOL0     O90805   1.424   9.877   9.799  0.2028  0.0603  0.6642
  659MOL0     C90806   1.337   9.961   9.824  0.3393  0.3506  0.2179
  659MOL0     O90807   1.365  10.083   9.874  0.8981 -0.6074  0.2083
  659MOL0     C90808   1.490  10.098   9.921  0.2503  0.0199  1.3770
  659MOL0     C90809   1.494  10.119  10.062  0.3882  0.1796 -0.0013
  659MOL0     C90810   1.622  10.124  10.126 -0.9161 -0.3149 -0.1373
  659MOL0     C90811   1.739  10.123  10.047  0.0157  0.1225 -0.3287
  659MOL0     O90812   1.869  10.125  10.094 -0.1680  0.5407 -0.0085
  659MOL0     C90813   1.890  10.102  10.234  0.4547  0.5654  0.0770
  659MOL0     C90814   1.980  10.210  10.297  0.2647 -0.6703 -0.1172
  659MOL0     C90815   2.031  10.171  10.437 -0.4891 -0.4906  0.4490
  659MOL0     C90816   1.939  10.207  10.547 -0.0279 -0.3507 -0.2291
  659MOL0     C90817   1.951  10.091  10.653  0.3936 -0.9172 -0.0438
  659MOL0     C90818   1.861  10.122  10.772 -0.5105 -0.6436  0.0823
  659MOL0     C90819   1.929  10.186  10.896 -0.1963  0.0918 -0.0250
  659MOL0     C90820   1.831  10.191  11.015  0.1186 -0.0715  0.0407
  659MOL0     N90821   1.783  10.059  11.065 -0.1855  0.0988 -0.0488
  659MOL0     C90822   1.855   9.974  11.133 -0.0668 -0.0716  0.0761
  659MOL0     C90823   1.779   9.867  11.160  0.3851  0.2196 -0.2947
  659MOL0     C90824   1.818   9.747  11.241  0.6413 -0.2843 -0.1361
  659MOL0     C90825   1.805   9.781  11.383 -0.0686  0.0295  0.2754
  659MOL0     C90826   1.803   9.653  11.474  0.1763  0.4598 -0.2716
  659MOL0     C90827   1.938   9.582  11.485 -0.1197 -0.1352  0.9684
  659MOL0     O90828   1.952   9.484  11.590 -0.1464 -0.0108  0.6216
  659MOL0     C90829   2.079   9.488  11.638 -0.1499  0.8796 -0.8539
  659MOL0     C90830   2.101   9.563  11.755 -0.4822 -0.3635  0.3506
  659MOL0     C90831   2.222   9.559  11.827  0.1895 -1.0715  0.2547
  659MOL0     C90832   2.224   9.646  11.945 -0.1828 -1.2510 -0.5568
  659MOL0     C90833   2.331   9.493  11.775 -0.1744  0.1200  0.2784
  659MOL0     C90834   2.473   9.501  11.826  0.7363  0.7193 -0.5912
  659MOL0     O90835   2.563   9.409  11.771 -0.8486 -0.3702  0.4847
  659MOL0     C90836   2.688   9.423  11.823  0.6951  0.3103  0.3199
  659MOL0     C90837   2.722   9.351  11.930 -0.4648 -0.5349 -0.5895
  659MOL0     C90838   2.854   9.350  11.981 -0.1054 -0.4497 -0.6435
  659MOL0     C90839   2.947   9.429  11.927  0.1887  0.6333 -0.0241
  659MOL0     O90840   3.071   9.415  11.978 -0.6492 -0.0714 -0.3087
  659MOL0     C90841   3.161   9.529  11.989 -0.4410  0.5294 -0.3318
  659MOL0     C90842   3.296   9.461  11.974  0.8858 -0.0271 -0.0902
  659MOL0     C90843   3.413   9.553  11.988  0.4475 -0.2163 -0.6974
  659MOL0     C90844   3.418   9.622  12.128  0.1166 -0.2255  0.7147
  659MOL0     C90845   3.553   9.643  12.201 -0.6398 -0.1992  0.4450
  659MOL0     C90846   3.644   9.743  12.131  0.0699  0.2857  0.4559
  659MOL0     C90847   3.592   9.880  12.106  0.5944  0.1100  0.0443
  659MOL0     C90848   3.709   9.968  12.064 -0.2645 -0.1778  0.3243
  659MOL0    Cl90849   3.808  10.047  12.194 -0.0821 -0.1274  0.0620
  659MOL0     C90850   2.911   9.512  11.817  0.0051  0.0527  0.4154
  659MOL0     C90851   2.785   9.515  11.769  0.8906 -0.2010 -0.3974
  659MOL0     O90852   2.497   9.585  11.912 -0.5821 -0.3575  0.1125
  659MOL0     C90853   2.314   9.414  11.658  0.3123  0.4616 -0.3958
  659MOL0     C90854   2.184   9.403  11.591  1.2468  0.2321 -0.2506
  659MOL0     N90855   1.658   9.887  11.100  0.6238 -0.4786  0.5705
  659MOL0     N90856   1.659  10.006  11.044 -0.4535 -0.2152 -0.2783
  659MOL0     C90857   1.727  10.099   9.913 -0.5329  0.2781 -0.6352
  659MOL0     C90858   1.609  10.091   9.848 -0.1421  0.2182  0.2024
  659MOL0     C90859   1.198   9.931   9.790 -0.4292  1.3977 -0.2718
  659MOL0     C90860   1.123  10.018   9.715 -0.5477  0.1529  0.2852
  659MOL0     C90861   0.999   9.976   9.677  1.2346 -0.4838 -0.3721
  659MOL0     C90862   0.930   9.867   9.724  0.0555 -0.2326 -0.1565
  659MOL0     O90863   0.802   9.832   9.685  0.0133  0.0367  0.5345
  659MOL0     C90864   0.709   9.941   9.661  0.6835 -0.5960  0.8535
  659MOL0     C90865   0.569   9.884   9.624  0.0356  1.1229 -0.6654
  659MOL0     C90866   0.495   9.812   9.743 -0.8657 -0.3613  0.0171
  659MOL0     C90867   0.432   9.680   9.711  0.4562 -0.4061  0.7933
  659MOL0     C90868   0.342   9.652   9.828  0.5337 -0.2017  0.1871
  659MOL0     C90869   0.255   9.622   9.899  0.0623 -0.6275 -0.9553
  659MOL0     C90870   0.995   9.784   9.813 -0.1489  0.3135 -0.6019
  659MOL0     C90871   1.137   9.808   9.839  0.0474 -1.0626  0.0797
  659MOL0     C90872   1.220   9.709   9.924  0.4024 -0.2893 -0.2103
  659MOL0     H90873   1.394  10.127  10.104 -0.1414 -0.1953 -1.1478
  659MOL0     H90874   1.614  10.130  10.234 -1.5111 -2.4606 -0.0267
  659MOL0     H90875   1.932  10.001  10.234  1.3816  0.9019  2.1509
  659MOL0     H90876   1.805  10.100  10.303  1.3058  2.6070  1.2946
  659MOL0     H90877   2.071  10.225  10.239  0.2938  0.6507  0.2250
  659MOL0     H90878   1.924  10.304  10.288 -1.3637 -1.8349 -4.1541
  659MOL0     H90879   2.055  10.064  10.440 -3.2555 -1.2362 -0.6835
  659MOL0     H90880   2.123  10.228  10.452 -0.5060 -0.1565 -0.6094
  659MOL0     H90881   1.964  10.309  10.578 -2.1946 -0.0171  0.5504
  659MOL0     H90882   1.835  10.198  10.515 -1.2099  0.9472  2.9032
  659MOL0     H90883   2.056  10.069  10.677  2.0386  2.4516 -3.1574
  659MOL0     H90884   1.911   9.998  10.612 -2.2909 -0.4387  1.2839
  659MOL0     H90885   1.775  10.183  10.747  0.1127 -0.8740 -3.0129
  659MOL0     H90886   1.815  10.026  10.799 -2.0477 -0.8205 -2.7578
  659MOL0     H90887   1.957  10.286  10.863  0.7147 -1.0942 -3.2499
  659MOL0     H90888   2.019  10.129  10.923  1.5624  2.5808 -0.2920
  659MOL0     H90889   1.868  10.254  11.096  1.8293  0.4614 -1.1113
  659MOL0     H90890   1.746  10.241  10.970  0.6235  0.7479 -0.0144
  659MOL0     H90891   1.958   9.994  11.158 -0.8086  0.4963  3.1133
  659MOL0     H90892   1.906   9.706  11.191 -1.4161 -1.8662 -2.7165
  659MOL0     H90893   1.746   9.668  11.217  2.0328 -1.6383  0.0094
  659MOL0     H90894   1.888   9.845  11.412 -0.6896  0.2284  1.6779
  659MOL0     H90895   1.716   9.842  11.399 -2.2205 -2.5117 -1.0276
  659MOL0     H90896   1.777   9.685  11.575  0.9088  0.7694 -0.1714
  659MOL0     H90897   1.730   9.582  11.434 -1.3168  0.0385  2.8767
  659MOL0     H90898   1.969   9.548  11.386 -1.0269 -0.3929  0.7665
  659MOL0     H90899   2.003   9.667  11.506 -2.9270  2.1056  1.1236
  659MOL0     H90900   2.028   9.640  11.780  0.8619  0.5898  1.4763
  659MOL0     H90901   2.291   9.622  12.028 -2.4560 -1.6749  1.2606
  659MOL0     H90902   2.122   9.649  11.987 -0.7780 -0.5097 -1.9844
  659MOL0     H90903   2.264   9.741  11.907  2.4576 -0.8265  2.8396
  659MOL0     H90904   2.649   9.302  11.994  1.1699 -1.5089  0.6131
  659MOL0     H90905   2.882   9.301  12.074 -1.3057 -0.3587 -0.2169
  659MOL0     H90906   3.128   9.595  11.909 -1.8175 -0.4878 -0.6195
  659MOL0     H90907   3.155   9.577  12.088  1.8722  1.4552 -0.5590
  659MOL0     H90908   3.300   9.399  12.064 -1.1683 -1.8991 -1.2189
  659MOL0     H90909   3.295   9.404  11.881  0.0248  2.1370 -1.4875
  659MOL0     H90910   3.421   9.629  11.910 -3.0345  0.4918 -0.5580
  659MOL0     H90911   3.505   9.494  11.985  0.6731  0.1074 -0.2718
  659MOL0     H90912   3.351   9.562  12.190 -2.6776  1.3751 -0.5975
  659MOL0     H90913   3.362   9.715  12.121 -0.5438 -0.6892 -0.4315
  659MOL0     H90914   3.528   9.670  12.304  0.0884  2.1060  0.0722
  659MOL0     H90915   3.592   9.541  12.207  0.0284 -0.1977 -2.4266
  659MOL0     H90916   3.681   9.697  12.039 -0.3671 -1.2771  1.0240
  659MOL0     H90917   3.726   9.760  12.201 -2.3030  3.4414  2.8280
  659MOL0     H90918   3.547   9.916  12.199  1.6839 -1.7688  1.3815
  659MOL0     H90919   3.522   9.880  12.022  1.3731 -1.6346 -0.6685
  659MOL0     H90920   3.668  10.055  12.013 -1.0097  0.6466  2.2113
  659MOL0     H90921   3.782   9.911  12.006  0.7027 -1.0672  2.3112
  659MOL0     H90922   2.982   9.578  11.769  1.8243 -2.1987 -0.2135
  659MOL0     H90923   2.750   9.576  11.687  0.5448 -1.2044 -1.0102
  659MOL0     H90924   2.395   9.354  11.619 -0.6557 -0.8735 -0.4497
  659MOL0     H90925   2.171   9.337  11.506 -0.9514  2.3824 -1.6909
  659MOL0     H90926   1.824  10.085   9.866 -0.1509 -1.7158  0.6425
  659MOL0     H90927   1.617  10.062   9.743  0.0506  1.4428 -0.1328
  659MOL0     H90928   1.173  10.104   9.670  1.6219 -0.7656  0.8071
  659MOL0     H90929   0.933  10.030   9.611  0.3481  0.5734  1.2993
  659MOL0     H90930   0.708  10.024   9.733  0.5268  3.4745 -3.3137
  659MOL0     H90931   0.729   9.995   9.567 -4.9735  1.1468  0.2948
  659MOL0     H90932   0.586   9.805   9.550  1.7021 -1.6986  2.4385
  659MOL0     H90933   0.511   9.972   9.597  2.2829  2.3811 -1.6540
  659MOL0     H90934   0.555   9.805   9.835 -1.8104 -1.8755  0.5546
  659MOL0     H90935   0.419   9.881   9.780 -1.1041 -0.9223  0.6033
  659MOL0     H90936   0.506   9.602   9.694 -0.3276 -1.1665  0.8155
  659MOL0     H90937   0.371   9.689   9.620 -1.7831  3.9815  2.4537
  659MOL0     H90938   0.204   9.587   9.987  1.6441 -0.5707  0.0155
  659MOL0     H90939   0.948   9.699   9.860  1.1778 -2.3434 -3.7416
  659MOL0     H90940   1.286   9.663   9.849 -0.2214 -1.2333 -0.1992
  659MOL0     H90941   1.279   9.745  10.009  0.2916  0.8911 -0.6239
  659MOL0     H90942   1.159   9.636   9.978  2.0951 -1.7580 -0.1784
  660MOL0     O90943   7.619   8.159  10.474  0.3119 -0.4049 -0.4337
  660MOL0     C90944   7.744   8.166  10.487 -0.5549 -0.7762  0.9505
  660MOL0     O90945   7.826   8.271  10.442  0.0834  0.8548  0.3532
  660MOL0     C90946   7.760   8.377  10.385 -0.5752 -1.0087 -0.2773
  660MOL0     C90947   7.704   8.369  10.258 -0.2234  0.0968  0.4425
  660MOL0     C90948   7.644   8.481  10.196 -1.2258 -0.2689  0.3278
  660MOL0     C90949   7.648   8.601  10.257  0.2415 -0.2300 -1.0650
  660MOL0     O90950   7.595   8.710  10.196  0.1791  0.6540 -0.5471
  660MOL0     C90951   7.685   8.769  10.106 -0.1035 -0.6810  0.5001
  660MOL0     C90952   7.610   8.819   9.984 -0.6330  0.3905  0.2460
  660MOL0     C90953   7.556   8.694   9.904 -0.3024  0.8718 -0.2709
  660MOL0     C90954   7.522   8.724   9.753 -0.3553 -0.4490 -0.5741
  660MOL0     C90955   7.393   8.660   9.697  0.4002 -0.0487  0.5830
  660MOL0     C90956   7.264   8.666   9.783 -0.1226 -1.2635  0.5578
  660MOL0     C90957   7.226   8.804   9.835 -0.3655  0.5954 -0.1473
  660MOL0     C90958   7.185   8.909   9.729  0.4253  0.4797 -1.2507
  660MOL0     N90959   7.059   8.876   9.674 -0.1482 -0.2284  1.0767
  660MOL0     C90960   6.967   8.978   9.664  0.3745  0.4815 -0.7695
  660MOL0     C90961   6.878   8.926   9.572  1.0585  0.3359 -0.1998
  660MOL0     C90962   6.744   8.994   9.538  0.1198  0.3476 -0.2784
  660MOL0     C90963   6.726   9.067   9.399  0.2155 -0.2980  1.0267
  660MOL0     C90964   6.801   9.194   9.382 -0.6285 -0.1808  0.6741
  660MOL0     C90965   6.828   9.237   9.231  0.2214  0.1549  0.5691
  660MOL0     O90966   6.837   9.381   9.234  0.2598 -0.1555  0.1776
  660MOL0     C90967   6.752   9.442   9.137  0.5505  0.2415 -0.5802
  660MOL0     C90968   6.761   9.418   9.002  0.5313 -0.1711  0.5647
  660MOL0     C90969   6.666   9.487   8.915  0.7236  0.0155  0.1662
  660MOL0     C90970   6.694   9.481   8.773  0.2281 -0.7093 -0.0348
  660MOL0     C90971   6.565   9.581   8.967 -0.5794  0.6185 -0.5632
  660MOL0     C90972   6.469   9.668   8.893 -0.9271  0.0013 -0.8906
  660MOL0     O90973   6.378   9.739   8.970 -0.3911 -0.4375 -0.9168
  660MOL0     C90974   6.296   9.827   8.900  0.1291  0.3879 -0.2789
  660MOL0     C90975   6.328   9.957   8.907 -1.1049 -0.3865  0.3037
  660MOL0     C90976   6.245  10.055   8.838 -0.0646  0.1232  0.0242
  660MOL0     C90977   6.138  10.017   8.758 -0.4437 -0.3348 -0.2460
  660MOL0     O90978   6.068  10.117   8.696  0.0378 -0.7703 -0.0693
  660MOL0     C90979   6.023  10.097   8.558  0.0036 -0.0965 -0.2859
  660MOL0     C90980   5.929  10.215   8.535 -0.1030  0.3421 -0.0674
  660MOL0     C90981   5.890  10.222   8.390  0.1636 -0.6762  0.9055
  660MOL0     C90982   6.004  10.288   8.312  0.4631  0.4113  0.9408
  660MOL0     C90983   5.981  10.300   8.156 -0.7425  0.0040 -0.5695
  660MOL0     C90984   5.890  10.417   8.121 -0.4528  0.3893  0.5773
  660MOL0     C90985   5.900  10.451   7.964 -0.1361  0.8976 -0.7639
  660MOL0     C90986   5.801  10.564   7.934 -0.2664  0.7169  0.2056
  660MOL0    Cl90987   5.854  10.705   8.031 -0.1363 -0.4515 -0.7564
  660MOL0     C90988   6.109   9.883   8.744 -0.0490 -0.0644  0.5101
  660MOL0     C90989   6.187   9.796   8.812  0.3515 -1.1447  0.1982
  660MOL0     O90990   6.480   9.669   8.770 -0.3246  0.4635 -0.2304
  660MOL0     C90991   6.557   9.581   9.108  0.7497 -0.9489  0.0790
  660MOL0     C90992   6.646   9.516   9.195 -0.1285  0.3812 -0.2138
  660MOL0     N90993   6.920   8.806   9.516 -0.1086 -0.4228 -0.0114
  660MOL0     N90994   7.035   8.777   9.572 -0.9397  1.4698 -0.6964
  660MOL0     C90995   7.701   8.622  10.383 -0.8467  0.7224 -0.3742
  660MOL0     C90996   7.761   8.508  10.446  0.3222  0.1870  0.5490
  660MOL0     C90997   7.805   8.060  10.570  0.2667  0.2287  0.7461
  660MOL0     C90998   7.916   8.099  10.650 -0.0561  0.2514 -0.5308
  660MOL0     C90999   7.974   8.006  10.728 -1.4724  0.1227 -0.7359
  660MOL0     C91000   7.921   7.876  10.736 -0.6159  0.2242 -0.0236
  660MOL0     O91001   7.973   7.789  10.833  0.1930 -1.1413  0.5992
  660MOL0     C91002   7.890   7.785  10.944  0.2674  0.0986 -0.7387
  660MOL0     C91003   7.939   7.675  11.033 -0.2841  0.0879  0.3612
  660MOL0     C91004   7.924   7.534  10.982  0.4972  0.7616  0.0151
  660MOL0     C91005   7.993   7.428  11.072 -0.2121 -0.2941 -0.1675
  660MOL0     C91006   8.128   7.403  11.026 -0.8006 -0.3681  0.7656
  660MOL0     C91007   8.233   7.372  10.968 -0.5117 -0.6356  0.4748
  660MOL0     C91008   7.818   7.836  10.653  0.1043 -0.3068  0.1762
  660MOL0     C91009   7.762   7.924  10.560  0.3802 -0.6311 -0.4568
  660MOL0     C91010   7.658   7.872  10.468  0.8112  0.0371 -0.1217
  660MOL0     H91011   7.711   8.274  10.205 -1.5567  0.5393 -0.5997
  660MOL0     H91012   7.605   8.477  10.095  1.4637  3.3978 -1.0567
  660MOL0     H91013   7.770   8.707  10.075  0.3201 -1.2994  2.6847
  660MOL0     H91014   7.718   8.862  10.154 -3.2721  0.7443  0.1711
  660MOL0     H91015   7.531   8.888  10.012  1.8948  3.3707  0.5104
  660MOL0     H91016   7.677   8.867   9.913 -0.1106 -3.5059 -2.2446
  660MOL0     H91017   7.636   8.620   9.915 -3.4476 -2.8973 -0.7575
  660MOL0     H91018   7.467   8.649   9.948 -0.5104  0.4630 -1.0903
  660MOL0     H91019   7.507   8.832   9.742 -0.3962 -0.2661  1.0528
  660MOL0     H91020   7.609   8.684   9.701  0.2031 -3.6520  2.4457
  660MOL0     H91021   7.415   8.556   9.670 -1.1371 -1.0873  3.0499
  660MOL0     H91022   7.369   8.719   9.608 -0.7872  2.3026  2.3592
  660MOL0     H91023   7.175   8.637   9.727  1.5594  0.8215 -3.7019
  660MOL0     H91024   7.279   8.602   9.870 -1.0346 -2.8182 -0.3903
  660MOL0     H91025   7.311   8.840   9.894  0.8520  0.7187 -1.9027
  660MOL0     H91026   7.137   8.793   9.897  0.0518  3.1879  1.0483
  660MOL0     H91027   7.174   8.998   9.791 -0.2571  0.1859 -0.9356
  660MOL0     H91028   7.259   8.933   9.653  0.5726 -0.3412 -1.3835
  660MOL0     H91029   6.941   9.061   9.729 -1.5154 -1.9975  1.9059
  660MOL0     H91030   6.716   9.059   9.622  1.5593  0.1789  0.3654
  660MOL0     H91031   6.665   8.918   9.537 -0.7967  1.2538  0.6534
  660MOL0     H91032   6.765   8.992   9.329  1.4593  1.2102  0.0231
  660MOL0     H91033   6.622   9.076   9.367  1.0827  0.2778 -1.9483
  660MOL0     H91034   6.738   9.274   9.421 -0.5362  0.5809 -0.6601
  660MOL0     H91035   6.893   9.191   9.441  0.2058  1.6734 -0.4259
  660MOL0     H91036   6.917   9.188   9.192 -2.2188 -1.8714 -3.0746
  660MOL0     H91037   6.753   9.200   9.160 -0.3202  0.1914  1.1159
  660MOL0     H91038   6.838   9.351   8.966  0.1593  0.5106 -1.6986
  660MOL0     H91039   6.604   9.487   8.712  0.0508  1.2415  0.3269
  660MOL0     H91040   6.745   9.392   8.736  0.9036  0.5409 -2.3158
  660MOL0     H91041   6.760   9.561   8.736 -1.3246 -0.1390 -1.6835
  660MOL0     H91042   6.418   9.987   8.961  0.1007  0.0304 -1.8324
  660MOL0     H91043   6.277  10.159   8.845  1.8572 -0.4504  0.4939
  660MOL0     H91044   6.112  10.092   8.494 -1.9789 -1.5311 -3.1733
  660MOL0     H91045   5.970  10.002   8.547  1.8860 -1.0145 -2.0269
  660MOL0     H91046   5.844  10.186   8.598  1.2010  2.4767  2.8957
  660MOL0     H91047   5.963  10.314   8.567 -0.1287  1.1937 -2.5088
  660MOL0     H91048   5.798  10.281   8.386 -0.3218 -1.4883 -1.5583
  660MOL0     H91049   5.876  10.119   8.355  1.2512 -1.6492  3.1564
  660MOL0     H91050   6.098  10.237   8.336  0.3126 -0.3291  0.0058
  660MOL0     H91051   6.015  10.388   8.356  3.0961  0.3188  0.6745
  660MOL0     H91052   6.074  10.330   8.107 -1.0429  0.8975 -0.6196
  660MOL0     H91053   5.940  10.212   8.106 -0.0437 -0.2431 -0.7051
  660MOL0     H91054   5.921  10.514   8.163  0.8589  2.5519 -4.5130
  660MOL0     H91055   5.785  10.396   8.138  0.3201 -5.3736  0.1913
  660MOL0     H91056   5.891  10.357   7.909  0.0822 -0.8003  1.9076
  660MOL0     H91057   6.004  10.480   7.948  0.4302  0.2398  1.3759
  660MOL0     H91058   5.698  10.537   7.959 -0.7242  1.3574 -0.8923
  660MOL0     H91059   5.815  10.599   7.831  3.4864 -3.1459 -0.8964
  660MOL0     H91060   6.037   9.847   8.670 -1.0845  3.4207 -0.3732
  660MOL0     H91061   6.160   9.692   8.798  2.3743 -1.7125  0.1630
  660MOL0     H91062   6.478   9.635   9.159  0.7401 -1.8801  1.0935
  660MOL0     H91063   6.644   9.538   9.301  2.5194 -1.0243  0.2241
  660MOL0     H91064   7.689   8.722  10.425 -2.3356  1.2177 -1.8719
  660MOL0     H91065   7.803   8.499  10.546 -0.0057  1.8772  0.8633
  660MOL0     H91066   7.956   8.199  10.658 -0.3078  0.3207 -0.0393
  660MOL0     H91067   8.041   8.042  10.806 -0.6723 -0.0567 -1.3300
  660MOL0     H91068   7.877   7.881  10.995 -2.0016 -0.1376 -0.7883
  660MOL0     H91069   7.787   7.759  10.916 -1.3568  0.0343  4.3227
  660MOL0     H91070   7.888   7.680  11.130 -2.4280 -0.0571 -0.6903
  660MOL0     H91071   8.046   7.694  11.042 -0.1610  0.3252 -1.2370
  660MOL0     H91072   7.817   7.510  10.976  0.8290 -0.8571  0.1815
  660MOL0     H91073   7.962   7.527  10.880 -1.6445  1.7731 -0.9255
  660MOL0     H91074   7.931   7.338  11.062 -1.5434  0.7944 -2.6072
  660MOL0     H91075   7.983   7.442  11.180 -2.1654 -2.6159  0.0408
  660MOL0     H91076   8.325   7.354  10.915  0.5244  0.6117  1.7611
  660MOL0     H91077   7.799   7.729  10.652  0.9494 -0.4609 -0.4159
  660MOL0     H91078   7.563   7.915  10.501  2.3950  1.8365  2.4289
  660MOL0     H91079   7.668   7.929  10.375 -0.0912  0.9214  0.3110
  660MOL0     H91080   7.638   7.764  10.470  0.0392  0.1903  0.8351
  661MOL0     O91081   2.129   1.133   4.833  0.3606 -0.4063  0.0614
  661MOL0     C91082   2.223   1.076   4.882 -0.9292 -0.5996  0.0712
  661MOL0     O91083   2.302   1.133   4.979 -0.3469 -0.5269  0.3132
  661MOL0     C91084   2.286   1.262   5.017  0.4119  0.1295  0.2755
  661MOL0     C91085   2.266   1.375   4.931  0.0301 -0.7491  0.3598
  661MOL0     C91086   2.226   1.501   4.974 -0.9648  0.0158  0.7041
  661MOL0     C91087   2.225   1.531   5.114  0.3138  0.4499 -0.1257
  661MOL0     O91088   2.214   1.651   5.178  0.3259 -0.6309  0.2348
  661MOL0     C91089   2.092   1.728   5.142 -0.2984 -0.5791  0.6931
  661MOL0     C91090   2.125   1.875   5.104  0.2838  0.1605  0.2669
  661MOL0     C91091   1.999   1.962   5.087 -0.0882  0.6176 -0.8879
  661MOL0     C91092   2.048   2.113   5.110 -0.3161 -0.3393  0.1667
  661MOL0     C91093   2.145   2.159   4.993  0.3569  0.1658 -1.7367
  661MOL0     C91094   2.179   2.308   5.010 -0.4513 -0.4800  0.0625
  661MOL0     C91095   2.249   2.368   4.893 -0.2032 -0.4415  0.0584
  661MOL0     C91096   2.291   2.517   4.903 -0.1993  0.7780  0.3928
  661MOL0     N91097   2.173   2.594   4.905  0.0080 -0.3926 -0.0814
  661MOL0     C91098   2.065   2.581   4.819  0.7383 -1.0824 -0.7786
  661MOL0     C91099   1.981   2.677   4.869 -0.3399  0.0275 -0.1072
  661MOL0     C91100   1.852   2.721   4.803  1.2922 -0.3436  0.2645
  661MOL0     C91101   1.835   2.853   4.725 -0.7669  0.3520 -1.0745
  661MOL0     C91102   1.924   2.872   4.597  0.2449  0.0062 -0.0670
  661MOL0     C91103   1.882   2.789   4.479 -0.1395  0.2389  0.7248
  661MOL0     O91104   1.985   2.788   4.379 -0.7518 -0.4487  0.3556
  661MOL0     C91105   1.983   2.879   4.278 -0.4894 -0.3829 -0.0667
  661MOL0     C91106   1.895   2.864   4.167 -0.0647  0.9669  0.1579
  661MOL0     C91107   1.900   2.956   4.056 -0.5058 -0.4275 -0.0616
  661MOL0     C91108   1.804   2.931   3.951  0.8973 -0.0665 -0.3645
  661MOL0     C91109   1.994   3.066   4.066  0.4480  1.0993 -1.1175
  661MOL0     C91110   2.019   3.175   3.970 -0.4187  0.5514  0.6480
  661MOL0     O91111   2.121   3.264   3.996 -0.5270  0.2087 -0.1527
  661MOL0     C91112   2.181   3.338   3.893 -0.1133  0.1193 -0.5139
  661MOL0     C91113   2.162   3.333   3.752  0.6369 -0.0292  0.2073
  661MOL0     C91114   2.228   3.423   3.671 -0.5063  0.1932  0.7274
  661MOL0     C91115   2.317   3.513   3.721  0.3527  0.5530  0.3083
  661MOL0     O91116   2.397   3.592   3.646  0.7071  0.3392  0.0272
  661MOL0     C91117   2.324   3.682   3.558  0.2779  0.6585  0.8368
  661MOL0     C91118   2.420   3.780   3.495  0.3329 -0.7339 -0.3019
  661MOL0     C91119   2.522   3.718   3.395  0.0080 -1.0558 -0.1182
  661MOL0     C91120   2.590   3.842   3.317 -0.9823  0.6844 -0.1255
  661MOL0     C91121   2.694   3.906   3.406  0.0410 -0.2121 -0.0403
  661MOL0     C91122   2.743   4.032   3.352  0.2912  0.0256 -0.0459
  661MOL0     C91123   2.869   4.092   3.414  0.8027  0.3745  0.2860
  661MOL0     C91124   2.852   4.139   3.559  0.0301 -0.4483 -0.3279
  661MOL0    Cl91125   2.714   4.242   3.583  0.2069  0.5256  0.1890
  661MOL0     C91126   2.344   3.519   3.855 -0.2570 -0.0625  0.5842
  661MOL0     C91127   2.278   3.429   3.940 -0.0393 -0.6883  0.1652
  661MOL0     O91128   1.947   3.180   3.871 -0.2196  0.9342  0.4964
  661MOL0     C91129   2.086   3.077   4.180  0.7523 -0.2229  0.4370
  661MOL0     C91130   2.073   2.986   4.282 -0.4645 -0.4399  0.4683
  661MOL0     N91131   2.036   2.737   4.978 -0.5857 -0.0376  0.0683
  661MOL0     N91132   2.152   2.690   5.002 -0.1166  0.4332 -0.1015
  661MOL0     C91133   2.255   1.418   5.201 -1.2315  0.4086  0.0630
  661MOL0     C91134   2.282   1.286   5.158  0.0673 -1.3667  0.7227
  661MOL0     C91135   2.243   0.941   4.828 -0.6746  0.9931 -0.1942
  661MOL0     C91136   2.130   0.862   4.804 -0.3764 -0.3885  0.3567
  661MOL0     C91137   2.133   0.732   4.759 -0.4798 -0.1708 -0.0755
  661MOL0     C91138   2.253   0.667   4.752  0.3805  0.3270 -0.1271
  661MOL0     O91139   2.264   0.538   4.716 -0.0521  0.3538  0.8801
  661MOL0     C91140   2.133   0.468   4.706 -0.1497  0.1680  0.0013
  661MOL0     C91141   2.167   0.327   4.676  0.1443  0.0496 -0.4311
  661MOL0     C91142   2.192   0.245   4.796  0.0219 -0.7025  0.4992
  661MOL0     C91143   2.205   0.094   4.785 -0.1018 -0.1059  0.5348
  661MOL0     C91144   2.284   0.044   4.672  0.1288  0.1904 -0.0294
  661MOL0     C91145   2.342  -0.016   4.582  0.5132 -0.7873  0.2969
  661MOL0     C91146   2.367   0.737   4.773  0.2344 -0.2939 -0.0125
  661MOL0     C91147   2.362   0.874   4.805  0.4995  0.1898 -0.5838
  661MOL0     C91148   2.491   0.942   4.827 -0.0971  0.5557  0.1798
  661MOL0     H91149   2.263   1.354   4.825 -2.3865  0.8126  0.0337
  661MOL0     H91150   2.192   1.574   4.901 -2.0601 -1.7059 -0.5738
  661MOL0     H91151   2.014   1.732   5.218 -1.6629  0.3465 -0.7014
  661MOL0     H91152   2.035   1.694   5.055 -0.2812  0.2641  0.3411
  661MOL0     H91153   2.187   1.921   5.181  0.5712  1.3565 -0.6484
  661MOL0     H91154   2.175   1.884   5.007  0.0834  0.5452  0.1987
  661MOL0     H91155   1.952   1.952   4.989 -1.3785  3.5494 -0.6836
  661MOL0     H91156   1.923   1.942   5.163 -0.8283 -2.8092 -2.3554
  661MOL0     H91157   1.966   2.184   5.121 -1.2600 -1.2134 -0.9807
  661MOL0     H91158   2.096   2.126   5.208 -0.8248  0.8816  0.2678
  661MOL0     H91159   2.090   2.154   4.898 -0.4858 -1.4469 -1.1824
  661MOL0     H91160   2.241   2.106   4.988  1.1132  1.0670  1.3751
  661MOL0     H91161   2.089   2.363   5.039 -0.6944 -0.4358 -0.7598
  661MOL0     H91162   2.244   2.324   5.096 -0.1412 -0.5159 -0.1641
  661MOL0     H91163   2.182   2.359   4.807  1.6034  0.5698 -1.5374
  661MOL0     H91164   2.342   2.312   4.883 -0.9808 -2.2341  2.1472
  661MOL0     H91165   2.340   2.529   5.000  1.6018  0.0292 -0.3800
  661MOL0     H91166   2.370   2.550   4.836 -0.5360  0.2092 -0.2922
  661MOL0     H91167   2.047   2.530   4.725  1.0086 -0.8068 -0.9794
  661MOL0     H91168   1.783   2.730   4.887  1.0908  2.7143 -0.0865
  661MOL0     H91169   1.814   2.633   4.751  0.7557 -0.0078  0.0729
  661MOL0     H91170   1.730   2.880   4.705 -1.8487 -2.9241 -0.4589
  661MOL0     H91171   1.868   2.929   4.795  0.8355 -1.1663 -0.1005
  661MOL0     H91172   1.925   2.982   4.593  0.1528  0.0711  1.3768
  661MOL0     H91173   2.030   2.852   4.610  0.2242  0.6033  1.1688
  661MOL0     H91174   1.867   2.686   4.512  0.1811 -0.4277 -1.1097
  661MOL0     H91175   1.789   2.818   4.429  0.6761  0.1927 -0.8989
  661MOL0     H91176   1.824   2.782   4.172  3.9162 -2.8714  0.2084
  661MOL0     H91177   1.866   2.904   3.865 -0.1954 -0.8328 -0.9375
  661MOL0     H91178   1.754   3.025   3.924  1.1672  1.1962  3.0400
  661MOL0     H91179   1.735   2.852   3.983 -1.0138  1.2125 -1.1633
  661MOL0     H91180   2.101   3.260   3.699 -0.9406 -0.0030  1.9136
  661MOL0     H91181   2.213   3.420   3.564  1.2798  1.7815  0.3744
  661MOL0     H91182   2.278   3.624   3.478  0.9294 -0.2604  1.1108
  661MOL0     H91183   2.246   3.733   3.616 -1.1007  1.0532 -1.2371
  661MOL0     H91184   2.356   3.849   3.441  2.6702  0.1291 -2.1720
  661MOL0     H91185   2.472   3.837   3.573 -1.6099 -0.8249  1.1096
  661MOL0     H91186   2.471   3.641   3.334 -3.9786 -0.7023  2.4176
  661MOL0     H91187   2.594   3.660   3.452  1.1985 -0.5474 -1.0603
  661MOL0     H91188   2.506   3.899   3.277 -1.4474 -1.2989 -2.2021
  661MOL0     H91189   2.636   3.810   3.222 -1.8416  0.3221 -0.4292
  661MOL0     H91190   2.646   3.931   3.500  1.7211  0.0764  0.7745
  661MOL0     H91191   2.780   3.839   3.419  0.4735 -0.2451 -2.5134
  661MOL0     H91192   2.658   4.099   3.367 -1.3471 -2.3158  2.1292
  661MOL0     H91193   2.756   4.016   3.245 -1.0004 -0.3330 -0.1681
  661MOL0     H91194   2.889   4.179   3.351  1.4510  0.0300  0.0077
  661MOL0     H91195   2.952   4.023   3.403  1.4079  1.4538 -3.0771
  661MOL0     H91196   2.941   4.193   3.593  0.3260 -1.1054 -0.0204
  661MOL0     H91197   2.860   4.052   3.626  1.1227 -0.8853 -0.9952
  661MOL0     H91198   2.417   3.588   3.898  3.7167 -2.6592 -1.4128
  661MOL0     H91199   2.303   3.431   4.045 -0.2243 -0.3568  0.2017
  661MOL0     H91200   2.158   3.157   4.188  0.4547  0.3305 -1.7538
  661MOL0     H91201   2.140   2.999   4.367  0.6744 -0.5475 -0.3946
  661MOL0     H91202   2.254   1.430   5.309  1.9633  1.4013  0.1072
  661MOL0     H91203   2.312   1.203   5.221  1.8478 -1.1737  0.1914
  661MOL0     H91204   2.034   0.910   4.821 -0.6384 -1.4661  2.1355
  661MOL0     H91205   2.036   0.689   4.735 -0.1495 -0.2080 -1.4117
  661MOL0     H91206   2.081   0.481   4.801  1.6128  3.0447  0.6960
  661MOL0     H91207   2.075   0.509   4.623 -0.9633  3.6619  2.1122
  661MOL0     H91208   2.257   0.330   4.614  0.4165  0.7343 -0.0052
  661MOL0     H91209   2.086   0.278   4.621 -0.4067 -1.0854  1.3143
  661MOL0     H91210   2.281   0.288   4.843  0.7341 -1.7982  0.1807
  661MOL0     H91211   2.111   0.257   4.869  0.8045 -0.6178  1.3768
  661MOL0     H91212   2.102   0.063   4.770 -1.0421  2.7280  0.5125
  661MOL0     H91213   2.255   0.064   4.877 -0.8782  0.8213  1.2759
  661MOL0     H91214   2.396  -0.055   4.498 -2.2623 -1.8623 -1.1231
  661MOL0     H91215   2.464   0.687   4.776 -1.0289 -2.9116  2.0751
  661MOL0     H91216   2.485   1.051   4.835  0.1935  0.8751 -2.9973
  661MOL0     H91217   2.536   0.903   4.919  2.1772  2.7413  0.1170
  661MOL0     H91218   2.556   0.928   4.741 -1.5205  1.1415 -1.0308
  662MOL0     O91219   8.915   2.554   7.496  0.1236  0.4020  0.0702
  662MOL0     C91220   8.793   2.565   7.490  0.4357 -0.2671  0.1393
  662MOL0     O91221   8.727   2.591   7.371  0.7077  1.0146 -0.0917
  662MOL0     C91222   8.801   2.582   7.255  0.4462  0.3321 -0.1642
  662MOL0     C91223   8.864   2.696   7.207  1.3268  0.2785  0.5551
  662MOL0     C91224   8.917   2.694   7.084 -1.2756 -0.1154  0.1441
  662MOL0     C91225   8.910   2.579   7.005 -0.3819  0.1327 -0.1008
  662MOL0     O91226   8.982   2.581   6.883 -0.0562 -0.2138 -0.4371
  662MOL0     C91227   8.894   2.537   6.783  0.2510  0.2795  0.5112
  662MOL0     C91228   8.945   2.581   6.657  0.0570  0.2637 -0.2539
  662MOL0     C91229   9.088   2.529   6.638  0.2878  0.0952  0.5248
  662MOL0     C91230   9.138   2.552   6.495  0.5056 -1.5768 -0.1920
  662MOL0     C91231   9.283   2.516   6.475  0.0014 -0.2418  1.2386
  662MOL0     C91232   9.340   2.370   6.495  1.3767 -0.8963 -0.4698
  662MOL0     C91233   9.499   2.373   6.473 -0.9752  0.7588 -0.4153
  662MOL0     C91234   9.547   2.366   6.328  0.6610  0.0727  0.7805
  662MOL0     N91235   9.479   2.256   6.261  0.8044 -0.4701  0.3245
  662MOL0     C91236   9.521   2.127   6.279  0.1797  0.1924 -0.4107
  662MOL0     C91237   9.428   2.056   6.210  0.6000  0.2731  0.5030
  662MOL0     C91238   9.410   1.914   6.184  0.3349  0.4676  0.0744
  662MOL0     C91239   9.278   1.884   6.264 -0.3727  0.7839  0.9252
  662MOL0     C91240   9.242   1.739   6.251 -0.4095 -0.1276 -0.2513
  662MOL0     C91241   9.102   1.719   6.318  0.0755  0.2577  0.8427
  662MOL0     O91242   9.009   1.780   6.236 -0.9427  0.2256  0.1208
  662MOL0     C91243   8.879   1.783   6.272  0.4895  0.3528  1.0244
  662MOL0     C91244   8.785   1.794   6.178  0.2739 -0.0864  0.1975
  662MOL0     C91245   8.650   1.800   6.210 -0.5823  0.2346  0.2313
  662MOL0     C91246   8.560   1.825   6.096  0.3825  0.6459 -0.9005
  662MOL0     C91247   8.604   1.788   6.344  0.6243 -0.3853 -0.2294
  662MOL0     C91248   8.470   1.795   6.395 -0.1542  0.2231 -0.1467
  662MOL0     O91249   8.448   1.809   6.533  0.3836  0.2463 -0.0673
  662MOL0     C91250   8.320   1.837   6.564 -0.4884  0.1342 -0.0593
  662MOL0     C91251   8.256   1.933   6.501  0.7317  0.5381 -0.1015
  662MOL0     C91252   8.125   1.958   6.527  0.0020  0.1729 -0.4005
  662MOL0     C91253   8.052   1.877   6.617 -0.4178 -0.4899 -0.1033
  662MOL0     O91254   7.925   1.915   6.642  0.2064  0.3761  0.1108
  662MOL0     C91255   7.836   1.870   6.745  0.5622  0.5208 -0.2936
  662MOL0     C91256   7.690   1.909   6.705  0.1968 -0.8301 -0.8220
  662MOL0     C91257   7.645   1.837   6.580  0.5043  1.1430 -0.3163
  662MOL0     C91258   7.624   1.685   6.598 -0.0437 -0.5226  0.1809
  662MOL0     C91259   7.541   1.628   6.485  0.9832  0.7389 -0.4437
  662MOL0     C91260   7.546   1.472   6.460 -0.6396 -0.2054 -0.3875
  662MOL0     C91261   7.444   1.449   6.343 -0.2310 -0.4636  1.0002
  662MOL0     C91262   7.323   1.383   6.393  0.2390  0.0786  0.1235
  662MOL0    Cl91263   7.362   1.223   6.479  0.1069  0.0690  0.1978
  662MOL0     C91264   8.126   1.776   6.686 -0.3764  0.0782 -0.0421
  662MOL0     C91265   8.258   1.754   6.655  0.2519  0.1510 -0.4788
  662MOL0     O91266   8.383   1.773   6.314  0.3653 -0.1612  0.4637
  662MOL0     C91267   8.701   1.773   6.435  0.8854  0.7996 -0.0824
  662MOL0     C91268   8.833   1.759   6.400 -0.3969 -0.1135  0.0274
  662MOL0     N91269   9.335   2.143   6.153  0.2329  0.2401  0.2784
  662MOL0     N91270   9.373   2.264   6.182 -0.3460 -0.0807  0.3631
  662MOL0     C91271   8.846   2.463   7.054  0.8801 -0.0027 -0.3455
  662MOL0     C91272   8.778   2.466   7.178  0.0192 -0.2188  0.5814
  662MOL0     C91273   8.705   2.571   7.612 -0.5926  0.4458 -0.2810
  662MOL0     C91274   8.585   2.631   7.609  0.0830  0.5304  0.0483
  662MOL0     C91275   8.504   2.636   7.726  0.4005 -0.0648  0.3383
  662MOL0     C91276   8.541   2.581   7.849 -0.8802  0.9288  0.2203
  662MOL0     O91277   8.470   2.583   7.964 -0.3882 -0.3922  0.1841
  662MOL0     C91278   8.514   2.671   8.064  1.3415  1.1204  0.7680
  662MOL0     C91279   8.405   2.673   8.169  0.5825  1.4878 -0.2655
  662MOL0     C91280   8.383   2.536   8.235  0.6406 -0.2840 -0.0242
  662MOL0     C91281   8.317   2.548   8.376  0.6645  0.4040  0.0414
  662MOL0     C91282   8.171   2.558   8.359 -0.1694  0.0816  0.4398
  662MOL0     C91283   8.055   2.579   8.330  0.8583 -0.0869 -1.0359
  662MOL0     C91284   8.659   2.517   7.855  0.0792  0.6773 -0.3857
  662MOL0     C91285   8.749   2.519   7.739  0.5100 -0.0609 -0.3255
  662MOL0     C91286   8.891   2.468   7.760  0.5175 -0.1571 -0.4600
  662MOL0     H91287   8.857   2.778   7.278 -0.3949  0.1914  0.5381
  662MOL0     H91288   8.969   2.776   7.035 -3.2255  0.4803 -1.0296
  662MOL0     H91289   8.798   2.578   6.814 -0.3570 -0.7783  0.0989
  662MOL0     H91290   8.878   2.429   6.773  0.9193  0.4366 -4.0076
  662MOL0     H91291   8.871   2.531   6.594 -0.0395 -1.9565  1.5062
  662MOL0     H91292   8.949   2.689   6.640  2.0864  0.3483  0.4363
  662MOL0     H91293   9.159   2.560   6.715  1.2587 -3.8291  1.4490
  662MOL0     H91294   9.076   2.420   6.643 -1.6779  0.2036 -0.6544
  662MOL0     H91295   9.070   2.497   6.429 -1.9059 -1.7176  2.2417
  662MOL0     H91296   9.128   2.657   6.467  0.1867 -1.9039 -1.3518
  662MOL0     H91297   9.329   2.584   6.547 -0.4746  1.6175 -0.1220
  662MOL0     H91298   9.318   2.555   6.379 -2.6924  0.8103  0.5963
  662MOL0     H91299   9.321   2.360   6.603  0.7512  3.2222 -0.0452
  662MOL0     H91300   9.285   2.291   6.443 -0.5293  0.0133  0.0322
  662MOL0     H91301   9.540   2.284   6.520 -2.2599 -0.2302 -1.0960
  662MOL0     H91302   9.542   2.457   6.529 -1.3498 -0.1762  1.3378
  662MOL0     H91303   9.518   2.456   6.273 -1.3713 -0.7895  0.3482
  662MOL0     H91304   9.655   2.353   6.322  0.5625 -2.4162  2.6764
  662MOL0     H91305   9.601   2.093   6.344  0.3294 -0.3993 -0.8962
  662MOL0     H91306   9.485   1.845   6.222  0.0187 -0.2105 -0.5212
  662MOL0     H91307   9.398   1.899   6.076 -3.1103  3.4916 -0.1964
  662MOL0     H91308   9.301   1.890   6.371  2.5310 -1.5924  0.5677
  662MOL0     H91309   9.196   1.952   6.237 -1.7748 -1.3372 -0.5664
  662MOL0     H91310   9.242   1.707   6.146  1.1441 -0.6887 -0.1011
  662MOL0     H91311   9.326   1.689   6.299  1.3828  1.6743 -1.3393
  662MOL0     H91312   9.073   1.613   6.324  3.8328 -0.9443  0.3417
  662MOL0     H91313   9.105   1.761   6.419 -2.1490 -0.3759  1.2376
  662MOL0     H91314   8.806   1.811   6.073  1.7571  0.9778  0.6423
  662MOL0     H91315   8.467   1.768   6.095 -0.1271  1.2431 -4.7066
  662MOL0     H91316   8.605   1.812   5.997  2.2852 -1.0083  0.0939
  662MOL0     H91317   8.527   1.929   6.097  1.9511  1.1742  0.3510
  662MOL0     H91318   8.302   1.994   6.425 -1.7845  0.7498 -1.5717
  662MOL0     H91319   8.081   2.052   6.497  0.4294  0.5834  0.2424
  662MOL0     H91320   7.844   1.762   6.763  1.3184  0.3830 -1.3585
  662MOL0     H91321   7.867   1.918   6.838 -1.1541  1.7552 -0.3136
  662MOL0     H91322   7.616   1.902   6.786 -0.2021  0.1499 -1.0895
  662MOL0     H91323   7.700   2.013   6.675 -2.1514 -1.0750 -2.8471
  662MOL0     H91324   7.715   1.848   6.497  1.1768 -1.7380 -0.2218
  662MOL0     H91325   7.548   1.884   6.561 -0.1708  0.2168  0.6630
  662MOL0     H91326   7.593   1.674   6.702  3.5125  1.5710  1.6171
  662MOL0     H91327   7.727   1.650   6.584  0.0472 -0.5861  0.9821
  662MOL0     H91328   7.435   1.634   6.514 -0.1284 -1.8985 -3.2987
  662MOL0     H91329   7.547   1.692   6.397 -2.3698  2.8218  0.6488
  662MOL0     H91330   7.517   1.426   6.555 -0.7391 -0.6385 -0.6243
  662MOL0     H91331   7.642   1.442   6.417  0.6911  0.8792  1.7105
  662MOL0     H91332   7.487   1.388   6.263  0.4424  2.2671 -0.8611
  662MOL0     H91333   7.418   1.540   6.288  2.3389 -0.6018 -0.5753
  662MOL0     H91334   7.263   1.370   6.303  0.7105  2.2717 -0.5721
  662MOL0     H91335   7.271   1.454   6.458  0.0247  3.6528 -3.5404
  662MOL0     H91336   8.080   1.724   6.769  3.0242 -1.9215  0.7924
  662MOL0     H91337   8.292   1.661   6.698 -2.8123 -2.1000 -2.5227
  662MOL0     H91338   8.679   1.780   6.541 -2.4252 -1.5206 -0.4550
  662MOL0     H91339   8.894   1.727   6.484 -1.4312  1.2677  1.3602
  662MOL0     H91340   8.844   2.378   6.985  0.3987 -0.2420 -0.0421
  662MOL0     H91341   8.728   2.377   7.214  0.3067 -0.9756 -0.8043
  662MOL0     H91342   8.564   2.690   7.521 -1.9953 -0.9341 -0.5070
  662MOL0     H91343   8.407   2.684   7.722 -0.8160 -2.3409  0.8347
  662MOL0     H91344   8.612   2.646   8.107  0.7579 -0.2500  1.3436
  662MOL0     H91345   8.521   2.771   8.020  1.3430  1.3684  1.3097
  662MOL0     H91346   8.306   2.701   8.132 -0.3867  0.6191  1.5355
  662MOL0     H91347   8.431   2.747   8.245 -0.2812  1.9803 -0.4460
  662MOL0     H91348   8.336   2.473   8.159  1.7901 -0.5191 -0.5719
  662MOL0     H91349   8.484   2.497   8.250  1.4884  1.0745 -1.8040
  662MOL0     H91350   8.348   2.635   8.435 -3.1268  1.4293  0.7918
  662MOL0     H91351   8.333   2.456   8.432 -1.8294 -2.9738 -4.1859
  662MOL0     H91352   7.950   2.589   8.311  0.4862 -2.0241 -0.1636
  662MOL0     H91353   8.677   2.483   7.957 -2.0107  0.2670 -0.1244
  662MOL0     H91354   8.897   2.367   7.718  3.5639  0.2900 -1.3183
  662MOL0     H91355   8.972   2.527   7.716  0.0380 -1.0568 -2.7462
  662MOL0     H91356   8.905   2.463   7.868 -1.9939  1.7595  0.0521
  663MOL0     O91357   4.099  10.733  10.995 -0.2363  0.4549 -0.8007
  663MOL0     C91358   4.106  10.776  10.881 -0.8642 -0.2818  1.2313
  663MOL0     O91359   4.198  10.730  10.793 -0.4438  0.5106  0.2712
  663MOL0     C91360   4.311  10.654  10.825  0.2802  0.0826  0.2662
  663MOL0     C91361   4.370  10.558  10.744  0.0511  0.4089 -0.7997
  663MOL0     C91362   4.487  10.493  10.784  0.4909 -0.6207 -0.1914
  663MOL0     C91363   4.552  10.519  10.901  0.0373  0.1096  0.1437
  663MOL0     O91364   4.656  10.437  10.943 -0.0081 -0.0140  0.5225
  663MOL0     C91365   4.760  10.495  11.031 -0.3414 -0.6107  0.8066
  663MOL0     C91366   4.880  10.395  11.038 -0.2349 -0.6711 -0.2694
  663MOL0     C91367   4.960  10.384  10.906  0.3905 -0.0325 -0.2416
  663MOL0     C91368   5.071  10.282  10.907 -0.5258  0.0385 -0.1711
  663MOL0     C91369   5.128  10.246  10.774  0.2591 -1.0527  0.5645
  663MOL0     C91370   5.210  10.364  10.715  0.4814  0.4660 -0.2781
  663MOL0     C91371   5.256  10.321  10.575 -0.3649  0.4330  0.3043
  663MOL0     C91372   5.351  10.422  10.507 -0.3654  0.8968 -0.0743
  663MOL0     N91373   5.310  10.560  10.526  0.2294  0.0675  0.1061
  663MOL0     C91374   5.377  10.645  10.615  0.5624  0.8836  0.5355
  663MOL0     C91375   5.324  10.773  10.597 -0.2501 -0.4112 -0.2737
  663MOL0     C91376   5.361  10.917  10.649 -0.2973 -0.0518 -0.2923
  663MOL0     C91377   5.238  11.005  10.685 -0.3894  0.4016  0.5275
  663MOL0     C91378   5.172  10.962  10.818 -0.0644 -0.4228  1.4080
  663MOL0     C91379   5.047  11.057  10.851 -0.0414 -0.0225 -0.7353
  663MOL0     O91380   5.089  11.179  10.906  0.4111  0.1172 -0.0112
  663MOL0     C91381   5.026  11.216  11.021  0.0000  0.5365  0.5341
  663MOL0     C91382   5.093  11.246  11.137  0.1767 -0.4019  0.6578
  663MOL0     C91383   5.024  11.304  11.242  0.1288 -0.5250  0.9406
  663MOL0     C91384   5.106  11.343  11.372  0.0817 -0.3716 -0.9500
  663MOL0     C91385   4.886  11.323  11.244 -0.0703 -0.0992  0.4259
  663MOL0     C91386   4.795  11.391  11.347 -0.3857  0.3065 -0.5974
  663MOL0     O91387   4.664  11.410  11.323 -0.0277 -0.4121 -0.9849
  663MOL0     C91388   4.597  11.404  11.450  0.4731 -0.0436 -0.2537
  663MOL0     C91389   4.577  11.521  11.521 -0.2254  1.0236 -0.0620
  663MOL0     C91390   4.516  11.522  11.645  0.8993  0.8612 -1.0741
  663MOL0     C91391   4.444  11.404  11.692 -0.2431 -0.0273 -0.2034
  663MOL0     O91392   4.361  11.397  11.803 -0.1517  0.3537 -0.3172
  663MOL0     C91393   4.429  11.432  11.928  0.4922 -0.5530  0.1630
  663MOL0     C91394   4.371  11.347  12.041 -0.6004 -0.3196  0.8177
  663MOL0     C91395   4.465  11.235  12.095  0.1002  0.5148 -0.3484
  663MOL0     C91396   4.427  11.196  12.235 -0.8164 -0.2601 -0.0227
  663MOL0     C91397   4.526  11.267  12.334  0.4483  0.4289  0.2507
  663MOL0     C91398   4.535  11.416  12.330  0.3225  0.0472  0.1829
  663MOL0     C91399   4.637  11.478  12.425 -0.6835  0.7788  0.4501
  663MOL0     C91400   4.770  11.393  12.432  0.3825 -0.3678  0.4560
  663MOL0    Cl91401   4.888  11.487  12.539 -0.3859 -0.4014 -0.0259
  663MOL0     C91402   4.469  11.285  11.622 -0.2210 -0.6187  0.0238
  663MOL0     C91403   4.545  11.286  11.501 -0.1819  0.1473 -0.3824
  663MOL0     O91404   4.854  11.393  11.457  0.7671  0.2141  0.4294
  663MOL0     C91405   4.820  11.293  11.118  0.0623 -0.2652  0.0805
  663MOL0     C91406   4.890  11.238  11.003 -0.7945  0.2912 -1.4048
  663MOL0     N91407   5.225  10.758  10.499 -0.6493  0.7106 -0.0648
  663MOL0     N91408   5.236  10.641  10.444  0.5728 -0.5391 -0.4675
  663MOL0     C91409   4.501  10.627  10.976 -0.5061  0.7530 -0.0533
  663MOL0     C91410   4.386  10.696  10.933 -0.3287 -0.0641  0.1294
  663MOL0     C91411   4.008  10.876  10.823  0.2983  0.4942 -0.3902
  663MOL0     C91412   4.036  10.931  10.695 -1.4414 -0.3229  1.4043
  663MOL0     C91413   3.964  11.026  10.636  0.2503 -0.1509 -0.4221
  663MOL0     C91414   3.845  11.073  10.697 -0.5505  0.4626 -0.5761
  663MOL0     O91415   3.769  11.172  10.637  0.5490 -0.1632 -0.0964
  663MOL0     C91416   3.819  11.255  10.530 -0.1517 -0.7447 -0.5587
  663MOL0     C91417   3.922  11.338  10.604 -0.1413  0.1578  0.2459
  663MOL0     C91418   3.916  11.480  10.546  0.2680 -0.3399  0.5571
  663MOL0     C91419   3.945  11.489  10.394  0.3324  0.1860  0.3406
  663MOL0     C91420   4.072  11.442  10.355  0.9791 -0.3154 -0.1624
  663MOL0     C91421   4.192  11.417  10.331  0.0813 -0.0691  0.0286
  663MOL0     C91422   3.807  11.009  10.818 -0.0174  0.0605 -0.2288
  663MOL0     C91423   3.886  10.918  10.882 -0.3934  0.5970 -0.2591
  663MOL0     C91424   3.845  10.893  11.024 -0.1071  0.2028 -0.5480
  663MOL0     H91425   4.313  10.531  10.656  0.3472 -1.0948 -0.5582
  663MOL0     H91426   4.511  10.408  10.721  2.8053  0.0580 -0.3112
  663MOL0     H91427   4.727  10.504  11.135  3.2522  2.9601  1.8882
  663MOL0     H91428   4.796  10.594  10.999  2.5594 -2.0291 -0.7001
  663MOL0     H91429   4.948  10.440  11.111 -2.3181  1.4220  0.5168
  663MOL0     H91430   4.848  10.295  11.067 -2.6798  0.0041 -0.4857
  663MOL0     H91431   4.902  10.358  10.817  0.2650  1.6816 -0.6980
  663MOL0     H91432   5.002  10.482  10.883 -0.5251 -0.0863 -2.4402
  663MOL0     H91433   5.149  10.331  10.966 -1.4139  2.5484 -0.9487
  663MOL0     H91434   5.023  10.193  10.949 -0.3963 -0.0897 -0.2962
  663MOL0     H91435   5.049  10.222  10.703 -0.6822 -0.9051  1.5479
  663MOL0     H91436   5.197  10.160  10.782  0.7225 -1.0344 -2.2984
  663MOL0     H91437   5.151  10.455  10.704  0.5711  0.4143 -1.2876
  663MOL0     H91438   5.294  10.381  10.783  1.6121 -0.2138 -1.4492
  663MOL0     H91439   5.163  10.312  10.518 -1.0320  1.3687  1.1925
  663MOL0     H91440   5.310  10.226  10.584 -0.7008  0.4324  3.1529
  663MOL0     H91441   5.448  10.411  10.557 -0.3842  2.0547  0.2508
  663MOL0     H91442   5.379  10.394  10.405  1.0836 -0.5684  0.6832
  663MOL0     H91443   5.460  10.622  10.681 -2.2779  0.6927  4.3838
  663MOL0     H91444   5.421  10.957  10.568  1.5749 -0.4019  0.8556
  663MOL0     H91445   5.420  10.904  10.740 -4.4718  0.5484  2.8350
  663MOL0     H91446   5.267  11.109  10.704 -1.6280  0.5837  1.5846
  663MOL0     H91447   5.164  11.008  10.604 -0.9329 -2.8849  0.7942
  663MOL0     H91448   5.136  10.859  10.806  1.1739 -0.7511  0.3336
  663MOL0     H91449   5.248  10.969  10.896  1.1621  0.3132  0.1785
  663MOL0     H91450   4.995  11.081  10.758 -0.9672  1.4089  0.1048
  663MOL0     H91451   4.976  10.995  10.908  0.1028  0.4939  0.0317
  663MOL0     H91452   5.198  11.218  11.144  0.1002 -0.8722  0.0322
  663MOL0     H91453   5.207  11.305  11.359 -0.1538 -1.0222 -0.9417
  663MOL0     H91454   5.077  11.294  11.465 -1.8697 -2.4593 -2.5353
  663MOL0     H91455   5.105  11.452  11.385  2.6050 -0.4317  0.3336
  663MOL0     H91456   4.614  11.610  11.472 -3.1369  0.8454 -2.9690
  663MOL0     H91457   4.510  11.620  11.691 -1.0833  3.0718 -5.4973
  663MOL0     H91458   4.536  11.411  11.928  0.6885  0.2779 -1.8365
  663MOL0     H91459   4.403  11.533  11.960  0.7597 -0.0030 -1.3146
  663MOL0     H91460   4.322  11.404  12.121 -2.5560  0.0665 -0.5887
  663MOL0     H91461   4.283  11.299  11.997 -0.9723  1.2138 -0.1982
  663MOL0     H91462   4.571  11.260  12.102  0.2751  0.3572 -2.0846
  663MOL0     H91463   4.454  11.151  12.026  0.4096  1.1970 -1.2479
  663MOL0     H91464   4.441  11.088  12.245 -0.3783 -0.5526 -3.0049
  663MOL0     H91465   4.321  11.218  12.255 -2.0224 -1.7618 -3.9033
  663MOL0     H91466   4.502  11.240  12.437 -0.3990 -3.2925 -0.7852
  663MOL0     H91467   4.624  11.223  12.316 -0.2794 -1.7485  1.3465
  663MOL0     H91468   4.432  11.452  12.343 -1.4331 -3.6195 -2.0590
  663MOL0     H91469   4.565  11.441  12.228  2.2031 -1.1347  0.4069
  663MOL0     H91470   4.599  11.490  12.527 -1.2405  0.8888  0.2335
  663MOL0     H91471   4.664  11.579  12.394  0.1703  0.5939  0.5635
  663MOL0     H91472   4.824  11.385  12.337  5.1246 -2.3303  2.9376
  663MOL0     H91473   4.743  11.296  12.474  1.3283 -1.7205 -1.8754
  663MOL0     H91474   4.424  11.198  11.668 -0.7537 -1.7497 -2.4886
  663MOL0     H91475   4.555  11.187  11.456 -1.4231 -1.2818  2.2541
  663MOL0     H91476   4.713  11.298  11.099  0.2300 -2.6096 -2.1777
  663MOL0     H91477   4.843  11.225  10.906  0.5970  0.0852 -2.0641
  663MOL0     H91478   4.530  10.641  11.080 -3.0357 -1.6221  1.1176
  663MOL0     H91479   4.351  10.783  10.988  0.5195  1.2496 -1.3384
  663MOL0     H91480   4.130  10.897  10.652 -0.4294 -0.9373  3.9295
  663MOL0     H91481   4.002  11.069  10.543  2.3520 -1.4781 -0.2595
  663MOL0     H91482   3.868  11.210  10.443 -0.6152  0.9489 -1.7539
  663MOL0     H91483   3.735  11.320  10.501 -0.4120  0.9134  3.3272
  663MOL0     H91484   4.018  11.286  10.595 -0.0398  0.5405 -1.0264
  663MOL0     H91485   3.905  11.354  10.711 -2.7692  0.7969 -0.2120
  663MOL0     H91486   3.818  11.527  10.562  0.3830 -0.4330  1.5821
  663MOL0     H91487   3.988  11.543  10.598  1.0540 -0.5563 -0.2379
  663MOL0     H91488   3.925  11.591  10.361 -5.4320 -1.6026 -3.1501
  663MOL0     H91489   3.868  11.427  10.347 -0.2239  1.3294 -0.2796
  663MOL0     H91490   4.293  11.386  10.313  0.4708  1.9900 -1.6464
  663MOL0     H91491   3.710  11.031  10.861 -0.5171  1.6080 -1.9949
  663MOL0     H91492   3.743  10.928  11.042 -0.7690 -2.7925  2.5593
  663MOL0     H91493   3.837  10.786  11.047  1.0856  0.7169  2.8207
  663MOL0     H91494   3.918  10.932  11.095  1.2827  1.2206 -2.4517
  664MOL0     O91495   3.115   4.849   9.484  0.0965  0.1965  0.0391
  664MOL0     C91496   3.013   4.913   9.482 -0.0565 -0.1381 -0.0843
  664MOL0     O91497   2.995   5.010   9.576  0.8917 -0.3735 -0.3635
  664MOL0     C91498   3.096   5.063   9.644 -0.3534 -0.3347  0.6791
  664MOL0     C91499   3.198   5.141   9.576  0.6206 -0.2265 -0.0661
  664MOL0     C91500   3.288   5.228   9.653  0.4015  0.2100 -0.8829
  664MOL0     C91501   3.294   5.202   9.790  0.5534 -0.0778 -0.6604
  664MOL0     O91502   3.384   5.289   9.850  0.5930 -0.4179  0.0832
  664MOL0     C91503   3.378   5.292   9.991 -0.1673 -0.5458 -0.5186
  664MOL0     C91504   3.484   5.388  10.037 -0.3427  0.6947 -0.2683
  664MOL0     C91505   3.431   5.530  10.000 -0.2566  0.5367 -0.9121
  664MOL0     C91506   3.516   5.650  10.056 -0.5139  0.0688 -0.7026
  664MOL0     C91507   3.449   5.785  10.052 -0.1208 -0.1741  0.0979
  664MOL0     C91508   3.542   5.898  10.106  0.3819  0.2382 -0.1054
  664MOL0     C91509   3.503   5.925  10.258 -0.0802 -0.0832 -0.5679
  664MOL0     C91510   3.583   6.038  10.308 -0.2478  0.6518  0.1066
  664MOL0     N91511   3.715   5.988  10.350 -0.9262 -0.3271 -0.6241
  664MOL0     C91512   3.760   6.002  10.479  0.5550 -0.1522 -0.2689
  664MOL0     C91513   3.873   5.930  10.494 -1.1802  0.0547 -0.0531
  664MOL0     C91514   3.942   5.893  10.622  0.0669 -1.0546 -0.1871
  664MOL0     C91515   4.095   5.875  10.592 -0.1737  0.5181  0.6092
  664MOL0     C91516   4.115   5.743  10.511 -0.0467  0.0442 -0.2184
  664MOL0     C91517   4.222   5.652  10.568 -0.2613  0.2203  0.0475
  664MOL0     O91518   4.356   5.708  10.534 -0.0848  0.1815  0.4373
  664MOL0     C91519   4.465   5.646  10.579 -0.0990 -0.1244 -0.5023
  664MOL0     C91520   4.581   5.710  10.531  0.6898  0.0390  0.4183
  664MOL0     C91521   4.709   5.679  10.575 -0.1691 -0.2360 -0.2571
  664MOL0     C91522   4.815   5.764  10.507  0.6045 -0.8216  0.1418
  664MOL0     C91523   4.730   5.579  10.673 -1.2917 -0.4400 -0.7542
  664MOL0     C91524   4.866   5.551  10.745 -0.3221  0.3639  0.3535
  664MOL0     O91525   4.968   5.639  10.732  0.5626 -0.0796  0.8515
  664MOL0     C91526   5.061   5.650  10.826 -0.2411  1.6544  0.2500
  664MOL0     C91527   5.196   5.679  10.796  1.6401 -0.8798  0.2817
  664MOL0     C91528   5.299   5.680  10.890 -0.1190  0.8027 -0.9282
  664MOL0     C91529   5.275   5.652  11.025  0.3205 -0.1566  0.2634
  664MOL0     O91530   5.371   5.667  11.123  0.4175  0.4663 -0.2344
  664MOL0     C91531   5.447   5.546  11.142  0.5747 -0.1748  0.3207
  664MOL0     C91532   5.456   5.497  11.288  0.5302  1.0854 -0.0306
  664MOL0     C91533   5.328   5.432  11.335 -1.0052  0.0175  0.1664
  664MOL0     C91534   5.346   5.351  11.466 -0.2959 -0.8042  0.2937
  664MOL0     C91535   5.216   5.292  11.512  0.2957  0.0541 -0.0717
  664MOL0     C91536   5.222   5.194  11.633 -0.4288  0.5451  0.8402
  664MOL0     C91537   5.277   5.244  11.770 -0.0160  0.3033 -0.2690
  664MOL0     C91538   5.312   5.120  11.861 -0.2466  0.2621  0.8881
  664MOL0    Cl91539   5.166   5.024  11.910  0.1412 -0.1361  0.5571
  664MOL0     C91540   5.141   5.622  11.064 -0.0145 -0.0450  0.2795
  664MOL0     C91541   5.039   5.637  10.966  0.2031  0.8154 -0.8102
  664MOL0     O91542   4.874   5.443  10.804 -0.5931  0.3817 -0.9363
  664MOL0     C91543   4.612   5.505  10.715 -0.2806 -0.4019  0.0502
  664MOL0     C91544   4.481   5.538  10.671 -0.1634  0.3579 -0.4526
  664MOL0     N91545   3.901   5.882  10.370 -0.3016  0.1402  1.0355
  664MOL0     N91546   3.811   5.925  10.285 -0.4368  0.2602 -0.6404
  664MOL0     C91547   3.210   5.106   9.859 -0.0454 -0.1595 -0.6064
  664MOL0     C91548   3.113   5.040   9.780 -0.0337  0.3430  0.0085
  664MOL0     C91549   2.908   4.880   9.379  0.3087 -0.1635  0.4264
  664MOL0     C91550   2.775   4.918   9.399 -0.1575  0.0457 -0.2963
  664MOL0     C91551   2.662   4.897   9.316 -0.0707  0.7409  0.9451
  664MOL0     C91552   2.690   4.819   9.198  0.7657 -0.1878 -0.1759
  664MOL0     O91553   2.597   4.777   9.111  0.0792  0.5666  0.1460
  664MOL0     C91554   2.465   4.810   9.141 -0.4565 -0.6009 -0.3403
  664MOL0     C91555   2.388   4.772   9.017 -0.6687  0.0027 -0.6906
  664MOL0     C91556   2.234   4.805   9.027  0.2885 -0.1916 -0.1085
  664MOL0     C91557   2.150   4.678   9.060 -0.0771 -0.3501  0.2159
  664MOL0     C91558   2.159   4.599   8.933  0.2247 -0.0696 -0.4585
  664MOL0     C91559   2.155   4.544   8.823  0.4327 -1.1012  0.5084
  664MOL0     C91560   2.821   4.795   9.161  1.0429  0.3062 -0.2329
  664MOL0     C91561   2.933   4.816   9.255 -0.0409 -0.4840  0.3819
  664MOL0     C91562   3.073   4.767   9.222 -0.1127 -0.4389 -0.2197
  664MOL0     H91563   3.183   5.158   9.469 -2.6124 -0.9114  0.1768
  664MOL0     H91564   3.346   5.304   9.600  1.4222 -1.0039 -1.5648
  664MOL0     H91565   3.404   5.194  10.032 -2.8967 -1.4644 -0.8015
  664MOL0     H91566   3.284   5.325  10.036 -1.6017  0.7853 -4.1261
  664MOL0     H91567   3.496   5.391  10.146 -1.7990 -0.0228 -0.0639
  664MOL0     H91568   3.586   5.368  10.003  0.8013  0.1896  3.0868
  664MOL0     H91569   3.416   5.532   9.891 -0.5498  0.4666 -0.8724
  664MOL0     H91570   3.332   5.548  10.043 -0.7194  0.7636 -2.0310
  664MOL0     H91571   3.534   5.625  10.161 -0.3685 -1.4810 -1.0700
  664MOL0     H91572   3.610   5.655  10.000 -1.1502  1.4388 -1.7109
  664MOL0     H91573   3.351   5.787  10.100 -0.5609  0.5699 -0.7962
  664MOL0     H91574   3.422   5.803   9.947  1.1029 -1.0228 -0.3844
  664MOL0     H91575   3.649   5.876  10.103  1.4538  4.0350  2.9166
  664MOL0     H91576   3.524   5.986  10.044  1.1505  1.3150  1.1464
  664MOL0     H91577   3.516   5.837  10.321 -1.4913 -0.3059 -0.5545
  664MOL0     H91578   3.396   5.948  10.263 -0.0035  0.0937  0.6928
  664MOL0     H91579   3.596   6.116  10.232 -1.5902  1.5060  0.7032
  664MOL0     H91580   3.528   6.082  10.392 -1.5880 -1.0480  0.1805
  664MOL0     H91581   3.713   6.053  10.563  0.4222  1.3933 -1.2238
  664MOL0     H91582   3.891   5.806  10.664  1.0428 -2.0419 -0.9893
  664MOL0     H91583   3.937   5.975  10.694 -3.1857 -0.8536 -0.4994
  664MOL0     H91584   4.149   5.959  10.547 -4.2348  2.2467 -1.5566
  664MOL0     H91585   4.153   5.859  10.683 -0.4985 -3.6010  0.2959
  664MOL0     H91586   4.023   5.684  10.517  1.0837 -1.7152  0.6516
  664MOL0     H91587   4.140   5.762  10.406 -0.2823  1.8624  0.0129
  664MOL0     H91588   4.214   5.629  10.675  3.9505 -3.1444 -0.0932
  664MOL0     H91589   4.223   5.551  10.526  1.8789  0.1397  0.1887
  664MOL0     H91590   4.574   5.781  10.449  1.8291 -2.4304 -2.0045
  664MOL0     H91591   4.843   5.852  10.566 -1.4920 -2.3306  3.6917
  664MOL0     H91592   4.778   5.810  10.415 -2.1484 -0.8135  1.1652
  664MOL0     H91593   4.908   5.712  10.483  2.3596  1.0738  2.3198
  664MOL0     H91594   5.220   5.694  10.691 -0.2936 -1.1989 -0.2542
  664MOL0     H91595   5.400   5.703  10.856  0.2087 -1.5977 -1.8342
  664MOL0     H91596   5.398   5.471  11.080 -1.7642  1.3043  0.2445
  664MOL0     H91597   5.548   5.580  11.116  0.8483  1.6623  3.2170
  664MOL0     H91598   5.526   5.413  11.295 -2.4353 -1.6361 -0.6706
  664MOL0     H91599   5.494   5.574  11.356  0.5050 -1.0480  2.5327
  664MOL0     H91600   5.290   5.370  11.253 -1.5182  1.3131 -0.6095
  664MOL0     H91601   5.264   5.519  11.351 -4.5425 -2.3287  0.0291
  664MOL0     H91602   5.388   5.417  11.543 -0.4113 -0.9823  0.5069
  664MOL0     H91603   5.426   5.276  11.464  1.0065  0.5451 -0.4897
  664MOL0     H91604   5.158   5.374  11.556  1.8715  2.1817 -1.7148
  664MOL0     H91605   5.173   5.248  11.422 -3.2251 -0.0601  1.5203
  664MOL0     H91606   5.289   5.121  11.587 -2.5300 -0.2782 -1.0829
  664MOL0     H91607   5.126   5.142  11.642 -0.6615  0.8353  0.0759
  664MOL0     H91608   5.207   5.311  11.821 -1.1932 -0.9469 -0.1730
  664MOL0     H91609   5.362   5.312  11.761  1.6281 -1.4142  1.2496
  664MOL0     H91610   5.367   5.148  11.951  2.3630 -0.9634 -0.2288
  664MOL0     H91611   5.382   5.057  11.806  0.9772  1.5865  0.8772
  664MOL0     H91612   5.120   5.586  11.165  2.8430 -0.6864  0.7201
  664MOL0     H91613   4.939   5.598  10.981 -0.0241  0.9647 -1.8545
  664MOL0     H91614   4.613   5.419  10.781 -0.3605  0.7869  1.6602
  664MOL0     H91615   4.393   5.487  10.709  0.1948 -1.4568 -1.9128
  664MOL0     H91616   3.208   5.086   9.966 -1.6059 -0.6616 -0.6995
  664MOL0     H91617   3.029   4.982   9.816  0.0604  0.4176  0.3447
  664MOL0     H91618   2.755   4.974   9.490 -1.2084 -1.5855  0.5103
  664MOL0     H91619   2.569   4.922   9.365 -0.8047 -0.8766  0.4350
  664MOL0     H91620   2.433   4.764   9.235 -0.7205  1.6110  0.7359
  664MOL0     H91621   2.465   4.919   9.155  2.4079 -0.6115  0.4592
  664MOL0     H91622   2.399   4.664   9.000 -0.0362  0.3989 -3.1849
  664MOL0     H91623   2.440   4.822   8.935 -0.2667 -0.4301 -0.7103
  664MOL0     H91624   2.214   4.870   9.113 -0.6106 -1.1753  0.4613
  664MOL0     H91625   2.199   4.851   8.934  0.5293 -0.9497 -0.5768
  664MOL0     H91626   2.048   4.707   9.085  0.2076  2.4654 -1.4330
  664MOL0     H91627   2.192   4.625   9.145  0.6130  1.4357  1.0437
  664MOL0     H91628   2.155   4.494   8.729 -0.3149 -1.3577  0.6319
  664MOL0     H91629   2.842   4.730   9.076 -1.3327 -0.9349  0.0472
  664MOL0     H91630   3.097   4.677   9.278  0.2941  0.2646  0.7605
  664MOL0     H91631   3.087   4.756   9.114 -0.8352  1.0961 -0.5125
  664MOL0     H91632   3.152   4.839   9.245  0.5548 -0.4898 -2.1774
  665MOL0     O91633  10.036  11.154   6.794  0.3934  0.2270  0.4172
  665MOL0     C91634   9.983  11.238   6.721  0.1774 -0.2159 -0.0184
  665MOL0     O91635   9.943  11.362   6.755  0.0298  0.1539  0.4538
  665MOL0     C91636  10.017  11.434   6.845 -0.4401 -0.5650 -0.4870
  665MOL0     C91637  10.132  11.488   6.805 -0.0168  0.2680  0.5733
  665MOL0     C91638  10.213  11.561   6.885  0.2577  0.2666  0.0860
  665MOL0     C91639  10.178  11.583   7.023  0.8632 -0.2435  0.2065
  665MOL0     O91640  10.247  11.651   7.125  0.3152 -0.5036  0.1496
  665MOL0     C91641  10.361  11.728   7.083  0.2869  0.1999  0.4726
  665MOL0     C91642  10.400  11.826   7.183  0.1756 -0.3659 -0.0232
  665MOL0     C91643  10.453  11.742   7.300 -0.3619 -0.0061  0.6228
  665MOL0     C91644  10.503  11.837   7.413  0.1189 -0.4818  0.2126
  665MOL0     C91645  10.561  11.761   7.528 -1.1188  0.3015 -0.8157
  665MOL0     C91646  10.613  11.858   7.626 -0.3178  0.2334  0.1437
  665MOL0     C91647  10.652  11.797   7.765  0.2509 -1.6047  0.4784
  665MOL0     C91648  10.691  11.649   7.765  0.4175  0.1536 -0.8195
  665MOL0     N91649  10.841  11.626   7.755  0.3249 -0.6699  1.5285
  665MOL0     C91650  10.900  11.590   7.633  0.1033  0.6110 -0.2591
  665MOL0     C91651  11.022  11.544   7.672  0.2220  0.3261 -0.7170
  665MOL0     C91652  11.125  11.499   7.567  0.1264 -0.0702 -0.5873
  665MOL0     C91653  11.129  11.349   7.574  0.1859 -0.2282 -0.7195
  665MOL0     C91654  11.224  11.307   7.464 -0.8788  0.1077  0.4924
  665MOL0     C91655  11.266  11.154   7.469 -1.1160 -0.6094  0.5714
  665MOL0     O91656  11.366  11.145   7.574 -0.0445  0.1699 -0.2324
  665MOL0     C91657  11.477  11.070   7.569 -0.5096  1.2294  0.3017
  665MOL0     C91658  11.482  10.960   7.494  0.1432  0.1601  0.5244
  665MOL0     C91659  11.584  10.867   7.500 -0.5730 -0.6692  0.2859
  665MOL0     C91660  11.581  10.745   7.414 -0.6291 -0.6834  0.9036
  665MOL0     C91661  11.689  10.894   7.592 -0.0110  0.1567  0.3360
  665MOL0     C91662  11.810  10.811   7.595 -0.4221  0.6761  0.2955
  665MOL0     O91663  11.858  10.780   7.715 -0.2069 -0.4529  0.1269
  665MOL0     C91664  11.977  10.710   7.725 -0.0413  0.1120  1.0078
  665MOL0     C91665  12.093  10.758   7.674 -0.6610 -0.1570 -0.2136
  665MOL0     C91666  12.209  10.685   7.673  0.3216  0.7272  0.7271
  665MOL0     C91667  12.215  10.558   7.741 -0.4255 -1.3020  0.3569
  665MOL0     O91668  12.338  10.494   7.735 -0.5310  0.4738 -1.0831
  665MOL0     C91669  12.421  10.491   7.622 -0.1498  0.1980  0.3866
  665MOL0     C91670  12.487  10.365   7.609  0.1434 -0.0544 -1.2648
  665MOL0     C91671  12.586  10.345   7.720  0.3484  1.2046  0.8844
  665MOL0     C91672  12.675  10.229   7.684  0.0982  1.1758 -0.2173
  665MOL0     C91673  12.777  10.216   7.801 -0.0657  0.0207  0.2811
  665MOL0     C91674  12.868  10.095   7.761  0.2452  0.8973 -0.1370
  665MOL0     C91675  12.973  10.137   7.649  0.5108 -0.3653 -0.2037
  665MOL0     C91676  13.029  10.008   7.594  0.4385 -0.4074 -0.3517
  665MOL0    Cl91677  12.916   9.912   7.506  0.5566  0.0757  0.2734
  665MOL0     C91678  12.092  10.509   7.798  0.2019  0.1551 -0.2993
  665MOL0     C91679  11.971  10.580   7.778  0.9271 -0.0238  0.0903
  665MOL0     O91680  11.862  10.781   7.485 -0.0160  0.6716  0.5669
  665MOL0     C91681  11.682  11.014   7.671 -0.6527  0.2856  0.7040
  665MOL0     C91682  11.585  11.109   7.649 -0.3178  0.1124 -0.2798
  665MOL0     N91683  11.036  11.559   7.811 -0.3643  0.3314 -0.0552
  665MOL0     N91684  10.922  11.606   7.858 -1.0983 -0.2011  0.2000
  665MOL0     C91685  10.064  11.514   7.071  0.7991 -0.2919  0.5147
  665MOL0     C91686   9.974  11.454   6.977 -0.2611  0.4041  0.3594
  665MOL0     C91687   9.934  11.188   6.595 -0.1746  0.1489  0.4010
  665MOL0     C91688  10.020  11.177   6.480 -0.0726 -0.6762 -0.1630
  665MOL0     C91689   9.976  11.139   6.357 -0.2963 -0.1897  0.1091
  665MOL0     C91690   9.839  11.108   6.340 -0.4672 -0.5808  0.3263
  665MOL0     O91691   9.782  11.075   6.218 -0.4471 -0.3622 -0.0268
  665MOL0     C91692   9.860  11.068   6.100 -1.1284 -0.7200 -0.6813
  665MOL0     C91693   9.791  11.004   5.976 -0.2958  0.7281  0.3619
  665MOL0     C91694   9.662  11.070   5.941  0.4237 -0.4683  0.1519
  665MOL0     C91695   9.682  11.199   5.865 -0.0553 -0.0503 -0.3031
  665MOL0     C91696   9.553  11.261   5.855  0.8242 -0.6286 -0.2626
  665MOL0     C91697   9.443  11.307   5.838  0.7293  0.4502  0.3337
  665MOL0     C91698   9.760  11.108   6.454 -0.8394  0.8601  0.4545
  665MOL0     C91699   9.800  11.164   6.573 -0.1653 -0.0145 -0.8279
  665MOL0     C91700   9.700  11.180   6.684  0.7568  0.0161  0.1352
  665MOL0     H91701  10.161  11.478   6.701 -1.3076  0.1673  0.2148
  665MOL0     H91702  10.295  11.605   6.829  1.2248 -1.7535 -0.1789
  665MOL0     H91703  10.341  11.783   6.991  2.7762  2.9599  1.4330
  665MOL0     H91704  10.439  11.652   7.079  1.7705  1.6046  1.3721
  665MOL0     H91705  10.475  11.890   7.136 -2.0097  2.2078 -0.2916
  665MOL0     H91706  10.320  11.894   7.216  0.4828 -0.8965  1.9560
  665MOL0     H91707  10.376  11.677   7.341  1.2631 -2.3659  0.1485
  665MOL0     H91708  10.534  11.682   7.257 -1.5092 -0.4463 -0.9833
  665MOL0     H91709  10.578  11.905   7.371  2.4614 -1.7635  2.1023
  665MOL0     H91710  10.423  11.906   7.443 -1.7003 -1.1310 -2.7080
  665MOL0     H91711  10.639  11.697   7.486  2.0157  1.7632  2.2578
  665MOL0     H91712  10.488  11.700   7.582  1.8435 -2.8503  0.0390
  665MOL0     H91713  10.698  11.914   7.585 -0.9542  0.6597 -0.6088
  665MOL0     H91714  10.539  11.938   7.636  0.1795  0.6820  0.3501
  665MOL0     H91715  10.570  11.811   7.837 -0.2353  0.7920 -0.4320
  665MOL0     H91716  10.734  11.854   7.809 -0.9432  1.8297 -1.3530
  665MOL0     H91717  10.660  11.604   7.860 -0.2780  0.7533 -0.7581
  665MOL0     H91718  10.640  11.591   7.687 -0.4539 -1.1038  0.6048
  665MOL0     H91719  10.870  11.595   7.529  4.0692 -0.2653 -1.6185
  665MOL0     H91720  11.224  11.539   7.592 -0.5965  1.4172  0.0355
  665MOL0     H91721  11.108  11.540   7.467 -0.8294  2.1294  0.4094
  665MOL0     H91722  11.156  11.308   7.672  2.2918  0.2410 -1.0592
  665MOL0     H91723  11.032  11.303   7.552 -0.5684 -0.0535  1.8834
  665MOL0     H91724  11.170  11.321   7.370 -0.3285 -0.8011  0.0245
  665MOL0     H91725  11.311  11.373   7.474 -1.4120  0.6231  1.9867
  665MOL0     H91726  11.180  11.089   7.485 -1.4478 -0.3495 -0.1106
  665MOL0     H91727  11.320  11.141   7.374  3.4043  1.1194  2.6412
  665MOL0     H91728  11.397  10.931   7.434 -0.2213  0.7494  0.7456
  665MOL0     H91729  11.596  10.660   7.481  1.0705  0.0259  1.4754
  665MOL0     H91730  11.663  10.751   7.342  0.1378  0.8122  1.8722
  665MOL0     H91731  11.485  10.733   7.363 -1.1914  0.8814  1.5455
  665MOL0     H91732  12.070  10.846   7.615 -1.5836  1.2171  2.0300
  665MOL0     H91733  12.298  10.705   7.614 -0.8934 -2.2635 -2.4552
  665MOL0     H91734  12.367  10.493   7.527 -1.8553 -2.8165  1.1480
  665MOL0     H91735  12.493  10.573   7.618  1.1506 -0.9253  0.0172
  665MOL0     H91736  12.411  10.287   7.604  0.8820 -0.7321 -5.3780
  665MOL0     H91737  12.543  10.369   7.515  1.2888 -0.8014 -0.6286
  665MOL0     H91738  12.542  10.346   7.820 -1.9718  0.7240 -0.0579
  665MOL0     H91739  12.650  10.434   7.728  6.1109 -2.3936  1.0048
  665MOL0     H91740  12.718  10.251   7.586 -1.1670 -1.7405 -1.5618
  665MOL0     H91741  12.621  10.134   7.675 -0.5814  1.4551  0.7292
  665MOL0     H91742  12.840  10.304   7.821  1.2370 -1.2222  1.9077
  665MOL0     H91743  12.723  10.201   7.895  0.2847  0.8520  0.6255
  665MOL0     H91744  12.816  10.008   7.721  1.7343 -0.7547  1.3957
  665MOL0     H91745  12.927  10.061   7.846 -1.0818 -0.3393  0.3215
  665MOL0     H91746  13.048  10.208   7.685  1.0802 -0.9504 -0.2262
  665MOL0     H91747  12.932  10.189   7.562 -0.4839 -0.1731  0.3609
  665MOL0     H91748  13.078   9.942   7.666 -0.8947 -0.4833  0.5241
  665MOL0     H91749  13.103  10.042   7.520  0.3803 -1.2779 -0.8198
  665MOL0     H91750  12.092  10.416   7.855 -2.1147 -0.4199 -1.1357
  665MOL0     H91751  11.883  10.526   7.815  0.8358  0.3526  0.4240
  665MOL0     H91752  11.758  11.033   7.745 -0.5886 -0.8782  0.9591
  665MOL0     H91753  11.562  11.195   7.710  0.1217  0.1185 -0.1248
  665MOL0     H91754  10.039  11.520   7.176 -1.2115 -0.3496  0.0648
  665MOL0     H91755   9.894  11.393   7.019 -0.3760  3.0724  4.5519
  665MOL0     H91756  10.123  11.207   6.499 -0.8617  2.8385 -0.7960
  665MOL0     H91757  10.041  11.130   6.271 -2.4052 -0.0515 -1.5883
  665MOL0     H91758   9.887  11.168   6.067 -2.7301  0.0634  0.2139
  665MOL0     H91759   9.954  11.020   6.126 -1.0761 -0.4064 -0.2738
  665MOL0     H91760   9.781  10.896   5.987  3.5643  0.0233 -1.2514
  665MOL0     H91761   9.864  11.010   5.895  1.8231  1.1694  2.2102
  665MOL0     H91762   9.601  11.001   5.881 -0.9695  0.8185  0.0486
  665MOL0     H91763   9.603  11.083   6.032  1.1972 -1.5658  0.8388
  665MOL0     H91764   9.697  11.176   5.759 -0.5682 -1.7437 -0.0403
  665MOL0     H91765   9.761  11.266   5.899 -2.4950  3.4033 -0.9914
  665MOL0     H91766   9.345  11.337   5.807  1.6603  1.2884 -1.9650
  665MOL0     H91767   9.661  11.067   6.437 -1.0915  1.5351  0.2707
  665MOL0     H91768   9.626  11.100   6.672  1.9998 -0.9172 -1.5956
  665MOL0     H91769   9.749  11.166   6.781  1.3121 -1.1858 -0.3040
  665MOL0     H91770   9.644  11.274   6.682 -2.6228 -1.8240 -1.8074
  666MOL0     O91771  10.313   9.573   9.147 -0.1472  0.5786  0.6604
  666MOL0     C91772  10.285   9.483   9.228 -0.7137 -0.1659  0.5779
  666MOL0     O91773  10.306   9.498   9.363 -0.0222 -0.0865  0.1450
  666MOL0     C91774  10.337   9.610   9.433 -0.1597  0.5683  0.1641
  666MOL0     C91775  10.357   9.745   9.384  0.2303 -0.4839  0.6113
  666MOL0     C91776  10.379   9.862   9.469 -0.4144 -0.4333 -0.3974
  666MOL0     C91777  10.383   9.837   9.604 -0.4988  0.0311 -0.6444
  666MOL0     O91778  10.407   9.936   9.702  0.4539 -0.1554  0.5061
  666MOL0     C91779  10.455  10.070   9.676 -0.8924 -0.0553  0.4081
  666MOL0     C91780  10.495  10.150   9.805  0.4927 -0.1889  0.2113
  666MOL0     C91781  10.502  10.297   9.780 -0.9237 -0.6104 -0.6374
  666MOL0     C91782  10.643  10.351   9.820  0.8904  0.2901  0.0344
  666MOL0     C91783  10.654  10.496   9.807 -0.6257 -0.0397 -0.3953
  666MOL0     C91784  10.604  10.572   9.928 -0.4906 -0.0234  0.8502
  666MOL0     C91785  10.636  10.719   9.917 -0.4783  0.4621  0.4583
  666MOL0     C91786  10.537  10.798   9.829 -0.7973  0.1890 -0.2617
  666MOL0     N91787  10.555  10.944   9.846 -0.1718  0.4781 -0.9856
  666MOL0     C91788  10.646  11.031   9.787 -2.0528  1.0653 -0.5722
  666MOL0     C91789  10.654  11.139   9.867  0.3625 -0.7997 -0.7265
  666MOL0     C91790  10.746  11.248   9.839 -0.0660  0.1368  0.2636
  666MOL0     C91791  10.672  11.349   9.757 -0.2809 -0.6707  0.2189
  666MOL0     C91792  10.763  11.456   9.693  0.5074  0.2106 -0.4819
  666MOL0     C91793  10.843  11.400   9.573 -0.6720 -0.5630  0.7252
  666MOL0     O91794  10.743  11.380   9.468 -0.3752 -0.2117  0.2457
  666MOL0     C91795  10.776  11.296   9.366 -0.3748  0.4266 -0.3790
  666MOL0     C91796  10.676  11.238   9.293  0.5920  0.5286  0.1427
  666MOL0     C91797  10.697  11.166   9.176 -0.0697 -0.5267  0.7802
  666MOL0     C91798  10.582  11.120   9.081  0.2867  0.5093  0.4222
  666MOL0     C91799  10.839  11.156   9.131 -0.2649  0.4236 -0.3596
  666MOL0     C91800  10.869  11.081   9.008  0.9840 -0.0968 -0.1641
  666MOL0     O91801  10.861  10.949   9.023  0.1870  0.3838 -0.2066
  666MOL0     C91802  10.881  10.855   8.931  0.0558  0.0048  0.1464
  666MOL0     C91803  10.830  10.728   8.964  0.6789  0.9973 -0.5628
  666MOL0     C91804  10.838  10.621   8.876  0.3175  0.1848  0.6053
  666MOL0     C91805  10.900  10.629   8.755  0.6687 -0.4341  0.8968
  666MOL0     O91806  10.906  10.533   8.657 -0.4607  0.3847 -0.3502
  666MOL0     C91807  10.882  10.391   8.692 -0.3992  0.1791 -0.6956
  666MOL0     C91808  10.743  10.338   8.662  0.2773 -0.1604  0.0246
  666MOL0     C91809  10.707  10.324   8.512 -0.0190 -0.5852  0.3999
  666MOL0     C91810  10.599  10.212   8.494 -0.2195 -0.4932  0.8742
  666MOL0     C91811  10.673  10.069   8.489  1.2308 -0.0155 -0.0176
  666MOL0     C91812  10.558   9.966   8.484 -0.9963 -0.4920 -0.8223
  666MOL0     C91813  10.610   9.827   8.510 -0.0375  0.5237  0.0133
  666MOL0     C91814  10.684   9.773   8.383  0.5630 -0.0570 -0.6698
  666MOL0    Cl91815  10.619   9.609   8.362 -0.1138  0.6900  0.2014
  666MOL0     C91816  10.967  10.745   8.725 -0.3930 -1.1997  0.4221
  666MOL0     C91817  10.960  10.862   8.810  0.3502  0.9136  0.3533
  666MOL0     O91818  10.928  11.147   8.920  0.4934 -0.2366 -0.2430
  666MOL0     C91819  10.942  11.205   9.212  0.7621  0.0798  0.5121
  666MOL0     C91820  10.912  11.273   9.326 -0.1657 -0.3508 -0.2834
  666MOL0     N91821  10.563  11.123   9.966  0.3130 -0.0594 -0.1878
  666MOL0     N91822  10.506  11.009   9.954  0.1870  0.3480 -0.0840
  666MOL0     C91823  10.362   9.711   9.652  0.8976 -0.3156 -0.0025
  666MOL0     C91824  10.341   9.601   9.572  0.0874  0.6775  0.1631
  666MOL0     C91825  10.252   9.342   9.174  0.9316  0.4437 -0.2221
  666MOL0     C91826  10.290   9.235   9.245 -0.5159  0.0828  0.2242
  666MOL0     C91827  10.290   9.107   9.187  0.4994 -0.2293  0.1898
  666MOL0     C91828  10.229   9.086   9.062  0.6284  0.2093  0.4466
  666MOL0     O91829  10.232   8.956   9.016 -0.3470 -0.3938 -0.1390
  666MOL0     C91830  10.134   8.912   8.917 -0.3148  0.7508  0.7989
  666MOL0     C91831   9.984   8.887   8.970 -0.4184 -0.6738  0.7468
  666MOL0     C91832   9.970   8.796   9.087  0.0336 -0.6245 -0.5199
  666MOL0     C91833   9.994   8.652   9.056 -0.8854 -0.6886 -0.4255
  666MOL0     C91834   9.881   8.577   8.994  0.1491  0.7374 -1.0386
  666MOL0     C91835   9.789   8.521   8.939  0.2171  0.1629 -0.3332
  666MOL0     C91836  10.183   9.197   8.992  0.0301 -0.1815  0.1067
  666MOL0     C91837  10.196   9.330   9.046 -0.2133  0.7470 -0.7400
  666MOL0     C91838  10.142   9.436   8.949 -0.0244 -0.2366 -0.5728
  666MOL0     H91839  10.356   9.775   9.280  1.5380  0.3303  0.8201
  666MOL0     H91840  10.390   9.966   9.439  0.4849 -0.1209  0.8901
  666MOL0     H91841  10.386  10.134   9.621 -0.3554  1.4722  1.4516
  666MOL0     H91842  10.545  10.049   9.617 -1.6305  1.1067 -1.1929
  666MOL0     H91843  10.424  10.136   9.888  3.0397 -0.0796  2.5346
  666MOL0     H91844  10.594  10.119   9.840  1.1545 -1.4762 -2.5303
  666MOL0     H91845  10.493  10.307   9.671 -0.1045 -1.3204 -0.7810
  666MOL0     H91846  10.421  10.351   9.830 -1.2136 -0.0772 -1.6363
  666MOL0     H91847  10.679  10.317   9.917  2.7101 -0.8893 -1.0000
  666MOL0     H91848  10.714  10.302   9.752 -2.6085 -5.5061 -0.1287
  666MOL0     H91849  10.603  10.538   9.721 -0.6966  3.1432  1.0446
  666MOL0     H91850  10.760  10.525   9.805 -0.8172  0.6043 -1.8664
  666MOL0     H91851  10.495  10.559   9.929 -1.0478  3.0728 -1.6662
  666MOL0     H91852  10.665  10.532  10.009  1.6349  1.2748 -0.0364
  666MOL0     H91853  10.738  10.730   9.879 -0.2278  0.6500  1.1808
  666MOL0     H91854  10.633  10.762  10.017  5.6566 -2.3913  2.3487
  666MOL0     H91855  10.544  10.773   9.723  2.0154 -2.8848  0.4705
  666MOL0     H91856  10.433  10.779   9.856 -1.4035  1.5354 -1.5087
  666MOL0     H91857  10.710  11.009   9.702 -2.4630  1.0230 -0.8719
  666MOL0     H91858  10.830  11.199   9.788  0.5109  0.2976  1.0384
  666MOL0     H91859  10.783  11.285   9.935  3.0446 -2.2264  0.1392
  666MOL0     H91860  10.598  11.309   9.687 -1.1202  2.5993 -0.9463
  666MOL0     H91861  10.607  11.406   9.824 -2.5048 -0.3091 -2.0907
  666MOL0     H91862  10.702  11.539   9.654  0.2545 -0.3353 -1.2720
  666MOL0     H91863  10.808  11.511   9.776 -0.2671  0.4848 -0.2334
  666MOL0     H91864  10.909  11.475   9.530 -1.6490 -0.8456 -1.3887
  666MOL0     H91865  10.896  11.310   9.607 -2.1671 -1.3925  0.9562
  666MOL0     H91866  10.576  11.241   9.335  2.2190 -0.7552  4.6765
  666MOL0     H91867  10.617  11.137   8.979 -1.0924 -2.2127 -0.5923
  666MOL0     H91868  10.487  11.170   9.101 -1.8009 -2.6228 -0.8908
  666MOL0     H91869  10.562  11.018   9.115 -0.6046  1.0638  1.6573
  666MOL0     H91870  10.776  10.700   9.054  1.1130 -3.5501 -1.4506
  666MOL0     H91871  10.788  10.529   8.905  0.0052 -0.1321 -0.8630
  666MOL0     H91872  10.960  10.328   8.647 -1.1290 -2.2733  1.2550
  666MOL0     H91873  10.910  10.375   8.796 -0.2762  0.0797 -0.7427
  666MOL0     H91874  10.727  10.257   8.733  2.0862 -0.5082  0.0859
  666MOL0     H91875  10.674  10.401   8.717  0.5599 -1.8985  2.5334
  666MOL0     H91876  10.798  10.296   8.458  1.7180 -0.7280  3.2056
  666MOL0     H91877  10.663  10.420   8.485  0.8106  0.9067  3.8056
  666MOL0     H91878  10.545  10.241   8.404 -0.6810  3.0287  2.1395
  666MOL0     H91879  10.527  10.221   8.575 -0.5556 -0.2651  0.5515
  666MOL0     H91880  10.736  10.072   8.400  0.3854 -0.7766 -0.6744
  666MOL0     H91881  10.740  10.048   8.573  0.3010  0.5829  0.9039
  666MOL0     H91882  10.501   9.976   8.391 -1.7704  0.5584 -0.2599
  666MOL0     H91883  10.480   9.979   8.560 -1.7672 -1.4654 -1.4291
  666MOL0     H91884  10.526   9.760   8.532 -0.7076  1.8738  1.8316
  666MOL0     H91885  10.674   9.825   8.598  2.4383 -6.8607 -1.2639
  666MOL0     H91886  10.793   9.775   8.397  0.3353  1.1165  1.4215
  666MOL0     H91887  10.677   9.831   8.291  2.2428  0.6669 -0.3849
  666MOL0     H91888  11.019  10.756   8.630  0.0440  0.2071  0.7944
  666MOL0     H91889  11.020  10.946   8.779  1.1376  0.7233  1.3044
  666MOL0     H91890  11.045  11.188   9.183  1.4531  0.9461  2.2798
  666MOL0     H91891  10.989  11.330   9.375 -1.8379  0.4391  1.5722
  666MOL0     H91892  10.363   9.693   9.760 -1.0948 -3.7863 -0.4050
  666MOL0     H91893  10.339   9.505   9.622  3.3397  1.4342  2.0248
  666MOL0     H91894  10.346   9.241   9.337  0.2047 -3.4040  0.1365
  666MOL0     H91895  10.323   9.023   9.247  0.0428  0.6358  1.7185
  666MOL0     H91896  10.131   8.979   8.830  2.0417 -0.9594 -0.7278
  666MOL0     H91897  10.181   8.822   8.876  1.0084  2.0006 -0.5725
  666MOL0     H91898   9.920   8.849   8.889 -1.2721 -0.9147  1.5190
  666MOL0     H91899   9.945   8.989   8.983  2.0403  0.7892 -2.0707
  666MOL0     H91900  10.043   8.828   9.161 -0.0165 -1.9126  0.1102
  666MOL0     H91901   9.877   8.813   9.142  1.2109  0.4638  1.2116
  666MOL0     H91902  10.015   8.595   9.147  1.2811  2.7321  1.4600
  666MOL0     H91903  10.078   8.643   8.987 -0.9084 -2.1245 -0.2881
  666MOL0     H91904   9.700   8.483   8.893  0.7263 -0.0915 -1.1363
  666MOL0     H91905  10.130   9.190   8.897  2.2992  1.1598 -1.3229
  666MOL0     H91906  10.073   9.389   8.878 -0.2887 -2.9675  1.3077
  666MOL0     H91907  10.099   9.521   9.002  5.1707  2.2313  0.2979
  666MOL0     H91908  10.227   9.470   8.889  1.8639 -0.5719  1.7635
  667MOL0     O91909  10.584   5.983   0.049 -0.0570  0.1504 -0.7820
  667MOL0     C91910  10.660   5.921   0.123  0.0651  0.1892 -0.8682
  667MOL0     O91911  10.788   5.885   0.098  0.7477  0.4158  0.4988
  667MOL0     C91912  10.840   5.927  -0.017 -0.4037  0.0171  0.1153
  667MOL0     C91913  10.858   6.062  -0.039 -0.5957 -0.7414  0.4807
  667MOL0     C91914  10.913   6.112  -0.161 -0.6783 -0.1003  0.2043
  667MOL0     C91915  10.962   6.025  -0.262 -0.0365  0.8149  0.5834
  667MOL0     O91916  11.018   6.061  -0.384 -0.3588  0.2046  0.5128
  667MOL0     C91917  11.005   6.199  -0.432 -0.0944 -0.3582 -0.1354
  667MOL0     C91918  11.026   6.204  -0.582  0.3828  0.0615  0.2750
  667MOL0     C91919  11.179   6.195  -0.620 -0.0813  0.7057 -0.2562
  667MOL0     C91920  11.198   6.240  -0.759 -0.7427  0.4348 -0.6695
  667MOL0     C91921  11.327   6.190  -0.823 -0.5961 -0.0607 -0.4920
  667MOL0     C91922  11.461   6.257  -0.777 -0.3810 -0.0653  0.3610
  667MOL0     C91923  11.590   6.199  -0.840 -1.2420  0.3137 -0.3432
  667MOL0     C91924  11.680   6.306  -0.908  0.4098 -0.3644  0.5849
  667MOL0     N91925  11.752   6.394  -0.812 -0.2510  0.2958  0.4713
  667MOL0     C91926  11.857   6.469  -0.849  0.8890 -0.0623 -0.1982
  667MOL0     C91927  11.876   6.550  -0.742  0.3535  0.5566 -0.3448
  667MOL0     C91928  11.968   6.660  -0.732 -0.1155 -0.2853  0.2398
  667MOL0     C91929  12.071   6.643  -0.625  0.1483 -0.5856 -1.1521
  667MOL0     C91930  12.173   6.760  -0.648  0.4495  0.0981 -0.8012
  667MOL0     C91931  12.247   6.802  -0.516 -0.6637  0.5488  0.1493
  667MOL0     O91932  12.313   6.695  -0.446 -0.4228  0.0211  0.4061
  667MOL0     C91933  12.443   6.671  -0.480  0.4062 -0.0150 -0.4663
  667MOL0     C91934  12.483   6.631  -0.613  0.0663  0.9508 -0.3824
  667MOL0     C91935  12.615   6.620  -0.653  0.2798 -0.1956  0.0836
  667MOL0     C91936  12.646   6.565  -0.793 -0.0632  0.8015  0.0911
  667MOL0     C91937  12.722   6.644  -0.557  0.3655  0.3792  0.6595
  667MOL0     C91938  12.865   6.626  -0.589 -0.4451 -0.6410  0.0863
  667MOL0     O91939  12.956   6.669  -0.487 -0.2283 -0.3528  0.5597
  667MOL0     C91940  13.092   6.657  -0.516 -0.0416  0.0718 -0.5529
  667MOL0     C91941  13.170   6.573  -0.439 -0.6164 -1.1253  0.3250
  667MOL0     C91942  13.313   6.567  -0.453  0.2157  0.0939  1.1119
  667MOL0     C91943  13.379   6.657  -0.550  0.5611  0.8282 -0.0221
  667MOL0     O91944  13.514   6.665  -0.555  0.3126  0.1241 -0.1446
  667MOL0     C91945  13.589   6.565  -0.483  0.4412 -0.2858  0.8071
  667MOL0     C91946  13.729   6.607  -0.530  0.2408  0.3779 -0.1997
  667MOL0     C91947  13.823   6.544  -0.433 -0.7139  0.9722  0.0156
  667MOL0     C91948  13.826   6.609  -0.290  0.6871  0.3620 -0.4308
  667MOL0     C91949  13.950   6.577  -0.207 -0.2825 -0.6455  0.1845
  667MOL0     C91950  13.950   6.432  -0.161  0.0360 -0.8256 -0.7121
  667MOL0     C91951  14.060   6.405  -0.064  0.3302  0.6184 -1.2366
  667MOL0     C91952  14.046   6.462   0.078 -0.8621 -0.7549  0.4595
  667MOL0    Cl91953  13.895   6.406   0.151 -0.1108  0.3288  0.2261
  667MOL0     C91954  13.296   6.739  -0.632  0.3739  0.4628 -0.8231
  667MOL0     C91955  13.153   6.736  -0.613 -0.1756 -0.2258 -0.1588
  667MOL0     O91956  12.904   6.574  -0.692 -0.2663  0.1443  0.6444
  667MOL0     C91957  12.685   6.680  -0.418  0.5324  0.7294  0.5214
  667MOL0     C91958  12.544   6.706  -0.386 -0.8394 -0.4340  0.8212
  667MOL0     N91959  11.779   6.522  -0.653  1.3152  0.8582  0.1841
  667MOL0     N91960  11.708   6.419  -0.691  0.1788 -0.1566  0.3926
  667MOL0     C91961  10.951   5.889  -0.232 -0.2348  0.1970 -0.7607
  667MOL0     C91962  10.895   5.844  -0.119  0.3392 -0.1247 -0.1950
  667MOL0     C91963  10.597   5.883   0.251 -0.9446  0.2133 -0.6388
  667MOL0     C91964  10.663   5.802   0.344  0.2692 -0.5385  0.1599
  667MOL0     C91965  10.607   5.764   0.462 -0.2098  0.4009 -0.1029
  667MOL0     C91966  10.480   5.794   0.490  0.1050 -0.9875 -0.2018
  667MOL0     O91967  10.431   5.741   0.605  0.4656  0.2689 -0.0603
  667MOL0     C91968  10.386   5.607   0.592 -0.4147  0.3403 -1.0630
  667MOL0     C91969  10.259   5.585   0.501 -0.2594 -1.0988  0.0360
  667MOL0     C91970  10.142   5.665   0.550  1.3303 -0.6611 -0.6625
  667MOL0     C91971  10.004   5.610   0.490  0.6272  0.1220 -0.2394
  667MOL0     C91972  10.014   5.634   0.349  0.5305 -0.1397  0.0023
  667MOL0     C91973   9.997   5.653   0.226 -0.2088 -0.0324 -0.4235
  667MOL0     C91974  10.413   5.873   0.401  0.4745 -0.3103 -0.2984
  667MOL0     C91975  10.459   5.908   0.276  0.1024 -0.3369  0.4440
  667MOL0     C91976  10.352   5.966   0.184  0.2511  0.1211 -0.3456
  667MOL0     H91977  10.833   6.138   0.034 -0.7002  1.1311 -1.4067
  667MOL0     H91978  10.920   6.220  -0.157  0.5874 -0.2002  2.5761
  667MOL0     H91979  11.062   6.270  -0.373 -2.5633 -0.4415  2.5345
  667MOL0     H91980  10.901   6.231  -0.421  0.6143  1.6724  1.1836
  667MOL0     H91981  10.964   6.120  -0.617 -0.2836  0.5469  0.2781
  667MOL0     H91982  10.981   6.293  -0.626 -1.0479 -0.5931  0.3412
  667MOL0     H91983  11.225   6.244  -0.534 -1.1041 -3.0674  2.7169
  667MOL0     H91984  11.216   6.092  -0.612  0.4643  1.0371  3.3786
  667MOL0     H91985  11.115   6.199  -0.818 -0.4976 -0.7156 -0.2380
  667MOL0     H91986  11.197   6.350  -0.763 -1.8243  0.4955  0.6126
  667MOL0     H91987  11.318   6.214  -0.930  0.8412  2.3273 -0.1549
  667MOL0     H91988  11.334   6.081  -0.812 -0.5056  0.0639  0.7616
  667MOL0     H91989  11.453   6.364  -0.799  0.3339 -0.4987 -2.2478
  667MOL0     H91990  11.469   6.257  -0.667 -0.7953  0.0839  0.3908
  667MOL0     H91991  11.562   6.119  -0.909 -1.8266  0.3098 -0.1024
  667MOL0     H91992  11.651   6.151  -0.763  0.1558  1.6636 -0.5533
  667MOL0     H91993  11.753   6.256  -0.972  0.7829  0.1717  0.5882
  667MOL0     H91994  11.615   6.368  -0.970 -0.6785  1.6334  3.4862
  667MOL0     H91995  11.914   6.458  -0.941  2.6849 -0.7009  0.9476
  667MOL0     H91996  11.928   6.762  -0.737  0.6316  0.0463  0.8724
  667MOL0     H91997  12.029   6.666  -0.822 -2.0421  1.4213 -1.0531
  667MOL0     H91998  12.012   6.644  -0.533  0.9063  1.4047 -0.6297
  667MOL0     H91999  12.116   6.545  -0.643  1.1790  0.1186 -2.6430
  667MOL0     H92000  12.243   6.717  -0.721  2.2406 -0.7243  1.3118
  667MOL0     H92001  12.121   6.848  -0.687 -0.1726  1.7399  3.3056
  667MOL0     H92002  12.319   6.882  -0.536 -0.5520 -0.1171 -2.4320
  667MOL0     H92003  12.169   6.832  -0.444 -0.6499 -3.0757  1.8817
  667MOL0     H92004  12.402   6.614  -0.683 -1.0464  1.6850  0.6860
  667MOL0     H92005  12.704   6.635  -0.854 -0.6369  2.0412  0.9294
  667MOL0     H92006  12.556   6.537  -0.849  0.9754 -3.5048  0.2761
  667MOL0     H92007  12.703   6.472  -0.784 -1.1439  0.1530  0.3992
  667MOL0     H92008  13.115   6.513  -0.367 -0.0275 -0.7667  1.0846
  667MOL0     H92009  13.369   6.494  -0.395 -0.1971 -1.5791 -0.5091
  667MOL0     H92010  13.573   6.581  -0.376  1.6438  0.0787  0.9483
  667MOL0     H92011  13.573   6.464  -0.520 -0.3816  1.1306 -3.2669
  667MOL0     H92012  13.747   6.582  -0.635 -2.1023 -0.5544 -0.4511
  667MOL0     H92013  13.728   6.715  -0.513  0.1686  0.3146  0.2268
  667MOL0     H92014  13.920   6.551  -0.485 -1.8174  0.3572 -2.2873
  667MOL0     H92015  13.801   6.438  -0.416  0.2457  0.5561 -1.0985
  667MOL0     H92016  13.737   6.568  -0.242  0.0604  2.8760  0.6749
  667MOL0     H92017  13.806   6.716  -0.297 -1.1559  0.0754  0.1093
  667MOL0     H92018  14.042   6.605  -0.259 -1.6601  0.1242 -1.9566
  667MOL0     H92019  13.947   6.637  -0.115 -0.5520 -2.6592  1.5597
  667MOL0     H92020  13.970   6.374  -0.252 -3.5895 -0.4930 -1.8633
  667MOL0     H92021  13.849   6.409  -0.125 -2.3810  1.8882 -4.9370
  667MOL0     H92022  14.150   6.454  -0.103 -0.6963  3.9421  0.2549
  667MOL0     H92023  14.083   6.299  -0.054  0.7137  0.8735  1.1524
  667MOL0     H92024  14.046   6.571   0.080  1.0584 -0.6959 -0.2906
  667MOL0     H92025  14.132   6.433   0.139  0.2516  0.4177 -0.5046
  667MOL0     H92026  13.334   6.816  -0.699  0.1577  0.1244 -1.3456
  667MOL0     H92027  13.088   6.791  -0.680  0.1785  2.5465  1.5946
  667MOL0     H92028  12.751   6.680  -0.332 -0.2235 -2.8183  1.2396
  667MOL0     H92029  12.516   6.739  -0.287  4.2143  1.7320  1.8676
  667MOL0     H92030  10.989   5.814  -0.301 -0.7198 -0.6209 -0.1594
  667MOL0     H92031  10.907   5.742  -0.083  1.4331  0.3061  0.7265
  667MOL0     H92032  10.770   5.782   0.336  0.2182 -1.3944  1.2951
  667MOL0     H92033  10.665   5.703   0.531 -0.9698 -0.4490 -0.1990
  667MOL0     H92034  10.467   5.541   0.559 -0.2755 -0.5836  1.0132
  667MOL0     H92035  10.362   5.587   0.696  1.7793  0.2220 -0.5319
  667MOL0     H92036  10.229   5.480   0.498  2.8827 -2.0905 -0.2443
  667MOL0     H92037  10.285   5.603   0.396 -1.5184 -1.2540 -0.3199
  667MOL0     H92038  10.138   5.644   0.657  0.3247  0.9538 -0.3371
  667MOL0     H92039  10.150   5.774   0.542  2.3216 -0.4988  1.8016
  667MOL0     H92040   9.916   5.664   0.527  0.1401 -1.4219  0.9197
  667MOL0     H92041   9.998   5.504   0.516 -1.7512  0.6219  1.5887
  667MOL0     H92042   9.998   5.664   0.120 -0.6773  0.0921 -0.4142
  667MOL0     H92043  10.311   5.900   0.428  1.3483  2.1077  0.8091
  667MOL0     H92044  10.390   6.062   0.148 -0.1603 -0.0482 -1.2421
  667MOL0     H92045  10.343   5.889   0.108  1.8036 -0.7047  0.2611
  667MOL0     H92046  10.256   5.978   0.235  0.3606  0.8567 -0.2912
  668MOL0     O92047   3.510   7.193   3.710 -0.1749  0.0631  0.0755
  668MOL0     C92048   3.488   7.146   3.820  0.4821  0.3453  0.2241
  668MOL0     O92049   3.583   7.120   3.916  0.8751 -0.0615  0.6766
  668MOL0     C92050   3.685   7.210   3.930 -0.5645  0.3191  0.7421
  668MOL0     C92051   3.702   7.339   3.873 -0.1609  0.9033 -0.8656
  668MOL0     C92052   3.826   7.401   3.883 -0.1269 -0.1652  0.1677
  668MOL0     C92053   3.933   7.351   3.957  0.4233 -0.5148 -0.5932
  668MOL0     O92054   4.049   7.418   3.972 -0.5779 -0.5584 -0.3471
  668MOL0     C92055   4.154   7.387   3.879 -0.7207  0.2909 -0.6309
  668MOL0     C92056   4.252   7.503   3.844 -0.6452 -0.0831  0.4216
  668MOL0     C92057   4.362   7.453   3.750 -0.9310  0.1398  0.5425
  668MOL0     C92058   4.463   7.566   3.740  0.4294  0.3235  0.1999
  668MOL0     C92059   4.581   7.544   3.651  0.1411  0.1052 -0.6542
  668MOL0     C92060   4.696   7.646   3.645  0.8589  0.3676 -0.3423
  668MOL0     C92061   4.781   7.624   3.523 -0.4342  0.1840 -0.2010
  668MOL0     C92062   4.899   7.719   3.541  0.4392 -0.5267  0.0432
  668MOL0     N92063   4.970   7.729   3.414  0.0427 -0.3956  1.2586
  668MOL0     C92064   5.105   7.727   3.409  0.2512  0.4149  0.9202
  668MOL0     C92065   5.133   7.767   3.285  0.2273  0.2979  0.2565
  668MOL0     C92066   5.265   7.748   3.217  0.6609 -0.3168 -0.5291
  668MOL0     C92067   5.259   7.651   3.097  0.2234 -0.1527 -0.6103
  668MOL0     C92068   5.215   7.517   3.130  0.2866  0.4077 -0.4862
  668MOL0     C92069   5.248   7.404   3.030  0.5280  0.1714  0.2152
  668MOL0     O92070   5.384   7.360   3.030  0.4480  0.4153 -0.3538
  668MOL0     C92071   5.430   7.289   3.135  0.3517  0.4630 -0.9331
  668MOL0     C92072   5.568   7.278   3.146 -0.6453 -0.3075 -0.1083
  668MOL0     C92073   5.616   7.218   3.268 -0.4820  0.2654 -0.1755
  668MOL0     C92074   5.762   7.199   3.285 -0.5013 -0.7487  0.0822
  668MOL0     C92075   5.534   7.164   3.365  1.1169 -0.1421  0.1463
  668MOL0     C92076   5.586   7.117   3.498  0.9008  0.9446  0.1338
  668MOL0     O92077   5.648   6.994   3.510  0.1613 -0.2996 -0.2622
  668MOL0     C92078   5.684   6.947   3.636 -0.6892  0.5616 -0.0562
  668MOL0     C92079   5.814   6.965   3.685 -0.0799  1.5670  0.1890
  668MOL0     C92080   5.851   6.899   3.799 -0.5881  0.6307 -0.0036
  668MOL0     C92081   5.772   6.814   3.867  0.3526 -0.6566 -0.0882
  668MOL0     O92082   5.810   6.754   3.984  0.1939  0.3592  0.0633
  668MOL0     C92083   5.721   6.703   4.075 -0.0499 -0.3436 -0.3649
  668MOL0     C92084   5.804   6.680   4.210  0.5977 -0.1856  0.9975
  668MOL0     C92085   5.820   6.817   4.271 -0.0447 -0.7000  0.8026
  668MOL0     C92086   5.929   6.817   4.377 -0.7239 -0.3648 -0.6497
  668MOL0     C92087   6.000   6.959   4.394  0.0474 -0.1665 -0.2960
  668MOL0     C92088   6.118   6.977   4.296  0.0350 -0.3302  0.2668
  668MOL0     C92089   6.204   7.094   4.324  0.4966 -0.6303  0.0891
  668MOL0     C92090   6.270   7.143   4.192  0.0048  1.0923 -0.3887
  668MOL0    Cl92091   6.368   7.011   4.112  0.3577 -0.6628  0.4103
  668MOL0     C92092   5.643   6.797   3.812 -0.6541  0.0362  0.5983
  668MOL0     C92093   5.599   6.866   3.706  0.5920  0.1292  0.5226
  668MOL0     O92094   5.576   7.195   3.598 -0.0169 -0.0952  0.0702
  668MOL0     C92095   5.397   7.158   3.339 -0.2080 -1.2713 -0.2314
  668MOL0     C92096   5.346   7.229   3.230 -0.4957  0.5683  0.0545
  668MOL0     N92097   5.016   7.806   3.223  0.0012 -0.1950 -0.0822
  668MOL0     N92098   4.917   7.791   3.303 -0.0584 -0.1150 -0.0240
  668MOL0     C92099   3.919   7.226   4.010  0.3379  0.4957  0.2594
  668MOL0     C92100   3.791   7.160   3.999  0.0997 -0.0859  0.0573
  668MOL0     C92101   3.350   7.128   3.869 -0.2115  0.0349 -0.7822
  668MOL0     C92102   3.333   7.136   4.010 -0.2024 -0.2029  0.1779
  668MOL0     C92103   3.212   7.104   4.071 -0.5370  0.0207  0.4180
  668MOL0     C92104   3.102   7.067   3.993 -0.2492 -0.0297  0.9839
  668MOL0     O92105   2.990   7.033   4.067  0.7412  0.3957  0.9500
  668MOL0     C92106   2.867   7.037   3.991  0.0452  0.3538 -0.2233
  668MOL0     C92107   2.837   7.184   3.942 -0.0424  0.6344 -0.8251
  668MOL0     C92108   2.709   7.197   3.846  0.1155 -0.0137  1.0231
  668MOL0     C92109   2.739   7.134   3.707  0.0059  0.1496  0.3847
  668MOL0     C92110   2.835   7.218   3.624  0.0850  0.6067  0.0503
  668MOL0     C92111   2.912   7.287   3.569  0.7112 -0.5864 -0.4757
  668MOL0     C92112   3.113   7.077   3.852  0.4876 -0.3018  0.0926
  668MOL0     C92113   3.235   7.115   3.792 -0.0240 -0.1793  0.0210
  668MOL0     C92114   3.238   7.111   3.645  0.5261 -0.0118  0.1241
  668MOL0     H92115   3.618   7.387   3.823 -1.7986 -1.4016 -0.4946
  668MOL0     H92116   3.834   7.493   3.826  1.5529 -0.6949 -0.5023
  668MOL0     H92117   4.104   7.367   3.784  1.4292 -0.4856 -1.6542
  668MOL0     H92118   4.208   7.304   3.925 -2.9655  0.7933  3.3538
  668MOL0     H92119   4.192   7.580   3.795  1.7252  0.8569 -1.1818
  668MOL0     H92120   4.295   7.544   3.936 -0.9799  0.5078  0.3189
  668MOL0     H92121   4.413   7.362   3.783  1.3901  1.4173  0.6055
  668MOL0     H92122   4.318   7.443   3.650  2.2420 -1.6040 -0.8102
  668MOL0     H92123   4.417   7.657   3.702 -1.2792 -0.1000  1.1922
  668MOL0     H92124   4.494   7.581   3.844 -1.6981 -1.1390  1.1107
  668MOL0     H92125   4.541   7.525   3.551  0.3669  0.0665 -0.7392
  668MOL0     H92126   4.628   7.451   3.685 -0.3850  0.7340  1.9696
  668MOL0     H92127   4.658   7.749   3.634 -3.2200 -0.4126  3.2450
  668MOL0     H92128   4.747   7.643   3.742 -1.3728 -2.4806  0.8904
  668MOL0     H92129   4.719   7.657   3.439 -1.2742  0.9439  0.7017
  668MOL0     H92130   4.823   7.524   3.509 -0.4041  0.5122 -2.8354
  668MOL0     H92131   4.866   7.819   3.571 -0.2178 -0.7479  0.0784
  668MOL0     H92132   4.967   7.693   3.622  1.9486  0.8756 -0.7258
  668MOL0     H92133   5.177   7.690   3.482 -3.4535 -0.5641  4.4780
  668MOL0     H92134   5.339   7.715   3.291 -0.5791  0.0042  0.8947
  668MOL0     H92135   5.295   7.845   3.177  1.1548 -0.8674 -1.5371
  668MOL0     H92136   5.188   7.682   3.019  0.8250 -1.6621 -1.8182
  668MOL0     H92137   5.362   7.656   3.060  0.7540  0.4868  0.8920
  668MOL0     H92138   5.244   7.497   3.234 -4.4991  2.4022  1.5286
  668MOL0     H92139   5.107   7.506   3.138  0.3245  0.8950  0.9155
  668MOL0     H92140   5.177   7.320   3.035 -0.1256  0.7999  2.5865
  668MOL0     H92141   5.234   7.456   2.934 -0.0291  1.7578  1.1157
  668MOL0     H92142   5.634   7.325   3.074 -0.1160 -3.1815 -1.6547
  668MOL0     H92143   5.818   7.268   3.221  3.0021 -2.9658  0.4511
  668MOL0     H92144   5.796   7.097   3.261 -0.1056 -0.4383 -0.7415
  668MOL0     H92145   5.808   7.227   3.380  4.3991 -0.6357 -1.9844
  668MOL0     H92146   5.880   7.031   3.630  1.0746 -0.3326 -0.7814
  668MOL0     H92147   5.946   6.922   3.846 -0.2666  0.7807 -0.6987
  668MOL0     H92148   5.632   6.764   4.094 -1.1288 -1.8081 -0.5614
  668MOL0     H92149   5.682   6.605   4.047  0.3942 -1.2846  2.0342
  668MOL0     H92150   5.745   6.627   4.285  1.5457 -0.2627  1.6970
  668MOL0     H92151   5.898   6.629   4.188 -0.5703 -1.2229 -2.1948
  668MOL0     H92152   5.724   6.850   4.313 -1.8772 -1.4130 -2.4312
  668MOL0     H92153   5.852   6.891   4.197  0.0253 -0.7552  0.7780
  668MOL0     H92154   6.002   6.744   4.340  0.3559 -1.8412  3.8060
  668MOL0     H92155   5.889   6.793   4.476 -0.0049 -0.5027 -0.3901
  668MOL0     H92156   5.934   7.046   4.390  1.8220  1.3400  1.5185
  668MOL0     H92157   6.051   6.953   4.490  1.2061  1.8329 -0.7291
  668MOL0     H92158   6.081   6.991   4.194  1.0400 -1.4840 -0.2808
  668MOL0     H92159   6.177   6.885   4.289 -0.6805 -0.9900  2.3182
  668MOL0     H92160   6.282   7.059   4.392  1.1576  0.5542 -0.0313
  668MOL0     H92161   6.148   7.165   4.385  3.7977 -2.1758  5.6331
  668MOL0     H92162   6.313   7.241   4.208 -0.8033  1.1344  1.7963
  668MOL0     H92163   6.191   7.153   4.116 -0.0860 -3.0594 -1.1147
  668MOL0     H92164   5.577   6.722   3.854 -1.8345  1.5422  1.5531
  668MOL0     H92165   5.494   6.866   3.679  0.5780  1.6368  0.4810
  668MOL0     H92166   5.325   7.108   3.403 -0.1149 -0.1026  0.8154
  668MOL0     H92167   5.239   7.215   3.233 -0.3547 -0.4238  1.9370
  668MOL0     H92168   4.009   7.186   4.054 -0.7937 -1.3526  0.9988
  668MOL0     H92169   3.767   7.059   4.030 -1.1265  0.2508  0.2608
  668MOL0     H92170   3.415   7.173   4.071  2.2274  0.1650 -3.0089
  668MOL0     H92171   3.190   7.125   4.175 -0.9526  0.0265  0.3298
  668MOL0     H92172   2.860   6.964   3.910  1.0672 -3.0562  2.4866
  668MOL0     H92173   2.785   7.005   4.057  1.6933  0.0245  1.8011
  668MOL0     H92174   2.918   7.247   3.902 -0.0354  3.2775  2.7856
  668MOL0     H92175   2.815   7.251   4.026 -2.6025  2.6771 -2.9363
  668MOL0     H92176   2.624   7.149   3.894  0.1024  0.5713  1.6045
  668MOL0     H92177   2.672   7.299   3.835  0.1957 -0.0321  0.5271
  668MOL0     H92178   2.639   7.135   3.664  0.5139  0.6150 -0.8317
  668MOL0     H92179   2.776   7.031   3.709  1.3483  0.2994 -4.3339
  668MOL0     H92180   2.987   7.347   3.522  0.0516  0.0066 -0.7816
  668MOL0     H92181   3.026   7.051   3.793  0.8428 -2.1563  0.3193
  668MOL0     H92182   3.263   7.209   3.602 -1.6150  0.4747 -0.1586
  668MOL0     H92183   3.321   7.050   3.610  1.4335  2.7518 -3.1845
  668MOL0     H92184   3.139   7.079   3.609 -0.4666  0.4649  2.2783
  669MOL0     O92185   3.246   0.783   7.694  0.7757 -0.1873  1.0142
  669MOL0     C92186   3.163   0.872   7.721  1.2711  0.1425 -0.1195
  669MOL0     O92187   3.170   1.007   7.690  0.3581 -0.1363 -0.7369
  669MOL0     C92188   3.291   1.043   7.633  0.4774 -0.1050  0.0351
  669MOL0     C92189   3.294   1.073   7.499  1.1664 -0.4919 -0.9440
  669MOL0     C92190   3.413   1.097   7.432  0.2875  0.1452 -0.1463
  669MOL0     C92191   3.538   1.095   7.505 -0.3914 -0.1021 -0.4392
  669MOL0     O92192   3.660   1.102   7.435  0.2847 -0.4990 -0.1533
  669MOL0     C92193   3.657   1.100   7.291  1.1481 -0.0764 -0.9667
  669MOL0     C92194   3.804   1.074   7.238 -1.2639 -0.6724 -1.3563
  669MOL0     C92195   3.904   1.182   7.276 -0.3775  0.6731  0.1503
  669MOL0     C92196   4.031   1.190   7.192  0.9808  0.5830  0.2538
  669MOL0     C92197   4.141   1.271   7.256 -0.0515 -0.2607  0.5236
  669MOL0     C92198   4.103   1.406   7.288  0.2664 -0.8927 -0.1067
  669MOL0     C92199   4.226   1.491   7.325 -0.5498 -0.2680 -0.3377
  669MOL0     C92200   4.204   1.643   7.373 -0.2440  0.3725  0.2928
  669MOL0     N92201   4.325   1.725   7.402 -0.3737  0.2156  0.7733
  669MOL0     C92202   4.442   1.669   7.461 -0.4909 -0.3933 -1.0539
  669MOL0     C92203   4.530   1.769   7.453 -0.5580  0.3450  0.1115
  669MOL0     C92204   4.675   1.761   7.498  0.3328  0.6200 -0.0019
  669MOL0     C92205   4.754   1.887   7.451 -0.6013  0.8260 -0.8957
  669MOL0     C92206   4.910   1.896   7.474 -0.0440  0.0531 -1.1878
  669MOL0     C92207   4.948   1.893   7.620 -0.6066  0.2382 -0.0458
  669MOL0     O92208   5.096   1.912   7.629  0.0115  0.5366  0.0994
  669MOL0     C92209   5.155   1.859   7.737 -0.7097 -1.0168 -0.7281
  669MOL0     C92210   5.294   1.845   7.735 -0.2505  0.0429 -0.0136
  669MOL0     C92211   5.370   1.787   7.837  0.6521 -0.0207 -1.3148
  669MOL0     C92212   5.517   1.772   7.819  0.1691  0.5696  0.4959
  669MOL0     C92213   5.301   1.774   7.965  0.8764 -0.4900 -0.2064
  669MOL0     C92214   5.364   1.731   8.098  0.1200 -0.0877 -0.3325
  669MOL0     O92215   5.281   1.714   8.208  0.0152 -0.0314 -0.1745
  669MOL0     C92216   5.343   1.656   8.322 -1.4278 -0.3544  1.0229
  669MOL0     C92217   5.324   1.521   8.344  0.5630  0.4964 -0.1058
  669MOL0     C92218   5.379   1.455   8.453 -0.7382  0.5254  0.3977
  669MOL0     C92219   5.453   1.530   8.547  0.7442  0.8797 -0.1660
  669MOL0     O92220   5.510   1.475   8.659 -0.0370  0.0926  0.0358
  669MOL0     C92221   5.488   1.338   8.692 -0.0682  0.5443  0.3323
  669MOL0     C92222   5.526   1.315   8.835  0.8458  1.4833  0.4809
  669MOL0     C92223   5.512   1.167   8.871 -0.5115 -0.3267  0.1454
  669MOL0     C92224   5.583   1.127   8.996 -0.1339  1.1150 -0.3638
  669MOL0     C92225   5.555   0.978   9.028  0.5302  0.1979  0.7518
  669MOL0     C92226   5.566   0.923   9.171 -0.2533 -0.6505 -0.6273
  669MOL0     C92227   5.451   0.939   9.268 -0.6421  0.4628 -1.6209
  669MOL0     C92228   5.330   0.871   9.222  0.0008  0.5892 -0.0670
  669MOL0    Cl92229   5.243   0.973   9.105 -0.3488  0.4151 -0.1135
  669MOL0     C92230   5.467   1.674   8.523  0.3404  0.3804 -0.6915
  669MOL0     C92231   5.417   1.734   8.410 -0.2951 -0.2258 -0.4425
  669MOL0     O92232   5.486   1.733   8.104 -0.0715 -0.5724  0.4819
  669MOL0     C92233   5.159   1.794   7.966  0.8753 -0.2834  0.6026
  669MOL0     C92234   5.092   1.842   7.858  0.2334 -0.1676 -0.2299
  669MOL0     N92235   4.469   1.874   7.393 -0.5791  0.4660  0.1846
  669MOL0     N92236   4.352   1.845   7.351 -0.3910  0.3912 -0.7016
  669MOL0     C92237   3.532   1.073   7.644 -0.2374 -0.7370 -0.5393
  669MOL0     C92238   3.409   1.047   7.712  0.3063  0.1033  0.2482
  669MOL0     C92239   3.044   0.829   7.781 -0.2901 -0.1082  0.0463
  669MOL0     C92240   2.991   0.919   7.882  0.4403  0.6861  0.4896
  669MOL0     C92241   2.874   0.886   7.945  0.5989 -0.7466 -0.2263
  669MOL0     C92242   2.798   0.776   7.914  0.0900 -1.0948  0.1401
  669MOL0     O92243   2.692   0.745   8.003 -0.3039  0.3615 -0.3253
  669MOL0     C92244   2.634   0.617   7.989 -0.3631 -0.2390  0.3805
  669MOL0     C92245   2.505   0.609   8.078  0.2571  0.9888  0.1751
  669MOL0     C92246   2.548   0.604   8.228  0.1660  0.9052  0.2993
  669MOL0     C92247   2.436   0.595   8.325  0.6894  0.0484 -0.1514
  669MOL0     C92248   2.491   0.583   8.463 -0.2598 -1.0019 -0.0630
  669MOL0     C92249   2.521   0.577   8.579  0.1146  0.2304 -1.3854
  669MOL0     C92250   2.849   0.694   7.806  0.1729 -0.2435  0.6113
  669MOL0     C92251   2.974   0.713   7.747 -0.1970  0.6230  0.9368
  669MOL0     C92252   3.014   0.615   7.638  0.3983 -0.2713  0.1124
  669MOL0     H92253   3.195   1.060   7.456  0.3091 -0.6896  0.9705
  669MOL0     H92254   3.406   1.106   7.324  0.7570  4.0437  0.0151
  669MOL0     H92255   3.614   1.194   7.255  0.0025 -0.7277 -1.3535
  669MOL0     H92256   3.594   1.018   7.255  1.4059 -1.6585  1.9385
  669MOL0     H92257   3.837   0.973   7.263 -2.5349 -1.1312 -1.4655
  669MOL0     H92258   3.797   1.075   7.129  0.2308 -2.5812 -1.5267
  669MOL0     H92259   3.850   1.275   7.256 -3.4684 -0.9967  0.1156
  669MOL0     H92260   3.932   1.171   7.381 -0.5309 -2.7229 -0.0512
  669MOL0     H92261   4.067   1.087   7.196 -0.8673 -0.0658  1.2232
  669MOL0     H92262   4.000   1.214   7.090 -0.3413 -0.8012  0.2989
  669MOL0     H92263   4.226   1.280   7.187  0.2297  0.7576  0.9826
  669MOL0     H92264   4.172   1.216   7.346 -1.8982 -1.6240  0.3835
  669MOL0     H92265   4.060   1.457   7.202 -0.0615 -0.7782  0.1199
  669MOL0     H92266   4.039   1.408   7.377 -0.0466 -3.1289 -0.2237
  669MOL0     H92267   4.293   1.498   7.239  1.5147 -1.5146  1.0590
  669MOL0     H92268   4.271   1.439   7.411 -0.0307  0.7947  0.0551
  669MOL0     H92269   4.158   1.686   7.283 -1.7283 -1.7950 -0.0720
  669MOL0     H92270   4.136   1.653   7.458 -2.0492  0.1792 -1.0673
  669MOL0     H92271   4.456   1.572   7.508  2.0770  0.7842  0.8502
  669MOL0     H92272   4.723   1.668   7.465 -2.2265 -1.5551  1.9239
  669MOL0     H92273   4.679   1.751   7.606 -2.6676 -0.8158  0.0823
  669MOL0     H92274   4.736   1.917   7.348  1.6026  4.8298 -0.3461
  669MOL0     H92275   4.714   1.970   7.511 -2.1862 -0.4117 -0.1533
  669MOL0     H92276   4.960   1.811   7.427 -1.2381 -2.8601  2.3669
  669MOL0     H92277   4.941   1.996   7.442  0.5354  1.2479  2.5376
  669MOL0     H92278   4.896   1.974   7.673  2.1020  2.0680 -0.0072
  669MOL0     H92279   4.925   1.796   7.663 -0.6242 -0.4113 -1.4801
  669MOL0     H92280   5.338   1.868   7.639  0.1553  0.7663  0.3374
  669MOL0     H92281   5.549   1.668   7.825 -0.4283  0.1879 -1.9009
  669MOL0     H92282   5.561   1.824   7.904 -4.0443 -2.2035  4.8533
  669MOL0     H92283   5.549   1.814   7.722  5.8631 -0.5962  1.4949
  669MOL0     H92284   5.259   1.474   8.271  0.8952  2.6872 -1.9390
  669MOL0     H92285   5.369   1.348   8.468 -1.2957 -0.0422 -3.1544
  669MOL0     H92286   5.384   1.312   8.673 -0.2598  2.1433 -0.9932
  669MOL0     H92287   5.547   1.268   8.632 -0.2057  0.5331  0.2109
  669MOL0     H92288   5.627   1.354   8.847  1.3058  1.2720 -2.0862
  669MOL0     H92289   5.466   1.374   8.906  0.1757 -0.1090  1.2870
  669MOL0     H92290   5.540   1.106   8.785  0.2724 -1.9916  1.5123
  669MOL0     H92291   5.405   1.151   8.883 -0.2270 -1.3281  1.5696
  669MOL0     H92292   5.541   1.190   9.075 -2.2540 -0.3239 -0.2759
  669MOL0     H92293   5.690   1.149   8.990 -0.0101  0.0845 -3.4325
  669MOL0     H92294   5.459   0.942   8.991  0.8212 -1.7584  1.7581
  669MOL0     H92295   5.633   0.923   8.976  2.1770  2.0982  1.0991
  669MOL0     H92296   5.656   0.967   9.216  0.6900 -1.5056 -1.5986
  669MOL0     H92297   5.592   0.818   9.156  0.1576 -0.5637 -0.5502
  669MOL0     H92298   5.424   1.044   9.283 -0.6769  0.3634 -0.9728
  669MOL0     H92299   5.486   0.898   9.363  0.2157 -1.6353 -2.7650
  669MOL0     H92300   5.266   0.863   9.310 -0.1741  0.9571 -0.1626
  669MOL0     H92301   5.339   0.769   9.184  0.3431 -0.8365  3.4805
  669MOL0     H92302   5.517   1.731   8.601  1.1900  1.4987 -1.9861
  669MOL0     H92303   5.439   1.840   8.398  0.1764 -0.5262 -2.5959
  669MOL0     H92304   5.102   1.767   8.054 -0.8398 -0.8673 -0.6424
  669MOL0     H92305   4.984   1.848   7.868  0.3364 -1.5410  2.5516
  669MOL0     H92306   3.620   1.070   7.708 -0.3997 -3.7128 -0.3276
  669MOL0     H92307   3.412   1.034   7.819  1.1333  0.6230  0.2997
  669MOL0     H92308   3.055   0.998   7.920  0.5127  1.5871 -1.4004
  669MOL0     H92309   2.828   0.946   8.024 -1.2085 -3.5195  0.9910
  669MOL0     H92310   2.605   0.599   7.886  4.2045  1.2977 -1.4399
  669MOL0     H92311   2.691   0.531   8.026 -0.8465  0.0660  1.9493
  669MOL0     H92312   2.440   0.523   8.058 -1.8942  2.2277  1.4961
  669MOL0     H92313   2.437   0.690   8.051 -0.1835  1.0228  1.3052
  669MOL0     H92314   2.607   0.513   8.247 -0.2761  0.5758  0.1166
  669MOL0     H92315   2.619   0.681   8.260  0.9090  0.3894 -0.0631
  669MOL0     H92316   2.370   0.510   8.304  0.0433  0.5417 -0.1351
  669MOL0     H92317   2.368   0.680   8.315 -1.2349 -1.5863 -1.6688
  669MOL0     H92318   2.550   0.573   8.682  1.1594  1.0412 -1.6309
  669MOL0     H92319   2.799   0.600   7.787  1.2049 -0.5942 -0.4785
  669MOL0     H92320   2.927   0.574   7.586 -0.0803  3.5211 -2.5171
  669MOL0     H92321   3.076   0.666   7.563  0.7624 -0.0919  0.5315
  669MOL0     H92322   3.076   0.536   7.680  0.6577  0.1061  0.4472
  670MOL0     O92323   7.888   4.576   3.203 -0.1779  0.0704 -0.5445
  670MOL0     C92324   7.977   4.502   3.173 -0.3603  0.4280  0.9061
  670MOL0     O92325   8.034   4.515   3.049 -0.5661  0.2932  0.4558
  670MOL0     C92326   7.990   4.608   2.960 -0.3422 -0.2881  0.3783
  670MOL0     C92327   7.907   4.568   2.859 -0.2583  0.0460  0.1145
  670MOL0     C92328   7.857   4.661   2.763 -0.9226  0.0473  0.3994
  670MOL0     C92329   7.909   4.791   2.756 -0.1869  0.3682 -1.2307
  670MOL0     O92330   7.864   4.875   2.661 -0.6992 -0.0924  0.1521
  670MOL0     C92331   7.899   5.009   2.675 -0.8214  0.4680  0.6168
  670MOL0     C92332   7.830   5.082   2.560 -0.4608 -0.1761 -1.1469
  670MOL0     C92333   7.867   5.018   2.429 -0.4267  0.8960 -0.1032
  670MOL0     C92334   7.871   5.125   2.322  0.5201  0.3030 -0.4280
  670MOL0     C92335   7.743   5.197   2.282  0.0530  0.6016  0.1421
  670MOL0     C92336   7.731   5.230   2.130  0.6712  1.0551 -0.4173
  670MOL0     C92337   7.597   5.284   2.085  0.2009  0.1082 -0.9329
  670MOL0     C92338   7.509   5.174   2.021  0.1505 -0.4012  0.7783
  670MOL0     N92339   7.369   5.234   2.011  0.3460  0.3088 -0.1318
  670MOL0     C92340   7.258   5.157   2.044  0.7764 -0.7492  0.3123
  670MOL0     C92341   7.160   5.242   2.038 -0.0418  0.3471  0.5646
  670MOL0     C92342   7.018   5.214   2.075  0.4372 -0.3559  0.4114
  670MOL0     C92343   6.933   5.319   2.150 -0.9423  1.0438 -0.4733
  670MOL0     C92344   6.810   5.254   2.212 -0.3274 -0.2725  0.1639
  670MOL0     C92345   6.721   5.330   2.312 -0.3790  1.0099  0.4153
  670MOL0     O92346   6.795   5.379   2.426  0.0431 -0.2184  0.2946
  670MOL0     C92347   6.826   5.280   2.524 -0.1827 -0.1702 -0.2120
  670MOL0     C92348   6.912   5.330   2.625  0.1633 -0.0573  0.3548
  670MOL0     C92349   6.969   5.245   2.725  0.5248 -0.9602  0.0514
  670MOL0     C92350   7.062   5.318   2.818 -0.5628  0.8984  0.2028
  670MOL0     C92351   6.933   5.109   2.732  0.8430 -0.8464  1.0282
  670MOL0     C92352   6.981   5.026   2.847  1.2489 -0.0493  1.1210
  670MOL0     O92353   7.107   5.042   2.887 -0.1122 -0.1081  0.1434
  670MOL0     C92354   7.148   4.969   2.995  0.5151 -0.2872 -0.4160
  670MOL0     C92355   7.227   4.857   2.978 -0.6013 -0.0563 -0.0419
  670MOL0     C92356   7.256   4.763   3.086 -1.0164 -0.0393 -0.4083
  670MOL0     C92357   7.211   4.796   3.214 -0.0087 -0.1047 -0.3475
  670MOL0     O92358   7.255   4.734   3.329 -0.1180 -0.0760  0.4453
  670MOL0     C92359   7.365   4.644   3.328 -0.5969 -0.8295  0.7039
  670MOL0     C92360   7.308   4.502   3.314  0.4268  0.7639  0.7762
  670MOL0     C92361   7.440   4.419   3.337  0.2431 -0.1504  0.1538
  670MOL0     C92362   7.409   4.272   3.375  0.4249 -0.1915  0.1867
  670MOL0     C92363   7.498   4.218   3.485  0.7209 -0.4002  0.6109
  670MOL0     C92364   7.466   4.074   3.526  0.2054 -0.0320  0.2921
  670MOL0     C92365   7.515   4.044   3.665  1.2043 -0.3730 -0.6368
  670MOL0     C92366   7.655   4.071   3.705 -0.5042  0.0734  0.6645
  670MOL0    Cl92367   7.673   4.041   3.881 -0.2937  0.0443 -0.2675
  670MOL0     C92368   7.141   4.914   3.233  0.4937  0.5431  0.0797
  670MOL0     C92369   7.104   4.994   3.129  0.2284  0.1971  0.0852
  670MOL0     O92370   6.903   4.945   2.893 -0.3215  0.8847  0.1289
  670MOL0     C92371   6.846   5.058   2.634  0.4890 -0.1066  0.5267
  670MOL0     C92372   6.789   5.148   2.536 -0.4866  1.2376  0.9411
  670MOL0     N92373   7.213   5.370   2.004 -0.0095  0.5551 -0.1261
  670MOL0     N92374   7.337   5.360   1.992  0.2598 -0.4549  0.0368
  670MOL0     C92375   8.000   4.829   2.859 -0.9628 -0.0383  0.2250
  670MOL0     C92376   8.030   4.738   2.959 -0.2400 -0.5855  0.4783
  670MOL0     C92377   8.020   4.393   3.262  0.3086 -0.3763 -0.6259
  670MOL0     C92378   8.142   4.330   3.227  0.3331 -0.2674  0.5293
  670MOL0     C92379   8.191   4.212   3.298  0.6281 -0.1931 -0.0169
  670MOL0     C92380   8.109   4.151   3.403 -0.0735 -1.0225 -0.2113
  670MOL0     O92381   8.166   4.045   3.472 -0.5555 -0.4701 -0.5977
  670MOL0     C92382   8.078   3.981   3.572 -0.7339 -0.0361  0.2702
  670MOL0     C92383   8.100   3.825   3.588  0.3132  0.1394 -0.2812
  670MOL0     C92384   8.200   3.775   3.699  0.1992  0.3487 -0.0803
  670MOL0     C92385   8.334   3.852   3.708 -0.3107  0.1463 -0.6105
  670MOL0     C92386   8.406   3.793   3.825  0.7143 -0.9533  0.2813
  670MOL0     C92387   8.467   3.745   3.913 -0.5268 -0.3774  0.1538
  670MOL0     C92388   7.992   4.226   3.433  0.3523  0.5258  0.8219
  670MOL0     C92389   7.942   4.344   3.372 -0.7405  0.0779  0.1974
  670MOL0     C92390   7.827   4.417   3.430  0.2676 -0.3714 -0.1691
  670MOL0     H92391   7.854   4.474   2.867 -2.4601  1.1320 -0.7639
  670MOL0     H92392   7.786   4.619   2.693  2.5722 -3.3427 -1.4595
  670MOL0     H92393   8.008   5.024   2.678 -0.6182 -0.9516  1.6256
  670MOL0     H92394   7.853   5.044   2.768 -1.2762 -0.8582  0.9076
  670MOL0     H92395   7.724   5.064   2.578  0.0204 -2.9596 -0.6104
  670MOL0     H92396   7.858   5.188   2.567  1.1205 -0.5960 -0.5479
  670MOL0     H92397   7.957   4.955   2.432 -2.5340 -2.3590  1.6759
  670MOL0     H92398   7.783   4.953   2.404 -0.0712  0.4168 -0.0645
  670MOL0     H92399   7.947   5.198   2.352  0.4978 -0.4789  1.7178
  670MOL0     H92400   7.909   5.080   2.230 -0.0977 -0.3845 -0.3559
  670MOL0     H92401   7.720   5.284   2.343 -0.0233 -0.5641  1.8310
  670MOL0     H92402   7.662   5.126   2.298  0.2712 -0.5151 -3.0069
  670MOL0     H92403   7.802   5.312   2.121  0.2239  1.8564  2.3720
  670MOL0     H92404   7.752   5.142   2.067  1.8444  1.9702 -1.3483
  670MOL0     H92405   7.616   5.359   2.008  1.2921 -0.1142 -0.9018
  670MOL0     H92406   7.538   5.334   2.162 -1.0002 -0.0269 -1.7469
  670MOL0     H92407   7.549   5.149   1.923 -0.5272  4.6779 -1.1059
  670MOL0     H92408   7.501   5.083   2.080 -0.9961 -1.2378 -0.6221
  670MOL0     H92409   7.243   5.062   2.094  2.0385 -0.4458  1.3118
  670MOL0     H92410   7.027   5.127   2.141  2.0189 -1.8118 -1.5843
  670MOL0     H92411   6.953   5.190   1.990 -0.4504  3.4100 -0.1727
  670MOL0     H92412   6.996   5.377   2.218  2.1874 -0.0281 -2.2362
  670MOL0     H92413   6.895   5.384   2.071 -1.6265 -2.9338 -3.7617
  670MOL0     H92414   6.751   5.207   2.132  0.7908  2.4032 -2.4275
  670MOL0     H92415   6.849   5.171   2.271 -0.4255 -0.5605 -0.1700
  670MOL0     H92416   6.676   5.411   2.253 -0.2685 -0.1918 -1.4122
  670MOL0     H92417   6.644   5.262   2.351 -0.3568 -0.0548 -1.2397
  670MOL0     H92418   6.951   5.431   2.617  0.7789 -0.2899  0.3584
  670MOL0     H92419   7.048   5.282   2.920  0.8108  3.2317  1.2887
  670MOL0     H92420   7.050   5.426   2.826  0.6183  1.1191 -0.6839
  670MOL0     H92421   7.163   5.299   2.781 -1.3908 -2.8389 -0.5965
  670MOL0     H92422   7.250   4.818   2.879  1.8895  0.4195  0.2883
  670MOL0     H92423   7.310   4.672   3.063 -0.0360  1.1934 -3.6435
  670MOL0     H92424   7.434   4.664   3.245 -3.5197 -0.0570 -1.7239
  670MOL0     H92425   7.413   4.660   3.425 -2.0223  3.3030  0.9508
  670MOL0     H92426   7.233   4.478   3.389  1.5430 -0.7084  1.4775
  670MOL0     H92427   7.269   4.489   3.212 -0.0541  2.9484  0.6332
  670MOL0     H92428   7.491   4.465   3.422 -0.8725 -0.6025  1.0886
  670MOL0     H92429   7.504   4.424   3.248 -0.8654  1.0886 -0.5974
  670MOL0     H92430   7.424   4.204   3.291  0.3888 -0.0193  0.0395
  670MOL0     H92431   7.305   4.265   3.408  0.7716 -0.6052  1.2206
  670MOL0     H92432   7.602   4.226   3.450  1.6150 -0.5204  3.0156
  670MOL0     H92433   7.485   4.286   3.570 -2.0756  0.8226 -0.6518
  670MOL0     H92434   7.521   4.003   3.464 -1.9956 -0.8585 -0.8176
  670MOL0     H92435   7.360   4.053   3.510  0.1744  0.1522  0.2502
  670MOL0     H92436   7.504   3.939   3.695  0.8993 -0.3149 -0.5414
  670MOL0     H92437   7.443   4.095   3.730  1.7481 -2.6230  1.9348
  670MOL0     H92438   7.672   4.176   3.681 -3.5085  0.3092 -0.9216
  670MOL0     H92439   7.722   4.004   3.650  1.8311  2.1497  0.7816
  670MOL0     H92440   7.125   4.946   3.335  3.2502 -2.6198  1.6998
  670MOL0     H92441   7.055   5.088   3.152  1.7204  0.8414  0.7901
  670MOL0     H92442   6.822   4.952   2.644  1.9735 -0.2780  3.7350
  670MOL0     H92443   6.712   5.112   2.468 -0.7442  2.0645  0.7760
  670MOL0     H92444   8.044   4.929   2.861  0.0577 -0.2169 -3.7858
  670MOL0     H92445   8.093   4.775   3.040  3.8586 -1.0855 -2.1820
  670MOL0     H92446   8.196   4.373   3.143  0.8784 -3.7985 -1.0963
  670MOL0     H92447   8.277   4.156   3.263 -0.1523 -0.5124 -1.5111
  670MOL0     H92448   8.088   4.021   3.673  1.7527 -0.6576  0.3418
  670MOL0     H92449   7.977   3.996   3.533 -0.0338  1.7003 -0.9934
  670MOL0     H92450   8.124   3.792   3.486 -0.6062 -1.4749 -0.0101
  670MOL0     H92451   8.003   3.778   3.611  1.7182 -1.8875  1.9323
  670MOL0     H92452   8.154   3.783   3.798  2.0576 -2.3674  1.1267
  670MOL0     H92453   8.221   3.668   3.691 -2.4067 -0.4167  2.0155
  670MOL0     H92454   8.333   3.961   3.719  1.7422  0.2857 -1.4059
  670MOL0     H92455   8.392   3.832   3.617  0.1174  2.4725 -0.9151
  670MOL0     H92456   8.520   3.715   4.002  2.6874  0.9716 -1.1498
  670MOL0     H92457   7.940   4.197   3.525  1.0934  3.6076  2.3349
  670MOL0     H92458   7.778   4.353   3.504 -0.8497  2.0872  1.3538
  670MOL0     H92459   7.846   4.515   3.474 -0.7422  0.6258 -1.8216
  670MOL0     H92460   7.755   4.435   3.349  0.0897 -1.5384 -0.2838
  671MOL0     O92461   2.009   3.200   4.803  0.6315  0.5151 -0.4046
  671MOL0     C92462   2.102   3.135   4.858  0.5993 -0.3305 -0.3511
  671MOL0     O92463   2.098   3.099   4.992  1.0938  0.3779  0.1466
  671MOL0     C92464   2.004   3.164   5.059  0.6049  0.2817 -0.2758
  671MOL0     C92465   2.029   3.277   5.143  0.1442  0.5386  0.6975
  671MOL0     C92466   1.927   3.338   5.210 -0.6316  0.1168 -0.7967
  671MOL0     C92467   1.787   3.290   5.212 -0.9188 -0.2063 -0.8644
  671MOL0     O92468   1.707   3.358   5.290  0.8225 -0.0673 -0.4229
  671MOL0     C92469   1.572   3.313   5.305 -0.7312  0.0899 -0.3106
  671MOL0     C92470   1.490   3.376   5.422  0.4162 -0.5423 -0.8403
  671MOL0     C92471   1.465   3.523   5.393 -0.3005  0.4464 -0.6379
  671MOL0     C92472   1.434   3.609   5.516 -0.5831  0.2107  0.0238
  671MOL0     C92473   1.333   3.554   5.620  0.4060  0.1574 -0.1101
  671MOL0     C92474   1.198   3.544   5.553  0.3606 -0.3314  0.6407
  671MOL0     C92475   1.097   3.504   5.660  0.2003 -0.6987 -0.3131
  671MOL0     C92476   0.960   3.475   5.616 -0.5855  0.0010 -0.1432
  671MOL0     N92477   0.891   3.600   5.568 -0.1518  0.6195 -0.4433
  671MOL0     C92478   0.857   3.626   5.443 -0.4169  0.6218  0.0524
  671MOL0     C92479   0.808   3.750   5.431  0.4940 -0.5004 -0.6075
  671MOL0     C92480   0.746   3.826   5.313 -0.6013  0.2141  0.5884
  671MOL0     C92481   0.859   3.922   5.253  0.1414 -0.0748 -0.4687
  671MOL0     C92482   0.815   4.008   5.129  0.4961  0.2016 -0.1218
  671MOL0     C92483   0.741   3.929   5.015 -0.3980 -0.3531  0.5440
  671MOL0     O92484   0.686   4.017   4.912 -0.0785 -0.1625  0.1178
  671MOL0     C92485   0.784   4.078   4.843 -0.1521  0.6212  0.1341
  671MOL0     C92486   0.902   4.028   4.782  0.2474  0.1214 -0.1863
  671MOL0     C92487   1.010   4.110   4.742 -0.1226 -0.0804  0.5061
  671MOL0     C92488   1.139   4.047   4.690 -0.5411  0.4978 -0.2889
  671MOL0     C92489   1.005   4.252   4.760  1.0674 -0.5266  0.5233
  671MOL0     C92490   1.103   4.357   4.711  0.5087 -0.2417  0.4195
  671MOL0     O92491   1.076   4.488   4.744 -0.3374  0.4357 -0.1624
  671MOL0     C92492   1.170   4.587   4.724 -0.3716  0.2197 -0.6128
  671MOL0     C92493   1.260   4.639   4.825  0.1388 -0.3665 -0.0761
  671MOL0     C92494   1.345   4.738   4.787 -1.0551  0.4110 -0.7003
  671MOL0     C92495   1.346   4.793   4.661 -0.0266  0.4249  0.1565
  671MOL0     O92496   1.434   4.891   4.619 -0.1729 -0.4295  0.3549
  671MOL0     C92497   1.495   4.969   4.723 -0.3298  0.9066 -0.5259
  671MOL0     C92498   1.612   5.046   4.657  0.4631 -0.0158 -0.2191
  671MOL0     C92499   1.668   5.163   4.751 -0.9677 -0.2761  0.1302
  671MOL0     C92500   1.569   5.285   4.770 -0.1224  0.9332 -0.6430
  671MOL0     C92501   1.631   5.422   4.726 -0.8300  0.4609  0.1984
  671MOL0     C92502   1.714   5.420   4.603 -0.4652 -1.0330  0.7776
  671MOL0     C92503   1.726   5.565   4.564 -0.2467  0.4897 -0.9351
  671MOL0     C92504   1.817   5.581   4.441  0.8739  0.8749  0.3213
  671MOL0    Cl92505   1.987   5.598   4.486 -0.2012  0.0553 -0.2704
  671MOL0     C92506   1.256   4.748   4.560 -0.2205  0.8302 -0.4612
  671MOL0     C92507   1.169   4.644   4.598 -0.1650  0.2252 -0.3695
  671MOL0     O92508   1.200   4.327   4.641 -0.1659  0.3359 -0.1016
  671MOL0     C92509   0.881   4.301   4.809 -0.4229 -0.1433 -0.6806
  671MOL0     C92510   0.777   4.216   4.849  0.8648  0.4657  0.4819
  671MOL0     N92511   0.808   3.805   5.554 -0.1142 -0.4475 -0.8054
  671MOL0     N92512   0.861   3.713   5.633 -0.6942  0.2875  0.1705
  671MOL0     C92513   1.771   3.173   5.139 -0.5187 -0.1812  0.0311
  671MOL0     C92514   1.875   3.121   5.064 -0.3972  0.4216  0.2963
  671MOL0     C92515   2.203   3.070   4.772  0.5388  1.5198  0.3264
  671MOL0     C92516   2.265   2.950   4.818 -0.3734 -1.2237  0.0680
  671MOL0     C92517   2.341   2.865   4.743 -0.6776  0.8023  0.3087
  671MOL0     C92518   2.365   2.898   4.608  0.4818  0.5805 -0.3685
  671MOL0     O92519   2.428   2.807   4.532 -0.5834  0.9811  0.0684
  671MOL0     C92520   2.353   2.744   4.425  0.5613  0.2612 -0.1018
  671MOL0     C92521   2.303   2.598   4.459 -0.1169  0.9414 -0.6472
  671MOL0     C92522   2.251   2.527   4.332 -0.4383 -0.9329  1.4651
  671MOL0     C92523   2.258   2.380   4.345 -0.0276  0.0815  0.3641
  671MOL0     C92524   2.206   2.312   4.461 -0.4063  0.0420 -0.4027
  671MOL0     C92525   2.161   2.247   4.553 -0.0374 -0.7148 -0.0745
  671MOL0     C92526   2.310   3.018   4.565  1.7372  0.0914 -0.9235
  671MOL0     C92527   2.231   3.101   4.641 -0.5050 -0.0265  0.8823
  671MOL0     C92528   2.180   3.223   4.576 -0.0842 -0.1878 -0.4404
  671MOL0     H92529   2.127   3.319   5.166  0.1563  1.2991 -0.6350
  671MOL0     H92530   1.933   3.431   5.265 -2.1288  0.7023 -1.5901
  671MOL0     H92531   1.572   3.208   5.334  0.0383  0.0547 -0.4087
  671MOL0     H92532   1.516   3.331   5.212 -1.1198 -2.2851 -0.5835
  671MOL0     H92533   1.393   3.327   5.419 -1.0286  2.1081 -0.0751
  671MOL0     H92534   1.549   3.363   5.514  0.5875  0.8860 -0.7377
  671MOL0     H92535   1.547   3.561   5.330 -0.8698 -0.1275 -1.7651
  671MOL0     H92536   1.370   3.533   5.340 -0.2530 -0.9075 -1.0119
  671MOL0     H92537   1.527   3.619   5.572 -0.5889  4.0641 -0.3546
  671MOL0     H92538   1.400   3.708   5.484 -2.9623 -0.7855 -0.8245
  671MOL0     H92539   1.340   3.625   5.703  1.0772 -1.1616  0.9976
  671MOL0     H92540   1.364   3.455   5.654  1.0067 -0.0009 -1.0702
  671MOL0     H92541   1.169   3.642   5.513 -0.5239 -1.1995 -0.9828
  671MOL0     H92542   1.193   3.475   5.468 -3.2568 -0.6379  0.9399
  671MOL0     H92543   1.091   3.584   5.733  0.0728 -2.0274  1.1974
  671MOL0     H92544   1.133   3.416   5.713 -0.0793 -0.3790  0.4108
  671MOL0     H92545   0.966   3.400   5.537  2.4451 -0.2039  0.1592
  671MOL0     H92546   0.904   3.441   5.703 -0.9342  0.1897 -0.2920
  671MOL0     H92547   0.878   3.550   5.369 -3.0105  2.5499 -2.9484
  671MOL0     H92548   0.657   3.878   5.348 -1.0962 -0.7177  0.7427
  671MOL0     H92549   0.714   3.758   5.234  1.9261 -0.2775 -0.1255
  671MOL0     H92550   0.878   3.991   5.336 -1.4343  0.6149 -0.6416
  671MOL0     H92551   0.942   3.852   5.240 -0.1789 -0.9135  1.5577
  671MOL0     H92552   0.756   4.092   5.166  1.2491  0.3578  0.7689
  671MOL0     H92553   0.911   4.051   5.101  0.0619  2.6649  1.8286
  671MOL0     H92554   0.812   3.856   4.975 -0.4659 -0.1534  0.0503
  671MOL0     H92555   0.660   3.872   5.060  1.0250 -3.1985 -0.2425
  671MOL0     H92556   0.913   3.920   4.783 -3.6464 -0.4286 -0.6664
  671MOL0     H92557   1.149   4.054   4.581  0.0570  0.9741 -0.2098
  671MOL0     H92558   1.147   3.939   4.704  2.8575  0.5090 -1.1579
  671MOL0     H92559   1.220   4.082   4.755 -1.7732 -1.6175  2.5902
  671MOL0     H92560   1.251   4.605   4.928 -0.0960  1.0602  0.4043
  671MOL0     H92561   1.403   4.770   4.873 -0.6366 -1.1647 -0.3609
  671MOL0     H92562   1.426   5.045   4.761 -0.9240  0.0750  0.1036
  671MOL0     H92563   1.527   4.914   4.812 -2.5088  2.3401  1.2687
  671MOL0     H92564   1.690   4.983   4.613  0.1125  0.5793 -1.7562
  671MOL0     H92565   1.580   5.086   4.560 -0.3161 -2.3548 -0.9732
  671MOL0     H92566   1.768   5.193   4.720 -0.4008 -1.7480  0.4419
  671MOL0     H92567   1.701   5.112   4.842  4.1859  0.0880 -1.2110
  671MOL0     H92568   1.535   5.294   4.873 -0.4526  0.6655 -0.7275
  671MOL0     H92569   1.474   5.272   4.718 -0.8215  2.3686  0.1876
  671MOL0     H92570   1.549   5.494   4.716 -1.4068 -0.4552 -2.6326
  671MOL0     H92571   1.696   5.450   4.809  0.4415  1.0146 -0.9414
  671MOL0     H92572   1.645   5.377   4.529 -3.5118 -0.0120  2.8077
  671MOL0     H92573   1.809   5.369   4.616 -0.0025 -0.2448  0.5530
  671MOL0     H92574   1.774   5.623   4.643 -0.4081 -1.2367  0.5026
  671MOL0     H92575   1.626   5.596   4.533  0.7425  1.4967 -3.3596
  671MOL0     H92576   1.788   5.677   4.395  4.2587  1.1674 -1.5654
  671MOL0     H92577   1.805   5.503   4.366  1.9932  0.4340  0.5756
  671MOL0     H92578   1.264   4.793   4.461 -0.3647  1.2889 -0.2698
  671MOL0     H92579   1.110   4.590   4.524  1.4063 -0.5117 -1.1561
  671MOL0     H92580   0.872   4.407   4.832 -1.2180 -0.2803 -0.3417
  671MOL0     H92581   0.691   4.257   4.901 -0.9588 -1.9941 -0.4330
  671MOL0     H92582   1.674   3.125   5.130 -1.4884  1.6712  0.2301
  671MOL0     H92583   1.852   3.041   4.995 -0.5114 -1.0169  1.9491
  671MOL0     H92584   2.255   2.928   4.924 -3.1017  1.7341  0.5967
  671MOL0     H92585   2.382   2.780   4.796 -1.4160 -0.4233 -1.0081
  671MOL0     H92586   2.272   2.805   4.384  0.5513  0.2170 -0.1471
  671MOL0     H92587   2.434   2.737   4.352  1.2252 -0.6048  0.6778
  671MOL0     H92588   2.238   2.594   4.547  0.1676  1.4465 -0.4088
  671MOL0     H92589   2.388   2.539   4.492 -0.0027  1.0946 -0.6652
  671MOL0     H92590   2.153   2.564   4.300 -0.7074 -1.3502  1.7992
  671MOL0     H92591   2.320   2.562   4.255  1.2642 -4.9476  0.9353
  671MOL0     H92592   2.363   2.358   4.323 -0.2385 -0.2263 -0.3424
  671MOL0     H92593   2.201   2.336   4.263 -0.3994 -1.0296  1.2059
  671MOL0     H92594   2.128   2.198   4.643 -0.8548 -1.2829 -0.6679
  671MOL0     H92595   2.332   3.039   4.461 -3.9122 -0.8394 -2.6052
  671MOL0     H92596   2.182   3.309   4.644  1.8566 -1.5375  1.3058
  671MOL0     H92597   2.238   3.251   4.488 -2.1943 -0.0316 -1.8651
  671MOL0     H92598   2.076   3.208   4.544 -0.5075  2.2969 -0.4360
  672MOL0     O92599   9.459   0.264   1.169 -0.2276 -0.2578 -0.7455
  672MOL0     C92600   9.527   0.283   1.267 -0.4515 -1.0981  0.0836
  672MOL0     O92601   9.491   0.366   1.370 -0.1880  0.2117 -0.3556
  672MOL0     C92602   9.368   0.430   1.368 -0.9544  0.3753 -1.0814
  672MOL0     C92603   9.372   0.560   1.352 -0.1597 -0.9464 -0.0932
  672MOL0     C92604   9.249   0.635   1.381 -0.1144  0.2491 -0.0218
  672MOL0     C92605   9.136   0.566   1.426  0.2088 -0.1891  0.4965
  672MOL0     O92606   9.015   0.634   1.433  0.1654 -0.4057  0.1619
  672MOL0     C92607   8.940   0.593   1.318 -0.2108  0.4458 -0.1284
  672MOL0     C92608   8.827   0.693   1.313  0.7716  0.5112 -1.6417
  672MOL0     C92609   8.730   0.669   1.196  0.7268 -0.5378 -0.0110
  672MOL0     C92610   8.813   0.678   1.063  0.1772 -0.1068 -0.7648
  672MOL0     C92611   8.729   0.711   0.942 -0.4609  0.6582  0.1255
  672MOL0     C92612   8.729   0.861   0.914  0.5147 -0.5092  0.1494
  672MOL0     C92613   8.614   0.912   0.822  0.4077  0.2469  0.5162
  672MOL0     C92614   8.475   0.909   0.893 -0.2742  1.1429  0.4215
  672MOL0     N92615   8.468   0.986   1.014 -0.2346  0.2275  0.2840
  672MOL0     C92616   8.450   1.122   1.011 -0.2556 -0.0754  0.2416
  672MOL0     C92617   8.458   1.168   1.141 -0.2736  0.0490 -0.6202
  672MOL0     C92618   8.456   1.312   1.171 -0.2061 -0.0994 -0.1268
  672MOL0     C92619   8.517   1.334   1.314  0.3244 -0.0372 -0.0586
  672MOL0     C92620   8.493   1.479   1.368  0.9233 -0.0435  0.4510
  672MOL0     C92621   8.615   1.569   1.368 -0.4718 -0.0448 -0.3150
  672MOL0     O92622   8.592   1.700   1.427 -0.0083 -0.3598  0.5221
  672MOL0     C92623   8.560   1.719   1.557 -0.8464 -0.0766  0.0796
  672MOL0     C92624   8.591   1.634   1.666 -0.0205 -0.8607  0.1794
  672MOL0     C92625   8.533   1.657   1.798  0.7413  1.0342  0.1408
  672MOL0     C92626   8.565   1.555   1.905  0.9877 -0.4526  0.2510
  672MOL0     C92627   8.450   1.767   1.827  0.0874 -0.6770 -0.1596
  672MOL0     C92628   8.375   1.794   1.947 -0.1376  0.5063  0.4126
  672MOL0     O92629   8.241   1.806   1.932 -0.0726 -0.2425  1.0272
  672MOL0     C92630   8.166   1.819   2.044  0.2470 -0.8126  0.0206
  672MOL0     C92631   8.179   1.938   2.113 -0.6333 -0.0954 -0.5368
  672MOL0     C92632   8.112   1.951   2.235  1.5285  0.8679  0.1210
  672MOL0     C92633   8.033   1.837   2.282 -0.6409  0.3142  0.0472
  672MOL0     O92634   7.963   1.847   2.395  0.5257  0.0266 -0.1050
  672MOL0     C92635   7.904   1.976   2.444 -0.5570  0.6523  1.0557
  672MOL0     C92636   7.875   1.961   2.591  0.0094 -0.1351 -0.1100
  672MOL0     C92637   7.969   1.878   2.680  0.3175  0.6805  0.0236
  672MOL0     C92638   8.107   1.944   2.690 -0.6974  0.1913  0.8010
  672MOL0     C92639   8.193   1.862   2.790 -0.0799  0.2050 -0.9854
  672MOL0     C92640   8.135   1.839   2.932 -0.5244  0.1730  0.3570
  672MOL0     C92641   8.254   1.808   3.031  0.3215 -0.1611 -0.2352
  672MOL0     C92642   8.304   1.665   3.024  0.3123  0.4264 -0.5507
  672MOL0    Cl92643   8.459   1.653   3.131  0.1961  0.7078 -0.0126
  672MOL0     C92644   8.037   1.715   2.217  0.3064 -0.6890  0.0597
  672MOL0     C92645   8.091   1.710   2.090 -0.6859 -0.3572 -0.0861
  672MOL0     O92646   8.431   1.786   2.053 -0.7972  0.4288  0.8366
  672MOL0     C92647   8.423   1.851   1.715 -1.1591  1.4960 -0.2764
  672MOL0     C92648   8.469   1.819   1.587 -1.0651 -0.5806  0.6745
  672MOL0     N92649   8.476   1.050   1.221  0.0969 -0.2580 -0.5374
  672MOL0     N92650   8.471   0.945   1.140 -0.8366 -0.3800 -0.9733
  672MOL0     C92651   9.141   0.437   1.448  0.0574  0.0469  0.3355
  672MOL0     C92652   9.258   0.363   1.423  0.6295 -0.8135  0.0372
  672MOL0     C92653   9.668   0.234   1.262  0.1952 -0.5043  0.0613
  672MOL0     C92654   9.758   0.290   1.356 -0.4995 -1.0557  0.3572
  672MOL0     C92655   9.888   0.249   1.376  0.1657 -0.1861 -0.0899
  672MOL0     C92656   9.940   0.159   1.284  0.0256  0.2368  0.7032
  672MOL0     O92657  10.075   0.131   1.291 -0.0431 -0.1141 -0.2321
  672MOL0     C92658  10.147   0.148   1.173 -0.5290 -0.4706  0.3087
  672MOL0     C92659  10.263   0.046   1.192 -0.3560 -0.1083  0.3847
  672MOL0     C92660  10.389   0.091   1.115 -0.6810  1.3033  0.0622
  672MOL0     C92661  10.493   0.162   1.206  0.1793  0.3336  0.0064
  672MOL0     C92662  10.633   0.174   1.151  0.0480 -0.3585 -0.5233
  672MOL0     C92663  10.741   0.167   1.093 -0.5346 -0.1082 -0.9775
  672MOL0     C92664   9.858   0.096   1.188  0.4169 -0.1910  0.4755
  672MOL0     C92665   9.717   0.127   1.185 -0.1744  0.5584  0.3988
  672MOL0     C92666   9.640   0.046   1.082 -0.0828 -0.0599 -0.1227
  672MOL0     H92667   9.461   0.612   1.320 -0.1726  1.2617  3.0186
  672MOL0     H92668   9.248   0.742   1.364  2.8739  0.6329  1.5529
  672MOL0     H92669   8.894   0.494   1.323  0.0680  0.3620  1.1446
  672MOL0     H92670   9.010   0.591   1.234  2.2462  0.1275  1.8311
  672MOL0     H92671   8.773   0.684   1.408  2.5251  3.0401 -0.2914
  672MOL0     H92672   8.853   0.800   1.311 -0.4676  0.9978  1.5468
  672MOL0     H92673   8.684   0.570   1.206 -3.5338  0.6283 -4.4443
  672MOL0     H92674   8.649   0.742   1.191  0.3111 -1.0013 -0.0958
  672MOL0     H92675   8.899   0.745   1.064  1.1867 -1.3633 -1.2433
  672MOL0     H92676   8.850   0.577   1.046  1.1146  0.5846 -3.2869
  672MOL0     H92677   8.629   0.667   0.951 -0.6299  0.8170 -0.8088
  672MOL0     H92678   8.776   0.662   0.855 -0.4658  0.3925  0.2712
  672MOL0     H92679   8.740   0.921   1.005 -1.7686  2.1826 -1.1785
  672MOL0     H92680   8.816   0.884   0.852  0.2893 -3.9257 -1.6735
  672MOL0     H92681   8.610   0.856   0.728  1.2411  0.5470  0.2959
  672MOL0     H92682   8.627   1.013   0.781  2.7620  0.6724  2.1326
  672MOL0     H92683   8.397   0.936   0.821  0.1700  0.6509 -0.2527
  672MOL0     H92684   8.450   0.807   0.925 -0.1749  1.5250  1.7965
  672MOL0     H92685   8.436   1.172   0.915 -0.3461 -2.4973 -1.0769
  672MOL0     H92686   8.352   1.342   1.161 -1.0930 -2.9598 -0.4173
  672MOL0     H92687   8.503   1.373   1.093 -1.6457  0.7348 -0.3689
  672MOL0     H92688   8.471   1.267   1.387  1.9947  0.2028  1.2699
  672MOL0     H92689   8.625   1.317   1.323  0.4776  1.8603  3.2004
  672MOL0     H92690   8.423   1.536   1.306  0.8450 -0.5170  0.1005
  672MOL0     H92691   8.469   1.471   1.474  2.3313 -0.2105  0.7733
  672MOL0     H92692   8.697   1.523   1.423 -0.8161 -3.2920 -2.2499
  672MOL0     H92693   8.641   1.587   1.264  0.0101  2.5619  0.1702
  672MOL0     H92694   8.663   1.553   1.662  0.7239 -0.2305  0.3896
  672MOL0     H92695   8.565   1.625   1.989 -1.7189  2.3637 -1.8595
  672MOL0     H92696   8.666   1.518   1.885  1.2384  0.0197  0.6257
  672MOL0     H92697   8.485   1.482   1.923  0.4350  0.1014  0.0843
  672MOL0     H92698   8.240   2.014   2.064 -0.2855  0.8662  1.3071
  672MOL0     H92699   8.118   2.051   2.276 -2.4670  0.7369  1.4663
  672MOL0     H92700   7.954   2.073   2.431 -0.4671  0.6202  1.1597
  672MOL0     H92701   7.811   1.987   2.387  0.7398  0.3831 -1.2156
  672MOL0     H92702   7.876   2.063   2.628  1.1513 -0.1244 -0.1385
  672MOL0     H92703   7.774   1.921   2.605  0.0898  0.5273  3.1048
  672MOL0     H92704   7.970   1.777   2.637 -0.1043 -0.2756  2.1130
  672MOL0     H92705   7.925   1.868   2.780  0.5301 -0.4952  0.0185
  672MOL0     H92706   8.109   2.047   2.726  1.8406 -0.6827  3.5589
  672MOL0     H92707   8.165   1.952   2.598 -0.6096  2.3617  0.9926
  672MOL0     H92708   8.217   1.764   2.748  0.3147 -0.4665  0.7186
  672MOL0     H92709   8.285   1.915   2.812 -0.6095  0.3468  1.1013
  672MOL0     H92710   8.069   1.752   2.943 -0.3892  0.4486  5.8254
  672MOL0     H92711   8.078   1.924   2.971  2.0154  3.8549 -3.0857
  672MOL0     H92712   8.217   1.808   3.134  3.2898  0.2577  0.9304
  672MOL0     H92713   8.346   1.868   3.030  1.1604 -1.4181 -0.2603
  672MOL0     H92714   8.334   1.635   2.923  2.7102 -3.3006  1.0462
  672MOL0     H92715   8.232   1.602   3.077  2.2228  0.7338  2.7213
  672MOL0     H92716   7.994   1.621   2.250  1.2870 -1.3796 -0.5694
  672MOL0     H92717   8.088   1.615   2.038  4.9873 -1.3841  0.8497
  672MOL0     H92718   8.362   1.939   1.736 -2.4286  0.4047  0.8662
  672MOL0     H92719   8.446   1.896   1.515 -1.7514  0.3793  1.8890
  672MOL0     H92720   9.058   0.382   1.492 -0.3732  2.9337  3.6308
  672MOL0     H92721   9.259   0.256   1.442  0.1360 -0.8014  0.1564
  672MOL0     H92722   9.733   0.377   1.417 -0.8108 -0.2039 -0.9407
  672MOL0     H92723   9.942   0.297   1.456  2.0633 -1.3432 -0.6109
  672MOL0     H92724  10.096   0.136   1.077 -0.1091 -1.4735  0.2020
  672MOL0     H92725  10.186   0.250   1.159 -1.0936 -0.4692 -1.6809
  672MOL0     H92726  10.224  -0.055   1.176 -0.3579 -0.0655  0.1299
  672MOL0     H92727  10.284   0.047   1.300  0.2821  0.2491  0.2626
  672MOL0     H92728  10.432  -0.000   1.072 -0.3583  2.0602 -1.2745
  672MOL0     H92729  10.377   0.158   1.029  3.3863 -1.7816 -3.3443
  672MOL0     H92730  10.499   0.101   1.297  0.1026  3.4869  2.2883
  672MOL0     H92731  10.453   0.262   1.222  0.7116  0.8777 -1.8603
  672MOL0     H92732  10.842   0.176   1.059  0.1414  0.4843  1.0162
  672MOL0     H92733   9.899   0.013   1.132  1.0001  0.8885 -0.7332
  672MOL0     H92734   9.606  -0.049   1.124 -0.3499  0.3841  0.6892
  672MOL0     H92735   9.559   0.104   1.036  0.4650 -1.1646 -2.6515
  672MOL0     H92736   9.700   0.008   0.999 -0.4654  0.2702 -0.5562
  673MOL0     O92737   6.954  11.253   6.686  0.2808  0.9896  0.0073
  673MOL0     C92738   6.909  11.174   6.604 -0.2469 -0.7552 -0.1595
  673MOL0     O92739   6.823  11.208   6.498  0.0371 -0.2617  0.5573
  673MOL0     C92740   6.755  11.329   6.505 -0.0187  0.0507  0.3149
  673MOL0     C92741   6.819  11.449   6.536  0.4284  0.2478  0.6140
  673MOL0     C92742   6.744  11.568   6.541 -0.1174  0.0536 -0.1191
  673MOL0     C92743   6.602  11.560   6.530  0.1648  1.0890  0.2006
  673MOL0     O92744   6.507  11.659   6.538  0.0410  0.0047 -0.5077
  673MOL0     C92745   6.564  11.787   6.580 -0.2690 -0.4626  0.2711
  673MOL0     C92746   6.459  11.900   6.582  0.1423 -0.6288 -0.6532
  673MOL0     C92747   6.320  11.860   6.538  1.1405 -0.1041 -0.4010
  673MOL0     C92748   6.221  11.985   6.528 -1.3113  0.3782  0.3889
  673MOL0     C92749   6.081  11.948   6.480  0.7645  0.0152 -0.5145
  673MOL0     C92750   5.984  11.868   6.581  0.9285 -1.1396 -0.0124
  673MOL0     C92751   5.947  11.727   6.534  0.0721  0.0962  0.1922
  673MOL0     C92752   5.878  11.640   6.641 -0.9858 -0.3341 -0.3115
  673MOL0     N92753   5.811  11.522   6.586 -0.2218 -0.1548  0.1924
  673MOL0     C92754   5.675  11.511   6.545  0.6441 -1.0776  0.8177
  673MOL0     C92755   5.653  11.384   6.512 -0.1751  0.2414 -0.3374
  673MOL0     C92756   5.510  11.336   6.466 -0.2021 -0.1000 -0.0512
  673MOL0     C92757   5.498  11.185   6.507  0.0183 -0.3081 -0.1163
  673MOL0     C92758   5.347  11.156   6.527 -1.3222  0.1236  0.2535
  673MOL0     C92759   5.270  11.159   6.393  0.3652 -0.1296 -0.0579
  673MOL0     O92760   5.208  11.282   6.365 -0.5871  1.1005  0.4235
  673MOL0     C92761   5.119  11.288   6.257 -0.0875  0.1795 -0.4846
  673MOL0     C92762   5.040  11.406   6.244 -0.3887  0.2278 -0.2690
  673MOL0     C92763   4.963  11.425   6.127  0.4253  0.2886  0.4950
  673MOL0     C92764   4.918  11.560   6.104  0.1657 -0.5932 -0.5084
  673MOL0     C92765   4.941  11.318   6.042  0.6048 -0.5032  0.6854
  673MOL0     C92766   4.849  11.323   5.925 -0.9795  1.1593 -0.2222
  673MOL0     O92767   4.721  11.292   5.947 -0.2407  0.3212 -0.2045
  673MOL0     C92768   4.628  11.273   5.842  0.3360  0.3357  0.0178
  673MOL0     C92769   4.531  11.175   5.858 -0.0191 -0.1256  0.1011
  673MOL0     C92770   4.439  11.143   5.757  0.0430  0.4869 -0.5465
  673MOL0     C92771   4.434  11.215   5.641 -0.1142 -0.4096 -0.3917
  673MOL0     O92772   4.334  11.199   5.537 -0.2839  0.2697  0.1394
  673MOL0     C92773   4.213  11.130   5.577 -0.1056 -0.6576 -0.2441
  673MOL0     C92774   4.100  11.185   5.479 -0.0943 -0.6905 -0.4211
  673MOL0     C92775   4.108  11.105   5.346 -0.2844  0.0008 -0.3631
  673MOL0     C92776   4.018  11.154   5.246  0.2786 -0.6723 -0.6391
  673MOL0     C92777   3.872  11.141   5.267  0.1272  0.7118  0.1207
  673MOL0     C92778   3.821  10.992   5.280 -0.5012  0.1066 -1.0793
  673MOL0     C92779   3.673  10.995   5.280 -0.3471 -0.3632 -0.6849
  673MOL0     C92780   3.617  10.850   5.271 -0.4791 -0.7173 -0.6244
  673MOL0    Cl92781   3.688  10.758   5.408  0.4575 -0.1285 -0.6658
  673MOL0     C92782   4.528  11.315   5.626 -0.3907  0.1543 -0.9997
  673MOL0     C92783   4.628  11.343   5.727  0.2829 -0.8230 -0.5252
  673MOL0     O92784   4.904  11.353   5.820  0.0090 -0.0963  0.3518
  673MOL0     C92785   5.018  11.206   6.058 -1.7256  0.1307  0.0069
  673MOL0     C92786   5.111  11.188   6.159  0.5923 -0.4268  0.5705
  673MOL0     N92787   5.772  11.314   6.532  0.1576  0.3708 -0.4159
  673MOL0     N92788   5.871  11.395   6.565  0.0779 -0.3557 -0.7614
  673MOL0     C92789   6.549  11.435   6.506  0.4428  0.1532  0.4996
  673MOL0     C92790   6.621  11.318   6.477 -0.4424 -0.4300 -1.2059
  673MOL0     C92791   6.959  11.036   6.615  0.0019  0.5722 -0.3165
  673MOL0     C92792   7.012  10.980   6.500 -0.4467 -0.3571  0.9207
  673MOL0     C92793   7.092  10.865   6.505  0.1795 -0.4464 -0.5204
  673MOL0     C92794   7.105  10.797   6.623 -0.2191  0.5244  0.1935
  673MOL0     O92795   7.178  10.686   6.638  1.0953 -1.5463 -1.1345
  673MOL0     C92796   7.263  10.625   6.542 -0.3413 -0.3961 -0.3585
  673MOL0     C92797   7.313  10.498   6.604 -0.8215  0.7362  0.7112
  673MOL0     C92798   7.404  10.520   6.729  0.3861  0.1768  0.2905
  673MOL0     C92799   7.437  10.383   6.790 -1.3055 -0.4124  0.1625
  673MOL0     C92800   7.488  10.406   6.925 -0.2077  1.2264  0.5740
  673MOL0     C92801   7.528  10.424   7.037  0.1412 -0.5320 -0.2562
  673MOL0     C92802   7.046  10.844   6.736  0.8231  0.1636  0.5237
  673MOL0     C92803   6.979  10.964   6.736  0.3057 -0.4325  0.4933
  673MOL0     C92804   6.920  11.009   6.869  0.3166 -0.1934  0.0451
  673MOL0     H92805   6.928  11.443   6.540  0.4107  0.0819  0.8216
  673MOL0     H92806   6.794  11.664   6.548 -0.4071  0.1895  0.0899
  673MOL0     H92807   6.634  11.818   6.501 -0.8296  0.5121  0.1362
  673MOL0     H92808   6.624  11.769   6.670 -0.0262 -1.9435 -0.1656
  673MOL0     H92809   6.451  11.936   6.686  1.8542 -1.9311 -0.0106
  673MOL0     H92810   6.509  11.984   6.532 -0.8540 -0.1500 -0.8532
  673MOL0     H92811   6.329  11.808   6.442 -1.6277  0.2528 -0.9552
  673MOL0     H92812   6.284  11.779   6.602 -2.0775  0.8330 -0.8075
  673MOL0     H92813   6.224  12.027   6.628  2.7690 -1.2272  1.1313
  673MOL0     H92814   6.270  12.060   6.465  0.1916 -0.0754  0.9678
  673MOL0     H92815   6.091  11.890   6.387 -1.0837 -1.1272 -0.0575
  673MOL0     H92816   6.030  12.038   6.445 -0.1985  0.0372  0.8674
  673MOL0     H92817   6.026  11.872   6.682 -0.6633 -0.3246  0.6487
  673MOL0     H92818   5.886  11.914   6.593  0.3845 -2.4962  0.9788
  673MOL0     H92819   6.029  11.661   6.505 -1.8762 -3.0890  1.4829
  673MOL0     H92820   5.879  11.721   6.449  1.7597  0.3021 -1.2272
  673MOL0     H92821   5.948  11.615   6.721 -0.8687  2.4069  0.5592
  673MOL0     H92822   5.799  11.706   6.678 -0.4112  1.0831 -1.4994
  673MOL0     H92823   5.603  11.591   6.532  0.5028 -1.4413 -0.7801
  673MOL0     H92824   5.497  11.345   6.358  1.3335 -0.7152 -0.3158
  673MOL0     H92825   5.432  11.400   6.508  0.6259  1.0897 -0.2761
  673MOL0     H92826   5.539  11.124   6.426  1.6115  1.9727 -1.1232
  673MOL0     H92827   5.536  11.161   6.607 -0.0738 -1.3944 -0.3276
  673MOL0     H92828   5.348  11.053   6.563  0.4550 -0.3659 -1.0526
  673MOL0     H92829   5.313  11.231   6.598  0.3431  0.7469  0.4235
  673MOL0     H92830   5.339  11.134   6.312  1.1436 -1.3138  0.9335
  673MOL0     H92831   5.201  11.075   6.402 -0.3781  0.4675 -0.0664
  673MOL0     H92832   5.054  11.487   6.315 -0.4039 -1.3070  1.5727
  673MOL0     H92833   4.921  11.631   6.188  1.1833  2.9767 -3.3090
  673MOL0     H92834   4.819  11.565   6.058  1.2694 -0.0893 -2.9516
  673MOL0     H92835   4.987  11.606   6.033  0.2199  1.9907  1.0966
  673MOL0     H92836   4.519  11.119   5.950 -0.0193 -1.5101 -0.7065
  673MOL0     H92837   4.369  11.063   5.781  0.4995  0.6682  1.6113
  673MOL0     H92838   4.224  11.022   5.564  2.6760 -0.5357  0.3030
  673MOL0     H92839   4.187  11.157   5.680 -2.4683 -0.8713 -0.7405
  673MOL0     H92840   4.003  11.171   5.530  1.1105 -1.0295  1.9278
  673MOL0     H92841   4.114  11.293   5.471  0.1233 -0.4018  2.5119
  673MOL0     H92842   4.099  10.998   5.366  0.6536  0.4044  2.8698
  673MOL0     H92843   4.205  11.131   5.302 -1.9591  1.2989 -3.6560
  673MOL0     H92844   4.044  11.118   5.146  0.3551  0.7861 -1.1651
  673MOL0     H92845   4.037  11.261   5.232 -0.9817 -0.1824  1.1264
  673MOL0     H92846   3.836  11.209   5.344 -0.0099 -0.3686  1.0345
  673MOL0     H92847   3.836  11.175   5.169  2.6376  0.8147 -0.8526
  673MOL0     H92848   3.858  10.966   5.380 -0.5861  2.6930 -0.2817
  673MOL0     H92849   3.849  10.918   5.205 -1.1403 -0.2714 -0.9413
  673MOL0     H92850   3.630  11.052   5.197 -1.3422  0.2081  0.2097
  673MOL0     H92851   3.637  11.048   5.368  3.4991  3.3344 -1.0170
  673MOL0     H92852   3.644  10.812   5.172 -0.8889  2.7779 -2.2094
  673MOL0     H92853   3.508  10.852   5.278 -0.5119  3.3124 -0.1401
  673MOL0     H92854   4.531  11.373   5.534 -0.5295  0.7171 -0.6555
  673MOL0     H92855   4.693  11.430   5.721  0.9778 -1.1297  1.7074
  673MOL0     H92856   5.011  11.126   5.984 -1.0122  0.5731 -0.5555
  673MOL0     H92857   5.154  11.089   6.168 -1.2114 -1.0941  2.7451
  673MOL0     H92858   6.444  11.442   6.481  0.3022  0.3226  1.1142
  673MOL0     H92859   6.573  11.229   6.439  1.1746 -0.8770 -2.2909
  673MOL0     H92860   6.984  11.021   6.403 -1.1348 -0.1509  1.1976
  673MOL0     H92861   7.133  10.830   6.410 -0.6200 -1.2357 -0.5938
  673MOL0     H92862   7.211  10.597   6.449  1.3295 -2.2752 -0.8000
  673MOL0     H92863   7.349  10.679   6.504 -2.1099 -0.0493 -4.3890
  673MOL0     H92864   7.375  10.454   6.526 -0.7838 -0.7093  1.5118
  673MOL0     H92865   7.224  10.438   6.624  0.7119 -1.1986  2.1199
  673MOL0     H92866   7.485  10.581   6.690  0.2114 -0.7969 -1.7484
  673MOL0     H92867   7.349  10.577   6.804 -2.3495  2.1737 -2.9490
  673MOL0     H92868   7.506  10.333   6.721  0.6069  1.7039  0.4176
  673MOL0     H92869   7.345  10.325   6.801 -2.6234  2.0364  4.1497
  673MOL0     H92870   7.547  10.442   7.140 -0.3657 -2.6080  0.2618
  673MOL0     H92871   7.051  10.785   6.827  1.0712 -2.0343 -0.8462
  673MOL0     H92872   6.899  10.930   6.942 -2.5788 -0.9951 -1.5313
  673MOL0     H92873   6.985  11.090   6.906 -0.0011  0.5877 -1.0470
  673MOL0     H92874   6.817  11.042   6.853 -0.4351 -2.6180 -0.4592
  674MOL0     O92875   5.623   4.909   3.538 -0.1119 -0.1442 -0.2426
  674MOL0     C92876   5.525   4.956   3.481 -0.2493 -0.2674  0.0007
  674MOL0     O92877   5.533   5.029   3.375  0.3387 -0.0067  1.0238
  674MOL0     C92878   5.656   5.040   3.317 -0.3201  0.1479  1.2074
  674MOL0     C92879   5.716   4.943   3.236  0.2275  1.0742  0.2906
  674MOL0     C92880   5.850   4.960   3.191 -0.5996  1.1751  0.6342
  674MOL0     C92881   5.932   5.073   3.233  0.6286  0.3025  0.6914
  674MOL0     O92882   6.065   5.096   3.194  0.0620 -0.4865 -0.0800
  674MOL0     C92883   6.103   5.048   3.069 -1.0407  0.0013  0.8140
  674MOL0     C92884   6.210   5.133   3.009 -0.4657 -1.1212  0.1053
  674MOL0     C92885   6.352   5.098   3.057  0.3995  0.1933  0.8637
  674MOL0     C92886   6.377   5.164   3.189 -0.3689 -0.1026 -0.6943
  674MOL0     C92887   6.370   5.317   3.200  0.5520  0.5904  0.1548
  674MOL0     C92888   6.431   5.363   3.340 -0.4299  0.2375  0.0483
  674MOL0     C92889   6.383   5.504   3.358 -0.2681 -0.2182  0.0500
  674MOL0     C92890   6.428   5.554   3.503  0.6846  1.3080 -0.3911
  674MOL0     N92891   6.551   5.629   3.488  0.6590  0.7873 -0.3887
  674MOL0     C92892   6.567   5.738   3.409  0.1427  0.1180 -0.0325
  674MOL0     C92893   6.691   5.786   3.433 -0.3476  0.0132  0.1967
  674MOL0     C92894   6.743   5.911   3.365 -0.6631  0.3356  0.4585
  674MOL0     C92895   6.906   5.927   3.387  0.5054 -0.1605 -0.9966
  674MOL0     C92896   6.929   5.979   3.536  0.3878 -0.2840  0.4268
  674MOL0     C92897   6.893   6.128   3.552 -0.1252  0.5017 -0.6416
  674MOL0     O92898   6.979   6.170   3.657 -0.1210 -0.8277  0.1056
  674MOL0     C92899   7.028   6.300   3.653  0.2745 -0.7372  0.9281
  674MOL0     C92900   6.981   6.405   3.572  0.3485  0.2027  0.6525
  674MOL0     C92901   7.025   6.545   3.584 -0.2237  0.3640  0.2619
  674MOL0     C92902   6.979   6.636   3.473 -0.2534  0.5702  0.4178
  674MOL0     C92903   7.118   6.575   3.681 -0.5220 -0.2764  0.2178
  674MOL0     C92904   7.171   6.714   3.692 -0.1405 -0.3766 -0.6343
  674MOL0     O92905   7.092   6.827   3.658  0.5037  0.1057  0.4905
  674MOL0     C92906   7.143   6.953   3.678  0.1922  0.2417 -0.7002
  674MOL0     C92907   7.149   7.036   3.568 -0.8885  0.2816  0.1983
  674MOL0     C92908   7.205   7.162   3.576 -0.4973  0.5186 -0.4968
  674MOL0     C92909   7.252   7.209   3.696  0.0833  0.3302 -1.0988
  674MOL0     O92910   7.321   7.331   3.717 -0.0702  0.1289  0.3373
  674MOL0     C92911   7.368   7.416   3.618 -0.1980  0.5265 -0.0016
  674MOL0     C92912   7.458   7.524   3.676  0.4715  0.0241  0.5186
  674MOL0     C92913   7.484   7.629   3.569  0.0268  0.5729 -0.6909
  674MOL0     C92914   7.593   7.727   3.618  0.5349 -0.7806 -0.1078
  674MOL0     C92915   7.596   7.866   3.543 -0.2505  0.1757  0.0943
  674MOL0     C92916   7.623   7.849   3.394 -1.1667  0.9987 -0.9483
  674MOL0     C92917   7.623   7.980   3.324  0.5652  0.3272  0.0985
  674MOL0     C92918   7.479   8.026   3.291  0.0059 -0.0648  0.8471
  674MOL0    Cl92919   7.461   8.170   3.203 -0.1506 -0.1731 -0.4663
  674MOL0     C92920   7.241   7.124   3.810 -0.3694 -1.0513 -0.1348
  674MOL0     C92921   7.182   6.998   3.802 -0.0143 -0.8008  0.1667
  674MOL0     O92922   7.287   6.722   3.733 -0.7638  0.6680  0.2155
  674MOL0     C92923   7.169   6.481   3.769 -0.6371  0.3208 -0.0352
  674MOL0     C92924   7.106   6.346   3.758 -0.2126 -0.8985  0.0552
  674MOL0     N92925   6.743   5.695   3.521  0.1571 -0.8088  0.1956
  674MOL0     N92926   6.660   5.611   3.566  0.4746  0.2200  0.2253
  674MOL0     C92927   5.871   5.171   3.303 -0.3182  0.2637 -0.4654
  674MOL0     C92928   5.738   5.152   3.336  0.5376 -0.3648  0.1624
  674MOL0     C92929   5.392   4.931   3.536  0.5400 -0.1578  1.3954
  674MOL0     C92930   5.277   4.956   3.451 -0.8901 -0.0226 -0.6465
  674MOL0     C92931   5.152   4.909   3.480 -0.2337  0.7132 -0.3649
  674MOL0     C92932   5.142   4.826   3.585  0.0137  0.9632 -0.3814
  674MOL0     O92933   5.018   4.770   3.627 -0.6057  0.6871  0.0589
  674MOL0     C92934   4.903   4.765   3.545 -0.0391 -0.2086 -0.1191
  674MOL0     C92935   4.781   4.724   3.640 -0.1159 -0.8099 -0.2775
  674MOL0     C92936   4.789   4.576   3.675  0.0965 -0.0602 -0.1275
  674MOL0     C92937   4.849   4.545   3.812  0.1533  0.1455  0.9886
  674MOL0     C92938   4.989   4.519   3.805 -0.3630  0.5432 -0.3945
  674MOL0     C92939   5.111   4.511   3.817  0.0964 -0.5281 -0.4552
  674MOL0     C92940   5.244   4.796   3.667 -0.2015 -0.0005 -0.8290
  674MOL0     C92941   5.373   4.848   3.650  0.3170  0.2708  0.5459
  674MOL0     C92942   5.474   4.818   3.746  0.0147 -0.3177  0.0097
  674MOL0     H92943   5.658   4.858   3.201 -1.8280  3.2257 -1.8801
  674MOL0     H92944   5.892   4.884   3.126  0.8327  2.7507 -0.3646
  674MOL0     H92945   6.015   5.047   3.005 -0.4141  0.1657 -0.0731
  674MOL0     H92946   6.132   4.945   3.088  1.7226  0.7520  1.2244
  674MOL0     H92947   6.208   5.129   2.900 -1.4069 -1.1081  0.1151
  674MOL0     H92948   6.185   5.237   3.028 -0.7007 -0.5674 -2.8308
  674MOL0     H92949   6.371   4.990   3.062 -1.2083 -0.3767 -2.6212
  674MOL0     H92950   6.422   5.127   2.978  1.3232 -1.0952  1.1724
  674MOL0     H92951   6.301   5.131   3.260  0.7178  1.5995  1.4156
  674MOL0     H92952   6.476   5.139   3.228 -0.4121  0.6037 -0.1024
  674MOL0     H92953   6.266   5.346   3.183  1.5287  3.4395 -1.6906
  674MOL0     H92954   6.420   5.359   3.112  3.0578  0.5568  1.4787
  674MOL0     H92955   6.409   5.291   3.419  2.6134 -2.3424 -1.2236
  674MOL0     H92956   6.540   5.352   3.338 -0.4386  0.0700 -1.7115
  674MOL0     H92957   6.274   5.500   3.369 -0.2997  2.8288  2.3783
  674MOL0     H92958   6.416   5.576   3.283 -0.1887  0.5008  0.7580
  674MOL0     H92959   6.350   5.614   3.551  0.8936  0.5975  0.8691
  674MOL0     H92960   6.442   5.469   3.571  1.9093  2.3677  0.7572
  674MOL0     H92961   6.496   5.801   3.356  2.8160  2.2413 -1.3731
  674MOL0     H92962   6.689   6.001   3.396 -3.1370 -0.1091 -2.1362
  674MOL0     H92963   6.732   5.890   3.258 -1.9959 -4.7019  1.3104
  674MOL0     H92964   6.940   5.823   3.381  0.5523 -0.4037  2.2032
  674MOL0     H92965   6.957   5.995   3.317 -0.3420 -0.5104 -1.9773
  674MOL0     H92966   6.861   5.921   3.599 -1.5567 -2.6748 -3.4989
  674MOL0     H92967   7.031   5.959   3.569  1.0525  1.7451 -0.3038
  674MOL0     H92968   6.925   6.177   3.460  0.7245  2.2046  0.4922
  674MOL0     H92969   6.787   6.145   3.572  0.1092 -0.0031  1.3159
  674MOL0     H92970   6.925   6.380   3.483  1.8453 -1.4416  0.1169
  674MOL0     H92971   6.966   6.571   3.386 -0.9100  0.7188  0.3994
  674MOL0     H92972   7.052   6.711   3.440  1.1779 -0.5495  0.9800
  674MOL0     H92973   6.884   6.687   3.492 -1.2282 -0.7796 -0.6599
  674MOL0     H92974   7.128   6.996   3.469  2.8693  2.0908 -1.5058
  674MOL0     H92975   7.201   7.218   3.483 -2.3649  1.9673  0.3904
  674MOL0     H92976   7.420   7.359   3.540 -0.1869 -0.3476  0.6273
  674MOL0     H92977   7.283   7.452   3.559  0.1170 -1.4374 -1.7857
  674MOL0     H92978   7.414   7.571   3.764  2.6962 -1.3377  2.5001
  674MOL0     H92979   7.535   7.453   3.710 -2.3131 -2.4173  2.2044
  674MOL0     H92980   7.390   7.679   3.543 -0.1803 -0.2775 -1.6629
  674MOL0     H92981   7.524   7.584   3.478  1.6097 -0.3834  0.4264
  674MOL0     H92982   7.690   7.677   3.616 -0.7362 -3.4753  0.0717
  674MOL0     H92983   7.574   7.749   3.724 -1.1133 -0.6465 -0.3988
  674MOL0     H92984   7.511   7.934   3.554 -1.2409 -1.1271  0.7508
  674MOL0     H92985   7.688   7.913   3.580  0.9951 -1.7071 -0.4264
  674MOL0     H92986   7.542   7.788   3.354 -0.3910 -0.2624 -0.6524
  674MOL0     H92987   7.720   7.801   3.376 -0.7779  1.2551  0.3975
  674MOL0     H92988   7.673   7.966   3.227 -1.0928  0.6134 -0.8320
  674MOL0     H92989   7.660   8.062   3.386  1.3579 -2.4532  3.6002
  674MOL0     H92990   7.417   8.041   3.380  1.8292  0.8777  2.0214
  674MOL0     H92991   7.434   7.955   3.222 -0.3099 -0.0835  1.0739
  674MOL0     H92992   7.287   7.162   3.900 -0.7253 -0.0461 -0.3713
  674MOL0     H92993   7.179   6.925   3.883  0.6407  0.5541  1.4703
  674MOL0     H92994   7.243   6.499   3.846 -1.2613 -0.6743  0.8196
  674MOL0     H92995   7.133   6.273   3.833 -2.9169  0.0574  2.1196
  674MOL0     H92996   5.915   5.254   3.357  2.4894 -0.8432 -0.9120
  674MOL0     H92997   5.690   5.225   3.400  0.3820 -0.4303  0.1201
  674MOL0     H92998   5.301   5.003   3.356  2.4862 -0.0709  0.0758
  674MOL0     H92999   5.071   4.935   3.413 -1.7625 -1.1934  0.6550
  674MOL0     H93000   4.888   4.863   3.499  0.5043 -0.3927 -0.7143
  674MOL0     H93001   4.918   4.688   3.468 -2.2371 -1.2760  0.4568
  674MOL0     H93002   4.685   4.740   3.591  0.7429 -0.4625 -1.9372
  674MOL0     H93003   4.780   4.788   3.729 -1.2288 -0.0982 -0.7783
  674MOL0     H93004   4.685   4.543   3.669 -0.0630  0.7127 -2.5421
  674MOL0     H93005   4.836   4.502   3.610 -0.2613 -1.0968  0.7532
  674MOL0     H93006   4.798   4.456   3.850 -2.1203  1.0423  0.2462
  674MOL0     H93007   4.835   4.630   3.879  0.1337  1.1566 -0.2582
  674MOL0     H93008   5.218   4.516   3.820  0.0325  1.1810  1.6319
  674MOL0     H93009   5.231   4.734   3.755 -1.1041  1.8619  0.4036
  674MOL0     H93010   5.438   4.773   3.839  2.0619 -1.4473  0.3329
  674MOL0     H93011   5.549   4.757   3.694 -1.2042 -2.3279  0.4974
  674MOL0     H93012   5.539   4.897   3.783  2.9885 -3.3573  1.9483
  675MOL0     O93013   5.943   5.945   5.373  0.2131 -0.4598  0.3423
  675MOL0     C93014   5.857   5.866   5.338 -0.1701  0.0821 -0.0280
  675MOL0     O93015   5.888   5.748   5.274  0.2772  0.0463 -1.2150
  675MOL0     C93016   6.016   5.717   5.235 -0.2052  0.3507 -0.7466
  675MOL0     C93017   6.063   5.791   5.125 -0.2350  0.0393  0.3748
  675MOL0     C93018   6.194   5.761   5.074 -0.1707 -0.4707  0.0015
  675MOL0     C93019   6.280   5.665   5.143  0.2188 -0.5660  0.7617
  675MOL0     O93020   6.408   5.666   5.101 -0.4752 -0.3805 -0.5363
  675MOL0     C93021   6.496   5.668   5.215  0.6167 -0.1320 -0.2251
  675MOL0     C93022   6.630   5.698   5.164  0.0775 -0.2297 -0.2181
  675MOL0     C93023   6.735   5.722   5.272  0.1414 -0.3528  0.3510
  675MOL0     C93024   6.884   5.713   5.220 -0.5021 -0.7416 -0.3577
  675MOL0     C93025   6.972   5.721   5.348 -0.0165  0.1426  0.8730
  675MOL0     C93026   7.110   5.667   5.321  0.5634 -0.7912  0.1166
  675MOL0     C93027   7.207   5.694   5.432 -0.7919  0.3994 -0.5496
  675MOL0     C93028   7.342   5.620   5.414 -0.3807  0.4169 -0.3004
  675MOL0     N93029   7.425   5.668   5.525  0.2232 -0.3664 -0.0671
  675MOL0     C93030   7.445   5.608   5.648  0.3604  0.4569 -0.4710
  675MOL0     C93031   7.521   5.694   5.717  0.3740 -0.2101 -0.4419
  675MOL0     C93032   7.570   5.672   5.859  0.8705  0.3284  0.9726
  675MOL0     C93033   7.626   5.538   5.864 -0.1491 -0.0091 -0.2908
  675MOL0     C93034   7.753   5.521   5.776  0.8677 -0.2154 -0.0487
  675MOL0     C93035   7.884   5.567   5.850  0.2881 -0.8237 -0.6265
  675MOL0     O93036   7.994   5.547   5.771 -0.1733  0.1526  1.0684
  675MOL0     C93037   8.104   5.621   5.799 -0.5815  0.5849 -0.0219
  675MOL0     C93038   8.181   5.657   5.685  0.3246 -1.2021 -0.0421
  675MOL0     C93039   8.287   5.744   5.697  0.0321 -0.6482  0.4199
  675MOL0     C93040   8.373   5.785   5.574  0.5300  0.1744  0.9751
  675MOL0     C93041   8.319   5.793   5.825  0.1696 -1.0410  0.9979
  675MOL0     C93042   8.419   5.899   5.845 -0.5694 -0.9112 -0.0515
  675MOL0     O93043   8.492   5.884   5.961  0.6135  0.8706 -0.1732
  675MOL0     C93044   8.593   5.976   5.989  0.8311  0.2647  0.0754
  675MOL0     C93045   8.602   6.027   6.119  0.2605 -0.3449  1.1133
  675MOL0     C93046   8.707   6.120   6.147  0.6090  0.0887 -0.7080
  675MOL0     C93047   8.805   6.150   6.059 -0.7293  0.2972 -0.0137
  675MOL0     O93048   8.911   6.227   6.093 -0.0353 -0.1196  0.3140
  675MOL0     C93049   8.874   6.369   6.125  1.0736  0.9210  0.3974
  675MOL0     C93050   9.000   6.446   6.161 -0.6095 -0.2476  0.7895
  675MOL0     C93051   8.977   6.568   6.239 -0.0507 -0.1088  0.3302
  675MOL0     C93052   8.909   6.680   6.160 -0.8498 -0.3017  0.7088
  675MOL0     C93053   8.927   6.821   6.233 -0.2033 -0.3278 -0.4500
  675MOL0     C93054   8.877   6.933   6.143  1.1840  0.0916 -0.3770
  675MOL0     C93055   8.905   7.079   6.201  0.0713  0.3205  1.2934
  675MOL0     C93056   8.817   7.096   6.324  0.5817  1.6012  0.0803
  675MOL0    Cl93057   8.649   7.060   6.289  0.4484  0.5210  0.1606
  675MOL0     C93058   8.814   6.080   5.933 -0.5475 -1.2715 -0.1810
  675MOL0     C93059   8.703   5.995   5.903 -0.3980  0.8141  1.2905
  675MOL0     O93060   8.425   5.999   5.766  0.3550 -0.7286 -0.4958
  675MOL0     C93061   8.251   5.741   5.938 -0.3332  0.1620  0.4565
  675MOL0     C93062   8.148   5.657   5.925 -0.3132 -0.1474  0.9981
  675MOL0     N93063   7.551   5.804   5.642 -0.1936 -1.5752 -0.0592
  675MOL0     N93064   7.497   5.783   5.525  0.0994 -0.5481 -0.3732
  675MOL0     C93065   6.224   5.577   5.234 -0.6994  1.0494  1.2529
  675MOL0     C93066   6.100   5.606   5.283  1.3326 -0.8063 -0.4686
  675MOL0     C93067   5.718   5.898   5.371  0.3569  0.2512  0.2389
  675MOL0     C93068   5.614   5.814   5.322  0.2687 -0.4355 -0.3184
  675MOL0     C93069   5.484   5.824   5.362  0.3179 -0.4401  0.8237
  675MOL0     C93070   5.430   5.925   5.441  0.6810 -0.1166  0.0187
  675MOL0     O93071   5.294   5.936   5.473 -0.3595 -0.0074 -0.0827
  675MOL0     C93072   5.198   5.891   5.383  0.2830  0.6614  0.3458
  675MOL0     C93073   5.050   5.904   5.430 -0.1865 -0.0094 -0.4649
  675MOL0     C93074   5.013   6.063   5.460  0.4001  0.8315  0.6459
  675MOL0     C93075   4.857   6.076   5.482  0.1340  0.3358 -0.1572
  675MOL0     C93076   4.820   6.024   5.615  1.0073  0.0528 -0.5607
  675MOL0     C93077   4.790   5.987   5.724  0.6075 -0.0316 -0.1305
  675MOL0     C93078   5.530   6.008   5.489 -0.0668  0.5869  0.6028
  675MOL0     C93079   5.675   6.000   5.449  0.5631  1.1179 -0.0314
  675MOL0     C93080   5.761   6.116   5.511  0.7348  0.2565 -0.7413
  675MOL0     H93081   6.005   5.866   5.072  0.3429 -1.1948 -2.1345
  675MOL0     H93082   6.226   5.823   4.991 -0.4969 -0.6887 -0.2883
  675MOL0     H93083   6.504   5.567   5.255  2.3389  0.5158  1.2460
  675MOL0     H93084   6.465   5.739   5.293  0.2804 -0.6634  0.1313
  675MOL0     H93085   6.662   5.615   5.101  0.3048  0.1218 -0.5731
  675MOL0     H93086   6.623   5.783   5.095 -0.2954  0.4357  0.6116
  675MOL0     H93087   6.729   5.821   5.318 -0.1240 -0.3082  0.2218
  675MOL0     H93088   6.714   5.654   5.355 -0.1932  2.0822  2.3653
  675MOL0     H93089   6.903   5.617   5.170  2.9831  0.0490 -0.8023
  675MOL0     H93090   6.918   5.783   5.144  3.0981 -0.0993  1.6242
  675MOL0     H93091   6.925   5.666   5.430 -0.9584 -4.1463 -2.1607
  675MOL0     H93092   6.973   5.829   5.367 -0.6481  0.1119  1.1044
  675MOL0     H93093   7.102   5.561   5.297  0.5686 -1.3864  2.4700
  675MOL0     H93094   7.152   5.706   5.228 -0.6167 -2.5927 -1.2257
  675MOL0     H93095   7.161   5.659   5.525 -3.0659  0.8254 -1.4587
  675MOL0     H93096   7.221   5.802   5.446  0.0577  0.0850  1.2454
  675MOL0     H93097   7.335   5.511   5.411 -1.0471  0.3921  1.2440
  675MOL0     H93098   7.380   5.651   5.316 -1.0792 -1.6897 -1.2785
  675MOL0     H93099   7.394   5.518   5.679  1.2813  1.1282  3.4575
  675MOL0     H93100   7.487   5.687   5.928  2.3919  1.2171  2.7234
  675MOL0     H93101   7.645   5.750   5.880 -1.0002  2.7505 -0.7714
  675MOL0     H93102   7.650   5.515   5.968  1.6930  2.1637 -0.1440
  675MOL0     H93103   7.552   5.467   5.828  0.2797 -0.4760 -0.2706
  675MOL0     H93104   7.764   5.417   5.743  0.0120 -0.6907  1.0837
  675MOL0     H93105   7.738   5.585   5.688 -1.5483 -0.4929  0.0929
  675MOL0     H93106   7.883   5.676   5.855  1.8531 -0.8510  1.2804
  675MOL0     H93107   7.894   5.518   5.947 -1.8394  1.0628  0.6419
  675MOL0     H93108   8.161   5.612   5.588  1.4076 -1.2734 -0.2461
  675MOL0     H93109   8.340   5.883   5.539 -3.1450 -1.7173 -1.4994
  675MOL0     H93110   8.367   5.708   5.497 -1.1744 -1.6741  2.8722
  675MOL0     H93111   8.477   5.785   5.610  0.5520  0.5024  0.9179
  675MOL0     H93112   8.536   6.004   6.202 -3.5632  0.6188 -1.3973
  675MOL0     H93113   8.725   6.156   6.248  0.3839 -0.7283 -0.3636
  675MOL0     H93114   8.837   6.402   6.028  2.5089 -2.0134 -1.2842
  675MOL0     H93115   8.803   6.375   6.209 -1.2893 -2.3493 -1.1583
  675MOL0     H93116   9.073   6.379   6.207 -0.6357 -3.2797 -3.0355
  675MOL0     H93117   9.042   6.477   6.064 -2.2495  2.0617  0.7482
  675MOL0     H93118   9.074   6.608   6.269 -0.1277  0.8401 -0.6106
  675MOL0     H93119   8.920   6.545   6.330 -2.0281 -3.1308 -1.4959
  675MOL0     H93120   8.801   6.663   6.151 -1.2497  2.6494 -1.1793
  675MOL0     H93121   8.964   6.687   6.066 -1.0478  1.3062  0.6968
  675MOL0     H93122   8.879   6.807   6.330 -0.8085 -0.1447 -0.7143
  675MOL0     H93123   9.032   6.846   6.251  0.4644 -0.9211 -3.1034
  675MOL0     H93124   8.771   6.915   6.126  1.1742 -3.9150  2.4289
  675MOL0     H93125   8.922   6.927   6.044 -0.8899  2.9133 -1.6006
  675MOL0     H93126   8.878   7.157   6.128 -1.1684 -2.0065 -0.9021
  675MOL0     H93127   9.010   7.096   6.225  0.2777  1.4229 -0.2015
  675MOL0     H93128   8.821   7.195   6.371  0.8272  0.2106  3.2522
  675MOL0     H93129   8.854   7.029   6.401  3.2142  0.4205 -2.0589
  675MOL0     H93130   8.902   6.104   5.875  1.1549  2.7843  3.5439
  675MOL0     H93131   8.719   5.937   5.813  1.0554  0.5150  1.7155
  675MOL0     H93132   8.278   5.764   6.041 -0.9094 -3.2983  1.5115
  675MOL0     H93133   8.118   5.597   6.010 -1.0191  0.3113  1.0791
  675MOL0     H93134   6.285   5.500   5.279 -0.8446  0.8033  1.0357
  675MOL0     H93135   6.060   5.555   5.370  0.2686  0.9654  0.1272
  675MOL0     H93136   5.647   5.732   5.259  1.6563 -2.2182  2.5120
  675MOL0     H93137   5.416   5.748   5.326  1.9733 -1.6256  0.0722
  675MOL0     H93138   5.223   5.943   5.291 -0.5881 -0.4082 -0.5193
  675MOL0     H93139   5.200   5.782   5.368 -2.0780  0.6910 -0.6015
  675MOL0     H93140   5.023   5.844   5.517 -1.7362 -0.5106 -1.2508
  675MOL0     H93141   4.974   5.865   5.362 -2.2447  3.7488 -0.6236
  675MOL0     H93142   5.078   6.092   5.543  0.5506 -1.7494  1.5185
  675MOL0     H93143   5.035   6.119   5.368 -1.8616 -0.4830 -0.7814
  675MOL0     H93144   4.803   6.021   5.405  0.7187 -0.4414 -0.0225
  675MOL0     H93145   4.817   6.178   5.476 -1.9014 -0.3643  0.4740
  675MOL0     H93146   4.763   5.985   5.828 -4.6481 -2.7658 -1.1990
  675MOL0     H93147   5.503   6.085   5.561 -0.6576 -1.7780  3.0601
  675MOL0     H93148   5.843   6.055   5.550  0.6623 -0.7539 -2.1295
  675MOL0     H93149   5.788   6.196   5.441 -0.3445  3.5680  2.2874
  675MOL0     H93150   5.694   6.151   5.590 -2.8386 -4.8206 -1.1012
  676MOL0     O93151   6.659   7.385   1.075  0.0302  0.7997  0.2236
  676MOL0     C93152   6.590   7.330   1.164  0.4089  0.0720 -0.1005
  676MOL0     O93153   6.640   7.238   1.255  0.7927 -0.0413 -1.0419
  676MOL0     C93154   6.762   7.241   1.310  0.1434  0.8299  0.8362
  676MOL0     C93155   6.835   7.359   1.345 -0.1960 -0.7988  0.4345
  676MOL0     C93156   6.963   7.346   1.401  0.4900 -0.4905 -0.5548
  676MOL0     C93157   7.022   7.220   1.431  0.5204 -0.0582  0.3447
  676MOL0     O93158   7.153   7.201   1.460  0.2137 -1.4468 -0.1629
  676MOL0     C93159   7.228   7.323   1.429  0.5154 -0.7008  0.2082
  676MOL0     C93160   7.365   7.287   1.463  0.1855  0.9617  0.1036
  676MOL0     C93161   7.396   7.295   1.612 -0.8372 -0.1820  0.2452
  676MOL0     C93162   7.485   7.418   1.636  0.5731 -0.3618  0.4674
  676MOL0     C93163   7.513   7.423   1.783  0.2814  0.2030  0.2337
  676MOL0     C93164   7.586   7.555   1.817 -0.1099  1.2152 -0.1016
  676MOL0     C93165   7.609   7.587   1.966 -0.1604 -0.0323 -0.5938
  676MOL0     C93166   7.675   7.724   1.984 -0.6780 -1.2494  0.2527
  676MOL0     N93167   7.702   7.782   2.114  0.6119  0.2235 -0.7714
  676MOL0     C93168   7.598   7.828   2.194 -0.8024 -1.2716 -0.5336
  676MOL0     C93169   7.659   7.871   2.311  0.2779  0.4537  0.4490
  676MOL0     C93170   7.608   7.945   2.432 -0.0690 -0.0460 -0.2062
  676MOL0     C93171   7.619   7.848   2.552 -0.7821 -0.3331 -0.1033
  676MOL0     C93172   7.511   7.755   2.566  0.1149  0.5838 -0.0316
  676MOL0     C93173   7.553   7.644   2.667  0.0374  0.5850  0.7991
  676MOL0     O93174   7.453   7.552   2.695  0.4153 -0.0968 -0.6286
  676MOL0     C93175   7.398   7.470   2.595  0.1376 -0.5521  0.8089
  676MOL0     C93176   7.473   7.404   2.501 -0.5395  0.5522 -0.5865
  676MOL0     C93177   7.422   7.323   2.399 -1.0836 -0.2837  0.1219
  676MOL0     C93178   7.529   7.256   2.297 -0.9627  0.0691  0.3004
  676MOL0     C93179   7.282   7.304   2.391 -0.3080  0.1493 -0.6305
  676MOL0     C93180   7.203   7.222   2.293 -0.2068  0.7285  0.0990
  676MOL0     O93181   7.071   7.185   2.309 -0.0086  0.6086  0.1993
  676MOL0     C93182   7.001   7.119   2.211 -0.3419 -0.0474 -0.2491
  676MOL0     C93183   7.042   6.988   2.164 -0.6630 -0.0209  0.0031
  676MOL0     C93184   6.981   6.925   2.053  0.0002  0.4146 -0.1654
  676MOL0     C93185   6.873   6.986   1.996 -0.9865  0.5042 -0.0188
  676MOL0     O93186   6.819   6.931   1.881  0.0388  0.1156 -0.0980
  676MOL0     C93187   6.909   6.933   1.767  0.2172 -0.8900  0.8936
  676MOL0     C93188   6.858   6.855   1.643 -0.2301  0.4452  0.0570
  676MOL0     C93189   6.724   6.910   1.601 -1.1979 -0.6303  1.0283
  676MOL0     C93190   6.655   6.822   1.499 -0.5104  0.5025 -0.0209
  676MOL0     C93191   6.538   6.887   1.436  0.5937  0.6650  0.3166
  676MOL0     C93192   6.402   6.874   1.519  0.2901 -0.6353  0.4113
  676MOL0     C93193   6.285   6.960   1.452  0.9204  0.1016  0.1941
  676MOL0     C93194   6.153   6.930   1.510 -0.0231  0.2406  0.5428
  676MOL0    Cl93195   6.029   7.024   1.404 -0.2102 -0.1871 -0.2657
  676MOL0     C93196   6.812   7.093   2.070 -0.3586 -0.1064  0.1590
  676MOL0     C93197   6.875   7.160   2.167  1.3803 -0.4763 -0.3947
  676MOL0     O93198   7.264   7.210   2.186  0.4923 -0.1580  0.0547
  676MOL0     C93199   7.199   7.372   2.486  0.8304  0.7958  0.0389
  676MOL0     C93200   7.263   7.447   2.586  0.8345 -1.0570  0.7663
  676MOL0     N93201   7.789   7.837   2.311 -0.0124 -0.2154  0.8324
  676MOL0     N93202   7.819   7.801   2.188  0.5888  0.8172 -0.0001
  676MOL0     C93203   6.943   7.109   1.395  0.6732 -0.8052 -0.7756
  676MOL0     C93204   6.818   7.119   1.332 -0.0760 -0.0070  0.2874
  676MOL0     C93205   6.441   7.350   1.156 -0.3658  1.0525  0.2028
  676MOL0     C93206   6.365   7.235   1.134  0.2371 -0.1383  0.6716
  676MOL0     C93207   6.227   7.241   1.118 -1.0362 -0.0977  0.3784
  676MOL0     C93208   6.158   7.360   1.111 -0.8098 -0.3189 -0.0452
  676MOL0     O93209   6.026   7.347   1.073 -0.1852 -0.1348  0.6059
  676MOL0     C93210   5.937   7.459   1.068  0.0964  1.3002  0.0711
  676MOL0     C93211   5.858   7.452   1.201  0.7648 -0.5326 -0.1533
  676MOL0     C93212   5.755   7.574   1.189  0.6322  0.2823 -1.0649
  676MOL0     C93213   5.682   7.609   1.324  1.0933  0.3119 -0.3081
  676MOL0     C93214   5.610   7.497   1.368  0.1584  0.1490  0.1873
  676MOL0     C93215   5.555   7.394   1.405 -0.1384 -0.3265  0.4133
  676MOL0     C93216   6.233   7.478   1.140  0.1758 -0.4895 -0.1609
  676MOL0     C93217   6.376   7.474   1.158  0.0516 -0.4038  0.4227
  676MOL0     C93218   6.448   7.601   1.191 -0.6375 -0.7674  0.2023
  676MOL0     H93219   6.795   7.453   1.307  0.6273 -0.8885 -0.7250
  676MOL0     H93220   7.009   7.444   1.412  1.4075 -0.8360 -1.1641
  676MOL0     H93221   7.201   7.407   1.493 -2.4896 -2.2293  1.1332
  676MOL0     H93222   7.228   7.351   1.324  1.8708  0.1636  0.4128
  676MOL0     H93223   7.374   7.183   1.431 -1.1186  0.8388  0.0696
  676MOL0     H93224   7.435   7.351   1.409  2.4764 -2.4452 -1.3300
  676MOL0     H93225   7.302   7.317   1.662 -1.2691  3.1773 -1.7196
  676MOL0     H93226   7.451   7.208   1.648 -0.9269 -1.7587 -3.0269
  676MOL0     H93227   7.579   7.432   1.581  0.5557  1.4076  0.8140
  676MOL0     H93228   7.427   7.507   1.609  0.3249 -0.6929 -0.0950
  676MOL0     H93229   7.582   7.340   1.801  1.0356  0.2944 -1.8831
  676MOL0     H93230   7.414   7.410   1.826 -1.5957  2.1038 -3.0777
  676MOL0     H93231   7.685   7.558   1.771 -0.5841  2.4345 -1.1255
  676MOL0     H93232   7.523   7.637   1.779 -0.6409  0.9089  0.1187
  676MOL0     H93233   7.679   7.517   2.012 -1.8562 -0.7135  1.0898
  676MOL0     H93234   7.509   7.583   2.010 -0.2367  0.3292 -0.7290
  676MOL0     H93235   7.775   7.712   1.942 -0.5974  2.2915 -0.8251
  676MOL0     H93236   7.619   7.797   1.925  1.7582 -0.3818 -1.1312
  676MOL0     H93237   7.493   7.842   2.170 -0.9610 -1.1863  0.2040
  676MOL0     H93238   7.507   7.983   2.414 -0.4617 -0.8000  0.3649
  676MOL0     H93239   7.666   8.033   2.462 -2.6846  1.8592 -0.3631
  676MOL0     H93240   7.716   7.799   2.548  0.3875  1.9036 -1.7783
  676MOL0     H93241   7.639   7.903   2.644  1.2980 -1.1536 -0.0217
  676MOL0     H93242   7.420   7.804   2.602  0.8800  0.2883  2.4979
  676MOL0     H93243   7.494   7.706   2.469 -0.3757 -2.9615  1.6639
  676MOL0     H93244   7.634   7.587   2.620 -0.1751  2.0987 -1.5722
  676MOL0     H93245   7.577   7.687   2.765 -1.1717  1.9689  0.5237
  676MOL0     H93246   7.581   7.411   2.509 -0.6175  1.0594  0.0806
  676MOL0     H93247   7.497   7.157   2.263  3.2092 -1.7744  1.1046
  676MOL0     H93248   7.630   7.234   2.333 -0.3216 -2.0494 -2.4559
  676MOL0     H93249   7.540   7.320   2.210 -0.0492  1.0314  1.0978
  676MOL0     H93250   7.117   6.938   2.223 -0.3140  1.0836  0.5224
  676MOL0     H93251   7.007   6.823   2.027 -1.6398 -0.0422 -0.0980
  676MOL0     H93252   6.917   7.038   1.735 -0.4669 -0.8476  0.8380
  676MOL0     H93253   7.005   6.894   1.800  0.1598  0.1439  2.3815
  676MOL0     H93254   6.933   6.855   1.563  1.7825  0.2538  1.8446
  676MOL0     H93255   6.849   6.748   1.666  1.8665 -1.0229 -4.5403
  676MOL0     H93256   6.740   7.012   1.564  1.6082 -2.3531 -3.1617
  676MOL0     H93257   6.659   6.918   1.689 -0.3496 -1.3544  1.7385
  676MOL0     H93258   6.628   6.728   1.547 -0.5902  1.7331  2.4704
  676MOL0     H93259   6.727   6.796   1.420 -1.5915 -0.7525 -0.6341
  676MOL0     H93260   6.562   6.993   1.427 -0.4269  0.7639 -1.8401
  676MOL0     H93261   6.513   6.850   1.337 -3.3878  3.6692 -0.0618
  676MOL0     H93262   6.408   6.894   1.626 -1.0482 -3.9594  1.2399
  676MOL0     H93263   6.371   6.769   1.512 -1.0883 -0.3492  1.6608
  676MOL0     H93264   6.278   6.943   1.345  0.0248 -1.0873  0.4191
  676MOL0     H93265   6.296   7.068   1.465  1.1295  0.1440 -0.3339
  676MOL0     H93266   6.146   6.970   1.611 -0.0785 -2.5692  1.7338
  676MOL0     H93267   6.137   6.822   1.511 -2.1802  0.4942  3.1656
  676MOL0     H93268   6.724   7.142   2.030 -1.0336  0.0243  1.7671
  676MOL0     H93269   6.835   7.250   2.213  1.0914 -1.1915  0.7802
  676MOL0     H93270   7.090   7.373   2.487  0.8196  0.0717  0.8276
  676MOL0     H93271   7.208   7.508   2.657  2.0305  0.4145  0.4795
  676MOL0     H93272   6.991   7.014   1.415 -1.7373 -1.7979  0.8083
  676MOL0     H93273   6.767   7.029   1.301  0.8952 -0.8579  1.0655
  676MOL0     H93274   6.430   7.147   1.136  0.7774  0.2653  2.4006
  676MOL0     H93275   6.177   7.147   1.100  2.2005 -1.8684 -0.0099
  676MOL0     H93276   5.986   7.556   1.056 -1.5440  2.3610  1.5110
  676MOL0     H93277   5.868   7.446   0.985  1.2036 -0.3765 -0.6496
  676MOL0     H93278   5.917   7.473   1.291  4.0210 -1.9185 -1.7841
  676MOL0     H93279   5.799   7.361   1.215  0.6199 -0.1817  1.8507
  676MOL0     H93280   5.804   7.669   1.164  0.3839  0.4401 -0.9594
  676MOL0     H93281   5.674   7.550   1.119 -0.5309 -0.0076  0.3260
  676MOL0     H93282   5.619   7.696   1.305 -0.4974 -0.5735  0.7170
  676MOL0     H93283   5.751   7.639   1.404 -0.4072  2.9305  0.1301
  676MOL0     H93284   5.522   7.294   1.423 -1.8671  0.1878  0.2383
  676MOL0     H93285   6.202   7.581   1.157  3.2565  0.4751  0.1449
  676MOL0     H93286   6.539   7.589   1.249  0.1760  2.2933 -0.2500
  676MOL0     H93287   6.474   7.655   1.099 -0.0561  0.3826  1.0285
  676MOL0     H93288   6.379   7.660   1.252 -1.3487 -0.1387 -1.1535
  677MOL0     O93289   0.855   8.072   1.431  0.2701  0.7655 -0.0011
  677MOL0     C93290   0.876   8.093   1.549  0.2779  0.3971 -0.7758
  677MOL0     O93291   0.972   8.021   1.617 -0.4164 -0.1443 -0.2250
  677MOL0     C93292   1.014   7.902   1.559  0.4396 -0.5531 -0.4579
  677MOL0     C93293   0.955   7.774   1.598  0.0968 -0.3199 -0.4086
  677MOL0     C93294   0.992   7.652   1.544 -0.2640  0.3300  0.2602
  677MOL0     C93295   1.098   7.648   1.462  0.1055  0.3064  0.0964
  677MOL0     O93296   1.131   7.521   1.418  0.1006 -0.2425 -1.0349
  677MOL0     C93297   1.257   7.503   1.359  0.2666  0.4960  0.5344
  677MOL0     C93298   1.299   7.354   1.355 -0.2872  0.4200  0.5114
  677MOL0     C93299   1.355   7.293   1.489  0.5354 -0.5133 -0.1719
  677MOL0     C93300   1.508   7.294   1.512 -0.2854  0.3615 -0.8355
  677MOL0     C93301   1.591   7.267   1.386  0.5596 -0.0556 -0.2129
  677MOL0     C93302   1.728   7.200   1.404  0.2155 -0.0731 -0.1192
  677MOL0     C93303   1.808   7.202   1.277 -0.3524  0.5544 -0.8551
  677MOL0     C93304   1.772   7.094   1.173 -1.1427 -0.1939  1.2020
  677MOL0     N93305   1.877   7.107   1.066 -0.2605  0.9105 -0.4790
  677MOL0     C93306   1.975   7.018   1.045  0.1947  0.1947  0.0569
  677MOL0     C93307   2.016   7.052   0.919  1.5016  0.4397  0.5900
  677MOL0     C93308   2.121   6.987   0.834 -1.1449  0.5339 -0.1086
  677MOL0     C93309   2.252   7.072   0.820 -0.7639 -0.6026  0.5849
  677MOL0     C93310   2.358   6.991   0.744 -0.4585  0.7283 -0.1785
  677MOL0     C93311   2.504   7.042   0.747 -0.3484  0.2176 -0.3229
  677MOL0     O93312   2.591   6.930   0.782 -0.8295 -0.2034  0.3062
  677MOL0     C93313   2.727   6.949   0.777  0.3758 -0.3387 -0.6186
  677MOL0     C93314   2.806   6.831   0.789  0.0329 -0.8492 -0.4246
  677MOL0     C93315   2.945   6.832   0.768 -0.0179 -0.3511 -0.5978
  677MOL0     C93316   3.011   6.697   0.784 -0.3185  0.2546 -0.8162
  677MOL0     C93317   3.015   6.955   0.771 -0.0892 -0.3030  0.4146
  677MOL0     C93318   3.160   6.969   0.748 -0.5869  0.4080  0.0115
  677MOL0     O93319   3.206   7.097   0.754  0.0353 -0.7150  0.5492
  677MOL0     C93320   3.319   7.124   0.673  0.4112 -0.3228  0.3512
  677MOL0     C93321   3.404   7.226   0.720  0.3740  0.0749  0.3690
  677MOL0     C93322   3.506   7.268   0.642  0.2932 -0.3180  0.2833
  677MOL0     C93323   3.533   7.224   0.514  0.0290  0.1436 -0.9649
  677MOL0     O93324   3.646   7.261   0.439  0.0462 -0.2972 -0.0846
  677MOL0     C93325   3.758   7.319   0.502  0.2991 -0.2576 -0.6028
  677MOL0     C93326   3.887   7.283   0.423 -0.0630 -0.2439  0.7647
  677MOL0     C93327   4.013   7.314   0.505 -0.3900 -0.3898 -0.3439
  677MOL0     C93328   4.141   7.257   0.437 -0.1423  0.5171  0.3583
  677MOL0     C93329   4.265   7.255   0.517 -0.0976 -0.3215 -0.6937
  677MOL0     C93330   4.382   7.223   0.423 -0.2694 -0.3590 -0.2162
  677MOL0     C93331   4.507   7.181   0.490  0.2954  0.5727 -0.2865
  677MOL0     C93332   4.508   7.028   0.522 -0.2454 -1.1404 -0.7717
  677MOL0    Cl93333   4.523   6.945   0.360 -0.0022 -0.0360  0.8897
  677MOL0     C93334   3.452   7.123   0.456 -0.0639 -0.1117 -0.2335
  677MOL0     C93335   3.350   7.068   0.536  0.1010 -0.3461 -0.0139
  677MOL0     O93336   3.228   6.866   0.720 -0.2196  0.1121 -1.3706
  677MOL0     C93337   2.934   7.075   0.781  1.1518 -0.0571 -1.4049
  677MOL0     C93338   2.797   7.078   0.787  0.2091  0.0519  0.6834
  677MOL0     N93339   1.934   7.149   0.866 -1.2041  0.0354 -0.0570
  677MOL0     N93340   1.857   7.188   0.957 -0.3057 -0.6932 -0.3916
  677MOL0     C93341   1.166   7.770   1.425  0.1153 -0.4691  0.3587
  677MOL0     C93342   1.123   7.901   1.468  0.2298 -0.4744 -0.4009
  677MOL0     C93343   0.816   8.207   1.627  0.0645  0.2330  1.2841
  677MOL0     C93344   0.841   8.209   1.764  0.4257 -0.4903 -0.1202
  677MOL0     C93345   0.775   8.308   1.845  0.1044 -0.6004 -0.4306
  677MOL0     C93346   0.698   8.408   1.784  0.3050  0.0908 -0.0782
  677MOL0     O93347   0.618   8.492   1.854 -0.2980 -0.1598  0.3656
  677MOL0     C93348   0.576   8.459   1.981 -0.0694  0.6741 -0.4382
  677MOL0     C93349   0.473   8.553   2.030  0.4044  0.2448  1.0173
  677MOL0     C93350   0.360   8.575   1.927 -0.7172  1.1773  0.2718
  677MOL0     C93351   0.266   8.685   1.972 -0.6442 -0.5192  0.1464
  677MOL0     C93352   0.158   8.634   2.062 -0.0067 -0.4607 -0.2305
  677MOL0     C93353   0.082   8.574   2.131  0.9804 -0.4492 -0.3800
  677MOL0     C93354   0.666   8.408   1.656  0.2979 -0.5820  0.4456
  677MOL0     C93355   0.726   8.307   1.569 -0.5056 -0.9328 -0.1902
  677MOL0     C93356   0.673   8.305   1.429  0.0156  0.2047  0.5355
  677MOL0     H93357   0.866   7.778   1.660 -2.5212 -0.1218 -3.8312
  677MOL0     H93358   0.937   7.566   1.581  2.8705 -2.3733 -0.8258
  677MOL0     H93359   1.336   7.553   1.416 -1.6511  0.5323  3.3660
  677MOL0     H93360   1.257   7.554   1.262  0.2368 -0.9662 -0.2610
  677MOL0     H93361   1.212   7.301   1.317 -0.8402  1.2652  0.5696
  677MOL0     H93362   1.372   7.352   1.273  0.0377  3.1223  0.6213
  677MOL0     H93363   1.313   7.346   1.576  0.7319  1.0135 -0.9701
  677MOL0     H93364   1.318   7.191   1.496 -3.0264  0.7337  2.3928
  677MOL0     H93365   1.544   7.383   1.564 -0.6147 -1.3394  2.5826
  677MOL0     H93366   1.527   7.224   1.594  0.1056  2.1522  0.6699
  677MOL0     H93367   1.606   7.363   1.335 -0.7173  0.9490  1.2046
  677MOL0     H93368   1.544   7.195   1.319  0.4486  1.5561 -1.9625
  677MOL0     H93369   1.777   7.265   1.478 -1.0370  1.6781 -0.7457
  677MOL0     H93370   1.721   7.102   1.451  1.5201 -0.2397 -0.2348
  677MOL0     H93371   1.909   7.171   1.306 -1.0078 -0.0304  0.9880
  677MOL0     H93372   1.811   7.306   1.243 -2.5951  1.4959  1.4977
  677MOL0     H93373   1.769   6.993   1.216 -2.2203 -0.8938 -0.4035
  677MOL0     H93374   1.680   7.129   1.123 -1.2197  0.6187  1.8940
  677MOL0     H93375   2.020   6.945   1.112  0.2485  0.6309  0.4971
  677MOL0     H93376   2.078   6.986   0.733  0.1653  1.6965 -0.7102
  677MOL0     H93377   2.135   6.881   0.856  0.7147  0.1802 -2.5399
  677MOL0     H93378   2.238   7.175   0.786  1.6245 -0.6551 -0.8403
  677MOL0     H93379   2.282   7.083   0.924 -2.7451 -1.2806  1.2718
  677MOL0     H93380   2.348   6.891   0.786  1.6285  0.3739 -0.4173
  677MOL0     H93381   2.325   6.979   0.640  0.4737 -0.7755 -0.3288
  677MOL0     H93382   2.542   7.098   0.662  1.9430  0.8473  1.0209
  677MOL0     H93383   2.517   7.116   0.827  0.8759  0.7284 -0.9614
  677MOL0     H93384   2.748   6.739   0.793 -0.1678 -0.7629 -1.1910
  677MOL0     H93385   3.060   6.685   0.881  0.4066 -1.1111 -1.3223
  677MOL0     H93386   3.084   6.676   0.705  2.0122  0.6164  1.1073
  677MOL0     H93387   2.946   6.610   0.767  0.6649 -0.6562 -0.0926
  677MOL0     H93388   3.379   7.272   0.816 -1.6922 -0.6294  0.2327
  677MOL0     H93389   3.565   7.348   0.687 -0.5127  0.6489 -0.3438
  677MOL0     H93390   3.748   7.427   0.518  0.5923 -0.5128  1.5896
  677MOL0     H93391   3.766   7.271   0.600  2.9206  0.2400 -0.4879
  677MOL0     H93392   3.892   7.176   0.398  1.2505 -0.3916  1.5622
  677MOL0     H93393   3.893   7.355   0.341  0.4992 -2.1061 -0.9260
  677MOL0     H93394   4.003   7.272   0.606 -3.1015  2.3844  0.7055
  677MOL0     H93395   4.020   7.423   0.500 -2.8972 -0.2185 -2.9888
  677MOL0     H93396   4.164   7.319   0.351  0.9507  3.5160  2.6410
  677MOL0     H93397   4.121   7.160   0.390 -0.8667  0.6672  0.3381
  677MOL0     H93398   4.286   7.351   0.565  0.2043  0.2203 -1.8571
  677MOL0     H93399   4.248   7.181   0.595 -2.1077  0.3723 -0.4239
  677MOL0     H93400   4.407   7.321   0.381 -0.3221  0.7378  2.1762
  677MOL0     H93401   4.354   7.153   0.343 -3.3773 -1.0514  1.3242
  677MOL0     H93402   4.514   7.237   0.584 -2.0482  0.0506  0.2605
  677MOL0     H93403   4.595   7.200   0.429  0.9466 -2.1924 -0.3406
  677MOL0     H93404   4.414   7.003   0.572  0.2953 -0.5185  0.5996
  677MOL0     H93405   4.590   7.003   0.590 -2.4077 -1.2992  1.9620
  677MOL0     H93406   3.469   7.074   0.361  0.8264  0.1748 -0.2288
  677MOL0     H93407   3.289   6.996   0.483  1.4279 -1.5934  0.1057
  677MOL0     H93408   2.988   7.170   0.780  0.3083  0.5423  1.7121
  677MOL0     H93409   2.756   7.176   0.809  2.0325  1.1423 -0.5395
  677MOL0     H93410   1.249   7.765   1.354  0.6021 -2.3581  1.0169
  677MOL0     H93411   1.178   7.988   1.433 -1.3292 -0.5345 -3.3230
  677MOL0     H93412   0.895   8.130   1.815 -0.9925 -0.9662  0.7155
  677MOL0     H93413   0.790   8.320   1.952 -1.1665  1.6075 -0.4392
  677MOL0     H93414   0.544   8.355   1.993  0.2294  0.7366  1.1705
  677MOL0     H93415   0.661   8.472   2.048 -0.5557 -1.1999  0.6280
  677MOL0     H93416   0.516   8.647   2.065 -3.0030  2.9721 -1.4651
  677MOL0     H93417   0.438   8.512   2.125 -0.2376  2.4031  1.7754
  677MOL0     H93418   0.377   8.576   1.819 -2.0215  0.8461  0.0390
  677MOL0     H93419   0.306   8.481   1.941  1.4648 -0.2208 -0.2623
  677MOL0     H93420   0.215   8.730   1.887 -1.7319 -2.7344 -0.4368
  677MOL0     H93421   0.320   8.765   2.025 -0.4199 -0.6003  0.0418
  677MOL0     H93422   0.009   8.526   2.194 -0.2098  3.0163  1.1504
  677MOL0     H93423   0.597   8.477   1.610  1.8265 -1.8558 -4.3227
  677MOL0     H93424   0.744   8.317   1.347 -2.1363 -0.1232 -1.4994
  677MOL0     H93425   0.615   8.214   1.411 -3.3699  1.9785  1.6090
  677MOL0     H93426   0.610   8.394   1.422 -1.0604 -0.6710 -2.7102
  678MOL0     O93427   2.088   7.360   5.487  0.6626  0.4449 -0.2437
  678MOL0     C93428   2.085   7.380   5.368 -0.4406 -0.1043 -0.7307
  678MOL0     O93429   2.184   7.348   5.288 -0.2103  0.3448 -0.0643
  678MOL0     C93430   2.191   7.401   5.162  0.5946 -0.1076 -0.1667
  678MOL0     C93431   2.201   7.315   5.053 -0.3845 -0.4309 -1.1450
  678MOL0     C93432   2.225   7.364   4.931  0.5439 -0.4025  0.4247
  678MOL0     C93433   2.219   7.498   4.904  0.1183 -0.7384  0.7873
  678MOL0     O93434   2.240   7.534   4.769 -0.1225 -0.2720 -0.5627
  678MOL0     C93435   2.171   7.653   4.726 -0.5689 -0.5389 -0.3186
  678MOL0     C93436   2.190   7.673   4.582 -0.8775 -0.0067  0.3302
  678MOL0     C93437   2.130   7.815   4.543 -0.2421  0.0190  0.2289
  678MOL0     C93438   2.053   7.821   4.402  0.4769  0.0122 -0.6040
  678MOL0     C93439   1.949   7.935   4.410 -0.6926  0.6026 -0.1035
  678MOL0     C93440   2.000   8.068   4.441 -0.0411 -0.1427 -1.3848
  678MOL0     C93441   2.099   8.121   4.334 -0.5045  0.1609  0.1975
  678MOL0     C93442   2.082   8.279   4.303  0.2218  1.0930  0.3438
  678MOL0     N93443   2.210   8.340   4.278  0.4758  0.0585 -1.2061
  678MOL0     C93444   2.272   8.447   4.340 -0.4934  0.5341 -0.6376
  678MOL0     C93445   2.377   8.489   4.276 -0.5715 -0.2700 -0.1699
  678MOL0     C93446   2.465   8.603   4.315 -0.6211  0.7152  0.2057
  678MOL0     C93447   2.411   8.732   4.266  0.0252  0.2218  0.2753
  678MOL0     C93448   2.458   8.854   4.357  1.3441  0.3904 -0.4843
  678MOL0     C93449   2.346   8.888   4.465  0.7240  0.1098  0.0865
  678MOL0     O93450   2.250   8.989   4.418 -0.1100 -0.3487  0.3863
  678MOL0     C93451   2.281   9.125   4.439  0.0582 -1.1990  0.6249
  678MOL0     C93452   2.395   9.188   4.489  0.0021  0.3711 -0.0068
  678MOL0     C93453   2.408   9.327   4.495 -0.1794 -0.7603  0.4284
  678MOL0     C93454   2.537   9.389   4.551  0.7653 -0.5600  0.0748
  678MOL0     C93455   2.298   9.401   4.443  0.6451  0.6054 -0.1129
  678MOL0     C93456   2.300   9.550   4.441  0.8949  0.3490  0.5026
  678MOL0     O93457   2.184   9.603   4.412  0.0263 -1.0566  0.0135
  678MOL0     C93458   2.168   9.742   4.424 -0.5211  0.0285 -0.3376
  678MOL0     C93459   2.253   9.833   4.353  0.7258 -0.0940  0.7483
  678MOL0     C93460   2.238   9.974   4.371 -0.4090  0.8346 -0.4459
  678MOL0     C93461   2.139  10.022   4.448 -0.2250 -0.0208  1.5210
  678MOL0     O93462   2.141  10.160   4.461  0.2710 -0.6193 -0.5687
  678MOL0     C93463   2.010  10.226   4.488 -0.7944  0.8860 -0.0984
  678MOL0     C93464   2.031  10.378   4.515  0.4272 -0.9377  1.1538
  678MOL0     C93465   2.096  10.400   4.649 -0.3290 -0.6618 -0.0053
  678MOL0     C93466   2.175  10.528   4.660 -0.6572  0.8080 -0.5223
  678MOL0     C93467   2.311  10.520   4.574  1.3846  1.0886 -0.5283
  678MOL0     C93468   2.414  10.620   4.619 -0.2742 -0.6714 -0.0168
  678MOL0     C93469   2.556  10.584   4.572  0.6403 -0.3966 -0.3418
  678MOL0     C93470   2.651  10.698   4.556 -0.5667 -0.8717 -0.1045
  678MOL0    Cl93471   2.701  10.760   4.712 -0.1163  0.1506  0.1300
  678MOL0     C93472   2.055   9.941   4.519  0.5146  0.7476  0.1005
  678MOL0     C93473   2.073   9.802   4.514  0.5416 -0.0338 -0.6256
  678MOL0     O93474   2.406   9.616   4.457 -0.1875 -0.1544 -0.0616
  678MOL0     C93475   2.179   9.341   4.409  0.4847 -0.4949  0.8592
  678MOL0     C93476   2.169   9.205   4.411 -0.3533 -0.1255 -0.4567
  678MOL0     N93477   2.377   8.426   4.157  0.6891 -0.7512 -0.4801
  678MOL0     N93478   2.280   8.349   4.163  0.3372  0.0673  0.3372
  678MOL0     C93479   2.207   7.584   5.008  0.4067  1.0500 -0.3148
  678MOL0     C93480   2.200   7.536   5.137 -0.6838  0.0248  0.4064
  678MOL0     C93481   1.960   7.433   5.327  0.0515  0.2325 -0.0364
  678MOL0     C93482   1.883   7.367   5.232 -0.0814 -0.2267  0.4459
  678MOL0     C93483   1.767   7.415   5.178  0.6814  0.2898  0.7883
  678MOL0     C93484   1.718   7.530   5.232 -0.2246  0.1375 -0.2676
  678MOL0     O93485   1.603   7.570   5.167  0.0302 -0.2356  0.2898
  678MOL0     C93486   1.526   7.691   5.206  0.0117  0.0180  0.0387
  678MOL0     C93487   1.410   7.693   5.113 -0.4553  0.3277 -0.5899
  678MOL0     C93488   1.319   7.572   5.129 -0.2416  0.1650  0.4743
  678MOL0     C93489   1.190   7.587   5.051 -0.2947  0.3023  0.3579
  678MOL0     C93490   1.119   7.460   5.073 -0.2423  0.6536 -0.5373
  678MOL0     C93491   1.078   7.355   5.099 -0.0786 -0.0495  0.6181
  678MOL0     C93492   1.784   7.600   5.334 -0.4740  0.9001 -0.1939
  678MOL0     C93493   1.907   7.556   5.379 -0.9846 -0.0969 -1.2543
  678MOL0     C93494   1.983   7.633   5.478 -0.6212 -0.9177 -1.0175
  678MOL0     H93495   2.209   7.208   5.071 -0.9760 -0.2162  0.6213
  678MOL0     H93496   2.250   7.294   4.852  2.9475  0.3693  0.4242
  678MOL0     H93497   2.215   7.734   4.785  0.4771 -1.3759  0.0874
  678MOL0     H93498   2.065   7.641   4.747 -0.6178 -1.4841 -1.0414
  678MOL0     H93499   2.293   7.676   4.547 -0.2525 -0.9270  1.9859
  678MOL0     H93500   2.142   7.594   4.523  0.0272  0.5391 -1.1849
  678MOL0     H93501   2.066   7.855   4.622 -0.8686  0.8995 -0.6931
  678MOL0     H93502   2.211   7.888   4.548 -2.2831  2.5590 -0.8231
  678MOL0     H93503   2.131   7.841   4.327  0.6418  0.6528 -0.2696
  678MOL0     H93504   2.002   7.726   4.385 -0.3655  0.3291  0.0617
  678MOL0     H93505   1.888   7.910   4.497  0.2704 -0.1157  0.3973
  678MOL0     H93506   1.894   7.935   4.315  0.4807 -3.1789 -0.9816
  678MOL0     H93507   1.912   8.132   4.453  0.7214  0.8091 -0.7671
  678MOL0     H93508   2.057   8.067   4.534  0.3586  3.5014 -1.4406
  678MOL0     H93509   2.085   8.061   4.244 -0.4677 -0.3946  0.5574
  678MOL0     H93510   2.204   8.112   4.364  0.2006  0.9270 -1.8818
  678MOL0     H93511   2.012   8.295   4.221 -2.0488  1.1933  2.2102
  678MOL0     H93512   2.035   8.324   4.392 -1.1631  0.2102  0.0773
  678MOL0     H93513   2.233   8.491   4.432  1.2688  2.1081 -0.5902
  678MOL0     H93514   2.566   8.581   4.277 -1.9349 -0.8195 -2.7520
  678MOL0     H93515   2.483   8.592   4.423  1.6726 -0.2518 -0.2018
  678MOL0     H93516   2.443   8.756   4.164  0.7807  2.1223  0.9089
  678MOL0     H93517   2.303   8.722   4.259  0.0972 -0.0056 -0.6430
  678MOL0     H93518   2.553   8.836   4.407 -1.0696  1.3281  5.2021
  678MOL0     H93519   2.483   8.941   4.296 -2.5290 -1.2803 -5.1080
  678MOL0     H93520   2.296   8.794   4.488  0.8080  0.2415  0.8353
  678MOL0     H93521   2.395   8.923   4.556 -0.5911 -1.1393  1.3166
  678MOL0     H93522   2.466   9.117   4.532 -0.6622 -0.1192  0.2896
  678MOL0     H93523   2.601   9.316   4.600  0.0580 -0.1119  1.7184
  678MOL0     H93524   2.511   9.466   4.624  1.9902  0.6315 -0.7018
  678MOL0     H93525   2.581   9.441   4.465  0.5757 -1.8633 -0.8441
  678MOL0     H93526   2.332   9.790   4.293  0.4468 -1.8504  1.5753
  678MOL0     H93527   2.286  10.052   4.313 -0.2503 -0.1647 -1.6961
  678MOL0     H93528   1.948  10.202   4.401 -2.0076 -0.3455  1.0506
  678MOL0     H93529   1.965  10.192   4.582 -1.6697  0.7617 -0.5479
  678MOL0     H93530   2.084  10.412   4.426 -1.7528  1.2976  0.5996
  678MOL0     H93531   1.935  10.429   4.505  1.5572  0.7753 -2.1483
  678MOL0     H93532   2.172  10.322   4.667  0.9845  0.5945  0.0792
  678MOL0     H93533   2.023  10.382   4.728  0.9594 -0.6409  1.2371
  678MOL0     H93534   2.206  10.546   4.763 -1.4868 -2.4164  0.3864
  678MOL0     H93535   2.121  10.619   4.631  1.2423  1.4613 -2.3285
  678MOL0     H93536   2.343  10.416   4.584 -3.9513 -0.8996 -1.0081
  678MOL0     H93537   2.288  10.538   4.469  1.9982 -1.0408 -1.0709
  678MOL0     H93538   2.419  10.630   4.728  1.1741 -2.2921  0.0987
  678MOL0     H93539   2.383  10.717   4.579  0.4617 -0.1112  0.7270
  678MOL0     H93540   2.544  10.541   4.473  0.5807 -2.7308  0.6258
  678MOL0     H93541   2.594  10.509   4.642 -1.8306 -0.0462  1.4855
  678MOL0     H93542   2.614  10.781   4.495 -2.8640 -1.1448  0.8413
  678MOL0     H93543   2.738  10.659   4.502  0.9940 -0.1686  1.7944
  678MOL0     H93544   1.980   9.973   4.591 -0.5057  1.4595 -1.2436
  678MOL0     H93545   2.023   9.728   4.576  4.1110 -2.0907  0.0502
  678MOL0     H93546   2.083   9.381   4.377  0.9755  2.3842  2.6112
  678MOL0     H93547   2.085   9.144   4.379  0.4552 -1.0078 -0.9376
  678MOL0     H93548   2.207   7.691   4.986  0.6254  0.8600 -1.3299
  678MOL0     H93549   2.196   7.606   5.219 -0.1023 -0.9427  1.2918
  678MOL0     H93550   1.928   7.278   5.189  0.8979 -0.3892  1.7274
  678MOL0     H93551   1.716   7.356   5.102 -1.7050  1.0831  1.6815
  678MOL0     H93552   1.499   7.697   5.312 -0.0528 -0.4720  0.0555
  678MOL0     H93553   1.577   7.785   5.185 -1.7524  1.4283  1.7398
  678MOL0     H93554   1.456   7.685   5.014 -1.1126  0.2233 -0.8967
  678MOL0     H93555   1.345   7.780   5.126 -2.3771 -1.0721 -0.3472
  678MOL0     H93556   1.366   7.478   5.097 -0.5632 -0.1848  1.0314
  678MOL0     H93557   1.281   7.565   5.231 -6.2794 -1.5700 -1.4867
  678MOL0     H93558   1.207   7.603   4.944 -0.2645  3.1883  0.7069
  678MOL0     H93559   1.119   7.659   5.093 -1.7491 -1.0096  0.1864
  678MOL0     H93560   1.047   7.255   5.120 -0.8020 -0.7513 -3.1306
  678MOL0     H93561   1.743   7.692   5.373  0.8525 -0.5826  5.6829
  678MOL0     H93562   2.092   7.620   5.470 -0.6884 -3.6021  0.9213
  678MOL0     H93563   1.961   7.740   5.469 -2.0539 -1.2830 -2.0411
  678MOL0     H93564   1.954   7.600   5.579 -2.9562  4.0369  0.2324
  679MOL0     O93565   4.091   9.234   2.035 -0.9525 -0.5373 -0.1641
  679MOL0     C93566   4.084   9.239   1.915  1.5790 -0.2238  0.2887
  679MOL0     O93567   4.193   9.236   1.820 -0.1107 -0.3094 -0.2922
  679MOL0     C93568   4.328   9.222   1.839 -0.0922  0.9837  0.2299
  679MOL0     C93569   4.425   9.268   1.745 -0.6561  0.1604  0.7670
  679MOL0     C93570   4.556   9.254   1.772 -0.3924  0.7516 -0.2584
  679MOL0     C93571   4.606   9.193   1.884  0.0970 -0.6552  0.0623
  679MOL0     O93572   4.742   9.183   1.892  0.4253  0.9877  0.3153
  679MOL0     C93573   4.805   9.145   2.018 -0.7714 -0.8742  0.3737
  679MOL0     C93574   4.946   9.105   1.996  0.7625 -0.2820 -0.6157
  679MOL0     C93575   4.995   9.029   1.876 -0.2246  0.3254  1.1206
  679MOL0     C93576   4.921   8.900   1.858 -0.7464 -1.0706 -0.1991
  679MOL0     C93577   4.965   8.839   1.722 -0.6824 -0.1285  0.3135
  679MOL0     C93578   4.861   8.719   1.701 -0.0689 -0.0477  0.7068
  679MOL0     C93579   4.924   8.581   1.663 -0.5375 -0.2480  0.1465
  679MOL0     C93580   4.818   8.476   1.633 -0.4403  0.2121 -0.3609
  679MOL0     N93581   4.730   8.436   1.736 -0.1745 -0.4886 -0.0525
  679MOL0     C93582   4.756   8.425   1.872 -0.2864 -0.4601 -0.3189
  679MOL0     C93583   4.629   8.408   1.927 -0.1033 -0.4618 -0.1115
  679MOL0     C93584   4.594   8.404   2.073  0.1256  0.3628  0.5021
  679MOL0     C93585   4.589   8.253   2.114  0.6997 -0.3777  0.7184
  679MOL0     C93586   4.610   8.248   2.263  0.4134  0.4038 -0.3820
  679MOL0     C93587   4.744   8.273   2.323 -0.4828  0.0123 -0.9532
  679MOL0     O93588   4.738   8.265   2.465  0.8570 -0.4866  0.3941
  679MOL0     C93589   4.856   8.250   2.525 -0.2902  0.7044 -0.2819
  679MOL0     C93590   4.983   8.300   2.474  0.7767  0.2081 -0.0199
  679MOL0     C93591   5.102   8.247   2.524 -0.5699 -0.4627  0.2339
  679MOL0     C93592   5.236   8.293   2.461  0.9724 -0.0545 -0.1284
  679MOL0     C93593   5.101   8.162   2.641  0.2945  0.5285  0.5354
  679MOL0     C93594   5.220   8.113   2.706 -1.0470  0.0912 -0.4471
  679MOL0     O93595   5.209   7.993   2.768  1.2007  0.8007 -0.2196
  679MOL0     C93596   5.320   7.929   2.823  1.1888 -0.9781 -0.0689
  679MOL0     C93597   5.359   7.805   2.767 -0.5916  0.3255  0.0937
  679MOL0     C93598   5.480   7.749   2.804 -0.3004  0.2598  0.0183
  679MOL0     C93599   5.560   7.793   2.914  0.1990  0.9482  1.5166
  679MOL0     O93600   5.663   7.712   2.963 -0.3809  0.0839  0.2697
  679MOL0     C93601   5.712   7.732   3.095  0.0873 -0.1916  1.1234
  679MOL0     C93602   5.838   7.630   3.103  0.3623 -0.4277  1.1556
  679MOL0     C93603   5.902   7.609   3.238 -0.5660 -0.2088 -0.9907
  679MOL0     C93604   5.943   7.736   3.315 -0.8369 -0.7286 -0.0175
  679MOL0     C93605   6.025   7.700   3.435  0.6055  0.6686  0.3206
  679MOL0     C93606   6.069   7.829   3.499 -0.4104 -0.3665  0.1918
  679MOL0     C93607   6.134   7.795   3.636  0.0723 -0.9101 -0.1509
  679MOL0     C93608   6.196   7.912   3.719  0.4326 -0.8985  0.5327
  679MOL0    Cl93609   6.059   8.024   3.746 -0.0064 -0.0867 -0.4357
  679MOL0     C93610   5.510   7.912   2.970 -0.5214 -0.2598  0.8200
  679MOL0     C93611   5.400   7.988   2.920 -0.2839 -0.7818  0.9343
  679MOL0     O93612   5.319   8.190   2.715 -0.6861 -0.0189 -0.7337
  679MOL0     C93613   4.980   8.109   2.679  0.4654 -0.2116 -0.4943
  679MOL0     C93614   4.865   8.158   2.625  0.3468 -0.4605  0.0650
  679MOL0     N93615   4.536   8.391   1.832 -0.7457  0.5345  1.1243
  679MOL0     N93616   4.594   8.411   1.713 -0.2195 -0.3531 -0.2992
  679MOL0     C93617   4.517   9.151   1.977 -0.4794 -0.2901 -0.3622
  679MOL0     C93618   4.377   9.155   1.956  0.2082 -0.9739  0.0495
  679MOL0     C93619   3.941   9.246   1.861  0.3577  0.6454  0.4722
  679MOL0     C93620   3.835   9.241   1.954 -0.7958 -0.1487  0.1602
  679MOL0     C93621   3.702   9.226   1.908  0.7148  0.1833  0.3184
  679MOL0     C93622   3.666   9.229   1.774  0.3903 -0.3004  0.7556
  679MOL0     O93623   3.530   9.226   1.753  0.0014  0.3001 -0.0949
  679MOL0     C93624   3.472   9.159   1.643 -0.3056  0.6647 -0.0666
  679MOL0     C93625   3.324   9.160   1.638  0.2966 -0.0922  0.0469
  679MOL0     C93626   3.276   9.085   1.763  0.4151  0.2543 -0.6150
  679MOL0     C93627   3.123   9.098   1.791 -0.1709 -0.5157  0.1448
  679MOL0     C93628   3.047   9.027   1.687  0.0873 -0.5364 -0.8708
  679MOL0     C93629   2.988   8.975   1.595 -0.6037  0.8780 -0.0371
  679MOL0     C93630   3.767   9.239   1.680 -0.4452  0.0961  0.3040
  679MOL0     C93631   3.903   9.244   1.718  1.3666 -0.1274 -0.3115
  679MOL0     C93632   3.999   9.240   1.611  0.5478  0.7362 -0.0669
  679MOL0     H93633   4.392   9.329   1.662  2.7898 -0.9733 -1.7043
  679MOL0     H93634   4.622   9.280   1.690 -0.3264 -1.4530 -0.9725
  679MOL0     H93635   4.758   9.059   2.067  1.5495 -1.6892  1.2892
  679MOL0     H93636   4.807   9.225   2.092  4.3922  0.2305 -0.5628
  679MOL0     H93637   5.000   9.200   1.997 -0.4089  0.4908 -2.9621
  679MOL0     H93638   4.972   9.047   2.085  0.1931 -0.6241 -0.6639
  679MOL0     H93639   4.955   9.098   1.802 -1.7333 -0.3041  1.2980
  679MOL0     H93640   5.100   9.000   1.877 -0.4868 -0.9492 -1.3664
  679MOL0     H93641   4.945   8.839   1.946  1.8179 -2.1101 -1.4960
  679MOL0     H93642   4.816   8.929   1.859  0.0088  1.9720 -0.6013
  679MOL0     H93643   5.065   8.796   1.728 -0.7038 -0.3008 -0.5139
  679MOL0     H93644   4.974   8.907   1.637 -0.6986 -2.2733 -1.4817
  679MOL0     H93645   4.795   8.700   1.786 -0.0123 -2.9709  0.1919
  679MOL0     H93646   4.804   8.757   1.615 -2.4685  1.6336  2.9053
  679MOL0     H93647   4.981   8.537   1.746  1.1140  0.1348 -0.7296
  679MOL0     H93648   4.999   8.591   1.584  0.3537  1.8763  1.1689
  679MOL0     H93649   4.765   8.497   1.539  0.4705 -0.9392 -1.1642
  679MOL0     H93650   4.880   8.389   1.610 -0.3944 -0.6486  2.6138
  679MOL0     H93651   4.839   8.451   1.937 -0.7540  3.6526 -1.1341
  679MOL0     H93652   4.493   8.446   2.081  0.5083  1.2538  0.7360
  679MOL0     H93653   4.665   8.470   2.124 -1.6264  4.1451 -1.5141
  679MOL0     H93654   4.488   8.219   2.087  1.1060 -0.2984 -1.0101
  679MOL0     H93655   4.659   8.189   2.060  0.5814 -0.7057  0.9476
  679MOL0     H93656   4.539   8.319   2.307 -2.8199 -2.5424 -0.4381
  679MOL0     H93657   4.584   8.146   2.292  2.4583  0.4372  1.8674
  679MOL0     H93658   4.819   8.212   2.271 -0.1683 -2.6199  2.2068
  679MOL0     H93659   4.763   8.378   2.299 -1.3953  0.5996  0.7231
  679MOL0     H93660   4.991   8.371   2.392 -1.5328  1.0426  0.3915
  679MOL0     H93661   5.261   8.396   2.488 -1.6838  1.2861 -2.2784
  679MOL0     H93662   5.235   8.304   2.352  0.5879 -0.7077 -0.1895
  679MOL0     H93663   5.315   8.220   2.478 -1.1114 -2.2767  0.6030
  679MOL0     H93664   5.297   7.771   2.684  1.5746 -2.9263 -0.3433
  679MOL0     H93665   5.491   7.658   2.747  0.0759  1.7228 -2.3894
  679MOL0     H93666   5.753   7.830   3.123  0.5218  0.2822 -0.9977
  679MOL0     H93667   5.632   7.705   3.164 -2.9374 -0.3577 -2.1657
  679MOL0     H93668   5.811   7.530   3.068  0.9636 -0.9118  2.0431
  679MOL0     H93669   5.914   7.676   3.038 -1.8364  2.1647  0.2053
  679MOL0     H93670   5.996   7.554   3.227 -1.2998 -1.8717  0.5500
  679MOL0     H93671   5.835   7.547   3.297 -0.6176  3.5791  3.5032
  679MOL0     H93672   5.857   7.797   3.343 -1.1355 -1.5413  0.8716
  679MOL0     H93673   6.006   7.797   3.249 -2.2300  1.8182  0.9098
  679MOL0     H93674   5.958   7.649   3.505  1.4224 -1.1182 -0.1550
  679MOL0     H93675   6.105   7.630   3.411 -1.8188 -1.8919 -0.7599
  679MOL0     H93676   5.995   7.908   3.515 -0.3798 -0.7348  2.4282
  679MOL0     H93677   6.144   7.869   3.430 -0.4724 -2.3460 -1.0840
  679MOL0     H93678   6.206   7.720   3.604  1.7055  1.2962 -2.0398
  679MOL0     H93679   6.060   7.746   3.700  0.8134  1.1338  2.4419
  679MOL0     H93680   6.281   7.961   3.670  0.5640 -1.0777  0.5817
  679MOL0     H93681   6.219   7.888   3.823 -0.6238  1.0281  1.2583
  679MOL0     H93682   5.556   7.945   3.063 -1.0303 -0.0531  1.0012
  679MOL0     H93683   5.384   8.087   2.962 -0.1749 -0.4935  0.2969
  679MOL0     H93684   4.971   8.044   2.766 -1.7802  1.4502  0.6366
  679MOL0     H93685   4.773   8.107   2.653  0.5678 -0.1035  1.5085
  679MOL0     H93686   4.555   9.098   2.064 -1.3175 -1.4057 -0.6440
  679MOL0     H93687   4.306   9.116   2.027 -0.4103 -0.4883 -0.2932
  679MOL0     H93688   3.859   9.244   2.060  2.5538  0.8198 -0.5012
  679MOL0     H93689   3.626   9.236   1.985  0.7901  2.1020  0.2022
  679MOL0     H93690   3.504   9.214   1.555 -0.4818 -0.9330 -1.1786
  679MOL0     H93691   3.513   9.059   1.658  0.1944  1.0621  1.4635
  679MOL0     H93692   3.290   9.109   1.547 -0.9118 -2.3784  1.6597
  679MOL0     H93693   3.288   9.263   1.632  0.7859  0.1480  0.9316
  679MOL0     H93694   3.316   8.984   1.749  0.7022  0.1475  0.8221
  679MOL0     H93695   3.320   9.115   1.859 -0.7442  1.3907 -0.4163
  679MOL0     H93696   3.099   9.205   1.790 -1.4213 -0.7504  1.3384
  679MOL0     H93697   3.101   9.061   1.892 -1.7693  1.0189  0.4201
  679MOL0     H93698   2.929   8.934   1.515  0.0008  0.4627 -0.2686
  679MOL0     H93699   3.735   9.238   1.576 -0.5129 -0.1946  0.3255
  679MOL0     H93700   4.081   9.312   1.618  0.6672  0.9725 -2.7917
  679MOL0     H93701   4.048   9.143   1.622  0.8011  0.5875 -2.0103
  679MOL0     H93702   3.957   9.256   1.511  1.8124 -1.0823 -0.9663
  680MOL0     O93703   0.184   3.873   5.278  0.5015  0.1384  0.0386
  680MOL0     C93704   0.085   3.932   5.235 -0.5628 -0.3818  0.4661
  680MOL0     O93705   0.064   3.957   5.101 -0.5454 -0.4745  0.1304
  680MOL0     C93706   0.139   3.884   5.011 -0.5295 -0.4919  0.9626
  680MOL0     C93707   0.080   3.775   4.947 -0.1235 -0.2236 -0.4739
  680MOL0     C93708   0.155   3.699   4.855 -0.3793  0.3549  0.0989
  680MOL0     C93709   0.281   3.742   4.808 -0.0287  0.1867  0.1449
  680MOL0     O93710   0.341   3.683   4.696 -0.0664  0.0412 -0.3083
  680MOL0     C93711   0.279   3.566   4.638  0.3427  0.2871  1.0691
  680MOL0     C93712   0.362   3.520   4.523  0.9116 -0.1790 -0.3795
  680MOL0     C93713   0.338   3.377   4.482  0.5052 -0.0530 -0.6077
  680MOL0     C93714   0.437   3.360   4.367  0.2922  0.2773  0.5165
  680MOL0     C93715   0.439   3.219   4.304 -0.2576 -0.0840 -0.0603
  680MOL0     C93716   0.566   3.196   4.217 -0.1678 -0.2260  0.4623
  680MOL0     C93717   0.600   3.043   4.189 -0.4180  0.1108 -0.4329
  680MOL0     C93718   0.630   2.954   4.309 -0.8146 -1.0427  0.8357
  680MOL0     N93719   0.722   3.016   4.410 -0.3360 -0.0169  0.2443
  680MOL0     C93720   0.859   3.018   4.395 -0.9232 -0.2625 -1.0147
  680MOL0     C93721   0.909   3.074   4.509  0.2472  0.4594  0.4636
  680MOL0     C93722   1.051   3.099   4.545  0.1113 -0.0294 -0.4310
  680MOL0     C93723   1.131   3.182   4.447  0.3349 -0.0688 -0.2648
  680MOL0     C93724   1.081   3.328   4.444  0.5209  0.0250  0.2116
  680MOL0     C93725   1.172   3.427   4.375 -0.1507  0.3601  0.2691
  680MOL0     O93726   1.208   3.387   4.239  0.6206  0.3979  0.2208
  680MOL0     C93727   1.289   3.472   4.179 -0.3353 -0.3663  0.2291
  680MOL0     C93728   1.396   3.544   4.243  1.0628 -0.1142 -0.3315
  680MOL0     C93729   1.472   3.637   4.170  0.5535  0.1077  0.0987
  680MOL0     C93730   1.593   3.683   4.248 -0.1692  0.6992  1.0205
  680MOL0     C93731   1.420   3.685   4.041 -0.9653  0.3432  0.3025
  680MOL0     C93732   1.489   3.789   3.968  0.8998 -0.3897  0.5542
  680MOL0     O93733   1.563   3.879   4.029  0.2533  0.0181 -0.4110
  680MOL0     C93734   1.608   3.996   3.972  0.3347 -0.2699  1.0486
  680MOL0     C93735   1.722   4.058   4.018 -0.1429 -0.1493  0.4889
  680MOL0     C93736   1.776   4.169   3.954  0.0907 -0.4735  0.4766
  680MOL0     C93737   1.714   4.223   3.838 -0.3978  0.4571 -0.5867
  680MOL0     O93738   1.784   4.317   3.768  0.2377 -0.3743 -0.2477
  680MOL0     C93739   1.709   4.412   3.687 -1.1013 -0.1343  0.3783
  680MOL0     C93740   1.804   4.508   3.628 -0.2550 -0.9758  0.5756
  680MOL0     C93741   1.908   4.445   3.536  0.9720  0.7026  0.2827
  680MOL0     C93742   2.018   4.534   3.485  0.7735 -0.2345  0.3457
  680MOL0     C93743   2.122   4.461   3.408 -0.4033 -0.7201 -0.0204
  680MOL0     C93744   2.242   4.443   3.493 -0.1697  0.2102  0.0678
  680MOL0     C93745   2.341   4.350   3.429 -0.5300  0.3152  0.6957
  680MOL0     C93746   2.356   4.221   3.504  0.0438  0.5212  0.2208
  680MOL0    Cl93747   2.228   4.096   3.488  0.5277 -0.2793  0.3118
  680MOL0     C93748   1.606   4.159   3.785  0.3147  0.1094 -0.1997
  680MOL0     C93749   1.555   4.047   3.844  0.0981  0.5184 -0.3571
  680MOL0     O93750   1.489   3.772   3.846  0.3097 -0.2424 -0.0023
  680MOL0     C93751   1.309   3.619   3.985  0.1180  0.8352  0.2920
  680MOL0     C93752   1.252   3.513   4.053 -0.0838  0.5278  1.0193
  680MOL0     N93753   0.803   3.112   4.588  0.1884 -0.3054 -0.4742
  680MOL0     N93754   0.694   3.078   4.527 -0.2457  0.7419  0.3157
  680MOL0     C93755   0.333   3.859   4.868  0.9380 -0.6366  0.3157
  680MOL0     C93756   0.266   3.926   4.972  0.0924 -0.5189  0.7124
  680MOL0     C93757  -0.016   3.997   5.323 -0.0948 -0.2142 -0.2844
  680MOL0     C93758  -0.115   4.084   5.277 -0.7983  0.7645 -0.1741
  680MOL0     C93759  -0.211   4.142   5.359 -0.7043  0.3682 -0.3170
  680MOL0     C93760  -0.191   4.151   5.502  0.3863  0.0425  0.4264
  680MOL0     O93761  -0.283   4.229   5.558  0.4664 -0.6194 -0.4576
  680MOL0     C93762  -0.313   4.207   5.702  0.4773 -0.1566  0.2409
  680MOL0     C93763  -0.277   4.332   5.776 -0.4041 -0.1363  0.0237
  680MOL0     C93764  -0.349   4.458   5.740  1.1240  0.4775  0.5290
  680MOL0     C93765  -0.427   4.465   5.614 -0.1560 -0.3473  0.4347
  680MOL0     C93766  -0.541   4.559   5.614  0.2497 -0.6266  0.5720
  680MOL0     C93767  -0.633   4.640   5.614 -0.0591 -0.0332 -0.0447
  680MOL0     C93768  -0.087   4.085   5.555 -1.0328 -0.6206  0.1147
  680MOL0     C93769  -0.002   4.006   5.466  1.0999  0.4451  1.1464
  680MOL0     C93770   0.108   3.931   5.535 -0.2412  0.2588 -0.2315
  680MOL0     H93771  -0.023   3.742   4.960  0.6675 -2.6261  0.3158
  680MOL0     H93772   0.121   3.602   4.818  1.2331  0.6605 -2.4774
  680MOL0     H93773   0.181   3.598   4.601  0.1895  1.1233  2.1526
  680MOL0     H93774   0.277   3.483   4.708 -1.2314  0.1127  0.8545
  680MOL0     H93775   0.348   3.600   4.449 -0.0834  2.1274  2.1451
  680MOL0     H93776   0.470   3.531   4.537  1.1793 -1.7801 -1.0154
  680MOL0     H93777   0.355   3.301   4.559  0.7829  2.0729  1.5443
  680MOL0     H93778   0.239   3.365   4.437  1.7749 -5.8973 -2.6952
  680MOL0     H93779   0.410   3.429   4.286 -0.8277 -0.7749 -0.0374
  680MOL0     H93780   0.539   3.388   4.394  0.4298 -0.1246  0.4181
  680MOL0     H93781   0.357   3.199   4.235 -1.5843  4.0724  0.0244
  680MOL0     H93782   0.432   3.149   4.388 -1.0760  0.8717  0.6942
  680MOL0     H93783   0.543   3.248   4.123  2.0854  0.0489  0.0051
  680MOL0     H93784   0.657   3.240   4.259 -0.4155 -2.8419  4.2820
  680MOL0     H93785   0.689   3.050   4.125 -0.2780  0.3491 -0.2111
  680MOL0     H93786   0.519   3.001   4.129  0.5234 -2.8469  0.1903
  680MOL0     H93787   0.535   2.926   4.356 -0.5021 -3.0273  0.3706
  680MOL0     H93788   0.675   2.863   4.269 -2.3623 -1.1700 -0.7487
  680MOL0     H93789   0.916   2.980   4.311  1.1712  0.4884 -0.0023
  680MOL0     H93790   1.099   3.002   4.562  1.1925  0.4978 -0.4009
  680MOL0     H93791   1.054   3.146   4.644 -1.3586 -2.7114  1.0287
  680MOL0     H93792   1.232   3.194   4.488  0.9443  0.7488 -1.8985
  680MOL0     H93793   1.135   3.139   4.346  1.6250 -0.3392 -0.1143
  680MOL0     H93794   0.977   3.336   4.410 -0.0845 -4.5385  0.3419
  680MOL0     H93795   1.080   3.366   4.546  1.3306  0.6489 -0.0039
  680MOL0     H93796   1.124   3.525   4.369 -1.2702  0.1187  3.4582
  680MOL0     H93797   1.262   3.422   4.437  0.1318 -2.0911 -0.2298
  680MOL0     H93798   1.426   3.525   4.345 -0.9043 -1.6544  0.0251
  680MOL0     H93799   1.679   3.703   4.183 -0.4963  1.1847  0.7310
  680MOL0     H93800   1.632   3.613   4.322  2.3410  1.3019  0.3624
  680MOL0     H93801   1.570   3.777   4.299  0.2991  0.7443  1.1497
  680MOL0     H93802   1.765   4.031   4.113 -1.7545  0.4667  1.4296
  680MOL0     H93803   1.864   4.223   3.988 -0.4641 -1.7119  4.4516
  680MOL0     H93804   1.677   4.358   3.598  1.3100  0.5480 -0.9822
  680MOL0     H93805   1.627   4.456   3.745  1.2840  1.4191  2.8630
  680MOL0     H93806   1.747   4.586   3.575  0.0986 -2.9696 -3.0792
  680MOL0     H93807   1.862   4.554   3.708  0.2833  2.0930 -1.4172
  680MOL0     H93808   1.846   4.415   3.451  2.2491  2.0604 -1.2111
  680MOL0     H93809   1.952   4.357   3.585 -1.7054 -1.8584 -1.5690
  680MOL0     H93810   2.060   4.595   3.565 -0.3746 -0.5704  1.2411
  680MOL0     H93811   1.973   4.608   3.418 -1.4254 -4.2630 -3.1582
  680MOL0     H93812   2.088   4.366   3.365  0.3403 -3.8960  5.4032
  680MOL0     H93813   2.148   4.530   3.328 -0.3638  1.9653  2.1620
  680MOL0     H93814   2.223   4.420   3.598 -1.4773 -2.9269 -0.7330
  680MOL0     H93815   2.295   4.538   3.504 -1.4007  1.0506 -0.8700
  680MOL0     H93816   2.437   4.404   3.426  1.7322 -3.3880 -1.6184
  680MOL0     H93817   2.313   4.325   3.326 -3.1158  2.0362  0.8960
  680MOL0     H93818   2.353   4.245   3.611  0.0993  2.5812 -0.1868
  680MOL0     H93819   2.455   4.175   3.502 -0.1537 -0.0668  2.0347
  680MOL0     H93820   1.549   4.205   3.706  0.7361  1.2363  0.1311
  680MOL0     H93821   1.461   4.013   3.800 -0.0368 -1.5888  1.3906
  680MOL0     H93822   1.288   3.652   3.884  3.1567  0.0066 -0.7163
  680MOL0     H93823   1.170   3.461   4.004  1.8420 -1.8149  0.0745
  680MOL0     H93824   0.431   3.892   4.835 -0.0698  0.6708 -1.5514
  680MOL0     H93825   0.300   4.013   5.028  0.2744 -0.1856  0.0905
  680MOL0     H93826  -0.119   4.099   5.170 -1.8517  2.0061  0.0300
  680MOL0     H93827  -0.288   4.200   5.309  1.9603  1.9983 -2.8126
  680MOL0     H93828  -0.420   4.185   5.706  0.7994 -1.7334  3.4054
  680MOL0     H93829  -0.262   4.125   5.752 -2.4064 -2.2369  0.0374
  680MOL0     H93830  -0.175   4.362   5.754 -0.2172  0.3645  1.4821
  680MOL0     H93831  -0.275   4.314   5.884 -1.5646 -1.5438 -0.1410
  680MOL0     H93832  -0.412   4.469   5.829  3.5259 -1.8924  2.6673
  680MOL0     H93833  -0.276   4.540   5.731  0.4632  0.8147 -2.8931
  680MOL0     H93834  -0.477   4.370   5.591 -1.6280  0.7882 -1.3512
  680MOL0     H93835  -0.376   4.500   5.524 -1.0282 -1.9358 -0.7400
  680MOL0     H93836  -0.715   4.709   5.606  1.8241  2.0536 -3.5921
  680MOL0     H93837  -0.051   4.085   5.658 -0.4185 -1.2860 -0.0937
  680MOL0     H93838   0.206   3.971   5.510 -0.2068  0.0125 -0.5029
  680MOL0     H93839   0.094   3.958   5.640  2.0460  5.1645 -0.9140
  680MOL0     H93840   0.094   3.828   5.500 -1.1555  0.5421 -0.7325
  681MOL0     O93841  10.000   2.069   1.873 -0.0370  0.8054  0.1544
  681MOL0     C93842   9.882   2.062   1.824 -0.2370  0.5553 -0.1994
  681MOL0     O93843   9.773   2.019   1.886  0.2819  1.1725  0.3972
  681MOL0     C93844   9.758   2.009   2.018  0.2794  0.3512 -0.1961
  681MOL0     C93845   9.648   1.932   2.075 -0.2492 -0.6895 -0.7825
  681MOL0     C93846   9.629   1.924   2.208  0.7030 -0.5748  0.2316
  681MOL0     C93847   9.719   1.986   2.289 -0.0198  0.3319  0.2109
  681MOL0     O93848   9.679   1.983   2.422 -0.5426  0.2827 -1.1871
  681MOL0     C93849   9.670   2.112   2.493  0.6713  0.0018 -0.6175
  681MOL0     C93850   9.521   2.139   2.549 -0.7695 -0.3185 -0.3541
  681MOL0     C93851   9.456   2.012   2.609 -0.5399 -0.2929  0.2227
  681MOL0     C93852   9.381   2.035   2.746 -0.1105  0.4461  0.3774
  681MOL0     C93853   9.307   1.911   2.787  0.0614 -0.0100  0.5560
  681MOL0     C93854   9.174   1.908   2.719 -0.2946  0.7037 -0.2451
  681MOL0     C93855   9.084   1.784   2.744  0.2515 -0.9663  0.5593
  681MOL0     C93856   8.956   1.783   2.665 -0.8367 -0.4791  0.1835
  681MOL0     N93857   8.958   1.769   2.519 -0.0128  0.3305 -0.0102
  681MOL0     C93858   8.837   1.777   2.452  1.1441 -0.1104  0.0324
  681MOL0     C93859   8.879   1.759   2.320  0.7107 -1.0134 -0.1016
  681MOL0     C93860   8.773   1.749   2.215  0.8996 -0.2396  0.4184
  681MOL0     C93861   8.822   1.785   2.068  0.0825  0.1694 -0.9681
  681MOL0     C93862   8.914   1.678   2.012 -0.5314  0.3485  0.7461
  681MOL0     C93863   8.941   1.710   1.863 -0.8202  1.6410 -0.0047
  681MOL0     O93864   8.978   1.585   1.802  0.5528  0.2064  0.2405
  681MOL0     C93865   8.986   1.581   1.662  1.1188  0.0636 -0.3321
  681MOL0     C93866   8.957   1.689   1.580 -0.2430 -0.6633 -1.2719
  681MOL0     C93867   8.958   1.674   1.440 -0.5971  0.4125 -0.2752
  681MOL0     C93868   8.954   1.807   1.362  0.8209 -0.3594 -0.6382
  681MOL0     C93869   8.970   1.553   1.382  0.3587 -0.4114  0.7019
  681MOL0     C93870   8.956   1.524   1.236 -0.4186  0.1903  0.4371
  681MOL0     O93871   8.976   1.392   1.196  0.0837  0.1887  0.3473
  681MOL0     C93872   9.000   1.363   1.065  0.3924  0.0001  0.4954
  681MOL0     C93873   9.129   1.392   1.015 -0.0046  0.3799  0.4192
  681MOL0     C93874   9.161   1.374   0.872 -0.3307 -0.0457 -0.3341
  681MOL0     C93875   9.068   1.308   0.794  0.0643  0.2552 -0.9270
  681MOL0     O93876   9.091   1.248   0.674 -0.0338  0.7042  0.1628
  681MOL0     C93877   9.185   1.294   0.583 -0.6980 -0.1981 -0.2536
  681MOL0     C93878   9.276   1.164   0.541  0.3521 -0.4729  0.1224
  681MOL0     C93879   9.408   1.214   0.471  0.2510  0.5282  0.2680
  681MOL0     C93880   9.476   1.096   0.392 -0.2897 -0.3301 -0.4561
  681MOL0     C93881   9.569   1.160   0.284 -0.0972 -0.2375 -0.1302
  681MOL0     C93882   9.647   1.067   0.188  0.0689  0.4566 -0.2193
  681MOL0     C93883   9.603   1.031   0.043  0.0563  0.1765  0.3575
  681MOL0     C93884   9.715   0.955  -0.036  0.1212 -0.0191  0.1778
  681MOL0    Cl93885   9.660   0.927  -0.202 -0.3511 -0.1932  0.5603
  681MOL0     C93886   8.946   1.272   0.847  0.2115 -0.1944  0.0554
  681MOL0     C93887   8.909   1.299   0.981 -0.7512 -0.3186 -0.7894
  681MOL0     O93888   8.929   1.612   1.155 -0.3707 -0.4147 -0.2738
  681MOL0     C93889   8.990   1.448   1.465  0.0279  0.1889 -0.3326
  681MOL0     C93890   9.000   1.460   1.599  0.4807  0.1711 -0.0579
  681MOL0     N93891   9.019   1.745   2.319 -0.1231 -0.3495 -0.0919
  681MOL0     N93892   9.062   1.756   2.440 -0.3895  0.8013 -0.9123
  681MOL0     C93893   9.821   2.064   2.245 -1.0892 -0.2058 -0.9741
  681MOL0     C93894   9.837   2.078   2.113  0.6197 -0.3953  0.5288
  681MOL0     C93895   9.852   2.128   1.691 -0.6212  0.3789  0.1082
  681MOL0     C93896   9.717   2.165   1.669 -0.6357 -0.1441 -0.7806
  681MOL0     C93897   9.666   2.203   1.541  0.8497 -0.7695 -0.2620
  681MOL0     C93898   9.748   2.229   1.434 -0.1974  0.4289  0.2068
  681MOL0     O93899   9.697   2.298   1.330 -0.5543 -0.2191  0.5244
  681MOL0     C93900   9.779   2.367   1.237 -0.6546 -0.4329  0.6057
  681MOL0     C93901   9.713   2.447   1.122 -0.1504  0.1951 -0.5112
  681MOL0     C93902   9.642   2.357   1.019 -0.6261 -0.4727 -0.2384
  681MOL0     C93903   9.738   2.277   0.923  0.4799  0.1439 -0.1263
  681MOL0     C93904   9.831   2.365   0.852 -0.1792 -0.3484  0.8420
  681MOL0     C93905   9.901   2.441   0.787 -0.8563 -1.0545  0.0122
  681MOL0     C93906   9.875   2.194   1.461  0.7987 -0.2627  0.6992
  681MOL0     C93907   9.936   2.144   1.579  0.4261  0.2699  0.1281
  681MOL0     C93908  10.080   2.107   1.572  0.0050 -0.2523  0.4405
  681MOL0     H93909   9.573   1.879   2.017 -0.3698 -0.8903 -0.4460
  681MOL0     H93910   9.539   1.878   2.248 -1.1110  1.3327 -1.4323
  681MOL0     H93911   9.718   2.196   2.442  4.2233 -2.8570 -2.4986
  681MOL0     H93912   9.729   2.105   2.585 -1.3639  1.5467  0.9066
  681MOL0     H93913   9.538   2.205   2.634  2.1467 -2.6382  1.0572
  681MOL0     H93914   9.459   2.183   2.470 -1.3575  1.1128  0.8714
  681MOL0     H93915   9.389   1.976   2.530  1.2723 -1.3365 -0.9263
  681MOL0     H93916   9.534   1.942   2.640 -1.0098 -0.1847  1.7111
  681MOL0     H93917   9.460   2.049   2.821  0.5535 -3.3855  0.5618
  681MOL0     H93918   9.321   2.127   2.743  0.0365  0.5817  1.3400
  681MOL0     H93919   9.280   1.907   2.893 -4.8531 -0.1823 -0.4747
  681MOL0     H93920   9.360   1.819   2.761 -4.6440 -2.7561 -0.4348
  681MOL0     H93921   9.113   1.997   2.736 -1.8386 -0.7873  2.9528
  681MOL0     H93922   9.197   1.905   2.612  3.3959  2.4758  0.3044
  681MOL0     H93923   9.060   1.781   2.851 -0.0928 -0.2590  0.5121
  681MOL0     H93924   9.136   1.693   2.716 -2.4420 -2.7945  1.1608
  681MOL0     H93925   8.894   1.701   2.705  0.2911 -1.3887  0.1282
  681MOL0     H93926   8.895   1.873   2.675  0.3983  0.7333 -2.3159
  681MOL0     H93927   8.736   1.790   2.491  0.0055 -3.8052 -1.2091
  681MOL0     H93928   8.700   1.823   2.247 -0.7348 -2.6421  2.6835
  681MOL0     H93929   8.719   1.654   2.220  1.2124 -0.8371 -3.5927
  681MOL0     H93930   8.729   1.803   2.013 -0.6898 -0.2344  0.1559
  681MOL0     H93931   8.872   1.882   2.078  2.1567 -1.0445  1.8432
  681MOL0     H93932   9.011   1.685   2.062  0.5572 -2.9711 -0.6428
  681MOL0     H93933   8.878   1.575   2.017  0.3212  0.0715  1.2555
  681MOL0     H93934   8.847   1.745   1.820  1.3009  2.2978 -4.7499
  681MOL0     H93935   9.018   1.785   1.842  1.2621 -1.0697 -3.0438
  681MOL0     H93936   8.932   1.789   1.615 -3.2576 -1.3334 -1.2674
  681MOL0     H93937   8.880   1.799   1.282  1.4359  1.5722 -1.4361
  681MOL0     H93938   9.047   1.823   1.307 -0.5423 -0.3648 -3.0682
  681MOL0     H93939   8.927   1.890   1.428 -1.1392  0.1043 -1.9388
  681MOL0     H93940   9.201   1.432   1.085  2.0184 -0.9096 -0.8041
  681MOL0     H93941   9.261   1.403   0.842  0.6368 -0.9606  1.8503
  681MOL0     H93942   9.128   1.339   0.502 -1.3830  2.7354  1.6886
  681MOL0     H93943   9.258   1.362   0.627 -2.1375  2.6701 -2.0508
  681MOL0     H93944   9.316   1.103   0.623  0.1553  0.6063  1.0500
  681MOL0     H93945   9.216   1.113   0.465 -1.3905 -0.6233  1.5351
  681MOL0     H93946   9.485   1.259   0.534  0.1792  2.1917 -0.7771
  681MOL0     H93947   9.374   1.284   0.395  1.6821  1.1564  0.1783
  681MOL0     H93948   9.405   1.028   0.344 -1.9450 -0.6404  2.1849
  681MOL0     H93949   9.530   1.027   0.458 -0.8017 -1.2615 -0.9880
  681MOL0     H93950   9.509   1.229   0.223  0.5868  0.2162 -0.3039
  681MOL0     H93951   9.641   1.216   0.343  0.1204 -2.6055  2.0180
  681MOL0     H93952   9.683   0.980   0.243  0.8180  0.2477 -1.0224
  681MOL0     H93953   9.737   1.127   0.174 -0.5558  1.0001 -2.2946
  681MOL0     H93954   9.570   1.115  -0.020 -2.2184 -0.2013  0.9412
  681MOL0     H93955   9.526   0.954   0.047 -1.3594  1.2191 -2.9897
  681MOL0     H93956   9.727   0.859   0.016  3.7739 -0.0617 -0.4778
  681MOL0     H93957   9.804   1.017  -0.023 -1.1223  2.6461 -2.6937
  681MOL0     H93958   8.878   1.199   0.804  2.5437 -2.1721 -0.5103
  681MOL0     H93959   8.810   1.278   1.019 -0.6747 -1.3543 -1.1345
  681MOL0     H93960   9.004   1.345   1.435 -1.0776 -0.7580  2.1875
  681MOL0     H93961   9.012   1.381   1.672  1.6084  0.2635 -0.1215
  681MOL0     H93962   9.885   2.135   2.296 -1.7005  0.1709 -0.7323
  681MOL0     H93963   9.904   2.155   2.074 -2.3851  2.4653  0.5832
  681MOL0     H93964   9.656   2.166   1.759 -2.8725  2.7017 -2.1791
  681MOL0     H93965   9.565   2.239   1.526  1.5605  0.3912 -2.9202
  681MOL0     H93966   9.829   2.442   1.300 -2.8618  1.1748  0.5437
  681MOL0     H93967   9.856   2.298   1.200  0.3354  0.9873 -0.1119
  681MOL0     H93968   9.789   2.501   1.066 -0.6059 -0.7804 -2.1542
  681MOL0     H93969   9.643   2.522   1.161  1.8397  1.2673  1.2023
  681MOL0     H93970   9.570   2.292   1.069  0.1703 -1.7919 -0.7445
  681MOL0     H93971   9.572   2.419   0.963 -0.2117 -0.1897 -0.4449
  681MOL0     H93972   9.672   2.228   0.851 -2.9846  2.3380  1.2807
  681MOL0     H93973   9.791   2.197   0.975 -1.1276 -0.5612  0.5299
  681MOL0     H93974   9.971   2.510   0.745  0.7383 -1.7068  1.4747
  681MOL0     H93975   9.937   2.184   1.373 -2.6552 -1.2042 -1.8650
  681MOL0     H93976  10.097   2.004   1.606  1.1258 -0.0347  0.5932
  681MOL0     H93977  10.117   2.108   1.469 -0.8171 -0.7689  0.1315
  681MOL0     H93978  10.149   2.175   1.623  1.0429  0.3200 -1.6114
  682MOL0     O93979   0.823   8.783   3.681  0.2658  0.0843 -0.0332
  682MOL0     C93980   0.894   8.702   3.742  1.1184  0.4154  0.3513
  682MOL0     O93981   1.025   8.686   3.735 -0.0255 -0.2087  0.3636
  682MOL0     C93982   1.104   8.779   3.664  0.3293 -0.7203 -0.2651
  682MOL0     C93983   1.164   8.735   3.545 -0.1594  0.3943 -0.9152
  682MOL0     C93984   1.243   8.818   3.467 -0.0801  0.0348  1.1185
  682MOL0     C93985   1.264   8.954   3.507 -0.3047  0.8231  0.1623
  682MOL0     O93986   1.331   9.034   3.418  0.4120  0.6970  0.3540
  682MOL0     C93987   1.422   9.128   3.474 -0.1914 -0.1149  0.4007
  682MOL0     C93988   1.518   9.195   3.378  0.1952 -0.0133  0.8588
  682MOL0     C93989   1.604   9.098   3.289  0.2755 -0.3461 -0.5252
  682MOL0     C93990   1.679   8.993   3.367 -0.5106  0.4416 -0.5867
  682MOL0     C93991   1.789   9.059   3.473  0.4109  0.5785  0.2969
  682MOL0     C93992   1.913   9.123   3.412 -0.2741 -0.7710 -0.2069
  682MOL0     C93993   2.038   9.102   3.499  0.3254 -0.1131 -0.8774
  682MOL0     C93994   2.046   9.199   3.618  0.2026 -0.4862  0.3816
  682MOL0     N93995   2.036   9.338   3.580  0.3734 -0.0883  0.4033
  682MOL0     C93996   2.117   9.412   3.511 -0.2713 -0.1169  0.1182
  682MOL0     C93997   2.054   9.524   3.480  0.5180  0.4293  0.0628
  682MOL0     C93998   2.105   9.640   3.394 -0.0372 -0.0000  0.5699
  682MOL0     C93999   2.116   9.758   3.476  0.8916 -0.6858 -0.8800
  682MOL0     C94000   2.215   9.858   3.414 -0.6141  0.4922 -0.0484
  682MOL0     C94001   2.250   9.978   3.509 -0.2404 -0.6077  0.1830
  682MOL0     O94002   2.304  10.087   3.427 -0.2607 -0.1188 -0.0131
  682MOL0     C94003   2.245  10.209   3.464  0.4355 -1.3154 -0.6718
  682MOL0     C94004   2.282  10.275   3.581  0.6229 -0.1049  0.1796
  682MOL0     C94005   2.253  10.403   3.610  0.1733 -0.1372 -0.2696
  682MOL0     C94006   2.309  10.454   3.744  0.0746  0.9658 -0.3242
  682MOL0     C94007   2.186  10.485   3.511  0.2752  0.2569 -0.4162
  682MOL0     C94008   2.178  10.640   3.509  0.5546  0.0930 -0.7686
  682MOL0     O94009   2.225  10.709   3.613  0.1807  0.0177 -0.5495
  682MOL0     C94010   2.213  10.843   3.630 -0.8312 -0.4955 -0.8033
  682MOL0     C94011   2.231  10.890   3.764 -0.7920  0.3539  0.8002
  682MOL0     C94012   2.228  11.026   3.784 -0.6616  0.2077 -0.1213
  682MOL0     C94013   2.203  11.117   3.687  1.0803 -0.2756 -0.3223
  682MOL0     O94014   2.198  11.248   3.729  0.2477 -0.0115 -0.3289
  682MOL0     C94015   2.156  11.348   3.632 -0.3402 -0.4916 -0.5208
  682MOL0     C94016   2.154  11.487   3.688  0.3296 -0.4881 -0.4651
  682MOL0     C94017   2.061  11.588   3.616  0.4240  0.4132 -0.1083
  682MOL0     C94018   2.118  11.620   3.483  0.4972 -0.7526  0.5460
  682MOL0     C94019   2.050  11.739   3.424  0.2056 -0.0170 -0.9562
  682MOL0     C94020   2.143  11.794   3.311 -0.0517  0.6000  0.2263
  682MOL0     C94021   2.155  11.692   3.198 -0.7586 -0.7945 -0.0792
  682MOL0     C94022   2.199  11.779   3.080  0.5245 -0.2508 -0.3695
  682MOL0    Cl94023   2.367  11.835   3.112 -0.4892  0.2393 -0.0414
  682MOL0     C94024   2.183  11.072   3.554  0.5583 -0.8198  0.5460
  682MOL0     C94025   2.191  10.935   3.524 -0.7982  0.8634 -0.1978
  682MOL0     O94026   2.113  10.682   3.415 -1.1138  0.4813  0.0538
  682MOL0     C94027   2.136  10.412   3.403  0.7780  0.2935 -0.3914
  682MOL0     C94028   2.173  10.285   3.376  0.5823 -0.0162 -0.2173
  682MOL0     N94029   1.933   9.521   3.553 -0.0321  0.3255 -0.1313
  682MOL0     N94030   1.921   9.408   3.605 -0.2486  0.0950 -0.7443
  682MOL0     C94031   1.220   8.994   3.635 -0.6048 -0.5010 -0.1093
  682MOL0     C94032   1.131   8.912   3.709 -0.8433  0.5506 -0.1594
  682MOL0     C94033   0.811   8.602   3.827  0.1859  0.4259 -0.0774
  682MOL0     C94034   0.884   8.485   3.874  0.9472 -0.5852  0.1828
  682MOL0     C94035   0.818   8.388   3.957  0.3542 -0.0531 -0.2015
  682MOL0     C94036   0.690   8.404   4.001  0.3901 -0.0328 -0.1229
  682MOL0     O94037   0.633   8.306   4.071 -0.2848 -1.0408  0.2811
  682MOL0     C94038   0.713   8.207   4.135  0.7887  0.0175 -0.4370
  682MOL0     C94039   0.635   8.153   4.251  0.9013  0.4096 -0.3808
  682MOL0     C94040   0.529   8.053   4.196  0.3759  0.1563  1.0067
  682MOL0     C94041   0.479   7.963   4.309 -0.0620 -0.5134  0.7209
  682MOL0     C94042   0.580   7.860   4.351  0.0742 -0.2424 -0.5210
  682MOL0     C94043   0.657   7.778   4.388 -0.6084  0.5909  0.5348
  682MOL0     C94044   0.625   8.517   3.967  0.0561  0.3784  0.3897
  682MOL0     C94045   0.674   8.613   3.867  0.3534 -0.3514 -0.0318
  682MOL0     C94046   0.581   8.727   3.822  0.5151 -0.2998 -0.3864
  682MOL0     H94047   1.153   8.634   3.507  1.8697 -0.0013 -0.5661
  682MOL0     H94048   1.301   8.783   3.382 -0.3660 -1.1394  1.3913
  682MOL0     H94049   1.487   9.088   3.552  0.9895  2.2624  0.7460
  682MOL0     H94050   1.359   9.205   3.521 -0.7369 -0.6424  0.5546
  682MOL0     H94051   1.478   9.270   3.309  0.5287  1.0506  1.7972
  682MOL0     H94052   1.586   9.246   3.447  0.8995  0.6490 -0.3156
  682MOL0     H94053   1.535   9.039   3.228  1.9538 -2.1166 -0.8099
  682MOL0     H94054   1.684   9.148   3.233  1.6673 -2.2084 -0.2677
  682MOL0     H94055   1.601   8.937   3.420 -1.4847  0.7108 -1.7115
  682MOL0     H94056   1.733   8.925   3.300  0.9683 -4.3179  4.6143
  682MOL0     H94057   1.822   8.974   3.533 -2.1602 -0.5800  0.2117
  682MOL0     H94058   1.743   9.135   3.537 -1.0094 -1.1199  1.4107
  682MOL0     H94059   1.933   9.082   3.312  0.7308 -2.9770  0.8367
  682MOL0     H94060   1.891   9.230   3.408  2.7990 -0.0289  0.1109
  682MOL0     H94061   2.127   9.126   3.440  0.4580  1.4461 -0.1099
  682MOL0     H94062   2.043   8.998   3.533  0.1543  0.3189  0.5418
  682MOL0     H94063   1.960   9.177   3.682  0.0258  1.6538  0.9339
  682MOL0     H94064   2.132   9.188   3.684 -0.1373 -1.1878  0.7261
  682MOL0     H94065   2.222   9.388   3.500  0.1149  0.7159  1.7823
  682MOL0     H94066   2.029   9.646   3.317 -0.9024 -3.3655  0.9967
  682MOL0     H94067   2.205   9.620   3.355 -0.3824 -0.8776  0.1076
  682MOL0     H94068   2.024   9.816   3.489  2.4862  1.8073  0.1619
  682MOL0     H94069   2.152   9.744   3.578 -0.1817 -0.4565 -0.4574
  682MOL0     H94070   2.312   9.811   3.396 -0.8325  0.2676 -0.6977
  682MOL0     H94071   2.181   9.881   3.312 -0.8095 -1.6090 -0.4977
  682MOL0     H94072   2.163  10.011   3.566  0.4724 -0.2423  1.0802
  682MOL0     H94073   2.317   9.961   3.593  1.9273  2.3938 -0.7728
  682MOL0     H94074   2.341  10.216   3.650 -1.3339  0.1605  2.2124
  682MOL0     H94075   2.233  10.513   3.796  0.4816 -1.2921  3.1887
  682MOL0     H94076   2.408  10.500   3.741  1.4917 -1.2910  3.6678
  682MOL0     H94077   2.328  10.372   3.815 -1.4187  0.6490 -0.2592
  682MOL0     H94078   2.237  10.822   3.848 -0.3219  1.3236  1.5614
  682MOL0     H94079   2.255  11.061   3.882  0.6060  3.1629 -1.4080
  682MOL0     H94080   2.218  11.350   3.542 -1.8953 -0.0499 -1.6392
  682MOL0     H94081   2.054  11.325   3.598  1.1065 -2.1904 -4.2228
  682MOL0     H94082   2.118  11.478   3.791 -0.7399 -0.2653 -0.8155
  682MOL0     H94083   2.250  11.539   3.694 -0.0560  0.2603 -0.7034
  682MOL0     H94084   2.048  11.674   3.683  0.7471 -1.7418  2.9341
  682MOL0     H94085   1.962  11.546   3.595 -0.3401  1.5943  0.9485
  682MOL0     H94086   2.105  11.531   3.422 -2.7795 -0.2788  0.3950
  682MOL0     H94087   2.223  11.647   3.496  0.5109 -1.8603  3.2832
  682MOL0     H94088   1.948  11.714   3.392 -1.3112  2.4347  1.5279
  682MOL0     H94089   2.036  11.812   3.504  0.5134 -0.3217 -0.6223
  682MOL0     H94090   2.239  11.814   3.357 -0.5987  2.7026  0.5254
  682MOL0     H94091   2.094  11.888   3.282 -0.1239 -0.0375 -1.9514
  682MOL0     H94092   2.058  11.642   3.185  1.0121 -4.5498 -0.3767
  682MOL0     H94093   2.228  11.613   3.219 -1.2952 -1.2475  0.1059
  682MOL0     H94094   2.125  11.860   3.072  0.6646 -0.1968 -1.1744
  682MOL0     H94095   2.193  11.730   2.982  0.2038  1.4253 -1.2359
  682MOL0     H94096   2.174  11.128   3.462  1.1685  1.8639  2.0222
  682MOL0     H94097   2.192  10.906   3.420 -1.6987  0.3379 -0.0671
  682MOL0     H94098   2.081  10.463   3.325 -0.3104 -0.4757 -0.1444
  682MOL0     H94099   2.150  10.229   3.286 -2.7973 -2.2153  1.8337
  682MOL0     H94100   1.241   9.085   3.691  4.7147 -1.5573  0.1810
  682MOL0     H94101   1.080   8.954   3.796  2.4228 -2.1575  3.4025
  682MOL0     H94102   0.990   8.473   3.854  1.0970  0.2368  0.4627
  682MOL0     H94103   0.881   8.302   3.977 -0.0907 -0.3019  0.1440
  682MOL0     H94104   0.745   8.128   4.066  0.3849  0.7502 -1.4926
  682MOL0     H94105   0.805   8.256   4.170 -0.6424  1.2516  1.8333
  682MOL0     H94106   0.585   8.229   4.311  0.4073 -0.9471  0.9893
  682MOL0     H94107   0.696   8.088   4.315 -2.1324 -1.7563  0.5568
  682MOL0     H94108   0.435   8.105   4.173  0.3970 -0.4907 -0.6465
  682MOL0     H94109   0.561   7.992   4.111  3.1585  0.0261  2.0288
  682MOL0     H94110   0.390   7.911   4.274 -1.0235  2.1178 -1.0027
  682MOL0     H94111   0.435   8.018   4.393  1.6292  1.8885  0.1438
  682MOL0     H94112   0.711   7.693   4.425 -1.8088 -0.7147 -0.6122
  682MOL0     H94113   0.525   8.537   4.004 -0.2230 -2.9104  1.6956
  682MOL0     H94114   0.568   8.725   3.713  1.4992 -2.9568 -0.5372
  682MOL0     H94115   0.480   8.724   3.864  0.0582  0.1972 -1.3882
  682MOL0     H94116   0.627   8.820   3.858 -3.2647  1.2963  0.8107
  683MOL0     O94117   4.200   1.618   4.059 -0.5525  0.2841  0.1784
  683MOL0     C94118   4.248   1.585   3.956  0.2287 -0.9407 -0.1016
  683MOL0     O94119   4.380   1.592   3.918  0.3104 -0.7806 -0.6938
  683MOL0     C94120   4.472   1.622   4.020 -0.0838  0.2373  0.6347
  683MOL0     C94121   4.472   1.572   4.150 -0.2673 -0.0406 -0.5012
  683MOL0     C94122   4.565   1.619   4.241  0.1278  0.4776 -0.6583
  683MOL0     C94123   4.686   1.679   4.195  0.4813  0.2428  0.2009
  683MOL0     O94124   4.776   1.713   4.293  0.2941  0.1901  0.2695
  683MOL0     C94125   4.910   1.661   4.273 -0.3467  0.8680  0.4437
  683MOL0     C94126   5.015   1.765   4.331 -0.6134  0.7767  1.1360
  683MOL0     C94127   4.973   1.822   4.461  0.3195 -0.1251 -0.1063
  683MOL0     C94128   5.036   1.964   4.472  0.2777  0.2138 -1.2055
  683MOL0     C94129   5.172   1.972   4.515 -1.5509 -0.4218  0.5931
  683MOL0     C94130   5.220   2.111   4.479  0.3852  0.1003 -0.0452
  683MOL0     C94131   5.361   2.140   4.528 -0.0773  0.3963  0.5851
  683MOL0     C94132   5.431   2.240   4.435 -0.2580  0.0449  0.5797
  683MOL0     N94133   5.567   2.252   4.482  0.0754  0.3962  0.5212
  683MOL0     C94134   5.662   2.160   4.476 -0.1602  0.0631 -0.6547
  683MOL0     C94135   5.775   2.223   4.516  0.4715 -0.6964 -0.6633
  683MOL0     C94136   5.903   2.152   4.548 -0.7913 -0.0910  0.1912
  683MOL0     C94137   6.021   2.219   4.470 -0.0122 -0.0164  0.3754
  683MOL0     C94138   6.168   2.164   4.479 -0.5106 -0.4079 -0.6768
  683MOL0     C94139   6.236   2.211   4.607 -0.0649  0.1799 -0.0619
  683MOL0     O94140   6.375   2.170   4.617  0.2844  0.1403 -0.2605
  683MOL0     C94141   6.450   2.231   4.715 -0.6218  1.4531  0.3357
  683MOL0     C94142   6.478   2.150   4.823 -0.2800 -0.1625 -0.9805
  683MOL0     C94143   6.536   2.209   4.941  1.0310  0.0041  0.4394
  683MOL0     C94144   6.537   2.121   5.068  0.5509 -0.1378 -0.6049
  683MOL0     C94145   6.576   2.339   4.935 -0.0748  0.2088 -0.0385
  683MOL0     C94146   6.664   2.393   5.043  0.8383 -0.5502 -0.5634
  683MOL0     O94147   6.746   2.300   5.108  0.4666 -0.8630 -0.5460
  683MOL0     C94148   6.804   2.342   5.220 -0.0177  0.2935  0.1270
  683MOL0     C94149   6.919   2.414   5.227  0.4964  0.6054 -0.3057
  683MOL0     C94150   6.978   2.447   5.356  0.0888  1.0696 -0.4070
  683MOL0     C94151   6.928   2.405   5.481 -0.1197  0.2077 -0.6636
  683MOL0     O94152   6.979   2.427   5.603 -0.2338 -0.0392 -0.0624
  683MOL0     C94153   7.106   2.394   5.626 -0.0834  0.2446  0.7516
  683MOL0     C94154   7.153   2.391   5.775 -0.5630 -0.1100  0.4225
  683MOL0     C94155   7.293   2.324   5.785 -0.1333 -0.8207 -0.0003
  683MOL0     C94156   7.302   2.250   5.923  0.9863 -0.7088 -0.1216
  683MOL0     C94157   7.446   2.208   5.956  0.1683  0.3596  0.2059
  683MOL0     C94158   7.440   2.140   6.094  0.2845 -0.4062  0.1439
  683MOL0     C94159   7.577   2.136   6.164  0.4029 -0.3044 -0.6094
  683MOL0     C94160   7.568   2.082   6.312  0.5721 -0.3490 -0.5699
  683MOL0    Cl94161   7.458   2.197   6.414 -0.0459 -0.5334 -0.2899
  683MOL0     C94162   6.810   2.338   5.460 -0.2393  0.7146  0.3741
  683MOL0     C94163   6.746   2.303   5.337  0.6581  0.6867 -0.7552
  683MOL0     O94164   6.679   2.514   5.043  0.0523 -0.0561 -0.8469
  683MOL0     C94165   6.544   2.413   4.821 -0.0812  0.0311 -0.1616
  683MOL0     C94166   6.483   2.366   4.710 -0.3323  0.8478  0.4548
  683MOL0     N94167   5.754   2.349   4.541 -0.0787  0.2170 -0.0085
  683MOL0     N94168   5.628   2.369   4.515  0.6842 -0.1949 -0.6392
  683MOL0     C94169   4.689   1.732   4.067  0.8094  0.4715  0.5699
  683MOL0     C94170   4.582   1.700   3.973 -0.6700  0.8627 -0.0255
  683MOL0     C94171   4.150   1.549   3.850  0.4969  0.0577 -0.3868
  683MOL0     C94172   4.179   1.438   3.774 -0.2821  0.1000 -0.4238
  683MOL0     C94173   4.084   1.392   3.676 -0.5828 -0.3992  0.1033
  683MOL0     C94174   3.951   1.448   3.671 -0.1157  0.7063  0.0862
  683MOL0     O94175   3.839   1.397   3.612 -0.7356 -0.1455  0.5101
  683MOL0     C94176   3.867   1.294   3.521 -0.2098  0.3330 -0.1409
  683MOL0     C94177   3.740   1.269   3.442  0.0087 -0.2662  0.1036
  683MOL0     C94178   3.765   1.171   3.327 -0.3544  0.4739  0.3956
  683MOL0     C94179   3.629   1.135   3.263 -0.3918 -0.2566 -0.2755
  683MOL0     C94180   3.580   1.227   3.164  0.1766  0.0988 -0.3726
  683MOL0     C94181   3.520   1.303   3.087 -0.3666 -0.5087  0.0007
  683MOL0     C94182   3.933   1.559   3.750 -0.7972 -0.3246 -0.5102
  683MOL0     C94183   4.036   1.622   3.827  0.2914  0.7586 -0.4708
  683MOL0     C94184   3.991   1.747   3.903  0.8090 -0.2790 -0.0648
  683MOL0     H94185   4.385   1.528   4.200  0.8940 -0.6990  1.0259
  683MOL0     H94186   4.569   1.601   4.348 -1.1351 -1.8298 -0.9220
  683MOL0     H94187   4.930   1.635   4.168  0.0936  3.1803 -0.0959
  683MOL0     H94188   4.922   1.566   4.326  2.0359 -0.3080 -1.9353
  683MOL0     H94189   5.113   1.716   4.333 -0.1615  1.4872 -0.9633
  683MOL0     H94190   5.024   1.841   4.253  2.2128 -2.6255 -2.2666
  683MOL0     H94191   4.866   1.835   4.474  0.3634  1.4157 -1.0287
  683MOL0     H94192   5.002   1.748   4.537 -1.0422 -0.7445 -0.1575
  683MOL0     H94193   5.013   2.023   4.383  1.5065  0.2725 -1.5082
  683MOL0     H94194   4.977   2.015   4.549 -0.5200 -1.2088 -0.8562
  683MOL0     H94195   5.222   1.887   4.468  1.2268  1.4624 -0.1149
  683MOL0     H94196   5.199   1.949   4.619  3.7773  1.0780 -0.1454
  683MOL0     H94197   5.190   2.125   4.374 -3.4030 -2.7844  0.4325
  683MOL0     H94198   5.160   2.187   4.531  0.0548 -1.1060  1.3894
  683MOL0     H94199   5.415   2.045   4.513  1.2118  1.4613 -2.2273
  683MOL0     H94200   5.358   2.161   4.635 -0.1789 -0.7351  0.8152
  683MOL0     H94201   5.436   2.199   4.334  3.9106 -0.3613  0.7682
  683MOL0     H94202   5.375   2.334   4.443  0.1741  0.3553  0.0504
  683MOL0     H94203   5.651   2.058   4.441  0.0078 -0.6059  1.1641
  683MOL0     H94204   5.882   2.050   4.512 -3.2237  0.8810 -1.3233
  683MOL0     H94205   5.917   2.158   4.656 -2.1439  3.2569  0.2791
  683MOL0     H94206   6.002   2.210   4.363  2.1879  1.1407 -0.1628
  683MOL0     H94207   6.018   2.327   4.485 -0.2322  0.3292 -1.8954
  683MOL0     H94208   6.163   2.055   4.487  1.4131 -0.4059  1.8094
  683MOL0     H94209   6.220   2.203   4.391  0.7056 -0.1415  0.1363
  683MOL0     H94210   6.233   2.320   4.611  4.0489  0.4202  1.8154
  683MOL0     H94211   6.188   2.162   4.692  1.4054  0.9829  1.2832
  683MOL0     H94212   6.446   2.046   4.823 -1.3945  0.1546  0.1332
  683MOL0     H94213   6.481   2.029   5.047  1.9732 -0.6581 -2.3294
  683MOL0     H94214   6.490   2.182   5.146  1.7434  0.6797 -0.5061
  683MOL0     H94215   6.641   2.099   5.096  0.7297  0.5910 -0.6988
  683MOL0     H94216   6.977   2.454   5.144  1.1114  2.6093  1.0425
  683MOL0     H94217   7.058   2.519   5.344  0.5347  0.6006 -0.2423
  683MOL0     H94218   7.115   2.293   5.585 -1.4809 -0.1474  1.3373
  683MOL0     H94219   7.165   2.474   5.580  3.7097 -1.8063  1.6038
  683MOL0     H94220   7.164   2.494   5.812 -1.1067  0.6348 -1.3909
  683MOL0     H94221   7.079   2.339   5.835 -0.9289 -0.4248 -0.2988
  683MOL0     H94222   7.374   2.396   5.770 -1.8974  1.1654 -0.5101
  683MOL0     H94223   7.316   2.248   5.710  3.1560  0.1498 -0.1125
  683MOL0     H94224   7.243   2.158   5.921  1.3197 -0.9154 -0.9585
  683MOL0     H94225   7.268   2.311   6.008  1.2987 -2.9373  1.7097
  683MOL0     H94226   7.481   2.134   5.883 -0.9170 -0.2262  0.2576
  683MOL0     H94227   7.510   2.294   5.980 -0.2575  0.1749  2.1538
  683MOL0     H94228   7.406   2.036   6.084  1.6018 -0.7613 -1.0679
  683MOL0     H94229   7.364   2.192   6.153  0.1006  2.1281 -2.1413
  683MOL0     H94230   7.622   2.235   6.181  0.8127 -0.9069  2.2478
  683MOL0     H94231   7.635   2.074   6.094  2.0228  1.8526 -1.3095
  683MOL0     H94232   7.664   2.062   6.359 -0.1409 -2.0665  0.2275
  683MOL0     H94233   7.523   1.982   6.305 -0.4437  0.0919 -0.5402
  683MOL0     H94234   6.761   2.305   5.551  3.4727 -0.5714  2.1051
  683MOL0     H94235   6.649   2.254   5.342  0.1704  1.7198  2.2967
  683MOL0     H94236   6.570   2.518   4.813  2.3527 -0.4885 -0.0106
  683MOL0     H94237   6.438   2.427   4.633 -0.9999 -0.2388 -0.0478
  683MOL0     H94238   4.781   1.786   4.048  2.8861 -2.4029  1.8487
  683MOL0     H94239   4.595   1.732   3.871  2.6814  2.2888  0.6886
  683MOL0     H94240   4.267   1.374   3.781  0.1370  0.8338  1.6930
  683MOL0     H94241   4.118   1.307   3.618  1.6955  0.5886 -0.0906
  683MOL0     H94242   3.946   1.332   3.455 -0.6334  0.3536 -0.6476
  683MOL0     H94243   3.896   1.202   3.573 -0.5546  0.1941 -0.1944
  683MOL0     H94244   3.701   1.363   3.402 -1.0993  0.1004  1.9082
  683MOL0     H94245   3.667   1.225   3.511  1.3079 -0.9431  1.0860
  683MOL0     H94246   3.830   1.211   3.249  0.4213 -1.5145 -0.0345
  683MOL0     H94247   3.818   1.083   3.366 -1.3737 -0.1737  0.3701
  683MOL0     H94248   3.551   1.134   3.340  0.6668  0.7920  0.8506
  683MOL0     H94249   3.632   1.032   3.227  0.5682 -0.4301  0.2582
  683MOL0     H94250   3.468   1.363   3.016 -2.1638 -0.2655  1.4599
  683MOL0     H94251   3.835   1.606   3.744 -1.3752 -1.3338  0.6836
  683MOL0     H94252   3.904   1.789   3.852 -0.1719 -2.1365 -0.0128
  683MOL0     H94253   3.959   1.719   4.003 -0.5954  2.0229  0.1946
  683MOL0     H94254   4.078   1.812   3.916  1.3602 -1.0725  0.3285
  684MOL0     O94255   5.338   1.583   1.856  0.8143  0.8913 -0.5488
  684MOL0     C94256   5.324   1.468   1.912 -0.7593 -0.0634  0.4147
  684MOL0     O94257   5.223   1.383   1.892  0.5390 -0.2019 -0.6725
  684MOL0     C94258   5.112   1.429   1.834  0.4314  0.2539 -0.1139
  684MOL0     C94259   5.035   1.538   1.888  0.0983 -0.2289 -0.7464
  684MOL0     C94260   4.910   1.567   1.834 -0.3587  0.4137  0.6397
  684MOL0     C94261   4.857   1.488   1.731 -0.0862  0.7964 -0.1070
  684MOL0     O94262   4.733   1.506   1.673 -0.0289 -0.3478  0.4940
  684MOL0     C94263   4.625   1.413   1.667  0.5909  0.0013  0.2498
  684MOL0     C94264   4.529   1.430   1.541 -1.0255 -0.8201 -0.5748
  684MOL0     C94265   4.457   1.299   1.514 -0.0856 -0.4050 -0.3839
  684MOL0     C94266   4.345   1.329   1.426 -0.5956 -0.1764 -0.3338
  684MOL0     C94267   4.249   1.215   1.407 -0.5702 -0.0015  0.7579
  684MOL0     C94268   4.148   1.216   1.523  1.0314  0.3837 -1.1393
  684MOL0     C94269   4.038   1.110   1.493  0.1183  0.1949  0.0330
  684MOL0     C94270   4.088   0.963   1.482  0.3566 -0.1198  0.4391
  684MOL0     N94271   3.986   0.861   1.449 -0.1856 -0.3304  0.3206
  684MOL0     C94272   3.898   0.791   1.531 -0.3042 -0.0317  0.0394
  684MOL0     C94273   3.802   0.730   1.456  0.1777 -0.1575 -0.3853
  684MOL0     C94274   3.679   0.655   1.504  0.0244  0.1316  0.5154
  684MOL0     C94275   3.544   0.725   1.476  0.5180  0.4075  0.0051
  684MOL0     C94276   3.530   0.869   1.536 -0.3840 -0.9772 -0.4804
  684MOL0     C94277   3.428   0.952   1.462 -0.2203  0.6039  0.7425
  684MOL0     O94278   3.453   1.096   1.474  0.0996  0.5086 -0.6729
  684MOL0     C94279   3.549   1.166   1.420  0.2897  0.2442  0.2862
  684MOL0     C94280   3.645   1.117   1.343 -0.7010  0.9760 -0.2683
  684MOL0     C94281   3.739   1.194   1.281  0.2210  0.4631 -0.4946
  684MOL0     C94282   3.827   1.124   1.182  0.3555  0.7269  0.5516
  684MOL0     C94283   3.742   1.336   1.304 -0.3788 -0.3811 -0.4793
  684MOL0     C94284   3.841   1.415   1.238 -0.5867  0.3467  0.4160
  684MOL0     O94285   3.891   1.390   1.107 -0.3478  0.3150 -1.1824
  684MOL0     C94286   4.004   1.457   1.069 -0.6162 -0.6994 -0.2053
  684MOL0     C94287   4.118   1.463   1.152  0.0303 -0.5106 -0.7002
  684MOL0     C94288   4.230   1.543   1.115  0.0827 -0.1523 -0.1427
  684MOL0     C94289   4.247   1.615   0.998  0.2246 -0.9199  0.7872
  684MOL0     O94290   4.357   1.696   0.973 -0.1231 -0.0081 -0.5709
  684MOL0     C94291   4.403   1.699   0.839 -0.0808 -0.3897 -0.0635
  684MOL0     C94292   4.526   1.784   0.846 -0.2380  0.3910 -0.7737
  684MOL0     C94293   4.639   1.714   0.914  0.1596  0.0732  0.4062
  684MOL0     C94294   4.765   1.804   0.927 -0.6613 -0.2187  0.0510
  684MOL0     C94295   4.873   1.707   0.984 -0.3900 -0.2861  0.3081
  684MOL0     C94296   4.983   1.794   1.049 -0.1314 -0.9238 -0.7012
  684MOL0     C94297   4.935   1.866   1.180  0.1658 -0.9306 -0.4296
  684MOL0     C94298   5.032   1.972   1.236 -0.5870 -0.3724  0.2077
  684MOL0    Cl94299   5.085   2.086   1.104  0.0831 -0.7229  0.0060
  684MOL0     C94300   4.135   1.595   0.910 -0.5773  0.3230 -0.0707
  684MOL0     C94301   4.016   1.518   0.941 -0.5636 -0.0291  1.1630
  684MOL0     O94302   3.885   1.493   1.320  0.2248  0.2226  0.5646
  684MOL0     C94303   3.654   1.388   1.396  0.8107  0.6513 -0.8380
  684MOL0     C94304   3.557   1.299   1.460  0.5391  0.9433  0.3273
  684MOL0     N94305   3.844   0.747   1.328 -0.0442  0.4452 -0.0683
  684MOL0     N94306   3.956   0.814   1.316  0.9255  0.3192  0.5973
  684MOL0     C94307   4.938   1.382   1.674 -0.0970  0.8413  0.3017
  684MOL0     C94308   5.065   1.360   1.729  0.6004  0.0913  0.0337
  684MOL0     C94309   5.456   1.434   1.981  0.5130  0.3720  0.7893
  684MOL0     C94310   5.530   1.537   2.038 -0.3602  1.1645  0.1037
  684MOL0     C94311   5.657   1.499   2.097  0.0918 -0.0994 -0.1281
  684MOL0     C94312   5.703   1.364   2.107 -0.4814 -0.5938  0.1007
  684MOL0     O94313   5.828   1.340   2.161  0.5352 -0.5381 -0.4345
  684MOL0     C94314   5.873   1.208   2.170 -0.6216  0.6374  0.2799
  684MOL0     C94315   5.941   1.184   2.033 -0.3719  0.6052 -0.7853
  684MOL0     C94316   6.029   1.302   1.985  1.0034  0.2353 -0.2676
  684MOL0     C94317   6.100   1.263   1.850  0.3629  0.1271  0.0137
  684MOL0     C94318   5.995   1.240   1.745 -0.0782 -0.1196  0.0094
  684MOL0     C94319   5.908   1.228   1.660  0.5182 -0.2217 -0.5166
  684MOL0     C94320   5.625   1.271   2.038 -0.3053 -0.3521 -0.2883
  684MOL0     C94321   5.507   1.304   1.982 -0.4875  0.0911  0.4395
  684MOL0     C94322   5.438   1.191   1.911  0.0561 -0.0195  0.1899
  684MOL0     H94323   5.078   1.600   1.967 -1.3467  0.2080 -0.2695
  684MOL0     H94324   4.851   1.651   1.871 -2.1243 -1.2668  1.8690
  684MOL0     H94325   4.554   1.435   1.748  0.0925 -1.0456  0.1116
  684MOL0     H94326   4.666   1.312   1.666  2.1842  0.6310  0.4438
  684MOL0     H94327   4.457   1.510   1.560  2.2873  1.6799  3.0858
  684MOL0     H94328   4.584   1.473   1.457 -0.7534  2.6398  1.1772
  684MOL0     H94329   4.518   1.221   1.468  0.9650 -0.1711  0.5837
  684MOL0     H94330   4.413   1.258   1.606  2.1287 -0.8621  0.5220
  684MOL0     H94331   4.296   1.423   1.449  2.1359  1.1669  0.3538
  684MOL0     H94332   4.384   1.345   1.324 -3.1681  1.2267 -1.1819
  684MOL0     H94333   4.296   1.116   1.405  0.5658  0.4792  1.8502
  684MOL0     H94334   4.206   1.220   1.307  1.7460 -2.0595 -0.4626
  684MOL0     H94335   4.200   1.181   1.613 -2.8275 -1.8645  0.4774
  684MOL0     H94336   4.099   1.312   1.543 -2.0689 -1.4053  0.8344
  684MOL0     H94337   3.991   1.152   1.404 -0.9148  3.4345  1.9284
  684MOL0     H94338   3.973   1.131   1.578 -2.0676  0.2485 -1.5747
  684MOL0     H94339   4.168   0.953   1.409 -0.1490  0.3872 -0.1899
  684MOL0     H94340   4.134   0.954   1.581  2.6357  2.3070 -0.2950
  684MOL0     H94341   3.898   0.783   1.639 -0.4450 -2.9045 -0.1075
  684MOL0     H94342   3.689   0.622   1.607  0.8568  1.1017  0.7589
  684MOL0     H94343   3.680   0.568   1.437  0.9743  1.3782 -1.1939
  684MOL0     H94344   3.528   0.721   1.368 -0.3816  2.1298  0.0377
  684MOL0     H94345   3.468   0.661   1.523 -0.1699  0.9532 -0.3465
  684MOL0     H94346   3.514   0.874   1.644  0.5885  0.2959 -0.3779
  684MOL0     H94347   3.624   0.926   1.535 -1.9844  1.8406 -1.7889
  684MOL0     H94348   3.431   0.947   1.353  0.1316  0.7881  0.7404
  684MOL0     H94349   3.327   0.921   1.490 -0.1165  1.0909  1.7344
  684MOL0     H94350   3.651   1.013   1.314 -0.5150  0.5991  1.0624
  684MOL0     H94351   3.818   1.016   1.192 -0.7920  0.7168 -0.3443
  684MOL0     H94352   3.932   1.143   1.209  0.3685  1.0914  0.2547
  684MOL0     H94353   3.799   1.149   1.080 -1.6119  2.5289  1.4453
  684MOL0     H94354   4.118   1.413   1.249  3.1473 -1.3184 -1.0230
  684MOL0     H94355   4.302   1.568   1.193  1.5431 -0.3192 -1.3924
  684MOL0     H94356   4.435   1.600   0.805  0.3044  0.0091 -0.9202
  684MOL0     H94357   4.336   1.740   0.763  2.2884  1.4545 -1.3212
  684MOL0     H94358   4.559   1.817   0.746 -0.1848  2.2176 -0.1851
  684MOL0     H94359   4.512   1.876   0.903  1.9326  1.6624 -2.1295
  684MOL0     H94360   4.674   1.627   0.857  0.5984 -1.5814  3.0264
  684MOL0     H94361   4.605   1.668   1.008  0.4605 -1.7193 -0.3103
  684MOL0     H94362   4.751   1.893   0.989 -0.5188 -0.2463  0.1237
  684MOL0     H94363   4.796   1.823   0.824  0.8185 -2.7636 -0.0513
  684MOL0     H94364   4.829   1.638   1.056 -2.4352 -1.4765 -1.9255
  684MOL0     H94365   4.919   1.654   0.899 -2.3119 -0.7151 -0.5218
  684MOL0     H94366   5.024   1.876   0.990  0.9300 -0.5995  0.4390
  684MOL0     H94367   5.071   1.738   1.082  0.3447  0.0582 -0.2763
  684MOL0     H94368   4.922   1.788   1.256  1.9889 -0.2480  0.6586
  684MOL0     H94369   4.836   1.912   1.168  0.3959  0.9563  3.2433
  684MOL0     H94370   5.120   1.917   1.269 -0.1949 -0.9868 -1.7077
  684MOL0     H94371   4.981   2.026   1.317 -0.4540 -0.7284  0.5322
  684MOL0     H94372   4.137   1.636   0.810 -1.9554  0.0034 -0.2493
  684MOL0     H94373   3.942   1.495   0.866  0.8107 -0.2685 -0.1606
  684MOL0     H94374   3.674   1.489   1.429  1.7515  0.0800  0.4969
  684MOL0     H94375   3.479   1.331   1.529 -0.0161  0.9204 -0.2744
  684MOL0     H94376   4.898   1.324   1.591 -0.5775 -0.1402  1.1960
  684MOL0     H94377   5.106   1.270   1.685 -2.3233 -0.9684 -0.7525
  684MOL0     H94378   5.496   1.639   2.021 -0.3069  0.8055 -2.5145
  684MOL0     H94379   5.709   1.583   2.141  1.2878 -1.5242  1.2768
  684MOL0     H94380   5.950   1.205   2.247  2.8113 -0.5110 -2.8763
  684MOL0     H94381   5.800   1.129   2.189  1.6538 -1.5939  0.2863
  684MOL0     H94382   5.859   1.171   1.962  0.2150  0.9166 -1.5429
  684MOL0     H94383   6.000   1.094   2.052  0.6249  1.5802  0.9799
  684MOL0     H94384   5.966   1.391   1.968 -0.2936 -0.5192  0.4713
  684MOL0     H94385   6.099   1.314   2.069  0.2117  1.1278  0.2862
  684MOL0     H94386   6.170   1.180   1.859 -0.7901 -0.9235 -0.4169
  684MOL0     H94387   6.166   1.344   1.816  0.1654  0.2829 -0.0020
  684MOL0     H94388   5.822   1.234   1.598  1.4451 -0.2898 -1.8536
  684MOL0     H94389   5.672   1.173   2.029  3.0441  1.2111 -1.3844
  684MOL0     H94390   5.416   1.216   1.807  1.5412  1.3265  0.1540
  684MOL0     H94391   5.513   1.111   1.902 -2.4853 -2.5197  0.0476
  684MOL0     H94392   5.348   1.165   1.968  2.2853  2.2785  5.4621
  685MOL0     O94393   1.334   5.806   5.696 -0.5395  0.0716 -0.2242
  685MOL0     C94394   1.330   5.873   5.595  0.2249 -0.4699  0.2660
  685MOL0     O94395   1.420   5.974   5.554 -0.3309  0.4257  0.5334
  685MOL0     C94396   1.537   6.002   5.630 -0.6034  0.3042 -0.0387
  685MOL0     C94397   1.541   6.101   5.729 -1.1797  0.0284 -0.6586
  685MOL0     C94398   1.665   6.114   5.805  0.7459 -1.2521 -0.0036
  685MOL0     C94399   1.769   6.031   5.778 -0.4722  0.2233 -0.8048
  685MOL0     O94400   1.879   6.038   5.861 -0.2777 -0.0806 -0.1414
  685MOL0     C94401   1.898   6.160   5.948 -0.0562  0.2389  0.6904
  685MOL0     C94402   2.031   6.130   6.016 -0.1600  0.3863 -0.4465
  685MOL0     C94403   2.086   6.250   6.109  0.7657  1.2646  1.0341
  685MOL0     C94404   2.203   6.210   6.185  0.3140  0.2142  0.2850
  685MOL0     C94405   2.263   6.334   6.267 -0.1074 -0.6034  0.8481
  685MOL0     C94406   2.396   6.321   6.350 -0.1136 -0.0358  1.4185
  685MOL0     C94407   2.373   6.216   6.458  1.6451  0.4693  0.4401
  685MOL0     C94408   2.480   6.208   6.560  0.2890 -0.4959  0.5761
  685MOL0     N94409   2.621   6.178   6.513 -0.8968 -0.2079 -0.5806
  685MOL0     C94410   2.700   6.061   6.530 -0.1020 -0.6735  0.4972
  685MOL0     C94411   2.817   6.095   6.474 -0.7061  0.1915 -0.7638
  685MOL0     C94412   2.938   6.009   6.471 -0.3991  0.7251 -0.3087
  685MOL0     C94413   2.963   5.948   6.330 -0.2154 -1.3592  0.0324
  685MOL0     C94414   3.068   5.832   6.328 -0.2856  0.0451  0.0676
  685MOL0     C94415   3.181   5.850   6.432 -0.2649  0.4198 -0.4734
  685MOL0     O94416   3.284   5.774   6.378  0.0318  0.0507  0.5448
  685MOL0     C94417   3.390   5.739   6.465 -0.5725 -0.0465  0.1359
  685MOL0     C94418   3.464   5.825   6.555  0.1052 -0.3442 -0.0121
  685MOL0     C94419   3.578   5.793   6.629 -0.2532  0.0146 -0.4391
  685MOL0     C94420   3.648   5.904   6.719  0.3318  0.8160  0.1100
  685MOL0     C94421   3.631   5.660   6.625 -0.0407  0.1972  0.2332
  685MOL0     C94422   3.753   5.598   6.688  0.7242  0.5654  0.1343
  685MOL0     O94423   3.767   5.462   6.686 -0.3887 -0.2165 -0.4041
  685MOL0     C94424   3.867   5.407   6.765  0.0697  0.2891  0.4954
  685MOL0     C94425   3.839   5.362   6.892  0.0927 -0.2859 -0.2599
  685MOL0     C94426   3.941   5.307   6.968  0.7695 -0.5470  0.0709
  685MOL0     C94427   4.068   5.283   6.916 -0.6399  0.1609 -0.6257
  685MOL0     O94428   4.162   5.221   6.992 -1.0145 -0.4710  0.0832
  685MOL0     C94429   4.214   5.286   7.113  0.1020 -0.2419  0.4100
  685MOL0     C94430   4.278   5.185   7.209  0.2668  0.0887 -0.2096
  685MOL0     C94431   4.175   5.113   7.287 -0.6259 -0.0390 -0.0799
  685MOL0     C94432   4.228   4.969   7.307 -0.6368 -0.3213  0.2761
  685MOL0     C94433   4.165   4.896   7.430  0.1132 -0.1682  0.6057
  685MOL0     C94434   4.234   4.764   7.453  0.2017 -0.2095 -0.5203
  685MOL0     C94435   4.230   4.714   7.601 -0.3082  0.3491  0.8802
  685MOL0     C94436   4.257   4.561   7.592  0.0157 -0.4167 -0.5053
  685MOL0    Cl94437   4.432   4.527   7.598  0.5000 -0.2287  0.0916
  685MOL0     C94438   4.104   5.333   6.789  0.2006  0.6631  0.3633
  685MOL0     C94439   3.997   5.389   6.708  0.8322 -0.4084 -0.0395
  685MOL0     O94440   3.830   5.675   6.752  0.1707  0.5335 -0.0446
  685MOL0     C94441   3.552   5.570   6.542  0.7699  0.1521 -0.4046
  685MOL0     C94442   3.430   5.607   6.469 -0.5713  0.3722  0.5131
  685MOL0     N94443   2.814   6.231   6.447 -0.2658  0.7561 -0.0062
  685MOL0     N94444   2.703   6.282   6.468  0.5449  0.6548  0.6008
  685MOL0     C94445   1.760   5.929   5.680 -0.1932  0.2582  0.4897
  685MOL0     C94446   1.647   5.920   5.602  0.6295  0.0861 -0.2479
  685MOL0     C94447   1.236   5.821   5.486  0.3707  0.0021 -0.0930
  685MOL0     C94448   1.296   5.773   5.363 -0.0016 -0.5658 -0.3551
  685MOL0     C94449   1.220   5.714   5.267 -0.7178  0.4501  0.4092
  685MOL0     C94450   1.086   5.693   5.284 -0.3994 -1.6299 -0.7744
  685MOL0     O94451   1.019   5.630   5.187 -0.2717 -0.0586 -0.7711
  685MOL0     C94452   0.947   5.726   5.097 -0.3246  0.1282 -0.2260
  685MOL0     C94453   0.807   5.691   5.058 -0.0411  0.2279 -0.0357
  685MOL0     C94454   0.790   5.543   5.022  0.5395 -0.4122  0.3388
  685MOL0     C94455   0.641   5.508   5.029  0.3990 -0.9180 -0.4467
  685MOL0     C94456   0.617   5.363   5.023  0.0972  0.0100  0.6846
  685MOL0     C94457   0.615   5.243   5.025  0.3980  0.2082  0.1877
  685MOL0     C94458   1.023   5.726   5.407 -0.4733 -1.3378 -0.5555
  685MOL0     C94459   1.097   5.792   5.507  0.2158  0.8105  0.1595
  685MOL0     C94460   1.032   5.846   5.630  0.3305  0.7137 -0.2529
  685MOL0     H94461   1.445   6.152   5.738 -1.2223 -0.0716 -0.5405
  685MOL0     H94462   1.672   6.187   5.886 -2.8927  0.7129 -1.2215
  685MOL0     H94463   1.825   6.158   6.029  0.3470  1.9030  1.1332
  685MOL0     H94464   1.908   6.251   5.887  2.6872 -1.0233 -0.9471
  685MOL0     H94465   2.013   6.042   6.078 -0.6592  0.7375 -0.0807
  685MOL0     H94466   2.108   6.103   5.942  1.5707  2.5624  0.4317
  685MOL0     H94467   2.132   6.325   6.043  2.0174 -0.9231 -0.7302
  685MOL0     H94468   2.009   6.292   6.175  2.6556  2.9422  2.3212
  685MOL0     H94469   2.179   6.133   6.259  0.6054 -0.0290  0.1283
  685MOL0     H94470   2.278   6.174   6.114 -1.4828  0.8367 -2.0529
  685MOL0     H94471   2.179   6.365   6.329 -1.5953 -0.4918 -1.0963
  685MOL0     H94472   2.289   6.403   6.186 -0.3328 -2.7883 -1.1940
  685MOL0     H94473   2.476   6.286   6.284 -1.2199  0.1515 -0.0661
  685MOL0     H94474   2.417   6.423   6.384 -2.5395  0.8248  0.5069
  685MOL0     H94475   2.372   6.115   6.415 -2.4104  0.8270 -0.7908
  685MOL0     H94476   2.272   6.242   6.493  0.7321 -0.2747 -1.4668
  685MOL0     H94477   2.480   6.309   6.602  1.8317  0.1120 -0.7565
  685MOL0     H94478   2.455   6.136   6.639 -2.3238  1.4604  1.6692
  685MOL0     H94479   2.658   5.979   6.587 -4.4228  0.7883 -0.2192
  685MOL0     H94480   2.920   5.933   6.548 -2.3158  1.2216 -0.1996
  685MOL0     H94481   3.025   6.067   6.503 -1.1969  2.4667 -1.1891
  685MOL0     H94482   2.867   5.915   6.291 -0.7630 -0.1831  0.3433
  685MOL0     H94483   3.006   6.028   6.268  1.3188 -0.5750  2.0082
  685MOL0     H94484   3.031   5.734   6.360 -1.0522  0.2301 -0.2442
  685MOL0     H94485   3.106   5.818   6.226 -1.0052 -0.4574 -0.1336
  685MOL0     H94486   3.212   5.955   6.430 -0.7117  0.5439 -1.1071
  685MOL0     H94487   3.148   5.822   6.532 -2.4932  1.8428 -0.7297
  685MOL0     H94488   3.431   5.928   6.558  0.6739 -0.1775  0.4617
  685MOL0     H94489   3.655   5.865   6.820 -1.5749  1.9550  0.7505
  685MOL0     H94490   3.592   5.999   6.720 -2.0821 -0.5126  2.1207
  685MOL0     H94491   3.747   5.939   6.689  0.2025  3.8216  2.6767
  685MOL0     H94492   3.743   5.364   6.942  0.1662 -0.1785 -0.1238
  685MOL0     H94493   3.916   5.272   7.069  0.8878 -0.0966  0.2564
  685MOL0     H94494   4.288   5.363   7.090  0.4966  0.0600  2.4494
  685MOL0     H94495   4.139   5.348   7.165  1.8848 -0.3790  3.3811
  685MOL0     H94496   4.342   5.113   7.157  0.4816  0.9329 -1.1496
  685MOL0     H94497   4.340   5.237   7.283 -0.5203  0.8640 -0.0707
  685MOL0     H94498   4.081   5.099   7.234 -0.1714 -3.1273 -0.2651
  685MOL0     H94499   4.168   5.169   7.381  2.1303  0.5732 -0.1385
  685MOL0     H94500   4.337   4.964   7.312 -0.5441 -0.7951 -1.4945
  685MOL0     H94501   4.205   4.915   7.215  1.3437 -1.2582  0.2642
  685MOL0     H94502   4.169   4.952   7.524 -2.7213 -1.2855  1.5010
  685MOL0     H94503   4.058   4.887   7.413  0.3146 -1.8960  0.1092
  685MOL0     H94504   4.337   4.766   7.418  2.4795 -2.1694  4.9409
  685MOL0     H94505   4.180   4.689   7.393  2.2858 -2.8347  0.6706
  685MOL0     H94506   4.133   4.739   7.644 -0.3106 -0.3791  1.3192
  685MOL0     H94507   4.304   4.771   7.659 -2.5035  3.0741  1.1926
  685MOL0     H94508   4.222   4.509   7.503  1.9793  0.2395 -1.7296
  685MOL0     H94509   4.219   4.511   7.681 -1.4204 -1.5551 -1.7067
  685MOL0     H94510   4.205   5.333   6.751 -0.4177  0.6172 -1.3633
  685MOL0     H94511   4.011   5.429   6.608  3.0303 -1.3313 -0.1738
  685MOL0     H94512   3.577   5.465   6.535 -1.1698 -0.3648 -0.1778
  685MOL0     H94513   3.390   5.537   6.398 -2.5288  2.5998 -0.7280
  685MOL0     H94514   1.846   5.862   5.678  2.6639  3.4633  3.1672
  685MOL0     H94515   1.648   5.850   5.519  3.0442  0.0856 -0.2907
  685MOL0     H94516   1.396   5.810   5.344 -0.0172  0.2803  1.0808
  685MOL0     H94517   1.257   5.688   5.168 -1.3008  1.7691 -0.1656
  685MOL0     H94518   0.945   5.832   5.124 -0.6332  1.4547 -4.6062
  685MOL0     H94519   1.007   5.713   5.006  1.8271 -3.2390  1.4481
  685MOL0     H94520   0.787   5.756   4.973  0.9128  0.0869 -0.3819
  685MOL0     H94521   0.743   5.707   5.145 -2.0388 -0.4618 -1.3029
  685MOL0     H94522   0.817   5.539   4.917  1.3426  3.5717  0.2362
  685MOL0     H94523   0.837   5.471   5.089 -1.2045 -0.0511  2.0650
  685MOL0     H94524   0.583   5.556   4.950  1.7600  0.1955 -0.8118
  685MOL0     H94525   0.597   5.556   5.117 -1.5956  0.6798 -2.2181
  685MOL0     H94526   0.639   5.138   5.031  2.7647  0.6687 -0.5515
  685MOL0     H94527   0.915   5.722   5.411 -0.4677 -1.3487 -0.4151
  685MOL0     H94528   0.924   5.837   5.639  0.6311 -3.3537  1.8013
  685MOL0     H94529   1.058   5.787   5.719 -0.4659 -0.1516 -0.5754
  685MOL0     H94530   1.054   5.952   5.643  0.6271  0.9455 -2.3477
  686MOL0     O94531   8.100   8.307   9.410  0.5442 -1.0084  0.1852
  686MOL0     C94532   8.161   8.342   9.510  0.1212 -0.7159 -0.1201
  686MOL0     O94533   8.268   8.279   9.565 -0.2177 -0.1428  0.4822
  686MOL0     C94534   8.301   8.158   9.508 -0.8008 -0.2975  0.9016
  686MOL0     C94535   8.341   8.142   9.374 -0.0922 -0.0132  0.5868
  686MOL0     C94536   8.405   8.027   9.326  0.8679 -0.1756 -0.5400
  686MOL0     C94537   8.439   7.927   9.423  0.0395  0.4133  0.1285
  686MOL0     O94538   8.508   7.809   9.390  0.3673 -0.4392 -0.0392
  686MOL0     C94539   8.515   7.772   9.249 -0.6240  0.5390  0.5904
  686MOL0     C94540   8.636   7.833   9.187  0.5996  0.8039  0.3867
  686MOL0     C94541   8.766   7.814   9.259 -0.0633  0.8086 -0.2373
  686MOL0     C94542   8.795   7.667   9.314  0.2241  0.1280  0.3684
  686MOL0     C94543   8.943   7.643   9.354 -0.1081 -0.5245  0.5245
  686MOL0     C94544   9.001   7.757   9.456  0.9687 -0.1004  0.8156
  686MOL0     C94545   9.139   7.713   9.508  0.2929  0.3550  0.6781
  686MOL0     C94546   9.187   7.783   9.634  0.4882  0.0517  0.7322
  686MOL0     N94547   9.327   7.747   9.665  0.4910  0.3997 -0.3242
  686MOL0     C94548   9.373   7.663   9.760  0.9709 -0.5963  0.5637
  686MOL0     C94549   9.505   7.692   9.755  0.1004  0.3407  0.0163
  686MOL0     C94550   9.605   7.626   9.838  0.0631 -1.0185  0.5724
  686MOL0     C94551   9.633   7.703   9.966  0.1968 -0.0230 -0.9466
  686MOL0     C94552   9.733   7.621  10.047 -0.4441  0.5526 -0.6741
  686MOL0     C94553   9.818   7.718  10.136 -0.3187 -0.1911 -1.0045
  686MOL0     O94554   9.892   7.816  10.072  0.2428  0.0269  0.2854
  686MOL0     C94555   9.953   7.902  10.160  0.8851  0.5468  0.9743
  686MOL0     C94556  10.019   8.005  10.097  0.2834  0.0702  0.0942
  686MOL0     C94557  10.083   8.113  10.165 -0.1225  0.1551 -1.0676
  686MOL0     C94558  10.158   8.218  10.087 -0.1686  0.8782 -0.6152
  686MOL0     C94559  10.068   8.120  10.310 -0.3246  0.2588  0.4605
  686MOL0     C94560  10.117   8.225  10.400  0.4620  0.2826 -0.1702
  686MOL0     O94561  10.167   8.184  10.517  0.0353  0.5310  0.2914
  686MOL0     C94562  10.199   8.272  10.616  0.0919  0.2949 -0.5571
  686MOL0     C94563  10.133   8.276  10.736  0.3546 -0.1051  0.1049
  686MOL0     C94564  10.177   8.346  10.849  0.6004 -0.7392 -0.0591
  686MOL0     C94565  10.294   8.423  10.844 -0.1582  0.8626  0.2942
  686MOL0     O94566  10.350   8.505  10.939  0.3453 -0.0021 -0.3797
  686MOL0     C94567  10.280   8.528  11.061  0.3182 -0.8119 -0.5200
  686MOL0     C94568  10.356   8.636  11.146  0.1118 -0.3193  0.6489
  686MOL0     C94569  10.481   8.579  11.218  0.3673 -0.5966 -0.2471
  686MOL0     C94570  10.535   8.675  11.329  0.0521 -0.0030  0.0763
  686MOL0     C94571  10.661   8.629  11.399 -0.3286  0.3581  0.2108
  686MOL0     C94572  10.775   8.650  11.301  0.5157  0.1238 -0.2931
  686MOL0     C94573  10.913   8.607  11.357 -0.9567  0.0423 -0.0474
  686MOL0     C94574  10.921   8.463  11.422  0.2002 -0.7297  0.5707
  686MOL0    Cl94575  10.871   8.335  11.302  0.2481  0.0636  0.6830
  686MOL0     C94576  10.356   8.426  10.719 -0.0330  0.0452  0.5784
  686MOL0     C94577  10.315   8.346  10.608  0.1073 -0.3089 -0.7289
  686MOL0     O94578  10.113   8.341  10.355  0.1789 -0.3204  0.5089
  686MOL0     C94579  10.006   8.011  10.369 -0.0001  0.3920  0.0849
  686MOL0     C94580   9.954   7.894  10.301 -0.8621 -0.8688 -0.2498
  686MOL0     N94581   9.535   7.796   9.664 -0.1979 -0.4432 -0.9320
  686MOL0     N94582   9.428   7.819   9.609 -0.6794 -0.6291  0.1998
  686MOL0     C94583   8.393   7.939   9.550  0.6891 -0.3427  0.1890
  686MOL0     C94584   8.322   8.055   9.595  0.1009 -0.2996 -0.8218
  686MOL0     C94585   8.123   8.474   9.563 -0.3552 -0.0853  0.7220
  686MOL0     C94586   8.224   8.544   9.622  0.1375 -0.3278 -0.0840
  686MOL0     C94587   8.199   8.672   9.670 -0.4410  0.0151 -0.7341
  686MOL0     C94588   8.072   8.732   9.661  0.1546  1.1533 -0.3797
  686MOL0     O94589   8.073   8.860   9.714  0.2514  0.0832 -0.0287
  686MOL0     C94590   7.951   8.933   9.683 -0.4042  0.4201 -0.7057
  686MOL0     C94591   7.938   9.044   9.792  0.6233 -0.6106  0.2705
  686MOL0     C94592   8.068   9.125   9.820 -0.4619  0.3075  0.1032
  686MOL0     C94593   8.035   9.258   9.891 -0.6947  0.3380 -0.6944
  686MOL0     C94594   8.099   9.368   9.821  0.4631  0.6786 -0.8375
  686MOL0     C94595   8.153   9.449   9.754  0.1634  0.5107 -0.3954
  686MOL0     C94596   7.976   8.669   9.602  0.5779 -0.1589  1.1541
  686MOL0     C94597   7.993   8.535   9.551  0.3299  0.4147 -0.0533
  686MOL0     C94598   7.870   8.457   9.499  0.9119 -0.1484  0.3524
  686MOL0     H94599   8.324   8.230   9.313  1.5600 -0.0457  0.0333
  686MOL0     H94600   8.439   8.018   9.223 -1.2487  1.4986 -1.4813
  686MOL0     H94601   8.421   7.795   9.197  0.8234  0.3709 -2.3381
  686MOL0     H94602   8.524   7.663   9.253  0.3597  0.5545 -0.7274
  686MOL0     H94603   8.642   7.768   9.099  0.7541 -0.1930  1.1144
  686MOL0     H94604   8.628   7.938   9.156  1.4083  0.5481 -0.7583
  686MOL0     H94605   8.845   7.829   9.185  0.9981 -1.0483  0.4483
  686MOL0     H94606   8.775   7.892   9.335  2.5393 -1.7295  2.3498
  686MOL0     H94607   8.738   7.644   9.404  3.5370 -3.6854  1.7839
  686MOL0     H94608   8.767   7.596   9.236 -1.5959  1.3729 -0.1666
  686MOL0     H94609   8.999   7.646   9.260 -0.0644 -0.3415  0.5552
  686MOL0     H94610   8.951   7.539   9.388 -1.3493 -0.3442  1.4261
  686MOL0     H94611   8.999   7.855   9.409  0.3554  0.0664  1.1782
  686MOL0     H94612   8.923   7.786   9.526 -0.4512  2.6720 -1.7055
  686MOL0     H94613   9.218   7.736   9.435 -1.0395  0.0040 -0.9482
  686MOL0     H94614   9.139   7.604   9.519 -0.4904  0.2486 -0.2668
  686MOL0     H94615   9.171   7.890   9.621 -0.0527 -0.2042 -1.0600
  686MOL0     H94616   9.120   7.744   9.711 -2.2691 -0.3935 -1.7047
  686MOL0     H94617   9.330   7.582   9.819 -1.4963  1.1748  1.3635
  686MOL0     H94618   9.694   7.621   9.775 -0.5277 -1.5609 -0.2346
  686MOL0     H94619   9.571   7.526   9.866 -0.9062 -0.7306  0.4675
  686MOL0     H94620   9.671   7.804   9.946 -0.5163  0.0142 -2.1816
  686MOL0     H94621   9.539   7.712  10.022 -0.3648 -1.6285 -1.5857
  686MOL0     H94622   9.694   7.549  10.120  2.6781 -1.5956 -0.9143
  686MOL0     H94623   9.799   7.568   9.977 -0.1095 -1.3724  1.0005
  686MOL0     H94624   9.744   7.782  10.185 -1.1017 -0.9382 -1.1803
  686MOL0     H94625   9.872   7.658  10.209  0.5159  1.2871 -0.3667
  686MOL0     H94626  10.026   8.010   9.989 -1.3635  0.2643 -0.0392
  686MOL0     H94627  10.258   8.226  10.132  0.4427 -3.4618 -0.8250
  686MOL0     H94628  10.096   8.305  10.063 -1.4312 -0.2882 -1.7532
  686MOL0     H94629  10.192   8.175   9.992  0.0171 -1.8441  0.6119
  686MOL0     H94630  10.035   8.229  10.733 -0.1753  1.0146 -2.6687
  686MOL0     H94631  10.113   8.342  10.937 -0.2704 -3.9757 -0.7102
  686MOL0     H94632  10.175   8.555  11.046  0.3421 -0.4567 -0.0781
  686MOL0     H94633  10.290   8.433  11.115  2.6114 -1.0677 -1.2955
  686MOL0     H94634  10.385   8.712  11.073  2.0353 -2.4585 -0.9471
  686MOL0     H94635  10.294   8.683  11.223  1.2446 -2.2123  2.8636
  686MOL0     H94636  10.559   8.546  11.149  1.9450 -1.1671  1.6864
  686MOL0     H94637  10.451   8.486  11.267 -0.2070 -0.5035 -0.4164
  686MOL0     H94638  10.456   8.671  11.406  0.9817 -2.3721  0.9930
  686MOL0     H94639  10.545   8.776  11.288  1.8061  0.6566  1.9319
  686MOL0     H94640  10.669   8.693  11.487 -0.4563  0.5170  0.1066
  686MOL0     H94641  10.652   8.523  11.425 -1.0214  0.5701  0.8678
  686MOL0     H94642  10.788   8.757  11.280 -1.6105  0.4748 -0.0293
  686MOL0     H94643  10.765   8.588  11.213  2.6724 -1.3960  0.4482
  686MOL0     H94644  10.941   8.674  11.438 -2.0620 -1.7756  1.9516
  686MOL0     H94645  10.987   8.616  11.277  3.2592 -1.8367  3.2634
  686MOL0     H94646  10.848   8.459  11.503  0.0291  0.7246  0.5080
  686MOL0     H94647  11.023   8.447  11.458  1.1277  1.8907 -0.6493
  686MOL0     H94648  10.454   8.472  10.713  0.7404 -1.6998 -2.1511
  686MOL0     H94649  10.379   8.338  10.522  0.8962 -0.7295 -0.1130
  686MOL0     H94650   9.997   8.027  10.476  0.5788  0.4573  0.1259
  686MOL0     H94651   9.907   7.816  10.361  1.0039 -1.6281  0.3201
  686MOL0     H94652   8.396   7.855   9.619  1.4118 -0.6439 -0.2005
  686MOL0     H94653   8.276   8.054   9.693 -0.8029 -2.0942 -1.2172
  686MOL0     H94654   8.317   8.488   9.615  0.0074 -0.6162  0.4420
  686MOL0     H94655   8.281   8.727   9.714  0.1125 -1.0722 -0.3853
  686MOL0     H94656   7.956   8.987   9.588 -2.9019  1.2717 -0.4181
  686MOL0     H94657   7.861   8.872   9.695  1.3519 -2.0303  1.2505
  686MOL0     H94658   7.899   9.002   9.885  0.7109  0.3049  0.7272
  686MOL0     H94659   7.860   9.113   9.757 -0.7387 -1.5859  1.2668
  686MOL0     H94660   8.137   9.059   9.874 -0.2469 -1.3964 -2.0992
  686MOL0     H94661   8.124   9.148   9.729  0.4990 -0.5166  0.4570
  686MOL0     H94662   8.055   9.260   9.999  0.3995 -0.5530 -0.8679
  686MOL0     H94663   7.928   9.284   9.889 -0.9464 -0.4594  0.6856
  686MOL0     H94664   8.217   9.516   9.699  2.8556 -0.8338  0.9267
  686MOL0     H94665   7.875   8.710   9.592  1.2593  1.0035 -3.3054
  686MOL0     H94666   7.879   8.356   9.539  0.4927 -0.0886  0.5966
  686MOL0     H94667   7.779   8.513   9.519  0.3982 -0.6859 -0.4168
  686MOL0     H94668   7.876   8.450   9.390 -0.1139  0.2774  0.2561
  687MOL0     O94669   1.825  10.496  10.889  0.5682 -0.2630  0.3732
  687MOL0     C94670   1.722  10.565  10.881  0.4852  1.5719 -0.4773
  687MOL0     O94671   1.664  10.638  10.982 -0.1263  0.2919  0.1020
  687MOL0     C94672   1.734  10.653  11.096 -1.0768 -0.2593  0.6677
  687MOL0     C94673   1.780  10.535  11.167  0.4999  0.3477 -0.1533
  687MOL0     C94674   1.849  10.560  11.285  0.0359  0.5125 -0.4287
  687MOL0     C94675   1.850  10.692  11.339 -0.8303  0.1285 -1.3429
  687MOL0     O94676   1.916  10.705  11.461  0.1097 -0.3781  0.4762
  687MOL0     C94677   1.878  10.816  11.541  0.1953 -0.1045 -0.1692
  687MOL0     C94678   1.896  10.792  11.691 -0.6178 -0.1062  0.5054
  687MOL0     C94679   2.038  10.801  11.762  0.2904 -0.4103  0.0370
  687MOL0     C94680   2.132  10.714  11.677  0.3888 -0.2481 -0.2736
  687MOL0     C94681   2.261  10.659  11.752  0.3722 -0.4429 -0.4602
  687MOL0     C94682   2.346  10.778  11.794  0.7784 -0.9855 -0.7895
  687MOL0     C94683   2.456  10.751  11.899  0.2369 -1.1699  0.1145
  687MOL0     C94684   2.522  10.612  11.882  0.2097  0.9103  0.2712
  687MOL0     N94685   2.650  10.601  11.965  0.0737 -0.5198  0.6053
  687MOL0     C94686   2.654  10.509  12.066 -0.6775  0.3394  0.3210
  687MOL0     C94687   2.781  10.536  12.122  0.0625  0.7105  0.1347
  687MOL0     C94688   2.841  10.461  12.235  0.1332  0.0443  0.3266
  687MOL0     C94689   2.807  10.311  12.238 -0.3472 -0.3148  0.3231
  687MOL0     C94690   2.852  10.246  12.367 -0.2957  0.0919 -0.2882
  687MOL0     C94691   2.835  10.087  12.372  0.3261 -0.3830  0.0800
  687MOL0     O94692   2.822  10.053  12.514 -0.1578 -0.0526  0.4728
  687MOL0     C94693   2.926  10.058  12.606 -0.2667 -0.9337  0.5964
  687MOL0     C94694   2.884  10.063  12.740  0.4032 -0.2756  0.7595
  687MOL0     C94695   2.969  10.080  12.848  0.5008 -0.2376  0.8698
  687MOL0     C94696   2.914  10.089  12.988 -0.8719 -0.0365 -0.1602
  687MOL0     C94697   3.104  10.081  12.819  0.4553 -0.4668 -0.1268
  687MOL0     C94698   3.213  10.094  12.921 -0.4500  0.3186 -0.8612
  687MOL0     O94699   3.195  10.001  13.024  0.2468  0.5382 -0.0166
  687MOL0     C94700   3.297  10.003  13.118 -0.2739  0.4267 -0.2040
  687MOL0     C94701   3.275  10.081  13.229 -0.1675 -0.4150 -0.2128
  687MOL0     C94702   3.370  10.082  13.326 -0.2749 -0.0509  1.2238
  687MOL0     C94703   3.494  10.024  13.315  0.2402 -0.1583  1.2427
  687MOL0     O94704   3.587  10.032  13.406 -0.1400  0.8850  0.1439
  687MOL0     C94705   3.558  10.070  13.543 -0.9893 -0.0236  0.1696
  687MOL0     C94706   3.644   9.983  13.638  0.8164 -0.0861 -0.1751
  687MOL0     C94707   3.788   9.952  13.599 -0.0659 -0.3175 -0.4948
  687MOL0     C94708   3.876  10.079  13.608  0.9538  0.4510 -0.4019
  687MOL0     C94709   4.026  10.036  13.603 -0.6485  0.2685  0.2944
  687MOL0     C94710   4.130  10.153  13.594  0.3575 -1.0163  0.5540
  687MOL0     C94711   4.271  10.096  13.600 -0.3612 -0.4652  0.1984
  687MOL0     C94712   4.321  10.030  13.727 -0.3480  0.1028  0.1944
  687MOL0    Cl94713   4.491   9.969  13.702 -0.1605 -0.0272  0.2063
  687MOL0     C94714   3.527   9.950  13.203 -0.8318  0.7703  0.0462
  687MOL0     C94715   3.424   9.941  13.106  0.2525  0.0168  0.7803
  687MOL0     O94716   3.303  10.172  12.911  0.0852  0.3728  0.2133
  687MOL0     C94717   3.145  10.096  12.685  0.4050  0.8016 -0.1278
  687MOL0     C94718   3.059  10.081  12.573 -0.7285 -0.4103 -0.1752
  687MOL0     N94719   2.850  10.632  12.044  0.0127  0.2817  0.1296
  687MOL0     N94720   2.764  10.674  11.957 -0.8360  0.1573  0.2924
  687MOL0     C94721   1.821  10.806  11.267  0.9117 -0.0481  0.5983
  687MOL0     C94722   1.771  10.789  11.133  0.6011 -0.2345  0.2354
  687MOL0     C94723   1.638  10.516  10.768 -0.9340 -0.7798 -0.1102
  687MOL0     C94724   1.505  10.477  10.795 -0.2202 -0.1274 -0.6377
  687MOL0     C94725   1.418  10.449  10.693  0.9161  0.0311 -0.2450
  687MOL0     C94726   1.452  10.468  10.561 -0.5626  0.0595 -0.0440
  687MOL0     O94727   1.356  10.439  10.475 -0.5843  0.0315  0.8051
  687MOL0     C94728   1.372  10.330  10.380 -0.3154 -0.4370 -0.9890
  687MOL0     C94729   1.275  10.219  10.410 -0.1722 -0.4219 -0.4116
  687MOL0     C94730   1.131  10.254  10.417  0.0302 -1.3385 -0.0533
  687MOL0     C94731   1.082  10.324  10.292 -0.2859  0.3277  0.7478
  687MOL0     C94732   1.057  10.239  10.174  0.1448 -0.1935  0.0530
  687MOL0     C94733   1.032  10.168  10.081 -1.1931 -0.3854  0.5726
  687MOL0     C94734   1.585  10.510  10.535  0.1860  0.4477 -0.6572
  687MOL0     C94735   1.672  10.538  10.639  0.2553  0.1124 -0.0317
  687MOL0     C94736   1.809  10.600  10.606  0.4071 -0.3637 -0.3700
  687MOL0     H94737   1.749  10.438  11.131 -1.8315  0.5248  1.2002
  687MOL0     H94738   1.887  10.470  11.332 -0.9775 -0.5082 -1.4913
  687MOL0     H94739   1.774  10.847  11.530 -0.3574 -0.4982  2.9466
  687MOL0     H94740   1.957  10.884  11.508  0.1295 -0.3703 -0.8974
  687MOL0     H94741   1.823  10.855  11.743  1.0160  1.0437  1.5324
  687MOL0     H94742   1.858  10.690  11.705  0.4075 -0.5495  0.1109
  687MOL0     H94743   2.063  10.907  11.763 -0.9080 -0.0649  2.3596
  687MOL0     H94744   2.037  10.757  11.863  0.2976 -0.8973 -0.1737
  687MOL0     H94745   2.075  10.630  11.637 -3.2216  0.9325  1.8768
  687MOL0     H94746   2.160  10.776  11.592 -0.6045 -0.0573 -0.4771
  687MOL0     H94747   2.320  10.594  11.686  3.7534  1.0451  0.9005
  687MOL0     H94748   2.229  10.605  11.842  0.3994 -0.7291 -0.6203
  687MOL0     H94749   2.392  10.812  11.701  1.8285 -4.2686 -1.6112
  687MOL0     H94750   2.285  10.860  11.831 -1.9173 -3.1877  0.0343
  687MOL0     H94751   2.404  10.753  11.995  1.6288 -0.2276  0.8935
  687MOL0     H94752   2.536  10.826  11.894  0.3300 -1.2769 -0.0104
  687MOL0     H94753   2.445  10.545  11.922 -0.9993  0.7943 -2.0396
  687MOL0     H94754   2.527  10.576  11.779  0.6882  1.7339 -0.0071
  687MOL0     H94755   2.586  10.434  12.106  3.9316 -3.9204  1.0641
  687MOL0     H94756   2.819  10.507  12.332 -2.1424  0.0383 -0.1211
  687MOL0     H94757   2.948  10.481  12.228 -0.2405  2.1391 -0.0623
  687MOL0     H94758   2.698  10.299  12.245 -0.6508  2.5444  2.9561
  687MOL0     H94759   2.859  10.259  12.158 -0.8229  0.3291 -0.4205
  687MOL0     H94760   2.960  10.252  12.378 -0.2053 -1.4797 -0.1507
  687MOL0     H94761   2.804  10.295  12.452  1.1896 -1.8686  1.8001
  687MOL0     H94762   2.746  10.051  12.318  0.6181 -1.8557  0.5482
  687MOL0     H94763   2.924  10.044  12.327 -0.5288 -1.4864 -0.6239
  687MOL0     H94764   2.778  10.061  12.763 -0.3247  2.7263 -1.5245
  687MOL0     H94765   2.922  10.189  13.031  0.7264 -1.6951  3.8306
  687MOL0     H94766   2.950  10.022  13.067 -5.6140 -1.2838  1.2736
  687MOL0     H94767   2.805  10.085  12.979 -1.1628  1.8245  1.7922
  687MOL0     H94768   3.182  10.137  13.231 -0.7327 -1.3285 -0.1571
  687MOL0     H94769   3.354  10.146  13.412  0.4071 -0.9212  2.0136
  687MOL0     H94770   3.598  10.171  13.558  2.3703 -1.2330  0.2179
  687MOL0     H94771   3.452  10.056  13.566 -0.6305 -1.1909  1.2192
  687MOL0     H94772   3.646  10.010  13.744  3.0910  0.2182 -0.2461
  687MOL0     H94773   3.593   9.886  13.637 -0.2722  0.4181 -3.2052
  687MOL0     H94774   3.789   9.917  13.496  1.3076  4.1498 -2.2373
  687MOL0     H94775   3.820   9.875  13.669 -4.3511 -0.9747  1.0922
  687MOL0     H94776   3.848  10.138  13.696  0.3346  0.5135 -0.6322
  687MOL0     H94777   3.854  10.136  13.517  0.2466 -2.5061 -2.2211
  687MOL0     H94778   4.043   9.970  13.689 -2.7163 -0.4671  0.1790
  687MOL0     H94779   4.032   9.975  13.512 -1.1235  0.9615 -0.2160
  687MOL0     H94780   4.102  10.218  13.677  1.4150 -1.1604  1.0472
  687MOL0     H94781   4.124  10.211  13.502  1.0015 -0.1840  1.0201
  687MOL0     H94782   4.341  10.171  13.562  1.6449 -2.4994 -0.3209
  687MOL0     H94783   4.281  10.018  13.524  1.7771 -1.7709  1.7142
  687MOL0     H94784   4.254   9.946  13.744  2.6081 -2.3354  0.7541
  687MOL0     H94785   4.317  10.088  13.820  2.6547 -0.5145  0.8366
  687MOL0     H94786   3.623   9.901  13.200 -1.1543  0.0887  0.4896
  687MOL0     H94787   3.429   9.878  13.018  2.4484  0.4544  0.5321
  687MOL0     H94788   3.243  10.139  12.667 -0.4167  4.0752  2.3194
  687MOL0     H94789   3.115  10.082  12.480  0.9901 -1.4388  0.7798
  687MOL0     H94790   1.833  10.907  11.305 -0.5162  0.8640 -1.2082
  687MOL0     H94791   1.748  10.883  11.084  0.5101 -1.0067 -1.2659
  687MOL0     H94792   1.490  10.467  10.902  2.2235  1.1194 -0.0971
  687MOL0     H94793   1.320  10.413  10.721 -0.3182  1.4685 -2.4488
  687MOL0     H94794   1.366  10.383  10.285 -0.1867  0.2216 -0.6307
  687MOL0     H94795   1.477  10.299  10.383  0.6281  2.6060  0.6265
  687MOL0     H94796   1.298  10.174  10.507  0.6704 -3.6855 -1.9892
  687MOL0     H94797   1.307  10.144  10.338 -1.0177 -1.1324 -0.0648
  687MOL0     H94798   1.074  10.161  10.427 -2.0021 -0.2538 -0.8259
  687MOL0     H94799   1.113  10.325  10.498  0.6022  0.5003 -1.4578
  687MOL0     H94800   1.150  10.405  10.262  0.4544  0.1564  1.9019
  687MOL0     H94801   0.986  10.367  10.321 -1.2972  0.4775 -2.4162
  687MOL0     H94802   1.003  10.108   9.997 -0.1402 -1.9023  1.2451
  687MOL0     H94803   1.622  10.525  10.434 -2.6527  0.8553 -1.7551
  687MOL0     H94804   1.820  10.693  10.662 -2.6319  0.8089 -1.4997
  687MOL0     H94805   1.890  10.530  10.630 -1.4640 -2.9569 -1.1139
  687MOL0     H94806   1.808  10.642  10.505 -2.2796  0.2037 -0.1952
  688MOL0     O94807   0.167   4.728   3.917  0.0041 -0.5101 -0.6631
  688MOL0     C94808   0.237   4.833   3.919  0.3955  0.0934  0.1499
  688MOL0     O94809   0.232   4.928   3.820 -0.6245  0.1727 -0.0819
  688MOL0     C94810   0.191   4.902   3.694  0.0618 -1.1250 -0.5169
  688MOL0     C94811   0.194   4.775   3.635  0.6858  0.5411 -0.1714
  688MOL0     C94812   0.160   4.758   3.498 -0.0225 -0.4912  0.0227
  688MOL0     C94813   0.137   4.866   3.420  0.1445 -0.7008  0.3073
  688MOL0     O94814   0.120   4.874   3.286  0.7359  0.2454  0.4239
  688MOL0     C94815   0.151   4.752   3.214  0.3049 -0.2098  0.1078
  688MOL0     C94816   0.160   4.792   3.067 -0.3137 -0.1130 -0.2735
  688MOL0     C94817   0.207   4.685   2.962  0.2739 -0.4953  0.3370
  688MOL0     C94818   0.352   4.651   2.975  0.1905  0.1203 -0.3144
  688MOL0     C94819   0.400   4.520   2.916  0.4453  0.0124 -0.1056
  688MOL0     C94820   0.378   4.399   3.001  0.0660  0.0595 -0.3199
  688MOL0     C94821   0.414   4.272   2.913 -0.1788  0.0889 -0.1571
  688MOL0     C94822   0.296   4.229   2.818  0.5594  0.2224  0.0898
  688MOL0     N94823   0.166   4.213   2.877 -0.0015 -0.4296  0.3135
  688MOL0     C94824   0.057   4.286   2.841  0.0403  0.4503  0.5906
  688MOL0     C94825  -0.053   4.225   2.892 -0.0799  0.0621 -0.1336
  688MOL0     C94826  -0.193   4.265   2.900  0.2250  0.9094  0.2399
  688MOL0     C94827  -0.224   4.406   2.943  0.4658  0.5301  0.5883
  688MOL0     C94828  -0.199   4.502   2.828  0.0832 -0.4597  0.4308
  688MOL0     C94829  -0.239   4.650   2.869 -0.6268  0.3900  0.0810
  688MOL0     O94830  -0.217   4.675   3.007 -0.2550  0.0017  0.5344
  688MOL0     C94831  -0.227   4.807   3.046  0.5341 -0.7332 -0.2777
  688MOL0     C94832  -0.237   4.923   2.965 -0.0152 -0.2658  0.3723
  688MOL0     C94833  -0.257   5.053   3.021  1.3074 -0.7532 -0.5995
  688MOL0     C94834  -0.271   5.169   2.926 -0.0733  0.6463  0.4953
  688MOL0     C94835  -0.271   5.071   3.161 -0.8031 -0.2539 -0.8085
  688MOL0     C94836  -0.282   5.200   3.243 -0.1279 -0.6750 -0.9430
  688MOL0     O94837  -0.341   5.200   3.369 -0.4397 -0.1817  0.6799
  688MOL0     C94838  -0.347   5.324   3.431  0.0668  0.8599  0.1065
  688MOL0     C94839  -0.438   5.416   3.398  0.5346  0.4459 -0.3760
  688MOL0     C94840  -0.427   5.547   3.438 -0.1395  0.3254 -0.3450
  688MOL0     C94841  -0.332   5.586   3.528 -0.8517 -0.0960  1.0672
  688MOL0     O94842  -0.336   5.708   3.588  0.1556  1.3931 -0.1162
  688MOL0     C94843  -0.444   5.803   3.560 -0.1624 -0.2113  0.0750
  688MOL0     C94844  -0.405   5.942   3.608 -0.6882  0.5144  0.1212
  688MOL0     C94845  -0.260   5.978   3.611 -0.2570  0.1732  0.2076
  688MOL0     C94846  -0.224   6.126   3.588  0.9456 -0.1876 -0.4203
  688MOL0     C94847  -0.154   6.150   3.452  0.5560  0.2339  0.1482
  688MOL0     C94848  -0.145   6.291   3.402 -0.0403 -0.2694 -0.0287
  688MOL0     C94849  -0.075   6.299   3.266  0.3661 -0.3780 -0.9584
  688MOL0     C94850  -0.175   6.282   3.153  0.2236 -0.5344  0.2823
  688MOL0    Cl94851  -0.076   6.269   2.998  0.4084  0.4175 -0.0211
  688MOL0     C94852  -0.226   5.498   3.555 -0.3227 -0.7688 -0.0237
  688MOL0     C94853  -0.234   5.368   3.504 -0.2756 -0.5041 -0.1634
  688MOL0     O94854  -0.237   5.303   3.185 -0.0757  0.4412 -0.0994
  688MOL0     C94855  -0.262   4.950   3.240  0.0619 -0.2641 -0.0607
  688MOL0     C94856  -0.229   4.829   3.184  0.5158 -0.4297  0.4828
  688MOL0     N94857   0.001   4.111   2.951  0.2239 -0.5508 -0.1899
  688MOL0     N94858   0.126   4.103   2.944  0.0420 -1.1183 -0.0111
  688MOL0     C94859   0.127   4.993   3.480  1.2107  0.4960  0.3098
  688MOL0     C94860   0.160   5.010   3.612  0.4305  0.3677  0.6080
  688MOL0     C94861   0.327   4.858   4.037  0.0783 -0.4673  0.6983
  688MOL0     C94862   0.433   4.950   4.024 -0.3809  0.1092 -1.4369
  688MOL0     C94863   0.520   4.966   4.134 -0.9248  0.0242 -0.2931
  688MOL0     C94864   0.509   4.907   4.258 -0.1255 -0.5068 -0.0620
  688MOL0     O94865   0.599   4.935   4.352  0.0394  0.5006  1.0885
  688MOL0     C94866   0.600   5.060   4.422  0.3789 -0.4457 -0.5047
  688MOL0     C94867   0.497   5.066   4.536 -0.3190  0.3078 -0.0634
  688MOL0     C94868   0.513   5.199   4.614 -0.0535  0.2006  0.0692
  688MOL0     C94869   0.409   5.217   4.710  0.0819  0.4521 -0.1783
  688MOL0     C94870   0.391   5.354   4.751  0.1850  0.2269 -0.2780
  688MOL0     C94871   0.368   5.466   4.785 -0.7309 -0.1529  0.1005
  688MOL0     C94872   0.401   4.826   4.271  0.9380 -0.0501  0.6726
  688MOL0     C94873   0.316   4.789   4.165  0.5402 -0.6644 -0.3806
  688MOL0     C94874   0.195   4.707   4.206  0.4926  0.1037 -0.7638
  688MOL0     H94875   0.224   4.685   3.688  1.8420  1.0447  0.0409
  688MOL0     H94876   0.168   4.658   3.457  3.5343 -1.2433  2.1862
  688MOL0     H94877   0.061   4.694   3.239  1.1660 -1.1279  1.2058
  688MOL0     H94878   0.237   4.693   3.248  0.2122 -1.4246 -1.5782
  688MOL0     H94879   0.060   4.826   3.041  0.6625  2.6018 -0.8432
  688MOL0     H94880   0.224   4.880   3.054 -0.3060 -0.3844 -2.4913
  688MOL0     H94881   0.143   4.597   2.967 -2.5593  1.5132  3.3936
  688MOL0     H94882   0.205   4.727   2.861  0.5562 -3.6639 -1.1198
  688MOL0     H94883   0.409   4.732   2.929  0.4496  0.6710  0.9333
  688MOL0     H94884   0.388   4.654   3.079 -1.5407 -0.5239  0.3356
  688MOL0     H94885   0.506   4.529   2.890  1.0727  0.6940  2.4395
  688MOL0     H94886   0.345   4.507   2.822  1.2220  4.0549 -1.3377
  688MOL0     H94887   0.436   4.397   3.094  2.6751 -0.9651 -1.8875
  688MOL0     H94888   0.270   4.406   3.020 -0.0474  1.4535 -1.3241
  688MOL0     H94889   0.449   4.188   2.974 -0.2247  0.2786  0.1316
  688MOL0     H94890   0.500   4.296   2.849 -0.0582 -1.5045 -0.6272
  688MOL0     H94891   0.297   4.308   2.743  0.6117  0.0379 -0.1044
  688MOL0     H94892   0.313   4.129   2.777  1.0599 -0.0565  0.9482
  688MOL0     H94893   0.053   4.375   2.779 -3.6712  0.1540  0.1913
  688MOL0     H94894  -0.251   4.203   2.969 -0.6030 -2.2135 -2.9454
  688MOL0     H94895  -0.239   4.256   2.801  0.8960  1.7016 -0.1577
  688MOL0     H94896  -0.329   4.422   2.971  0.8939  1.1942  1.8741
  688MOL0     H94897  -0.171   4.413   3.038  1.4759 -1.3055  0.2283
  688MOL0     H94898  -0.092   4.502   2.807 -0.0435 -2.5766 -0.4557
  688MOL0     H94899  -0.255   4.478   2.737  0.6941  0.4469 -0.2023
  688MOL0     H94900  -0.182   4.721   2.810  0.4438  3.1307  4.0157
  688MOL0     H94901  -0.346   4.667   2.851 -0.2081  4.9794  0.7500
  688MOL0     H94902  -0.214   4.914   2.859  1.7857 -0.8450  0.7696
  688MOL0     H94903  -0.308   5.151   2.825  1.4587  0.3237 -0.0297
  688MOL0     H94904  -0.169   5.208   2.924 -0.5411  1.9949  1.5535
  688MOL0     H94905  -0.330   5.257   2.954  1.3428  1.7482  0.0859
  688MOL0     H94906  -0.505   5.379   3.321  2.6115 -1.2045 -1.5428
  688MOL0     H94907  -0.506   5.618   3.414 -1.9585 -1.2392  0.7069
  688MOL0     H94908  -0.463   5.823   3.454 -2.4255  0.0920  0.4848
  688MOL0     H94909  -0.531   5.760   3.610 -0.2992  2.2372  2.1142
  688MOL0     H94910  -0.446   6.011   3.534  1.4290  1.9826  0.2055
  688MOL0     H94911  -0.459   5.969   3.700  1.2812  1.0478  1.1920
  688MOL0     H94912  -0.195   5.913   3.552 -0.0296  0.5545  0.0356
  688MOL0     H94913  -0.230   5.959   3.714 -0.6619  0.4877  0.3880
  688MOL0     H94914  -0.159   6.152   3.671  0.4200  0.4197 -0.1927
  688MOL0     H94915  -0.312   6.190   3.596  1.6706  1.0357 -1.8800
  688MOL0     H94916  -0.057   6.099   3.451 -0.8880 -2.7257  0.9005
  688MOL0     H94917  -0.216   6.101   3.377  1.0158 -0.9329  0.5186
  688MOL0     H94918  -0.086   6.341   3.479 -0.9321  1.1278 -0.2208
  688MOL0     H94919  -0.247   6.331   3.403  1.6223  4.8107  3.1870
  688MOL0     H94920   0.009   6.229   3.264 -0.2986 -1.2970  1.1426
  688MOL0     H94921  -0.018   6.392   3.251 -3.2397  1.9298 -1.6839
  688MOL0     H94922  -0.239   6.371   3.156  2.0551  0.9179 -0.9604
  688MOL0     H94923  -0.235   6.191   3.154  3.5928 -2.9781  0.3393
  688MOL0     H94924  -0.145   5.533   3.618 -0.4727  2.1706 -1.2895
  688MOL0     H94925  -0.159   5.290   3.520 -0.4395 -1.0065 -1.6840
  688MOL0     H94926  -0.278   4.954   3.348  2.5595 -0.6897  0.3669
  688MOL0     H94927  -0.229   4.732   3.233  1.1852 -1.8172 -2.0564
  688MOL0     H94928   0.101   5.069   3.407  1.2028 -1.0936 -1.4158
  688MOL0     H94929   0.172   5.104   3.663 -0.8759  0.3721  0.9366
  688MOL0     H94930   0.457   5.011   3.938 -0.7986  0.6025 -1.2086
  688MOL0     H94931   0.610   5.022   4.111 -0.1620 -0.5493  1.1765
  688MOL0     H94932   0.696   5.081   4.471 -0.9270  1.4982  1.4255
  688MOL0     H94933   0.586   5.141   4.350 -1.5934 -0.5203 -0.2648
  688MOL0     H94934   0.516   4.985   4.607 -1.3412 -0.3544 -0.5143
  688MOL0     H94935   0.392   5.055   4.505 -0.6420  3.6632 -0.5055
  688MOL0     H94936   0.613   5.190   4.659  0.9050 -0.0169 -1.9593
  688MOL0     H94937   0.523   5.286   4.548 -1.6832  0.8078  0.5858
  688MOL0     H94938   0.423   5.157   4.800 -0.9630  2.6790  1.5613
  688MOL0     H94939   0.311   5.186   4.674 -2.0954  4.7033  1.3798
  688MOL0     H94940   0.367   5.563   4.830  2.8392  0.5917 -1.0947
  688MOL0     H94941   0.393   4.761   4.358  4.2465 -1.6608 -0.0828
  688MOL0     H94942   0.228   4.610   4.245 -0.0277 -0.2070 -1.0814
  688MOL0     H94943   0.143   4.756   4.288 -2.1735 -0.4677 -1.9890
  688MOL0     H94944   0.117   4.696   4.130  0.3205 -0.9095 -0.4627
  689MOL0     O94945   9.779   3.693   5.286  0.3766  0.2367 -0.0886
  689MOL0     C94946   9.812   3.755   5.389 -0.7771 -0.0043  0.3968
  689MOL0     O94947   9.926   3.806   5.413  0.1026  0.6347 -0.3760
  689MOL0     C94948  10.019   3.790   5.308 -0.4413 -0.3070  0.2219
  689MOL0     C94949  10.047   3.902   5.235 -0.2172 -0.5339  0.4382
  689MOL0     C94950  10.126   3.896   5.123  0.4085  1.0846  0.4362
  689MOL0     C94951  10.183   3.768   5.084 -0.5313 -0.1828  0.7598
  689MOL0     O94952  10.267   3.780   4.977  0.0377 -0.5843 -0.2284
  689MOL0     C94953  10.369   3.684   4.947  0.0306  0.5849  0.0084
  689MOL0     C94954  10.481   3.676   5.050  0.7011 -0.7125  0.2213
  689MOL0     C94955  10.587   3.584   4.993 -0.0285  0.5547 -1.1167
  689MOL0     C94956  10.670   3.648   4.878  0.6922  0.3538 -0.5185
  689MOL0     C94957  10.769   3.549   4.812 -0.2585  0.0854 -0.4893
  689MOL0     C94958  10.884   3.525   4.902  0.9210 -0.2263  1.3154
  689MOL0     C94959  10.992   3.449   4.832 -0.0381 -0.4705  0.0831
  689MOL0     C94960  11.104   3.445   4.938  0.3215 -0.8197 -0.0483
  689MOL0     N94961  11.229   3.414   4.880 -0.4788 -0.3304 -0.3993
  689MOL0     C94962  11.261   3.296   4.813  0.1420  0.3274  0.4330
  689MOL0     C94963  11.391   3.306   4.784  0.4556 -0.3962 -0.4153
  689MOL0     C94964  11.480   3.215   4.703 -0.5201  0.0440  0.7835
  689MOL0     C94965  11.497   3.081   4.782  0.1084 -0.4377 -0.2880
  689MOL0     C94966  11.546   3.096   4.930 -0.4938 -0.3781  0.4729
  689MOL0     C94967  11.655   3.196   4.957  0.0468 -0.9085  0.6116
  689MOL0     O94968  11.777   3.172   4.874 -0.2354  0.9149  0.2437
  689MOL0     C94969  11.874   3.265   4.874  1.2572 -0.0395 -0.0587
  689MOL0     C94970  11.892   3.369   4.963  0.1343 -0.2605 -0.0955
  689MOL0     C94971  12.005   3.448   4.951 -0.7224 -0.3674 -0.4946
  689MOL0     C94972  12.039   3.539   5.067 -0.1721  0.5188  0.3343
  689MOL0     C94973  12.095   3.436   4.842 -0.8427  0.2285  0.0289
  689MOL0     C94974  12.211   3.531   4.816  1.4006  0.5712 -0.0840
  689MOL0     O94975  12.250   3.523   4.684  0.7961 -0.0199  0.5299
  689MOL0     C94976  12.290   3.645   4.625 -0.5304  0.3467  0.2663
  689MOL0     C94977  12.409   3.643   4.540  0.1427 -0.5423 -0.3050
  689MOL0     C94978  12.466   3.751   4.474  0.4587 -0.7310  0.6104
  689MOL0     C94979  12.395   3.879   4.490  0.9105 -0.6335  0.8291
  689MOL0     O94980  12.454   3.989   4.422 -0.0434 -0.0598 -0.3586
  689MOL0     C94981  12.376   4.112   4.406 -0.7084 -0.3975 -0.6247
  689MOL0     C94982  12.245   4.122   4.326 -0.8252  0.0384  0.3985
  689MOL0     C94983  12.271   4.078   4.181 -0.3970  0.2899 -0.3663
  689MOL0     C94984  12.165   4.129   4.080  0.1411 -0.4484 -1.4805
  689MOL0     C94985  12.182   4.070   3.937 -1.2849 -0.9376 -0.4686
  689MOL0     C94986  12.295   4.156   3.876 -0.1408  0.1142  0.0024
  689MOL0     C94987  12.346   4.091   3.739  0.0640  0.8268 -0.0752
  689MOL0     C94988  12.470   4.164   3.685 -0.2769 -0.2792 -0.1575
  689MOL0    Cl94989  12.422   4.293   3.584 -0.3706  0.4908 -0.4396
  689MOL0     C94990  12.273   3.879   4.561  0.4948  0.0732 -0.9157
  689MOL0     C94991  12.218   3.772   4.639  0.7083  0.4612 -0.0519
  689MOL0     O94992  12.250   3.624   4.889  0.2650  0.1612 -0.0222
  689MOL0     C94993  12.074   3.329   4.747 -0.2397  0.3709 -0.8495
  689MOL0     C94994  11.964   3.251   4.771  0.4428  0.1540  0.7877
  689MOL0     N94995  11.428   3.436   4.808  0.3379  0.1697 -0.0636
  689MOL0     N94996  11.333   3.501   4.860  0.3537 -0.5762 -0.7689
  689MOL0     C94997  10.164   3.655   5.167  0.0321  1.0495 -0.1632
  689MOL0     C94998  10.074   3.661   5.267 -0.0608  0.5869 -0.2368
  689MOL0     C94999   9.730   3.766   5.511  0.1366 -0.2864 -0.5804
  689MOL0     C95000   9.777   3.718   5.632 -0.4197  0.1163 -1.0353
  689MOL0     C95001   9.703   3.741   5.752 -0.7515  0.0608 -0.4612
  689MOL0     C95002   9.579   3.805   5.754  0.7049  0.1004  1.1529
  689MOL0     O95003   9.511   3.817   5.872  0.1441 -0.2654  0.2192
  689MOL0     C95004   9.367   3.828   5.866 -0.1966  0.5432 -0.8012
  689MOL0     C95005   9.298   3.812   6.003 -0.1698 -1.0093  1.0671
  689MOL0     C95006   9.145   3.786   5.988 -0.2097 -0.0030 -0.0377
  689MOL0     C95007   9.079   3.758   6.117 -0.6567 -0.7163  0.2061
  689MOL0     C95008   8.935   3.781   6.096  0.6043  0.7816 -0.8884
  689MOL0     C95009   8.812   3.769   6.109 -0.5170  0.7184 -0.0110
  689MOL0     C95010   9.530   3.851   5.630  0.3340  0.4812 -0.3051
  689MOL0     C95011   9.607   3.833   5.512  0.3163 -0.3148  0.9171
  689MOL0     C95012   9.537   3.866   5.381  0.2355  0.2527  0.1739
  689MOL0     H95013  10.007   3.995   5.273  2.3131  0.1229  1.7292
  689MOL0     H95014  10.137   3.986   5.064 -3.9188  0.1126 -2.2504
  689MOL0     H95015  10.413   3.700   4.848  1.0376  0.5126  0.4281
  689MOL0     H95016  10.327   3.584   4.934 -2.6084  1.4442  1.3060
  689MOL0     H95017  10.511   3.780   5.063 -0.3877 -0.3201 -0.3470
  689MOL0     H95018  10.435   3.631   5.138 -1.6225  1.3548  0.1413
  689MOL0     H95019  10.649   3.555   5.079 -2.9489 -2.3243  0.2348
  689MOL0     H95020  10.537   3.491   4.964 -3.9583  1.5890  1.5834
  689MOL0     H95021  10.602   3.690   4.803 -1.6486 -2.1621  0.0628
  689MOL0     H95022  10.727   3.730   4.922 -1.9751  2.2657 -0.4090
  689MOL0     H95023  10.803   3.601   4.723  0.2174  4.2900  1.8724
  689MOL0     H95024  10.719   3.455   4.785  1.0575 -0.4201 -1.2280
  689MOL0     H95025  10.921   3.621   4.939 -0.0016 -0.3009  2.4847
  689MOL0     H95026  10.850   3.470   4.990 -1.9398  1.3444  1.3142
  689MOL0     H95027  11.015   3.508   4.743  4.5908  0.4697  1.6157
  689MOL0     H95028  10.966   3.347   4.803  2.4411 -1.1115 -0.1494
  689MOL0     H95029  11.117   3.546   4.978  1.7541 -0.2280 -1.8893
  689MOL0     H95030  11.081   3.377   5.021  1.4532  1.9311  2.7275
  689MOL0     H95031  11.203   3.210   4.783 -0.7122 -0.7318  4.5207
  689MOL0     H95032  11.575   3.269   4.702  1.4454 -3.1516  0.1572
  689MOL0     H95033  11.445   3.197   4.600  4.2878  0.9708 -1.2671
  689MOL0     H95034  11.395   3.044   4.799  0.2219 -1.5372 -1.8572
  689MOL0     H95035  11.550   3.002   4.728  0.9429 -0.5866  0.7131
  689MOL0     H95036  11.456   3.124   4.986  2.3070  2.3726  4.0232
  689MOL0     H95037  11.584   2.998   4.959 -1.1123 -0.8256 -0.1872
  689MOL0     H95038  11.618   3.295   4.930  1.3979  0.1733  2.5468
  689MOL0     H95039  11.668   3.188   5.065  0.3097 -0.0636  0.6481
  689MOL0     H95040  11.843   3.371   5.060  2.1204  0.5011  0.9411
  689MOL0     H95041  11.963   3.553   5.144  1.3474  2.2572  1.6299
  689MOL0     H95042  12.073   3.640   5.041  3.2159 -0.3312  0.9423
  689MOL0     H95043  12.127   3.490   5.110 -0.0145  0.4080 -0.1060
  689MOL0     H95044  12.456   3.546   4.542  2.1074  0.3481  1.8983
  689MOL0     H95045  12.551   3.749   4.406 -0.6378 -1.8086 -0.7824
  689MOL0     H95046  12.366   4.147   4.510  1.3478  2.2996 -1.2090
  689MOL0     H95047  12.440   4.189   4.361 -0.8961  0.6388  0.7816
  689MOL0     H95048  12.175   4.053   4.373  1.8029 -1.9573  1.6588
  689MOL0     H95049  12.212   4.226   4.329  2.0596  1.0704  0.1496
  689MOL0     H95050  12.268   3.969   4.176  2.4580  0.2017 -3.1260
  689MOL0     H95051  12.369   4.115   4.150 -1.3670 -0.3563 -5.0661
  689MOL0     H95052  12.157   4.238   4.076 -0.1418 -0.3501  0.8947
  689MOL0     H95053  12.066   4.090   4.106  0.5794 -3.3929 -3.5993
  689MOL0     H95054  12.213   3.965   3.945 -1.6039 -0.9871  0.1871
  689MOL0     H95055  12.081   4.085   3.898 -1.9791 -1.0274  1.2149
  689MOL0     H95056  12.380   4.160   3.945 -0.4273  0.2022  0.3547
  689MOL0     H95057  12.264   4.259   3.856 -0.8275 -0.0139  0.3739
  689MOL0     H95058  12.264   4.105   3.668  0.8386  0.7838 -1.0092
  689MOL0     H95059  12.364   3.983   3.742  0.4431  0.9115  2.3975
  689MOL0     H95060  12.527   4.093   3.625 -1.0621 -2.4115  1.5101
  689MOL0     H95061  12.518   4.203   3.775 -1.0879  0.6005 -0.0864
  689MOL0     H95062  12.214   3.970   4.572 -3.0196 -1.8831 -1.8280
  689MOL0     H95063  12.135   3.776   4.709  0.8068  2.3901  0.0061
  689MOL0     H95064  12.136   3.316   4.658 -0.5313  1.2271 -1.1943
  689MOL0     H95065  11.946   3.163   4.711  1.8127  2.0333 -2.6517
  689MOL0     H95066  10.217   3.565   5.136  0.0281  1.1091 -0.3444
  689MOL0     H95067  10.057   3.572   5.326  0.5490  1.2504  0.9798
  689MOL0     H95068   9.861   3.649   5.627 -0.5163  0.0602 -2.5097
  689MOL0     H95069   9.742   3.707   5.848  2.6863  1.9967 -0.9815
  689MOL0     H95070   9.334   3.920   5.818 -0.0633  0.4393 -1.0902
  689MOL0     H95071   9.323   3.746   5.809 -2.2847  0.2589  1.0779
  689MOL0     H95072   9.313   3.902   6.064 -1.6829 -3.0647  4.8554
  689MOL0     H95073   9.350   3.733   6.059 -0.4676 -2.2559 -0.3636
  689MOL0     H95074   9.106   3.872   5.934 -1.6295  0.5218  1.6935
  689MOL0     H95075   9.131   3.690   5.936 -0.7739 -1.2333  2.2355
  689MOL0     H95076   9.108   3.822   6.200 -0.1965 -2.8095  1.7501
  689MOL0     H95077   9.095   3.654   6.150 -0.2500 -0.3112  1.3230
  689MOL0     H95078   8.706   3.766   6.103 -0.5509  1.0020  0.3892
  689MOL0     H95079   9.434   3.901   5.632  1.3063  2.4342  0.8546
  689MOL0     H95080   9.483   3.779   5.342  2.2500 -1.2488  0.5957
  689MOL0     H95081   9.464   3.947   5.394 -0.4687 -0.1056 -1.3001
  689MOL0     H95082   9.611   3.887   5.303  2.3511 -0.1382  1.9974
  690MOL0     O95083   9.504   1.970   0.327  0.2074 -0.0497 -0.1596
  690MOL0     C95084   9.461   2.032   0.419 -0.4677  0.0187 -0.0670
  690MOL0     O95085   9.532   2.075   0.525  0.5547  0.2919 -0.0859
  690MOL0     C95086   9.650   2.010   0.565 -0.2353 -0.6304  1.1251
  690MOL0     C95087   9.664   1.874   0.561 -0.4285 -0.2338 -0.7621
  690MOL0     C95088   9.772   1.799   0.609 -0.0361 -0.0400 -0.6361
  690MOL0     C95089   9.884   1.875   0.659 -0.8999  0.5154  0.4253
  690MOL0     O95090   9.996   1.818   0.705  0.3150 -0.1429  0.8088
  690MOL0     C95091   9.997   1.680   0.727 -0.5599 -0.1834  0.3983
  690MOL0     C95092  10.125   1.654   0.795 -0.1238 -0.0255  0.2576
  690MOL0     C95093  10.153   1.502   0.799 -0.0356 -0.2197 -0.3661
  690MOL0     C95094  10.054   1.433   0.890 -0.0636 -0.8927 -0.2468
  690MOL0     C95095  10.088   1.288   0.914 -0.2014  0.1646  0.9085
  690MOL0     C95096  10.033   1.189   0.811  0.2437 -0.0337  0.0160
  690MOL0     C95097  10.048   1.048   0.863  0.2689  0.2835  0.2115
  690MOL0     C95098  10.162   0.962   0.802 -0.0288 -0.1240  0.6122
  690MOL0     N95099  10.304   1.003   0.844  0.5097  0.4684 -0.2280
  690MOL0     C95100  10.395   0.923   0.911 -0.0906  0.6930 -0.0875
  690MOL0     C95101  10.513   0.992   0.910  0.0133  0.7521  0.5954
  690MOL0     C95102  10.646   0.954   0.971  0.0472  0.8791 -0.1562
  690MOL0     C95103  10.671   0.809   0.961 -1.1985 -0.0793  0.2237
  690MOL0     C95104  10.787   0.783   1.057 -0.0859 -0.2841 -0.2922
  690MOL0     C95105  10.927   0.831   1.030  0.1113 -0.0351  0.3968
  690MOL0     O95106  10.960   0.786   0.896 -0.8500 -0.6266 -0.3978
  690MOL0     C95107  11.056   0.858   0.825 -0.2365  0.6186  0.2187
  690MOL0     C95108  11.073   0.810   0.701 -0.5602 -0.4027 -0.3580
  690MOL0     C95109  11.154   0.870   0.612 -0.6265 -0.2982 -0.0954
  690MOL0     C95110  11.146   0.822   0.469  0.1123  0.1042 -0.3564
  690MOL0     C95111  11.237   0.980   0.651  0.6143  0.5775  0.5616
  690MOL0     C95112  11.341   1.037   0.569  0.2782 -0.2450 -0.0253
  690MOL0     O95113  11.406   1.139   0.627  0.8686  0.4920  0.0189
  690MOL0     C95114  11.512   1.188   0.549 -0.2836 -0.7923  0.2072
  690MOL0     C95115  11.640   1.175   0.611  0.3880  0.4220 -0.3105
  690MOL0     C95116  11.761   1.215   0.551 -0.0292 -0.2887  0.0719
  690MOL0     C95117  11.754   1.273   0.424 -0.1037 -0.8794  0.3831
  690MOL0     O95118  11.867   1.305   0.343 -0.0474  0.1417  0.0975
  690MOL0     C95119  11.993   1.304   0.410  0.1565 -0.1124 -0.3549
  690MOL0     C95120  12.110   1.343   0.325  0.1018 -0.4358  0.8777
  690MOL0     C95121  12.151   1.236   0.236  0.3985  0.6196 -0.0255
  690MOL0     C95122  12.310   1.237   0.211  0.0045  0.5534 -0.1985
  690MOL0     C95123  12.338   1.188   0.065  0.2265  0.6061  0.0521
  690MOL0     C95124  12.478   1.141   0.040 -1.0010 -1.2778 -0.0050
  690MOL0     C95125  12.571   1.258  -0.003  0.6320  0.1220 -0.0358
  690MOL0     C95126  12.722   1.230   0.018 -0.1721  0.2478  1.4917
  690MOL0    Cl95127  12.752   1.061  -0.041  0.0597  0.0765  0.2370
  690MOL0     C95128  11.624   1.285   0.361 -1.4921 -0.3367 -0.6505
  690MOL0     C95129  11.505   1.248   0.417  0.0219  0.9922 -0.5544
  690MOL0     O95130  11.371   0.988   0.461 -0.4594 -0.3024 -0.2799
  690MOL0     C95131  11.216   1.033   0.781 -0.4206 -0.5730  0.4842
  690MOL0     C95132  11.121   0.975   0.861  0.1206  0.5479  0.0798
  690MOL0     N95133  10.485   1.111   0.847  0.8375 -0.4605  0.2889
  690MOL0     N95134  10.367   1.119   0.807 -0.6611  0.5307 -0.8938
  690MOL0     C95135   9.868   2.013   0.665 -0.3125 -1.1547  0.5650
  690MOL0     C95136   9.756   2.081   0.619  0.8014  0.3605 -0.4484
  690MOL0     C95137   9.322   2.064   0.417 -0.0951  0.0056  0.0075
  690MOL0     C95138   9.249   2.037   0.527 -0.4398  0.3414  0.3140
  690MOL0     C95139   9.120   2.080   0.538  0.1692 -0.4361 -0.4503
  690MOL0     C95140   9.047   2.145   0.432  0.5188 -0.2498 -0.2403
  690MOL0     O95141   8.928   2.206   0.470  0.5306 -0.6573  0.6738
  690MOL0     C95142   8.884   2.308   0.384 -0.2151 -0.1195  0.1709
  690MOL0     C95143   8.808   2.258   0.260  0.7326 -1.4435 -0.6240
  690MOL0     C95144   8.711   2.367   0.232  0.6685 -0.7536  0.1303
  690MOL0     C95145   8.662   2.360   0.084  0.0705 -0.1838 -0.0221
  690MOL0     C95146   8.594   2.475   0.042  0.2902 -0.6793 -0.0465
  690MOL0     C95147   8.521   2.568   0.018  0.0340  0.7124  0.8714
  690MOL0     C95148   9.121   2.177   0.317  0.0756  0.1047  0.4810
  690MOL0     C95149   9.259   2.140   0.309  0.2461 -0.2032 -0.2507
  690MOL0     C95150   9.342   2.171   0.181  0.5794  1.1929  0.4159
  690MOL0     H95151   9.580   1.813   0.528 -2.7993  1.5436  1.5650
  690MOL0     H95152   9.781   1.693   0.586  2.3065  0.5591 -3.0178
  690MOL0     H95153  10.002   1.627   0.631  0.1430 -0.4008  0.5525
  690MOL0     H95154   9.909   1.648   0.784 -1.5408  2.3190  0.4226
  690MOL0     H95155  10.210   1.699   0.742 -0.0359 -0.6846 -0.1838
  690MOL0     H95156  10.132   1.692   0.898  3.3496 -1.6520  0.7957
  690MOL0     H95157  10.139   1.446   0.706 -1.8364  1.0078 -0.8836
  690MOL0     H95158  10.252   1.470   0.833  1.0201  4.5156  1.8311
  690MOL0     H95159  10.049   1.490   0.983 -0.5354 -1.6436  0.1965
  690MOL0     H95160   9.956   1.439   0.842  0.9392  2.4508 -2.1935
  690MOL0     H95161  10.025   1.276   1.002  3.0340  1.6098  3.6420
  690MOL0     H95162  10.192   1.271   0.942  0.6515  0.0826 -2.0359
  690MOL0     H95163   9.929   1.210   0.788 -0.4687 -3.3038 -0.2313
  690MOL0     H95164  10.104   1.209   0.729  0.3151 -1.5113 -0.3033
  690MOL0     H95165   9.958   0.988   0.843  0.0852 -0.2667  2.4167
  690MOL0     H95166  10.053   1.046   0.972  0.5002 -0.7924  0.1950
  690MOL0     H95167  10.136   0.862   0.839  1.4068  0.1214  2.4836
  690MOL0     H95168  10.159   0.967   0.693  1.9614 -2.0480  0.3924
  690MOL0     H95169  10.353   0.828   0.941 -2.6567  1.1310 -1.9077
  690MOL0     H95170  10.652   0.978   1.078  2.8055 -1.4087  0.3334
  690MOL0     H95171  10.721   1.002   0.908 -0.3225  1.9265  0.1838
  690MOL0     H95172  10.590   0.740   0.988 -1.4049  0.0941  0.0474
  690MOL0     H95173  10.702   0.776   0.861 -1.0217 -2.8745  1.1107
  690MOL0     H95174  10.750   0.814   1.155 -1.0765 -3.3941  0.4302
  690MOL0     H95175  10.794   0.675   1.076  1.4240  0.0572  1.3664
  690MOL0     H95176  10.929   0.939   1.048  1.9426 -0.3296  2.4217
  690MOL0     H95177  10.992   0.784   1.105 -1.2754 -1.4333  0.7769
  690MOL0     H95178  11.017   0.722   0.672  1.9267 -1.9986 -0.5461
  690MOL0     H95179  11.075   0.742   0.447  0.8399 -0.4642 -0.6914
  690MOL0     H95180  11.244   0.780   0.442 -0.2848 -0.8632 -0.3348
  690MOL0     H95181  11.125   0.917   0.418  0.3621  0.3023 -0.0913
  690MOL0     H95182  11.631   1.127   0.708 -2.6482 -4.2881 -2.5876
  690MOL0     H95183  11.860   1.198   0.592  0.3245  0.8806 -0.2523
  690MOL0     H95184  11.986   1.370   0.498 -2.8582  1.0535 -1.3154
  690MOL0     H95185  12.015   1.206   0.453  0.0535 -0.0065 -0.0531
  690MOL0     H95186  12.068   1.422   0.262 -2.0628  0.3891  3.2120
  690MOL0     H95187  12.185   1.389   0.389  0.9566 -1.7704  0.8663
  690MOL0     H95188  12.101   1.254   0.140 -2.3297  1.2222  1.3948
  690MOL0     H95189  12.119   1.140   0.278  1.1211  1.9212  3.8486
  690MOL0     H95190  12.349   1.170   0.288 -1.4424  1.2962  1.2466
  690MOL0     H95191  12.377   1.322   0.227  1.5448 -0.4839 -1.0198
  690MOL0     H95192  12.265   1.114   0.030 -0.1694  0.2588  1.5367
  690MOL0     H95193  12.320   1.280   0.009 -1.1358  0.2100 -0.1990
  690MOL0     H95194  12.477   1.063  -0.037 -0.0662  1.4163 -3.0337
  690MOL0     H95195  12.517   1.097   0.132  1.4871 -1.7206 -1.1673
  690MOL0     H95196  12.543   1.337   0.067  2.0598 -0.5088  1.3075
  690MOL0     H95197  12.560   1.282  -0.109  2.7615 -1.4956 -0.6945
  690MOL0     H95198  12.758   1.235   0.121  1.7036  1.0012  0.8552
  690MOL0     H95199  12.777   1.298  -0.049 -1.8606  0.0769 -0.1468
  690MOL0     H95200  11.625   1.334   0.264 -0.4006  0.5465 -0.2102
  690MOL0     H95201  11.414   1.283   0.370  0.0534  1.5216 -0.2276
  690MOL0     H95202  11.272   1.118   0.818 -0.1252  0.6007 -2.4146
  690MOL0     H95203  11.098   1.019   0.958  0.3855  2.0367 -0.5101
  690MOL0     H95204   9.951   2.062   0.716 -1.0756  0.3284  0.4384
  690MOL0     H95205   9.747   2.190   0.620  2.6162  0.5621 -1.5704
  690MOL0     H95206   9.279   1.981   0.615 -2.3857  2.9006  2.7805
  690MOL0     H95207   9.057   2.064   0.625  1.5834 -1.2108  0.4802
  690MOL0     H95208   8.818   2.375   0.440 -0.8104  2.0325 -2.8218
  690MOL0     H95209   8.962   2.379   0.355 -0.2125 -0.6823 -1.2952
  690MOL0     H95210   8.750   2.167   0.280 -0.9356 -0.0934  0.9470
  690MOL0     H95211   8.872   2.230   0.175  0.4899  0.5828 -1.5188
  690MOL0     H95212   8.621   2.364   0.293 -1.4205 -0.8012 -2.7144
  690MOL0     H95213   8.769   2.459   0.246 -0.9513 -0.0549  3.0037
  690MOL0     H95214   8.595   2.275   0.071  3.0875 -2.8271  0.5265
  690MOL0     H95215   8.751   2.358   0.020  1.6490 -0.6147  2.0966
  690MOL0     H95216   8.458   2.649  -0.010 -1.0605 -0.9987 -1.9869
  690MOL0     H95217   9.075   2.218   0.228 -0.2534 -2.5951 -0.7117
  690MOL0     H95218   9.344   2.080   0.121 -2.1936  0.3025  1.5044
  690MOL0     H95219   9.280   2.247   0.133 -2.3081 -2.2909 -1.8390
  690MOL0     H95220   9.444   2.209   0.187  0.8220  0.7924 -0.8280
  691MOL0     O95221   0.803   1.779   3.173  0.0657  0.0920 -1.1405
  691MOL0     C95222   0.786   1.894   3.137 -0.7891  0.7069 -0.1219
  691MOL0     O95223   0.883   1.975   3.100 -0.2026  0.2893  0.7180
  691MOL0     C95224   1.012   1.958   3.154  0.5998  0.7059  0.2179
  691MOL0     C95225   1.117   1.987   3.076  0.3963 -0.3790 -0.1244
  691MOL0     C95226   1.246   1.982   3.134  0.0745  0.1734  0.0316
  691MOL0     C95227   1.268   1.942   3.262 -0.8847 -0.4681  1.4567
  691MOL0     O95228   1.386   1.945   3.333 -0.5732 -0.1392  0.3897
  691MOL0     C95229   1.510   1.957   3.271  0.4946  0.2761  0.0961
  691MOL0     C95230   1.565   2.108   3.280 -0.8852 -0.3301  0.4041
  691MOL0     C95231   1.621   2.158   3.136  0.2372 -0.4568 -0.6213
  691MOL0     C95232   1.688   2.296   3.131 -0.8020  0.0505  0.9027
  691MOL0     C95233   1.611   2.404   3.196 -0.2443 -0.1874  0.0166
  691MOL0     C95234   1.672   2.532   3.148  1.0269  0.3022  0.4762
  691MOL0     C95235   1.585   2.651   3.196  0.0684 -0.7620  0.3488
  691MOL0     C95236   1.629   2.785   3.149 -0.1811  0.7327 -0.0968
  691MOL0     N95237   1.673   2.783   3.011 -0.0408 -0.3551  0.2493
  691MOL0     C95238   1.801   2.787   2.970 -0.0560  0.1609 -0.2458
  691MOL0     C95239   1.801   2.808   2.836 -0.6146  0.6166  0.0844
  691MOL0     C95240   1.922   2.846   2.751  0.0737  0.1519 -0.0178
  691MOL0     C95241   1.921   3.003   2.722 -0.1038  0.7788  0.3698
  691MOL0     C95242   1.987   3.027   2.584  0.1266  0.5448  0.3161
  691MOL0     C95243   2.131   2.973   2.572  0.8574  0.4490 -0.3468
  691MOL0     O95244   2.117   2.864   2.484  0.9688 -0.2297 -0.1878
  691MOL0     C95245   2.228   2.792   2.463 -0.6532  0.2614 -0.9143
  691MOL0     C95246   2.227   2.656   2.495  0.2362 -0.0375  0.3648
  691MOL0     C95247   2.335   2.574   2.482  0.9492  0.2702 -0.1919
  691MOL0     C95248   2.320   2.439   2.529 -0.4521 -0.6363 -0.0861
  691MOL0     C95249   2.460   2.624   2.429 -0.2114  0.3545 -0.7941
  691MOL0     C95250   2.586   2.537   2.423 -0.6160 -0.2889  0.2313
  691MOL0     O95251   2.693   2.607   2.368  0.4865  0.2766  0.1632
  691MOL0     C95252   2.822   2.552   2.366  0.0403  0.4018  0.6629
  691MOL0     C95253   2.903   2.573   2.482  0.1969 -1.1199  0.2217
  691MOL0     C95254   3.032   2.530   2.481 -0.3102  0.0474  0.0974
  691MOL0     C95255   3.085   2.446   2.373  0.9670 -0.6219  0.2909
  691MOL0     O95256   3.210   2.405   2.354 -1.3215  0.1841  0.1151
  691MOL0     C95257   3.320   2.449   2.443  0.3788  0.4950 -0.2087
  691MOL0     C95258   3.451   2.377   2.427 -0.3516 -0.2024 -0.0876
  691MOL0     C95259   3.576   2.446   2.498 -0.9558 -1.3712  0.5078
  691MOL0     C95260   3.628   2.568   2.419 -0.5791  0.0163  0.5302
  691MOL0     C95261   3.770   2.615   2.455  0.1942 -0.4711 -0.4090
  691MOL0     C95262   3.874   2.498   2.448  0.7651  0.5301 -1.0201
  691MOL0     C95263   4.023   2.536   2.442 -0.2706  1.0622 -0.0610
  691MOL0     C95264   4.107   2.403   2.429 -0.2402  0.5107 -0.0985
  691MOL0    Cl95265   4.073   2.283   2.561 -0.1630  0.1623 -0.3781
  691MOL0     C95266   2.994   2.416   2.263  0.6954  0.3191  0.2091
  691MOL0     C95267   2.868   2.468   2.263  0.1053  0.1241 -0.3627
  691MOL0     O95268   2.601   2.422   2.463  0.0714 -0.4304 -0.4926
  691MOL0     C95269   2.463   2.759   2.396  0.2741 -0.2378  1.5008
  691MOL0     C95270   2.343   2.841   2.398 -0.3677  0.5585  0.0792
  691MOL0     N95271   1.665   2.806   2.787  0.0307 -0.0109 -0.8346
  691MOL0     N95272   1.590   2.785   2.898  0.4993 -0.3580 -0.5320
  691MOL0     C95273   1.154   1.911   3.340 -0.3532  0.5518  0.1045
  691MOL0     C95274   1.028   1.913   3.284 -0.4975 -0.4966  0.3209
  691MOL0     C95275   0.642   1.931   3.111  0.0234  1.2182 -0.2185
  691MOL0     C95276   0.546   1.829   3.112  0.0729 -1.6267 -0.5036
  691MOL0     C95277   0.409   1.852   3.078 -0.3416  0.1420 -0.1823
  691MOL0     C95278   0.365   1.978   3.030  0.2698 -0.6292 -0.6391
  691MOL0     O95279   0.233   1.979   2.993  0.0767  0.7770  0.2062
  691MOL0     C95280   0.158   2.107   2.986 -0.9552  1.0123 -0.2707
  691MOL0     C95281   0.007   2.103   2.985  0.5957 -0.1908  0.5514
  691MOL0     C95282  -0.043   2.025   3.113 -0.2612 -0.4585 -0.1923
  691MOL0     C95283  -0.194   2.044   3.125  0.5300  0.1952 -0.0004
  691MOL0     C95284  -0.227   1.992   3.259  0.0202  0.5405 -0.4095
  691MOL0     C95285  -0.255   1.945   3.361 -0.0709 -0.2694 -0.1241
  691MOL0     C95286   0.451   2.085   3.035 -0.5377 -0.5904  0.4350
  691MOL0     C95287   0.592   2.063   3.074 -0.0076  0.3876  0.1183
  691MOL0     C95288   0.684   2.187   3.072  0.3639 -0.4584  0.3757
  691MOL0     H95289   1.109   1.999   2.969  2.5467  0.6584 -0.2337
  691MOL0     H95290   1.334   1.977   3.071  0.2422 -2.8993  0.3649
  691MOL0     H95291   1.513   1.922   3.168  1.7540  0.9903 -0.1226
  691MOL0     H95292   1.573   1.896   3.337 -0.4659  1.1767  1.9151
  691MOL0     H95293   1.496   2.184   3.317  0.8727  2.1101 -1.0679
  691MOL0     H95294   1.660   2.104   3.334 -0.3643 -1.4080 -0.5609
  691MOL0     H95295   1.688   2.078   3.102 -0.5930 -1.0094 -0.9840
  691MOL0     H95296   1.542   2.163   3.061 -0.1433  0.4828 -0.1742
  691MOL0     H95297   1.789   2.293   3.174 -0.7969  1.0904  0.9820
  691MOL0     H95298   1.688   2.326   3.026  1.8719  0.4324  0.9447
  691MOL0     H95299   1.614   2.405   3.306 -0.1564  2.9692  0.0811
  691MOL0     H95300   1.510   2.379   3.164  0.1947 -0.8115 -0.9095
  691MOL0     H95301   1.777   2.535   3.179  1.7817 -2.0575 -1.5162
  691MOL0     H95302   1.663   2.531   3.039 -1.3283 -1.4889  0.5912
  691MOL0     H95303   1.572   2.655   3.304 -5.0235 -2.5665  0.0666
  691MOL0     H95304   1.479   2.636   3.172  0.1437  1.4052 -1.7099
  691MOL0     H95305   1.534   2.839   3.152 -0.1945  0.7735 -0.9413
  691MOL0     H95306   1.704   2.838   3.210 -0.4097 -0.5182  1.3122
  691MOL0     H95307   1.883   2.784   3.041  0.0933  3.8511 -0.0504
  691MOL0     H95308   1.917   2.785   2.660 -0.9713 -0.5064  0.4682
  691MOL0     H95309   2.012   2.808   2.801 -0.7176 -0.7072  0.7927
  691MOL0     H95310   1.819   3.042   2.716  0.4209  2.1070 -0.4612
  691MOL0     H95311   1.972   3.065   2.797 -0.3458  3.1480 -1.3194
  691MOL0     H95312   1.919   2.982   2.510  2.0871 -1.3637 -0.4390
  691MOL0     H95313   1.986   3.134   2.559  0.7320  0.4150 -0.2962
  691MOL0     H95314   2.189   3.061   2.540  0.1613  2.1081  2.6486
  691MOL0     H95315   2.181   2.950   2.666  0.6302 -1.6998 -0.6884
  691MOL0     H95316   2.134   2.618   2.537 -0.5502 -2.4035 -3.1447
  691MOL0     H95317   2.338   2.378   2.440  0.1326  3.5562 -3.1661
  691MOL0     H95318   2.222   2.415   2.571  1.1969 -2.1531  3.4014
  691MOL0     H95319   2.393   2.410   2.605  0.9964 -0.8351 -1.5032
  691MOL0     H95320   2.862   2.616   2.572  0.8089  1.8661 -0.8214
  691MOL0     H95321   3.089   2.560   2.569 -1.5684  2.1810  0.2468
  691MOL0     H95322   3.336   2.557   2.432 -1.0607  0.7497 -0.0269
  691MOL0     H95323   3.284   2.433   2.545  0.1664 -1.4423 -0.5573
  691MOL0     H95324   3.442   2.277   2.470 -3.1017  0.8145  2.0612
  691MOL0     H95325   3.480   2.366   2.322  1.1296 -0.6633  0.3436
  691MOL0     H95326   3.654   2.371   2.515  0.8864  0.2033 -0.5759
  691MOL0     H95327   3.547   2.493   2.593 -2.5245 -2.3592  0.5428
  691MOL0     H95328   3.565   2.657   2.420 -2.7810 -1.4296 -0.3579
  691MOL0     H95329   3.631   2.527   2.317  0.0669  1.4592 -0.0540
  691MOL0     H95330   3.790   2.694   2.381 -0.2186 -1.0535 -1.1555
  691MOL0     H95331   3.768   2.655   2.556 -2.6755 -0.1790 -0.4950
  691MOL0     H95332   3.853   2.430   2.365 -0.8290  0.4661 -0.5981
  691MOL0     H95333   3.855   2.445   2.541  2.6801 -0.9113 -1.4068
  691MOL0     H95334   4.057   2.603   2.522 -2.5198 -0.3054  2.1769
  691MOL0     H95335   4.051   2.581   2.346  5.9843 -1.7215 -0.0299
  691MOL0     H95336   4.215   2.419   2.436  0.2936 -3.1594  2.8259
  691MOL0     H95337   4.079   2.363   2.331 -1.1542  2.2061 -0.5840
  691MOL0     H95338   3.021   2.356   2.176  2.2843  2.6601 -1.0413
  691MOL0     H95339   2.808   2.435   2.179 -0.5586 -1.7522  0.7967
  691MOL0     H95340   2.553   2.814   2.366 -1.4568  2.6202  1.1917
  691MOL0     H95341   2.340   2.936   2.344  0.0674  0.6761  0.2575
  691MOL0     H95342   1.164   1.874   3.441  0.1967 -2.5445 -0.9811
  691MOL0     H95343   0.944   1.901   3.352  0.1518 -1.9821  0.9055
  691MOL0     H95344   0.571   1.727   3.136 -0.4378 -1.4865  0.7191
  691MOL0     H95345   0.348   1.763   3.071  0.3219 -0.1831 -2.8486
  691MOL0     H95346   0.181   2.159   3.079 -2.3335  1.5473 -0.2127
  691MOL0     H95347   0.189   2.177   2.908 -0.7080 -0.8833 -1.9713
  691MOL0     H95348  -0.027   2.052   2.895 -2.9194 -0.8950  2.1094
  691MOL0     H95349  -0.031   2.205   2.977  1.4782  0.0313 -1.5034
  691MOL0     H95350  -0.012   1.920   3.109  0.6932 -0.1467 -2.1764
  691MOL0     H95351  -0.004   2.068   3.205 -0.8708 -4.9738  2.4796
  691MOL0     H95352  -0.236   1.985   3.043  1.8030  1.2387 -1.4753
  691MOL0     H95353  -0.220   2.150   3.122 -3.0480 -0.5347  0.7481
  691MOL0     H95354  -0.285   1.914   3.459 -0.3678  2.8987  0.8988
  691MOL0     H95355   0.427   2.187   3.010  0.6247  0.2490  2.5089
  691MOL0     H95356   0.637   2.281   3.044  2.9308  0.6330 -0.4829
  691MOL0     H95357   0.730   2.207   3.169  1.0909  4.0269 -0.6932
  691MOL0     H95358   0.757   2.174   2.992  1.2522  3.4443  0.3791
  692MOL0     O95359   4.432   1.676   4.570  1.3598  0.8693  0.0218
  692MOL0     C95360   4.345   1.741   4.628 -0.1441  0.2389  0.1242
  692MOL0     O95361   4.354   1.798   4.751  0.3387  0.0952  0.1953
  692MOL0     C95362   4.475   1.806   4.817  0.5619 -0.5139 -0.4827
  692MOL0     C95363   4.593   1.846   4.743 -0.1967 -0.5308 -0.1353
  692MOL0     C95364   4.718   1.874   4.808  0.5784 -0.2039  0.3024
  692MOL0     C95365   4.729   1.852   4.943  0.1377  0.9995 -0.5235
  692MOL0     O95366   4.842   1.854   5.020 -0.3583 -0.0518  0.2688
  692MOL0     C95367   4.963   1.908   4.956 -0.1225 -0.1194 -0.4431
  692MOL0     C95368   5.064   1.947   5.063 -0.7038 -0.3886  0.1355
  692MOL0     C95369   5.204   1.978   5.011  0.7137 -0.1272 -0.8438
  692MOL0     C95370   5.284   2.061   5.109  0.7027 -0.2713  0.2580
  692MOL0     C95371   5.421   2.094   5.060 -0.2248  0.1787 -0.6415
  692MOL0     C95372   5.505   1.975   5.016  0.4597  0.2700  0.4546
  692MOL0     C95373   5.645   2.019   4.977  0.5943 -0.2042  0.1031
  692MOL0     C95374   5.672   2.012   4.825 -0.5458  0.4593  0.5966
  692MOL0     N95375   5.630   1.890   4.746  0.2759  0.0725  0.1360
  692MOL0     C95376   5.676   1.759   4.764  0.3909  0.4433  0.2656
  692MOL0     C95377   5.598   1.680   4.681 -0.8490 -0.4309  0.0647
  692MOL0     C95378   5.598   1.525   4.674 -0.1418 -0.9438 -0.1156
  692MOL0     C95379   5.505   1.465   4.569 -0.9787  1.0597 -0.0182
  692MOL0     C95380   5.358   1.468   4.598  0.4032  0.1667  0.9478
  692MOL0     C95381   5.269   1.404   4.492 -0.0413  0.9064 -0.7153
  692MOL0     O95382   5.290   1.466   4.361 -0.3777  0.8209 -0.5294
  692MOL0     C95383   5.244   1.405   4.248 -0.0575  0.5508 -0.0683
  692MOL0     C95384   5.267   1.465   4.116 -0.6319  0.2859 -0.5546
  692MOL0     C95385   5.228   1.394   3.999 -0.2665  0.3909  0.2576
  692MOL0     C95386   5.293   1.457   3.874 -0.1832 -0.7621  0.2901
  692MOL0     C95387   5.148   1.279   4.015  0.2480  0.8675  0.1476
  692MOL0     C95388   5.090   1.192   3.903 -0.2681  0.6036 -0.2249
  692MOL0     O95389   5.044   1.260   3.794  0.1893  0.2982 -0.7404
  692MOL0     C95390   5.040   1.188   3.678 -0.8477  1.4416  0.5074
  692MOL0     C95391   4.932   1.191   3.588  0.4381  0.3891  0.2262
  692MOL0     C95392   4.929   1.114   3.467 -0.1226  0.1487  0.8325
  692MOL0     C95393   5.048   1.035   3.434  0.3128 -0.6358 -0.0751
  692MOL0     O95394   5.072   0.962   3.325  0.4036  0.4874 -0.6358
  692MOL0     C95395   4.979   0.981   3.219  0.0665 -0.2493 -0.2034
  692MOL0     C95396   5.011   0.881   3.110  1.0326 -0.1365  0.9074
  692MOL0     C95397   4.936   0.896   2.987  1.2122 -0.0946  0.9308
  692MOL0     C95398   4.967   0.795   2.877  0.1198 -0.2506  0.8907
  692MOL0     C95399   4.847   0.748   2.786  0.0321 -0.5169  0.0802
  692MOL0     C95400   4.764   0.636   2.862  0.2414  0.5079  0.8184
  692MOL0     C95401   4.619   0.618   2.803  0.3812  0.6956  0.0214
  692MOL0     C95402   4.640   0.548   2.661  0.2215 -0.0907  0.7006
  692MOL0    Cl95403   4.483   0.502   2.579 -0.3083  0.3136 -0.3735
  692MOL0     C95404   5.145   1.036   3.529 -0.8106 -0.8156 -0.5719
  692MOL0     C95405   5.140   1.099   3.649 -0.5810  0.6353  0.0498
  692MOL0     O95406   5.070   1.075   3.934  0.5889 -0.5691  0.8709
  692MOL0     C95407   5.122   1.227   4.143  1.0067 -0.5357  0.2577
  692MOL0     C95408   5.175   1.287   4.255 -0.2140 -0.2285  0.0287
  692MOL0     N95409   5.518   1.772   4.609  0.4890  0.7575 -0.5887
  692MOL0     N95410   5.533   1.892   4.655  0.4113  0.1917 -0.3035
  692MOL0     C95411   4.612   1.809   5.018  0.0991  0.5979  1.2025
  692MOL0     C95412   4.488   1.795   4.954  0.3439  0.7597 -0.5137
  692MOL0     C95413   4.212   1.748   4.558  0.8842  0.0489 -0.5395
  692MOL0     C95414   4.196   1.672   4.442  1.1793 -0.3785  0.3103
  692MOL0     C95415   4.071   1.658   4.379 -0.7402  0.3079 -0.0567
  692MOL0     C95416   3.966   1.736   4.421 -0.5098  0.5061  0.6091
  692MOL0     O95417   3.847   1.750   4.343 -0.5290 -0.4118  0.2431
  692MOL0     C95418   3.719   1.692   4.390  0.2733  0.2287 -0.0516
  692MOL0     C95419   3.724   1.539   4.342  0.2348  0.2592 -0.3112
  692MOL0     C95420   3.595   1.472   4.402  0.6744  0.1487 -0.5819
  692MOL0     C95421   3.602   1.453   4.552  0.3396  0.2028  1.0421
  692MOL0     C95422   3.485   1.379   4.601 -0.4156 -0.2790  0.8617
  692MOL0     C95423   3.391   1.323   4.649  0.3606  0.0116  0.1781
  692MOL0     C95424   3.974   1.817   4.537  0.2248  0.2386  1.0518
  692MOL0     C95425   4.097   1.826   4.612  1.2002  0.2507  0.1496
  692MOL0     C95426   4.098   1.927   4.725  0.3822 -0.1472 -0.3609
  692MOL0     H95427   4.575   1.869   4.639  0.6066 -2.2665 -0.7071
  692MOL0     H95428   4.798   1.923   4.755 -1.5015  2.9576 -0.1455
  692MOL0     H95429   4.936   1.994   4.894 -1.7445 -1.5804 -1.8905
  692MOL0     H95430   5.010   1.839   4.885 -1.5001  1.0795 -2.6515
  692MOL0     H95431   5.023   2.034   5.116 -0.4705  0.9249 -1.7457
  692MOL0     H95432   5.073   1.879   5.149 -1.3990  0.5347  0.9646
  692MOL0     H95433   5.254   1.882   4.998  1.3602 -0.0426  0.7526
  692MOL0     H95434   5.201   2.029   4.915  1.4611  0.7899 -0.3968
  692MOL0     H95435   5.233   2.155   5.130 -0.5290 -0.9857  0.5771
  692MOL0     H95436   5.280   1.995   5.196 -1.1698  0.6480  0.9170
  692MOL0     H95437   5.473   2.147   5.140  0.5570 -2.6450  0.8700
  692MOL0     H95438   5.406   2.164   4.978 -1.3191  1.7157  0.7913
  692MOL0     H95439   5.519   1.896   5.090  1.5890 -1.2190 -1.2544
  692MOL0     H95440   5.452   1.935   4.929  0.9959  1.5116 -0.4782
  692MOL0     H95441   5.723   1.959   5.024 -0.2424 -2.2548 -0.9953
  692MOL0     H95442   5.657   2.124   5.006 -2.6806 -0.8012  4.6577
  692MOL0     H95443   5.611   2.098   4.794 -1.5045 -0.1453  0.7816
  692MOL0     H95444   5.776   2.036   4.800 -0.9279 -0.2190 -1.8432
  692MOL0     H95445   5.752   1.730   4.835  0.6301  2.3556  0.8470
  692MOL0     H95446   5.573   1.482   4.771  0.2818  0.1126  0.4858
  692MOL0     H95447   5.700   1.507   4.641  0.2080  1.8975 -0.8735
  692MOL0     H95448   5.519   1.529   4.482 -1.0190 -1.2753 -1.8572
  692MOL0     H95449   5.545   1.369   4.533  0.8907  1.2585  1.3928
  692MOL0     H95450   5.346   1.426   4.698 -1.1705  1.0212  1.1503
  692MOL0     H95451   5.326   1.572   4.607  1.3784  0.4780  0.9355
  692MOL0     H95452   5.290   1.296   4.486  0.7833  0.9256  1.0953
  692MOL0     H95453   5.161   1.420   4.502 -0.5420 -1.1370 -2.2248
  692MOL0     H95454   5.328   1.554   4.109 -1.2517  0.6566 -1.4470
  692MOL0     H95455   5.239   1.519   3.802 -0.3508 -0.9689  0.2375
  692MOL0     H95456   5.341   1.382   3.811 -1.0059 -2.1524  1.2766
  692MOL0     H95457   5.377   1.520   3.906 -0.7130 -0.9041  2.0446
  692MOL0     H95458   4.850   1.255   3.616  0.6827  1.6972 -1.7940
  692MOL0     H95459   4.842   1.121   3.404  0.5237 -2.4358 -0.5232
  692MOL0     H95460   4.879   0.959   3.258 -0.2455  3.0801  1.2124
  692MOL0     H95461   4.981   1.085   3.185 -2.5225 -0.1786 -0.3429
  692MOL0     H95462   5.117   0.873   3.087  0.6049 -0.4437 -1.2330
  692MOL0     H95463   4.988   0.787   3.160  1.7635  0.0439  1.5904
  692MOL0     H95464   4.941   0.996   2.942  0.7599  0.4290  2.0190
  692MOL0     H95465   4.833   0.867   3.013  1.6670 -1.3455  1.3837
  692MOL0     H95466   5.021   0.704   2.905  0.1752 -1.4302 -2.5786
  692MOL0     H95467   5.037   0.849   2.813 -0.1921  0.7752  1.3893
  692MOL0     H95468   4.779   0.833   2.772  3.0496  1.9067 -1.1760
  692MOL0     H95469   4.878   0.708   2.689  0.3649 -3.6537  1.3642
  692MOL0     H95470   4.754   0.662   2.967 -1.9721  3.4404  0.0143
  692MOL0     H95471   4.823   0.544   2.851 -2.2303 -1.0374 -0.5500
  692MOL0     H95472   4.558   0.709   2.799 -0.8153 -0.1028 -0.3672
  692MOL0     H95473   4.555   0.550   2.860 -0.2222  1.8039  0.7004
  692MOL0     H95474   4.709   0.463   2.666  0.6980  0.2865  0.6922
  692MOL0     H95475   4.690   0.620   2.595  1.4944 -0.0661  1.6399
  692MOL0     H95476   5.230   0.978   3.492 -1.4775 -1.4251 -1.1779
  692MOL0     H95477   5.232   1.096   3.706  0.3023  1.7267 -1.2593
  692MOL0     H95478   5.062   1.138   4.157  0.8381 -0.6159 -0.9427
  692MOL0     H95479   5.153   1.232   4.345  2.3524  0.5372  1.2174
  692MOL0     H95480   4.605   1.795   5.126 -2.9703  0.7894  1.1261
  692MOL0     H95481   4.408   1.757   5.017  0.3861  2.1941  0.4778
  692MOL0     H95482   4.271   1.603   4.404  1.3770 -0.4702  0.8579
  692MOL0     H95483   4.077   1.608   4.282 -0.3993 -0.4253  0.3361
  692MOL0     H95484   3.721   1.698   4.499 -1.1693  1.7240 -0.0735
  692MOL0     H95485   3.634   1.744   4.345  1.1624  0.2990 -1.7220
  692MOL0     H95486   3.814   1.484   4.371  0.6448  0.4164 -1.2375
  692MOL0     H95487   3.721   1.527   4.234 -2.4873 -0.1352 -0.2550
  692MOL0     H95488   3.509   1.533   4.373 -0.3336 -0.6474  0.6499
  692MOL0     H95489   3.565   1.376   4.358  0.0813 -0.2608  0.6707
  692MOL0     H95490   3.614   1.545   4.610 -3.2949  0.2791  1.8794
  692MOL0     H95491   3.695   1.397   4.567  0.6133  0.1600 -0.6526
  692MOL0     H95492   3.311   1.270   4.695 -0.3372 -0.7206 -1.7928
  692MOL0     H95493   3.891   1.876   4.574 -1.8424 -2.1974  0.5821
  692MOL0     H95494   4.143   2.019   4.686  0.2159  1.2250  2.4663
  692MOL0     H95495   4.002   1.958   4.767  1.3441  1.6211  0.6704
  692MOL0     H95496   4.161   1.897   4.809 -0.0086  1.1849  0.4381
  693MOL0     O95497   3.856   5.342   6.298 -0.2889 -0.2576 -0.5895
  693MOL0     C95498   3.856   5.232   6.241 -0.4383 -0.5580  0.0555
  693MOL0     O95499   3.966   5.157   6.212  0.3765 -0.1119 -0.4801
  693MOL0     C95500   4.089   5.203   6.247  0.0634  0.1316 -0.3199
  693MOL0     C95501   4.117   5.211   6.386 -0.2004 -0.3367  0.1043
  693MOL0     C95502   4.240   5.242   6.437  0.4273  0.2067 -0.1486
  693MOL0     C95503   4.348   5.263   6.348  1.1679 -0.1782 -0.5844
  693MOL0     O95504   4.483   5.289   6.372  0.4869  0.4524  0.3499
  693MOL0     C95505   4.529   5.306   6.508 -0.0301 -0.0299  0.0430
  693MOL0     C95506   4.685   5.306   6.510  0.1449 -0.1332 -0.5892
  693MOL0     C95507   4.747   5.411   6.414  0.0844 -0.2125  0.8740
  693MOL0     C95508   4.733   5.559   6.458 -0.2267 -0.9831 -0.1752
  693MOL0     C95509   4.777   5.660   6.343  0.0801  0.5672  0.3407
  693MOL0     C95510   4.774   5.802   6.394  0.0339 -0.3108 -0.4245
  693MOL0     C95511   4.815   5.900   6.278 -0.4851  0.8575  0.1726
  693MOL0     C95512   4.852   6.035   6.337 -0.0714 -0.3766  0.6322
  693MOL0     N95513   4.850   6.135   6.235  0.7202 -0.2241  0.4463
  693MOL0     C95514   4.946   6.159   6.144 -0.9568  0.6199  0.0544
  693MOL0     C95515   4.880   6.231   6.042  0.4511 -0.0788 -0.4161
  693MOL0     C95516   4.955   6.265   5.914  0.1638 -0.3778  1.5555
  693MOL0     C95517   4.889   6.345   5.809  1.4205  0.3410 -0.1079
  693MOL0     C95518   4.849   6.480   5.861 -0.4035 -0.0526  0.5032
  693MOL0     C95519   4.763   6.574   5.766 -0.0945  0.3692 -0.6860
  693MOL0     O95520   4.822   6.584   5.642  0.8610  0.6668  0.5409
  693MOL0     C95521   4.733   6.559   5.542  0.2554  0.3046  0.5531
  693MOL0     C95522   4.754   6.451   5.442  0.8648 -0.0160 -0.0309
  693MOL0     C95523   4.656   6.420   5.343 -0.2358  0.4943 -0.2034
  693MOL0     C95524   4.678   6.309   5.246 -0.1522  0.3990  0.2791
  693MOL0     C95525   4.537   6.509   5.334  0.7348  0.9442  0.9115
  693MOL0     C95526   4.426   6.485   5.233  0.9063  0.3882  0.0153
  693MOL0     O95527   4.317   6.562   5.238 -0.0982  0.0474  0.2699
  693MOL0     C95528   4.187   6.548   5.181  0.2601 -0.0211  0.4119
  693MOL0     C95529   4.127   6.426   5.136  0.7384  0.8346  0.5002
  693MOL0     C95530   3.992   6.424   5.092  0.1580  1.0034  0.0082
  693MOL0     C95531   3.915   6.535   5.096 -0.0633  0.7140 -0.7669
  693MOL0     O95532   3.782   6.515   5.058 -0.3438 -0.1227 -1.3722
  693MOL0     C95533   3.680   6.585   5.133 -0.5165 -0.1070  0.1583
  693MOL0     C95534   3.534   6.536   5.101  0.3379  0.1222  0.0380
  693MOL0     C95535   3.513   6.400   5.157 -0.6749  0.8621  0.0923
  693MOL0     C95536   3.369   6.342   5.127 -0.4423  0.4916 -0.2584
  693MOL0     C95537   3.354   6.229   5.223  0.2758 -0.0245  0.2189
  693MOL0     C95538   3.217   6.169   5.209 -0.5513 -0.3809 -0.3855
  693MOL0     C95539   3.196   6.031   5.281  0.6717  0.3106 -0.0847
  693MOL0     C95540   3.203   6.040   5.437 -0.1367  0.4071  0.1960
  693MOL0    Cl95541   3.092   6.171   5.491 -0.1686  0.4707 -0.4100
  693MOL0     C95542   3.967   6.650   5.155  0.4194  0.0394  0.9477
  693MOL0     C95543   4.096   6.663   5.191 -0.0625  0.2209  0.3701
  693MOL0     O95544   4.425   6.388   5.156 -0.3773 -0.2087  0.1907
  693MOL0     C95545   4.524   6.607   5.426  0.8586 -0.2856 -0.2271
  693MOL0     C95546   4.610   6.636   5.527 -0.0430 -0.3212 -0.1691
  693MOL0     N95547   4.746   6.238   6.069  0.1501  0.2325  0.6658
  693MOL0     N95548   4.730   6.171   6.178  0.0011 -0.4329 -0.3049
  693MOL0     C95549   4.322   5.249   6.210 -0.6240 -0.5835  1.7193
  693MOL0     C95550   4.196   5.231   6.155  0.8928  0.2737 -1.3664
  693MOL0     C95551   3.722   5.168   6.220 -0.0464 -0.7042 -0.2597
  693MOL0     C95552   3.717   5.029   6.220  0.0866  0.1053  0.3114
  693MOL0     C95553   3.610   4.951   6.172  0.4379  0.1885 -0.6514
  693MOL0     C95554   3.487   5.020   6.136 -1.0612  0.9346 -0.2131
  693MOL0     O95555   3.389   4.931   6.104  0.3528 -0.0552 -0.0857
  693MOL0     C95556   3.278   4.997   6.038  0.0701 -0.2391  0.1361
  693MOL0     C95557   3.302   5.017   5.882 -0.1964  0.5316 -0.0435
  693MOL0     C95558   3.207   5.111   5.805  0.1727  0.4894 -0.0861
  693MOL0     C95559   3.063   5.074   5.808  0.4510 -0.2063 -0.1566
  693MOL0     C95560   3.033   4.948   5.741 -0.3170  0.9433  0.4365
  693MOL0     C95561   3.014   4.840   5.689  0.0029 -0.5796  0.4952
  693MOL0     C95562   3.486   5.161   6.149 -1.0422 -0.7004 -0.3540
  693MOL0     C95563   3.603   5.236   6.185  0.4252 -0.7456 -0.4896
  693MOL0     C95564   3.604   5.387   6.170 -0.9404  0.5090 -0.0317
  693MOL0     H95565   4.030   5.194   6.448  0.1379 -1.1164  0.3863
  693MOL0     H95566   4.260   5.253   6.543  1.3169  2.4649 -0.4976
  693MOL0     H95567   4.485   5.225   6.567 -1.0713  1.7704  1.8588
  693MOL0     H95568   4.495   5.405   6.540 -0.2679  0.9753 -2.9667
  693MOL0     H95569   4.721   5.344   6.606  0.1021  2.2245 -1.4631
  693MOL0     H95570   4.722   5.208   6.477 -2.3072 -0.7599 -1.7005
  693MOL0     H95571   4.855   5.397   6.399  0.2701  1.5214  0.3967
  693MOL0     H95572   4.693   5.393   6.320 -0.0293 -0.2117  0.9397
  693MOL0     H95573   4.628   5.574   6.488  0.9139  1.5134  3.1512
  693MOL0     H95574   4.795   5.581   6.545 -1.5862 -1.6966  1.0083
  693MOL0     H95575   4.696   5.651   6.271  1.3961  1.2602 -1.2912
  693MOL0     H95576   4.874   5.638   6.296 -1.4909 -1.5317 -2.1605
  693MOL0     H95577   4.675   5.826   6.434 -0.0496 -0.8013 -0.3268
  693MOL0     H95578   4.844   5.806   6.478  0.6974 -3.3253 -0.7095
  693MOL0     H95579   4.727   5.908   6.213 -0.8277  2.0251  0.7562
  693MOL0     H95580   4.904   5.864   6.226  1.8441  0.6107  4.0185
  693MOL0     H95581   4.771   6.060   6.406 -3.1202  3.9092 -3.8002
  693MOL0     H95582   4.947   6.040   6.391  0.2956  2.5408 -0.0958
  693MOL0     H95583   5.041   6.107   6.145 -1.1297  0.1556 -2.0369
  693MOL0     H95584   4.988   6.170   5.871  0.1836  1.5651 -3.3897
  693MOL0     H95585   5.041   6.330   5.936  0.9319  1.0212 -3.9632
  693MOL0     H95586   4.946   6.351   5.716  0.9808 -0.2955 -0.4231
  693MOL0     H95587   4.799   6.286   5.793  1.4022 -0.6639  3.0695
  693MOL0     H95588   4.799   6.464   5.957  0.0764 -1.8713  0.4937
  693MOL0     H95589   4.940   6.536   5.879 -2.2869  3.3409  0.3209
  693MOL0     H95590   4.663   6.531   5.755  0.4248 -0.9572 -0.3430
  693MOL0     H95591   4.762   6.672   5.816  0.1900  0.8113 -1.5238
  693MOL0     H95592   4.844   6.390   5.443 -0.9591 -3.1227 -2.4082
  693MOL0     H95593   4.614   6.225   5.274  1.2186 -1.2020 -1.1714
  693MOL0     H95594   4.781   6.271   5.247 -0.2602  0.1051  0.6820
  693MOL0     H95595   4.665   6.337   5.141  1.1160 -1.1997 -0.3423
  693MOL0     H95596   4.187   6.336   5.143  0.2569  0.4128 -0.4975
  693MOL0     H95597   3.944   6.333   5.056  0.7200  0.9843 -0.7162
  693MOL0     H95598   3.700   6.577   5.240  0.3849 -1.9595 -0.1052
  693MOL0     H95599   3.686   6.689   5.099  0.0283  0.8006  2.7756
  693MOL0     H95600   3.461   6.603   5.146  1.5817 -0.1367  2.6469
  693MOL0     H95601   3.516   6.534   4.993  1.1926  0.7969 -0.1290
  693MOL0     H95602   3.536   6.402   5.264 -0.4165  0.4636  0.0458
  693MOL0     H95603   3.585   6.329   5.116 -1.8371  0.4589 -1.3758
  693MOL0     H95604   3.368   6.294   5.028 -1.0736  0.1909 -0.1068
  693MOL0     H95605   3.299   6.424   5.144  0.1550  0.5683  2.1991
  693MOL0     H95606   3.424   6.148   5.197  2.2584  1.8807 -0.7288
  693MOL0     H95607   3.372   6.264   5.325 -3.4193 -0.2671  1.0680
  693MOL0     H95608   3.217   6.149   5.101 -1.7019  0.0256 -0.4757
  693MOL0     H95609   3.139   6.238   5.240  0.9972  1.4550 -0.4281
  693MOL0     H95610   3.274   5.962   5.245 -0.2194 -0.1043 -1.2765
  693MOL0     H95611   3.096   5.995   5.257  0.0353 -0.0639  2.8121
  693MOL0     H95612   3.301   6.061   5.481 -0.3784  1.3545  0.3082
  693MOL0     H95613   3.170   5.947   5.484  1.9798  0.3712  1.7899
  693MOL0     H95614   3.900   6.732   5.179  2.3779  1.8013  0.6273
  693MOL0     H95615   4.136   6.762   5.214  3.4603 -0.6755 -1.2203
  693MOL0     H95616   4.441   6.678   5.425  0.2157 -0.9921  0.6995
  693MOL0     H95617   4.601   6.722   5.591 -2.4331  0.4200 -1.3656
  693MOL0     H95618   4.411   5.275   6.153 -0.0419 -1.4698  2.1954
  693MOL0     H95619   4.183   5.215   6.048  2.4246 -1.3457 -1.3575
  693MOL0     H95620   3.796   4.980   6.277  1.6345  1.0780 -0.9157
  693MOL0     H95621   3.632   4.845   6.178  1.3501  0.4213  0.6822
  693MOL0     H95622   3.186   4.940   6.059  0.1599  0.0034  1.2657
  693MOL0     H95623   3.253   5.099   6.068  0.1779  1.0683 -3.6417
  693MOL0     H95624   3.302   4.920   5.830 -0.3589 -0.4659  1.7275
  693MOL0     H95625   3.405   5.052   5.879 -0.0279  0.5176  2.7585
  693MOL0     H95626   3.221   5.211   5.846  1.1257  0.8103 -1.1656
  693MOL0     H95627   3.244   5.115   5.702  2.3402 -0.6331  0.5931
  693MOL0     H95628   3.017   5.155   5.750  0.4328 -0.5225 -0.5871
  693MOL0     H95629   3.022   5.076   5.909  1.2878 -0.4119  0.1924
  693MOL0     H95630   3.002   4.743   5.644 -2.4947 -0.5689  0.9842
  693MOL0     H95631   3.396   5.218   6.135 -0.6472 -0.2175 -0.9601
  693MOL0     H95632   3.690   5.411   6.107  1.2688 -3.8655  0.9424
  693MOL0     H95633   3.518   5.428   6.117 -0.8901  1.6354  0.7180
  693MOL0     H95634   3.608   5.434   6.269 -1.1234 -2.3192  1.4284
  694MOL0     O95635   6.692   6.205   6.053 -0.7411 -1.0282 -0.4463
  694MOL0     C95636   6.690   6.312   5.988 -0.5294 -0.8892 -0.8591
  694MOL0     O95637   6.792   6.391   5.948 -1.5202 -0.7419 -0.7190
  694MOL0     C95638   6.921   6.360   5.992  0.0011 -0.0675  0.2009
  694MOL0     C95639   6.944   6.348   6.128 -0.4614  0.5212 -0.8768
  694MOL0     C95640   7.080   6.330   6.179  0.6436  0.1341  0.3406
  694MOL0     C95641   7.182   6.319   6.083 -0.6837 -0.3874 -0.3995
  694MOL0     O95642   7.307   6.285   6.115 -0.4055  0.2302 -0.5079
  694MOL0     C95643   7.358   6.305   6.251  0.0517 -0.5675  0.1108
  694MOL0     C95644   7.508   6.333   6.244 -1.0196  0.4497  1.6560
  694MOL0     C95645   7.532   6.482   6.211 -0.7267 -0.0644 -0.7391
  694MOL0     C95646   7.533   6.497   6.055  0.1839 -0.2427 -0.2550
  694MOL0     C95647   7.480   6.637   6.008 -0.1904  0.1827  0.9740
  694MOL0     C95648   7.327   6.662   6.024  0.3338  0.1692 -0.8170
  694MOL0     C95649   7.262   6.786   5.952  0.4329  0.1432 -0.5662
  694MOL0     C95650   7.336   6.916   5.995 -0.0996  0.3997 -0.2945
  694MOL0     N95651   7.257   7.028   5.939  1.3917 -0.4445 -0.3892
  694MOL0     C95652   7.122   7.059   5.975 -0.1535  1.0937  0.4489
  694MOL0     C95653   7.097   7.153   5.886  0.2123 -0.5669 -0.1632
  694MOL0     C95654   6.955   7.201   5.865  0.3117  0.0877 -0.0623
  694MOL0     C95655   6.882   7.096   5.767  0.0334  0.2157 -0.0207
  694MOL0     C95656   6.929   7.089   5.627 -0.9808 -0.1835  0.8295
  694MOL0     C95657   6.896   7.211   5.540 -0.1846  0.4715 -1.0699
  694MOL0     O95658   6.934   7.177   5.411  0.3694  0.3326 -0.3467
  694MOL0     C95659   7.057   7.220   5.365 -1.0186 -0.4542  0.4994
  694MOL0     C95660   7.161   7.284   5.434 -0.9115 -0.8152  1.0314
  694MOL0     C95661   7.276   7.340   5.361 -0.4081 -0.4719 -0.3968
  694MOL0     C95662   7.375   7.423   5.445  0.3810  0.5292  0.0479
  694MOL0     C95663   7.290   7.318   5.222  0.4577  0.6264  0.0398
  694MOL0     C95664   7.385   7.393   5.131 -1.3680  0.7188 -0.2258
  694MOL0     O95665   7.442   7.513   5.173  0.2370 -0.3922 -0.1176
  694MOL0     C95666   7.496   7.600   5.077  0.3140  0.5798  0.2555
  694MOL0     C95667   7.442   7.616   4.941  0.0168  0.2746 -0.2403
  694MOL0     C95668   7.506   7.703   4.852  0.0156 -0.4573 -0.4311
  694MOL0     C95669   7.619   7.778   4.887 -0.5438  0.2762 -0.0523
  694MOL0     O95670   7.685   7.867   4.804 -0.3128 -0.0860  0.4073
  694MOL0     C95671   7.609   7.937   4.706  0.7532 -0.3453  0.5609
  694MOL0     C95672   7.682   8.061   4.664  0.1586  1.0801 -0.0190
  694MOL0     C95673   7.607   8.128   4.546  0.2978 -0.1231 -0.4631
  694MOL0     C95674   7.686   8.249   4.496 -0.4459 -0.2248 -0.0387
  694MOL0     C95675   7.629   8.300   4.373 -0.0784 -1.5635  0.2585
  694MOL0     C95676   7.671   8.435   4.331  1.0100  1.1640 -0.0722
  694MOL0     C95677   7.818   8.442   4.296  0.2826 -0.0062 -0.6917
  694MOL0     C95678   7.838   8.570   4.219  0.1989 -0.5097 -0.6866
  694MOL0    Cl95679   7.838   8.546   4.037  0.1333  0.0337 -0.0836
  694MOL0     C95680   7.669   7.763   5.018 -0.3776  1.1867  0.6140
  694MOL0     C95681   7.614   7.677   5.111  0.1180 -0.2181 -0.5969
  694MOL0     O95682   7.405   7.343   5.025 -0.7805  0.1021  0.1996
  694MOL0     C95683   7.182   7.241   5.161  0.1554  0.0250  0.2904
  694MOL0     C95684   7.070   7.197   5.232  0.3212 -1.0315  0.0363
  694MOL0     N95685   7.196   7.195   5.812  0.4049  0.3940  0.4922
  694MOL0     N95686   7.292   7.114   5.843  0.1587  0.8917  0.5508
  694MOL0     C95687   7.154   6.324   5.946 -0.2285  0.3333  0.2273
  694MOL0     C95688   7.028   6.350   5.904  0.4268  0.1419  0.7809
  694MOL0     C95689   6.556   6.360   5.948  0.8046 -0.3204 -0.1997
  694MOL0     C95690   6.446   6.357   6.042 -0.0373  0.7361 -0.6329
  694MOL0     C95691   6.318   6.386   6.001 -0.6168  0.2993 -0.5541
  694MOL0     C95692   6.300   6.416   5.863 -0.0123  0.0804 -0.2953
  694MOL0     O95693   6.172   6.451   5.825  0.5289  0.1437  0.2192
  694MOL0     C95694   6.120   6.434   5.687 -1.0271 -0.5034  0.3446
  694MOL0     C95695   5.979   6.376   5.693 -0.5415 -0.1830 -0.0378
  694MOL0     C95696   5.948   6.249   5.773  0.4079  0.3350 -0.6671
  694MOL0     C95697   5.967   6.265   5.919  0.4308  0.1348  0.0253
  694MOL0     C95698   5.868   6.194   6.005  0.4459  0.1508 -0.2096
  694MOL0     C95699   5.780   6.134   6.060  0.4539 -0.0536 -0.8840
  694MOL0     C95700   6.401   6.414   5.765  0.0271  0.8711 -0.0146
  694MOL0     C95701   6.533   6.382   5.807  0.6850  0.5157 -0.6840
  694MOL0     C95702   6.635   6.346   5.698 -0.6804  0.2115 -0.0280
  694MOL0     H95703   6.868   6.375   6.200  0.1056  0.2826 -0.1850
  694MOL0     H95704   7.106   6.321   6.284  0.2406  0.4622  0.4701
  694MOL0     H95705   7.340   6.210   6.302  0.0325 -1.6877 -1.8850
  694MOL0     H95706   7.304   6.389   6.295  0.1511 -0.6321  0.3594
  694MOL0     H95707   7.560   6.317   6.339  0.4978  2.2198  1.1906
  694MOL0     H95708   7.556   6.264   6.173  2.3436 -0.0979  4.2362
  694MOL0     H95709   7.466   6.561   6.247  1.5732  1.7137 -0.1060
  694MOL0     H95710   7.628   6.510   6.255  0.4578 -0.9474 -2.6059
  694MOL0     H95711   7.636   6.486   6.019  0.0586 -0.8701 -0.4388
  694MOL0     H95712   7.483   6.415   6.001  1.7066 -0.8823 -0.7376
  694MOL0     H95713   7.494   6.633   5.899 -0.3145  2.3404  0.8346
  694MOL0     H95714   7.549   6.713   6.046 -3.2072  2.3481  2.5366
  694MOL0     H95715   7.282   6.572   5.980 -0.8754  0.6219 -0.5575
  694MOL0     H95716   7.300   6.669   6.130  2.1614  4.7957 -0.4323
  694MOL0     H95717   7.153   6.787   5.965  0.3010 -1.1956 -1.4374
  694MOL0     H95718   7.281   6.770   5.845 -0.6178 -0.0459 -0.7370
  694MOL0     H95719   7.339   6.934   6.102  0.3532  0.2982 -0.2846
  694MOL0     H95720   7.441   6.917   5.964  1.1064  3.9929  3.0260
  694MOL0     H95721   7.048   7.017   6.042  0.6953  0.4265  0.9811
  694MOL0     H95722   6.961   7.301   5.821  0.4181  1.6407  3.2186
  694MOL0     H95723   6.909   7.222   5.962  2.7658  3.5687  0.5247
  694MOL0     H95724   6.886   7.001   5.821  4.0136  1.6475  2.7400
  694MOL0     H95725   6.781   7.137   5.757  0.0409  0.9297  2.2746
  694MOL0     H95726   7.036   7.067   5.624 -1.0465 -0.4866  0.6441
  694MOL0     H95727   6.889   6.999   5.578  2.5331  0.1682 -3.3021
  694MOL0     H95728   6.788   7.228   5.535 -1.2095 -4.0107  0.9673
  694MOL0     H95729   6.933   7.306   5.581 -2.3046  1.6288 -1.6725
  694MOL0     H95730   7.153   7.305   5.540 -3.0130  1.4516  0.5416
  694MOL0     H95731   7.356   7.406   5.551 -0.1517  1.1956  0.0591
  694MOL0     H95732   7.356   7.527   5.420  1.2006  0.8289  0.6193
  694MOL0     H95733   7.479   7.399   5.420 -0.0646 -0.0265 -1.3869
  694MOL0     H95734   7.343   7.576   4.921 -0.6122  0.9096  1.3747
  694MOL0     H95735   7.466   7.736   4.757  1.5420  0.6077 -0.7388
  694MOL0     H95736   7.599   7.880   4.613  0.7557  2.3340 -1.1862
  694MOL0     H95737   7.510   7.956   4.746  1.0277  0.1807  0.9981
  694MOL0     H95738   7.693   8.121   4.755  0.9112 -1.1790  1.4720
  694MOL0     H95739   7.779   8.025   4.629 -1.4749 -2.0531 -1.6936
  694MOL0     H95740   7.502   8.143   4.572  0.6600  2.5782 -0.2570
  694MOL0     H95741   7.600   8.052   4.467  1.3655 -2.2457  1.3641
  694MOL0     H95742   7.793   8.225   4.488 -0.0740  1.1672  0.4578
  694MOL0     H95743   7.673   8.328   4.570 -3.0915  0.5464 -1.1998
  694MOL0     H95744   7.662   8.230   4.295  0.9896 -2.3379  1.3558
  694MOL0     H95745   7.520   8.304   4.380  0.0214 -1.8140  2.3290
  694MOL0     H95746   7.633   8.517   4.393 -0.8047  1.1034 -1.0349
  694MOL0     H95747   7.622   8.463   4.237 -0.0439  1.6486  0.5975
  694MOL0     H95748   7.847   8.355   4.236 -2.3931 -1.2574 -0.3202
  694MOL0     H95749   7.874   8.445   4.390 -1.1989  0.7166  0.2024
  694MOL0     H95750   7.929   8.613   4.261 -0.5126 -0.2407  0.6563
  694MOL0     H95751   7.768   8.648   4.252  2.5486  0.7931  1.5936
  694MOL0     H95752   7.747   7.835   5.043 -0.8586  2.1103 -0.4776
  694MOL0     H95753   7.665   7.666   5.206  1.2455 -1.5792 -1.3153
  694MOL0     H95754   7.200   7.227   5.055  1.5103  2.2761  0.1635
  694MOL0     H95755   6.992   7.152   5.172  0.3956  0.1425 -0.9963
  694MOL0     H95756   7.235   6.301   5.878 -1.4272  0.0267 -1.1587
  694MOL0     H95757   7.008   6.365   5.798  1.8528 -0.5642  0.3727
  694MOL0     H95758   6.456   6.327   6.145  1.9490  1.6545 -0.5236
  694MOL0     H95759   6.239   6.384   6.076 -1.9744  0.3636 -1.9267
  694MOL0     H95760   6.120   6.539   5.655  3.6519  0.4791  2.6586
  694MOL0     H95761   6.185   6.384   5.614 -0.4485  1.3875 -0.5278
  694MOL0     H95762   5.959   6.363   5.586  3.2721  0.9230 -1.0327
  694MOL0     H95763   5.922   6.461   5.731 -0.2674 -0.0082 -0.0143
  694MOL0     H95764   5.849   6.205   5.757 -0.5562  1.3496  1.9091
  694MOL0     H95765   6.021   6.179   5.732  2.1550  1.4735  0.3501
  694MOL0     H95766   5.956   6.372   5.942  0.1567  0.3050 -0.8461
  694MOL0     H95767   6.064   6.225   5.949  0.5981  1.6380  1.6539
  694MOL0     H95768   5.704   6.074   6.106  2.5174 -1.2247  1.1963
  694MOL0     H95769   6.391   6.440   5.660 -1.5647 -0.0161 -0.1157
  694MOL0     H95770   6.707   6.268   5.725  1.7085  1.4060 -2.4699
  694MOL0     H95771   6.577   6.309   5.614 -3.1802  2.7551  0.4211
  694MOL0     H95772   6.697   6.432   5.671  1.3001 -1.1354 -0.0150
  695MOL0     O95773   4.980  10.846   6.048  0.1729 -0.2448  0.0463
  695MOL0     C95774   4.906  10.857   5.949  0.9400 -0.1635  0.5323
  695MOL0     O95775   4.949  10.892   5.834 -0.2669 -0.5469  0.3121
  695MOL0     C95776   5.078  10.906   5.805 -0.9363  0.3816 -0.0546
  695MOL0     C95777   5.116  11.027   5.743 -0.8205  0.2873  0.3596
  695MOL0     C95778   5.254  11.044   5.713 -0.0195 -0.8266  0.4617
  695MOL0     C95779   5.349  10.936   5.734 -0.5624 -0.2767 -0.6048
  695MOL0     O95780   5.490  10.942   5.722  0.5514  0.1784  0.0529
  695MOL0     C95781   5.553  11.073   5.725  0.8581 -0.4006  0.0940
  695MOL0     C95782   5.703  11.057   5.747  0.1836  0.0178 -0.0126
  695MOL0     C95783   5.774  11.194   5.717 -0.3044  0.5131 -0.2424
  695MOL0     C95784   5.928  11.174   5.735 -0.3047  0.4244 -1.0822
  695MOL0     C95785   5.997  11.303   5.708  0.9657  0.6040 -0.0569
  695MOL0     C95786   6.013  11.347   5.564  0.3620 -0.3144  0.9633
  695MOL0     C95787   6.084  11.481   5.556 -0.3654 -1.0745 -0.0513
  695MOL0     C95788   6.097  11.527   5.410  0.2954 -0.0453  0.2089
  695MOL0     N95789   6.228  11.514   5.346 -0.2871  0.0272  0.7465
  695MOL0     C95790   6.332  11.436   5.392  0.9303  0.8640 -0.0603
  695MOL0     C95791   6.429  11.462   5.305 -0.1841 -0.9693 -0.2535
  695MOL0     C95792   6.576  11.409   5.316 -0.8016 -0.7718  0.1879
  695MOL0     C95793   6.682  11.496   5.259  0.3887 -0.1312  0.4733
  695MOL0     C95794   6.695  11.633   5.319 -0.6311 -0.6733 -0.0713
  695MOL0     C95795   6.817  11.708   5.256 -0.0998 -0.2383 -0.3162
  695MOL0     O95796   6.942  11.646   5.283 -0.1681 -0.5049 -0.0331
  695MOL0     C95797   7.043  11.710   5.213  0.3993 -0.0829 -0.2471
  695MOL0     C95798   7.056  11.843   5.180 -1.0523 -0.4366  0.9024
  695MOL0     C95799   7.172  11.897   5.117 -0.2911  0.9570 -0.5711
  695MOL0     C95800   7.145  12.034   5.071 -0.5605 -0.5117 -1.0336
  695MOL0     C95801   7.287  11.818   5.107  0.5758 -0.5420  0.5870
  695MOL0     C95802   7.415  11.876   5.048  1.0083 -0.0253 -0.2481
  695MOL0     O95803   7.532  11.806   5.086 -0.0166  0.3100 -0.3297
  695MOL0     C95804   7.659  11.847   5.053  0.9086 -0.2285 -0.0357
  695MOL0     C95805   7.766  11.835   5.145  0.3575 -0.1724  0.0145
  695MOL0     C95806   7.895  11.877   5.122 -1.4161 -0.4443  0.2361
  695MOL0     C95807   7.929  11.933   4.996 -0.4338  0.7213 -0.1454
  695MOL0     O95808   8.053  11.987   4.948 -0.1558  0.9435 -0.0336
  695MOL0     C95809   8.163  12.006   5.048  0.1985  0.4013  0.5587
  695MOL0     C95810   8.290  12.041   4.980 -0.9003  0.0660  0.7665
  695MOL0     C95811   8.286  12.169   4.891  0.3302  0.1340 -0.4700
  695MOL0     C95812   8.265  12.292   4.973  0.5296 -0.1370  0.1435
  695MOL0     C95813   8.269  12.410   4.879 -0.7924 -0.7556 -0.1871
  695MOL0     C95814   8.156  12.429   4.770 -0.3868  0.1701  0.1401
  695MOL0     C95815   8.140  12.572   4.708  0.0708 -0.6762 -0.0714
  695MOL0     C95816   8.070  12.556   4.569  0.4553  0.0749  0.1563
  695MOL0    Cl95817   8.092  12.706   4.468  0.0041 -0.3039  0.3205
  695MOL0     C95818   7.823  11.930   4.901 -0.2536 -0.1568 -0.8294
  695MOL0     C95819   7.688  11.888   4.928 -1.2013  0.1791 -0.0391
  695MOL0     O95820   7.402  11.980   4.982  0.6431  0.8513 -0.5549
  695MOL0     C95821   7.274  11.687   5.170  0.0182 -0.1893  1.2491
  695MOL0     C95822   7.157  11.635   5.197 -0.3418  1.1132  0.1818
  695MOL0     N95823   6.386  11.566   5.204  0.3581  0.9924 -0.6288
  695MOL0     N95824   6.265  11.587   5.240  0.5360 -0.3252 -0.2419
  695MOL0     C95825   5.303  10.814   5.793  0.6433  0.1618  0.5173
  695MOL0     C95826   5.162  10.801   5.821 -0.8625 -0.9323  0.4872
  695MOL0     C95827   4.759  10.848   5.976  0.4909  0.1474  1.2810
  695MOL0     C95828   4.712  10.841   6.103  0.7753 -0.4568  0.0384
  695MOL0     C95829   4.576  10.816   6.133 -0.1926  0.5332  0.3402
  695MOL0     C95830   4.485  10.798   6.038  0.3574  0.6294  0.3402
  695MOL0     O95831   4.361  10.782   6.085 -0.7755 -0.3001 -0.1147
  695MOL0     C95832   4.257  10.746   5.996 -0.1669  0.2110 -0.9114
  695MOL0     C95833   4.269  10.609   5.938  0.0610 -0.8921 -0.6004
  695MOL0     C95834   4.239  10.499   6.033  0.5632  0.2077 -1.0249
  695MOL0     C95835   4.353  10.466   6.130 -0.2052  0.8005 -0.6761
  695MOL0     C95836   4.478  10.440   6.052  0.9162 -0.9488 -0.5269
  695MOL0     C95837   4.575  10.429   5.990 -0.3266  1.0024 -0.1702
  695MOL0     C95838   4.524  10.801   5.900  0.9980 -0.5760  1.1348
  695MOL0     C95839   4.660  10.841   5.870 -1.0287  0.4632 -0.8640
  695MOL0     C95840   4.684  10.858   5.717  0.4729 -0.6754 -0.9591
  695MOL0     H95841   5.041  11.104   5.726 -2.1846 -1.4745 -2.2577
  695MOL0     H95842   5.285  11.143   5.680 -3.1965  0.0363 -0.2842
  695MOL0     H95843   5.524  11.124   5.817  0.2059  1.1286 -0.9295
  695MOL0     H95844   5.549  11.133   5.634  3.9169  0.8296  0.6365
  695MOL0     H95845   5.726  11.027   5.849  0.9627 -0.6041 -0.3604
  695MOL0     H95846   5.749  10.984   5.680 -1.6109 -0.3787 -0.8753
  695MOL0     H95847   5.763  11.223   5.612  3.3267 -0.0419 -0.8991
  695MOL0     H95848   5.737  11.279   5.775  0.3634  0.8316 -0.2853
  695MOL0     H95849   5.947  11.150   5.840 -0.5633  1.3283 -0.8242
  695MOL0     H95850   5.983  11.098   5.679  1.5048  2.6248 -2.4657
  695MOL0     H95851   6.098  11.280   5.743  2.3534  2.2813 -2.6234
  695MOL0     H95852   5.959  11.388   5.765  2.2256  2.1495 -1.4128
  695MOL0     H95853   6.071  11.274   5.507 -2.8906  0.4752 -4.0155
  695MOL0     H95854   5.909  11.347   5.529  0.9041 -3.1671 -0.9617
  695MOL0     H95855   6.184  11.482   5.601 -0.1791  0.5340 -0.4515
  695MOL0     H95856   6.020  11.552   5.610  2.1682 -0.2785  2.1557
  695MOL0     H95857   6.025  11.475   5.345 -0.0812  1.4442 -0.5984
  695MOL0     H95858   6.067  11.632   5.411  1.8692  0.4415 -0.6881
  695MOL0     H95859   6.339  11.380   5.484  1.8061  3.5773  1.6712
  695MOL0     H95860   6.568  11.314   5.263 -0.9359 -0.7168  0.1085
  695MOL0     H95861   6.594  11.392   5.423  1.9745  1.9074  0.2905
  695MOL0     H95862   6.780  11.447   5.258 -1.0309 -3.2293 -0.7430
  695MOL0     H95863   6.652  11.498   5.154  0.1200 -2.7197  0.4356
  695MOL0     H95864   6.602  11.690   5.309 -0.7901 -1.2678 -3.4162
  695MOL0     H95865   6.710  11.629   5.427 -2.2594  4.2490  0.6115
  695MOL0     H95866   6.804  11.705   5.147 -0.6809 -1.4783 -0.2322
  695MOL0     H95867   6.817  11.810   5.294 -2.0919 -0.3763  0.1292
  695MOL0     H95868   6.975  11.913   5.197  1.7026  3.4112 -0.4547
  695MOL0     H95869   7.233  12.099   5.067  0.5353 -1.7770  0.8051
  695MOL0     H95870   7.070  12.081   5.135 -0.1883 -0.4574 -0.6296
  695MOL0     H95871   7.099  12.019   4.973 -0.1773  0.6727 -1.4183
  695MOL0     H95872   7.750  11.796   5.246 -0.2447 -1.0278 -0.3974
  695MOL0     H95873   7.975  11.871   5.195  0.2449  2.4389 -1.1399
  695MOL0     H95874   8.135  12.078   5.126  2.2111 -0.3912  2.0840
  695MOL0     H95875   8.188  11.907   5.087  5.0658  1.1064 -0.1508
  695MOL0     H95876   8.363  12.049   5.061  0.1213  3.3367 -0.3322
  695MOL0     H95877   8.329  11.957   4.923 -0.7981 -1.1053  2.4758
  695MOL0     H95878   8.205  12.169   4.818 -0.0991 -2.1151 -0.0853
  695MOL0     H95879   8.383  12.177   4.842  0.8022 -0.1919  0.3775
  695MOL0     H95880   8.352  12.301   5.040 -0.0794  1.0263  0.8151
  695MOL0     H95881   8.176  12.276   5.034 -1.0854  2.4594 -1.3773
  695MOL0     H95882   8.274  12.492   4.950  0.9245 -1.4968  0.6245
  695MOL0     H95883   8.370  12.399   4.837 -0.1158 -3.1071  1.8063
  695MOL0     H95884   8.058  12.410   4.815 -1.0324 -2.6854 -2.1929
  695MOL0     H95885   8.164  12.361   4.685  2.9283  0.1661  0.3297
  695MOL0     H95886   8.228  12.635   4.697 -1.0166  0.7322 -1.0286
  695MOL0     H95887   8.071  12.631   4.769 -1.6415 -2.5214 -0.0944
  695MOL0     H95888   7.965  12.531   4.585 -0.4792  4.1191  1.6517
  695MOL0     H95889   8.118  12.471   4.520  0.6179 -1.0011  2.0740
  695MOL0     H95890   7.841  11.966   4.800 -1.3362  2.1822 -0.2708
  695MOL0     H95891   7.615  11.904   4.849  0.5281  1.5497 -1.4278
  695MOL0     H95892   7.366  11.628   5.172  2.2800  2.9209 -0.9673
  695MOL0     H95893   7.160  11.529   5.218 -4.2116  0.7882 -0.0856
  695MOL0     H95894   5.374  10.734   5.811 -1.6507 -2.8315 -2.3423
  695MOL0     H95895   5.114  10.711   5.857  0.2827 -1.4653  0.7515
  695MOL0     H95896   4.781  10.843   6.187  1.2014 -1.2683 -0.2813
  695MOL0     H95897   4.539  10.789   6.232  2.4424 -4.0268  0.3304
  695MOL0     H95898   4.163  10.757   6.051  0.6678  0.6243  0.5017
  695MOL0     H95899   4.254  10.821   5.917  0.6950 -0.4187 -1.5624
  695MOL0     H95900   4.361  10.593   5.880 -0.2398  1.7226 -1.9861
  695MOL0     H95901   4.195  10.607   5.857 -0.2451  2.3036 -0.5424
  695MOL0     H95902   4.145  10.519   6.086 -0.7969 -1.2496 -2.7760
  695MOL0     H95903   4.222  10.412   5.969 -2.6750  0.7965 -1.1219
  695MOL0     H95904   4.329  10.376   6.187 -0.0821  2.0015  1.3462
  695MOL0     H95905   4.375  10.537   6.210  0.4142  1.0907 -1.0995
  695MOL0     H95906   4.660  10.387   5.939 -1.7095 -0.4516 -1.4074
  695MOL0     H95907   4.459  10.794   5.813  0.9785 -1.1283  1.1887
  695MOL0     H95908   4.732  10.774   5.666  0.5985  0.2690 -2.4483
  695MOL0     H95909   4.590  10.875   5.663  1.3632  1.0410 -2.0810
  695MOL0     H95910   4.733  10.955   5.702 -0.1750 -0.1778  0.0727
  696MOL0     O95911   6.201   3.303   9.167 -0.3320 -0.5884  1.2430
  696MOL0     C95912   6.231   3.219   9.251 -0.1344  0.8909  0.4370
  696MOL0     O95913   6.220   3.222   9.396 -0.1596  0.0644 -0.1747
  696MOL0     C95914   6.186   3.346   9.430  0.8449  0.3612 -1.0116
  696MOL0     C95915   6.056   3.371   9.475  0.1385  0.0615  0.0040
  696MOL0     C95916   6.024   3.494   9.516  0.8016  0.2910 -0.1322
  696MOL0     C95917   6.116   3.600   9.504  0.0203 -0.4215 -0.4613
  696MOL0     O95918   6.089   3.736   9.530  0.7958 -1.3292 -0.3170
  696MOL0     C95919   5.958   3.789   9.481 -1.2154 -0.0488 -0.2198
  696MOL0     C95920   5.911   3.906   9.568 -0.3296  0.1760 -0.4739
  696MOL0     C95921   6.007   4.020   9.581 -0.4997  0.1198 -0.1834
  696MOL0     C95922   5.996   4.118   9.457  0.5061 -0.0462  1.0145
  696MOL0     C95923   6.116   4.212   9.446  0.5322  0.5472  0.5075
  696MOL0     C95924   6.125   4.308   9.569  0.1059  1.4481  0.2038
  696MOL0     C95925   6.247   4.396   9.552  0.5914  0.0089 -0.6293
  696MOL0     C95926   6.283   4.490   9.673  1.0433 -0.4180  0.3712
  696MOL0     N95927   6.313   4.417   9.796 -0.0871  0.0318  0.6021
  696MOL0     C95928   6.384   4.295   9.814 -0.4587  0.0574  0.7245
  696MOL0     C95929   6.391   4.279   9.950  1.2233  0.6957  0.4427
  696MOL0     C95930   6.443   4.163  10.028 -0.2207 -0.0929 -0.1666
  696MOL0     C95931   6.527   4.202  10.155  0.1342  0.4503 -0.4760
  696MOL0     C95932   6.644   4.290  10.127 -0.3636 -0.8808  0.4581
  696MOL0     C95933   6.739   4.297  10.241  0.1692  0.7724  0.1555
  696MOL0     O95934   6.837   4.395  10.215 -0.8048 -0.3295  0.2336
  696MOL0     C95935   6.933   4.421  10.307 -0.5545  0.5070  0.3132
  696MOL0     C95936   6.946   4.352  10.424 -0.4529 -0.4515  0.5988
  696MOL0     C95937   7.040   4.386  10.525  0.2353  0.4372  0.7061
  696MOL0     C95938   7.026   4.309  10.652 -0.7430 -0.4749  0.6757
  696MOL0     C95939   7.121   4.495  10.501 -0.1334 -0.0941 -0.4735
  696MOL0     C95940   7.213   4.559  10.600  0.0463 -0.1373  0.2184
  696MOL0     O95941   7.256   4.493  10.716 -0.2610 -0.5052  0.1022
  696MOL0     C95942   7.359   4.541  10.786  0.1256  0.1392 -0.2761
  696MOL0     C95943   7.492   4.528  10.749  0.5812  0.0609 -0.6195
  696MOL0     C95944   7.593   4.578  10.838  0.4596  0.5249 -0.6249
  696MOL0     C95945   7.562   4.640  10.959  0.2680 -0.5070  0.2950
  696MOL0     O95946   7.659   4.668  11.056  1.1001  0.0486 -0.6896
  696MOL0     C95947   7.704   4.803  11.053  0.5805 -0.5335 -0.0237
  696MOL0     C95948   7.773   4.840  11.191  0.2936  0.3556 -0.2822
  696MOL0     C95949   7.925   4.789  11.221  0.9404  0.5490  0.1434
  696MOL0     C95950   7.919   4.656  11.301  0.1981  0.6814 -0.2889
  696MOL0     C95951   7.873   4.671  11.450 -0.0843  0.5506 -0.4780
  696MOL0     C95952   7.823   4.539  11.501  0.7500  0.2686  0.8887
  696MOL0     C95953   7.957   4.465  11.521  0.4240 -0.0512 -0.8370
  696MOL0     C95954   7.930   4.331  11.579 -0.9270 -0.5051 -0.0384
  696MOL0    Cl95955   7.828   4.253  11.470  0.1483  0.2908 -0.3838
  696MOL0     C95956   7.430   4.666  10.985 -0.3155  0.2734 -0.0198
  696MOL0     C95957   7.328   4.621  10.899 -0.6070 -0.5721  0.8237
  696MOL0     O95958   7.244   4.676  10.565 -0.1828  0.0199 -0.0573
  696MOL0     C95959   7.110   4.568  10.372 -0.5809  0.2849  0.5350
  696MOL0     C95960   7.007   4.535  10.281 -0.3170 -0.0610 -0.5737
  696MOL0     N95961   6.325   4.384  10.011  0.7792 -0.2051  0.0398
  696MOL0     N95962   6.290   4.469   9.918 -0.2434 -0.0570  0.1433
  696MOL0     C95963   6.247   3.569   9.467 -0.9306  0.0398 -0.2722
  696MOL0     C95964   6.285   3.442   9.436 -0.0087 -0.5579 -0.8173
  696MOL0     C95965   6.302   3.099   9.196  0.6121  0.5704 -0.1167
  696MOL0     C95966   6.292   3.063   9.061  0.3232 -0.6703 -0.0929
  696MOL0     C95967   6.351   2.958   8.995 -0.9930  0.2594 -0.4773
  696MOL0     C95968   6.432   2.864   9.070 -0.5379  0.2294 -0.8269
  696MOL0     O95969   6.498   2.754   9.022 -0.1937  0.3558 -0.2854
  696MOL0     C95970   6.463   2.699   8.888  0.3179  0.2436 -0.5305
  696MOL0     C95971   6.531   2.784   8.776 -0.1686 -0.5499 -0.8543
  696MOL0     C95972   6.676   2.727   8.762  0.2765 -0.2799  0.0288
  696MOL0     C95973   6.748   2.808   8.653 -0.2742 -0.3669 -0.2081
  696MOL0     C95974   6.885   2.769   8.637 -1.3177 -0.0111  0.4623
  696MOL0     C95975   7.009   2.750   8.628  0.3833 -0.2693  0.8347
  696MOL0     C95976   6.449   2.894   9.201  0.4591  0.1794 -0.3424
  696MOL0     C95977   6.387   3.005   9.263  0.1301 -0.3543 -0.1050
  696MOL0     C95978   6.411   3.007   9.418 -0.2651 -0.1348 -0.3826
  696MOL0     H95979   5.977   3.297   9.464  0.2871 -0.2633  1.0146
  696MOL0     H95980   5.922   3.504   9.551  0.7547 -1.1439  0.2002
  696MOL0     H95981   5.878   3.716   9.465 -1.0132  0.1940 -2.6345
  696MOL0     H95982   5.986   3.818   9.380 -0.9875 -0.0136 -0.1481
  696MOL0     H95983   5.808   3.929   9.539 -1.2481 -0.5203  2.0092
  696MOL0     H95984   5.886   3.872   9.668  0.3747  1.6544  0.2315
  696MOL0     H95985   5.963   4.070   9.668 -0.7622  1.3538 -1.0090
  696MOL0     H95986   6.104   3.982   9.616 -2.3129 -3.1685  1.8132
  696MOL0     H95987   6.000   4.055   9.368 -4.5685  1.4132 -0.5746
  696MOL0     H95988   5.900   4.165   9.432  2.5339  2.6666 -2.5986
  696MOL0     H95989   6.113   4.268   9.353 -0.7614 -0.4305 -0.0739
  696MOL0     H95990   6.208   4.154   9.446 -0.3581 -0.9163  1.1429
  696MOL0     H95991   6.038   4.374   9.572  0.9096  2.5025  0.7988
  696MOL0     H95992   6.148   4.253   9.661  0.9681  0.4180 -0.6091
  696MOL0     H95993   6.227   4.463   9.468  0.2402  1.9891  0.9632
  696MOL0     H95994   6.336   4.339   9.520  0.0914 -0.2217 -1.6729
  696MOL0     H95995   6.371   4.543   9.636 -0.7669  1.9199 -0.8060
  696MOL0     H95996   6.203   4.562   9.688 -0.1396 -1.8051  1.0241
  696MOL0     H95997   6.433   4.234   9.739 -1.2544 -2.9630  2.4868
  696MOL0     H95998   6.503   4.106   9.955 -1.1138  0.1913 -1.1473
  696MOL0     H95999   6.358   4.101  10.059 -0.0576 -0.6267 -0.7628
  696MOL0     H96000   6.461   4.260  10.220  0.9037  0.5709  0.2228
  696MOL0     H96001   6.551   4.108  10.206 -2.1003 -0.1564 -0.4494
  696MOL0     H96002   6.696   4.252  10.039  0.4333 -2.0427  1.3963
  696MOL0     H96003   6.601   4.390  10.113 -1.0012 -1.0158  1.3818
  696MOL0     H96004   6.692   4.342  10.329  0.4515  1.3721 -0.0050
  696MOL0     H96005   6.779   4.195  10.253 -4.0038 -1.1065  0.0123
  696MOL0     H96006   6.893   4.258  10.433 -0.8314 -0.6364 -2.4846
  696MOL0     H96007   7.020   4.386  10.729  1.5417  1.3829 -0.8444
  696MOL0     H96008   7.122   4.258  10.663 -1.0589 -1.4344 -0.6501
  696MOL0     H96009   6.946   4.234  10.653  1.2248 -2.7059  1.0345
  696MOL0     H96010   7.519   4.467  10.663  0.4894  1.2195 -1.4859
  696MOL0     H96011   7.698   4.560  10.821  0.9121  0.8529  1.5455
  696MOL0     H96012   7.776   4.833  10.977  0.0762  0.0765 -0.2709
  696MOL0     H96013   7.622   4.873  11.035  0.0370 -0.7171  1.5424
  696MOL0     H96014   7.770   4.949  11.196  0.3697  0.3900 -0.9321
  696MOL0     H96015   7.709   4.828  11.280  2.0863  3.5098  1.6114
  696MOL0     H96016   7.976   4.864  11.282  1.6799 -0.6000  0.9882
  696MOL0     H96017   7.986   4.778  11.131 -0.3635  2.7165 -1.0872
  696MOL0     H96018   8.020   4.615  11.303 -0.8992 -2.2633 -0.0235
  696MOL0     H96019   7.873   4.574  11.245  1.4151  0.5373 -1.1109
  696MOL0     H96020   7.953   4.711  11.512  0.8703 -1.2675 -0.4483
  696MOL0     H96021   7.790   4.742  11.451  0.0884  0.7424  0.5829
  696MOL0     H96022   7.757   4.491  11.428  0.4211  0.6755  0.9137
  696MOL0     H96023   7.774   4.547  11.598 -3.5597 -1.0729 -0.9481
  696MOL0     H96024   8.029   4.513  11.589  1.2054 -1.3031 -0.7520
  696MOL0     H96025   8.006   4.452  11.424 -0.3444 -3.0191 -0.9031
  696MOL0     H96026   7.894   4.332  11.682  1.3749 -0.4553  0.8311
  696MOL0     H96027   8.027   4.280  11.576 -0.4682  0.3099  0.4889
  696MOL0     H96028   7.402   4.696  11.085 -3.5209 -5.6370  1.3695
  696MOL0     H96029   7.224   4.647  10.914 -0.8245  0.3249 -1.8355
  696MOL0     H96030   7.167   4.652  10.336  0.4342 -1.7930 -3.1820
  696MOL0     H96031   6.984   4.594  10.193 -2.8389  0.3621  0.2981
  696MOL0     H96032   6.326   3.642   9.473  2.3630 -3.0057 -2.3009
  696MOL0     H96033   6.389   3.422   9.409  0.1110  0.3151 -1.0276
  696MOL0     H96034   6.214   3.120   9.012  0.9476  1.1333  0.9444
  696MOL0     H96035   6.325   2.937   8.892 -5.3358  0.6933  0.3590
  696MOL0     H96036   6.503   2.598   8.882  3.1457  1.2074  0.4178
  696MOL0     H96037   6.354   2.706   8.884  0.3856  3.7627  0.4597
  696MOL0     H96038   6.533   2.891   8.796  0.0621 -0.0083 -3.4391
  696MOL0     H96039   6.481   2.768   8.680  1.0815 -1.7292 -1.3414
  696MOL0     H96040   6.737   2.740   8.852  1.0736 -1.1175 -0.3728
  696MOL0     H96041   6.670   2.622   8.730  0.3071 -0.2162 -0.1866
  696MOL0     H96042   6.745   2.913   8.684 -1.2222 -0.7339  1.0291
  696MOL0     H96043   6.697   2.798   8.557 -2.1725 -0.8105  0.8044
  696MOL0     H96044   7.114   2.730   8.633  0.8208  1.4719 -0.2309
  696MOL0     H96045   6.516   2.828   9.256  1.3338  1.3238  0.0041
  696MOL0     H96046   6.322   2.970   9.470 -0.9891  0.1443 -1.3722
  696MOL0     H96047   6.492   2.940   9.446 -2.2435 -2.2506  0.6042
  696MOL0     H96048   6.453   3.098   9.463 -0.7635  0.0915 -0.3643
  697MOL0     O96049   1.139   4.710   7.875 -0.3079 -0.2306  0.0506
  697MOL0     C96050   1.090   4.602   7.830 -1.4481 -0.0745 -0.1980
  697MOL0     O96051   1.163   4.494   7.778 -0.7394 -0.1843  0.5906
  697MOL0     C96052   1.300   4.502   7.780  0.4262 -0.2288  1.1879
  697MOL0     C96053   1.378   4.528   7.667  0.3231  0.4637 -0.5706
  697MOL0     C96054   1.514   4.542   7.681 -1.4401 -0.1719 -0.7690
  697MOL0     C96055   1.580   4.531   7.803 -0.7009 -0.1190 -1.0630
  697MOL0     O96056   1.714   4.539   7.807 -0.1195  0.0727  0.5426
  697MOL0     C96057   1.762   4.610   7.920 -0.7486  0.8337 -0.4525
  697MOL0     C96058   1.879   4.684   7.874 -0.4689  0.0799  0.4199
  697MOL0     C96059   1.951   4.743   7.987 -0.3191  1.0302 -0.8599
  697MOL0     C96060   1.895   4.884   8.022 -0.3132 -0.2709 -0.9532
  697MOL0     C96061   1.983   4.953   8.133 -0.3271  0.0482  0.1023
  697MOL0     C96062   2.087   5.041   8.068 -0.1168 -0.5534 -0.4592
  697MOL0     C96063   2.177   5.114   8.181  0.0302  0.3572 -0.6335
  697MOL0     C96064   2.277   5.016   8.238 -0.7245 -0.8728  0.4746
  697MOL0     N96065   2.364   5.082   8.333 -0.0281  0.3602 -0.0762
  697MOL0     C96066   2.336   5.144   8.450 -0.2274 -0.0837  0.2694
  697MOL0     C96067   2.455   5.196   8.499  0.3324  1.3222  0.6920
  697MOL0     C96068   2.469   5.255   8.630 -1.0118  0.1928 -0.3431
  697MOL0     C96069   2.425   5.397   8.634  0.0996 -0.3138 -0.1307
  697MOL0     C96070   2.475   5.503   8.535  1.1441  0.1753  0.5774
  697MOL0     C96071   2.617   5.544   8.575  0.0751 -0.4024  0.5903
  697MOL0     O96072   2.618   5.625   8.686  0.1669 -0.1010  0.2917
  697MOL0     C96073   2.730   5.657   8.764  0.0732 -0.3642 -0.1216
  697MOL0     C96074   2.732   5.771   8.835 -0.7637  0.3493 -0.2427
  697MOL0     C96075   2.847   5.813   8.906 -0.1127  0.6150 -0.2117
  697MOL0     C96076   2.839   5.946   8.965  0.0849 -0.5476  1.0412
  697MOL0     C96077   2.951   5.720   8.925  0.1071 -0.4205 -0.0213
  697MOL0     C96078   3.081   5.749   8.999  0.2084 -0.7944  0.3873
  697MOL0     O96079   3.183   5.680   8.947  0.3532 -0.4826  0.7447
  697MOL0     C96080   3.306   5.715   9.005  0.5345  0.4046  0.2177
  697MOL0     C96081   3.390   5.802   8.942 -0.7789  0.9638  0.8542
  697MOL0     C96082   3.533   5.816   8.977  0.3565 -0.1540  0.4611
  697MOL0     C96083   3.579   5.737   9.073 -0.7930 -0.7348 -0.4832
  697MOL0     O96084   3.718   5.738   9.099  0.2291 -0.1058 -0.3930
  697MOL0     C96085   3.750   5.711   9.233  0.3358 -0.2334  0.7147
  697MOL0     C96086   3.834   5.823   9.282  0.3476  0.5646 -0.3980
  697MOL0     C96087   3.969   5.829   9.210 -0.1890  0.3362 -0.5924
  697MOL0     C96088   4.045   5.698   9.177 -0.5521 -0.5452  0.3514
  697MOL0     C96089   4.188   5.716   9.126  1.4400  0.2089  1.2505
  697MOL0     C96090   4.255   5.579   9.095 -0.3700  0.2273 -0.8600
  697MOL0     C96091   4.334   5.540   9.226  0.3053  0.1513  1.0699
  697MOL0     C96092   4.373   5.389   9.234  1.5400 -0.8047  0.5537
  697MOL0    Cl96093   4.465   5.339   9.084  0.4705  0.2804  0.0739
  697MOL0     C96094   3.492   5.648   9.143 -0.7252 -0.1748  0.0770
  697MOL0     C96095   3.356   5.643   9.114  0.4534  0.0525  0.1835
  697MOL0     O96096   3.085   5.823   9.096  0.4750 -0.0337  0.2796
  697MOL0     C96097   2.940   5.596   8.864 -0.0612 -0.0991  0.3086
  697MOL0     C96098   2.833   5.561   8.771 -0.8449  0.3954  0.1851
  697MOL0     N96099   2.556   5.169   8.400  1.2311  0.5852  0.5032
  697MOL0     N96100   2.503   5.097   8.314 -0.8107 -0.1507 -0.7060
  697MOL0     C96101   1.502   4.513   7.915 -0.4582 -0.4373 -0.5859
  697MOL0     C96102   1.363   4.499   7.902 -0.2455 -0.0341 -1.3549
  697MOL0     C96103   0.942   4.601   7.817  0.6157  0.2850  0.2128
  697MOL0     C96104   0.867   4.701   7.879  0.4405  0.0504 -0.3813
  697MOL0     C96105   0.729   4.712   7.866 -0.2221 -0.3986  0.0545
  697MOL0     C96106   0.654   4.624   7.788  1.1866  0.3056  0.4805
  697MOL0     O96107   0.518   4.619   7.768  0.0261  1.0478  0.4374
  697MOL0     C96108   0.440   4.696   7.848 -0.0343  0.6357 -0.6876
  697MOL0     C96109   0.429   4.630   7.987  0.5327  0.5727 -0.4226
  697MOL0     C96110   0.357   4.725   8.090 -0.1432  0.8869 -0.6784
  697MOL0     C96111   0.325   4.643   8.222 -0.5985 -1.1469  0.7962
  697MOL0     C96112   0.440   4.587   8.299  0.3248  0.2209  0.1805
  697MOL0     C96113   0.522   4.530   8.370  0.0017 -0.6157  1.1067
  697MOL0     C96114   0.723   4.512   7.738  0.4799  0.3867 -0.0390
  697MOL0     C96115   0.870   4.492   7.744  0.2197  0.1459 -0.2972
  697MOL0     C96116   0.923   4.363   7.696 -1.1160  0.3244 -0.7557
  697MOL0     H96117   1.323   4.550   7.576 -2.1107  1.7071  1.0939
  697MOL0     H96118   1.571   4.564   7.591 -2.3871 -0.1288 -1.3749
  697MOL0     H96119   1.798   4.536   7.993 -0.1974  1.1933 -0.3498
  697MOL0     H96120   1.697   4.688   7.962  3.3371  3.5527  1.4708
  697MOL0     H96121   1.941   4.622   7.808 -1.2745 -0.5244  0.2172
  697MOL0     H96122   1.851   4.764   7.804 -0.2549 -1.3812 -1.4064
  697MOL0     H96123   1.956   4.676   8.073 -1.5126 -0.0496 -1.5967
  697MOL0     H96124   2.052   4.749   7.945 -0.0208 -0.4843 -0.4101
  697MOL0     H96125   1.895   4.944   7.931 -1.3388  0.4214 -0.5115
  697MOL0     H96126   1.791   4.875   8.056 -0.5196  1.4441 -1.0581
  697MOL0     H96127   2.017   4.870   8.195 -1.4657 -0.0133  0.6705
  697MOL0     H96128   1.925   5.018   8.199 -2.5729 -0.4886 -1.2323
  697MOL0     H96129   2.141   4.977   7.997 -0.2627 -0.7392 -0.4035
  697MOL0     H96130   2.053   5.119   7.999  0.1970 -0.6733 -0.7553
  697MOL0     H96131   2.111   5.149   8.261 -1.4513 -2.5429 -0.4330
  697MOL0     H96132   2.233   5.196   8.135  0.0315  0.4597 -0.4537
  697MOL0     H96133   2.232   4.920   8.266  0.0642 -1.1989  0.6611
  697MOL0     H96134   2.342   4.987   8.155  0.0139 -0.8459  1.0237
  697MOL0     H96135   2.244   5.140   8.509  1.1087  1.3644  2.6406
  697MOL0     H96136   2.577   5.255   8.651 -1.3127  3.2468  1.7589
  697MOL0     H96137   2.425   5.189   8.704 -0.7104 -0.9922 -1.1784
  697MOL0     H96138   2.319   5.379   8.612  0.1869 -2.8761  1.1482
  697MOL0     H96139   2.417   5.449   8.730 -1.8126 -1.7923  0.5741
  697MOL0     H96140   2.467   5.466   8.432  3.7018  2.5151 -0.5985
  697MOL0     H96141   2.414   5.593   8.540  0.2320 -0.4249  0.5991
  697MOL0     H96142   2.682   5.456   8.578 -0.1093 -0.6379 -1.1300
  697MOL0     H96143   2.659   5.601   8.492 -2.3086 -0.0221 -0.4585
  697MOL0     H96144   2.643   5.831   8.819 -0.6895  0.6431  0.4268
  697MOL0     H96145   2.923   5.987   9.023  1.6555 -2.6981  0.4348
  697MOL0     H96146   2.753   5.951   9.032  0.5495 -2.3085  1.8392
  697MOL0     H96147   2.828   6.015   8.881  0.6310 -1.1525  0.4637
  697MOL0     H96148   3.354   5.850   8.851  2.9577  0.0224 -1.3146
  697MOL0     H96149   3.605   5.883   8.930 -1.1784  1.2499  0.0210
  697MOL0     H96150   3.660   5.719   9.295 -1.6248 -1.1946 -1.7913
  697MOL0     H96151   3.787   5.608   9.239 -3.2719 -1.9376 -1.9037
  697MOL0     H96152   3.784   5.920   9.274  0.2770  0.5826  0.2178
  697MOL0     H96153   3.841   5.809   9.391 -0.4855  0.3088 -0.3663
  697MOL0     H96154   4.036   5.875   9.283 -0.7387 -0.8337  0.6933
  697MOL0     H96155   3.950   5.891   9.122 -1.5907  1.0968  0.2270
  697MOL0     H96156   3.985   5.653   9.096 -1.0159 -0.2080  0.5029
  697MOL0     H96157   4.043   5.634   9.265  1.5449  0.0091  0.8466
  697MOL0     H96158   4.187   5.762   9.027 -0.3818 -0.2377  1.0225
  697MOL0     H96159   4.243   5.787   9.189  3.0728  0.2208 -0.1119
  697MOL0     H96160   4.333   5.598   9.021  1.3927  0.2564  0.9455
  697MOL0     H96161   4.176   5.516   9.053 -1.5950  3.3643 -3.7696
  697MOL0     H96162   4.271   5.581   9.306  0.3569  1.7862  0.3204
  697MOL0     H96163   4.433   5.587   9.229  1.4890 -2.1492 -0.1442
  697MOL0     H96164   4.289   5.320   9.238 -0.0548  1.0282  0.2255
  697MOL0     H96165   4.425   5.386   9.331  1.5332  1.6169  0.7026
  697MOL0     H96166   3.527   5.569   9.209 -0.7979  0.6561  1.1275
  697MOL0     H96167   3.294   5.571   9.167  2.1634 -1.4598  0.2034
  697MOL0     H96168   2.998   5.505   8.875 -1.0123 -0.7445  0.1228
  697MOL0     H96169   2.827   5.462   8.727  0.3355  0.9744 -1.3859
  697MOL0     H96170   1.551   4.516   8.012  0.9515  2.3727 -1.2795
  697MOL0     H96171   1.312   4.483   7.996  1.7385 -2.4685 -0.5852
  697MOL0     H96172   0.916   4.767   7.950 -1.7673 -0.5798  1.8961
  697MOL0     H96173   0.675   4.791   7.918 -0.7507  0.4268 -1.6801
  697MOL0     H96174   0.474   4.794   7.883 -5.1802  2.0709  1.1626
  697MOL0     H96175   0.349   4.720   7.792 -0.2988  1.4330  0.0544
  697MOL0     H96176   0.528   4.594   8.018  0.5972 -0.9286 -2.1661
  697MOL0     H96177   0.374   4.536   7.982 -1.5926  1.7728 -0.6529
  697MOL0     H96178   0.416   4.811   8.120  1.8137 -0.9354  1.0201
  697MOL0     H96179   0.255   4.756   8.064 -0.8528  0.6770  1.6754
  697MOL0     H96180   0.253   4.562   8.208 -0.2912 -1.7794  2.5416
  697MOL0     H96181   0.275   4.712   8.291 -0.7133  1.7872 -2.0228
  697MOL0     H96182   0.601   4.483   8.425  3.1932  0.4504 -2.1381
  697MOL0     H96183   0.670   4.431   7.690 -0.8136  1.2049 -0.0380
  697MOL0     H96184   0.841   4.297   7.666  0.1353 -2.3279  1.2172
  697MOL0     H96185   0.985   4.361   7.606 -1.2254 -1.7229 -0.8455
  697MOL0     H96186   0.974   4.322   7.784 -0.0606  3.3959  0.1801
  698MOL0     O96187   4.924   5.347   2.910  0.0413  0.0803  0.2574
  698MOL0     C96188   4.855   5.249   2.910 -0.4921  0.0408  0.4905
  698MOL0     O96189   4.836   5.160   3.009  0.5668  0.5950 -0.1523
  698MOL0     C96190   4.916   5.183   3.127 -0.4797 -0.5748 -0.3771
  698MOL0     C96191   4.860   5.199   3.248 -0.6123 -0.3329 -1.5658
  698MOL0     C96192   4.933   5.213   3.370 -0.7580 -0.0793 -0.1171
  698MOL0     C96193   5.077   5.226   3.365  0.1680 -0.8822  0.1062
  698MOL0     O96194   5.150   5.250   3.479  0.0193  0.1643 -0.0327
  698MOL0     C96195   5.117   5.362   3.562  0.6544 -0.3973 -0.2851
  698MOL0     C96196   5.229   5.389   3.665 -0.3932 -0.4395 -0.1869
  698MOL0     C96197   5.314   5.276   3.707  0.0116  0.2836 -0.3310
  698MOL0     C96198   5.405   5.304   3.824 -0.6466  0.0086 -0.4111
  698MOL0     C96199   5.458   5.172   3.876  0.3765  0.7913  0.8613
  698MOL0     C96200   5.542   5.185   4.007 -0.3203  0.7222  0.3995
  698MOL0     C96201   5.580   5.041   4.056  0.2470 -0.1550  0.8066
  698MOL0     C96202   5.648   5.038   4.186  0.2990 -0.5246 -0.6058
  698MOL0     N96203   5.774   5.116   4.189  0.3992  0.2483  0.4247
  698MOL0     C96204   5.802   5.230   4.258 -0.5104  0.4889 -0.4152
  698MOL0     C96205   5.921   5.281   4.206  0.5778 -0.0581  0.4788
  698MOL0     C96206   6.004   5.400   4.265 -0.0165 -0.0797 -1.1351
  698MOL0     C96207   6.065   5.487   4.152  0.8007  0.5553  0.1207
  698MOL0     C96208   5.990   5.615   4.131  0.0349 -0.1476  0.4971
  698MOL0     C96209   6.059   5.711   4.037 -0.6038 -0.4239  0.7335
  698MOL0     O96210   5.982   5.812   3.970 -0.2304  0.1689  0.0168
  698MOL0     C96211   5.876   5.769   3.885 -0.2701 -0.6620  0.0035
  698MOL0     C96212   5.808   5.875   3.831  0.6106  0.2642  0.1956
  698MOL0     C96213   5.701   5.858   3.737 -0.7222  0.0919 -0.2102
  698MOL0     C96214   5.645   5.987   3.680 -0.7246  0.4263  0.7191
  698MOL0     C96215   5.674   5.728   3.691  0.5558  0.1754  0.1887
  698MOL0     C96216   5.556   5.704   3.608 -0.2116  0.0272  0.5031
  698MOL0     O96217   5.582   5.639   3.495 -0.1320  0.2069  0.7014
  698MOL0     C96218   5.505   5.654   3.381  0.1178  0.2535 -0.5007
  698MOL0     C96219   5.443   5.772   3.338 -0.5349  0.9455 -0.4261
  698MOL0     C96220   5.348   5.765   3.238 -0.0853 -0.0955  0.0347
  698MOL0     C96221   5.317   5.649   3.169  0.3494  0.0825 -0.1131
  698MOL0     O96222   5.227   5.661   3.063 -0.0767 -0.6105  0.1627
  698MOL0     C96223   5.237   5.575   2.952 -0.3763  0.3871  0.0366
  698MOL0     C96224   5.128   5.604   2.843  0.3126  0.3493 -0.1117
  698MOL0     C96225   5.140   5.512   2.719 -0.8496 -0.0343 -0.1727
  698MOL0     C96226   5.039   5.550   2.612 -0.3272 -0.4222  0.6110
  698MOL0     C96227   5.045   5.452   2.491 -0.0701 -0.5727  1.1035
  698MOL0     C96228   4.906   5.444   2.429 -0.1408  0.2627 -0.2324
  698MOL0     C96229   4.900   5.359   2.305 -0.6754  0.6083 -0.3713
  698MOL0     C96230   4.967   5.418   2.179  0.9219 -0.2392 -0.2788
  698MOL0    Cl96231   4.890   5.564   2.106 -0.5658 -0.3859  0.0890
  698MOL0     C96232   5.405   5.539   3.187 -0.1047 -0.6188 -0.2576
  698MOL0     C96233   5.490   5.544   3.301  0.1317 -0.3069  0.6342
  698MOL0     O96234   5.449   5.737   3.648  0.5090 -0.0966 -0.3662
  698MOL0     C96235   5.756   5.624   3.734 -0.9924 -0.1308 -0.7696
  698MOL0     C96236   5.853   5.642   3.835  0.1323  0.3893 -0.5252
  698MOL0     N96237   5.956   5.189   4.103 -0.4184 -0.0190  0.3904
  698MOL0     N96238   5.880   5.086   4.112  0.5377  0.2437  0.1294
  698MOL0     C96239   5.138   5.200   3.239 -0.3553  0.1608 -0.2074
  698MOL0     C96240   5.061   5.172   3.120  0.5477 -0.2569 -0.7334
  698MOL0     C96241   4.785   5.221   2.788 -0.3633  0.3629 -0.8242
  698MOL0     C96242   4.656   5.277   2.782 -0.8606  0.6565  0.0977
  698MOL0     C96243   4.587   5.271   2.660  0.3751  0.1798  0.5630
  698MOL0     C96244   4.637   5.191   2.551  0.8605 -0.5272 -1.0721
  698MOL0     O96245   4.576   5.174   2.432 -0.0833  0.0729  0.1338
  698MOL0     C96246   4.488   5.275   2.384 -0.1159  0.4480  0.3177
  698MOL0     C96247   4.358   5.201   2.347  0.2486  0.3860 -0.7783
  698MOL0     C96248   4.296   5.116   2.459  0.4042 -0.1033 -0.2405
  698MOL0     C96249   4.153   5.071   2.425 -0.0581  0.2596 -0.9828
  698MOL0     C96250   4.084   5.008   2.540 -0.1061 -0.1212 -0.0006
  698MOL0     C96251   4.022   4.954   2.633 -0.5049  1.0821 -0.5853
  698MOL0     C96252   4.756   5.127   2.571 -0.1089  1.5663  0.0099
  698MOL0     C96253   4.837   5.137   2.684  0.6035 -0.6449  0.2341
  698MOL0     C96254   4.977   5.072   2.698 -0.3378 -0.2751  0.2581
  698MOL0     H96255   4.753   5.216   3.253 -0.1669  2.7512 -0.5041
  698MOL0     H96256   4.890   5.236   3.466  0.6756  3.6005 -0.2242
  698MOL0     H96257   5.029   5.341   3.623  0.4632 -1.8011 -1.0198
  698MOL0     H96258   5.093   5.444   3.494 -0.6365 -2.0042 -1.8450
  698MOL0     H96259   5.302   5.451   3.612  0.6462 -1.0187  0.5204
  698MOL0     H96260   5.196   5.449   3.750  0.5414 -0.9507  0.5496
  698MOL0     H96261   5.237   5.202   3.730  0.7892 -0.4030  0.1297
  698MOL0     H96262   5.372   5.226   3.629 -0.5922 -0.8166 -0.0920
  698MOL0     H96263   5.486   5.371   3.794 -2.5005  3.4979  1.6368
  698MOL0     H96264   5.346   5.354   3.901 -0.2320 -1.4089  0.8699
  698MOL0     H96265   5.532   5.136   3.805  0.3464  2.9853 -0.3668
  698MOL0     H96266   5.376   5.101   3.892  1.0609  0.1454  1.6467
  698MOL0     H96267   5.631   5.246   3.991 -1.0486  1.7157  0.0311
  698MOL0     H96268   5.486   5.242   4.082 -0.1317  2.1351 -0.5118
  698MOL0     H96269   5.648   5.002   3.979 -1.3024  0.3041 -0.8464
  698MOL0     H96270   5.493   4.976   4.065 -0.1434 -0.1303 -1.9177
  698MOL0     H96271   5.571   5.068   4.258  1.6571 -0.8167  1.0497
  698MOL0     H96272   5.663   4.932   4.209 -0.2270 -0.7622 -1.3395
  698MOL0     H96273   5.751   5.275   4.343 -0.1555  2.1771 -1.0578
  698MOL0     H96274   6.082   5.354   4.326  0.5480  0.6634 -1.2834
  698MOL0     H96275   5.942   5.456   4.335 -1.3248 -1.0182 -1.5155
  698MOL0     H96276   6.162   5.515   4.195  0.5237  1.0520  0.4433
  698MOL0     H96277   6.081   5.438   4.056 -2.2375  0.0601 -0.2415
  698MOL0     H96278   5.897   5.572   4.091  1.7003 -1.9500 -1.7323
  698MOL0     H96279   5.968   5.656   4.230 -2.3370 -0.7050  0.2607
  698MOL0     H96280   6.140   5.758   4.092  1.0097 -1.8101 -0.3287
  698MOL0     H96281   6.105   5.641   3.966 -0.8165 -2.4851  2.5388
  698MOL0     H96282   5.831   5.976   3.861  2.0459  0.6625 -2.0846
  698MOL0     H96283   5.718   6.043   3.622 -3.4479  1.9748 -1.4919
  698MOL0     H96284   5.612   6.047   3.765 -0.4801 -0.5472  1.5180
  698MOL0     H96285   5.555   5.973   3.619 -0.1166 -1.7516  0.2120
  698MOL0     H96286   5.446   5.867   3.390  2.5647  0.2953  0.7547
  698MOL0     H96287   5.286   5.850   3.211  1.1649  0.4316 -1.2523
  698MOL0     H96288   5.338   5.581   2.909 -0.8644 -3.1059 -2.0433
  698MOL0     H96289   5.236   5.469   2.979 -0.7926 -0.0413 -1.5228
  698MOL0     H96290   5.031   5.581   2.889  1.5032  0.3219  2.5280
  698MOL0     H96291   5.119   5.711   2.823 -1.9470  0.2711  0.1306
  698MOL0     H96292   5.136   5.405   2.737 -1.4446 -0.2358 -1.3477
  698MOL0     H96293   5.236   5.531   2.670  0.9102 -1.0204  2.6590
  698MOL0     H96294   5.050   5.656   2.588  2.0592  0.0980  3.3831
  698MOL0     H96295   4.935   5.562   2.644 -0.8774  4.0403 -2.0574
  698MOL0     H96296   5.125   5.476   2.421  0.2115 -1.2576  1.1876
  698MOL0     H96297   5.078   5.355   2.528  1.4759 -1.1783 -1.6325
  698MOL0     H96298   4.866   5.540   2.396  0.4466 -0.2342 -2.5530
  698MOL0     H96299   4.831   5.406   2.500  3.4665 -3.7963  1.9362
  698MOL0     H96300   4.796   5.348   2.275 -0.1431  0.6044 -2.3624
  698MOL0     H96301   4.927   5.256   2.329 -3.0961  0.1551  0.6593
  698MOL0     H96302   4.960   5.346   2.097 -4.0438  1.0375 -1.2799
  698MOL0     H96303   5.068   5.447   2.208  1.0795  1.0974 -2.0300
  698MOL0     H96304   5.377   5.448   3.135  0.1042 -0.3707 -0.8132
  698MOL0     H96305   5.536   5.447   3.318 -1.1738 -0.7287  2.0149
  698MOL0     H96306   5.740   5.524   3.695  0.9244 -0.8983  0.2661
  698MOL0     H96307   5.902   5.560   3.886  1.6941  3.1174  2.7969
  698MOL0     H96308   5.245   5.192   3.248 -0.4016 -0.7233 -0.3868
  698MOL0     H96309   5.098   5.156   3.019  0.3719  0.7519 -0.9672
  698MOL0     H96310   4.616   5.330   2.868 -0.4867 -2.6769  2.5344
  698MOL0     H96311   4.487   5.312   2.663 -0.8163 -2.2992 -1.5008
  698MOL0     H96312   4.468   5.362   2.448 -1.5135  2.1280 -2.2271
  698MOL0     H96313   4.531   5.321   2.294  0.2356 -0.1387  0.1823
  698MOL0     H96314   4.387   5.134   2.266  3.4113 -1.9890  2.0276
  698MOL0     H96315   4.280   5.270   2.313  0.5212  0.2097 -1.8041
  698MOL0     H96316   4.358   5.026   2.466 -0.7269 -1.0267 -1.6947
  698MOL0     H96317   4.292   5.171   2.554  3.5699  0.4391 -0.3169
  698MOL0     H96318   4.147   5.007   2.337 -2.6967  3.1321 -3.1133
  698MOL0     H96319   4.098   5.160   2.391  2.6167  3.0553  1.4135
  698MOL0     H96320   3.973   4.903   2.713  1.1330  1.1352  0.4987
  698MOL0     H96321   4.789   5.055   2.497 -3.0446 -1.0238  0.9808
  698MOL0     H96322   5.059   5.115   2.639 -0.3065 -2.1072 -1.1289
  698MOL0     H96323   5.015   5.069   2.801 -0.3023  0.8186  0.2883
  698MOL0     H96324   4.975   4.971   2.656  2.7119  0.0401 -0.9025
  699MOL0     O96325   8.608   5.427  10.535  0.2822  0.0915  0.1708
  699MOL0     C96326   8.595   5.424  10.654 -0.0986 -0.1167 -0.2048
  699MOL0     O96327   8.686   5.455  10.752 -1.1014 -0.6669 -0.2389
  699MOL0     C96328   8.817   5.490  10.719  0.3791  0.4709 -0.9658
  699MOL0     C96329   8.860   5.550  10.596 -0.2426 -0.3545  0.1065
  699MOL0     C96330   8.994   5.581  10.585  0.4894 -0.9042  0.1112
  699MOL0     C96331   9.090   5.563  10.687 -0.3315 -0.0311 -0.3845
  699MOL0     O96332   9.222   5.600  10.683  0.2080 -0.8276 -0.3322
  699MOL0     C96333   9.284   5.605  10.560  0.3470 -1.1598  0.5907
  699MOL0     C96334   9.437   5.596  10.571 -0.1532  0.3775  0.1040
  699MOL0     C96335   9.513   5.677  10.676  0.6300 -0.6232 -0.0665
  699MOL0     C96336   9.635   5.593  10.723 -0.3505  0.5920  0.0865
  699MOL0     C96337   9.711   5.669  10.835  0.1802  0.6146  0.6878
  699MOL0     C96338   9.783   5.797  10.780 -0.2856  1.0563 -1.0525
  699MOL0     C96339   9.856   5.861  10.893  0.1429 -0.5606 -0.0405
  699MOL0     C96340  10.008   5.828  10.910  0.3521  0.8437  0.0278
  699MOL0     N96341  10.026   5.687  10.953 -0.4094 -0.7881  0.6649
  699MOL0     C96342  10.041   5.656  11.082  0.6931  0.2780  0.2695
  699MOL0     C96343  10.061   5.527  11.080  0.2262 -0.5610 -1.0155
  699MOL0     C96344  10.089   5.449  11.211 -0.7882 -0.4620  1.0055
  699MOL0     C96345  10.033   5.299  11.215  0.4841  0.1509  0.0285
  699MOL0     C96346   9.890   5.322  11.201  0.8496  0.6635  0.3919
  699MOL0     C96347   9.813   5.192  11.229  0.5484 -0.8455  0.8936
  699MOL0     O96348   9.830   5.143  11.358 -0.0723  0.2413  0.0227
  699MOL0     C96349   9.774   5.204  11.473  0.2137 -0.6503  0.1767
  699MOL0     C96350   9.658   5.277  11.468  0.5438 -1.6503 -0.5199
  699MOL0     C96351   9.621   5.353  11.584  0.1336  0.4210  0.4069
  699MOL0     C96352   9.496   5.436  11.568 -0.1602  0.6630  0.6008
  699MOL0     C96353   9.696   5.352  11.703  0.7266  0.7111 -1.6810
  699MOL0     C96354   9.645   5.430  11.820  1.0634  0.5125 -0.4965
  699MOL0     O96355   9.661   5.380  11.946  0.9231 -0.5381 -0.1535
  699MOL0     C96356   9.596   5.435  12.060  0.2133  0.0668  0.0434
  699MOL0     C96357   9.662   5.514  12.160 -0.1047  0.8614 -0.6746
  699MOL0     C96358   9.590   5.556  12.270 -0.6656 -0.3903 -0.0143
  699MOL0     C96359   9.452   5.520  12.284 -0.4597  0.5458  0.6817
  699MOL0     O96360   9.374   5.556  12.391  0.1193  0.2281  0.1919
  699MOL0     C96361   9.428   5.649  12.486 -0.3915 -0.3506  0.3057
  699MOL0     C96362   9.331   5.689  12.592  0.8405 -0.1099 -0.0171
  699MOL0     C96363   9.389   5.787  12.694 -0.6074 -0.9822  0.0182
  699MOL0     C96364   9.287   5.838  12.799 -0.1071  0.9472 -0.3399
  699MOL0     C96365   9.162   5.916  12.754  0.3528 -0.3221 -1.0392
  699MOL0     C96366   9.089   5.962  12.886 -0.5537  0.7103 -0.1837
  699MOL0     C96367   8.947   6.008  12.872  0.2665 -0.6563  0.6956
  699MOL0     C96368   8.850   5.913  12.795 -1.2609  0.0178  0.3671
  699MOL0    Cl96369   8.866   5.960  12.622  0.2703  0.7882 -0.1486
  699MOL0     C96370   9.388   5.459  12.181  0.4089  0.6309  0.2487
  699MOL0     C96371   9.457   5.408  12.071  0.0742  0.0273  0.2127
  699MOL0     O96372   9.611   5.543  11.804  0.0329 -0.2397  1.0459
  699MOL0     C96373   9.815   5.266  11.697  0.4578 -0.1484 -0.4651
  699MOL0     C96374   9.855   5.201  11.581  0.4219  0.8317 -0.1340
  699MOL0     N96375  10.079   5.486  10.948 -0.4710  0.2118  0.5462
  699MOL0     N96376  10.070   5.593  10.868 -0.3459 -0.4353  0.0518
  699MOL0     C96377   9.038   5.509  10.809 -0.4964 -0.3217  0.1561
  699MOL0     C96378   8.908   5.476  10.821  0.3799 -1.2200  0.2352
  699MOL0     C96379   8.473   5.364  10.707  0.7249 -1.0396 -0.3556
  699MOL0     C96380   8.428   5.374  10.920 -0.1612  0.2370 -0.5674
  699MOL0     C96381   8.244   5.309  10.989 -0.3727 -0.0355  0.7073
  699MOL0     C96382   8.098   5.244  10.851  0.2921 -0.1682  0.1975
  699MOL0     O96383   7.967   5.228  10.899 -0.4041  0.0842  0.0556
  699MOL0     C96384   7.941   5.245  11.039 -1.0337  1.1410 -0.1890
  699MOL0     C96385   7.793   5.246  11.047  0.2145  0.4376  1.2891
  699MOL0     C96386   7.729   5.284  11.175  0.2982  0.7982 -0.4234
  699MOL0     C96387   7.680   5.436  11.178  0.5286 -0.0783  0.3114
  699MOL0     C96388   7.793   5.532  11.175  0.4022  0.3413 -0.1899
  699MOL0     C96389   7.869   5.627  11.188  0.4275  0.4042 -0.2908
  699MOL0     C96390   8.143   5.236  10.646  0.3779  0.2238 -0.0421
  699MOL0     C96391   8.328   5.299  10.575  0.8503  0.4092  0.2997
  699MOL0     C96392   8.346   5.290  10.425 -0.4077  0.6787 -0.3528
  699MOL0     H96393   8.793   5.602  10.528 -0.5082 -1.5333 -0.5730
  699MOL0     H96394   9.025   5.635  10.497 -0.2352  0.3317  0.5858
  699MOL0     H96395   9.249   5.689  10.500 -0.7496 -4.3472 -3.6988
  699MOL0     H96396   9.245   5.522  10.501  2.0062 -1.2963 -0.3784
  699MOL0     H96397   9.462   5.490  10.585  2.1959  0.2881 -3.3530
  699MOL0     H96398   9.481   5.617  10.473  1.7055 -0.2061  0.7705
  699MOL0     H96399   9.540   5.774  10.632 -0.6555 -0.2623 -0.1138
  699MOL0     H96400   9.440   5.695  10.756 -2.1472 -0.3387 -2.4842
  699MOL0     H96401   9.612   5.493  10.762  0.9000 -0.2030 -1.1455
  699MOL0     H96402   9.705   5.578  10.641  2.7325  3.0416  2.0273
  699MOL0     H96403   9.794   5.610  10.876 -0.9390 -2.3105 -0.9489
  699MOL0     H96404   9.643   5.702  10.913 -0.4320 -0.8324  0.7840
  699MOL0     H96405   9.841   5.765  10.693  1.0738 -1.4404  0.6541
  699MOL0     H96406   9.721   5.874  10.733  4.0636  4.1035 -2.3638
  699MOL0     H96407   9.817   5.848  10.995 -0.7016  1.8002  0.0034
  699MOL0     H96408   9.862   5.967  10.866  1.0584 -0.7365 -0.5549
  699MOL0     H96409  10.059   5.829  10.813 -1.1173 -0.5673 -0.8165
  699MOL0     H96410  10.055   5.898  10.980 -2.1364  4.3122 -1.4868
  699MOL0     H96411  10.028   5.730  11.161 -1.8264  3.9461 -3.1654
  699MOL0     H96412  10.049   5.501  11.299  0.1621 -1.2582  1.9352
  699MOL0     H96413  10.197   5.445  11.222 -0.5176  1.7944 -0.2023
  699MOL0     H96414  10.072   5.244  11.128 -2.6103  1.6087 -2.4908
  699MOL0     H96415  10.058   5.251  11.310 -0.2507 -2.0964 -0.8507
  699MOL0     H96416   9.864   5.405  11.266  2.0867 -0.0146  1.7951
  699MOL0     H96417   9.869   5.349  11.097  0.4365  3.0581  1.0321
  699MOL0     H96418   9.708   5.206  11.201  0.6496 -2.2176 -0.2868
  699MOL0     H96419   9.849   5.112  11.165  0.0700 -0.4762  0.1421
  699MOL0     H96420   9.594   5.276  11.381  2.7304 -0.5942 -2.2587
  699MOL0     H96421   9.513   5.530  11.516  0.7847  0.2333  0.1007
  699MOL0     H96422   9.449   5.453  11.665  1.0180  1.7744  0.9998
  699MOL0     H96423   9.415   5.380  11.520 -1.0371 -0.4925  3.2235
  699MOL0     H96424   9.764   5.544  12.142 -1.3086  4.3070 -2.6565
  699MOL0     H96425   9.648   5.606  12.346 -0.7860 -0.0598 -0.1371
  699MOL0     H96426   9.513   5.593  12.528  0.8498  0.8243 -0.5755
  699MOL0     H96427   9.469   5.738  12.440  2.4020 -1.9146 -0.4582
  699MOL0     H96428   9.246   5.735  12.541  0.9498 -1.3386 -1.3822
  699MOL0     H96429   9.295   5.596  12.639 -0.0314  0.7081  0.9821
  699MOL0     H96430   9.431   5.871  12.639  2.0595 -1.3335  1.3856
  699MOL0     H96431   9.470   5.742  12.751 -0.4677 -0.2912  0.3708
  699MOL0     H96432   9.338   5.913  12.860 -0.2856 -0.5253  1.7677
  699MOL0     H96433   9.255   5.758  12.868  2.9072 -0.4257 -0.3728
  699MOL0     H96434   9.198   6.000  12.694 -0.3612  1.1516  0.5251
  699MOL0     H96435   9.094   5.859  12.689  0.3114  1.2021 -2.3943
  699MOL0     H96436   9.143   6.038  12.944 -3.3369  0.8571  2.4099
  699MOL0     H96437   9.086   5.875  12.952  0.4444  1.3188  0.7115
  699MOL0     H96438   8.945   6.109  12.828  0.4146 -0.8542  0.2218
  699MOL0     H96439   8.913   6.023  12.975 -0.5915  0.5115  0.2729
  699MOL0     H96440   8.747   5.934  12.823 -2.4689 -0.9675 -2.8804
  699MOL0     H96441   8.865   5.805  12.792  0.1449  0.2081 -2.0363
  699MOL0     H96442   9.282   5.437  12.183  0.3675  0.8149  1.8595
  699MOL0     H96443   9.411   5.350  11.992  3.2524 -0.7248 -1.2501
  699MOL0     H96444   9.877   5.271  11.786  1.5604 -3.5422 -0.9025
  699MOL0     H96445   9.944   5.140  11.569 -0.0299  0.4080 -1.4994
  699MOL0     H96446   9.097   5.496  10.899 -2.0692 -0.0511  1.2704
  699MOL0     H96447   8.870   5.451  10.919  2.7994 -1.2684  1.2175
  699MOL0     H96448   8.503   5.412  10.989  0.3286 -0.6662 -0.5927
  699MOL0     H96449   8.240   5.332  11.095  0.1611 -0.5275  0.8339
  699MOL0     H96450   7.966   5.158  11.100 -1.0873  0.9503 -0.4343
  699MOL0     H96451   7.977   5.338  11.083 -1.1622  1.3053 -0.4257
  699MOL0     H96452   7.753   5.147  11.024  0.6036 -0.1462  2.9549
  699MOL0     H96453   7.763   5.319  10.971 -1.9839 -0.9213  0.7854
  699MOL0     H96454   7.638   5.224  11.180  0.1955  0.6481 -2.7175
  699MOL0     H96455   7.785   5.265  11.267 -3.2170  0.6239  1.8320
  699MOL0     H96456   7.633   5.452  11.275 -3.4270  0.0542 -1.4339
  699MOL0     H96457   7.605   5.448  11.099  0.7110  1.7156  0.3692
  699MOL0     H96458   7.937   5.710  11.186  1.0302 -0.0930 -1.2194
  699MOL0     H96459   8.073   5.212  10.567 -1.2454  0.4122  1.2796
  699MOL0     H96460   8.416   5.209  10.400 -0.9105  0.4774 -1.1427
  699MOL0     H96461   8.252   5.288  10.369 -0.0004  2.2233 -1.1559
  699MOL0     H96462   8.388   5.388  10.399 -0.2068  0.2369 -1.8045
  700MOL0     O96463   6.529   8.096   9.593  1.0277  0.3688  0.6400
  700MOL0     C96464   6.516   8.072   9.477 -0.2138 -0.4661  0.9314
  700MOL0     O96465   6.609   8.096   9.379  0.2522 -0.0373 -0.4054
  700MOL0     C96466   6.721   8.183   9.392  0.6956 -0.2069 -0.1213
  700MOL0     C96467   6.727   8.288   9.302 -0.3148 -0.1559  0.2432
  700MOL0     C96468   6.842   8.362   9.302 -0.3759 -0.7400 -0.6221
  700MOL0     C96469   6.948   8.333   9.382 -0.6468  0.4688 -1.1295
  700MOL0     O96470   7.058   8.414   9.352  0.0382  0.3045 -0.3671
  700MOL0     C96471   7.176   8.417   9.430  0.2604  0.3429 -0.1478
  700MOL0     C96472   7.294   8.482   9.374 -0.0383 -0.3866  0.7360
  700MOL0     C96473   7.349   8.432   9.244 -0.3818 -0.2247  0.7956
  700MOL0     C96474   7.374   8.279   9.237 -0.1438  0.1888  0.1686
  700MOL0     C96475   7.454   8.253   9.110  0.6832 -0.0612  0.1421
  700MOL0     C96476   7.456   8.105   9.073 -0.0186 -0.1994  1.0026
  700MOL0     C96477   7.500   8.001   9.174 -0.3265  0.9684 -0.9267
  700MOL0     C96478   7.639   8.019   9.229  0.0557 -0.4743  0.3406
  700MOL0     N96479   7.730   8.054   9.123  0.5478 -0.0367 -1.0093
  700MOL0     C96480   7.814   8.163   9.132  0.8433 -0.2095 -0.2333
  700MOL0     C96481   7.883   8.147   9.018  0.1236 -0.3129  0.5552
  700MOL0     C96482   7.998   8.232   8.965  0.2222  0.4652 -0.1901
  700MOL0     C96483   7.953   8.353   8.883 -0.4962 -0.1455  0.6424
  700MOL0     C96484   7.857   8.437   8.951  0.3374  0.7627  0.2163
  700MOL0     C96485   7.829   8.556   8.855 -0.3537  0.5726 -0.4640
  700MOL0     O96486   7.716   8.624   8.909 -0.4105 -0.1887 -0.4274
  700MOL0     C96487   7.717   8.692   9.023 -0.6896 -0.5591 -0.8829
  700MOL0     C96488   7.826   8.730   9.103  0.3216 -0.6749  0.0374
  700MOL0     C96489   7.816   8.801   9.221 -0.2718 -0.4914 -0.2191
  700MOL0     C96490   7.948   8.832   9.285 -0.1694 -0.1124  0.2546
  700MOL0     C96491   7.690   8.857   9.259 -0.4211  0.0500 -0.3726
  700MOL0     C96492   7.666   8.953   9.362 -0.1622 -0.0113  0.6549
  700MOL0     O96493   7.673   9.086   9.334  0.1482  0.8630 -0.1508
  700MOL0     C96494   7.668   9.177   9.437  0.1464 -0.6288 -0.2071
  700MOL0     C96495   7.775   9.261   9.449 -0.2103 -0.3333 -0.1282
  700MOL0     C96496   7.776   9.348   9.552  0.0452 -0.5714 -0.5074
  700MOL0     C96497   7.666   9.358   9.649  0.7768  0.7085 -0.3017
  700MOL0     O96498   7.648   9.448   9.757 -0.4642 -0.3104  0.9117
  700MOL0     C96499   7.750   9.530   9.792 -0.4599 -0.3624 -0.2816
  700MOL0     C96500   7.705   9.611   9.909  1.2564 -0.3717 -0.5643
  700MOL0     C96501   7.801   9.724   9.939 -0.4657  0.0249  0.5567
  700MOL0     C96502   7.887   9.715  10.068 -0.4849 -0.6906  0.1357
  700MOL0     C96503   8.002   9.821  10.091  0.2680 -0.1644 -0.3227
  700MOL0     C96504   8.089   9.866   9.968 -0.3391 -0.0285 -0.0114
  700MOL0     C96505   8.167   9.749   9.914 -0.2856 -0.2319 -0.1065
  700MOL0     C96506   8.308   9.746   9.966 -0.4904  0.5712 -0.0819
  700MOL0    Cl96507   8.315   9.729  10.142 -0.4030  0.5718  0.4426
  700MOL0     C96508   7.560   9.271   9.634  0.4547 -0.2662 -0.0773
  700MOL0     C96509   7.561   9.174   9.535 -0.0747 -0.1385 -0.3685
  700MOL0     O96510   7.648   8.901   9.472  0.0121  0.4019 -0.4642
  700MOL0     C96511   7.580   8.820   9.175 -0.2394 -0.0987 -0.1911
  700MOL0     C96512   7.593   8.735   9.063 -0.2561  0.2206  0.0240
  700MOL0     N96513   7.854   8.028   8.957 -0.6255  0.2434  0.0725
  700MOL0     N96514   7.764   7.962   9.024 -0.7260  0.0588 -0.0600
  700MOL0     C96515   6.939   8.232   9.485  0.0289  0.0817  0.8948
  700MOL0     C96516   6.820   8.166   9.488 -0.4242 -0.4281 -0.5999
  700MOL0     C96517   6.405   7.986   9.432 -0.1020  0.5365 -0.6845
  700MOL0     C96518   6.368   8.005   9.297 -0.8075  0.5678 -0.0452
  700MOL0     C96519   6.262   7.924   9.240  0.0956 -0.9869  0.2071
  700MOL0     C96520   6.184   7.833   9.324 -0.2710 -0.7925 -1.1056
  700MOL0     O96521   6.100   7.758   9.253 -0.0672 -0.6333 -0.8915
  700MOL0     C96522   6.021   7.655   9.309  0.0928  0.0409 -0.3026
  700MOL0     C96523   5.871   7.696   9.314 -0.1580 -0.1225 -0.1474
  700MOL0     C96524   5.841   7.784   9.431  0.8981 -0.6350 -0.3629
  700MOL0     C96525   5.695   7.839   9.413  0.6180 -0.9064 -0.2714
  700MOL0     C96526   5.647   7.886   9.547 -0.5774  0.4997  0.5440
  700MOL0     C96527   5.619   7.922   9.664 -0.9527  0.1470  0.1009
  700MOL0     C96528   6.216   7.830   9.459  0.0821  0.1695 -0.2252
  700MOL0     C96529   6.324   7.894   9.516  0.0832  0.0603  0.5608
  700MOL0     C96530   6.335   7.875   9.663  0.0873 -0.6040  0.3016
  700MOL0     H96531   6.630   8.312   9.259  0.0698 -0.5317 -0.8952
  700MOL0     H96532   6.854   8.453   9.245  2.7367 -0.6977 -0.0458
  700MOL0     H96533   7.206   8.316   9.460 -1.4518  0.4178  2.0851
  700MOL0     H96534   7.147   8.476   9.518  1.4809  2.0847 -0.8489
  700MOL0     H96535   7.256   8.585   9.368  0.4012 -0.1229  2.0434
  700MOL0     H96536   7.377   8.467   9.444  1.5905 -0.1038 -1.0579
  700MOL0     H96537   7.289   8.452   9.155  3.1520  2.2271 -1.2623
  700MOL0     H96538   7.446   8.477   9.224 -1.3585  2.0897  0.9874
  700MOL0     H96539   7.431   8.235   9.320  0.2121 -2.3208 -1.2909
  700MOL0     H96540   7.279   8.224   9.237  1.0038 -1.9129 -1.0707
  700MOL0     H96541   7.559   8.285   9.104  0.7193 -0.1412  0.3366
  700MOL0     H96542   7.408   8.310   9.030  1.2144 -0.3506 -0.3797
  700MOL0     H96543   7.354   8.071   9.054  1.1845 -3.8598  0.3791
  700MOL0     H96544   7.521   8.104   8.986 -0.6471  1.2448  0.4828
  700MOL0     H96545   7.507   7.905   9.120  3.4078  1.5052 -1.7224
  700MOL0     H96546   7.435   7.990   9.261 -1.5331 -1.6709 -2.0564
  700MOL0     H96547   7.624   8.095   9.306 -0.9328 -0.1530 -0.1513
  700MOL0     H96548   7.678   7.929   9.278 -1.3374 -0.1188  2.2173
  700MOL0     H96549   7.812   8.236   9.212 -0.1775  0.0289 -0.4586
  700MOL0     H96550   8.068   8.170   8.907 -0.6647  1.1453 -2.0383
  700MOL0     H96551   8.067   8.265   9.044 -3.2012 -1.4945  4.0070
  700MOL0     H96552   8.041   8.410   8.851 -1.4094 -1.1417 -4.5895
  700MOL0     H96553   7.928   8.310   8.785 -0.0025  0.2296  0.3465
  700MOL0     H96554   7.766   8.379   8.964  0.6233 -0.4954 -2.7114
  700MOL0     H96555   7.903   8.480   9.040 -0.3304  1.7184  0.1203
  700MOL0     H96556   7.911   8.626   8.834 -1.0597  0.6463 -3.2740
  700MOL0     H96557   7.796   8.511   8.761  2.2232  0.7244 -1.5136
  700MOL0     H96558   7.924   8.705   9.063 -0.1368  0.1103 -1.6969
  700MOL0     H96559   7.927   8.903   9.365 -1.6093 -2.4126  2.0391
  700MOL0     H96560   8.016   8.873   9.209 -0.2204 -2.9070 -1.4454
  700MOL0     H96561   7.992   8.749   9.340  3.5142  2.2103  1.1967
  700MOL0     H96562   7.859   9.269   9.380  3.1044  4.0833  3.7059
  700MOL0     H96563   7.856   9.417   9.574 -1.5496  1.5615 -1.0561
  700MOL0     H96564   7.834   9.466   9.819 -1.8986 -1.8469  0.8615
  700MOL0     H96565   7.771   9.601   9.711  0.3194 -0.1869  0.0712
  700MOL0     H96566   7.611   9.664   9.895  1.9653  1.5007  1.1814
  700MOL0     H96567   7.687   9.552   9.998  0.8251  2.2445  1.1989
  700MOL0     H96568   7.739   9.814   9.944  1.9881  2.0265 -1.5651
  700MOL0     H96569   7.876   9.728   9.859  0.6133 -0.3217  1.5206
  700MOL0     H96570   7.936   9.617  10.073  0.3324 -0.2355  1.7392
  700MOL0     H96571   7.820   9.717  10.155  0.6573  1.8105  1.0408
  700MOL0     H96572   7.959   9.915  10.128  1.8372  0.3535  0.2764
  700MOL0     H96573   8.070   9.781  10.167 -0.9133 -1.3753  0.1360
  700MOL0     H96574   8.157   9.942  10.007 -1.6324  0.4309  1.4436
  700MOL0     H96575   8.032   9.916   9.889 -0.6264  0.9090  0.7676
  700MOL0     H96576   8.174   9.761   9.805  0.9728  0.6792  0.0596
  700MOL0     H96577   8.125   9.649   9.928  1.0175 -0.5655  1.8149
  700MOL0     H96578   8.356   9.838   9.929 -1.9523  2.4493  2.3876
  700MOL0     H96579   8.359   9.662   9.919  1.0011  1.3536  0.0540
  700MOL0     H96580   7.485   9.271   9.712 -1.2373 -0.0451 -1.6637
  700MOL0     H96581   7.477   9.105   9.528  0.5561 -0.9734  0.1806
  700MOL0     H96582   7.478   8.847   9.199 -0.0225 -0.4181  1.1811
  700MOL0     H96583   7.502   8.705   9.012  2.6335 -4.3573 -3.2068
  700MOL0     H96584   7.012   8.207   9.562 -0.1140  1.7734  1.6336
  700MOL0     H96585   6.807   8.101   9.574 -3.8177  1.9097  0.8356
  700MOL0     H96586   6.421   8.060   9.221 -1.5753  0.3136 -0.7787
  700MOL0     H96587   6.255   7.933   9.132  1.5609  0.0049  0.1626
  700MOL0     H96588   6.035   7.569   9.243  2.0639 -1.1507  1.5753
  700MOL0     H96589   6.050   7.621   9.408  0.7073  3.2795  0.7742
  700MOL0     H96590   5.816   7.602   9.321 -1.0414  0.1901 -2.0300
  700MOL0     H96591   5.851   7.749   9.220  1.4435 -1.8728 -1.5476
  700MOL0     H96592   5.832   7.733   9.527 -2.7820 -0.1654 -0.3076
  700MOL0     H96593   5.911   7.868   9.437  2.6026 -2.1200  3.2270
  700MOL0     H96594   5.635   7.767   9.357  2.0354 -2.1190 -0.3034
  700MOL0     H96595   5.705   7.931   9.354  4.8397 -0.4062  0.8589
  700MOL0     H96596   5.589   7.964   9.758 -0.8904  1.9373 -0.6326
  700MOL0     H96597   6.152   7.776   9.528  2.5059 -1.9078  0.5243
  700MOL0     H96598   6.436   7.886   9.704  0.5091 -1.0024 -0.6165
  700MOL0     H96599   6.257   7.941   9.702 -1.5779 -1.7557 -0.9359
  700MOL0     H96600   6.308   7.773   9.692 -3.9833  0.5623  1.2887
  701MOL0     O96601   4.739   0.334  10.163  0.0354  0.3876  0.4304
  701MOL0     C96602   4.645   0.270  10.211  0.0134  0.7255 -0.8512
  701MOL0     O96603   4.592   0.295  10.335  0.6919 -0.5785  0.3593
  701MOL0     C96604   4.625   0.415  10.401 -0.0281 -1.1657 -0.3706
  701MOL0     C96605   4.593   0.543  10.340  0.2279  0.3248 -0.8150
  701MOL0     C96606   4.649   0.665  10.383  0.2741  0.2855 -0.4482
  701MOL0     C96607   4.733   0.657  10.490 -0.9536 -0.2545  0.8863
  701MOL0     O96608   4.781   0.780  10.522 -0.3425  0.2106 -0.3973
  701MOL0     C96609   4.737   0.804  10.659  0.2936 -0.1131  0.1722
  701MOL0     C96610   4.775   0.950  10.690  0.6067  0.2327  0.1888
  701MOL0     C96611   4.738   0.988  10.837 -0.3256 -0.4026 -0.7453
  701MOL0     C96612   4.735   1.143  10.843  0.7268 -0.6455  0.4022
  701MOL0     C96613   4.596   1.210  10.820 -0.0986 -0.6327 -0.1387
  701MOL0     C96614   4.498   1.167  10.935 -0.2284 -0.5280  0.1459
  701MOL0     C96615   4.546   1.218  11.076  0.2789  0.4351 -0.3088
  701MOL0     C96616   4.564   1.366  11.092 -0.5660 -0.5235  0.0436
  701MOL0     N96617   4.541   1.426  11.230 -0.8168 -0.0111 -0.5958
  701MOL0     C96618   4.435   1.399  11.306  0.1137  0.6713 -1.1768
  701MOL0     C96619   4.452   1.482  11.413 -0.1289  0.7724  0.2261
  701MOL0     C96620   4.360   1.489  11.526  0.5672 -0.8536  0.4402
  701MOL0     C96621   4.284   1.624  11.541  0.8934 -0.1353  0.2725
  701MOL0     C96622   4.358   1.746  11.585 -0.1176 -0.5879  0.2386
  701MOL0     C96623   4.264   1.868  11.597  0.0422 -0.6102 -0.1219
  701MOL0     O96624   4.329   1.973  11.671  0.6376 -0.3072 -0.0170
  701MOL0     C96625   4.434   2.021  11.609 -0.4543 -0.1497 -0.0218
  701MOL0     C96626   4.559   1.986  11.654 -0.4798 -0.7366  0.7935
  701MOL0     C96627   4.676   2.034  11.590 -0.1257 -0.3450 -0.0361
  701MOL0     C96628   4.808   1.959  11.630  0.3406  0.4473  0.4491
  701MOL0     C96629   4.661   2.148  11.498 -0.2088  0.3652 -0.7386
  701MOL0     C96630   4.782   2.212  11.429 -0.7704  0.1255 -0.9538
  701MOL0     O96631   4.767   2.330  11.373 -0.2255  0.1122 -0.0727
  701MOL0     C96632   4.870   2.409  11.324  0.3958  0.3359 -0.0630
  701MOL0     C96633   4.837   2.548  11.314  0.2927 -0.4224  0.4033
  701MOL0     C96634   4.939   2.646  11.283 -0.5210  0.1727 -0.4331
  701MOL0     C96635   5.064   2.600  11.256  0.0714  0.7237 -1.1463
  701MOL0     O96636   5.155   2.697  11.236 -0.5761  0.2953 -0.7432
  701MOL0     C96637   5.133   2.795  11.125 -0.1845  1.3437  0.6032
  701MOL0     C96638   5.240   2.891  11.102  0.5756  0.3321  0.0088
  701MOL0     C96639   5.376   2.825  11.050  0.6148  0.0860 -0.1673
  701MOL0     C96640   5.467   2.921  10.979 -0.2718 -0.2261  0.0141
  701MOL0     C96641   5.603   2.854  10.945  0.3760  0.0265 -0.2216
  701MOL0     C96642   5.702   2.930  10.859 -0.0612  0.4213  0.9169
  701MOL0     C96643   5.823   2.836  10.832 -0.6068 -0.2856  0.1182
  701MOL0     C96644   5.918   2.899  10.724  0.0736 -0.0229 -0.6004
  701MOL0    Cl96645   5.995   3.052  10.766 -0.1540  0.2974  0.2757
  701MOL0     C96646   5.098   2.465  11.267  0.8611 -0.2515  0.0889
  701MOL0     C96647   4.998   2.373  11.302 -0.0070  0.1471  0.5847
  701MOL0     O96648   4.887   2.152  11.440 -0.5337 -0.0489  0.5091
  701MOL0     C96649   4.532   2.195  11.464 -0.0784  0.8872  0.3060
  701MOL0     C96650   4.419   2.123  11.511  0.7713 -0.3072  0.8099
  701MOL0     N96651   4.568   1.553  11.409 -0.1385  0.2864  0.5528
  701MOL0     N96652   4.619   1.524  11.292 -0.1178 -0.1437 -0.3999
  701MOL0     C96653   4.768   0.540  10.553  0.1971  0.4100 -0.0421
  701MOL0     C96654   4.701   0.428  10.527 -0.7770  1.4068  0.5869
  701MOL0     C96655   4.603   0.144  10.143 -0.1826  0.7366  0.6045
  701MOL0     C96656   4.709   0.061  10.098  0.0757  0.4832 -0.2362
  701MOL0     C96657   4.684  -0.065  10.048  0.5513 -0.6290  0.7721
  701MOL0     C96658   4.557  -0.116  10.043 -0.6197 -0.5652  0.1420
  701MOL0     O96659   4.547  -0.245  10.002 -0.2536  0.6868 -0.1320
  701MOL0     C96660   4.598  -0.358  10.088 -0.0243 -0.9931  1.1824
  701MOL0     C96661   4.650  -0.466   9.994 -0.0330  0.1232  0.6329
  701MOL0     C96662   4.555  -0.500   9.870  0.0182  0.7174  0.0418
  701MOL0     C96663   4.580  -0.644   9.827  1.3113  0.0050 -1.1110
  701MOL0     C96664   4.477  -0.749   9.868 -0.3018  0.3299 -0.8800
  701MOL0     C96665   4.386  -0.824   9.884  0.0522 -0.6187 -1.0142
  701MOL0     C96666   4.454  -0.035  10.086  0.3807  0.4034 -0.2732
  701MOL0     C96667   4.469   0.093  10.136  0.0339 -0.4269 -0.5633
  701MOL0     C96668   4.347   0.182  10.198  0.3101  0.4932  0.0009
  701MOL0     H96669   4.537   0.534  10.248  1.5515 -0.0553 -1.6125
  701MOL0     H96670   4.641   0.766  10.344  2.6492 -0.2227 -2.4421
  701MOL0     H96671   4.775   0.748  10.745 -0.4968  2.1766  2.1259
  701MOL0     H96672   4.628   0.797  10.658  0.2155  0.8805 -0.5336
  701MOL0     H96673   4.884   0.960  10.687  0.9729 -1.9340  2.7171
  701MOL0     H96674   4.717   1.017  10.626 -0.3637  0.8319  1.6487
  701MOL0     H96675   4.647   0.940  10.875  0.2279 -0.1016  1.0219
  701MOL0     H96676   4.824   0.960  10.898  0.5289  2.2755 -0.5993
  701MOL0     H96677   4.769   1.188  10.936  0.5259 -0.2618  0.2913
  701MOL0     H96678   4.802   1.182  10.766 -0.9217  2.1330  0.2339
  701MOL0     H96679   4.557   1.180  10.722  2.6334 -1.9493 -0.9038
  701MOL0     H96680   4.603   1.320  10.820  0.4300 -0.6282  1.6106
  701MOL0     H96681   4.397   1.209  10.929  0.3909  0.8282 -1.4791
  701MOL0     H96682   4.486   1.058  10.938 -1.0072 -0.4574 -0.0887
  701MOL0     H96683   4.637   1.164  11.103 -0.9663 -2.5981 -1.7103
  701MOL0     H96684   4.478   1.191  11.156 -1.4678  0.9383 -1.5634
  701MOL0     H96685   4.658   1.397  11.046 -0.6797 -0.7594 -0.3567
  701MOL0     H96686   4.496   1.420  11.026  0.3449  0.6189  0.0069
  701MOL0     H96687   4.362   1.320  11.297 -0.5959  0.8035  2.0026
  701MOL0     H96688   4.425   1.480  11.613  1.0938 -1.6209 -0.0211
  701MOL0     H96689   4.290   1.405  11.520  2.5273 -2.4667 -1.4964
  701MOL0     H96690   4.239   1.650  11.444  0.4595 -0.4143  0.3962
  701MOL0     H96691   4.202   1.609  11.613  0.5495  1.4126  0.2506
  701MOL0     H96692   4.392   1.709  11.682 -3.9219  0.3760  2.1412
  701MOL0     H96693   4.440   1.767  11.516 -0.9011  2.7788  0.1371
  701MOL0     H96694   4.237   1.912  11.500  0.0192  4.6641  1.9753
  701MOL0     H96695   4.172   1.831  11.642 -0.1749 -2.6543 -2.0400
  701MOL0     H96696   4.565   1.915  11.736 -3.7305 -2.8685 -0.5747
  701MOL0     H96697   4.869   2.019  11.698 -1.1307  0.0713  2.1780
  701MOL0     H96698   4.859   1.909  11.547 -0.1182  0.4272  0.1742
  701MOL0     H96699   4.777   1.872  11.688  1.8427 -1.8288 -1.9191
  701MOL0     H96700   4.747   2.585  11.362  0.7178  1.8019 -0.3849
  701MOL0     H96701   4.906   2.749  11.275  1.0307  1.0278  2.6763
  701MOL0     H96702   5.113   2.740  11.032 -0.8274 -1.0538  2.0768
  701MOL0     H96703   5.040   2.845  11.155 -0.7379 -1.8647  5.3920
  701MOL0     H96704   5.191   2.939  11.016  0.8962 -1.9148 -1.5198
  701MOL0     H96705   5.259   2.958  11.186  0.5205 -0.8442  0.9862
  701MOL0     H96706   5.345   2.739  10.990  0.7533  0.0004 -0.1140
  701MOL0     H96707   5.430   2.788  11.138 -0.4739 -1.3301 -0.0561
  701MOL0     H96708   5.480   2.995  11.058  1.4473  0.3643 -0.7625
  701MOL0     H96709   5.421   2.953  10.885  0.1974  1.8257  0.4503
  701MOL0     H96710   5.647   2.823  11.040  1.8661 -3.0067 -1.7594
  701MOL0     H96711   5.584   2.765  10.885 -1.3693  0.6667 -0.6976
  701MOL0     H96712   5.743   3.023  10.900  1.5282  0.7991 -1.3026
  701MOL0     H96713   5.653   2.950  10.763 -2.6888 -3.9838  1.0451
  701MOL0     H96714   5.783   2.744  10.788 -0.7142 -1.3410  2.2947
  701MOL0     H96715   5.874   2.819  10.927  1.5182 -0.2590 -0.9555
  701MOL0     H96716   5.859   2.923  10.635  1.4271 -2.1533 -2.1737
  701MOL0     H96717   6.008   2.839  10.705  0.6193 -0.0395  1.7155
  701MOL0     H96718   5.197   2.425  11.247  0.6039 -0.2507 -1.3275
  701MOL0     H96719   5.032   2.269  11.305 -0.4425 -0.1963 -2.7279
  701MOL0     H96720   4.522   2.275  11.391 -1.1681 -0.5198 -1.1615
  701MOL0     H96721   4.320   2.146  11.472  0.9536 -0.5217  0.2078
  701MOL0     H96722   4.855   0.547  10.617  0.6877 -2.0018 -0.3496
  701MOL0     H96723   4.707   0.331  10.576  2.1366 -1.5128 -4.6939
  701MOL0     H96724   4.812   0.096  10.098  2.4563 -5.3432 -0.6473
  701MOL0     H96725   4.770  -0.120  10.013 -0.6070 -0.7696 -2.0837
  701MOL0     H96726   4.686  -0.322  10.142  0.6681 -2.1837  0.8906
  701MOL0     H96727   4.518  -0.392  10.154 -0.2547 -1.9960  0.4091
  701MOL0     H96728   4.642  -0.556  10.055  0.6993 -0.6777 -0.4363
  701MOL0     H96729   4.751  -0.446   9.958  0.1459 -1.4056  0.2179
  701MOL0     H96730   4.447  -0.500   9.888  0.0872 -1.5944  0.7459
  701MOL0     H96731   4.568  -0.433   9.784 -1.6637 -1.3563 -1.9534
  701MOL0     H96732   4.680  -0.687   9.834  0.7471 -1.4827 -1.7629
  701MOL0     H96733   4.567  -0.642   9.719  0.8448  2.7611 -1.0963
  701MOL0     H96734   4.301  -0.886   9.906  1.4293 -1.9565  0.9302
  701MOL0     H96735   4.356  -0.080  10.081 -0.3813  1.4641  2.8755
  701MOL0     H96736   4.328   0.147  10.300  2.6216  0.6719  0.5445
  701MOL0     H96737   4.371   0.288  10.188 -1.7785  1.0279  0.0704
  701MOL0     H96738   4.259   0.163  10.135  1.6312 -1.7056 -1.3237
  702MOL0     O96739   7.029   6.728  10.124 -0.1171  0.2482 -0.6575
  702MOL0     C96740   6.921   6.698  10.191  0.1110 -0.6003  0.3109
  702MOL0     O96741   6.833   6.602  10.156 -0.1781 -0.2688  0.0383
  702MOL0     C96742   6.852   6.527  10.048 -0.0048  0.0546  0.6062
  702MOL0     C96743   6.961   6.445  10.025 -0.4164 -0.0841 -0.3694
  702MOL0     C96744   6.968   6.358   9.909  0.2622  0.1631  0.0179
  702MOL0     C96745   6.858   6.356   9.820 -0.2482 -0.4003  0.1519
  702MOL0     O96746   6.857   6.277   9.707  0.2027 -0.0108 -0.7337
  702MOL0     C96747   6.859   6.355   9.588 -0.2665 -0.8421 -0.6574
  702MOL0     C96748   6.874   6.272   9.465 -0.1968  0.1607 -0.3140
  702MOL0     C96749   6.858   6.363   9.345 -0.7984  0.0034 -0.7477
  702MOL0     C96750   6.985   6.436   9.300  0.2867 -0.0611  0.0755
  702MOL0     C96751   6.943   6.544   9.197 -0.2560  0.2399 -0.2314
  702MOL0     C96752   7.022   6.674   9.220  0.4821 -0.2989  0.5228
  702MOL0     C96753   7.002   6.759   9.098  0.6601 -0.3835 -0.9158
  702MOL0     C96754   7.105   6.739   8.984  1.0198  0.4773  0.1448
  702MOL0     N96755   7.109   6.604   8.916  0.1693 -0.3686 -0.1944
  702MOL0     C96756   7.193   6.498   8.946 -0.0400  1.4838 -0.3146
  702MOL0     C96757   7.175   6.409   8.849 -0.7094  0.2412 -0.0321
  702MOL0     C96758   7.210   6.263   8.831 -0.3784 -0.2963  0.4083
  702MOL0     C96759   7.356   6.252   8.873  0.7923 -0.7521 -0.2537
  702MOL0     C96760   7.408   6.118   8.810  0.1037 -0.5259 -0.3587
  702MOL0     C96761   7.549   6.099   8.855  0.4554 -0.6433  0.5634
  702MOL0     O96762   7.586   5.967   8.821  0.3282 -0.0171 -0.6520
  702MOL0     C96763   7.706   5.914   8.854 -0.1047  0.2027 -0.3500
  702MOL0     C96764   7.731   5.775   8.844  0.3359  0.0685  0.3305
  702MOL0     C96765   7.850   5.715   8.880  0.4196 -0.0274 -0.0353
  702MOL0     C96766   7.844   5.568   8.864 -0.0097  0.2677  0.0218
  702MOL0     C96767   7.953   5.788   8.940  0.4550  0.0453  0.0187
  702MOL0     C96768   8.080   5.734   8.993  0.4673  1.2592 -0.1532
  702MOL0     O96769   8.146   5.809   9.080  0.1307 -0.1175 -0.8798
  702MOL0     C96770   8.284   5.785   9.091  0.1042 -0.1675 -0.6018
  702MOL0     C96771   8.371   5.838   8.995  0.5295 -0.3944 -0.3489
  702MOL0     C96772   8.504   5.794   8.993 -0.0906 -0.9825  0.1078
  702MOL0     C96773   8.565   5.706   9.083  0.5977 -0.3085 -0.6178
  702MOL0     O96774   8.700   5.677   9.080  0.0703  0.8790  0.5476
  702MOL0     C96775   8.770   5.628   9.188 -0.0520  0.5544  0.5236
  702MOL0     C96776   8.901   5.547   9.176 -0.8695 -0.1973 -0.1116
  702MOL0     C96777   9.010   5.638   9.163 -0.2946 -0.0104  0.1726
  702MOL0     C96778   9.040   5.671   9.015 -0.5321 -0.1057  0.0759
  702MOL0     C96779   9.152   5.775   9.004 -0.9397 -0.2121 -0.6404
  702MOL0     C96780   9.177   5.815   8.867 -0.2848 -0.0147  0.7732
  702MOL0     C96781   9.232   5.708   8.771  0.3686  0.0177 -0.5487
  702MOL0     C96782   9.221   5.752   8.626  0.5124  0.2808  0.9654
  702MOL0    Cl96783   9.305   5.911   8.586 -0.4801  0.0159  0.3540
  702MOL0     C96784   8.476   5.668   9.182 -0.1221  0.1901  0.5825
  702MOL0     C96785   8.338   5.696   9.183 -0.4534  0.2605 -0.1097
  702MOL0     O96786   8.125   5.631   8.944 -0.8002 -0.4642  0.0686
  702MOL0     C96787   7.924   5.927   8.966  0.2730 -0.4335  0.2347
  702MOL0     C96788   7.809   5.988   8.919 -0.9190  0.2550  0.0598
  702MOL0     N96789   7.078   6.462   8.762 -0.0814  0.1022  0.0793
  702MOL0     N96790   7.028   6.574   8.811 -0.3012 -0.4666 -0.2375
  702MOL0     C96791   6.751   6.445   9.843 -0.1520  0.0009  0.5110
  702MOL0     C96792   6.749   6.530   9.949  0.2204 -0.3973  0.3197
  702MOL0     C96793   6.882   6.793  10.301  0.2922 -0.3425  0.5443
  702MOL0     C96794   6.742   6.810  10.326  0.2328  0.0054 -0.0459
  702MOL0     C96795   6.675   6.886  10.419  0.3362 -0.3595 -0.6094
  702MOL0     C96796   6.759   6.952  10.507  0.8121  0.6684 -0.5481
  702MOL0     O96797   6.712   7.040  10.608 -0.3096  0.8176 -0.3043
  702MOL0     C96798   6.567   7.060  10.629  0.2596 -0.1515 -0.1459
  702MOL0     C96799   6.549   7.185  10.716  0.4243 -0.1504 -1.1618
  702MOL0     C96800   6.622   7.166  10.847 -0.7085 -0.5050 -0.7906
  702MOL0     C96801   6.597   7.290  10.937  0.3459 -0.6025  0.5720
  702MOL0     C96802   6.691   7.290  11.041 -0.1117  0.0448 -1.0070
  702MOL0     C96803   6.774   7.304  11.138 -0.2262 -0.2807  0.2211
  702MOL0     C96804   6.900   6.929  10.499 -0.1426  0.3132 -0.4978
  702MOL0     C96805   6.963   6.842  10.406  0.2422  0.9870  0.0170
  702MOL0     C96806   7.112   6.831  10.408 -0.5746  0.3569 -0.6374
  702MOL0     H96807   7.040   6.445  10.101  3.7840 -3.3537 -4.1450
  702MOL0     H96808   7.061   6.303   9.895  0.5131  0.7022 -0.4456
  702MOL0     H96809   6.943   6.424   9.603  0.9447 -2.7887  2.4897
  702MOL0     H96810   6.767   6.413   9.578 -0.5571 -0.6672  2.2584
  702MOL0     H96811   6.972   6.224   9.457  0.3905  0.7690  2.4443
  702MOL0     H96812   6.790   6.202   9.470  1.7209 -2.1830  0.7241
  702MOL0     H96813   6.828   6.306   9.257 -0.2864 -0.0505 -0.8956
  702MOL0     H96814   6.769   6.423   9.366 -0.3349  0.2370  0.6323
  702MOL0     H96815   7.009   6.495   9.389  0.7252  0.6628 -0.5134
  702MOL0     H96816   7.075   6.385   9.267 -1.3039 -0.9462 -3.4368
  702MOL0     H96817   6.834   6.553   9.200 -0.2891 -0.1646 -0.1592
  702MOL0     H96818   6.967   6.504   9.098  4.1590 -1.9433  1.3972
  702MOL0     H96819   6.976   6.723   9.306 -1.1799 -1.7851  0.5319
  702MOL0     H96820   7.124   6.640   9.239  0.1054 -0.8139  1.6597
  702MOL0     H96821   6.997   6.865   9.125 -3.9906 -1.5384  4.6876
  702MOL0     H96822   6.907   6.751   9.045  1.0392  2.9082 -2.3727
  702MOL0     H96823   7.087   6.824   8.917 -0.6675  0.6697  0.7833
  702MOL0     H96824   7.203   6.762   9.025  0.7571  1.4618  0.2466
  702MOL0     H96825   7.260   6.473   9.028  0.0741  2.0470 -0.2336
  702MOL0     H96826   7.182   6.230   8.731  1.7594 -0.9347 -0.0378
  702MOL0     H96827   7.150   6.218   8.911  0.3148  2.6931  2.8189
  702MOL0     H96828   7.416   6.337   8.837  0.2188 -0.0140  0.4734
  702MOL0     H96829   7.344   6.247   8.982 -2.2915  2.3204 -0.2613
  702MOL0     H96830   7.337   6.048   8.854 -0.8199 -1.5129 -3.1633
  702MOL0     H96831   7.392   6.124   8.702  3.0997 -0.6783 -0.9005
  702MOL0     H96832   7.621   6.159   8.798  1.3094 -1.2876  0.9286
  702MOL0     H96833   7.562   6.129   8.959 -0.5802 -2.5846  1.3083
  702MOL0     H96834   7.650   5.717   8.802  0.1657  0.1740  0.5100
  702MOL0     H96835   7.910   5.554   8.778  0.3463 -1.5998  0.5706
  702MOL0     H96836   7.738   5.543   8.865  0.0843 -0.1208  0.7454
  702MOL0     H96837   7.888   5.511   8.946  1.5664  0.4308 -0.6693
  702MOL0     H96838   8.334   5.911   8.924  2.0117  1.1718  0.4206
  702MOL0     H96839   8.566   5.841   8.918  1.3700 -3.4796 -0.3463
  702MOL0     H96840   8.786   5.714   9.253  2.5234  0.5772 -0.0252
  702MOL0     H96841   8.705   5.550   9.229  0.9169 -0.2718  0.5413
  702MOL0     H96842   8.923   5.504   9.274  1.8655  4.9820  1.9474
  702MOL0     H96843   8.885   5.467   9.103 -0.0540 -2.2159  1.7998
  702MOL0     H96844   9.087   5.580   9.215 -1.1816 -1.9570 -0.5784
  702MOL0     H96845   9.010   5.734   9.215  0.0935  0.2921 -0.3705
  702MOL0     H96846   8.951   5.711   8.965 -0.7247 -0.5675  0.0468
  702MOL0     H96847   9.058   5.575   8.965 -4.0379 -0.0762 -1.5473
  702MOL0     H96848   9.125   5.862   9.063  3.0897  0.1876  0.9508
  702MOL0     H96849   9.239   5.733   9.056 -1.5652 -1.4991 -0.5925
  702MOL0     H96850   9.245   5.901   8.865  2.1538 -1.8502  0.8800
  702MOL0     H96851   9.078   5.837   8.823 -1.4403 -5.2504  0.1309
  702MOL0     H96852   9.173   5.616   8.779 -0.4444  0.6900  1.8427
  702MOL0     H96853   9.338   5.686   8.791  0.0292 -1.0131  0.2301
  702MOL0     H96854   9.116   5.758   8.594  0.9401  1.9883 -0.2853
  702MOL0     H96855   9.270   5.679   8.560  0.3515  0.9924  0.0279
  702MOL0     H96856   8.521   5.613   9.263  3.6205  3.6411  1.1581
  702MOL0     H96857   8.270   5.661   9.260 -4.2070  4.2637 -1.2142
  702MOL0     H96858   8.000   5.992   9.010  0.5612 -0.9419  0.5049
  702MOL0     H96859   7.815   6.096   8.929  1.2106  0.4597 -2.4742
  702MOL0     H96860   6.664   6.444   9.778  0.4658 -2.7812 -0.3995
  702MOL0     H96861   6.670   6.603   9.948  3.2549  3.1602 -0.1883
  702MOL0     H96862   6.676   6.748  10.265  0.1725  0.2867 -0.2660
  702MOL0     H96863   6.568   6.887  10.434  0.7703  0.4218  3.8737
  702MOL0     H96864   6.514   7.085  10.537 -2.0669 -0.9865  0.9096
  702MOL0     H96865   6.536   6.971  10.684  1.3367 -0.7049 -0.4086
  702MOL0     H96866   6.442   7.179  10.737  0.4433  2.1145 -0.2186
  702MOL0     H96867   6.562   7.280  10.664 -2.0992  1.1426  0.3637
  702MOL0     H96868   6.598   7.075  10.903 -3.1228  0.8439  0.5307
  702MOL0     H96869   6.727   7.151  10.821  0.1494 -0.8458  2.4649
  702MOL0     H96870   6.493   7.299  10.972  0.0074 -1.6436 -0.1010
  702MOL0     H96871   6.622   7.370  10.868 -0.9425 -0.4451  0.2470
  702MOL0     H96872   6.842   7.306  11.221  2.0636 -1.4632 -1.5420
  702MOL0     H96873   6.963   6.977  10.574  0.3140  1.6906 -1.7130
  702MOL0     H96874   7.145   6.847  10.511 -0.1868  0.0397 -0.7043
  702MOL0     H96875   7.154   6.734  10.376 -0.1843  0.2619  0.1429
  702MOL0     H96876   7.163   6.907  10.348  2.5907 -0.7604  0.4290
  703MOL0     O96877   7.117   6.072   3.027 -0.8164 -0.2225 -0.5378
  703MOL0     C96878   7.242   6.098   3.019 -0.0266 -0.3618 -1.1657
  703MOL0     O96879   7.321   6.037   2.927 -0.2865  0.3881  0.2443
  703MOL0     C96880   7.269   5.944   2.842 -0.5547  0.1137  1.0509
  703MOL0     C96881   7.307   5.815   2.852  0.0813 -0.1032 -0.3191
  703MOL0     C96882   7.276   5.725   2.752  0.0458  0.2291 -0.1700
  703MOL0     C96883   7.217   5.767   2.630  0.3804 -0.2140 -0.4900
  703MOL0     O96884   7.185   5.673   2.537  0.0525 -0.0489  0.3696
  703MOL0     C96885   7.187   5.710   2.398 -0.6627 -0.3418  0.4455
  703MOL0     C96886   7.161   5.590   2.311  0.7551  0.6007  0.8885
  703MOL0     C96887   7.276   5.487   2.324 -0.3387 -0.8730 -0.9019
  703MOL0     C96888   7.292   5.410   2.460  0.3729  0.1993  0.3729
  703MOL0     C96889   7.383   5.291   2.452  0.4682 -1.0340  0.6699
  703MOL0     C96890   7.392   5.204   2.572  0.0927  0.8882 -0.3153
  703MOL0     C96891   7.282   5.092   2.579 -0.2224  0.5836  0.6141
  703MOL0     C96892   7.266   5.014   2.452  0.4090 -0.4515 -0.2389
  703MOL0     N96893   7.383   4.945   2.401  0.1111 -0.5192 -0.3245
  703MOL0     C96894   7.419   4.828   2.451 -0.2980  1.0684  0.3360
  703MOL0     C96895   7.525   4.786   2.379  1.1745 -0.1878 -0.6637
  703MOL0     C96896   7.613   4.669   2.427  0.6948 -0.3060  0.0700
  703MOL0     C96897   7.565   4.535   2.382  0.3171 -0.4027 -0.0026
  703MOL0     C96898   7.605   4.518   2.232  0.0517  0.4766 -0.4953
  703MOL0     C96899   7.559   4.387   2.181  0.8142 -0.2515  0.3621
  703MOL0     O96900   7.647   4.288   2.232 -0.2905  0.9044 -0.0283
  703MOL0     C96901   7.589   4.165   2.244  0.2564 -0.4928 -0.2439
  703MOL0     C96902   7.560   4.085   2.131 -1.6038 -0.0663 -0.5978
  703MOL0     C96903   7.501   3.953   2.141 -0.0422 -0.4122 -0.2271
  703MOL0     C96904   7.451   3.879   2.019 -0.2716 -0.2087  0.1852
  703MOL0     C96905   7.475   3.905   2.269 -0.7833 -0.6809 -0.6261
  703MOL0     C96906   7.412   3.776   2.313  0.1686  0.3037  0.4714
  703MOL0     O96907   7.284   3.748   2.269 -0.1984 -0.1852 -0.1704
  703MOL0     C96908   7.260   3.618   2.289  1.0043  0.3809 -0.3286
  703MOL0     C96909   7.298   3.514   2.203  0.0745  0.3368  0.5776
  703MOL0     C96910   7.280   3.382   2.229  0.0918  0.2547  0.0057
  703MOL0     C96911   7.200   3.349   2.336  0.0903  0.5353 -0.9462
  703MOL0     O96912   7.153   3.218   2.351  0.0517 -0.7944  0.2260
  703MOL0     C96913   7.013   3.194   2.359  0.1671 -0.4145  0.8017
  703MOL0     C96914   6.976   3.069   2.279  0.4892 -0.1759  0.4004
  703MOL0     C96915   7.067   2.944   2.307  0.0377  0.2066  0.7448
  703MOL0     C96916   7.042   2.843   2.199  0.2664 -0.0625 -0.3968
  703MOL0     C96917   7.117   2.713   2.213 -0.0226 -0.2809 -0.7751
  703MOL0     C96918   7.099   2.632   2.338  0.5906  0.2198 -0.4460
  703MOL0     C96919   6.950   2.607   2.378  0.9079  0.0067 -0.1675
  703MOL0     C96920   6.871   2.531   2.264 -1.0043  0.1226  0.3107
  703MOL0    Cl96921   6.730   2.470   2.342  0.1900 -0.2718  0.2254
  703MOL0     C96922   7.162   3.447   2.428  0.1750 -0.0235 -0.0059
  703MOL0     C96923   7.185   3.582   2.406 -0.4452  0.7445 -0.0722
  703MOL0     O96924   7.482   3.703   2.389  0.6144 -0.2530  0.2942
  703MOL0     C96925   7.504   3.988   2.388 -0.3195  0.9035 -0.0746
  703MOL0     C96926   7.553   4.119   2.373  1.0027 -0.4963  0.2801
  703MOL0     N96927   7.550   4.885   2.291 -0.1146  0.3061  0.3141
  703MOL0     N96928   7.464   4.975   2.306 -0.2848 -0.1105 -0.5631
  703MOL0     C96929   7.195   5.909   2.617 -0.5520  0.3112 -0.9075
  703MOL0     C96930   7.213   5.991   2.728 -0.2535 -0.1654  0.0724
  703MOL0     C96931   7.309   6.186   3.112 -0.9727  0.5320  1.0109
  703MOL0     C96932   7.443   6.158   3.155 -0.7306 -0.7382  0.9056
  703MOL0     C96933   7.512   6.235   3.250  0.3671  0.2610 -0.8165
  703MOL0     C96934   7.446   6.345   3.309  0.2278  0.2630 -0.0074
  703MOL0     O96935   7.498   6.436   3.398  0.0195 -0.0898 -0.5416
  703MOL0     C96936   7.638   6.447   3.427 -0.1343 -0.7402  0.0761
  703MOL0     C96937   7.676   6.393   3.568 -0.6766 -0.6901 -0.6947
  703MOL0     C96938   7.583   6.431   3.682  0.6180 -0.2252  0.4959
  703MOL0     C96939   7.627   6.414   3.827 -1.1354 -0.5367 -0.6248
  703MOL0     C96940   7.744   6.490   3.845 -0.5731 -0.5939 -0.3949
  703MOL0     C96941   7.850   6.547   3.854 -0.7724 -0.0487 -0.1570
  703MOL0     C96942   7.327   6.379   3.265 -0.3233  0.3245 -0.3423
  703MOL0     C96943   7.249   6.297   3.172 -0.4978 -0.6041 -0.1453
  703MOL0     C96944   7.104   6.325   3.150 -0.0551 -0.3352  0.3311
  703MOL0     H96945   7.352   5.777   2.943  1.2909 -0.9214 -1.2287
  703MOL0     H96946   7.284   5.619   2.774 -0.8860  0.4860  1.5973
  703MOL0     H96947   7.288   5.746   2.379 -1.5445  1.5561 -0.9042
  703MOL0     H96948   7.121   5.794   2.375  0.0433 -0.4929 -2.4370
  703MOL0     H96949   7.065   5.545   2.338  0.4878  0.3009 -0.5213
  703MOL0     H96950   7.145   5.642   2.217 -1.1808  2.9335  2.3827
  703MOL0     H96951   7.252   5.413   2.248  1.0788 -2.5311  0.1958
  703MOL0     H96952   7.374   5.530   2.300 -0.3100 -1.2604 -1.4889
  703MOL0     H96953   7.318   5.484   2.537 -0.6765  3.9084 -2.5292
  703MOL0     H96954   7.194   5.371   2.491  0.8403 -1.2582  0.0688
  703MOL0     H96955   7.483   5.334   2.444  0.6018 -1.2135  1.3418
  703MOL0     H96956   7.350   5.240   2.361  1.0119 -1.0757  0.4947
  703MOL0     H96957   7.488   5.151   2.568 -2.4557 -4.6383  2.0216
  703MOL0     H96958   7.396   5.263   2.664 -2.0678  2.2859 -1.0326
  703MOL0     H96959   7.183   5.134   2.601  0.9475  3.1474  1.4227
  703MOL0     H96960   7.309   5.022   2.658  0.4137  0.8592  0.6441
  703MOL0     H96961   7.195   4.932   2.460 -0.2036 -0.2276 -2.6141
  703MOL0     H96962   7.225   5.085   2.380 -2.1660 -0.5995  0.9907
  703MOL0     H96963   7.378   4.773   2.535 -0.5906  1.2028  0.2808
  703MOL0     H96964   7.613   4.673   2.536 -1.8183 -1.1715  0.1668
  703MOL0     H96965   7.717   4.684   2.395  0.8103  0.1377  0.6241
  703MOL0     H96966   7.617   4.464   2.446  0.0056 -0.0545  0.6397
  703MOL0     H96967   7.459   4.517   2.403  0.7894 -2.0973  1.1730
  703MOL0     H96968   7.557   4.600   2.178 -2.6936 -1.1514 -0.6853
  703MOL0     H96969   7.713   4.522   2.216  0.0036 -1.8335 -1.8282
  703MOL0     H96970   7.455   4.370   2.210  0.2238 -5.2510 -3.3139
  703MOL0     H96971   7.563   4.385   2.071 -0.7670 -1.1846  0.2913
  703MOL0     H96972   7.568   4.136   2.035 -3.9575  0.1345 -0.7459
  703MOL0     H96973   7.514   3.912   1.936  0.2551 -1.4840  0.0484
  703MOL0     H96974   7.346   3.896   1.991  0.0376 -0.5320 -1.2792
  703MOL0     H96975   7.458   3.772   2.039 -4.2096 -1.1593 -2.2933
  703MOL0     H96976   7.352   3.534   2.111  2.0288 -4.2217  0.4943
  703MOL0     H96977   7.304   3.314   2.148  1.7275 -0.3847  0.9662
  703MOL0     H96978   6.975   3.174   2.460 -2.4462 -2.9857 -0.5075
  703MOL0     H96979   6.960   3.275   2.308  0.2776 -1.2620 -0.7200
  703MOL0     H96980   6.871   3.049   2.300  0.0243 -1.5224 -2.6847
  703MOL0     H96981   6.983   3.101   2.175  2.2059  0.5032  0.6916
  703MOL0     H96982   7.039   2.901   2.403  2.1964 -0.5777  1.0652
  703MOL0     H96983   7.173   2.970   2.318 -0.0956  1.2570 -0.2288
  703MOL0     H96984   7.079   2.894   2.110  3.4410  2.2502  2.0008
  703MOL0     H96985   6.936   2.815   2.194  0.5153 -0.8091 -3.5995
  703MOL0     H96986   7.090   2.650   2.128  1.3759 -0.5105 -1.0858
  703MOL0     H96987   7.225   2.731   2.211 -0.2500  1.6774  1.0159
  703MOL0     H96988   7.148   2.688   2.418 -3.4266  2.6918  0.5745
  703MOL0     H96989   7.146   2.535   2.321  0.8039  0.0190  1.1714
  703MOL0     H96990   6.892   2.700   2.379 -0.1712 -0.5145 -3.3373
  703MOL0     H96991   6.949   2.560   2.476 -1.0235  0.7672  0.2211
  703MOL0     H96992   6.944   2.459   2.225  0.2634  2.3459 -1.7171
  703MOL0     H96993   6.843   2.603   2.186  3.1914  0.9617 -0.7000
  703MOL0     H96994   7.103   3.413   2.512  0.9725 -4.1017 -0.8943
  703MOL0     H96995   7.165   3.672   2.463 -0.6262 -0.7953  2.4408
  703MOL0     H96996   7.482   3.954   2.489 -2.2882  1.8603 -0.1278
  703MOL0     H96997   7.594   4.181   2.453 -1.3731 -2.6546  3.3931
  703MOL0     H96998   7.147   5.944   2.527  2.1143  1.7709 -1.8419
  703MOL0     H96999   7.199   6.098   2.726 -1.7097 -0.3256  0.5472
  703MOL0     H97000   7.486   6.067   3.115 -0.7574  0.3038 -1.6288
  703MOL0     H97001   7.612   6.213   3.287  0.0169  0.5053  0.3097
  703MOL0     H97002   7.702   6.402   3.350 -0.2032 -1.1765  0.2701
  703MOL0     H97003   7.660   6.554   3.428 -1.2017 -0.5170  0.6356
  703MOL0     H97004   7.781   6.406   3.598 -1.6779  2.2799  1.9912
  703MOL0     H97005   7.660   6.285   3.563 -2.9184 -0.5538  1.8669
  703MOL0     H97006   7.572   6.539   3.676  1.7427 -0.1140  0.0613
  703MOL0     H97007   7.485   6.390   3.659  0.3358  1.6543 -2.0022
  703MOL0     H97008   7.645   6.310   3.856 -4.2353 -1.1928 -0.6822
  703MOL0     H97009   7.549   6.456   3.891  0.1338  2.8130 -1.0791
  703MOL0     H97010   7.943   6.599   3.853  0.2769 -1.8353 -1.0193
  703MOL0     H97011   7.276   6.462   3.312 -2.3938 -1.0954  0.0887
  703MOL0     H97012   7.091   6.402   3.226 -0.5511 -1.5349  1.5025
  703MOL0     H97013   7.083   6.356   3.047  3.0797  0.1108 -0.3041
  703MOL0     H97014   7.044   6.238   3.179 -0.4446 -0.1444  0.0960
  704MOL0     O97015   9.891   3.660   8.372  1.2213  0.3013 -0.9299
  704MOL0     C97016   9.915   3.570   8.293 -0.4228  0.3537  0.5752
  704MOL0     O97017   9.832   3.464   8.265  0.0948 -0.1663 -0.2596
  704MOL0     C97018   9.727   3.442   8.352 -0.3907  0.1025  0.0797
  704MOL0     C97019   9.753   3.373   8.471 -0.4505 -0.2629  1.7955
  704MOL0     C97020   9.651   3.340   8.565 -0.6688 -0.3401  0.3136
  704MOL0     C97021   9.519   3.392   8.555 -0.5187 -0.4544  0.2823
  704MOL0     O97022   9.420   3.370   8.649 -0.4267  0.0162  0.4465
  704MOL0     C97023   9.461   3.384   8.783  0.1577 -0.4343  0.2750
  704MOL0     C97024   9.338   3.404   8.887  0.0784 -0.7455 -0.4852
  704MOL0     C97025   9.239   3.289   8.895 -0.3299  0.4321  0.3832
  704MOL0     C97026   9.283   3.169   8.984 -0.9120  0.4542 -0.1200
  704MOL0     C97027   9.198   3.043   8.965  0.1886  0.5111 -0.1992
  704MOL0     C97028   9.258   2.927   9.042  0.4234 -0.1429 -0.4411
  704MOL0     C97029   9.161   2.819   9.048  0.6550  0.0198 -0.2521
  704MOL0     C97030   9.225   2.687   9.105  0.8300 -0.2376  0.2453
  704MOL0     N97031   9.345   2.639   9.034  0.5198 -0.0083 -0.5663
  704MOL0     C97032   9.338   2.576   8.913 -0.4364 -0.3571  0.1185
  704MOL0     C97033   9.464   2.529   8.891  0.5503 -0.2839  0.0494
  704MOL0     C97034   9.488   2.434   8.779  0.4426 -0.8630  0.6144
  704MOL0     C97035   9.632   2.399   8.750 -0.2359 -0.5019  0.0328
  704MOL0     C97036   9.637   2.366   8.604  0.1666  0.6038  0.0838
  704MOL0     C97037   9.768   2.330   8.555  0.7858 -0.8822  1.4050
  704MOL0     O97038   9.818   2.200   8.572 -0.1984  0.4916  0.6774
  704MOL0     C97039   9.938   2.154   8.552 -0.6862 -0.1138  0.2340
  704MOL0     C97040  10.044   2.233   8.514  0.4274  0.1563 -1.1805
  704MOL0     C97041  10.174   2.184   8.501 -1.0116  1.1885 -0.3115
  704MOL0     C97042  10.282   2.279   8.442 -0.3222  0.3784 -0.6184
  704MOL0     C97043  10.203   2.043   8.529 -0.1718 -0.5598  0.2887
  704MOL0     C97044  10.337   1.990   8.518 -0.1607  0.3447  0.6270
  704MOL0     O97045  10.448   2.066   8.550 -0.4213  0.1553 -0.3761
  704MOL0     C97046  10.579   2.026   8.524 -0.2881  1.3726  0.1802
  704MOL0     C97047  10.628   1.961   8.408  0.0563  0.6907  0.3412
  704MOL0     C97048  10.764   1.933   8.395  0.3137  0.3576 -0.3495
  704MOL0     C97049  10.855   1.990   8.485  0.1037  0.8461  0.7595
  704MOL0     O97050  10.983   1.963   8.446 -0.1967 -0.5153  1.0786
  704MOL0     C97051  11.106   2.012   8.511 -0.6782  0.2139 -1.6903
  704MOL0     C97052  11.226   1.963   8.430 -0.9150  0.1409  0.0648
  704MOL0     C97053  11.358   2.018   8.479  0.0433 -0.8933  0.0857
  704MOL0     C97054  11.430   2.082   8.359 -0.4260  0.5376 -0.9568
  704MOL0     C97055  11.526   1.977   8.294  0.4704  0.1228 -0.0664
  704MOL0     C97056  11.553   2.009   8.146  0.3045 -0.0662  1.0618
  704MOL0     C97057  11.435   1.966   8.060  0.9645  0.5336  0.3511
  704MOL0     C97058  11.486   1.924   7.917 -0.0750 -0.6028  0.3239
  704MOL0    Cl97059  11.585   2.061   7.853 -0.0323  0.0334  0.1662
  704MOL0     C97060  10.814   2.063   8.597 -0.4876  0.1251 -0.8096
  704MOL0     C97061  10.675   2.070   8.615  0.0073 -0.0873  0.3609
  704MOL0     O97062  10.345   1.880   8.462 -0.3116  0.1610 -0.5010
  704MOL0     C97063  10.091   1.968   8.564 -0.7060 -0.8863 -0.8622
  704MOL0     C97064   9.959   2.019   8.584 -0.2359  0.1453  0.7326
  704MOL0     N97065   9.551   2.558   9.002  0.0546  1.0182  0.8044
  704MOL0     N97066   9.474   2.623   9.092 -0.0604  0.2565  0.0177
  704MOL0     C97067   9.494   3.467   8.435  0.4788 -0.4398  0.3333
  704MOL0     C97068   9.594   3.490   8.333 -0.4453 -1.0165 -0.0068
  704MOL0     C97069  10.054   3.567   8.242 -0.2634  0.5994 -0.1542
  704MOL0     C97070  10.115   3.690   8.197 -0.0527  0.3720  0.2417
  704MOL0     C97071  10.236   3.680   8.136  0.8370  0.3833 -1.0350
  704MOL0     C97072  10.317   3.567   8.133  0.8533 -0.1412 -0.2622
  704MOL0     O97073  10.432   3.550   8.057  0.4975 -0.2892 -0.2363
  704MOL0     C97074  10.540   3.641   8.085  0.2230 -0.2240  0.6148
  704MOL0     C97075  10.641   3.562   8.164  0.2104  0.5507  0.2956
  704MOL0     C97076  10.772   3.636   8.155  0.2855 -0.4885 -0.5108
  704MOL0     C97077  10.872   3.573   8.243 -0.3630  0.7181  0.2176
  704MOL0     C97078  10.996   3.647   8.226 -0.2206  0.1756  0.0865
  704MOL0     C97079  11.106   3.698   8.231 -0.7784  0.0451  0.7945
  704MOL0     C97080  10.256   3.448   8.171 -0.0572  0.3456 -0.0907
  704MOL0     C97081  10.123   3.448   8.220  1.1783  0.1200 -0.1638
  704MOL0     C97082  10.075   3.318   8.286  0.0615 -0.0519  0.1903
  704MOL0     H97083   9.855   3.338   8.482 -0.5646 -0.7324  1.4044
  704MOL0     H97084   9.683   3.292   8.657  2.4590 -1.5187 -1.2446
  704MOL0     H97085   9.515   3.478   8.799 -0.2471 -0.1657  0.0694
  704MOL0     H97086   9.521   3.297   8.811 -0.6616 -1.5218 -1.2103
  704MOL0     H97087   9.383   3.422   8.985 -0.7936 -3.0401  0.4251
  704MOL0     H97088   9.288   3.498   8.864  2.9187  1.6573  2.2500
  704MOL0     H97089   9.154   3.335   8.946 -0.0537  0.6406  0.6682
  704MOL0     H97090   9.210   3.268   8.792  0.6216  0.3307  0.1292
  704MOL0     H97091   9.386   3.142   8.958 -1.2325 -0.4734 -0.4825
  704MOL0     H97092   9.278   3.223   9.079 -1.6841 -0.4194  0.3607
  704MOL0     H97093   9.188   3.026   8.858  0.5848 -2.2326  0.1067
  704MOL0     H97094   9.093   3.043   8.996 -0.1053 -4.3720 -0.2906
  704MOL0     H97095   9.347   2.893   8.988  0.6387 -1.7962  0.8691
  704MOL0     H97096   9.279   2.954   9.146 -0.3970  2.0566 -0.7979
  704MOL0     H97097   9.123   2.795   8.948 -0.1862  0.2146  0.0104
  704MOL0     H97098   9.075   2.845   9.111  1.0317 -2.2148  1.3139
  704MOL0     H97099   9.265   2.704   9.205 -3.0943 -1.5071  2.2532
  704MOL0     H97100   9.144   2.613   9.106 -0.0284  0.6741 -0.1658
  704MOL0     H97101   9.249   2.562   8.853  0.1322  2.8541 -1.7054
  704MOL0     H97102   9.442   2.472   8.688  4.2571 -0.2354 -1.2661
  704MOL0     H97103   9.419   2.350   8.791 -1.0894 -0.2245 -2.6459
  704MOL0     H97104   9.703   2.479   8.775 -0.1276 -0.9124  1.0771
  704MOL0     H97105   9.659   2.308   8.804 -1.4214  0.3079  2.0751
  704MOL0     H97106   9.573   2.278   8.589 -1.4821  1.7706 -0.0082
  704MOL0     H97107   9.588   2.444   8.545 -0.9078 -0.2240 -0.1534
  704MOL0     H97108   9.768   2.352   8.448 -0.7152  1.0640  1.7500
  704MOL0     H97109   9.843   2.404   8.585  0.0248  1.3116 -1.6214
  704MOL0     H97110  10.030   2.340   8.505  1.6130  0.2241 -2.5972
  704MOL0     H97111  10.367   2.305   8.506  0.8701 -0.3558 -1.8654
  704MOL0     H97112  10.232   2.358   8.386  1.0737  0.2288 -2.1332
  704MOL0     H97113  10.337   2.215   8.373  0.1396  0.0007  0.0870
  704MOL0     H97114  10.557   1.940   8.329  0.4059  4.9346 -1.3802
  704MOL0     H97115  10.817   1.877   8.318  5.5902  1.9664  1.6317
  704MOL0     H97116  11.097   2.121   8.507 -1.2193  0.2763  0.0856
  704MOL0     H97117  11.107   1.982   8.616  1.0054 -0.7154 -1.9461
  704MOL0     H97118  11.233   1.855   8.415  0.1258  0.0333  1.1016
  704MOL0     H97119  11.196   2.000   8.332 -0.6500 -1.0014 -0.4629
  704MOL0     H97120  11.423   1.945   8.528 -0.1543 -2.0759 -1.3513
  704MOL0     H97121  11.326   2.097   8.548 -0.8697 -0.9358 -0.2864
  704MOL0     H97122  11.494   2.165   8.390 -0.4743  0.3659 -0.3727
  704MOL0     H97123  11.355   2.118   8.289 -3.5799  0.7757  2.2469
  704MOL0     H97124  11.614   1.975   8.358  1.2462  0.1911 -1.1108
  704MOL0     H97125  11.473   1.881   8.299 -0.8184  0.8405  0.4574
  704MOL0     H97126  11.635   1.940   8.121  0.2513  0.0589  0.5284
  704MOL0     H97127  11.575   2.115   8.137  0.0476 -0.0443  0.6617
  704MOL0     H97128  11.363   2.048   8.058 -0.6002 -0.7937  0.4042
  704MOL0     H97129  11.399   1.869   8.095  0.7697 -0.5470 -2.6401
  704MOL0     H97130  11.397   1.893   7.861  0.0120 -0.8519  0.3234
  704MOL0     H97131  11.553   1.838   7.920 -1.5287 -1.7310  2.0980
  704MOL0     H97132  10.889   2.096   8.668 -0.2383  0.4879 -1.2403
  704MOL0     H97133  10.650   2.104   8.715  0.9560 -3.9388  2.1091
  704MOL0     H97134  10.118   1.862   8.560  2.3501 -0.2071 -1.1958
  704MOL0     H97135   9.886   1.953   8.630 -0.7446 -1.2296 -1.9042
  704MOL0     H97136   9.397   3.515   8.430  0.6459 -0.1981 -0.5950
  704MOL0     H97137   9.576   3.553   8.246 -0.5594  0.5445  1.0972
  704MOL0     H97138  10.064   3.786   8.197  0.7316  0.7998 -0.7587
  704MOL0     H97139  10.278   3.768   8.087  1.4941  1.5009  1.3869
  704MOL0     H97140  10.580   3.680   7.991  0.8742  2.0226  1.7521
  704MOL0     H97141  10.513   3.730   8.141  2.0767 -0.0003  1.2322
  704MOL0     H97142  10.661   3.462   8.125 -4.3545 -0.7160  0.5504
  704MOL0     H97143  10.608   3.545   8.267  1.7296 -2.8251  0.3752
  704MOL0     H97144  10.809   3.641   8.052 -2.0573 -2.8016 -1.5651
  704MOL0     H97145  10.765   3.740   8.189 -0.5996 -0.0265 -1.9861
  704MOL0     H97146  10.884   3.466   8.224  1.2130  0.9507 -0.2023
  704MOL0     H97147  10.843   3.573   8.348 -3.3972 -1.7850 -0.4656
  704MOL0     H97148  11.204   3.742   8.237 -1.2428  2.2629 -3.8602
  704MOL0     H97149  10.320   3.361   8.156  1.6628  1.6731 -0.8600
  704MOL0     H97150   9.991   3.265   8.240  0.7505 -2.5780  1.6572
  704MOL0     H97151  10.147   3.237   8.276 -0.7976 -0.8928  0.6208
  704MOL0     H97152  10.065   3.336   8.394 -3.8491 -1.0071  0.1544
  705MOL0     O97153  10.575   1.215   8.391 -0.7232 -1.0749 -0.0422
  705MOL0     C97154  10.546   1.335   8.404  0.3147 -0.3768  0.8517
  705MOL0     O97155  10.632   1.435   8.409 -0.5956  0.7807  0.2980
  705MOL0     C97156  10.760   1.433   8.360  0.5991 -1.0171  0.1517
  705MOL0     C97157  10.838   1.551   8.387 -0.3327 -0.6079  0.9415
  705MOL0     C97158  10.974   1.567   8.347  0.5386 -0.3298 -0.5490
  705MOL0     C97159  11.043   1.463   8.281  0.2134 -0.0846  1.2942
  705MOL0     O97160  11.176   1.485   8.262  0.4761  0.2217 -0.4060
  705MOL0     C97161  11.253   1.365   8.239  0.1305  0.2272  0.5377
  705MOL0     C97162  11.405   1.402   8.238  0.0641 -0.2490  0.4102
  705MOL0     C97163  11.447   1.483   8.112  0.2938  1.1975 -0.6513
  705MOL0     C97164  11.599   1.483   8.103  0.6322 -0.1586 -0.2611
  705MOL0     C97165  11.642   1.585   7.999 -0.5140 -0.4431 -0.3674
  705MOL0     C97166  11.784   1.533   7.949  0.1424 -0.2980  0.0393
  705MOL0     C97167  11.901   1.576   8.048 -0.3307 -0.2567  0.8876
  705MOL0     C97168  12.018   1.478   8.052 -0.4507 -0.4129  0.3699
  705MOL0     N97169  12.080   1.486   7.920  0.4335 -0.1640  0.2346
  705MOL0     C97170  12.061   1.403   7.814 -0.0399 -0.0741  0.4926
  705MOL0     C97171  12.125   1.459   7.711  0.1903  0.7676 -0.2327
  705MOL0     C97172  12.123   1.390   7.578  0.5858  0.3878 -0.7268
  705MOL0     C97173  12.248   1.429   7.488 -0.3492 -0.3219  0.2130
  705MOL0     C97174  12.248   1.363   7.354  0.8143 -0.0309 -0.7529
  705MOL0     C97175  12.370   1.407   7.271  0.8545 -0.5673 -0.3289
  705MOL0     O97176  12.480   1.352   7.331 -0.7466 -0.3869 -0.0164
  705MOL0     C97177  12.600   1.370   7.272  0.6919  0.4931  1.0734
  705MOL0     C97178  12.628   1.448   7.154  0.4950 -0.2073 -0.0519
  705MOL0     C97179  12.760   1.461   7.105 -0.4419 -0.8151 -0.4329
  705MOL0     C97180  12.784   1.551   6.989  0.4967  0.5425  1.1096
  705MOL0     C97181  12.864   1.387   7.172 -0.7414  0.7790 -0.1977
  705MOL0     C97182  12.999   1.360   7.119 -0.3013 -0.2982 -0.2954
  705MOL0     O97183  13.081   1.275   7.193 -0.3259  0.3613 -0.5181
  705MOL0     C97184  13.202   1.232   7.142  0.5916  0.7531 -0.2396
  705MOL0     C97185  13.318   1.313   7.146  0.0987  0.6834  0.1981
  705MOL0     C97186  13.439   1.255   7.094  0.6257 -0.4144 -0.6087
  705MOL0     C97187  13.449   1.119   7.074 -0.2011  0.3239  0.5575
  705MOL0     O97188  13.560   1.037   7.050  0.1903  0.5780 -0.6715
  705MOL0     C97189  13.682   1.108   7.013 -0.1744 -0.2634  0.0588
  705MOL0     C97190  13.736   1.062   6.870 -0.2465  0.1306  0.0147
  705MOL0     C97191  13.619   1.071   6.765 -0.2837  0.5003  0.0936
  705MOL0     C97192  13.671   1.031   6.619  0.4795 -0.0150 -0.1832
  705MOL0     C97193  13.549   1.028   6.526 -0.8086 -0.0171 -0.2482
  705MOL0     C97194  13.465   0.898   6.552  0.0597 -0.0046 -0.5774
  705MOL0     C97195  13.362   0.880   6.436  0.5391 -0.3941  0.3189
  705MOL0     C97196  13.275   0.757   6.452 -0.4628 -0.0522 -0.0092
  705MOL0    Cl97197  13.100   0.783   6.423  0.2010  0.1910 -0.2547
  705MOL0     C97198  13.333   1.038   7.074  0.2082 -1.0212  0.3520
  705MOL0     C97199  13.208   1.097   7.099 -0.2729 -0.0344 -0.4293
  705MOL0     O97200  13.040   1.427   7.031  0.5808 -0.3558  0.1113
  705MOL0     C97201  12.834   1.323   7.295  0.1890  0.5173 -0.0044
  705MOL0     C97202  12.708   1.315   7.336  0.2146 -0.0195  0.4764
  705MOL0     N97203  12.186   1.580   7.753 -0.1571  0.4171 -0.2528
  705MOL0     N97204  12.158   1.593   7.877  0.2667  0.3144 -1.1364
  705MOL0     C97205  10.966   1.345   8.248 -0.0482 -0.2757  0.1993
  705MOL0     C97206  10.834   1.335   8.290  0.1884 -0.0526  0.1645
  705MOL0     C97207  10.402   1.381   8.422 -0.3858 -1.1885  0.3981
  705MOL0     C97208  10.379   1.512   8.468  0.3845 -0.1739  0.1542
  705MOL0     C97209  10.248   1.554   8.495  0.1311  0.4660 -0.1967
  705MOL0     C97210  10.133   1.471   8.473  0.5885 -0.6077  0.0310
  705MOL0     O97211  10.001   1.494   8.504 -0.0169  0.1276 -0.0138
  705MOL0     C97212   9.967   1.535   8.635 -0.6487 -0.1456  0.6497
  705MOL0     C97213   9.832   1.596   8.643  0.0020  0.8028  0.3017
  705MOL0     C97214   9.726   1.505   8.573  1.0471 -0.5983 -0.0325
  705MOL0     C97215   9.586   1.517   8.643  0.3766  0.0449 -0.3289
  705MOL0     C97216   9.608   1.448   8.775 -1.4494  0.2536  0.3321
  705MOL0     C97217   9.635   1.402   8.881  0.1565 -0.1832 -0.2215
  705MOL0     C97218  10.160   1.347   8.425 -0.0607  0.2342  0.9430
  705MOL0     C97219  10.291   1.299   8.406 -0.4002 -0.1808  0.2921
  705MOL0     C97220  10.297   1.151   8.364 -0.3943 -0.9138  0.3465
  705MOL0     H97221  10.784   1.630   8.439 -2.1683 -1.3520  0.2705
  705MOL0     H97222  11.018   1.662   8.376  0.3239 -0.8700  1.7121
  705MOL0     H97223  11.219   1.318   8.146 -0.8022 -0.8360  1.3864
  705MOL0     H97224  11.233   1.294   8.320 -1.5681 -1.5748 -1.3556
  705MOL0     H97225  11.429   1.456   8.330  0.8227 -1.1962  0.7901
  705MOL0     H97226  11.459   1.307   8.243  1.2883  0.4997  2.3359
  705MOL0     H97227  11.404   1.431   8.026 -2.9570 -1.3200  2.2078
  705MOL0     H97228  11.413   1.586   8.126  1.4554  1.5892 -0.5747
  705MOL0     H97229  11.652   1.506   8.196 -0.7541  2.4430 -0.0353
  705MOL0     H97230  11.630   1.382   8.073  2.8554  0.4249 -0.0950
  705MOL0     H97231  11.649   1.684   8.044 -1.2176 -0.7554  0.4604
  705MOL0     H97232  11.571   1.589   7.916 -1.5839 -0.5013  0.5352
  705MOL0     H97233  11.778   1.424   7.941  1.6639 -0.6412  2.5645
  705MOL0     H97234  11.801   1.593   7.859  1.1575 -1.7837 -0.7904
  705MOL0     H97235  11.848   1.584   8.144  2.2734 -2.2397  2.6119
  705MOL0     H97236  11.945   1.674   8.027 -0.5413  0.2936  2.8229
  705MOL0     H97237  12.087   1.482   8.137  0.1727  0.9190 -0.1685
  705MOL0     H97238  11.970   1.380   8.060  0.1320 -0.9204 -1.6487
  705MOL0     H97239  11.983   1.329   7.807 -0.8585  0.8089  0.0542
  705MOL0     H97240  12.025   1.401   7.531 -0.7434  2.0501  2.2195
  705MOL0     H97241  12.121   1.281   7.592 -0.7188  0.6429  1.4216
  705MOL0     H97242  12.236   1.535   7.462 -0.0744 -0.9733 -3.0331
  705MOL0     H97243  12.341   1.426   7.545  2.2084 -1.4330 -3.6269
  705MOL0     H97244  12.255   1.254   7.361  1.6374 -0.3674 -4.5684
  705MOL0     H97245  12.156   1.387   7.301 -0.9577 -0.3100  1.9860
  705MOL0     H97246  12.358   1.361   7.172  2.9173  1.7442 -1.7471
  705MOL0     H97247  12.377   1.516   7.266 -0.1377 -0.3904  1.2435
  705MOL0     H97248  12.546   1.495   7.100  0.5758 -0.2773 -0.2374
  705MOL0     H97249  12.826   1.508   6.898 -1.1172  1.2294 -0.0272
  705MOL0     H97250  12.855   1.628   7.019 -0.1820  2.2713 -1.3506
  705MOL0     H97251  12.691   1.604   6.964 -0.5600 -0.2640  3.1057
  705MOL0     H97252  13.302   1.418   7.167 -0.7831  0.7345 -0.6773
  705MOL0     H97253  13.506   1.337   7.070 -2.0960  1.5392 -2.0760
  705MOL0     H97254  13.670   1.214   7.034 -0.2804 -0.4528  0.9711
  705MOL0     H97255  13.763   1.066   7.073 -1.0059 -0.2009  1.2528
  705MOL0     H97256  13.822   1.127   6.851 -1.8431  2.3647  0.0957
  705MOL0     H97257  13.787   0.965   6.866  2.5293  1.4487  0.5168
  705MOL0     H97258  13.569   1.168   6.773 -1.9129 -0.2381 -0.8052
  705MOL0     H97259  13.543   0.999   6.795  1.5606 -0.9135  1.6284
  705MOL0     H97260  13.715   0.932   6.635 -0.6944 -0.4366  0.6147
  705MOL0     H97261  13.748   1.104   6.593  0.4458  0.7575  1.6608
  705MOL0     H97262  13.481   1.113   6.539 -1.1454 -0.4406  0.9191
  705MOL0     H97263  13.582   1.038   6.422  1.1898 -0.0878  0.3471
  705MOL0     H97264  13.411   0.911   6.646  1.3828  0.4035  0.1532
  705MOL0     H97265  13.527   0.807   6.551 -0.7911 -0.6019 -2.0862
  705MOL0     H97266  13.411   0.868   6.339  1.9826  3.1121  0.4463
  705MOL0     H97267  13.302   0.971   6.441  1.5507  0.3646 -0.7659
  705MOL0     H97268  13.300   0.712   6.549 -0.0848  2.2143  0.9966
  705MOL0     H97269  13.312   0.696   6.370 -2.4593 -0.2127 -0.8499
  705MOL0     H97270  13.345   0.932   7.059  0.2133 -1.1877  1.4367
  705MOL0     H97271  13.118   1.037   7.098  0.5268 -1.4429  2.2554
  705MOL0     H97272  12.911   1.270   7.349  2.2554  2.4063 -0.9002
  705MOL0     H97273  12.681   1.266   7.429  2.0498 -0.9323  0.5679
  705MOL0     H97274  11.008   1.256   8.201 -0.9555  0.4898 -2.2014
  705MOL0     H97275  10.795   1.237   8.267  0.9036 -0.4553  0.6114
  705MOL0     H97276  10.460   1.580   8.489  0.1314 -0.2309  1.4374
  705MOL0     H97277  10.224   1.649   8.541 -5.5112 -0.4776 -0.3870
  705MOL0     H97278   9.973   1.452   8.706  0.0063 -0.5930  0.0854
  705MOL0     H97279  10.038   1.609   8.672 -0.8374  0.2761  0.1749
  705MOL0     H97280   9.832   1.698   8.604 -0.3025  1.5985  2.2555
  705MOL0     H97281   9.797   1.611   8.745  0.5160  1.1723  0.4338
  705MOL0     H97282   9.711   1.541   8.471  1.6634 -1.1478 -0.3210
  705MOL0     H97283   9.765   1.403   8.569  2.5286 -0.0147 -1.5444
  705MOL0     H97284   9.518   1.454   8.584  2.2958 -2.0369 -0.4828
  705MOL0     H97285   9.548   1.618   8.657  0.6604  0.1063 -0.0145
  705MOL0     H97286   9.660   1.336   8.962 -4.0788 -1.1542  0.5297
  705MOL0     H97287  10.070   1.295   8.392  0.6444 -2.1009  2.4985
  705MOL0     H97288  10.200   1.111   8.332  0.7338 -4.4342  0.9025
  705MOL0     H97289  10.366   1.139   8.280 -0.4846  1.2194 -0.0940
  705MOL0     H97290  10.336   1.080   8.437  2.7682 -0.1909 -0.5117
  706MOL0     O97291   5.635   7.448   8.901  0.1822 -0.7805  0.2808
  706MOL0     C97292   5.738   7.401   8.846  0.2265 -1.0526 -0.8825
  706MOL0     O97293   5.782   7.276   8.835 -0.1451 -0.6377  0.1933
  706MOL0     C97294   5.740   7.192   8.936 -0.5789 -0.3581  0.6397
  706MOL0     C97295   5.615   7.140   8.933  0.4215  0.2094  0.2437
  706MOL0     C97296   5.553   7.069   9.036 -0.3200 -0.3196 -0.3017
  706MOL0     C97297   5.625   7.051   9.156 -0.8281  0.0381  0.0287
  706MOL0     O97298   5.593   6.987   9.273  0.4801  0.3960  0.6013
  706MOL0     C97299   5.455   6.972   9.301  0.4415 -0.6736 -0.2112
  706MOL0     C97300   5.444   6.867   9.412 -0.6544 -0.9953 -0.0840
  706MOL0     C97301   5.525   6.872   9.543  0.3336  0.1701 -0.8205
  706MOL0     C97302   5.500   7.005   9.614 -0.3108  0.7765  0.3943
  706MOL0     C97303   5.568   7.000   9.750 -0.6615 -0.6040  0.7145
  706MOL0     C97304   5.529   7.127   9.818  0.2624  0.3348  0.3343
  706MOL0     C97305   5.575   7.142   9.959 -0.2756 -0.2426  0.4296
  706MOL0     C97306   5.580   7.286   9.989  0.0381 -0.0711 -0.2924
  706MOL0     N97307   5.586   7.307  10.136  0.5548 -0.9037 -0.6190
  706MOL0     C97308   5.487   7.347  10.222 -0.3443  0.4392 -0.1665
  706MOL0     C97309   5.543   7.352  10.348 -0.8864  0.8268 -0.0067
  706MOL0     C97310   5.487   7.370  10.480 -0.2773  0.0836 -0.6114
  706MOL0     C97311   5.413   7.504  10.513  0.5335  0.0884  0.1660
  706MOL0     C97312   5.508   7.624  10.511 -0.0124 -0.5009  0.5135
  706MOL0     C97313   5.437   7.761  10.558 -0.9705  0.6032 -0.1004
  706MOL0     O97314   5.357   7.799  10.446 -0.4246 -0.2257 -0.6539
  706MOL0     C97315   5.414   7.868  10.341  0.3103 -0.3891  0.0089
  706MOL0     C97316   5.339   7.891  10.225  0.0642  0.5228 -0.0698
  706MOL0     C97317   5.389   7.963  10.111 -0.9068  0.1821  0.1281
  706MOL0     C97318   5.296   7.977   9.990  0.1210 -0.1019 -0.0357
  706MOL0     C97319   5.520   8.011  10.120 -0.2876  0.2821 -0.8306
  706MOL0     C97320   5.591   8.079  10.014 -0.5356  0.0246  0.5738
  706MOL0     O97321   5.722   8.058  10.003  0.1149  0.2072  0.4806
  706MOL0     C97322   5.791   8.115   9.895  0.3404  0.1756  0.0128
  706MOL0     C97323   5.798   8.253   9.865  0.7363 -0.0426 -0.5884
  706MOL0     C97324   5.869   8.303   9.762  0.0225 -0.4551  0.1069
  706MOL0     C97325   5.946   8.221   9.685 -0.4269 -0.4450  0.2026
  706MOL0     O97326   6.024   8.288   9.600  0.8512 -0.4859 -0.1947
  706MOL0     C97327   6.098   8.210   9.509 -0.4820  0.1880  1.2625
  706MOL0     C97328   6.172   8.303   9.406 -0.0675  0.0376 -0.1738
  706MOL0     C97329   6.268   8.392   9.482  0.3766  0.9027 -0.6846
  706MOL0     C97330   6.365   8.456   9.376  0.3873  0.5990 -1.4561
  706MOL0     C97331   6.457   8.571   9.429  0.2980 -0.6734 -0.4987
  706MOL0     C97332   6.540   8.517   9.549 -1.0701 -0.2238  0.4264
  706MOL0     C97333   6.650   8.620   9.599  0.9881  0.3730 -0.2998
  706MOL0     C97334   6.774   8.559   9.657 -0.0191 -1.1090  0.5660
  706MOL0    Cl97335   6.738   8.412   9.760  0.1605  0.1993  0.2748
  706MOL0     C97336   5.959   8.090   9.716  0.5893 -0.2009 -0.3883
  706MOL0     C97337   5.876   8.035   9.820  0.5146 -0.0371  0.3435
  706MOL0     O97338   5.531   8.169   9.951  0.3735  0.0388  0.0694
  706MOL0     C97339   5.593   8.003  10.241  0.1764  0.3189  0.7782
  706MOL0     C97340   5.544   7.926  10.345  0.3428 -0.1312 -0.2186
  706MOL0     N97341   5.683   7.339  10.321  0.0149  0.1861  0.5357
  706MOL0     N97342   5.702   7.309  10.198  0.3913  0.6959 -0.6030
  706MOL0     C97343   5.761   7.106   9.154  0.5950  0.1526 -1.1080
  706MOL0     C97344   5.811   7.167   9.049 -0.4437 -0.2973 -0.2198
  706MOL0     C97345   5.827   7.498   8.770  0.8975 -0.4839 -0.4967
  706MOL0     C97346   5.952   7.457   8.714  0.5501  0.4964 -0.7836
  706MOL0     C97347   6.041   7.530   8.630  0.0768 -0.0106 -0.2369
  706MOL0     C97348   6.024   7.668   8.624  1.0880 -0.4287 -0.2386
  706MOL0     O97349   6.104   7.752   8.548  0.3630 -0.0026 -0.6785
  706MOL0     C97350   6.235   7.714   8.514 -0.1538 -0.2158  0.1464
  706MOL0     C97351   6.312   7.822   8.449 -0.3136  0.2998 -0.7901
  706MOL0     C97352   6.301   7.956   8.516  0.5187  0.1213  0.6903
  706MOL0     C97353   6.352   8.079   8.430 -0.6813 -1.0461 -0.7679
  706MOL0     C97354   6.323   8.211   8.486 -0.1105  0.5325  0.9468
  706MOL0     C97355   6.290   8.312   8.539  0.2446  0.0818 -0.8303
  706MOL0     C97356   5.909   7.720   8.688 -0.0140 -0.3138  0.3541
  706MOL0     C97357   5.815   7.643   8.756 -0.7088 -0.7158  0.5042
  706MOL0     C97358   5.701   7.729   8.817 -0.2550  0.1254 -0.2053
  706MOL0     H97359   5.557   7.165   8.845  0.2890  1.1877  0.5959
  706MOL0     H97360   5.462   7.016   9.010  0.4194 -2.1700  0.7206
  706MOL0     H97361   5.407   6.931   9.212  2.3362 -0.7165 -1.2641
  706MOL0     H97362   5.407   7.069   9.319 -1.1870 -1.7589  1.7626
  706MOL0     H97363   5.340   6.859   9.445 -0.3028  3.0834  2.7017
  706MOL0     H97364   5.489   6.783   9.359  1.0615 -0.3901  0.3437
  706MOL0     H97365   5.483   6.794   9.606  1.5202  2.0209  2.5083
  706MOL0     H97366   5.630   6.842   9.534 -0.3684 -1.8362 -3.6552
  706MOL0     H97367   5.547   7.084   9.556  3.3795 -1.4330  0.0751
  706MOL0     H97368   5.391   7.005   9.625 -0.4352 -2.6118  0.2121
  706MOL0     H97369   5.675   7.013   9.731 -0.5003  0.2819  2.0502
  706MOL0     H97370   5.553   6.920   9.823 -0.0990  1.2342  3.0072
  706MOL0     H97371   5.579   7.206   9.762  1.7636  2.0872  3.8071
  706MOL0     H97372   5.419   7.127   9.816  0.1904 -2.8106 -2.0775
  706MOL0     H97373   5.674   7.101   9.983  0.0982 -1.3294 -2.5477
  706MOL0     H97374   5.504   7.088  10.024 -1.4897 -0.0606 -0.7082
  706MOL0     H97375   5.662   7.346   9.949 -0.7773  3.7678  3.1865
  706MOL0     H97376   5.500   7.342   9.939  0.4782 -0.5063 -1.5395
  706MOL0     H97377   5.380   7.361  10.205 -0.3755  0.4339  0.0237
  706MOL0     H97378   5.559   7.337  10.556  0.4575  0.3441 -1.1832
  706MOL0     H97379   5.406   7.297  10.494 -2.8844  2.8924  0.0693
  706MOL0     H97380   5.325   7.521  10.451  0.9204 -0.6318 -0.5938
  706MOL0     H97381   5.376   7.490  10.615  1.5487 -0.2602  0.4963
  706MOL0     H97382   5.579   7.603  10.593 -2.3794 -2.1105  2.2907
  706MOL0     H97383   5.566   7.630  10.419 -1.5130 -2.4307 -0.6269
  706MOL0     H97384   5.368   7.740  10.641 -1.6921 -2.7217 -1.3875
  706MOL0     H97385   5.496   7.847  10.592 -0.7227  0.4031 -0.0172
  706MOL0     H97386   5.239   7.849  10.235  0.6193 -0.9333 -0.4202
  706MOL0     H97387   5.348   7.992   9.896  2.4102 -1.2070  0.9678
  706MOL0     H97388   5.225   8.059  10.008 -3.4842 -2.2291 -3.0595
  706MOL0     H97389   5.230   7.889   9.990 -1.1704  0.8083 -1.9397
  706MOL0     H97390   5.742   8.319   9.931  0.7914 -3.2747  3.0256
  706MOL0     H97391   5.854   8.408   9.739 -0.6636 -0.6414 -0.3338
  706MOL0     H97392   6.178   8.161   9.566  3.0330  4.2214  0.3432
  706MOL0     H97393   6.036   8.159   9.435  1.9057  2.5447 -2.7342
  706MOL0     H97394   6.218   8.240   9.329 -1.5894 -1.5007  0.1134
  706MOL0     H97395   6.104   8.370   9.354  0.7183  1.1674  0.2180
  706MOL0     H97396   6.340   8.348   9.552 -0.9546  0.0171  0.1935
  706MOL0     H97397   6.214   8.471   9.535  0.2219 -0.0226  0.5830
  706MOL0     H97398   6.301   8.491   9.296 -1.6763 -2.9309 -1.5388
  706MOL0     H97399   6.418   8.365   9.345 -1.9914 -0.8725 -1.4858
  706MOL0     H97400   6.529   8.611   9.357  2.3540 -2.0957  0.6502
  706MOL0     H97401   6.390   8.655   9.446  1.2111  0.8871 -3.8207
  706MOL0     H97402   6.598   8.430   9.518 -0.4646  0.1580  0.4785
  706MOL0     H97403   6.475   8.489   9.633 -1.2160 -1.7774 -0.1670
  706MOL0     H97404   6.592   8.687   9.664 -3.7533  0.2908 -3.8858
  706MOL0     H97405   6.672   8.692   9.519 -0.7021  1.5466  0.2092
  706MOL0     H97406   6.826   8.638   9.712  0.1116  0.0380 -1.1164
  706MOL0     H97407   6.837   8.521   9.576  0.9469 -0.7109  1.1140
  706MOL0     H97408   6.028   8.025   9.663  1.2167 -0.6512  0.9258
  706MOL0     H97409   5.859   7.929   9.837 -1.9026  0.1734 -0.3326
  706MOL0     H97410   5.688   8.056  10.242  0.3921 -0.0600  0.8598
  706MOL0     H97411   5.604   7.915  10.435 -0.3126 -1.0384  0.1197
  706MOL0     H97412   5.825   7.088   9.240  1.1066 -0.7131 -1.6480
  706MOL0     H97413   5.912   7.206   9.064 -0.9382  0.1616  2.5463
  706MOL0     H97414   5.979   7.352   8.721  0.3907  0.2339 -3.2357
  706MOL0     H97415   6.124   7.476   8.587  1.7337  1.3685  1.1173
  706MOL0     H97416   6.276   7.681   8.610 -2.5482 -0.8506  1.0402
  706MOL0     H97417   6.241   7.627   8.448 -2.5388 -0.2903 -0.0912
  706MOL0     H97418   6.285   7.838   8.345  2.1574 -0.2837 -1.6016
  706MOL0     H97419   6.416   7.787   8.455 -0.9776 -1.5760  1.0322
  706MOL0     H97420   6.198   7.992   8.530  1.0852  2.9495 -1.3966
  706MOL0     H97421   6.349   7.962   8.615  0.2103  1.6489  0.7763
  706MOL0     H97422   6.305   8.074   8.331 -0.4308 -2.3949 -0.8420
  706MOL0     H97423   6.460   8.071   8.416 -0.2856 -0.7259  1.6279
  706MOL0     H97424   6.257   8.397   8.595  2.6887  2.4317 -2.7100
  706MOL0     H97425   5.894   7.827   8.688  2.2395  0.0628  0.1744
  706MOL0     H97426   5.697   7.818   8.753 -1.9039 -1.3935 -2.3566
  706MOL0     H97427   5.604   7.680   8.814  1.4879 -3.6384 -1.0964
  706MOL0     H97428   5.717   7.758   8.921 -2.8796  1.8457 -0.1775
  707MOL0     O97429   1.078   8.178   7.200 -0.6513  0.2426 -0.7177
  707MOL0     C97430   0.975   8.229   7.244 -0.5343  0.5225  0.2764
  707MOL0     O97431   0.961   8.361   7.286  0.6007 -0.4500 -0.1026
  707MOL0     C97432   1.077   8.434   7.309 -1.1336  0.2310 -0.9444
  707MOL0     C97433   1.134   8.425   7.438 -1.1323 -0.2122 -0.6069
  707MOL0     C97434   1.265   8.453   7.460  0.5020 -0.0955  0.2499
  707MOL0     C97435   1.338   8.517   7.357  0.4854 -0.5029 -1.0826
  707MOL0     O97436   1.465   8.562   7.387 -0.5198 -0.0735 -0.0613
  707MOL0     C97437   1.508   8.686   7.332 -1.0074 -0.7470  0.1483
  707MOL0     C97438   1.654   8.706   7.381 -0.3227  0.2089  0.1156
  707MOL0     C97439   1.735   8.813   7.310  0.6272 -0.8114  0.2056
  707MOL0     C97440   1.714   8.828   7.156 -0.7045  0.3082  0.2526
  707MOL0     C97441   1.794   8.944   7.092  0.4597  0.9139  0.2401
  707MOL0     C97442   1.939   8.914   7.075 -0.2784 -0.1555  0.3687
  707MOL0     C97443   2.003   9.018   6.986  0.4890 -0.9306  0.4587
  707MOL0     C97444   2.160   9.004   6.982 -0.0483 -0.1747  0.1314
  707MOL0     N97445   2.224   9.104   6.907 -0.4368 -0.4388  0.4774
  707MOL0     C97446   2.238   9.097   6.771  0.0130  0.0529  0.3368
  707MOL0     C97447   2.342   9.187   6.739 -0.6446  0.2225  0.6710
  707MOL0     C97448   2.395   9.217   6.599 -0.7087 -0.1595 -1.1781
  707MOL0     C97449   2.550   9.207   6.601 -0.0809  0.9676 -1.4721
  707MOL0     C97450   2.583   9.235   6.461  0.2959  0.1196 -0.0841
  707MOL0     C97451   2.725   9.281   6.435  0.9764  0.7235  0.8219
  707MOL0     O97452   2.833   9.196   6.493 -0.8691 -0.5405  0.3555
  707MOL0     C97453   2.955   9.248   6.521 -0.6637  0.6834  0.0890
  707MOL0     C97454   3.023   9.171   6.607 -0.6732 -0.0751 -0.4110
  707MOL0     C97455   3.151   9.197   6.659  0.5403  0.2745 -0.0636
  707MOL0     C97456   3.212   9.095   6.762 -0.2271  0.1559  0.5411
  707MOL0     C97457   3.216   9.308   6.605 -0.2469  0.4378 -0.3001
  707MOL0     C97458   3.358   9.352   6.647  1.0633 -1.3808  0.7800
  707MOL0     O97459   3.397   9.307   6.767 -0.4422 -0.2135  0.3177
  707MOL0     C97460   3.526   9.338   6.822 -0.1608 -0.6144  0.8308
  707MOL0     C97461   3.529   9.400   6.943 -0.6636  0.0570 -0.8897
  707MOL0     C97462   3.648   9.450   7.002 -0.2218 -0.6637 -0.1904
  707MOL0     C97463   3.768   9.417   6.932 -0.9036 -0.8262 -0.0937
  707MOL0     O97464   3.884   9.475   6.988  0.1902  0.4167 -0.0546
  707MOL0     C97465   3.998   9.394   6.969 -0.3674 -0.1359 -0.8269
  707MOL0     C97466   4.086   9.394   7.087  1.0898  0.1426  0.0416
  707MOL0     C97467   4.018   9.351   7.211 -0.2186 -0.1482  0.4205
  707MOL0     C97468   4.124   9.332   7.328  0.3753 -0.0272  0.0043
  707MOL0     C97469   4.195   9.194   7.338  0.5678 -0.1223  0.1864
  707MOL0     C97470   4.296   9.201   7.453 -0.3939 -0.1163  0.3288
  707MOL0     C97471   4.238   9.253   7.587  0.6431 -0.0633  0.7295
  707MOL0     C97472   4.342   9.275   7.693  0.1515 -1.0192 -0.7896
  707MOL0    Cl97473   4.432   9.124   7.705 -0.2675 -0.3633 -0.4787
  707MOL0     C97474   3.763   9.329   6.826  0.6713  0.5171 -0.0888
  707MOL0     C97475   3.646   9.296   6.776 -0.2394 -0.4170  0.6961
  707MOL0     O97476   3.415   9.426   6.566 -0.2837  0.1750  0.0697
  707MOL0     C97477   3.147   9.385   6.509 -0.1130 -0.5078  0.5116
  707MOL0     C97478   3.024   9.358   6.464 -0.1412  0.2171  1.0769
  707MOL0     N97479   2.385   9.247   6.851  0.2724  0.1379  0.2087
  707MOL0     N97480   2.310   9.209   6.953 -0.1136  1.1520 -0.3004
  707MOL0     C97481   1.282   8.531   7.232 -0.5176 -0.1301  0.0541
  707MOL0     C97482   1.157   8.485   7.209  0.4332 -0.0772  0.4196
  707MOL0     C97483   0.860   8.148   7.229  0.0832  0.4715 -0.2620
  707MOL0     C97484   0.864   8.018   7.289 -0.6825  0.1572  0.0987
  707MOL0     C97485   0.744   7.947   7.307 -0.0244  0.9930 -0.2902
  707MOL0     C97486   0.630   7.993   7.254 -0.1007 -0.3959  0.7962
  707MOL0     O97487   0.503   7.938   7.268  0.2031  0.7397 -0.2300
  707MOL0     C97488   0.479   7.804   7.318 -1.5495 -0.5933  0.0861
  707MOL0     C97489   0.493   7.699   7.212 -1.0921  0.3498  0.2763
  707MOL0     C97490   0.393   7.717   7.099 -1.1583  0.0041  0.3889
  707MOL0     C97491   0.461   7.667   6.968 -0.3581 -0.1866 -0.6881
  707MOL0     C97492   0.447   7.521   6.946 -0.0811  0.8241 -0.6132
  707MOL0     C97493   0.417   7.398   6.937  0.4572 -0.5683 -0.0518
  707MOL0     C97494   0.630   8.111   7.184 -0.0623  0.0973 -0.8985
  707MOL0     C97495   0.745   8.197   7.171  0.9671  1.3700  0.0320
  707MOL0     C97496   0.759   8.312   7.074  0.8609  0.6679 -0.6447
  707MOL0     H97497   1.074   8.384   7.519 -1.3405  0.1046 -0.5996
  707MOL0     H97498   1.307   8.436   7.559 -1.6562 -1.9988  0.9343
  707MOL0     H97499   1.432   8.763   7.352  0.2448  0.1639  1.6022
  707MOL0     H97500   1.505   8.675   7.223 -2.6721 -1.0578  0.1930
  707MOL0     H97501   1.652   8.737   7.486  0.4231  1.1103 -0.1235
  707MOL0     H97502   1.717   8.616   7.385 -0.1214  0.2978 -0.8451
  707MOL0     H97503   1.721   8.910   7.358  0.3850 -1.3736  1.3232
  707MOL0     H97504   1.839   8.789   7.332  1.6062  3.0119  0.3597
  707MOL0     H97505   1.737   8.730   7.113 -3.5142 -0.1630 -0.3644
  707MOL0     H97506   1.609   8.839   7.128 -0.4498 -3.6640 -3.3237
  707MOL0     H97507   1.780   9.041   7.141 -1.8985  0.6702  0.1619
  707MOL0     H97508   1.748   8.949   6.993  2.9462 -0.2471 -1.0799
  707MOL0     H97509   1.989   8.910   7.172  1.1899  0.7445 -0.3176
  707MOL0     H97510   1.942   8.812   7.036 -0.4266 -0.0536  0.0918
  707MOL0     H97511   1.965   9.115   7.020  0.5488  0.0997 -2.2180
  707MOL0     H97512   1.963   9.022   6.885 -1.2168  1.1046  1.1199
  707MOL0     H97513   2.203   8.999   7.082  0.9508 -0.1185 -0.2907
  707MOL0     H97514   2.184   8.905   6.941  3.8082 -1.2839  4.2989
  707MOL0     H97515   2.173   9.035   6.709 -2.5769  0.6218  2.2910
  707MOL0     H97516   2.350   9.312   6.569  1.0079  1.0608 -0.0339
  707MOL0     H97517   2.353   9.139   6.534  0.3409  0.5392 -2.7752
  707MOL0     H97518   2.599   9.282   6.664 -1.2563  0.2259  0.4345
  707MOL0     H97519   2.592   9.109   6.626  1.0985  2.0856  1.4171
  707MOL0     H97520   2.562   9.145   6.401 -3.5508  0.1060  0.9768
  707MOL0     H97521   2.518   9.319   6.434 -2.6517 -1.3076  1.9851
  707MOL0     H97522   2.736   9.275   6.326 -2.0342 -2.0349  0.4981
  707MOL0     H97523   2.743   9.386   6.460 -2.1561  1.8055 -0.9367
  707MOL0     H97524   2.966   9.085   6.639 -1.0871  0.2216 -0.3328
  707MOL0     H97525   3.166   8.996   6.763  1.4438 -0.6806  1.6918
  707MOL0     H97526   3.192   9.139   6.860 -3.6860  1.0539 -0.4489
  707MOL0     H97527   3.318   9.068   6.750  0.7228  0.7487  5.3899
  707MOL0     H97528   3.440   9.426   6.999  0.3901  0.9919  0.4377
  707MOL0     H97529   3.655   9.503   7.097 -0.5596 -0.6757 -0.1583
  707MOL0     H97530   3.973   9.290   6.951  0.0896 -0.0231 -2.2422
  707MOL0     H97531   4.052   9.436   6.883  0.3392  0.8260  0.0586
  707MOL0     H97532   4.161   9.319   7.060 -1.1989 -2.4948  0.5639
  707MOL0     H97533   4.140   9.488   7.104  0.7336  0.6426 -1.3706
  707MOL0     H97534   3.972   9.254   7.187  0.4081 -0.2315 -0.5192
  707MOL0     H97535   3.948   9.429   7.242  1.8554  1.4628  1.2746
  707MOL0     H97536   4.065   9.343   7.419 -0.1135  1.2419 -0.4492
  707MOL0     H97537   4.205   9.405   7.332  1.1657 -0.9186  0.9766
  707MOL0     H97538   4.121   9.114   7.353  0.4360 -1.1413 -4.4142
  707MOL0     H97539   4.245   9.171   7.243  3.7498  1.1339  1.4312
  707MOL0     H97540   4.387   9.256   7.426  1.5501 -2.9735  0.5704
  707MOL0     H97541   4.331   9.097   7.452  0.9417  0.2519 -2.2550
  707MOL0     H97542   4.161   9.180   7.613 -1.4637  1.2802 -1.3207
  707MOL0     H97543   4.180   9.345   7.577  2.3647  0.9044 -0.9984
  707MOL0     H97544   4.294   9.303   7.787 -0.1032  0.3728 -1.3174
  707MOL0     H97545   4.405   9.361   7.670  0.0146 -0.8882 -0.6729
  707MOL0     H97546   3.855   9.303   6.774  1.7138  3.2266  0.2431
  707MOL0     H97547   3.659   9.250   6.678 -0.1393 -0.6135  0.8010
  707MOL0     H97548   3.196   9.477   6.480  2.5906 -2.0682 -0.1800
  707MOL0     H97549   2.976   9.427   6.395  1.1572  1.1377  1.0521
  707MOL0     H97550   1.332   8.568   7.144 -0.6190  0.6604  0.3249
  707MOL0     H97551   1.111   8.497   7.112 -1.9645 -0.4856  1.4270
  707MOL0     H97552   0.952   7.976   7.335 -0.9007  0.4337  0.7813
  707MOL0     H97553   0.741   7.856   7.367 -0.3516  1.8202  1.0006
  707MOL0     H97554   0.541   7.774   7.403  0.3450 -0.4021 -1.1613
  707MOL0     H97555   0.375   7.821   7.348 -0.9359  3.2870  0.6219
  707MOL0     H97556   0.479   7.597   7.251 -2.3573 -0.0716 -1.1762
  707MOL0     H97557   0.595   7.704   7.172 -1.2343  1.5945  0.0281
  707MOL0     H97558   0.303   7.658   7.118  0.1706 -2.2238  0.1580
  707MOL0     H97559   0.374   7.824   7.089  0.0540  0.1025 -1.3681
  707MOL0     H97560   0.564   7.700   6.954 -0.3318 -0.5446 -1.4075
  707MOL0     H97561   0.407   7.723   6.890 -1.0828  0.9196  0.5637
  707MOL0     H97562   0.413   7.292   6.927  3.5441 -0.9273  1.3831
  707MOL0     H97563   0.535   8.144   7.144 -0.0738  0.7273 -0.3636
  707MOL0     H97564   0.666   8.312   7.018  0.5017 -1.9173 -0.1967
  707MOL0     H97565   0.773   8.407   7.127  3.3389 -0.2174  0.4586
  707MOL0     H97566   0.831   8.295   6.993  0.6197  0.4493 -0.8161
  708MOL0     O97567   4.491  10.968   8.801 -0.0277  0.1493  0.6054
  708MOL0     C97568   4.426  11.029   8.890 -0.9506  0.5364  0.8611
  708MOL0     O97569   4.470  11.147   8.955 -0.0220  0.4110 -0.0714
  708MOL0     C97570   4.565  11.222   8.892 -0.0078  0.0544  0.3778
  708MOL0     C97571   4.679  11.253   8.965  0.3578 -0.3003 -0.0213
  708MOL0     C97572   4.785  11.313   8.898  0.5360  0.1625  0.9039
  708MOL0     C97573   4.784  11.356   8.763 -0.3080  0.7022  0.4009
  708MOL0     O97574   4.884  11.433   8.716 -0.1383 -0.5145 -0.1993
  708MOL0     C97575   4.841  11.541   8.630  0.0447 -0.2575  0.7994
  708MOL0     C97576   4.902  11.525   8.496  0.3291 -0.1221 -0.4007
  708MOL0     C97577   5.007  11.631   8.447 -0.4989 -0.4663 -0.3740
  708MOL0     C97578   4.950  11.772   8.452 -0.1868  0.4946 -0.5632
  708MOL0     C97579   5.050  11.877   8.404  0.5845  0.6942  0.1930
  708MOL0     C97580   4.995  12.017   8.419  0.0426 -0.6832  0.0069
  708MOL0     C97581   4.905  12.059   8.293 -1.1593 -0.9467 -0.5549
  708MOL0     C97582   4.869  12.209   8.297 -0.8093  0.5473 -0.1559
  708MOL0     N97583   4.969  12.282   8.213 -0.2758 -0.2186  0.6637
  708MOL0     C97584   4.940  12.353   8.098  0.6406 -0.3291 -0.2590
  708MOL0     C97585   5.050  12.403   8.046 -0.3872 -0.1392  0.2501
  708MOL0     C97586   5.068  12.485   7.920  0.1702  0.5658  0.5652
  708MOL0     C97587   5.207  12.458   7.857  0.5394  0.6577 -0.5623
  708MOL0     C97588   5.206  12.519   7.713  0.4757  0.0715 -0.1743
  708MOL0     C97589   5.343  12.494   7.643  0.2433  0.7100 -0.4783
  708MOL0     O97590   5.366  12.348   7.633 -0.4786 -0.5702 -0.0386
  708MOL0     C97591   5.484  12.316   7.577  0.7030 -0.6908 -0.0144
  708MOL0     C97592   5.510  12.342   7.443  0.1023 -0.2779 -0.6469
  708MOL0     C97593   5.634  12.305   7.385  0.0724 -1.6648  0.7270
  708MOL0     C97594   5.638  12.326   7.234 -0.3696 -0.2591  0.9278
  708MOL0     C97595   5.733  12.244   7.467  0.0868  0.2309 -0.7446
  708MOL0     C97596   5.873  12.220   7.422 -0.1653 -0.5574  0.3342
  708MOL0     O97597   5.950  12.158   7.518 -0.0598  0.4179 -0.4735
  708MOL0     C97598   6.074  12.105   7.485  1.0886  0.0419  0.4408
  708MOL0     C97599   6.165  12.104   7.595  0.1807 -0.6309  0.3057
  708MOL0     C97600   6.295  12.058   7.578  0.2315 -0.3113 -0.7460
  708MOL0     C97601   6.333  12.015   7.446 -0.5258  0.8047 -0.7969
  708MOL0     O97602   6.451  11.967   7.406  0.0520  0.0026 -0.0257
  708MOL0     C97603   6.560  11.988   7.501  0.2049  0.2666  0.1275
  708MOL0     C97604   6.681  11.918   7.442  0.3540 -0.5511 -0.1251
  708MOL0     C97605   6.809  11.958   7.517  0.5881  0.1674 -0.0474
  708MOL0     C97606   6.927  11.860   7.491 -0.3273 -1.0069 -0.1115
  708MOL0     C97607   7.039  11.904   7.584  0.3196  0.3748  0.3458
  708MOL0     C97608   7.164  11.819   7.591 -0.3961  0.5832 -0.1624
  708MOL0     C97609   7.148  11.691   7.686  0.3633 -0.1790  0.0561
  708MOL0     C97610   7.280  11.609   7.684  0.0102 -0.3840 -0.2297
  708MOL0    Cl97611   7.289  11.515   7.836  0.1994 -0.3908 -0.2479
  708MOL0     C97612   6.240  12.011   7.342  0.3024  0.7460  0.2618
  708MOL0     C97613   6.111  12.056   7.357  0.9111 -0.0043 -0.3007
  708MOL0     O97614   5.916  12.273   7.312  0.3780  0.1663 -0.9898
  708MOL0     C97615   5.706  12.228   7.604 -1.4405  0.0625 -0.6000
  708MOL0     C97616   5.578  12.260   7.654 -0.3242  0.3190 -0.2295
  708MOL0     N97617   5.158  12.363   8.125 -0.7215 -0.4061 -1.1958
  708MOL0     N97618   5.105  12.282   8.218 -0.1974  0.5842  0.0107
  708MOL0     C97619   4.675  11.308   8.694  0.2361  0.8894 -0.0725
  708MOL0     C97620   4.563  11.255   8.755  1.0040  0.4552 -0.3982
  708MOL0     C97621   4.293  10.975   8.929 -0.4890 -0.5994  0.3295
  708MOL0     C97622   4.218  11.048   9.025  0.2442 -0.0502  0.2621
  708MOL0     C97623   4.091  11.008   9.068 -0.1576 -0.2810  0.1356
  708MOL0     C97624   4.028  10.907   9.005  0.4835 -0.5029  0.4142
  708MOL0     O97625   3.901  10.852   9.033 -0.1457 -0.0852 -0.1319
  708MOL0     C97626   3.823  10.914   9.132 -0.4468 -0.1009  0.5813
  708MOL0     C97627   3.712  10.821   9.159  0.3065 -0.1274 -0.2074
  708MOL0     C97628   3.645  10.751   9.032  1.2203 -0.7584  0.9462
  708MOL0     C97629   3.592  10.840   8.924  0.3223 -0.6234 -0.3555
  708MOL0     C97630   3.550  10.746   8.817  2.0134 -0.3384  0.8280
  708MOL0     C97631   3.516  10.651   8.744 -0.2410 -0.2885 -0.2330
  708MOL0     C97632   4.095  10.832   8.907 -0.0518 -0.5464  0.8262
  708MOL0     C97633   4.229  10.863   8.867 -0.4291 -0.7850  0.4117
  708MOL0     C97634   4.291  10.776   8.758  0.5023 -0.4967 -0.5832
  708MOL0     H97635   4.684  11.222   9.069  1.1132  0.4704  0.1792
  708MOL0     H97636   4.865  11.333   8.968 -0.6119  0.6804  2.1060
  708MOL0     H97637   4.888  11.630   8.671 -0.5528 -0.3899  1.8010
  708MOL0     H97638   4.733  11.558   8.634 -0.2788 -2.2621  2.4035
  708MOL0     H97639   4.960  11.432   8.500 -0.6671 -0.7361  0.2926
  708MOL0     H97640   4.820  11.513   8.424  1.1723 -2.5226 -1.0599
  708MOL0     H97641   5.091  11.625   8.516 -1.0061  3.2222  0.7736
  708MOL0     H97642   5.045  11.605   8.347  0.2302  1.1567 -0.5544
  708MOL0     H97643   4.850  11.771   8.409 -0.7700 -0.1650  0.7582
  708MOL0     H97644   4.928  11.790   8.557 -1.4843 -1.0337 -0.5362
  708MOL0     H97645   5.081  11.859   8.301  2.0020  2.0707  0.3239
  708MOL0     H97646   5.136  11.863   8.470  0.8929  0.4708 -0.2481
  708MOL0     H97647   4.935  12.029   8.510 -2.5988  0.5280 -1.7377
  708MOL0     H97648   5.084  12.080   8.415 -1.2466  1.2232 -0.3566
  708MOL0     H97649   4.816  11.996   8.280 -2.0634  0.2411 -0.2461
  708MOL0     H97650   4.962  12.039   8.202  0.7430  1.8322 -0.0885
  708MOL0     H97651   4.774  12.228   8.248 -0.4876 -1.9914 -1.9375
  708MOL0     H97652   4.868  12.240   8.402 -1.8494  0.4545 -0.1363
  708MOL0     H97653   4.840  12.375   8.062 -0.2656  1.9415  3.1885
  708MOL0     H97654   5.064  12.594   7.933  1.7052  0.6654  0.3371
  708MOL0     H97655   4.996  12.460   7.842  0.1239  1.4816  0.3027
  708MOL0     H97656   5.294  12.499   7.909 -1.7077  1.3450  2.9607
  708MOL0     H97657   5.216  12.349   7.854 -1.0225  0.5037 -0.6504
  708MOL0     H97658   5.119  12.478   7.661 -0.0262  2.3900 -1.2843
  708MOL0     H97659   5.195  12.627   7.707  0.7967  0.1305  0.2025
  708MOL0     H97660   5.334  12.544   7.546  0.4841 -2.3402 -2.2119
  708MOL0     H97661   5.425  12.537   7.700 -2.6582  0.6413  4.2668
  708MOL0     H97662   5.427  12.375   7.382 -2.0955 -2.5664  0.8909
  708MOL0     H97663   5.704  12.409   7.206 -1.4088 -0.1577 -1.4686
  708MOL0     H97664   5.540  12.344   7.188  0.2284  0.5379 -0.0635
  708MOL0     H97665   5.677  12.237   7.185 -2.7080 -0.5895 -0.4852
  708MOL0     H97666   6.125  12.147   7.686 -3.1588  0.2380 -1.4132
  708MOL0     H97667   6.368  12.068   7.657  0.7140  0.4104 -1.2736
  708MOL0     H97668   6.586  12.090   7.529 -2.3162  0.2410  3.2549
  708MOL0     H97669   6.534  11.947   7.600 -2.2247  1.5516  0.1122
  708MOL0     H97670   6.663  11.812   7.460 -1.2049  0.0584  2.5286
  708MOL0     H97671   6.684  11.935   7.334 -1.8333 -0.1664 -0.1755
  708MOL0     H97672   6.799  11.971   7.625 -0.1151 -2.6695  0.3147
  708MOL0     H97673   6.842  12.053   7.474  0.3320  0.6050  0.7021
  708MOL0     H97674   6.954  11.857   7.385  0.0570  0.4867 -0.0893
  708MOL0     H97675   6.905  11.756   7.514  0.2499 -1.4080 -1.2983
  708MOL0     H97676   7.067  12.006   7.553 -0.6704  0.0424 -1.8878
  708MOL0     H97677   6.996  11.915   7.684 -2.1040  0.5485 -0.6529
  708MOL0     H97678   7.247  11.876   7.633  0.3057 -1.1811  0.9729
  708MOL0     H97679   7.190  11.791   7.489  0.6336 -0.5834  0.3952
  708MOL0     H97680   7.069  11.621   7.656 -0.6274 -0.7169  3.4917
  708MOL0     H97681   7.126  11.712   7.791 -2.3521 -3.4848  0.3498
  708MOL0     H97682   7.370  11.668   7.667  0.0649 -0.1227  0.8904
  708MOL0     H97683   7.274  11.542   7.598 -0.5944 -1.5956  0.7175
  708MOL0     H97684   6.275  11.969   7.248 -1.4414 -4.1578  1.4813
  708MOL0     H97685   6.038  12.039   7.278 -2.1559  1.1608  2.0981
  708MOL0     H97686   5.785  12.200   7.672  0.7833 -0.2601 -3.1501
  708MOL0     H97687   5.554  12.261   7.760 -0.3336  0.4730 -0.2319
  708MOL0     H97688   4.680  11.314   8.586  1.7955  0.4428 -0.0517
  708MOL0     H97689   4.468  11.236   8.706  1.9046 -0.4824 -1.8430
  708MOL0     H97690   4.270  11.128   9.076 -0.6508  0.0900  0.9765
  708MOL0     H97691   4.036  11.060   9.147 -1.4892 -4.3381  2.1735
  708MOL0     H97692   3.888  10.926   9.219  1.0403 -2.2080 -0.1577
  708MOL0     H97693   3.777  11.004   9.089 -0.8576 -1.7721 -2.8118
  708MOL0     H97694   3.642  10.884   9.214 -0.4861 -1.0788 -0.1072
  708MOL0     H97695   3.749  10.745   9.228  0.8027 -0.7375 -1.1199
  708MOL0     H97696   3.710  10.678   8.983  0.5188 -2.5153  2.4975
  708MOL0     H97697   3.565  10.688   9.073 -0.6615  0.4779 -0.6213
  708MOL0     H97698   3.671  10.905   8.885 -0.2078 -0.0361 -0.4633
  708MOL0     H97699   3.508  10.898   8.964  1.3705 -0.0262  1.0296
  708MOL0     H97700   3.480  10.562   8.697 -0.7248 -0.0864 -0.2483
  708MOL0     H97701   4.035  10.757   8.856 -1.0059 -1.0519  2.5860
  708MOL0     H97702   4.369  10.729   8.817  0.3063 -0.6134 -0.4149
  708MOL0     H97703   4.221  10.697   8.729  0.0258 -0.9477  1.6323
  708MOL0     H97704   4.322  10.833   8.670 -0.7462 -0.7612 -1.2252
  709MOL0     O97705   4.519  10.301   8.175 -0.3475  0.3916 -0.6117
  709MOL0     C97706   4.412  10.321   8.110 -0.5903  1.0891  0.9268
  709MOL0     O97707   4.407  10.403   8.003  0.0269 -0.1812 -0.0479
  709MOL0     C97708   4.525  10.458   7.958 -0.7566 -0.0722 -0.2964
  709MOL0     C97709   4.613  10.391   7.875  0.0102  0.1818 -0.2298
  709MOL0     C97710   4.737  10.449   7.842  1.3412 -0.4255  0.0668
  709MOL0     C97711   4.768  10.585   7.872 -0.0771  0.3542 -0.0573
  709MOL0     O97712   4.880  10.649   7.832 -0.0026  0.2653 -0.1047
  709MOL0     C97713   4.959  10.597   7.722  0.5265  0.9961 -0.1572
  709MOL0     C97714   5.033  10.719   7.654  0.3064  0.6035 -0.1288
  709MOL0     C97715   5.105  10.681   7.531 -0.6005  0.1580  0.1343
  709MOL0     C97716   5.157  10.805   7.453 -0.6209 -0.0497 -0.1515
  709MOL0     C97717   5.253  10.764   7.342  0.1274  0.8318 -0.5179
  709MOL0     C97718   5.305  10.882   7.271 -0.2890 -0.4670  0.0578
  709MOL0     C97719   5.387  10.828   7.152 -1.2780  0.5335  0.6378
  709MOL0     C97720   5.390  10.912   7.030  0.9472 -0.4659  0.5385
  709MOL0     N97721   5.252  10.917   6.969  0.2989  0.2001 -0.2317
  709MOL0     C97722   5.154  11.014   6.979  1.2568  1.1846  0.0623
  709MOL0     C97723   5.073  10.979   6.872 -0.2779  0.6992  0.0760
  709MOL0     C97724   4.977  11.077   6.811  0.1147 -0.9547 -0.2879
  709MOL0     C97725   4.841  11.049   6.869  0.0127 -0.2290 -0.4383
  709MOL0     C97726   4.829  11.050   7.025 -0.0019  0.5508 -0.0028
  709MOL0     C97727   4.682  11.022   7.059 -0.0283  0.6270 -0.2586
  709MOL0     O97728   4.597  11.109   6.984 -0.3158 -0.1049 -0.5428
  709MOL0     C97729   4.463  11.076   6.983 -0.0905  0.3011  0.6147
  709MOL0     C97730   4.390  11.085   7.101  0.0725  0.9719 -0.4532
  709MOL0     C97731   4.259  11.037   7.107 -0.3171 -0.6244  0.1949
  709MOL0     C97732   4.187  11.047   7.238  0.1674  0.7788  0.5207
  709MOL0     C97733   4.190  10.996   6.992  0.2731  0.7576  0.4816
  709MOL0     C97734   4.058  10.922   7.000  0.4898 -0.3028  0.7581
  709MOL0     O97735   4.045  10.798   7.042  0.2491  0.7839  0.3620
  709MOL0     C97736   3.916  10.745   7.069 -0.0659 -0.9844  0.7630
  709MOL0     C97737   3.804  10.821   7.116 -0.7879 -0.3504  0.5878
  709MOL0     C97738   3.682  10.766   7.143  0.0038 -0.3291 -0.1320
  709MOL0     C97739   3.664  10.626   7.118  0.3505 -0.2294 -0.6807
  709MOL0     O97740   3.534  10.582   7.127  0.4346 -0.1094  0.3175
  709MOL0     C97741   3.470  10.559   7.002  0.4941 -0.4564 -0.5519
  709MOL0     C97742   3.314  10.550   7.000  0.4471 -0.8174  0.8188
  709MOL0     C97743   3.247  10.593   6.868 -0.1617 -0.4975  0.7052
  709MOL0     C97744   3.285  10.495   6.752  0.1472 -0.6806  0.5989
  709MOL0     C97745   3.300  10.559   6.607  0.0865 -0.7065  0.4170
  709MOL0     C97746   3.350  10.466   6.497  0.4783 -0.2834  0.0247
  709MOL0     C97747   3.376  10.529   6.366  0.2727  1.0807 -0.1197
  709MOL0     C97748   3.404  10.437   6.246 -0.2559  0.0195 -0.1398
  709MOL0    Cl97749   3.245  10.392   6.187 -0.4709 -0.1176  0.3866
  709MOL0     C97750   3.777  10.551   7.073 -0.1514 -0.5159  0.6861
  709MOL0     C97751   3.900  10.608   7.054  0.0888 -0.9371 -0.2119
  709MOL0     O97752   3.969  10.985   6.941 -0.1672  0.4691  0.0543
  709MOL0     C97753   4.274  10.998   6.878  0.2073 -0.1106  0.0995
  709MOL0     C97754   4.408  11.032   6.869 -1.1671 -0.5119 -0.2612
  709MOL0     N97755   5.117  10.867   6.811 -1.1643  0.1311 -0.0003
  709MOL0     N97756   5.219  10.821   6.877  0.3076  0.0971 -0.2462
  709MOL0     C97757   4.677  10.652   7.949 -0.0605 -0.7734  0.4154
  709MOL0     C97758   4.567  10.580   7.999 -1.1774 -0.7302  0.0482
  709MOL0     C97759   4.284  10.261   8.153 -0.1591 -0.2576  0.0724
  709MOL0     C97760   4.164  10.290   8.083  0.2556  0.3275 -0.6319
  709MOL0     C97761   4.040  10.236   8.112 -0.1849  0.9058 -0.3726
  709MOL0     C97762   4.037  10.130   8.201 -0.4582 -0.3665  0.3277
  709MOL0     O97763   3.917  10.071   8.228 -0.3703  0.5552  0.2476
  709MOL0     C97764   3.906   9.976   8.329  0.3271  0.9382 -0.0584
  709MOL0     C97765   3.753   9.930   8.317  0.1234 -0.2019 -0.4939
  709MOL0     C97766   3.657  10.024   8.385  0.3453 -0.1310  0.6530
  709MOL0     C97767   3.521   9.952   8.394 -0.3886  0.5858  0.0176
  709MOL0     C97768   3.509   9.854   8.504 -0.5198  0.6872  0.4802
  709MOL0     C97769   3.481   9.768   8.591  0.0933  0.3525 -0.3414
  709MOL0     C97770   4.149  10.104   8.283 -0.0389  0.5373  0.1793
  709MOL0     C97771   4.274  10.164   8.261 -0.3498 -1.1656  0.2539
  709MOL0     C97772   4.380  10.119   8.346 -0.1714  0.5134 -0.0934
  709MOL0     H97773   4.586  10.288   7.858  0.1811 -0.1453  1.3833
  709MOL0     H97774   4.786  10.391   7.764  0.2371 -1.2591 -0.0287
  709MOL0     H97775   4.893  10.557   7.644  1.3015 -4.0193  1.4034
  709MOL0     H97776   5.030  10.524   7.761  0.5763  1.1129 -0.0313
  709MOL0     H97777   4.948  10.782   7.628 -0.7544 -0.1594  1.3246
  709MOL0     H97778   5.101  10.764   7.727  2.7793 -1.3022 -1.1178
  709MOL0     H97779   5.194  10.624   7.558 -0.5834  1.0404  2.0873
  709MOL0     H97780   5.037  10.628   7.464 -1.2750  1.3555 -0.1657
  709MOL0     H97781   5.064  10.845   7.413 -0.8307 -1.2232 -0.9016
  709MOL0     H97782   5.203  10.890   7.504 -1.6794  2.3637 -2.9746
  709MOL0     H97783   5.197  10.702   7.271  0.4795 -0.5597  0.3676
  709MOL0     H97784   5.336  10.704   7.383  0.2515  1.8203  0.7191
  709MOL0     H97785   5.222  10.944   7.237 -0.1627 -0.5127 -0.3384
  709MOL0     H97786   5.371  10.937   7.338  0.5657  0.5642 -1.5815
  709MOL0     H97787   5.366  10.726   7.119  1.1461  1.0815 -3.2720
  709MOL0     H97788   5.493  10.828   7.178 -0.6165  2.5076 -1.6665
  709MOL0     H97789   5.423  11.014   7.050  0.5038 -0.5745  1.9609
  709MOL0     H97790   5.465  10.880   6.958  1.0113  3.1849 -1.2195
  709MOL0     H97791   5.147  11.099   7.046  0.4771 -1.5359  3.7472
  709MOL0     H97792   4.982  11.072   6.702 -2.8071 -1.0104 -0.4994
  709MOL0     H97793   5.004  11.176   6.850 -0.9209  0.4195 -2.8311
  709MOL0     H97794   4.771  11.120   6.825 -0.0713  0.7879  1.2398
  709MOL0     H97795   4.806  10.958   6.821 -1.2386 -0.3830  0.6924
  709MOL0     H97796   4.898  10.981   7.075  0.6374 -0.3293 -1.9673
  709MOL0     H97797   4.843  11.153   7.060  0.1840  1.0514 -1.4937
  709MOL0     H97798   4.651  10.919   7.036  1.1373  0.1204  0.3818
  709MOL0     H97799   4.665  11.038   7.166  0.2199 -0.2988 -0.0732
  709MOL0     H97800   4.436  11.127   7.190 -2.3497 -0.1673  1.4661
  709MOL0     H97801   4.078  11.056   7.229  0.0014 -1.7497 -1.2322
  709MOL0     H97802   4.218  11.130   7.301  0.8212 -0.3181  1.6805
  709MOL0     H97803   4.208  10.947   7.277  2.4655 -0.9350 -4.2235
  709MOL0     H97804   3.821  10.924   7.146  3.3875 -0.1674 -1.7154
  709MOL0     H97805   3.596  10.819   7.183 -0.5745 -0.9330 -0.5446
  709MOL0     H97806   3.490  10.648   6.942 -1.9287 -1.3988 -2.9662
  709MOL0     H97807   3.524  10.475   6.958  4.5838  1.5124  0.1711
  709MOL0     H97808   3.286  10.445   7.016  2.7745 -1.7623 -0.6969
  709MOL0     H97809   3.267  10.616   7.073 -5.7891 -2.4454 -1.1132
  709MOL0     H97810   3.280  10.694   6.840 -1.9318 -0.2486 -0.6353
  709MOL0     H97811   3.137  10.595   6.870 -0.2480 -1.8918 -0.9206
  709MOL0     H97812   3.204  10.423   6.750  0.3826 -0.9520 -2.2072
  709MOL0     H97813   3.376  10.436   6.764  1.2580  0.7409 -0.4158
  709MOL0     H97814   3.205  10.603   6.576  1.0137  0.9145 -0.2294
  709MOL0     H97815   3.366  10.646   6.616 -0.9791  0.3280 -1.2508
  709MOL0     H97816   3.271  10.391   6.490 -0.9405  1.2375 -1.0847
  709MOL0     H97817   3.437  10.412   6.536  2.0086  1.4239 -0.9109
  709MOL0     H97818   3.466  10.588   6.387  1.9418 -1.0010 -0.9952
  709MOL0     H97819   3.298  10.599   6.336  1.1024  1.1316 -2.3523
  709MOL0     H97820   3.451  10.343   6.278 -2.2970 -0.5747  1.2984
  709MOL0     H97821   3.452  10.498   6.169  0.0659  0.8986  0.7409
  709MOL0     H97822   3.766  10.448   7.041  0.8940 -0.1006 -1.0906
  709MOL0     H97823   3.990  10.558   7.020 -0.7281 -2.6087 -0.0041
  709MOL0     H97824   4.217  10.964   6.792 -0.5173  3.7032 -1.0842
  709MOL0     H97825   4.464  11.028   6.777  0.0520 -1.5146  0.4913
  709MOL0     H97826   4.701  10.756   7.974 -2.0596 -0.1668 -0.0400
  709MOL0     H97827   4.505  10.627   8.075  0.8988  2.5614 -0.0828
  709MOL0     H97828   4.172  10.363   8.004 -4.6828  0.4374 -1.3744
  709MOL0     H97829   3.954  10.275   8.059 -0.3819  2.5829  1.0867
  709MOL0     H97830   3.971   9.889   8.318  1.7755  1.9983 -0.2050
  709MOL0     H97831   3.932  10.020   8.426  4.6518 -0.1534 -0.5121
  709MOL0     H97832   3.747   9.832   8.365  0.9513  0.1501  0.3589
  709MOL0     H97833   3.727   9.924   8.211 -0.3547 -2.3599 -0.2893
  709MOL0     H97834   3.703  10.052   8.481 -0.2833  1.9415  0.3972
  709MOL0     H97835   3.641  10.111   8.321  2.7532  0.0679  0.2472
  709MOL0     H97836   3.500   9.901   8.300 -3.2128  1.3995  0.1384
  709MOL0     H97837   3.447  10.032   8.400  0.5355  1.3854  1.3395
  709MOL0     H97838   3.442   9.691   8.654  0.5952  0.1286 -0.2930
  709MOL0     H97839   4.147  10.026   8.358  2.5286 -0.0608 -0.2469
  709MOL0     H97840   4.466  10.075   8.294 -0.6598 -0.8613  0.2133
  709MOL0     H97841   4.416  10.199   8.411 -1.5381  0.8067  0.3339
  709MOL0     H97842   4.348  10.042   8.417  0.7744 -2.7166 -2.8629
  710MOL0     O97843   5.077   3.686  10.220 -0.3456 -0.3498 -0.2263
  710MOL0     C97844   5.115   3.597  10.148  1.3829  1.1327  0.1027
  710MOL0     O97845   5.237   3.537  10.147  0.3325 -0.0522 -0.2045
  710MOL0     C97846   5.316   3.585  10.250  0.0547  0.2725  0.1165
  710MOL0     C97847   5.430   3.658  10.230 -0.0959  0.0725  0.4411
  710MOL0     C97848   5.509   3.708  10.328  0.0719  0.4390  0.2268
  710MOL0     C97849   5.482   3.676  10.463  0.1861 -0.4312 -0.1785
  710MOL0     O97850   5.548   3.725  10.571 -0.2390  0.9405 -0.0540
  710MOL0     C97851   5.620   3.844  10.563 -0.4604  0.0365  0.2142
  710MOL0     C97852   5.681   3.863  10.707  0.9867 -0.7888  1.1196
  710MOL0     C97853   5.594   3.913  10.824 -0.1037  0.6333 -0.5156
  710MOL0     C97854   5.649   3.841  10.961  1.0905 -0.0062  0.9087
  710MOL0     C97855   5.579   3.895  11.087  0.1986  0.0378  1.6438
  710MOL0     C97856   5.637   3.833  11.216  0.3213  0.3734  0.4655
  710MOL0     C97857   5.776   3.888  11.241  0.4372  0.0133 -0.0773
  710MOL0     C97858   5.815   3.838  11.385  0.8382 -0.6648 -0.2537
  710MOL0     N97859   5.957   3.860  11.417  0.1933 -0.7003  0.0367
  710MOL0     C97860   6.024   3.975  11.431 -0.6145 -0.3226  0.0713
  710MOL0     C97861   6.153   3.936  11.461 -0.4832 -0.0570  0.4009
  710MOL0     C97862   6.272   4.029  11.457  0.4013  0.0626  0.0425
  710MOL0     C97863   6.325   4.057  11.590 -0.3261 -0.3053 -0.4206
  710MOL0     C97864   6.424   4.181  11.593 -0.2841  0.3710  0.8738
  710MOL0     C97865   6.511   4.196  11.711 -0.6481  0.0920  0.5260
  710MOL0     O97866   6.648   4.209  11.660  0.1049 -0.1561  0.3520
  710MOL0     C97867   6.753   4.247  11.738  0.3410  0.1059 -0.3742
  710MOL0     C97868   6.871   4.290  11.673 -0.2751  0.4322  0.4706
  710MOL0     C97869   6.976   4.341  11.748 -1.0195 -0.3382 -0.6316
  710MOL0     C97870   7.088   4.390  11.668 -0.1306  0.5678  1.2680
  710MOL0     C97871   6.960   4.341  11.890 -0.5737  0.8802 -0.4057
  710MOL0     C97872   7.075   4.393  11.976  0.3593  1.2519  0.5173
  710MOL0     O97873   7.051   4.366  12.109  0.0013  0.6684 -0.0717
  710MOL0     C97874   7.152   4.392  12.204  0.2206 -0.3339  0.1349
  710MOL0     C97875   7.124   4.430  12.341 -0.2202 -0.0151 -0.4574
  710MOL0     C97876   7.226   4.455  12.439 -0.0870  0.7778 -0.7349
  710MOL0     C97877   7.363   4.434  12.408 -0.2102 -0.3278  0.2518
  710MOL0     O97878   7.451   4.468  12.500 -0.9899  0.2836  0.0580
  710MOL0     C97879   7.589   4.422  12.480  0.8869 -0.5596 -0.4174
  710MOL0     C97880   7.658   4.458  12.614 -0.6118  0.3019 -0.3482
  710MOL0     C97881   7.806   4.406  12.609 -0.1874 -0.0985  0.7569
  710MOL0     C97882   7.858   4.391  12.750  0.6093 -0.5709 -1.2820
  710MOL0     C97883   8.010   4.356  12.743 -0.5202  0.0514 -0.8595
  710MOL0     C97884   8.068   4.352  12.888  0.9457  0.2765  0.0146
  710MOL0     C97885   8.212   4.340  12.901 -0.3830  0.5229  0.0823
  710MOL0     C97886   8.259   4.387  13.046 -0.1796 -0.3363  0.2159
  710MOL0    Cl97887   8.181   4.271  13.170  0.0460 -0.1678  0.1737
  710MOL0     C97888   7.379   4.370  12.284 -0.3113 -0.8334  0.6453
  710MOL0     C97889   7.286   4.350  12.188 -0.5980 -0.0038  0.1885
  710MOL0     O97890   7.170   4.456  11.935  0.5342  0.8783 -0.1495
  710MOL0     C97891   6.847   4.282  11.951 -0.6964 -0.3458 -0.2645
  710MOL0     C97892   6.744   4.235  11.878 -0.0050 -0.2848 -0.1021
  710MOL0     N97893   6.161   3.798  11.462  0.9342  0.6346 -0.1570
  710MOL0     N97894   6.041   3.758  11.440 -1.3799  0.3098  0.2753
  710MOL0     C97895   5.364   3.613  10.487  0.8224  0.7043  0.2366
  710MOL0     C97896   5.277   3.569  10.385  0.7492 -0.6529  0.0488
  710MOL0     C97897   5.037   3.569  10.027 -0.5733 -0.1836  0.9679
  710MOL0     C97898   5.079   3.454   9.947  0.7850 -0.4477 -1.0601
  710MOL0     C97899   4.996   3.410   9.844  0.6431  0.3151  0.6175
  710MOL0     C97900   4.900   3.491   9.792 -0.0461 -0.2016  0.9194
  710MOL0     O97901   4.841   3.439   9.672  0.3002  0.3936 -0.6805
  710MOL0     C97902   4.753   3.522   9.599 -1.1657  0.0247 -0.7200
  710MOL0     C97903   4.836   3.625   9.525  1.0204 -0.2212  0.3242
  710MOL0     C97904   4.758   3.691   9.401 -0.1500  0.7330 -0.8113
  710MOL0     C97905   4.835   3.819   9.349  0.3809 -0.5977 -0.2105
  710MOL0     C97906   4.791   3.847   9.212  0.0520 -0.3111 -0.2767
  710MOL0     C97907   4.779   3.841   9.091  0.5583 -0.2729 -0.0101
  710MOL0     C97908   4.872   3.615   9.853  0.6009 -0.6606 -0.2608
  710MOL0     C97909   4.933   3.647   9.974 -0.3884 -0.2711  0.1445
  710MOL0     C97910   4.892   3.785  10.038  0.0983  0.2431  0.0124
  710MOL0     H97911   5.451   3.680  10.126 -1.3972 -2.1050 -0.3479
  710MOL0     H97912   5.584   3.780  10.297 -2.1704  2.6452 -0.4158
  710MOL0     H97913   5.547   3.924  10.546 -2.1391 -1.3465  0.6447
  710MOL0     H97914   5.704   3.841  10.494  0.0208  0.1915  0.7827
  710MOL0     H97915   5.721   3.765  10.732  0.6276 -0.9404  1.1149
  710MOL0     H97916   5.758   3.939  10.693 -1.6314  2.1204  1.4881
  710MOL0     H97917   5.603   4.021  10.837 -0.6934  0.6710 -0.3950
  710MOL0     H97918   5.490   3.882  10.814  0.2268 -0.7864  0.1969
  710MOL0     H97919   5.626   3.735  10.954 -1.4334  0.5643 -0.9542
  710MOL0     H97920   5.757   3.857  10.974  0.7249  3.6508  0.5666
  710MOL0     H97921   5.471   3.873  11.090  0.4698 -2.3684 -1.5597
  710MOL0     H97922   5.603   4.002  11.090  4.8859 -0.4183 -3.5294
  710MOL0     H97923   5.565   3.858  11.295 -0.6913  1.0323 -0.6302
  710MOL0     H97924   5.645   3.725  11.198 -4.9791 -0.0026 -1.5261
  710MOL0     H97925   5.769   3.997  11.247  2.0529  0.0912  0.9067
  710MOL0     H97926   5.840   3.863  11.156  1.0316 -1.3192  0.7250
  710MOL0     H97927   5.757   3.890  11.461  2.2135  1.1000 -0.3505
  710MOL0     H97928   5.794   3.731  11.394 -1.1277 -0.2543  0.4656
  710MOL0     H97929   5.990   4.077  11.412 -0.6077 -0.3722 -0.2097
  710MOL0     H97930   6.243   4.121  11.406  0.1738  0.5474  1.0144
  710MOL0     H97931   6.337   3.983  11.383 -2.2030 -1.5143 -1.4300
  710MOL0     H97932   6.238   4.080  11.651  0.2652  2.4970 -0.5024
  710MOL0     H97933   6.385   3.967  11.608 -0.7181 -0.5538 -0.3637
  710MOL0     H97934   6.491   4.156  11.511 -1.2458 -0.6112  0.3685
  710MOL0     H97935   6.371   4.274  11.569 -1.2585 -1.0450 -3.1825
  710MOL0     H97936   6.498   4.294  11.757 -1.0202  0.3128 -0.0327
  710MOL0     H97937   6.505   4.114  11.783  2.7362 -0.4999  0.3020
  710MOL0     H97938   6.874   4.290  11.564 -2.8229 -0.4918  0.3245
  710MOL0     H97939   7.187   4.378  11.713  0.7684 -4.9989 -1.3365
  710MOL0     H97940   7.070   4.490  11.627 -0.3250  0.1621  0.3457
  710MOL0     H97941   7.094   4.322  11.582 -3.1664  3.5765 -1.6498
  710MOL0     H97942   7.020   4.456  12.359  0.4158  2.0949  0.5050
  710MOL0     H97943   7.196   4.488  12.538 -2.2862 -1.3429 -0.6053
  710MOL0     H97944   7.593   4.314  12.467  0.4311 -0.5132 -0.9913
  710MOL0     H97945   7.637   4.485  12.405  1.3577 -0.4687 -0.0480
  710MOL0     H97946   7.645   4.565  12.632  0.4928  0.2470  0.9121
  710MOL0     H97947   7.609   4.410  12.699 -0.1952  0.0730 -0.2346
  710MOL0     H97948   7.871   4.466  12.545  2.3072 -1.3578  1.9421
  710MOL0     H97949   7.802   4.311  12.555 -0.7578  0.8230 -0.8856
  710MOL0     H97950   7.797   4.316  12.802 -0.7562  0.6123 -1.1244
  710MOL0     H97951   7.842   4.484  12.806  0.9564 -1.3570  0.1890
  710MOL0     H97952   8.034   4.259  12.698 -0.0746 -1.1566  1.8006
  710MOL0     H97953   8.072   4.428  12.689 -0.1973 -0.3798 -1.0723
  710MOL0     H97954   8.018   4.274  12.946 -3.1673  1.5355 -1.4838
  710MOL0     H97955   8.030   4.443  12.935 -1.8824 -1.7118  1.8438
  710MOL0     H97956   8.273   4.400  12.833  0.3792 -0.7983 -0.4495
  710MOL0     H97957   8.234   4.235  12.878  0.0894  1.0169 -1.9174
  710MOL0     H97958   8.223   4.488  13.068 -3.4922 -1.3071 -0.2405
  710MOL0     H97959   8.368   4.384  13.057  0.1687 -4.3192 -2.3450
  710MOL0     H97960   7.479   4.342  12.252 -0.0059 -0.3035  1.1174
  710MOL0     H97961   7.317   4.296  12.099 -1.9320 -2.0155  0.8758
  710MOL0     H97962   6.828   4.287  12.058 -2.7298  1.7521 -0.6420
  710MOL0     H97963   6.654   4.193  11.921  0.1590 -0.3211  0.2044
  710MOL0     H97964   5.332   3.619  10.590  0.3170  1.6257  0.0407
  710MOL0     H97965   5.183   3.516  10.402  1.6104 -2.0854  0.5208
  710MOL0     H97966   5.160   3.384   9.966 -0.3553 -1.5837 -0.2601
  710MOL0     H97967   5.010   3.315   9.794  1.1942  1.2358 -1.0751
  710MOL0     H97968   4.693   3.457   9.535 -1.5312  0.2907 -0.6529
  710MOL0     H97969   4.678   3.574   9.660  0.6274  1.0110  0.7657
  710MOL0     H97970   4.943   3.610   9.509  1.3094  2.3259 -0.5661
  710MOL0     H97971   4.843   3.712   9.591 -0.4452 -0.0094  0.2227
  710MOL0     H97972   4.765   3.604   9.336  3.0156 -0.3050  0.7069
  710MOL0     H97973   4.656   3.714   9.434 -0.0138 -0.5449  0.6032
  710MOL0     H97974   4.944   3.808   9.358  0.3060 -2.3684 -1.0556
  710MOL0     H97975   4.810   3.906   9.410 -1.9749  1.1239 -3.3601
  710MOL0     H97976   4.765   3.827   8.986 -0.1351  0.2440  0.0090
  710MOL0     H97977   4.792   3.677   9.814  1.2892 -0.5016 -1.4753
  710MOL0     H97978   4.810   3.817   9.972  1.5923 -3.8929 -4.3713
  710MOL0     H97979   4.854   3.763  10.138 -0.9304  1.6019 -0.0480
  710MOL0     H97980   4.963   3.868  10.042 -2.0468  2.1795  0.2258
  711MOL0     O97981   1.574   0.182   4.147  0.4725  0.4993 -0.1034
  711MOL0     C97982   1.570   0.207   4.026  0.4575 -0.9933 -0.6294
  711MOL0     O97983   1.522   0.324   3.970  0.3456  0.1304 -0.3400
  711MOL0     C97984   1.499   0.435   4.044  0.0019 -0.1878 -0.3377
  711MOL0     C97985   1.588   0.482   4.147  0.6811 -0.3030  0.4655
  711MOL0     C97986   1.549   0.595   4.222  0.9735  0.7794  0.4305
  711MOL0     C97987   1.426   0.664   4.191  1.1991  0.5762  0.1445
  711MOL0     O97988   1.413   0.779   4.264  0.0254 -0.2201  0.2705
  711MOL0     C97989   1.308   0.869   4.225 -0.1741  0.5806  0.4735
  711MOL0     C97990   1.313   0.992   4.307  1.0058 -0.5696  0.7500
  711MOL0     C97991   1.459   1.037   4.300 -0.2833  0.3291  0.3723
  711MOL0     C97992   1.487   1.172   4.366  0.1961 -0.3307 -0.6558
  711MOL0     C97993   1.636   1.221   4.339  0.9540 -0.0837 -0.0436
  711MOL0     C97994   1.750   1.132   4.378 -0.2406 -0.4530 -0.3560
  711MOL0     C97995   1.772   1.109   4.524 -0.8012 -0.8401 -0.3346
  711MOL0     C97996   1.906   1.038   4.568 -0.7545  0.7222  0.0890
  711MOL0     N97997   1.937   0.922   4.490  0.2060 -0.3523  1.1005
  711MOL0     C97998   2.071   0.894   4.475  0.2665  0.2099  0.1776
  711MOL0     C97999   2.061   0.800   4.375 -0.5684  0.3344  0.8386
  711MOL0     C98000   2.192   0.754   4.306  0.0457 -0.5660 -0.4019
  711MOL0     C98001   2.263   0.659   4.410 -0.4735 -0.0962  0.1485
  711MOL0     C98002   2.348   0.542   4.349 -0.1298  0.2129  0.0536
  711MOL0     C98003   2.469   0.598   4.266  0.8099 -0.6783  0.9460
  711MOL0     O98004   2.555   0.701   4.330 -0.4188 -1.4197  0.5130
  711MOL0     C98005   2.623   0.650   4.438  0.5062  0.0238 -1.2441
  711MOL0     C98006   2.694   0.746   4.506 -0.3355  0.1932 -1.0022
  711MOL0     C98007   2.774   0.714   4.620  0.0864 -0.5025 -0.5717
  711MOL0     C98008   2.845   0.823   4.695  0.6693  0.0452 -0.7185
  711MOL0     C98009   2.793   0.582   4.658 -0.4560  0.4414 -0.9826
  711MOL0     C98010   2.874   0.556   4.778 -0.1523 -0.3689  0.6851
  711MOL0     O98011   2.998   0.609   4.783  0.1469 -0.1252 -0.8141
  711MOL0     C98012   3.099   0.555   4.853  0.3387  0.3009 -0.3921
  711MOL0     C98013   3.220   0.534   4.777  0.2366  0.6872  0.7446
  711MOL0     C98014   3.325   0.475   4.838 -0.8005  0.1219  0.2379
  711MOL0     C98015   3.319   0.433   4.979 -0.4040  0.0871  0.3476
  711MOL0     O98016   3.432   0.386   5.039  0.2109 -0.6069 -0.3629
  711MOL0     C98017   3.495   0.262   4.984  0.0697 -0.4932 -0.6201
  711MOL0     C98018   3.435   0.159   5.079  0.0619  0.9418  0.4936
  711MOL0     C98019   3.526   0.128   5.201  1.3897 -0.0328  0.6686
  711MOL0     C98020   3.520  -0.017   5.219 -0.4098  0.7897 -0.2744
  711MOL0     C98021   3.376  -0.082   5.239 -0.9442 -0.7136 -0.2297
  711MOL0     C98022   3.397  -0.237   5.268 -1.0618  0.1237 -0.3335
  711MOL0     C98023   3.262  -0.316   5.269 -0.1011  0.5122 -0.1438
  711MOL0     C98024   3.181  -0.287   5.401  0.1667  1.0936  0.4203
  711MOL0    Cl98025   3.036  -0.389   5.385  0.1398  0.2507  0.0808
  711MOL0     C98026   3.205   0.462   5.052  0.2453  0.6510  0.1204
  711MOL0     C98027   3.095   0.523   4.994 -0.3032 -0.1214 -0.4298
  711MOL0     O98028   2.828   0.469   4.849  0.6165 -0.5091  0.3562
  711MOL0     C98029   2.713   0.485   4.595 -1.0341 -0.0280  0.0605
  711MOL0     C98030   2.643   0.514   4.482  0.6133 -0.7720 -0.4424
  711MOL0     N98031   1.930   0.772   4.335 -0.3994  0.1563  0.3583
  711MOL0     N98032   1.857   0.845   4.410 -0.6691  0.4698  0.0239
  711MOL0     C98033   1.344   0.619   4.082  1.1963 -0.0787  0.2836
  711MOL0     C98034   1.384   0.505   4.014 -0.0925 -0.1407  0.1419
  711MOL0     C98035   1.621   0.108   3.933 -0.8985 -0.9377 -0.2704
  711MOL0     C98036   1.725   0.030   3.970 -0.1430  0.0172  0.0804
  711MOL0     C98037   1.781  -0.058   3.881 -0.3520 -0.0894 -0.1082
  711MOL0     C98038   1.711  -0.099   3.768  0.3623 -0.6714 -0.0506
  711MOL0     O98039   1.761  -0.192   3.683 -0.3311 -0.5001  0.6134
  711MOL0     C98040   1.783  -0.327   3.744  0.2717 -0.5444  0.1794
  711MOL0     C98041   1.833  -0.416   3.624 -0.3887 -0.4793  0.7283
  711MOL0     C98042   1.849  -0.560   3.662 -0.5742  0.1981 -0.0669
  711MOL0     C98043   1.829  -0.652   3.545 -0.0389  0.1742 -0.0408
  711MOL0     C98044   1.831  -0.786   3.599  0.9119  0.9413  0.5197
  711MOL0     C98045   1.819  -0.899   3.637 -1.4246  0.0069 -0.3027
  711MOL0     C98046   1.601  -0.018   3.726  0.9910  0.1298  0.4135
  711MOL0     C98047   1.553   0.082   3.810  0.5458  0.1296  0.0298
  711MOL0     C98048   1.418   0.142   3.760 -0.2892 -0.4394  0.3196
  711MOL0     H98049   1.679   0.428   4.172  1.1024 -0.7848 -1.8601
  711MOL0     H98050   1.604   0.627   4.310  0.3958 -1.2462  1.6078
  711MOL0     H98051   1.213   0.815   4.227 -0.2362  0.6643 -0.1058
  711MOL0     H98052   1.333   0.908   4.125 -0.1894  4.6266  1.8337
  711MOL0     H98053   1.248   1.066   4.260  1.3406 -0.4913  0.4090
  711MOL0     H98054   1.270   0.987   4.407  1.5993  0.2732  1.0578
  711MOL0     H98055   1.525   0.966   4.350 -1.4778  0.5818  2.4152
  711MOL0     H98056   1.491   1.043   4.195 -1.6673 -0.2372 -0.1096
  711MOL0     H98057   1.433   1.259   4.330  2.1592  2.5658  2.6795
  711MOL0     H98058   1.467   1.164   4.474 -0.4356  0.7098 -0.6919
  711MOL0     H98059   1.634   1.310   4.403 -0.9651  1.6211 -2.2736
  711MOL0     H98060   1.644   1.244   4.232  0.1354 -1.3347 -0.3934
  711MOL0     H98061   1.734   1.032   4.334  0.5039 -1.2176  1.0560
  711MOL0     H98062   1.844   1.179   4.347 -0.3026  0.7727  1.2309
  711MOL0     H98063   1.692   1.048   4.565 -0.6381  0.8212  2.7948
  711MOL0     H98064   1.784   1.215   4.552  1.3896 -0.4492 -2.4106
  711MOL0     H98065   1.989   1.109   4.560  0.7060 -0.7271  1.4392
  711MOL0     H98066   1.906   1.008   4.673  1.4914  0.3103  0.0403
  711MOL0     H98067   2.159   0.929   4.527 -2.0568 -0.7303  5.3631
  711MOL0     H98068   2.253   0.842   4.283 -1.3917 -0.2843 -3.6012
  711MOL0     H98069   2.157   0.702   4.217 -2.8087  0.4542  0.0171
  711MOL0     H98070   2.337   0.714   4.469  1.4097 -3.6480  1.3899
  711MOL0     H98071   2.188   0.606   4.470  0.5806 -0.6749  0.9999
  711MOL0     H98072   2.386   0.472   4.424 -2.0243 -3.1863 -1.8799
  711MOL0     H98073   2.281   0.481   4.287  1.0128 -0.0672 -0.9245
  711MOL0     H98074   2.525   0.513   4.226  0.6782  0.4097 -1.7736
  711MOL0     H98075   2.428   0.648   4.178 -0.0035 -1.7740  0.6924
  711MOL0     H98076   2.702   0.852   4.482 -2.3515  0.9304  1.1301
  711MOL0     H98077   2.810   0.919   4.655 -0.3342 -0.3336 -0.7783
  711MOL0     H98078   2.951   0.830   4.672  0.7262  3.0700  0.0159
  711MOL0     H98079   2.816   0.840   4.799  1.2242  2.6449 -0.9006
  711MOL0     H98080   3.206   0.559   4.672  1.7090  0.8827  0.5813
  711MOL0     H98081   3.417   0.461   4.782 -1.2815 -0.6227 -0.3663
  711MOL0     H98082   3.466   0.233   4.882  1.3979 -3.3023 -0.3012
  711MOL0     H98083   3.604   0.266   4.985  0.2149 -0.0326  4.3061
  711MOL0     H98084   3.338   0.200   5.108 -0.6047  1.8197 -2.6129
  711MOL0     H98085   3.420   0.071   5.016  1.7489  2.0195 -1.5705
  711MOL0     H98086   3.489   0.178   5.291  0.7620  1.6887 -0.4974
  711MOL0     H98087   3.628   0.164   5.189  1.6733 -0.8471  0.5596
  711MOL0     H98088   3.582  -0.042   5.305 -3.6776 -2.8145  1.3175
  711MOL0     H98089   3.563  -0.058   5.127 -0.9303  1.6105 -0.8953
  711MOL0     H98090   3.327  -0.036   5.325  0.3991  3.3166 -1.3971
  711MOL0     H98091   3.314  -0.074   5.149 -0.7367 -0.5320 -0.3576
  711MOL0     H98092   3.441  -0.233   5.368 -0.6251  2.2691 -0.5579
  711MOL0     H98093   3.462  -0.281   5.192 -1.5406 -1.8209  0.3330
  711MOL0     H98094   3.282  -0.423   5.270  3.2921  1.0395  2.2116
  711MOL0     H98095   3.194  -0.294   5.186 -1.7242 -0.9893  0.7214
  711MOL0     H98096   3.153  -0.181   5.408  1.9864  1.6412  0.0472
  711MOL0     H98097   3.241  -0.307   5.490 -2.2751 -1.8400  1.5726
  711MOL0     H98098   3.199   0.455   5.160  0.0497  2.4426  0.2587
  711MOL0     H98099   3.011   0.555   5.054  0.3941  0.7233  0.1096
  711MOL0     H98100   2.711   0.382   4.629 -0.2454 -0.2848 -0.6333
  711MOL0     H98101   2.602   0.434   4.421  0.3374 -0.7183 -0.3286
  711MOL0     H98102   1.271   0.688   4.041  3.7697  3.2417  0.8744
  711MOL0     H98103   1.327   0.447   3.942 -0.2752  1.5117 -1.1050
  711MOL0     H98104   1.778   0.029   4.064  0.5943  1.5801 -0.2745
  711MOL0     H98105   1.878  -0.102   3.901 -0.0839  0.2127 -0.7217
  711MOL0     H98106   1.855  -0.333   3.826  0.7001 -1.2607 -0.2380
  711MOL0     H98107   1.697  -0.375   3.792  0.9096 -3.0364 -0.9911
  711MOL0     H98108   1.924  -0.377   3.576  0.3559  0.3251  2.6919
  711MOL0     H98109   1.758  -0.406   3.545  0.6726 -0.4317 -0.2932
  711MOL0     H98110   1.953  -0.569   3.694  0.5557 -2.0185 -3.8017
  711MOL0     H98111   1.781  -0.588   3.743  1.2598  1.7289  2.1326
  711MOL0     H98112   1.907  -0.634   3.471  1.8821 -0.4714  1.7299
  711MOL0     H98113   1.734  -0.644   3.492 -0.2250  0.6014  0.3475
  711MOL0     H98114   1.819  -1.004   3.659  0.9579  0.0750  0.2552
  711MOL0     H98115   1.541  -0.032   3.636  0.1972  2.3894  0.5149
  711MOL0     H98116   1.424   0.198   3.666  0.0058 -1.5185 -0.3198
  711MOL0     H98117   1.348   0.061   3.741 -0.3862  0.3446 -3.4261
  711MOL0     H98118   1.368   0.207   3.833 -1.4729 -1.2383  0.2412
  712MOL0     O98119   7.568   3.685   1.006  0.7776  0.0114 -0.0854
  712MOL0     C98120   7.660   3.665   0.928  1.3522 -0.0672  0.1979
  712MOL0     O98121   7.649   3.682   0.796  0.3973 -0.0980  1.1416
  712MOL0     C98122   7.557   3.771   0.733 -1.1813 -1.0623  0.1470
  712MOL0     C98123   7.517   3.738   0.604 -0.2811  0.3066  0.3843
  712MOL0     C98124   7.410   3.804   0.536  0.2302  0.7991  0.4332
  712MOL0     C98125   7.364   3.926   0.584  0.1291  0.0777 -0.4487
  712MOL0     O98126   7.262   3.990   0.515 -0.1526  0.7604 -0.5598
  712MOL0     C98127   7.166   3.922   0.432  0.0344  0.1994 -0.2395
  712MOL0     C98128   7.200   3.919   0.286 -0.3703 -0.3973  0.1859
  712MOL0     C98129   7.218   4.050   0.214 -0.5411  0.1165 -0.4063
  712MOL0     C98130   7.337   4.136   0.261 -0.6542  0.6878 -0.5561
  712MOL0     C98131   7.463   4.050   0.237  0.2808  0.4266  0.1608
  712MOL0     C98132   7.587   4.133   0.237 -0.4574  0.3895 -0.1401
  712MOL0     C98133   7.637   4.163   0.380 -0.2833 -0.9808 -0.8705
  712MOL0     C98134   7.668   4.043   0.469 -0.0679 -0.1206 -0.3501
  712MOL0     N98135   7.756   4.092   0.579  0.0614  0.5080 -0.1760
  712MOL0     C98136   7.892   4.072   0.589 -0.3061 -0.1986  0.1673
  712MOL0     C98137   7.925   4.143   0.698  1.1765  0.2925 -0.9235
  712MOL0     C98138   8.060   4.185   0.740  0.0697 -0.0088  0.5416
  712MOL0     C98139   8.050   4.282   0.857  0.2888  0.4073 -0.2941
  712MOL0     C98140   8.179   4.355   0.884 -0.4143  0.7919  1.0328
  712MOL0     C98141   8.301   4.259   0.919  0.1196  0.2522 -0.3522
  712MOL0     O98142   8.398   4.356   0.945 -0.2864  0.1199 -0.4475
  712MOL0     C98143   8.525   4.316   0.973 -0.9025  0.0188 -0.7087
  712MOL0     C98144   8.623   4.411   0.999 -0.4917  0.1935  0.7655
  712MOL0     C98145   8.754   4.382   1.032  0.8819 -0.5448 -0.4079
  712MOL0     C98146   8.841   4.496   1.079 -0.6274  0.7937  0.3941
  712MOL0     C98147   8.792   4.253   1.039 -0.8737  0.2871 -0.1401
  712MOL0     C98148   8.925   4.211   1.086  0.2329  0.1998 -0.0866
  712MOL0     O98149   9.023   4.169   1.003  1.1460 -0.7199  0.4100
  712MOL0     C98150   9.157   4.168   1.040  0.5006 -0.8625 -0.0412
  712MOL0     C98151   9.229   4.271   1.099  0.1320 -0.7532  0.7890
  712MOL0     C98152   9.361   4.257   1.145  0.1931 -0.1241  0.3647
  712MOL0     C98153   9.434   4.145   1.125  0.0270  0.0502  0.3841
  712MOL0     O98154   9.558   4.128   1.184  0.4166 -0.0916 -0.0419
  712MOL0     C98155   9.610   3.995   1.198 -0.2485  0.4067  0.1368
  712MOL0     C98156   9.752   3.996   1.258 -0.2267  0.1599 -0.6216
  712MOL0     C98157   9.855   4.045   1.166  0.0304 -0.5184 -0.1530
  712MOL0     C98158   9.876   3.982   1.024 -0.0975  0.2120  0.1820
  712MOL0     C98159   9.985   4.053   0.949 -0.4966 -0.2872 -0.2532
  712MOL0     C98160  10.131   4.016   0.981  0.2212 -0.7034 -0.8957
  712MOL0     C98161  10.198   4.115   1.078 -0.2506  0.5172 -1.0775
  712MOL0     C98162  10.300   4.047   1.152 -0.0143 -0.1495  0.0722
  712MOL0    Cl98163  10.340   4.156   1.274  0.2684 -0.2999 -0.3634
  712MOL0     C98164   9.370   4.045   1.047  1.0202 -0.6830 -0.0969
  712MOL0     C98165   9.232   4.050   1.012  0.3255 -0.7494 -0.4309
  712MOL0     O98166   8.941   4.228   1.205 -0.1868  0.0154 -0.0149
  712MOL0     C98167   8.706   4.151   0.999 -0.5590  0.2254  0.1224
  712MOL0     C98168   8.571   4.183   0.970 -0.5216 -0.0703 -0.7063
  712MOL0     N98169   7.807   4.192   0.758 -0.2261  0.0719  0.1411
  712MOL0     N98170   7.704   4.164   0.686 -0.1078 -0.5134 -0.5740
  712MOL0     C98171   7.413   3.971   0.708  0.3749  0.0514  0.5773
  712MOL0     C98172   7.500   3.890   0.781 -0.8372  0.4275  0.3245
  712MOL0     C98173   7.795   3.628   0.985 -0.0053  0.3215  0.3661
  712MOL0     C98174   7.892   3.591   0.893 -0.1674  0.0835 -0.0185
  712MOL0     C98175   8.015   3.550   0.944 -0.3186  0.4957 -0.3865
  712MOL0     C98176   8.049   3.548   1.076  0.1507 -0.7840  0.4922
  712MOL0     O98177   8.179   3.518   1.107  0.0181  0.4793 -0.0505
  712MOL0     C98178   8.232   3.552   1.227  0.5332  0.5410  0.4502
  712MOL0     C98179   8.376   3.491   1.235 -0.0819 -0.0290 -0.8416
  712MOL0     C98180   8.419   3.486   1.385 -0.0445 -0.5843 -1.0746
  712MOL0     C98181   8.570   3.468   1.388 -0.3997 -0.0004 -0.5369
  712MOL0     C98182   8.610   3.439   1.529 -0.6880  0.1646  1.0044
  712MOL0     C98183   8.658   3.416   1.642  0.8329 -0.2944  0.1753
  712MOL0     C98184   7.955   3.602   1.170 -0.3169  0.0450 -0.9937
  712MOL0     C98185   7.829   3.634   1.125 -0.3111 -0.1367  0.2662
  712MOL0     C98186   7.744   3.706   1.233 -0.4751  0.2666 -0.2724
  712MOL0     H98187   7.547   3.646   0.555  0.8512 -0.1195  1.8224
  712MOL0     H98188   7.374   3.764   0.441  2.7480 -2.5398  0.6897
  712MOL0     H98189   7.075   3.983   0.434 -0.2836 -0.1575 -1.8510
  712MOL0     H98190   7.129   3.824   0.465  1.3606 -0.0656  0.5062
  712MOL0     H98191   7.291   3.859   0.280  0.4833  0.6805  1.5685
  712MOL0     H98192   7.112   3.874   0.240  0.6534 -1.1745 -1.0918
  712MOL0     H98193   7.220   4.023   0.108  1.4165 -0.0296 -0.3702
  712MOL0     H98194   7.134   4.117   0.234 -0.2086  0.5983 -0.5785
  712MOL0     H98195   7.333   4.226   0.199 -2.8959 -0.0081 -1.5302
  712MOL0     H98196   7.325   4.172   0.363  0.8236 -0.5712  0.1082
  712MOL0     H98197   7.444   4.001   0.141 -0.7637 -0.1704  0.6604
  712MOL0     H98198   7.465   3.972   0.314  1.2340 -0.5811 -0.8278
  712MOL0     H98199   7.658   4.081   0.172 -0.4574  2.2246 -1.7018
  712MOL0     H98200   7.567   4.226   0.182 -0.4617 -0.8284 -2.3127
  712MOL0     H98201   7.557   4.222   0.426 -0.3142  0.6529 -2.8910
  712MOL0     H98202   7.725   4.228   0.375 -1.9736  1.4011 -1.4714
  712MOL0     H98203   7.582   3.991   0.513 -0.5420  3.2767  3.3239
  712MOL0     H98204   7.719   3.984   0.393 -1.6870  3.1738 -4.3740
  712MOL0     H98205   7.960   4.025   0.519 -2.1059 -0.9572 -1.1501
  712MOL0     H98206   8.101   4.230   0.649  1.6978 -0.2570  1.1140
  712MOL0     H98207   8.122   4.103   0.778  0.9942 -0.0909 -1.0424
  712MOL0     H98208   7.974   4.358   0.838 -2.4655 -2.0540  0.1086
  712MOL0     H98209   8.014   4.234   0.948 -0.5306  1.8236  0.1495
  712MOL0     H98210   8.219   4.406   0.797  2.3209  2.1481  2.9324
  712MOL0     H98211   8.154   4.420   0.968 -2.3967  0.6410  0.6191
  712MOL0     H98212   8.277   4.206   1.011 -0.4205 -1.4184 -1.4039
  712MOL0     H98213   8.327   4.196   0.833  0.2776 -0.1391 -0.0173
  712MOL0     H98214   8.598   4.514   0.974  4.0015  1.5470  1.0358
  712MOL0     H98215   8.805   4.540   1.172 -0.9729  1.3915 -0.0171
  712MOL0     H98216   8.824   4.568   0.998 -1.2053  1.0870  0.7714
  712MOL0     H98217   8.949   4.477   1.087 -0.4619 -0.4125 -3.0684
  712MOL0     H98218   9.176   4.365   1.109 -2.2681 -1.9776  0.3945
  712MOL0     H98219   9.409   4.340   1.196 -0.6648  0.9061 -0.4872
  712MOL0     H98220   9.540   3.945   1.266 -1.3654  0.2425 -1.0770
  712MOL0     H98221   9.617   3.947   1.100 -0.8260  0.0404  0.2686
  712MOL0     H98222   9.749   4.052   1.352  4.2056  0.6330 -0.5740
  712MOL0     H98223   9.788   3.894   1.273  4.2827  1.3844 -1.7905
  712MOL0     H98224   9.951   4.030   1.217  0.3903  3.4001  0.6047
  712MOL0     H98225   9.840   4.153   1.171  1.2994 -0.3950  2.7524
  712MOL0     H98226   9.784   4.001   0.969  0.7099 -0.5800 -1.4894
  712MOL0     H98227   9.913   3.879   1.028  0.2508  0.3572  0.9128
  712MOL0     H98228   9.978   4.026   0.844 -0.9014 -4.8634  0.7635
  712MOL0     H98229   9.970   4.161   0.963  2.2575 -0.0198  1.5091
  712MOL0     H98230  10.194   4.015   0.892  0.2978 -1.0527 -0.8401
  712MOL0     H98231  10.121   3.915   1.022 -1.1184  0.2826  1.4081
  712MOL0     H98232  10.125   4.157   1.148  0.9185 -0.6610  0.9307
  712MOL0     H98233  10.243   4.197   1.022  0.6549  0.3100 -0.6623
  712MOL0     H98234  10.384   3.996   1.104 -0.2342  2.2620 -3.2555
  712MOL0     H98235  10.239   3.966   1.193 -2.3102  0.0265 -2.7323
  712MOL0     H98236   9.404   3.942   1.036 -1.9162 -1.6213 -1.2654
  712MOL0     H98237   9.190   3.962   0.964 -0.3239  0.0570 -1.3889
  712MOL0     H98238   8.733   4.046   0.994 -0.2388  0.1604  2.3028
  712MOL0     H98239   8.510   4.093   0.964  0.7075 -1.0926  1.2308
  712MOL0     H98240   7.374   4.067   0.741  0.9270  0.6151 -0.3425
  712MOL0     H98241   7.542   3.908   0.880  1.6235 -0.9315 -0.3811
  712MOL0     H98242   7.889   3.592   0.785  2.8659  1.1402 -0.1955
  712MOL0     H98243   8.087   3.514   0.871  1.6088 -3.0221  2.8820
  712MOL0     H98244   8.242   3.660   1.243  1.0195  0.8165 -1.5070
  712MOL0     H98245   8.168   3.512   1.306  0.6522 -1.0169 -0.2033
  712MOL0     H98246   8.440   3.559   1.179 -0.9917 -0.8390 -2.9545
  712MOL0     H98247   8.374   3.391   1.192 -0.0892 -1.2804  1.8241
  712MOL0     H98248   8.395   3.578   1.440 -1.2165 -0.9606 -0.9260
  712MOL0     H98249   8.377   3.400   1.438  3.0728 -1.0935  0.8143
  712MOL0     H98250   8.616   3.564   1.363  1.9875 -1.4618 -2.1887
  712MOL0     H98251   8.606   3.388   1.322 -0.2136  1.6020 -2.4734
  712MOL0     H98252   8.695   3.381   1.736 -0.2647 -0.4509  0.5722
  712MOL0     H98253   7.988   3.620   1.272 -0.0958  0.9250 -1.2172
  712MOL0     H98254   7.798   3.724   1.327  0.9308 -2.3181 -0.4827
  712MOL0     H98255   7.701   3.797   1.192  2.1248  2.2146  0.9736
  712MOL0     H98256   7.666   3.633   1.254 -1.3516  1.0217 -0.8574
  713MOL0     O98257   2.901   6.156   9.858  0.5086 -0.1418 -0.1441
  713MOL0     C98258   2.913   6.066   9.778 -0.2012  0.2246 -0.3929
  713MOL0     O98259   3.036   6.027   9.739  0.8762  0.7984  0.4941
  713MOL0     C98260   3.147   6.101   9.764 -0.7294  0.2097 -0.7180
  713MOL0     C98261   3.258   6.021   9.778 -0.1159 -0.6188 -0.7591
  713MOL0     C98262   3.381   6.086   9.790 -0.2755 -0.1489  0.4398
  713MOL0     C98263   3.401   6.222   9.811 -0.2907  0.0293  0.1717
  713MOL0     O98264   3.531   6.264   9.828  0.4468  0.4805  0.2231
  713MOL0     C98265   3.560   6.406   9.835  0.6048  0.0839  0.3690
  713MOL0     C98266   3.658   6.443   9.720 -0.7648  0.0219  1.6412
  713MOL0     C98267   3.700   6.588   9.744 -0.0183 -0.8792 -0.0390
  713MOL0     C98268   3.790   6.647   9.640 -0.4585  0.7117 -0.0894
  713MOL0     C98269   3.828   6.789   9.678 -0.8034 -0.1499 -0.0571
  713MOL0     C98270   3.912   6.857   9.568  0.1881  0.8001 -0.3092
  713MOL0     C98271   4.022   6.764   9.509  0.5063  0.5958  0.4684
  713MOL0     C98272   4.139   6.839   9.441 -0.8790 -0.9348  0.7767
  713MOL0     N98273   4.221   6.733   9.386 -0.7761  0.1271 -0.0558
  713MOL0     C98274   4.347   6.694   9.445  1.2554  1.0179  0.9422
  713MOL0     C98275   4.408   6.614   9.346  0.1820  0.0452 -0.4112
  713MOL0     C98276   4.550   6.559   9.369 -0.2711  0.4516 -0.1680
  713MOL0     C98277   4.569   6.444   9.267  0.1515  0.2270 -0.0394
  713MOL0     C98278   4.654   6.333   9.324 -0.8728 -0.6215 -0.1234
  713MOL0     C98279   4.796   6.385   9.371 -0.0344  0.3595 -0.7060
  713MOL0     O98280   4.871   6.279   9.438  0.1747 -0.7857 -0.2359
  713MOL0     C98281   4.994   6.316   9.489  0.3195 -0.4777 -0.5049
  713MOL0     C98282   5.058   6.442   9.485 -0.5836  0.0371  0.0219
  713MOL0     C98283   5.190   6.446   9.545  0.5681  0.1349  0.9527
  713MOL0     C98284   5.248   6.580   9.533  0.2009 -0.1563 -0.1722
  713MOL0     C98285   5.252   6.336   9.605  0.4698  0.0333  0.4760
  713MOL0     C98286   5.387   6.331   9.665  0.4016  0.4345 -0.1554
  713MOL0     O98287   5.397   6.238   9.760 -0.1320 -0.2321  0.1860
  713MOL0     C98288   5.490   6.255   9.856 -0.3820 -0.3599 -0.5392
  713MOL0     C98289   5.462   6.233   9.991 -1.0912 -0.1921 -0.7825
  713MOL0     C98290   5.563   6.242  10.094 -0.9947 -0.0947  0.0482
  713MOL0     C98291   5.693   6.280  10.060  0.3102 -0.9819 -0.8177
  713MOL0     O98292   5.783   6.287  10.166  0.0021  0.8579 -0.7298
  713MOL0     C98293   5.860   6.410  10.174 -0.0878  0.5158 -1.1633
  713MOL0     C98294   6.014   6.386  10.197 -0.1180 -1.2862  0.1276
  713MOL0     C98295   6.041   6.313  10.330  0.3633 -0.0367 -0.9568
  713MOL0     C98296   6.194   6.289  10.353 -0.6688  0.5377 -1.0574
  713MOL0     C98297   6.210   6.176  10.454  1.0417 -0.0269  0.2081
  713MOL0     C98298   6.351   6.140  10.497  0.1557 -0.1473 -0.8164
  713MOL0     C98299   6.356   6.016  10.576 -0.6236  0.0088 -0.0904
  713MOL0     C98300   6.500   5.971  10.604 -1.3687 -0.2729  0.1371
  713MOL0    Cl98301   6.571   6.055  10.735  0.0433  0.3747 -0.4120
  713MOL0     C98302   5.712   6.326   9.934  0.2914  0.2384 -0.4530
  713MOL0     C98303   5.627   6.305   9.830 -0.8034 -0.4971 -1.2479
  713MOL0     O98304   5.477   6.411   9.626  0.1384  0.3380  0.4565
  713MOL0     C98305   5.184   6.213   9.615 -0.1317  0.2318  0.3091
  713MOL0     C98306   5.056   6.205   9.561  0.0881  0.1850  0.3392
  713MOL0     N98307   4.330   6.607   9.233  0.7323 -0.5461 -0.0379
  713MOL0     N98308   4.226   6.672   9.263  0.2133  0.4873 -0.1859
  713MOL0     C98309   3.284   6.296   9.803 -0.6186 -0.3365  0.2214
  713MOL0     C98310   3.162   6.242   9.769  0.8481 -0.1162 -1.0445
  713MOL0     C98311   2.797   5.978   9.746  0.5307  0.4407  1.5010
  713MOL0     C98312   2.819   5.853   9.693 -0.4525  0.4802  0.5339
  713MOL0     C98313   2.718   5.762   9.658  0.2614 -0.8270 -0.2111
  713MOL0     C98314   2.581   5.794   9.674  0.2351 -0.4016 -0.0682
  713MOL0     O98315   2.485   5.708   9.637  0.2665  0.2663  0.6280
  713MOL0     C98316   2.494   5.666   9.496  0.0245 -0.1375  0.6481
  713MOL0     C98317   2.349   5.638   9.450  0.3520  0.3609 -0.4707
  713MOL0     C98318   2.247   5.554   9.525  0.9088 -0.0636 -0.4113
  713MOL0     C98319   2.251   5.404   9.495 -0.6854  0.3248  0.5292
  713MOL0     C98320   2.380   5.346   9.522 -0.8283 -0.9367 -0.2781
  713MOL0     C98321   2.495   5.302   9.544  0.1513  0.1389 -0.3021
  713MOL0     C98322   2.556   5.912   9.753  0.3521  0.3202 -0.2650
  713MOL0     C98323   2.658   6.000   9.792 -0.6060 -0.5027 -0.2108
  713MOL0     C98324   2.608   6.113   9.883 -0.5230  0.7031 -0.4430
  713MOL0     H98325   3.252   5.913   9.766 -1.5151 -0.7929  1.1099
  713MOL0     H98326   3.467   6.020   9.795 -0.8204 -1.1665 -2.1897
  713MOL0     H98327   3.618   6.430   9.925 -0.3957  1.7985  0.6135
  713MOL0     H98328   3.468   6.465   9.835  0.0297 -0.7574  1.3836
  713MOL0     H98329   3.755   6.392   9.713 -0.3976  0.7021  1.6748
  713MOL0     H98330   3.603   6.428   9.627 -2.2452 -0.3018  2.5442
  713MOL0     H98331   3.616   6.658   9.747  0.5189 -0.2048 -0.8181
  713MOL0     H98332   3.744   6.584   9.844  0.0836 -3.0366 -0.1226
  713MOL0     H98333   3.874   6.576   9.637 -4.6646 -4.9125 -1.2767
  713MOL0     H98334   3.733   6.648   9.546 -1.0819  0.0531  0.2744
  713MOL0     H98335   3.898   6.784   9.762  0.7087  2.2388 -1.0720
  713MOL0     H98336   3.738   6.849   9.697  0.2012  1.5212 -0.3083
  713MOL0     H98337   3.855   6.881   9.478 -3.6064 -0.3170  1.5986
  713MOL0     H98338   3.948   6.952   9.608  1.8015 -0.9676  2.8238
  713MOL0     H98339   3.975   6.699   9.435  0.6843  1.0343 -0.0420
  713MOL0     H98340   4.061   6.701   9.590  3.1045  2.8797  1.1799
  713MOL0     H98341   4.099   6.909   9.368 -0.3332 -1.0360  0.3725
  713MOL0     H98342   4.203   6.892   9.512 -2.1393  0.2543  1.0516
  713MOL0     H98343   4.386   6.720   9.543 -0.9902  1.2500  1.8438
  713MOL0     H98344   4.561   6.520   9.471 -1.0130 -0.8934 -0.5833
  713MOL0     H98345   4.631   6.631   9.351 -0.6106  0.9554  0.2634
  713MOL0     H98346   4.480   6.390   9.232  0.4067 -1.5753  1.8734
  713MOL0     H98347   4.619   6.495   9.184 -1.1866 -1.2172 -1.8330
  713MOL0     H98348   4.614   6.260   9.395  4.0203 -2.9695  0.6666
  713MOL0     H98349   4.669   6.262   9.242  2.4206 -0.0046 -0.2114
  713MOL0     H98350   4.861   6.406   9.286 -0.4540 -0.2597 -1.1944
  713MOL0     H98351   4.783   6.468   9.441 -2.1188 -1.8098  1.7032
  713MOL0     H98352   5.017   6.524   9.428  0.1333 -0.5440 -1.3877
  713MOL0     H98353   5.320   6.556   9.455 -1.6703 -1.6964 -1.5174
  713MOL0     H98354   5.294   6.614   9.626  2.5438 -1.0516 -0.9556
  713MOL0     H98355   5.178   6.659   9.503 -2.6713 -2.6405 -0.4430
  713MOL0     H98356   5.359   6.216  10.020 -1.7525 -2.2326 -3.8668
  713MOL0     H98357   5.546   6.217  10.198 -3.7152 -0.7664 -0.4897
  713MOL0     H98358   5.848   6.474  10.087  1.6825  0.9471 -1.1304
  713MOL0     H98359   5.822   6.468  10.258 -3.8968 -3.0165 -0.1013
  713MOL0     H98360   6.058   6.338  10.109  1.9441  0.5734  0.0629
  713MOL0     H98361   6.053   6.488  10.198 -2.7170 -0.2103  0.1408
  713MOL0     H98362   5.976   6.226  10.336 -2.6315  2.1707  2.3145
  713MOL0     H98363   5.992   6.368  10.411  0.7292 -0.8981 -0.1237
  713MOL0     H98364   6.245   6.382  10.382  2.0922 -1.5199  1.3735
  713MOL0     H98365   6.240   6.254  10.260  1.0001  4.2875 -1.8284
  713MOL0     H98366   6.155   6.209  10.542 -1.1826  0.6481 -1.3373
  713MOL0     H98367   6.156   6.087  10.421 -1.5184  1.0261  1.3552
  713MOL0     H98368   6.393   6.213  10.568 -1.5865 -1.6008  1.8919
  713MOL0     H98369   6.414   6.139  10.407  2.3274  0.8031  0.5909
  713MOL0     H98370   6.319   5.932  10.516 -1.2189 -1.1277  1.7878
  713MOL0     H98371   6.282   6.027  10.656  0.4879  3.3113  0.6132
  713MOL0     H98372   6.558   5.984  10.513 -1.9301  2.3562  0.0763
  713MOL0     H98373   6.508   5.865  10.629 -2.2266 -1.0694 -2.6462
  713MOL0     H98374   5.807   6.374   9.911  0.9163  0.5690  2.4217
  713MOL0     H98375   5.670   6.346   9.740 -0.7280  0.4766 -0.7758
  713MOL0     H98376   5.212   6.138   9.688  1.8905  2.5494  2.1356
  713MOL0     H98377   5.000   6.112   9.560 -0.5280  0.5020  2.4137
  713MOL0     H98378   3.281   6.404   9.810 -1.8976 -0.3809  0.7999
  713MOL0     H98379   3.072   6.301   9.758 -1.1603 -2.3771  1.8450
  713MOL0     H98380   2.922   5.823   9.675  1.0194  3.7474  2.7039
  713MOL0     H98381   2.754   5.662   9.638  0.8479 -1.2551  2.5503
  713MOL0     H98382   2.536   5.743   9.431  0.9453 -2.6586 -1.9244
  713MOL0     H98383   2.556   5.578   9.477 -0.1782  0.2266 -2.0904
  713MOL0     H98384   2.360   5.604   9.346  1.3373  1.6518 -0.8166
  713MOL0     H98385   2.309   5.740   9.451  1.6790  0.8993 -0.0843
  713MOL0     H98386   2.268   5.563   9.632  1.0060  2.8349 -0.6015
  713MOL0     H98387   2.152   5.598   9.495  1.3550  0.5305 -0.9940
  713MOL0     H98388   2.243   5.389   9.387  1.2346 -3.1592  0.7483
  713MOL0     H98389   2.173   5.354   9.554 -0.4560  0.4739  0.9609
  713MOL0     H98390   2.588   5.256   9.570 -0.0183  1.4412  3.2129
  713MOL0     H98391   2.452   5.934   9.775  0.2792 -1.7250  1.9436
  713MOL0     H98392   2.687   6.149   9.950 -0.1409 -0.6740 -0.1392
  713MOL0     H98393   2.571   6.193   9.819 -0.7006  0.6135 -0.4508
  713MOL0     H98394   2.528   6.067   9.942  0.2204 -0.4724 -0.3180
  714MOL0     O98395   2.397   8.265   6.884 -0.2324 -0.1793 -0.3869
  714MOL0     C98396   2.458   8.188   6.813 -0.8537 -0.3393  1.0153
  714MOL0     O98397   2.399   8.100   6.730  0.1729  0.7292 -0.2947
  714MOL0     C98398   2.264   8.096   6.733  0.0873  0.7007 -1.1252
  714MOL0     C98399   2.182   8.187   6.669 -0.4960  0.2396  0.7718
  714MOL0     C98400   2.047   8.179   6.695  0.2413  0.0536  0.1333
  714MOL0     C98401   1.988   8.088   6.785 -0.7424  0.1686 -0.6682
  714MOL0     O98402   1.854   8.084   6.777 -0.1599  0.1544  1.0666
  714MOL0     C98403   1.779   7.979   6.849  0.8260 -0.5341  0.2649
  714MOL0     C98404   1.631   8.001   6.804  0.4850  1.1065 -1.2847
  714MOL0     C98405   1.531   7.941   6.908  0.0028 -0.2690 -0.0234
  714MOL0     C98406   1.395   7.921   6.835  0.4694  0.0749 -0.5508
  714MOL0     C98407   1.280   7.907   6.936 -0.4336  0.4496  0.0688
  714MOL0     C98408   1.154   7.867   6.876  0.6883  0.2486  1.1361
  714MOL0     C98409   1.044   7.845   6.982 -0.3237 -0.4934  0.4917
  714MOL0     C98410   0.910   7.819   6.927  0.9465 -0.5711  0.5749
  714MOL0     N98411   0.857   7.911   6.820 -0.2838  0.5820  0.4474
  714MOL0     C98412   0.788   8.019   6.849 -0.2419 -0.7855  0.1724
  714MOL0     C98413   0.751   8.073   6.734  0.9364  0.0158  0.6370
  714MOL0     C98414   0.662   8.200   6.714  0.1343 -0.0745  0.2743
  714MOL0     C98415   0.517   8.172   6.737  0.2480 -0.3808  0.2104
  714MOL0     C98416   0.433   8.300   6.754 -0.3845  0.4298 -0.1870
  714MOL0     C98417   0.287   8.271   6.794 -0.2560 -0.2328  0.5221
  714MOL0     O98418   0.269   8.235   6.924  0.3181 -0.6878 -0.3158
  714MOL0     C98419   0.175   8.141   6.959 -0.6577 -0.3846  0.6191
  714MOL0     C98420   0.172   8.087   7.085  0.3045  1.2678  0.0511
  714MOL0     C98421   0.082   7.991   7.133 -1.6255 -0.3147  0.0982
  714MOL0     C98422   0.097   7.964   7.283  0.1846  0.3969  0.1732
  714MOL0     C98423  -0.012   7.938   7.042  0.9428  0.0007 -0.0710
  714MOL0     C98424  -0.110   7.824   7.068 -0.0817  0.0400  0.1465
  714MOL0     O98425  -0.231   7.816   7.003 -0.5421  0.4096 -0.1353
  714MOL0     C98426  -0.323   7.718   7.032  0.5436  1.1092 -0.6856
  714MOL0     C98427  -0.296   7.580   6.998 -0.4484 -0.0381  0.1441
  714MOL0     C98428  -0.398   7.482   7.018  0.0072 -0.2648 -0.3755
  714MOL0     C98429  -0.528   7.514   7.069  0.3143 -0.1709 -0.4249
  714MOL0     O98430  -0.621   7.417   7.090 -0.2080  0.5596 -0.9765
  714MOL0     C98431  -0.660   7.358   6.964 -1.2655 -0.5155 -0.5573
  714MOL0     C98432  -0.679   7.205   6.976 -0.0453  0.4304 -0.5825
  714MOL0     C98433  -0.781   7.167   7.083 -0.1341 -1.1449 -0.8487
  714MOL0     C98434  -0.796   7.016   7.093 -1.3021  0.7388 -0.2228
  714MOL0     C98435  -0.894   6.957   7.203 -0.2515 -0.6239  0.2938
  714MOL0     C98436  -0.855   7.000   7.347  0.7250  0.8955  0.3123
  714MOL0     C98437  -0.724   6.934   7.397 -0.0362  0.6032  0.6357
  714MOL0     C98438  -0.706   6.911   7.548  0.0745  0.3455 -0.6091
  714MOL0    Cl98439  -0.545   6.848   7.570 -0.5323 -0.0259  0.1196
  714MOL0     C98440  -0.548   7.649   7.117  0.4028 -0.1582  0.2955
  714MOL0     C98441  -0.452   7.750   7.089 -0.6582  0.5012  0.3678
  714MOL0     O98442  -0.073   7.735   7.146  0.3162 -0.4720  0.1319
  714MOL0     C98443  -0.016   7.982   6.910 -0.5743 -0.1756  0.0193
  714MOL0     C98444   0.082   8.080   6.872 -0.2241  0.6400  0.4187
  714MOL0     N98445   0.797   7.989   6.631  0.3220  0.3045  0.2769
  714MOL0     N98446   0.862   7.885   6.688  0.3095  0.6370  0.9137
  714MOL0     C98447   2.066   8.014   6.865 -0.4575 -0.4646  0.3673
  714MOL0     C98448   2.206   8.015   6.839 -0.0441 -1.6624 -0.1634
  714MOL0     C98449   2.608   8.197   6.813  0.3066 -0.1694 -0.4240
  714MOL0     C98450   2.666   8.241   6.934 -0.4977 -0.2848  0.3586
  714MOL0     C98451   2.803   8.268   6.945 -0.1037 -0.0253 -0.0639
  714MOL0     C98452   2.890   8.259   6.835 -0.6611  0.5751  0.6560
  714MOL0     O98453   3.019   8.298   6.849  0.5076  0.0369  0.3904
  714MOL0     C98454   3.119   8.307   6.748 -0.8709 -0.9922 -0.5681
  714MOL0     C98455   3.196   8.180   6.724 -0.2761 -0.5931  0.2768
  714MOL0     C98456   3.294   8.180   6.602  1.0202 -0.1070 -0.5036
  714MOL0     C98457   3.358   8.052   6.560 -0.5952 -0.4979  0.3408
  714MOL0     C98458   3.490   8.036   6.621  0.1598  0.0680  0.0238
  714MOL0     C98459   3.592   8.028   6.693 -0.0248  0.6696  0.1281
  714MOL0     C98460   2.832   8.220   6.711  0.0238 -0.3470 -0.2218
  714MOL0     C98461   2.693   8.187   6.706  1.0320 -1.1731  0.3435
  714MOL0     C98462   2.631   8.160   6.570 -0.2165  0.5013 -0.3878
  714MOL0     H98463   2.222   8.243   6.585 -0.7874 -0.3762  0.2083
  714MOL0     H98464   1.982   8.236   6.629  1.0405 -1.3713 -1.9532
  714MOL0     H98465   1.796   7.994   6.956 -4.3132  4.6389  0.8048
  714MOL0     H98466   1.797   7.875   6.820  0.5342 -0.5843  0.2606
  714MOL0     H98467   1.609   8.108   6.802 -2.8764  0.6899  1.6114
  714MOL0     H98468   1.609   7.940   6.716 -4.6340 -1.9056  1.5601
  714MOL0     H98469   1.572   7.850   6.952  3.0790  1.6683  1.4540
  714MOL0     H98470   1.505   8.012   6.987  1.3308 -0.8861  1.0112
  714MOL0     H98471   1.373   8.005   6.769  0.3897  1.1041  0.7498
  714MOL0     H98472   1.408   7.838   6.764  0.6226  0.6830 -1.2458
  714MOL0     H98473   1.270   8.006   6.982 -1.6876 -0.7080  2.4574
  714MOL0     H98474   1.314   7.839   7.015 -1.4464  0.8509  0.8734
  714MOL0     H98475   1.121   7.945   6.807  1.8787 -0.1289  0.0967
  714MOL0     H98476   1.167   7.777   6.815  0.2772  0.1157  1.2355
  714MOL0     H98477   1.029   7.932   7.047 -3.6063 -1.6406  1.4506
  714MOL0     H98478   1.067   7.760   7.047 -2.1052 -0.4627  1.2307
  714MOL0     H98479   0.922   7.722   6.880 -2.4346 -0.2478 -1.3312
  714MOL0     H98480   0.846   7.797   7.013 -0.0445 -1.7494 -0.4270
  714MOL0     H98481   0.766   8.054   6.949 -0.4533 -1.5629  0.4034
  714MOL0     H98482   0.678   8.230   6.610 -2.7444  1.6111  0.2266
  714MOL0     H98483   0.698   8.279   6.781  0.8107  0.8632 -1.1511
  714MOL0     H98484   0.473   8.112   6.656 -2.0306 -0.2347  1.2647
  714MOL0     H98485   0.510   8.120   6.833  0.3101  0.7092  0.8203
  714MOL0     H98486   0.477   8.363   6.832 -1.6004  0.3563  0.5944
  714MOL0     H98487   0.440   8.354   6.659  0.5231 -0.7350 -0.8038
  714MOL0     H98488   0.220   8.349   6.757  0.9661  0.8002  0.4290
  714MOL0     H98489   0.263   8.188   6.727 -1.3512  0.8518 -0.4689
  714MOL0     H98490   0.254   8.119   7.148  0.9605 -1.3608  0.6174
  714MOL0     H98491   0.199   7.973   7.323 -0.3396 -1.3376  2.1037
  714MOL0     H98492   0.067   7.861   7.302 -2.6869  0.7954 -1.5897
  714MOL0     H98493   0.048   8.029   7.356  2.7950  2.6638  0.0645
  714MOL0     H98494  -0.194   7.550   6.979  0.3909  1.0769  2.4555
  714MOL0     H98495  -0.377   7.380   6.987 -3.3283 -1.2323  0.1419
  714MOL0     H98496  -0.758   7.399   6.938 -1.3615 -0.0772  0.4422
  714MOL0     H98497  -0.584   7.374   6.886  1.2237  0.7138  1.9389
  714MOL0     H98498  -0.708   7.166   6.878  0.5148 -0.2534 -0.4872
  714MOL0     H98499  -0.578   7.166   6.992 -0.9243 -2.0573 -0.6311
  714MOL0     H98500  -0.880   7.210   7.059  1.2363  2.2047 -1.0465
  714MOL0     H98501  -0.747   7.213   7.175 -1.7237 -0.1927 -0.6831
  714MOL0     H98502  -0.694   6.982   7.114 -0.8951  0.3426 -2.5612
  714MOL0     H98503  -0.825   6.982   6.993  1.9099 -0.8242 -0.7444
  714MOL0     H98504  -0.997   6.987   7.185  0.0531  3.5304  3.8206
  714MOL0     H98505  -0.883   6.849   7.207  1.9001 -0.4971 -0.5851
  714MOL0     H98506  -0.938   6.960   7.406  0.2476 -2.1170 -2.1592
  714MOL0     H98507  -0.843   7.109   7.353  1.9162  1.0198 -2.6844
  714MOL0     H98508  -0.637   6.990   7.364 -0.6108  2.6606  2.3757
  714MOL0     H98509  -0.709   6.835   7.353 -2.3089  0.1297  0.7531
  714MOL0     H98510  -0.791   6.856   7.588 -0.6618  1.0242 -1.2079
  714MOL0     H98511  -0.705   7.006   7.603  0.9655  0.8004 -1.3675
  714MOL0     H98512  -0.644   7.680   7.158 -0.4215  1.5250 -2.6478
  714MOL0     H98513  -0.474   7.855   7.105 -3.3729  0.4459 -2.2697
  714MOL0     H98514  -0.070   7.933   6.829 -1.5757  1.7330 -0.5259
  714MOL0     H98515   0.084   8.107   6.766  1.0064  0.7540  0.4632
  714MOL0     H98516   2.019   7.957   6.945 -2.3190 -1.4380 -1.3480
  714MOL0     H98517   2.274   7.963   6.906  2.7934 -0.6581 -2.0858
  714MOL0     H98518   2.603   8.251   7.021 -1.0038  1.6048 -0.1655
  714MOL0     H98519   2.844   8.303   7.039  1.1750  1.4969 -1.1303
  714MOL0     H98520   3.080   8.348   6.655 -0.8103 -0.8789 -0.5440
  714MOL0     H98521   3.187   8.385   6.784  1.3790 -2.3054 -1.7067
  714MOL0     H98522   3.119   8.107   6.700 -1.0675  0.7028 -1.3728
  714MOL0     H98523   3.245   8.133   6.810  0.6177 -1.2278 -0.5531
  714MOL0     H98524   3.233   8.214   6.518 -1.3543 -2.5726  0.0907
  714MOL0     H98525   3.375   8.252   6.615  2.2794 -1.0760 -2.5214
  714MOL0     H98526   3.373   8.057   6.452  0.8582 -2.3814  0.3912
  714MOL0     H98527   3.304   7.959   6.581  1.7810 -2.7799 -2.7294
  714MOL0     H98528   3.677   8.025   6.757  1.3354 -0.1553 -1.6168
  714MOL0     H98529   2.892   8.220   6.621  1.0384  1.8143  0.3772
  714MOL0     H98530   2.544   8.224   6.553 -3.3701 -2.8791  1.3342
  714MOL0     H98531   2.706   8.156   6.491 -1.5208  0.9373 -1.6904
  714MOL0     H98532   2.607   8.053   6.560  1.4235  0.1996 -1.3746
  715MOL0     O98533   9.164   1.073   2.977 -0.4796  0.2032  0.7524
  715MOL0     C98534   9.126   1.189   2.943  0.1333 -0.2321 -1.1685
  715MOL0     O98535   9.111   1.292   3.031  0.5927  1.2634 -0.7317
  715MOL0     C98536   9.180   1.285   3.147 -0.0409  1.3416  1.0806
  715MOL0     C98537   9.113   1.245   3.271 -0.2318  0.4454  0.3889
  715MOL0     C98538   9.186   1.232   3.391 -0.5681 -0.0389 -0.9586
  715MOL0     C98539   9.329   1.255   3.394  0.3599  0.4192 -0.5962
  715MOL0     O98540   9.394   1.235   3.509  0.2828  0.9552  0.0710
  715MOL0     C98541   9.530   1.183   3.514 -0.0891  0.0549  0.0687
  715MOL0     C98542   9.576   1.233   3.650 -0.1442  0.1069 -0.6448
  715MOL0     C98543   9.731   1.206   3.659 -0.2499 -0.5647 -0.0236
  715MOL0     C98544   9.808   1.254   3.786  0.2974  0.4254 -0.0991
  715MOL0     C98545   9.872   1.394   3.777 -0.2884 -0.2685  0.3080
  715MOL0     C98546   9.962   1.429   3.890 -1.0206  0.2503  0.3548
  715MOL0     C98547  10.014   1.574   3.889 -0.2677  0.4907  0.3126
  715MOL0     C98548   9.926   1.681   3.935  1.2510 -1.1791  0.9088
  715MOL0     N98549   9.964   1.819   3.888  0.7388 -0.0226 -0.3789
  715MOL0     C98550  10.080   1.892   3.922  0.5073  0.4626 -0.5847
  715MOL0     C98551  10.053   2.017   3.873  0.1991 -1.0781  0.7034
  715MOL0     C98552  10.127   2.147   3.905 -1.0584  0.5383 -0.2242
  715MOL0     C98553  10.251   2.160   3.811  0.3294 -0.9197 -1.1430
  715MOL0     C98554  10.304   2.307   3.799 -0.1668 -0.3687 -0.0872
  715MOL0     C98555  10.314   2.400   3.922  0.7572 -0.0562 -0.4786
  715MOL0     O98556  10.371   2.525   3.882  0.0491 -0.5166  0.2465
  715MOL0     C98557  10.302   2.636   3.851 -0.4256 -0.5527  0.7764
  715MOL0     C98558  10.364   2.762   3.846  0.2360  0.7829  0.2099
  715MOL0     C98559  10.291   2.882   3.832  0.0086  0.1701  0.6343
  715MOL0     C98560  10.385   3.004   3.835 -0.6831 -0.8932  0.3159
  715MOL0     C98561  10.155   2.876   3.799  0.4146 -0.3631 -0.3535
  715MOL0     C98562  10.068   2.991   3.763 -0.1845  1.0654 -0.3003
  715MOL0     O98563   9.940   2.964   3.720 -0.1474 -0.1617  1.1004
  715MOL0     C98564   9.854   3.058   3.676 -0.3632  0.3987  0.2936
  715MOL0     C98565   9.754   3.109   3.769  0.1402 -0.1155 -0.5176
  715MOL0     C98566   9.663   3.209   3.727 -0.4889  0.6917 -1.1942
  715MOL0     C98567   9.689   3.261   3.600 -0.3869  1.4681 -0.5458
  715MOL0     O98568   9.632   3.373   3.554 -0.5873 -0.1683  0.2690
  715MOL0     C98569   9.648   3.489   3.645 -0.0920  0.3274 -0.9692
  715MOL0     C98570   9.733   3.591   3.564 -0.3530 -0.1966  0.9529
  715MOL0     C98571   9.825   3.676   3.663 -0.7620  0.6479 -0.0888
  715MOL0     C98572   9.940   3.592   3.726 -0.2665  0.5074  0.5311
  715MOL0     C98573  10.024   3.669   3.822 -0.2574  0.4248 -1.2551
  715MOL0     C98574   9.964   3.696   3.961  0.4292  1.0783  0.0255
  715MOL0     C98575  10.052   3.787   4.037 -0.2439  0.5914 -0.9228
  715MOL0     C98576   9.966   3.851   4.155  0.0479 -0.9777 -0.8666
  715MOL0    Cl98577   9.893   3.709   4.253 -0.2742 -0.4119  0.0060
  715MOL0     C98578   9.767   3.195   3.504  0.8468 -0.9236 -0.1579
  715MOL0     C98579   9.856   3.097   3.544 -0.7276 -1.1621 -0.5417
  715MOL0     O98580  10.108   3.102   3.785  0.1786 -0.2653  0.0618
  715MOL0     C98581  10.089   2.748   3.807 -0.9989 -0.3634  0.1303
  715MOL0     C98582  10.158   2.625   3.840  0.0449 -1.3695 -0.6672
  715MOL0     N98583   9.931   2.014   3.811  0.4137  0.4874  0.3764
  715MOL0     N98584   9.883   1.892   3.813  0.6791 -0.4983 -0.8955
  715MOL0     C98585   9.384   1.299   3.278 -0.8916  0.1959  0.1691
  715MOL0     C98586   9.315   1.317   3.152  0.2895 -1.4270 -0.0968
  715MOL0     C98587   9.104   1.219   2.791 -0.8386  0.7863 -1.2402
  715MOL0     C98588   9.149   1.124   2.703 -1.2780  0.2729 -0.6572
  715MOL0     C98589   9.155   1.159   2.565 -0.3393 -0.3445 -0.7925
  715MOL0     C98590   9.130   1.277   2.516  0.2593 -1.0410  0.0909
  715MOL0     O98591   9.140   1.301   2.379 -0.2399  0.6263  0.0683
  715MOL0     C98592   9.064   1.408   2.319  0.1622  0.2700 -0.5209
  715MOL0     C98593   8.913   1.364   2.316  0.4407  0.5582  0.1172
  715MOL0     C98594   8.883   1.213   2.296 -0.7727  0.2541 -0.2033
  715MOL0     C98595   8.904   1.153   2.152  1.3369  0.2905  0.6313
  715MOL0     C98596   8.842   1.237   2.036 -0.5196 -0.3512 -0.9918
  715MOL0     C98597   8.817   1.302   1.944 -0.0153 -0.7027  0.2041
  715MOL0     C98598   9.081   1.374   2.609 -0.3422 -0.0988  0.3361
  715MOL0     C98599   9.055   1.336   2.746  0.2418 -1.2100 -0.8934
  715MOL0     C98600   9.002   1.450   2.821 -0.3466 -0.7886  0.9213
  715MOL0     H98601   9.012   1.206   3.266 -0.9491  2.3372 -1.7589
  715MOL0     H98602   9.134   1.197   3.479  1.1484  0.4733  0.3384
  715MOL0     H98603   9.589   1.212   3.426 -0.9035  2.3214  0.2157
  715MOL0     H98604   9.535   1.074   3.523 -2.6430 -0.3511 -2.2265
  715MOL0     H98605   9.558   1.339   3.673 -1.4425  0.1177 -1.5526
  715MOL0     H98606   9.527   1.177   3.730 -0.0894 -0.7749 -1.2208
  715MOL0     H98607   9.749   1.099   3.640  2.0531 -0.0888 -0.8783
  715MOL0     H98608   9.778   1.265   3.580  0.2224 -0.5288  0.2768
  715MOL0     H98609   9.737   1.265   3.869 -0.3250  1.7596 -0.7637
  715MOL0     H98610   9.879   1.177   3.815 -0.7510  0.4732  3.0527
  715MOL0     H98611   9.787   1.462   3.764  0.5757  0.5846 -1.1406
  715MOL0     H98612   9.931   1.403   3.685 -2.5263 -3.0506 -1.5778
  715MOL0     H98613   9.893   1.412   3.973 -1.2151 -1.1942 -0.0676
  715MOL0     H98614  10.038   1.353   3.908 -1.8378 -0.3435  1.4832
  715MOL0     H98615  10.037   1.606   3.787 -0.6817 -1.5387 -0.4639
  715MOL0     H98616  10.100   1.584   3.956  0.2851 -2.0688  0.0777
  715MOL0     H98617   9.827   1.663   3.892 -0.3905  0.8893  3.4691
  715MOL0     H98618   9.908   1.690   4.042 -2.3912  0.0304  0.3347
  715MOL0     H98619  10.156   1.867   3.995  0.7679  1.3041 -0.5582
  715MOL0     H98620  10.165   2.166   4.005  0.7443 -0.6700 -0.6245
  715MOL0     H98621  10.052   2.225   3.893 -1.1134  0.0788 -4.5781
  715MOL0     H98622  10.342   2.122   3.859 -1.0266 -1.8844  0.7561
  715MOL0     H98623  10.240   2.116   3.712 -0.3581  0.9491 -1.9484
  715MOL0     H98624  10.408   2.299   3.766 -0.4036 -1.2270 -0.6458
  715MOL0     H98625  10.249   2.367   3.726 -0.4800  1.8587  1.8579
  715MOL0     H98626  10.223   2.412   3.982 -0.9599 -3.1345 -2.2283
  715MOL0     H98627  10.397   2.363   3.983  1.5749 -0.3102 -1.7114
  715MOL0     H98628  10.467   2.752   3.878  0.0189 -2.5051  0.3077
  715MOL0     H98629  10.414   3.046   3.738 -0.6611  1.7294  1.3802
  715MOL0     H98630  10.479   2.977   3.883 -0.8467 -2.6693 -0.2767
  715MOL0     H98631  10.341   3.080   3.899 -1.9887 -0.6250 -0.8398
  715MOL0     H98632   9.753   3.089   3.876  3.8049  1.0471 -0.1315
  715MOL0     H98633   9.591   3.266   3.785  0.0688 -0.1438  0.3818
  715MOL0     H98634   9.545   3.521   3.665  0.2572  0.0671  1.5106
  715MOL0     H98635   9.705   3.464   3.735  0.0050 -2.5089 -1.7428
  715MOL0     H98636   9.794   3.540   3.489 -1.6829  3.0723 -2.6885
  715MOL0     H98637   9.676   3.662   3.504  0.6752  1.1457  1.5032
  715MOL0     H98638   9.758   3.717   3.739  0.2416 -0.5244  1.4950
  715MOL0     H98639   9.867   3.767   3.619 -0.9017  1.8945  2.2372
  715MOL0     H98640  10.000   3.567   3.638 -1.8682 -1.8600  0.0208
  715MOL0     H98641   9.918   3.496   3.774 -1.3847  0.6155  0.2555
  715MOL0     H98642  10.106   3.599   3.838 -0.1733  1.2098  2.7659
  715MOL0     H98643  10.056   3.761   3.772  2.2391 -0.4027 -1.3186
  715MOL0     H98644   9.943   3.597   4.002  0.1038  0.4708 -1.5436
  715MOL0     H98645   9.870   3.748   3.942  1.0159  2.2435  0.2208
  715MOL0     H98646  10.091   3.856   3.962  1.4952  1.0947  0.4132
  715MOL0     H98647  10.131   3.738   4.094  0.2884  5.3120  2.9878
  715MOL0     H98648   9.880   3.910   4.123 -0.2241 -0.1490  1.2613
  715MOL0     H98649  10.018   3.916   4.226 -0.8002 -0.8470 -0.3573
  715MOL0     H98650   9.758   3.213   3.397 -1.4333 -2.2560 -0.2806
  715MOL0     H98651   9.928   3.057   3.474  0.9716 -1.2522  1.1610
  715MOL0     H98652   9.981   2.734   3.799 -1.6313  2.2212  2.6022
  715MOL0     H98653  10.091   2.540   3.844 -1.8318 -0.0874 -2.6128
  715MOL0     H98654   9.492   1.315   3.281 -0.6174 -0.7784 -1.9683
  715MOL0     H98655   9.371   1.356   3.067 -0.9843  0.5007 -0.1208
  715MOL0     H98656   9.178   1.025   2.736 -0.3210 -0.0935 -2.4779
  715MOL0     H98657   9.201   1.088   2.497  0.2016 -0.9769  0.2146
  715MOL0     H98658   9.083   1.503   2.369  0.6108  0.4804 -1.0786
  715MOL0     H98659   9.100   1.429   2.218  1.1314 -0.0891 -0.2605
  715MOL0     H98660   8.873   1.422   2.232  1.0919  0.5645 -0.1939
  715MOL0     H98661   8.869   1.408   2.406  0.4902  0.1224  0.3567
  715MOL0     H98662   8.937   1.144   2.362 -1.5022 -0.5652 -0.4404
  715MOL0     H98663   8.779   1.194   2.323 -0.7666  1.5011  0.7846
  715MOL0     H98664   8.858   1.054   2.148 -0.8020  1.2598 -0.6519
  715MOL0     H98665   9.012   1.142   2.138  0.8406 -2.1544 -2.4946
  715MOL0     H98666   8.801   1.363   1.858  2.6909  0.0985  0.1563
  715MOL0     H98667   9.068   1.478   2.580  0.0809 -0.8469 -2.9138
  715MOL0     H98668   9.084   1.515   2.853  1.9704 -4.4645  3.2423
  715MOL0     H98669   8.925   1.507   2.769  1.1882  1.6272  1.1198
  715MOL0     H98670   8.941   1.410   2.902 -1.2851 -0.0458  0.5892
  716MOL0     O98671   4.877   1.918  10.810  0.5877  0.0464  0.4153
  716MOL0     C98672   4.858   1.813  10.756  0.3930  0.5930  0.0317
  716MOL0     O98673   4.737   1.752  10.726 -0.1563  0.5520  0.5059
  716MOL0     C98674   4.616   1.815  10.741  0.7303  0.8277 -0.8402
  716MOL0     C98675   4.603   1.950  10.699  0.1073 -0.8233 -0.2558
  716MOL0     C98676   4.481   2.018  10.717  0.6158 -0.1412  0.5219
  716MOL0     C98677   4.371   1.948  10.760 -0.3334 -0.4282 -0.5509
  716MOL0     O98678   4.257   2.015  10.761  0.1014 -0.1184  0.2555
  716MOL0     C98679   4.132   1.944  10.781 -0.4515 -0.3802 -0.7055
  716MOL0     C98680   4.004   2.026  10.751 -0.4870  0.3078  0.4506
  716MOL0     C98681   4.015   2.107  10.624  0.3315  0.2733 -0.1543
  716MOL0     C98682   3.882   2.169  10.584 -0.7888  0.0357  0.7234
  716MOL0     C98683   3.905   2.274  10.466 -0.5700  0.5041 -0.5431
  716MOL0     C98684   3.780   2.341  10.414  0.3292 -0.3725 -0.0726
  716MOL0     C98685   3.822   2.417  10.287  0.4348  0.1841 -1.0172
  716MOL0     C98686   3.743   2.549  10.269 -0.6492  0.0386  0.0330
  716MOL0     N98687   3.803   2.598  10.147  0.0560 -0.6019  0.0577
  716MOL0     C98688   3.928   2.653  10.149 -0.6953 -0.3204  0.3759
  716MOL0     C98689   3.947   2.675  10.015 -0.0820 -0.0905 -0.4810
  716MOL0     C98690   4.083   2.699   9.958 -0.1670  0.4186  0.2441
  716MOL0     C98691   4.181   2.581   9.971  0.5049  0.2282 -0.9499
  716MOL0     C98692   4.308   2.619   9.888  1.4515 -0.2188 -0.3877
  716MOL0     C98693   4.420   2.513   9.903  0.1910  0.1965 -0.1379
  716MOL0     O98694   4.480   2.528  10.037  0.2390  0.0096  0.3391
  716MOL0     C98695   4.614   2.488  10.058  0.0746 -0.0880  0.1849
  716MOL0     C98696   4.713   2.576  10.023 -0.1608 -0.4556 -0.6334
  716MOL0     C98697   4.848   2.539  10.029 -0.1688 -0.2569 -0.0165
  716MOL0     C98698   4.943   2.639   9.983 -0.2228  0.0800 -0.3313
  716MOL0     C98699   4.875   2.401  10.048 -0.2980  0.4546  0.0830
  716MOL0     C98700   5.013   2.336  10.058  0.0796  0.1685 -0.3518
  716MOL0     O98701   5.022   2.196  10.081 -0.2489  0.3193 -0.1823
  716MOL0     C98702   5.128   2.120  10.041 -0.2936  0.5535 -0.2241
  716MOL0     C98703   5.139   1.993  10.108  0.5222  0.4419 -0.0107
  716MOL0     C98704   5.228   1.904  10.072  0.0934  0.8279 -1.0897
  716MOL0     C98705   5.327   1.937   9.980 -0.1915  0.3978  0.6761
  716MOL0     O98706   5.426   1.843   9.967  0.2596  0.0038  0.6357
  716MOL0     C98707   5.560   1.887   9.931 -0.1135 -0.5064 -0.0548
  716MOL0     C98708   5.635   1.971  10.044  0.4331  0.1917  1.1000
  716MOL0     C98709   5.783   1.928  10.039  0.6039 -0.1487 -0.0319
  716MOL0     C98710   5.855   2.030  10.132  0.3866  0.9318  0.7830
  716MOL0     C98711   5.995   1.974  10.160 -0.1228 -0.5306 -1.1735
  716MOL0     C98712   6.083   2.066  10.234  0.3870  0.1837 -0.5093
  716MOL0     C98713   6.223   2.025  10.262 -0.1532 -0.7022 -0.6381
  716MOL0     C98714   6.306   2.126  10.343  0.2688  0.2211  0.7432
  716MOL0    Cl98715   6.248   2.122  10.502 -0.1926 -0.1144  0.1012
  716MOL0     C98716   5.329   2.067   9.924 -0.2572  0.2734 -0.2676
  716MOL0     C98717   5.226   2.154   9.951 -0.2360 -0.0660 -0.4978
  716MOL0     O98718   5.107   2.417  10.064  0.0257 -1.0831  0.4705
  716MOL0     C98719   4.764   2.314  10.061 -0.0896 -0.1292 -0.3869
  716MOL0     C98720   4.631   2.353  10.071 -0.8346 -0.1472 -0.3452
  716MOL0     N98721   3.831   2.642   9.945  0.2496  0.3297 -0.9962
  716MOL0     N98722   3.749   2.591  10.024  0.2190  1.1961 -0.5069
  716MOL0     C98723   4.382   1.812  10.785 -0.4651 -0.1007  0.7110
  716MOL0     C98724   4.504   1.746  10.777 -1.0939  0.0777  0.1193
  716MOL0     C98725   4.981   1.739  10.738 -0.2742  0.3983 -0.3849
  716MOL0     C98726   5.103   1.813  10.718  0.9311  0.3742 -0.0125
  716MOL0     C98727   5.232   1.756  10.706 -0.0324 -0.5898  0.0697
  716MOL0     C98728   5.240   1.631  10.748  0.1048  0.2535  0.0236
  716MOL0     O98729   5.365   1.577  10.743 -0.1593  0.7882  0.3024
  716MOL0     C98730   5.388   1.467  10.838  0.2187  0.6123 -0.2481
  716MOL0     C98731   5.538   1.433  10.847  0.5152  0.3251  0.2989
  716MOL0     C98732   5.594   1.388  10.706 -0.1007  0.4986  0.4328
  716MOL0     C98733   5.722   1.314  10.713 -0.1721  0.1022 -0.5718
  716MOL0     C98734   5.825   1.378  10.795  0.3555 -0.3128  0.4332
  716MOL0     C98735   5.929   1.431  10.813  0.2328  0.2636  0.2606
  716MOL0     C98736   5.123   1.554  10.792 -0.3109 -0.5535  0.5475
  716MOL0     C98737   4.992   1.607  10.770  0.4299  0.7388 -0.2138
  716MOL0     C98738   4.876   1.510  10.805  0.2682 -0.1354  0.5688
  716MOL0     H98739   4.695   1.999  10.668  0.3872  1.9954  4.1643
  716MOL0     H98740   4.464   2.124  10.706  2.6871  0.2628  0.8704
  716MOL0     H98741   4.138   1.916  10.887 -1.3713  1.9759  0.0448
  716MOL0     H98742   4.133   1.859  10.712  0.6213 -0.6079 -0.4241
  716MOL0     H98743   3.916   1.961  10.742  0.2166 -0.5869 -0.2139
  716MOL0     H98744   3.985   2.098  10.831 -0.1228 -1.2208  1.9755
  716MOL0     H98745   4.077   2.188  10.662 -0.9893  0.9987  0.5270
  716MOL0     H98746   4.063   2.048  10.545 -2.6485 -1.7129 -0.6733
  716MOL0     H98747   3.828   2.087  10.537  0.7663  0.6553 -2.4265
  716MOL0     H98748   3.823   2.226  10.657 -2.0541 -1.3486  0.8335
  716MOL0     H98749   3.941   2.216  10.381  1.8718 -3.9083  3.0344
  716MOL0     H98750   3.978   2.351  10.491 -0.6775  1.2625 -2.4562
  716MOL0     H98751   3.689   2.283  10.395  0.2108  0.1946 -1.2658
  716MOL0     H98752   3.755   2.412  10.494 -0.3943 -0.7640  0.0644
  716MOL0     H98753   3.804   2.356  10.199  1.0869  1.1143 -1.8222
  716MOL0     H98754   3.928   2.446  10.293  0.5689 -0.4840  0.2565
  716MOL0     H98755   3.635   2.535  10.263 -1.1462  3.2963 -0.3967
  716MOL0     H98756   3.764   2.612  10.356  1.2699 -3.4615  2.3696
  716MOL0     H98757   3.997   2.663  10.232  0.8515  5.2346 -1.1713
  716MOL0     H98758   4.116   2.787  10.014 -1.2037  0.6599  0.5039
  716MOL0     H98759   4.073   2.725   9.853  1.1629  2.0506  0.4825
  716MOL0     H98760   4.230   2.582  10.069  0.8577  3.3368 -1.0808
  716MOL0     H98761   4.136   2.486   9.939 -0.8046  1.5603 -3.3782
  716MOL0     H98762   4.282   2.618   9.782  1.4147 -3.0998 -0.4329
  716MOL0     H98763   4.346   2.719   9.911  2.2706  0.3203 -3.6440
  716MOL0     H98764   4.379   2.412   9.886  1.6763 -0.3018 -0.9012
  716MOL0     H98765   4.495   2.546   9.831  0.6379  0.3892  0.4104
  716MOL0     H98766   4.686   2.678   9.997  2.1846  0.5307  0.4978
  716MOL0     H98767   4.982   2.598   9.889  1.4507  0.7413  0.0357
  716MOL0     H98768   5.019   2.648  10.061 -0.5402 -0.3377  0.0316
  716MOL0     H98769   4.905   2.738   9.955  4.2160  1.4640 -2.2695
  716MOL0     H98770   5.062   1.960  10.177  0.7229 -0.7969 -0.3507
  716MOL0     H98771   5.246   1.808  10.119 -0.2628 -0.6167 -3.7330
  716MOL0     H98772   5.616   1.793   9.926 -3.6570 -3.0899  2.8712
  716MOL0     H98773   5.553   1.940   9.836 -3.3166  1.5482  1.1666
  716MOL0     H98774   5.634   2.079  10.023  2.6482 -0.1823 -1.3860
  716MOL0     H98775   5.589   1.962  10.143  3.6593 -0.1901  2.6937
  716MOL0     H98776   5.818   1.922   9.935  1.4827  0.1766  0.2288
  716MOL0     H98777   5.793   1.822  10.067 -2.1886 -0.9704 -1.8025
  716MOL0     H98778   5.812   2.056  10.229 -0.7468  1.3997  0.1721
  716MOL0     H98779   5.863   2.128  10.085 -0.6507  1.1413  1.0054
  716MOL0     H98780   5.986   1.889  10.228  0.2864  0.0066 -0.4411
  716MOL0     H98781   6.035   1.946  10.062  0.5534  0.8177 -1.3125
  716MOL0     H98782   6.038   2.101  10.327 -0.8886  1.8772 -1.6963
  716MOL0     H98783   6.076   2.157  10.174 -6.0689  1.0634  0.8605
  716MOL0     H98784   6.276   2.010  10.167  3.3371 -1.2866  1.2361
  716MOL0     H98785   6.226   1.928  10.312  1.4764  0.0564  0.8512
  716MOL0     H98786   6.283   2.227  10.307 -2.9122  0.0328  1.9905
  716MOL0     H98787   6.414   2.108  10.334  0.1737  0.6662 -2.4368
  716MOL0     H98788   5.393   2.093   9.841  1.7328 -4.6410 -0.6328
  716MOL0     H98789   5.217   2.246   9.894 -1.0068  0.3184  0.2155
  716MOL0     H98790   4.787   2.209  10.078 -0.5221 -0.2238 -0.3770
  716MOL0     H98791   4.567   2.267  10.089 -1.7893  0.3680 -1.1660
  716MOL0     H98792   4.303   1.743  10.815 -0.0401 -1.1843 -0.5872
  716MOL0     H98793   4.512   1.639  10.795 -1.1001 -0.0677 -0.7206
  716MOL0     H98794   5.111   1.920  10.709  1.7726  0.3851  0.6937
  716MOL0     H98795   5.314   1.825  10.689 -0.8962  0.7160  1.0016
  716MOL0     H98796   5.344   1.496  10.934  1.1950  3.6837 -0.6321
  716MOL0     H98797   5.328   1.379  10.810  2.5700 -0.4800 -2.1941
  716MOL0     H98798   5.557   1.349  10.915 -2.4570 -2.1881 -1.6789
  716MOL0     H98799   5.599   1.520  10.871 -0.8604  1.6356 -0.7894
  716MOL0     H98800   5.512   1.334  10.659  1.0783  0.4157 -1.6457
  716MOL0     H98801   5.603   1.476  10.642 -3.6774  0.9507  0.3473
  716MOL0     H98802   5.766   1.311  10.613 -1.1634  3.6564 -1.2466
  716MOL0     H98803   5.707   1.218  10.763 -2.4531  1.2018  1.1050
  716MOL0     H98804   6.030   1.468  10.818 -0.1143  1.0964  4.0320
  716MOL0     H98805   5.124   1.450  10.825  0.9357 -0.0825  2.1197
  716MOL0     H98806   4.796   1.514  10.730  0.9354 -1.5861 -0.2829
  716MOL0     H98807   4.918   1.409  10.796  1.4568  0.4410 -0.6647
  716MOL0     H98808   4.834   1.535  10.902 -0.8109  2.3734 -0.4803
  717MOL0     O98809   6.897   4.671   8.617  0.4886 -0.4187  0.2449
  717MOL0     C98810   6.802   4.665   8.536 -0.0582  0.3609 -0.6395
  717MOL0     O98811   6.712   4.765   8.508  0.0790 -0.1881  0.4616
  717MOL0     C98812   6.685   4.864   8.597 -0.2835  0.1711  0.3665
  717MOL0     C98813   6.661   4.844   8.733  0.5474  0.4849 -0.4221
  717MOL0     C98814   6.638   4.952   8.821  0.3076  0.7576 -0.0646
  717MOL0     C98815   6.629   5.081   8.767  0.4891  0.6067 -0.3646
  717MOL0     O98816   6.589   5.187   8.848 -0.3253 -0.3317 -0.0452
  717MOL0     C98817   6.482   5.179   8.953 -0.2537 -0.3199  0.1412
  717MOL0     C98818   6.340   5.171   8.891  0.3111  0.0015 -0.2596
  717MOL0     C98819   6.304   5.291   8.812 -0.3461 -0.8556  0.0804
  717MOL0     C98820   6.249   5.391   8.919  0.0723  0.1709 -1.0932
  717MOL0     C98821   6.214   5.527   8.872  0.5717  0.0536  0.1960
  717MOL0     C98822   6.192   5.629   8.992  0.6266 -0.4739  0.9565
  717MOL0     C98823   6.046   5.619   9.037  0.5343  0.6737  0.2545
  717MOL0     C98824   6.012   5.716   9.150  0.0048  0.0580  0.1101
  717MOL0     N98825   5.872   5.695   9.181 -0.1562  1.3165 -0.1137
  717MOL0     C98826   5.837   5.571   9.231 -0.6417 -0.6686 -1.3154
  717MOL0     C98827   5.713   5.585   9.276 -0.1093 -0.1396  0.7547
  717MOL0     C98828   5.617   5.480   9.333 -0.4872 -0.8101 -0.6687
  717MOL0     C98829   5.613   5.482   9.479  0.4421  0.4399 -1.3096
  717MOL0     C98830   5.497   5.407   9.540  0.2094 -0.5540  0.1651
  717MOL0     C98831   5.493   5.435   9.694  0.0708  0.1956  0.3187
  717MOL0     O98832   5.426   5.327   9.756  0.1797 -0.0293  0.4798
  717MOL0     C98833   5.439   5.325   9.892 -0.0202  0.3489 -0.2003
  717MOL0     C98834   5.515   5.413   9.982 -0.0243 -0.7573  0.4957
  717MOL0     C98835   5.499   5.408  10.120 -0.1670 -0.0952  0.0550
  717MOL0     C98836   5.562   5.528  10.180  0.2063  0.1403 -0.4274
  717MOL0     C98837   5.428   5.303  10.186  0.3973 -0.0329 -0.0331
  717MOL0     C98838   5.405   5.293  10.326  0.4426 -0.7274  0.2856
  717MOL0     O98839   5.396   5.407  10.408 -0.1341 -0.2271 -0.1381
  717MOL0     C98840   5.366   5.375  10.534 -0.3810  0.2139 -0.9400
  717MOL0     C98841   5.466   5.323  10.618 -0.6634  0.0343  0.3525
  717MOL0     C98842   5.435   5.271  10.744  0.1161 -0.1695  0.1823
  717MOL0     C98843   5.305   5.269  10.790  0.5548  0.0546 -0.1354
  717MOL0     O98844   5.288   5.219  10.917 -0.9106 -0.1319  0.3937
  717MOL0     C98845   5.158   5.167  10.948  0.8580  0.5560 -1.0975
  717MOL0     C98846   5.165   5.069  11.068 -0.3972 -1.0635  0.8713
  717MOL0     C98847   5.045   4.969  11.071 -0.2780  0.4669 -0.5245
  717MOL0     C98848   4.907   5.037  11.092  0.0493  0.5294  1.4190
  717MOL0     C98849   4.884   5.106  11.222 -0.6873 -0.4592  0.1442
  717MOL0     C98850   4.874   5.012  11.351 -0.0018 -0.3534  0.6414
  717MOL0     C98851   4.842   5.114  11.465  0.3678  0.6664  1.0251
  717MOL0     C98852   4.815   5.047  11.604  0.1045 -0.0087 -0.3851
  717MOL0    Cl98853   4.671   4.949  11.620  0.4540  0.0658 -0.2509
  717MOL0     C98854   5.203   5.317  10.707  0.5787 -0.2430  0.1764
  717MOL0     C98855   5.233   5.376  10.581  0.5095 -0.3037 -0.3059
  717MOL0     O98856   5.405   5.174  10.364  0.3082 -0.4769  1.0194
  717MOL0     C98857   5.369   5.207  10.101  2.0406  0.1240  0.0511
  717MOL0     C98858   5.374   5.217   9.961  0.0069  0.8192  0.3578
  717MOL0     N98859   5.676   5.717   9.260 -0.4578 -0.0344  0.6521
  717MOL0     N98860   5.770   5.778   9.194 -0.3004 -0.1937  0.7856
  717MOL0     C98861   6.658   5.103   8.632  0.3157 -1.4398  0.3039
  717MOL0     C98862   6.684   4.997   8.545 -0.0068  0.1737 -0.6934
  717MOL0     C98863   6.798   4.528   8.471 -0.5664  0.2708  0.3313
  717MOL0     C98864   6.912   4.449   8.469 -0.6619  0.2934  0.9873
  717MOL0     C98865   6.904   4.324   8.418  0.1440  0.7443 -0.4780
  717MOL0     C98866   6.785   4.271   8.364  0.2130 -0.2871 -0.3778
  717MOL0     O98867   6.788   4.152   8.299 -0.2937  0.0374 -0.4353
  717MOL0     C98868   6.786   4.030   8.377 -0.7707 -0.0873  1.2241
  717MOL0     C98869   6.799   3.905   8.285 -0.7360  0.4520  0.4702
  717MOL0     C98870   6.941   3.894   8.231  0.4547 -0.1290  0.4823
  717MOL0     C98871   6.974   3.790   8.109  0.6664 -0.3892 -0.5664
  717MOL0     C98872   6.917   3.658   8.145  0.1354  0.6174  0.1051
  717MOL0     C98873   6.885   3.542   8.156 -0.5691 -0.0950  0.0786
  717MOL0     C98874   6.674   4.351   8.365  0.1609 -0.2296  0.1512
  717MOL0     C98875   6.678   4.483   8.420  0.6497  0.4021  1.1947
  717MOL0     C98876   6.541   4.565   8.411  0.1855 -0.1653 -0.8039
  717MOL0     H98877   6.662   4.741   8.766  1.1447  0.0183 -1.8527
  717MOL0     H98878   6.613   4.922   8.922 -1.0047 -1.0669 -0.8572
  717MOL0     H98879   6.510   5.271   9.006  2.9566  0.1651 -2.0621
  717MOL0     H98880   6.499   5.093   9.018 -3.7989 -0.4540  1.0559
  717MOL0     H98881   6.351   5.080   8.831  3.9051  0.9993 -1.3369
  717MOL0     H98882   6.264   5.145   8.966 -0.9073  0.8874 -1.1585
  717MOL0     H98883   6.387   5.327   8.750 -1.0471 -1.4512 -1.2426
  717MOL0     H98884   6.231   5.274   8.732 -1.3846  1.0811  0.5501
  717MOL0     H98885   6.160   5.352   8.969  1.6983  0.7881  2.6922
  717MOL0     H98886   6.326   5.404   8.996 -1.1803 -0.3783  0.2914
  717MOL0     H98887   6.116   5.519   8.824 -0.3475 -0.2410  2.0355
  717MOL0     H98888   6.299   5.562   8.812  0.7477  3.9840  2.4087
  717MOL0     H98889   6.260   5.605   9.074 -1.4112 -1.0341  2.5643
  717MOL0     H98890   6.215   5.733   8.965 -1.3164  1.2855  5.0989
  717MOL0     H98891   6.026   5.517   9.069  0.8135  0.9423  1.3001
  717MOL0     H98892   5.988   5.647   8.948 -0.8326  0.0518  0.9265
  717MOL0     H98893   6.072   5.690   9.237 -3.7413 -3.4690  1.9560
  717MOL0     H98894   6.032   5.820   9.121 -2.9626 -0.1093 -3.3574
  717MOL0     H98895   5.888   5.476   9.226  2.3361  0.7822 -0.7549
  717MOL0     H98896   5.658   5.384   9.299 -0.3451 -0.8598 -0.3594
  717MOL0     H98897   5.514   5.497   9.302 -0.3089  3.0381  0.4347
  717MOL0     H98898   5.706   5.433   9.508 -0.0842  0.1832  0.0120
  717MOL0     H98899   5.606   5.583   9.520  1.5518 -0.4078  1.1663
  717MOL0     H98900   5.403   5.450   9.503  1.5995  0.5354 -2.3516
  717MOL0     H98901   5.499   5.299   9.523  0.6434 -0.6156  0.5947
  717MOL0     H98902   5.590   5.462   9.737 -0.2204  0.9086  0.5485
  717MOL0     H98903   5.434   5.525   9.713 -1.3282  0.3802 -3.7875
  717MOL0     H98904   5.556   5.503   9.937 -0.7539 -1.1929 -1.1345
  717MOL0     H98905   5.661   5.537  10.135  1.1224 -3.4242  0.5047
  717MOL0     H98906   5.587   5.501  10.283 -1.8308 -0.0659  0.0523
  717MOL0     H98907   5.501   5.618  10.189 -0.6463 -0.4400 -0.3682
  717MOL0     H98908   5.567   5.317  10.580 -1.4201 -0.0045 -1.7617
  717MOL0     H98909   5.518   5.239  10.805  1.4186  0.9037 -0.9709
  717MOL0     H98910   5.090   5.247  10.977 -2.4487 -1.8755 -1.4707
  717MOL0     H98911   5.119   5.112  10.861 -4.1541  0.8955  0.6498
  717MOL0     H98912   5.252   5.007  11.047 -1.4235 -1.7947 -1.6422
  717MOL0     H98913   5.179   5.129  11.158 -5.0290  0.8284  0.6494
  717MOL0     H98914   5.059   4.895  11.150 -1.5892  0.7638  0.0077
  717MOL0     H98915   5.035   4.922  10.973 -2.2888  3.1818 -1.7724
  717MOL0     H98916   4.832   4.958  11.080 -0.9995  1.8889 -2.2032
  717MOL0     H98917   4.886   5.095  11.002  1.1133 -1.0446  0.0899
  717MOL0     H98918   4.937   5.200  11.236 -2.4436  1.1074 -2.8670
  717MOL0     H98919   4.780   5.134  11.203 -1.1287 -1.3889  1.0652
  717MOL0     H98920   4.966   4.955  11.363  1.3887  1.8497  1.0751
  717MOL0     H98921   4.790   4.944  11.338  1.8397 -2.6480  0.1001
  717MOL0     H98922   4.746   5.157  11.435  1.2396  3.3984  1.7846
  717MOL0     H98923   4.925   5.185  11.465  0.9286  0.0582  2.3872
  717MOL0     H98924   4.801   5.125  11.680 -1.0927 -0.8302  0.2783
  717MOL0     H98925   4.886   4.971  11.640 -1.3380 -0.6692  1.2676
  717MOL0     H98926   5.101   5.330  10.741  1.1479  0.9637  1.5688
  717MOL0     H98927   5.153   5.426  10.528  2.1156  2.3898 -0.3584
  717MOL0     H98928   5.322   5.120  10.145  2.3092  1.2319  2.7704
  717MOL0     H98929   5.302   5.164   9.899 -2.9184  1.5693  2.8367
  717MOL0     H98930   6.680   5.204   8.601  0.5493 -1.9404 -1.2477
  717MOL0     H98931   6.683   5.013   8.438 -1.1502 -0.2806 -0.7653
  717MOL0     H98932   7.011   4.478   8.502 -0.9318  0.6746  1.4899
  717MOL0     H98933   6.994   4.265   8.403  1.1482  2.3122 -0.8730
  717MOL0     H98934   6.884   4.027   8.427  1.8689  1.3470 -3.2402
  717MOL0     H98935   6.705   4.018   8.449 -1.6275 -1.6061  0.0700
  717MOL0     H98936   6.743   3.919   8.192  2.2415  1.0697 -1.3287
  717MOL0     H98937   6.765   3.819   8.344  3.0855 -3.2441 -2.1672
  717MOL0     H98938   6.969   3.989   8.184  0.2889  0.6225  1.8613
  717MOL0     H98939   7.018   3.882   8.307  1.1034  3.2982  0.4892
  717MOL0     H98940   7.081   3.790   8.090  0.6933  2.7971 -0.9214
  717MOL0     H98941   6.928   3.827   8.017 -1.0316  2.9920  1.4202
  717MOL0     H98942   6.851   3.442   8.175  0.7593 -0.9651 -1.8697
  717MOL0     H98943   6.582   4.317   8.320  2.1396 -1.5297 -3.3835
  717MOL0     H98944   6.513   4.586   8.515 -0.7345 -1.1640 -0.8262
  717MOL0     H98945   6.548   4.658   8.355 -0.5149  1.4958  1.6769
  717MOL0     H98946   6.457   4.503   8.379 -1.7984  1.1821  1.4517
  718MOL0     O98947   8.412   2.609   5.996 -0.4085  0.2899  0.1324
  718MOL0     C98948   8.450   2.708   5.936  0.2274 -1.2327  0.8006
  718MOL0     O98949   8.531   2.711   5.816 -0.0535 -0.4255  0.2188
  718MOL0     C98950   8.564   2.601   5.747 -0.1353 -0.1983 -0.3800
  718MOL0     C98951   8.539   2.619   5.613  0.0274 -0.2405  0.8460
  718MOL0     C98952   8.577   2.513   5.521  0.9369 -0.4284  0.8989
  718MOL0     C98953   8.641   2.395   5.572  0.4648  0.0558 -0.4934
  718MOL0     O98954   8.681   2.285   5.500 -0.0205 -0.1989 -0.3162
  718MOL0     C98955   8.626   2.269   5.369 -0.0138  0.0065 -0.6113
  718MOL0     C98956   8.737   2.296   5.265  0.5161 -0.5171 -0.0581
  718MOL0     C98957   8.862   2.207   5.286  0.4894 -0.4506  0.0289
  718MOL0     C98958   8.954   2.215   5.157 -0.8956 -0.3762  0.6739
  718MOL0     C98959   9.054   2.102   5.159  0.5676 -0.7896 -0.5721
  718MOL0     C98960   9.167   2.112   5.269 -0.7614  0.0149  0.6332
  718MOL0     C98961   9.274   2.003   5.232  0.3239 -0.4047 -0.2163
  718MOL0     C98962   9.371   1.983   5.347  0.1804 -0.6954 -0.6337
  718MOL0     N98963   9.465   1.876   5.312  0.6974 -0.5250  0.2904
  718MOL0     C98964   9.452   1.751   5.365 -0.1996 -0.1716 -0.1702
  718MOL0     C98965   9.549   1.679   5.307  0.4681 -1.3354  0.1401
  718MOL0     C98966   9.566   1.531   5.328  0.0767  0.4302 -0.3500
  718MOL0     C98967   9.630   1.462   5.204  1.0308 -0.4068 -0.1052
  718MOL0     C98968   9.784   1.496   5.206 -0.3853 -0.3173  0.7296
  718MOL0     C98969   9.845   1.442   5.069 -0.0180  0.1816 -0.6421
  718MOL0     O98970   9.984   1.445   5.064 -0.4831  0.9954 -0.3319
  718MOL0     C98971  10.066   1.336   5.036 -0.1900  0.1498  0.6113
  718MOL0     C98972  10.032   1.204   5.027  0.6462  0.1248  0.2507
  718MOL0     C98973  10.124   1.108   4.971  0.8177 -0.3463 -0.0175
  718MOL0     C98974  10.074   0.966   4.969 -0.0207  0.4951 -0.2269
  718MOL0     C98975  10.253   1.145   4.931 -0.0678 -0.4194 -0.2493
  718MOL0     C98976  10.363   1.053   4.895 -0.3740  0.4753  0.6605
  718MOL0     O98977  10.483   1.115   4.858  0.2325  0.4209  0.5146
  718MOL0     C98978  10.584   1.039   4.810  0.1078  0.2801 -0.4668
  718MOL0     C98979  10.693   1.036   4.897  0.8045  0.9206 -0.2966
  718MOL0     C98980  10.805   0.971   4.851 -0.2652  0.3928  1.0348
  718MOL0     C98981  10.816   0.926   4.716 -0.3673  0.7067 -0.3004
  718MOL0     O98982  10.940   0.867   4.692  0.2094  1.0329 -0.5775
  718MOL0     C98983  10.977   0.826   4.559  0.7142 -0.0573 -0.3153
  718MOL0     C98984  11.125   0.817   4.537  0.5213  0.7505 -1.0040
  718MOL0     C98985  11.167   0.752   4.397  0.6131  0.2148  0.3017
  718MOL0     C98986  11.288   0.654   4.407 -0.0024  0.4129  0.6302
  718MOL0     C98987  11.319   0.576   4.280  0.0733 -0.6013  0.2087
  718MOL0     C98988  11.434   0.479   4.310 -0.3857  0.4108  0.0171
  718MOL0     C98989  11.570   0.553   4.332  0.4013  1.5816 -0.4707
  718MOL0     C98990  11.693   0.479   4.288  0.2892  0.5693  0.3319
  718MOL0    Cl98991  11.701   0.303   4.334 -0.2144 -0.2735 -0.0264
  718MOL0     C98992  10.708   0.926   4.634 -0.3829 -0.1308 -0.6278
  718MOL0     C98993  10.588   0.984   4.687  0.1081 -0.1198 -1.0931
  718MOL0     O98994  10.353   0.936   4.903 -0.7705 -0.1092 -0.3164
  718MOL0     C98995  10.288   1.279   4.957 -0.5366 -0.2322 -0.4238
  718MOL0     C98996  10.203   1.369   5.019  0.6688  0.7830 -0.7876
  718MOL0     N98997   9.613   1.768   5.221 -0.4174  0.5800 -0.3918
  718MOL0     N98998   9.560   1.886   5.220 -0.4983  0.3264  0.9987
  718MOL0     C98999   8.671   2.394   5.718 -0.4708  0.9545  0.4094
  718MOL0     C99000   8.636   2.499   5.803  0.7547  0.7937  0.1769
  718MOL0     C99001   8.433   2.845   5.993 -0.1223 -0.2857  0.6306
  718MOL0     C99002   8.422   2.951   5.905 -0.8663 -0.1684 -0.1016
  718MOL0     C99003   8.430   3.091   5.946 -0.2024  0.2141 -0.3290
  718MOL0     C99004   8.440   3.119   6.081 -0.1664  0.5744 -0.3946
  718MOL0     O99005   8.458   3.241   6.135 -0.3340  0.1682 -0.0528
  718MOL0     C99006   8.600   3.274   6.139 -0.1350 -0.0351  0.6398
  718MOL0     C99007   8.639   3.344   6.260  0.5307 -0.1264  0.7944
  718MOL0     C99008   8.782   3.386   6.248 -0.5146  0.4854  1.5114
  718MOL0     C99009   8.841   3.486   6.360 -0.5276 -0.1600 -0.0799
  718MOL0     C99010   8.825   3.424   6.493  0.2499  0.2878 -1.0656
  718MOL0     C99011   8.808   3.383   6.603  0.2696 -0.8905  0.7111
  718MOL0     C99012   8.450   3.009   6.169  0.5160 -0.9318  0.5558
  718MOL0     C99013   8.435   2.874   6.129  0.0880  0.2639 -0.2950
  718MOL0     C99014   8.440   2.769   6.248  0.4927  0.0537  0.0980
  718MOL0     H99015   8.486   2.706   5.577 -0.8316 -1.5400 -1.1820
  718MOL0     H99016   8.557   2.523   5.415 -3.5770 -2.4416  1.3150
  718MOL0     H99017   8.539   2.333   5.352 -1.6961 -1.2673  2.3139
  718MOL0     H99018   8.582   2.170   5.353 -0.9807  0.2673  0.3723
  718MOL0     H99019   8.690   2.263   5.173 -0.5502 -1.5416  0.8237
  718MOL0     H99020   8.757   2.403   5.260  1.8132 -0.6461  1.4193
  718MOL0     H99021   8.921   2.254   5.365 -0.0417  1.8308 -0.8470
  718MOL0     H99022   8.829   2.106   5.309 -1.3395  0.1903  0.3728
  718MOL0     H99023   8.885   2.196   5.074 -6.9118 -0.5428  5.0659
  718MOL0     H99024   9.010   2.309   5.152  0.7958 -1.3693  0.1275
  718MOL0     H99025   9.103   2.114   5.062 -1.3530  2.6647 -1.2955
  718MOL0     H99026   9.004   2.005   5.159 -1.7248  0.2415  2.4534
  718MOL0     H99027   9.200   2.214   5.292 -0.5659 -0.1260  0.9850
  718MOL0     H99028   9.136   2.075   5.367 -1.9558  0.9156  0.6203
  718MOL0     H99029   9.322   2.021   5.135 -3.2464 -2.7482 -2.6501
  718MOL0     H99030   9.219   1.910   5.214  0.4841 -0.4429 -0.5279
  718MOL0     H99031   9.435   2.066   5.378 -2.2071  0.9042  0.2818
  718MOL0     H99032   9.324   1.955   5.442 -0.3613  1.6852 -0.1490
  718MOL0     H99033   9.375   1.715   5.432  1.1502  1.6741  2.5423
  718MOL0     H99034   9.467   1.491   5.352  0.2556  0.1825 -0.0156
  718MOL0     H99035   9.643   1.511   5.403  0.9604 -1.3047 -1.6348
  718MOL0     H99036   9.616   1.355   5.224 -3.3008  0.4183  2.9107
  718MOL0     H99037   9.583   1.498   5.112 -0.2322  0.1953  0.7435
  718MOL0     H99038   9.800   1.604   5.203 -2.4316  0.0310 -2.3028
  718MOL0     H99039   9.837   1.448   5.289 -1.7838 -1.2247  1.1386
  718MOL0     H99040   9.812   1.339   5.051 -0.3939  0.0072  0.8978
  718MOL0     H99041   9.813   1.504   4.985 -0.2967 -1.6861 -1.9823
  718MOL0     H99042   9.931   1.173   5.053 -0.0295  0.8298 -1.4319
  718MOL0     H99043  10.107   0.921   5.063  3.2859  1.9648 -0.5372
  718MOL0     H99044  10.109   0.906   4.884  2.3652 -1.0142  1.6708
  718MOL0     H99045   9.965   0.973   4.971 -0.0744  0.2706 -1.4077
  718MOL0     H99046  10.698   1.081   4.995  1.4718  0.3930 -0.0796
  718MOL0     H99047  10.882   0.950   4.925  0.9686 -1.9677 -0.7450
  718MOL0     H99048  10.945   0.728   4.523  0.3902 -0.0298 -0.1092
  718MOL0     H99049  10.937   0.892   4.483 -1.3740 -0.2065  0.5766
  718MOL0     H99050  11.168   0.913   4.568 -0.7412  0.2472  2.9238
  718MOL0     H99051  11.165   0.751   4.615  0.2944  2.2906  0.5007
  718MOL0     H99052  11.184   0.831   4.323 -2.0552 -0.3157 -1.0090
  718MOL0     H99053  11.079   0.697   4.363  2.1954 -2.6292  0.4840
  718MOL0     H99054  11.249   0.579   4.476 -3.4291  3.4737  2.4173
  718MOL0     H99055  11.380   0.704   4.438  0.9830 -2.7281  3.3362
  718MOL0     H99056  11.234   0.522   4.238 -0.2897  1.2209 -1.4998
  718MOL0     H99057  11.355   0.641   4.200 -0.6856  0.2351  0.5401
  718MOL0     H99058  11.447   0.413   4.223  1.3627  0.0988  0.4882
  718MOL0     H99059  11.419   0.404   4.388 -1.0881 -1.4612 -1.8141
  718MOL0     H99060  11.588   0.572   4.438 -0.0714 -0.5366  0.0460
  718MOL0     H99061  11.573   0.653   4.290 -0.3740  1.1860 -1.5114
  718MOL0     H99062  11.772   0.536   4.336  2.0074  0.0665 -1.7561
  718MOL0     H99063  11.718   0.493   4.183  1.4031 -0.9235  0.3721
  718MOL0     H99064  10.701   0.884   4.534  0.7488 -3.5236  0.5743
  718MOL0     H99065  10.503   0.985   4.620 -0.0003 -0.5782 -0.9695
  718MOL0     H99066  10.386   1.324   4.963 -0.7508  0.1079  1.3199
  718MOL0     H99067  10.246   1.466   5.042  0.3851  0.5760  0.7586
  718MOL0     H99068   8.726   2.310   5.759 -1.2491 -0.1253 -0.6948
  718MOL0     H99069   8.666   2.501   5.907  1.2912 -0.1567  0.0602
  718MOL0     H99070   8.409   2.934   5.798 -1.3948  0.3586 -0.1270
  718MOL0     H99071   8.412   3.176   5.882  1.7353  0.4510 -0.6214
  718MOL0     H99072   8.670   3.192   6.125  0.4541 -0.1770  3.7206
  718MOL0     H99073   8.622   3.339   6.054  1.0441 -0.4713  0.5956
  718MOL0     H99074   8.633   3.275   6.345 -0.9221 -0.7392  0.2228
  718MOL0     H99075   8.569   3.428   6.268 -0.7305 -0.6091 -3.0966
  718MOL0     H99076   8.831   3.289   6.245  1.3309  1.3142 -2.2471
  718MOL0     H99077   8.786   3.437   6.151 -1.1418 -1.5943  0.3448
  718MOL0     H99078   8.785   3.580   6.358  0.5244  0.4762 -1.6097
  718MOL0     H99079   8.942   3.518   6.335 -0.8614  2.0136  1.1524
  718MOL0     H99080   8.771   3.325   6.685  2.3352 -2.0669  0.8716
  718MOL0     H99081   8.470   3.018   6.275 -1.7937 -6.1340  1.7700
  718MOL0     H99082   8.470   2.812   6.344  1.2911 -0.9683  0.3271
  718MOL0     H99083   8.347   2.716   6.270 -0.0028  1.1402  0.6745
  718MOL0     H99084   8.510   2.690   6.219 -0.9838 -1.9903  1.7842
  719MOL0     O99085   6.760   3.942   4.584 -0.2634 -0.3255 -0.1285
  719MOL0     C99086   6.795   3.841   4.520  0.3889 -0.4866 -0.1750
  719MOL0     O99087   6.909   3.838   4.449  0.2699  0.0609 -0.4399
  719MOL0     C99088   7.019   3.902   4.504  0.3017 -0.5328 -1.3503
  719MOL0     C99089   7.108   3.944   4.412 -0.1949 -0.2597 -0.4281
  719MOL0     C99090   7.227   4.012   4.452  0.6325  0.2382  0.3800
  719MOL0     C99091   7.269   4.020   4.582  0.3204  0.3988 -0.7196
  719MOL0     O99092   7.391   4.061   4.627  0.2750 -0.0642  0.3140
  719MOL0     C99093   7.477   3.947   4.654  0.2920 -0.5852 -0.2821
  719MOL0     C99094   7.573   3.918   4.541  0.0929 -0.5123 -0.6626
  719MOL0     C99095   7.694   3.832   4.578  0.0757 -0.0339 -0.3334
  719MOL0     C99096   7.798   3.842   4.470  0.1175 -0.4263 -0.5298
  719MOL0     C99097   7.912   3.733   4.487  1.0178 -0.2032 -0.4727
  719MOL0     C99098   8.005   3.734   4.365  0.5630  0.0024 -0.7166
  719MOL0     C99099   8.114   3.636   4.388 -0.6440 -0.8361  0.3569
  719MOL0     C99100   8.241   3.661   4.298 -0.4077 -0.7408  0.0776
  719MOL0     N99101   8.365   3.615   4.348  0.0391  0.3810  0.1911
  719MOL0     C99102   8.484   3.673   4.317  0.1114  0.8490  0.3720
  719MOL0     C99103   8.586   3.605   4.379  0.5047  0.1198  0.3687
  719MOL0     C99104   8.731   3.631   4.387  0.0467 -0.4180  0.3781
  719MOL0     C99105   8.821   3.564   4.275 -0.4662 -0.5522 -0.0541
  719MOL0     C99106   8.816   3.410   4.260 -0.5427  0.1408  0.3054
  719MOL0     C99107   8.925   3.347   4.174 -0.1179 -0.0675 -0.1849
  719MOL0     O99108   9.052   3.406   4.217 -0.2703 -0.3377 -0.1691
  719MOL0     C99109   9.172   3.348   4.179 -0.0913 -0.6361 -0.5373
  719MOL0     C99110   9.185   3.253   4.087 -0.3884  0.1827 -0.2682
  719MOL0     C99111   9.310   3.210   4.043  0.4331  0.5686  0.3815
  719MOL0     C99112   9.313   3.105   3.939 -0.3262 -0.4133  0.3975
  719MOL0     C99113   9.431   3.253   4.113 -1.1927 -0.7145  1.5608
  719MOL0     C99114   9.575   3.201   4.098  0.6775 -0.0293 -0.8801
  719MOL0     O99115   9.676   3.298   4.105  0.1846 -0.1190 -0.3058
  719MOL0     C99116   9.805   3.250   4.117  0.7361 -0.3006  0.2084
  719MOL0     C99117   9.902   3.291   4.026  0.0122 -0.6064 -0.5014
  719MOL0     C99118  10.030   3.242   4.044  0.4468  0.1594  0.3710
  719MOL0     C99119  10.065   3.168   4.149  0.3256 -0.1522 -0.3642
  719MOL0     O99120  10.200   3.136   4.151 -0.0743 -0.3279  0.0592
  719MOL0     C99121  10.256   3.076   4.266 -0.1265 -0.1722  0.6588
  719MOL0     C99122  10.409   3.055   4.258 -0.2917  0.0003 -0.1684
  719MOL0     C99123  10.491   3.184   4.230  0.9120 -0.8237  0.1842
  719MOL0     C99124  10.643   3.152   4.249 -0.2814 -0.2714  0.8316
  719MOL0     C99125  10.735   3.260   4.214 -0.5090 -0.1830 -0.2350
  719MOL0     C99126  10.878   3.249   4.261 -0.5860 -0.4188  0.3876
  719MOL0     C99127  10.896   3.261   4.414  0.9673 -0.7941  0.4247
  719MOL0     C99128  11.033   3.252   4.459 -0.3593 -0.0794 -0.4034
  719MOL0    Cl99129  11.128   3.383   4.385 -0.1532  0.0473 -0.1988
  719MOL0     C99130   9.974   3.143   4.253 -0.1078 -0.5107 -0.8893
  719MOL0     C99131   9.839   3.175   4.229  0.3636  0.4662 -0.3857
  719MOL0     O99132   9.592   3.086   4.073 -0.0769  0.0547  0.3353
  719MOL0     C99133   9.417   3.352   4.216  0.9808  0.2347  0.2338
  719MOL0     C99134   9.291   3.401   4.249  0.3211  0.4506 -0.8147
  719MOL0     N99135   8.519   3.509   4.456  0.3759  0.7696  0.5770
  719MOL0     N99136   8.394   3.505   4.427  0.4568  1.0910 -0.5004
  719MOL0     C99137   7.178   3.973   4.679  0.6373 -0.1285 -0.2166
  719MOL0     C99138   7.052   3.925   4.646  0.1196  0.1185  0.0782
  719MOL0     C99139   6.694   3.733   4.515  0.2258  0.8445 -0.0349
  719MOL0     C99140   6.550   3.757   4.525  0.0620  0.3161  0.3054
  719MOL0     C99141   6.454   3.653   4.534 -0.6467 -0.5939  0.6829
  719MOL0     C99142   6.486   3.517   4.530 -0.6496 -0.0283  0.7805
  719MOL0     O99143   6.406   3.407   4.526  0.1785 -0.1212  1.0335
  719MOL0     C99144   6.266   3.432   4.496  0.0122  0.8857 -0.4184
  719MOL0     C99145   6.197   3.300   4.453 -0.7939  0.4519 -0.7587
  719MOL0     C99146   6.232   3.165   4.524  0.2380  0.4822 -0.5445
  719MOL0     C99147   6.235   3.176   4.673  0.2328 -0.5126 -0.5528
  719MOL0     C99148   6.235   3.036   4.728  0.8938  0.9285  0.4311
  719MOL0     C99149   6.231   2.917   4.758  0.1475 -0.6253 -0.2708
  719MOL0     C99150   6.625   3.490   4.513 -1.0166 -0.0027 -0.0342
  719MOL0     C99151   6.731   3.588   4.507 -0.0022 -0.6064 -0.0048
  719MOL0     C99152   6.863   3.530   4.502  0.2174 -0.8284  0.1627
  719MOL0     H99153   7.105   3.934   4.304  1.3893 -1.9755 -0.3747
  719MOL0     H99154   7.303   4.040   4.379  1.1629 -2.0733 -0.0202
  719MOL0     H99155   7.415   3.861   4.679 -0.4592 -0.2508 -0.9632
  719MOL0     H99156   7.547   3.978   4.732  0.1630  2.7292 -1.3166
  719MOL0     H99157   7.511   3.871   4.465 -1.0596  1.4235 -0.9944
  719MOL0     H99158   7.606   4.008   4.488 -0.0339 -1.2648 -2.0654
  719MOL0     H99159   7.724   3.877   4.673 -1.8752  4.4934 -1.5655
  719MOL0     H99160   7.675   3.725   4.578  1.0242 -0.2253 -1.4805
  719MOL0     H99161   7.752   3.845   4.371  0.1068  0.2604 -0.5097
  719MOL0     H99162   7.850   3.938   4.480 -0.1941 -0.4218  1.5035
  719MOL0     H99163   7.856   3.640   4.486 -1.6152  1.2810 -0.5856
  719MOL0     H99164   7.966   3.746   4.581  2.7159 -0.5314 -1.3513
  719MOL0     H99165   7.951   3.726   4.270 -1.0759  2.0064 -0.0294
  719MOL0     H99166   8.056   3.830   4.354  0.0982  0.3628  0.1256
  719MOL0     H99167   8.079   3.533   4.386  0.1672 -1.1207 -0.8056
  719MOL0     H99168   8.158   3.644   4.488  1.9066 -1.1937 -0.6627
  719MOL0     H99169   8.231   3.612   4.200 -1.9243  0.8959 -0.6417
  719MOL0     H99170   8.251   3.770   4.292 -2.0622 -0.4970  1.0898
  719MOL0     H99171   8.506   3.764   4.262  3.0875  0.0044 -0.0104
  719MOL0     H99172   8.768   3.596   4.484 -0.2975 -0.9656  0.3189
  719MOL0     H99173   8.745   3.739   4.383  2.1199 -0.6192  0.6717
  719MOL0     H99174   8.794   3.609   4.178  1.9034  1.8334  0.2821
  719MOL0     H99175   8.919   3.601   4.305 -0.8797  3.2624 -2.6447
  719MOL0     H99176   8.834   3.377   4.363  0.8689 -0.8139 -0.2253
  719MOL0     H99177   8.728   3.364   4.213  1.1680 -0.8273 -2.1494
  719MOL0     H99178   8.917   3.239   4.190 -3.5385  0.0389 -0.3341
  719MOL0     H99179   8.895   3.378   4.073  1.6645  0.5337 -0.5537
  719MOL0     H99180   9.095   3.206   4.050  1.0383 -2.7382 -0.3174
  719MOL0     H99181   9.339   3.011   3.989  0.5367 -0.1742  0.4033
  719MOL0     H99182   9.388   3.128   3.864 -0.2086  1.3990  1.0365
  719MOL0     H99183   9.217   3.096   3.886  0.3056  2.9501 -1.5400
  719MOL0     H99184   9.868   3.339   3.934 -1.1321 -2.5149 -1.1460
  719MOL0     H99185  10.106   3.261   3.970  0.7803 -2.7380 -0.1615
  719MOL0     H99186  10.222   3.137   4.350  1.7600  2.2019 -0.1570
  719MOL0     H99187  10.209   2.978   4.276 -0.1478 -0.0880  1.4880
  719MOL0     H99188  10.448   3.011   4.350  2.2877  1.4060 -0.4891
  719MOL0     H99189  10.419   2.980   4.179  2.0484  0.1111 -0.0487
  719MOL0     H99190  10.454   3.254   4.306  2.6704 -0.2375  0.5440
  719MOL0     H99191  10.471   3.237   4.137  0.3340 -0.5528  0.4566
  719MOL0     H99192  10.668   3.063   4.191  1.6678 -1.2243  2.9630
  719MOL0     H99193  10.653   3.127   4.355 -3.0831  0.4121  1.3572
  719MOL0     H99194  10.732   3.267   4.105 -2.7410 -3.8830 -0.5870
  719MOL0     H99195  10.697   3.350   4.263 -1.1108 -0.5372 -0.0362
  719MOL0     H99196  10.917   3.333   4.204 -1.8063 -0.4800 -0.5547
  719MOL0     H99197  10.934   3.159   4.232  0.3128 -0.0086  0.7991
  719MOL0     H99198  10.843   3.176   4.456  0.8363 -1.1978 -0.5413
  719MOL0     H99199  10.840   3.349   4.446  2.2936  0.4673 -0.5458
  719MOL0     H99200  11.074   3.153   4.434  1.0515  0.0931  1.0869
  719MOL0     H99201  11.034   3.260   4.568  2.2002  0.5098 -0.4164
  719MOL0     H99202   9.998   3.091   4.345  0.1474 -0.4006 -0.8919
  719MOL0     H99203   9.760   3.153   4.300 -0.3239  1.8112 -0.7116
  719MOL0     H99204   9.503   3.384   4.273  0.7200 -1.8872  1.9608
  719MOL0     H99205   9.283   3.484   4.318  2.0066  0.2807 -0.3839
  719MOL0     H99206   7.207   3.964   4.783 -2.0753 -1.0407  0.5477
  719MOL0     H99207   6.977   3.906   4.723 -1.9671  0.1715 -1.8361
  719MOL0     H99208   6.501   3.853   4.511 -1.5205 -0.7355 -1.8212
  719MOL0     H99209   6.349   3.674   4.545 -1.3505 -3.2710 -0.0617
  719MOL0     H99210   6.205   3.485   4.571 -0.5513  3.0450 -2.2862
  719MOL0     H99211   6.262   3.503   4.413 -0.6718  0.7189 -0.5358
  719MOL0     H99212   6.225   3.281   4.349  2.3437 -2.7744  0.4520
  719MOL0     H99213   6.089   3.320   4.456 -0.8498  0.0232  0.7654
  719MOL0     H99214   6.158   3.089   4.496 -0.6176  1.7981 -1.9845
  719MOL0     H99215   6.327   3.124   4.489 -0.3883 -2.4622  0.9220
  719MOL0     H99216   6.144   3.225   4.710  1.1875 -0.1779  1.4842
  719MOL0     H99217   6.314   3.232   4.724  0.3958  0.5596 -1.9252
  719MOL0     H99218   6.209   2.816   4.790  0.7050 -0.4340  0.7692
  719MOL0     H99219   6.641   3.385   4.492  0.1948  0.2303 -0.3572
  719MOL0     H99220   6.864   3.440   4.564 -2.4352  0.3576  2.1570
  719MOL0     H99221   6.879   3.515   4.395 -0.2658 -0.2525  0.0048
  719MOL0     H99222   6.932   3.607   4.536  0.4642  0.0815 -2.2371
  720MOL0     O99223   1.551   7.294   0.200  0.7958 -0.0138  1.3364
  720MOL0     C99224   1.595   7.392   0.264 -0.3847  0.1455 -0.0900
  720MOL0     O99225   1.721   7.439   0.273 -0.2437 -0.0284 -0.3205
  720MOL0     C99226   1.829   7.362   0.230  0.6186  0.3171  0.2443
  720MOL0     C99227   1.827   7.218   0.197  0.1174  0.9272  0.4717
  720MOL0     C99228   1.938   7.151   0.156 -0.0318  0.7554 -0.4753
  720MOL0     C99229   2.064   7.215   0.140  0.0175  0.4584 -0.3788
  720MOL0     O99230   2.176   7.142   0.106 -0.1325  0.2487  0.3404
  720MOL0     C99231   2.293   7.221   0.081 -0.5998 -0.2408 -0.0091
  720MOL0     C99232   2.408   7.139   0.014  0.6972  0.0582 -1.0705
  720MOL0     C99233   2.359   7.094  -0.131  0.5471 -0.1827 -0.3605
  720MOL0     C99234   2.429   6.979  -0.197  0.3349  1.0716 -0.4881
  720MOL0     C99235   2.575   7.024  -0.221 -0.3734 -0.0961  0.3735
  720MOL0     C99236   2.663   6.919  -0.286  0.0446  0.7723  0.3279
  720MOL0     C99237   2.716   6.820  -0.178  0.3098 -0.0823 -0.1694
  720MOL0     C99238   2.834   6.867  -0.090  0.4820  0.3368 -0.2408
  720MOL0     N99239   2.884   6.755  -0.013 -0.4366  1.2108  0.4320
  720MOL0     C99240   2.999   6.686  -0.048  0.8238 -0.2070 -0.0087
  720MOL0     C99241   2.973   6.558   0.002 -0.4992  0.3177 -0.0810
  720MOL0     C99242   3.050   6.437  -0.045 -0.6499 -0.3614 -0.2445
  720MOL0     C99243   2.972   6.311   0.005  0.3669  0.0955 -0.5760
  720MOL0     C99244   3.020   6.179  -0.062  0.5448 -0.1200 -0.4159
  720MOL0     C99245   2.965   6.057   0.005  0.0829  0.5695 -0.3144
  720MOL0     O99246   2.818   6.060   0.019 -0.0831  0.9188 -0.3650
  720MOL0     C99247   2.758   5.940   0.061  0.2774 -0.5070  0.1344
  720MOL0     C99248   2.825   5.822   0.088  0.0265 -0.6413 -0.8177
  720MOL0     C99249   2.762   5.702   0.127  0.8215  0.3078  0.0641
  720MOL0     C99250   2.832   5.574   0.140 -0.3170 -0.2832 -0.4979
  720MOL0     C99251   2.621   5.700   0.141  0.2908 -0.6961 -0.6280
  720MOL0     C99252   2.540   5.586   0.182 -0.0874  0.5808  0.3052
  720MOL0     O99253   2.412   5.576   0.138 -1.0676 -0.2144 -0.7496
  720MOL0     C99254   2.324   5.481   0.180 -0.5336  0.0731  0.7231
  720MOL0     C99255   2.189   5.526   0.182  0.2701  0.1736  0.2990
  720MOL0     C99256   2.089   5.434   0.200  0.5409 -0.4385  0.1245
  720MOL0     C99257   2.120   5.310   0.255 -0.1518  1.0769  0.5897
  720MOL0     O99258   2.028   5.222   0.306 -0.0815 -0.8188 -0.2846
  720MOL0     C99259   1.883   5.235   0.287  0.0184 -0.1036 -0.9186
  720MOL0     C99260   1.816   5.138   0.387  0.1936  0.0614  0.7039
  720MOL0     C99261   1.672   5.114   0.340  1.0778  0.0772  0.1891
  720MOL0     C99262   1.589   5.243   0.367 -0.3685 -0.2734 -0.4315
  720MOL0     C99263   1.439   5.202   0.379 -0.2369  0.1344 -0.7513
  720MOL0     C99264   1.345   5.321   0.417 -0.0970  0.3473 -0.6303
  720MOL0     C99265   1.200   5.276   0.419  0.9778 -1.0680  0.2371
  720MOL0     C99266   1.116   5.366   0.506  0.1362 -0.1285  0.7399
  720MOL0    Cl99267   1.122   5.301   0.674 -0.5420  0.4422 -0.2030
  720MOL0     C99268   2.252   5.267   0.258 -0.7697 -0.7817 -0.3770
  720MOL0     C99269   2.347   5.352   0.222  0.3541 -0.6050  1.0238
  720MOL0     O99270   2.586   5.522   0.278 -0.5779  0.8172 -0.2239
  720MOL0     C99271   2.558   5.825   0.120  0.6722 -0.1163  0.1860
  720MOL0     C99272   2.620   5.930   0.076 -0.5825  0.5684  0.2191
  720MOL0     N99273   2.848   6.556   0.068  0.0698 -0.2321 -0.2122
  720MOL0     N99274   2.802   6.672   0.060  0.4667  0.1128 -0.8500
  720MOL0     C99275   2.066   7.350   0.176 -0.2630 -1.0029 -0.3363
  720MOL0     C99276   1.955   7.415   0.222 -0.1244 -0.7123  0.3894
  720MOL0     C99277   1.492   7.451   0.346 -0.6951 -0.5591  0.6898
  720MOL0     C99278   1.467   7.588   0.322 -0.3465 -0.7603  1.0427
  720MOL0     C99279   1.371   7.645   0.405 -0.0198  0.8987 -0.3783
  720MOL0     C99280   1.290   7.570   0.496  0.6589 -0.4604  0.4642
  720MOL0     O99281   1.201   7.652   0.554  0.9968 -0.1273 -0.0756
  720MOL0     C99282   1.109   7.596   0.648 -0.0058  0.7785  0.2727
  720MOL0     C99283   1.167   7.631   0.789  0.2748  0.1670 -0.2399
  720MOL0     C99284   1.214   7.771   0.803 -0.5467  0.4924  0.7309
  720MOL0     C99285   1.283   7.809   0.931 -0.0802  0.3339 -0.3483
  720MOL0     C99286   1.181   7.851   1.036 -0.0328  0.1900 -0.1114
  720MOL0     C99287   1.085   7.875   1.106  0.5239 -0.4344 -0.1798
  720MOL0     C99288   1.317   7.434   0.510 -0.5707  1.4985  0.0334
  720MOL0     C99289   1.418   7.366   0.436 -0.0166 -0.3571 -0.3381
  720MOL0     C99290   1.439   7.221   0.465  0.2652 -0.1068 -0.5957
  720MOL0     H99291   1.741   7.153   0.212  0.4059  0.9046  2.2574
  720MOL0     H99292   1.930   7.043   0.141 -0.6605  0.8737 -1.0281
  720MOL0     H99293   2.334   7.272   0.168  0.6240  2.0834 -1.8655
  720MOL0     H99294   2.264   7.296   0.008 -0.4337  0.8582  1.0203
  720MOL0     H99295   2.498   7.202   0.008  0.4829  0.9321  2.6942
  720MOL0     H99296   2.432   7.062   0.087 -2.0587 -0.9821 -1.1551
  720MOL0     H99297   2.255   7.061  -0.120  1.1873 -1.9085  1.0832
  720MOL0     H99298   2.370   7.177  -0.201 -0.8785 -0.1006 -0.5214
  720MOL0     H99299   2.434   6.884  -0.143 -1.9515 -0.8071 -3.3060
  720MOL0     H99300   2.388   6.944  -0.292  2.1901 -1.6273 -0.3902
  720MOL0     H99301   2.611   7.070  -0.129  2.3042  2.9692 -1.9521
  720MOL0     H99302   2.560   7.105  -0.293  1.1564  0.9357  1.1492
  720MOL0     H99303   2.602   6.865  -0.360 -2.5957 -0.7705  3.3310
  720MOL0     H99304   2.756   6.957  -0.329  1.0532 -1.9537 -0.1063
  720MOL0     H99305   2.761   6.735  -0.230  2.2164  2.3995 -2.9096
  720MOL0     H99306   2.632   6.782  -0.120 -2.9450 -1.9132 -5.4100
  720MOL0     H99307   2.925   6.896  -0.145  2.6120 -0.4240  2.6168
  720MOL0     H99308   2.789   6.947  -0.030 -0.6754 -0.4994  0.0252
  720MOL0     H99309   3.077   6.720  -0.116 -0.2414  1.3374 -0.5167
  720MOL0     H99310   3.153   6.431  -0.010 -1.1107 -2.5732  0.9193
  720MOL0     H99311   3.050   6.442  -0.155  0.4752 -0.4343 -0.2568
  720MOL0     H99312   2.979   6.300   0.113  1.9424 -0.1621 -0.6817
  720MOL0     H99313   2.865   6.316  -0.017  0.0918  1.4609  0.8916
  720MOL0     H99314   3.002   6.186  -0.169  2.3028  0.4753 -0.6999
  720MOL0     H99315   3.129   6.171  -0.062  0.5923 -0.6447 -3.4811
  720MOL0     H99316   2.989   5.980  -0.069  0.4509  0.0650  0.3156
  720MOL0     H99317   3.005   6.049   0.107 -0.3104 -0.9452 -0.2494
  720MOL0     H99318   2.934   5.824   0.082  0.3856 -1.5408  2.7976
  720MOL0     H99319   2.906   5.567   0.060 -0.8388  0.2713 -1.0434
  720MOL0     H99320   2.765   5.492   0.112  0.0570 -0.4667 -0.8584
  720MOL0     H99321   2.865   5.562   0.243 -2.8811  1.2179  0.6019
  720MOL0     H99322   2.175   5.631   0.159  0.5253  0.8470  2.9390
  720MOL0     H99323   1.987   5.469   0.200  0.6403  0.3230  3.8252
  720MOL0     H99324   1.844   5.336   0.303  1.8687  0.9132 -2.4765
  720MOL0     H99325   1.853   5.206   0.186 -0.3351 -0.8149 -0.6145
  720MOL0     H99326   1.866   5.042   0.373  1.3851  0.9182 -1.2964
  720MOL0     H99327   1.818   5.171   0.491  4.0638 -0.8906  1.0713
  720MOL0     H99328   1.629   5.032   0.398 -1.2542  1.4189  0.4747
  720MOL0     H99329   1.666   5.092   0.233  0.4329 -2.9870  0.7597
  720MOL0     H99330   1.605   5.314   0.285  0.9728 -0.6693 -0.5238
  720MOL0     H99331   1.617   5.298   0.457  1.0207  1.0819 -1.6375
  720MOL0     H99332   1.397   5.173   0.283  0.5853  0.7105 -1.2918
  720MOL0     H99333   1.427   5.117   0.448 -1.0376 -1.1203 -2.3813
  720MOL0     H99334   1.346   5.402   0.343 -2.7665  3.0892  2.0631
  720MOL0     H99335   1.378   5.370   0.509 -0.1175  2.7317 -1.8197
  720MOL0     H99336   1.195   5.170   0.446  3.3127 -1.8588 -2.0186
  720MOL0     H99337   1.167   5.278   0.314  0.2879 -0.8058  0.4541
  720MOL0     H99338   1.010   5.363   0.475  0.8641 -1.1217 -1.9785
  720MOL0     H99339   1.141   5.473   0.505 -2.2739  0.5083  1.3052
  720MOL0     H99340   2.289   5.170   0.288  1.4960 -0.4404 -1.7374
  720MOL0     H99341   2.449   5.315   0.226  1.5423  1.9683 -1.3633
  720MOL0     H99342   2.451   5.831   0.138  1.1600  0.3340  3.6531
  720MOL0     H99343   2.573   6.026   0.055 -0.2445  0.6540 -0.1873
  720MOL0     H99344   2.161   7.401   0.175  0.3933 -2.1898 -0.5356
  720MOL0     H99345   1.966   7.518   0.254 -4.5595  0.2726 -0.5985
  720MOL0     H99346   1.519   7.650   0.250 -1.5066 -0.3257  0.5531
  720MOL0     H99347   1.355   7.752   0.405  0.4048  1.0203  2.2741
  720MOL0     H99348   1.011   7.637   0.622 -0.9968 -1.5506  0.0834
  720MOL0     H99349   1.095   7.488   0.652 -0.1340  0.8111  0.7790
  720MOL0     H99350   1.255   7.569   0.809  0.2581  0.0423 -0.5532
  720MOL0     H99351   1.095   7.608   0.868  0.4127  1.6940  0.3629
  720MOL0     H99352   1.295   7.779   0.730 -0.6997  1.3300  0.6419
  720MOL0     H99353   1.134   7.844   0.784  0.9976  2.3461  0.9799
  720MOL0     H99354   1.353   7.892   0.924  1.5134 -0.8356  0.8920
  720MOL0     H99355   1.351   7.735   0.974  1.9778  2.7338  0.8177
  720MOL0     H99356   1.009   7.882   1.181  0.4977 -1.3927 -0.1126
  720MOL0     H99357   1.289   7.372   0.595  4.7649 -1.3392  0.1106
  720MOL0     H99358   1.491   7.212   0.561  0.1316 -0.8412 -0.5855
  720MOL0     H99359   1.346   7.164   0.479 -1.9714  3.0450 -1.5055
  720MOL0     H99360   1.491   7.165   0.387 -0.1798  0.6121 -1.4298
  721MOL0     O99361   0.135   3.782   1.641 -0.0310 -0.5808 -0.3544
  721MOL0     C99362   0.052   3.838   1.575  0.0250  0.2514  0.3528
  721MOL0     O99363   0.075   3.945   1.485  0.5789  0.6149  0.0385
  721MOL0     C99364   0.202   4.002   1.478 -0.0176 -0.3271  0.4428
  721MOL0     C99365   0.244   4.072   1.362  0.0380 -0.2698 -0.3711
  721MOL0     C99366   0.352   4.153   1.362 -0.1727 -0.6759  0.2679
  721MOL0     C99367   0.422   4.178   1.479  0.3842 -1.1946  0.2863
  721MOL0     O99368   0.513   4.283   1.499  0.3741  0.0464  0.3017
  721MOL0     C99369   0.497   4.402   1.425 -0.7699 -0.9873  0.2583
  721MOL0     C99370   0.589   4.517   1.460 -0.5359 -0.1064  0.7775
  721MOL0     C99371   0.737   4.505   1.414 -0.3400  0.8678  0.0882
  721MOL0     C99372   0.806   4.371   1.452 -0.1074 -1.0380 -0.0505
  721MOL0     C99373   0.959   4.364   1.427  0.6422 -0.1922  0.5330
  721MOL0     C99374   1.036   4.493   1.460  0.0490 -0.5739  0.1156
  721MOL0     C99375   1.191   4.480   1.455 -0.1710 -0.2719  0.2339
  721MOL0     C99376   1.256   4.620   1.471  0.0554 -0.4370 -0.4745
  721MOL0     N99377   1.394   4.619   1.426 -0.0568 -1.3249 -0.0343
  721MOL0     C99378   1.493   4.528   1.470 -0.5960  1.1522  0.0430
  721MOL0     C99379   1.615   4.590   1.475 -0.6099  0.4375  1.0715
  721MOL0     C99380   1.729   4.544   1.561  0.3732  0.3671  0.4175
  721MOL0     C99381   1.850   4.627   1.539 -0.5727  0.0130  0.7275
  721MOL0     C99382   1.956   4.572   1.626 -0.5451  0.5926 -0.5305
  721MOL0     C99383   2.109   4.620   1.596  0.0141  0.0674  0.4960
  721MOL0     O99384   2.192   4.570   1.698 -0.1978  0.4665  0.4957
  721MOL0     C99385   2.309   4.640   1.685 -0.5418  0.7415  0.0068
  721MOL0     C99386   2.317   4.769   1.729 -0.7547  1.1894 -0.4445
  721MOL0     C99387   2.435   4.844   1.724  0.3458 -0.7036 -0.0135
  721MOL0     C99388   2.434   4.984   1.784 -0.2821 -0.8828  0.1920
  721MOL0     C99389   2.555   4.781   1.668  0.5868  0.1716  0.2120
  721MOL0     C99390   2.677   4.855   1.631 -0.3800  0.7456  0.2251
  721MOL0     O99391   2.799   4.783   1.624  0.5411 -0.5293 -0.1004
  721MOL0     C99392   2.928   4.832   1.624 -0.2938 -0.1754  0.0192
  721MOL0     C99393   3.029   4.755   1.587  1.0564  0.1704  0.1870
  721MOL0     C99394   3.164   4.797   1.569  0.0999  0.0573 -0.6324
  721MOL0     C99395   3.197   4.936   1.584 -0.3179  0.3841 -0.7210
  721MOL0     O99396   3.327   4.984   1.565 -0.0319  0.0313 -0.5311
  721MOL0     C99397   3.368   5.114   1.614  0.4260 -0.4148  1.0773
  721MOL0     C99398   3.324   5.235   1.530 -0.5416 -0.7347  0.6968
  721MOL0     C99399   3.398   5.246   1.391 -0.2245  0.2050 -0.0320
  721MOL0     C99400   3.554   5.246   1.405  0.3488  0.5394 -0.0608
  721MOL0     C99401   3.635   5.248   1.281 -0.1337 -0.3527 -0.0242
  721MOL0     C99402   3.587   5.365   1.200 -0.8431 -0.4188 -0.0757
  721MOL0     C99403   3.697   5.416   1.094 -0.0674  0.0966  0.6415
  721MOL0     C99404   3.655   5.546   1.032 -0.0361 -0.1877 -0.1403
  721MOL0    Cl99405   3.489   5.555   0.955  0.1264  0.2560 -0.1007
  721MOL0     C99406   3.095   5.015   1.632  0.0595  0.1594 -0.5212
  721MOL0     C99407   2.965   4.966   1.656  0.2811  0.5936  0.4752
  721MOL0     O99408   2.673   4.975   1.617  0.2028  0.1590 -0.7776
  721MOL0     C99409   2.547   4.651   1.648  0.2399  1.3633 -0.3476
  721MOL0     C99410   2.425   4.576   1.647  1.0157  0.4474  0.1518
  721MOL0     N99411   1.595   4.714   1.422  0.1410  0.0568  0.4219
  721MOL0     N99412   1.472   4.730   1.400  0.2941 -0.5939  0.0317
  721MOL0     C99413   0.394   4.109   1.592 -0.9972  0.7717  0.1245
  721MOL0     C99414   0.288   4.018   1.591 -0.2828  0.8589 -0.4737
  721MOL0     C99415  -0.073   3.760   1.571  0.2933 -0.4589 -0.8238
  721MOL0     C99416  -0.133   3.721   1.683  0.3971  0.1073  0.6418
  721MOL0     C99417  -0.252   3.658   1.693  0.5983  0.0999  0.1181
  721MOL0     C99418  -0.330   3.642   1.577 -0.0599  0.2491  0.4645
  721MOL0     O99419  -0.463   3.596   1.599 -0.4145 -0.0395 -0.2780
  721MOL0     C99420  -0.556   3.572   1.493 -0.4521 -0.7644  0.2467
  721MOL0     C99421  -0.684   3.528   1.559  0.4761  0.8270 -0.6088
  721MOL0     C99422  -0.754   3.643   1.625 -0.5953 -1.1213 -0.0845
  721MOL0     C99423  -0.887   3.599   1.691  0.0003  0.0620 -0.3534
  721MOL0     C99424  -0.969   3.531   1.588 -0.1921 -0.7725  0.0431
  721MOL0     C99425  -1.023   3.467   1.500  0.5675  0.1093  0.2662
  721MOL0     C99426  -0.278   3.682   1.453 -0.5717 -0.5357  0.5445
  721MOL0     C99427  -0.150   3.731   1.452 -0.4684 -0.9639 -0.0599
  721MOL0     C99428  -0.079   3.745   1.311 -0.0555  0.3987 -0.1799
  721MOL0     H99429   0.185   4.063   1.272 -1.0852 -0.0095  0.3186
  721MOL0     H99430   0.390   4.208   1.276 -3.6635  3.5036  1.0621
  721MOL0     H99431   0.393   4.429   1.446 -0.1331  0.0177  2.3020
  721MOL0     H99432   0.498   4.376   1.318  0.3213 -3.2854  0.7854
  721MOL0     H99433   0.560   4.614   1.417  2.0451  0.0450 -0.8505
  721MOL0     H99434   0.578   4.519   1.569 -0.3441  0.2127  0.7930
  721MOL0     H99435   0.732   4.509   1.305  0.7679  1.8466  0.0579
  721MOL0     H99436   0.783   4.590   1.464  0.6551  1.1904 -1.3164
  721MOL0     H99437   0.805   4.365   1.561 -3.0246 -0.2256  0.0671
  721MOL0     H99438   0.752   4.286   1.410 -1.4266  0.3847 -1.4342
  721MOL0     H99439   0.978   4.341   1.322  1.1761 -0.1653  0.6212
  721MOL0     H99440   1.009   4.289   1.489  2.0349 -0.2311 -0.5805
  721MOL0     H99441   1.018   4.567   1.382  3.6997  0.4770  0.0939
  721MOL0     H99442   1.008   4.522   1.562  1.9923 -0.2345  0.6042
  721MOL0     H99443   1.214   4.439   1.356  1.6994 -2.8166  1.6132
  721MOL0     H99444   1.232   4.412   1.530  0.9437 -0.1207 -0.2227
  721MOL0     H99445   1.200   4.690   1.409  0.5593 -0.6744 -1.2077
  721MOL0     H99446   1.261   4.645   1.577 -3.2180  1.1039 -0.5764
  721MOL0     H99447   1.485   4.435   1.525 -2.0084  1.4348  0.3435
  721MOL0     H99448   1.753   4.441   1.533  2.8184  1.5370 -2.3056
  721MOL0     H99449   1.709   4.548   1.668  4.0413 -0.7400  1.2956
  721MOL0     H99450   1.888   4.608   1.439  2.1264 -1.3117  1.8939
  721MOL0     H99451   1.835   4.734   1.555 -0.9510  0.6476 -3.0390
  721MOL0     H99452   1.925   4.609   1.724 -0.3793  1.0667 -0.6511
  721MOL0     H99453   1.953   4.463   1.628  0.4481  0.5112 -1.8571
  721MOL0     H99454   2.145   4.568   1.507 -1.5130  1.7751 -1.1931
  721MOL0     H99455   2.113   4.727   1.576  0.2756  0.6479  3.2874
  721MOL0     H99456   2.227   4.812   1.770 -2.0960 -0.2287 -1.7691
  721MOL0     H99457   2.347   5.009   1.845 -0.6855 -1.2180 -0.2337
  721MOL0     H99458   2.422   5.058   1.704  0.3198  1.7871  2.4206
  721MOL0     H99459   2.528   5.012   1.832  1.4111 -0.3272 -3.1573
  721MOL0     H99460   3.005   4.650   1.570 -0.6348  0.7500 -1.2785
  721MOL0     H99461   3.231   4.726   1.521  1.7191  2.3059 -1.8626
  721MOL0     H99462   3.322   5.133   1.711 -1.5845 -0.0120  0.0920
  721MOL0     H99463   3.477   5.108   1.619  0.7155  1.1201 -1.6182
  721MOL0     H99464   3.219   5.228   1.497 -0.1575  0.7147 -0.9881
  721MOL0     H99465   3.341   5.329   1.584  0.1748 -1.1956  1.2914
  721MOL0     H99466   3.373   5.347   1.357 -1.7277 -0.2928 -0.5070
  721MOL0     H99467   3.366   5.170   1.318 -1.1595 -0.7203  1.3019
  721MOL0     H99468   3.588   5.155   1.456  2.8749  0.0678 -2.3909
  721MOL0     H99469   3.573   5.330   1.473 -0.9216 -0.3975  1.5382
  721MOL0     H99470   3.743   5.260   1.293  0.5874 -1.9242 -3.7349
  721MOL0     H99471   3.629   5.154   1.226  1.8758 -0.6681  0.1991
  721MOL0     H99472   3.559   5.449   1.264 -1.9107 -0.6295 -0.2414
  721MOL0     H99473   3.495   5.335   1.149  1.3172 -1.5178 -3.7428
  721MOL0     H99474   3.700   5.354   1.004  0.0636  0.2023  0.5726
  721MOL0     H99475   3.794   5.423   1.145  0.8650 -1.2349 -0.8586
  721MOL0     H99476   3.726   5.570   0.953 -0.6944 -2.1991 -1.4221
  721MOL0     H99477   3.649   5.625   1.108 -0.1250  0.2854 -0.6349
  721MOL0     H99478   3.106   5.122   1.651  0.8938 -0.0979  0.4951
  721MOL0     H99479   2.894   5.037   1.697  0.6408  2.1528 -1.4499
  721MOL0     H99480   2.626   4.594   1.600 -2.3459 -2.1508 -0.8634
  721MOL0     H99481   2.429   4.468   1.633 -2.9680  0.1466  0.2525
  721MOL0     H99482   0.446   4.122   1.686  0.8626 -1.6971 -0.4423
  721MOL0     H99483   0.279   3.955   1.679 -2.7876  3.8971  1.6412
  721MOL0     H99484  -0.075   3.749   1.771  1.8230 -1.6072  0.3197
  721MOL0     H99485  -0.294   3.638   1.791 -1.0847  0.7145 -0.4438
  721MOL0     H99486  -0.564   3.671   1.448  1.1372 -0.0830  1.3766
  721MOL0     H99487  -0.527   3.497   1.419 -1.6172  1.2066 -2.3775
  721MOL0     H99488  -0.670   3.446   1.630  0.3666  3.3049  2.4662
  721MOL0     H99489  -0.735   3.488   1.471 -0.4276 -0.4017  0.4346
  721MOL0     H99490  -0.689   3.701   1.692 -2.3152 -0.3167  0.9731
  721MOL0     H99491  -0.784   3.706   1.541  1.4328  0.9041  0.5988
  721MOL0     H99492  -0.944   3.681   1.737  0.3889  0.7462 -1.0761
  721MOL0     H99493  -0.858   3.533   1.773  1.1686  0.4323 -0.4465
  721MOL0     H99494  -1.069   3.422   1.414 -1.7421  3.5380 -0.4956
  721MOL0     H99495  -0.319   3.661   1.354 -1.7218  0.0229  0.8838
  721MOL0     H99496  -0.061   3.850   1.287 -0.0554  0.6847  0.9713
  721MOL0     H99497   0.011   3.684   1.303 -1.3479 -1.2942 -3.0972
  721MOL0     H99498  -0.133   3.702   1.226  1.9308 -0.3727 -1.1043
  722MOL0     O99499   0.049   0.147   2.183 -0.0553  0.4811 -0.7270
  722MOL0     C99500  -0.056   0.169   2.237 -0.7456  0.2676  0.7365
  722MOL0     O99501  -0.111   0.092   2.334 -0.1650 -0.2955  0.2249
  722MOL0     C99502  -0.080  -0.045   2.325 -0.5569  0.3837  1.1436
  722MOL0     C99503  -0.110  -0.111   2.448 -0.8051  0.4344  0.7498
  722MOL0     C99504  -0.081  -0.252   2.461  0.3835 -0.1341  0.7414
  722MOL0     C99505  -0.013  -0.323   2.361 -0.3370 -0.5857 -0.6448
  722MOL0     O99506   0.025  -0.443   2.401 -0.6797  0.0870  0.5119
  722MOL0     C99507   0.129  -0.517   2.331 -1.0323 -0.7027  0.1719
  722MOL0     C99508   0.073  -0.649   2.260  0.1220  0.1170  0.0542
  722MOL0     C99509   0.017  -0.742   2.364 -0.5582  0.5548 -0.0830
  722MOL0     C99510  -0.031  -0.874   2.310 -0.7319 -0.1587  0.7179
  722MOL0     C99511  -0.169  -0.866   2.231  0.0575  0.2800  0.0743
  722MOL0     C99512  -0.287  -0.849   2.329 -0.9535  0.5515 -0.3972
  722MOL0     C99513  -0.422  -0.800   2.270 -0.3115 -0.0223  1.1028
  722MOL0     C99514  -0.485  -0.901   2.175 -0.2094  0.0718 -0.3007
  722MOL0     N99515  -0.609  -0.836   2.117  0.2435  0.0286  0.4858
  722MOL0     C99516  -0.737  -0.886   2.148 -0.7744  0.6817  0.4386
  722MOL0     C99517  -0.822  -0.796   2.102  0.5028 -0.2728 -0.5228
  722MOL0     C99518  -0.970  -0.807   2.125  0.3387 -0.4437  0.8931
  722MOL0     C99519  -1.020  -0.716   2.234  0.3459 -0.4497  0.2105
  722MOL0     C99520  -1.023  -0.569   2.199  1.2451 -0.5448  0.0668
  722MOL0     C99521  -1.154  -0.528   2.129  0.9661  0.1321 -0.1749
  722MOL0     O99522  -1.263  -0.531   2.225  0.1237 -0.1733 -0.4385
  722MOL0     C99523  -1.393  -0.494   2.189 -0.4924 -0.1976 -0.8123
  722MOL0     C99524  -1.486  -0.499   2.288  0.5286  0.5236 -0.6700
  722MOL0     C99525  -1.622  -0.470   2.250 -0.6521  0.1243 -0.0148
  722MOL0     C99526  -1.721  -0.494   2.367  0.1935 -0.4773  0.0384
  722MOL0     C99527  -1.656  -0.418   2.122  0.6965  0.1037 -0.1991
  722MOL0     C99528  -1.792  -0.392   2.075 -0.3996  0.5129 -0.0505
  722MOL0     O99529  -1.883  -0.393   2.168 -0.4521 -0.4160 -0.2733
  722MOL0     C99530  -2.011  -0.366   2.145 -0.1294 -0.0837  0.3747
  722MOL0     C99531  -2.111  -0.455   2.183 -0.0315 -0.4115 -0.3099
  722MOL0     C99532  -2.247  -0.427   2.173  0.0703 -0.0327  1.0160
  722MOL0     C99533  -2.285  -0.309   2.109  0.4853  0.2829  0.5156
  722MOL0     O99534  -2.417  -0.288   2.090 -0.3827 -0.4812  0.6787
  722MOL0     C99535  -2.490  -0.274   2.206  0.1000 -0.0446  0.7125
  722MOL0     C99536  -2.614  -0.197   2.159 -0.6478 -0.6607  0.0994
  722MOL0     C99537  -2.724  -0.264   2.094 -0.9464  0.1312  0.6759
  722MOL0     C99538  -2.844  -0.178   2.059 -0.2572 -0.6396 -0.4414
  722MOL0     C99539  -2.943  -0.256   1.953  0.1178  0.2991 -0.1864
  722MOL0     C99540  -3.081  -0.182   1.935 -0.1456  0.6765 -0.0710
  722MOL0     C99541  -3.178  -0.231   1.819  1.2645 -0.3349 -0.6712
  722MOL0     C99542  -3.115  -0.253   1.681  0.1480 -0.2884  0.2429
  722MOL0    Cl99543  -3.010  -0.107   1.661 -0.3130  0.4645  0.1729
  722MOL0     C99544  -2.191  -0.211   2.079  0.2993 -0.5229 -0.0567
  722MOL0     C99545  -2.058  -0.243   2.105 -0.0995  0.7047  0.1434
  722MOL0     O99546  -1.812  -0.360   1.952 -0.2154 -0.6154  0.1587
  722MOL0     C99547  -1.552  -0.398   2.034  0.0874  0.0858  0.1145
  722MOL0     C99548  -1.425  -0.447   2.062 -0.1229 -0.3173 -0.4483
  722MOL0     N99549  -0.754  -0.692   2.043 -0.6371  0.2886  0.7035
  722MOL0     N99550  -0.626  -0.717   2.044 -0.7166 -0.7317  0.0328
  722MOL0     C99551   0.009  -0.262   2.234  0.4486 -1.0781 -0.2500
  722MOL0     C99552  -0.027  -0.123   2.214 -0.8881  1.2162  0.3777
  722MOL0     C99553  -0.127   0.293   2.207  0.0413  0.7104 -0.4377
  722MOL0     C99554  -0.218   0.328   2.313 -0.2204 -0.9186 -0.0740
  722MOL0     C99555  -0.292   0.446   2.290  0.2646  0.4841 -0.7058
  722MOL0     C99556  -0.277   0.530   2.177  0.2768 -0.1686 -1.1235
  722MOL0     O99557  -0.355   0.640   2.161  0.4442  0.2851  0.3653
  722MOL0     C99558  -0.477   0.606   2.089 -0.8868  1.1445  0.0833
  722MOL0     C99559  -0.459   0.665   1.946 -0.6595 -0.1450 -0.0854
  722MOL0     C99560  -0.488   0.561   1.831 -0.3053  0.5718  0.3837
  722MOL0     C99561  -0.467   0.617   1.694 -0.1215 -0.4971 -0.0130
  722MOL0     C99562  -0.493   0.525   1.585 -0.1972  0.5536  0.0706
  722MOL0     C99563  -0.512   0.444   1.501 -0.1650 -0.5162 -0.2657
  722MOL0     C99564  -0.199   0.488   2.076  0.9262 -0.1588  0.3237
  722MOL0     C99565  -0.121   0.378   2.086 -0.6188  0.4540  0.5815
  722MOL0     C99566  -0.038   0.328   1.968 -0.7783  0.6902  0.1921
  722MOL0     H99567  -0.149  -0.057   2.533 -1.8025  0.7767  0.1011
  722MOL0     H99568  -0.107  -0.298   2.556 -1.5954 -1.8087 -0.5191
  722MOL0     H99569   0.201  -0.543   2.409  0.6267  1.8887 -0.3903
  722MOL0     H99570   0.186  -0.450   2.265 -1.3901  0.7894  1.3193
  722MOL0     H99571  -0.009  -0.620   2.193 -1.5082 -0.3987  1.7383
  722MOL0     H99572   0.161  -0.690   2.210  0.3514  3.1902 -2.3463
  722MOL0     H99573   0.098  -0.765   2.434 -2.7834 -0.0843  2.4539
  722MOL0     H99574  -0.060  -0.692   2.424 -0.5242 -2.1923  2.5082
  722MOL0     H99575   0.046  -0.921   2.248 -1.7292  1.1600 -1.6321
  722MOL0     H99576  -0.048  -0.935   2.399  2.4375  0.3364  1.7930
  722MOL0     H99577  -0.184  -0.959   2.175  2.2534  0.5483 -1.0392
  722MOL0     H99578  -0.172  -0.787   2.155  2.1565  0.2991 -0.0232
  722MOL0     H99579  -0.294  -0.943   2.385 -0.6188  0.1459 -1.0151
  722MOL0     H99580  -0.255  -0.764   2.390 -0.1840  0.7135 -1.0056
  722MOL0     H99581  -0.407  -0.706   2.217 -1.3437  0.7690  2.1562
  722MOL0     H99582  -0.495  -0.772   2.347 -1.0240  1.8223 -0.1732
  722MOL0     H99583  -0.412  -0.920   2.095 -1.3788 -0.9286 -1.1551
  722MOL0     H99584  -0.506  -0.998   2.220 -1.1529 -0.6554 -2.1957
  722MOL0     H99585  -0.764  -0.985   2.185  1.2275 -0.4629 -0.9471
  722MOL0     H99586  -0.995  -0.912   2.144 -2.3136  0.1176  0.8633
  722MOL0     H99587  -1.011  -0.779   2.027  1.0653  2.8253  1.4208
  722MOL0     H99588  -1.117  -0.756   2.264 -1.5612  2.0379 -2.1103
  722MOL0     H99589  -0.960  -0.731   2.324 -0.4143 -1.2302  0.5958
  722MOL0     H99590  -1.022  -0.516   2.294 -0.6244 -1.6143  0.7205
  722MOL0     H99591  -0.933  -0.531   2.148  0.5138 -0.4089 -1.1647
  722MOL0     H99592  -1.141  -0.425   2.096 -1.0040  1.3916  2.5735
  722MOL0     H99593  -1.170  -0.599   2.047  0.4669  0.6510 -0.5301
  722MOL0     H99594  -1.461  -0.534   2.387  1.8406  0.1186 -1.1234
  722MOL0     H99595  -1.758  -0.396   2.397  1.1524 -0.3852  0.9877
  722MOL0     H99596  -1.684  -0.543   2.458 -0.9631 -2.0484 -0.2869
  722MOL0     H99597  -1.808  -0.551   2.333 -0.0094  0.7289 -1.5720
  722MOL0     H99598  -2.078  -0.548   2.229 -2.6665 -0.4896  1.6533
  722MOL0     H99599  -2.318  -0.499   2.211 -0.0368  2.1876  5.6273
  722MOL0     H99600  -2.521  -0.372   2.243 -2.0336  0.4942  0.4736
  722MOL0     H99601  -2.425  -0.231   2.283 -0.3645 -0.7842  1.5301
  722MOL0     H99602  -2.656  -0.141   2.243  1.9133  1.9138 -0.1970
  722MOL0     H99603  -2.588  -0.118   2.088 -2.7237 -2.5208 -2.9772
  722MOL0     H99604  -2.774  -0.333   2.163 -0.5907  0.1181  0.9182
  722MOL0     H99605  -2.688  -0.324   2.010 -4.0154  2.6046 -2.7382
  722MOL0     H99606  -2.808  -0.086   2.012 -2.5804 -0.8840 -2.9267
  722MOL0     H99607  -2.886  -0.162   2.158  0.8894  1.1457 -0.2004
  722MOL0     H99608  -2.891  -0.256   1.857 -0.9975  1.4359 -0.8305
  722MOL0     H99609  -2.963  -0.352   2.001 -1.7492  1.3870  1.3778
  722MOL0     H99610  -3.058  -0.077   1.919 -0.1524  0.9051  1.3383
  722MOL0     H99611  -3.128  -0.189   2.033 -3.0515 -0.9923 -1.4527
  722MOL0     H99612  -3.253  -0.154   1.798 -0.8575 -2.8870 -3.3920
  722MOL0     H99613  -3.240  -0.317   1.847 -1.4693  1.3963 -1.0719
  722MOL0     H99614  -3.173  -0.261   1.588  4.3753 -1.4295 -2.5521
  722MOL0     H99615  -3.060  -0.347   1.674 -0.8693 -0.7902 -2.3696
  722MOL0     H99616  -2.215  -0.109   2.051  0.7324  0.0919  1.6913
  722MOL0     H99617  -1.986  -0.166   2.078 -1.4768  1.8786 -0.3468
  722MOL0     H99618  -1.580  -0.352   1.940  0.6969 -2.7507 -1.5644
  722MOL0     H99619  -1.357  -0.435   1.978 -0.8681  2.4022 -0.7492
  722MOL0     H99620   0.059  -0.311   2.151 -0.3256 -1.2772 -0.6092
  722MOL0     H99621  -0.017  -0.083   2.113 -0.9049 -1.0590 -0.5888
  722MOL0     H99622  -0.223   0.277   2.408 -2.3473  2.4076  1.8037
  722MOL0     H99623  -0.357   0.496   2.360  2.3672  3.0117 -0.4172
  722MOL0     H99624  -0.495   0.498   2.089  1.4162  0.7111 -1.2413
  722MOL0     H99625  -0.555   0.664   2.139  0.2381  1.8010  1.1275
  722MOL0     H99626  -0.352   0.688   1.943 -0.4390 -1.2038 -2.4286
  722MOL0     H99627  -0.512   0.759   1.935 -0.3159 -0.0009 -0.5114
  722MOL0     H99628  -0.430   0.470   1.849 -1.3726  0.1552  1.9068
  722MOL0     H99629  -0.592   0.529   1.841  0.3560 -3.2210 -2.4033
  722MOL0     H99630  -0.366   0.658   1.685 -0.3567  0.1897  0.3578
  722MOL0     H99631  -0.536   0.703   1.699 -0.3864 -0.7435  0.8284
  722MOL0     H99632  -0.535   0.386   1.414 -1.5167  0.2669 -0.4486
  722MOL0     H99633  -0.199   0.554   1.990  2.6520  1.5560  1.5558
  722MOL0     H99634  -0.062   0.375   1.873 -6.8631  0.5104  1.2443
  722MOL0     H99635   0.068   0.356   1.978 -1.5118  3.3831  1.1740
  722MOL0     H99636  -0.052   0.221   1.953 -2.4580  0.6708  1.5953
  723MOL0     O99637   3.594   3.316  10.333  0.3555 -0.5693 -0.1766
  723MOL0     C99638   3.632   3.441  10.344 -0.7435 -0.4997  0.0096
  723MOL0     O99639   3.554   3.549  10.385  0.8113 -0.1969  0.4080
  723MOL0     C99640   3.415   3.543  10.362  0.3108 -0.2958 -0.9182
  723MOL0     C99641   3.355   3.474  10.251 -0.3656  1.1019 -1.0275
  723MOL0     C99642   3.217   3.464  10.243  0.2928 -0.6058 -0.2694
  723MOL0     C99643   3.138   3.523  10.339  0.6785  0.5386  0.0577
  723MOL0     O99644   3.000   3.497  10.340 -1.3133  0.7581 -0.3459
  723MOL0     C99645   2.909   3.606  10.338 -0.4761  0.9630 -0.2598
  723MOL0     C99646   2.779   3.535  10.378  0.7788 -0.2657  0.3506
  723MOL0     C99647   2.679   3.647  10.412 -0.1267 -1.2210 -0.4731
  723MOL0     C99648   2.658   3.652  10.564  0.0125  0.0730  0.1666
  723MOL0     C99649   2.544   3.743  10.598 -0.1679  0.2901 -0.5731
  723MOL0     C99650   2.517   3.764  10.741 -0.8032  0.6854 -0.8988
  723MOL0     C99651   2.642   3.819  10.812 -0.0672  0.0642 -0.2553
  723MOL0     C99652   2.701   3.963  10.779 -0.5456  0.3156 -1.0275
  723MOL0     N99653   2.842   3.976  10.813 -0.4735  0.0958  0.1328
  723MOL0     C99654   2.944   3.944  10.721  0.3259 -0.4425  0.0278
  723MOL0     C99655   3.059   3.977  10.793 -0.1316 -0.0844  1.0085
  723MOL0     C99656   3.204   3.969  10.739 -0.5333  0.1590  0.3623
  723MOL0     C99657   3.312   3.980  10.855 -0.9006  0.0550  0.4827
  723MOL0     C99658   3.455   3.981  10.795  0.7026 -0.0144 -0.0368
  723MOL0     C99659   3.562   3.958  10.898 -0.1339 -0.1802  0.3441
  723MOL0     O99660   3.561   3.828  10.955  0.0237  0.0407  0.1855
  723MOL0     C99661   3.652   3.745  10.905  0.2540 -0.1065 -0.4817
  723MOL0     C99662   3.601   3.629  10.844 -1.1768  0.6939  0.0513
  723MOL0     C99663   3.688   3.528  10.780  0.6861  0.6502 -0.1929
  723MOL0     C99664   3.621   3.401  10.733  0.0877 -0.7900 -0.1357
  723MOL0     C99665   3.824   3.553  10.783  0.0868  0.6265  0.1561
  723MOL0     C99666   3.930   3.465  10.730  0.0327  0.0522  0.4226
  723MOL0     O99667   4.065   3.489  10.752 -0.0536  0.4748 -0.1292
  723MOL0     C99668   4.156   3.394  10.709  0.4947 -0.4237 -0.3354
  723MOL0     C99669   4.194   3.398  10.573 -0.6747  0.2275 -0.3084
  723MOL0     C99670   4.283   3.302  10.539 -0.0364  0.5186 -0.2892
  723MOL0     C99671   4.337   3.194  10.620 -0.1803 -0.9252  0.5463
  723MOL0     O99672   4.434   3.104  10.558 -0.5438  0.0645 -0.1413
  723MOL0     C99673   4.542   3.060  10.646  0.6100 -0.6952  0.3071
  723MOL0     C99674   4.651   2.984  10.549  0.8126  0.0456 -0.4455
  723MOL0     C99675   4.766   2.907  10.620  0.0343  0.6643 -0.0797
  723MOL0     C99676   4.839   2.830  10.507 -0.2319  0.6169 -0.0448
  723MOL0     C99677   4.947   2.732  10.558 -0.8010  0.0370  0.3986
  723MOL0     C99678   5.053   2.798  10.638 -0.1931  0.3237  0.4382
  723MOL0     C99679   5.163   2.705  10.686  0.4220 -0.4142 -0.2212
  723MOL0     C99680   5.294   2.713  10.610 -0.5240 -1.2485  0.7432
  723MOL0    Cl99681   5.374   2.871  10.598 -0.3790 -0.4200 -0.0965
  723MOL0     C99682   4.302   3.191  10.751 -0.6705 -0.2209  0.1019
  723MOL0     C99683   4.209   3.292  10.796  0.3525 -0.9748  0.4245
  723MOL0     O99684   3.887   3.371  10.661 -0.8842 -0.1928 -0.7416
  723MOL0     C99685   3.872   3.684  10.821 -0.3048  0.4492  0.0679
  723MOL0     C99686   3.788   3.772  10.887  0.2311 -0.0351  0.3054
  723MOL0     N99687   3.024   4.023  10.922 -0.0872  0.2818 -0.1634
  723MOL0     N99688   2.895   4.030  10.931  0.0359  0.8996 -0.2866
  723MOL0     C99689   3.192   3.593  10.444 -0.6472 -0.5289  0.2748
  723MOL0     C99690   3.331   3.606  10.457 -0.1014  0.8590  0.1179
  723MOL0     C99691   3.779   3.463  10.316 -0.2911 -0.2057  0.0309
  723MOL0     C99692   3.877   3.359  10.347 -1.0490 -0.2097 -1.0931
  723MOL0     C99693   4.007   3.372  10.304  0.6588  0.1443 -0.3846
  723MOL0     C99694   4.050   3.486  10.235 -0.6671  0.2121  0.0433
  723MOL0     O99695   4.182   3.500  10.206  1.1525 -0.0381 -0.1768
  723MOL0     C99696   4.221   3.503  10.070  0.6224 -0.8914  1.0914
  723MOL0     C99697   4.370   3.510  10.047 -0.0648 -0.7678 -0.7630
  723MOL0     C99698   4.412   3.524   9.900 -0.8398 -0.4347  0.2906
  723MOL0     C99699   4.382   3.392   9.817 -0.4684 -0.1216 -0.5581
  723MOL0     C99700   4.345   3.435   9.682 -0.4637  0.3297  0.5312
  723MOL0     C99701   4.327   3.491   9.576  0.7295  0.6489  0.3572
  723MOL0     C99702   3.958   3.585  10.208  0.7453  0.9340 -0.4856
  723MOL0     C99703   3.823   3.575  10.249  0.4002  0.1225 -0.2762
  723MOL0     C99704   3.728   3.681  10.199 -0.9051 -0.3524  0.0369
  723MOL0     H99705   3.418   3.412  10.187 -0.2389 -0.0493  0.1596
  723MOL0     H99706   3.180   3.405  10.160 -3.9826 -0.0920  0.9723
  723MOL0     H99707   2.876   3.643  10.240 -1.7641 -3.3371 -1.6606
  723MOL0     H99708   2.941   3.687  10.404  0.8002  0.9407 -0.8230
  723MOL0     H99709   2.753   3.478  10.288  2.7162 -1.3506  0.4080
  723MOL0     H99710   2.803   3.463  10.457 -2.2487  2.0597  3.6573
  723MOL0     H99711   2.714   3.745  10.379 -2.4892 -0.3863 -0.6424
  723MOL0     H99712   2.587   3.614  10.363  0.0446 -3.3113  0.4870
  723MOL0     H99713   2.635   3.549  10.590 -0.3996  0.0778 -0.1575
  723MOL0     H99714   2.752   3.680  10.613 -0.5660 -1.5217  2.3320
  723MOL0     H99715   2.457   3.693  10.555 -0.5696  1.1525 -0.7781
  723MOL0     H99716   2.544   3.840  10.546  2.0338  2.0764  2.4461
  723MOL0     H99717   2.427   3.825  10.752 -0.1056  1.4509  0.9404
  723MOL0     H99718   2.489   3.665  10.779 -0.1179 -0.4969 -3.2147
  723MOL0     H99719   2.715   3.739  10.796 -2.1762 -1.6915 -1.7982
  723MOL0     H99720   2.619   3.818  10.920 -0.1816 -0.4064 -0.2817
  723MOL0     H99721   2.701   3.973  10.670 -1.2163 -1.4619 -1.2380
  723MOL0     H99722   2.638   4.037  10.829 -1.6223  0.2407 -2.2084
  723MOL0     H99723   2.927   3.916  10.617 -0.4158 -1.5145  0.4155
  723MOL0     H99724   3.219   4.054  10.672  1.2218 -2.1566 -2.4341
  723MOL0     H99725   3.218   3.879  10.679  2.2732  1.1997 -0.7467
  723MOL0     H99726   3.300   4.054  10.934 -1.0794 -0.6929  1.1643
  723MOL0     H99727   3.310   3.888  10.913  1.3333  0.0862  0.6891
  723MOL0     H99728   3.466   3.903  10.719 -0.1786 -1.4449  1.2659
  723MOL0     H99729   3.483   4.078  10.753  0.4773  0.7770  1.5823
  723MOL0     H99730   3.653   3.978  10.841 -0.3873 -3.1842 -1.3024
  723MOL0     H99731   3.554   4.031  10.979  0.8763 -0.3397  0.6028
  723MOL0     H99732   3.495   3.610  10.846 -1.3782  1.5068 -1.2275
  723MOL0     H99733   3.684   3.318  10.767  3.6296  1.7321  0.1091
  723MOL0     H99734   3.625   3.393  10.624  1.9282  5.4926 -0.9549
  723MOL0     H99735   3.520   3.397  10.774  0.1087  3.6047  0.8004
  723MOL0     H99736   4.157   3.464  10.495  2.4378  1.6610 -0.7369
  723MOL0     H99737   4.314   3.297  10.435  1.8274 -2.0404  0.3143
  723MOL0     H99738   4.603   3.139  10.691  1.7913 -1.3359 -0.1106
  723MOL0     H99739   4.505   2.978  10.709  2.2974 -1.2804  0.5863
  723MOL0     H99740   4.611   2.904  10.486  0.7789  1.9508 -2.9653
  723MOL0     H99741   4.687   3.058  10.477 -0.6044 -0.2491 -1.4991
  723MOL0     H99742   4.711   2.840  10.686  0.2640  0.6532  0.0998
  723MOL0     H99743   4.828   2.966  10.689 -1.7317  1.3932  0.9632
  723MOL0     H99744   4.882   2.909  10.444 -2.0350  1.1466 -0.6493
  723MOL0     H99745   4.771   2.766  10.452  0.8452 -1.1389  0.5664
  723MOL0     H99746   4.902   2.655  10.622 -0.4546 -0.7574 -0.2885
  723MOL0     H99747   4.996   2.682  10.474 -0.6955  5.0944 -2.9441
  723MOL0     H99748   5.002   2.838  10.726 -2.0634 -2.0934  0.5554
  723MOL0     H99749   5.094   2.883  10.582  1.6466 -2.0166 -2.0282
  723MOL0     H99750   5.131   2.601  10.679  0.6632 -0.4151 -1.6564
  723MOL0     H99751   5.194   2.736  10.786  2.5874  0.5025 -1.1078
  723MOL0     H99752   5.276   2.676  10.508 -0.5408 -1.7231  0.9149
  723MOL0     H99753   5.365   2.637  10.641 -0.5918 -0.9154  1.7450
  723MOL0     H99754   4.337   3.110  10.814  1.6869  0.5690 -0.0729
  723MOL0     H99755   4.188   3.292  10.903 -0.2881  0.1519  0.3106
  723MOL0     H99756   3.974   3.719  10.809 -1.0114  2.7327  0.2742
  723MOL0     H99757   3.841   3.862  10.919 -0.2930  0.9390 -1.4174
  723MOL0     H99758   3.120   3.633  10.515 -1.5519  1.0051 -1.4327
  723MOL0     H99759   3.382   3.660  10.537  2.9901  0.1322 -1.2168
  723MOL0     H99760   3.840   3.270  10.397 -0.0057  0.7685  1.6221
  723MOL0     H99761   4.081   3.299  10.336 -1.1713 -0.7951  2.0061
  723MOL0     H99762   4.178   3.417  10.017 -0.2128  1.1805 -1.8756
  723MOL0     H99763   4.172   3.593  10.031 -1.1215 -2.5037 -0.6756
  723MOL0     H99764   4.419   3.418  10.078  0.9141 -0.9330 -2.6610
  723MOL0     H99765   4.413   3.587  10.112 -1.3531  1.0498 -1.9550
  723MOL0     H99766   4.377   3.621   9.863  1.5872  0.4214  0.0052
  723MOL0     H99767   4.521   3.534   9.893 -0.6346 -0.5747  2.5689
  723MOL0     H99768   4.304   3.334   9.868 -0.5925  0.0389 -0.5643
  723MOL0     H99769   4.474   3.333   9.811 -0.2787 -0.1577  1.7595
  723MOL0     H99770   4.328   3.530   9.476  3.5912 -2.0083 -0.8192
  723MOL0     H99771   3.994   3.678  10.166  3.7884 -0.6352 -1.6613
  723MOL0     H99772   3.702   3.747  10.283 -1.0739 -0.7326  0.2864
  723MOL0     H99773   3.772   3.741  10.119 -0.8669 -0.5791 -0.1122
  723MOL0     H99774   3.637   3.630  10.167  0.3910 -5.3241  3.0923
  724MOL0     O99775   8.725   5.380   7.255  0.2177 -0.4236 -0.4192
  724MOL0     C99776   8.705   5.285   7.327 -1.1381  0.2520 -0.3698
  724MOL0     O99777   8.803   5.196   7.374 -0.2582 -0.0076 -0.5319
  724MOL0     C99778   8.933   5.226   7.348 -0.4938 -0.3161 -0.0340
  724MOL0     C99779   9.018   5.120   7.343  0.5452  0.5493 -0.0750
  724MOL0     C99780   9.157   5.133   7.339 -0.4817  0.1497 -0.6782
  724MOL0     C99781   9.222   5.256   7.335 -0.5266 -0.8029  0.3835
  724MOL0     O99782   9.358   5.256   7.334  0.3473 -0.2497 -0.0285
  724MOL0     C99783   9.416   5.316   7.448 -0.9315  0.3787 -0.3756
  724MOL0     C99784   9.563   5.360   7.417 -0.3157  0.3453  0.0546
  724MOL0     C99785   9.578   5.473   7.312  0.9762 -0.1606  0.1845
  724MOL0     C99786   9.723   5.508   7.286 -0.2702  0.4806 -0.9408
  724MOL0     C99787   9.722   5.628   7.191  0.0034 -0.1147  0.6440
  724MOL0     C99788   9.639   5.621   7.060  0.1190 -0.6669  0.6464
  724MOL0     C99789   9.681   5.511   6.962 -0.5740 -1.0787 -0.2478
  724MOL0     C99790   9.617   5.529   6.822  0.1213 -0.1141 -0.7358
  724MOL0     N99791   9.666   5.638   6.734 -0.1072 -0.6770  0.1976
  724MOL0     C99792   9.649   5.774   6.753  0.1115  0.0138 -0.5195
  724MOL0     C99793   9.735   5.829   6.667  0.6168 -0.2540  1.2540
  724MOL0     C99794   9.760   5.977   6.657  0.3731 -0.1069 -0.4916
  724MOL0     C99795   9.824   6.034   6.529 -0.3872 -0.4721 -0.2471
  724MOL0     C99796   9.976   6.000   6.502  0.2353  0.2170 -0.0067
  724MOL0     C99797  10.044   6.112   6.422  0.2341  0.5077 -0.5054
  724MOL0     O99798   9.990   6.090   6.288  0.9465  0.4748 -0.7825
  724MOL0     C99799  10.045   6.157   6.177  0.3917 -0.3573  0.8664
  724MOL0     C99800  10.146   6.247   6.190 -0.0177  0.6585  0.3791
  724MOL0     C99801  10.211   6.322   6.089 -0.1099  0.0830  0.6577
  724MOL0     C99802  10.311   6.420   6.138  0.4410 -0.4757 -0.0163
  724MOL0     C99803  10.148   6.323   5.952 -0.7643  0.0948  0.3902
  724MOL0     C99804  10.193   6.395   5.830 -0.0120  0.0811 -0.3370
  724MOL0     O99805  10.121   6.380   5.722  0.9345  0.3371  0.2711
  724MOL0     C99806  10.152   6.458   5.611  0.2937 -0.2300  0.1306
  724MOL0     C99807  10.157   6.396   5.485  0.1316  0.7773  0.4930
  724MOL0     C99808  10.207   6.468   5.375 -0.0811  0.5612  0.1819
  724MOL0     C99809  10.270   6.594   5.385  0.4248 -0.7025  0.2107
  724MOL0     O99810  10.321   6.640   5.264 -1.2387  0.9075 -0.7297
  724MOL0     C99811  10.394   6.762   5.261  0.1370 -0.4395 -0.0892
  724MOL0     C99812  10.457   6.779   5.119  0.0963  0.2795 -1.4285
  724MOL0     C99813  10.342   6.772   5.019 -0.5659  0.1101  0.1204
  724MOL0     C99814  10.253   6.891   5.020  0.7062 -0.7027 -0.9862
  724MOL0     C99815  10.177   6.923   4.891  1.1407  0.6724 -0.2882
  724MOL0     C99816  10.062   7.016   4.906  0.7454 -0.2596 -0.4350
  724MOL0     C99817   9.987   7.055   4.774 -0.7758 -0.9181  0.0587
  724MOL0     C99818   9.888   7.165   4.795 -0.5884 -0.1064  0.6836
  724MOL0    Cl99819   9.787   7.136   4.935  0.2880 -0.0254 -0.6559
  724MOL0     C99820  10.278   6.654   5.513  1.2626  0.6109  0.6444
  724MOL0     C99821  10.214   6.588   5.619 -0.9455  0.0270  0.0548
  724MOL0     O99822  10.315   6.439   5.840  0.2251  0.0624  0.4176
  724MOL0     C99823  10.033   6.238   5.946 -0.6806 -0.3107  0.3884
  724MOL0     C99824   9.980   6.155   6.053 -0.8018  0.1033  0.1824
  724MOL0     N99825   9.793   5.734   6.581  0.7827 -0.1935  0.3713
  724MOL0     N99826   9.763   5.622   6.638 -0.2480  0.5547  0.0312
  724MOL0     C99827   9.140   5.372   7.330 -0.9878 -0.0502  0.4723
  724MOL0     C99828   8.999   5.360   7.341  0.8019 -0.2865  0.1419
  724MOL0     C99829   8.563   5.263   7.365  0.4222  0.7133 -0.5071
  724MOL0     C99830   8.469   5.240   7.263  0.3710  0.4244  0.1898
  724MOL0     C99831   8.334   5.195   7.293 -0.6051 -0.5305  0.9963
  724MOL0     C99832   8.298   5.177   7.426 -1.1225  0.4500 -0.8841
  724MOL0     O99833   8.167   5.146   7.456  0.1774  0.2915 -0.6811
  724MOL0     C99834   8.126   5.101   7.583  0.5556 -0.3959 -0.1052
  724MOL0     C99835   8.157   4.954   7.602 -0.5061  0.2110 -0.5869
  724MOL0     C99836   8.125   4.901   7.749  0.1705  0.8355 -0.8754
  724MOL0     C99837   7.980   4.913   7.796  0.9774  0.3433 -0.2874
  724MOL0     C99838   7.895   4.810   7.745  0.1976 -0.1360  0.0003
  724MOL0     C99839   7.835   4.716   7.715 -0.5327  0.1854 -0.3399
  724MOL0     C99840   8.388   5.220   7.528 -0.5865  0.0603  0.2857
  724MOL0     C99841   8.515   5.255   7.499 -0.0361 -0.3793  0.8327
  724MOL0     C99842   8.593   5.283   7.621  0.1820 -0.2600  0.2790
  724MOL0     H99843   8.992   5.015   7.344  1.3347  0.0611 -4.8974
  724MOL0     H99844   9.220   5.045   7.348 -0.8596 -0.2248 -1.5653
  724MOL0     H99845   9.442   5.234   7.516  2.5682  1.0068 -0.7330
  724MOL0     H99846   9.360   5.399   7.491 -0.4119 -0.2789  1.7308
  724MOL0     H99847   9.608   5.398   7.509  1.3507 -0.4866 -0.3668
  724MOL0     H99848   9.617   5.270   7.385 -3.2151 -0.9297 -1.6419
  724MOL0     H99849   9.514   5.450   7.226 -1.1266  1.2313  1.2795
  724MOL0     H99850   9.520   5.561   7.343  0.5085 -0.9012  1.4948
  724MOL0     H99851   9.755   5.546   7.384 -0.7684 -0.1071 -0.5475
  724MOL0     H99852   9.785   5.422   7.260 -1.1773 -0.7921  0.8928
  724MOL0     H99853   9.829   5.639   7.171  0.8912  0.7674  4.9980
  724MOL0     H99854   9.688   5.712   7.252  0.9876  0.3359  0.5788
  724MOL0     H99855   9.532   5.619   7.078 -0.1769  1.0624 -0.6568
  724MOL0     H99856   9.649   5.718   7.010 -0.2640  1.0788  3.6686
  724MOL0     H99857   9.662   5.412   7.003 -3.8004 -1.1905 -1.7097
  724MOL0     H99858   9.790   5.516   6.949 -0.5971  1.5234 -0.1113
  724MOL0     H99859   9.635   5.436   6.768  1.2942  0.2365 -0.9789
  724MOL0     H99860   9.512   5.548   6.845 -0.1272 -1.7883 -0.3720
  724MOL0     H99861   9.572   5.823   6.812 -1.1353 -2.1196 -0.2496
  724MOL0     H99862   9.824   6.006   6.741  0.7460 -1.7259 -0.1915
  724MOL0     H99863   9.663   6.023   6.679  0.1518 -0.9580  0.3649
  724MOL0     H99864   9.756   6.002   6.449  0.7142 -1.5977 -0.7627
  724MOL0     H99865   9.806   6.141   6.541  0.7261 -0.5329  2.6180
  724MOL0     H99866  10.025   5.992   6.599  0.0447 -0.0344  0.0665
  724MOL0     H99867   9.978   5.908   6.442  0.5768  1.0787 -1.3766
  724MOL0     H99868  10.026   6.204   6.478 -0.5293 -1.1657  2.1628
  724MOL0     H99869  10.151   6.089   6.427  0.4942  1.8525  0.8373
  724MOL0     H99870  10.196   6.240   6.286  0.9495 -1.2955 -0.2054
  724MOL0     H99871  10.415   6.385   6.133  0.6757  0.2021 -0.0279
  724MOL0     H99872  10.304   6.435   6.246 -0.7844  1.6392 -0.3216
  724MOL0     H99873  10.313   6.515   6.084  1.9271  0.1968  1.1464
  724MOL0     H99874  10.111   6.297   5.482  1.3772  0.0610  2.9254
  724MOL0     H99875  10.195   6.435   5.272  1.0426  1.6103 -0.3173
  724MOL0     H99876  10.321   6.843   5.270 -1.0633 -1.5953  1.1746
  724MOL0     H99877  10.468   6.784   5.339  1.1708  0.3480 -1.2748
  724MOL0     H99878  10.505   6.877   5.113  1.0287 -0.0389  0.2153
  724MOL0     H99879  10.535   6.703   5.104 -1.4376 -1.9850  1.0789
  724MOL0     H99880  10.284   6.679   5.026  0.3744 -0.6850 -1.8481
  724MOL0     H99881  10.387   6.763   4.920 -0.2207 -0.3556  0.3140
  724MOL0     H99882  10.318   6.974   5.049  0.5148 -1.5131  2.1901
  724MOL0     H99883  10.183   6.862   5.099  2.5023 -0.3471  0.8140
  724MOL0     H99884  10.247   6.958   4.814  1.0336 -1.2755 -1.3190
  724MOL0     H99885  10.123   6.835   4.856  1.0294  0.8916 -0.6772
  724MOL0     H99886  10.091   7.109   4.956 -3.0999  0.9742 -0.1805
  724MOL0     H99887   9.996   6.957   4.969  2.2199 -2.4656 -0.8311
  724MOL0     H99888   9.931   6.973   4.730 -0.3022  0.3159 -3.1284
  724MOL0     H99889  10.066   7.071   4.700 -2.3191 -0.7052 -1.6091
  724MOL0     H99890   9.824   7.164   4.706  0.9440 -1.9111 -0.4668
  724MOL0     H99891   9.930   7.265   4.806 -0.8526 -0.1789  2.9881
  724MOL0     H99892  10.329   6.747   5.539  0.1603  0.9433  1.7369
  724MOL0     H99893  10.217   6.639   5.714  0.3468 -2.4875  1.4617
  724MOL0     H99894   9.998   6.233   5.843 -1.1668 -5.0040  0.5344
  724MOL0     H99895   9.887   6.102   6.035 -1.7399  2.1303 -1.4155
  724MOL0     H99896   9.200   5.461   7.318 -0.4134 -0.5723 -0.6281
  724MOL0     H99897   8.948   5.455   7.331 -0.1381 -0.7691  0.2133
  724MOL0     H99898   8.511   5.249   7.163  0.2136  2.2363  0.2652
  724MOL0     H99899   8.269   5.143   7.222 -3.3378  0.1741  2.8482
  724MOL0     H99900   8.151   5.168   7.667 -1.6657 -0.6650  0.8515
  724MOL0     H99901   8.019   5.127   7.585  0.9104  2.5696  5.9794
  724MOL0     H99902   8.264   4.943   7.583 -0.4025  0.0607  0.0733
  724MOL0     H99903   8.097   4.909   7.523 -1.3817  2.4696 -1.2979
  724MOL0     H99904   8.157   4.796   7.752  1.0048  1.0724 -1.0928
  724MOL0     H99905   8.185   4.952   7.825  0.0605 -0.9421  0.4744
  724MOL0     H99906   7.946   5.016   7.786  0.4844  0.8042  4.0478
  724MOL0     H99907   7.978   4.900   7.905 -0.7583  2.6524  0.0334
  724MOL0     H99908   7.783   4.624   7.698  0.8866 -0.2059 -3.0653
  724MOL0     H99909   8.352   5.208   7.630 -0.3054 -1.3140  0.2453
  724MOL0     H99910   8.689   5.333   7.606 -0.0730 -0.4417 -2.6039
  724MOL0     H99911   8.534   5.340   7.693  0.4188 -0.6630  0.8006
  724MOL0     H99912   8.611   5.182   7.660 -2.3392 -1.0500 -0.3881
  725MOL0     O99913   0.685   4.562  10.550  0.1607 -0.2275  0.3528
  725MOL0     C99914   0.672   4.439  10.555  0.3547 -0.8606 -0.1385
  725MOL0     O99915   0.778   4.359  10.561 -1.0723  0.0450 -0.2688
  725MOL0     C99916   0.882   4.392  10.470 -0.7068 -0.3250 -0.3694
  725MOL0     C99917   1.004   4.462  10.500  0.5634  0.2952  0.9964
  725MOL0     C99918   1.100   4.478  10.406 -0.2309 -0.0205 -0.1512
  725MOL0     C99919   1.082   4.424  10.275 -0.3102 -1.4054 -0.5767
  725MOL0     O99920   1.155   4.463  10.163  0.6439 -0.4436 -0.4337
  725MOL0     C99921   1.300   4.474  10.175  0.9320 -0.4252 -0.2887
  725MOL0     C99922   1.351   4.586  10.082  0.0222  0.7335 -0.1834
  725MOL0     C99923   1.496   4.598  10.099 -0.7207 -0.3535 -0.6664
  725MOL0     C99924   1.576   4.482  10.035  0.4159 -0.3253  0.2807
  725MOL0     C99925   1.722   4.531  10.022 -0.3304  0.4313 -0.5312
  725MOL0     C99926   1.792   4.560  10.157 -0.3785 -0.0946  0.0370
  725MOL0     C99927   1.921   4.639  10.143 -0.4214  0.1583  0.0920
  725MOL0     C99928   2.020   4.560  10.060  0.2145  0.2783  0.6114
  725MOL0     N99929   2.148   4.632  10.057  0.3574 -0.4160  0.1958
  725MOL0     C99930   2.277   4.582  10.087  0.6012 -0.0703 -0.2141
  725MOL0     C99931   2.361   4.670  10.025  0.3023  0.1625 -0.3613
  725MOL0     C99932   2.510   4.654  10.034  0.0815 -0.4976  0.0517
  725MOL0     C99933   2.551   4.706  10.174 -0.4699 -0.8103 -0.2752
  725MOL0     C99934   2.704   4.680  10.208  0.0894 -0.0240  0.1991
  725MOL0     C99935   2.742   4.718  10.351 -0.5199 -0.3620 -0.3256
  725MOL0     O99936   2.883   4.731  10.361  0.1477 -0.1449 -0.3682
  725MOL0     C99937   2.940   4.745  10.491  0.6697 -0.6013  0.5747
  725MOL0     C99938   2.861   4.774  10.603  0.2144 -0.4464  0.3474
  725MOL0     C99939   2.912   4.800  10.729  0.1441 -0.6765 -0.3807
  725MOL0     C99940   2.817   4.842  10.832 -0.2741  0.5390  0.5614
  725MOL0     C99941   3.057   4.811  10.742 -0.3753  0.1857 -0.1321
  725MOL0     C99942   3.136   4.836  10.870 -0.3088 -1.5218 -0.3261
  725MOL0     O99943   3.068   4.831  10.987  0.3134  0.2628  0.5611
  725MOL0     C99944   3.134   4.885  11.091  0.0861  0.4423  0.7182
  725MOL0     C99945   3.166   4.806  11.200 -0.4726 -0.2206 -0.5093
  725MOL0     C99946   3.249   4.851  11.304  1.3956  0.5712  0.0717
  725MOL0     C99947   3.286   4.987  11.311 -0.5888 -0.5632  0.0789
  725MOL0     O99948   3.345   5.046  11.418  0.2937 -0.2511 -0.0428
  725MOL0     C99949   3.404   4.961  11.511  0.7029  0.6138 -0.0668
  725MOL0     C99950   3.475   5.045  11.624 -0.6639  0.4154  0.1057
  725MOL0     C99951   3.600   5.115  11.579 -0.3106 -0.5245 -0.1377
  725MOL0     C99952   3.659   5.208  11.691  0.4604 -0.3817 -0.1457
  725MOL0     C99953   3.785   5.279  11.658 -0.9649 -0.2121  0.0331
  725MOL0     C99954   3.824   5.362  11.775 -0.3538  0.5180 -0.1286
  725MOL0     C99955   3.933   5.466  11.742  0.8011 -0.7755 -0.0763
  725MOL0     C99956   3.904   5.548  11.623 -0.6619 -0.1843 -0.3464
  725MOL0    Cl99957   3.763   5.654  11.641 -0.1516 -0.3968 -0.1753
  725MOL0     C99958   3.243   5.067  11.200 -0.2941 -0.2195  0.3296
  725MOL0     C99959   3.162   5.017  11.094 -0.3765  0.7365  0.4947
  725MOL0     O99960   3.259   4.846  10.861 -0.4563 -0.1718 -0.1001
  725MOL0     C99961   3.135   4.788  10.624 -0.6033 -1.3101 -0.7494
  725MOL0     C99962   3.081   4.740  10.509  0.0778  1.0919  0.2131
  725MOL0     N99963   2.288   4.776   9.978  0.3008  0.3402 -0.4385
  725MOL0     N99964   2.161   4.753  10.003 -0.7323 -0.3135  0.2478
  725MOL0     C99965   0.957   4.377  10.237 -0.5850  0.4704  0.5385
  725MOL0     C99966   0.864   4.354  10.342 -0.2117 -0.2151 -0.7828
  725MOL0     C99967   0.547   4.377  10.596 -0.3929 -0.3619 -0.0551
  725MOL0     C99968   0.530   4.246  10.569 -0.4399 -0.2466  0.2181
  725MOL0     C99969   0.408   4.186  10.604  0.4234 -0.8456 -0.1983
  725MOL0     C99970   0.302   4.259  10.658  0.6573  0.1897  0.2588
  725MOL0     O99971   0.181   4.192  10.680 -0.1900  1.1093 -0.2796
  725MOL0     C99972   0.073   4.262  10.743 -0.1890  0.1196 -0.2600
  725MOL0     C99973  -0.054   4.176  10.750 -0.0795 -0.3038  0.5174
  725MOL0     C99974  -0.148   4.254  10.838  0.6702 -0.2305  0.0374
  725MOL0     C99975  -0.281   4.186  10.865 -0.2737  0.2335  0.2070
  725MOL0     C99976  -0.380   4.235  10.766 -0.7555  0.7327  0.5680
  725MOL0     C99977  -0.454   4.279  10.682  0.0372 -0.0866  0.1606
  725MOL0     C99978   0.326   4.387  10.686  0.5263  0.0034  0.5481
  725MOL0     C99979   0.447   4.445  10.660 -0.3811 -0.3557 -0.1377
  725MOL0     C99980   0.465   4.583  10.724 -0.0016  0.3434  0.2565
  725MOL0     H99981   1.031   4.501  10.598  0.4824  2.7763  0.1062
  725MOL0     H99982   1.192   4.534  10.419 -0.6933  0.4134  1.5007
  725MOL0     H99983   1.351   4.387  10.131  1.4141  0.1799 -0.9375
  725MOL0     H99984   1.336   4.483  10.278 -0.2708 -3.5968  0.5354
  725MOL0     H99985   1.334   4.568   9.975  1.3800  1.7338 -0.5927
  725MOL0     H99986   1.294   4.674  10.112 -4.4513 -2.7763  3.1896
  725MOL0     H99987   1.534   4.693  10.061 -1.9576  0.8983  1.0752
  725MOL0     H99988   1.514   4.598  10.206  0.0580  2.7558 -0.7232
  725MOL0     H99989   1.582   4.388  10.091 -0.4253 -1.7603 -1.9090
  725MOL0     H99990   1.531   4.457   9.939 -0.4763  1.2684  0.2381
  725MOL0     H99991   1.740   4.627   9.972  1.0229  2.6188  3.7330
  725MOL0     H99992   1.777   4.456   9.964  1.2563 -2.2408  3.9480
  725MOL0     H99993   1.728   4.618  10.224 -0.2000 -0.5745  0.6252
  725MOL0     H99994   1.799   4.464  10.208 -1.1260 -0.8481 -1.2169
  725MOL0     H99995   1.955   4.654  10.246 -0.5908 -0.2036  0.2035
  725MOL0     H99996   1.890   4.734  10.101  1.3104  0.1726 -1.2360
  725MOL0     H99997   2.014   4.462  10.109 -0.9685 -0.4142 -0.8354
  725MOL0     H99998   1.981   4.557   9.958 -1.3690  0.2244  1.1882
  725MOL0     H99999   2.293   4.487  10.137 -2.2924 -3.1709 -4.4086
  725MOL0     H    0   2.565   4.709   9.958  0.8654  1.1482  1.7217
  725MOL0     H    1   2.549   4.552  10.021  1.5040  0.1598 -1.0683
  725MOL0     H    2   2.538   4.814  10.175  2.6009 -0.3197 -1.6451
  725MOL0     H    3   2.494   4.657  10.254  0.9732 -2.5014 -0.1940
  725MOL0     H    4   2.716   4.572  10.199  0.6271  0.0859 -0.5058
  725MOL0     H    5   2.766   4.726  10.130 -1.6078 -1.9359 -2.4751
  725MOL0     H    6   2.702   4.820  10.359 -1.6453 -0.8582  0.5845
  725MOL0     H    7   2.701   4.648  10.424 -0.6075 -1.6000 -1.5131
  725MOL0     H    8   2.753   4.774  10.597 -0.0283  1.7834  2.6961
  725MOL0     H    9   2.727   4.782  10.838 -1.5898  2.3255 -0.3009
  725MOL0     H   10   2.791   4.941  10.792 -0.8168 -0.6629 -2.2808
  725MOL0     H   11   2.858   4.836  10.934  1.9183 -2.0597 -0.3727
  725MOL0     H   12   3.148   4.699  11.201  2.9117 -0.9003 -0.7539
  725MOL0     H   13   3.281   4.773  11.372  0.1813  1.0945  1.2980
  725MOL0     H   14   3.326   4.894  11.549 -1.9594  1.5373 -3.3783
  725MOL0     H   15   3.469   4.887  11.463 -2.6075 -1.7942 -1.2286
  725MOL0     H   16   3.403   5.111  11.673 -1.2676  0.4359 -0.7764
  725MOL0     H   17   3.508   4.981  11.706 -0.1470  1.5920  0.8451
  725MOL0     H   18   3.593   5.173  11.486  2.6223  2.1732  1.1419
  725MOL0     H   19   3.676   5.039  11.556 -0.2837 -0.8555  0.9854
  725MOL0     H   20   3.676   5.150  11.782  2.8177  1.3035  0.5686
  725MOL0     H   21   3.586   5.287  11.714 -1.0852 -1.5723 -0.7926
  725MOL0     H   22   3.860   5.201  11.642 -0.3612  0.2309  0.6673
  725MOL0     H   23   3.762   5.338  11.569  1.7511 -0.1417 -0.7187
  725MOL0     H   24   3.849   5.302  11.863  1.5498 -1.3063 -1.8140
  725MOL0     H   25   3.739   5.425  11.805  0.7746  1.1141  2.1208
  725MOL0     H   26   4.029   5.416  11.724  1.2516 -0.1891  0.6150
  725MOL0     H   27   3.941   5.530  11.830  0.3104  0.7137 -1.0835
  725MOL0     H   28   3.894   5.481  11.537 -2.5360 -3.5443  2.2274
  725MOL0     H   29   3.996   5.605  11.606  0.0303 -1.6319 -1.7743
  725MOL0     H   30   3.255   5.174  11.214  0.7824 -0.6678  3.9914
  725MOL0     H   31   3.124   5.077  11.012  1.7721  1.4195 -0.0697
  725MOL0     H   32   3.241   4.798  10.642 -1.0241  2.3525  0.4891
  725MOL0     H   33   3.139   4.708  10.423 -0.6324  3.0960 -1.0708
  725MOL0     H   34   0.928   4.347  10.137 -0.3755  0.1351  0.5755
  725MOL0     H   35   0.783   4.287  10.316  0.3799 -1.0482 -0.5136
  725MOL0     H   36   0.604   4.193  10.510  1.9434  1.2596  1.6642
  725MOL0     H   37   0.368   4.088  10.578  0.1271 -1.1346  1.2182
  725MOL0     H   38   0.109   4.299  10.840  0.2442  1.5129 -0.9285
  725MOL0     H   39   0.044   4.346  10.680  0.7169  0.9732  0.4172
  725MOL0     H   40  -0.038   4.080  10.800 -3.4078 -0.5609  1.3462
  725MOL0     H   41  -0.094   4.158  10.650  0.0436 -0.2385  0.4573
  725MOL0     H   42  -0.103   4.267  10.938  1.0182 -1.0954  0.0058
  725MOL0     H   43  -0.164   4.349  10.786 -1.9588 -0.7489 -0.2179
  725MOL0     H   44  -0.329   4.210  10.961 -3.9886 -1.6401 -0.9659
  725MOL0     H   45  -0.274   4.077  10.870 -0.8569  0.2208  1.2173
  725MOL0     H   46  -0.516   4.329  10.610  2.5182  3.6935  0.3557
  725MOL0     H   47   0.255   4.442  10.746  0.2383 -1.2277  1.3639
  725MOL0     H   48   0.459   4.657  10.643 -1.9479 -2.0865 -1.9947
  725MOL0     H   49   0.381   4.608  10.789  0.5928 -0.0914  1.2134
  725MOL0     H   50   0.556   4.603  10.782 -1.5214  2.6327  2.0116
  726MOL0     O   51   0.396  10.987   6.280  0.0939  0.7876 -0.0731
  726MOL0     C   52   0.446  10.892   6.337 -0.2824 -0.1122 -0.0284
  726MOL0     O   53   0.384  10.778   6.372  0.8511 -0.1467 -0.0870
  726MOL0     C   54   0.253  10.769   6.406 -0.2459 -0.4782 -0.9472
  726MOL0     C   55   0.183  10.648   6.384 -0.1197  0.3171 -0.3901
  726MOL0     C   56   0.036  10.639   6.406  0.0327  0.4157  0.3443
  726MOL0     C   57  -0.027  10.757   6.461  0.4925  0.0055  0.3306
  726MOL0     O   58  -0.152  10.746   6.504  1.1780 -0.0860  0.4443
  726MOL0     C   59  -0.251  10.687   6.416 -0.3553  0.6695 -0.4020
  726MOL0     C   60  -0.250  10.762   6.279  0.0063 -0.7622  0.0613
  726MOL0     C   61  -0.324  10.689   6.169 -0.0020  0.3347  0.2684
  726MOL0     C   62  -0.477  10.698   6.191  0.5294  0.0371 -0.5998
  726MOL0     C   63  -0.557  10.808   6.118  0.3527  0.1018 -0.6693
  726MOL0     C   64  -0.707  10.787   6.154 -0.0968  0.3398 -0.1773
  726MOL0     C   65  -0.795  10.896   6.109  0.3107 -0.3280 -0.0091
  726MOL0     C   66  -0.947  10.893   6.138 -0.1961  0.3329 -0.5949
  726MOL0     N   67  -1.020  10.815   6.042 -0.5761  0.7541 -0.7684
  726MOL0     C   68  -1.065  10.688   6.073  0.1042 -0.4848 -0.1142
  726MOL0     C   69  -1.117  10.642   5.954  0.7310 -0.3593 -0.6281
  726MOL0     C   70  -1.171  10.510   5.929 -0.0058 -0.1853 -0.3142
  726MOL0     C   71  -1.328  10.496   5.930  0.5782  0.0649  0.6648
  726MOL0     C   72  -1.377  10.357   5.898 -0.3544  0.7145  1.0488
  726MOL0     C   73  -1.369  10.266   6.021  0.2023 -0.4100 -0.9341
  726MOL0     O   74  -1.471  10.170   6.004 -0.0896 -1.0314 -0.2576
  726MOL0     C   75  -1.448  10.049   6.064  0.3593  0.3802  0.4581
  726MOL0     C   76  -1.341  10.011   6.153 -0.1672 -0.0245  0.7924
  726MOL0     C   77  -1.325   9.888   6.207  0.0863  0.0539  0.1462
  726MOL0     C   78  -1.204   9.861   6.291  0.0482  0.1143 -0.2812
  726MOL0     C   79  -1.425   9.794   6.178 -0.9315 -0.3258 -0.2899
  726MOL0     C   80  -1.428   9.656   6.234 -0.7411  0.1927  0.6038
  726MOL0     O   81  -1.359   9.622   6.349 -0.0328 -0.6851  0.1489
  726MOL0     C   82  -1.368   9.491   6.390  0.1316  0.3272  0.1577
  726MOL0     C   83  -1.344   9.376   6.308  0.2083 -0.0248  0.7219
  726MOL0     C   84  -1.339   9.251   6.366 -0.6936 -0.2887  0.3916
  726MOL0     C   85  -1.377   9.225   6.504 -0.1391  0.7036  0.0398
  726MOL0     O   86  -1.395   9.099   6.566 -0.1097 -0.4069 -0.5034
  726MOL0     C   87  -1.323   8.988   6.520 -0.0915  0.5186 -0.4238
  726MOL0     C   88  -1.423   8.896   6.449 -0.6560 -0.0708  0.3315
  726MOL0     C   89  -1.354   8.778   6.378 -0.2275  0.3194  0.4824
  726MOL0     C   90  -1.461   8.683   6.311 -0.6487 -0.1270 -0.2629
  726MOL0     C   91  -1.399   8.554   6.250 -0.4861 -0.5114  0.7142
  726MOL0     C   92  -1.374   8.443   6.356  0.1831  0.1790  0.3086
  726MOL0     C   93  -1.278   8.337   6.294  0.2892 -0.4392 -0.2358
  726MOL0     C   94  -1.207   8.236   6.393 -0.0273  0.1859 -0.8803
  726MOL0    Cl   95  -1.289   8.073   6.403 -0.9327 -0.4741 -0.0893
  726MOL0     C   96  -1.415   9.343   6.579 -0.6800  0.7318  0.0910
  726MOL0     C   97  -1.406   9.465   6.519 -0.2613 -0.5754  0.7903
  726MOL0     O   98  -1.486   9.576   6.161 -0.0601  0.3449  0.4040
  726MOL0     C   99  -1.532   9.830   6.097  0.1591  0.4293  0.1565
  726MOL0     C  100  -1.545   9.949   6.034  0.6316 -0.0696 -0.1083
  726MOL0     N  101  -1.096  10.738   5.859  0.0063 -0.4674  0.3870
  726MOL0     N  102  -1.045  10.840   5.913 -0.0817 -0.1862  0.2435
  726MOL0     C  103   0.056  10.863   6.497  0.6479  0.4561  0.1428
  726MOL0     C  104   0.188  10.865   6.465  1.0416 -0.0490 -0.8719
  726MOL0     C  105   0.592  10.903   6.341  0.2999  0.4927  0.2903
  726MOL0     C  106   0.666  10.779   6.336  0.5857  0.2542 -0.0964
  726MOL0     C  107   0.802  10.778   6.340 -0.2738 -0.2404  0.1719
  726MOL0     C  108   0.873  10.893   6.340  0.0569  0.2323 -0.4954
  726MOL0     O  109   1.009  10.878   6.354  0.3287 -0.0235  0.6585
  726MOL0     C  110   1.081  10.984   6.414  0.1005 -0.9115  0.7811
  726MOL0     C  111   1.209  10.936   6.471  0.8711  0.2336  0.1688
  726MOL0     C  112   1.171  10.853   6.592  0.8722 -0.7429  0.4549
  726MOL0     C  113   1.129  10.933   6.719  0.4244 -0.1392  0.7833
  726MOL0     C  114   1.225  11.029   6.772 -0.3453 -0.3679  0.2247
  726MOL0     C  115   1.324  11.085   6.803  0.0313 -0.2773 -0.6606
  726MOL0     C  116   0.809  11.018   6.353 -0.5001 -0.2850 -0.1424
  726MOL0     C  117   0.672  11.022   6.353  0.9418 -0.6852  1.4115
  726MOL0     C  118   0.616  11.163   6.367  0.5883  0.9702 -0.1326
  726MOL0     H  119   0.224  10.569   6.322  0.1534 -1.3952  1.8460
  726MOL0     H  120  -0.009  10.544   6.378  0.6121  0.2044  0.1084
  726MOL0     H  121  -0.346  10.700   6.469 -0.4984  3.7583 -1.2326
  726MOL0     H  122  -0.236  10.579   6.404  2.6988  0.9647 -0.1315
  726MOL0     H  123  -0.296  10.858   6.304 -1.2154 -1.2316 -0.3216
  726MOL0     H  124  -0.151  10.784   6.240  0.3197 -1.3376  0.5071
  726MOL0     H  125  -0.287  10.733   6.076  3.1713 -1.4999  0.5239
  726MOL0     H  126  -0.291  10.585   6.165 -1.9291 -0.3122  0.0072
  726MOL0     H  127  -0.519  10.604   6.156 -3.0090  1.2736 -0.0185
  726MOL0     H  128  -0.495  10.707   6.299  0.5891  0.5232 -0.6297
  726MOL0     H  129  -0.543  10.804   6.009  3.5046  0.7258 -0.3863
  726MOL0     H  130  -0.519  10.908   6.143 -0.6908  0.2911  0.2128
  726MOL0     H  131  -0.742  10.690   6.120 -1.9481  0.5200  1.0905
  726MOL0     H  132  -0.699  10.779   6.263 -2.1758  1.0403  0.0581
  726MOL0     H  133  -0.771  10.917   6.004 -0.0291  2.8590  0.4514
  726MOL0     H  134  -0.762  10.993   6.147 -0.9451  0.3190 -0.5173
  726MOL0     H  135  -0.963  10.857   6.240  0.7271  0.5985 -0.3434
  726MOL0     H  136  -0.980  10.997   6.124  1.2294  1.0693  1.1473
  726MOL0     H  137  -1.053  10.631   6.165 -0.3955 -0.8257 -0.2596
  726MOL0     H  138  -1.136  10.452   6.015 -0.3576  1.4105  0.9599
  726MOL0     H  139  -1.127  10.463   5.841 -0.0488 -0.7975 -0.0130
  726MOL0     H  140  -1.381  10.534   6.018 -1.9782 -2.1977  0.2263
  726MOL0     H  141  -1.370  10.558   5.850 -0.2538 -1.5218 -0.1714
  726MOL0     H  142  -1.482  10.373   5.875 -0.6086 -0.4812  1.2742
  726MOL0     H  143  -1.325  10.313   5.812  0.2188 -2.2202  2.7574
  726MOL0     H  144  -1.269  10.222   6.033  0.4903  0.6130  0.7454
  726MOL0     H  145  -1.380  10.337   6.103  0.4671  1.2157 -2.2634
  726MOL0     H  146  -1.259  10.080   6.173 -1.0931  1.7266 -1.0459
  726MOL0     H  147  -1.126   9.858   6.215 -0.5562  1.5045 -0.9967
  726MOL0     H  148  -1.201   9.776   6.359 -1.6642 -2.1685 -2.8293
  726MOL0     H  149  -1.187   9.948   6.356  3.4240  1.2535 -2.4501
  726MOL0     H  150  -1.311   9.397   6.207  0.5998 -1.7843  0.4411
  726MOL0     H  151  -1.322   9.165   6.303  0.0318  0.0249  0.1493
  726MOL0     H  152  -1.227   9.013   6.474  1.6578 -1.1294  2.0873
  726MOL0     H  153  -1.298   8.933   6.611  3.3974  3.5739  0.7396
  726MOL0     H  154  -1.488   8.853   6.526 -1.7632  0.7398 -0.1322
  726MOL0     H  155  -1.480   8.946   6.370  2.4126 -0.4942 -2.3620
  726MOL0     H  156  -1.286   8.720   6.440 -2.0563 -2.3877  0.1379
  726MOL0     H  157  -1.281   8.808   6.302  2.1630  1.1494  2.9307
  726MOL0     H  158  -1.520   8.731   6.233 -1.0591 -0.1864  0.0084
  726MOL0     H  159  -1.528   8.654   6.391 -1.0367 -2.7852 -1.4563
  726MOL0     H  160  -1.465   8.509   6.175 -0.0983 -4.1756  2.3277
  726MOL0     H  161  -1.307   8.578   6.195 -0.9221 -1.3440 -0.4282
  726MOL0     H  162  -1.468   8.390   6.376  0.4593 -0.0227  1.0919
  726MOL0     H  163  -1.327   8.475   6.449  3.6350 -3.0219 -0.1364
  726MOL0     H  164  -1.195   8.386   6.241 -0.0176 -0.1489 -0.4557
  726MOL0     H  165  -1.327   8.281   6.214 -1.8887 -3.0850  2.7255
  726MOL0     H  166  -1.215   8.286   6.490 -0.3683  1.8898 -1.7478
  726MOL0     H  167  -1.100   8.222   6.374  0.3909 -1.6387  2.0861
  726MOL0     H  168  -1.456   9.333   6.679  0.2552  1.1668  0.5330
  726MOL0     H  169  -1.443   9.537   6.591  0.3995 -0.6799  1.2393
  726MOL0     H  170  -1.614   9.763   6.072 -0.4082  2.6692 -5.3832
  726MOL0     H  171  -1.639   9.973   5.987 -1.6940  0.0789  4.1495
  726MOL0     H  172   0.018  10.949   6.551  0.8315  1.3576 -1.1102
  726MOL0     H  173   0.226  10.962   6.495 -4.2008  2.4126 -0.9982
  726MOL0     H  174   0.613  10.685   6.320  1.0437  0.3547 -2.5333
  726MOL0     H  175   0.854  10.682   6.336 -1.7851 -1.0872  0.0094
  726MOL0     H  176   1.101  11.070   6.350 -1.0732  0.8966  2.7067
  726MOL0     H  177   1.018  11.029   6.490  0.0019  1.0065 -0.3753
  726MOL0     H  178   1.286  11.009   6.497  2.9552 -1.4800 -0.8532
  726MOL0     H  179   1.257  10.871   6.397  1.5841  1.4336 -0.4531
  726MOL0     H  180   1.088  10.785   6.568 -0.1121  0.7329 -0.4518
  726MOL0     H  181   1.252  10.785   6.622  2.3585  0.4386 -0.7266
  726MOL0     H  182   1.111  10.872   6.808  0.1134  0.6741  1.2871
  726MOL0     H  183   1.035  10.986   6.699  0.9718  0.5599  0.0419
  726MOL0     H  184   1.420  11.128   6.820  2.0451 -3.2321 -3.4772
  726MOL0     H  185   0.865  11.111   6.360 -0.1324 -0.4666 -0.6206
  726MOL0     H  186   0.700  11.224   6.402  1.1176 -0.8182  1.9083
  726MOL0     H  187   0.570  11.198   6.274 -1.6443 -0.3351  0.4177
  726MOL0     H  188   0.543  11.160   6.447  0.5055  0.3508 -0.2262
  727MOL0     O  189   7.034   9.560   0.651  0.5082 -0.3437  0.0751
  727MOL0     C  190   7.126   9.552   0.733 -0.4166  0.2366  0.6916
  727MOL0     O  191   7.117   9.585   0.863  0.3698 -0.1330  0.4789
  727MOL0     C  192   6.995   9.606   0.920  0.3109 -0.0618 -0.2595
  727MOL0     C  193   6.991   9.680   1.036 -0.3225 -0.3941  0.6535
  727MOL0     C  194   6.875   9.692   1.113  0.2666 -0.9295  0.1471
  727MOL0     C  195   6.760   9.620   1.083 -1.3330 -1.0357 -1.4290
  727MOL0     O  196   6.659   9.639   1.172  0.3496  0.8092  0.0905
  727MOL0     C  197   6.537   9.574   1.140  0.2852 -0.2451  0.2166
  727MOL0     C  198   6.422   9.625   1.228 -0.7695 -0.2301  0.1919
  727MOL0     C  199   6.298   9.544   1.194 -0.1818 -1.0047 -0.2818
  727MOL0     C  200   6.175   9.620   1.251  0.1263 -1.0817 -0.8990
  727MOL0     C  201   6.051   9.534   1.243 -0.4771 -0.0200  0.4245
  727MOL0     C  202   5.922   9.610   1.238 -0.3222  0.1170  0.3492
  727MOL0     C  203   5.808   9.508   1.248  0.3504 -0.1852  0.3094
  727MOL0     C  204   5.683   9.600   1.261 -0.1626 -0.1447  0.1017
  727MOL0     N  205   5.667   9.699   1.153 -0.2826 -0.2961 -0.9698
  727MOL0     C  206   5.627   9.669   1.019 -1.1199  0.5384 -0.0338
  727MOL0     C  207   5.610   9.787   0.958 -0.4766  0.0555  0.7055
  727MOL0     C  208   5.591   9.811   0.813  0.2938  1.2678  0.1229
  727MOL0     C  209   5.441   9.792   0.777 -0.1110  0.3702 -0.0283
  727MOL0     C  210   5.409   9.838   0.632 -0.3687 -0.1466 -0.1408
  727MOL0     C  211   5.270   9.795   0.590  0.0858  0.6546  0.5232
  727MOL0     O  212   5.166   9.891   0.624 -0.5141  0.1997  0.3387
  727MOL0     C  213   5.049   9.883   0.551  0.1749 -0.0358 -0.9403
  727MOL0     C  214   5.026   9.794   0.457 -0.0683  0.2477  0.4107
  727MOL0     C  215   4.910   9.800   0.379 -0.3533 -0.5228  0.4772
  727MOL0     C  216   4.892   9.698   0.274  0.0587  1.3629 -0.6288
  727MOL0     C  217   4.816   9.909   0.384  0.0207 -1.0164  0.6179
  727MOL0     C  218   4.689   9.914   0.313 -0.0469  0.3927  0.5245
  727MOL0     O  219   4.586   9.980   0.380  0.0962  0.2490  0.7321
  727MOL0     C  220   4.471  10.007   0.317  0.6327 -0.8419  0.7967
  727MOL0     C  221   4.362   9.978   0.394  0.0042 -0.2182 -0.7508
  727MOL0     C  222   4.234  10.015   0.351 -0.5862  0.5728 -0.6113
  727MOL0     C  223   4.222  10.069   0.231  0.3129 -0.2370  0.5690
  727MOL0     O  224   4.112  10.123   0.172 -0.4804  0.2467  0.2684
  727MOL0     C  225   3.989  10.109   0.234  0.1012  0.3807 -0.4511
  727MOL0     C  226   3.950  10.206   0.351  0.1026  0.1926 -0.4166
  727MOL0     C  227   3.965  10.349   0.307  0.4806  0.1946  0.3435
  727MOL0     C  228   4.115  10.394   0.278  0.1096 -0.7173 -0.0060
  727MOL0     C  229   4.126  10.547   0.292 -0.0693  0.6629 -1.4210
  727MOL0     C  230   4.263  10.593   0.252  0.6212 -0.2708 -0.6898
  727MOL0     C  231   4.322  10.728   0.315  0.1633  0.5808 -0.5893
  727MOL0     C  232   4.441  10.790   0.241 -1.0811  0.0379  0.0588
  727MOL0    Cl  233   4.576  10.681   0.239 -0.4195 -0.2728  0.3106
  727MOL0     C  234   4.328  10.077   0.139  0.6362  0.4874 -0.0318
  727MOL0     C  235   4.456  10.058   0.186  0.8159  0.5332 -0.1868
  727MOL0     O  236   4.681   9.862   0.198 -0.4672 -0.4251 -0.6382
  727MOL0     C  237   4.849  10.000   0.485 -0.7872 -0.1357 -0.2093
  727MOL0     C  238   4.957   9.988   0.562 -1.3529  0.1780  0.3347
  727MOL0     N  239   5.626   9.890   1.048  0.4826  0.4664  0.1393
  727MOL0     N  240   5.663   9.841   1.161 -0.3471  1.3382 -0.0096
  727MOL0     C  241   6.779   9.520   0.986 -0.3415  0.0553 -0.6320
  727MOL0     C  242   6.883   9.523   0.898 -0.6077 -0.0616  0.6828
  727MOL0     C  243   7.253   9.502   0.688 -0.2174 -0.5986 -0.1887
  727MOL0     C  244   7.253   9.368   0.661 -0.1813  0.2198 -0.2781
  727MOL0     C  245   7.379   9.322   0.608 -0.3848 -0.5921  0.5104
  727MOL0     C  246   7.490   9.405   0.574 -0.7121  0.2706  0.5560
  727MOL0     O  247   7.597   9.350   0.504  0.4794  0.3096 -0.3615
  727MOL0     C  248   7.714   9.432   0.486  0.3297  0.2673  0.1455
  727MOL0     C  249   7.828   9.349   0.420  0.0132 -0.6463  0.2730
  727MOL0     C  250   7.820   9.366   0.255 -0.2998  0.1946 -0.7841
  727MOL0     C  251   7.960   9.332   0.202  0.2435 -0.1223  0.1590
  727MOL0     C  252   7.973   9.188   0.182  0.6015 -0.2828 -0.6230
  727MOL0     C  253   8.000   9.074   0.145 -0.2928  0.1091 -0.0239
  727MOL0     C  254   7.483   9.547   0.593  0.6934  0.3071  0.0110
  727MOL0     C  255   7.364   9.590   0.661  0.3321  0.4380 -0.4155
  727MOL0     C  256   7.358   9.734   0.697 -0.2661  0.7265  0.1801
  727MOL0     H  257   7.078   9.736   1.067  0.0593 -1.2015  1.0778
  727MOL0     H  258   6.855   9.756   1.199  0.6673 -0.3356 -0.1940
  727MOL0     H  259   6.537   9.465   1.148  0.9925 -0.4309 -1.8461
  727MOL0     H  260   6.496   9.599   1.042  0.0002  1.1942  0.6808
  727MOL0     H  261   6.452   9.617   1.333 -2.3043 -0.3691  0.6391
  727MOL0     H  262   6.393   9.727   1.203  0.0441 -0.1017 -0.2688
  727MOL0     H  263   6.283   9.541   1.086 -2.1547  3.6222 -0.3835
  727MOL0     H  264   6.306   9.444   1.237 -0.5091 -0.0415  2.2290
  727MOL0     H  265   6.180   9.656   1.354  1.0081  1.2037 -1.6870
  727MOL0     H  266   6.156   9.708   1.189 -1.1449 -1.6467 -1.3602
  727MOL0     H  267   6.044   9.477   1.336 -4.8870 -2.2718 -0.9902
  727MOL0     H  268   6.056   9.469   1.155 -1.9968  1.9412 -1.2165
  727MOL0     H  269   5.926   9.670   1.329 -1.8645 -0.6303  0.9524
  727MOL0     H  270   5.927   9.669   1.147  1.0659  0.1292  0.4063
  727MOL0     H  271   5.832   9.440   1.330  1.1262  1.4366  1.4994
  727MOL0     H  272   5.794   9.465   1.149  1.2787 -1.5580  0.7411
  727MOL0     H  273   5.603   9.526   1.251 -1.2601  0.9615  0.5380
  727MOL0     H  274   5.682   9.654   1.355 -1.1518  0.8169 -0.4428
  727MOL0     H  275   5.630   9.567   0.983  0.4146 -0.3455  2.3965
  727MOL0     H  276   5.654   9.735   0.766  1.4910  1.2316  1.6931
  727MOL0     H  277   5.620   9.913   0.790  2.8017  0.6416  0.2473
  727MOL0     H  278   5.417   9.687   0.792 -0.2335  0.3650 -0.2677
  727MOL0     H  279   5.378   9.850   0.846  0.0675  0.0054  0.4523
  727MOL0     H  280   5.417   9.946   0.619 -0.7967 -0.1813 -0.7118
  727MOL0     H  281   5.482   9.791   0.566 -1.3685  3.1093 -3.9978
  727MOL0     H  282   5.272   9.796   0.481  3.8541  0.5376  0.4695
  727MOL0     H  283   5.249   9.691   0.617 -3.0688  0.7418 -1.0512
  727MOL0     H  284   5.087   9.704   0.462  0.9004  0.9295  1.1582
  727MOL0     H  285   4.948   9.604   0.276 -2.0104  0.0694 -0.9699
  727MOL0     H  286   4.907   9.753   0.181 -2.4745  1.8629 -0.7968
  727MOL0     H  287   4.788   9.665   0.277  0.0936  1.3054  1.0998
  727MOL0     H  288   4.370   9.932   0.492 -1.4490 -1.1269 -1.0276
  727MOL0     H  289   4.154  10.012   0.424  0.5944  1.6169  0.8005
  727MOL0     H  290   3.930  10.124   0.143 -1.3110  0.9993  0.5450
  727MOL0     H  291   3.984  10.007   0.273 -2.4547  0.9814  0.9678
  727MOL0     H  292   3.845  10.186   0.373  0.0685  1.3035  0.5267
  727MOL0     H  293   4.012  10.189   0.440  0.1711  2.4321  0.0082
  727MOL0     H  294   3.929  10.404   0.395 -0.3643  0.2795 -0.0416
  727MOL0     H  295   3.904  10.377   0.221  0.5828  1.4764  0.6752
  727MOL0     H  296   4.140  10.355   0.179  0.3117 -3.0213  0.8894
  727MOL0     H  297   4.184  10.343   0.347 -0.2078 -1.2816 -0.1011
  727MOL0     H  298   4.041  10.600   0.247 -3.3448 -1.4968  1.6366
  727MOL0     H  299   4.108  10.560   0.399 -0.8811 -1.5405 -1.2290
  727MOL0     H  300   4.264  10.602   0.143 -0.5497 -1.7530 -0.8570
  727MOL0     H  301   4.330  10.514   0.286 -1.0324 -0.8736  1.3968
  727MOL0     H  302   4.356  10.718   0.419 -2.8679  2.3676  0.7014
  727MOL0     H  303   4.242  10.802   0.326  0.3812  0.6171  1.1904
  727MOL0     H  304   4.473  10.882   0.291 -1.6795 -0.0042  0.5337
  727MOL0     H  305   4.411  10.818   0.140  1.4758 -0.1005 -0.8226
  727MOL0     H  306   4.319  10.103   0.034  2.4676 -0.9508 -0.5950
  727MOL0     H  307   4.536  10.064   0.113 -0.1656  2.3807 -1.1690
  727MOL0     H  308   4.792  10.088   0.511  0.1160  0.4245 -0.1013
  727MOL0     H  309   4.990  10.069   0.626  0.7901  1.9214 -2.7098
  727MOL0     H  310   6.707   9.439   0.972  3.7836 -4.1734  0.1369
  727MOL0     H  311   6.891   9.446   0.823  0.0223  0.5087  0.1488
  727MOL0     H  312   7.166   9.307   0.684 -0.7947  1.7040  1.5268
  727MOL0     H  313   7.389   9.220   0.575  0.5743 -1.3503  2.9286
  727MOL0     H  314   7.700   9.522   0.426 -0.2136  0.2596  0.2523
  727MOL0     H  315   7.745   9.471   0.583 -0.9134 -1.5319  1.3223
  727MOL0     H  316   7.823   9.244   0.451  0.2141 -0.3444  1.3829
  727MOL0     H  317   7.924   9.384   0.459 -0.6295  0.2001  1.1458
  727MOL0     H  318   7.743   9.312   0.199  0.7765  0.1781 -2.3113
  727MOL0     H  319   7.806   9.471   0.227  1.5581  0.0538 -2.4034
  727MOL0     H  320   8.048   9.374   0.251 -0.7739  0.6008  1.4399
  727MOL0     H  321   7.960   9.378   0.103 -0.1239 -0.5401 -0.0379
  727MOL0     H  322   8.000   8.968   0.135  1.4015 -0.1012  1.7101
  727MOL0     H  323   7.555   9.619   0.556  1.1344 -0.4746 -0.6928
  727MOL0     H  324   7.432   9.800   0.650  2.2124 -1.4874  0.7326
  727MOL0     H  325   7.258   9.775   0.682 -0.2404  0.2427 -1.4674
  727MOL0     H  326   7.380   9.736   0.805 -0.7402  0.5565  0.2792
  728MOL0     O  327   0.811   3.778   8.881  0.1401 -0.0813 -0.1147
  728MOL0     C  328   0.810   3.839   8.774  0.8776 -0.1679  0.0792
  728MOL0     O  329   0.917   3.867   8.702  0.0996  0.6648 -0.9540
  728MOL0     C  330   1.008   3.764   8.686  0.0601  0.1124  0.4843
  728MOL0     C  331   1.106   3.734   8.776 -0.1252 -0.0177 -0.0938
  728MOL0     C  332   1.205   3.636   8.753 -0.0592  0.2091  0.0932
  728MOL0     C  333   1.196   3.566   8.637 -1.3755  0.3930  1.0877
  728MOL0     O  334   1.285   3.466   8.607 -0.8191 -0.4103  0.4694
  728MOL0     C  335   1.408   3.438   8.682  0.1793  0.0644  0.2604
  728MOL0     C  336   1.487   3.332   8.607  0.3580 -0.1076 -0.1097
  728MOL0     C  337   1.634   3.327   8.664  0.5912  0.5176 -0.3212
  728MOL0     C  338   1.728   3.257   8.562 -0.3034 -0.6983  0.0887
  728MOL0     C  339   1.876   3.253   8.608  0.3486  0.2943 -0.6225
  728MOL0     C  340   1.878   3.188   8.756  0.2701  0.0010  0.5177
  728MOL0     C  341   2.025   3.156   8.783 -0.0247 -0.2644 -0.0330
  728MOL0     C  342   2.057   3.139   8.935  0.3164  0.7780  0.9581
  728MOL0     N  343   2.198   3.177   8.953 -0.1196  0.2618  0.0518
  728MOL0     C  344   2.313   3.114   8.905  0.1871  0.2184 -0.4450
  728MOL0     C  345   2.420   3.171   8.959 -0.0707 -0.5826 -0.0727
  728MOL0     C  346   2.567   3.140   8.950  0.0181 -0.2120  0.8061
  728MOL0     C  347   2.589   2.993   8.961 -0.3124  0.1557 -0.6143
  728MOL0     C  348   2.706   2.932   8.868  0.6638 -0.3033 -0.7833
  728MOL0     C  349   2.846   2.985   8.908 -0.3747  0.0831 -0.6204
  728MOL0     O  350   2.953   2.920   8.844  0.3716 -0.3078  0.2191
  728MOL0     C  351   3.085   2.949   8.865  0.2302  0.0534 -0.3745
  728MOL0     C  352   3.182   2.892   8.783 -0.0689 -0.4409 -0.3018
  728MOL0     C  353   3.317   2.909   8.800 -0.0935 -0.1692 -0.2576
  728MOL0     C  354   3.430   2.855   8.703  0.9209  1.3155  0.1045
  728MOL0     C  355   3.364   2.974   8.913 -0.3396  0.4694  0.0710
  728MOL0     C  356   3.502   2.979   8.960 -0.3535  0.2031  0.6292
  728MOL0     O  357   3.608   2.966   8.870 -0.2987  0.7489  0.3455
  728MOL0     C  358   3.739   2.969   8.906  0.4469  0.9020 -0.9427
  728MOL0     C  359   3.825   3.079   8.910  0.3079 -0.3037 -0.6623
  728MOL0     C  360   3.963   3.060   8.946 -0.0329 -0.1054 -0.7795
  728MOL0     C  361   4.015   2.933   8.966  0.4674 -0.4669 -0.0490
  728MOL0     O  362   4.147   2.922   8.998  0.8811 -0.1726  0.3763
  728MOL0     C  363   4.161   2.905   9.140 -0.5350 -0.1967 -0.6168
  728MOL0     C  364   4.153   2.758   9.197  1.2225 -0.3170 -0.1488
  728MOL0     C  365   4.242   2.656   9.125 -0.9337  0.4777 -0.8977
  728MOL0     C  366   4.389   2.706   9.125  0.2395  0.0399 -0.1047
  728MOL0     C  367   4.489   2.590   9.116 -0.0904  1.1003  0.5238
  728MOL0     C  368   4.635   2.645   9.099  0.1400 -0.6998  0.1095
  728MOL0     C  369   4.744   2.541   9.061  0.1960 -0.8865 -0.2476
  728MOL0     C  370   4.752   2.440   9.176 -0.3628 -0.1950 -0.8060
  728MOL0    Cl  371   4.913   2.357   9.146  0.3503 -0.3455 -0.5729
  728MOL0     C  372   3.937   2.820   8.939 -0.5159 -0.5718  0.3171
  728MOL0     C  373   3.803   2.842   8.915  0.8152 -0.0964  0.1097
  728MOL0     O  374   3.521   3.004   9.074 -0.2740 -1.1458 -0.6986
  728MOL0     C  375   3.268   3.032   9.004  0.4129  0.0176  0.0709
  728MOL0     C  376   3.130   3.024   8.974 -0.1986 -0.1791  0.1979
  728MOL0     N  377   2.380   3.271   9.038  1.3870 -0.0032 -1.0635
  728MOL0     N  378   2.251   3.276   9.033  0.7182 -0.0953  0.4130
  728MOL0     C  379   1.110   3.602   8.537  0.6661  0.2606 -0.4881
  728MOL0     C  380   1.012   3.698   8.565  0.1905 -0.1543  0.8147
  728MOL0     C  381   0.682   3.900   8.723 -1.0012 -1.0001 -0.4823
  728MOL0     C  382   0.693   3.979   8.609  0.3436 -0.3941  0.1554
  728MOL0     C  383   0.587   4.048   8.544 -0.1408  0.0526 -0.1605
  728MOL0     C  384   0.456   4.002   8.591  1.4362 -0.3660 -0.1721
  728MOL0     O  385   0.332   4.040   8.541 -0.5149 -0.0465  0.1334
  728MOL0     C  386   0.326   4.151   8.457 -0.3514  0.3421 -0.0821
  728MOL0     C  387   0.193   4.133   8.376  0.5858 -0.5359 -1.4118
  728MOL0     C  388   0.176   4.258   8.291  0.4931 -0.2513  0.6238
  728MOL0     C  389   0.037   4.246   8.217 -0.0757 -0.1971  0.2377
  728MOL0     C  390   0.016   4.346   8.116 -0.1349 -0.1334  0.1114
  728MOL0     C  391   0.011   4.430   8.031  0.6294 -0.2029  0.6118
  728MOL0     C  392   0.443   3.922   8.697 -0.4151 -0.2089 -0.0849
  728MOL0     C  393   0.556   3.881   8.776 -0.8393 -0.6054 -0.5725
  728MOL0     C  394   0.527   3.805   8.910 -0.5425 -0.0046  0.6294
  728MOL0     H  395   1.118   3.798   8.863 -0.7453 -0.9414  0.6799
  728MOL0     H  396   1.285   3.628   8.826  0.6830  1.2004 -0.5794
  728MOL0     H  397   1.394   3.408   8.786 -0.7323 -2.9633 -0.6187
  728MOL0     H  398   1.477   3.523   8.683  4.3561 -2.9519 -1.2388
  728MOL0     H  399   1.443   3.233   8.622  0.1589  0.2041  1.5451
  728MOL0     H  400   1.472   3.340   8.499  1.1493 -3.0684 -0.5257
  728MOL0     H  401   1.670   3.427   8.691 -3.6983  1.5220  2.7949
  728MOL0     H  402   1.636   3.272   8.759  1.1362 -0.2018 -0.7388
  728MOL0     H  403   1.692   3.156   8.542 -1.4113 -0.0371 -1.4297
  728MOL0     H  404   1.713   3.299   8.462  0.1278 -4.4265 -1.6845
  728MOL0     H  405   1.915   3.354   8.625 -2.4475  0.9951  2.7925
  728MOL0     H  406   1.939   3.201   8.536  1.3534 -0.5263  0.8220
  728MOL0     H  407   1.842   3.260   8.830 -0.0370 -1.4658  1.8692
  728MOL0     H  408   1.819   3.096   8.761  1.1153 -0.5706  0.2718
  728MOL0     H  409   2.088   3.236   8.744  0.8724  0.6079  2.9884
  728MOL0     H  410   2.061   3.071   8.724  0.0173  1.6652 -3.0126
  728MOL0     H  411   1.998   3.213   8.989 -2.1311  0.4226 -1.0858
  728MOL0     H  412   2.039   3.037   8.970 -0.2783  1.1690  1.8117
  728MOL0     H  413   2.307   3.028   8.839  0.6161  2.5068 -3.7035
  728MOL0     H  414   2.628   3.179   9.031  2.5143 -3.6684  0.8192
  728MOL0     H  415   2.605   3.183   8.857 -0.7977 -1.3561 -0.0794
  728MOL0     H  416   2.610   2.963   9.064  3.8656 -1.5523 -1.7672
  728MOL0     H  417   2.501   2.933   8.940 -1.4532  0.5661  2.4518
  728MOL0     H  418   2.706   2.823   8.869 -2.5866 -0.4026  0.0919
  728MOL0     H  419   2.690   2.960   8.764  1.0089 -0.7382 -0.9563
  728MOL0     H  420   2.854   3.091   8.884  0.8303 -0.0526 -0.8837
  728MOL0     H  421   2.849   2.971   9.017  2.6657  1.1950 -0.4546
  728MOL0     H  422   3.155   2.841   8.691  1.4867 -0.7496 -0.6039
  728MOL0     H  423   3.371   2.795   8.634  4.0242 -0.2557 -1.3921
  728MOL0     H  424   3.496   2.781   8.748 -0.3923 -0.0918 -0.2026
  728MOL0     H  425   3.487   2.921   8.638  1.2938 -1.0086 -2.0711
  728MOL0     H  426   3.794   3.179   8.882 -1.3484  0.1267  2.2432
  728MOL0     H  427   4.035   3.140   8.965  2.6222 -2.3016 -1.0518
  728MOL0     H  428   4.261   2.935   9.170  0.3822  1.0434 -4.4015
  728MOL0     H  429   4.109   2.982   9.197  1.1226  0.8491 -0.4551
  728MOL0     H  430   4.167   2.767   9.305  0.7160  1.3861 -0.2014
  728MOL0     H  431   4.048   2.727   9.191  1.3271 -0.7321  0.1262
  728MOL0     H  432   4.198   2.651   9.025 -1.8957  2.1124 -0.5991
  728MOL0     H  433   4.239   2.556   9.169 -2.1147  0.6891 -0.4508
  728MOL0     H  434   4.410   2.763   9.216 -0.2216 -0.2400  0.1791
  728MOL0     H  435   4.404   2.769   9.036  1.8591  2.2498  1.6211
  728MOL0     H  436   4.464   2.531   9.205 -2.2641 -0.6144 -1.1361
  728MOL0     H  437   4.466   2.523   9.033 -0.7286 -0.9828  2.2852
  728MOL0     H  438   4.664   2.698   9.190  2.6887 -0.7548 -0.5994
  728MOL0     H  439   4.620   2.721   9.022 -0.0693 -0.8849 -0.0351
  728MOL0     H  440   4.846   2.576   9.044 -0.2207  0.0579 -0.8874
  728MOL0     H  441   4.707   2.492   8.970  1.1685 -1.4948 -0.3230
  728MOL0     H  442   4.676   2.363   9.187 -3.1122  2.3580 -0.7882
  728MOL0     H  443   4.752   2.479   9.278 -0.6000 -2.8491  0.2855
  728MOL0     H  444   3.986   2.725   8.950  1.0189  0.3970  2.4536
  728MOL0     H  445   3.743   2.753   8.897  1.5732 -0.3391 -1.2947
  728MOL0     H  446   3.290   3.076   9.101  0.0039 -0.5530  0.4283
  728MOL0     H  447   3.054   3.064   9.040 -1.6312 -0.6318 -1.1145
  728MOL0     H  448   1.109   3.534   8.452  2.6847 -1.6147  0.8700
  728MOL0     H  449   0.937   3.713   8.489  1.0940 -0.3095 -0.1304
  728MOL0     H  450   0.787   3.992   8.556 -0.3094 -2.0684 -1.5337
  728MOL0     H  451   0.616   4.119   8.467  1.1672 -1.9316 -1.6015
  728MOL0     H  452   0.333   4.245   8.512 -1.5753  2.5229 -3.3808
  728MOL0     H  453   0.402   4.140   8.379 -1.2609 -0.5274 -0.8659
  728MOL0     H  454   0.111   4.124   8.448  0.5083 -1.2133 -1.5752
  728MOL0     H  455   0.208   4.041   8.318  3.9662 -0.3346 -1.0580
  728MOL0     H  456   0.168   4.352   8.347 -2.8831 -0.7217  1.1692
  728MOL0     H  457   0.264   4.258   8.226  0.7113  2.6108  0.7875
  728MOL0     H  458  -0.040   4.250   8.294  0.7050 -1.3798  1.1247
  728MOL0     H  459   0.045   4.147   8.170  2.1799 -0.9104  1.9097
  728MOL0     H  460   0.022   4.497   7.948  4.0933  0.4411  1.4489
  728MOL0     H  461   0.346   3.882   8.727  0.2178 -1.8162 -0.1233
  728MOL0     H  462   0.578   3.708   8.913  1.4196  0.9845  0.7988
  728MOL0     H  463   0.564   3.860   8.997  1.4057 -0.0946 -0.0968
  728MOL0     H  464   0.419   3.788   8.916 -0.3459 -2.4357 -1.1167
  729MOL0     O  465   7.613   1.856  11.472 -0.0464 -0.3032 -0.0624
  729MOL0     C  466   7.578   1.798  11.573  0.1085  0.2584  0.3408
  729MOL0     O  467   7.660   1.792  11.684 -0.0850  0.1297 -0.7975
  729MOL0     C  468   7.792   1.827  11.682 -0.0106  0.0600  0.0698
  729MOL0     C  469   7.836   1.962  11.684 -0.4226 -0.0559  0.3270
  729MOL0     C  470   7.972   1.989  11.688  0.1189 -0.6904 -0.1015
  729MOL0     C  471   8.062   1.893  11.708  0.0636 -0.6587 -0.2507
  729MOL0     O  472   8.199   1.943  11.708 -0.6343  0.3511  0.5965
  729MOL0     C  473   8.293   1.837  11.739 -0.7536 -0.3547  0.3659
  729MOL0     C  474   8.428   1.904  11.760 -0.3219  0.3887 -0.0609
  729MOL0     C  475   8.545   1.807  11.791  1.0623 -0.7354 -0.4764
  729MOL0     C  476   8.689   1.874  11.818 -0.9383  0.5925  0.3953
  729MOL0     C  477   8.782   1.763  11.864 -0.4498 -0.4760 -1.8290
  729MOL0     C  478   8.913   1.832  11.921 -0.2478  0.3396 -0.4566
  729MOL0     C  479   9.040   1.745  11.914 -0.9433 -0.4924  0.7101
  729MOL0     C  480   9.054   1.625  12.010 -0.1297  0.0945 -0.8720
  729MOL0     N  481   9.113   1.656  12.142 -0.1080  0.2616  0.3021
  729MOL0     C  482   9.054   1.720  12.247 -0.0072  0.3791  0.5233
  729MOL0     C  483   9.156   1.729  12.333 -0.0762 -0.7670  0.3055
  729MOL0     C  484   9.144   1.794  12.466 -0.3252  0.0582  0.1309
  729MOL0     C  485   9.239   1.911  12.479 -0.0334 -0.1829 -0.6025
  729MOL0     C  486   9.157   2.013  12.562 -0.5850 -0.0112 -0.5698
  729MOL0     C  487   9.252   2.121  12.612 -0.3056  0.1661 -0.2821
  729MOL0     O  488   9.336   2.170  12.504  0.0028 -0.0214  0.2341
  729MOL0     C  489   9.289   2.261  12.406 -0.2266 -0.9723 -0.6217
  729MOL0     C  490   9.365   2.286  12.295  0.9770 -0.2352  0.4480
  729MOL0     C  491   9.326   2.380  12.196  0.1007 -0.3950 -0.9180
  729MOL0     C  492   9.430   2.377  12.084  0.6634 -0.4680 -0.1966
  729MOL0     C  493   9.206   2.442  12.201  0.8414 -0.6636 -0.1566
  729MOL0     C  494   9.143   2.527  12.093 -0.4010 -0.3247 -0.1952
  729MOL0     O  495   9.015   2.568  12.119  0.5712 -0.0073  0.0149
  729MOL0     C  496   8.958   2.664  12.041  0.1854 -0.8828 -0.4016
  729MOL0     C  497   9.028   2.776  11.982  0.5394 -0.2006  0.2416
  729MOL0     C  498   8.971   2.860  11.891 -0.1317 -0.5604  0.2536
  729MOL0     C  499   8.837   2.845  11.844 -0.1307  0.0146  0.2698
  729MOL0     O  500   8.789   2.933  11.757 -0.1873 -0.5381 -0.0113
  729MOL0     C  501   8.677   2.911  11.676  1.0063  0.6421 -0.1937
  729MOL0     C  502   8.549   2.951  11.740  0.2330 -0.5122  0.2553
  729MOL0     C  503   8.559   3.100  11.783  0.4278  0.1280 -0.2247
  729MOL0     C  504   8.579   3.130  11.932  0.2881  0.0108  0.2695
  729MOL0     C  505   8.641   3.261  11.968 -0.5079 -0.1621 -0.2437
  729MOL0     C  506   8.800   3.279  11.936  0.0331 -0.0313  0.2060
  729MOL0     C  507   8.855   3.412  11.981 -0.4144 -0.1074 -0.2238
  729MOL0     C  508   9.003   3.434  11.944 -0.1329  0.3027 -0.3147
  729MOL0    Cl  509   9.061   3.616  11.940 -0.2046  0.7762  0.1158
  729MOL0     C  510   8.762   2.748  11.911 -1.3146 -0.3844 -0.1343
  729MOL0     C  511   8.824   2.666  12.006 -0.3949  0.7348 -0.4254
  729MOL0     O  512   9.208   2.541  11.988  0.0299 -0.4670  0.2779
  729MOL0     C  513   9.128   2.410  12.313  0.4325 -1.1258  0.2501
  729MOL0     C  514   9.165   2.332  12.414 -0.1068 -0.2513 -0.3046
  729MOL0     N  515   9.273   1.688  12.273  0.9263  0.2386  0.2244
  729MOL0     N  516   9.250   1.638  12.163 -0.0142 -0.1591 -0.7153
  729MOL0     C  517   8.024   1.757  11.710 -0.5228  0.5360  0.2768
  729MOL0     C  518   7.891   1.728  11.690  0.5634  0.3534  0.4771
  729MOL0     C  519   7.438   1.750  11.595 -0.3130 -0.4633  0.3465
  729MOL0     C  520   7.395   1.699  11.719 -0.1352 -0.2348  0.0809
  729MOL0     C  521   7.266   1.664  11.741 -1.2262 -0.8722  0.4034
  729MOL0     C  522   7.168   1.664  11.640  0.6626 -0.7441  0.8194
  729MOL0     O  523   7.041   1.620  11.668 -0.7124 -0.0372 -0.4463
  729MOL0     C  524   6.922   1.688  11.621 -0.9423  1.1611  1.2461
  729MOL0     C  525   6.803   1.595  11.647 -0.0498 -0.5344  0.0912
  729MOL0     C  526   6.681   1.626  11.561 -0.1240  0.4465  0.2174
  729MOL0     C  527   6.576   1.517  11.535  0.3641 -0.8212  0.2649
  729MOL0     C  528   6.629   1.412  11.443 -0.0452  0.0940  0.2434
  729MOL0     C  529   6.677   1.334  11.365  0.3021  0.3407  0.8257
  729MOL0     C  530   7.208   1.717  11.513 -0.2885 -0.1768  0.4751
  729MOL0     C  531   7.342   1.763  11.486  0.0159  0.6826  0.2782
  729MOL0     C  532   7.365   1.799  11.341  0.1411  0.0829 -0.1758
  729MOL0     H  533   7.765   2.043  11.670  0.8223  1.1197  0.5937
  729MOL0     H  534   8.007   2.090  11.667 -1.2314  0.1910  1.6658
  729MOL0     H  535   8.301   1.763  11.659  1.3722  0.8934 -0.6471
  729MOL0     H  536   8.267   1.769  11.821 -0.5599 -1.2820 -0.3307
  729MOL0     H  537   8.457   1.951  11.666 -1.1831 -2.0682 -1.6643
  729MOL0     H  538   8.411   1.977  11.839 -1.2289 -2.4493  2.5793
  729MOL0     H  539   8.523   1.755  11.885  2.1519  2.9855  2.0492
  729MOL0     H  540   8.545   1.738  11.706 -1.5682 -0.7458 -0.5539
  729MOL0     H  541   8.725   1.900  11.718 -2.7499  0.0874 -0.4235
  729MOL0     H  542   8.686   1.962  11.884 -0.5409  0.7723  0.1806
  729MOL0     H  543   8.791   1.687  11.787  1.5921 -0.4443 -1.6747
  729MOL0     H  544   8.745   1.707  11.950  1.5860  1.0412  0.1674
  729MOL0     H  545   8.921   1.926  11.867 -1.9296  1.7098  1.4919
  729MOL0     H  546   8.903   1.867  12.024  0.9106 -1.2833  0.2508
  729MOL0     H  547   9.136   1.796  11.928  1.4488 -4.1924 -0.6755
  729MOL0     H  548   9.032   1.705  11.813 -1.3364  0.3115  0.4112
  729MOL0     H  549   8.957   1.580  12.034 -0.5241  1.7433  0.8874
  729MOL0     H  550   9.121   1.549  11.967 -0.2296 -0.3943 -0.1878
  729MOL0     H  551   8.951   1.752  12.259 -0.4714 -1.6450  2.8656
  729MOL0     H  552   9.184   1.724  12.540 -2.1048 -1.1226  0.0320
  729MOL0     H  553   9.038   1.818  12.481 -0.6170 -0.3748 -1.1652
  729MOL0     H  554   9.333   1.880  12.527 -0.5896  0.4847  0.9940
  729MOL0     H  555   9.262   1.948  12.379  0.7455 -1.0977 -0.7737
  729MOL0     H  556   9.071   2.053  12.507 -2.0016 -0.5617  1.1469
  729MOL0     H  557   9.113   1.962  12.648 -4.0782 -1.7369 -3.1241
  729MOL0     H  558   9.196   2.203  12.657  4.1260  3.2793  0.2353
  729MOL0     H  559   9.323   2.087  12.689 -0.7984  3.6294  1.8931
  729MOL0     H  560   9.452   2.223  12.277  0.7658 -0.1603 -0.9345
  729MOL0     H  561   9.435   2.478  12.042 -3.2625 -0.3492 -0.7557
  729MOL0     H  562   9.400   2.299  12.014 -1.6499  0.7388 -0.6720
  729MOL0     H  563   9.533   2.347  12.106  1.8821  1.8785 -2.2074
  729MOL0     H  564   9.133   2.794  12.005  1.9999 -4.2790 -2.1503
  729MOL0     H  565   9.025   2.949  11.860  0.6000 -0.8704  0.6195
  729MOL0     H  566   8.687   2.972  11.586  3.5439 -2.2032 -2.0205
  729MOL0     H  567   8.676   2.810  11.635 -0.3354  0.0067  1.2728
  729MOL0     H  568   8.470   2.943  11.664 -0.6807  2.9524  0.6961
  729MOL0     H  569   8.523   2.882  11.821  0.3908  0.1167  0.8522
  729MOL0     H  570   8.470   3.151  11.744  1.4759  1.4973 -0.8864
  729MOL0     H  571   8.638   3.143  11.721  0.5752 -0.3842 -0.4000
  729MOL0     H  572   8.635   3.046  11.974  0.3607 -1.6237 -2.8015
  729MOL0     H  573   8.480   3.131  11.980  0.8737 -0.3611  1.5172
  729MOL0     H  574   8.589   3.336  11.908 -1.4576 -1.9972 -1.8290
  729MOL0     H  575   8.620   3.278  12.075 -1.5114  2.4721 -0.7796
  729MOL0     H  576   8.818   3.275  11.828 -2.7752  0.3046 -0.3568
  729MOL0     H  577   8.860   3.202  11.985  0.7085 -1.5166 -2.7601
  729MOL0     H  578   8.842   3.399  12.089 -1.4853 -2.0993 -0.5548
  729MOL0     H  579   8.799   3.504  11.960  2.7503  2.4219  1.4563
  729MOL0     H  580   9.026   3.407  11.840 -1.4401  0.8612 -0.7805
  729MOL0     H  581   9.051   3.367  12.015 -1.6916 -0.6865 -0.1330
  729MOL0     H  582   8.654   2.745  11.900 -1.7849 -1.3613  3.5470
  729MOL0     H  583   8.771   2.583  12.053  2.1841 -1.3002 -0.8840
  729MOL0     H  584   9.032   2.455  12.336 -0.5348 -2.1563 -1.6044
  729MOL0     H  585   9.098   2.324  12.498  0.1504  0.0327 -0.0705
  729MOL0     H  586   8.095   1.676  11.718  1.4388  2.1440  0.1313
  729MOL0     H  587   7.842   1.631  11.696 -2.0954  1.6777  1.5197
  729MOL0     H  588   7.454   1.701  11.810 -3.0385  3.3251  2.1472
  729MOL0     H  589   7.239   1.622  11.838  0.3767 -0.0662  1.2344
  729MOL0     H  590   6.905   1.784  11.670 -1.2264  0.8694  1.7315
  729MOL0     H  591   6.940   1.704  11.514  2.0656 -2.5057  0.9912
  729MOL0     H  592   6.774   1.588  11.753 -0.4910 -1.7253 -0.0922
  729MOL0     H  593   6.831   1.492  11.623 -1.6634 -0.8884 -0.4000
  729MOL0     H  594   6.621   1.697  11.620  1.8607  1.6983  0.8125
  729MOL0     H  595   6.725   1.666  11.469  2.0718  1.8319  1.7711
  729MOL0     H  596   6.495   1.569  11.484  2.4172  2.5487  0.1586
  729MOL0     H  597   6.535   1.483  11.631 -1.6700  1.4443  0.2649
  729MOL0     H  598   6.736   1.273  11.301 -0.9101 -1.7596  1.6267
  729MOL0     H  599   7.139   1.697  11.431 -0.4882  0.6509  0.4281
  729MOL0     H  600   7.465   1.770  11.306  0.8086 -0.5963  2.1342
  729MOL0     H  601   7.304   1.752  11.263  0.0588 -4.1964  2.1441
  729MOL0     H  602   7.351   1.907  11.332 -2.6709  0.0147  1.9612
  730MOL0     O  603   6.322   4.787   6.745  0.0001  0.6673  0.0325
  730MOL0     C  604   6.294   4.676   6.702 -0.7887 -0.9641 -0.7271
  730MOL0     O  605   6.370   4.617   6.603  0.1886 -0.5972 -0.3659
  730MOL0     C  606   6.341   4.490   6.561 -0.3819 -0.2590  0.3840
  730MOL0     C  607   6.232   4.470   6.479  0.3302 -1.1610  0.4712
  730MOL0     C  608   6.189   4.343   6.446 -0.3202 -0.6859  0.8305
  730MOL0     C  609   6.265   4.234   6.488 -0.8763  0.2320 -0.0819
  730MOL0     O  610   6.244   4.099   6.456  0.3952 -0.3101  0.1655
  730MOL0     C  611   6.165   4.057   6.341 -0.0104  0.3764  0.0258
  730MOL0     C  612   6.198   3.915   6.306 -0.6814  0.6314  0.1573
  730MOL0     C  613   6.303   3.915   6.189 -0.4181  0.3684 -0.0173
  730MOL0     C  614   6.372   3.776   6.195  0.2318  0.9857 -0.4554
  730MOL0     C  615   6.505   3.791   6.124 -0.0763 -0.0153 -0.8379
  730MOL0     C  616   6.561   3.652   6.112 -0.6150  0.6397 -0.7088
  730MOL0     C  617   6.693   3.658   6.029  0.0749 -0.5460 -0.2077
  730MOL0     C  618   6.820   3.685   6.118  0.7219 -0.0521 -0.1593
  730MOL0     N  619   6.937   3.675   6.034 -0.7729 -0.3810  0.4859
  730MOL0     C  620   6.968   3.560   5.971 -0.3405  0.5458 -0.3251
  730MOL0     C  621   7.069   3.598   5.886 -0.0784 -0.0463 -0.0307
  730MOL0     C  622   7.130   3.509   5.794  0.1684  1.0939  0.0780
  730MOL0     C  623   7.221   3.393   5.859  1.1851  0.1200 -0.1341
  730MOL0     C  624   7.219   3.260   5.779 -0.0454  0.2627 -0.7957
  730MOL0     C  625   7.084   3.181   5.786 -0.2916 -0.3073 -0.0598
  730MOL0     O  626   7.041   3.171   5.923 -0.0562 -0.6548  0.2619
  730MOL0     C  627   6.905   3.191   5.944 -1.2183 -0.1649  0.0538
  730MOL0     C  628   6.875   3.230   6.073  0.2933 -0.0885  0.2079
  730MOL0     C  629   6.744   3.241   6.122 -0.1158 -0.2513 -0.1411
  730MOL0     C  630   6.733   3.262   6.277 -0.4532  0.4009 -0.5384
  730MOL0     C  631   6.638   3.227   6.029  0.3774  0.5278 -0.9644
  730MOL0     C  632   6.497   3.244   6.078  0.1490  0.9422  0.8696
  730MOL0     O  633   6.477   3.279   6.207  0.0824  0.1007 -0.2322
  730MOL0     C  634   6.341   3.297   6.249  0.6170 -0.0496  0.4030
  730MOL0     C  635   6.319   3.422   6.303  0.5300  0.0060 -0.5095
  730MOL0     C  636   6.202   3.448   6.372  0.2234 -0.2032 -0.6800
  730MOL0     C  637   6.095   3.352   6.382 -1.2110  0.0372  0.0875
  730MOL0     O  638   5.976   3.370   6.451 -0.1576  0.2453 -0.7921
  730MOL0     C  639   5.958   3.499   6.512 -0.6619 -0.9329 -0.4101
  730MOL0     C  640   5.921   3.619   6.427  0.0447  0.5558  0.9421
  730MOL0     C  641   5.767   3.616   6.398 -0.9121  0.5424  0.3718
  730MOL0     C  642   5.688   3.728   6.470 -1.9560 -0.0460 -0.4969
  730MOL0     C  643   5.543   3.736   6.432  1.3918 -0.2402 -0.2305
  730MOL0     C  644   5.460   3.823   6.530  1.1490 -0.6971  0.1694
  730MOL0     C  645   5.322   3.830   6.479 -0.6519 -0.5219 -0.1913
  730MOL0     C  646   5.237   3.946   6.525 -0.6152 -0.1313  0.4999
  730MOL0    Cl  647   5.082   3.929   6.444  0.4882  0.4221 -0.2053
  730MOL0     C  648   6.119   3.228   6.320  0.2692 -0.3011  0.5074
  730MOL0     C  649   6.245   3.202   6.256  0.6285  0.6340 -0.0459
  730MOL0     O  650   6.405   3.220   5.997 -0.4238 -0.3808 -0.3937
  730MOL0     C  651   6.672   3.197   5.894  0.4654 -0.4910 -0.2573
  730MOL0     C  652   6.794   3.177   5.859  0.0801 -0.2748  1.0746
  730MOL0     N  653   7.105   3.727   5.912 -0.4055  0.4887  0.4158
  730MOL0     N  654   7.019   3.780   5.991  0.5041 -0.1352  0.4104
  730MOL0     C  655   6.384   4.257   6.562  0.6188  0.0542  1.0043
  730MOL0     C  656   6.419   4.381   6.605 -0.3192 -1.0250  0.0247
  730MOL0     C  657   6.170   4.611   6.761 -0.5515  0.8575  0.3300
  730MOL0     C  658   6.047   4.641   6.695 -0.1283  0.1674  0.4259
  730MOL0     C  659   5.924   4.604   6.740 -0.6678  0.9097 -0.1992
  730MOL0     C  660   5.930   4.505   6.843  0.5140  0.8012 -0.2667
  730MOL0     O  661   5.806   4.459   6.893 -0.1103  0.5283  0.0840
  730MOL0     C  662   5.767   4.334   6.840 -0.4671  1.2160 -0.3084
  730MOL0     C  663   5.780   4.322   6.692 -0.1409  0.8328 -0.1169
  730MOL0     C  664   5.714   4.191   6.633 -0.3518  0.0200  0.0932
  730MOL0     C  665   5.803   4.072   6.643  0.0665 -1.1343 -0.1463
  730MOL0     C  666   5.761   3.973   6.739 -0.1545  0.0618  0.7422
  730MOL0     C  667   5.735   3.900   6.829  0.3099 -1.2897  0.4943
  730MOL0     C  668   6.040   4.465   6.910  0.0231 -0.9042 -0.6078
  730MOL0     C  669   6.165   4.522   6.868 -0.3465  0.2586  0.4850
  730MOL0     C  670   6.285   4.469   6.939  0.3801 -0.3023 -0.4523
  730MOL0     H  671   6.179   4.559   6.447  3.1187  2.1045  3.9390
  730MOL0     H  672   6.096   4.337   6.390  1.8473 -0.4907 -3.1959
  730MOL0     H  673   6.186   4.123   6.257 -0.4772  2.2688  1.3498
  730MOL0     H  674   6.056   4.057   6.351 -0.3811 -0.1487 -3.1027
  730MOL0     H  675   6.236   3.867   6.397  0.9444  0.6377 -0.4763
  730MOL0     H  676   6.106   3.863   6.279 -0.3836  0.7668 -1.1692
  730MOL0     H  677   6.254   3.923   6.092  0.8368  0.6277 -0.6518
  730MOL0     H  678   6.373   3.997   6.208 -1.2686  0.8134  1.3955
  730MOL0     H  679   6.388   3.736   6.296 -4.1293 -1.7584 -0.5871
  730MOL0     H  680   6.311   3.706   6.137  0.3545  0.7613 -0.3163
  730MOL0     H  681   6.567   3.857   6.186 -1.1731 -0.3559  0.6767
  730MOL0     H  682   6.500   3.834   6.023  2.7065  0.7622 -0.7264
  730MOL0     H  683   6.589   3.599   6.203 -0.0779 -2.8085 -2.7031
  730MOL0     H  684   6.492   3.587   6.058  1.2205 -2.2085  0.1280
  730MOL0     H  685   6.686   3.741   5.959 -0.7416  0.3371  0.8947
  730MOL0     H  686   6.701   3.558   5.986 -1.1616 -0.0261 -1.7146
  730MOL0     H  687   6.810   3.776   6.178  2.0107 -1.6694  2.6737
  730MOL0     H  688   6.823   3.606   6.194  0.1409  0.2189  0.1472
  730MOL0     H  689   6.937   3.457   5.985  3.0708 -0.6190 -0.5452
  730MOL0     H  690   7.184   3.563   5.716  0.6065 -2.6633 -2.5046
  730MOL0     H  691   7.051   3.457   5.741  1.2697 -0.9383  0.3234
  730MOL0     H  692   7.322   3.434   5.863  0.8031  1.4313 -2.2662
  730MOL0     H  693   7.178   3.368   5.956 -0.6077 -0.0191 -0.9258
  730MOL0     H  694   7.239   3.288   5.675 -0.2815  1.1074 -0.6219
  730MOL0     H  695   7.300   3.195   5.814  0.3264  0.9961 -0.2491
  730MOL0     H  696   7.013   3.236   5.724  0.3325 -0.4998 -0.9573
  730MOL0     H  697   7.104   3.088   5.732 -0.2830  1.0892 -2.5892
  730MOL0     H  698   6.960   3.237   6.141  0.0013 -0.7530  0.6553
  730MOL0     H  699   6.668   3.182   6.315 -0.8320  0.1611 -1.6480
  730MOL0     H  700   6.683   3.357   6.297 -1.4051  0.1222 -1.4660
  730MOL0     H  701   6.831   3.259   6.325  0.3185  0.4272 -2.0524
  730MOL0     H  702   6.388   3.505   6.292  0.0688  0.8795  2.3636
  730MOL0     H  703   6.188   3.549   6.410 -0.0583 -1.6783  3.7416
  730MOL0     H  704   5.872   3.483   6.577 -0.2550  1.4043  0.7738
  730MOL0     H  705   6.045   3.513   6.577 -0.3384 -0.7648 -0.8744
  730MOL0     H  706   5.940   3.713   6.480 -0.9966  0.7965  0.8946
  730MOL0     H  707   5.967   3.620   6.328 -2.6178  3.2523 -0.3997
  730MOL0     H  708   5.717   3.521   6.422 -0.1085  0.3099  1.1745
  730MOL0     H  709   5.774   3.634   6.291  0.6673  2.0544  0.7000
  730MOL0     H  710   5.731   3.827   6.454 -0.0161 -0.9623 -1.3094
  730MOL0     H  711   5.702   3.707   6.577 -6.2415 -1.7064 -0.0932
  730MOL0     H  712   5.539   3.778   6.331  0.3455  1.2005  0.3726
  730MOL0     H  713   5.495   3.638   6.430 -0.1954  0.5022 -2.8743
  730MOL0     H  714   5.515   3.916   6.548  0.3333 -0.4014  1.2467
  730MOL0     H  715   5.458   3.780   6.631 -0.3617  2.4641  1.6183
  730MOL0     H  716   5.268   3.740   6.509  1.5211 -0.5488  4.6276
  730MOL0     H  717   5.318   3.846   6.371 -1.6138 -3.0708 -0.6006
  730MOL0     H  718   5.275   4.046   6.501 -1.9671  0.3833  0.4057
  730MOL0     H  719   5.219   3.935   6.632 -2.1430 -1.2343  0.1548
  730MOL0     H  720   6.045   3.148   6.320 -0.2651  0.1724 -0.5937
  730MOL0     H  721   6.273   3.102   6.225  1.4206 -0.0333  2.6076
  730MOL0     H  722   6.594   3.187   5.820  1.0284 -0.0539 -0.9274
  730MOL0     H  723   6.822   3.160   5.755 -0.7111  0.9817  0.6212
  730MOL0     H  724   6.451   4.174   6.582  2.0118  1.4714  2.4883
  730MOL0     H  725   6.503   4.406   6.669 -2.0026  2.7828  1.0093
  730MOL0     H  726   6.051   4.714   6.614 -1.8619 -0.9844 -0.7685
  730MOL0     H  727   5.830   4.637   6.697 -1.3242 -2.8287 -2.1119
  730MOL0     H  728   5.831   4.252   6.873  1.5060  2.3423 -1.1372
  730MOL0     H  729   5.662   4.312   6.858  0.3791 -0.5702  3.3743
  730MOL0     H  730   5.887   4.318   6.668  0.1836  4.3560  0.2751
  730MOL0     H  731   5.736   4.403   6.634 -1.1295  1.1708  1.0565
  730MOL0     H  732   5.611   4.179   6.669 -0.8769 -0.4163 -1.4921
  730MOL0     H  733   5.702   4.205   6.525  1.4353  2.0445  0.1006
  730MOL0     H  734   5.907   4.092   6.671 -0.0405  0.9525 -1.0956
  730MOL0     H  735   5.809   4.027   6.543 -0.5895  0.5950 -1.0118
  730MOL0     H  736   5.711   3.834   6.910 -1.0230 -1.7661 -0.2448
  730MOL0     H  737   6.030   4.399   6.995  0.0537  1.4597  1.3608
  730MOL0     H  738   6.251   4.418   7.030  0.1059  0.7737  0.0586
  730MOL0     H  739   6.332   4.395   6.873  0.2459 -2.5215  1.7903
  730MOL0     H  740   6.356   4.551   6.955 -0.8686  1.2788 -2.5463
  731MOL0     O  741   1.337   5.347   8.604 -0.5175  0.5517 -0.2037
  731MOL0     C  742   1.455   5.376   8.614 -0.3941  0.4095  0.3714
  731MOL0     O  743   1.558   5.356   8.524  0.1851  0.4167  0.1592
  731MOL0     C  744   1.541   5.274   8.411  0.0486 -0.4315 -0.3460
  731MOL0     C  745   1.642   5.183   8.391  0.1549 -0.1332  0.3399
  731MOL0     C  746   1.636   5.095   8.284 -0.3136 -0.9428  0.8151
  731MOL0     C  747   1.531   5.110   8.192 -0.0489 -0.1261  0.5051
  731MOL0     O  748   1.535   5.029   8.085  0.3407  0.0327  0.4884
  731MOL0     C  749   1.430   5.025   7.990  0.6965  0.4270 -0.0700
  731MOL0     C  750   1.448   4.896   7.908 -0.1461 -0.6790 -0.0299
  731MOL0     C  751   1.568   4.910   7.805  0.6202 -0.3258  0.4898
  731MOL0     C  752   1.506   4.924   7.657  0.1797  0.3675 -0.7144
  731MOL0     C  753   1.621   4.913   7.553  0.3237 -1.2258  0.7456
  731MOL0     C  754   1.696   5.049   7.550  0.0447 -0.4439  1.2891
  731MOL0     C  755   1.825   5.050   7.460  0.4451  0.6774  0.0484
  731MOL0     C  756   1.954   5.091   7.531 -0.0011 -0.0737  0.0235
  731MOL0     N  757   1.967   5.233   7.540 -0.0321 -0.3665 -0.1643
  731MOL0     C  758   2.089   5.284   7.571 -0.3633  0.5240 -0.1463
  731MOL0     C  759   2.072   5.414   7.598 -0.5451  0.0269 -0.1531
  731MOL0     C  760   2.173   5.527   7.625  0.2135  0.5351 -0.7372
  731MOL0     C  761   2.234   5.579   7.493 -0.5583 -0.2181  0.3748
  731MOL0     C  762   2.322   5.708   7.522  0.2355 -0.9480 -0.1755
  731MOL0     C  763   2.463   5.681   7.584  0.2310  0.4756 -0.3443
  731MOL0     O  764   2.431   5.675   7.728 -0.1571 -1.6092  0.5619
  731MOL0     C  765   2.521   5.621   7.804 -0.2265  0.3813  0.7483
  731MOL0     C  766   2.476   5.578   7.920  0.8728 -0.0984 -0.0190
  731MOL0     C  767   2.559   5.526   8.024  0.0282  0.0869 -0.4728
  731MOL0     C  768   2.491   5.446   8.127 -0.3313 -0.0497  0.5072
  731MOL0     C  769   2.699   5.515   8.007  0.4059 -0.1365  0.8525
  731MOL0     C  770   2.790   5.439   8.100 -0.2911 -0.3441  0.1218
  731MOL0     O  771   2.866   5.513   8.186  0.3507  0.4393 -0.0036
  731MOL0     C  772   2.937   5.469   8.294 -0.5729  0.3279 -0.1447
  731MOL0     C  773   3.004   5.560   8.371 -0.4876 -0.7598  0.5617
  731MOL0     C  774   3.071   5.515   8.489  0.7010  0.2661  0.1832
  731MOL0     C  775   3.066   5.388   8.532 -0.1806  0.5320  0.4441
  731MOL0     O  776   3.127   5.339   8.648 -0.4787 -1.0077  0.1658
  731MOL0     C  777   3.247   5.409   8.693  0.8269  0.3929 -0.1449
  731MOL0     C  778   3.317   5.320   8.791  0.3417  0.5734 -0.4707
  731MOL0     C  779   3.440   5.401   8.849  1.0867  1.2816 -0.3461
  731MOL0     C  780   3.569   5.318   8.884  0.5636 -0.6308 -0.4747
  731MOL0     C  781   3.698   5.406   8.894 -0.2066 -0.6312  0.1684
  731MOL0     C  782   3.813   5.351   8.973 -1.9445  0.2125  1.0323
  731MOL0     C  783   3.885   5.245   8.889  0.3675  0.7609  0.4090
  731MOL0     C  784   4.028   5.292   8.835 -0.0282  0.8944  0.1107
  731MOL0    Cl  785   4.104   5.155   8.742  0.1263  0.2610  0.2279
  731MOL0     C  786   2.987   5.299   8.458 -1.7181  0.1135  0.0432
  731MOL0     C  787   2.916   5.350   8.352  0.5830  0.2056 -0.2489
  731MOL0     O  788   2.784   5.315   8.092 -0.2422 -1.0013  0.6335
  731MOL0     C  789   2.746   5.549   7.877 -0.9927 -0.0771 -0.8124
  731MOL0     C  790   2.663   5.597   7.776  0.3364 -0.1841 -0.1405
  731MOL0     N  791   1.935   5.436   7.591  0.3739  0.5200  0.4096
  731MOL0     N  792   1.871   5.328   7.557 -0.1278 -0.7416 -0.3871
  731MOL0     C  793   1.433   5.196   8.207 -0.6393 -0.9778 -0.3113
  731MOL0     C  794   1.435   5.283   8.320 -0.4126 -0.2952 -1.2512
  731MOL0     C  795   1.487   5.441   8.737  0.0611 -0.1619 -0.4938
  731MOL0     C  796   1.697   5.460   8.773 -0.2840  0.3685 -0.1439
  731MOL0     C  797   1.762   5.542   8.953  0.4277 -0.0303  0.5553
  731MOL0     C  798   1.627   5.603   9.100  0.3698  0.7599 -0.0078
  731MOL0     O  799   1.665   5.648   9.218  0.1975 -0.0825 -0.1706
  731MOL0     C  800   1.805   5.624   9.245 -0.7383  0.3793  0.0977
  731MOL0     C  801   1.846   5.471   9.272  0.3118 -0.4408  0.4254
  731MOL0     C  802   1.831   5.414   9.412  1.1651 -0.2034 -0.5340
  731MOL0     C  803   1.888   5.277   9.427 -0.2459  0.5338  0.6288
  731MOL0     C  804   1.846   5.218   9.557  0.0227 -0.2250 -0.4708
  731MOL0     C  805   1.820   5.175   9.666  0.2035  0.7798 -0.2740
  731MOL0     C  806   1.420   5.577   9.074 -0.2038 -0.5256  0.2818
  731MOL0     C  807   1.346   5.494   8.887  0.4010 -0.0512  0.5465
  731MOL0     C  808   1.199   5.466   8.862  0.0310 -0.8459  0.2782
  731MOL0     H  809   1.726   5.177   8.459  0.3103  0.5274  0.2171
  731MOL0     H  810   1.697   5.005   8.279 -2.4263 -2.3980 -2.1798
  731MOL0     H  811   1.433   5.112   7.923 -0.2751  0.5249  0.0024
  731MOL0     H  812   1.335   5.022   8.044  1.9002 -1.2231  2.1204
  731MOL0     H  813   1.464   4.809   7.972 -1.3648 -1.5829 -0.8937
  731MOL0     H  814   1.349   4.896   7.861 -0.0219  0.3118 -0.3271
  731MOL0     H  815   1.644   4.983   7.834 -0.5412  1.8162 -1.5281
  731MOL0     H  816   1.611   4.810   7.812  4.1633  1.1716  2.9963
  731MOL0     H  817   1.425   4.853   7.638  0.7592  0.0978 -2.3497
  731MOL0     H  818   1.458   5.022   7.649 -1.4214 -0.4022 -0.7885
  731MOL0     H  819   1.580   4.894   7.454 -0.5383  3.3228  0.0244
  731MOL0     H  820   1.699   4.839   7.574  2.7206  1.2627  1.1719
  731MOL0     H  821   1.623   5.120   7.509  1.1641  1.1184  1.8955
  731MOL0     H  822   1.725   5.093   7.646  0.0738  0.3128  0.9440
  731MOL0     H  823   1.808   5.118   7.377  0.1488  2.6027  1.6106
  731MOL0     H  824   1.842   4.953   7.413  0.3785  0.6483  0.0836
  731MOL0     H  825   1.956   5.061   7.636 -1.2408  1.1645  0.4334
  731MOL0     H  826   2.041   5.050   7.479 -0.3869 -2.2164  0.9656
  731MOL0     H  827   2.177   5.220   7.575 -0.6233  0.0581 -1.2802
  731MOL0     H  828   2.250   5.492   7.695 -0.0556  2.5167  0.6329
  731MOL0     H  829   2.117   5.606   7.675 -0.5270  0.3317 -1.2272
  731MOL0     H  830   2.299   5.503   7.449 -1.0646  0.2804 -1.3211
  731MOL0     H  831   2.158   5.594   7.415 -0.8791 -1.1442  0.4888
  731MOL0     H  832   2.339   5.768   7.432 -0.5895 -1.8853 -0.9918
  731MOL0     H  833   2.260   5.778   7.579 -1.9604 -0.1197 -3.3032
  731MOL0     H  834   2.491   5.583   7.545  0.9997 -0.0877  1.5318
  731MOL0     H  835   2.531   5.765   7.564 -1.4338  2.3021  1.2028
  731MOL0     H  836   2.368   5.595   7.923  0.5298 -1.8788  3.5169
  731MOL0     H  837   2.568   5.425   8.201  1.2598 -1.3309 -1.4082
  731MOL0     H  838   2.446   5.358   8.080 -0.8615  0.7164 -0.4585
  731MOL0     H  839   2.408   5.503   8.169  0.6577 -0.4120  3.1177
  731MOL0     H  840   3.022   5.665   8.349  0.0069 -0.8432  0.5441
  731MOL0     H  841   3.123   5.586   8.554  0.4543 -0.3679  1.1018
  731MOL0     H  842   3.314   5.435   8.610  0.2414  1.1012 -0.4076
  731MOL0     H  843   3.213   5.494   8.752 -0.6536 -0.5084  0.3527
  731MOL0     H  844   3.247   5.300   8.873 -0.1025  0.3458 -0.9022
  731MOL0     H  845   3.345   5.221   8.754 -1.8584  0.6624 -2.5932
  731MOL0     H  846   3.415   5.441   8.947 -3.0354  0.3649 -0.8569
  731MOL0     H  847   3.455   5.489   8.787 -0.2159  0.8415 -1.3302
  731MOL0     H  848   3.584   5.241   8.807  2.0054 -0.1197 -0.7349
  731MOL0     H  849   3.554   5.270   8.981  1.0494 -0.4274 -0.2943
  731MOL0     H  850   3.742   5.419   8.795  3.0685 -2.1292  1.2974
  731MOL0     H  851   3.670   5.505   8.933 -0.3696 -0.5761 -0.0882
  731MOL0     H  852   3.773   5.312   9.067 -0.3261 -0.7938  1.3364
  731MOL0     H  853   3.883   5.432   8.996 -2.0363  0.4344  0.5468
  731MOL0     H  854   3.828   5.224   8.798  0.5046 -0.5001  0.6024
  731MOL0     H  855   3.894   5.158   8.954  1.1183  1.9513  1.9554
  731MOL0     H  856   4.079   5.314   8.929 -0.1395  0.1908  0.3452
  731MOL0     H  857   4.014   5.378   8.768  0.9340 -0.8486 -2.4884
  731MOL0     H  858   2.983   5.193   8.483  3.0699 -0.8313 -1.9491
  731MOL0     H  859   2.830   5.293   8.317 -2.0043  3.5126  0.2841
  731MOL0     H  860   2.852   5.535   7.857 -0.6485  2.7796 -1.4036
  731MOL0     H  861   2.716   5.623   7.685  1.8718 -0.8777  0.5227
  731MOL0     H  862   1.349   5.205   8.138 -1.2789  0.3014  0.5756
  731MOL0     H  863   1.368   5.368   8.323 -1.0982 -0.8590  0.4103
  731MOL0     H  864   1.776   5.456   8.698  1.7315 -0.6182  1.9227
  731MOL0     H  865   1.869   5.556   8.962  0.6782  1.1613 -2.9451
  731MOL0     H  866   1.868   5.660   9.163  0.4590 -2.6102 -0.4141
  731MOL0     H  867   1.829   5.680   9.336 -1.6215  2.7153 -1.0074
  731MOL0     H  868   1.949   5.457   9.239 -0.3957 -2.0778 -1.1966
  731MOL0     H  869   1.786   5.405   9.210 -0.8988 -0.9984  2.1125
  731MOL0     H  870   1.883   5.475   9.487  0.3828 -2.7497  2.2589
  731MOL0     H  871   1.727   5.420   9.444  1.6735 -1.1486  1.4427
  731MOL0     H  872   1.997   5.287   9.428  0.2785 -3.5433  1.8928
  731MOL0     H  873   1.870   5.207   9.346  1.6187  0.4555  0.2361
  731MOL0     H  874   1.807   5.122   9.759  1.9761  1.2014  0.2621
  731MOL0     H  875   1.350   5.612   9.150  0.0350  1.7702 -0.4848
  731MOL0     H  876   1.141   5.539   8.920  2.3261  0.7911  0.6426
  731MOL0     H  877   1.181   5.481   8.755 -0.5390  0.2678  0.5131
  731MOL0     H  878   1.164   5.364   8.883 -5.0136  0.5261  0.0279
  732MOL0     O  879  11.332  11.071   7.915  0.5799  0.0212 -0.5293
  732MOL0     C  880  11.237  11.154   7.932 -1.0237 -0.0702 -0.0259
  732MOL0     O  881  11.256  11.279   7.984 -0.0071  0.0465  0.6058
  732MOL0     C  882  11.375  11.338   7.958 -0.0480 -0.0469  0.6789
  732MOL0     C  883  11.372  11.460   7.898  0.6771  1.1110 -0.7432
  732MOL0     C  884  11.491  11.527   7.874 -0.4866 -0.5599  0.0568
  732MOL0     C  885  11.612  11.480   7.906 -0.1413 -0.5592 -0.8196
  732MOL0     O  886  11.715  11.566   7.888 -0.3679 -0.5936 -0.5383
  732MOL0     C  887  11.807  11.513   7.788  0.0379 -0.4195 -0.1613
  732MOL0     C  888  11.929  11.609   7.787  0.3674 -0.3574  0.0567
  732MOL0     C  889  11.890  11.755   7.726 -0.9901 -0.9527  0.5568
  732MOL0     C  890  12.009  11.856   7.748 -0.1353  0.4803 -0.1073
  732MOL0     C  891  12.142  11.805   7.721 -0.5190 -0.3972  0.2123
  732MOL0     C  892  12.254  11.914   7.747 -0.1190 -0.3676 -0.7040
  732MOL0     C  893  12.379  11.867   7.674 -0.0441 -0.7097 -0.3334
  732MOL0     C  894  12.511  11.897   7.750 -0.3431  0.2757  0.1339
  732MOL0     N  895  12.567  11.797   7.848 -0.8887  0.2667 -0.6689
  732MOL0     C  896  12.697  11.799   7.890 -0.8801  0.1990  0.1920
  732MOL0     C  897  12.695  11.755   8.014  0.4297  0.7126  0.4453
  732MOL0     C  898  12.806  11.745   8.104  0.6912 -0.1780 -0.4407
  732MOL0     C  899  12.866  11.883   8.140 -0.1705 -0.0248  0.4413
  732MOL0     C  900  12.781  11.972   8.231 -0.0147  0.0395  0.2332
  732MOL0     C  901  12.869  12.066   8.304 -0.1734 -0.3153  0.3768
  732MOL0     O  902  12.938  12.153   8.218  0.0597  0.0778  0.3462
  732MOL0     C  903  13.052  12.216   8.261 -0.9894  0.2921 -0.9002
  732MOL0     C  904  13.138  12.253   8.160 -0.0491  0.5283 -0.4654
  732MOL0     C  905  13.253  12.335   8.186 -0.4622 -1.0905  0.2025
  732MOL0     C  906  13.334  12.381   8.068 -0.2740  0.2461 -0.1205
  732MOL0     C  907  13.283  12.383   8.321  0.1842  0.5105  0.4924
  732MOL0     C  908  13.401  12.466   8.363 -0.4016  0.3022  0.5764
  732MOL0     O  909  13.445  12.450   8.490 -0.2581  0.8294  0.2942
  732MOL0     C  910  13.573  12.497   8.505  0.1989  0.2095 -0.0427
  732MOL0     C  911  13.609  12.634   8.517 -0.2696 -0.1781 -0.1686
  732MOL0     C  912  13.745  12.671   8.549  0.1173  0.0735 -0.1153
  732MOL0     C  913  13.841  12.570   8.543 -0.5988  0.6139 -0.2536
  732MOL0     O  914  13.969  12.590   8.583 -0.7371  0.4843  0.1899
  732MOL0     C  915  14.015  12.707   8.652  0.3162  0.1821 -0.4315
  732MOL0     C  916  13.952  12.751   8.778  0.6752  0.2376  0.0669
  732MOL0     C  917  13.896  12.635   8.865 -0.3390 -0.6897  0.4393
  732MOL0     C  918  13.862  12.670   9.012  0.2855 -0.5468 -0.7351
  732MOL0     C  919  13.803  12.546   9.088 -0.4350  0.8432 -0.1829
  732MOL0     C  920  13.920  12.449   9.129 -0.3369  0.3127  1.1613
  732MOL0     C  921  13.880  12.315   9.089 -0.5774  1.1349 -0.2539
  732MOL0     C  922  13.924  12.199   9.173 -0.5258 -0.3422  0.9572
  732MOL0    Cl  923  13.849  12.058   9.117 -0.5442  0.1241  0.4537
  732MOL0     C  924  13.801  12.438   8.525 -0.0006  0.1105 -1.1468
  732MOL0     C  925  13.671  12.401   8.504  0.2136 -0.2185 -0.7385
  732MOL0     O  926  13.448  12.548   8.282 -0.2207  0.2055  0.0472
  732MOL0     C  927  13.196  12.330   8.421 -0.0321  0.4312  0.2514
  732MOL0     C  928  13.087  12.248   8.394  0.1850  0.1243  0.2624
  732MOL0     N  929  12.576  11.717   8.052  0.6130  0.2137  0.4663
  732MOL0     N  930  12.500  11.731   7.951 -0.4668  1.2828  0.0401
  732MOL0     C  931  11.611  11.367   7.984  0.0993  1.6047 -0.4570
  732MOL0     C  932  11.499  11.292   8.006  0.3035 -0.0633  0.1670
  732MOL0     C  933  11.093  11.101   7.911  0.5002  0.2791  0.4799
  732MOL0     C  934  10.985  11.183   7.941 -0.3070 -0.4270 -0.2955
  732MOL0     C  935  10.852  11.139   7.935  0.3617 -0.1581 -1.0276
  732MOL0     C  936  10.821  11.006   7.910  0.8362  0.4841 -0.3013
  732MOL0     O  937  10.684  10.989   7.916  0.3633  0.3887  0.1136
  732MOL0     C  938  10.643  10.852   7.896 -0.1122 -0.2749 -0.9018
  732MOL0     C  939  10.684  10.759   8.022 -0.8060 -0.0259  0.4817
  732MOL0     C  940  10.665  10.603   7.987 -0.2951  0.6273 -0.5335
  732MOL0     C  941  10.696  10.527   8.127 -0.1674 -0.0572  0.3968
  732MOL0     C  942  10.671  10.381   8.136  0.2230  0.3886 -0.4499
  732MOL0     C  943  10.646  10.260   8.131  0.2876 -0.0092  0.0227
  732MOL0     C  944  10.927  10.919   7.887  0.7886 -0.4415  0.2083
  732MOL0     C  945  11.062  10.963   7.883 -0.3023 -0.5580  1.4826
  732MOL0     C  946  11.165  10.862   7.834  0.9153 -0.6771  0.2666
  732MOL0     H  947  11.276  11.499   7.867  0.6952  1.7758 -0.0145
  732MOL0     H  948  11.499  11.621   7.820 -1.3091 -1.0751 -0.9731
  732MOL0     H  949  11.778  11.511   7.682  1.7337 -0.8511 -0.6408
  732MOL0     H  950  11.841  11.414   7.821  0.3040 -0.3900 -0.3451
  732MOL0     H  951  11.967  11.615   7.889 -1.1109  0.9027  0.5650
  732MOL0     H  952  12.004  11.568   7.718  1.1806  1.3051 -0.1012
  732MOL0     H  953  11.882  11.742   7.618  0.5566  1.9672 -0.0111
  732MOL0     H  954  11.793  11.790   7.763 -0.3370  0.1109  1.2954
  732MOL0     H  955  11.987  11.947   7.692  4.0972  1.7296 -0.0933
  732MOL0     H  956  12.010  11.871   7.856 -0.1116 -1.6728  0.2359
  732MOL0     H  957  12.153  11.768   7.619  2.2215 -1.7749  0.9030
  732MOL0     H  958  12.169  11.723   7.789  2.1103 -1.5079 -2.0051
  732MOL0     H  959  12.235  12.016   7.710 -0.1216 -0.5250 -1.1392
  732MOL0     H  960  12.289  11.913   7.850 -3.1602 -2.4643  0.4486
  732MOL0     H  961  12.386  11.925   7.582 -0.4978 -0.8890 -0.4851
  732MOL0     H  962  12.381  11.760   7.652 -0.3607 -0.8422  0.2510
  732MOL0     H  963  12.579  11.914   7.666  1.2291 -2.6443  0.6932
  732MOL0     H  964  12.501  11.993   7.802 -1.4276 -0.1225  0.7037
  732MOL0     H  965  12.783  11.842   7.840 -0.6615 -1.6794 -1.1591
  732MOL0     H  966  12.882  11.686   8.051 -0.8117  1.2483 -4.5862
  732MOL0     H  967  12.771  11.700   8.197  1.3811  0.9985  0.4200
  732MOL0     H  968  12.950  11.868   8.209 -1.9260  1.3891  3.0616
  732MOL0     H  969  12.903  11.947   8.060  2.6275 -0.6859  1.0936
  732MOL0     H  970  12.711  12.023   8.163  0.7549 -2.4879 -2.7160
  732MOL0     H  971  12.730  11.909   8.304  3.4597 -0.6019  2.3166
  732MOL0     H  972  12.809  12.138   8.361 -0.3074 -0.8539  0.9240
  732MOL0     H  973  12.944  12.014   8.364  1.5281  1.2103 -0.3195
  732MOL0     H  974  13.116  12.220   8.059  2.4629 -2.1270 -0.2970
  732MOL0     H  975  13.440  12.357   8.079  0.5359  2.8310 -1.4091
  732MOL0     H  976  13.330  12.489   8.053  1.5521  0.5184  1.0310
  732MOL0     H  977  13.300  12.325   7.981 -2.3846 -1.3149  1.5667
  732MOL0     H  978  13.532  12.711   8.509  0.7553  0.7208 -1.9423
  732MOL0     H  979  13.772  12.771   8.581  1.9789 -0.9030  1.6000
  732MOL0     H  980  14.122  12.703   8.676  0.4028  3.8234  0.4108
  732MOL0     H  981  14.021  12.794   8.586  0.6998 -0.8201 -1.7484
  732MOL0     H  982  14.020  12.809   8.841 -0.6083 -0.2777  2.0266
  732MOL0     H  983  13.868  12.814   8.746  0.4321 -1.3516 -2.7852
  732MOL0     H  984  13.960  12.547   8.862  0.1821 -0.3152  0.2415
  732MOL0     H  985  13.810  12.599   8.808 -0.4555 -1.5376  1.1448
  732MOL0     H  986  13.791  12.753   9.011  0.2783 -0.3746  2.2723
  732MOL0     H  987  13.953  12.709   9.061 -1.2352  1.6807  0.4741
  732MOL0     H  988  13.760  12.575   9.185  0.4474  0.6166  0.2865
  732MOL0     H  989  13.719  12.503   9.033  0.1545 -0.8038  0.1519
  732MOL0     H  990  13.940  12.452   9.237  1.4557  2.2317  0.8382
  732MOL0     H  991  14.018  12.473   9.086 -1.9632 -0.8860 -3.8224
  732MOL0     H  992  13.910  12.302   8.985  0.0255 -0.2546  0.0770
  732MOL0     H  993  13.772  12.300   9.093 -0.3264 -0.8578 -0.1833
  732MOL0     H  994  13.907  12.220   9.279 -1.2910  0.2763  0.7174
  732MOL0     H  995  14.033  12.189   9.162 -0.6674 -1.1143  0.1957
  732MOL0     H  996  13.878  12.364   8.546 -1.1434 -0.8267 -0.1144
  732MOL0     H  997  13.654  12.294   8.502 -1.5115 -0.1110  2.0689
  732MOL0     H  998  13.235  12.342   8.522  3.1569  1.9235 -1.0100
  732MOL0     H  999  13.032  12.215   8.480  1.0692 -0.1210  0.7485
  732MOL0     H 1000  11.699  11.325   8.032 -1.8370  2.1390  4.0919
  732MOL0     H 1001  11.504  11.194   8.053  3.6660 -0.0428  0.0733
  732MOL0     H 1002  11.010  11.283   7.976  4.9096 -1.3813 -0.4629
  732MOL0     H 1003  10.775  11.215   7.948 -0.2331 -0.3006 -3.3783
  732MOL0     H 1004  10.538  10.838   7.870  0.0472 -2.8030 -0.4609
  732MOL0     H 1005  10.693  10.802   7.812  0.4300 -2.6051  0.7297
  732MOL0     H 1006  10.614  10.787   8.100 -0.9153 -0.8649  0.6989
  732MOL0     H 1007  10.778  10.789   8.069 -2.3683  1.2181  3.0141
  732MOL0     H 1008  10.562  10.593   7.952  0.1701  1.9965 -2.4911
  732MOL0     H 1009  10.737  10.574   7.909 -1.4232 -1.2187 -0.9555
  732MOL0     H 1010  10.651  10.574   8.215  2.0258 -0.1486  1.6458
  732MOL0     H 1011  10.801  10.547   8.150 -1.3003  3.6023  3.4673
  732MOL0     H 1012  10.621  10.156   8.122  1.3351 -0.0801 -3.1855
  732MOL0     H 1013  10.913  10.814   7.866  1.4658 -0.5207  0.1346
  732MOL0     H 1014  11.116  10.775   7.788 -2.1785  1.8035 -1.5197
  732MOL0     H 1015  11.228  10.898   7.752  0.5222 -3.6634 -1.5289
  732MOL0     H 1016  11.244  10.838   7.905  0.4952  0.1082  1.0141
  733MOL0     O 1017   3.888   5.243   7.333  0.4661  0.2448 -0.3358
  733MOL0     C 1018   3.836   5.154   7.399 -1.7753 -0.4041  0.3476
  733MOL0     O 1019   3.766   5.045   7.354 -0.4228 -0.3021 -0.2398
  733MOL0     C 1020   3.738   5.034   7.223 -0.3176 -0.3349  0.4040
  733MOL0     C 1021   3.845   4.984   7.139 -0.2181 -0.4591  0.6958
  733MOL0     C 1022   3.828   4.984   6.999  0.0286  0.9858  0.2409
  733MOL0     C 1023   3.710   5.033   6.945 -0.5307 -0.6390  0.1308
  733MOL0     O 1024   3.691   5.050   6.808  0.3155 -0.1703 -0.6892
  733MOL0     C 1025   3.792   5.033   6.705 -0.0549  0.0435 -0.3323
  733MOL0     C 1026   3.731   5.052   6.565 -0.6506  0.3984 -0.8050
  733MOL0     C 1027   3.580   5.048   6.553 -0.1383  0.2116  0.6993
  733MOL0     C 1028   3.541   5.191   6.584 -0.0262  0.4035 -0.3175
  733MOL0     C 1029   3.395   5.218   6.602 -0.2063  0.0782 -0.2279
  733MOL0     C 1030   3.316   5.218   6.470 -0.0881  0.3154  0.1713
  733MOL0     C 1031   3.159   5.209   6.497 -0.2005 -0.1362 -0.0298
  733MOL0     C 1032   3.083   5.278   6.381 -0.0060  0.6329 -0.1989
  733MOL0     N 1033   2.937   5.244   6.387  0.5161 -0.4272 -0.4129
  733MOL0     C 1034   2.856   5.345   6.416  0.2024  0.2041  0.2261
  733MOL0     C 1035   2.734   5.297   6.405  0.1792  1.1733  0.3008
  733MOL0     C 1036   2.601   5.350   6.446 -0.2833  0.8710  0.3162
  733MOL0     C 1037   2.474   5.285   6.375  0.1540  0.6651  0.8387
  733MOL0     C 1038   2.471   5.298   6.219 -0.7006 -0.2270 -0.2975
  733MOL0     C 1039   2.464   5.440   6.168 -0.3704  0.3565 -0.1940
  733MOL0     O 1040   2.599   5.497   6.162  0.4353 -0.1502  0.2766
  733MOL0     C 1041   2.605   5.627   6.116 -0.6965 -0.5626  0.0931
  733MOL0     C 1042   2.498   5.715   6.112  0.8906 -0.1855  0.6770
  733MOL0     C 1043   2.508   5.850   6.079  0.3853  0.3830 -0.7111
  733MOL0     C 1044   2.379   5.922   6.102  0.5145  0.5827  0.3318
  733MOL0     C 1045   2.632   5.907   6.042 -0.3042 -0.8774 -0.8114
  733MOL0     C 1046   2.653   6.053   6.013  0.1862 -0.2141 -0.6391
  733MOL0     O 1047   2.776   6.093   5.992  1.4114 -0.6059  0.6111
  733MOL0     C 1048   2.802   6.231   5.985  0.4899 -0.1106  0.0061
  733MOL0     C 1049   2.877   6.281   5.888  0.4154  1.1126 -0.1903
  733MOL0     C 1050   2.925   6.415   5.895  0.1710  0.6950  0.2736
  733MOL0     C 1051   2.869   6.516   5.983  0.0936 -0.0851  0.1789
  733MOL0     O 1052   2.918   6.649   5.993 -0.0758 -0.2643 -0.7747
  733MOL0     C 1053   3.042   6.687   5.937  0.5426 -0.1419  0.2840
  733MOL0     C 1054   3.089   6.816   6.002  0.2370 -0.1584  0.4997
  733MOL0     C 1055   2.992   6.924   5.972  0.8111 -0.2916 -0.4575
  733MOL0     C 1056   3.053   7.062   6.006 -0.2238  0.6352  0.9716
  733MOL0     C 1057   3.076   7.075   6.153  1.7687 -0.6798 -1.0391
  733MOL0     C 1058   2.962   7.109   6.242 -0.2246  0.0638 -0.0084
  733MOL0     C 1059   3.003   7.228   6.334  0.4404 -1.0079 -0.5127
  733MOL0     C 1060   3.079   7.177   6.453  0.7510  0.3098 -0.1454
  733MOL0    Cl 1061   3.149   7.314   6.538  0.4116  0.3110 -0.0585
  733MOL0     C 1062   2.776   6.469   6.070 -0.1134 -0.8145 -0.0689
  733MOL0     C 1063   2.751   6.332   6.078 -0.1026  0.7250  0.6937
  733MOL0     O 1064   2.548   6.122   5.998  0.6758  0.0464 -0.7095
  733MOL0     C 1065   2.743   5.828   6.045  0.2687  0.4438 -0.3298
  733MOL0     C 1066   2.733   5.690   6.087 -0.6477 -0.0899 -0.5723
  733MOL0     N 1067   2.749   5.169   6.361  0.9136  1.1277  0.7816
  733MOL0     N 1068   2.870   5.137   6.341  0.2099 -0.1294  0.6320
  733MOL0     C 1069   3.606   5.075   7.023 -0.0024  0.3135  0.5684
  733MOL0     C 1070   3.618   5.069   7.159  0.0140 -0.3133 -0.2557
  733MOL0     C 1071   3.850   5.159   7.544 -0.3692 -0.4914 -0.3433
  733MOL0     C 1072   3.864   5.038   7.614  0.3252  0.9412  0.0200
  733MOL0     C 1073   3.876   5.027   7.749  0.1786 -1.1157 -0.5826
  733MOL0     C 1074   3.907   5.143   7.819  0.3448  0.4714 -0.6171
  733MOL0     O 1075   3.932   5.152   7.956  0.2021 -0.4595 -0.4147
  733MOL0     C 1076   3.962   5.020   8.020  0.1019  0.3823 -0.0111
  733MOL0     C 1077   4.011   5.043   8.162 -0.6558 -0.5362  1.1278
  733MOL0     C 1078   3.900   5.098   8.245 -0.5045  0.0870  0.3320
  733MOL0     C 1079   3.969   5.163   8.369 -0.0815 -0.3821 -0.4157
  733MOL0     C 1080   3.875   5.225   8.460 -0.6586 -0.6191 -0.0770
  733MOL0     C 1081   3.798   5.284   8.531  0.2954  0.0281 -0.4500
  733MOL0     C 1082   3.902   5.266   7.755 -0.2510 -0.5995  0.1107
  733MOL0     C 1083   3.869   5.275   7.620  0.3607 -0.7743 -0.8210
  733MOL0     C 1084   3.843   5.417   7.572  0.4873 -0.1521 -0.2760
  733MOL0     H 1085   3.929   4.933   7.184  0.0258  0.8920  1.8268
  733MOL0     H 1086   3.913   4.956   6.937  0.5882  1.1629  0.9196
  733MOL0     H 1087   3.831   4.934   6.728 -0.2668 -0.4892 -2.0951
  733MOL0     H 1088   3.865   5.110   6.730 -2.0327  1.6545  0.8720
  733MOL0     H 1089   3.767   5.143   6.515 -0.1037 -0.1918 -1.5157
  733MOL0     H 1090   3.779   4.966   6.517 -1.3283 -1.1675  1.2026
  733MOL0     H 1091   3.556   5.040   6.446 -2.5298 -0.3638  1.2159
  733MOL0     H 1092   3.537   4.967   6.613  1.4768 -0.8741  0.4760
  733MOL0     H 1093   3.583   5.226   6.679 -2.2999 -0.9456  1.2976
  733MOL0     H 1094   3.574   5.255   6.503 -2.7350  1.4837 -0.6797
  733MOL0     H 1095   3.376   5.319   6.641 -2.9946 -1.2742  2.2745
  733MOL0     H 1096   3.347   5.142   6.664 -1.2934 -0.7151 -1.9731
  733MOL0     H 1097   3.327   5.309   6.411 -0.7968  1.3198  1.5146
  733MOL0     H 1098   3.341   5.132   6.407 -1.7277 -0.5297  0.6069
  733MOL0     H 1099   3.131   5.259   6.590 -1.6018  1.1451 -1.0915
  733MOL0     H 1100   3.126   5.104   6.499 -1.3104  0.2045  0.3462
  733MOL0     H 1101   3.102   5.386   6.388 -2.8690  1.1164  2.6747
  733MOL0     H 1102   3.126   5.256   6.283  1.2264  2.3575 -0.0889
  733MOL0     H 1103   2.893   5.441   6.451  2.0845 -0.6772  0.7749
  733MOL0     H 1104   2.604   5.458   6.427  0.2290  1.0458  1.3500
  733MOL0     H 1105   2.582   5.322   6.550 -0.9897  0.2875  0.0375
  733MOL0     H 1106   2.486   5.178   6.396  2.9016  0.2610 -1.9524
  733MOL0     H 1107   2.378   5.322   6.410 -0.0307 -0.4053  1.5110
  733MOL0     H 1108   2.566   5.265   6.175  0.4349 -2.1763  3.1958
  733MOL0     H 1109   2.385   5.246   6.176 -0.7019 -1.5154  1.1892
  733MOL0     H 1110   2.412   5.437   6.072 -2.4885 -4.6291  0.7954
  733MOL0     H 1111   2.399   5.498   6.234  2.1191 -0.3184  3.0716
  733MOL0     H 1112   2.400   5.672   6.130 -0.3842  1.7272 -1.1931
  733MOL0     H 1113   2.377   5.992   6.186 -0.1433  0.8126  0.1338
  733MOL0     H 1114   2.290   5.862   6.124  0.3484  0.8899  0.5106
  733MOL0     H 1115   2.350   5.969   6.007  2.3782  0.0570 -0.5321
  733MOL0     H 1116   2.912   6.200   5.824 -1.2887 -1.5862  2.0609
  733MOL0     H 1117   2.995   6.444   5.818 -2.2828 -1.0432 -2.8521
  733MOL0     H 1118   3.117   6.609   5.950 -0.5441 -1.3869 -0.5940
  733MOL0     H 1119   3.030   6.705   5.829 -1.6574 -0.4011  0.4316
  733MOL0     H 1120   3.105   6.797   6.109  3.1674 -2.2787 -0.1759
  733MOL0     H 1121   3.186   6.840   5.958 -0.0119  2.5304  1.2449
  733MOL0     H 1122   2.905   6.902   6.033 -0.3254  0.8181 -1.6131
  733MOL0     H 1123   2.969   6.916   5.865 -0.6446  1.4254 -0.3153
  733MOL0     H 1124   2.989   7.137   5.959 -0.6870 -2.7742 -4.8266
  733MOL0     H 1125   3.154   7.072   5.963 -0.5711  1.5346  0.3359
  733MOL0     H 1126   3.127   6.989   6.198 -1.9442 -1.3283  2.6486
  733MOL0     H 1127   3.142   7.162   6.165 -0.5729  1.0466  0.4199
  733MOL0     H 1128   2.927   7.029   6.308 -0.6796  0.3074  0.0562
  733MOL0     H 1129   2.876   7.145   6.184  0.2745  1.6860  0.1950
  733MOL0     H 1130   2.906   7.266   6.367  0.3540 -0.3710 -1.4762
  733MOL0     H 1131   3.067   7.305   6.291  1.8421 -0.7536  1.8656
  733MOL0     H 1132   3.152   7.108   6.411 -1.1140 -0.2959 -2.6388
  733MOL0     H 1133   3.023   7.116   6.525 -0.4413 -1.0870 -2.1760
  733MOL0     H 1134   2.736   6.534   6.147  0.5796 -0.4447 -0.0159
  733MOL0     H 1135   2.699   6.295   6.166  3.3978 -0.3014  2.5268
  733MOL0     H 1136   2.842   5.857   6.010  0.2605 -1.2425 -1.9462
  733MOL0     H 1137   2.825   5.632   6.084  0.3855  1.4883 -3.3821
  733MOL0     H 1138   3.509   5.097   6.981 -0.1569  0.1732  0.8498
  733MOL0     H 1139   3.529   5.082   7.220 -2.1080  0.9642 -3.3465
  733MOL0     H 1140   3.847   4.946   7.560  3.7488 -0.5447  1.2416
  733MOL0     H 1141   3.875   4.933   7.803  1.4533 -0.5155  0.5370
  733MOL0     H 1142   3.869   4.964   8.011  0.1421  0.0233  1.5155
  733MOL0     H 1143   4.043   4.965   7.972  0.1179  0.5460 -0.1722
  733MOL0     H 1144   4.097   5.110   8.163 -2.9116  2.6617 -0.6473
  733MOL0     H 1145   4.038   4.946   8.206 -0.7640 -0.7173  0.7986
  733MOL0     H 1146   3.838   5.167   8.188 -1.1048  0.6337  1.6149
  733MOL0     H 1147   3.846   5.009   8.279  1.0469 -0.6100  1.1167
  733MOL0     H 1148   4.046   5.238   8.347  1.5569 -1.2106  2.0603
  733MOL0     H 1149   4.023   5.080   8.417 -0.6411 -1.3060 -1.3256
  733MOL0     H 1150   3.738   5.335   8.604  1.9218 -1.0306  1.7297
  733MOL0     H 1151   3.913   5.355   7.816  0.8749  2.4921 -4.1095
  733MOL0     H 1152   3.835   5.485   7.658  1.4207  1.1519 -1.1872
  733MOL0     H 1153   3.925   5.451   7.508 -0.9888  1.7211 -1.2542
  733MOL0     H 1154   3.749   5.435   7.520 -0.1857  1.5060  1.4040
  734MOL0     O 1155  11.451   4.588   8.401 -0.8929 -0.1857  0.5116
  734MOL0     C 1156  11.398   4.578   8.511  0.5147 -0.5303  0.3378
  734MOL0     O 1157  11.472   4.582   8.621 -0.5272 -0.4931 -0.0043
  734MOL0     C 1158  11.598   4.634   8.612  0.5313  0.3690 -0.9367
  734MOL0     C 1159  11.630   4.775   8.599  0.2608  0.9073 -0.2368
  734MOL0     C 1160  11.758   4.830   8.619 -0.4502 -0.2857  1.0281
  734MOL0     C 1161  11.862   4.740   8.665 -0.2137 -0.6057 -0.0709
  734MOL0     O 1162  11.984   4.794   8.696  0.3459 -0.4195  0.3027
  734MOL0     C 1163  12.100   4.713   8.744 -0.5365 -0.4083  1.2010
  734MOL0     C 1164  12.228   4.803   8.756  0.9856  0.3317  0.1704
  734MOL0     C 1165  12.341   4.715   8.799 -0.0443  0.7380  0.4440
  734MOL0     C 1166  12.353   4.710   8.951 -0.4697 -0.1873  0.5949
  734MOL0     C 1167  12.472   4.623   8.988  0.8189  0.0191 -0.3144
  734MOL0     C 1168  12.485   4.624   9.135 -0.8056  0.3927  0.2219
  734MOL0     C 1169  12.624   4.554   9.187  1.0787 -0.5064  0.6810
  734MOL0     C 1170  12.747   4.637   9.173  0.5040  0.2127  0.6652
  734MOL0     N 1171  12.762   4.725   9.292  0.1201 -0.0276 -0.1478
  734MOL0     C 1172  12.693   4.843   9.334 -0.0669  0.1594  1.2038
  734MOL0     C 1173  12.740   4.882   9.456 -0.5353  0.1753 -0.1940
  734MOL0     C 1174  12.717   5.003   9.546  0.1659  0.0964 -0.6464
  734MOL0     C 1175  12.821   5.123   9.536  0.1560  0.2362  0.4150
  734MOL0     C 1176  12.802   5.192   9.401 -0.5337  0.5457 -0.9855
  734MOL0     C 1177  12.888   5.318   9.392 -0.2066 -0.1089  0.5252
  734MOL0     O 1178  12.841   5.423   9.473  0.2256 -0.4835 -0.0665
  734MOL0     C 1179  12.725   5.486   9.438 -0.4908 -0.4033 -0.7022
  734MOL0     C 1180  12.652   5.472   9.320  0.1288 -0.5100  0.9018
  734MOL0     C 1181  12.537   5.539   9.285 -0.1749 -0.3058  0.3826
  734MOL0     C 1182  12.462   5.513   9.156  0.6977  0.2601  0.1701
  734MOL0     C 1183  12.503   5.654   9.371 -0.5891 -0.3826  0.1613
  734MOL0     C 1184  12.409   5.771   9.331  0.0549 -0.2655  0.1145
  734MOL0     O 1185  12.368   5.786   9.202  0.0633 -0.3947 -0.4460
  734MOL0     C 1186  12.241   5.845   9.186 -0.3761 -0.2624 -0.0627
  734MOL0     C 1187  12.227   5.964   9.112 -0.0039  0.0780 -0.0704
  734MOL0     C 1188  12.104   6.018   9.083 -0.6132 -0.1996 -0.0282
  734MOL0     C 1189  11.989   5.965   9.147 -0.3133 -0.0011  0.1989
  734MOL0     O 1190  11.881   6.046   9.136 -0.1293 -0.5820  0.2340
  734MOL0     C 1191  11.772   6.006   9.215  0.2543 -0.0561  0.5733
  734MOL0     C 1192  11.657   6.088   9.168  0.1343 -0.9074 -0.2858
  734MOL0     C 1193  11.521   6.068   9.244  0.5694  0.1533 -0.1496
  734MOL0     C 1194  11.501   6.154   9.370  0.7769 -1.1533 -0.7214
  734MOL0     C 1195  11.383   6.105   9.455 -0.2388  0.6728  0.1018
  734MOL0     C 1196  11.248   6.118   9.392  0.5505  0.3154  0.2014
  734MOL0     C 1197  11.141   6.067   9.486  0.2876  0.0081  0.0915
  734MOL0     C 1198  10.994   6.091   9.441 -0.2766 -0.6184 -0.1058
  734MOL0    Cl 1199  10.960   5.983   9.310  0.2701 -0.1058  0.1165
  734MOL0     C 1200  12.003   5.837   9.219 -0.1783  0.2435 -0.0994
  734MOL0     C 1201  12.126   5.778   9.236 -0.1566 -0.4560 -0.2514
  734MOL0     O 1202  12.383   5.845   9.423  0.2369 -0.4345  0.1130
  734MOL0     C 1203  12.570   5.664   9.492  0.1643  0.2797 -0.1407
  734MOL0     C 1204  12.681   5.588   9.526 -0.3549  0.0562 -0.2882
  734MOL0     N 1205  12.833   4.789   9.485 -0.6014 -0.4624 -0.5097
  734MOL0     N 1206  12.857   4.706   9.392 -0.6212  0.0901 -0.5627
  734MOL0     C 1207  11.835   4.603   8.692 -0.2711  0.1722  0.6375
  734MOL0     C 1208  11.705   4.551   8.669 -0.0829  0.0918 -0.8723
  734MOL0     C 1209  11.252   4.574   8.508  0.1806  0.9261 -0.9668
  734MOL0     C 1210  11.190   4.626   8.617  0.1606 -0.9305  0.0497
  734MOL0     C 1211  11.047   4.633   8.631  0.5672  0.0872  0.0390
  734MOL0     C 1212  10.960   4.577   8.535 -0.3651  0.4903  0.1893
  734MOL0     O 1213  10.827   4.588   8.530 -0.3150  0.4419 -0.0100
  734MOL0     C 1214  10.749   4.524   8.640  0.3666 -0.3085  0.8299
  734MOL0     C 1215  10.783   4.371   8.656 -0.2386 -0.4511 -0.1714
  734MOL0     C 1216  10.736   4.298   8.534  0.0511  0.1887 -0.7626
  734MOL0     C 1217  10.773   4.153   8.532 -1.5903  1.4068 -0.1644
  734MOL0     C 1218  10.716   4.080   8.414  0.8519  0.2878  0.5153
  734MOL0     C 1219  10.663   3.998   8.337  0.1979 -0.2494 -0.8984
  734MOL0     C 1220  11.022   4.519   8.429  0.6310 -0.3665  0.0823
  734MOL0     C 1221  11.162   4.517   8.410  0.6603 -0.7786  0.5291
  734MOL0     C 1222  11.214   4.466   8.281  0.1267  0.1813  0.3794
  734MOL0     H 1223  11.560   4.848   8.559  1.9038  4.5898  2.9995
  734MOL0     H 1224  11.779   4.936   8.614  1.2349 -0.5763  1.4293
  734MOL0     H 1225  12.127   4.629   8.679  0.1195  2.4377 -2.5005
  734MOL0     H 1226  12.078   4.662   8.839  0.2818 -1.8254  0.6599
  734MOL0     H 1227  12.242   4.856   8.662 -2.1404  3.4941  1.2420
  734MOL0     H 1228  12.194   4.886   8.819  0.1746 -0.0535  0.2553
  734MOL0     H 1229  12.350   4.616   8.754 -3.1252 -0.0916  1.4439
  734MOL0     H 1230  12.426   4.765   8.751  0.7699 -1.6812 -0.7961
  734MOL0     H 1231  12.370   4.812   8.987  3.4242  0.4747 -2.4636
  734MOL0     H 1232  12.262   4.661   8.986 -0.3448 -0.3282  0.7243
  734MOL0     H 1233  12.561   4.663   8.939  0.9042  0.5897  0.3009
  734MOL0     H 1234  12.461   4.520   8.950  2.2129 -1.2297  2.3749
  734MOL0     H 1235  12.479   4.725   9.177 -2.1539  0.3451  0.1949
  734MOL0     H 1236  12.395   4.576   9.175 -1.2749  0.5930 -0.5742
  734MOL0     H 1237  12.641   4.469   9.120  1.6787  0.5592 -0.5610
  734MOL0     H 1238  12.613   4.513   9.288  0.8846 -2.2970 -0.0284
  734MOL0     H 1239  12.827   4.565   9.154  1.7320  0.7779  3.2719
  734MOL0     H 1240  12.721   4.700   9.088 -2.3951  2.2543  2.8419
  734MOL0     H 1241  12.627   4.908   9.277  1.4312  1.4349  0.8518
  734MOL0     H 1242  12.696   4.980   9.651  2.9256 -0.9075 -0.2100
  734MOL0     H 1243  12.621   5.044   9.514  0.7973  0.4285 -2.2091
  734MOL0     H 1244  12.799   5.184   9.624 -0.5937 -0.2912  0.6103
  734MOL0     H 1245  12.920   5.080   9.550 -0.2707 -0.4202  1.6524
  734MOL0     H 1246  12.819   5.123   9.318  0.7435 -0.8333  0.3339
  734MOL0     H 1247  12.699   5.228   9.395 -1.1854 -1.0431  0.0218
  734MOL0     H 1248  12.993   5.301   9.419 -0.7604 -1.5608  1.9963
  734MOL0     H 1249  12.879   5.345   9.287 -3.7744  0.0834  0.7721
  734MOL0     H 1250  12.679   5.409   9.235 -1.9589 -0.7711  0.3852
  734MOL0     H 1251  12.473   5.415   9.108  1.8253  0.5849 -0.2849
  734MOL0     H 1252  12.494   5.583   9.077  0.2088 -2.1140 -2.2818
  734MOL0     H 1253  12.356   5.537   9.168  0.5060 -0.2403 -0.4623
  734MOL0     H 1254  12.315   6.009   9.067  0.8276 -0.8392  0.5862
  734MOL0     H 1255  12.086   6.100   9.014  1.8057  1.6194  1.3660
  734MOL0     H 1256  11.738   5.906   9.187 -4.3422  1.7650 -1.2925
  734MOL0     H 1257  11.800   6.018   9.320  2.4617 -0.2731  0.0500
  734MOL0     H 1258  11.701   6.186   9.187  1.6857 -1.7122  0.4479
  734MOL0     H 1259  11.651   6.067   9.060  1.5959 -2.7056 -0.0745
  734MOL0     H 1260  11.503   5.963   9.268 -3.4273  1.1335  2.1071
  734MOL0     H 1261  11.447   6.093   9.167  0.4310  2.1222  0.5661
  734MOL0     H 1262  11.472   6.254   9.336 -2.9904 -2.4120 -1.7032
  734MOL0     H 1263  11.595   6.153   9.425  1.0855 -1.3999 -1.2402
  734MOL0     H 1264  11.398   5.999   9.478 -0.5726 -0.0695 -2.6799
  734MOL0     H 1265  11.377   6.150   9.554 -0.1757 -4.2310  2.6112
  734MOL0     H 1266  11.237   6.063   9.298 -2.1672  2.0229 -0.5878
  734MOL0     H 1267  11.229   6.223   9.373  1.5812  0.3032 -1.0874
  734MOL0     H 1268  11.151   6.117   9.583 -1.4082  3.3596 -1.3013
  734MOL0     H 1269  11.144   5.959   9.502 -2.9875 -0.0110  1.3475
  734MOL0     H 1270  10.980   6.195   9.409  0.3588 -0.7129 -0.6927
  734MOL0     H 1271  10.914   6.079   9.515  0.7983  0.3930  1.2780
  734MOL0     H 1272  11.921   5.766   9.219  0.1840 -0.2475 -2.1145
  734MOL0     H 1273  12.135   5.676   9.273 -0.5336 -0.7210 -0.8695
  734MOL0     H 1274  12.555   5.748   9.558  2.4868  0.6987 -0.0618
  734MOL0     H 1275  12.728   5.590   9.624  1.2537 -1.3592 -0.9786
  734MOL0     H 1276  11.904   4.539   8.746 -1.1292  0.0071  1.5727
  734MOL0     H 1277  11.681   4.450   8.699  2.4384 -0.6705 -1.2671
  734MOL0     H 1278  11.248   4.664   8.700  1.6832  1.1013 -1.8363
  734MOL0     H 1279  10.989   4.671   8.714 -1.4727  0.4006 -1.4496
  734MOL0     H 1280  10.764   4.585   8.729 -1.2558 -0.1358  1.0211
  734MOL0     H 1281  10.645   4.531   8.606  0.9381  1.2767 -0.7104
  734MOL0     H 1282  10.711   4.337   8.731 -2.3082 -1.3087 -2.4123
  734MOL0     H 1283  10.885   4.350   8.690 -0.5819 -2.1284 -0.0659
  734MOL0     H 1284  10.627   4.310   8.525  0.2452  0.4978 -4.7739
  734MOL0     H 1285  10.780   4.353   8.450  1.8280 -0.8238 -0.5375
  734MOL0     H 1286  10.734   4.109   8.624  1.9154 -1.1483  0.3161
  734MOL0     H 1287  10.881   4.141   8.538 -1.7089  0.4968  0.2550
  734MOL0     H 1288  10.607   3.932   8.274 -1.3345  1.7387 -1.7375
  734MOL0     H 1289  10.952   4.461   8.369 -1.1110  0.7432  0.9605
  734MOL0     H 1290  11.289   4.532   8.234  0.7438  0.4781  1.7458
  734MOL0     H 1291  11.263   4.369   8.291 -0.8762 -0.5881 -1.5774
  734MOL0     H 1292  11.134   4.451   8.208  2.6286  1.3673 -2.9098
  735MOL0     O 1293  10.058   6.928   6.669 -0.1665 -0.1827  0.4125
  735MOL0     C 1294  10.091   6.991   6.570 -0.6422  0.5006  0.4571
  735MOL0     O 1295  10.108   6.934   6.445 -0.1782  0.1383  0.3793
  735MOL0     C 1296  10.039   6.815   6.431 -0.8211 -0.1391 -0.5794
  735MOL0     C 1297   9.907   6.801   6.379 -0.4053 -0.0960 -0.7337
  735MOL0     C 1298   9.845   6.676   6.373 -0.2211 -0.5774  0.2089
  735MOL0     C 1299   9.925   6.556   6.396  0.0746 -0.3550  0.5938
  735MOL0     O 1300   9.876   6.429   6.390 -0.1179  0.1921  0.1451
  735MOL0     C 1301   9.791   6.401   6.271 -0.4132  0.0926 -0.0173
  735MOL0     C 1302   9.651   6.355   6.311  0.0598  0.7343  0.3760
  735MOL0     C 1303   9.577   6.455   6.397 -0.2492 -0.8696 -0.5994
  735MOL0     C 1304   9.430   6.404   6.433 -0.8598 -0.9186 -0.1834
  735MOL0     C 1305   9.344   6.525   6.485 -0.2319  0.7568 -0.2088
  735MOL0     C 1306   9.414   6.615   6.591  0.7498 -0.4125  0.7023
  735MOL0     C 1307   9.314   6.631   6.712 -1.1290 -0.9565 -0.0129
  735MOL0     C 1308   9.386   6.711   6.827  0.1727  0.2052  0.3755
  735MOL0     N 1309   9.417   6.852   6.797  0.7457 -0.6751 -0.9804
  735MOL0     C 1310   9.323   6.952   6.804 -0.1305 -0.7604  0.8014
  735MOL0     C 1311   9.399   7.065   6.794  0.6095 -0.5808  0.2158
  735MOL0     C 1312   9.340   7.204   6.792 -0.4616  0.3214  0.4221
  735MOL0     C 1313   9.428   7.287   6.891  0.4171 -0.4367  0.3329
  735MOL0     C 1314   9.517   7.374   6.797 -0.1635  0.3266  0.6299
  735MOL0     C 1315   9.634   7.442   6.872 -0.0967 -0.2814  0.1075
  735MOL0     O 1316   9.714   7.331   6.920  0.6511 -0.0576  0.2146
  735MOL0     C 1317   9.779   7.354   7.043  0.2075 -0.7577  0.6459
  735MOL0     C 1318   9.751   7.291   7.160  0.7958 -0.6141  0.4059
  735MOL0     C 1319   9.800   7.340   7.284  0.0919 -0.5058 -0.5206
  735MOL0     C 1320   9.761   7.257   7.406  0.6260 -0.2407 -0.7335
  735MOL0     C 1321   9.889   7.443   7.292  0.9113 -0.0328 -0.1898
  735MOL0     C 1322   9.946   7.490   7.427 -0.9485 -0.0124  1.7649
  735MOL0     O 1323  10.071   7.548   7.417  0.0683 -0.3682 -0.2260
  735MOL0     C 1324  10.118   7.615   7.521  0.7084  0.0814 -0.2134
  735MOL0     C 1325  10.174   7.547   7.626 -0.3211 -0.5360 -0.4352
  735MOL0     C 1326  10.220   7.618   7.738 -0.2595  0.0658  0.1644
  735MOL0     C 1327  10.223   7.765   7.746 -0.9572  0.0665 -0.7545
  735MOL0     O 1328  10.277   7.840   7.849 -0.0863 -0.2583  0.3688
  735MOL0     C 1329  10.244   7.797   7.981  0.2492  0.0979 -0.4156
  735MOL0     C 1330  10.351   7.807   8.088  0.5823  0.2671  0.1373
  735MOL0     C 1331  10.467   7.713   8.060  0.7193  0.4478 -0.1189
  735MOL0     C 1332  10.453   7.568   8.104  0.5864 -0.0455  0.5125
  735MOL0     C 1333  10.589   7.494   8.073  0.3390 -0.0229  0.1531
  735MOL0     C 1334  10.587   7.343   8.087  0.0091 -0.4467  0.5519
  735MOL0     C 1335  10.712   7.269   8.030 -0.0864  0.5296  0.2112
  735MOL0     C 1336  10.691   7.119   8.015  0.0210 -1.2839 -0.0729
  735MOL0    Cl 1337  10.831   7.040   7.944  0.5741  0.3344  0.2005
  735MOL0     C 1338  10.168   7.834   7.637 -0.4123 -0.1709 -0.1105
  735MOL0     C 1339  10.112   7.758   7.535 -0.2417 -0.9883  0.0144
  735MOL0     O 1340   9.866   7.496   7.519 -0.3749  0.6353 -0.3629
  735MOL0     C 1341   9.935   7.496   7.168  0.1964  1.0099 -0.3733
  735MOL0     C 1342   9.875   7.451   7.041 -0.5162  0.4095 -0.1734
  735MOL0     N 1343   9.535   7.030   6.784  0.1460 -0.5596  0.8032
  735MOL0     N 1344   9.538   6.904   6.787 -0.6093 -0.2680 -0.5854
  735MOL0     C 1345  10.057   6.583   6.446  0.1389  0.3934  0.3112
  735MOL0     C 1346  10.111   6.704   6.463 -0.0117 -0.0471 -0.9646
  735MOL0     C 1347  10.131   7.129   6.583 -0.5166 -0.4523  0.8566
  735MOL0     C 1348  10.265   7.172   6.548 -0.0180  0.2389 -0.3717
  735MOL0     C 1349  10.314   7.295   6.570  0.5100  1.1538 -0.0310
  735MOL0     C 1350  10.234   7.390   6.643  0.0962 -0.0907 -0.7585
  735MOL0     O 1351  10.282   7.524   6.668  0.3028  0.6878 -0.3314
  735MOL0     C 1352  10.206   7.598   6.766 -0.5559 -0.6079 -0.7853
  735MOL0     C 1353  10.291   7.727   6.776  0.4485  0.3627 -0.1831
  735MOL0     C 1354  10.280   7.799   6.909  0.5774 -0.1308 -0.3492
  735MOL0     C 1355  10.150   7.885   6.905  0.1223 -0.1832 -0.5833
  735MOL0     C 1356  10.124   7.947   7.037 -1.2105  0.1464 -0.8487
  735MOL0     C 1357  10.126   7.995   7.142  0.8816 -0.2716 -0.3229
  735MOL0     C 1358  10.100   7.353   6.670 -0.2497  0.3730 -0.8802
  735MOL0     C 1359  10.052   7.226   6.634  1.0005  0.6423 -0.2468
  735MOL0     C 1360   9.903   7.198   6.670 -1.5328 -0.4367  0.1764
  735MOL0     H 1361   9.851   6.889   6.351 -0.1961  0.4267  0.4325
  735MOL0     H 1362   9.741   6.675   6.343  0.3070  1.5580 -2.0723
  735MOL0     H 1363   9.833   6.319   6.212 -0.7363  0.7930 -1.2815
  735MOL0     H 1364   9.789   6.495   6.215 -0.3015  0.8045  1.1558
  735MOL0     H 1365   9.592   6.323   6.225  0.6397 -0.0439  0.2569
  735MOL0     H 1366   9.675   6.266   6.369 -1.3275 -0.7759 -1.2634
  735MOL0     H 1367   9.630   6.474   6.491 -1.3050  1.2768 -0.3709
  735MOL0     H 1368   9.564   6.555   6.355 -3.7051 -0.5602  0.8847
  735MOL0     H 1369   9.374   6.356   6.352 -0.7812  1.4344 -1.7217
  735MOL0     H 1370   9.433   6.331   6.514  1.2569  1.0944  1.7115
  735MOL0     H 1371   9.250   6.478   6.514  0.8366 -0.9739  0.6671
  735MOL0     H 1372   9.333   6.590   6.398 -0.9827 -0.9369 -1.4267
  735MOL0     H 1373   9.506   6.566   6.623  0.1573 -0.9632  1.6011
  735MOL0     H 1374   9.451   6.712   6.557 -1.9621  0.4981  0.1139
  735MOL0     H 1375   9.291   6.538   6.764  3.1807 -1.6198  1.0932
  735MOL0     H 1376   9.226   6.685   6.675  0.2292  1.4119 -0.0195
  735MOL0     H 1377   9.320   6.696   6.913  2.2281 -4.1755  1.4671
  735MOL0     H 1378   9.483   6.669   6.855  2.0986  2.4275 -2.4614
  735MOL0     H 1379   9.215   6.949   6.806 -0.3403 -1.9060 -3.6196
  735MOL0     H 1380   9.236   7.195   6.824 -0.8349 -2.0831 -1.1383
  735MOL0     H 1381   9.332   7.251   6.693 -1.4711  0.0787  0.3809
  735MOL0     H 1382   9.368   7.353   6.955 -1.1020  1.5970 -2.9360
  735MOL0     H 1383   9.482   7.226   6.964 -1.9335 -0.3160  2.3376
  735MOL0     H 1384   9.560   7.320   6.713 -0.7094  0.0901  0.5007
  735MOL0     H 1385   9.457   7.459   6.761  1.6104  1.0289 -0.7942
  735MOL0     H 1386   9.698   7.509   6.815  2.2895  0.8566  3.7745
  735MOL0     H 1387   9.602   7.496   6.961 -0.9188  0.8069 -0.8143
  735MOL0     H 1388   9.676   7.213   7.166 -2.1453  1.7016 -2.4077
  735MOL0     H 1389   9.663   7.292   7.440  0.4109 -0.4330 -1.1426
  735MOL0     H 1390   9.832   7.267   7.488 -2.6608  0.1589  2.2794
  735MOL0     H 1391   9.747   7.152   7.377  0.8860 -0.5052  0.0804
  735MOL0     H 1392  10.173   7.439   7.635  1.3712 -0.6212 -0.9368
  735MOL0     H 1393  10.273   7.577   7.823  2.4705  2.4920 -0.2214
  735MOL0     H 1394  10.158   7.836   8.036 -0.6322 -0.5859 -1.2749
  735MOL0     H 1395  10.208   7.694   7.977 -0.1205  0.2198 -0.3413
  735MOL0     H 1396  10.378   7.913   8.080  1.3493 -0.0330 -1.8436
  735MOL0     H 1397  10.307   7.791   8.187 -1.1023 -0.2918 -0.6667
  735MOL0     H 1398  10.551   7.756   8.114  0.8562  1.7625 -1.3170
  735MOL0     H 1399  10.491   7.715   7.953  2.4762 -2.5839  0.1062
  735MOL0     H 1400  10.371   7.523   8.048 -1.5406  2.0912  1.7212
  735MOL0     H 1401  10.441   7.558   8.213  0.6611  1.1071  0.6399
  735MOL0     H 1402  10.610   7.515   7.968 -0.9909  0.8559  0.0381
  735MOL0     H 1403  10.666   7.530   8.142 -0.8731  0.8343  1.1169
  735MOL0     H 1404  10.505   7.292   8.036  3.0778 -2.9700 -2.2841
  735MOL0     H 1405  10.590   7.313   8.192  0.0928 -0.9729  0.3986
  735MOL0     H 1406  10.793   7.289   8.101 -0.8490 -0.9589  1.5789
  735MOL0     H 1407  10.732   7.316   7.933  0.0859 -1.4897 -0.7875
  735MOL0     H 1408  10.601   7.108   7.954 -2.2927  1.8254  2.4587
  735MOL0     H 1409  10.681   7.078   8.116  0.3537  2.4176  1.6177
  735MOL0     H 1410  10.167   7.943   7.631 -0.0995 -0.1223  0.6115
  735MOL0     H 1411  10.060   7.811   7.456  2.8837  3.7825  0.7448
  735MOL0     H 1412  10.023   7.560   7.172 -1.0717  2.7432  1.6619
  735MOL0     H 1413   9.909   7.495   6.948  0.1028  2.4233  0.9480
  735MOL0     H 1414  10.111   6.492   6.473 -1.6491 -0.8455 -0.1317
  735MOL0     H 1415  10.208   6.722   6.507  0.2665  1.0266 -1.9699
  735MOL0     H 1416  10.342   7.100   6.520  0.8474  1.3483 -0.9045
  735MOL0     H 1417  10.414   7.318   6.534  1.8036  1.2421  3.2364
  735MOL0     H 1418  10.107   7.621   6.726 -1.8327 -1.5226  1.5913
  735MOL0     H 1419  10.191   7.553   6.865  2.2549  1.9572  1.0160
  735MOL0     H 1420  10.267   7.796   6.695 -0.2268  1.7373  1.1392
  735MOL0     H 1421  10.399   7.709   6.773  0.5673  1.0158  0.0115
  735MOL0     H 1422  10.276   7.735   6.998 -0.3788 -0.1466 -0.3965
  735MOL0     H 1423  10.357   7.876   6.913  0.3490  0.3376 -2.9427
  735MOL0     H 1424  10.062   7.828   6.872 -0.7607 -0.6197  2.2315
  735MOL0     H 1425  10.160   7.962   6.829  0.4106  3.1465  2.5630
  735MOL0     H 1426  10.118   8.019   7.246 -4.7617 -0.9832 -0.2790
  735MOL0     H 1427  10.042   7.424   6.728  0.2123  1.1232 -1.3227
  735MOL0     H 1428   9.839   7.284   6.691 -1.4860  0.4403 -2.7888
  735MOL0     H 1429   9.852   7.153   6.584 -2.4317  1.0769 -0.1217
  735MOL0     H 1430   9.908   7.123   6.749  2.2111  0.9437  1.5010
  736MOL0     O 1431   7.770   9.712   6.691 -0.1988 -0.1990 -0.4834
  736MOL0     C 1432   7.846   9.735   6.782 -0.6653  0.7203 -0.2879
  736MOL0     O 1433   7.925   9.642   6.840 -0.4106 -0.6825 -0.3008
  736MOL0     C 1434   7.949   9.515   6.784 -0.3540 -0.0807 -0.0134
  736MOL0     C 1435   7.986   9.411   6.877 -0.5738  0.5901  0.0384
  736MOL0     C 1436   8.013   9.282   6.825  0.1942  0.2160  0.0073
  736MOL0     C 1437   8.018   9.254   6.686 -0.7126  0.5949  0.3449
  736MOL0     O 1438   8.064   9.139   6.629 -0.3163 -0.2473 -0.1088
  736MOL0     C 1439   8.160   9.062   6.707  0.9564  0.8248  0.0978
  736MOL0     C 1440   8.295   9.135   6.707  0.3847  0.2984  0.2034
  736MOL0     C 1441   8.322   9.205   6.561 -0.7045 -0.6167 -1.1016
  736MOL0     C 1442   8.470   9.237   6.534  0.7606 -0.5056  0.0588
  736MOL0     C 1443   8.486   9.265   6.385  1.0809  0.0277 -0.1044
  736MOL0     C 1444   8.427   9.396   6.333 -0.1085 -2.0425 -0.8987
  736MOL0     C 1445   8.458   9.410   6.185  0.2273  0.3697  0.7399
  736MOL0     C 1446   8.378   9.532   6.131  0.2429 -0.3031  0.3728
  736MOL0     N 1447   8.425   9.550   5.993  0.5088  0.0179 -1.1511
  736MOL0     C 1448   8.533   9.488   5.929  0.2698 -1.1858  0.6950
  736MOL0     C 1449   8.525   9.540   5.802 -0.2189 -0.4224 -0.1689
  736MOL0     C 1450   8.621   9.494   5.693 -0.4537 -0.8793 -0.7129
  736MOL0     C 1451   8.760   9.480   5.763  0.2406  0.2352 -0.0782
  736MOL0     C 1452   8.834   9.607   5.773 -0.6472 -0.6621 -0.4287
  736MOL0     C 1453   8.965   9.607   5.865  0.3584 -0.2146  0.3648
  736MOL0     O 1454   9.016   9.734   5.896 -1.1791  0.0765  0.0851
  736MOL0     C 1455   9.102   9.786   5.798  0.5725  0.6004 -0.1369
  736MOL0     C 1456   9.218   9.731   5.757 -0.3239  0.5100  0.0007
  736MOL0     C 1457   9.295   9.767   5.647  0.1077  0.5791  0.2064
  736MOL0     C 1458   9.412   9.690   5.605 -0.1319  0.2857  0.4926
  736MOL0     C 1459   9.242   9.874   5.570 -0.3021 -0.5667  0.2951
  736MOL0     C 1460   9.320   9.942   5.464 -1.0500  0.0486  0.4164
  736MOL0     O 1461   9.428   9.872   5.405  0.3765 -0.2780  0.1064
  736MOL0     C 1462   9.500   9.905   5.293  0.9374 -0.2637  0.5626
  736MOL0     C 1463   9.589   9.807   5.252  0.4103 -0.4677 -0.2952
  736MOL0     C 1464   9.676   9.821   5.153  0.3926  0.8172  0.4579
  736MOL0     C 1465   9.688   9.943   5.090  0.3496  0.1019 -0.5517
  736MOL0     O 1466   9.770   9.957   4.980 -0.8449  0.2785  0.8753
  736MOL0     C 1467   9.838  10.081   4.959 -0.4449 -0.8987 -0.3925
  736MOL0     C 1468   9.881  10.097   4.812 -0.6619  0.9895  0.1490
  736MOL0     C 1469   9.755  10.136   4.723  0.9073  0.0207 -0.2557
  736MOL0     C 1470   9.798  10.129   4.568 -0.6731 -0.8698 -0.8806
  736MOL0     C 1471   9.680  10.157   4.483  0.0338  0.4287  0.7472
  736MOL0     C 1472   9.720  10.145   4.327 -0.1059 -0.3364 -0.2980
  736MOL0     C 1473   9.589  10.181   4.249  0.6202  0.6621  0.4107
  736MOL0     C 1474   9.614  10.197   4.092  0.6773  0.2003 -0.1182
  736MOL0    Cl 1475   9.469  10.218   3.989 -0.0402  0.3021 -0.4750
  736MOL0     C 1476   9.592  10.041   5.123 -1.3928  0.0155 -0.2133
  736MOL0     C 1477   9.499  10.025   5.230 -0.1630 -0.0387 -0.0431
  736MOL0     O 1478   9.294  10.059   5.446  0.6408 -0.5721  0.0278
  736MOL0     C 1479   9.122   9.928   5.604  0.2172  0.8044  0.3417
  736MOL0     C 1480   9.058   9.887   5.726 -0.0875 -0.2302 -0.6432
  736MOL0     N 1481   8.432   9.645   5.802  0.2999  0.0120 -0.5856
  736MOL0     N 1482   8.380   9.652   5.919  1.5371 -0.0450  0.8519
  736MOL0     C 1483   7.977   9.356   6.605 -0.4872 -0.6388  0.5759
  736MOL0     C 1484   7.945   9.486   6.647 -0.2082 -0.0174  0.3516
  736MOL0     C 1485   7.816   9.859   6.855  0.9799  0.3218  0.8534
  736MOL0     C 1486   7.688   9.900   6.879 -0.7201  0.3029 -0.1950
  736MOL0     C 1487   7.656  10.013   6.956  0.3465 -0.5869 -0.5101
  736MOL0     C 1488   7.756  10.087   7.005 -0.6337  0.0793 -0.0406
  736MOL0     O 1489   7.722  10.194   7.077  0.1708 -0.6816 -0.1339
  736MOL0     C 1490   7.704  10.182   7.220 -0.1553  0.1364 -0.1307
  736MOL0     C 1491   7.563  10.119   7.244 -0.1362 -0.6663 -0.3827
  736MOL0     C 1492   7.546  10.093   7.398 -0.2719 -0.5395  0.5997
  736MOL0     C 1493   7.428  10.174   7.447  0.6620  0.3924  0.2746
  736MOL0     C 1494   7.299  10.143   7.394  0.8348 -0.0321  0.0359
  736MOL0     C 1495   7.196  10.106   7.361 -0.0736 -0.0149  0.5899
  736MOL0     C 1496   7.888  10.060   6.977  0.0223  0.2408  0.6408
  736MOL0     C 1497   7.918   9.937   6.904 -0.4666 -0.4811 -0.4416
  736MOL0     C 1498   8.060   9.905   6.858 -0.2296 -0.2119 -0.0043
  736MOL0     H 1499   7.979   9.423   6.985 -0.9803 -1.5505  0.3026
  736MOL0     H 1500   8.040   9.200   6.891  0.3644 -0.2319 -0.6092
  736MOL0     H 1501   8.186   8.967   6.661  1.0131  1.1790 -0.6134
  736MOL0     H 1502   8.127   9.033   6.808  1.6060 -1.0780 -0.1945
  736MOL0     H 1503   8.298   9.215   6.781  0.0530 -0.7643  1.4023
  736MOL0     H 1504   8.376   9.065   6.730  0.0621 -0.6498 -1.4158
  736MOL0     H 1505   8.283   9.141   6.482  0.7437 -1.0934 -1.4615
  736MOL0     H 1506   8.277   9.305   6.564  0.0706 -0.2732 -0.0964
  736MOL0     H 1507   8.510   9.323   6.589 -3.7235  1.2723  0.9109
  736MOL0     H 1508   8.518   9.141   6.557 -3.1729 -3.3093 -2.3148
  736MOL0     H 1509   8.434   9.183   6.335  1.7558 -1.1667  1.0999
  736MOL0     H 1510   8.594   9.266   6.364  0.4482  0.3210 -4.2160
  736MOL0     H 1511   8.318   9.390   6.336 -0.1812 -0.9321  1.6664
  736MOL0     H 1512   8.453   9.483   6.394 -0.8758 -4.0373  2.5381
  736MOL0     H 1513   8.433   9.315   6.137 -2.5279  0.9985  0.7368
  736MOL0     H 1514   8.561   9.443   6.171  0.4801 -0.9839 -0.8323
  736MOL0     H 1515   8.271   9.510   6.144  0.6822 -1.3109  2.7394
  736MOL0     H 1516   8.394   9.625   6.186  0.9125 -0.6925  0.8520
  736MOL0     H 1517   8.589   9.400   5.961  1.9307  0.0632  1.3313
  736MOL0     H 1518   8.628   9.561   5.607  2.0622  1.0501  0.8736
  736MOL0     H 1519   8.576   9.399   5.662 -0.1783 -1.7433  1.3913
  736MOL0     H 1520   8.749   9.433   5.861 -2.7045  0.9059  0.0001
  736MOL0     H 1521   8.827   9.418   5.703  2.8805  0.4283  2.4465
  736MOL0     H 1522   8.856   9.641   5.671 -1.8084  3.6858  0.5289
  736MOL0     H 1523   8.771   9.687   5.814  2.2297  2.5889 -1.7647
  736MOL0     H 1524   8.943   9.559   5.960  0.4190  0.7265  0.8633
  736MOL0     H 1525   9.045   9.545   5.823  0.3285  0.6585 -1.0319
  736MOL0     H 1526   9.255   9.642   5.809  1.2952  1.9990  1.5348
  736MOL0     H 1527   9.376   9.623   5.526  1.5661 -0.0113 -0.0706
  736MOL0     H 1528   9.448   9.627   5.687 -0.9263  0.8772  1.3229
  736MOL0     H 1529   9.498   9.749   5.573 -1.3224  2.2225  0.7041
  736MOL0     H 1530   9.587   9.719   5.315 -0.5214  1.1757  2.0915
  736MOL0     H 1531   9.743   9.741   5.123  2.0935  1.0957  3.2071
  736MOL0     H 1532   9.773  10.162   4.996 -0.2962 -1.2081  0.5656
  736MOL0     H 1533   9.928  10.086   5.020  1.1357  0.8832 -2.7061
  736MOL0     H 1534   9.959  10.173   4.807  1.0877 -0.6384  1.0331
  736MOL0     H 1535   9.929  10.002   4.785 -1.0408 -0.5534  4.3073
  736MOL0     H 1536   9.708  10.228   4.758  4.1378  1.4998  0.6041
  736MOL0     H 1537   9.684  10.054   4.740  2.5808 -1.4939 -0.1946
  736MOL0     H 1538   9.845  10.031   4.553  0.9473 -0.4675  1.1031
  736MOL0     H 1539   9.876  10.205   4.555 -1.0949 -0.3095 -0.1702
  736MOL0     H 1540   9.604  10.080   4.499 -0.1652  0.7860  1.5646
  736MOL0     H 1541   9.634  10.252   4.512 -1.8643 -0.8008  1.9581
  736MOL0     H 1542   9.761  10.046   4.308 -0.1632 -0.0949 -1.8291
  736MOL0     H 1543   9.800  10.217   4.305 -0.5026 -0.2400 -1.4663
  736MOL0     H 1544   9.548  10.275   4.290 -2.0633  0.1508 -0.8516
  736MOL0     H 1545   9.515  10.101   4.246  1.3224  0.0219 -0.0208
  736MOL0     H 1546   9.677  10.113   4.062 -1.3603 -0.1528 -4.0986
  736MOL0     H 1547   9.683  10.281   4.083  0.6030  0.5682  2.0630
  736MOL0     H 1548   9.574  10.131   5.065 -2.1644  0.0134  0.0126
  736MOL0     H 1549   9.422  10.094   5.263  0.1743 -1.0616  3.2995
  736MOL0     H 1550   9.069  10.012   5.561 -0.3060  0.2289 -0.1531
  736MOL0     H 1551   8.960   9.927   5.752 -1.1559 -2.0253 -1.6645
  736MOL0     H 1552   7.991   9.351   6.497  0.5312 -2.1614  0.7536
  736MOL0     H 1553   7.915   9.561   6.574 -1.8738  0.0186  1.0333
  736MOL0     H 1554   7.613   9.832   6.843 -1.1750 -0.3061  1.7928
  736MOL0     H 1555   7.553  10.044   6.965  1.0491  2.0863 -0.7863
  736MOL0     H 1556   7.779  10.119   7.269 -0.4057 -2.1458 -2.4738
  736MOL0     H 1557   7.717  10.281   7.267 -1.1921 -0.0230  0.5382
  736MOL0     H 1558   7.568  10.022   7.193  0.3910 -0.3840 -0.8779
  736MOL0     H 1559   7.487  10.188   7.208  0.9161  2.2812  2.5362
  736MOL0     H 1560   7.542   9.991   7.437  0.8939 -0.5387  0.7754
  736MOL0     H 1561   7.638  10.126   7.447  0.9880 -1.0947 -1.2881
  736MOL0     H 1562   7.453  10.278   7.425 -0.7887  0.4830 -1.1772
  736MOL0     H 1563   7.429  10.152   7.554 -1.0688  0.9872  0.4400
  736MOL0     H 1564   7.100  10.073   7.327 -0.2829  1.5903 -0.4414
  736MOL0     H 1565   7.963  10.133   7.005 -1.8458  1.5101  2.7134
  736MOL0     H 1566   8.074   9.801   6.887  2.0475 -0.0036 -0.1031
  736MOL0     H 1567   8.078   9.920   6.751  1.0494  2.1696  0.4681
  736MOL0     H 1568   8.134   9.963   6.914  1.8917 -0.1127 -2.6717
  737MOL0     O 1569   8.607   7.935   1.082  0.7016 -0.0219  0.3685
  737MOL0     C 1570   8.697   8.001   1.030  0.4357 -0.4447 -0.1860
  737MOL0     O 1571   8.682   8.112   0.954 -0.0431  0.3681  0.0908
  737MOL0     C 1572   8.553   8.130   0.907 -0.2377  0.0566 -0.5743
  737MOL0     C 1573   8.519   8.087   0.778 -0.7644  0.7916  0.1667
  737MOL0     C 1574   8.389   8.107   0.726  0.5177  0.3718  0.1620
  737MOL0     C 1575   8.296   8.170   0.811  0.4107 -0.3373  0.0818
  737MOL0     O 1576   8.165   8.195   0.767 -0.1636 -0.2142  0.7000
  737MOL0     C 1577   8.065   8.193   0.864  0.4435 -0.4178 -0.3969
  737MOL0     C 1578   8.010   8.327   0.904 -0.6267 -0.4069 -0.4150
  737MOL0     C 1579   7.954   8.399   0.781  0.0786 -0.3210 -0.5240
  737MOL0     C 1580   7.962   8.546   0.806 -0.1051 -0.1516 -0.1028
  737MOL0     C 1581   7.863   8.599   0.909  0.5591 -0.0244  0.4363
  737MOL0     C 1582   7.718   8.587   0.850 -1.3556  0.0483  1.5896
  737MOL0     C 1583   7.618   8.655   0.944  0.4002 -0.9303  0.5306
  737MOL0     C 1584   7.470   8.643   0.906 -0.9362  0.1327 -0.0403
  737MOL0     N 1585   7.375   8.728   0.980  0.3397 -0.8642  0.1517
  737MOL0     C 1586   7.385   8.755   1.108 -1.1708  0.2287  0.4134
  737MOL0     C 1587   7.290   8.835   1.141  0.4799 -0.0975 -0.2907
  737MOL0     C 1588   7.269   8.903   1.277  0.3849  0.5824  1.0588
  737MOL0     C 1589   7.336   9.037   1.285 -0.5695  0.3757  0.2823
  737MOL0     C 1590   7.481   9.040   1.252  0.4716  0.8406 -0.9900
  737MOL0     C 1591   7.566   8.946   1.332  0.1194 -0.5038 -0.1559
  737MOL0     O 1592   7.707   8.965   1.316 -0.0857 -0.1428 -0.3044
  737MOL0     C 1593   7.778   8.843   1.299 -0.8584  0.4104 -0.8880
  737MOL0     C 1594   7.751   8.716   1.332  1.6150  0.9524 -0.1726
  737MOL0     C 1595   7.832   8.605   1.309 -0.9353  0.8153  0.3603
  737MOL0     C 1596   7.786   8.462   1.311  0.3253  0.1625 -0.1469
  737MOL0     C 1597   7.959   8.622   1.256 -0.2523  0.1641 -1.6056
  737MOL0     C 1598   8.061   8.511   1.231  0.6445 -0.2035 -0.2674
  737MOL0     O 1599   8.068   8.404   1.312  0.4700  0.5688 -0.2276
  737MOL0     C 1600   8.177   8.322   1.302 -0.9759  0.2296  0.9219
  737MOL0     C 1601   8.169   8.186   1.264 -0.3673 -0.0289 -0.4172
  737MOL0     C 1602   8.268   8.103   1.300  0.3781  0.3266 -0.1024
  737MOL0     C 1603   8.393   8.144   1.353  0.6324  0.7593  0.3534
  737MOL0     O 1604   8.484   8.038   1.355  0.2080  0.2079 -0.2126
  737MOL0     C 1605   8.622   8.072   1.374  0.7808  0.0860  0.5502
  737MOL0     C 1606   8.653   8.123   1.507 -0.4060 -0.7622 -1.0684
  737MOL0     C 1607   8.784   8.192   1.522 -0.9917  0.0270  0.4706
  737MOL0     C 1608   8.787   8.331   1.473  0.4790 -0.1638  0.4273
  737MOL0     C 1609   8.934   8.385   1.457 -0.0864 -0.3842 -0.3181
  737MOL0     C 1610   9.005   8.329   1.330 -0.1952  0.7962 -0.1694
  737MOL0     C 1611   9.159   8.355   1.327  0.0476  0.7285  0.6147
  737MOL0     C 1612   9.240   8.268   1.417 -0.2043  0.1035 -0.3484
  737MOL0    Cl 1613   9.415   8.276   1.399  0.0196  0.4772  0.4483
  737MOL0     C 1614   8.406   8.280   1.384 -0.9107  0.6950  0.3369
  737MOL0     C 1615   8.302   8.369   1.365  1.0180  0.4571 -0.1014
  737MOL0     O 1616   8.149   8.537   1.153  0.6104 -1.2027 -0.1141
  737MOL0     C 1617   7.994   8.753   1.223  0.3060  0.4498 -0.0672
  737MOL0     C 1618   7.910   8.866   1.241 -0.4423  0.7180 -0.3821
  737MOL0     N 1619   7.217   8.859   1.030  0.0970 -0.0881  0.7862
  737MOL0     N 1620   7.268   8.793   0.933 -0.3881  0.0973  0.3372
  737MOL0     C 1621   8.337   8.215   0.935  0.9670 -0.4720  0.6452
  737MOL0     C 1622   8.463   8.195   0.987  0.5062  0.9159  0.4459
  737MOL0     C 1623   8.829   7.966   1.091 -0.6540  0.6263  0.2829
  737MOL0     C 1624   8.940   8.057   1.063  0.6600  1.0860 -0.0727
  737MOL0     C 1625   9.069   8.016   1.111 -0.1932  0.2074  0.2856
  737MOL0     C 1626   9.091   7.895   1.180  0.8314 -0.1811  0.5324
  737MOL0     O 1627   9.206   7.869   1.247  0.7644 -0.0585  0.7945
  737MOL0     C 1628   9.319   7.951   1.210 -0.1927 -0.4554  0.3500
  737MOL0     C 1629   9.437   7.902   1.302  0.3630 -0.4548  0.4220
  737MOL0     C 1630   9.420   7.901   1.455  0.0459 -0.2890 -0.6142
  737MOL0     C 1631   9.547   7.864   1.537  0.0151  0.6656 -0.0671
  737MOL0     C 1632   9.512   7.768   1.645 -0.0441 -0.6523 -0.1699
  737MOL0     C 1633   9.484   7.695   1.733  0.9733 -0.1546 -0.6535
  737MOL0     C 1634   8.982   7.808   1.208 -1.0698 -0.3066  0.6501
  737MOL0     C 1635   8.854   7.843   1.161 -0.1344 -0.0224 -0.4502
  737MOL0     C 1636   8.752   7.729   1.183 -0.4242 -0.0307  0.5884
  737MOL0     H 1637   8.592   8.041   0.712  0.0240  1.9770  0.1815
  737MOL0     H 1638   8.379   8.072   0.624  3.7800 -4.8781  1.2258
  737MOL0     H 1639   8.091   8.132   0.952  1.5333 -2.0232 -1.7507
  737MOL0     H 1640   7.985   8.130   0.824 -0.9273  0.8296  0.2940
  737MOL0     H 1641   7.941   8.319   0.988  0.8699  2.9666  1.3562
  737MOL0     H 1642   8.087   8.392   0.947 -1.1700  0.6914 -1.0519
  737MOL0     H 1643   8.008   8.362   0.692 -0.7416 -2.5997 -0.1521
  737MOL0     H 1644   7.853   8.359   0.775  1.0749 -3.2070  0.1246
  737MOL0     H 1645   8.062   8.570   0.843  1.3257 -0.7345 -3.2476
  737MOL0     H 1646   7.954   8.590   0.706  2.7319 -0.4327 -0.5520
  737MOL0     H 1647   7.885   8.704   0.934  1.1642 -0.2671  0.9650
  737MOL0     H 1648   7.874   8.536   0.998 -1.2970 -1.0245 -0.0072
  737MOL0     H 1649   7.712   8.632   0.751 -0.1717  2.8338  2.6819
  737MOL0     H 1650   7.701   8.479   0.843  2.6563 -0.5821 -1.6635
  737MOL0     H 1651   7.633   8.763   0.938  0.8895 -1.0631 -0.8889
  737MOL0     H 1652   7.640   8.622   1.046  0.5397 -1.5525  0.3018
  737MOL0     H 1653   7.460   8.666   0.800 -0.0740  2.4900  0.3161
  737MOL0     H 1654   7.446   8.537   0.919 -3.8162  0.6786 -0.2580
  737MOL0     H 1655   7.473   8.727   1.165  0.3770  0.2419 -1.8384
  737MOL0     H 1656   7.303   8.835   1.355 -1.0765 -2.3921 -0.6815
  737MOL0     H 1657   7.163   8.915   1.302 -0.0407 -1.6626  0.5139
  737MOL0     H 1658   7.278   9.104   1.222 -1.8269 -0.0543  0.9344
  737MOL0     H 1659   7.339   9.071   1.389  2.5424  2.1338 -0.2629
  737MOL0     H 1660   7.485   9.008   1.147 -1.5393  0.5542 -1.0185
  737MOL0     H 1661   7.524   9.140   1.263 -0.1130  0.8962  1.0821
  737MOL0     H 1662   7.546   8.962   1.439  1.3882 -0.4947  0.0949
  737MOL0     H 1663   7.542   8.841   1.312 -1.7304 -0.4686  1.4669
  737MOL0     H 1664   7.657   8.695   1.381  1.9823 -3.5036 -0.9566
  737MOL0     H 1665   7.836   8.415   1.397 -2.2623 -2.5461  0.0384
  737MOL0     H 1666   7.828   8.412   1.224 -1.5288  1.5290 -1.9255
  737MOL0     H 1667   7.678   8.450   1.303  0.4749 -0.9986 -0.4902
  737MOL0     H 1668   8.081   8.152   1.211  1.6164 -3.0908 -1.9762
  737MOL0     H 1669   8.255   8.006   1.253  0.0926  1.0142 -1.4989
  737MOL0     H 1670   8.682   7.984   1.350  1.5914  0.9060 -0.5335
  737MOL0     H 1671   8.656   8.145   1.300 -0.0183  1.1642  1.2040
  737MOL0     H 1672   8.575   8.179   1.558  0.8143 -0.6024  0.7209
  737MOL0     H 1673   8.662   8.031   1.565 -0.8384 -0.2744 -0.2183
  737MOL0     H 1674   8.854   8.128   1.466 -1.7472 -0.9223  0.5917
  737MOL0     H 1675   8.813   8.179   1.627  4.2331 -1.2414 -0.8386
  737MOL0     H 1676   8.743   8.395   1.549 -0.4041  0.5364 -0.6436
  737MOL0     H 1677   8.734   8.346   1.378  0.9353  0.9975  0.3335
  737MOL0     H 1678   8.931   8.493   1.442  2.7114  0.1584  1.9867
  737MOL0     H 1679   8.996   8.368   1.546 -0.0676 -0.4952 -0.3514
  737MOL0     H 1680   8.955   8.367   1.240 -2.9798  0.9719  1.3421
  737MOL0     H 1681   8.989   8.221   1.331 -0.3422  0.8009  1.6629
  737MOL0     H 1682   9.179   8.460   1.353  1.5320  0.1727  1.8797
  737MOL0     H 1683   9.189   8.328   1.226 -0.5384 -2.4983  1.2054
  737MOL0     H 1684   9.206   8.164   1.407 -0.8564  0.3512 -0.6947
  737MOL0     H 1685   9.211   8.298   1.519 -2.8272  0.5371 -1.1440
  737MOL0     H 1686   8.499   8.328   1.414  1.6026 -3.5222  0.1123
  737MOL0     H 1687   8.294   8.468   1.410  2.0336  0.2319  0.6052
  737MOL0     H 1688   8.086   8.758   1.167  0.1609 -3.9336 -1.0662
  737MOL0     H 1689   7.949   8.965   1.220 -0.0997  0.2517 -2.1215
  737MOL0     H 1690   8.278   8.273   1.004  0.1795 -2.4100  1.6694
  737MOL0     H 1691   8.492   8.228   1.086 -0.7308 -1.9154  1.8642
  737MOL0     H 1692   8.930   8.150   1.009 -2.2313  2.4527  2.4934
  737MOL0     H 1693   9.141   8.095   1.098  0.4549 -0.5016 -0.4791
  737MOL0     H 1694   9.345   7.941   1.104 -0.1030  1.4946  0.1616
  737MOL0     H 1695   9.311   8.058   1.231  0.8691 -0.4156  0.6208
  737MOL0     H 1696   9.526   7.958   1.271  1.4401 -0.8680  2.5166
  737MOL0     H 1697   9.451   7.796   1.282  1.6640 -0.2141 -0.0587
  737MOL0     H 1698   9.391   8.000   1.491  1.8399  0.1596 -0.3143
  737MOL0     H 1699   9.341   7.829   1.478  0.8103 -1.6041 -1.8564
  737MOL0     H 1700   9.583   7.954   1.587  1.6945  0.0636 -0.1244
  737MOL0     H 1701   9.616   7.812   1.470 -0.0107  3.0387 -2.0796
  737MOL0     H 1702   9.448   7.630   1.811  0.6263 -0.5807 -1.1543
  737MOL0     H 1703   8.998   7.717   1.266  1.1453 -1.3451 -1.4127
  737MOL0     H 1704   8.781   7.640   1.239 -3.3517 -2.6702 -1.7566
  737MOL0     H 1705   8.670   7.772   1.241 -2.7785 -0.8468 -1.9286
  737MOL0     H 1706   8.697   7.699   1.093  0.7847  1.7629 -0.8502
  738MOL0     O 1707   4.965  11.411   9.166  0.7678  0.0331 -0.1172
  738MOL0     C 1708   5.020  11.487   9.248  0.7583  0.8481 -0.1059
  738MOL0     O 1709   4.989  11.617   9.272  0.1605  0.8877  0.5307
  738MOL0     C 1710   4.883  11.665   9.216  0.3285 -0.3270  0.7706
  738MOL0     C 1711   4.788  11.714   9.308  0.7440  0.3960  0.1707
  738MOL0     C 1712   4.667  11.767   9.262  0.1211 -0.0858  0.4379
  738MOL0     C 1713   4.637  11.772   9.124  0.5678 -0.0151 -0.0255
  738MOL0     O 1714   4.519  11.814   9.072  0.5785 -0.1146 -0.4055
  738MOL0     C 1715   4.435  11.898   9.149 -0.6830 -0.0955 -1.3025
  738MOL0     C 1716   4.315  11.904   9.059 -0.0450  0.0087  0.9937
  738MOL0     C 1717   4.193  11.959   9.139  0.2821 -0.1264  0.1529
  738MOL0     C 1718   4.062  11.987   9.061 -0.2278  0.1176 -1.3714
  738MOL0     C 1719   3.954  12.028   9.159  0.2813 -0.8500  0.3342
  738MOL0     C 1720   3.815  12.059   9.085  0.3164 -0.6020  0.1468
  738MOL0     C 1721   3.707  12.089   9.197 -1.2981 -0.1126 -1.0267
  738MOL0     C 1722   3.596  12.179   9.145  0.5442 -0.3034  0.1703
  738MOL0     N 1723   3.535  12.122   9.024  0.3971  0.2904  0.3331
  738MOL0     C 1724   3.517  12.180   8.903  0.1346  0.6547  0.6668
  738MOL0     C 1725   3.404  12.120   8.857  0.4718  0.6393  0.1491
  738MOL0     C 1726   3.346  12.166   8.723  0.4310 -0.4605 -0.6816
  738MOL0     C 1727   3.416  12.093   8.601 -0.4465  0.2262  0.3031
  738MOL0     C 1728   3.356  12.140   8.461  0.6821  0.8255 -0.1411
  738MOL0     C 1729   3.445  12.116   8.346 -0.2707  0.0637 -0.0804
  738MOL0     O 1730   3.428  11.981   8.309  0.7005 -0.4512  1.1016
  738MOL0     C 1731   3.338  11.945   8.209  0.4426 -0.2227  0.1507
  738MOL0     C 1732   3.333  11.807   8.170 -0.0531 -0.2008  0.3512
  738MOL0     C 1733   3.246  11.760   8.074  0.6033  0.5820 -0.4482
  738MOL0     C 1734   3.230  11.610   8.035  0.2142 -0.0388  0.5843
  738MOL0     C 1735   3.175  11.855   7.997 -0.3871  0.2423 -0.6763
  738MOL0     C 1736   3.084  11.829   7.884 -0.0169  0.5600  1.1562
  738MOL0     O 1737   3.129  11.725   7.797 -0.6732 -0.0945  0.6879
  738MOL0     C 1738   3.048  11.666   7.703 -0.3059  0.3387 -0.2295
  738MOL0     C 1739   2.966  11.744   7.613  0.2566 -0.6719  0.0852
  738MOL0     C 1740   2.918  11.672   7.506 -0.3130 -0.6304  0.2065
  738MOL0     C 1741   2.937  11.543   7.481 -0.0665 -0.0240  0.4280
  738MOL0     O 1742   2.875  11.500   7.368  0.1784 -0.2074  0.0073
  738MOL0     C 1743   2.900  11.361   7.328  0.5801 -0.0961 -0.5804
  738MOL0     C 1744   2.816  11.336   7.206 -0.2776 -0.1449 -0.1112
  738MOL0     C 1745   2.670  11.377   7.226 -0.3369 -0.3132 -0.5483
  738MOL0     C 1746   2.587  11.310   7.122 -0.1496 -0.0125 -0.1495
  738MOL0     C 1747   2.440  11.362   7.120 -0.2531 -0.5477  0.1082
  738MOL0     C 1748   2.366  11.345   7.259 -1.1010  0.0044 -0.9311
  738MOL0     C 1749   2.236  11.410   7.282  0.6235  0.0981 -1.1929
  738MOL0     C 1750   2.171  11.403   7.423 -1.1140  0.3796  0.1540
  738MOL0    Cl 1751   2.204  11.250   7.495 -0.0305 -0.2588 -0.5157
  738MOL0     C 1752   3.006  11.464   7.578 -0.3770 -0.7446 -0.0744
  738MOL0     C 1753   3.065  11.529   7.690 -0.4526 -0.6080  0.0151
  738MOL0     O 1754   2.983  11.897   7.867 -0.0920  0.3805 -1.0487
  738MOL0     C 1755   3.177  11.989   8.040 -0.2010 -0.1202  0.1598
  738MOL0     C 1756   3.254  12.037   8.143 -1.2758  0.1558 -0.4813
  738MOL0     N 1757   3.364  12.018   8.937 -0.0084  0.7963  0.1070
  738MOL0     N 1758   3.448  12.014   9.024 -0.4149  0.0306  0.3186
  738MOL0     C 1759   4.735  11.726   9.033 -0.1373 -0.3178 -0.7268
  738MOL0     C 1760   4.857  11.670   9.082  0.5106  0.3286  0.3569
  738MOL0     C 1761   5.137  11.441   9.322 -0.6159 -0.7347  1.1616
  738MOL0     C 1762   5.203  11.534   9.421 -0.4208 -0.0457 -0.3983
  738MOL0     C 1763   5.311  11.495   9.493 -0.2433 -0.2882 -0.8645
  738MOL0     C 1764   5.363  11.364   9.491 -0.0432 -0.1317  0.0887
  738MOL0     O 1765   5.468  11.309   9.563 -0.0046  0.6895  0.6447
  738MOL0     C 1766   5.558  11.413   9.619 -1.3413 -0.5300 -0.5821
  738MOL0     C 1767   5.693  11.357   9.631  0.6113 -0.0426 -0.5371
  738MOL0     C 1768   5.784  11.456   9.704 -0.0721 -0.2533 -0.7540
  738MOL0     C 1769   5.926  11.412   9.732  0.0366  0.0452  0.0232
  738MOL0     C 1770   5.999  11.392   9.606  0.1906 -0.6360  0.5176
  738MOL0     C 1771   6.053  11.362   9.503 -0.6413 -1.1824 -0.3768
  738MOL0     C 1772   5.293  11.276   9.409 -1.3888  0.6248  0.1437
  738MOL0     C 1773   5.183  11.310   9.328 -0.7031  0.5506  1.4409
  738MOL0     C 1774   5.107  11.186   9.282  0.3917  0.1369 -0.4132
  738MOL0     H 1775   4.820  11.710   9.412  1.2687  0.0211 -0.0000
  738MOL0     H 1776   4.594  11.807   9.332  1.2973  1.6552  0.7368
  738MOL0     H 1777   4.488  11.992   9.168 -2.7902  0.8631  0.2584
  738MOL0     H 1778   4.404  11.855   9.245 -1.0127 -0.2063 -1.4559
  738MOL0     H 1779   4.339  11.955   8.965 -0.5455 -2.4181 -0.5336
  738MOL0     H 1780   4.277  11.807   9.027 -0.3406  0.6162 -0.6234
  738MOL0     H 1781   4.172  11.881   9.213  1.9364 -1.6255 -0.8745
  738MOL0     H 1782   4.225  12.048   9.195 -0.8118  0.5708 -0.3024
  738MOL0     H 1783   4.082  12.073   8.995 -0.0354  2.4061  1.4473
  738MOL0     H 1784   4.031  11.905   8.996  0.5570 -0.5008 -0.9877
  738MOL0     H 1785   3.978  12.113   9.224 -2.2045  0.8178 -0.7554
  738MOL0     H 1786   3.931  11.942   9.221  0.6912 -1.4364 -0.3134
  738MOL0     H 1787   3.821  12.136   9.007 -2.6189 -0.7933 -0.3735
  738MOL0     H 1788   3.794  11.974   9.020 -0.0466 -0.6693  0.3488
  738MOL0     H 1789   3.752  12.138   9.284  1.0464 -1.8514 -1.1875
  738MOL0     H 1790   3.665  11.995   9.234 -0.5269 -2.1270 -4.8246
  738MOL0     H 1791   3.531  12.183   9.232  1.4223 -0.6388  0.8655
  738MOL0     H 1792   3.639  12.278   9.124  1.5033 -0.2445  2.2223
  738MOL0     H 1793   3.562  12.265   8.852  0.8151 -0.9130 -1.5171
  738MOL0     H 1794   3.361  12.273   8.712 -1.1767 -0.1055  0.2836
  738MOL0     H 1795   3.240  12.140   8.723  0.3776 -0.2751 -1.4743
  738MOL0     H 1796   3.525  12.105   8.604 -0.4399  0.4397 -0.4358
  738MOL0     H 1797   3.389  11.988   8.619 -0.4547  0.1745  0.0001
  738MOL0     H 1798   3.258  12.094   8.445  0.5559  1.0644 -0.0492
  738MOL0     H 1799   3.334  12.247   8.462  0.7886  0.8446  0.1412
  738MOL0     H 1800   3.431  12.179   8.257  0.8785  0.9642  0.3471
  738MOL0     H 1801   3.549  12.119   8.381 -0.8003 -1.3991  1.7787
  738MOL0     H 1802   3.406  11.733   8.201  0.9001 -2.5552 -5.9351
  738MOL0     H 1803   3.289  11.590   7.945  0.5175  1.3205  0.4591
  738MOL0     H 1804   3.130  11.575   8.010  0.3035 -2.3457  2.9354
  738MOL0     H 1805   3.258  11.554   8.126  0.4156 -0.5910  0.1877
  738MOL0     H 1806   2.963  11.852   7.622 -0.6336 -0.4801 -1.8863
  738MOL0     H 1807   2.879  11.736   7.427 -0.0723 -0.6575  0.0630
  738MOL0     H 1808   3.006  11.350   7.307  0.8980 -1.0970  1.2962
  738MOL0     H 1809   2.882  11.291   7.410  2.0487  1.6760  1.3772
  738MOL0     H 1810   2.857  11.395   7.123 -3.5207 -0.2834 -1.9870
  738MOL0     H 1811   2.831  11.231   7.182  1.2680  0.5910 -2.7410
  738MOL0     H 1812   2.650  11.484   7.212 -1.8396 -0.6944 -1.5854
  738MOL0     H 1813   2.628  11.347   7.323 -1.3717  0.5417 -0.7165
  738MOL0     H 1814   2.598  11.201   7.123  1.8449  0.1440  0.1082
  738MOL0     H 1815   2.627  11.333   7.023  0.4109  2.9429  0.6817
  738MOL0     H 1816   2.445  11.470   7.100  2.1054 -0.7853 -0.9000
  738MOL0     H 1817   2.380  11.315   7.042 -0.1259  2.1889 -1.7708
  738MOL0     H 1818   2.438  11.389   7.329 -0.4945  0.2051 -1.6644
  738MOL0     H 1819   2.366  11.238   7.282  0.1787  0.0811 -0.4914
  738MOL0     H 1820   2.156  11.352   7.235 -2.1305  0.6856  2.3583
  738MOL0     H 1821   2.229  11.509   7.237 -1.5237 -0.6332 -2.6382
  738MOL0     H 1822   2.067  11.435   7.413 -0.9219  0.3785 -2.2786
  738MOL0     H 1823   2.223  11.474   7.488  2.9093 -0.7878 -1.5290
  738MOL0     H 1824   3.020  11.358   7.563  2.1207 -0.8004  1.9290
  738MOL0     H 1825   3.142  11.480   7.749 -0.5060 -0.2052  0.4255
  738MOL0     H 1826   3.118  12.067   7.994 -1.3942 -2.5233 -2.7286
  738MOL0     H 1827   3.245  12.140   8.176 -3.4082  0.7085 -2.4974
  738MOL0     H 1828   4.716  11.729   8.926 -1.1150  1.8706 -0.5495
  738MOL0     H 1829   4.918  11.613   9.013 -1.2657 -1.4808  0.2076
  738MOL0     H 1830   5.161  11.633   9.436 -2.0902 -0.6063 -1.0892
  738MOL0     H 1831   5.344  11.571   9.564  1.3710 -0.7456 -1.0848
  738MOL0     H 1832   5.571  11.501   9.555 -1.3440  0.5115  0.8172
  738MOL0     H 1833   5.524  11.444   9.718  0.5764 -1.0461  0.2920
  738MOL0     H 1834   5.730  11.338   9.530  1.0291 -2.8111  0.0557
  738MOL0     H 1835   5.684  11.264   9.689  1.8370 -0.3343 -0.7785
  738MOL0     H 1836   5.785  11.550   9.648  1.0716 -0.1822 -0.6457
  738MOL0     H 1837   5.748  11.476   9.805 -0.5676 -0.2825 -0.9255
  738MOL0     H 1838   5.936  11.315   9.782  1.7190 -0.3917 -1.0804
  738MOL0     H 1839   5.969  11.492   9.793 -1.3800  1.4544 -0.7589
  738MOL0     H 1840   6.097  11.352   9.406  0.2344  2.5191 -0.5165
  738MOL0     H 1841   5.335  11.178   9.425 -0.6524  0.9082 -0.0432
  738MOL0     H 1842   5.013  11.169   9.336  1.3277  0.2739  1.3260
  738MOL0     H 1843   5.082  11.200   9.176 -2.0710 -0.8791 -0.0552
  738MOL0     H 1844   5.170  11.099   9.301  0.6484  0.1105 -1.3460
  739MOL0     O 1845   2.767   0.925   3.987 -0.5129 -0.2740  0.1966
  739MOL0     C 1846   2.656   0.959   3.959  0.0803  0.0892 -0.6234
  739MOL0     O 1847   2.603   0.966   3.832 -0.3541 -0.1819 -0.5117
  739MOL0     C 1848   2.678   0.905   3.727  0.0990 -0.5860  0.0402
  739MOL0     C 1849   2.742   0.780   3.737  0.6394 -0.1925 -0.0584
  739MOL0     C 1850   2.801   0.726   3.626  0.3325 -0.0376 -0.4460
  739MOL0     C 1851   2.797   0.785   3.503 -0.6124 -0.2911  1.4260
  739MOL0     O 1852   2.866   0.735   3.393 -0.0554 -0.0498  0.0590
  739MOL0     C 1853   2.985   0.669   3.414  0.4276  0.0129  0.4740
  739MOL0     C 1854   3.062   0.649   3.280  0.4418 -0.3642  0.4974
  739MOL0     C 1855   3.063   0.787   3.198 -0.2920  0.3181 -0.4817
  739MOL0     C 1856   3.190   0.800   3.107 -0.6360  0.2329  0.2379
  739MOL0     C 1857   3.176   0.885   2.983 -0.1788 -0.1027  0.1513
  739MOL0     C 1858   3.311   0.909   2.911  0.2386 -1.2471  1.0391
  739MOL0     C 1859   3.331   1.037   2.828 -1.1368  0.5666  0.5449
  739MOL0     C 1860   3.457   1.035   2.740 -1.1044  0.6590  0.5138
  739MOL0     N 1861   3.453   1.153   2.649  0.7237  0.0648 -0.3957
  739MOL0     C 1862   3.472   1.150   2.511  0.0804 -0.3854  0.0731
  739MOL0     C 1863   3.520   1.272   2.471  0.4480  0.2388 -0.6013
  739MOL0     C 1864   3.550   1.320   2.333  0.2727 -0.0723 -0.0044
  739MOL0     C 1865   3.534   1.473   2.308 -0.4671 -0.6675  0.1374
  739MOL0     C 1866   3.530   1.509   2.165 -0.9103  0.1609 -0.6013
  739MOL0     C 1867   3.669   1.517   2.088 -0.3915  0.0268 -0.5031
  739MOL0     O 1868   3.740   1.634   2.133 -0.0128  0.0024  0.4144
  739MOL0     C 1869   3.874   1.633   2.144  0.0796 -0.1661  0.7232
  739MOL0     C 1870   3.937   1.742   2.082  0.2577  0.2138 -0.2773
  739MOL0     C 1871   4.083   1.751   2.082 -0.2402  0.4625 -0.8868
  739MOL0     C 1872   4.149   1.875   2.032 -0.2874  0.0283  0.7200
  739MOL0     C 1873   4.149   1.650   2.156 -0.7528  0.3027 -0.4825
  739MOL0     C 1874   4.294   1.642   2.155  0.4386  0.5572 -1.0785
  739MOL0     O 1875   4.359   1.603   2.276 -0.4178  0.0436 -0.4727
  739MOL0     C 1876   4.494   1.581   2.268  0.5367 -0.3994  0.3508
  739MOL0     C 1877   4.584   1.659   2.202  0.3653 -0.0867 -0.3934
  739MOL0     C 1878   4.721   1.626   2.185  1.1996  1.1502  0.0093
  739MOL0     C 1879   4.773   1.512   2.249 -0.1987  0.3496 -0.2131
  739MOL0     O 1880   4.910   1.495   2.246 -0.4246  0.5197  0.0719
  739MOL0     C 1881   4.973   1.375   2.310 -0.5219  0.1412  0.5135
  739MOL0     C 1882   5.111   1.346   2.251  0.0062 -1.1283  0.1765
  739MOL0     C 1883   5.192   1.253   2.336  0.5610  0.0032 -0.0884
  739MOL0     C 1884   5.348   1.249   2.305  0.7746 -0.6125 -0.3011
  739MOL0     C 1885   5.419   1.163   2.414 -0.8263  0.6768 -1.1843
  739MOL0     C 1886   5.572   1.156   2.384  0.7328  0.2357  0.5135
  739MOL0     C 1887   5.662   1.235   2.493  0.1678 -0.5637  0.8052
  739MOL0     C 1888   5.660   1.393   2.471  0.2472 -0.6619 -0.3975
  739MOL0    Cl 1889   5.806   1.472   2.540  0.3748  0.2341 -0.4084
  739MOL0     C 1890   4.683   1.438   2.326  1.1658 -0.0818 -0.0178
  739MOL0     C 1891   4.545   1.466   2.326 -0.2779 -1.0510 -0.6651
  739MOL0     O 1892   4.344   1.637   2.046  0.0338  0.9335 -0.0787
  739MOL0     C 1893   4.081   1.546   2.219 -0.2491  0.3072 -0.2899
  739MOL0     C 1894   3.942   1.537   2.216  0.2596 -0.1797 -0.0795
  739MOL0     N 1895   3.540   1.340   2.589  0.0026  0.1776 -0.3204
  739MOL0     N 1896   3.504   1.265   2.699 -0.9667  0.1268  0.8583
  739MOL0     C 1897   2.726   0.899   3.490  0.6499 -1.2681  0.3057
  739MOL0     C 1898   2.675   0.964   3.597 -0.1812 -1.0938 -0.5665
  739MOL0     C 1899   2.573   1.008   4.071  0.0371 -0.6112  0.0895
  739MOL0     C 1900   2.607   0.973   4.206 -0.5318 -0.5834 -0.0372
  739MOL0     C 1901   2.531   1.023   4.305 -0.3170  0.4165 -0.9115
  739MOL0     C 1902   2.440   1.129   4.282 -0.3208  0.4116 -0.2499
  739MOL0     O 1903   2.384   1.186   4.392 -0.0465 -0.2214  1.0743
  739MOL0     C 1904   2.263   1.265   4.372 -0.4619  0.1858  0.5634
  739MOL0     C 1905   2.225   1.311   4.512 -0.1385  0.1758 -0.1184
  739MOL0     C 1906   2.088   1.381   4.501  0.1948 -0.7180 -0.2515
  739MOL0     C 1907   2.026   1.441   4.632 -0.4742 -0.3915  0.2577
  739MOL0     C 1908   1.908   1.527   4.620  0.5617  0.0104 -0.4246
  739MOL0     C 1909   1.813   1.588   4.600  0.2033  0.0422 -0.8261
  739MOL0     C 1910   2.410   1.161   4.155 -0.0673 -0.2856  0.1763
  739MOL0     C 1911   2.474   1.105   4.049  1.0646  0.0246 -0.1085
  739MOL0     C 1912   2.432   1.157   3.912 -0.7845  0.1271 -0.7854
  739MOL0     H 1913   2.740   0.720   3.827 -0.2719 -0.6520 -0.3705
  739MOL0     H 1914   2.842   0.627   3.642 -0.3537 -0.1848  0.4599
  739MOL0     H 1915   2.958   0.574   3.462 -2.5103 -0.1191 -1.2056
  739MOL0     H 1916   3.048   0.724   3.484  3.2982 -1.2391 -0.9234
  739MOL0     H 1917   3.164   0.616   3.303  0.9603  1.9506  1.7661
  739MOL0     H 1918   3.007   0.577   3.218  0.3082  1.0671 -1.1385
  739MOL0     H 1919   2.971   0.801   3.140  0.2360  0.4268 -1.3119
  739MOL0     H 1920   3.064   0.863   3.276  0.6911 -1.1644  1.0222
  739MOL0     H 1921   3.268   0.841   3.173 -0.6690 -1.3033  1.2656
  739MOL0     H 1922   3.232   0.703   3.079 -1.4973 -0.2291  0.5150
  739MOL0     H 1923   3.133   0.982   3.009 -0.5023 -0.5695  1.4552
  739MOL0     H 1924   3.119   0.829   2.908  3.0672 -1.1500 -1.7327
  739MOL0     H 1925   3.391   0.919   2.985 -1.6829  0.7209  2.9986
  739MOL0     H 1926   3.324   0.822   2.845 -1.5411 -0.4683 -0.4212
  739MOL0     H 1927   3.320   1.123   2.894  0.5799  2.1930 -1.1732
  739MOL0     H 1928   3.245   1.036   2.760  0.2291 -0.4981 -1.2636
  739MOL0     H 1929   3.550   1.039   2.797 -1.4753  0.1728  1.1556
  739MOL0     H 1930   3.458   0.945   2.679 -1.4713  0.0914  1.3346
  739MOL0     H 1931   3.446   1.064   2.451 -3.1294 -1.2745  2.4592
  739MOL0     H 1932   3.484   1.265   2.266 -1.2244  0.7844  0.7184
  739MOL0     H 1933   3.652   1.292   2.303 -1.2192 -1.7031 -4.2811
  739MOL0     H 1934   3.437   1.504   2.349  1.5576  4.3134  2.0280
  739MOL0     H 1935   3.605   1.527   2.372  0.1683 -0.5653 -0.6529
  739MOL0     H 1936   3.467   1.439   2.110  1.6253 -1.0778 -2.1556
  739MOL0     H 1937   3.489   1.610   2.155  2.0882  1.6445  0.7918
  739MOL0     H 1938   3.728   1.425   2.077 -0.3852  0.1353 -1.4075
  739MOL0     H 1939   3.647   1.527   1.981 -1.1583  0.3503 -0.3211
  739MOL0     H 1940   3.885   1.823   2.033  1.2178 -0.1654 -2.0125
  739MOL0     H 1941   4.183   1.862   1.929  4.3456 -0.9838  2.1622
  739MOL0     H 1942   4.237   1.896   2.093 -0.8715  1.5503  1.1087
  739MOL0     H 1943   4.082   1.961   2.047 -0.3091  0.4634 -1.5047
  739MOL0     H 1944   4.554   1.753   2.157 -0.0338  1.1093  2.1541
  739MOL0     H 1945   4.775   1.699   2.127  0.7883  0.5141 -1.2088
  739MOL0     H 1946   4.974   1.384   2.420 -1.1765  0.0523  0.5329
  739MOL0     H 1947   4.908   1.291   2.285 -0.9226 -0.4316  3.1387
  739MOL0     H 1948   5.098   1.301   2.151  1.4713 -1.1868 -0.0037
  739MOL0     H 1949   5.163   1.442   2.244 -1.6741  0.1375  3.2057
  739MOL0     H 1950   5.147   1.156   2.314  2.4367 -1.0862  0.5608
  739MOL0     H 1951   5.181   1.270   2.443 -0.5603 -1.9882  0.1694
  739MOL0     H 1952   5.396   1.347   2.301 -1.5411  0.6319  0.3987
  739MOL0     H 1953   5.379   1.199   2.213 -0.7371 -0.1785 -1.0705
  739MOL0     H 1954   5.416   1.209   2.513  2.5561 -0.9257 -0.1780
  739MOL0     H 1955   5.374   1.064   2.425 -1.7841  1.2423  0.2716
  739MOL0     H 1956   5.600   1.195   2.286  1.9116 -2.6146 -0.3779
  739MOL0     H 1957   5.610   1.054   2.375  0.7617  0.3962 -1.6674
  739MOL0     H 1958   5.766   1.212   2.470 -0.4310 -1.6880 -1.0341
  739MOL0     H 1959   5.642   1.207   2.597 -0.6965 -0.5238  0.6616
  739MOL0     H 1960   5.572   1.434   2.522  0.1811 -0.6791 -0.4979
  739MOL0     H 1961   5.660   1.415   2.364 -1.6823  1.2396 -0.0918
  739MOL0     H 1962   4.716   1.356   2.389 -1.9724 -2.8785 -1.6711
  739MOL0     H 1963   4.484   1.409   2.396  0.2712 -0.2567  0.4825
  739MOL0     H 1964   4.149   1.470   2.256  0.3887 -0.5454 -2.9444
  739MOL0     H 1965   3.886   1.455   2.259  1.2879 -1.2430 -0.6988
  739MOL0     H 1966   2.715   0.946   3.393  0.3134  0.4334  1.1248
  739MOL0     H 1967   2.641   1.064   3.576 -0.2080 -1.1066 -0.5843
  739MOL0     H 1968   2.684   0.897   4.218  0.5577  0.5691  0.6230
  739MOL0     H 1969   2.532   0.983   4.406 -0.6203  0.8015 -0.7513
  739MOL0     H 1970   2.279   1.341   4.295  0.2288  1.1342  1.6101
  739MOL0     H 1971   2.188   1.200   4.325  0.4752  0.2054 -1.0231
  739MOL0     H 1972   2.294   1.385   4.554 -0.2944  0.5457 -0.5030
  739MOL0     H 1973   2.223   1.229   4.584  0.2943  0.4091  0.1636
  739MOL0     H 1974   2.096   1.455   4.422 -0.6712 -1.0991 -0.7070
  739MOL0     H 1975   2.021   1.304   4.462 -3.0094  2.5009 -1.6747
  739MOL0     H 1976   2.096   1.503   4.690 -0.5823 -0.1923  0.1749
  739MOL0     H 1977   2.004   1.365   4.707 -0.1412 -0.0237  0.7349
  739MOL0     H 1978   1.722   1.644   4.599  0.3370  0.2776 -0.3855
  739MOL0     H 1979   2.338   1.237   4.127 -1.8497 -2.3192 -1.0151
  739MOL0     H 1980   2.334   1.203   3.922 -1.1844 -0.7022 -0.7736
  739MOL0     H 1981   2.515   1.226   3.890  0.2706 -0.6017  0.7473
  739MOL0     H 1982   2.408   1.083   3.835  0.1202 -2.1338  0.9911
  740MOL0     O 1983   2.207   6.572   8.911  0.2282  0.0776  0.9810
  740MOL0     C 1984   2.238   6.662   8.985  0.1582 -1.4544 -0.3476
  740MOL0     O 1985   2.355   6.730   8.982 -0.4435  0.7923 -0.5214
  740MOL0     C 1986   2.444   6.711   8.885 -0.4386  1.0431 -0.2336
  740MOL0     C 1987   2.569   6.759   8.927  0.5423  0.5215 -0.1761
  740MOL0     C 1988   2.682   6.746   8.836  0.0905 -0.1472 -0.1201
  740MOL0     C 1989   2.668   6.691   8.705  0.1648  0.4438 -0.4203
  740MOL0     O 1990   2.779   6.661   8.622  0.3349 -0.7912 -0.7322
  740MOL0     C 1991   2.851   6.786   8.581 -0.6139  0.3470  0.5031
  740MOL0     C 1992   2.986   6.746   8.501 -0.4564  0.2179 -0.1401
  740MOL0     C 1993   3.055   6.873   8.433 -0.4153  0.3903 -0.4400
  740MOL0     C 1994   3.188   6.839   8.358  0.4068 -0.1950 -0.0149
  740MOL0     C 1995   3.231   6.952   8.276  0.5118 -1.0943  0.2965
  740MOL0     C 1996   3.382   6.961   8.269  0.0773 -0.1953  0.0856
  740MOL0     C 1997   3.430   7.064   8.173 -0.5672  0.0949 -0.2774
  740MOL0     C 1998   3.413   7.031   8.026  0.7222  0.0581  0.1730
  740MOL0     N 1999   3.478   7.118   7.942 -0.0195 -0.5198 -0.1152
  740MOL0     C 2000   3.614   7.140   7.934 -0.8473  0.2258  0.1367
  740MOL0     C 2001   3.635   7.227   7.830 -0.3352  0.3845 -0.3678
  740MOL0     C 2002   3.769   7.275   7.791 -0.3082  0.0318  0.1637
  740MOL0     C 2003   3.867   7.165   7.790 -0.8099 -0.0891  0.5739
  740MOL0     C 2004   4.009   7.206   7.754 -0.8608  0.0946  0.0093
  740MOL0     C 2005   4.116   7.201   7.872  0.1358 -0.5245 -0.6662
  740MOL0     O 2006   4.119   7.063   7.915 -1.1007  0.2519  0.1354
  740MOL0     C 2007   4.244   7.004   7.927 -0.5991 -0.9711  0.2261
  740MOL0     C 2008   4.262   6.866   7.895  0.0116 -0.6996 -0.8567
  740MOL0     C 2009   4.379   6.798   7.918  0.1396  0.6261  0.2698
  740MOL0     C 2010   4.377   6.641   7.907  0.1898 -1.1246 -0.4660
  740MOL0     C 2011   4.500   6.866   7.967  0.6963 -0.7794 -0.1917
  740MOL0     C 2012   4.631   6.804   8.005 -0.0583 -0.0253  0.1069
  740MOL0     O 2013   4.728   6.877   8.070  0.5522 -0.3118  0.3623
  740MOL0     C 2014   4.853   6.811   8.097  0.4798 -0.5978  0.5551
  740MOL0     C 2015   4.872   6.734   8.210  0.5279 -0.0903  0.3028
  740MOL0     C 2016   5.002   6.693   8.244 -0.2176 -0.1114  0.8943
  740MOL0     C 2017   5.114   6.741   8.166  0.2297  0.6158  0.5038
  740MOL0     O 2018   5.241   6.717   8.218 -0.1910 -0.9606 -0.0010
  740MOL0     C 2019   5.333   6.650   8.135  0.2976  0.8872 -0.4805
  740MOL0     C 2020   5.358   6.511   8.181 -0.0472  0.3670  0.0794
  740MOL0     C 2021   5.416   6.507   8.330  0.3910 -0.8678 -0.0323
  740MOL0     C 2022   5.419   6.365   8.387 -0.4220  0.1987 -1.1535
  740MOL0     C 2023   5.508   6.374   8.507  0.2021  0.3873 -0.4794
  740MOL0     C 2024   5.531   6.232   8.570  0.0727 -1.0654 -0.2181
  740MOL0     C 2025   5.530   6.123   8.472  0.0994  0.4071 -0.1298
  740MOL0     C 2026   5.655   6.109   8.387 -0.5549 -0.2855  0.7235
  740MOL0    Cl 2027   5.648   5.959   8.290  0.2865 -0.0488  0.3522
  740MOL0     C 2028   5.086   6.821   8.056 -1.0109 -0.4060 -0.5736
  740MOL0     C 2029   4.961   6.863   8.024  0.0509  0.6566  0.0289
  740MOL0     O 2030   4.642   6.691   7.971 -0.0007  0.4160 -0.2111
  740MOL0     C 2031   4.477   7.006   7.991 -0.4551 -0.3413  1.4039
  740MOL0     C 2032   4.364   7.071   7.969  0.5068  1.0713 -0.1599
  740MOL0     N 2033   3.513   7.255   7.771  0.2318  0.5633  0.3569
  740MOL0     N 2034   3.418   7.185   7.835 -0.2238 -0.2554  0.2006
  740MOL0     C 2035   2.539   6.656   8.672 -0.2336 -0.5152  0.0272
  740MOL0     C 2036   2.430   6.653   8.756  0.7370 -0.4502 -0.3798
  740MOL0     C 2037   2.135   6.706   9.087  0.8095 -0.1552  0.5153
  740MOL0     C 2038   2.011   6.656   9.059 -0.2458 -0.2967  0.0899
  740MOL0     C 2039   1.895   6.711   9.120 -0.4032 -0.2797  0.2411
  740MOL0     C 2040   1.907   6.800   9.227  1.0544  1.0211  0.0368
  740MOL0     O 2041   1.797   6.841   9.305  0.6520  0.2379  0.6653
  740MOL0     C 2042   1.689   6.751   9.329 -0.2125 -0.7027 -0.4499
  740MOL0     C 2043   1.618   6.805   9.448  0.1070  0.6880 -1.0874
  740MOL0     C 2044   1.500   6.722   9.496  0.3351  0.7468  1.0976
  740MOL0     C 2045   1.528   6.596   9.583 -1.4889 -0.4325 -1.2181
  740MOL0     C 2046   1.405   6.520   9.599  0.0257 -0.1225  0.1205
  740MOL0     C 2047   1.298   6.465   9.613  0.0709  0.4617 -0.2713
  740MOL0     C 2048   2.034   6.840   9.259 -0.5796 -0.2729 -0.8757
  740MOL0     C 2049   2.149   6.799   9.185  0.1902  0.1641 -0.5694
  740MOL0     C 2050   2.270   6.883   9.212 -0.1819 -0.5999 -0.1928
  740MOL0     H 2051   2.576   6.801   9.026 -0.2764 -2.0894  1.0745
  740MOL0     H 2052   2.779   6.773   8.876  0.5588 -1.8369 -0.0308
  740MOL0     H 2053   2.877   6.860   8.657 -0.9868 -0.2984  1.2766
  740MOL0     H 2054   2.781   6.834   8.512  0.2301  0.4240 -0.3263
  740MOL0     H 2055   3.052   6.709   8.580  1.4940 -0.2566 -1.9282
  740MOL0     H 2056   2.982   6.661   8.433  0.6761 -0.4563  0.5957
  740MOL0     H 2057   2.987   6.899   8.352 -1.4761 -1.3512 -0.1626
  740MOL0     H 2058   3.072   6.960   8.497  0.5748  0.4886 -0.8088
  740MOL0     H 2059   3.271   6.816   8.426  1.0115 -2.2961 -1.3669
  740MOL0     H 2060   3.169   6.745   8.306 -3.3344  1.1206 -1.3144
  740MOL0     H 2061   3.172   7.040   8.306 -1.1053 -2.0306 -0.0357
  740MOL0     H 2062   3.205   6.939   8.171  5.0536  2.2524 -1.5959
  740MOL0     H 2063   3.419   7.003   8.363 -0.9743 -0.3155  0.5627
  740MOL0     H 2064   3.431   6.864   8.255 -0.8301 -0.7933  0.9890
  740MOL0     H 2065   3.534   7.088   8.197 -1.2277  3.5977 -0.4040
  740MOL0     H 2066   3.385   7.161   8.195 -1.9726 -0.4640 -0.6157
  740MOL0     H 2067   3.450   6.934   7.993  1.7846  0.4621  0.1302
  740MOL0     H 2068   3.306   7.024   8.005  0.7008 -3.4988  0.8505
  740MOL0     H 2069   3.689   7.113   8.008 -0.3977 -0.4567 -0.5526
  740MOL0     H 2070   3.817   7.342   7.863  1.3542 -0.7825 -0.1585
  740MOL0     H 2071   3.773   7.332   7.697  2.5884  0.7755  0.6648
  740MOL0     H 2072   3.867   7.095   7.875 -1.1746 -0.1649  0.5143
  740MOL0     H 2073   3.848   7.095   7.708 -1.0858  0.6317  0.0130
  740MOL0     H 2074   4.054   7.138   7.681  1.6552  3.0248 -1.4140
  740MOL0     H 2075   4.008   7.306   7.710  2.5709  0.6402  0.8754
  740MOL0     H 2076   4.212   7.240   7.838 -1.2626  2.1725 -1.8165
  740MOL0     H 2077   4.093   7.275   7.949  1.8010  1.8251 -2.2726
  740MOL0     H 2078   4.170   6.826   7.854 -0.5976 -2.0398  1.6304
  740MOL0     H 2079   4.277   6.607   7.880  0.1723  0.2734 -2.3217
  740MOL0     H 2080   4.399   6.590   8.002  1.0534  3.5742  2.1474
  740MOL0     H 2081   4.459   6.618   7.839  1.5567  1.4173  0.2173
  740MOL0     H 2082   4.789   6.707   8.275 -0.3969  1.1224 -0.3368
  740MOL0     H 2083   5.038   6.631   8.325  1.5010  1.0482  1.0613
  740MOL0     H 2084   5.299   6.647   8.031 -1.8414 -1.0690  0.1951
  740MOL0     H 2085   5.424   6.710   8.137  1.3442 -0.6306  1.9424
  740MOL0     H 2086   5.267   6.450   8.186  0.8098 -0.8599  1.5973
  740MOL0     H 2087   5.422   6.463   8.107 -2.2658  0.5930 -2.1086
  740MOL0     H 2088   5.352   6.569   8.393  2.9623  1.7608  0.1754
  740MOL0     H 2089   5.517   6.548   8.330  2.4618 -5.2804 -0.8832
  740MOL0     H 2090   5.469   6.307   8.310  3.2620 -0.4272  1.4844
  740MOL0     H 2091   5.321   6.320   8.406 -0.3272  0.2334 -0.5717
  740MOL0     H 2092   5.603   6.411   8.469 -0.3368 -1.0956 -3.6114
  740MOL0     H 2093   5.458   6.434   8.584 -0.3517 -1.4128  0.6387
  740MOL0     H 2094   5.452   6.218   8.644 -0.5954  3.0938  0.1270
  740MOL0     H 2095   5.626   6.241   8.623 -0.3661  0.4923  0.3636
  740MOL0     H 2096   5.446   6.108   8.404 -0.2634  0.3334  0.3380
  740MOL0     H 2097   5.524   6.032   8.532  1.6226 -0.5223 -1.2845
  740MOL0     H 2098   5.742   6.106   8.452  0.2823  1.4300 -0.2624
  740MOL0     H 2099   5.674   6.191   8.317 -1.9706 -0.8706 -0.3980
  740MOL0     H 2100   5.162   6.849   7.983 -2.0639 -0.1009 -1.5744
  740MOL0     H 2101   4.941   6.925   7.937 -1.4177  0.5319  0.2363
  740MOL0     H 2102   4.564   7.063   8.023  1.4397 -0.9919 -2.0737
  740MOL0     H 2103   4.371   7.177   7.990  0.9901  1.1618 -0.7834
  740MOL0     H 2104   2.529   6.659   8.564  1.1598  0.1796 -0.1072
  740MOL0     H 2105   2.342   6.613   8.705  1.4882 -2.3339 -0.2575
  740MOL0     H 2106   1.984   6.597   8.972 -2.2472  0.4735  0.1403
  740MOL0     H 2107   1.798   6.675   9.087 -0.4345 -1.1646  1.2423
  740MOL0     H 2108   1.625   6.745   9.240  0.9796  0.2431 -1.3991
  740MOL0     H 2109   1.720   6.649   9.354 -0.6507 -1.7587 -3.7389
  740MOL0     H 2110   1.590   6.903   9.410 -2.6558  0.2644 -0.3674
  740MOL0     H 2111   1.673   6.834   9.538  0.7364 -0.5257 -1.0465
  740MOL0     H 2112   1.423   6.781   9.546 -1.4929 -0.6003  0.0230
  740MOL0     H 2113   1.439   6.690   9.411 -1.8145 -3.0277  3.7370
  740MOL0     H 2114   1.578   6.626   9.675  0.7271 -0.4417 -2.3732
  740MOL0     H 2115   1.589   6.536   9.515 -0.4954 -0.3262 -0.4469
  740MOL0     H 2116   1.206   6.410   9.598  0.5048 -0.2124 -0.5167
  740MOL0     H 2117   2.049   6.914   9.337  1.5681 -1.9420  0.4187
  740MOL0     H 2118   2.248   6.976   9.265  0.2016 -0.7554  0.2553
  740MOL0     H 2119   2.339   6.818   9.267 -0.8884 -2.7588 -1.6953
  740MOL0     H 2120   2.304   6.928   9.119 -2.7946  0.8271 -0.5505
  741MOL0     O 2121  10.348   6.969   4.236 -1.0195  0.3667  0.1331
  741MOL0     C 2122  10.246   7.013   4.279 -0.2431 -0.1951 -0.3179
  741MOL0     O 2123  10.226   7.054   4.406 -0.2270  0.9261  0.6315
  741MOL0     C 2124  10.328   7.042   4.504  1.5802  0.0225 -0.0930
  741MOL0     C 2125  10.328   7.139   4.602  0.5114  0.9711 -0.5736
  741MOL0     C 2126  10.418   7.151   4.707  0.8865 -0.2336 -0.3512
  741MOL0     C 2127  10.518   7.055   4.724 -0.1409 -0.6072 -0.8119
  741MOL0     O 2128  10.612   7.040   4.823  0.1069 -0.4290 -0.1631
  741MOL0     C 2129  10.657   7.161   4.899 -0.0639  0.1948  0.1245
  741MOL0     C 2130  10.787   7.137   4.963 -0.1418 -0.0702 -0.2895
  741MOL0     C 2131  10.773   7.007   5.052 -0.2678 -0.2885 -0.6424
  741MOL0     C 2132  10.849   7.015   5.182  0.1767  0.3849 -0.0192
  741MOL0     C 2133  10.870   6.876   5.241 -0.1914  0.4450 -0.7201
  741MOL0     C 2134  10.957   6.883   5.362 -0.3539  0.4483  0.9377
  741MOL0     C 2135  10.879   6.917   5.484  0.8636  0.1922  0.3303
  741MOL0     C 2136  10.955   6.896   5.615  0.4109 -0.6116  0.9035
  741MOL0     N 2137  11.019   6.765   5.638  0.6382  0.0308 -0.2419
  741MOL0     C 2138  10.954   6.639   5.653  0.8799  0.5144 -0.2347
  741MOL0     C 2139  11.057   6.554   5.668  0.5694  0.3273  0.3429
  741MOL0     C 2140  11.047   6.414   5.719  0.7535 -0.1017  0.6384
  741MOL0     C 2141  11.153   6.360   5.814 -0.9247  0.2263  0.0976
  741MOL0     C 2142  11.221   6.239   5.753  0.7608  0.4594  0.0213
  741MOL0     C 2143  11.329   6.282   5.661 -0.3760 -0.4938  0.6860
  741MOL0     O 2144  11.395   6.165   5.608  0.6868  0.9613 -0.0438
  741MOL0     C 2145  11.526   6.158   5.616 -0.8814 -0.1121 -0.9506
  741MOL0     C 2146  11.592   6.091   5.506 -0.3014  0.5238  0.0023
  741MOL0     C 2147  11.731   6.084   5.503  0.5519 -0.0887 -1.1562
  741MOL0     C 2148  11.789   6.013   5.378 -0.0838  0.3561  0.6434
  741MOL0     C 2149  11.810   6.145   5.600  0.1505  1.0784 -0.4074
  741MOL0     C 2150  11.959   6.167   5.590 -0.5743 -0.8621 -0.2700
  741MOL0     O 2151  12.035   6.074   5.515  0.8819 -0.4192 -0.3990
  741MOL0     C 2152  12.169   6.086   5.484  0.3045 -0.7365 -0.6087
  741MOL0     C 2153  12.223   6.031   5.370  1.0385  0.0671 -0.8155
  741MOL0     C 2154  12.356   6.052   5.340 -0.9546  1.0979 -0.0165
  741MOL0     C 2155  12.438   6.129   5.430  0.1566  0.0000  0.3984
  741MOL0     O 2156  12.570   6.158   5.395  0.0366  0.1050  0.6265
  741MOL0     C 2157  12.602   6.175   5.254 -0.5446  0.5950 -0.2054
  741MOL0     C 2158  12.709   6.074   5.221 -0.5338 -0.3711  1.1490
  741MOL0     C 2159  12.744   6.089   5.070  0.1009 -0.1314  0.1704
  741MOL0     C 2160  12.889   6.032   5.028 -0.2433  1.0439 -0.1325
  741MOL0     C 2161  12.905   6.030   4.874 -0.3214  0.7037  0.1451
  741MOL0     C 2162  12.881   6.167   4.804  0.6214 -0.1256  0.6721
  741MOL0     C 2163  12.888   6.155   4.649 -0.6246  0.9532  0.1530
  741MOL0     C 2164  12.885   6.294   4.581  0.5851  0.3172 -0.3417
  741MOL0    Cl 2165  12.899   6.264   4.397 -0.0469  0.1884 -0.3601
  741MOL0     C 2166  12.385   6.165   5.555 -0.2255 -0.1616  0.2804
  741MOL0     C 2167  12.254   6.141   5.581  0.6545  0.2626 -0.0685
  741MOL0     O 2168  12.002   6.268   5.645  0.1707  0.2460  0.4296
  741MOL0     C 2169  11.742   6.208   5.708 -0.3396  0.4728  0.3864
  741MOL0     C 2170  11.608   6.208   5.716  0.3837  0.7367 -0.7622
  741MOL0     N 2171  11.177   6.623   5.660  0.2604  0.0358 -0.3201
  741MOL0     N 2172  11.153   6.749   5.643  0.0434  0.0990 -0.2143
  741MOL0     C 2173  10.531   6.961   4.623  0.5826  0.4545 -0.2424
  741MOL0     C 2174  10.435   6.949   4.513 -0.3859 -0.0554  0.0380
  741MOL0     C 2175  10.141   7.048   4.178  0.0886 -0.2610 -0.2283
  741MOL0     C 2176  10.074   6.940   4.127 -0.0686 -0.2322 -0.4644
  741MOL0     C 2177   9.964   6.957   4.050  0.4777 -0.4122  0.0952
  741MOL0     C 2178   9.935   7.083   4.003 -0.8362 -0.3169 -0.0667
  741MOL0     O 2179   9.825   7.100   3.931 -0.0698 -0.3783 -0.4265
  741MOL0     C 2180   9.780   7.229   3.891 -0.6034 -1.1445 -1.5291
  741MOL0     C 2181   9.678   7.212   3.778  0.0896 -0.3609 -0.8065
  741MOL0     C 2182   9.559   7.129   3.823  0.6843 -0.8332 -0.2551
  741MOL0     C 2183   9.439   7.115   3.721 -0.2622  0.3330 -0.6447
  741MOL0     C 2184   9.340   7.222   3.706  0.2949  0.2806 -0.1281
  741MOL0     C 2185   9.260   7.306   3.698 -0.3858 -0.1810 -1.0128
  741MOL0     C 2186  10.009   7.198   4.055 -0.1199  0.0889  0.8002
  741MOL0     C 2187  10.117   7.179   4.144  0.5834 -0.0863  0.3021
  741MOL0     C 2188  10.199   7.297   4.204  0.3161  0.5244 -0.9947
  741MOL0     H 2189  10.239   7.200   4.593  0.3773  0.4444 -3.5683
  741MOL0     H 2190  10.415   7.236   4.775 -3.0825 -1.8367  1.8614
  741MOL0     H 2191  10.584   7.190   4.975 -0.9253  0.9479 -0.9583
  741MOL0     H 2192  10.661   7.244   4.828 -0.1828  1.9231  2.0491
  741MOL0     H 2193  10.865   7.121   4.888 -0.0863  0.5503 -0.3658
  741MOL0     H 2194  10.826   7.220   5.022  1.7260  0.1582 -1.7458
  741MOL0     H 2195  10.671   6.995   5.091  0.3770 -2.2012  0.5700
  741MOL0     H 2196  10.794   6.913   5.001  0.4254  0.6085 -2.0867
  741MOL0     H 2197  10.946   7.062   5.159  1.3060 -1.0057  1.6477
  741MOL0     H 2198  10.795   7.085   5.246 -0.4616  0.5602 -0.7420
  741MOL0     H 2199  10.928   6.818   5.168  1.5688 -1.9968  2.3812
  741MOL0     H 2200  10.773   6.832   5.266 -0.3347  1.1982  0.1150
  741MOL0     H 2201  11.011   6.790   5.379  1.6300  1.9424  3.6593
  741MOL0     H 2202  11.041   6.952   5.343 -0.1038  1.4523  4.7183
  741MOL0     H 2203  10.791   6.852   5.484  2.0599 -1.5582 -1.8031
  741MOL0     H 2204  10.845   7.021   5.488 -0.7470 -0.3450  2.0439
  741MOL0     H 2205  11.039   6.965   5.628 -0.0156 -0.1307  1.1326
  741MOL0     H 2206  10.888   6.928   5.695  3.0003  0.0133  2.9575
  741MOL0     H 2207  10.848   6.621   5.665  1.2054 -1.4201  0.1604
  741MOL0     H 2208  11.023   6.349   5.635 -0.6777  2.0669 -0.7475
  741MOL0     H 2209  10.951   6.422   5.771  0.9913  1.7534  0.8877
  741MOL0     H 2210  11.223   6.427   5.864 -2.2320 -0.1779  2.6402
  741MOL0     H 2211  11.087   6.325   5.894 -0.7338  0.4575  0.3568
  741MOL0     H 2212  11.262   6.183   5.837 -1.0147  1.1562  1.4094
  741MOL0     H 2213  11.147   6.177   5.702  2.4228 -1.8278  0.2333
  741MOL0     H 2214  11.298   6.335   5.571 -0.2419  0.8900  1.4219
  741MOL0     H 2215  11.402   6.343   5.716  0.0035 -0.5384  0.2300
  741MOL0     H 2216  11.534   6.045   5.427  0.3337 -0.6481  0.1903
  741MOL0     H 2217  11.841   5.920   5.401  0.8227  0.3100 -1.3872
  741MOL0     H 2218  11.864   6.074   5.325  1.3497 -0.6171  1.4775
  741MOL0     H 2219  11.716   5.995   5.299  1.8058 -4.0617 -0.3622
  741MOL0     H 2220  12.163   5.985   5.291  1.8415 -1.2664 -0.6754
  741MOL0     H 2221  12.401   6.007   5.252 -0.3517 -0.7880  1.1873
  741MOL0     H 2222  12.514   6.173   5.188 -0.4987  1.4364 -0.3022
  741MOL0     H 2223  12.632   6.279   5.249  0.2635  0.4795  1.6270
  741MOL0     H 2224  12.801   6.106   5.268  0.9869  2.8190 -3.3371
  741MOL0     H 2225  12.668   5.975   5.245 -3.4335  0.5203  0.3997
  741MOL0     H 2226  12.740   6.194   5.040  0.1967  0.2167  1.3265
  741MOL0     H 2227  12.664   6.034   5.019  1.0833 -2.1967  0.7540
  741MOL0     H 2228  12.920   5.938   5.075 -0.1899  1.8865  1.6203
  741MOL0     H 2229  12.966   6.100   5.068  1.8519 -1.1974 -0.0996
  741MOL0     H 2230  13.006   5.999   4.845 -0.1939 -0.1307  1.3887
  741MOL0     H 2231  12.831   5.958   4.839  0.2609 -0.4224  1.1179
  741MOL0     H 2232  12.956   6.241   4.833  1.8450 -1.0146 -0.1367
  741MOL0     H 2233  12.784   6.210   4.829  0.5782  0.2766 -0.1479
  741MOL0     H 2234  12.793   6.104   4.631 -1.2387  0.0297  4.7347
  741MOL0     H 2235  12.960   6.081   4.613 -4.1233 -1.9780 -1.4690
  741MOL0     H 2236  12.955   6.370   4.616 -0.1990  0.6242  0.5883
  741MOL0     H 2237  12.786   6.330   4.610 -0.7582 -1.4134 -2.4309
  741MOL0     H 2238  12.444   6.214   5.632  0.1967 -2.4235  1.4764
  741MOL0     H 2239  12.229   6.148   5.686  0.4380 -1.1912  0.0045
  741MOL0     H 2240  11.802   6.260   5.782  1.0502  0.7441 -0.8747
  741MOL0     H 2241  11.570   6.248   5.809 -2.3226 -1.7285 -0.6713
  741MOL0     H 2242  10.620   6.900   4.629  0.4928  0.4784  1.6549
  741MOL0     H 2243  10.438   6.864   4.447 -0.8329 -0.7027  0.8357
  741MOL0     H 2244  10.090   6.836   4.156 -1.6973  0.0334  1.6219
  741MOL0     H 2245   9.904   6.879   4.005  1.9245  0.0665 -2.8888
  741MOL0     H 2246   9.729   7.289   3.967  0.7072 -0.8642 -0.8392
  741MOL0     H 2247   9.862   7.290   3.850 -1.2007  1.4967  0.8498
  741MOL0     H 2248   9.730   7.162   3.696  1.3532  2.0275 -1.5334
  741MOL0     H 2249   9.644   7.311   3.747 -2.2759 -1.3100 -1.5223
  741MOL0     H 2250   9.602   7.033   3.855  1.7443  0.4077  2.3627
  741MOL0     H 2251   9.514   7.165   3.916  0.8732  0.4510 -0.6461
  741MOL0     H 2252   9.381   7.030   3.758 -1.8314  0.9277 -1.6357
  741MOL0     H 2253   9.487   7.084   3.628  1.9584  0.1637  0.4893
  741MOL0     H 2254   9.168   7.361   3.707 -1.0880 -1.4696  0.2082
  741MOL0     H 2255   9.983   7.298   4.022  0.2504 -1.0277 -3.4020
  741MOL0     H 2256  10.217   7.366   4.121 -2.4729  0.6943 -1.5530
  741MOL0     H 2257  10.140   7.344   4.284  0.2382  1.2670 -1.4799
  741MOL0     H 2258  10.295   7.275   4.251  0.0102  0.0687 -0.5745
  742MOL0     O 2259   0.243  11.237  10.615 -0.7096  1.3081 -0.8438
  742MOL0     C 2260   0.157  11.299  10.563 -0.8976  0.6010  0.3225
  742MOL0     O 2261   0.088  11.270  10.449  0.8967  0.2470 -0.2346
  742MOL0     C 2262   0.101  11.154  10.379  0.2329  0.0581 -0.1441
  742MOL0     C 2263   0.203  11.063  10.379 -0.2896 -0.4830  0.8739
  742MOL0     C 2264   0.189  10.942  10.304 -0.6051 -0.5706 -0.5844
  742MOL0     C 2265   0.070  10.907  10.242  0.1222 -0.5960 -0.4608
  742MOL0     O 2266   0.077  10.784  10.179 -0.5786  0.0939 -1.1815
  742MOL0     C 2267  -0.048  10.738  10.113  0.0169 -0.1036 -0.3897
  742MOL0     C 2268  -0.023  10.598  10.073  0.3450  0.3587  0.6898
  742MOL0     C 2269   0.006  10.508  10.192 -0.0923  0.1175 -0.1426
  742MOL0     C 2270  -0.004  10.365  10.149  0.0948 -0.0508 -0.1611
  742MOL0     C 2271   0.086  10.320  10.040 -0.6254 -0.0251  0.1550
  742MOL0     C 2272   0.058  10.169  10.005  0.9245  0.2257 -0.5161
  742MOL0     C 2273   0.115  10.122   9.866 -0.4391 -0.1717  0.3367
  742MOL0     C 2274   0.100   9.969   9.832  0.4628  0.2961 -0.9055
  742MOL0     N 2275   0.137   9.928   9.692 -0.6822 -0.5601 -0.0817
  742MOL0     C 2276   0.114   9.814   9.637 -0.5661  0.0120  0.2746
  742MOL0     C 2277   0.177   9.819   9.513  0.2093 -0.0293  0.6117
  742MOL0     C 2278   0.176   9.704   9.405  0.0637 -0.3118  0.7011
  742MOL0     C 2279   0.081   9.732   9.285  0.3734 -0.2399 -0.4245
  742MOL0     C 2280  -0.059   9.756   9.331 -0.2512 -1.2593 -0.7070
  742MOL0     C 2281  -0.126   9.822   9.216 -0.2029 -0.1929  0.1407
  742MOL0     O 2282  -0.256   9.875   9.246 -0.0806 -0.1046 -0.5076
  742MOL0     C 2283  -0.269   9.983   9.337  0.9126 -0.5461 -0.4261
  742MOL0     C 2284  -0.390  10.002   9.417  0.1426 -0.0007 -0.4545
  742MOL0     C 2285  -0.401  10.094   9.521  0.0470  0.4808 -0.2715
  742MOL0     C 2286  -0.529  10.098   9.601  0.1282  0.5327  0.5314
  742MOL0     C 2287  -0.296  10.176   9.553  0.6196 -1.0943  0.0742
  742MOL0     C 2288  -0.302  10.283   9.651  0.4124 -0.2086 -0.5265
  742MOL0     O 2289  -0.405  10.368   9.664 -0.0423  0.7754  0.0551
  742MOL0     C 2290  -0.384  10.480   9.735  1.1222 -0.3218 -0.0910
  742MOL0     C 2291  -0.468  10.489   9.850 -0.2607 -0.0725 -0.1273
  742MOL0     C 2292  -0.453  10.597   9.935 -0.0247 -0.6098 -0.3482
  742MOL0     C 2293  -0.358  10.696   9.917 -0.3279  0.2464  0.2620
  742MOL0     O 2294  -0.341  10.794  10.003 -0.1943 -0.1602 -0.5789
  742MOL0     C 2295  -0.454  10.886  10.041 -0.0509  0.6154  0.1783
  742MOL0     C 2296  -0.388  11.013  10.100 -1.2928  0.0958  0.7723
  742MOL0     C 2297  -0.481  11.122  10.149  1.1823 -0.0955 -0.5206
  742MOL0     C 2298  -0.562  11.081  10.272  0.4602  0.3453 -0.3973
  742MOL0     C 2299  -0.713  11.042  10.223 -0.5443  0.4113  0.0789
  742MOL0     C 2300  -0.798  10.964  10.325 -0.1051 -0.4522  0.5031
  742MOL0     C 2301  -0.811  11.033  10.456 -0.8644  0.8883 -0.7055
  742MOL0     C 2302  -0.910  10.950  10.547 -0.2449 -0.2838 -0.3739
  742MOL0    Cl 2303  -0.932  11.037  10.697  0.0395  0.4173  0.1931
  742MOL0     C 2304  -0.265  10.684   9.815  0.1361 -0.3952 -0.0213
  742MOL0     C 2305  -0.276  10.578   9.724  0.3848 -0.0672  0.1305
  742MOL0     O 2306  -0.211  10.262   9.734  0.7697 -0.1304 -0.1258
  742MOL0     C 2307  -0.174  10.163   9.484  0.2834  0.4929 -0.3463
  742MOL0     C 2308  -0.167  10.077   9.372 -0.9044  0.5961 -0.7769
  742MOL0     N 2309   0.238   9.942   9.504 -0.1401 -0.6305  0.0999
  742MOL0     N 2310   0.202  10.011   9.606  0.2999  0.4647 -0.1209
  742MOL0     C 2311  -0.038  10.990  10.250 -0.8640  0.5566 -0.3588
  742MOL0     C 2312  -0.023  11.112  10.322 -0.9654 -0.4132 -0.3598
  742MOL0     C 2313   0.127  11.435  10.612  0.6554  0.2984  0.1686
  742MOL0     C 2314   0.117  11.547  10.527 -0.9153 -0.4622  1.1414
  742MOL0     C 2315   0.083  11.671  10.569  0.5664 -1.0397  0.0689
  742MOL0     C 2316   0.060  11.693  10.701 -0.6548 -0.9039  0.4656
  742MOL0     O 2317   0.044  11.823  10.741 -0.8583  0.1969  0.0339
  742MOL0     C 2318  -0.038  11.913  10.668  0.7270  0.4055 -0.3254
  742MOL0     C 2319  -0.066  12.047  10.746 -0.5865 -0.4585  0.8036
  742MOL0     C 2320   0.062  12.121  10.760  0.5915 -0.0043  0.3810
  742MOL0     C 2321   0.048  12.229  10.873  0.2128  0.5135  0.2808
  742MOL0     C 2322  -0.057  12.333  10.833  0.2609  0.1692 -0.1576
  742MOL0     C 2323  -0.134  12.421  10.814  0.0601 -0.0620 -0.6693
  742MOL0     C 2324   0.064  11.597  10.792 -0.2716  0.1425  0.1723
  742MOL0     C 2325   0.089  11.462  10.749 -0.3857 -0.4091 -0.6762
  742MOL0     C 2326   0.104  11.354  10.848 -0.2229 -0.8613 -0.3882
  742MOL0     H 2327   0.303  11.080  10.418  0.9549  0.5928 -2.4580
  742MOL0     H 2328   0.277  10.879  10.296 -2.1262 -3.1065  0.9269
  742MOL0     H 2329  -0.061  10.792  10.019 -0.5952  0.7570  0.1815
  742MOL0     H 2330  -0.134  10.740  10.180  2.1798 -2.1232  2.7358
  742MOL0     H 2331  -0.110  10.553  10.023  1.4107  0.8136 -1.7408
  742MOL0     H 2332   0.059  10.590  10.001  3.8879  1.0028  4.3629
  742MOL0     H 2333   0.110  10.527  10.220  1.0008 -0.5335 -3.3043
  742MOL0     H 2334  -0.057  10.532  10.278  0.8110 -2.2710  1.2909
  742MOL0     H 2335   0.011  10.295  10.232 -3.9641 -2.4898 -1.2003
  742MOL0     H 2336  -0.106  10.341  10.118 -0.3162 -0.9779  1.7711
  742MOL0     H 2337   0.192  10.326  10.064 -0.3038 -0.0671 -1.1945
  742MOL0     H 2338   0.080  10.367   9.941 -3.1378 -1.9909 -0.7515
  742MOL0     H 2339   0.117  10.113  10.078 -0.5844  1.6443  1.9692
  742MOL0     H 2340  -0.048  10.147  10.017  1.2938 -0.7822  1.2851
  742MOL0     H 2341   0.224  10.128   9.868 -0.5194  1.7480  0.8713
  742MOL0     H 2342   0.085  10.187   9.784  2.6450  0.3526 -0.4700
  742MOL0     H 2343   0.142   9.906   9.911 -0.1356  0.2030 -0.6536
  742MOL0     H 2344  -0.008   9.952   9.834  0.4389  0.5096 -0.2590
  742MOL0     H 2345   0.063   9.730   9.683  1.9436 -2.4293 -1.0575
  742MOL0     H 2346   0.142   9.609   9.450 -0.6939  0.1471  1.1265
  742MOL0     H 2347   0.279   9.695   9.371  0.8890  0.0172  2.9672
  742MOL0     H 2348   0.126   9.818   9.235 -0.2595 -0.1693 -0.8768
  742MOL0     H 2349   0.074   9.651   9.212  2.1832  0.2663 -1.2099
  742MOL0     H 2350  -0.106   9.659   9.350  1.4280 -2.1699 -1.0203
  742MOL0     H 2351  -0.065   9.820   9.420 -3.0895 -0.6757 -1.2389
  742MOL0     H 2352  -0.066   9.904   9.175 -0.8204  0.1879 -0.0188
  742MOL0     H 2353  -0.138   9.754   9.132  1.8461  1.7386 -1.8486
  742MOL0     H 2354  -0.461   9.921   9.404 -0.1427  0.3909 -1.4041
  742MOL0     H 2355  -0.511  10.115   9.708  2.5260 -4.9808  1.3327
  742MOL0     H 2356  -0.586  10.006   9.591  0.7521  0.4206 -3.4660
  742MOL0     H 2357  -0.592  10.178   9.561  3.6751  2.1976 -2.3170
  742MOL0     H 2358  -0.540  10.410   9.869 -0.1381 -0.2681 -0.4544
  742MOL0     H 2359  -0.517  10.600  10.022  2.6128 -1.7083  1.7576
  742MOL0     H 2360  -0.506  10.916   9.949  0.5157  0.3467 -0.2362
  742MOL0     H 2361  -0.525  10.840  10.110 -1.0807  1.0067 -0.5774
  742MOL0     H 2362  -0.331  10.965  10.180 -1.0950 -1.9204 -0.5139
  742MOL0     H 2363  -0.323  11.054  10.023  1.3052 -1.5111  1.9961
  742MOL0     H 2364  -0.539  11.147  10.060  2.6970  0.0152 -1.5255
  742MOL0     H 2365  -0.434  11.219  10.167 -3.5524  2.4844 -0.5906
  742MOL0     H 2366  -0.581  11.168  10.334 -0.2781 -0.4269  0.4963
  742MOL0     H 2367  -0.526  11.002  10.338 -2.6979 -1.9363 -1.1509
  742MOL0     H 2368  -0.759  11.139  10.202  2.4298  2.0232  0.3347
  742MOL0     H 2369  -0.706  10.980  10.133  1.0877 -2.2962  1.9181
  742MOL0     H 2370  -0.743  10.870  10.334  4.4787  1.9500  0.6989
  742MOL0     H 2371  -0.895  10.935  10.285  0.2867 -1.1948  0.0793
  742MOL0     H 2372  -0.845  11.136  10.444  2.2009  1.8346 -2.4383
  742MOL0     H 2373  -0.717  11.036  10.512 -0.7470  0.2664 -0.8607
  742MOL0     H 2374  -0.867  10.852  10.569  0.0270  0.4320  2.7256
  742MOL0     H 2375  -1.010  10.951  10.501 -0.8090  0.7358  0.8099
  742MOL0     H 2376  -0.180  10.751   9.822 -1.4828  1.5927  1.8199
  742MOL0     H 2377  -0.207  10.566   9.641 -0.1551  0.2833 -0.3839
  742MOL0     H 2378  -0.084  10.215   9.515  0.9462 -0.5268 -0.5192
  742MOL0     H 2379  -0.072  10.084   9.319 -0.9370 -0.9470 -1.1000
  742MOL0     H 2380  -0.133  10.963  10.206 -0.4453 -1.2822 -0.2022
  742MOL0     H 2381  -0.109  11.177  10.328 -0.6937  0.1173 -1.8581
  742MOL0     H 2382   0.142  11.535  10.422  3.3552 -1.4953  2.0488
  742MOL0     H 2383   0.095  11.755  10.502  3.1205  0.8223  2.6646
  742MOL0     H 2384  -0.003  11.940  10.568  0.7616 -2.9672 -1.3326
  742MOL0     H 2385  -0.132  11.858  10.662  0.5634  0.5243  0.8438
  742MOL0     H 2386  -0.111  12.030  10.844 -0.2351 -1.0414  0.8657
  742MOL0     H 2387  -0.133  12.101  10.678  0.1894 -0.8314 -0.2822
  742MOL0     H 2388   0.139  12.048  10.788  1.6358  0.8772 -0.1247
  742MOL0     H 2389   0.093  12.159  10.662  1.4701 -1.7939 -0.0793
  742MOL0     H 2390   0.151  12.264  10.886  0.9583 -0.1323 -2.8786
  742MOL0     H 2391   0.020  12.178  10.966  2.1201 -3.3540 -1.0533
  742MOL0     H 2392  -0.216  12.487  10.797 -1.9279 -1.7226  1.7518
  742MOL0     H 2393   0.037  11.618  10.895 -0.0394 -2.0822  0.7342
  742MOL0     H 2394   0.087  11.379  10.953 -0.2652 -1.0371 -0.3535
  742MOL0     H 2395   0.044  11.264  10.828 -0.1587 -1.2495  1.0500
  742MOL0     H 2396   0.212  11.341  10.841  0.2758  1.5001  1.5657
  743MOL0     O 2397   3.927   7.310   4.683 -0.5114 -0.3402 -0.2608
  743MOL0     C 2398   3.828   7.381   4.649 -0.4160 -0.4790 -0.3140
  743MOL0     O 2399   3.700   7.379   4.697 -0.1852 -0.7687 -0.3937
  743MOL0     C 2400   3.663   7.292   4.797 -0.1880  0.1129  0.2676
  743MOL0     C 2401   3.550   7.216   4.776  0.0460 -0.0412  0.5577
  743MOL0     C 2402   3.484   7.153   4.876  0.4192 -1.1317  0.0091
  743MOL0     C 2403   3.538   7.154   5.003  0.2610  0.4846 -0.5964
  743MOL0     O 2404   3.471   7.070   5.091  0.0988  0.1402  0.6398
  743MOL0     C 2405   3.537   7.008   5.204 -0.1408 -0.4000 -0.1451
  743MOL0     C 2406   3.423   6.937   5.286 -0.2537 -0.9069  0.9315
  743MOL0     C 2407   3.481   6.829   5.385 -0.8494  1.1265  0.0871
  743MOL0     C 2408   3.363   6.726   5.414  0.1998  0.0945  0.1286
  743MOL0     C 2409   3.393   6.618   5.514 -0.3372  0.3959 -0.3773
  743MOL0     C 2410   3.434   6.684   5.645  0.7686 -0.4164  0.5345
  743MOL0     C 2411   3.429   6.586   5.764 -1.0007 -0.5050  0.6376
  743MOL0     C 2412   3.469   6.657   5.890 -0.1963  0.1015  0.8125
  743MOL0     N 2413   3.615   6.662   5.909 -0.0876 -0.1404  0.1480
  743MOL0     C 2414   3.702   6.560   5.923  0.6525  0.6110 -0.1090
  743MOL0     C 2415   3.820   6.615   5.965 -0.9329  0.0639  0.3369
  743MOL0     C 2416   3.943   6.539   6.012 -0.0320 -0.8931  0.9402
  743MOL0     C 2417   4.065   6.552   5.913 -0.3255 -0.3786 -0.0284
  743MOL0     C 2418   4.189   6.479   5.953  0.9611  0.0376  0.0458
  743MOL0     C 2419   4.311   6.503   5.868 -1.0109  0.2429 -0.0982
  743MOL0     O 2420   4.271   6.491   5.729 -0.1214 -0.3035  0.5857
  743MOL0     C 2421   4.290   6.373   5.672  0.0964  0.5794  0.2416
  743MOL0     C 2422   4.179   6.287   5.657 -0.3467 -1.9389  0.4094
  743MOL0     C 2423   4.193   6.161   5.601 -0.2142  0.3911 -0.5073
  743MOL0     C 2424   4.075   6.073   5.591  0.2608  0.0433 -0.4358
  743MOL0     C 2425   4.314   6.123   5.546 -0.2769 -0.0760 -0.5183
  743MOL0     C 2426   4.338   6.002   5.470 -0.6239  0.7204  0.0505
  743MOL0     O 2427   4.412   6.005   5.358  0.0307  0.0597 -0.5487
  743MOL0     C 2428   4.455   5.886   5.317 -0.4435  0.8541  0.8934
  743MOL0     C 2429   4.581   5.837   5.365  0.0601  0.1352  0.2060
  743MOL0     C 2430   4.641   5.724   5.305 -0.0205 -0.2732 -0.5942
  743MOL0     C 2431   4.580   5.658   5.202  1.3869  0.2271 -0.1205
  743MOL0     O 2432   4.624   5.541   5.144  0.1679  0.4627 -0.7325
  743MOL0     C 2433   4.757   5.499   5.174 -1.1468 -0.0343  0.6674
  743MOL0     C 2434   4.791   5.391   5.074  0.4861 -0.2019  0.5305
  743MOL0     C 2435   4.845   5.432   4.943 -0.6569 -0.6051 -1.0039
  743MOL0     C 2436   4.995   5.451   4.936  0.3331  0.7504  0.2939
  743MOL0     C 2437   5.045   5.596   4.937  0.1105 -0.1599  0.3880
  743MOL0     C 2438   4.997   5.671   4.806 -0.0058 -1.0922  0.0569
  743MOL0     C 2439   5.086   5.798   4.757  0.0193  0.8934 -0.0600
  743MOL0     C 2440   5.016   5.863   4.637 -0.7926 -0.0242  0.0246
  743MOL0    Cl 2441   5.051   5.792   4.483 -0.3212 -0.2777 -0.1552
  743MOL0     C 2442   4.472   5.714   5.137  0.4010  0.3769 -0.1461
  743MOL0     C 2443   4.406   5.822   5.201  0.1661 -1.0719 -0.1056
  743MOL0     O 2444   4.296   5.901   5.516  0.2328  0.0086  0.4911
  743MOL0     C 2445   4.418   6.220   5.546 -0.1747  0.6890  0.0437
  743MOL0     C 2446   4.408   6.334   5.615  0.6384 -0.3338 -0.4666
  743MOL0     N 2447   3.802   6.746   5.982  1.1061 -0.4724 -0.7435
  743MOL0     N 2448   3.686   6.779   5.940 -0.7433  0.0394  0.7081
  743MOL0     C 2449   3.663   7.215   5.028  0.4221 -0.3309 -1.0999
  743MOL0     C 2450   3.722   7.285   4.921 -0.1354  0.2647 -0.2339
  743MOL0     C 2451   3.864   7.481   4.562 -0.4056  0.5004 -0.6153
  743MOL0     C 2452   3.815   7.612   4.588  0.3369  0.7488  0.5584
  743MOL0     C 2453   3.843   7.718   4.495  0.1885  0.3638 -0.4527
  743MOL0     C 2454   3.946   7.699   4.399  0.9140 -0.4817  0.0306
  743MOL0     O 2455   3.978   7.803   4.315 -0.2077  1.1501  0.3894
  743MOL0     C 2456   3.879   7.895   4.259 -0.6347  0.4223 -0.8671
  743MOL0     C 2457   3.919   8.043   4.300 -0.1859 -0.7091  0.7610
  743MOL0     C 2458   4.073   8.066   4.304 -0.4875  0.2981 -0.6588
  743MOL0     C 2459   4.106   8.183   4.395  0.8023  0.2998 -0.4171
  743MOL0     C 2460   4.043   8.308   4.352 -0.5245  0.3416  0.0557
  743MOL0     C 2461   3.989   8.406   4.304  0.8416  1.0159 -1.0455
  743MOL0     C 2462   3.985   7.571   4.373 -0.3647 -0.4885 -0.0257
  743MOL0     C 2463   3.943   7.459   4.446 -0.4530 -0.4766 -0.3883
  743MOL0     C 2464   3.993   7.328   4.394 -0.2945  0.6674 -0.0467
  743MOL0     H 2465   3.503   7.226   4.679  1.4279  0.6033 -0.0864
  743MOL0     H 2466   3.390   7.099   4.865  1.0465 -2.3086  0.2580
  743MOL0     H 2467   3.576   7.095   5.257  1.4960  1.4126 -3.9172
  743MOL0     H 2468   3.611   6.938   5.164 -1.2522 -0.2353 -2.7196
  743MOL0     H 2469   3.367   7.005   5.351 -1.6431 -0.1997 -0.9306
  743MOL0     H 2470   3.353   6.903   5.210 -0.3782  2.8687 -0.8897
  743MOL0     H 2471   3.563   6.773   5.341  0.7035  2.3370  1.3270
  743MOL0     H 2472   3.515   6.871   5.480 -2.5568 -1.2006  1.8311
  743MOL0     H 2473   3.276   6.787   5.437 -0.2311  0.1166 -1.4492
  743MOL0     H 2474   3.324   6.669   5.329  0.4329 -2.8098  1.8169
  743MOL0     H 2475   3.467   6.546   5.478 -1.5559 -1.0966 -0.0100
  743MOL0     H 2476   3.307   6.553   5.533 -0.7534  0.6293 -1.3346
  743MOL0     H 2477   3.530   6.737   5.642  1.5110 -1.4794  3.0002
  743MOL0     H 2478   3.360   6.762   5.663  1.0170 -0.2582  0.8682
  743MOL0     H 2479   3.477   6.489   5.744 -1.1648 -1.1647  3.0858
  743MOL0     H 2480   3.323   6.559   5.775 -0.4437 -3.6202 -0.5331
  743MOL0     H 2481   3.439   6.762   5.899 -1.0183 -0.3091  4.7273
  743MOL0     H 2482   3.425   6.606   5.977 -1.7513  0.5251  0.3052
  743MOL0     H 2483   3.685   6.458   5.888 -1.1891  0.9579 -0.3400
  743MOL0     H 2484   3.921   6.435   6.037  1.2082 -1.7371 -1.1884
  743MOL0     H 2485   3.962   6.593   6.106 -0.1890  1.2806 -0.2138
  743MOL0     H 2486   4.030   6.510   5.818 -0.9360  0.7284 -0.3138
  743MOL0     H 2487   4.096   6.654   5.890  4.2012 -1.4943  0.0772
  743MOL0     H 2488   4.218   6.521   6.050  0.7746 -0.8597  0.5070
  743MOL0     H 2489   4.156   6.375   5.965 -1.3499  0.8273  1.1362
  743MOL0     H 2490   4.355   6.599   5.897  2.2199 -1.6450  1.8968
  743MOL0     H 2491   4.389   6.428   5.889  0.1486  1.6789  0.9749
  743MOL0     H 2492   4.085   6.321   5.700  0.4216  0.2398  0.5091
  743MOL0     H 2493   4.034   6.057   5.491 -1.1261 -2.4810  0.4398
  743MOL0     H 2494   3.995   6.106   5.659  0.3383  0.4874 -0.5559
  743MOL0     H 2495   4.097   5.973   5.628  0.0564  0.7479  1.7614
  743MOL0     H 2496   4.640   5.877   5.446 -0.1724 -4.4956  3.0380
  743MOL0     H 2497   4.724   5.672   5.351 -1.2861 -1.9723 -0.1053
  743MOL0     H 2498   4.828   5.582   5.160 -0.7377 -0.6244 -0.9710
  743MOL0     H 2499   4.764   5.462   5.277  0.2190 -0.5440  0.4131
  743MOL0     H 2500   4.850   5.319   5.132 -0.1743  0.5900  2.2542
  743MOL0     H 2501   4.702   5.333   5.051 -2.4032  3.7566  0.7334
  743MOL0     H 2502   4.785   5.515   4.905 -1.7110  0.8301  3.2284
  743MOL0     H 2503   4.817   5.351   4.875 -0.7998 -0.2344 -1.3974
  743MOL0     H 2504   5.026   5.398   4.846  2.2390 -3.2921  2.9767
  743MOL0     H 2505   5.047   5.396   5.016  1.8562 -0.8717 -1.7172
  743MOL0     H 2506   5.010   5.652   5.024  0.4150 -0.8537  0.9690
  743MOL0     H 2507   5.155   5.590   4.937  0.1632  0.7097 -0.0357
  743MOL0     H 2508   4.891   5.694   4.816 -0.1724 -1.2976 -1.1529
  743MOL0     H 2509   4.996   5.602   4.721 -0.9185 -1.5185  0.4035
  743MOL0     H 2510   5.188   5.760   4.747 -0.2603  0.1813 -0.2868
  743MOL0     H 2511   5.106   5.863   4.842  3.3723 -0.5780  0.4541
  743MOL0     H 2512   5.049   5.967   4.642 -2.6631  0.8060 -2.6534
  743MOL0     H 2513   4.910   5.848   4.659 -0.1060 -3.6816  1.5268
  743MOL0     H 2514   4.448   5.671   5.040 -0.0482  0.1025  0.0839
  743MOL0     H 2515   4.313   5.868   5.169  0.1237 -0.7201  0.5083
  743MOL0     H 2516   4.501   6.209   5.476 -2.2535  0.2551 -2.5430
  743MOL0     H 2517   4.489   6.406   5.623  0.3993 -0.1117  0.0089
  743MOL0     H 2518   3.710   7.207   5.126 -0.3032 -0.4695 -0.7588
  743MOL0     H 2519   3.816   7.329   4.952  0.7319 -2.8726  2.1255
  743MOL0     H 2520   3.752   7.632   4.674 -0.9797 -1.3308  0.1461
  743MOL0     H 2521   3.797   7.813   4.518 -3.9357 -1.7266  1.1279
  743MOL0     H 2522   3.875   7.879   4.151 -0.6061  0.4538 -0.8723
  743MOL0     H 2523   3.778   7.867   4.294 -0.3931  2.0238  1.3266
  743MOL0     H 2524   3.865   8.078   4.388  1.3837 -0.4406  1.6562
  743MOL0     H 2525   3.874   8.113   4.229  0.1093  1.1694  2.3594
  743MOL0     H 2526   4.128   7.984   4.350 -0.8642 -0.1063 -0.9216
  743MOL0     H 2527   4.117   8.081   4.205  1.1295 -0.6865 -0.1220
  743MOL0     H 2528   4.215   8.190   4.396  0.9710 -1.0867 -2.5226
  743MOL0     H 2529   4.086   8.182   4.502 -0.6872  2.4443 -0.5978
  743MOL0     H 2530   3.949   8.485   4.244 -0.5954 -0.6982 -2.4295
  743MOL0     H 2531   4.055   7.569   4.291  0.6128  3.0011  0.5356
  743MOL0     H 2532   4.087   7.285   4.427 -1.1729 -1.7829 -0.5310
  743MOL0     H 2533   3.913   7.255   4.411  1.7046 -1.3099  1.2696
  743MOL0     H 2534   4.017   7.357   4.291 -1.4547  0.5289 -0.3791
  744MOL0     O 2535  10.885   6.309   9.665  0.0335 -0.3029  0.1706
  744MOL0     C 2536  10.859   6.315   9.791 -0.1089  0.3433  0.1586
  744MOL0     O 2537  10.937   6.280   9.893  0.3477 -0.1196  0.4535
  744MOL0     C 2538  11.063   6.258   9.864  0.3590  0.5972  0.2016
  744MOL0     C 2539  11.165   6.350   9.853 -0.1551 -0.3201 -0.5289
  744MOL0     C 2540  11.300   6.312   9.833 -0.7697 -1.0385 -0.3282
  744MOL0     C 2541  11.338   6.174   9.832  0.3207 -0.5957  0.5028
  744MOL0     O 2542  11.470   6.148   9.819 -0.9680  0.3220  0.6795
  744MOL0     C 2543  11.522   6.015   9.836 -0.4321 -0.1792  0.1386
  744MOL0     C 2544  11.675   6.004   9.830 -0.0184  0.1044  0.5135
  744MOL0     C 2545  11.728   6.033   9.683 -0.3222 -0.5984  0.6892
  744MOL0     C 2546  11.883   6.004   9.696 -0.3503 -0.1546 -0.5098
  744MOL0     C 2547  11.944   6.075   9.580  0.0414 -0.0672 -0.4939
  744MOL0     C 2548  12.086   6.025   9.559 -0.0125  0.0367 -0.6522
  744MOL0     C 2549  12.161   6.102   9.455  1.0467 -0.0646  0.2253
  744MOL0     C 2550  12.195   6.253   9.476  0.3484 -0.4007 -0.3854
  744MOL0     N 2551  12.298   6.274   9.582 -0.4532 -0.0287  0.0710
  744MOL0     C 2552  12.278   6.283   9.717 -0.3209 -0.3276 -0.3020
  744MOL0     C 2553  12.393   6.350   9.760  0.2632  0.5619 -0.7853
  744MOL0     C 2554  12.444   6.383   9.902  0.5897 -0.3677  0.4748
  744MOL0     C 2555  12.378   6.510   9.959 -0.5260  0.1719 -0.2973
  744MOL0     C 2556  12.436   6.629   9.898  0.4156 -0.3478  0.6236
  744MOL0     C 2557  12.581   6.666   9.925 -0.6572 -0.3185  0.3208
  744MOL0     O 2558  12.608   6.804   9.930  0.0049  0.6594  0.0819
  744MOL0     C 2559  12.586   6.869   9.814  0.2538 -1.2327  0.4364
  744MOL0     C 2560  12.559   6.817   9.684 -0.3114 -0.6861 -0.8351
  744MOL0     C 2561  12.568   6.895   9.569  0.2244 -0.0002 -0.4846
  744MOL0     C 2562  12.573   6.825   9.443 -0.3812  0.0309 -0.6853
  744MOL0     C 2563  12.567   7.040   9.580 -0.0023  0.4874 -0.0837
  744MOL0     C 2564  12.581   7.135   9.464 -0.6298  0.0404 -0.1240
  744MOL0     O 2565  12.590   7.262   9.497  0.1394  0.6865 -0.0045
  744MOL0     C 2566  12.581   7.364   9.407 -0.8888  1.1167  0.4233
  744MOL0     C 2567  12.492   7.363   9.301 -0.1879 -0.6575  0.1151
  744MOL0     C 2568  12.474   7.480   9.225  0.4627  0.2497  0.4208
  744MOL0     C 2569  12.555   7.598   9.247  0.1948  0.8834 -0.2436
  744MOL0     O 2570  12.563   7.705   9.163 -0.5230  0.6548  0.2099
  744MOL0     C 2571  12.513   7.700   9.028 -0.2526  0.1735 -0.1242
  744MOL0     C 2572  12.484   7.840   8.977  0.2203 -0.1595  0.2322
  744MOL0     C 2573  12.440   7.831   8.835 -0.0653 -0.1209 -0.1105
  744MOL0     C 2574  12.387   7.978   8.795 -0.5327  0.5769  0.6504
  744MOL0     C 2575  12.246   7.974   8.757  0.5623 -1.0344 -0.2704
  744MOL0     C 2576  12.238   7.896   8.620 -0.1388 -0.1750 -1.3467
  744MOL0     C 2577  12.100   7.851   8.575  0.0675 -0.6135 -0.4776
  744MOL0     C 2578  12.084   7.879   8.427  0.2992  0.3722  0.5303
  744MOL0    Cl 2579  12.080   8.056   8.379 -0.3314  0.0509 -0.3816
  744MOL0     C 2580  12.647   7.593   9.356  0.8002  0.2878  0.6359
  744MOL0     C 2581  12.647   7.480   9.434 -0.5680 -0.4092 -0.0390
  744MOL0     O 2582  12.585   7.089   9.348  0.0740  0.3135  0.2835
  744MOL0     C 2583  12.588   7.092   9.709  0.3775  0.2002 -0.4713
  744MOL0     C 2584  12.601   7.011   9.825 -0.3909  0.6707  0.7742
  744MOL0     N 2585  12.478   6.347   9.653  0.6911  0.5907 -0.2620
  744MOL0     N 2586  12.426   6.298   9.549  0.0029 -0.6722  0.6089
  744MOL0     C 2587  11.232   6.086   9.847  0.2920  0.5049  0.8160
  744MOL0     C 2588  11.095   6.119   9.863  0.1238 -1.1742 -0.5244
  744MOL0     C 2589  10.736   6.391   9.834  0.1785  1.2280 -0.0191
  744MOL0     C 2590  10.742   6.468   9.951 -0.0079  0.8597  0.2223
  744MOL0     C 2591  10.634   6.544   9.994 -0.7948  0.7545  0.1942
  744MOL0     C 2592  10.520   6.545   9.920  0.0727  1.0333  0.2822
  744MOL0     O 2593  10.421   6.635   9.952  0.4998 -0.5593  0.0491
  744MOL0     C 2594  10.291   6.608   9.900  0.6353  0.3255 -0.0871
  744MOL0     C 2595  10.172   6.681   9.976 -0.4657 -0.8279 -0.5256
  744MOL0     C 2596  10.183   6.835   9.975  0.8242 -0.1977 -0.5319
  744MOL0     C 2597  10.108   6.889  10.107 -0.0455 -0.2344  0.7158
  744MOL0     C 2598  10.165   7.005  10.163 -0.2363 -0.3448  0.1793
  744MOL0     C 2599  10.200   7.106  10.214 -0.2809 -0.8444  0.1315
  744MOL0     C 2600  10.506   6.464   9.811 -0.8928  0.7434  0.3935
  744MOL0     C 2601  10.612   6.378   9.769 -0.0360  0.1401  0.2877
  744MOL0     C 2602  10.596   6.289   9.644  0.4669 -0.6514 -1.0313
  744MOL0     H 2603  11.124   6.449   9.869  1.5790  0.2323  0.9015
  744MOL0     H 2604  11.370   6.393   9.824 -2.5845  0.6112 -0.2311
  744MOL0     H 2605  11.479   5.950   9.760  0.0873  0.7966 -1.0280
  744MOL0     H 2606  11.494   5.983   9.937 -1.4669  0.7257  0.1510
  744MOL0     H 2607  11.717   6.075   9.902 -1.4137 -1.3408  2.8731
  744MOL0     H 2608  11.710   5.906   9.864  0.6854  1.3063  3.5438
  744MOL0     H 2609  11.681   5.969   9.608  1.8036 -4.0407  2.0618
  744MOL0     H 2610  11.706   6.136   9.652  1.1980 -1.0731 -2.3053
  744MOL0     H 2611  11.915   6.063   9.783  1.5298 -0.5568 -0.8756
  744MOL0     H 2612  11.917   5.902   9.717  3.4149  1.1556  0.5828
  744MOL0     H 2613  11.934   6.184   9.577 -1.1751 -0.1584 -0.2884
  744MOL0     H 2614  11.894   6.045   9.487  1.2474 -3.8753 -0.0476
  744MOL0     H 2615  12.136   6.042   9.655 -1.6067  0.7433  0.0811
  744MOL0     H 2616  12.074   5.918   9.539 -0.2856 -0.1713  0.5574
  744MOL0     H 2617  12.108   6.098   9.359  0.6520 -0.9102  0.4717
  744MOL0     H 2618  12.245   6.032   9.454  0.5294 -0.6867  0.1620
  744MOL0     H 2619  12.227   6.281   9.375 -2.2609 -0.7260 -1.3878
  744MOL0     H 2620  12.106   6.314   9.492 -1.5530 -2.9507 -0.6101
  744MOL0     H 2621  12.189   6.254   9.773 -1.4116  0.5674 -1.5084
  744MOL0     H 2622  12.551   6.405   9.905  0.0401  2.9470 -0.8147
  744MOL0     H 2623  12.417   6.297   9.964  0.0982 -1.6160 -1.4014
  744MOL0     H 2624  12.270   6.520   9.946 -0.1978  3.3793 -1.4499
  744MOL0     H 2625  12.398   6.522  10.066 -1.6141  1.0124 -0.1718
  744MOL0     H 2626  12.416   6.618   9.791 -1.3813 -1.8655  1.0548
  744MOL0     H 2627  12.365   6.707   9.927 -0.7089 -0.6343 -1.2120
  744MOL0     H 2628  12.621   6.623  10.017  1.2681 -0.1245 -0.3966
  744MOL0     H 2629  12.645   6.615   9.853  0.9510 -2.4119  3.0417
  744MOL0     H 2630  12.563   6.709   9.674  3.4270 -0.9981  1.7988
  744MOL0     H 2631  12.475   6.843   9.399 -1.0468  1.0699  1.1110
  744MOL0     H 2632  12.576   6.716   9.441  1.8117  0.0015 -4.2767
  744MOL0     H 2633  12.651   6.865   9.378  1.5573 -0.4437  1.2028
  744MOL0     H 2634  12.438   7.274   9.269  1.3857 -1.6898  0.2456
  744MOL0     H 2635  12.405   7.467   9.142 -0.3271  1.3130  0.8979
  744MOL0     H 2636  12.576   7.649   8.955 -1.7886  1.6096 -2.6242
  744MOL0     H 2637  12.415   7.652   9.020 -0.8217  1.4135 -0.8676
  744MOL0     H 2638  12.410   7.893   9.037 -1.3879 -3.6804  1.6561
  744MOL0     H 2639  12.583   7.885   8.991  0.3494 -0.9247  1.9768
  744MOL0     H 2640  12.352   7.767   8.828 -0.1530  0.1670 -3.8200
  744MOL0     H 2641  12.521   7.794   8.771  1.1136  0.1171  1.1915
  744MOL0     H 2642  12.442   8.017   8.709 -3.1878  1.1761 -0.8840
  744MOL0     H 2643  12.393   8.054   8.874 -2.0644  1.1678  0.2250
  744MOL0     H 2644  12.200   7.915   8.838 -0.0032  1.7206  1.5269
  744MOL0     H 2645  12.213   8.078   8.748 -0.2396 -1.1267  1.2779
  744MOL0     H 2646  12.308   7.812   8.619  1.3720  0.8950  1.8852
  744MOL0     H 2647  12.270   7.975   8.550  1.0273  0.0821 -0.5469
  744MOL0     H 2648  12.025   7.904   8.635  1.1463  0.8827 -0.3937
  744MOL0     H 2649  12.103   7.745   8.601  0.6121 -0.3144  0.8008
  744MOL0     H 2650  11.994   7.834   8.386  0.0570 -1.9197  3.2431
  744MOL0     H 2651  12.165   7.835   8.368 -1.1833  0.6579 -1.8273
  744MOL0     H 2652  12.715   7.668   9.395  3.0346  0.0328 -2.4366
  744MOL0     H 2653  12.717   7.478   9.517 -1.0656  1.2957  0.4648
  744MOL0     H 2654  12.604   7.198   9.727  0.9718  0.6364 -3.1275
  744MOL0     H 2655  12.609   7.048   9.926 -0.7057  0.4128  0.8950
  744MOL0     H 2656  11.263   5.983   9.837  1.1156  0.5991  2.1914
  744MOL0     H 2657  11.009   6.052   9.867 -0.8921  0.0878 -0.5519
  744MOL0     H 2658  10.831   6.481  10.011 -0.7991  0.6724  1.4731
  744MOL0     H 2659  10.637   6.596  10.089  2.7545 -2.2613  1.9918
  744MOL0     H 2660  10.283   6.610   9.791  0.5876  1.3163 -0.0732
  744MOL0     H 2661  10.274   6.504   9.929  2.4042  0.1200  0.3555
  744MOL0     H 2662  10.165   6.650  10.081  2.2209  3.3213  1.1500
  744MOL0     H 2663  10.080   6.667   9.920 -1.0449  2.2631 -0.5259
  744MOL0     H 2664  10.287   6.870   9.973  0.6624  0.3818  0.6172
  744MOL0     H 2665  10.139   6.870   9.881  0.4832 -0.3557 -0.4316
  744MOL0     H 2666  10.110   6.810  10.183 -3.3159 -1.7260 -0.5484
  744MOL0     H 2667  10.002   6.910  10.091  0.2894  0.1529 -1.2701
  744MOL0     H 2668  10.234   7.204  10.239  1.8696 -0.9300 -2.0375
  744MOL0     H 2669  10.416   6.467   9.751  0.6259  1.9824 -1.9704
  744MOL0     H 2670  10.491   6.258   9.635  0.4264 -0.3999 -1.4367
  744MOL0     H 2671  10.630   6.340   9.554  1.0334 -0.9632 -0.9987
  744MOL0     H 2672  10.651   6.195   9.657  0.8752 -0.0766  2.2206
  745MOL0     O 2673   1.486   5.762   2.462  0.2233 -0.6781  0.7115
  745MOL0     C 2674   1.434   5.873   2.454  0.4349  0.2213 -0.6065
  745MOL0     O 2675   1.303   5.892   2.465  0.0838 -0.6147 -0.3457
  745MOL0     C 2676   1.229   5.785   2.509  0.6078  0.1519  0.4459
  745MOL0     C 2677   1.206   5.663   2.437 -0.8719  0.7881 -0.0779
  745MOL0     C 2678   1.138   5.557   2.491 -0.2473  0.6856 -0.7571
  745MOL0     C 2679   1.088   5.560   2.616 -0.2467  0.2133 -0.4123
  745MOL0     O 2680   1.032   5.442   2.659  0.6977 -0.0727 -1.1232
  745MOL0     C 2681   0.995   5.438   2.802  0.4321  1.2659 -0.3229
  745MOL0     C 2682   0.955   5.293   2.836  0.6960 -0.3160 -0.1675
  745MOL0     C 2683   0.833   5.242   2.758  0.1694  0.7853  0.0691
  745MOL0     C 2684   0.707   5.328   2.790  0.6420 -0.3609 -0.2050
  745MOL0     C 2685   0.585   5.276   2.714 -0.3633  0.7516 -0.5380
  745MOL0     C 2686   0.477   5.358   2.761  0.5106 -0.4552 -0.2119
  745MOL0     C 2687   0.346   5.318   2.695  0.2214  0.3521 -0.0059
  745MOL0     C 2688   0.215   5.358   2.767  0.0472  0.2840  0.2800
  745MOL0     N 2689   0.185   5.502   2.766 -0.9633  0.2697 -0.0494
  745MOL0     C 2690   0.243   5.580   2.852  0.6390 -0.7361 -1.0288
  745MOL0     C 2691   0.208   5.708   2.813  0.5072 -0.3408 -0.4183
  745MOL0     C 2692   0.263   5.839   2.866 -0.1053  0.6789  0.1010
  745MOL0     C 2693   0.234   5.855   3.014  0.6306 -0.6285  0.2920
  745MOL0     C 2694   0.320   5.962   3.082 -0.0110  0.7331  0.1616
  745MOL0     C 2695   0.278   6.001   3.226 -0.0856 -1.0427  0.5848
  745MOL0     O 2696   0.287   5.883   3.306 -0.0804 -0.1415 -0.1472
  745MOL0     C 2697   0.224   5.885   3.428  0.2821  0.6998  0.3928
  745MOL0     C 2698   0.202   5.992   3.515 -0.0250 -0.3420  0.1938
  745MOL0     C 2699   0.141   5.977   3.645 -0.6513 -0.2425  0.1525
  745MOL0     C 2700   0.143   6.100   3.741 -0.1521  0.5575  0.6527
  745MOL0     C 2701   0.096   5.848   3.676  0.1979  0.5331 -0.1675
  745MOL0     C 2702   0.027   5.822   3.804 -0.1811  0.6183  0.0285
  745MOL0     O 2703  -0.071   5.723   3.796 -0.0061  0.5673 -0.1940
  745MOL0     C 2704  -0.140   5.685   3.910 -1.1629 -0.1802  0.6492
  745MOL0     C 2705  -0.072   5.638   4.020 -0.2088 -1.0628  0.2577
  745MOL0     C 2706  -0.152   5.587   4.123 -0.4441  0.5398  0.1859
  745MOL0     C 2707  -0.292   5.582   4.124 -0.5749  0.0610 -0.1027
  745MOL0     O 2708  -0.376   5.530   4.215 -0.3957 -0.2495  0.4923
  745MOL0     C 2709  -0.339   5.406   4.274  0.2331  0.0186  0.4865
  745MOL0     C 2710  -0.461   5.343   4.345  0.0293  0.4688 -0.0661
  745MOL0     C 2711  -0.576   5.271   4.254 -0.7065 -0.2830 -0.5269
  745MOL0     C 2712  -0.526   5.163   4.166 -0.5039 -0.6185 -0.2674
  745MOL0     C 2713  -0.638   5.099   4.102  0.1237 -0.1826 -0.4261
  745MOL0     C 2714  -0.583   4.984   4.025  0.4314  0.0496 -0.0944
  745MOL0     C 2715  -0.689   4.874   4.003 -0.5794 -0.4072  0.3739
  745MOL0     C 2716  -0.623   4.736   3.975  1.0446 -0.0799  0.4393
  745MOL0    Cl 2717  -0.758   4.630   3.900  0.0421 -0.0713  0.4670
  745MOL0     C 2718  -0.355   5.638   4.010  0.6631 -0.3933 -0.5910
  745MOL0     C 2719  -0.274   5.686   3.910 -0.0754 -0.4937 -0.6910
  745MOL0     O 2720   0.049   5.874   3.912  0.3727 -0.0266  0.2611
  745MOL0     C 2721   0.119   5.740   3.590 -0.1217  0.2149 -0.2769
  745MOL0     C 2722   0.178   5.757   3.469 -0.4146 -0.0571  0.0189
  745MOL0     N 2723   0.135   5.696   2.696 -0.0604  0.8249 -0.4053
  745MOL0     N 2724   0.122   5.571   2.669  0.1313  0.0804  0.1570
  745MOL0     C 2725   1.087   5.682   2.687 -0.9625  0.3027  0.3339
  745MOL0     C 2726   1.165   5.792   2.634 -0.1214 -0.5406  0.2398
  745MOL0     C 2727   1.511   5.996   2.432 -0.0713  0.0626  0.2059
  745MOL0     C 2728   1.442   6.105   2.367 -0.1752 -0.2779  0.2969
  745MOL0     C 2729   1.501   6.226   2.357  0.3489  1.1581 -0.0553
  745MOL0     C 2730   1.628   6.258   2.403 -0.3359  0.5933  0.5281
  745MOL0     O 2731   1.691   6.383   2.381 -0.3709  0.7673 -0.4064
  745MOL0     C 2732   1.683   6.428   2.246 -0.3308  0.5917  0.8046
  745MOL0     C 2733   1.814   6.500   2.220 -0.1730  0.0361 -0.2367
  745MOL0     C 2734   1.826   6.544   2.076 -0.6259 -0.3559  0.2060
  745MOL0     C 2735   1.973   6.596   2.051 -0.4287  0.6914 -0.0614
  745MOL0     C 2736   2.006   6.640   1.912  0.2186  0.5151 -0.0489
  745MOL0     C 2737   2.025   6.662   1.798  0.3472  0.9412  0.1404
  745MOL0     C 2738   1.692   6.153   2.460  0.8045  0.0202 -0.5413
  745MOL0     C 2739   1.640   6.028   2.477 -0.3183  0.9945  0.7324
  745MOL0     C 2740   1.726   5.914   2.530  0.8062 -1.2517  0.6859
  745MOL0     H 2741   1.241   5.657   2.334  1.3678  0.6497  0.6408
  745MOL0     H 2742   1.146   5.470   2.427  4.5380 -0.5352  1.0694
  745MOL0     H 2743   0.906   5.501   2.819  0.6460  1.8053 -1.1497
  745MOL0     H 2744   1.079   5.467   2.866  0.4925  1.5328 -0.5219
  745MOL0     H 2745   1.046   5.236   2.814  0.1449 -1.5606  0.7011
  745MOL0     H 2746   0.938   5.292   2.944 -0.5613  2.8390 -0.2121
  745MOL0     H 2747   0.860   5.247   2.652  0.1303  1.2852  0.0824
  745MOL0     H 2748   0.809   5.138   2.784  1.2659  0.6741  0.7224
  745MOL0     H 2749   0.673   5.310   2.893 -2.9590 -0.4013 -1.2607
  745MOL0     H 2750   0.712   5.434   2.762 -2.9321 -1.1214 -5.0743
  745MOL0     H 2751   0.566   5.171   2.736 -3.5178  1.7333  2.2533
  745MOL0     H 2752   0.606   5.292   2.608 -0.1726  2.7647 -0.2432
  745MOL0     H 2753   0.451   5.344   2.867  1.2279 -0.4038 -0.0211
  745MOL0     H 2754   0.490   5.466   2.750 -1.0179 -0.2443 -0.0614
  745MOL0     H 2755   0.341   5.209   2.689 -2.6101  0.3076  1.6614
  745MOL0     H 2756   0.341   5.365   2.596 -0.9007 -0.0723 -0.1667
  745MOL0     H 2757   0.132   5.317   2.708  1.8128  0.4285 -2.5042
  745MOL0     H 2758   0.207   5.310   2.865  2.1087 -1.3989 -0.2778
  745MOL0     H 2759   0.297   5.549   2.941 -2.4301  0.3301  1.3833
  745MOL0     H 2760   0.216   5.921   2.810  1.5804  0.6602 -1.4040
  745MOL0     H 2761   0.370   5.852   2.854  0.1318 -0.0251  1.2843
  745MOL0     H 2762   0.129   5.884   3.018  0.4350 -0.8378 -1.9530
  745MOL0     H 2763   0.253   5.754   3.051  0.5641 -1.1368 -1.0039
  745MOL0     H 2764   0.423   5.926   3.081  0.1462  1.1768 -0.3230
  745MOL0     H 2765   0.305   6.055   3.026 -1.2229  0.5289  0.1115
  745MOL0     H 2766   0.346   6.080   3.259  2.7591 -2.3042 -1.7889
  745MOL0     H 2767   0.176   6.040   3.217 -0.3866 -1.3493  2.3130
  745MOL0     H 2768   0.243   6.088   3.487 -0.9064  0.1468  0.5608
  745MOL0     H 2769   0.247   6.129   3.756  0.4490 -1.2187  0.1490
  745MOL0     H 2770   0.083   6.098   3.832 -1.0168 -1.9148  0.1285
  745MOL0     H 2771   0.103   6.186   3.686 -2.4325  0.4694  2.0040
  745MOL0     H 2772   0.037   5.641   4.016 -0.2314  0.2811  0.0700
  745MOL0     H 2773  -0.095   5.553   4.209 -0.2072  0.2978 -0.0647
  745MOL0     H 2774  -0.311   5.337   4.193  1.9158  0.6919  0.4458
  745MOL0     H 2775  -0.254   5.419   4.343 -1.4218  1.7315  2.3062
  745MOL0     H 2776  -0.420   5.255   4.396 -0.7054 -0.3731 -0.8866
  745MOL0     H 2777  -0.498   5.417   4.416  1.6045  0.7404  0.5115
  745MOL0     H 2778  -0.608   5.355   4.193  2.1687  0.3042 -1.3704
  745MOL0     H 2779  -0.666   5.237   4.307 -0.4697 -1.5336 -0.8878
  745MOL0     H 2780  -0.479   5.092   4.235 -1.9101  0.8740  2.3883
  745MOL0     H 2781  -0.445   5.191   4.098  0.0373  0.7469  0.8899
  745MOL0     H 2782  -0.711   5.063   4.174 -0.0868  1.5839  0.3055
  745MOL0     H 2783  -0.693   5.168   4.037  0.5339 -0.9490 -1.6077
  745MOL0     H 2784  -0.503   4.934   4.080  0.2680  1.7684  1.7764
  745MOL0     H 2785  -0.549   5.019   3.927  1.7591 -0.8233  0.0220
  745MOL0     H 2786  -0.754   4.905   3.921 -2.4718 -0.6569  1.7047
  745MOL0     H 2787  -0.754   4.862   4.090  1.3510 -1.4857  1.7553
  745MOL0     H 2788  -0.588   4.686   4.066  1.6683  0.2293  0.3757
  745MOL0     H 2789  -0.544   4.747   3.900 -1.9433  0.8275 -2.8670
  745MOL0     H 2790  -0.461   5.621   3.999  0.4590  0.4349  0.0358
  745MOL0     H 2791  -0.328   5.716   3.821 -0.5217  1.0337  0.0653
  745MOL0     H 2792   0.096   5.640   3.625 -0.8209  0.4869  0.0563
  745MOL0     H 2793   0.197   5.670   3.407  1.1994 -0.1786  0.6480
  745MOL0     H 2794   1.048   5.705   2.786  0.4198  1.8271  0.5546
  745MOL0     H 2795   1.177   5.891   2.678  0.1758  0.6791 -2.3612
  745MOL0     H 2796   1.342   6.096   2.326  0.3790  2.2128 -1.8877
  745MOL0     H 2797   1.441   6.300   2.306  0.2627  1.3288  0.2895
  745MOL0     H 2798   1.661   6.354   2.169 -0.8750  1.3847  0.1889
  745MOL0     H 2799   1.612   6.509   2.235  2.8715  3.2950 -3.1015
  745MOL0     H 2800   1.897   6.432   2.240 -0.5760 -0.0930  1.0929
  745MOL0     H 2801   1.824   6.582   2.291  0.4818 -1.4241  1.4387
  745MOL0     H 2802   1.797   6.469   2.003  0.2301  1.1250 -1.7484
  745MOL0     H 2803   1.761   6.632   2.073 -1.0630 -0.7009 -0.9266
  745MOL0     H 2804   2.035   6.510   2.078 -3.5394 -2.5917 -2.3345
  745MOL0     H 2805   1.991   6.682   2.116  0.9530 -0.7656  1.5969
  745MOL0     H 2806   2.050   6.669   1.694 -0.2116 -1.3623 -0.1973
  745MOL0     H 2807   1.796   6.167   2.491  0.3799 -0.4488  1.1894
  745MOL0     H 2808   1.743   5.829   2.463  3.3802  0.5217 -1.0397
  745MOL0     H 2809   1.819   5.951   2.574  2.0079 -0.4325 -2.3268
  745MOL0     H 2810   1.655   5.876   2.605  2.8309  0.3188  3.5607
  746MOL0     O 2811   9.353   9.582  10.245  0.2807  0.3428 -0.8194
  746MOL0     C 2812   9.273   9.674  10.269 -0.1505  0.9254 -0.4158
  746MOL0     O 2813   9.276   9.767  10.368  0.1165  0.3552  0.9552
  746MOL0     C 2814   9.363   9.744  10.476  0.9373  0.5349 -0.1473
  746MOL0     C 2815   9.314   9.716  10.600 -1.1495 -0.5802  0.2113
  746MOL0     C 2816   9.407   9.707  10.699  0.7967 -0.0971 -0.0271
  746MOL0     C 2817   9.543   9.712  10.675 -0.0728  0.3267 -1.5697
  746MOL0     O 2818   9.633   9.683  10.777 -0.0169  0.6228 -0.0447
  746MOL0     C 2819   9.630   9.765  10.894  0.0308 -0.5051  0.4651
  746MOL0     C 2820   9.772   9.799  10.928  1.1480 -0.1990 -0.7631
  746MOL0     C 2821   9.787   9.834  11.080  1.3118  1.1265 -0.5377
  746MOL0     C 2822   9.933   9.860  11.126 -0.6301 -0.5923 -0.5930
  746MOL0     C 2823   9.948   9.917  11.262  0.2635 -0.5455  0.6205
  746MOL0     C 2824   9.894  10.054  11.292 -0.0403 -0.7696  0.5970
  746MOL0     C 2825   9.924  10.111  11.432 -0.3782  0.1872  0.2711
  746MOL0     C 2826  10.073  10.119  11.468  0.6162 -0.5292  0.9540
  746MOL0     N 2827  10.086  10.173  11.603 -0.1500  0.1661 -0.2917
  746MOL0     C 2828  10.160  10.120  11.697  0.8411  0.1266 -0.3091
  746MOL0     C 2829  10.172  10.202  11.799  0.3498 -0.7389 -0.8600
  746MOL0     C 2830  10.233  10.161  11.936 -0.3491 -0.2573 -0.1969
  746MOL0     C 2831  10.388  10.179  11.925  0.7071  0.3424 -0.0201
  746MOL0     C 2832  10.446  10.182  12.059 -0.3361  0.6157  0.5601
  746MOL0     C 2833  10.404  10.080  12.158  0.3196  0.0553  0.5565
  746MOL0     O 2834  10.426   9.947  12.113  0.5761 -0.0879  0.0212
  746MOL0     C 2835  10.556   9.903  12.096 -0.0813 -0.3602  0.2573
  746MOL0     C 2836  10.578   9.791  12.017  0.4728 -0.1367  0.6468
  746MOL0     C 2837  10.701   9.731  12.000  0.7681 -0.1479  0.0587
  746MOL0     C 2838  10.720   9.596  11.924 -0.7214  0.0425  0.1736
  746MOL0     C 2839  10.814   9.797  12.058 -0.2828  0.2845  0.8077
  746MOL0     C 2840  10.957   9.754  12.032  0.0762 -0.6808  0.0349
  746MOL0     O 2841  11.055   9.826  12.101  0.1567 -0.3246 -0.1296
  746MOL0     C 2842  11.189   9.811  12.073 -0.0837  0.4691  0.1872
  746MOL0     C 2843  11.274   9.818  12.180 -0.5907 -0.8036 -0.4390
  746MOL0     C 2844  11.414   9.812  12.168 -0.1515  0.3538 -0.3569
  746MOL0     C 2845  11.463   9.761  12.040  0.3036  1.2296  0.1696
  746MOL0     O 2846  11.597   9.734  12.016  0.6278 -0.4864 -0.2051
  746MOL0     C 2847  11.657   9.649  12.110 -0.1111  0.3905 -0.8047
  746MOL0     C 2848  11.808   9.656  12.067 -0.0821 -0.2169  0.2332
  746MOL0     C 2849  11.839   9.567  11.940  0.6472 -0.7249 -0.2857
  746MOL0     C 2850  11.839   9.413  11.965 -0.4852 -0.2924  0.0664
  746MOL0     C 2851  11.920   9.331  11.862 -1.2519  0.6059 -0.3019
  746MOL0     C 2852  11.855   9.344  11.723  0.4454  0.2420 -0.2152
  746MOL0     C 2853  11.929   9.281  11.609  0.4189  0.6739 -0.4448
  746MOL0     C 2854  11.883   9.319  11.471  0.4453 -0.0816  0.3448
  746MOL0    Cl 2855  12.012   9.272  11.363  0.4611  0.0941 -0.4203
  746MOL0     C 2856  11.374   9.749  11.929  0.3005  0.3027 -0.0036
  746MOL0     C 2857  11.239   9.783  11.940  0.2661  0.3648 -0.3661
  746MOL0     O 2858  10.977   9.655  11.962 -0.0291  0.2787 -0.5768
  746MOL0     C 2859  10.789   9.897  12.148 -0.7536  0.1440 -0.6694
  746MOL0     C 2860  10.664   9.953  12.161  0.3703  0.2981 -0.4800
  746MOL0     N 2861  10.099  10.318  11.773  0.0025  0.5834  0.3963
  746MOL0     N 2862  10.058  10.301  11.645 -0.0300  0.2789 -0.1170
  746MOL0     C 2863   9.589   9.742  10.546 -0.1357  0.0872 -0.3117
  746MOL0     C 2864   9.495   9.767  10.446  0.3775  0.3643  0.1408
  746MOL0     C 2865   9.159   9.686  10.181 -0.1824  0.5925  0.5216
  746MOL0     C 2866   9.133   9.807  10.130 -0.6670  0.0799 -0.0251
  746MOL0     C 2867   9.026   9.832  10.044 -0.3122 -0.1952 -0.2274
  746MOL0     C 2868   8.936   9.725  10.015  0.1660  0.0599 -0.0646
  746MOL0     O 2869   8.816   9.739   9.948  0.2022  0.2147 -0.1742
  746MOL0     C 2870   8.791   9.865   9.881  0.1252 -0.3119 -0.0397
  746MOL0     C 2871   8.657   9.838   9.799 -0.6235 -0.3624 -0.0165
  746MOL0     C 2872   8.623   9.961   9.708  1.0742  0.5484  0.4424
  746MOL0     C 2873   8.607   9.903   9.562  0.6780  0.1518 -0.6973
  746MOL0     C 2874   8.492   9.812   9.543  0.9525 -0.4424 -0.6664
  746MOL0     C 2875   8.380   9.753   9.528 -0.1972 -0.1323 -0.9456
  746MOL0     C 2876   8.966   9.596  10.064  0.5688  0.2376 -0.4311
  746MOL0     C 2877   9.082   9.576  10.142 -0.2127 -0.4163 -0.1634
  746MOL0     C 2878   9.120   9.439  10.201 -0.1169  0.7615  0.9113
  746MOL0     H 2879   9.207   9.706  10.610 -1.6104  2.1618 -1.0712
  746MOL0     H 2880   9.365   9.656  10.784  2.0683 -3.4303 -1.2362
  746MOL0     H 2881   9.584   9.704  10.973  1.0077  0.2838  1.6757
  746MOL0     H 2882   9.575   9.857  10.876  1.5781  0.6904  1.5946
  746MOL0     H 2883   9.827   9.709  10.902 -3.6438 -3.2099 -1.7375
  746MOL0     H 2884   9.803   9.886  10.868 -1.9966  1.2517 -0.4919
  746MOL0     H 2885   9.726   9.920  11.108 -0.7279  0.8442 -3.6744
  746MOL0     H 2886   9.761   9.743  11.134 -0.2894  0.5676 -2.1838
  746MOL0     H 2887   9.974   9.758  11.129 -1.3428 -0.8897 -0.7039
  746MOL0     H 2888   9.985   9.933  11.063 -0.5534  2.0832  2.3410
  746MOL0     H 2889  10.053   9.917  11.292 -0.2810  0.9851  2.7074
  746MOL0     H 2890   9.896   9.848  11.330 -1.6557 -1.4589 -1.6387
  746MOL0     H 2891   9.938  10.123  11.218 -1.7360  1.6678  1.7511
  746MOL0     H 2892   9.787  10.058  11.274  0.5311  0.1921 -3.8916
  746MOL0     H 2893   9.870  10.061  11.514 -2.7398  0.3643 -1.0734
  746MOL0     H 2894   9.894  10.216  11.429  1.6905  0.8227  0.6574
  746MOL0     H 2895  10.128  10.025  11.459 -0.4218 -1.4230  3.2024
  746MOL0     H 2896  10.128  10.186  11.401 -2.0601 -0.0634 -0.9368
  746MOL0     H 2897  10.208  10.022  11.690  0.4015 -0.1158  0.0207
  746MOL0     H 2898  10.181  10.072  11.972  1.3781 -0.8792  0.9114
  746MOL0     H 2899  10.199  10.238  12.005 -3.2541 -1.8421  0.2906
  746MOL0     H 2900  10.421  10.086  11.877 -0.8993 -0.7469  0.8976
  746MOL0     H 2901  10.419  10.261  11.861  2.5020  1.1109  1.7153
  746MOL0     H 2902  10.554  10.172  12.041 -0.5481 -1.9486  0.3125
  746MOL0     H 2903  10.422  10.280  12.102  1.0153  1.4508 -0.5198
  746MOL0     H 2904  10.462  10.092  12.251  0.5737  0.9579  0.2929
  746MOL0     H 2905  10.297  10.084  12.179  0.3159 -0.4539  0.6695
  746MOL0     H 2906  10.495   9.749  11.961 -1.7339 -0.0777  3.6486
  746MOL0     H 2907  10.778   9.606  11.832  0.2108 -0.2443  0.7185
  746MOL0     H 2908  10.623   9.554  11.897 -1.1893  2.0138 -1.4341
  746MOL0     H 2909  10.780   9.527  11.984  1.6559 -0.0289 -2.1312
  746MOL0     H 2910  11.228   9.845  12.275  0.3595 -0.3406 -0.1023
  746MOL0     H 2911  11.467   9.825  12.262  0.5019 -0.2954 -0.6280
  746MOL0     H 2912  11.653   9.686  12.213  0.3953  0.3828 -0.7816
  746MOL0     H 2913  11.608   9.551  12.103  1.5475 -0.3792 -2.2832
  746MOL0     H 2914  11.837   9.759  12.047  0.1640 -0.5594 -1.3202
  746MOL0     H 2915  11.874   9.620  12.146  0.2550  1.0685  0.5495
  746MOL0     H 2916  11.931   9.605  11.894 -0.1719  3.3984  1.0437
  746MOL0     H 2917  11.761   9.589  11.867 -0.4874 -2.1649  0.4421
  746MOL0     H 2918  11.740   9.367  11.956 -1.6824  2.3889 -1.5138
  746MOL0     H 2919  11.887   9.394  12.062  2.2213  0.6637 -1.0017
  746MOL0     H 2920  12.019   9.374  11.843 -1.3408  0.1777 -1.8109
  746MOL0     H 2921  11.934   9.231  11.902 -1.7155  0.7813  0.3228
  746MOL0     H 2922  11.845   9.449  11.697 -2.1292  0.7650  2.3312
  746MOL0     H 2923  11.761   9.287  11.731 -0.6563  2.2354  3.0143
  746MOL0     H 2924  11.922   9.172  11.617 -1.0045  0.2368 -5.0711
  746MOL0     H 2925  12.034   9.310  11.613  0.7982 -0.1278 -2.8888
  746MOL0     H 2926  11.857   9.425  11.457  4.4685  1.0166 -0.1170
  746MOL0     H 2927  11.799   9.255  11.445  1.6004 -1.8060  0.7156
  746MOL0     H 2928  11.427   9.719  11.839  0.1269  0.7447 -0.2580
  746MOL0     H 2929  11.168   9.768  11.860  1.4387 -0.4810 -1.2948
  746MOL0     H 2930  10.874   9.942  12.198  1.5326 -2.7013 -1.6892
  746MOL0     H 2931  10.657  10.032  12.235 -2.0039 -1.2531  1.0969
  746MOL0     H 2932   9.695   9.737  10.520 -0.3997 -1.1519 -1.2404
  746MOL0     H 2933   9.525   9.783  10.343  1.7238 -3.7656 -0.2794
  746MOL0     H 2934   9.193   9.892  10.158 -0.4372  0.4666 -1.5900
  746MOL0     H 2935   9.017   9.931  10.001  1.6706  0.4199  0.6884
  746MOL0     H 2936   8.758   9.939   9.954 -0.6148 -1.8593  1.2557
  746MOL0     H 2937   8.884   9.886   9.827  0.1675 -0.6612 -0.1017
  746MOL0     H 2938   8.579   9.834   9.876  0.0180  0.5045  0.6953
  746MOL0     H 2939   8.679   9.743   9.749 -1.3071 -0.2210 -0.6012
  746MOL0     H 2940   8.529  10.008   9.739  1.4432  2.6946 -1.4914
  746MOL0     H 2941   8.697  10.041   9.704 -0.1987  1.7551  0.3095
  746MOL0     H 2942   8.707   9.870   9.532  2.0998  3.2031  0.3073
  746MOL0     H 2943   8.590   9.991   9.500  1.4662 -0.2155 -1.4665
  746MOL0     H 2944   8.283   9.710   9.508 -0.0140 -2.4659  2.3330
  746MOL0     H 2945   8.906   9.510  10.038  1.0695 -0.1063 -0.4698
  746MOL0     H 2946   9.037   9.369  10.187 -1.1593  2.0872  0.1540
  746MOL0     H 2947   9.206   9.402  10.145 -1.3498  1.3348 -1.5258
  746MOL0     H 2948   9.143   9.445  10.308  2.9501  0.1473  0.3610
  747MOL0     O 2949   9.288  10.818   1.817  0.0714 -0.3544 -0.1215
  747MOL0     C 2950   9.402  10.875   1.817  0.6982  0.0579 -0.5549
  747MOL0     O 2951   9.439  10.976   1.727  0.0043 -0.4474  0.0483
  747MOL0     C 2952   9.343  11.033   1.644  0.2100  0.4758 -0.5743
  747MOL0     C 2953   9.346  11.045   1.506 -0.5075 -0.3890  0.4433
  747MOL0     C 2954   9.238  11.096   1.428  0.1709 -0.3847  0.0684
  747MOL0     C 2955   9.127  11.139   1.492  0.9286 -1.2617  0.9335
  747MOL0     O 2956   9.025  11.184   1.407 -0.0864  0.2042 -0.7297
  747MOL0     C 2957   8.893  11.199   1.459 -0.2496  0.7160  0.7091
  747MOL0     C 2958   8.792  11.178   1.346 -0.1763 -0.0185  0.2426
  747MOL0     C 2959   8.824  11.064   1.260 -0.7115 -0.1494 -0.7616
  747MOL0     C 2960   8.695  11.047   1.163 -0.1033 -0.9212 -0.0505
  747MOL0     C 2961   8.727  10.939   1.056 -0.4285  0.7927 -0.2734
  747MOL0     C 2962   8.584  10.913   0.991  1.0541  0.3786  0.0436
  747MOL0     C 2963   8.597  10.781   0.917 -0.2523  0.7020  0.4781
  747MOL0     C 2964   8.489  10.718   0.830 -0.2100 -0.1517 -0.6943
  747MOL0     N 2965   8.354  10.760   0.884 -0.5007  0.5961 -0.0386
  747MOL0     C 2966   8.258  10.670   0.929  0.6802  1.0098  1.0924
  747MOL0     C 2967   8.143  10.729   0.898 -0.2845 -0.0398  0.4116
  747MOL0     C 2968   8.010  10.677   0.941  0.5316  0.0788  0.8896
  747MOL0     C 2969   7.951  10.717   1.080 -0.1787  0.3628 -0.4675
  747MOL0     C 2970   7.988  10.624   1.193  0.2570 -0.5144 -0.8013
  747MOL0     C 2971   7.887  10.631   1.302 -0.0024 -1.3259  0.2190
  747MOL0     O 2972   7.790  10.735   1.295  0.4267 -0.3634  0.6981
  747MOL0     C 2973   7.824  10.863   1.337  0.7654  0.4456 -0.1836
  747MOL0     C 2974   7.952  10.903   1.358 -0.6789  0.5411 -0.1753
  747MOL0     C 2975   7.975  11.032   1.407  0.0017  0.3259  2.1347
  747MOL0     C 2976   8.108  11.065   1.465 -0.3475 -0.2103  0.5059
  747MOL0     C 2977   7.866  11.119   1.428 -0.1947 -0.9100  0.6282
  747MOL0     C 2978   7.878  11.254   1.500 -0.7931  0.2365 -0.4124
  747MOL0     O 2979   7.958  11.261   1.605  0.5959 -0.5314 -0.0386
  747MOL0     C 2980   7.981  11.388   1.649 -0.4495  0.7085 -0.5751
  747MOL0     C 2981   8.095  11.458   1.628 -0.3844  0.4292 -0.6473
  747MOL0     C 2982   8.131  11.578   1.688  0.2169 -1.1617 -1.5552
  747MOL0     C 2983   8.047  11.629   1.786  0.7854 -0.4817  0.0939
  747MOL0     O 2984   8.101  11.741   1.864 -0.6150  0.0254  0.3992
  747MOL0     C 2985   8.028  11.787   1.983 -0.7437 -0.3326 -0.2485
  747MOL0     C 2986   8.046  11.679   2.092  0.1843 -0.1306 -0.2584
  747MOL0     C 2987   8.154  11.706   2.193 -0.0759 -0.9939 -0.8281
  747MOL0     C 2988   8.173  11.615   2.312 -0.5428  0.8885 -1.1714
  747MOL0     C 2989   8.167  11.466   2.283  0.7249 -0.4093 -0.3096
  747MOL0     C 2990   8.199  11.388   2.411 -0.4963 -0.1821  0.5834
  747MOL0     C 2991   8.157  11.241   2.404  0.9059  0.7950 -0.0417
  747MOL0     C 2992   8.241  11.163   2.299 -0.1879  0.1103 -0.5267
  747MOL0    Cl 2993   8.383  11.082   2.385 -0.0499 -0.1935 -0.5450
  747MOL0     C 2994   7.925  11.558   1.823 -0.8873 -1.7410 -0.0593
  747MOL0     C 2995   7.904  11.437   1.754 -0.3617  0.2650  0.6034
  747MOL0     O 2996   7.824  11.350   1.454 -0.3537  0.0815  0.3180
  747MOL0     C 2997   7.737  11.078   1.379  0.2552  0.4114 -0.0350
  747MOL0     C 2998   7.717  10.946   1.352  0.5685  0.3333  0.7782
  747MOL0     N 2999   8.169  10.856   0.851  0.6521  0.2550  0.1549
  747MOL0     N 3000   8.295  10.871   0.851  0.6748  1.0393  0.2531
  747MOL0     C 3001   9.115  11.134   1.633  0.3863  0.3811 -0.0117
  747MOL0     C 3002   9.233  11.093   1.710 -0.2648  0.0927  0.0536
  747MOL0     C 3003   9.506  10.821   1.909  0.0232  1.0259  0.2505
  747MOL0     C 3004   9.637  10.838   1.871 -0.3160  1.1451  0.0011
  747MOL0     C 3005   9.735  10.783   1.952 -1.1022 -0.2290 -0.2382
  747MOL0     C 3006   9.707  10.704   2.064  0.0838 -0.8898  0.1452
  747MOL0     O 3007   9.809  10.652   2.135  0.6597  0.2303 -0.7947
  747MOL0     C 3008   9.945  10.643   2.084 -0.5582 -0.4596  0.1537
  747MOL0     C 3009   9.948  10.550   1.963  0.4256  0.5838 -1.3308
  747MOL0     C 3010  10.085  10.494   1.918 -0.0053  0.0580  1.3001
  747MOL0     C 3011  10.202  10.597   1.920  0.3420  0.1648 -0.0338
  747MOL0     C 3012  10.176  10.703   1.827 -0.5035  0.1660  0.3244
  747MOL0     C 3013  10.169  10.800   1.758 -0.3865  0.3575 -0.2388
  747MOL0     C 3014   9.576  10.687   2.101 -0.0320 -0.6216 -1.7051
  747MOL0     C 3015   9.470  10.747   2.024 -0.6430  0.2352 -1.5105
  747MOL0     C 3016   9.330  10.721   2.073 -0.5716  0.2494 -0.3592
  747MOL0     H 3017   9.435  11.022   1.448  0.7405  1.5222  1.4967
  747MOL0     H 3018   9.256  11.098   1.321  3.7087 -3.8897  0.3393
  747MOL0     H 3019   8.882  11.296   1.509 -0.7962 -0.0638  2.1766
  747MOL0     H 3020   8.874  11.121   1.533  1.4380  1.4969  2.0379
  747MOL0     H 3021   8.687  11.184   1.376  0.4429  1.5766  2.4194
  747MOL0     H 3022   8.798  11.263   1.277  1.2362  1.8030  2.4348
  747MOL0     H 3023   8.915  11.081   1.203 -0.2084  0.0890  0.1019
  747MOL0     H 3024   8.828  10.972   1.320 -2.6879 -1.4879 -2.5245
  747MOL0     H 3025   8.609  11.020   1.225 -0.8855 -0.0938 -0.7454
  747MOL0     H 3026   8.670  11.141   1.112  3.1260 -0.2650 -0.6067
  747MOL0     H 3027   8.764  10.850   1.106 -0.8550 -0.1966 -1.6537
  747MOL0     H 3028   8.808  10.972   0.990 -1.7397  1.7384 -1.4751
  747MOL0     H 3029   8.497  10.914   1.057 -0.6657  0.2228 -2.1051
  747MOL0     H 3030   8.559  10.995   0.924  1.6789 -0.9873 -1.9473
  747MOL0     H 3031   8.620  10.706   0.993 -0.0436 -0.9099 -1.1021
  747MOL0     H 3032   8.688  10.797   0.857 -1.3361  0.3620 -1.3450
  747MOL0     H 3033   8.495  10.753   0.726 -0.4122 -1.2502 -1.0804
  747MOL0     H 3034   8.503  10.610   0.832  2.0389  0.0334  2.5387
  747MOL0     H 3035   8.281  10.572   0.969 -1.0185  0.1259 -0.0054
  747MOL0     H 3036   8.019  10.569   0.930  1.4353  0.1897  0.4642
  747MOL0     H 3037   7.927  10.704   0.874 -0.0288  1.5469  2.1145
  747MOL0     H 3038   7.975  10.821   1.104 -0.3529 -0.0704  1.8759
  747MOL0     H 3039   7.844  10.707   1.060 -0.6734  4.1867 -0.4212
  747MOL0     H 3040   7.986  10.522   1.152  0.5319  0.2548 -2.8230
  747MOL0     H 3041   8.085  10.652   1.236 -0.7558  2.1281 -0.0897
  747MOL0     H 3042   7.835  10.536   1.317  2.8708 -3.1314 -0.4762
  747MOL0     H 3043   7.952  10.640   1.389 -0.1967 -1.0125  0.3336
  747MOL0     H 3044   8.040  10.840   1.347 -0.4058  0.3982  2.2692
  747MOL0     H 3045   8.097  11.066   1.574 -1.0066  3.5997  0.5411
  747MOL0     H 3046   8.144  11.165   1.439 -3.5497  0.6039 -1.3964
  747MOL0     H 3047   8.187  10.993   1.443  0.7052  0.5189  1.7187
  747MOL0     H 3048   8.160  11.408   1.557 -0.8636 -3.9016  1.6364
  747MOL0     H 3049   8.226  11.627   1.669  0.7580 -1.7705 -0.4712
  747MOL0     H 3050   8.060  11.886   2.019 -0.3068 -0.2800 -0.7653
  747MOL0     H 3051   7.923  11.801   1.955 -1.9984 -0.5676  3.6707
  747MOL0     H 3052   7.955  11.674   2.153  0.7995 -0.8377  0.6295
  747MOL0     H 3053   8.065  11.584   2.041 -0.0152  0.0954 -0.7548
  747MOL0     H 3054   8.132  11.799   2.246 -0.5091 -0.7863 -1.3624
  747MOL0     H 3055   8.254  11.715   2.149  1.2004  5.8015  2.1154
  747MOL0     H 3056   8.082  11.632   2.370  0.8597 -1.1190  1.8783
  747MOL0     H 3057   8.257  11.647   2.373 -0.7692 -1.2279  0.3768
  747MOL0     H 3058   8.068  11.440   2.246  0.6713  0.2426 -0.6400
  747MOL0     H 3059   8.240  11.437   2.206 -0.6633  0.1553 -1.8844
  747MOL0     H 3060   8.145  11.435   2.493  1.7735  0.4758  1.7760
  747MOL0     H 3061   8.306  11.390   2.433  0.2244  3.6900 -2.2485
  747MOL0     H 3062   8.049  11.233   2.390  0.5659 -1.6108  2.8413
  747MOL0     H 3063   8.165  11.189   2.500  2.4295  2.9105  1.0444
  747MOL0     H 3064   8.281  11.221   2.216  0.0422  0.7135 -0.0091
  747MOL0     H 3065   8.175  11.086   2.260 -1.7949  0.9971  0.3392
  747MOL0     H 3066   7.851  11.589   1.897 -1.9852 -1.9623 -1.0249
  747MOL0     H 3067   7.814  11.379   1.771 -0.6225 -0.2890 -2.1086
  747MOL0     H 3068   7.647  11.136   1.398  0.9969  1.7708 -0.5460
  747MOL0     H 3069   7.614  10.916   1.332  0.3067  2.7224 -2.1249
  747MOL0     H 3070   9.023  11.159   1.684  0.0915 -1.4541  0.4123
  747MOL0     H 3071   9.215  11.091   1.817  2.0648 -0.8108  0.4927
  747MOL0     H 3072   9.657  10.899   1.784 -3.3722  1.4731 -0.5997
  747MOL0     H 3073   9.835  10.801   1.916 -1.6106  4.0967 -0.1325
  747MOL0     H 3074   9.991  10.736   2.050 -2.0857 -0.0153 -0.8191
  747MOL0     H 3075   9.993  10.604   2.174 -0.7661 -0.9233  0.0685
  747MOL0     H 3076   9.884  10.582   1.880  0.8745 -1.2098 -2.4432
  747MOL0     H 3077   9.895  10.462   2.000  4.2027 -1.9216 -1.2648
  747MOL0     H 3078  10.115  10.409   1.980 -1.6195 -0.5065  1.3339
  747MOL0     H 3079  10.078  10.453   1.816 -1.5268 -2.1354  2.2013
  747MOL0     H 3080  10.288  10.541   1.882  0.3267  0.7682 -1.0141
  747MOL0     H 3081  10.213  10.633   2.022  1.8035  2.1154 -0.8027
  747MOL0     H 3082  10.171  10.885   1.694  3.5808  2.0049  1.6997
  747MOL0     H 3083   9.564  10.616   2.182 -2.0036  0.3558 -1.0478
  747MOL0     H 3084   9.333  10.667   2.168  2.4816 -1.3614 -1.2379
  747MOL0     H 3085   9.275  10.813   2.096 -1.6899 -0.7674  1.2545
  747MOL0     H 3086   9.278  10.655   2.003  0.1552 -2.0413  1.1676
  748MOL0     O 3087   0.855   2.343   5.634  0.3105 -0.0710 -0.0422
  748MOL0     C 3088   0.831   2.325   5.513  0.1576 -0.8068 -1.2959
  748MOL0     O 3089   0.835   2.424   5.422 -0.2490 -0.3239 -0.1611
  748MOL0     C 3090   0.891   2.545   5.456 -0.2604 -1.3017  0.0721
  748MOL0     C 3091   0.830   2.647   5.534  0.4986  0.4550 -0.3316
  748MOL0     C 3092   0.896   2.764   5.574  0.0553  0.6240 -0.2262
  748MOL0     C 3093   1.029   2.786   5.536  0.4455  0.0835 -0.5412
  748MOL0     O 3094   1.085   2.905   5.572 -0.3925 -0.7066  0.1706
  748MOL0     C 3095   1.226   2.922   5.579 -0.4369  0.4676  1.3163
  748MOL0     C 3096   1.250   3.011   5.692  0.5928  0.2176 -0.5144
  748MOL0     C 3097   1.398   3.025   5.716  0.4535  0.7827 -0.8079
  748MOL0     C 3098   1.418   3.109   5.846 -0.4406 -0.1109 -0.0453
  748MOL0     C 3099   1.572   3.116   5.869 -1.0699 -0.3277 -1.0944
  748MOL0     C 3100   1.577   3.174   6.019 -0.8321  0.6829 -0.2267
  748MOL0     C 3101   1.710   3.147   6.099  0.5132 -0.1498 -0.5282
  748MOL0     C 3102   1.739   2.999   6.110  0.1025  0.1487 -0.0397
  748MOL0     N 3103   1.862   2.959   6.178 -0.0813 -0.0013  0.5529
  748MOL0     C 3104   1.887   2.972   6.317 -0.4163  0.4456 -0.6064
  748MOL0     C 3105   2.013   2.910   6.336  0.5276  0.9395 -0.1400
  748MOL0     C 3106   2.082   2.896   6.467 -0.3645 -0.7550 -0.9704
  748MOL0     C 3107   2.219   2.967   6.466 -0.4832  0.4480 -0.6955
  748MOL0     C 3108   2.204   3.118   6.465 -0.4568 -0.5563 -0.1111
  748MOL0     C 3109   2.318   3.201   6.530  0.8660  0.5725 -0.2215
  748MOL0     O 3110   2.434   3.187   6.450  0.6635  0.1702 -0.4441
  748MOL0     C 3111   2.519   3.299   6.427 -0.0228  0.0174  0.0418
  748MOL0     C 3112   2.521   3.428   6.491  0.3055 -1.2919 -0.8834
  748MOL0     C 3113   2.629   3.522   6.465 -0.2845  0.4486 -0.3039
  748MOL0     C 3114   2.644   3.641   6.561 -0.7186 -0.2649  0.2231
  748MOL0     C 3115   2.722   3.495   6.365  0.1975 -0.8003  0.5380
  748MOL0     C 3116   2.820   3.585   6.325  0.3438 -1.2378 -0.5931
  748MOL0     O 3117   2.932   3.517   6.268  0.1608 -0.6769 -0.0449
  748MOL0     C 3118   3.050   3.594   6.269 -0.5032  0.1599 -0.1103
  748MOL0     C 3119   3.113   3.628   6.392 -0.0790 -0.3433  0.2634
  748MOL0     C 3120   3.232   3.705   6.394  0.5216 -0.2932  0.3138
  748MOL0     C 3121   3.298   3.738   6.281 -0.0728  0.4445  0.7107
  748MOL0     O 3122   3.412   3.795   6.301 -0.2017  0.7749  0.1803
  748MOL0     C 3123   3.514   3.723   6.369 -0.2830  0.4812 -1.1199
  748MOL0     C 3124   3.641   3.762   6.314 -0.8026 -0.8858 -0.1734
  748MOL0     C 3125   3.659   3.707   6.180  0.0786  0.3481  0.3003
  748MOL0     C 3126   3.804   3.715   6.142 -1.0430  0.1338  0.0570
  748MOL0     C 3127   3.826   3.709   5.989  0.1349 -0.0956 -0.2066
  748MOL0     C 3128   3.948   3.780   5.930  0.1785 -0.0638  0.2939
  748MOL0     C 3129   3.956   3.739   5.781  0.3991  0.2333  0.6256
  748MOL0     C 3130   4.061   3.806   5.691  0.8216 -0.4979 -0.5041
  748MOL0    Cl 3131   4.027   3.973   5.686 -0.0249 -0.4686 -0.3907
  748MOL0     C 3132   3.232   3.716   6.158 -0.7087  0.6770 -0.0082
  748MOL0     C 3133   3.105   3.656   6.150  0.5449  0.3134 -0.6269
  748MOL0     O 3134   2.812   3.706   6.353 -0.3156  0.2273 -0.4570
  748MOL0     C 3135   2.713   3.369   6.304  0.6988  0.3990  0.1446
  748MOL0     C 3136   2.620   3.269   6.339 -1.0970 -0.0489  0.5979
  748MOL0     N 3137   2.068   2.886   6.212  0.4328 -0.2996  0.7558
  748MOL0     N 3138   1.976   2.921   6.123  0.5839  0.2570 -0.0700
  748MOL0     C 3139   1.094   2.695   5.443  0.0957 -0.4145 -0.5468
  748MOL0     C 3140   1.020   2.578   5.410  0.1593 -1.1385 -0.1819
  748MOL0     C 3141   0.827   2.183   5.459 -0.1497  0.0873 -0.1864
  748MOL0     C 3142   0.744   2.163   5.342 -0.6679  0.0817 -0.4006
  748MOL0     C 3143   0.707   2.046   5.286  0.1339  0.1676  0.0392
  748MOL0     C 3144   0.743   1.932   5.360  0.4501 -0.1242  0.1208
  748MOL0     O 3145   0.693   1.808   5.339 -0.1480 -0.7759 -0.3173
  748MOL0     C 3146   0.777   1.728   5.250  0.1505  0.1605  0.2992
  748MOL0     C 3147   0.748   1.578   5.264 -0.6282 -0.3477 -0.2780
  748MOL0     C 3148   0.591   1.561   5.245  0.3472 -0.5797  0.0196
  748MOL0     C 3149   0.565   1.575   5.089  0.8115 -0.3266 -0.8407
  748MOL0     C 3150   0.425   1.617   5.054 -0.2276  0.2463  0.2850
  748MOL0     C 3151   0.319   1.659   5.010  0.2888 -0.0642  0.4879
  748MOL0     C 3152   0.836   1.945   5.468  0.6190  0.3616 -0.6644
  748MOL0     C 3153   0.873   2.067   5.528 -0.0681  0.8752 -0.2024
  748MOL0     C 3154   0.984   2.057   5.632 -0.5452 -0.3032  0.3077
  748MOL0     H 3155   0.726   2.637   5.565  0.1735 -0.6590 -1.6286
  748MOL0     H 3156   0.845   2.841   5.631  1.0816  0.4462  0.9572
  748MOL0     H 3157   1.271   2.964   5.488 -0.1843 -1.4764  0.4904
  748MOL0     H 3158   1.266   2.822   5.597  0.9140  1.0327  1.5471
  748MOL0     H 3159   1.206   3.110   5.675  1.1673  1.5357  4.2398
  748MOL0     H 3160   1.190   2.977   5.777 -1.5108  4.3922 -0.0709
  748MOL0     H 3161   1.448   2.928   5.719  2.2270  1.6167 -1.5466
  748MOL0     H 3162   1.431   3.079   5.626 -2.2590  0.0027 -2.3764
  748MOL0     H 3163   1.370   3.207   5.835 -0.0405 -0.0155 -1.0921
  748MOL0     H 3164   1.369   3.057   5.928 -0.3700 -1.6552 -0.9480
  748MOL0     H 3165   1.623   3.182   5.798 -0.1216  0.6922  0.4583
  748MOL0     H 3166   1.628   3.023   5.869  2.6959  1.7441 -0.1706
  748MOL0     H 3167   1.547   3.279   6.015  0.9381  1.2391  0.1037
  748MOL0     H 3168   1.491   3.147   6.081  1.1369  2.5220  3.6731
  748MOL0     H 3169   1.704   3.205   6.192 -0.4638 -1.4252  0.2481
  748MOL0     H 3170   1.790   3.182   6.034  0.5697 -2.8871 -2.0686
  748MOL0     H 3171   1.661   2.947   6.168  0.0061 -0.4543 -0.6969
  748MOL0     H 3172   1.748   2.958   6.010  0.3713  2.8184 -1.1924
  748MOL0     H 3173   1.820   3.003   6.397  0.7913  0.4087  0.4421
  748MOL0     H 3174   2.108   2.792   6.490  2.0593  0.0359  0.2227
  748MOL0     H 3175   2.022   2.942   6.547 -1.2609  2.6388 -3.3706
  748MOL0     H 3176   2.270   2.938   6.559  0.1196  3.4154  0.0186
  748MOL0     H 3177   2.273   2.930   6.378 -0.9900 -2.6299  0.1955
  748MOL0     H 3178   2.213   3.138   6.358  1.5506  1.7901  0.3929
  748MOL0     H 3179   2.106   3.156   6.495  0.8634  0.7596  3.0256
  748MOL0     H 3180   2.279   3.303   6.524  1.3590  0.6921 -1.8209
  748MOL0     H 3181   2.332   3.165   6.632  2.4531 -0.5965 -0.8096
  748MOL0     H 3182   2.446   3.447   6.568  1.2844  1.6529 -0.5358
  748MOL0     H 3183   2.561   3.630   6.632  1.1629  4.3747  3.6768
  748MOL0     H 3184   2.629   3.738   6.512  1.2680  0.5400  1.1167
  748MOL0     H 3185   2.741   3.646   6.610 -0.9323 -0.1241  0.6378
  748MOL0     H 3186   3.067   3.599   6.486 -0.5189 -0.2425  0.0792
  748MOL0     H 3187   3.268   3.734   6.492  1.6944 -1.9298  0.3994
  748MOL0     H 3188   3.497   3.743   6.475  0.0548  0.4349 -1.0542
  748MOL0     H 3189   3.502   3.616   6.347  0.1007  0.7846 -2.9515
  748MOL0     H 3190   3.655   3.870   6.328 -2.0482 -0.7120 -0.1200
  748MOL0     H 3191   3.723   3.724   6.375  0.4145 -1.4521 -2.0808
  748MOL0     H 3192   3.596   3.764   6.112 -0.3970 -1.7984 -1.1690
  748MOL0     H 3193   3.620   3.604   6.175 -1.9853  1.1346 -1.0865
  748MOL0     H 3194   3.867   3.641   6.193 -1.5602  0.7280  1.6203
  748MOL0     H 3195   3.840   3.813   6.173 -1.7077  0.4584 -0.1841
  748MOL0     H 3196   3.833   3.602   5.969 -1.3068 -0.2751  0.1440
  748MOL0     H 3197   3.737   3.747   5.940 -1.1975  0.2784  2.3146
  748MOL0     H 3198   4.034   3.732   5.978 -2.7392 -4.0814  2.0698
  748MOL0     H 3199   3.937   3.888   5.946  0.8623  0.2163 -0.9405
  748MOL0     H 3200   3.861   3.764   5.733  2.4792  2.9557 -2.5244
  748MOL0     H 3201   3.971   3.630   5.781 -0.7098 -0.0186 -2.3890
  748MOL0     H 3202   4.064   3.754   5.595  2.7889 -0.6685 -0.4058
  748MOL0     H 3203   4.155   3.783   5.742  0.8915  1.3004  0.2679
  748MOL0     H 3204   3.287   3.751   6.071  0.1808  0.0239  0.2795
  748MOL0     H 3205   3.054   3.653   6.055 -1.0496  0.9650  0.1611
  748MOL0     H 3206   2.776   3.342   6.220  0.3243 -0.8863  0.2471
  748MOL0     H 3207   2.608   3.181   6.277  2.5895  1.1363 -2.1548
  748MOL0     H 3208   1.193   2.719   5.406 -0.2732  0.8231 -0.7778
  748MOL0     H 3209   1.049   2.505   5.335 -1.4221 -0.4838 -1.4943
  748MOL0     H 3210   0.701   2.249   5.291  2.6238  0.8181 -2.1675
  748MOL0     H 3211   0.641   2.047   5.200  1.6149  1.7110 -1.1459
  748MOL0     H 3212   0.763   1.762   5.147  1.1618  0.1382  0.1463
  748MOL0     H 3213   0.880   1.750   5.280  0.8314 -1.7568 -0.4531
  748MOL0     H 3214   0.778   1.542   5.363  0.5568  2.0235  0.3068
  748MOL0     H 3215   0.806   1.515   5.196 -1.8198 -1.1032 -0.6231
  748MOL0     H 3216   0.557   1.467   5.290  2.2238  0.2012  3.4130
  748MOL0     H 3217   0.531   1.641   5.291  1.9989  1.6322 -1.4401
  748MOL0     H 3218   0.569   1.480   5.034 -0.7627  1.1787 -3.8005
  748MOL0     H 3219   0.633   1.637   5.030  0.3431 -0.7806 -1.8793
  748MOL0     H 3220   0.220   1.683   4.980  1.7022  2.6390 -2.5282
  748MOL0     H 3221   0.862   1.858   5.527 -0.6818  1.6350  1.9908
  748MOL0     H 3222   1.027   2.153   5.660 -0.1083 -0.3823 -0.0797
  748MOL0     H 3223   0.952   2.001   5.721  0.3092 -0.5921  0.4397
  748MOL0     H 3224   1.060   1.994   5.586 -1.5508 -4.1875  3.3615
  749MOL0     O 3225  11.105   0.208   3.005 -0.2767 -0.3977  0.2021
  749MOL0     C 3226  11.046   0.182   3.113  0.6754  0.4022  0.5905
  749MOL0     O 3227  11.103   0.127   3.227 -0.4667 -0.1390  0.2701
  749MOL0     C 3228  11.240   0.128   3.240 -0.5886 -0.4555 -0.2565
  749MOL0     C 3229  11.328   0.235   3.225  0.1523  0.6242 -0.5852
  749MOL0     C 3230  11.473   0.227   3.226  1.1212 -0.1651  0.0015
  749MOL0     C 3231  11.538   0.102   3.245 -0.1219 -0.3990 -0.3408
  749MOL0     O 3232  11.673   0.098   3.253  0.0047  0.6475  0.6130
  749MOL0     C 3233  11.722  -0.038   3.236 -0.2390  1.2035  0.1126
  749MOL0     C 3234  11.876  -0.046   3.231 -0.5319  0.0171 -0.0393
  749MOL0     C 3235  11.934  -0.009   3.096  0.2968 -0.3498 -0.7567
  749MOL0     C 3236  12.087  -0.026   3.097  0.5821  0.0642  0.5034
  749MOL0     C 3237  12.145   0.015   2.960  0.9025  0.2222  0.3358
  749MOL0     C 3238  12.291  -0.028   2.957 -0.6089 -0.9349 -0.7290
  749MOL0     C 3239  12.359  -0.047   2.821 -0.1018  0.4479 -0.3297
  749MOL0     C 3240  12.508  -0.053   2.832  0.3284  0.6220  0.4465
  749MOL0     N 3241  12.558  -0.159   2.917 -0.8493 -0.6234 -0.8732
  749MOL0     C 3242  12.573  -0.166   3.056 -0.6394  0.2510  0.4696
  749MOL0     C 3243  12.630  -0.280   3.076 -0.6484 -0.0547  1.0093
  749MOL0     C 3244  12.672  -0.333   3.207  0.2223 -0.0668 -0.0291
  749MOL0     C 3245  12.556  -0.418   3.274  0.3237 -0.1826  0.0528
  749MOL0     C 3246  12.603  -0.431   3.414  0.3008  0.7858 -0.8521
  749MOL0     C 3247  12.513  -0.529   3.504 -0.5400 -0.5793 -0.0453
  749MOL0     O 3248  12.512  -0.478   3.641  0.2080  0.3353  0.0184
  749MOL0     C 3249  12.434  -0.559   3.728 -0.1386 -0.6122 -0.1607
  749MOL0     C 3250  12.471  -0.572   3.861  0.9374  0.6698 -0.2483
  749MOL0     C 3251  12.400  -0.650   3.953  1.0158 -0.1757 -0.3361
  749MOL0     C 3252  12.447  -0.684   4.099 -1.1686  0.8098 -0.2720
  749MOL0     C 3253  12.276  -0.708   3.910 -0.3276 -0.5840 -0.3371
  749MOL0     C 3254  12.199  -0.799   3.992 -0.7614  0.0876 -1.0213
  749MOL0     O 3255  12.058  -0.804   3.970 -0.1652  0.0434  0.0873
  749MOL0     C 3256  11.979  -0.900   4.031 -0.2677  1.1087 -1.3567
  749MOL0     C 3257  12.018  -1.037   4.033  0.9577  0.1413  0.6012
  749MOL0     C 3258  11.937  -1.127   4.087  0.6208  0.8717 -0.4974
  749MOL0     C 3259  11.813  -1.085   4.155 -0.7656  0.3336 -0.6232
  749MOL0     O 3260  11.726  -1.173   4.214  0.0717 -0.2017 -0.7030
  749MOL0     C 3261  11.760  -1.305   4.239  0.1090 -0.2697  0.6655
  749MOL0     C 3262  11.671  -1.360   4.359 -0.4521 -0.2817 -0.3660
  749MOL0     C 3263  11.740  -1.498   4.405 -1.5496 -0.3233  0.0959
  749MOL0     C 3264  11.696  -1.540   4.546 -0.2194 -0.1250 -1.1227
  749MOL0     C 3265  11.771  -1.658   4.592 -0.3344  0.6181  0.1714
  749MOL0     C 3266  11.720  -1.710   4.722 -0.5656  0.8256 -0.0148
  749MOL0     C 3267  11.773  -1.850   4.761  0.2167 -0.0138  0.9472
  749MOL0     C 3268  11.675  -1.968   4.737 -0.4204  0.3615 -0.5165
  749MOL0    Cl 3269  11.629  -2.008   4.565  0.0587 -0.0702 -0.1689
  749MOL0     C 3270  11.781  -0.953   4.150 -0.4528 -0.3552  0.9050
  749MOL0     C 3271  11.856  -0.864   4.078 -0.7430 -0.6783 -0.5669
  749MOL0     O 3272  12.264  -0.877   4.057 -0.6184  0.9236  0.0805
  749MOL0     C 3273  12.230  -0.673   3.785  0.0461  0.3703 -0.2878
  749MOL0     C 3274  12.306  -0.603   3.688  0.3030  0.4739  0.1971
  749MOL0     N 3275  12.630  -0.349   2.960  0.1926  0.5564  0.2454
  749MOL0     N 3276  12.587  -0.278   2.863 -0.0823  0.4036 -0.7666
  749MOL0     C 3277  11.452  -0.009   3.247  0.1684  0.8655  0.2877
  749MOL0     C 3278  11.312   0.004   3.253 -0.1362  0.0776 -0.2445
  749MOL0     C 3279  10.895   0.216   3.111 -0.4437 -0.1265  0.0030
  749MOL0     C 3280  10.821   0.169   3.225 -1.0054 -0.3919  0.5119
  749MOL0     C 3281  10.690   0.199   3.236  0.3215 -0.3244  0.4183
  749MOL0     C 3282  10.635   0.306   3.160  0.4670  0.7466 -0.1543
  749MOL0     O 3283  10.502   0.343   3.202 -0.4658 -0.1359  0.3183
  749MOL0     C 3284  10.420   0.434   3.131  0.5993 -1.2028 -0.2112
  749MOL0     C 3285  10.395   0.558   3.231  0.4498 -1.5860  0.0967
  749MOL0     C 3286  10.516   0.649   3.244  0.6921  0.1632 -0.0120
  749MOL0     C 3287  10.542   0.725   3.103  0.3239 -0.6054  0.0119
  749MOL0     C 3288  10.602   0.857   3.136 -0.1736 -0.0377 -0.6244
  749MOL0     C 3289  10.665   0.955   3.172  0.6727  0.4550  0.6156
  749MOL0     C 3290  10.714   0.357   3.050  0.6541 -0.5502 -0.4531
  749MOL0     C 3291  10.837   0.312   3.027 -0.2180  0.5067 -0.0248
  749MOL0     C 3292  10.908   0.380   2.909  0.1501  0.3522  0.0703
  749MOL0     H 3293  11.293   0.336   3.209 -0.5734  0.3540 -0.7504
  749MOL0     H 3294  11.537   0.310   3.199  0.6901 -0.9661 -4.1735
  749MOL0     H 3295  11.684  -0.082   3.143  1.1135 -0.5683  0.3286
  749MOL0     H 3296  11.691  -0.113   3.309  0.9427  0.5196 -0.0640
  749MOL0     H 3297  11.917   0.022   3.306 -2.3653  0.4670  0.6099
  749MOL0     H 3298  11.909  -0.148   3.253 -0.0601  0.2149  0.1643
  749MOL0     H 3299  11.896  -0.074   3.016  2.2186 -1.5066 -0.8043
  749MOL0     H 3300  11.906   0.094   3.074 -4.1249 -1.4022 -0.9485
  749MOL0     H 3301  12.128   0.049   3.166  0.0122  1.1065 -0.2764
  749MOL0     H 3302  12.111  -0.128   3.129 -4.2319 -0.3730  3.6977
  749MOL0     H 3303  12.144   0.124   2.951  1.7649  0.1726 -0.5514
  749MOL0     H 3304  12.090  -0.039   2.882  0.1595 -1.5899  2.0269
  749MOL0     H 3305  12.345   0.058   2.998 -2.5961  1.0014 -1.9673
  749MOL0     H 3306  12.304  -0.117   3.020  0.3687 -2.2275 -2.6859
  749MOL0     H 3307  12.333   0.032   2.749 -0.0722  0.0480 -0.7843
  749MOL0     H 3308  12.322  -0.145   2.789 -1.0141  0.4224  0.7379
  749MOL0     H 3309  12.543  -0.080   2.732  1.0855 -2.4525  1.4181
  749MOL0     H 3310  12.570   0.033   2.860  3.0759 -0.1623 -2.5742
  749MOL0     H 3311  12.547  -0.094   3.133 -2.6214 -0.0723  0.1612
  749MOL0     H 3312  12.719  -0.256   3.268 -0.9002 -0.6169  1.6248
  749MOL0     H 3313  12.752  -0.405   3.187 -3.5681 -4.9585  0.3889
  749MOL0     H 3314  12.459  -0.370   3.266  0.8361  0.9455  0.3999
  749MOL0     H 3315  12.553  -0.518   3.231  2.6055 -1.0998  1.7962
  749MOL0     H 3316  12.702  -0.478   3.419 -0.2513 -0.2781  2.9660
  749MOL0     H 3317  12.624  -0.335   3.463 -0.6880  0.4265  0.3119
  749MOL0     H 3318  12.410  -0.504   3.477  0.8340  2.5719 -3.2365
  749MOL0     H 3319  12.546  -0.633   3.508 -2.6180 -1.2291  1.5116
  749MOL0     H 3320  12.561  -0.520   3.893 -0.3899  2.0117  1.5163
  749MOL0     H 3321  12.532  -0.618   4.123  0.7968 -2.3355  2.2474
  749MOL0     H 3322  12.487  -0.785   4.110 -0.1967  1.0460 -1.3912
  749MOL0     H 3323  12.374  -0.684   4.181 -0.3513 -3.4043  0.6978
  749MOL0     H 3324  12.104  -1.079   3.980 -0.2048  1.0060 -2.1790
  749MOL0     H 3325  11.961  -1.232   4.074 -0.8020  0.6199 -1.2961
  749MOL0     H 3326  11.743  -1.365   4.150 -2.3426 -0.4618  1.1850
  749MOL0     H 3327  11.868  -1.309   4.261  0.5848 -0.4843 -1.5250
  749MOL0     H 3328  11.671  -1.288   4.442 -1.3188 -0.7507  0.0613
  749MOL0     H 3329  11.565  -1.367   4.332 -0.6741  2.3527 -0.4434
  749MOL0     H 3330  11.848  -1.484   4.412 -1.5158 -1.2973  2.4928
  749MOL0     H 3331  11.716  -1.573   4.329  0.2147  1.5689 -2.4692
  749MOL0     H 3332  11.591  -1.569   4.550  0.1780 -1.5282  0.5973
  749MOL0     H 3333  11.723  -1.462   4.618 -0.4074 -0.5755 -0.5628
  749MOL0     H 3334  11.768  -1.739   4.518  1.6032 -1.4966  2.2142
  749MOL0     H 3335  11.877  -1.637   4.604 -0.3354  0.3537  0.6644
  749MOL0     H 3336  11.612  -1.726   4.723 -0.1789 -2.4665 -0.6832
  749MOL0     H 3337  11.748  -1.643   4.804 -0.8699  2.9126 -1.5127
  749MOL0     H 3338  11.799  -1.849   4.867  0.1156 -0.8105  0.9822
  749MOL0     H 3339  11.870  -1.863   4.711  2.5875 -0.6449  5.1847
  749MOL0     H 3340  11.593  -1.933   4.801  0.2177 -3.1538  2.6122
  749MOL0     H 3341  11.716  -2.063   4.772  2.7770  0.8883 -2.5106
  749MOL0     H 3342  11.689  -0.927   4.201 -1.2691 -0.9239 -0.2269
  749MOL0     H 3343  11.828  -0.760   4.063 -0.2352 -0.4151  0.2121
  749MOL0     H 3344  12.152  -0.733   3.738 -1.9738  1.7126  1.1882
  749MOL0     H 3345  12.265  -0.582   3.589 -0.7526  0.1158  0.5437
  749MOL0     H 3346  11.477  -0.115   3.248  0.5753  0.9479 -0.2952
  749MOL0     H 3347  11.243  -0.078   3.267 -1.0187  1.0141  1.2029
  749MOL0     H 3348  10.864   0.108   3.304 -0.6618  1.0097  1.4421
  749MOL0     H 3349  10.617   0.151   3.301 -0.1694  0.3560  0.3832
  749MOL0     H 3350  10.463   0.470   3.037 -1.5592  2.9043  0.1135
  749MOL0     H 3351  10.318   0.405   3.104  0.4565  0.9967 -2.4417
  749MOL0     H 3352  10.370   0.519   3.330  2.3315  2.3255  2.2918
  749MOL0     H 3353  10.318   0.625   3.192  0.3582 -2.7221 -1.8242
  749MOL0     H 3354  10.504   0.718   3.328  0.8769  0.9604 -0.6262
  749MOL0     H 3355  10.605   0.588   3.259  0.7351 -0.6641 -3.0163
  749MOL0     H 3356  10.446   0.733   3.050 -0.3666 -3.0825  0.7524
  749MOL0     H 3357  10.619   0.672   3.047  1.1789  0.1571  0.4458
  749MOL0     H 3358  10.685   1.051   3.215  2.8589  0.5188 -0.3930
  749MOL0     H 3359  10.674   0.441   2.994  0.1964 -2.5185 -3.2875
  749MOL0     H 3360  10.845   0.441   2.843 -1.1598 -0.0856  0.8783
  749MOL0     H 3361  10.982   0.451   2.947 -0.9831  2.1842 -1.0001
  749MOL0     H 3362  10.954   0.303   2.847 -1.2678 -0.2521 -0.2877
  750MOL0     O 3363   0.627   5.136   5.409  0.3375 -0.2499 -0.2749
  750MOL0     C 3364   0.719   5.078   5.465  0.1814 -0.1093  0.1006
  750MOL0     O 3365   0.709   4.952   5.525  0.1751  0.0236  0.3412
  750MOL0     C 3366   0.591   4.888   5.504 -0.5412  0.3139 -0.7985
  750MOL0     C 3367   0.558   4.799   5.394 -0.8510  0.2950 -0.5158
  750MOL0     C 3368   0.440   4.733   5.397  0.4014  0.6195 -0.0962
  750MOL0     C 3369   0.339   4.740   5.498 -0.6269  0.3733 -0.2285
  750MOL0     O 3370   0.239   4.651   5.482  0.4096  0.3280 -0.0999
  750MOL0     C 3371   0.146   4.623   5.589 -0.8631  0.1718  0.2436
  750MOL0     C 3372   0.033   4.723   5.598  0.2652  0.2465 -0.5565
  750MOL0     C 3373  -0.056   4.732   5.478  0.1723 -0.5726 -0.1719
  750MOL0     C 3374  -0.178   4.823   5.520  0.0227  0.3598 -1.0593
  750MOL0     C 3375  -0.273   4.833   5.406  0.5616 -0.4393  0.5050
  750MOL0     C 3376  -0.385   4.925   5.454  0.0415  1.0011  0.3367
  750MOL0     C 3377  -0.498   4.930   5.359  0.8798 -1.4105  0.4761
  750MOL0     C 3378  -0.587   5.044   5.426 -0.1302  0.0535 -0.0139
  750MOL0     N 3379  -0.706   5.064   5.345 -0.1147  0.3041  0.0673
  750MOL0     C 3380  -0.807   4.970   5.348  1.0688 -0.6334 -0.9033
  750MOL0     C 3381  -0.889   5.002   5.244 -0.8492 -0.8574 -0.2495
  750MOL0     C 3382  -1.031   4.948   5.229  0.5702  0.6391 -0.2891
  750MOL0     C 3383  -1.047   4.816   5.149  0.2168  0.5813 -0.0439
  750MOL0     C 3384  -0.986   4.701   5.225  0.3505  0.8067 -0.4145
  750MOL0     C 3385  -0.998   4.570   5.145  0.4607  0.1663 -0.3715
  750MOL0     O 3386  -0.923   4.567   5.028 -0.6452 -0.6951  0.1910
  750MOL0     C 3387  -0.792   4.522   5.016 -0.0012 -0.3703 -0.2769
  750MOL0     C 3388  -0.711   4.501   5.131  0.0717  0.6237  0.1669
  750MOL0     C 3389  -0.583   4.444   5.112 -0.9051 -0.2304 -0.8044
  750MOL0     C 3390  -0.509   4.404   5.238  1.0717 -0.3157  0.2253
  750MOL0     C 3391  -0.526   4.427   4.984  0.0504  0.9159 -0.6415
  750MOL0     C 3392  -0.402   4.358   4.943 -0.2343 -0.0598 -0.4778
  750MOL0     O 3393  -0.374   4.343   4.808 -0.1767  0.5272 -0.3604
  750MOL0     C 3394  -0.244   4.315   4.767 -0.1464 -0.6401  0.9003
  750MOL0     C 3395  -0.191   4.394   4.664  0.6954 -0.1164  0.1500
  750MOL0     C 3396  -0.067   4.366   4.617 -0.1611 -0.5067 -0.0955
  750MOL0     C 3397   0.020   4.268   4.671  0.2235 -0.0227  0.1936
  750MOL0     O 3398   0.140   4.257   4.607  0.8622 -0.6762  0.3041
  750MOL0     C 3399   0.215   4.137   4.615  0.3924  0.0507 -0.1360
  750MOL0     C 3400   0.330   4.138   4.516  0.1941 -0.1517 -0.3754
  750MOL0     C 3401   0.405   4.275   4.511 -0.4555  0.3638 -0.3133
  750MOL0     C 3402   0.486   4.293   4.637 -0.0955 -0.5234 -0.3462
  750MOL0     C 3403   0.532   4.431   4.661  0.2091  0.3560 -0.5438
  750MOL0     C 3404   0.640   4.476   4.556 -0.8535 -0.3320 -0.0231
  750MOL0     C 3405   0.697   4.611   4.606 -0.0697 -1.0337 -0.0926
  750MOL0     C 3406   0.794   4.697   4.514  0.3591  0.2917 -0.1625
  750MOL0    Cl 3407   0.878   4.838   4.602 -0.1646  0.0801 -0.3202
  750MOL0     C 3408  -0.044   4.174   4.758 -0.4775  0.1100  0.7581
  750MOL0     C 3409  -0.170   4.205   4.808  0.3799 -0.4688  0.0112
  750MOL0     O 3410  -0.325   4.323   5.031  0.5185 -0.0016  1.0681
  750MOL0     C 3411  -0.603   4.469   4.872  0.3955  0.2118 -0.7548
  750MOL0     C 3412  -0.734   4.512   4.895 -1.1888 -0.4032  0.9027
  750MOL0     N 3413  -0.827   5.100   5.168 -0.0725 -0.2969 -0.0973
  750MOL0     N 3414  -0.716   5.138   5.233  0.2252 -0.2162  0.2212
  750MOL0     C 3415   0.368   4.827   5.609 -0.3905  1.1097 -0.2454
  750MOL0     C 3416   0.490   4.896   5.612  0.0916  0.1560 -0.7858
  750MOL0     C 3417   0.863   5.141   5.476 -0.0570  0.4723 -0.0681
  750MOL0     C 3418   0.974   5.064   5.523  1.4377  1.0569  0.6368
  750MOL0     C 3419   1.095   5.114   5.559 -0.2454  0.1040 -0.4850
  750MOL0     C 3420   1.109   5.250   5.550 -0.3826 -0.4125  0.5008
  750MOL0     O 3421   1.231   5.299   5.600  0.6955  0.7713 -0.1476
  750MOL0     C 3422   1.275   5.433   5.585 -0.1549  0.7115  0.9072
  750MOL0     C 3423   1.408   5.446   5.658 -0.3963  0.4923  0.4273
  750MOL0     C 3424   1.523   5.440   5.560  0.2771  0.3880 -0.3320
  750MOL0     C 3425   1.648   5.478   5.629 -0.1016 -0.0417 -0.2531
  750MOL0     C 3426   1.734   5.563   5.552  0.2417 -0.5335 -0.4758
  750MOL0     C 3427   1.828   5.613   5.493 -0.0630  0.2139  0.1269
  750MOL0     C 3428   1.006   5.328   5.494 -0.0978  0.1678 -0.2381
  750MOL0     C 3429   0.876   5.281   5.461  0.5198  0.0002 -0.0941
  750MOL0     C 3430   0.770   5.382   5.429 -0.5270 -0.2738  0.4501
  750MOL0     H 3431   0.634   4.802   5.317 -0.7720 -0.6242 -0.4843
  750MOL0     H 3432   0.435   4.656   5.321 -1.4957 -2.0281  2.4589
  750MOL0     H 3433   0.198   4.608   5.684 -1.2071  2.3566  0.8428
  750MOL0     H 3434   0.100   4.528   5.561  0.7599 -0.5279 -0.1483
  750MOL0     H 3435  -0.036   4.687   5.675 -3.4063  0.5822 -3.4239
  750MOL0     H 3436   0.068   4.822   5.628  0.5647 -0.1842  0.5592
  750MOL0     H 3437   0.004   4.774   5.396  0.5525 -0.5275  0.1255
  750MOL0     H 3438  -0.090   4.634   5.447  1.2465 -1.2367  0.6658
  750MOL0     H 3439  -0.228   4.775   5.605 -1.1775 -0.9523 -2.4295
  750MOL0     H 3440  -0.148   4.926   5.540 -1.4194  0.4488  0.9262
  750MOL0     H 3441  -0.308   4.737   5.366 -2.4663  1.0930 -0.9015
  750MOL0     H 3442  -0.218   4.871   5.320  0.9812 -0.2107  0.8762
  750MOL0     H 3443  -0.421   4.894   5.553  2.0453 -1.8989  0.2636
  750MOL0     H 3444  -0.347   5.027   5.467  0.8248  0.7096  0.3292
  750MOL0     H 3445  -0.555   4.836   5.362 -1.2525 -0.2662 -1.2030
  750MOL0     H 3446  -0.471   4.954   5.256  0.2892  2.5702  1.1202
  750MOL0     H 3447  -0.614   5.020   5.529 -2.1953  2.5196  0.1307
  750MOL0     H 3448  -0.527   5.135   5.433 -0.6867  0.3232  4.2920
  750MOL0     H 3449  -0.826   4.901   5.429 -1.7735  1.0728 -0.0175
  750MOL0     H 3450  -1.091   5.030   5.188  0.6029  1.3849  1.0831
  750MOL0     H 3451  -1.074   4.935   5.328 -1.6609 -2.1540 -1.4906
  750MOL0     H 3452  -1.151   4.791   5.131  0.4801 -1.1536  0.7042
  750MOL0     H 3453  -1.005   4.828   5.048 -0.8703  1.5033 -0.4149
  750MOL0     H 3454  -0.879   4.722   5.233  0.6273 -0.2750 -0.9581
  750MOL0     H 3455  -1.019   4.694   5.329  1.8506  0.5962  0.0691
  750MOL0     H 3456  -0.969   4.482   5.204  0.3123  1.3887  1.6256
  750MOL0     H 3457  -1.101   4.558   5.111  0.5767 -1.8459 -0.1374
  750MOL0     H 3458  -0.743   4.512   5.234  1.6795 -1.2030  0.9357
  750MOL0     H 3459  -0.427   4.477   5.241  0.5803  0.4423 -2.0241
  750MOL0     H 3460  -0.474   4.305   5.265  3.1749  0.0976 -0.7762
  750MOL0     H 3461  -0.575   4.426   5.322 -0.8113  1.6295 -1.6216
  750MOL0     H 3462  -0.256   4.470   4.623  1.9627  0.2644 -1.2682
  750MOL0     H 3463  -0.028   4.426   4.535 -3.0246  1.0815 -0.4372
  750MOL0     H 3464   0.251   4.118   4.717 -0.5171 -1.0378 -0.0014
  750MOL0     H 3465   0.155   4.050   4.585  0.5815 -0.2086  0.2304
  750MOL0     H 3466   0.401   4.060   4.542  3.5965  2.8430  0.1410
  750MOL0     H 3467   0.304   4.115   4.412 -0.6981  1.7442 -0.6233
  750MOL0     H 3468   0.346   4.366   4.500 -0.6626 -0.0117 -2.8416
  750MOL0     H 3469   0.473   4.273   4.426  1.2980 -1.9041  0.9936
  750MOL0     H 3470   0.563   4.216   4.644 -2.5010 -2.9810  1.7012
  750MOL0     H 3471   0.413   4.288   4.719  0.3263  2.4947  0.3120
  750MOL0     H 3472   0.448   4.500   4.654 -1.3078 -1.2633  0.7383
  750MOL0     H 3473   0.568   4.446   4.763 -0.8050  1.5897 -0.3380
  750MOL0     H 3474   0.593   4.476   4.457  2.2167  1.0060 -1.6166
  750MOL0     H 3475   0.722   4.405   4.548 -0.5529 -0.1216  0.9968
  750MOL0     H 3476   0.748   4.604   4.703 -0.8501 -0.7354  0.3460
  750MOL0     H 3477   0.610   4.674   4.622 -2.4144 -3.4775 -2.2813
  750MOL0     H 3478   0.746   4.725   4.420  2.4749  0.4608 -1.2598
  750MOL0     H 3479   0.867   4.620   4.487  0.0974  0.1972 -0.6100
  750MOL0     H 3480   0.012   4.085   4.787  1.2607  0.5538 -1.0396
  750MOL0     H 3481  -0.207   4.133   4.882 -0.1157  0.1180  0.3452
  750MOL0     H 3482  -0.560   4.464   4.772 -2.5835  0.8359 -2.1801
  750MOL0     H 3483  -0.786   4.537   4.803  0.7600  1.6173  0.2682
  750MOL0     H 3484   0.302   4.827   5.695  0.5368  1.0960  0.4823
  750MOL0     H 3485   0.520   4.953   5.699  2.0685 -0.8846 -0.7274
  750MOL0     H 3486   0.948   4.960   5.540  0.2542  1.1809 -0.2426
  750MOL0     H 3487   1.175   5.054   5.602 -0.7427 -0.2527 -0.0568
  750MOL0     H 3488   1.281   5.454   5.478 -1.7393 -1.1217  0.3875
  750MOL0     H 3489   1.197   5.502   5.620  0.1199  0.4409  2.0939
  750MOL0     H 3490   1.434   5.372   5.735  2.0245  0.0756 -0.6960
  750MOL0     H 3491   1.412   5.546   5.702  0.5742  0.5153  0.3004
  750MOL0     H 3492   1.533   5.341   5.514 -1.2920  0.9573 -2.0180
  750MOL0     H 3493   1.498   5.511   5.481  2.4384  2.1200  0.4634
  750MOL0     H 3494   1.710   5.394   5.660 -0.4827 -0.2234  0.0126
  750MOL0     H 3495   1.623   5.536   5.718 -0.1695 -0.0959 -0.2376
  750MOL0     H 3496   1.914   5.654   5.443  0.6826  1.3480  2.2427
  750MOL0     H 3497   1.024   5.433   5.470 -1.7116 -0.1714 -3.5355
  750MOL0     H 3498   0.738   5.368   5.325 -1.0059  0.3752  0.5005
  750MOL0     H 3499   0.684   5.384   5.496 -0.9344 -0.4973 -0.0559
  750MOL0     H 3500   0.812   5.483   5.433 -0.9964  0.2913 -4.0047
  751MOL0     O 3501   9.233  10.803   0.299  0.0671 -0.8900  0.8802
  751MOL0     C 3502   9.229  10.681   0.266  0.3155  0.0945 -0.6117
  751MOL0     O 3503   9.330  10.596   0.265  0.4373  0.1682  0.0026
  751MOL0     C 3504   9.416  10.610   0.371  0.8393 -0.2266  0.3438
  751MOL0     C 3505   9.382  10.645   0.503 -0.3539  0.8456  1.0629
  751MOL0     C 3506   9.478  10.664   0.602 -0.7563  0.2835 -0.4182
  751MOL0     C 3507   9.611  10.638   0.567  0.9328 -0.5652  0.3005
  751MOL0     O 3508   9.711  10.656   0.651  0.7197  0.0035  0.0720
  751MOL0     C 3509   9.718  10.788   0.689 -0.3852 -0.1606 -0.3536
  751MOL0     C 3510   9.859  10.804   0.744 -0.0728 -0.3462  0.5003
  751MOL0     C 3511   9.863  10.759   0.888 -0.6989 -0.2749 -0.0778
  751MOL0     C 3512   9.991  10.794   0.968  1.3622 -0.4731 -0.0277
  751MOL0     C 3513   9.986  10.780   1.120 -0.0142 -0.1555  1.0461
  751MOL0     C 3514   9.933  10.636   1.155 -0.7762 -0.3692 -0.5731
  751MOL0     C 3515   9.911  10.623   1.310 -0.0398  0.6210 -0.5472
  751MOL0     C 3516   9.898  10.470   1.334 -0.4087  0.0411 -0.2169
  751MOL0     N 3517  10.025  10.396   1.329 -0.6653 -0.4555 -0.0498
  751MOL0     C 3518  10.055  10.278   1.260  0.9025  0.9634 -0.6494
  751MOL0     C 3519  10.184  10.254   1.266 -0.5486  0.7094  0.0655
  751MOL0     C 3520  10.259  10.142   1.198 -0.0015 -0.1238  0.2341
  751MOL0     C 3521  10.387  10.114   1.259 -0.1647 -0.3225  0.1019
  751MOL0     C 3522  10.443   9.974   1.220 -1.1114  0.0215  0.5549
  751MOL0     C 3523  10.450   9.937   1.064  0.7199  0.4251 -0.2614
  751MOL0     O 3524  10.514  10.045   0.985  0.3520  0.4386 -0.1426
  751MOL0     C 3525  10.649  10.063   0.995  0.4479 -0.2551  0.7762
  751MOL0     C 3526  10.696  10.170   0.923 -0.5294  0.2299 -0.3756
  751MOL0     C 3527  10.834  10.205   0.906  0.0779 -0.2676  1.1681
  751MOL0     C 3528  10.879  10.324   0.821 -0.0472  1.7771  0.3268
  751MOL0     C 3529  10.925  10.114   0.959 -0.6413 -0.0275 -0.5615
  751MOL0     C 3530  11.078  10.127   0.947 -0.1758  0.3982  0.0690
  751MOL0     O 3531  11.147  10.246   0.922  0.0561  0.5179  0.1537
  751MOL0     C 3532  11.272  10.240   0.865 -0.1937 -0.7975  0.4486
  751MOL0     C 3533  11.281  10.234   0.728  0.4407  0.2164  0.3102
  751MOL0     C 3534  11.406  10.252   0.670  0.3107  1.2473  0.8034
  751MOL0     C 3535  11.519  10.276   0.743 -0.4051  0.6313 -0.5501
  751MOL0     O 3536  11.646  10.280   0.688  0.5357  0.3146  0.3376
  751MOL0     C 3537  11.688  10.182   0.587  0.6250 -0.7448 -0.2082
  751MOL0     C 3538  11.710  10.046   0.657  0.2408 -0.4133 -0.0185
  751MOL0     C 3539  11.815  10.049   0.766  0.3605  0.1230 -0.7292
  751MOL0     C 3540  11.831   9.908   0.822  0.2250  0.2776 -0.3508
  751MOL0     C 3541  11.910   9.915   0.953 -0.2659 -0.1111  0.1411
  751MOL0     C 3542  11.957   9.783   1.008 -0.1221  0.1959 -0.1623
  751MOL0     C 3543  11.871   9.714   1.124  0.2227 -0.6434 -0.2439
  751MOL0     C 3544  11.839   9.563   1.091 -0.9556 -0.4172 -0.1241
  751MOL0    Cl 3545  11.999   9.478   1.109  0.0950  0.3152 -0.2118
  751MOL0     C 3546  11.505  10.298   0.881 -0.4543 -0.2925 -0.9040
  751MOL0     C 3547  11.381  10.283   0.938  0.3327 -0.1663  0.7572
  751MOL0     O 3548  11.137  10.025   0.989  0.0204  0.1109 -0.3179
  751MOL0     C 3549  10.875   9.995   1.028  0.8990 -0.0278 -0.7246
  751MOL0     C 3550  10.733   9.970   1.047  0.2298 -0.3393  1.0393
  751MOL0     N 3551  10.240  10.358   1.337  1.0078 -0.1014 -0.0735
  751MOL0     N 3552  10.145  10.436   1.378  0.5326 -0.3060  0.8605
  751MOL0     C 3553   9.642  10.598   0.443  0.0794 -0.2135 -0.5450
  751MOL0     C 3554   9.546  10.591   0.338 -0.2722  0.4112 -0.3837
  751MOL0     C 3555   9.101  10.629   0.213  0.0296  0.3146 -0.5871
  751MOL0     C 3556   8.978  10.649   0.280  0.0314  0.1797  0.7707
  751MOL0     C 3557   8.851  10.603   0.233 -0.2972  0.0971 -0.2673
  751MOL0     C 3558   8.845  10.535   0.122 -0.0582  0.5190  0.4434
  751MOL0     O 3559   8.726  10.496   0.083 -0.4570 -0.3328 -0.1599
  751MOL0     C 3560   8.704  10.394  -0.008 -0.3690 -1.1378  0.0308
  751MOL0     C 3561   8.691  10.264   0.075  0.6464  0.5315  0.0282
  751MOL0     C 3562   8.614  10.276   0.208 -0.6128  0.5471 -0.6178
  751MOL0     C 3563   8.628  10.146   0.288 -0.7981 -0.3654 -0.3121
  751MOL0     C 3564   8.560  10.045   0.206  0.3260 -0.4875 -0.3489
  751MOL0     C 3565   8.515   9.949   0.145  0.0289  0.2748  0.0666
  751MOL0     C 3566   8.967  10.519   0.040  1.0652 -0.8490 -0.0859
  751MOL0     C 3567   9.097  10.560   0.092 -0.2385  0.4681 -0.4969
  751MOL0     C 3568   9.213  10.554  -0.000  0.1267  0.4761  0.5589
  751MOL0     H 3569   9.276  10.652   0.523 -1.4897 -0.5874 -3.3541
  751MOL0     H 3570   9.445  10.697   0.700 -1.8603 -1.0338 -0.3221
  751MOL0     H 3571   9.657  10.831   0.769  1.8744  1.0211  0.8405
  751MOL0     H 3572   9.722  10.842   0.594  1.2577  3.4744  1.5787
  751MOL0     H 3573   9.930  10.741   0.690  1.4890  0.9610  0.9396
  751MOL0     H 3574   9.889  10.908   0.731 -1.0393 -0.3675 -2.8249
  751MOL0     H 3575   9.770  10.791   0.936 -1.5636 -0.3227 -1.6154
  751MOL0     H 3576   9.847  10.650   0.885 -1.7104 -0.1946  1.3943
  751MOL0     H 3577  10.075  10.732   0.934  1.1732  0.3388 -2.0825
  751MOL0     H 3578  10.024  10.895   0.943 -1.0303  0.8057  1.5803
  751MOL0     H 3579   9.911  10.847   1.163 -0.2017  0.3977 -0.1136
  751MOL0     H 3580  10.088  10.798   1.157  1.0228 -4.0399  0.5053
  751MOL0     H 3581   9.840  10.621   1.100 -0.8647 -3.4509  0.2231
  751MOL0     H 3582  10.006  10.562   1.121 -0.6155 -0.6596  0.3663
  751MOL0     H 3583   9.821  10.673   1.347 -1.7222 -4.0779  2.7849
  751MOL0     H 3584   9.991  10.666   1.370  0.2977  3.1872 -2.6423
  751MOL0     H 3585   9.849  10.448   1.429  1.0760 -0.0537  0.5459
  751MOL0     H 3586   9.837  10.429   1.253  1.2172  0.9167 -1.9693
  751MOL0     H 3587   9.987  10.205   1.219  1.4658  0.2881 -0.4021
  751MOL0     H 3588  10.276  10.174   1.095 -2.0305  1.0548  0.2020
  751MOL0     H 3589  10.191  10.056   1.196  0.7929 -0.7825  0.7671
  751MOL0     H 3590  10.468  10.176   1.221 -1.8923  1.5324 -0.7192
  751MOL0     H 3591  10.377  10.125   1.367 -2.8536 -1.9054  0.1153
  751MOL0     H 3592  10.541   9.966   1.266 -1.0464  1.8319  0.8211
  751MOL0     H 3593  10.392   9.889   1.266 -0.5728 -0.3441  0.4881
  751MOL0     H 3594  10.495   9.839   1.051 -1.1711 -0.2592 -2.1677
  751MOL0     H 3595  10.347   9.920   1.033  0.5997 -0.1388  0.4265
  751MOL0     H 3596  10.619  10.241   0.896 -0.1516  0.9998  0.4803
  751MOL0     H 3597  10.922  10.277   0.732 -4.3699 -2.4015  0.0287
  751MOL0     H 3598  10.951  10.380   0.882 -0.2400  0.6709  1.6234
  751MOL0     H 3599  10.797  10.385   0.782 -3.2161 -1.6866  1.0049
  751MOL0     H 3600  11.198  10.209   0.663 -0.5525  1.9378  0.8279
  751MOL0     H 3601  11.417  10.229   0.564 -2.8254  0.0645  0.6396
  751MOL0     H 3602  11.619  10.174   0.502  2.0867 -0.8616 -1.4288
  751MOL0     H 3603  11.772  10.229   0.534 -0.5715 -1.2681 -2.7119
  751MOL0     H 3604  11.615  10.026   0.708 -0.9677  1.3180 -1.4402
  751MOL0     H 3605  11.729   9.960   0.593 -1.8198 -3.6853  3.3853
  751MOL0     H 3606  11.788  10.122   0.841 -0.2161 -0.7712 -0.0434
  751MOL0     H 3607  11.911  10.085   0.728  1.1843  0.6511  1.7107
  751MOL0     H 3608  11.885   9.843   0.752  1.4675 -0.7899  1.5301
  751MOL0     H 3609  11.738   9.860   0.852  1.6954 -1.2402  2.0404
  751MOL0     H 3610  11.995   9.984   0.952 -0.5272  0.2626  1.4450
  751MOL0     H 3611  11.844   9.959   1.028 -2.4927 -0.0157 -1.7664
  751MOL0     H 3612  12.064   9.784   1.029 -0.5808 -0.3298  2.5117
  751MOL0     H 3613  11.959   9.705   0.931  3.0343 -0.7817  0.7412
  751MOL0     H 3614  11.774   9.761   1.142  0.1840  0.0583 -2.1033
  751MOL0     H 3615  11.932   9.731   1.214 -1.4466  2.1272  0.4689
  751MOL0     H 3616  11.799   9.561   0.989 -2.8257 -1.1728  0.5838
  751MOL0     H 3617  11.760   9.527   1.156 -2.4507 -0.0107 -1.6545
  751MOL0     H 3618  11.602  10.318   0.926  0.3347  0.5309 -2.8576
  751MOL0     H 3619  11.373  10.303   1.045  0.6346  1.6804  0.4668
  751MOL0     H 3620  10.941   9.927   1.082  1.5450  1.4333  0.4217
  751MOL0     H 3621  10.701   9.883   1.103  3.1690 -1.9322  0.4736
  751MOL0     H 3622   9.745  10.594   0.410  0.2166 -0.1071 -0.1388
  751MOL0     H 3623   9.587  10.570   0.240 -2.4333  0.8960 -1.4620
  751MOL0     H 3624   8.974  10.707   0.372  0.6794  1.3473  0.0875
  751MOL0     H 3625   8.758  10.603   0.289  0.1211  3.5602  0.6474
  751MOL0     H 3626   8.607  10.407  -0.056  0.1445  4.0063 -0.1590
  751MOL0     H 3627   8.774  10.386  -0.091 -1.0460 -0.7080 -0.5943
  751MOL0     H 3628   8.795  10.239   0.095  0.1273 -1.8051  0.1301
  751MOL0     H 3629   8.659  10.180   0.011 -0.3018 -0.2251  1.4342
  751MOL0     H 3630   8.664  10.358   0.261  0.8036 -0.3507 -0.5121
  751MOL0     H 3631   8.509  10.295   0.181  0.4897 -0.0430 -6.6994
  751MOL0     H 3632   8.583  10.142   0.388  2.1510 -2.6207  1.1106
  751MOL0     H 3633   8.733  10.115   0.293 -1.2558 -1.8537  0.7938
  751MOL0     H 3634   8.477   9.859   0.101  0.6911 -0.9136  1.8180
  751MOL0     H 3635   8.965  10.485  -0.063 -3.2784 -1.0207 -0.1320
  751MOL0     H 3636   9.307  10.601   0.030 -0.3381  2.0468 -0.3516
  751MOL0     H 3637   9.242  10.455  -0.036  1.5727  0.4097  1.8100
  751MOL0     H 3638   9.182  10.606  -0.091  2.4789 -1.7799 -1.7271
  752MOL0     O 3639   4.422   0.153   9.452 -0.4447 -0.1235 -0.4510
  752MOL0     C 3640   4.417   0.069   9.547 -0.3936 -0.2897  0.0285
  752MOL0     O 3641   4.386   0.100   9.678 -0.2342 -0.2604  0.2880
  752MOL0     C 3642   4.414   0.224   9.731  1.1544  0.0936  0.6110
  752MOL0     C 3643   4.524   0.298   9.698 -0.7582  0.3956 -0.2896
  752MOL0     C 3644   4.545   0.414   9.774  0.0911 -0.3303  0.7396
  752MOL0     C 3645   4.462   0.452   9.877  0.2080  0.0605  0.3480
  752MOL0     O 3646   4.479   0.569   9.953  0.3333 -0.0495 -0.2350
  752MOL0     C 3647   4.548   0.672   9.890  0.1638  0.1224  0.5865
  752MOL0     C 3648   4.562   0.805   9.972 -0.2261 -1.0360 -0.3525
  752MOL0     C 3649   4.423   0.860   9.997  0.8453 -0.8757 -0.6774
  752MOL0     C 3650   4.429   1.015  10.014 -0.5017 -0.7234 -0.8389
  752MOL0     C 3651   4.520   1.062  10.131 -0.0034 -0.2021 -0.0393
  752MOL0     C 3652   4.477   1.004  10.265  0.0706 -0.3188 -0.0552
  752MOL0     C 3653   4.332   1.058  10.316 -0.2922 -0.5691 -0.9183
  752MOL0     C 3654   4.344   1.094  10.462  0.1987 -0.5836  1.3908
  752MOL0     N 3655   4.351   0.975  10.554  0.2536  0.0514  0.2460
  752MOL0     C 3656   4.271   0.861  10.554  0.9517 -0.5905  0.5536
  752MOL0     C 3657   4.295   0.792  10.664  0.4233 -0.1652  0.2164
  752MOL0     C 3658   4.252   0.646  10.660  1.0325 -0.3454  0.1182
  752MOL0     C 3659   4.333   0.560  10.754  0.1670 -0.0860 -0.8890
  752MOL0     C 3660   4.285   0.420  10.762  0.0933  0.9469 -0.2167
  752MOL0     C 3661   4.361   0.316  10.693 -0.5777  0.1245  0.3805
  752MOL0     O 3662   4.325   0.191  10.763 -0.8980 -0.1146 -0.1439
  752MOL0     C 3663   4.350   0.071  10.701  0.2391 -0.0352 -0.9776
  752MOL0     C 3664   4.453   0.049  10.613 -0.0466  0.1937  0.1323
  752MOL0     C 3665   4.474  -0.071  10.539  0.4061  0.6519  0.3798
  752MOL0     C 3666   4.590  -0.066  10.435  1.2244 -0.2370  1.7800
  752MOL0     C 3667   4.389  -0.183  10.573 -0.4070 -0.9055 -0.1770
  752MOL0     C 3668   4.399  -0.315  10.503  0.4462  0.1719 -0.3751
  752MOL0     O 3669   4.310  -0.412  10.535  0.2971  0.1056  0.4040
  752MOL0     C 3670   4.339  -0.536  10.480  0.0359 -0.2943  0.2334
  752MOL0     C 3671   4.292  -0.572  10.350 -0.3773 -0.1729  0.9240
  752MOL0     C 3672   4.333  -0.701  10.295 -0.1790 -0.0220 -0.0737
  752MOL0     C 3673   4.408  -0.793  10.378  0.0887 -1.1946  0.3544
  752MOL0     O 3674   4.440  -0.920  10.343  0.8694 -0.0483  0.1381
  752MOL0     C 3675   4.338  -0.997  10.261 -0.4239  0.3806  0.7833
  752MOL0     C 3676   4.394  -1.143  10.211  0.2322 -0.5935 -0.4231
  752MOL0     C 3677   4.504  -1.123  10.114 -0.1441 -0.9835  0.3718
  752MOL0     C 3678   4.492  -1.206   9.989  0.4736 -0.1747 -0.0607
  752MOL0     C 3679   4.617  -1.201   9.905 -0.1244 -0.5910  0.7467
  752MOL0     C 3680   4.582  -1.214   9.756 -0.6273 -0.5221 -0.8137
  752MOL0     C 3681   4.541  -1.080   9.696 -0.5049  0.4604  0.0211
  752MOL0     C 3682   4.662  -0.992   9.646 -0.2887  0.1361 -0.0700
  752MOL0    Cl 3683   4.755  -1.075   9.518  0.4090 -0.0464 -0.6890
  752MOL0     C 3684   4.453  -0.751  10.500 -0.9450 -0.4341 -1.0773
  752MOL0     C 3685   4.422  -0.622  10.556 -0.1969 -0.0611 -0.7138
  752MOL0     O 3686   4.501  -0.329  10.437  0.3975 -0.2490 -0.5077
  752MOL0     C 3687   4.301  -0.163  10.678  0.7375 -0.1562 -0.1681
  752MOL0     C 3688   4.276  -0.037  10.740 -0.6301  0.0769  0.2804
  752MOL0     N 3689   4.388   0.867  10.735 -0.7762 -0.4837  0.6124
  752MOL0     N 3690   4.403   0.986  10.679 -0.6360  0.4353  0.0093
  752MOL0     C 3691   4.343   0.375   9.902  0.0057 -0.5538  0.8977
  752MOL0     C 3692   4.325   0.253   9.837 -0.1696 -0.5283 -0.1582
  752MOL0     C 3693   4.418  -0.079   9.516 -0.1451  1.1617 -0.1164
  752MOL0     C 3694   4.374  -0.163   9.619 -0.1281 -0.3253 -0.4313
  752MOL0     C 3695   4.377  -0.300   9.602 -0.2952  0.7591  0.0498
  752MOL0     C 3696   4.391  -0.356   9.476  0.6508  0.5433  0.6115
  752MOL0     O 3697   4.360  -0.492   9.458  0.1882  0.1441 -0.1167
  752MOL0     C 3698   4.342  -0.550   9.325 -1.1431  0.0428  0.1928
  752MOL0     C 3699   4.273  -0.682   9.333  0.0316 -0.1450 -0.1179
  752MOL0     C 3700   4.126  -0.651   9.374 -0.2624 -0.4409  0.1532
  752MOL0     C 3701   4.037  -0.771   9.372 -0.7534  0.4597  0.3441
  752MOL0     C 3702   3.916  -0.731   9.452 -0.2579  0.2559  0.0626
  752MOL0     C 3703   3.808  -0.716   9.509 -0.5065  0.1992  0.4571
  752MOL0     C 3704   4.420  -0.274   9.366 -0.0324 -0.3683  0.5534
  752MOL0     C 3705   4.441  -0.134   9.381 -0.1717 -0.2714 -0.2588
  752MOL0     C 3706   4.473  -0.061   9.254  0.4254  0.3937  0.5665
  752MOL0     H 3707   4.590   0.262   9.619 -0.9839 -1.8808  0.4791
  752MOL0     H 3708   4.625   0.479   9.741  1.4791 -1.1204  2.4326
  752MOL0     H 3709   4.496   0.701   9.798  1.6335  3.3775  0.6543
  752MOL0     H 3710   4.650   0.637   9.870 -1.0259 -1.6676 -3.4814
  752MOL0     H 3711   4.605   0.788  10.071 -1.0613  2.6474  0.7935
  752MOL0     H 3712   4.634   0.866   9.918  0.1223 -1.0208  0.1223
  752MOL0     H 3713   4.361   0.845   9.908  0.5058  2.3290 -1.1176
  752MOL0     H 3714   4.363   0.816  10.076 -3.4328  1.9074 -1.9937
  752MOL0     H 3715   4.482   1.070   9.935  0.7495 -1.3862 -0.4949
  752MOL0     H 3716   4.331   1.062  10.015  0.7349  2.0550 -0.9699
  752MOL0     H 3717   4.527   1.170  10.142  1.6250 -0.4468  2.2741
  752MOL0     H 3718   4.623   1.027  10.113 -0.3914 -0.9531 -0.8758
  752MOL0     H 3719   4.457   0.897  10.262 -0.4782 -0.1940 -1.0571
  752MOL0     H 3720   4.558   1.021  10.338 -0.8931  1.0464  0.7566
  752MOL0     H 3721   4.262   0.974  10.308  0.3034 -1.7401  3.3572
  752MOL0     H 3722   4.301   1.147  10.262  3.7340  1.8102  0.2455
  752MOL0     H 3723   4.428   1.159  10.483 -1.3399  1.7746  0.5999
  752MOL0     H 3724   4.254   1.147  10.494  1.1075  0.9909  1.4386
  752MOL0     H 3725   4.190   0.852  10.481 -0.3382  3.7240  1.1081
  752MOL0     H 3726   4.276   0.607  10.561  1.3615 -1.4241  0.6165
  752MOL0     H 3727   4.145   0.633  10.681  0.5376  2.1715 -0.4287
  752MOL0     H 3728   4.440   0.570  10.735 -0.1834  0.1250 -2.9975
  752MOL0     H 3729   4.315   0.598  10.855  0.2917 -1.2393 -0.4155
  752MOL0     H 3730   4.279   0.403  10.870 -0.9988  3.0192  0.0906
  752MOL0     H 3731   4.184   0.404  10.723  0.1165 -2.1748  0.7515
  752MOL0     H 3732   4.332   0.333  10.589  0.6072 -0.8276 -0.1374
  752MOL0     H 3733   4.467   0.342  10.702 -0.7974  0.7900  1.1949
  752MOL0     H 3734   4.507   0.141  10.600  0.6282 -0.3887 -1.4263
  752MOL0     H 3735   4.665  -0.143  10.452  1.6423  0.0019  1.0590
  752MOL0     H 3736   4.632   0.035  10.430 -1.0414  0.7214  0.7215
  752MOL0     H 3737   4.539  -0.091  10.342 -0.9133 -0.4832  2.9533
  752MOL0     H 3738   4.229  -0.513  10.284  1.0141  0.2167 -0.1115
  752MOL0     H 3739   4.290  -0.729  10.200 -2.7828 -0.6134  1.1930
  752MOL0     H 3740   4.247  -1.020  10.316 -0.8424  1.4913  0.5880
  752MOL0     H 3741   4.315  -0.945  10.167 -0.1463 -2.1746 -0.7895
  752MOL0     H 3742   4.430  -1.201  10.297  0.8600  0.9296  0.3863
  752MOL0     H 3743   4.305  -1.192  10.172 -0.3811 -0.1297  0.3603
  752MOL0     H 3744   4.600  -1.157  10.155  0.8633 -0.7259 -1.6227
  752MOL0     H 3745   4.512  -1.019  10.080  0.1518 -1.1128  0.0372
  752MOL0     H 3746   4.409  -1.167   9.929 -2.0419 -2.4288  1.6877
  752MOL0     H 3747   4.475  -1.309  10.022 -0.2942  0.0210  0.2013
  752MOL0     H 3748   4.675  -1.111   9.927  1.3330 -1.3163  0.0438
  752MOL0     H 3749   4.690  -1.280   9.927  1.1628  1.2277  3.5467
  752MOL0     H 3750   4.500  -1.285   9.741 -0.5509 -0.7039 -0.4027
  752MOL0     H 3751   4.671  -1.264   9.718  0.5780 -0.4437  1.7079
  752MOL0     H 3752   4.475  -1.023   9.763  1.9375  2.7155  0.7029
  752MOL0     H 3753   4.492  -1.105   9.602  0.6333  1.9979 -1.0444
  752MOL0     H 3754   4.728  -0.985   9.732  0.8211  1.4116 -0.9868
  752MOL0     H 3755   4.619  -0.894   9.623 -2.0220 -0.4564  0.4511
  752MOL0     H 3756   4.513  -0.815  10.563  0.3676  2.3482  0.6805
  752MOL0     H 3757   4.458  -0.591  10.653  1.7089  0.6946 -1.6072
  752MOL0     H 3758   4.227  -0.240  10.696 -3.0787  2.7693 -1.8817
  752MOL0     H 3759   4.209  -0.028  10.825 -1.4346 -1.8978 -0.0944
  752MOL0     H 3760   4.277   0.413   9.979  2.5990  2.4210  1.8629
  752MOL0     H 3761   4.246   0.180   9.848  1.7835 -2.9814 -1.3301
  752MOL0     H 3762   4.347  -0.133   9.720  0.8774 -0.6033 -0.0673
  752MOL0     H 3763   4.348  -0.361   9.687  2.2963  0.4845  0.8153
  752MOL0     H 3764   4.281  -0.485   9.262  1.0992  0.6927 -1.4327
  752MOL0     H 3765   4.438  -0.565   9.275 -1.2719  2.5351 -0.9080
  752MOL0     H 3766   4.325  -0.739   9.409  0.8792 -0.6703 -1.0666
  752MOL0     H 3767   4.276  -0.729   9.234 -1.4073  4.1809 -2.5042
  752MOL0     H 3768   4.126  -0.607   9.474 -1.1915 -2.6471  1.1945
  752MOL0     H 3769   4.095  -0.584   9.294  0.1610 -0.8251 -0.3430
  752MOL0     H 3770   4.081  -0.862   9.415 -1.9902  0.0800  0.8444
  752MOL0     H 3771   4.002  -0.801   9.273  0.4726  0.0456  0.0106
  752MOL0     H 3772   3.711  -0.696   9.552 -1.7802 -0.1979 -2.0190
  752MOL0     H 3773   4.426  -0.321   9.268  2.0357  1.2137 -0.1563
  752MOL0     H 3774   4.541  -0.128   9.201 -1.0587 -0.2476 -0.5921
  752MOL0     H 3775   4.380  -0.042   9.200  0.3631  0.6666  0.7641
  752MOL0     H 3776   4.519   0.038   9.269 -3.7999  3.0895 -2.0193
  753MOL0     O 3777   5.839   9.478   6.928  0.4811  0.1322  0.7003
  753MOL0     C 3778   5.860   9.354   6.932  0.4711 -0.7459 -0.5536
  753MOL0     O 3779   5.977   9.292   6.901 -0.1576 -0.2007 -0.0895
  753MOL0     C 3780   6.082   9.365   6.853  0.8663  0.9634 -0.0483
  753MOL0     C 3781   6.126   9.482   6.904  0.5152 -0.0997  0.5451
  753MOL0     C 3782   6.233   9.542   6.852 -0.8902  0.4284  0.2753
  753MOL0     C 3783   6.307   9.489   6.745 -0.2376 -0.6095 -0.1685
  753MOL0     O 3784   6.422   9.561   6.715 -0.2380 -0.1441 -0.0377
  753MOL0     C 3785   6.465   9.555   6.580  0.0328 -0.1122  0.4827
  753MOL0     C 3786   6.593   9.629   6.536 -0.4206 -0.2699  0.4579
  753MOL0     C 3787   6.604   9.625   6.382  0.8408  0.6794  0.7544
  753MOL0     C 3788   6.709   9.725   6.321  0.0766  1.1514 -0.5578
  753MOL0     C 3789   6.708   9.736   6.174 -0.7670 -0.1633  1.2066
  753MOL0     C 3790   6.802   9.837   6.127  0.1039  0.2460  0.1645
  753MOL0     C 3791   6.819   9.837   5.971 -0.1416 -0.1346  0.0025
  753MOL0     C 3792   6.707   9.895   5.890  0.3529 -0.3949  0.4653
  753MOL0     N 3793   6.659  10.029   5.925 -0.6146 -0.4552  0.5120
  753MOL0     C 3794   6.711  10.152   5.878 -0.2807 -0.1790 -1.2708
  753MOL0     C 3795   6.626  10.241   5.929  0.2920  0.0657 -0.3812
  753MOL0     C 3796   6.657  10.390   5.945  0.3314  0.3255 -0.1127
  753MOL0     C 3797   6.615  10.480   5.832 -0.4270 -0.1019  0.3674
  753MOL0     C 3798   6.659  10.639   5.828  0.0432  1.0732  0.9654
  753MOL0     C 3799   6.548  10.724   5.883 -0.7521 -0.0868 -0.1447
  753MOL0     O 3800   6.440  10.729   5.791  0.1090 -0.2495  0.1569
  753MOL0     C 3801   6.333  10.783   5.860 -0.0388  0.3943  0.3750
  753MOL0     C 3802   6.333  10.907   5.918 -0.0217 -0.4025 -0.3855
  753MOL0     C 3803   6.222  10.963   5.972  0.0810 -1.9272  0.7990
  753MOL0     C 3804   6.239  11.105   6.031 -0.4116 -0.1622  0.1642
  753MOL0     C 3805   6.099  10.886   5.978  0.6061 -0.6846  0.7128
  753MOL0     C 3806   5.967  10.941   6.029 -0.3771 -0.7606 -0.5548
  753MOL0     O 3807   5.867  10.846   6.032 -0.2744  0.1024 -0.0257
  753MOL0     C 3808   5.746  10.862   6.098 -0.5620  0.2595  0.4174
  753MOL0     C 3809   5.737  10.922   6.231 -0.7096 -0.5640 -0.1690
  753MOL0     C 3810   5.626  10.920   6.310 -0.2935  0.4284 -0.5071
  753MOL0     C 3811   5.507  10.870   6.260  0.3544  0.1978  0.7015
  753MOL0     O 3812   5.398  10.885   6.344  0.6240  0.7659 -0.3168
  753MOL0     C 3813   5.280  10.798   6.346 -0.5977  0.7789  1.9656
  753MOL0     C 3814   5.303  10.696   6.458  0.0045  0.3771 -0.3243
  753MOL0     C 3815   5.424  10.601   6.445  0.1704 -0.7309 -0.2538
  753MOL0     C 3816   5.416  10.504   6.328  0.6085  0.9220  0.0447
  753MOL0     C 3817   5.506  10.378   6.354  0.3843  0.1925  0.7816
  753MOL0     C 3818   5.521  10.293   6.227  0.3808  1.1006 -0.3781
  753MOL0     C 3819   5.620  10.178   6.248  0.0637  0.4374 -0.5828
  753MOL0     C 3820   5.646  10.106   6.118 -0.1336 -0.7402  0.3597
  753MOL0    Cl 3821   5.740  10.227   6.033 -0.3318  0.5224 -0.1191
  753MOL0     C 3822   5.505  10.836   6.121 -0.1392 -0.0155 -0.1794
  753MOL0     C 3823   5.619  10.827   6.043  0.5323 -0.8125 -0.1744
  753MOL0     O 3824   5.953  11.050   6.059 -0.3400  0.3757  0.1376
  753MOL0     C 3825   6.101  10.760   5.927 -0.6740  0.6970 -0.4118
  753MOL0     C 3826   6.215  10.709   5.870 -0.4927  0.4218  0.9763
  753MOL0     N 3827   6.521  10.189   6.002  0.7341 -0.9312 -0.2398
  753MOL0     N 3828   6.554  10.068   5.993  0.6430  0.2749 -0.2699
  753MOL0     C 3829   6.262   9.371   6.684  0.5292 -0.2969 -0.1368
  753MOL0     C 3830   6.148   9.309   6.740  0.3587  0.7368 -0.2254
  753MOL0     C 3831   5.750   9.277   6.989  0.0286 -0.4663  0.4162
  753MOL0     C 3832   5.775   9.142   7.017 -0.6239 -0.3192 -1.3992
  753MOL0     C 3833   5.690   9.066   7.094 -0.1152 -0.5254  0.1033
  753MOL0     C 3834   5.569   9.119   7.138  1.3282  0.3949 -0.2571
  753MOL0     O 3835   5.476   9.036   7.206 -0.2125  0.1587  0.0860
  753MOL0     C 3836   5.360   9.089   7.281  0.1737  0.4266  0.5542
  753MOL0     C 3837   5.397   9.182   7.391 -0.0852  0.8335 -0.0672
  753MOL0     C 3838   5.288   9.250   7.464  0.5233  0.0332  0.1405
  753MOL0     C 3839   5.233   9.358   7.374  0.1822 -0.0912 -0.0719
  753MOL0     C 3840   5.316   9.479   7.354  0.2172  0.3923 -0.3732
  753MOL0     C 3841   5.378   9.578   7.334 -0.3254  0.6211 -0.6172
  753MOL0     C 3842   5.538   9.254   7.097  0.4173  0.3483 -0.1232
  753MOL0     C 3843   5.630   9.331   7.028 -0.3703 -0.3060  0.1682
  753MOL0     C 3844   5.586   9.470   7.010 -0.4858  0.7841 -0.2601
  753MOL0     H 3845   6.067   9.532   6.980  1.2471  0.5801  0.6631
  753MOL0     H 3846   6.258   9.638   6.895  0.0026  0.2031  0.2804
  753MOL0     H 3847   6.380   9.593   6.522  0.7279  2.8541  1.2204
  753MOL0     H 3848   6.487   9.452   6.549  1.6963  0.9184 -2.1584
  753MOL0     H 3849   6.589   9.735   6.563  1.8743 -0.4381  1.6745
  753MOL0     H 3850   6.682   9.585   6.581 -0.7286 -2.9105 -1.2604
  753MOL0     H 3851   6.624   9.520   6.358  1.8703  0.6797  1.5404
  753MOL0     H 3852   6.508   9.633   6.330  0.8495 -2.9349 -0.0787
  753MOL0     H 3853   6.701   9.819   6.377 -1.0186  0.0329  1.2711
  753MOL0     H 3854   6.804   9.686   6.357 -0.9198 -0.4445  0.5069
  753MOL0     H 3855   6.607   9.763   6.140 -0.8518 -1.1834  0.5982
  753MOL0     H 3856   6.726   9.636   6.133  0.9856  1.7458 -3.2374
  753MOL0     H 3857   6.776   9.932   6.175  1.8247  1.4289 -1.1174
  753MOL0     H 3858   6.903   9.809   6.159 -0.6192 -3.1324 -0.1597
  753MOL0     H 3859   6.836   9.735   5.935  4.4586  1.4324 -3.1250
  753MOL0     H 3860   6.911   9.884   5.935  0.9952 -1.7320  0.7138
  753MOL0     H 3861   6.733   9.887   5.784  1.0058 -1.1715  0.6764
  753MOL0     H 3862   6.622   9.827   5.902  1.5052 -2.1477 -0.8091
  753MOL0     H 3863   6.807  10.170   5.831  0.2908  1.3766  0.3290
  753MOL0     H 3864   6.765  10.408   5.946  1.1861 -3.6721  1.8072
  753MOL0     H 3865   6.615  10.433   6.036 -0.6811 -0.6351 -0.1102
  753MOL0     H 3866   6.648  10.434   5.738  1.9578 -2.6787  2.2679
  753MOL0     H 3867   6.506  10.477   5.823 -0.3556 -0.9579 -0.4252
  753MOL0     H 3868   6.751  10.658   5.884  1.8954  3.6430 -2.5542
  753MOL0     H 3869   6.672  10.662   5.722 -3.6857 -1.1410 -0.1737
  753MOL0     H 3870   6.514  10.674   5.974 -1.5482 -0.7795 -0.8088
  753MOL0     H 3871   6.588  10.826   5.889  3.3580 -1.4213 -1.1895
  753MOL0     H 3872   6.423  10.968   5.929 -0.8195  0.6313  0.6304
  753MOL0     H 3873   6.247  11.108   6.140 -2.0983 -0.4422  0.3341
  753MOL0     H 3874   6.158  11.166   5.990  1.2015 -0.3714 -3.7843
  753MOL0     H 3875   6.323  11.150   5.978 -1.6777  0.4588 -1.4198
  753MOL0     H 3876   5.828  10.965   6.271 -0.8780 -1.4075  1.1627
  753MOL0     H 3877   5.635  10.954   6.412 -0.2773 -2.4083  0.5235
  753MOL0     H 3878   5.187  10.841   6.386 -1.8223 -2.1061  2.4381
  753MOL0     H 3879   5.272  10.764   6.243  3.0866  0.2106  1.7347
  753MOL0     H 3880   5.310  10.753   6.551 -1.9484  0.5344 -0.2285
  753MOL0     H 3881   5.220  10.626   6.472  1.6854 -1.9493 -1.3005
  753MOL0     H 3882   5.428  10.547   6.540  2.0338  0.8045  0.5948
  753MOL0     H 3883   5.519  10.655   6.440 -0.8551  1.0719 -1.1629
  753MOL0     H 3884   5.464  10.543   6.238 -2.0795  2.1705 -0.9340
  753MOL0     H 3885   5.316  10.462   6.312  1.1086 -2.0447  3.3106
  753MOL0     H 3886   5.603  10.407   6.395  1.1964  0.7691 -1.3790
  753MOL0     H 3887   5.454  10.322   6.432  2.1122  0.6574  2.3474
  753MOL0     H 3888   5.543  10.351   6.137 -0.5858 -0.6643 -1.8145
  753MOL0     H 3889   5.430  10.236   6.207  3.5616 -4.0013 -2.2195
  753MOL0     H 3890   5.582  10.100   6.315  0.7643 -1.8582 -2.6935
  753MOL0     H 3891   5.716  10.209   6.289 -0.0861  1.0384 -0.6745
  753MOL0     H 3892   5.555  10.076   6.065  0.6569  0.8584 -2.0857
  753MOL0     H 3893   5.703  10.017   6.146 -0.6754 -0.6930  1.7121
  753MOL0     H 3894   5.418  10.798   6.069  0.6338 -0.5297 -1.1274
  753MOL0     H 3895   5.608  10.781   5.945 -3.9147 -0.0183 -0.2911
  753MOL0     H 3896   6.013  10.697   5.934 -3.1799  3.5900 -3.0971
  753MOL0     H 3897   6.211  10.616   5.814  0.5199  1.7826 -1.4567
  753MOL0     H 3898   6.318   9.319   6.607  0.4098 -0.1788 -0.3049
  753MOL0     H 3899   6.106   9.220   6.693  1.2747  0.3566 -0.3533
  753MOL0     H 3900   5.867   9.100   6.977 -1.6041 -1.4680 -2.5848
  753MOL0     H 3901   5.707   8.959   7.109 -1.5423 -0.7847 -0.0411
  753MOL0     H 3902   5.287   9.131   7.211  0.1027 -1.2343 -0.4327
  753MOL0     H 3903   5.304   9.009   7.330 -2.6989  2.5230  0.9340
  753MOL0     H 3904   5.464   9.253   7.342  0.6566 -0.4799 -1.0231
  753MOL0     H 3905   5.450   9.132   7.473  0.3919 -0.7421 -1.3015
  753MOL0     H 3906   5.209   9.179   7.490  1.6923 -2.1721 -1.9625
  753MOL0     H 3907   5.334   9.291   7.554  1.7137 -2.2671  0.6527
  753MOL0     H 3908   5.134   9.385   7.411  0.4339  1.0316 -0.1835
  753MOL0     H 3909   5.209   9.320   7.274  1.6324 -1.4910  0.0573
  753MOL0     H 3910   5.421   9.677   7.329  0.4648  0.2765 -0.9886
  753MOL0     H 3911   5.450   9.302   7.138  0.4316  0.5209 -0.2959
  753MOL0     H 3912   5.480   9.483   7.036 -0.7907 -0.0150 -1.0627
  753MOL0     H 3913   5.640   9.544   7.069 -0.3490 -1.3141  2.4857
  753MOL0     H 3914   5.589   9.489   6.903  1.5995 -1.4589 -0.6924
  754MOL0     O 3915   6.703   5.911   7.891 -0.1593  0.3705 -0.2691
  754MOL0     C 3916   6.728   5.837   7.795 -1.0547  0.7472  0.5066
  754MOL0     O 3917   6.662   5.719   7.774  0.2870 -0.3900  1.2436
  754MOL0     C 3918   6.554   5.691   7.854  0.4230 -0.0897 -0.4231
  754MOL0     C 3919   6.546   5.712   7.995 -0.3814  0.2558  0.3068
  754MOL0     C 3920   6.416   5.713   8.060  0.3356  0.3647  0.7373
  754MOL0     C 3921   6.306   5.666   7.985  0.4477  0.6143 -0.5590
  754MOL0     O 3922   6.194   5.637   8.056 -0.0617 -0.2892  0.7679
  754MOL0     C 3923   6.066   5.612   7.982 -0.1128 -0.2257 -0.5350
  754MOL0     C 3924   5.965   5.559   8.085 -0.6345 -0.6117  0.0963
  754MOL0     C 3925   5.833   5.526   8.008 -0.3169  0.4593 -1.3360
  754MOL0     C 3926   5.719   5.494   8.108 -0.2614 -0.7204  0.0807
  754MOL0     C 3927   5.744   5.357   8.176  0.0569  0.0595 -0.1823
  754MOL0     C 3928   5.641   5.255   8.142  0.5249  0.4053  0.1466
  754MOL0     C 3929   5.671   5.119   8.222 -0.2606 -0.3227  0.6540
  754MOL0     C 3930   5.791   5.047   8.163 -0.1297  0.1487  0.4737
  754MOL0     N 3931   5.820   4.932   8.248  0.1847  0.2602 -0.4220
  754MOL0     C 3932   5.941   4.874   8.253  0.0674 -0.4621 -0.1640
  754MOL0     C 3933   5.922   4.755   8.312 -0.6958  0.0027 -0.6359
  754MOL0     C 3934   6.025   4.666   8.377 -0.0142 -0.5942  0.0062
  754MOL0     C 3935   5.989   4.616   8.518  0.4952  0.1133  0.0247
  754MOL0     C 3936   5.934   4.476   8.532 -0.0449  1.2670  0.2827
  754MOL0     C 3937   5.808   4.442   8.446  0.2945 -0.4146 -1.1261
  754MOL0     O 3938   5.768   4.322   8.512  0.7913 -0.2564 -0.1920
  754MOL0     C 3939   5.633   4.290   8.499 -1.1225  0.7749  0.0657
  754MOL0     C 3940   5.557   4.288   8.388  0.7414 -0.2581  0.0427
  754MOL0     C 3941   5.425   4.237   8.390 -0.9922 -0.8868 -0.2693
  754MOL0     C 3942   5.340   4.247   8.265 -0.6124 -0.9800 -0.2049
  754MOL0     C 3943   5.376   4.174   8.507  0.0887  0.5631  1.1968
  754MOL0     C 3944   5.247   4.113   8.508  0.2953  0.2794  0.1234
  754MOL0     O 3945   5.133   4.185   8.542  0.4191  0.5916  0.3628
  754MOL0     C 3946   5.019   4.110   8.546  0.1230 -0.5295 -0.0858
  754MOL0     C 3947   4.970   4.048   8.430  0.1439  0.0200 -0.8348
  754MOL0     C 3948   4.855   3.968   8.444 -0.6106 -0.5159 -0.2081
  754MOL0     C 3949   4.796   3.934   8.564 -0.7774  0.1074 -0.0219
  754MOL0     O 3950   4.701   3.834   8.569 -0.5320  0.1765 -0.8790
  754MOL0     C 3951   4.628   3.821   8.700 -0.2816 -0.4305 -0.7928
  754MOL0     C 3952   4.517   3.717   8.706  0.1763 -0.8180 -0.4504
  754MOL0     C 3953   4.395   3.758   8.625  0.9798  0.2777 -0.3271
  754MOL0     C 3954   4.286   3.649   8.623  0.0866 -1.0965 -0.3776
  754MOL0     C 3955   4.179   3.690   8.527  1.2091 -0.4369  0.3376
  754MOL0     C 3956   4.078   3.568   8.518  0.0615  0.6782  0.0726
  754MOL0     C 3957   3.956   3.594   8.427 -0.8737 -0.0852  1.1570
  754MOL0     C 3958   3.984   3.600   8.278 -1.4185 -0.2347 -0.0043
  754MOL0    Cl 3959   4.040   3.445   8.220 -0.2655 -0.0698 -0.1353
  754MOL0     C 3960   4.844   4.004   8.671  0.4736 -0.0139  0.6866
  754MOL0     C 3961   4.949   4.096   8.668 -0.1833 -0.1485  0.9714
  754MOL0     O 3962   5.250   3.985   8.490  0.3738 -0.0744  0.9209
  754MOL0     C 3963   5.463   4.156   8.614 -0.0525  0.0138  0.3407
  754MOL0     C 3964   5.588   4.219   8.614  0.1409  0.3951 -0.1989
  754MOL0     N 3965   5.789   4.746   8.342 -0.2660  1.1451  0.1639
  754MOL0     N 3966   5.731   4.850   8.310  1.0235 -0.3135 -0.0278
  754MOL0     C 3967   6.319   5.631   7.847 -0.0385 -0.6806  0.5749
  754MOL0     C 3968   6.446   5.638   7.785  0.3023 -0.1141 -0.2812
  754MOL0     C 3969   6.824   5.874   7.690 -0.4701  0.9100  0.1223
  754MOL0     C 3970   6.795   5.814   7.571  0.7737 -0.2883  1.4059
  754MOL0     C 3971   6.881   5.838   7.458  0.4798  0.1527 -0.6106
  754MOL0     C 3972   6.996   5.906   7.464 -0.9933 -0.0931  0.5430
  754MOL0     O 3973   7.079   5.933   7.349  0.7748 -0.8680  0.3325
  754MOL0     C 3974   7.192   6.026   7.365 -0.5887  0.2709 -0.6560
  754MOL0     C 3975   7.236   6.062   7.221 -0.1367  0.7692 -0.2004
  754MOL0     C 3976   7.124   6.145   7.167 -0.5435  0.4120  0.4360
  754MOL0     C 3977   7.167   6.223   7.029  0.0318 -1.0236  0.2372
  754MOL0     C 3978   7.290   6.311   7.048  0.1849  0.6316  0.2904
  754MOL0     C 3979   7.374   6.391   7.076 -0.6637  0.1609 -0.5109
  754MOL0     C 3980   7.018   5.972   7.589 -0.2880 -0.3033  0.5059
  754MOL0     C 3981   6.939   5.955   7.698  0.0125 -0.4374  0.2150
  754MOL0     C 3982   6.972   6.034   7.827 -0.0597  0.6714 -0.2537
  754MOL0     H 3983   6.640   5.734   8.045  1.2974  0.0276 -2.5408
  754MOL0     H 3984   6.403   5.717   8.168  3.6044 -1.2254  1.3294
  754MOL0     H 3985   6.070   5.543   7.897  1.2338 -1.7739  0.7260
  754MOL0     H 3986   6.035   5.706   7.935 -0.1495 -0.1399 -0.3403
  754MOL0     H 3987   6.002   5.475   8.144 -2.0117 -1.6741 -0.4908
  754MOL0     H 3988   5.948   5.634   8.163  1.1973  1.0487 -1.0164
  754MOL0     H 3989   5.814   5.616   7.950  2.3646  0.5774 -2.1850
  754MOL0     H 3990   5.845   5.452   7.928  1.1501 -2.0893  1.0481
  754MOL0     H 3991   5.706   5.570   8.185 -1.8159 -0.0893 -0.7708
  754MOL0     H 3992   5.631   5.490   8.043  1.1497  3.0148 -2.4346
  754MOL0     H 3993   5.746   5.376   8.284  0.3332  4.9549 -0.8171
  754MOL0     H 3994   5.844   5.321   8.152  0.1890 -0.2118  0.7402
  754MOL0     H 3995   5.536   5.277   8.164  0.0972 -1.4892  0.1354
  754MOL0     H 3996   5.660   5.235   8.036 -0.7505  0.3507 -0.0812
  754MOL0     H 3997   5.585   5.052   8.230  0.8085 -1.6047  1.8586
  754MOL0     H 3998   5.689   5.143   8.327  1.6805 -1.4805  0.6320
  754MOL0     H 3999   5.765   5.006   8.065  1.9488 -0.8394  0.2948
  754MOL0     H 4000   5.882   5.108   8.155  1.1354 -1.5142  1.5958
  754MOL0     H 4001   6.029   4.933   8.228 -2.7216  3.3698 -2.0830
  754MOL0     H 4002   6.118   4.724   8.380 -0.3720 -0.0058  0.0494
  754MOL0     H 4003   6.046   4.585   8.308  0.4777  0.5140 -1.1826
  754MOL0     H 4004   6.087   4.620   8.567  1.1785  1.6503 -1.3671
  754MOL0     H 4005   5.931   4.693   8.570 -0.6884 -0.5630 -0.2650
  754MOL0     H 4006   6.022   4.414   8.508  0.2386  1.7507  0.0585
  754MOL0     H 4007   5.911   4.456   8.637 -0.9642 -1.0956 -0.2890
  754MOL0     H 4008   5.733   4.520   8.458  1.4411  0.4388  0.9025
  754MOL0     H 4009   5.826   4.438   8.338  1.3226  1.2850 -1.0501
  754MOL0     H 4010   5.571   4.340   8.295 -1.8940 -1.4395 -1.1204
  754MOL0     H 4011   5.331   4.145   8.226  3.2682 -2.1974  1.6019
  754MOL0     H 4012   5.380   4.308   8.184 -0.6769 -2.7387 -1.6572
  754MOL0     H 4013   5.244   4.293   8.291  0.7480  1.0788  1.4098
  754MOL0     H 4014   5.023   4.054   8.336  1.0183  2.5425 -0.2460
  754MOL0     H 4015   4.834   3.925   8.346 -1.0349  0.2520 -0.4695
  754MOL0     H 4016   4.695   3.795   8.782  0.7282 -0.3365 -1.5716
  754MOL0     H 4017   4.575   3.916   8.717 -0.6938 -0.6104 -1.0758
  754MOL0     H 4018   4.565   3.621   8.683 -1.2126 -2.2884  2.3628
  754MOL0     H 4019   4.483   3.718   8.810  1.0942  1.6870 -0.1067
  754MOL0     H 4020   4.437   3.769   8.525  0.8426 -1.8398 -0.6660
  754MOL0     H 4021   4.363   3.857   8.658 -1.6091 -0.2510 -1.0165
  754MOL0     H 4022   4.257   3.647   8.729 -1.3665  2.2784 -0.5974
  754MOL0     H 4023   4.329   3.551   8.600  4.2477  0.6143 -0.7986
  754MOL0     H 4024   4.133   3.783   8.562  2.6047  0.3898  0.0745
  754MOL0     H 4025   4.228   3.709   8.431  2.1433  0.0351  0.8859
  754MOL0     H 4026   4.039   3.538   8.616 -1.5219 -0.1307 -0.7598
  754MOL0     H 4027   4.131   3.484   8.473  0.5046  0.9097  0.1588
  754MOL0     H 4028   3.901   3.682   8.460 -1.9979 -0.5743  0.6227
  754MOL0     H 4029   3.895   3.505   8.444 -0.2035 -1.0756 -1.1883
  754MOL0     H 4030   4.060   3.673   8.250  0.0812 -0.7879  2.3628
  754MOL0     H 4031   3.894   3.637   8.228  0.5928  1.9825 -2.2952
  754MOL0     H 4032   4.814   3.999   8.775  1.1221  0.2070  0.8886
  754MOL0     H 4033   4.965   4.147   8.762 -1.3262  2.6865 -0.2697
  754MOL0     H 4034   5.438   4.090   8.696  1.6080 -0.4708  0.4816
  754MOL0     H 4035   5.653   4.215   8.701 -1.1158 -1.2460  0.7277
  754MOL0     H 4036   6.238   5.598   7.783 -0.7507 -0.8226  1.5268
  754MOL0     H 4037   6.472   5.615   7.682  1.7247  2.8531 -0.6980
  754MOL0     H 4038   6.711   5.751   7.547 -0.8980  2.3465 -0.1951
  754MOL0     H 4039   6.880   5.771   7.373 -2.6155 -0.6572 -0.0451
  754MOL0     H 4040   7.160   6.119   7.412  3.9011  1.9271 -0.3594
  754MOL0     H 4041   7.275   5.991   7.428  1.9924  3.5308 -1.9158
  754MOL0     H 4042   7.260   5.979   7.154  1.8131  1.6877 -0.6878
  754MOL0     H 4043   7.333   6.111   7.219  0.1896  0.1891 -3.4651
  754MOL0     H 4044   7.041   6.076   7.148 -1.0115  0.6208  1.6346
  754MOL0     H 4045   7.092   6.222   7.238  2.9855  0.8467  1.7602
  754MOL0     H 4046   7.083   6.281   6.991 -0.7452 -2.8300 -0.9365
  754MOL0     H 4047   7.187   6.144   6.956  0.1402  1.0766 -2.1492
  754MOL0     H 4048   7.458   6.450   7.104  1.4770 -3.5228  1.5285
  754MOL0     H 4049   7.112   6.027   7.596  0.3734 -0.7710 -2.9485
  754MOL0     H 4050   7.047   6.109   7.799  0.2366 -0.2754 -2.1012
  754MOL0     H 4051   6.885   6.085   7.869  1.5902  3.1292  0.4137
  754MOL0     H 4052   7.019   5.966   7.899  0.2439  1.4041  0.2652
  755MOL0     O 4053   7.635   9.495   8.404  0.8562  0.6097 -0.3316
  755MOL0     C 4054   7.611   9.428   8.300 -1.1229 -0.4980 -0.2681
  755MOL0     O 4055   7.574   9.483   8.180  0.2703  0.1755 -0.2633
  755MOL0     C 4056   7.511   9.606   8.188  0.1723 -0.1963 -0.5544
  755MOL0     C 4057   7.370   9.619   8.169  0.1015  0.8296 -0.1730
  755MOL0     C 4058   7.315   9.740   8.175  0.0244 -0.8143  0.7377
  755MOL0     C 4059   7.385   9.859   8.191  0.0093  0.1228 -0.2920
  755MOL0     O 4060   7.316   9.974   8.185  0.5766  0.0311 -0.1567
  755MOL0     C 4061   7.380  10.099   8.228  0.0330 -0.2494 -0.1611
  755MOL0     C 4062   7.281  10.225   8.223 -0.8090  0.7561  1.4066
  755MOL0     C 4063   7.252  10.277   8.089 -0.0862  0.7402 -0.2386
  755MOL0     C 4064   7.377  10.342   8.024 -0.3912 -0.2273 -0.5184
  755MOL0     C 4065   7.350  10.367   7.870  0.6501 -0.3500 -0.5117
  755MOL0     C 4066   7.230  10.467   7.850 -0.1532 -0.7211 -0.6595
  755MOL0     C 4067   7.254  10.558   7.723 -0.2982  0.0317 -0.6688
  755MOL0     C 4068   7.300  10.486   7.598  0.2843 -0.1608  0.2171
  755MOL0     N 4069   7.374  10.569   7.496  0.0181 -0.3280  0.0699
  755MOL0     C 4070   7.336  10.693   7.446  0.0554 -0.2120  0.2094
  755MOL0     C 4071   7.416  10.714   7.332  0.1794 -0.5212  0.3366
  755MOL0     C 4072   7.406  10.825   7.226  1.0254 -0.0546 -0.9899
  755MOL0     C 4073   7.380  10.769   7.087  0.3602  0.1611 -0.1991
  755MOL0     C 4074   7.380  10.867   6.966  0.6056 -0.0405  0.0089
  755MOL0     C 4075   7.519  10.916   6.942 -0.4762  0.5704 -0.3441
  755MOL0     O 4076   7.544  10.928   6.800 -0.2578 -0.0980 -0.2461
  755MOL0     C 4077   7.461  11.012   6.727  0.5817 -0.2681  0.0234
  755MOL0     C 4078   7.457  10.985   6.595 -0.1280 -0.0467  0.3470
  755MOL0     C 4079   7.383  11.064   6.502 -0.4437 -0.4862 -0.1603
  755MOL0     C 4080   7.390  11.022   6.353  0.5175 -0.4310 -0.0770
  755MOL0     C 4081   7.317  11.183   6.541  0.0664 -0.3679 -0.1317
  755MOL0     C 4082   7.227  11.281   6.460 -0.2440  0.8139 -0.5560
  755MOL0     O 4083   7.200  11.241   6.329 -0.4329  0.3509 -0.6354
  755MOL0     C 4084   7.108  11.327   6.267 -0.3918  0.5425 -0.7975
  755MOL0     C 4085   7.149  11.452   6.234  0.0738  0.7010  0.2594
  755MOL0     C 4086   7.070  11.546   6.176 -0.1048 -0.2866 -0.6375
  755MOL0     C 4087   6.936  11.518   6.146 -0.4513  0.7716 -0.8188
  755MOL0     O 4088   6.841  11.610   6.110 -0.6443 -0.8713 -0.0033
  755MOL0     C 4089   6.743  11.657   6.206 -0.1398 -0.7354 -0.5154
  755MOL0     C 4090   6.627  11.749   6.143 -0.6415  0.3011 -0.5935
  755MOL0     C 4091   6.639  11.891   6.173  1.1290 -1.1200  0.5488
  755MOL0     C 4092   6.538  11.973   6.092  0.8397 -0.2582  0.4722
  755MOL0     C 4093   6.428  12.020   6.173  1.2372 -0.5670  0.1800
  755MOL0     C 4094   6.327  12.120   6.097 -0.2054 -0.4430 -0.4277
  755MOL0     C 4095   6.240  12.204   6.196 -0.1347 -0.6016  0.3433
  755MOL0     C 4096   6.203  12.341   6.149  0.4731 -0.3926  1.8299
  755MOL0    Cl 4097   6.158  12.349   5.972 -0.3798 -0.1569  0.0186
  755MOL0     C 4098   6.888  11.388   6.178 -0.9599 -0.0843 -0.8226
  755MOL0     C 4099   6.976  11.294   6.234  0.5954  0.1773  0.4513
  755MOL0     O 4100   7.179  11.382   6.520  0.1727  0.1819 -0.0694
  755MOL0     C 4101   7.317  11.206   6.682  0.4616  1.1507  0.5668
  755MOL0     C 4102   7.392  11.126   6.768  0.7757  0.0747 -0.4326
  755MOL0     N 4103   7.498  10.604   7.324 -0.0388  0.3618 -0.8598
  755MOL0     N 4104   7.478  10.526   7.421  0.2563  0.2173  0.0756
  755MOL0     C 4105   7.524   9.852   8.189  0.2980  0.8907 -0.1866
  755MOL0     C 4106   7.579   9.724   8.196 -0.4919 -0.2556  0.6783
  755MOL0     C 4107   7.644   9.282   8.294 -0.1522 -0.5095 -0.0296
  755MOL0     C 4108   7.634   9.227   8.167  0.1183  0.1224 -0.4295
  755MOL0     C 4109   7.678   9.088   8.145 -0.2728  0.3988  0.7993
  755MOL0     C 4110   7.703   9.004   8.258  0.0526  0.4578 -0.2773
  755MOL0     O 4111   7.732   8.872   8.243  0.4019 -0.1116  0.4377
  755MOL0     C 4112   7.645   8.777   8.177 -0.2297  0.0832 -0.2025
  755MOL0     C 4113   7.514   8.782   8.258  0.8830 -0.4941 -0.5808
  755MOL0     C 4114   7.520   8.747   8.402  0.7840 -0.0183  0.0517
  755MOL0     C 4115   7.412   8.649   8.449  0.7592  0.7611  0.0139
  755MOL0     C 4116   7.399   8.607   8.587 -0.5113 -0.6617 -0.2188
  755MOL0     C 4117   7.407   8.566   8.705 -0.7682  0.5344  0.7514
  755MOL0     C 4118   7.698   9.056   8.385  0.1450 -0.7535 -0.3073
  755MOL0     C 4119   7.671   9.198   8.402 -0.9715  0.4045  0.3052
  755MOL0     C 4120   7.676   9.247   8.542  0.3987 -0.1485 -0.2913
  755MOL0     H 4121   7.314   9.526   8.155  0.4897  0.1964  2.0481
  755MOL0     H 4122   7.208   9.743   8.161 -0.0530  0.4416  1.4651
  755MOL0     H 4123   7.467  10.119   8.165 -2.1449  1.1950 -2.9733
  755MOL0     H 4124   7.415  10.099   8.332  1.8330 -0.2664 -0.7268
  755MOL0     H 4125   7.185  10.198   8.266  0.0282 -0.0147  2.8925
  755MOL0     H 4126   7.327  10.302   8.285  0.0287 -0.1491  1.9581
  755MOL0     H 4127   7.215  10.197   8.025  1.1513  1.1608 -1.5378
  755MOL0     H 4128   7.174  10.353   8.103  0.7887  1.9405 -1.6664
  755MOL0     H 4129   7.425  10.427   8.073  2.8887 -0.8549 -2.3084
  755MOL0     H 4130   7.463  10.274   8.025 -0.4451 -0.3581  2.3697
  755MOL0     H 4131   7.311  10.282   7.814  2.5535 -1.2383 -0.5672
  755MOL0     H 4132   7.439  10.420   7.834 -0.9798  2.1796 -1.0424
  755MOL0     H 4133   7.148  10.398   7.828  0.2209 -0.0771 -4.7994
  755MOL0     H 4134   7.210  10.524   7.942  1.0355 -1.0259 -0.1938
  755MOL0     H 4135   7.332  10.633   7.742 -0.0732 -0.2057 -0.6523
  755MOL0     H 4136   7.161  10.615   7.713 -0.4308 -0.4186 -2.1278
  755MOL0     H 4137   7.368  10.406   7.631  0.7691  0.4552  0.7435
  755MOL0     H 4138   7.212  10.436   7.556 -0.1952  0.0931  0.9098
  755MOL0     H 4139   7.256  10.757   7.480 -0.2022  1.8042 -3.7033
  755MOL0     H 4140   7.505  10.870   7.229  0.3540  1.4883  1.7933
  755MOL0     H 4141   7.326  10.896   7.246  2.1225  0.7767  0.5733
  755MOL0     H 4142   7.437  10.682   7.055 -1.6488 -0.6079 -1.9355
  755MOL0     H 4143   7.276  10.738   7.106  0.6273 -0.9237 -0.4314
  755MOL0     H 4144   7.328  10.818   6.882  0.4528  3.2185 -1.9791
  755MOL0     H 4145   7.327  10.961   6.985  1.5261  0.0184  2.5360
  755MOL0     H 4146   7.537  11.012   6.991  0.8632  0.4553 -0.5816
  755MOL0     H 4147   7.594  10.855   6.993  0.3938  1.6097 -0.3560
  755MOL0     H 4148   7.520  10.906   6.557  0.6491  0.7082  0.0413
  755MOL0     H 4149   7.306  10.962   6.317  1.1748 -0.2293 -2.1220
  755MOL0     H 4150   7.473  10.958   6.324 -0.7460 -0.9847 -2.8038
  755MOL0     H 4151   7.401  11.114   6.295 -1.4555  2.2601  3.4362
  755MOL0     H 4152   7.247  11.485   6.267  0.8675 -2.6473  1.6095
  755MOL0     H 4153   7.102  11.649   6.165  2.4920 -0.0507  5.2214
  755MOL0     H 4154   6.693  11.566   6.239 -3.0060 -0.2243 -2.9464
  755MOL0     H 4155   6.792  11.725   6.277 -0.4180  2.1151 -2.8345
  755MOL0     H 4156   6.609  11.729   6.037 -1.2373 -0.0811 -0.4263
  755MOL0     H 4157   6.539  11.710   6.195 -0.4627 -0.7772 -1.0697
  755MOL0     H 4158   6.743  11.925   6.168  0.6490  0.5164  1.1172
  755MOL0     H 4159   6.629  11.896   6.282  0.2285  0.8197  0.4075
  755MOL0     H 4160   6.505  11.920   6.002  2.8726  2.1898 -1.9009
  755MOL0     H 4161   6.579  12.064   6.048 -0.7388 -0.1271 -0.8404
  755MOL0     H 4162   6.362  11.944   6.215  0.6483  1.0542  2.3512
  755MOL0     H 4163   6.465  12.078   6.258 -3.6496 -2.1674  3.8814
  755MOL0     H 4164   6.267  12.063   6.025 -1.1128 -1.4174  1.0526
  755MOL0     H 4165   6.395  12.183   6.038  1.4905  0.0729  1.9503
  755MOL0     H 4166   6.274  12.208   6.299 -2.3173 -3.4498  1.3312
  755MOL0     H 4167   6.143  12.158   6.217 -0.5598  0.1100 -0.0043
  755MOL0     H 4168   6.288  12.407   6.170  2.2223 -1.6040 -0.9610
  755MOL0     H 4169   6.118  12.376   6.208 -1.7511  1.0211 -1.9065
  755MOL0     H 4170   6.789  11.345   6.165 -0.9238 -0.2026 -0.7113
  755MOL0     H 4171   6.951  11.193   6.265  0.4159  0.1156  0.1086
  755MOL0     H 4172   7.261  11.292   6.717 -3.6050 -0.5256 -1.1870
  755MOL0     H 4173   7.379  11.142   6.874  2.4670 -3.0540  0.3678
  755MOL0     H 4174   7.590   9.938   8.189  0.0846  1.0638  0.7085
  755MOL0     H 4175   7.685   9.728   8.219 -0.4080  0.6283  0.1778
  755MOL0     H 4176   7.581   9.261   8.079 -2.1028 -3.3705 -0.6488
  755MOL0     H 4177   7.675   9.050   8.043 -1.4385  0.4024  0.8224
  755MOL0     H 4178   7.646   8.813   8.074  2.1113  3.1180  0.7225
  755MOL0     H 4179   7.699   8.682   8.185  0.6230  0.6342  0.8494
  755MOL0     H 4180   7.444   8.715   8.207 -1.7830  1.4731  0.3252
  755MOL0     H 4181   7.467   8.879   8.245  0.2910 -0.4949  1.3529
  755MOL0     H 4182   7.614   8.695   8.421  1.7654  2.2743  1.9024
  755MOL0     H 4183   7.523   8.831   8.472  2.0574 -0.4937  0.5968
  755MOL0     H 4184   7.412   8.556   8.392 -2.6058 -0.8942  2.3593
  755MOL0     H 4185   7.315   8.692   8.422 -0.1838 -2.2398 -1.8553
  755MOL0     H 4186   7.422   8.544   8.809 -0.5602 -2.2483  0.2090
  755MOL0     H 4187   7.718   8.996   8.473  1.6395  2.3736  1.6625
  755MOL0     H 4188   7.680   9.165   8.614 -1.6120 -0.7066 -0.7254
  755MOL0     H 4189   7.775   9.291   8.558  0.0769  0.1558  0.9831
  755MOL0     H 4190   7.595   9.320   8.554  1.4899  1.3164 -1.3946
  756MOL0     O 4191   7.233   6.719   4.898  0.6017  0.1072 -1.1687
  756MOL0     C 4192   7.299   6.759   4.805 -0.7043 -0.8659 -1.0516
  756MOL0     O 4193   7.266   6.747   4.673  0.3059  0.2173  0.3764
  756MOL0     C 4194   7.202   6.635   4.629 -0.3468 -0.3649  0.0673
  756MOL0     C 4195   7.268   6.514   4.588 -0.9527 -0.2217  0.0837
  756MOL0     C 4196   7.188   6.414   4.524 -0.1713 -0.4625  0.2017
  756MOL0     C 4197   7.049   6.426   4.503  0.4354  0.2809  0.2881
  756MOL0     O 4198   6.971   6.321   4.452  0.4562 -0.2726 -0.7397
  756MOL0     C 4199   7.012   6.189   4.466 -0.7186  0.2618  0.7801
  756MOL0     C 4200   6.893   6.092   4.441 -0.0699 -0.4946 -0.0240
  756MOL0     C 4201   6.924   5.956   4.481  0.1627 -0.6329  0.1615
  756MOL0     C 4202   6.978   5.871   4.362  0.5877 -0.1122 -0.0261
  756MOL0     C 4203   7.051   5.754   4.424 -0.3805  0.4973 -0.5265
  756MOL0     C 4204   7.074   5.642   4.317  0.5778  0.1306  0.0995
  756MOL0     C 4205   7.082   5.508   4.383  0.3543  0.5643  0.1973
  756MOL0     C 4206   6.991   5.477   4.503 -0.6927  0.4168  0.1312
  756MOL0     N 4207   6.997   5.337   4.550 -0.5731  0.3160 -0.5277
  756MOL0     C 4208   6.958   5.228   4.468  0.0340  0.3416 -0.0837
  756MOL0     C 4209   6.989   5.111   4.545 -1.0521 -0.0906 -0.4827
  756MOL0     C 4210   6.976   4.969   4.499 -0.2637 -0.4310 -0.1343
  756MOL0     C 4211   7.037   4.865   4.590  0.5924 -0.0709 -0.1157
  756MOL0     C 4212   7.187   4.839   4.567 -0.7846  0.3845 -0.5937
  756MOL0     C 4213   7.247   4.801   4.702  0.1165  0.1262 -0.1870
  756MOL0     O 4214   7.239   4.893   4.811 -0.2007 -0.5758  0.8124
  756MOL0     C 4215   7.358   4.952   4.844  0.3411 -0.8689 -0.2073
  756MOL0     C 4216   7.470   4.880   4.896  0.6825 -0.0622  0.6922
  756MOL0     C 4217   7.586   4.953   4.930 -0.1118 -0.0017  0.9866
  756MOL0     C 4218   7.705   4.875   4.976  0.5239  0.4093  0.0109
  756MOL0     C 4219   7.594   5.093   4.897 -0.0080  0.0053  0.0325
  756MOL0     C 4220   7.719   5.179   4.901 -0.0863 -0.0802  0.5860
  756MOL0     O 4221   7.696   5.314   4.910  0.0399 -0.5768  0.3093
  756MOL0     C 4222   7.802   5.401   4.916 -0.1636  0.1349 -0.1054
  756MOL0     C 4223   7.891   5.407   4.814 -0.2740 -0.3779 -0.4010
  756MOL0     C 4224   7.996   5.504   4.822 -0.3873 -0.0127  0.3898
  756MOL0     C 4225   8.012   5.599   4.925  0.5047 -0.1196 -0.4808
  756MOL0     O 4226   8.113   5.696   4.924 -0.0055 -0.1296 -0.1856
  756MOL0     C 4227   8.150   5.749   4.798  1.1065 -1.3844  0.0062
  756MOL0     C 4228   8.245   5.871   4.813  0.1380 -0.4302 -0.3339
  756MOL0     C 4229   8.308   5.925   4.680 -1.0283 -0.7821 -0.3457
  756MOL0     C 4230   8.318   5.828   4.558  0.2771  0.7920  0.3488
  756MOL0     C 4231   8.383   5.899   4.441  0.1556 -0.0843 -0.9922
  756MOL0     C 4232   8.427   5.800   4.331  0.2174 -0.6756  0.7011
  756MOL0     C 4233   8.471   5.883   4.213  0.3826  0.2192  0.5890
  756MOL0     C 4234   8.359   5.914   4.115  0.6536  0.7836 -0.0256
  756MOL0    Cl 4235   8.424   5.983   3.965  0.2032  0.1661  0.0618
  756MOL0     C 4236   7.922   5.581   5.038 -0.8360 -0.9726 -0.1407
  756MOL0     C 4237   7.824   5.490   5.023  0.4165 -0.1012 -0.4195
  756MOL0     O 4238   7.826   5.122   4.908 -0.1665  0.2577  0.7606
  756MOL0     C 4239   7.473   5.159   4.844 -0.5374  0.3838  0.4979
  756MOL0     C 4240   7.358   5.095   4.831  0.4387  0.5885  0.3030
  756MOL0     N 4241   7.057   5.153   4.654 -0.1319  0.0431 -0.0813
  756MOL0     N 4242   7.061   5.284   4.660  0.2219 -0.8922 -0.2280
  756MOL0     C 4243   6.988   6.541   4.552 -0.3471  1.1525 -0.5538
  756MOL0     C 4244   7.063   6.641   4.612 -0.3337  0.2721 -0.7876
  756MOL0     C 4245   7.412   6.848   4.837  0.1959 -0.8576 -1.0143
  756MOL0     C 4246   7.418   6.918   4.963 -0.1080 -0.7991 -0.3312
  756MOL0     C 4247   7.523   7.009   4.999  0.2226  0.1957  0.4604
  756MOL0     C 4248   7.635   7.024   4.912 -0.7750  0.6917 -0.6546
  756MOL0     O 4249   7.741   7.103   4.953 -0.2404 -0.0239  0.1369
  756MOL0     C 4250   7.787   7.185   4.848  0.5483  0.0702 -0.2255
  756MOL0     C 4251   7.868   7.310   4.882  0.0932  0.1731 -0.2762
  756MOL0     C 4252   7.779   7.404   4.968  0.3142 -0.5173  1.0221
  756MOL0     C 4253   7.792   7.370   5.120 -0.1326  1.0185 -0.7113
  756MOL0     C 4254   7.930   7.359   5.168 -0.1738  0.1579  0.3517
  756MOL0     C 4255   8.042   7.337   5.210  0.7969  0.3499  0.3717
  756MOL0     C 4256   7.641   6.939   4.803 -0.5047 -0.8801  0.3146
  756MOL0     C 4257   7.534   6.860   4.758  0.2644  0.4383 -0.5673
  756MOL0     C 4258   7.554   6.783   4.623  0.3943  0.3580 -1.0356
  756MOL0     H 4259   7.374   6.496   4.601 -0.7174  1.4608  0.6886
  756MOL0     H 4260   7.238   6.322   4.498  1.8285  0.8579 -0.9400
  756MOL0     H 4261   7.055   6.180   4.566  2.5641  0.1854 -0.5349
  756MOL0     H 4262   7.084   6.149   4.394  0.2910 -0.3870  2.0976
  756MOL0     H 4263   6.814   6.121   4.511 -1.4557  4.3624 -3.0673
  756MOL0     H 4264   6.855   6.092   4.339 -1.8584  0.7465  0.5873
  756MOL0     H 4265   6.987   5.949   4.570  0.1596 -0.5266  0.1723
  756MOL0     H 4266   6.830   5.905   4.506  1.8553 -3.7773  0.5962
  756MOL0     H 4267   6.887   5.833   4.314  0.5747  0.2475 -0.2875
  756MOL0     H 4268   7.049   5.931   4.305  0.8422  2.8738  3.1023
  756MOL0     H 4269   6.990   5.720   4.508 -1.1246 -0.5830 -1.4639
  756MOL0     H 4270   7.152   5.784   4.454  0.5000 -3.0470  0.5737
  756MOL0     H 4271   6.993   5.634   4.244 -0.4667 -0.8221  1.3195
  756MOL0     H 4272   7.165   5.660   4.259  0.6127 -3.5443 -1.2355
  756MOL0     H 4273   7.181   5.493   4.426  0.6214 -0.0058 -0.5932
  756MOL0     H 4274   7.060   5.432   4.308 -0.3063  2.0410 -1.1816
  756MOL0     H 4275   7.044   5.533   4.580 -1.1064  2.3943 -0.9411
  756MOL0     H 4276   6.887   5.509   4.488 -0.2665  2.3638  1.0251
  756MOL0     H 4277   6.906   5.232   4.373 -0.4455 -1.8326  0.0226
  756MOL0     H 4278   7.010   4.957   4.396 -0.9677 -1.7916 -0.2328
  756MOL0     H 4279   6.869   4.947   4.489  0.0353 -1.5612 -1.0880
  756MOL0     H 4280   7.013   4.891   4.693 -0.9738 -3.1511  0.4315
  756MOL0     H 4281   6.984   4.771   4.570  1.5884 -0.1683 -2.6073
  756MOL0     H 4282   7.204   4.758   4.496 -0.6617  1.1953 -1.5096
  756MOL0     H 4283   7.230   4.934   4.537 -0.6178 -0.6288 -3.9748
  756MOL0     H 4284   7.204   4.706   4.735 -1.1945  0.5265 -0.7094
  756MOL0     H 4285   7.355   4.792   4.684  0.7956  0.9977  2.8442
  756MOL0     H 4286   7.486   4.773   4.907  0.9805 -0.0454  0.4290
  756MOL0     H 4287   7.761   4.848   4.886  2.6380  2.6621  0.5243
  756MOL0     H 4288   7.682   4.784   5.031  0.1557 -0.9363 -2.2661
  756MOL0     H 4289   7.766   4.943   5.037 -0.4257  1.9076 -0.6625
  756MOL0     H 4290   7.875   5.339   4.731 -4.2966 -0.9495  0.6603
  756MOL0     H 4291   8.052   5.510   4.729 -1.6383  1.0342 -0.3343
  756MOL0     H 4292   8.200   5.665   4.749 -1.0088 -1.5915 -1.9692
  756MOL0     H 4293   8.063   5.783   4.741  2.3017  0.7472 -0.6441
  756MOL0     H 4294   8.199   5.951   4.872  1.0364  1.5141 -2.1175
  756MOL0     H 4295   8.322   5.844   4.885 -1.3933  0.4779  1.7617
  756MOL0     H 4296   8.410   5.958   4.703 -1.0656 -0.5112 -0.5573
  756MOL0     H 4297   8.263   6.021   4.652 -0.5935 -0.6233 -0.5075
  756MOL0     H 4298   8.218   5.797   4.528  0.4263  1.1660 -0.5949
  756MOL0     H 4299   8.378   5.739   4.579  2.7144  1.7477 -1.9452
  756MOL0     H 4300   8.308   5.969   4.403 -0.1214 -0.2583 -0.7661
  756MOL0     H 4301   8.465   5.959   4.483 -2.0175  1.6987  0.9294
  756MOL0     H 4302   8.343   5.739   4.296 -0.8024  1.2267 -0.3093
  756MOL0     H 4303   8.507   5.732   4.362 -0.4168 -2.3805 -1.1558
  756MOL0     H 4304   8.539   5.821   4.154 -1.0142 -0.3993 -0.4376
  756MOL0     H 4305   8.515   5.979   4.241  1.7494  0.1469 -1.1036
  756MOL0     H 4306   8.286   5.986   4.154 -2.8441 -0.6536 -3.3694
  756MOL0     H 4307   8.307   5.823   4.084  0.3976  0.9353 -0.0417
  756MOL0     H 4308   7.933   5.649   5.122 -0.3628 -2.1120  0.7439
  756MOL0     H 4309   7.751   5.495   5.104  0.9918 -1.0906  0.1888
  756MOL0     H 4310   7.488   5.257   4.800 -0.4631  0.3132  0.3647
  756MOL0     H 4311   7.262   5.129   4.793 -1.1221 -3.1847  0.4427
  756MOL0     H 4312   6.881   6.553   4.545 -0.7581 -0.0357  2.2439
  756MOL0     H 4313   7.014   6.729   4.653  0.2755 -0.8328  2.7109
  756MOL0     H 4314   7.344   6.906   5.041  1.4145 -0.8455  1.1642
  756MOL0     H 4315   7.503   7.058   5.094 -1.3438 -0.3983  0.4681
  756MOL0     H 4316   7.854   7.123   4.788  0.3569 -1.3150  0.9402
  756MOL0     H 4317   7.707   7.211   4.779  0.2636 -2.5433 -0.9949
  756MOL0     H 4318   7.877   7.362   4.786 -3.0032  1.6455  0.0883
  756MOL0     H 4319   7.959   7.279   4.934  2.1798  5.7508  0.0489
  756MOL0     H 4320   7.811   7.508   4.950  2.1197 -1.3763 -1.3303
  756MOL0     H 4321   7.674   7.401   4.937  0.9677 -0.9998 -1.3819
  756MOL0     H 4322   7.762   7.267   5.138 -1.6842  1.4514 -0.6646
  756MOL0     H 4323   7.739   7.441   5.185 -1.2892  1.4224 -2.0640
  756MOL0     H 4324   8.145   7.314   5.230  0.9634  1.6086  1.0150
  756MOL0     H 4325   7.720   6.946   4.730  1.3071 -0.9154  2.1683
  756MOL0     H 4326   7.659   6.772   4.594  0.2485 -0.0536 -1.4141
  756MOL0     H 4327   7.523   6.678   4.634  0.2091  0.5458  0.4834
  756MOL0     H 4328   7.502   6.828   4.539  1.6494  3.0622 -0.4646
  757MOL0     O 4329   6.161   0.632   4.602  0.2725  0.3749 -0.3718
  757MOL0     C 4330   6.275   0.602   4.653  0.0817 -0.2574 -0.6364
  757MOL0     O 4331   6.294   0.566   4.784  0.7700  0.2079 -0.6166
  757MOL0     C 4332   6.189   0.570   4.875  0.5979 -0.6809 -0.2744
  757MOL0     C 4333   6.091   0.481   4.885 -0.3745 -0.3771 -0.6510
  757MOL0     C 4334   5.997   0.488   4.995  0.4479  0.0588 -0.2451
  757MOL0     C 4335   6.002   0.586   5.094  0.5608  0.1039  0.5462
  757MOL0     O 4336   5.902   0.583   5.192  0.2102  0.4583 -0.1205
  757MOL0     C 4337   5.904   0.686   5.288  0.4209  0.7788 -0.1313
  757MOL0     C 4338   5.854   0.817   5.221  0.0911  0.7233  0.5045
  757MOL0     C 4339   5.707   0.815   5.168  0.1682  0.4036 -0.8945
  757MOL0     C 4340   5.694   0.774   5.025 -0.3387 -0.7293  0.7476
  757MOL0     C 4341   5.550   0.723   4.990  0.7688  0.6198 -0.0313
  757MOL0     C 4342   5.545   0.568   5.011  0.2576 -0.8817  0.2904
  757MOL0     C 4343   5.610   0.483   4.902 -0.3352  0.3021  0.7086
  757MOL0     C 4344   5.560   0.336   4.913  0.1439 -0.6215 -0.6838
  757MOL0     N 4345   5.665   0.260   4.976  0.2511  0.2182  0.3543
  757MOL0     C 4346   5.771   0.206   4.907 -0.7631  0.5734 -0.6753
  757MOL0     C 4347   5.831   0.124   4.998 -0.2811 -0.6964 -0.8689
  757MOL0     C 4348   5.972   0.057   4.981 -0.1674 -0.4126  0.6802
  757MOL0     C 4349   6.071   0.125   4.883  0.2627 -0.0247 -0.1015
  757MOL0     C 4350   6.206   0.074   4.892  0.9309  0.4622  0.2475
  757MOL0     C 4351   6.307   0.187   4.852  0.2780  0.0384 -0.1976
  757MOL0     O 4352   6.255   0.240   4.726 -0.0113  0.4792 -0.5770
  757MOL0     C 4353   6.339   0.253   4.620 -0.4955 -0.4293 -0.9594
  757MOL0     C 4354   6.302   0.213   4.494  0.0642  0.7045 -0.4764
  757MOL0     C 4355   6.393   0.226   4.385 -0.0773 -0.4299 -0.2801
  757MOL0     C 4356   6.347   0.168   4.260 -0.0230  0.6097 -1.1279
  757MOL0     C 4357   6.522   0.287   4.402 -0.4165 -0.8720  0.1417
  757MOL0     C 4358   6.633   0.291   4.300  0.2319 -0.2226 -0.3310
  757MOL0     O 4359   6.755   0.281   4.342 -0.2266 -0.2203  0.5428
  757MOL0     C 4360   6.866   0.346   4.283  0.2505  0.8121  0.0460
  757MOL0     C 4361   6.851   0.448   4.190 -0.0257  0.4771  0.2095
  757MOL0     C 4362   6.960   0.529   4.153 -1.1371 -0.1463  0.0472
  757MOL0     C 4363   7.093   0.473   4.184  0.9105  0.0651  0.3926
  757MOL0     O 4364   7.191   0.561   4.161 -0.5017  0.4222 -0.3239
  757MOL0     C 4365   7.318   0.510   4.118 -0.1919  0.7052  1.0327
  757MOL0     C 4366   7.418   0.629   4.114 -0.3343  0.0123  0.2981
  757MOL0     C 4367   7.518   0.622   3.999 -0.1942 -0.5739 -0.2176
  757MOL0     C 4368   7.454   0.648   3.868 -0.0191 -0.2619 -0.1244
  757MOL0     C 4369   7.558   0.603   3.761  0.7625 -0.7840  0.0726
  757MOL0     C 4370   7.497   0.628   3.622 -0.4360  0.1786 -0.1845
  757MOL0     C 4371   7.603   0.594   3.510 -0.0801  0.5083 -0.1019
  757MOL0     C 4372   7.549   0.543   3.383  0.2936  0.5598  0.3245
  757MOL0    Cl 4373   7.414   0.642   3.303 -0.0529  0.2128  0.1460
  757MOL0     C 4374   7.102   0.359   4.263 -0.0324 -0.1994 -0.6659
  757MOL0     C 4375   6.992   0.298   4.313  0.0790 -0.6931 -0.1657
  757MOL0     O 4376   6.601   0.310   4.180  0.4432 -0.5790 -0.1284
  757MOL0     C 4377   6.565   0.326   4.531 -0.5970 -0.7333  1.1344
  757MOL0     C 4378   6.473   0.307   4.632 -0.7798  0.2714 -1.1493
  757MOL0     N 4379   5.758   0.140   5.111  0.1046 -0.4731 -0.2673
  757MOL0     N 4380   5.656   0.214   5.102  0.0268  0.3351  1.5875
  757MOL0     C 4381   6.111   0.676   5.084  0.4545 -0.6742 -0.1422
  757MOL0     C 4382   6.195   0.668   4.969 -0.8687  0.1301  0.0367
  757MOL0     C 4383   6.390   0.630   4.558  0.2715 -0.3082  0.1173
  757MOL0     C 4384   6.517   0.653   4.612  0.6890  0.6080 -1.1533
  757MOL0     C 4385   6.615   0.708   4.535 -0.8001  0.1851  0.3674
  757MOL0     C 4386   6.593   0.741   4.400  0.5026  0.0218  0.1543
  757MOL0     O 4387   6.700   0.798   4.332 -0.3411  0.5351 -0.4019
  757MOL0     C 4388   6.698   0.813   4.192  0.6761  0.5102  0.5740
  757MOL0     C 4389   6.651   0.950   4.159  0.8183 -1.0188  1.0045
  757MOL0     C 4390   6.771   1.047   4.153  0.8091 -0.2088 -0.7868
  757MOL0     C 4391   6.725   1.161   4.061  0.1221 -0.3327  0.9421
  757MOL0     C 4392   6.792   1.292   4.090 -0.0101 -0.4569  0.3219
  757MOL0     C 4393   6.859   1.394   4.105 -0.1494  0.8906  0.1022
  757MOL0     C 4394   6.467   0.703   4.343  0.0554 -0.4318 -0.4561
  757MOL0     C 4395   6.373   0.635   4.413 -0.0706 -0.0664 -0.4544
  757MOL0     C 4396   6.245   0.592   4.339  0.2045  0.4525  0.1407
  757MOL0     H 4397   6.090   0.399   4.814  0.5663  0.9741 -2.2957
  757MOL0     H 4398   5.902   0.436   4.999 -1.4585  3.3251  3.4031
  757MOL0     H 4399   6.001   0.698   5.338 -0.8945 -0.1989  2.8767
  757MOL0     H 4400   5.844   0.652   5.372  1.7972 -2.3695 -0.2838
  757MOL0     H 4401   5.873   0.897   5.294 -0.2235  0.2478  1.1107
  757MOL0     H 4402   5.910   0.860   5.137  1.0432  1.4807  1.4909
  757MOL0     H 4403   5.649   0.742   5.226  1.6921 -0.9175 -0.9628
  757MOL0     H 4404   5.656   0.911   5.168 -0.0161  0.3621  1.8604
  757MOL0     H 4405   5.724   0.863   4.969  2.8598 -1.0843  1.6781
  757MOL0     H 4406   5.778   0.708   5.003  0.1844 -0.1459  0.9712
  757MOL0     H 4407   5.523   0.734   4.884 -2.5248 -2.9829  0.2139
  757MOL0     H 4408   5.473   0.776   5.047  1.6529  3.3893 -1.2641
  757MOL0     H 4409   5.576   0.543   5.112  0.6733  0.8869  0.6228
  757MOL0     H 4410   5.438   0.547   5.005 -0.2996  1.7268 -0.2919
  757MOL0     H 4411   5.719   0.491   4.906  0.0534  0.7871 -4.4346
  757MOL0     H 4412   5.596   0.523   4.801  0.1287 -2.6672 -0.6463
  757MOL0     H 4413   5.463   0.320   4.961 -0.8237 -0.4853 -2.4896
  757MOL0     H 4414   5.551   0.285   4.817  5.3679 -4.8940  0.6207
  757MOL0     H 4415   5.805   0.226   4.805  2.5730  1.9560  0.5644
  757MOL0     H 4416   5.948  -0.043   4.944 -1.8608  0.8010 -1.7491
  757MOL0     H 4417   6.017   0.041   5.080  0.8842 -1.8718  0.0062
  757MOL0     H 4418   6.030   0.108   4.783 -0.7107 -1.0525  0.4461
  757MOL0     H 4419   6.073   0.231   4.910 -1.4502 -0.1635  0.7117
  757MOL0     H 4420   6.218   0.031   4.991 -0.4697 -2.9623 -0.9211
  757MOL0     H 4421   6.222  -0.006   4.819 -3.6565  0.2339 -0.7863
  757MOL0     H 4422   6.306   0.274   4.919 -1.0491  1.4121 -1.9116
  757MOL0     H 4423   6.412   0.159   4.838  1.1357  2.3921  0.9383
  757MOL0     H 4424   6.214   0.151   4.480  0.5322 -0.5030  1.5107
  757MOL0     H 4425   6.245   0.131   4.263  0.2976 -0.3152 -1.1896
  757MOL0     H 4426   6.406   0.076   4.248 -0.3166  0.5344 -2.0346
  757MOL0     H 4427   6.350   0.238   4.176  3.0648  0.9673 -0.8502
  757MOL0     H 4428   6.757   0.493   4.161 -1.7862 -2.0826  1.6081
  757MOL0     H 4429   6.951   0.621   4.096 -5.1558  0.0214  0.6497
  757MOL0     H 4430   7.359   0.450   4.199 -1.1174  0.1396  1.0925
  757MOL0     H 4431   7.303   0.455   4.024  0.5084  0.9595  0.7656
  757MOL0     H 4432   7.359   0.719   4.097  2.3087  1.5559 -1.4579
  757MOL0     H 4433   7.463   0.628   4.214 -3.9669 -2.0491  2.1220
  757MOL0     H 4434   7.576   0.529   3.998  2.9503  1.2538 -1.0073
  757MOL0     H 4435   7.591   0.701   4.018 -2.2533  1.2173  0.6231
  757MOL0     H 4436   7.444   0.757   3.866  2.0551  0.0644  2.1356
  757MOL0     H 4437   7.364   0.588   3.853 -0.6288  0.9911 -1.8331
  757MOL0     H 4438   7.651   0.656   3.782 -1.3460  2.8276  1.1035
  757MOL0     H 4439   7.572   0.495   3.772  0.4019 -0.6571  2.3620
  757MOL0     H 4440   7.476   0.734   3.604  3.1290  0.7602 -1.7165
  757MOL0     H 4441   7.406   0.567   3.619  0.5443 -1.6661  2.7024
  757MOL0     H 4442   7.670   0.520   3.556 -1.6574 -1.1984 -0.4328
  757MOL0     H 4443   7.664   0.682   3.488  0.3165  0.8327  2.0525
  757MOL0     H 4444   7.497   0.449   3.400  0.1334  0.6950  0.5859
  757MOL0     H 4445   7.627   0.517   3.311 -0.0726 -1.7389  0.6927
  757MOL0     H 4446   7.198   0.321   4.298 -0.5528 -0.3737  0.6384
  757MOL0     H 4447   7.001   0.207   4.371 -3.7300 -0.8606  0.4374
  757MOL0     H 4448   6.659   0.377   4.544  0.1393 -0.7220 -2.8634
  757MOL0     H 4449   6.508   0.341   4.729 -3.8059 -0.4043  0.2947
  757MOL0     H 4450   6.126   0.752   5.160  0.5164  2.5868 -3.1555
  757MOL0     H 4451   6.281   0.734   4.960  1.0321 -1.8512  2.2664
  757MOL0     H 4452   6.533   0.648   4.719 -0.8992  1.1336 -0.8638
  757MOL0     H 4453   6.711   0.741   4.575 -0.5895  1.2503 -0.9301
  757MOL0     H 4454   6.802   0.802   4.159  1.2197  1.0665  2.0428
  757MOL0     H 4455   6.642   0.736   4.138  3.4389 -0.1092 -1.6426
  757MOL0     H 4456   6.578   0.989   4.230  1.0795  1.1212  0.1645
  757MOL0     H 4457   6.590   0.945   4.068  0.1180  2.4394  1.1473
  757MOL0     H 4458   6.778   1.084   4.256 -1.7914 -0.7723 -0.3572
  757MOL0     H 4459   6.868   1.002   4.127  1.9852  1.7633 -0.1013
  757MOL0     H 4460   6.618   1.185   4.061  0.3789  0.9531  1.5716
  757MOL0     H 4461   6.766   1.136   3.963  1.5071  1.7925  0.9012
  757MOL0     H 4462   6.906   1.487   4.130  0.1190  1.4298 -2.1602
  757MOL0     H 4463   6.446   0.714   4.237  2.7842  0.9071 -0.9678
  757MOL0     H 4464   6.265   0.583   4.232  0.4701  1.6945  0.0756
  757MOL0     H 4465   6.222   0.498   4.389  1.0241  0.0671 -0.1875
  757MOL0     H 4466   6.175   0.674   4.355  3.1252  2.9567  1.1072
  758MOL0     O 4467   7.749   9.988   3.184 -0.5395 -0.1749  0.9951
  758MOL0     C 4468   7.845   9.915   3.203 -0.3171 -0.3843  0.5251
  758MOL0     O 4469   7.936   9.924   3.296 -0.2435  0.4611 -0.2100
  758MOL0     C 4470   7.934  10.006   3.407 -0.4207  1.0957  0.4353
  758MOL0     C 4471   8.063  10.013   3.465  0.4837  1.0293 -0.0685
  758MOL0     C 4472   8.085  10.071   3.589 -0.1455 -0.6462 -0.2177
  758MOL0     C 4473   7.978  10.129   3.668 -0.5116 -0.2164  0.0709
  758MOL0     O 4474   7.998  10.172   3.797  0.3377 -0.3629 -0.3662
  758MOL0     C 4475   7.887  10.185   3.880  0.2360  0.0264  0.0824
  758MOL0     C 4476   7.940  10.220   4.023 -0.0107  0.6782 -0.0712
  758MOL0     C 4477   8.032  10.344   4.041 -0.2743  0.7819 -0.3262
  758MOL0     C 4478   7.973  10.476   4.024 -0.2097 -0.9257 -0.2195
  758MOL0     C 4479   8.083  10.579   4.030 -0.1021 -0.6464 -0.2895
  758MOL0     C 4480   8.167  10.578   4.162  0.5488 -0.1783 -0.4719
  758MOL0     C 4481   8.255  10.707   4.142  0.7564 -0.3573 -0.4104
  758MOL0     C 4482   8.368  10.710   4.247 -0.1613  1.4111  0.8747
  758MOL0     N 4483   8.480  10.632   4.178  0.2930  1.1597 -0.6347
  758MOL0     C 4484   8.570  10.684   4.092  0.5649  0.1942  0.3859
  758MOL0     C 4485   8.664  10.591   4.073  0.2838 -0.1942  0.2686
  758MOL0     C 4486   8.790  10.603   3.973 -0.2564 -0.0911  0.3318
  758MOL0     C 4487   8.920  10.587   4.050  0.1301 -0.6356 -0.1627
  758MOL0     C 4488   9.048  10.592   3.958  0.4265 -0.3515 -0.7325
  758MOL0     C 4489   9.171  10.560   4.044  0.2998 -0.5132 -0.0605
  758MOL0     O 4490   9.294  10.591   3.968 -0.8565 -0.0201  0.7874
  758MOL0     C 4491   9.421  10.581   4.026  0.2744  0.4536 -0.1317
  758MOL0     C 4492   9.452  10.574   4.162 -0.2952  0.2474 -0.2587
  758MOL0     C 4493   9.586  10.577   4.215  0.8618  0.6511  0.2075
  758MOL0     C 4494   9.620  10.577   4.356  0.5765  0.2938  0.2137
  758MOL0     C 4495   9.694  10.583   4.119  0.2888 -0.4615  0.5587
  758MOL0     C 4496   9.836  10.612   4.146  0.4870 -0.0591 -1.5191
  758MOL0     O 4497   9.929  10.554   4.072  0.0329 -0.0409 -0.0362
  758MOL0     C 4498  10.056  10.607   4.092  0.2522  0.3690 -0.8333
  758MOL0     C 4499  10.148  10.536   4.166 -0.6442 -0.0915  0.1742
  758MOL0     C 4500  10.278  10.592   4.197 -0.3550  1.1037  0.4801
  758MOL0     C 4501  10.321  10.722   4.157 -0.0609  0.2064  0.5334
  758MOL0     O 4502  10.434  10.777   4.216 -0.3625 -0.4699 -0.1577
  758MOL0     C 4503  10.508  10.874   4.150  0.1244  0.1314  0.0250
  758MOL0     C 4504  10.587  10.817   4.032 -0.0741 -0.1315  0.4725
  758MOL0     C 4505  10.629  10.671   4.048 -0.2973 -0.1761 -0.3410
  758MOL0     C 4506  10.703  10.637   4.172  0.3912 -0.0029  0.1223
  758MOL0     C 4507  10.797  10.516   4.138  0.1863  0.7261  0.1071
  758MOL0     C 4508  10.736  10.387   4.071  0.0281  0.1092 -0.0781
  758MOL0     C 4509  10.618  10.311   4.137 -0.0894 -0.6714 -0.5514
  758MOL0     C 4510  10.637  10.282   4.286  0.4125  0.7291 -0.1102
  758MOL0    Cl 4511  10.487  10.224   4.361 -0.0017  0.4284  0.4580
  758MOL0     C 4512  10.216  10.788   4.077  0.1616 -0.3841 -0.8220
  758MOL0     C 4513  10.086  10.736   4.050  0.2863  0.0778 -0.2173
  758MOL0     O 4514   9.856  10.681   4.250 -0.2997  0.3274 -0.1097
  758MOL0     C 4515   9.662  10.582   3.977 -0.1840 -0.5517 -0.6744
  758MOL0     C 4516   9.530  10.581   3.935  0.1460 -0.4243  0.1866
  758MOL0     N 4517   8.636  10.484   4.164  0.3307 -0.3346  0.0141
  758MOL0     N 4518   8.527  10.517   4.228 -0.5191  0.1443 -0.4824
  758MOL0     C 4519   7.852  10.126   3.605  0.6751  0.1219 -0.3168
  758MOL0     C 4520   7.827  10.072   3.474  0.7447 -0.0038 -0.2730
  758MOL0     C 4521   7.885   9.824   3.083  0.4418  0.0934  0.9499
  758MOL0     C 4522   8.020   9.803   3.061 -0.0591 -0.4698 -0.0249
  758MOL0     C 4523   8.078   9.739   2.952  0.0674  0.6995 -0.3101
  758MOL0     C 4524   7.995   9.673   2.860  0.6796 -0.6784  0.1972
  758MOL0     O 4525   8.050   9.612   2.756  0.3733  0.8065  0.1176
  758MOL0     C 4526   7.957   9.566   2.657  0.1133  0.1906  0.5282
  758MOL0     C 4527   8.031   9.510   2.535 -1.1745  0.4520  0.8321
  758MOL0     C 4528   7.944   9.487   2.405  0.5496 -0.0262 -0.0794
  758MOL0     C 4529   8.030   9.428   2.287 -0.0374 -0.5443 -0.4115
  758MOL0     C 4530   7.938   9.413   2.174 -0.5409 -0.0591 -0.1044
  758MOL0     C 4531   7.865   9.403   2.082  0.5637  0.1209  0.8091
  758MOL0     C 4532   7.857   9.689   2.887 -0.5408 -0.3816  0.8575
  758MOL0     C 4533   7.803   9.766   2.987  0.0181 -0.0220 -0.7238
  758MOL0     C 4534   7.646   9.778   3.001 -0.4678  0.5933  0.6426
  758MOL0     H 4535   8.146   9.963   3.418  2.1913  2.5372  1.2015
  758MOL0     H 4536   8.184  10.065   3.633 -0.6379 -4.3062  0.7118
  758MOL0     H 4537   7.824  10.096   3.888 -0.3249  0.2632 -1.3999
  758MOL0     H 4538   7.825  10.266   3.839 -1.3767 -0.9725  0.4645
  758MOL0     H 4539   7.857  10.247   4.089  1.4671  0.7496  1.8803
  758MOL0     H 4540   7.983  10.136   4.079  0.6112  1.6832  1.0040
  758MOL0     H 4541   8.085  10.335   4.136  0.6414  1.4656 -0.7511
  758MOL0     H 4542   8.103  10.332   3.959 -1.6264 -0.0850 -1.4146
  758MOL0     H 4543   7.929  10.485   3.924 -0.5238  1.1077  0.0533
  758MOL0     H 4544   7.897  10.492   4.102 -0.1545 -3.1984  0.3736
  758MOL0     H 4545   8.044  10.680   4.013  0.0900 -0.7604 -1.5163
  758MOL0     H 4546   8.153  10.553   3.950 -0.1734 -1.7482 -0.0036
  758MOL0     H 4547   8.101  10.578   4.249  0.1115 -0.6792 -0.7928
  758MOL0     H 4548   8.231  10.490   4.165 -1.2007 -1.5009 -0.7367
  758MOL0     H 4549   8.190  10.794   4.149  0.5852 -0.4846 -0.4235
  758MOL0     H 4550   8.308  10.712   4.047  4.4085  0.0497  1.4560
  758MOL0     H 4551   8.398  10.813   4.267  0.7282  1.1862  0.7554
  758MOL0     H 4552   8.341  10.669   4.345 -1.6451  1.3815  0.4633
  758MOL0     H 4553   8.560  10.779   4.040 -2.3131 -0.6898 -0.8793
  758MOL0     H 4554   8.786  10.699   3.922  0.5837  0.0255  0.4635
  758MOL0     H 4555   8.781  10.522   3.900  0.0808  0.9027 -0.8366
  758MOL0     H 4556   8.928  10.673   4.117  2.7468 -0.2041 -0.9051
  758MOL0     H 4557   8.921  10.508   4.126  3.2872  0.7453  1.4366
  758MOL0     H 4558   9.045  10.510   3.885  1.3843  1.1357 -2.5105
  758MOL0     H 4559   9.051  10.690   3.910  1.0743  2.1166  3.7778
  758MOL0     H 4560   9.173  10.617   4.138  2.2569  1.1858 -1.0343
  758MOL0     H 4561   9.157  10.453   4.061 -4.4911  0.2111  2.5111
  758MOL0     H 4562   9.368  10.584   4.230 -0.6520  0.7733 -0.7680
  758MOL0     H 4563   9.623  10.683   4.384  0.9107  1.0377 -2.3763
  758MOL0     H 4564   9.719  10.533   4.373  2.4758  3.9600 -0.2467
  758MOL0     H 4565   9.543  10.519   4.408 -1.9826  2.4675 -0.9159
  758MOL0     H 4566  10.114  10.434   4.183  1.3661 -0.7552  0.4077
  758MOL0     H 4567  10.359  10.535   4.242  0.5208  0.1153 -2.1661
  758MOL0     H 4568  10.445  10.950   4.103 -0.6725 -0.5581 -0.0298
  758MOL0     H 4569  10.576  10.928   4.217  1.0829  0.4048 -1.1148
  758MOL0     H 4570  10.522  10.823   3.944 -2.5472 -2.3474  1.9877
  758MOL0     H 4571  10.670  10.888   4.021 -1.6570  1.4072 -2.9628
  758MOL0     H 4572  10.697  10.654   3.964  0.3704  2.3103 -0.4012
  758MOL0     H 4573  10.546  10.601   4.037  0.1525 -0.8430  0.4063
  758MOL0     H 4574  10.627  10.608   4.246 -0.3285  1.4211 -0.0211
  758MOL0     H 4575  10.762  10.723   4.203 -0.5512  0.0017  2.0568
  758MOL0     H 4576  10.881  10.547   4.075  0.2540  0.8416  0.2543
  758MOL0     H 4577  10.852  10.490   4.229  2.0788 -0.8398 -1.3772
  758MOL0     H 4578  10.817  10.313   4.071  0.1417 -0.0345  4.1185
  758MOL0     H 4579  10.697  10.407   3.971 -1.1813 -0.8725  0.1856
  758MOL0     H 4580  10.596  10.219   4.083  1.8815 -1.8707  0.5644
  758MOL0     H 4581  10.528  10.372   4.132  0.8570  1.0128  1.4586
  758MOL0     H 4582  10.677  10.364   4.346 -1.5837  0.3961  1.7828
  758MOL0     H 4583  10.715  10.206   4.302 -1.6411 -1.2378  1.2675
  758MOL0     H 4584  10.252  10.887   4.053 -0.2484 -1.1153 -5.1600
  758MOL0     H 4585  10.006  10.791   4.001 -0.2655 -0.0313  0.5483
  758MOL0     H 4586   9.742  10.594   3.905  2.5638 -0.6192  2.1647
  758MOL0     H 4587   9.510  10.588   3.828  0.1237  1.0479  0.2664
  758MOL0     H 4588   7.763  10.156   3.659  1.2393  0.6612  0.3261
  758MOL0     H 4589   7.730  10.087   3.429 -0.3453  2.6980  2.6516
  758MOL0     H 4590   8.081   9.840   3.143 -1.5940 -0.3146  1.0967
  758MOL0     H 4591   8.185   9.721   2.952  0.0366  0.4004  1.3629
  758MOL0     H 4592   7.894   9.487   2.698 -0.9807 -0.2939 -1.9198
  758MOL0     H 4593   7.904   9.650   2.613 -0.9204 -0.6626  0.0919
  758MOL0     H 4594   8.086   9.426   2.579 -1.0094  0.5535  0.8210
  758MOL0     H 4595   8.106   9.588   2.519 -0.1106 -0.7142 -0.0620
  758MOL0     H 4596   7.861   9.427   2.441 -0.6669  2.5627  1.7464
  758MOL0     H 4597   7.900   9.585   2.385  0.4549 -0.3425 -1.5978
  758MOL0     H 4598   8.072   9.335   2.328  0.3455 -0.4362 -0.5610
  758MOL0     H 4599   8.112   9.494   2.257  0.2523 -1.1262 -0.9233
  758MOL0     H 4600   7.799   9.396   1.998  1.4773  3.1502 -0.3227
  758MOL0     H 4601   7.790   9.656   2.809  1.1198  3.4903 -2.6004
  758MOL0     H 4602   7.625   9.886   3.002  2.3792  1.2747 -1.7686
  758MOL0     H 4603   7.596   9.720   2.922 -3.0981  0.1185  2.5187
  758MOL0     H 4604   7.601   9.724   3.084 -0.9157  0.4447  0.3109
  759MOL0     O 4605  10.084   7.802   4.461 -0.0976  0.3325 -0.3002
  759MOL0     C 4606  10.199   7.760   4.469 -0.1028 -0.1044  0.3064
  759MOL0     O 4607  10.232   7.631   4.507  0.5188  0.1668 -0.0728
  759MOL0     C 4608  10.360   7.594   4.544 -0.1021 -0.5244 -0.0447
  759MOL0     C 4609  10.422   7.480   4.508 -0.6001  0.0129 -0.3563
  759MOL0     C 4610  10.547   7.441   4.565  0.2111  0.1915  0.1863
  759MOL0     C 4611  10.612   7.524   4.666 -0.3265  0.2908 -0.3826
  759MOL0     O 4612  10.737   7.513   4.729  0.1640  0.3273  0.3594
  759MOL0     C 4613  10.834   7.408   4.684  0.8101 -0.9039 -1.1570
  759MOL0     C 4614  10.953   7.420   4.770 -0.3551  1.1576  0.3008
  759MOL0     C 4615  11.058   7.301   4.754 -0.1003 -0.1018 -0.4856
  759MOL0     C 4616  11.158   7.312   4.875  0.5116 -0.0157 -0.1436
  759MOL0     C 4617  11.259   7.191   4.886  0.3218 -1.1760  0.3875
  759MOL0     C 4618  11.348   7.172   4.767  0.4807 -0.2148 -0.4775
  759MOL0     C 4619  11.488   7.124   4.806 -0.2049 -0.0232 -0.4535
  759MOL0     C 4620  11.489   6.972   4.834  0.2609 -1.1530 -0.3648
  759MOL0     N 4621  11.431   6.889   4.729  0.6086  0.3995 -0.4336
  759MOL0     C 4622  11.438   6.902   4.597 -0.2013 -0.0868  0.3150
  759MOL0     C 4623  11.340   6.826   4.547  0.2499  1.5430  0.3798
  759MOL0     C 4624  11.318   6.799   4.400  1.1363 -0.5704 -0.1882
  759MOL0     C 4625  11.206   6.908   4.348 -0.6273  0.5016  0.6086
  759MOL0     C 4626  11.061   6.881   4.393 -0.0811 -0.2011 -1.1096
  759MOL0     C 4627  11.018   6.957   4.525 -0.5301 -0.0624  0.9873
  759MOL0     O 4628  11.007   7.090   4.505 -0.8961  0.2219 -0.0775
  759MOL0     C 4629  10.911   7.137   4.426  0.0302 -0.3026  0.7978
  759MOL0     C 4630  10.917   7.276   4.394 -0.1025  0.0723 -0.3866
  759MOL0     C 4631  10.829   7.342   4.302  0.4373 -0.0225 -0.4478
  759MOL0     C 4632  10.851   7.487   4.276  0.7888 -0.0048 -0.4418
  759MOL0     C 4633  10.728   7.265   4.252 -0.1041  1.2583 -0.3035
  759MOL0     C 4634  10.636   7.315   4.170  0.8440 -0.1247 -0.7004
  759MOL0     O 4635  10.617   7.251   4.051 -0.3458 -0.4307 -0.3244
  759MOL0     C 4636  10.520   7.295   3.965  0.4053 -0.1736 -0.4519
  759MOL0     C 4637  10.541   7.395   3.867 -0.6865 -0.8443  0.7333
  759MOL0     C 4638  10.452   7.418   3.759 -0.4402  0.5126 -0.9621
  759MOL0     C 4639  10.336   7.349   3.766 -0.2905  0.8428  0.6800
  759MOL0     O 4640  10.248   7.395   3.675 -0.4148  0.2931 -0.1311
  759MOL0     C 4641  10.177   7.289   3.609  0.1454  0.5720 -0.4698
  759MOL0     C 4642  10.106   7.337   3.483 -0.2240  0.8227  0.0452
  759MOL0     C 4643  10.199   7.364   3.368 -0.0335 -0.1777 -0.1870
  759MOL0     C 4644  10.319   7.470   3.400  0.9190 -0.8846  1.4383
  759MOL0     C 4645  10.378   7.518   3.266 -0.0329  0.3748  0.0030
  759MOL0     C 4646  10.511   7.595   3.277  0.8617 -0.9434 -0.4224
  759MOL0     C 4647  10.564   7.623   3.141 -0.0951 -0.4255  1.0043
  759MOL0     C 4648  10.679   7.729   3.141  1.3298 -0.2577  0.2523
  759MOL0    Cl 4649  10.753   7.752   2.977  0.2988  0.2694  0.2160
  759MOL0     C 4650  10.299   7.259   3.862 -0.6957 -0.5485 -0.9625
  759MOL0     C 4651  10.398   7.223   3.963 -0.1518  0.3247 -0.1581
  759MOL0     O 4652  10.574   7.419   4.206  0.4259 -0.4991  0.1895
  759MOL0     C 4653  10.705   7.133   4.294 -0.5441 -0.0165  0.2102
  759MOL0     C 4654  10.793   7.072   4.378 -0.7450  0.6073 -0.3063
  759MOL0     N 4655  11.281   6.753   4.654  0.7915  0.4043  0.8145
  759MOL0     N 4656  11.329   6.799   4.766  0.0430  0.1863  0.2386
  759MOL0     C 4657  10.549   7.636   4.705  0.6960 -0.7640  0.7309
  759MOL0     C 4658  10.427   7.667   4.642 -0.3111 -0.2197 -0.1251
  759MOL0     C 4659  10.303   7.856   4.410 -0.2030 -0.6354 -0.0046
  759MOL0     C 4660  10.317   7.991   4.459 -0.2449 -0.3195 -0.0342
  759MOL0     C 4661  10.424   8.067   4.420 -0.0187  0.0061  0.3717
  759MOL0     C 4662  10.516   8.029   4.329 -0.3434  0.0353  0.4738
  759MOL0     O 4663  10.621   8.115   4.310  0.3929 -0.2860  0.5586
  759MOL0     C 4664  10.710   8.089   4.193  0.4542  0.4591  0.0571
  759MOL0     C 4665  10.827   8.191   4.183  0.5144 -0.5148 -0.4512
  759MOL0     C 4666  10.787   8.336   4.147 -0.6004 -0.0627  0.2458
  759MOL0     C 4667  10.830   8.379   4.004  0.4302  0.3706  0.2330
  759MOL0     C 4668  10.743   8.310   3.898 -0.6897  0.6778  0.3645
  759MOL0     C 4669  10.675   8.240   3.823  0.0175  0.1258 -0.9056
  759MOL0     C 4670  10.507   7.903   4.264  0.7453  0.4469 -0.0605
  759MOL0     C 4671  10.399   7.818   4.304 -0.1074 -0.1954 -0.6589
  759MOL0     C 4672  10.380   7.694   4.227  0.1182  0.7415  0.2169
  759MOL0     H 4673  10.386   7.412   4.432 -2.5604 -1.0509  1.4332
  759MOL0     H 4674  10.606   7.355   4.533  1.0989 -0.7341  3.8230
  759MOL0     H 4675  10.870   7.424   4.582 -0.6961 -1.4213 -1.7916
  759MOL0     H 4676  10.788   7.309   4.687  0.3443 -0.7216  2.2543
  759MOL0     H 4677  11.009   7.507   4.735 -0.0784  1.1253  0.6545
  759MOL0     H 4678  10.928   7.426   4.877 -1.1603 -1.0441  0.2707
  759MOL0     H 4679  11.009   7.204   4.754 -3.4263  1.4265  0.8670
  759MOL0     H 4680  11.107   7.317   4.657  1.5217  0.1794  0.3494
  759MOL0     H 4681  11.204   7.411   4.868  0.0253  0.3500  1.4154
  759MOL0     H 4682  11.090   7.310   4.961  0.7650 -0.9122  0.0488
  759MOL0     H 4683  11.214   7.093   4.903 -0.9371 -0.5303  0.9396
  759MOL0     H 4684  11.326   7.224   4.966  1.0711  1.7897 -1.2972
  759MOL0     H 4685  11.295   7.122   4.685 -0.9049 -3.7940  2.3334
  759MOL0     H 4686  11.374   7.272   4.730  2.0659 -0.6833 -0.7282
  759MOL0     H 4687  11.537   7.173   4.890 -1.0456 -0.6984  0.4409
  759MOL0     H 4688  11.552   7.152   4.721 -0.3068  0.0923 -0.4926
  759MOL0     H 4689  11.589   6.931   4.850  0.6124 -0.0814  0.3017
  759MOL0     H 4690  11.436   6.952   4.927 -1.3896 -0.4289 -1.0991
  759MOL0     H 4691  11.508   6.967   4.546  1.9851 -0.9452  2.0590
  759MOL0     H 4692  11.268   6.702   4.401 -0.7311  0.2390 -2.5337
  759MOL0     H 4693  11.421   6.808   4.364  3.2295 -0.8554  5.0041
  759MOL0     H 4694  11.239   7.011   4.364  5.0842 -0.7415 -0.7746
  759MOL0     H 4695  11.204   6.894   4.239  4.0141  1.1187  0.2261
  759MOL0     H 4696  10.993   6.896   4.309 -0.6089 -4.1312 -1.6024
  759MOL0     H 4697  11.058   6.776   4.425  0.7870  0.4206  1.2910
  759MOL0     H 4698  10.928   6.905   4.559 -0.0459 -0.9732  0.9167
  759MOL0     H 4699  11.087   6.944   4.609  0.5322  2.9044  0.7013
  759MOL0     H 4700  11.009   7.322   4.431  1.6488 -2.2818 -1.5217
  759MOL0     H 4701  10.851   7.506   4.168  4.4583  0.3583 -0.5049
  759MOL0     H 4702  10.942   7.528   4.321  0.9120  0.3204 -0.9692
  759MOL0     H 4703  10.768   7.550   4.308  0.8625  1.3473 -2.6467
  759MOL0     H 4704  10.636   7.447   3.858 -0.2636 -1.6393  0.5699
  759MOL0     H 4705  10.470   7.486   3.677  0.9243  2.6045  0.9514
  759MOL0     H 4706  10.255   7.220   3.575  0.9937  0.4953  1.4539
  759MOL0     H 4707  10.098   7.253   3.675 -0.6919  0.9553 -1.2410
  759MOL0     H 4708  10.030   7.266   3.448  0.8935 -0.0253 -0.7203
  759MOL0     H 4709  10.051   7.426   3.516  2.5390  3.2693 -1.5225
  759MOL0     H 4710  10.143   7.406   3.284  1.5665  1.0482 -0.6986
  759MOL0     H 4711  10.240   7.267   3.340  0.3818 -0.8000  2.3625
  759MOL0     H 4712  10.393   7.409   3.454  1.1748 -2.3782 -0.4789
  759MOL0     H 4713  10.290   7.557   3.459  1.4844  2.0006 -2.1746
  759MOL0     H 4714  10.399   7.433   3.200  0.4640  1.5008 -1.3397
  759MOL0     H 4715  10.300   7.574   3.214 -2.5905 -2.1606  0.8996
  759MOL0     H 4716  10.577   7.532   3.337  0.3242 -0.1391  1.0612
  759MOL0     H 4717  10.489   7.689   3.328  1.3879 -1.6531  1.1672
  759MOL0     H 4718  10.487   7.661   3.074  1.7856  0.7652 -0.5679
  759MOL0     H 4719  10.614   7.535   3.099  1.6695  0.9940 -0.0237
  759MOL0     H 4720  10.762   7.713   3.210  1.5493 -0.4668 -0.0618
  759MOL0     H 4721  10.634   7.823   3.173  1.0363 -0.4706  0.4794
  759MOL0     H 4722  10.199   7.219   3.875 -0.9216  0.9456  4.0041
  759MOL0     H 4723  10.377   7.139   4.028  1.9452 -0.6752 -0.6921
  759MOL0     H 4724  10.607   7.087   4.284 -0.0061 -1.9887  2.8551
  759MOL0     H 4725  10.764   6.973   4.412  0.3396  0.3289 -0.1529
  759MOL0     H 4726  10.568   7.690   4.797 -1.4682 -0.2098  0.9046
  759MOL0     H 4727  10.382   7.757   4.682  3.7399  1.8755  0.2619
  759MOL0     H 4728  10.259   8.017   4.546 -1.4091  3.2756 -1.6955
  759MOL0     H 4729  10.431   8.163   4.470 -0.2827 -0.1078  0.6267
  759MOL0     H 4730  10.749   7.989   4.212 -3.4545 -1.3517 -0.5527
  759MOL0     H 4731  10.650   8.090   4.102  0.2221  5.4534 -0.0279
  759MOL0     H 4732  10.899   8.161   4.106 -0.0485 -1.1871 -0.7244
  759MOL0     H 4733  10.882   8.204   4.277  1.9799  1.2106 -1.5059
  759MOL0     H 4734  10.682   8.359   4.170 -0.0938  1.4360  1.2056
  759MOL0     H 4735  10.851   8.401   4.208  0.7168 -0.5440 -0.5892
  759MOL0     H 4736  10.928   8.347   3.968 -0.4829 -2.8115  0.2801
  759MOL0     H 4737  10.816   8.486   3.988 -3.3012 -0.2511 -1.6865
  759MOL0     H 4738  10.601   8.180   3.773 -2.0309 -0.4849  2.5397
  759MOL0     H 4739  10.583   7.864   4.198  0.6354 -0.8230  0.5469
  759MOL0     H 4740  10.423   7.610   4.282 -3.2394 -0.8087  0.7740
  759MOL0     H 4741  10.272   7.679   4.214 -0.2648  2.6870  0.8066
  759MOL0     H 4742  10.423   7.689   4.127 -2.0490 -0.1355 -0.7378
  760MOL0     O 4743   4.046   5.571   1.429 -0.2872 -0.1414  0.7034
  760MOL0     C 4744   4.068   5.481   1.344  1.0564 -0.1270 -0.6412
  760MOL0     O 4745   4.122   5.499   1.214  0.2124 -0.5018 -0.2999
  760MOL0     C 4746   4.090   5.607   1.136  0.5890  0.4772 -0.6239
  760MOL0     C 4747   4.177   5.631   1.033 -0.5262  0.4571  0.1293
  760MOL0     C 4748   4.157   5.730   0.939  0.3114  0.1849  0.2690
  760MOL0     C 4749   4.035   5.803   0.940 -0.0165 -0.1349  0.2702
  760MOL0     O 4750   4.028   5.896   0.841  0.2866  0.1804 -1.1425
  760MOL0     C 4751   3.904   5.960   0.822  0.4831  0.4358 -0.1092
  760MOL0     C 4752   3.901   6.031   0.682 -0.1776 -0.1618 -0.1373
  760MOL0     C 4753   3.915   5.932   0.562 -0.7820 -0.1428 -0.1042
  760MOL0     C 4754   4.059   5.927   0.528  1.1107  0.5935  0.8010
  760MOL0     C 4755   4.069   5.810   0.438 -0.1766  0.1605  0.4292
  760MOL0     C 4756   4.226   5.770   0.431 -0.4850 -0.1709  0.6801
  760MOL0     C 4757   4.234   5.648   0.344  0.0070  0.2624 -0.5690
  760MOL0     C 4758   4.372   5.623   0.297 -1.3387 -0.0907  0.1719
  760MOL0     N 4759   4.395   5.483   0.243  0.1323 -0.1372  0.0219
  760MOL0     C 4760   4.351   5.438   0.120  0.6492  0.4531  0.3134
  760MOL0     C 4761   4.396   5.311   0.117 -0.7024 -0.5764 -0.8798
  760MOL0     C 4762   4.358   5.231   0.000 -0.3531 -0.2422 -0.9233
  760MOL0     C 4763   4.210   5.197   0.008  0.9421  0.0721  0.5057
  760MOL0     C 4764   4.192   5.088   0.112 -0.3397 -0.1142  0.7033
  760MOL0     C 4765   4.255   4.961   0.098 -0.1712  0.5568 -0.4615
  760MOL0     O 4766   4.179   4.853   0.154 -0.1042 -0.3623  0.5444
  760MOL0     C 4767   4.238   4.733   0.163 -0.2121 -0.0587 -0.5117
  760MOL0     C 4768   4.371   4.696   0.125  0.1438 -1.0674 -0.0810
  760MOL0     C 4769   4.427   4.568   0.152  0.3220 -0.3814  0.7333
  760MOL0     C 4770   4.571   4.558   0.128  0.2255  0.3042 -0.6552
  760MOL0     C 4771   4.336   4.464   0.188 -0.2294  0.0260  0.6281
  760MOL0     C 4772   4.375   4.313   0.196  0.2871  0.1799  0.1058
  760MOL0     O 4773   4.277   4.228   0.195  0.6328  0.3166 -0.5453
  760MOL0     C 4774   4.309   4.107   0.145  0.6447  0.9404 -0.1343
  760MOL0     C 4775   4.374   4.006   0.221  0.9901  0.3043 -0.1160
  760MOL0     C 4776   4.402   3.879   0.170  0.2573  0.6666  0.5506
  760MOL0     C 4777   4.355   3.849   0.039  0.2737  0.3548 -0.3156
  760MOL0     O 4778   4.383   3.724  -0.010 -0.2303 -0.4623  0.5648
  760MOL0     C 4779   4.312   3.693  -0.131 -0.2402  0.1457  0.8639
  760MOL0     C 4780   4.316   3.539  -0.155  0.9657 -0.1615 -0.3978
  760MOL0     C 4781   4.454   3.497  -0.207 -0.6218  0.6034  0.6463
  760MOL0     C 4782   4.469   3.527  -0.357 -0.6730  0.2510 -0.3358
  760MOL0     C 4783   4.599   3.471  -0.428 -0.2420 -0.7696 -0.4491
  760MOL0     C 4784   4.627   3.510  -0.574 -0.0215  0.7482 -0.5948
  760MOL0     C 4785   4.502   3.480  -0.667 -0.0939 -0.0281  0.2187
  760MOL0     C 4786   4.537   3.508  -0.813 -0.1360  0.7547  0.1906
  760MOL0    Cl 4787   4.526   3.677  -0.858 -0.0740 -0.0934 -0.2166
  760MOL0     C 4788   4.293   3.949  -0.043  0.0711  0.1009  0.0516
  760MOL0     C 4789   4.266   4.077   0.017 -0.3955  0.9941  0.2182
  760MOL0     O 4790   4.494   4.283   0.210 -0.1837 -0.1195 -0.6002
  760MOL0     C 4791   4.202   4.490   0.200  0.1850 -0.7161  0.0565
  760MOL0     C 4792   4.163   4.625   0.198 -0.0982 -0.0264 -0.8848
  760MOL0     N 4793   4.481   5.287   0.220  0.0767  0.0043  0.3850
  760MOL0     N 4794   4.486   5.395   0.292  0.8347  0.1978  0.4934
  760MOL0     C 4795   3.934   5.776   1.041 -0.0830 -0.7790  0.4504
  760MOL0     C 4796   3.975   5.684   1.142  0.4703 -0.8291 -0.4833
  760MOL0     C 4797   4.064   5.337   1.381 -0.1734  0.3940 -0.1324
  760MOL0     C 4798   4.119   5.249   1.284  0.4351 -0.4656 -0.0126
  760MOL0     C 4799   4.143   5.112   1.313 -0.0577 -0.2651 -0.3204
  760MOL0     C 4800   4.086   5.050   1.422  0.4252 -0.2043  0.1265
  760MOL0     O 4801   4.129   4.921   1.429  0.3472 -0.1325  0.2673
  760MOL0     C 4802   4.073   4.846   1.535  0.1996 -0.1900 -0.8570
  760MOL0     C 4803   4.115   4.699   1.526  0.0532 -0.8384 -0.1750
  760MOL0     C 4804   4.025   4.616   1.626  0.5525 -0.3688  0.6107
  760MOL0     C 4805   4.058   4.469   1.627  0.6259 -0.5678 -1.1191
  760MOL0     C 4806   3.975   4.405   1.737 -0.3307 -0.1396  0.2406
  760MOL0     C 4807   3.904   4.358   1.815  0.0630 -0.5635  0.2767
  760MOL0     C 4808   4.021   5.135   1.519 -0.6060  1.1111 -0.4792
  760MOL0     C 4809   4.014   5.279   1.495  0.8196 -0.3574 -0.7803
  760MOL0     C 4810   3.930   5.355   1.595  0.2322  0.3927 -0.0609
  760MOL0     H 4811   4.264   5.568   1.016 -1.2069 -0.2696 -0.7837
  760MOL0     H 4812   4.224   5.753   0.856 -0.2330  0.1449 -0.1845
  760MOL0     H 4813   3.881   6.031   0.902 -1.7506 -1.1604  0.7705
  760MOL0     H 4814   3.821   5.889   0.810  0.7425  0.3079 -1.2076
  760MOL0     H 4815   3.807   6.086   0.674 -0.4314 -0.7941 -2.1785
  760MOL0     H 4816   3.982   6.104   0.681  1.3905 -1.7096 -3.7447
  760MOL0     H 4817   3.872   5.834   0.587 -2.6105  0.1246 -1.9430
  760MOL0     H 4818   3.862   5.965   0.472  0.0108 -0.9933 -0.8951
  760MOL0     H 4819   4.089   6.018   0.476  1.3734  1.7894  2.9500
  760MOL0     H 4820   4.125   5.915   0.615  1.3760 -3.5611  0.2523
  760MOL0     H 4821   4.024   5.832   0.341 -2.4811 -1.2179  1.1046
  760MOL0     H 4822   4.010   5.726   0.474  1.2340 -0.8135  0.5540
  760MOL0     H 4823   4.283   5.851   0.386 -0.4064 -1.8492 -2.4941
  760MOL0     H 4824   4.266   5.739   0.528 -0.3060 -2.6208 -0.1034
  760MOL0     H 4825   4.175   5.664   0.253  0.6241  1.8331 -0.7347
  760MOL0     H 4826   4.201   5.560   0.401 -1.7910  1.7530  0.8455
  760MOL0     H 4827   4.389   5.700   0.222  0.3330 -0.3861  0.2179
  760MOL0     H 4828   4.443   5.633   0.379  0.1831  2.6567 -1.3523
  760MOL0     H 4829   4.292   5.496   0.051 -2.7517  0.0438  2.6292
  760MOL0     H 4830   4.412   5.136   0.008 -1.4211 -0.7734  0.4648
  760MOL0     H 4831   4.376   5.285  -0.093  3.6660 -0.6342 -0.5603
  760MOL0     H 4832   4.152   5.282   0.045  2.6084  1.3724  0.2573
  760MOL0     H 4833   4.162   5.161  -0.084  1.0431  2.2378 -0.4554
  760MOL0     H 4834   4.226   5.129   0.208 -1.8034  0.3643  1.0374
  760MOL0     H 4835   4.084   5.072   0.121 -0.1577 -0.2992  3.4160
  760MOL0     H 4836   4.279   4.928  -0.004  1.7648 -1.4898  0.5558
  760MOL0     H 4837   4.352   4.985   0.143 -0.6055  0.7372  0.3813
  760MOL0     H 4838   4.450   4.767   0.103 -0.4982  0.5658  2.4313
  760MOL0     H 4839   4.580   4.468   0.067 -0.3126 -1.6544  1.9703
  760MOL0     H 4840   4.620   4.534   0.223 -1.7493  1.8853  0.8460
  760MOL0     H 4841   4.626   4.641   0.083  1.7974 -1.4695 -2.1945
  760MOL0     H 4842   4.402   4.028   0.324 -0.6893  0.7940  0.2565
  760MOL0     H 4843   4.444   3.802   0.234 -1.4526 -2.0633 -1.3850
  760MOL0     H 4844   4.209   3.727  -0.115 -0.8615 -1.6378  0.7812
  760MOL0     H 4845   4.355   3.735  -0.223  2.7741 -2.1094  1.1004
  760MOL0     H 4846   4.290   3.494  -0.059 -1.8531 -0.6475 -1.2851
  760MOL0     H 4847   4.238   3.502  -0.223 -0.4917  1.2168  0.4423
  760MOL0     H 4848   4.447   3.388  -0.200 -2.0436  0.3997 -2.3932
  760MOL0     H 4849   4.540   3.536  -0.151 -0.1181  1.0744 -0.4400
  760MOL0     H 4850   4.462   3.635  -0.374 -1.9988  0.1307 -0.6405
  760MOL0     H 4851   4.394   3.477  -0.419  2.2393 -1.8442 -2.4205
  760MOL0     H 4852   4.686   3.507  -0.371 -1.1048 -2.1051  1.8275
  760MOL0     H 4853   4.609   3.363  -0.413  1.6865 -0.2263  3.6687
  760MOL0     H 4854   4.715   3.457  -0.609  0.6681  2.0257 -0.8639
  760MOL0     H 4855   4.652   3.617  -0.580 -1.9656  1.2305 -1.0076
  760MOL0     H 4856   4.414   3.540  -0.642 -0.1959  1.0222 -2.3870
  760MOL0     H 4857   4.472   3.375  -0.661 -3.0494  0.7281  0.1370
  760MOL0     H 4858   4.463   3.453  -0.872  2.6288 -1.1250 -1.7530
  760MOL0     H 4859   4.635   3.462  -0.828 -0.7313  0.0994 -1.9670
  760MOL0     H 4860   4.260   3.938  -0.146 -1.8143 -1.7191  0.7574
  760MOL0     H 4861   4.236   4.157  -0.050 -3.2628  0.3353  0.5810
  760MOL0     H 4862   4.136   4.404   0.208 -2.2750  0.7705 -2.4571
  760MOL0     H 4863   4.057   4.646   0.208  0.5617  2.9764  0.9727
  760MOL0     H 4864   3.844   5.837   1.040  0.6628  0.3618 -0.0304
  760MOL0     H 4865   3.910   5.665   1.227  1.5204  0.7725  0.7383
  760MOL0     H 4866   4.151   5.287   1.187 -2.6747 -0.4674 -1.1427
  760MOL0     H 4867   4.195   5.044   1.245 -0.4747 -0.6599 -0.2526
  760MOL0     H 4868   4.089   4.891   1.634  1.4352 -1.2302 -0.5565
  760MOL0     H 4869   3.964   4.844   1.526  0.0762  2.6001 -0.8889
  760MOL0     H 4870   4.220   4.695   1.554  0.0553 -1.7195 -0.2825
  760MOL0     H 4871   4.109   4.675   1.420 -0.1900 -1.2656 -0.0673
  760MOL0     H 4872   4.037   4.655   1.728 -0.5744  0.8055  0.3260
  760MOL0     H 4873   3.919   4.634   1.606  0.1670 -0.6148  2.2720
  760MOL0     H 4874   4.165   4.468   1.645  0.4870  0.0213 -0.2415
  760MOL0     H 4875   4.042   4.407   1.538  2.9873 -0.5555 -1.6246
  760MOL0     H 4876   3.845   4.320   1.896 -2.2676  0.1583 -1.0091
  760MOL0     H 4877   3.976   5.094   1.609  1.3673  0.3485  0.2183
  760MOL0     H 4878   3.853   5.409   1.539 -0.5103 -2.5251 -2.0719
  760MOL0     H 4879   3.872   5.291   1.662 -0.9017  1.0557 -0.3803
  760MOL0     H 4880   3.983   5.421   1.664  0.1146  0.5965 -0.1633
  761MOL0     O 4881   4.022   7.682   3.116  0.5338  0.3293  0.0293
  761MOL0     C 4882   4.012   7.623   3.219  0.4060  0.7032  0.1598
  761MOL0     O 4883   4.103   7.625   3.315 -0.0331  0.2412  0.5179
  761MOL0     C 4884   4.196   7.723   3.311 -0.1376  0.8845  1.0338
  761MOL0     C 4885   4.334   7.684   3.317 -0.0392 -0.3806  0.1037
  761MOL0     C 4886   4.426   7.783   3.344 -0.6508 -0.3758  0.4370
  761MOL0     C 4887   4.394   7.915   3.338 -0.2752 -0.7422  0.1771
  761MOL0     O 4888   4.499   8.001   3.364 -0.2423 -0.0170 -0.7011
  761MOL0     C 4889   4.488   8.143   3.373  0.5558  0.5853 -0.9660
  761MOL0     C 4890   4.594   8.175   3.479 -0.2156 -0.2662  0.0366
  761MOL0     C 4891   4.745   8.144   3.439 -0.7220  0.0634  0.7898
  761MOL0     C 4892   4.831   8.105   3.555 -0.1100  0.1137  0.4451
  761MOL0     C 4893   4.979   8.093   3.514 -0.8779 -0.1779  0.2426
  761MOL0     C 4894   5.073   8.059   3.645  0.3560  0.5696 -0.4829
  761MOL0     C 4895   5.220   8.031   3.630  0.0842 -0.2320  0.8383
  761MOL0     C 4896   5.291   8.137   3.533  0.2330  0.5991  0.3203
  761MOL0     N 4897   5.439   8.108   3.532  0.8609  1.0581  0.2133
  761MOL0     C 4898   5.526   8.191   3.471  0.0585  0.7652  0.0074
  761MOL0     C 4899   5.634   8.114   3.446 -0.0838  0.6025 -0.8251
  761MOL0     C 4900   5.755   8.164   3.381 -0.5800 -0.0626 -0.2175
  761MOL0     C 4901   5.733   8.275   3.274 -0.3330 -0.2598  0.0345
  761MOL0     C 4902   5.696   8.227   3.134 -0.7468  0.7754 -0.0586
  761MOL0     C 4903   5.812   8.156   3.075  0.2179  0.3373 -0.0684
  761MOL0     O 4904   5.910   8.244   3.029 -0.0266  0.0588  0.3244
  761MOL0     C 4905   6.014   8.194   2.959 -0.8398 -0.2114  0.6907
  761MOL0     C 4906   6.072   8.295   2.885 -0.5231 -0.0632  0.8669
  761MOL0     C 4907   6.180   8.275   2.802 -0.2505  0.0570 -0.4005
  761MOL0     C 4908   6.241   8.397   2.729  0.5511  0.3411 -0.0434
  761MOL0     C 4909   6.218   8.144   2.781  1.2360  0.4167 -0.1694
  761MOL0     C 4910   6.326   8.104   2.685  0.2223  0.7120 -0.5854
  761MOL0     O 4911   6.377   7.978   2.710 -0.2034  0.6575  0.4427
  761MOL0     C 4912   6.476   7.922   2.633 -0.2206  0.0820  0.5402
  761MOL0     C 4913   6.605   7.969   2.607 -0.7553  0.1609  0.5163
  761MOL0     C 4914   6.699   7.891   2.541  0.0636  0.1209  0.0566
  761MOL0     C 4915   6.659   7.774   2.471 -0.8779 -0.7101 -0.4895
  761MOL0     O 4916   6.756   7.702   2.394  0.1655  0.1315 -0.4401
  761MOL0     C 4917   6.820   7.781   2.288  0.5599 -0.0892  0.6052
  761MOL0     C 4918   6.729   7.758   2.160  0.6352  0.2809 -0.8624
  761MOL0     C 4919   6.748   7.862   2.055  0.3328 -0.2547 -0.4134
  761MOL0     C 4920   6.637   7.841   1.949 -0.5284  0.0016 -0.2431
  761MOL0     C 4921   6.624   7.953   1.838  0.3368 -0.3299  0.6805
  761MOL0     C 4922   6.679   7.892   1.706  0.0818 -0.1512 -0.4769
  761MOL0     C 4923   6.567   7.810   1.646  0.4073 -0.3542  0.3200
  761MOL0     C 4924   6.601   7.759   1.509  0.3071 -1.0556 -0.4408
  761MOL0    Cl 4925   6.747   7.667   1.506 -0.1948  0.0427 -0.1548
  761MOL0     C 4926   6.529   7.731   2.486  0.6912 -0.0324  0.3916
  761MOL0     C 4927   6.433   7.805   2.568  0.3317  0.3269  0.1435
  761MOL0     O 4928   6.343   8.156   2.577 -0.0018  0.5664 -0.9093
  761MOL0     C 4929   6.160   8.045   2.863 -0.0521 -0.2166 -0.7915
  761MOL0     C 4930   6.064   8.063   2.956  0.7182  0.3880  0.2751
  761MOL0     N 4931   5.607   7.984   3.488 -0.3628  0.0508  0.2539
  761MOL0     N 4932   5.492   7.980   3.544  0.3078  0.6750 -0.0961
  761MOL0     C 4933   4.255   7.954   3.318 -0.5065  0.0733 -0.3516
  761MOL0     C 4934   4.160   7.852   3.304 -0.8668  0.4353 -0.2212
  761MOL0     C 4935   3.895   7.528   3.233 -0.2448  0.3032  0.2048
  761MOL0     C 4936   3.923   7.412   3.304 -0.5115  0.5090  0.0794
  761MOL0     C 4937   3.826   7.310   3.323 -0.0308 -0.6459  1.2130
  761MOL0     C 4938   3.703   7.331   3.271  0.6022  0.2148 -0.2525
  761MOL0     O 4939   3.598   7.243   3.272 -0.2424  0.4769 -1.1243
  761MOL0     C 4940   3.569   7.188   3.400  0.2218  1.3355 -0.5654
  761MOL0     C 4941   3.609   7.042   3.414 -0.0590  0.0239  0.0424
  761MOL0     C 4942   3.625   6.966   3.272  0.2025 -0.4027 -0.5491
  761MOL0     C 4943   3.650   6.823   3.287 -0.1407  0.1042 -0.7058
  761MOL0     C 4944   3.544   6.757   3.349  0.5331 -1.0709 -0.2763
  761MOL0     C 4945   3.447   6.694   3.394 -0.3556 -0.0626  0.4387
  761MOL0     C 4946   3.671   7.451   3.205  0.3134  0.4801  0.6718
  761MOL0     C 4947   3.768   7.548   3.185  0.3511 -0.0137  0.2583
  761MOL0     C 4948   3.718   7.665   3.122 -0.2392 -0.1384  0.1956
  761MOL0     H 4949   4.350   7.579   3.339 -0.3758 -0.6576 -0.9168
  761MOL0     H 4950   4.530   7.774   3.373 -0.1631  0.8367 -0.8225
  761MOL0     H 4951   4.399   8.168   3.430  3.0882  2.1751  2.6579
  761MOL0     H 4952   4.486   8.200   3.280 -1.1409  1.2068 -0.5811
  761MOL0     H 4953   4.600   8.279   3.511  2.7355 -0.6548  1.0289
  761MOL0     H 4954   4.555   8.121   3.566 -3.4676  0.4375 -0.8538
  761MOL0     H 4955   4.749   8.065   3.363 -0.4517 -0.4312  1.3083
  761MOL0     H 4956   4.786   8.234   3.392  2.4943 -1.5943  0.0972
  761MOL0     H 4957   4.822   8.176   3.638  0.2258 -4.3742  4.8204
  761MOL0     H 4958   4.803   8.008   3.597 -1.2797  0.1077 -0.3188
  761MOL0     H 4959   5.030   8.171   3.456  1.4886 -0.4713  1.7603
  761MOL0     H 4960   4.978   8.001   3.455 -1.2197 -1.0529  1.5493
  761MOL0     H 4961   5.070   8.136   3.723  0.6457 -1.3018  1.4842
  761MOL0     H 4962   5.023   7.979   3.699  1.8615  0.9590  1.6351
  761MOL0     H 4963   5.243   7.929   3.599  1.9823  0.4727 -0.2032
  761MOL0     H 4964   5.272   8.047   3.724 -1.8920  1.8745  1.6848
  761MOL0     H 4965   5.257   8.135   3.429 -0.3270  0.5965  0.4971
  761MOL0     H 4966   5.259   8.233   3.574 -1.9053 -0.3967  1.1704
  761MOL0     H 4967   5.500   8.297   3.467 -2.1576  0.3301  1.1710
  761MOL0     H 4968   5.804   8.074   3.342  1.4436  0.8341  0.1320
  761MOL0     H 4969   5.820   8.201   3.461  0.1174 -2.6064  0.4817
  761MOL0     H 4970   5.661   8.354   3.295 -0.4400  0.0888 -1.5501
  761MOL0     H 4971   5.825   8.333   3.258 -0.0939 -0.7703 -0.4875
  761MOL0     H 4972   5.610   8.160   3.139 -0.5877  0.2276 -2.9570
  761MOL0     H 4973   5.665   8.305   3.064 -0.1549  1.9777  0.9687
  761MOL0     H 4974   5.857   8.087   3.147 -1.5345 -0.5221  0.2611
  761MOL0     H 4975   5.783   8.094   2.989 -0.2187  0.5287 -0.0650
  761MOL0     H 4976   6.047   8.400   2.891  3.5379  1.1135  0.4492
  761MOL0     H 4977   6.349   8.385   2.730  0.4674 -0.4846  1.0047
  761MOL0     H 4978   6.202   8.487   2.776  0.9523  0.8078 -0.5846
  761MOL0     H 4979   6.214   8.398   2.623  2.1499  0.9483 -0.4658
  761MOL0     H 4980   6.625   8.072   2.632 -3.4451  0.4131  1.9686
  761MOL0     H 4981   6.802   7.924   2.537  0.7896 -1.9929  0.0141
  761MOL0     H 4982   6.831   7.887   2.312  0.5288 -0.6271  3.3210
  761MOL0     H 4983   6.915   7.731   2.271 -0.9555 -2.7835 -0.6313
  761MOL0     H 4984   6.752   7.657   2.124 -0.5028  0.1393 -1.2490
  761MOL0     H 4985   6.623   7.764   2.188  0.8670  1.3939 -0.1998
  761MOL0     H 4986   6.846   7.862   2.007 -0.1733 -2.6098 -1.6329
  761MOL0     H 4987   6.728   7.959   2.102 -0.7939 -0.4265 -0.4953
  761MOL0     H 4988   6.539   7.837   1.998 -0.0382 -3.0700  0.6714
  761MOL0     H 4989   6.657   7.750   1.891  2.7945  1.5116 -1.7673
  761MOL0     H 4990   6.521   7.987   1.828 -0.8631 -4.0009 -0.9510
  761MOL0     H 4991   6.673   8.048   1.863  0.9897  0.1627 -2.1784
  761MOL0     H 4992   6.763   7.825   1.726  0.7203  1.0864  1.1975
  761MOL0     H 4993   6.718   7.977   1.649  0.4176  1.6126  2.1889
  761MOL0     H 4994   6.477   7.872   1.635  0.4638 -0.4758 -0.9492
  761MOL0     H 4995   6.548   7.720   1.705  0.6676 -0.4626  0.2355
  761MOL0     H 4996   6.610   7.855   1.457 -1.1716  0.7887  2.3569
  761MOL0     H 4997   6.515   7.712   1.461  0.2641 -1.1052 -0.3171
  761MOL0     H 4998   6.505   7.639   2.435 -1.0326  1.5252 -1.7946
  761MOL0     H 4999   6.337   7.754   2.576  1.3539 -2.3817 -2.6828
  761MOL0     H 5000   6.204   7.946   2.871 -0.4254 -0.2792  0.8082
  761MOL0     H 5001   6.033   7.980   3.019  0.8017 -0.1224 -0.3343
  761MOL0     H 5002   4.223   8.058   3.322  0.3493  0.3139  1.0356
  761MOL0     H 5003   4.057   7.885   3.295 -1.8959 -2.8028 -1.9346
  761MOL0     H 5004   4.018   7.389   3.351 -0.5733  1.2265  0.5543
  761MOL0     H 5005   3.847   7.209   3.359 -1.5955 -2.1779 -1.7714
  761MOL0     H 5006   3.599   7.249   3.487 -1.4229 -0.0760  1.0741
  761MOL0     H 5007   3.461   7.191   3.416  0.2486 -0.2368  0.0609
  761MOL0     H 5008   3.539   6.985   3.475 -0.9731  2.3602  1.3089
  761MOL0     H 5009   3.705   7.046   3.467 -0.8245  2.7772  1.4004
  761MOL0     H 5010   3.544   6.988   3.202 -1.1822  2.3331  1.6831
  761MOL0     H 5011   3.711   7.016   3.226  1.4381 -2.1013 -0.1761
  761MOL0     H 5012   3.741   6.800   3.344  0.7039 -2.9427 -3.0139
  761MOL0     H 5013   3.654   6.778   3.187 -2.4274 -1.2027 -0.2865
  761MOL0     H 5014   3.355   6.645   3.419 -1.0088  1.1638  0.5202
  761MOL0     H 5015   3.571   7.458   3.163 -0.0288  2.5153  1.7110
  761MOL0     H 5016   3.765   7.751   3.169 -0.0850  1.0665 -2.0122
  761MOL0     H 5017   3.741   7.663   3.015  0.0273 -0.9240  0.2620
  761MOL0     H 5018   3.608   7.669   3.128 -0.1435  0.9351  1.8732
  762MOL0     O 5019   6.589   7.690   6.912 -0.2392  0.3066  0.4475
  762MOL0     C 5020   6.509   7.603   6.934 -0.8814  0.3663  0.2809
  762MOL0     O 5021   6.532   7.464   6.919  0.1783  0.3728 -0.0310
  762MOL0     C 5022   6.650   7.423   6.881  0.8667 -0.5106  0.4432
  762MOL0     C 5023   6.724   7.364   6.978  0.4785 -0.7889  0.8926
  762MOL0     C 5024   6.860   7.343   6.965  0.1086 -0.4309  0.4271
  762MOL0     C 5025   6.920   7.371   6.837 -0.6241 -0.2560  0.3757
  762MOL0     O 5026   7.054   7.365   6.794  0.2781 -0.4951 -0.5209
  762MOL0     C 5027   7.144   7.303   6.884 -0.8471 -0.1486  0.2853
  762MOL0     C 5028   7.275   7.262   6.793 -0.8260 -0.5601 -0.8368
  762MOL0     C 5029   7.394   7.182   6.860  0.2241 -0.6296 -0.4817
  762MOL0     C 5030   7.350   7.074   6.954 -0.3331 -0.2673  0.5916
  762MOL0     C 5031   7.476   7.007   7.022 -0.5280  0.1508 -0.4777
  762MOL0     C 5032   7.455   6.874   7.086 -0.3541  0.7077 -0.4475
  762MOL0     C 5033   7.365   6.879   7.210 -0.1995 -0.2839  0.3266
  762MOL0     C 5034   7.384   6.753   7.303 -0.8795  0.8939 -0.5256
  762MOL0     N 5035   7.509   6.760   7.388 -0.0267 -0.0518  0.4097
  762MOL0     C 5036   7.524   6.860   7.477  0.3487  0.4476 -0.1426
  762MOL0     C 5037   7.652   6.844   7.527  0.6082  0.3089 -0.4875
  762MOL0     C 5038   7.717   6.931   7.633  0.6741 -0.0761 -0.5278
  762MOL0     C 5039   7.796   6.866   7.742  0.5574 -0.1530  0.1710
  762MOL0     C 5040   7.928   6.803   7.704  0.6299  0.0279 -0.3218
  762MOL0     C 5041   7.957   6.681   7.806 -0.6404 -0.0309  0.6064
  762MOL0     O 5042   7.979   6.717   7.950  0.1762  0.9700  0.9803
  762MOL0     C 5043   8.109   6.699   7.993 -0.5110 -0.5996  0.6555
  762MOL0     C 5044   8.178   6.584   7.986 -0.7664 -0.3223  0.3450
  762MOL0     C 5045   8.310   6.574   8.028 -0.7442  0.7082  0.9846
  762MOL0     C 5046   8.377   6.440   8.024  0.0852  0.2642 -0.2194
  762MOL0     C 5047   8.383   6.691   8.054 -0.9108 -1.0606  0.1489
  762MOL0     C 5048   8.527   6.682   8.081 -0.1531 -1.3092  0.0555
  762MOL0     O 5049   8.571   6.616   8.187  0.7444 -0.6149 -0.0121
  762MOL0     C 5050   8.694   6.645   8.245  0.3592 -0.1719  0.1032
  762MOL0     C 5051   8.706   6.773   8.305  0.0810 -0.2867  0.6404
  762MOL0     C 5052   8.825   6.823   8.362 -0.2324  0.0622  0.1675
  762MOL0     C 5053   8.939   6.739   8.360 -0.2478  1.1945  0.3101
  762MOL0     O 5054   9.076   6.764   8.383  0.6851  0.4769 -0.3264
  762MOL0     C 5055   9.108   6.905   8.391 -0.7292 -0.0570 -0.4824
  762MOL0     C 5056   9.258   6.930   8.347  0.0914  0.5248 -0.5013
  762MOL0     C 5057   9.277   7.085   8.340 -1.1283 -0.3332  0.6226
  762MOL0     C 5058   9.220   7.158   8.213  0.4166 -1.4898 -0.5409
  762MOL0     C 5059   9.311   7.160   8.100  0.0432  1.0863  0.0498
  762MOL0     C 5060   9.240   7.185   7.963  0.2483  0.1519 -0.3987
  762MOL0     C 5061   9.146   7.315   7.960  1.0598 -0.1657 -0.5259
  762MOL0     C 5062   9.013   7.291   8.026  0.3176  0.6852 -0.0847
  762MOL0    Cl 5063   8.879   7.346   7.928  0.3852  0.5043  0.1119
  762MOL0     C 5064   8.923   6.608   8.302 -0.2853 -0.2519  0.1370
  762MOL0     C 5065   8.801   6.567   8.252  0.2274 -0.5140  1.2705
  762MOL0     O 5066   8.601   6.750   8.010  0.5910  0.1441  0.2573
  762MOL0     C 5067   8.307   6.809   8.067 -0.0883  0.2692 -0.1325
  762MOL0     C 5068   8.168   6.821   8.037  0.3645  0.3356  0.4977
  762MOL0     N 5069   7.706   6.740   7.452 -0.0547  0.8055  0.8864
  762MOL0     N 5070   7.624   6.693   7.368  0.0489  0.7555 -0.1937
  762MOL0     C 5071   6.835   7.416   6.730 -0.2029  0.9316 -0.4340
  762MOL0     C 5072   6.699   7.449   6.755  0.3311  0.1695  1.1747
  762MOL0     C 5073   6.374   7.641   6.966  0.3573 -0.4962 -0.2642
  762MOL0     C 5074   6.264   7.559   6.933  0.1820 -0.5545  1.1336
  762MOL0     C 5075   6.130   7.583   6.970 -0.9807 -0.8683 -0.0496
  762MOL0     C 5076   6.110   7.705   7.035 -0.4837  0.0743  0.2995
  762MOL0     O 5077   5.983   7.716   7.078  0.5055 -0.1914  0.2699
  762MOL0     C 5078   5.969   7.764   7.213 -0.3596  0.3773  0.0233
  762MOL0     C 5079   5.835   7.724   7.274  0.3911 -0.2461  0.5240
  762MOL0     C 5080   5.723   7.794   7.198  0.1704 -0.1474 -1.2194
  762MOL0     C 5081   5.569   7.777   7.246 -0.2292 -0.7535  0.2849
  762MOL0     C 5082   5.521   7.644   7.262 -0.0424 -0.6631  0.0857
  762MOL0     C 5083   5.479   7.533   7.286 -0.3717  0.1357  0.2418
  762MOL0     C 5084   6.208   7.801   7.065 -0.1509 -0.2619 -0.0472
  762MOL0     C 5085   6.339   7.765   7.034  0.1096 -0.1310 -0.6998
  762MOL0     C 5086   6.441   7.846   7.108 -1.0039  0.6539  0.0764
  762MOL0     H 5087   6.680   7.328   7.070  1.5795  0.0107  1.7573
  762MOL0     H 5088   6.918   7.305   7.049 -0.3253  0.6231  1.2325
  762MOL0     H 5089   7.116   7.212   6.940  3.1624 -1.2546  0.7889
  762MOL0     H 5090   7.173   7.372   6.963 -0.8191 -1.8671  1.8636
  762MOL0     H 5091   7.253   7.192   6.712 -2.1282 -1.8052  0.5444
  762MOL0     H 5092   7.314   7.343   6.731 -0.3393 -1.4582 -1.7319
  762MOL0     H 5093   7.455   7.137   6.782  0.2042 -0.9601 -0.3077
  762MOL0     H 5094   7.460   7.259   6.901 -0.4990  0.1387 -0.7278
  762MOL0     H 5095   7.289   7.114   7.036  0.0509  0.7729  0.3893
  762MOL0     H 5096   7.302   6.998   6.892 -1.6026  1.2991 -0.4393
  762MOL0     H 5097   7.518   7.078   7.093 -0.8671  0.7596 -0.8817
  762MOL0     H 5098   7.543   6.985   6.939 -0.3627 -0.6367 -0.1459
  762MOL0     H 5099   7.410   6.809   7.010 -1.5220  0.6480  0.2706
  762MOL0     H 5100   7.559   6.850   7.110  1.1312  4.2587 -2.5138
  762MOL0     H 5101   7.263   6.887   7.173 -0.0183 -1.7014 -0.5540
  762MOL0     H 5102   7.396   6.974   7.254  2.0395  0.4153 -2.4286
  762MOL0     H 5103   7.302   6.729   7.371  0.9536 -2.5732  0.7273
  762MOL0     H 5104   7.398   6.665   7.239  0.0532  0.6031  0.0499
  762MOL0     H 5105   7.454   6.939   7.502  1.1390  0.2192  3.1515
  762MOL0     H 5106   7.634   6.973   7.690  0.8473  1.2302 -1.1946
  762MOL0     H 5107   7.777   7.011   7.590  0.5610  0.0436 -0.4631
  762MOL0     H 5108   7.811   6.931   7.828 -0.0549  0.2831 -0.0433
  762MOL0     H 5109   7.716   6.800   7.777 -0.8013  0.9764 -0.6809
  762MOL0     H 5110   7.924   6.772   7.599  5.0124  0.0230 -0.6930
  762MOL0     H 5111   8.004   6.880   7.723 -0.4314  1.2367 -0.8553
  762MOL0     H 5112   7.888   6.597   7.804 -2.2756  1.2662 -0.3787
  762MOL0     H 5113   8.046   6.640   7.757 -0.4047  0.9146  0.2199
  762MOL0     H 5114   8.127   6.497   7.945  0.9645 -0.6565 -1.2192
  762MOL0     H 5115   8.485   6.444   8.004  0.7377  0.0948  2.8701
  762MOL0     H 5116   8.334   6.376   7.946 -1.5072  1.8356 -0.7146
  762MOL0     H 5117   8.358   6.396   8.122  0.1497 -0.0879 -0.3654
  762MOL0     H 5118   8.613   6.828   8.295 -0.7524 -1.4073  1.8768
  762MOL0     H 5119   8.816   6.926   8.394 -1.1056  0.9388 -2.6002
  762MOL0     H 5120   9.039   6.962   8.329 -0.6235 -0.9216 -1.4270
  762MOL0     H 5121   9.104   6.941   8.494 -0.1764 -1.2704 -0.0100
  762MOL0     H 5122   9.313   6.879   8.425 -3.8189 -3.6822 -0.0866
  762MOL0     H 5123   9.275   6.889   8.247 -1.4489  2.2717 -1.5630
  762MOL0     H 5124   9.384   7.107   8.334 -1.2887  1.1808  2.5500
  762MOL0     H 5125   9.214   7.128   8.418 -2.2153  1.4862 -1.1721
  762MOL0     H 5126   9.214   7.266   8.224  2.6399 -1.0877 -2.5696
  762MOL0     H 5127   9.129   7.100   8.196  0.1651 -1.5830  0.9796
  762MOL0     H 5128   9.389   7.235   8.114  1.0166  0.2237 -0.6208
  762MOL0     H 5129   9.371   7.068   8.090  2.8381  2.4451  2.7044
  762MOL0     H 5130   9.187   7.092   7.942 -1.4315  1.3742 -1.8683
  762MOL0     H 5131   9.324   7.181   7.894  2.7010 -0.6460  2.4206
  762MOL0     H 5132   9.122   7.355   7.860 -1.2530 -0.9032 -0.3239
  762MOL0     H 5133   9.202   7.385   8.022  1.1822  0.8807 -1.7692
  762MOL0     H 5134   9.004   7.344   8.121  0.6046  4.1947 -1.8775
  762MOL0     H 5135   9.002   7.186   8.055 -0.8159  1.0485  0.8786
  762MOL0     H 5136   9.003   6.534   8.303 -0.6768 -0.7528 -1.8992
  762MOL0     H 5137   8.813   6.461   8.234  1.9338  0.1471 -2.4128
  762MOL0     H 5138   8.365   6.895   8.100 -0.5822  0.4851  0.1860
  762MOL0     H 5139   8.104   6.909   8.045  1.9865  1.5981  0.0417
  762MOL0     H 5140   6.881   7.443   6.635 -1.0478  2.7111 -0.3650
  762MOL0     H 5141   6.631   7.494   6.683  1.1588 -0.1240  0.1851
  762MOL0     H 5142   6.288   7.467   6.881  4.6332  0.0842  1.6478
  762MOL0     H 5143   6.051   7.511   6.951 -2.6608 -0.9028  5.3981
  762MOL0     H 5144   6.038   7.716   7.284  1.3125  0.9957 -1.1314
  762MOL0     H 5145   5.988   7.871   7.223  2.4959 -0.0948  0.6473
  762MOL0     H 5146   5.816   7.759   7.376 -1.7949  0.0457  0.0649
  762MOL0     H 5147   5.810   7.618   7.259 -4.2550  0.9797 -2.7277
  762MOL0     H 5148   5.748   7.900   7.208 -0.8338 -0.1427  4.0719
  762MOL0     H 5149   5.731   7.755   7.096  1.1630 -0.3630 -1.0761
  762MOL0     H 5150   5.502   7.831   7.180 -0.0990 -0.6408  0.2439
  762MOL0     H 5151   5.568   7.820   7.346 -0.9300  2.0587 -0.8492
  762MOL0     H 5152   5.434   7.437   7.303  0.4653  0.1202  2.7830
  762MOL0     H 5153   6.180   7.887   7.125  0.4384 -0.7766  1.0126
  762MOL0     H 5154   6.442   7.953   7.083  0.9247  0.5672 -0.3935
  762MOL0     H 5155   6.414   7.845   7.213  2.8165  3.6364  1.3350
  762MOL0     H 5156   6.545   7.811   7.102 -0.9117  0.5936  1.6122
  763MOL0     O 5157   9.029   9.723   1.425  0.3079  0.0262 -0.1967
  763MOL0     C 5158   8.983   9.831   1.459  0.0334  0.8081  0.2351
  763MOL0     O 5159   8.964   9.877   1.588 -0.6682  0.6994  0.3064
  763MOL0     C 5160   8.985   9.800   1.702 -0.2758  0.2519 -0.5020
  763MOL0     C 5161   9.001   9.864   1.830  0.6813  0.7685 -0.1007
  763MOL0     C 5162   9.038   9.796   1.948 -0.7478  0.8394 -0.1191
  763MOL0     C 5163   9.060   9.666   1.945 -0.8681  0.4875 -0.4874
  763MOL0     O 5164   9.118   9.607   2.056  0.3105  0.8278 -0.3981
  763MOL0     C 5165   9.163   9.466   2.054  0.5282  0.3761 -0.3812
  763MOL0     C 5166   9.237   9.435   2.179 -0.3065 -0.2619  0.0743
  763MOL0     C 5167   9.276   9.286   2.179  0.6876 -0.0092  0.4222
  763MOL0     C 5168   9.333   9.233   2.310 -0.3873  0.3487  1.2993
  763MOL0     C 5169   9.480   9.277   2.332 -0.3574 -0.5288  0.0923
  763MOL0     C 5170   9.543   9.206   2.460 -0.7596 -1.0239  0.0581
  763MOL0     C 5171   9.695   9.213   2.474  0.4106 -0.7269 -0.5234
  763MOL0     C 5172   9.748   9.155   2.606  0.0920 -0.2904  0.2057
  763MOL0     N 5173   9.724   9.013   2.617  0.6430 -0.4746  0.1897
  763MOL0     C 5174   9.793   8.913   2.572  0.0826  0.5557  0.1078
  763MOL0     C 5175   9.733   8.799   2.607  1.0503  0.4692  0.1931
  763MOL0     C 5176   9.755   8.651   2.583 -0.6301  0.3161  0.0576
  763MOL0     C 5177   9.888   8.635   2.517 -0.3154  0.4299 -0.3896
  763MOL0     C 5178   9.922   8.491   2.495 -0.9415 -0.3996  0.1435
  763MOL0     C 5179   9.819   8.422   2.403  0.0903  0.2404 -0.2100
  763MOL0     O 5180   9.779   8.514   2.300  0.1654 -0.0592  0.0069
  763MOL0     C 5181   9.819   8.521   2.173 -0.5053  0.4902 -0.8123
  763MOL0     C 5182   9.940   8.487   2.138 -0.0612 -0.5911 -0.2286
  763MOL0     C 5183   9.982   8.500   2.007  0.4011 -0.8091  0.1531
  763MOL0     C 5184  10.131   8.478   1.983 -0.5764 -0.0458  0.3816
  763MOL0     C 5185   9.888   8.533   1.913  0.1821 -0.6342  0.1603
  763MOL0     C 5186   9.926   8.548   1.770 -0.0596  1.2647 -0.2817
  763MOL0     O 5187   9.847   8.632   1.699  0.0503  0.1292 -0.3764
  763MOL0     C 5188   9.847   8.625   1.565  0.0635  1.1404 -0.6691
  763MOL0     C 5189   9.960   8.675   1.498  0.2803  1.1990 -0.6423
  763MOL0     C 5190   9.975   8.664   1.359  0.1941  0.1755  0.2490
  763MOL0     C 5191   9.877   8.607   1.289  0.3423 -0.1883  0.3814
  763MOL0     O 5192   9.874   8.586   1.153 -0.3706  0.2926 -0.2585
  763MOL0     C 5193   9.955   8.673   1.078 -0.2625 -0.9575 -0.6320
  763MOL0     C 5194   9.890   8.697   0.945  0.2643  0.7509 -0.6773
  763MOL0     C 5195   9.743   8.740   0.965 -0.0372  0.2400  0.1493
  763MOL0     C 5196   9.700   8.797   0.831  0.6341 -0.1302  0.4620
  763MOL0     C 5197   9.581   8.880   0.827 -0.7913 -0.3038 -0.2889
  763MOL0     C 5198   9.543   8.933   0.683 -0.0108  0.4287 -0.1477
  763MOL0     C 5199   9.406   8.989   0.665 -0.0435  0.3121 -0.4364
  763MOL0     C 5200   9.431   9.138   0.630  0.0402 -0.4255  0.2350
  763MOL0    Cl 5201   9.483   9.236   0.777  0.5336 -0.1778 -0.0946
  763MOL0     C 5202   9.759   8.559   1.354 -0.1986  0.3132 -0.0271
  763MOL0     C 5203   9.750   8.568   1.493 -0.1420  0.2600  0.0880
  763MOL0     O 5204  10.031   8.494   1.727 -0.5612  0.1283  0.5729
  763MOL0     C 5205   9.764   8.550   1.947  0.3898  0.4252 -1.1677
  763MOL0     C 5206   9.720   8.548   2.084  0.0581  0.4719  0.0266
  763MOL0     N 5207   9.621   8.841   2.669  0.1645 -0.0424  0.0458
  763MOL0     N 5208   9.617   8.967   2.682  0.5337 -0.3609 -0.2835
  763MOL0     C 5209   9.059   9.597   1.818  0.7196 -0.3155  0.5353
  763MOL0     C 5210   9.020   9.662   1.701 -0.3785  0.1699 -0.3847
  763MOL0     C 5211   8.939   9.918   1.350 -0.3173 -0.3947 -0.3072
  763MOL0     C 5212   8.821   9.996   1.364  1.2008 -0.0607  0.3933
  763MOL0     C 5213   8.761  10.088   1.263 -0.6304  0.2305 -0.2013
  763MOL0     C 5214   8.842  10.095   1.147  0.7266 -0.3832 -0.3162
  763MOL0     O 5215   8.794  10.176   1.050  0.5070  0.5091 -0.0529
  763MOL0     C 5216   8.875  10.255   0.959  0.5110 -0.2997 -0.1101
  763MOL0     C 5217   8.881  10.405   1.004 -0.4827 -0.3599  0.6026
  763MOL0     C 5218   8.981  10.499   0.925 -0.5377  0.3943 -0.3097
  763MOL0     C 5219   8.954  10.651   0.968 -0.4805  0.8258  0.1299
  763MOL0     C 5220   8.995  10.658   1.105 -0.2429  0.0189  0.0662
  763MOL0     C 5221   9.022  10.672   1.220 -0.4049 -0.4362 -1.3127
  763MOL0     C 5222   8.954  10.024   1.124  0.5749  0.3780 -1.0101
  763MOL0     C 5223   9.011   9.951   1.232 -0.3724  0.1091 -0.7235
  763MOL0     C 5224   9.155   9.910   1.213  0.6194 -0.1884  0.3561
  763MOL0     H 5225   8.971   9.968   1.836 -2.1534 -0.0144  0.9674
  763MOL0     H 5226   9.046   9.856   2.039 -0.7770 -0.9673  1.1162
  763MOL0     H 5227   9.223   9.447   1.964  0.5663  1.0315 -0.4998
  763MOL0     H 5228   9.082   9.393   2.042  2.4385 -2.1982  1.2620
  763MOL0     H 5229   9.322   9.504   2.182 -0.7824  0.3107  2.2780
  763MOL0     H 5230   9.173   9.446   2.267  0.0175  0.0902  0.2648
  763MOL0     H 5231   9.188   9.228   2.151  2.0494 -2.2803  0.6128
  763MOL0     H 5232   9.340   9.267   2.092 -1.3698 -1.5947 -0.8526
  763MOL0     H 5233   9.266   9.263   2.392  1.2309  0.6492  2.5687
  763MOL0     H 5234   9.326   9.124   2.323 -0.7993  0.2636  0.4445
  763MOL0     H 5235   9.484   9.385   2.345  1.1272 -0.5780  0.3191
  763MOL0     H 5236   9.538   9.242   2.246 -0.0050  1.5040 -0.5388
  763MOL0     H 5237   9.497   9.256   2.546  0.6695 -1.8074  1.3263
  763MOL0     H 5238   9.516   9.100   2.468  0.1544 -1.3940 -1.4734
  763MOL0     H 5239   9.725   9.317   2.465 -2.5016  0.1754 -0.7564
  763MOL0     H 5240   9.740   9.150   2.396 -0.5468 -1.2457 -0.6740
  763MOL0     H 5241   9.856   9.167   2.596  0.1786  0.9304  2.2007
  763MOL0     H 5242   9.712   9.215   2.690 -0.3152 -1.7883  1.1262
  763MOL0     H 5243   9.880   8.915   2.507 -0.7680 -0.3194 -1.1090
  763MOL0     H 5244   9.676   8.590   2.538  1.3081 -1.7731 -0.7023
  763MOL0     H 5245   9.760   8.597   2.678  1.5792 -2.7813 -1.6348
  763MOL0     H 5246   9.889   8.689   2.422 -0.3371  1.3242  0.1053
  763MOL0     H 5247   9.961   8.688   2.578  0.7240  1.0604 -2.1188
  763MOL0     H 5248  10.020   8.485   2.447 -0.1776 -1.2630  1.7174
  763MOL0     H 5249   9.931   8.431   2.586  2.1040 -1.4679 -0.7340
  763MOL0     H 5250   9.867   8.332   2.363  1.4908 -0.1395  2.1656
  763MOL0     H 5251   9.729   8.392   2.457  1.4748 -1.7562  1.1455
  763MOL0     H 5252  10.006   8.442   2.211 -0.8666 -2.6219 -0.7051
  763MOL0     H 5253  10.182   8.560   1.932  1.9337 -1.0216  1.1249
  763MOL0     H 5254  10.156   8.379   1.942  2.9078  0.6243  0.5730
  763MOL0     H 5255  10.183   8.482   2.080  1.3930 -0.3128 -0.6002
  763MOL0     H 5256  10.038   8.713   1.563  1.1900 -1.3408 -0.1269
  763MOL0     H 5257  10.064   8.700   1.309  0.7310  1.0375  1.7731
  763MOL0     H 5258   9.949   8.769   1.129 -0.6385 -1.3944  0.1555
  763MOL0     H 5259  10.061   8.647   1.071  1.0771  3.1154  1.6363
  763MOL0     H 5260   9.962   8.759   0.892  2.2859 -0.9696 -0.0870
  763MOL0     H 5261   9.896   8.599   0.897 -0.3643 -0.1521  0.9815
  763MOL0     H 5262   9.735   8.808   1.050 -1.3377 -0.7652  0.8783
  763MOL0     H 5263   9.674   8.657   0.982 -0.9902  0.5590 -1.8955
  763MOL0     H 5264   9.692   8.703   0.776  5.5257 -0.1890 -0.6609
  763MOL0     H 5265   9.783   8.858   0.792 -0.5855  0.8828 -0.6474
  763MOL0     H 5266   9.497   8.826   0.873 -1.9980  0.0191 -2.0135
  763MOL0     H 5267   9.589   8.967   0.893  0.6638  1.2362 -2.3689
  763MOL0     H 5268   9.537   8.847   0.616 -2.4816 -1.2941  2.1078
  763MOL0     H 5269   9.623   8.991   0.635 -0.5722  0.4505 -1.0965
  763MOL0     H 5270   9.355   8.982   0.762 -0.3633 -2.4703 -0.7255
  763MOL0     H 5271   9.354   8.935   0.586 -0.8818 -1.9124  1.4927
  763MOL0     H 5272   9.334   9.172   0.591  0.5461 -1.6895 -2.3846
  763MOL0     H 5273   9.503   9.149   0.548 -0.5315  0.6145 -0.1500
  763MOL0     H 5274   9.689   8.514   1.285 -1.7786  3.5723 -0.7765
  763MOL0     H 5275   9.667   8.521   1.544  0.8835 -3.1590 -1.1381
  763MOL0     H 5276   9.688   8.572   1.873  0.0499 -2.8162 -1.8917
  763MOL0     H 5277   9.617   8.568   2.112  0.3823  0.2750  1.4082
  763MOL0     H 5278   9.082   9.492   1.816 -0.6501 -0.6528  1.0525
  763MOL0     H 5279   9.001   9.602   1.613 -2.9539 -1.4812  1.1517
  763MOL0     H 5280   8.767   9.979   1.457  0.7715 -0.8067  0.0128
  763MOL0     H 5281   8.675  10.153   1.278 -1.1528 -0.8456  1.9385
  763MOL0     H 5282   8.978  10.219   0.961  0.4501 -0.5478  2.4645
  763MOL0     H 5283   8.836  10.254   0.857  1.3597  1.8253 -0.5171
  763MOL0     H 5284   8.912  10.409   1.109  2.5977  0.8372 -0.2443
  763MOL0     H 5285   8.779  10.442   0.986  0.9590  2.4862 -2.9166
  763MOL0     H 5286   9.086  10.469   0.934 -0.5199  0.2597 -0.9387
  763MOL0     H 5287   8.967  10.491   0.817  0.5081 -0.1528 -0.4159
  763MOL0     H 5288   8.848  10.665   0.947 -0.4375  0.7413 -0.1450
  763MOL0     H 5289   9.002  10.722   0.900 -0.7467 -0.6257 -1.6571
  763MOL0     H 5290   9.058  10.671   1.321  1.1128  2.9360 -1.6617
  763MOL0     H 5291   9.010  10.019   1.031  0.1451  2.6159 -1.4645
  763MOL0     H 5292   9.201   9.886   1.309 -1.7258 -1.9836  1.1275
  763MOL0     H 5293   9.160   9.829   1.139 -2.2124  0.2453 -0.4373
  763MOL0     H 5294   9.213   9.994   1.174 -0.7773  1.6288  1.9965
  764MOL0     O 5295   2.837   5.353   0.621 -0.6373 -0.1453  0.2920
  764MOL0     C 5296   2.806   5.263   0.693  0.2951 -0.5364  0.3849
  764MOL0     O 5297   2.772   5.284   0.828  0.3525 -0.4087  0.1442
  764MOL0     C 5298   2.773   5.418   0.859 -0.1386  0.1695  0.3139
  764MOL0     C 5299   2.654   5.495   0.855 -0.1918  0.1745 -0.1462
  764MOL0     C 5300   2.658   5.622   0.917 -0.4146  0.5001  0.6652
  764MOL0     C 5301   2.770   5.659   0.983 -0.2316 -0.9845  0.0438
  764MOL0     O 5302   2.788   5.776   1.053 -0.0913 -0.4380  0.5023
  764MOL0     C 5303   2.671   5.837   1.100  0.1713 -0.7047  0.1917
  764MOL0     C 5304   2.703   5.978   1.159  0.5337 -0.0719 -0.2207
  764MOL0     C 5305   2.806   5.971   1.283 -0.1369 -0.2645  0.0162
  764MOL0     C 5306   2.866   6.102   1.333 -0.8284  0.9240 -0.1849
  764MOL0     C 5307   2.970   6.087   1.449  0.0065  0.1934  0.1403
  764MOL0     C 5308   3.088   5.994   1.425 -0.1113 -0.8025  0.6685
  764MOL0     C 5309   3.192   6.015   1.537  0.3849  0.4407  0.1635
  764MOL0     C 5310   3.287   6.134   1.509 -0.3156 -0.5755  0.2719
  764MOL0     N 5311   3.355   6.169   1.635 -0.9168 -0.1284 -0.1215
  764MOL0     C 5312   3.459   6.111   1.698  0.3062  0.0523 -0.9781
  764MOL0     C 5313   3.473   6.172   1.818  0.6739  0.6430 -0.4065
  764MOL0     C 5314   3.573   6.133   1.923 -0.3900 -0.0651  0.1641
  764MOL0     C 5315   3.555   6.004   2.000  0.3119 -0.3087 -0.4468
  764MOL0     C 5316   3.413   6.001   2.071  0.0435 -0.5038 -0.5239
  764MOL0     C 5317   3.390   5.880   2.159 -0.2363 -0.1185 -0.0984
  764MOL0     O 5318   3.411   5.749   2.097 -0.3651 -0.1567  0.3480
  764MOL0     C 5319   3.324   5.716   1.991  0.6727  0.1995  0.0360
  764MOL0     C 5320   3.200   5.782   1.956 -0.3727  0.4954  0.6555
  764MOL0     C 5321   3.106   5.742   1.861 -0.5328  0.9163 -0.7490
  764MOL0     C 5322   2.984   5.833   1.855 -0.1465  0.5181 -0.2853
  764MOL0     C 5323   3.133   5.617   1.791  0.0919  0.1735 -0.5727
  764MOL0     C 5324   3.052   5.568   1.678  0.1522  0.3974  0.0857
  764MOL0     O 5325   2.959   5.644   1.610  0.3616 -0.0400  0.1957
  764MOL0     C 5326   2.870   5.572   1.539  0.3197  0.2560  0.1125
  764MOL0     C 5327   2.864   5.598   1.401 -0.1694 -0.5233  0.3238
  764MOL0     C 5328   2.769   5.533   1.323  0.0434  0.8538 -0.6053
  764MOL0     C 5329   2.667   5.457   1.391 -0.0870 -1.0059  1.0509
  764MOL0     O 5330   2.559   5.403   1.334 -0.1074  0.4060  0.0443
  764MOL0     C 5331   2.545   5.429   1.193  0.8360  0.4287  0.1182
  764MOL0     C 5332   2.414   5.363   1.149 -0.1944  0.3785 -1.2894
  764MOL0     C 5333   2.280   5.404   1.209 -0.0131  0.1776  0.6191
  764MOL0     C 5334   2.245   5.551   1.176  0.2583 -0.2649 -0.0266
  764MOL0     C 5335   2.101   5.570   1.182  0.0245  0.1582 -0.3578
  764MOL0     C 5336   2.052   5.717   1.198  0.0283  0.1923 -0.3217
  764MOL0     C 5337   1.897   5.715   1.207 -0.5720 -0.0721  0.8123
  764MOL0     C 5338   1.864   5.863   1.227 -0.1160  0.2533 -0.3308
  764MOL0    Cl 5339   1.925   5.920   1.383  0.1419 -0.4141  0.2844
  764MOL0     C 5340   2.662   5.439   1.524  0.5624 -0.4914 -0.3947
  764MOL0     C 5341   2.769   5.496   1.601  0.3622  0.2977 -0.6472
  764MOL0     O 5342   3.068   5.449   1.659 -0.0206  0.5077 -0.6382
  764MOL0     C 5343   3.252   5.553   1.823 -0.3314 -0.0736 -0.1236
  764MOL0     C 5344   3.345   5.597   1.922 -0.7988 -0.6352 -0.6822
  764MOL0     N 5345   3.386   6.279   1.819 -0.2944 -0.1053 -0.3101
  764MOL0     N 5346   3.308   6.274   1.711  0.1599  0.5559 -0.6493
  764MOL0     C 5347   2.890   5.586   0.979 -0.2541  0.1691  0.3243
  764MOL0     C 5348   2.894   5.457   0.927 -0.0809 -0.2216 -0.3801
  764MOL0     C 5349   2.792   5.118   0.635 -0.5321 -0.0504 -0.3874
  764MOL0     C 5350   2.809   5.016   0.730  0.6328 -0.5761  0.2236
  764MOL0     C 5351   2.794   4.878   0.696 -0.2400  0.0479 -0.2632
  764MOL0     C 5352   2.745   4.849   0.565  0.3459  0.0534  0.0574
  764MOL0     O 5353   2.717   4.723   0.521 -0.0277 -0.3131 -0.0876
  764MOL0     C 5354   2.593   4.683   0.453  0.4355 -0.8029  0.1112
  764MOL0     C 5355   2.466   4.712   0.525 -0.1037  0.4720 -0.8252
  764MOL0     C 5356   2.337   4.665   0.450 -0.6832  0.3743 -0.1423
  764MOL0     C 5357   2.342   4.510   0.412 -0.8375 -0.0353 -0.4322
  764MOL0     C 5358   2.214   4.466   0.347 -0.2867 -0.2126 -0.4531
  764MOL0     C 5359   2.125   4.446   0.272 -0.6133  0.9199 -1.3610
  764MOL0     C 5360   2.712   4.954   0.481  0.2789 -0.2624  0.5547
  764MOL0     C 5361   2.732   5.087   0.516 -0.0109 -0.9581 -0.5823
  764MOL0     C 5362   2.680   5.195   0.423 -0.5040 -0.8426  0.7107
  764MOL0     H 5363   2.567   5.456   0.805  2.3374 -1.7301 -3.4706
  764MOL0     H 5364   2.575   5.691   0.916 -2.0068 -1.2459  2.5922
  764MOL0     H 5365   2.618   5.776   1.174 -0.7220 -1.2270 -0.8694
  764MOL0     H 5366   2.605   5.856   1.015  0.7120 -1.9260 -0.5314
  764MOL0     H 5367   2.733   6.037   1.072  1.5907 -0.9506 -0.4853
  764MOL0     H 5368   2.607   6.017   1.194  1.4386 -0.4830  3.1245
  764MOL0     H 5369   2.746   5.932   1.365 -0.7994  2.5137  0.9399
  764MOL0     H 5370   2.888   5.900   1.264  2.0829  2.0746  0.3141
  764MOL0     H 5371   2.915   6.148   1.247  0.5865 -2.0460 -1.0725
  764MOL0     H 5372   2.788   6.171   1.366  0.0977  2.1684 -0.5277
  764MOL0     H 5373   2.907   6.027   1.516 -0.7772  1.2824  0.3985
  764MOL0     H 5374   2.993   6.190   1.477 -0.3778  1.0253 -2.4397
  764MOL0     H 5375   3.048   5.892   1.437  0.1434 -1.0622 -0.5383
  764MOL0     H 5376   3.140   6.013   1.330 -0.3671  2.1543  1.0439
  764MOL0     H 5377   3.263   5.933   1.537  0.1507  0.2285 -0.5383
  764MOL0     H 5378   3.141   6.033   1.632 -0.6735  3.4190 -0.8211
  764MOL0     H 5379   3.361   6.099   1.437  0.9602 -1.7681  2.0474
  764MOL0     H 5380   3.232   6.220   1.469  0.7712  0.1676  0.3531
  764MOL0     H 5381   3.520   6.022   1.681  0.0966 -0.5471  1.1336
  764MOL0     H 5382   3.591   6.221   1.984  1.3036  0.4371 -0.9724
  764MOL0     H 5383   3.662   6.115   1.862 -0.8235 -1.6077 -0.0711
  764MOL0     H 5384   3.562   5.917   1.935 -0.9556  0.8588 -2.2276
  764MOL0     H 5385   3.624   6.000   2.085 -0.3495  0.1117  0.1255
  764MOL0     H 5386   3.408   6.088   2.138  0.5130 -1.5330  0.8836
  764MOL0     H 5387   3.328   5.997   2.002 -1.0168  2.0205  0.4909
  764MOL0     H 5388   3.463   5.884   2.241  0.9881  0.9588 -1.1863
  764MOL0     H 5389   3.293   5.883   2.210  0.0162 -3.1559  0.7415
  764MOL0     H 5390   3.170   5.876   2.000 -0.2600  0.6983  0.3025
  764MOL0     H 5391   2.990   5.899   1.768 -2.1517 -1.4723 -2.0626
  764MOL0     H 5392   2.961   5.884   1.950 -1.1976  0.1585 -0.3281
  764MOL0     H 5393   2.887   5.790   1.828 -0.0226 -0.0961  0.2126
  764MOL0     H 5394   2.937   5.662   1.352 -0.0226  1.0417  2.4826
  764MOL0     H 5395   2.766   5.555   1.217 -1.0105  1.7869 -0.4020
  764MOL0     H 5396   2.536   5.536   1.173  1.1350  0.1868 -1.4916
  764MOL0     H 5397   2.629   5.388   1.137  2.1458  0.5658  1.9036
  764MOL0     H 5398   2.405   5.385   1.042 -0.6524  0.2453 -1.2816
  764MOL0     H 5399   2.432   5.256   1.164 -0.6479  0.4924  0.1820
  764MOL0     H 5400   2.280   5.386   1.317  1.0297  0.2564  0.6408
  764MOL0     H 5401   2.205   5.341   1.158 -1.4829  1.4451  1.1318
  764MOL0     H 5402   2.287   5.579   1.079 -0.2448 -1.4505 -0.6147
  764MOL0     H 5403   2.289   5.620   1.248 -1.3746  2.6160 -1.5876
  764MOL0     H 5404   2.054   5.515   1.100 -1.2293 -2.6877  2.0865
  764MOL0     H 5405   2.064   5.524   1.274  1.2562 -1.7762 -0.7957
  764MOL0     H 5406   2.096   5.791   1.130 -0.9812  2.5556  1.4561
  764MOL0     H 5407   2.088   5.748   1.297 -0.1216 -1.3429  0.2399
  764MOL0     H 5408   1.860   5.664   1.296 -1.3033 -4.1295 -1.5319
  764MOL0     H 5409   1.847   5.678   1.117 -1.4393  0.3974  1.0930
  764MOL0     H 5410   1.754   5.863   1.223 -0.1667 -2.6209 -0.8096
  764MOL0     H 5411   1.910   5.927   1.150  1.0342 -1.8946 -1.5063
  764MOL0     H 5412   2.586   5.386   1.581 -0.9689  0.2224 -1.6780
  764MOL0     H 5413   2.765   5.479   1.708 -0.4608 -1.6319 -0.9436
  764MOL0     H 5414   3.272   5.462   1.767 -0.5111  0.9697 -1.9780
  764MOL0     H 5415   3.429   5.536   1.954 -0.6115  0.3644  0.7951
  764MOL0     H 5416   2.977   5.628   1.029  1.1228  1.4037 -2.8442
  764MOL0     H 5417   2.985   5.399   0.941  2.1013  3.3388  1.6338
  764MOL0     H 5418   2.844   5.040   0.830 -0.6225  0.3103  0.4878
  764MOL0     H 5419   2.798   4.805   0.776  1.4864 -1.8209 -1.9207
  764MOL0     H 5420   2.582   4.729   0.354 -2.1475 -0.5615  0.4386
  764MOL0     H 5421   2.591   4.575   0.436  0.0073 -0.8814  0.6678
  764MOL0     H 5422   2.467   4.820   0.544  0.3271  0.0675  1.9120
  764MOL0     H 5423   2.466   4.676   0.629  1.5021  2.4246 -0.0720
  764MOL0     H 5424   2.254   4.663   0.521  0.3616 -2.4300  1.1799
  764MOL0     H 5425   2.314   4.733   0.368  3.2537 -0.6413 -2.3793
  764MOL0     H 5426   2.364   4.445   0.497  0.3774  0.0679 -0.6461
  764MOL0     H 5427   2.418   4.497   0.334 -0.4957 -0.6185 -0.0086
  764MOL0     H 5428   2.039   4.444   0.208 -2.5741 -0.1633  1.1475
  764MOL0     H 5429   2.681   4.938   0.378  0.3265  0.9690  0.3298
  764MOL0     H 5430   2.763   5.262   0.398  0.8964 -0.9972  4.3427
  764MOL0     H 5431   2.640   5.152   0.330 -0.5255 -0.8142  0.7063
  764MOL0     H 5432   2.597   5.258   0.457  1.1935  2.5206 -0.9358
  765MOL0     O 5433   3.911   6.503   3.000 -0.0717 -0.3568 -0.7419
  765MOL0     C 5434   3.844   6.473   2.901  0.6526 -0.6051 -1.1017
  765MOL0     O 5435   3.748   6.372   2.911  0.7053  0.6544 -0.6674
  765MOL0     C 5436   3.718   6.323   3.041  0.0582 -0.1733 -0.2393
  765MOL0     C 5437   3.788   6.220   3.118 -0.0609  0.3496  1.1295
  765MOL0     C 5438   3.744   6.181   3.247  0.3969  1.2524 -0.7519
  765MOL0     C 5439   3.636   6.242   3.311  0.4529  0.5028  0.1552
  765MOL0     O 5440   3.607   6.212   3.435 -0.4767  0.0430 -0.1651
  765MOL0     C 5441   3.503   6.116   3.446 -0.0501  0.4264 -0.3061
  765MOL0     C 5442   3.450   6.142   3.581 -0.2345 -0.1227  0.1001
  765MOL0     C 5443   3.525   6.091   3.697 -0.1460  1.0032 -0.5231
  765MOL0     C 5444   3.464   5.966   3.744  0.0225  0.1127  0.2696
  765MOL0     C 5445   3.519   5.902   3.872 -0.1905 -1.4255  0.4763
  765MOL0     C 5446   3.662   5.850   3.880 -0.4539 -1.4058  0.4405
  765MOL0     C 5447   3.703   5.819   4.022 -0.1762 -0.0231  0.1251
  765MOL0     C 5448   3.856   5.841   4.054 -0.5772  0.1658 -0.3429
  765MOL0     N 5449   3.880   5.799   4.200 -0.2617  0.4960  0.0969
  765MOL0     C 5450   3.912   5.677   4.237  0.1864  0.6566 -0.1488
  765MOL0     C 5451   3.901   5.666   4.373  0.5745  0.4440 -0.0461
  765MOL0     C 5452   3.919   5.539   4.453 -0.9465 -0.2610  0.1039
  765MOL0     C 5453   4.042   5.456   4.407  0.0908 -0.9256 -0.0707
  765MOL0     C 5454   4.167   5.496   4.478 -0.5361 -1.2229 -0.0225
  765MOL0     C 5455   4.238   5.621   4.412  1.4073  0.0221  0.3469
  765MOL0     O 5456   4.269   5.579   4.275  0.1881  0.7363 -0.3426
  765MOL0     C 5457   4.238   5.665   4.177 -0.8379 -0.0765  0.5132
  765MOL0     C 5458   4.229   5.802   4.198 -0.2693  0.9689 -1.0908
  765MOL0     C 5459   4.200   5.888   4.091 -0.2225  0.4916  0.9650
  765MOL0     C 5460   4.201   6.040   4.121 -0.1218 -0.0066 -0.2154
  765MOL0     C 5461   4.170   5.828   3.966  0.8356 -0.5503  0.7536
  765MOL0     C 5462   4.130   5.916   3.850 -0.0653 -0.3390 -0.2163
  765MOL0     O 5463   4.161   6.051   3.839 -0.2527  0.4718 -0.6192
  765MOL0     C 5464   4.118   6.144   3.757 -0.8064 -0.1224 -0.4138
  765MOL0     C 5465   4.012   6.147   3.665 -0.3833  0.6753 -0.0040
  765MOL0     C 5466   3.984   6.258   3.585  0.2356  0.1879 -0.5422
  765MOL0     C 5467   4.048   6.378   3.600 -0.1723 -0.3227 -0.0664
  765MOL0     O 5468   4.030   6.496   3.540 -0.0691 -0.3173  0.0587
  765MOL0     C 5469   3.953   6.499   3.416  1.1883  0.2195 -0.0224
  765MOL0     C 5470   3.964   6.639   3.351  0.1579 -0.4246  0.1805
  765MOL0     C 5471   4.106   6.681   3.309  0.3127 -0.3047  0.3882
  765MOL0     C 5472   4.170   6.795   3.389 -0.2036  0.2124  0.8428
  765MOL0     C 5473   4.322   6.786   3.400  0.2659 -0.2208  0.9016
  765MOL0     C 5474   4.353   6.683   3.510  0.1390  0.3819 -0.4767
  765MOL0     C 5475   4.509   6.654   3.508 -0.3420  0.2496  0.7434
  765MOL0     C 5476   4.546   6.514   3.562  0.3514 -0.8843  0.2529
  765MOL0    Cl 5477   4.496   6.370   3.463  0.0291 -0.4852 -0.1557
  765MOL0     C 5478   4.154   6.378   3.692  0.1414 -0.0591 -0.3607
  765MOL0     C 5479   4.191   6.266   3.770  0.6445  0.2491 -0.4050
  765MOL0     O 5480   4.063   5.863   3.762  0.0327  0.7405  0.3421
  765MOL0     C 5481   4.184   5.689   3.949  0.6299  0.1647  0.5224
  765MOL0     C 5482   4.222   5.605   4.050  0.0737  0.1774 -0.6332
  765MOL0     N 5483   3.859   5.793   4.421  0.4850  0.2957 -0.7700
  765MOL0     N 5484   3.844   5.865   4.309  0.7850  0.6574  0.0104
  765MOL0     C 5485   3.565   6.341   3.240  0.0409 -0.4600 -0.4396
  765MOL0     C 5486   3.599   6.384   3.104  0.5401  0.3018 -0.0306
  765MOL0     C 5487   3.877   6.523   2.767 -0.2304 -0.0921 -0.0366
  765MOL0     C 5488   3.885   6.428   2.660  0.5517 -0.8218  0.0183
  765MOL0     C 5489   3.921   6.472   2.532  0.3674  0.2179  0.2041
  765MOL0     C 5490   3.943   6.603   2.502  0.1570 -0.0129 -0.1565
  765MOL0     O 5491   3.960   6.622   2.362  0.4348  0.6641 -0.5742
  765MOL0     C 5492   3.971   6.751   2.316  0.7994 -0.6097 -0.1093
  765MOL0     C 5493   3.997   6.741   2.155 -0.3761 -0.0076  0.4246
  765MOL0     C 5494   3.867   6.705   2.073 -0.0213  1.0373 -0.1437
  765MOL0     C 5495   3.882   6.741   1.925 -0.0410 -0.0945  0.0751
  765MOL0     C 5496   3.759   6.699   1.864  0.6719  0.1591 -0.2073
  765MOL0     C 5497   3.646   6.654   1.832  1.2549  0.3618 -1.7798
  765MOL0     C 5498   3.937   6.697   2.605  0.5929 -0.4862  0.1966
  765MOL0     C 5499   3.903   6.663   2.742 -0.2479 -0.1994 -0.1287
  765MOL0     C 5500   3.878   6.769   2.843 -0.0937 -1.1309  0.5502
  765MOL0     H 5501   3.857   6.159   3.061  0.8429  3.4142 -1.3376
  765MOL0     H 5502   3.788   6.109   3.314  0.2444  3.3935  1.7956
  765MOL0     H 5503   3.536   6.012   3.441  3.6618  1.4446 -0.0883
  765MOL0     H 5504   3.424   6.132   3.373 -2.7214 -0.3237  2.2384
  765MOL0     H 5505   3.440   6.250   3.594 -1.0271 -0.2034  0.2072
  765MOL0     H 5506   3.348   6.103   3.577  0.5810 -2.4128  0.2247
  765MOL0     H 5507   3.631   6.075   3.676 -0.0238 -0.3478  0.9483
  765MOL0     H 5508   3.521   6.170   3.773  0.0111 -0.9795  1.6572
  765MOL0     H 5509   3.357   5.983   3.756 -0.9349 -2.5876 -2.9078
  765MOL0     H 5510   3.491   5.900   3.662 -0.1942  0.4341 -0.0677
  765MOL0     H 5511   3.445   5.826   3.902 -1.7496 -0.3068 -0.3696
  765MOL0     H 5512   3.509   5.982   3.945 -2.5346 -2.3675  1.3013
  765MOL0     H 5513   3.671   5.755   3.826 -0.6596 -0.8648 -0.5712
  765MOL0     H 5514   3.718   5.924   3.823 -1.3609 -0.7694  0.3727
  765MOL0     H 5515   3.679   5.712   4.032  1.0201 -0.1414  2.1945
  765MOL0     H 5516   3.642   5.866   4.099 -0.5961 -1.6490  0.8221
  765MOL0     H 5517   3.916   5.779   3.987 -2.6860  0.3494 -2.5454
  765MOL0     H 5518   3.877   5.948   4.042 -0.7386  0.3612  1.0095
  765MOL0     H 5519   3.938   5.601   4.163  1.5463  3.8537 -3.2790
  765MOL0     H 5520   3.822   5.492   4.437 -1.6582  0.9241  0.7698
  765MOL0     H 5521   3.918   5.574   4.556 -0.9274 -1.0202  0.3696
  765MOL0     H 5522   4.022   5.353   4.438  2.0449 -1.0013  1.1256
  765MOL0     H 5523   4.057   5.460   4.299  1.7515  1.8882  0.1764
  765MOL0     H 5524   4.138   5.517   4.581 -1.1860 -1.5123 -0.1446
  765MOL0     H 5525   4.231   5.408   4.493  2.9100  1.3635  1.9526
  765MOL0     H 5526   4.164   5.700   4.424 -0.9706 -1.4676 -2.9251
  765MOL0     H 5527   4.325   5.650   4.472  0.3672 -1.7392  2.8781
  765MOL0     H 5528   4.255   5.849   4.292  1.3923  1.7940 -1.9102
  765MOL0     H 5529   4.103   6.084   4.097 -1.2029 -1.2840  1.6036
  765MOL0     H 5530   4.275   6.086   4.055  1.9212 -1.4030  0.9815
  765MOL0     H 5531   4.221   6.067   4.225 -2.1288  0.9881 -0.0365
  765MOL0     H 5532   3.944   6.063   3.657 -2.3378  2.2178 -0.3249
  765MOL0     H 5533   3.917   6.246   3.501  1.4442 -2.6626 -1.2258
  765MOL0     H 5534   3.994   6.424   3.347  1.4528  1.0135 -0.7440
  765MOL0     H 5535   3.855   6.468   3.452  1.1735  1.5090  1.1206
  765MOL0     H 5536   3.905   6.629   3.259  1.1683 -0.6710 -0.4541
  765MOL0     H 5537   3.920   6.719   3.412 -0.6675 -0.6842 -0.0598
  765MOL0     H 5538   4.100   6.720   3.207  3.0667 -1.0443 -0.1573
  765MOL0     H 5539   4.175   6.596   3.313 -1.6017 -1.8948  0.9149
  765MOL0     H 5540   4.123   6.807   3.487  2.2701  2.8873  1.8406
  765MOL0     H 5541   4.148   6.879   3.323 -0.9489 -0.1888  0.5626
  765MOL0     H 5542   4.373   6.759   3.307  1.8492  0.7827  1.4184
  765MOL0     H 5543   4.357   6.887   3.426 -2.0717 -0.3456  5.4285
  765MOL0     H 5544   4.314   6.584   3.485  1.0747  0.3347 -1.8701
  765MOL0     H 5545   4.316   6.721   3.605  0.6828  1.1455 -0.5587
  765MOL0     H 5546   4.560   6.725   3.575  3.3757 -0.7693 -0.7515
  765MOL0     H 5547   4.543   6.664   3.404  0.8163  0.3289  1.1074
  765MOL0     H 5548   4.492   6.504   3.656 -2.0345  2.5271 -0.5699
  765MOL0     H 5549   4.655   6.516   3.571  0.3254  0.3689  0.4147
  765MOL0     H 5550   4.206   6.462   3.735  0.4917 -0.7670  0.6407
  765MOL0     H 5551   4.275   6.281   3.836  0.5994  3.2849 -0.8913
  765MOL0     H 5552   4.174   5.642   3.851  0.0860 -0.9616  1.0969
  765MOL0     H 5553   4.236   5.497   4.045  0.8516  0.0787  2.1328
  765MOL0     H 5554   3.484   6.387   3.295 -1.1868 -0.7724 -1.9188
  765MOL0     H 5555   3.529   6.445   3.049 -1.0185 -1.1823  0.2384
  765MOL0     H 5556   3.892   6.322   2.680  0.8677 -1.0711 -1.3284
  765MOL0     H 5557   3.933   6.399   2.453  2.6513 -0.2845  0.9141
  765MOL0     H 5558   3.886   6.813   2.345  3.5410  2.7930  1.4943
  765MOL0     H 5559   4.063   6.797   2.355 -0.0347  1.4622 -0.4184
  765MOL0     H 5560   4.066   6.664   2.118 -1.0836  0.3305 -1.7241
  765MOL0     H 5561   4.041   6.835   2.120  2.2082 -0.8237  1.2636
  765MOL0     H 5562   3.845   6.597   2.068  0.0842  1.0682 -1.7071
  765MOL0     H 5563   3.781   6.748   2.126 -0.2861 -0.9870  1.1962
  765MOL0     H 5564   3.958   6.686   1.868  0.3913  0.8258 -0.2509
  765MOL0     H 5565   3.898   6.849   1.927  0.4615 -0.1520 -0.4719
  765MOL0     H 5566   3.552   6.606   1.815 -2.2499  4.2723  3.2761
  765MOL0     H 5567   3.940   6.803   2.584  1.8863 -0.6601 -0.5932
  765MOL0     H 5568   3.775   6.768   2.877 -0.3508  2.0110  0.1580
  765MOL0     H 5569   3.954   6.772   2.922  1.6700  4.2466 -0.8739
  765MOL0     H 5570   3.885   6.864   2.788 -3.0066 -0.3397  1.3723
  766MOL0     O 5571   7.150   4.351   7.770  1.3240  0.8945  0.1594
  766MOL0     C 5572   7.159   4.275   7.863  0.1420 -0.6099 -0.4608
  766MOL0     O 5573   7.114   4.291   7.990  0.3358 -0.0749 -0.5807
  766MOL0     C 5574   7.073   4.420   8.028  0.1095  0.9403  0.0766
  766MOL0     C 5575   6.943   4.446   8.071  0.0935 -0.1934 -1.1643
  766MOL0     C 5576   6.908   4.568   8.122  0.4770  0.2243 -0.0021
  766MOL0     C 5577   6.998   4.670   8.119 -0.7503 -0.0558 -0.7305
  766MOL0     O 5578   6.953   4.793   8.170 -0.4215 -0.2488 -0.7122
  766MOL0     C 5579   7.023   4.847   8.284  0.5901 -0.1382 -0.4007
  766MOL0     C 5580   7.066   4.989   8.237  0.0090  0.3944 -0.8149
  766MOL0     C 5581   6.943   5.089   8.197 -0.8120  0.6843 -0.8260
  766MOL0     C 5582   7.009   5.224   8.170  0.0844  0.2134 -0.1943
  766MOL0     C 5583   6.911   5.334   8.169  0.2187 -0.6188 -0.9529
  766MOL0     C 5584   6.786   5.322   8.080  0.3601 -0.5756  0.1493
  766MOL0     C 5585   6.827   5.318   7.933  0.7223  0.4349  0.2600
  766MOL0     C 5586   6.710   5.334   7.835  0.1866 -0.4027 -0.1327
  766MOL0     N 5587   6.760   5.363   7.698  0.5562  1.1735 -0.3022
  766MOL0     C 5588   6.798   5.273   7.609  0.1747 -0.3764 -0.4353
  766MOL0     C 5589   6.841   5.342   7.499  0.2704 -1.0830 -0.2698
  766MOL0     C 5590   6.891   5.285   7.367  0.6909  0.3410  0.1799
  766MOL0     C 5591   6.956   5.152   7.385 -0.7396  0.7901  0.5025
  766MOL0     C 5592   7.002   5.084   7.254  0.3421 -0.2374 -0.2544
  766MOL0     C 5593   7.042   4.945   7.276  0.1885  0.4474 -0.0939
  766MOL0     O 5594   7.146   4.947   7.372  0.2670 -0.2205  0.2534
  766MOL0     C 5595   7.282   4.949   7.344  0.4676  0.1721 -0.5404
  766MOL0     C 5596   7.376   4.931   7.453 -0.1923 -0.5920  0.8251
  766MOL0     C 5597   7.514   4.903   7.411  0.3613  0.0455 -0.6933
  766MOL0     C 5598   7.612   4.860   7.508 -0.4311  0.2992 -0.4088
  766MOL0     C 5599   7.556   4.911   7.281 -0.0856  0.1499  0.0156
  766MOL0     C 5600   7.694   4.910   7.253 -0.2418 -0.1864 -0.0033
  766MOL0     O 5601   7.753   4.788   7.224  0.7420 -0.0386  0.4807
  766MOL0     C 5602   7.883   4.781   7.178  0.2192  1.1458 -0.4497
  766MOL0     C 5603   7.997   4.782   7.260 -0.8680 -0.1807  0.4860
  766MOL0     C 5604   8.125   4.771   7.199 -0.4663 -0.1950  0.2435
  766MOL0     C 5605   8.144   4.738   7.061  1.3407 -0.2826  0.0537
  766MOL0     O 5606   8.267   4.722   6.998  0.3231  0.4651  0.0402
  766MOL0     C 5607   8.379   4.675   7.073  0.3028  0.0154  0.1409
  766MOL0     C 5608   8.357   4.530   7.123  0.7065 -0.7234 -0.6277
  766MOL0     C 5609   8.445   4.491   7.240  0.3490  0.0029 -0.8913
  766MOL0     C 5610   8.558   4.407   7.199 -0.9913 -0.4126 -0.2520
  766MOL0     C 5611   8.644   4.374   7.315 -0.1816 -0.1816 -0.4909
  766MOL0     C 5612   8.780   4.304   7.290  0.0667 -0.8989 -0.5578
  766MOL0     C 5613   8.858   4.271   7.416 -0.3721  0.7183  0.2220
  766MOL0     C 5614   8.990   4.187   7.371  0.4239  0.5379  0.3489
  766MOL0    Cl 5615   9.061   4.243   7.222  0.2342 -0.3782  0.4618
  766MOL0     C 5616   8.019   4.738   6.978 -0.8673  0.5920 -0.5733
  766MOL0     C 5617   7.895   4.763   7.036  0.1436 -0.4661  0.5110
  766MOL0     O 5618   7.759   5.017   7.274  0.4018  0.4444 -0.2885
  766MOL0     C 5619   7.466   4.935   7.180 -1.1582  1.2349  0.5493
  766MOL0     C 5620   7.332   4.951   7.215 -1.4496 -0.1642 -0.0189
  766MOL0     N 5621   6.840   5.478   7.532 -0.6730 -0.7945 -0.2693
  766MOL0     N 5622   6.790   5.489   7.655 -0.3686  0.3959 -0.6766
  766MOL0     C 5623   7.133   4.646   8.086  0.4725  0.1554  0.2920
  766MOL0     C 5624   7.171   4.520   8.034  0.4819  0.5801 -0.1022
  766MOL0     C 5625   7.209   4.138   7.839  0.7883 -0.3484  0.2163
  766MOL0     C 5626   7.243   4.046   7.942 -0.4755 -0.1168 -0.8677
  766MOL0     C 5627   7.295   3.927   7.916 -0.0594 -0.1483  0.3431
  766MOL0     C 5628   7.315   3.888   7.784 -0.2012  0.8774  0.3503
  766MOL0     O 5629   7.390   3.775   7.775  1.0100  1.0137 -0.4451
  766MOL0     C 5630   7.440   3.747   7.647  0.2011  0.2620 -0.6576
  766MOL0     C 5631   7.527   3.626   7.649 -0.3767  0.2934  0.3062
  766MOL0     C 5632   7.589   3.589   7.515 -0.4050  0.0384  0.1954
  766MOL0     C 5633   7.706   3.493   7.527 -0.2680 -0.2417 -0.1261
  766MOL0     C 5634   7.667   3.376   7.599 -0.3599  0.3543  0.1054
  766MOL0     C 5635   7.623   3.283   7.663  0.1333  0.9937 -0.4733
  766MOL0     C 5636   7.275   3.970   7.684 -0.7979  0.2860 -0.7372
  766MOL0     C 5637   7.203   4.087   7.705 -0.9523 -0.7911 -0.0016
  766MOL0     C 5638   7.166   4.162   7.582  0.3733  0.6010  0.5977
  766MOL0     H 5639   6.881   4.357   8.064  1.0993 -1.1123  0.6356
  766MOL0     H 5640   6.808   4.570   8.165  0.1006 -1.7761 -0.6628
  766MOL0     H 5641   7.107   4.785   8.316 -0.6946 -1.9679 -0.4371
  766MOL0     H 5642   6.948   4.855   8.363  0.7441  2.7658 -0.4303
  766MOL0     H 5643   7.124   5.042   8.313  1.5369 -0.9370 -1.0010
  766MOL0     H 5644   7.136   4.979   8.153  1.9009  0.1761  0.7289
  766MOL0     H 5645   6.884   5.051   8.113 -1.4692 -0.6978  0.2266
  766MOL0     H 5646   6.865   5.098   8.273 -0.1779  0.4636 -0.1378
  766MOL0     H 5647   7.089   5.246   8.241 -0.2171  0.2824  0.1229
  766MOL0     H 5648   7.067   5.197   8.081  0.4807 -3.5046  1.0272
  766MOL0     H 5649   6.959   5.430   8.150 -1.7738  1.4826  3.1970
  766MOL0     H 5650   6.874   5.360   8.269  0.6251  1.5279 -1.3178
  766MOL0     H 5651   6.721   5.236   8.102  0.3741 -1.0063 -1.4144
  766MOL0     H 5652   6.728   5.413   8.099  0.5346 -0.7900  1.9611
  766MOL0     H 5653   6.885   5.230   7.902 -0.2509  0.6148 -2.2792
  766MOL0     H 5654   6.886   5.409   7.925 -0.8935  1.9021  3.1917
  766MOL0     H 5655   6.632   5.258   7.847 -0.1528 -0.0600 -0.1500
  766MOL0     H 5656   6.665   5.431   7.859  4.9378  1.8863  0.7161
  766MOL0     H 5657   6.792   5.165   7.615  1.2171 -0.3970  0.4482
  766MOL0     H 5658   6.959   5.360   7.327 -1.1462  1.0876 -1.7047
  766MOL0     H 5659   6.807   5.266   7.300  0.3858 -1.0095  0.9048
  766MOL0     H 5660   7.048   5.160   7.445  0.6060  1.2822 -1.5433
  766MOL0     H 5661   6.891   5.078   7.432 -0.6838 -0.3211 -1.0805
  766MOL0     H 5662   6.919   5.072   7.184 -2.1182  2.4314  1.9407
  766MOL0     H 5663   7.089   5.135   7.213  0.9809 -1.9116 -1.0575
  766MOL0     H 5664   6.961   4.880   7.309 -0.2445  1.0219 -0.0002
  766MOL0     H 5665   7.079   4.912   7.179  0.2281  3.9478 -1.4407
  766MOL0     H 5666   7.340   4.934   7.555 -1.2713  0.3503  0.4408
  766MOL0     H 5667   7.579   4.856   7.612 -1.0779  1.8185 -0.5256
  766MOL0     H 5668   7.708   4.912   7.506  0.2176 -0.8400 -0.0318
  766MOL0     H 5669   7.647   4.757   7.497 -0.4660 -0.1484  2.7321
  766MOL0     H 5670   7.974   4.787   7.366  0.7215  1.2636  0.7987
  766MOL0     H 5671   8.210   4.797   7.261 -0.9948  0.1078  0.8559
  766MOL0     H 5672   8.462   4.677   7.001  2.2318  2.2273  2.2199
  766MOL0     H 5673   8.409   4.743   7.153  1.5455  0.7467 -0.9031
  766MOL0     H 5674   8.254   4.529   7.160  1.7251 -1.2918  2.5670
  766MOL0     H 5675   8.366   4.453   7.046  2.2927  0.5048 -1.7284
  766MOL0     H 5676   8.386   4.426   7.305  2.0894 -1.0266 -0.2637
  766MOL0     H 5677   8.478   4.582   7.291  3.4100 -1.5170  0.0687
  766MOL0     H 5678   8.610   4.459   7.119 -2.7541  1.5680 -0.1752
  766MOL0     H 5679   8.534   4.313   7.148 -0.8817  0.4947 -2.0215
  766MOL0     H 5680   8.664   4.474   7.353 -0.6571 -0.0931 -0.4639
  766MOL0     H 5681   8.594   4.312   7.391 -1.2555 -0.8966 -1.7483
  766MOL0     H 5682   8.841   4.370   7.228 -2.7490 -0.5070 -3.1506
  766MOL0     H 5683   8.765   4.212   7.233 -0.3011  0.1401 -2.1969
  766MOL0     H 5684   8.797   4.207   7.481 -1.1907 -1.4706 -2.4760
  766MOL0     H 5685   8.891   4.359   7.472 -0.0588  0.5532  0.2996
  766MOL0     H 5686   8.966   4.081   7.365 -2.3880  1.1682 -4.3225
  766MOL0     H 5687   9.063   4.200   7.452 -0.8018  4.7310  1.0240
  766MOL0     H 5688   8.034   4.715   6.873  0.0661  0.5028 -0.4300
  766MOL0     H 5689   7.804   4.778   6.979  1.4056 -0.7824 -1.7334
  766MOL0     H 5690   7.501   4.930   7.078  0.3163 -0.5567  1.0818
  766MOL0     H 5691   7.268   4.937   7.128 -1.0943  0.6372 -0.4205
  766MOL0     H 5692   7.200   4.728   8.110 -1.7757  2.2451 -0.2507
  766MOL0     H 5693   7.278   4.515   8.019  0.0933 -1.0539 -2.8238
  766MOL0     H 5694   7.228   4.080   8.044  0.2532  0.2878 -0.8843
  766MOL0     H 5695   7.323   3.878   8.009 -0.3952  0.3257  0.6995
  766MOL0     H 5696   7.361   3.727   7.575  0.4471  1.1910 -1.1978
  766MOL0     H 5697   7.507   3.828   7.619 -0.7655  1.1107 -0.5679
  766MOL0     H 5698   7.468   3.542   7.687 -2.1095 -0.2061 -3.1328
  766MOL0     H 5699   7.613   3.645   7.714  0.6962  1.3390 -1.3435
  766MOL0     H 5700   7.507   3.552   7.453  0.0879  0.0339 -0.4702
  766MOL0     H 5701   7.616   3.687   7.476 -0.0724  0.1429  0.6760
  766MOL0     H 5702   7.796   3.543   7.563  1.0803 -0.9114 -2.3542
  766MOL0     H 5703   7.723   3.465   7.422 -1.7648  0.9065 -0.7244
  766MOL0     H 5704   7.581   3.211   7.731 -1.5629  2.7146  0.4093
  766MOL0     H 5705   7.296   3.932   7.584  0.6737  0.6472 -0.5920
  766MOL0     H 5706   7.241   4.240   7.569 -1.5021  2.1934 -1.3222
  766MOL0     H 5707   7.174   4.098   7.493  0.8582  1.6177 -0.1077
  766MOL0     H 5708   7.067   4.205   7.595 -0.0422 -0.4274  0.9539
  767MOL0     O 5709   2.982   0.541  10.554 -0.5069  0.1172  0.2814
  767MOL0     C 5710   2.970   0.482  10.659  0.0104 -0.4897 -0.7331
  767MOL0     O 5711   2.862   0.506  10.739  0.5056 -0.6126 -0.3229
  767MOL0     C 5712   2.768   0.595  10.701 -0.2495 -0.1458  0.1014
  767MOL0     C 5713   2.642   0.551  10.661  0.0341 -0.5682  0.3363
  767MOL0     C 5714   2.535   0.643  10.630  0.2159 -0.1006  0.6164
  767MOL0     C 5715   2.561   0.782  10.628  0.0222  0.1411  0.3457
  767MOL0     O 5716   2.468   0.881  10.598 -0.2947  0.0132 -0.8216
  767MOL0     C 5717   2.369   0.843  10.502 -0.6476 -1.4116 -1.0029
  767MOL0     C 5718   2.256   0.942  10.499  0.3668 -0.0901 -0.1948
  767MOL0     C 5719   2.175   0.948  10.638  0.0516  0.2584 -0.0854
  767MOL0     C 5720   2.056   1.047  10.630 -0.3824 -0.5041 -0.8605
  767MOL0     C 5721   2.100   1.200  10.637 -0.5087  1.0122  0.1660
  767MOL0     C 5722   1.984   1.284  10.644 -0.1856  0.1467 -0.2103
  767MOL0     C 5723   2.004   1.434  10.622 -0.2950  0.0445 -0.7928
  767MOL0     C 5724   2.078   1.514  10.725 -0.0981 -0.3741  0.2624
  767MOL0     N 5725   2.077   1.657  10.686 -0.3393  0.3584  0.1748
  767MOL0     C 5726   2.024   1.752  10.769  0.4962  0.8143 -0.4918
  767MOL0     C 5727   2.058   1.874  10.731 -0.3243 -0.1559  0.2831
  767MOL0     C 5728   2.021   2.000  10.799  0.0080  0.2628 -0.8379
  767MOL0     C 5729   1.885   2.031  10.763 -0.0715 -0.2249  0.2639
  767MOL0     C 5730   1.870   2.069  10.618  0.5835  0.5018 -0.1888
  767MOL0     C 5731   1.924   2.204  10.580 -0.1138 -0.4610  1.1050
  767MOL0     O 5732   1.913   2.219  10.431  0.2148  0.2686 -0.2836
  767MOL0     C 5733   1.999   2.157  10.347  0.9296 -0.5905  0.9398
  767MOL0     C 5734   2.102   2.071  10.384 -0.2179 -0.4017 -0.0823
  767MOL0     C 5735   2.193   2.024  10.292 -0.0695 -0.3157 -0.2915
  767MOL0     C 5736   2.302   1.937  10.347 -0.1197 -0.2455 -0.2579
  767MOL0     C 5737   2.187   2.050  10.155 -0.2316 -0.5105  0.1785
  767MOL0     C 5738   2.283   1.993  10.056  0.6568  0.7105  0.3187
  767MOL0     O 5739   2.407   1.943  10.093 -0.4619  0.4556  0.4476
  767MOL0     C 5740   2.510   1.918  10.006  0.5660  0.1404  0.3828
  767MOL0     C 5741   2.600   1.815  10.041 -0.3540  0.3082  0.0864
  767MOL0     C 5742   2.707   1.788   9.949  0.6317 -0.5220  0.2978
  767MOL0     C 5743   2.729   1.870   9.833  0.0893 -0.0169 -0.1828
  767MOL0     O 5744   2.823   1.841   9.751  0.1852  0.1508 -0.0910
  767MOL0     C 5745   2.859   1.916   9.637  0.8626 -0.0194  0.3026
  767MOL0     C 5746   2.981   1.856   9.565  0.0530  0.2643  0.2941
  767MOL0     C 5747   3.126   1.879   9.624  0.6943  1.2067 -0.2161
  767MOL0     C 5748   3.239   1.786   9.569 -0.0600  0.0332 -0.1266
  767MOL0     C 5749   3.376   1.840   9.611 -0.4973  0.0144  0.4263
  767MOL0     C 5750   3.494   1.758   9.557  0.3593  0.3982  0.1282
  767MOL0     C 5751   3.476   1.730   9.407  0.0868  0.1562  0.0452
  767MOL0     C 5752   3.580   1.624   9.356  0.0273  0.3410  0.7054
  767MOL0    Cl 5753   3.732   1.718   9.321  0.1027  0.1472 -0.0961
  767MOL0     C 5754   2.636   1.969   9.809 -0.1880 -0.6848  0.2855
  767MOL0     C 5755   2.529   1.990   9.885  0.1252 -0.0790  0.1254
  767MOL0     O 5756   2.241   1.997   9.939  0.2549 -0.1314  0.1727
  767MOL0     C 5757   2.073   2.119  10.110 -1.0509  1.7122  0.2070
  767MOL0     C 5758   1.991   2.174  10.203  0.3033 -0.6003  0.7373
  767MOL0     N 5759   2.154   1.853  10.632 -0.3397 -0.4134  0.1608
  767MOL0     N 5760   2.164   1.721  10.604 -0.0266 -0.0548 -1.0053
  767MOL0     C 5761   2.688   0.820  10.674  0.3543 -0.1462  0.4332
  767MOL0     C 5762   2.789   0.729  10.712  0.2188  0.0711 -0.3532
  767MOL0     C 5763   3.081   0.403  10.706  0.1515  0.1894 -0.0227
  767MOL0     C 5764   3.164   0.347  10.612  0.0889  0.1390  1.0867
  767MOL0     C 5765   3.276   0.272  10.648 -0.8496  0.3159  0.0447
  767MOL0     C 5766   3.304   0.253  10.777 -0.0860  0.4190 -1.3109
  767MOL0     O 5767   3.413   0.172  10.822  0.1380 -0.3151  1.0086
  767MOL0     C 5768   3.507   0.115  10.718  0.5165  0.7348  0.2890
  767MOL0     C 5769   3.598   0.010  10.769  0.0285 -0.2212 -0.1891
  767MOL0     C 5770   3.525  -0.105  10.841 -0.4761 -0.2770  0.0677
  767MOL0     C 5771   3.614  -0.164  10.952 -0.1618 -0.7979 -0.1981
  767MOL0     C 5772   3.540  -0.262  11.035  0.1278 -0.7054  0.6415
  767MOL0     C 5773   3.464  -0.331  11.091  0.5064 -0.7143  0.4182
  767MOL0     C 5774   3.220   0.300  10.877 -0.7691 -0.5134 -0.1277
  767MOL0     C 5775   3.113   0.375  10.844  0.7457  0.4901  1.1248
  767MOL0     C 5776   3.014   0.401  10.955  0.1746  0.1610 -1.1185
  767MOL0     H 5777   2.624   0.447  10.637  0.8528 -0.3309 -1.4706
  767MOL0     H 5778   2.441   0.593  10.606  0.6413 -0.9210  0.6426
  767MOL0     H 5779   2.321   0.748  10.528  0.6770 -1.9436 -0.4248
  767MOL0     H 5780   2.418   0.831  10.405  3.1460  0.9226  0.4033
  767MOL0     H 5781   2.298   1.041  10.477  3.4766 -0.8967  1.5914
  767MOL0     H 5782   2.179   0.917  10.426 -0.1418  0.3963  0.1592
  767MOL0     H 5783   2.136   0.849  10.665  1.8043 -0.4466 -0.0162
  767MOL0     H 5784   2.240   0.981  10.720  1.9108 -2.6472 -0.2422
  767MOL0     H 5785   2.000   1.028  10.538 -2.4235 -0.8101  0.3941
  767MOL0     H 5786   1.990   1.024  10.714  1.1193 -1.1608  0.1773
  767MOL0     H 5787   2.146   1.217  10.540 -4.0546 -2.5379 -2.4830
  767MOL0     H 5788   2.171   1.214  10.719  1.3021 -0.7415 -1.0482
  767MOL0     H 5789   1.909   1.260  10.568  0.1813  0.4906 -0.6824
  767MOL0     H 5790   1.948   1.265  10.746  0.7578  1.4653  0.3867
  767MOL0     H 5791   1.898   1.463  10.620 -0.0513  0.9186 -2.5658
  767MOL0     H 5792   2.046   1.449  10.523 -1.2110  2.0889 -0.9267
  767MOL0     H 5793   2.027   1.489  10.819 -3.4365 -2.9609 -1.9896
  767MOL0     H 5794   2.177   1.471  10.743  0.0106  0.7298  2.5956
  767MOL0     H 5795   1.954   1.727  10.848 -0.0236 -1.7076 -1.6518
  767MOL0     H 5796   2.088   2.084  10.777 -0.4508  0.2555 -2.3734
  767MOL0     H 5797   2.025   1.982  10.906  2.5080  2.8332 -0.3833
  767MOL0     H 5798   1.826   1.944  10.793 -1.5482  1.1655  1.6169
  767MOL0     H 5799   1.853   2.114  10.827  0.9979 -0.1668  0.7510
  767MOL0     H 5800   1.915   1.994  10.554 -1.2224  0.0163 -0.9429
  767MOL0     H 5801   1.763   2.073  10.600  0.3628  1.0816  1.0832
  767MOL0     H 5802   1.864   2.282  10.628 -0.9684 -1.0783  1.0703
  767MOL0     H 5803   2.029   2.219  10.605  0.0222 -0.9875  0.8523
  767MOL0     H 5804   2.128   2.064  10.489  3.2001 -0.5809 -0.8249
  767MOL0     H 5805   2.306   1.838  10.301  1.9185 -1.2112  1.7876
  767MOL0     H 5806   2.300   1.904  10.451  0.8543  0.8584  0.1392
  767MOL0     H 5807   2.394   1.995  10.334 -0.8879  1.0404 -0.1072
  767MOL0     H 5808   2.584   1.753  10.129 -5.6848  1.7682  0.4955
  767MOL0     H 5809   2.754   1.693   9.969 -5.3868 -3.4575  3.2292
  767MOL0     H 5810   2.788   1.914   9.553  2.6508 -1.2927 -1.2810
  767MOL0     H 5811   2.877   2.021   9.662 -1.0351  0.2691  0.5934
  767MOL0     H 5812   2.958   1.750   9.551  4.7541 -0.7617 -1.4900
  767MOL0     H 5813   2.982   1.892   9.462 -0.3616 -1.8969 -0.5222
  767MOL0     H 5814   3.125   1.865   9.733 -1.2391 -3.4595 -0.5756
  767MOL0     H 5815   3.155   1.981   9.598 -1.6743  1.5333 -1.8977
  767MOL0     H 5816   3.227   1.796   9.461 -2.5568 -1.8280 -0.1085
  767MOL0     H 5817   3.231   1.680   9.596  3.5420 -0.4860 -0.5554
  767MOL0     H 5818   3.383   1.944   9.578  0.6593  0.0855  0.8795
  767MOL0     H 5819   3.386   1.846   9.720 -2.5896 -0.3469  0.6805
  767MOL0     H 5820   3.496   1.659   9.604  0.6598  0.9558  1.3203
  767MOL0     H 5821   3.591   1.807   9.571  0.8223 -1.1243  3.0698
  767MOL0     H 5822   3.486   1.818   9.344  0.0447 -0.8527 -1.4314
  767MOL0     H 5823   3.382   1.677   9.387  0.9162 -1.1268 -0.5467
  767MOL0     H 5824   3.539   1.554   9.282  1.5850 -1.4823  1.4860
  767MOL0     H 5825   3.611   1.571   9.446 -1.5956  1.2779  1.8751
  767MOL0     H 5826   2.632   2.029   9.718 -0.8992  0.6325  1.1420
  767MOL0     H 5827   2.458   2.067   9.855 -0.0694 -0.4655 -0.4251
  767MOL0     H 5828   2.054   2.146  10.007 -1.0274  0.0492 -0.2590
  767MOL0     H 5829   1.912   2.236  10.161  0.0662 -1.6449 -0.3915
  767MOL0     H 5830   2.723   0.922  10.661 -0.0156 -0.0327  0.3306
  767MOL0     H 5831   2.883   0.769  10.748 -0.7698 -0.2898  2.9362
  767MOL0     H 5832   3.161   0.364  10.505  4.9735 -0.4363  0.6076
  767MOL0     H 5833   3.345   0.236  10.572 -0.9974  3.0509 -1.5323
  767MOL0     H 5834   3.440   0.067  10.647  0.2218  0.8275  0.5014
  767MOL0     H 5835   3.555   0.199  10.667 -0.5404  0.4417 -1.2421
  767MOL0     H 5836   3.680   0.038  10.837 -0.0515  1.9227 -0.9112
  767MOL0     H 5837   3.650  -0.020  10.678 -1.4063  2.4865 -2.0390
  767MOL0     H 5838   3.441  -0.058  10.893  1.5813 -0.4300  3.8290
  767MOL0     H 5839   3.493  -0.180  10.768  3.1755 -1.7757 -0.2033
  767MOL0     H 5840   3.657  -0.087  11.016  1.5885 -1.4175 -0.5641
  767MOL0     H 5841   3.696  -0.210  10.895  0.2468 -0.2869 -0.0260
  767MOL0     H 5842   3.389  -0.403  11.118 -1.5573  2.0321  2.6199
  767MOL0     H 5843   3.254   0.274  10.976 -0.1880  2.3977  0.5136
  767MOL0     H 5844   2.928   0.336  10.936  1.4758 -1.7239 -0.8277
  767MOL0     H 5845   3.049   0.355  11.048 -1.8214 -1.5364 -1.1218
  767MOL0     H 5846   2.980   0.502  10.979 -0.0372  0.1123 -1.2023
  768MOL0     O 5847   7.272   2.712  11.432  0.1342  0.2253 -0.5739
  768MOL0     C 5848   7.152   2.746  11.448 -0.9027 -0.1153 -0.1527
  768MOL0     O 5849   7.068   2.779  11.346 -0.3987  0.3811  0.3413
  768MOL0     C 5850   7.122   2.841  11.232  0.7193  0.9652  0.0901
  768MOL0     C 5851   7.091   2.975  11.216  0.7354  0.0453  0.2916
  768MOL0     C 5852   7.138   3.038  11.099 -0.0712  0.7777  0.4286
  768MOL0     C 5853   7.227   2.973  11.005  0.8748  0.2900  0.3865
  768MOL0     O 5854   7.295   3.033  10.897  0.3562 -0.1493  0.5077
  768MOL0     C 5855   7.202   3.108  10.812  0.0191 -0.5051  0.3946
  768MOL0     C 5856   7.289   3.156  10.696  0.0853 -0.2186  0.4913
  768MOL0     C 5857   7.360   3.034  10.623  0.3725  1.0963  0.4753
  768MOL0     C 5858   7.420   3.068  10.485 -0.0768 -0.5953 -0.1777
  768MOL0     C 5859   7.475   2.935  10.416  0.6008  1.0517  0.8015
  768MOL0     C 5860   7.520   2.956  10.267  0.5144  0.4933 -0.4031
  768MOL0     C 5861   7.562   2.826  10.202 -0.1439  0.7982  0.9421
  768MOL0     C 5862   7.591   2.840  10.057 -0.2135  0.4400  0.2193
  768MOL0     N 5863   7.473   2.850   9.964 -0.2391 -0.3052  0.2636
  768MOL0     C 5864   7.376   2.750   9.961  0.0360 -0.0596  0.7026
  768MOL0     C 5865   7.278   2.808   9.877  1.0206 -0.8107  0.2543
  768MOL0     C 5866   7.145   2.743   9.850 -0.1230 -0.6393  1.3493
  768MOL0     C 5867   7.051   2.709   9.964  0.1734 -0.5964  0.7295
  768MOL0     C 5868   7.030   2.824  10.062 -0.2698 -0.0590  0.1268
  768MOL0     C 5869   6.958   2.949  10.003  0.3268  0.9617  0.2834
  768MOL0     O 5870   6.935   3.039  10.110 -0.6496  0.1432 -0.9486
  768MOL0     C 5871   6.989   3.159  10.092  0.2216 -0.0338  0.3101
  768MOL0     C 5872   6.908   3.267  10.075 -0.2101 -0.3758  0.1193
  768MOL0     C 5873   6.953   3.404  10.052 -0.1818 -0.1796  0.0445
  768MOL0     C 5874   6.847   3.512  10.030 -0.1199  0.3940  0.2483
  768MOL0     C 5875   7.095   3.417  10.045  1.1517  0.1780 -0.5565
  768MOL0     C 5876   7.170   3.542  10.009  0.3619 -0.1801 -0.3768
  768MOL0     O 5877   7.299   3.528   9.981 -0.1321  0.5318  0.2660
  768MOL0     C 5878   7.383   3.637   9.958  0.7024  0.0011 -0.3807
  768MOL0     C 5879   7.492   3.619   9.867 -0.0938 -0.4054 -0.4531
  768MOL0     C 5880   7.581   3.720   9.830 -1.6113  0.1825 -0.0254
  768MOL0     C 5881   7.574   3.841   9.900  0.2919  0.7481  0.0894
  768MOL0     O 5882   7.656   3.951   9.883  0.6155  0.5804 -0.2505
  768MOL0     C 5883   7.778   3.938   9.805 -0.5308  0.3971  1.0385
  768MOL0     C 5884   7.849   4.072   9.800 -0.5228  0.1072  0.1739
  768MOL0     C 5885   7.917   4.113   9.935  0.2973 -0.0448 -0.6635
  768MOL0     C 5886   8.012   4.240   9.906 -0.5203  0.2643 -0.3430
  768MOL0     C 5887   7.930   4.372   9.907 -0.2632  0.2806  0.3714
  768MOL0     C 5888   8.024   4.485   9.862 -0.5669  0.6229 -0.6681
  768MOL0     C 5889   8.135   4.523   9.964 -0.3689 -0.2735 -0.4312
  768MOL0     C 5890   8.247   4.593   9.889 -0.1625  0.4121 -0.1936
  768MOL0    Cl 5891   8.343   4.463   9.793 -0.1513  0.0705 -0.2399
  768MOL0     C 5892   7.464   3.864   9.996  1.1361  1.1262  0.2677
  768MOL0     C 5893   7.370   3.765  10.027  0.8816  0.3959 -0.0017
  768MOL0     O 5894   7.107   3.655  10.000 -0.9773  0.3292  0.0161
  768MOL0     C 5895   7.172   3.310  10.076 -0.5550  0.1060  0.3678
  768MOL0     C 5896   7.129   3.184  10.101  0.1953  0.2685 -0.4223
  768MOL0     N 5897   7.321   2.940   9.851 -0.3941 -0.0423 -0.4990
  768MOL0     N 5898   7.441   2.959   9.901 -0.5969 -0.2200 -0.2510
  768MOL0     C 5899   7.256   2.838  11.025 -0.4290 -0.6022 -0.5395
  768MOL0     C 5900   7.213   2.775  11.144  0.7993 -0.2156 -0.0659
  768MOL0     C 5901   7.092   2.752  11.581  0.2512  0.0670 -0.4544
  768MOL0     C 5902   6.977   2.834  11.604  0.0116  0.8544 -0.6022
  768MOL0     C 5903   6.923   2.845  11.729  0.6391 -0.8424  0.1550
  768MOL0     C 5904   6.974   2.784  11.834  0.3233  1.0321 -0.8133
  768MOL0     O 5905   6.919   2.797  11.958  0.2845 -0.1109 -0.2730
  768MOL0     C 5906   6.847   2.917  12.000  0.5256 -0.8594  0.1160
  768MOL0     C 5907   6.843   2.907  12.157  0.1306 -0.8828  0.9919
  768MOL0     C 5908   6.758   3.020  12.207 -0.2961 -1.1112  0.2436
  768MOL0     C 5909   6.608   3.015  12.180  0.2851 -0.0025 -0.1086
  768MOL0     C 5910   6.543   2.891  12.238  0.0418 -0.1567 -0.7748
  768MOL0     C 5911   6.479   2.788  12.272  0.0466 -0.3934  1.0220
  768MOL0     C 5912   7.075   2.688  11.815 -0.0004  0.3414 -0.2792
  768MOL0     C 5913   7.135   2.671  11.690 -0.0924 -0.8589 -0.1037
  768MOL0     C 5914   7.234   2.561  11.691  0.1493 -0.1859  0.6677
  768MOL0     H 5915   7.037   3.019  11.300  1.5399  0.0598  0.8155
  768MOL0     H 5916   7.124   3.146  11.098  0.3979  0.8435  0.8885
  768MOL0     H 5917   7.173   3.197  10.869 -2.1724 -0.3684 -0.8150
  768MOL0     H 5918   7.113   3.049  10.786  0.9557 -0.8977 -2.2386
  768MOL0     H 5919   7.225   3.205  10.622 -1.5159 -0.7008  1.5150
  768MOL0     H 5920   7.370   3.223  10.726 -0.6209  0.8283  0.1040
  768MOL0     H 5921   7.447   3.000  10.680 -1.1013  1.6092  3.1720
  768MOL0     H 5922   7.297   2.944  10.621  0.2413  1.1680  1.2607
  768MOL0     H 5923   7.348   3.126  10.427  2.2437  1.2048 -1.4704
  768MOL0     H 5924   7.501   3.139  10.508 -0.2932 -0.9410  1.7593
  768MOL0     H 5925   7.394   2.862  10.419 -1.3133  3.0786  3.7719
  768MOL0     H 5926   7.566   2.895  10.463 -0.1022 -2.6896 -0.7067
  768MOL0     H 5927   7.436   2.993  10.208  1.4021  0.9635 -1.4185
  768MOL0     H 5928   7.594   3.035  10.275 -1.8180  2.6771  0.8386
  768MOL0     H 5929   7.485   2.748  10.212 -0.4793  0.2033 -3.8130
  768MOL0     H 5930   7.654   2.796  10.253 -0.4897  0.1676  1.2213
  768MOL0     H 5931   7.659   2.925  10.057  1.1148 -0.5965  0.6654
  768MOL0     H 5932   7.651   2.756  10.020 -0.5029  0.4784 -0.3470
  768MOL0     H 5933   7.382   2.655  10.014  1.6945  0.8102  2.2051
  768MOL0     H 5934   7.166   2.655   9.789 -0.4872  0.9169 -1.1866
  768MOL0     H 5935   7.098   2.826   9.796 -0.9141 -0.9990  1.4840
  768MOL0     H 5936   6.954   2.686   9.918  0.7801 -2.5320  0.2998
  768MOL0     H 5937   7.085   2.616  10.010 -1.1130 -1.5824 -0.2282
  768MOL0     H 5938   6.966   2.788  10.143  1.3175  1.7818  2.3382
  768MOL0     H 5939   7.125   2.852  10.109 -0.6119  1.3453  0.0312
  768MOL0     H 5940   7.016   2.994   9.922 -0.2682 -1.6526 -1.7112
  768MOL0     H 5941   6.858   2.924   9.967 -0.8334  0.4180  3.5262
  768MOL0     H 5942   6.802   3.251  10.090 -0.6266  0.8335 -1.2824
  768MOL0     H 5943   6.852   3.556   9.930 -1.7556  0.5453  0.1994
  768MOL0     H 5944   6.860   3.591  10.105 -0.6698  0.2822  0.4710
  768MOL0     H 5945   6.746   3.473  10.044  0.4044 -1.0761  0.1058
  768MOL0     H 5946   7.515   3.519   9.831  1.9767  0.5818 -2.0739
  768MOL0     H 5947   7.666   3.688   9.771 -0.5583 -1.2474  2.1883
  768MOL0     H 5948   7.847   3.862   9.844 -0.0968 -1.1005 -2.3268
  768MOL0     H 5949   7.758   3.914   9.700  0.8751 -0.6931  0.9841
  768MOL0     H 5950   7.919   4.061   9.718  1.0411 -2.3656  1.7147
  768MOL0     H 5951   7.773   4.147   9.778  0.5502  1.0042 -0.5594
  768MOL0     H 5952   7.974   4.030   9.980 -0.8227 -0.7958 -0.6057
  768MOL0     H 5953   7.833   4.129  10.003 -0.4996  1.1466 -1.8906
  768MOL0     H 5954   8.056   4.225   9.807 -0.2355  1.9728 -0.5196
  768MOL0     H 5955   8.089   4.240   9.983  0.7992  0.0166 -1.6230
  768MOL0     H 5956   7.847   4.366   9.836  0.1252 -1.0679 -0.0128
  768MOL0     H 5957   7.890   4.401  10.004 -2.3788  1.4999 -0.7982
  768MOL0     H 5958   7.954   4.567   9.844 -1.6467  0.4752  2.3141
  768MOL0     H 5959   8.062   4.450   9.765 -2.0614  1.2893 -1.5231
  768MOL0     H 5960   8.165   4.447  10.037  1.6923 -0.2804 -1.2204
  768MOL0     H 5961   8.070   4.593  10.018 -3.9741 -2.0254 -2.1634
  768MOL0     H 5962   8.313   4.651   9.955  3.0407 -1.5245 -1.4736
  768MOL0     H 5963   8.210   4.668   9.818 -0.4878 -1.3146 -1.9219
  768MOL0     H 5964   7.472   3.962  10.041  2.0705  2.8255 -3.2271
  768MOL0     H 5965   7.292   3.777  10.101 -1.6470 -1.9253 -2.0919
  768MOL0     H 5966   7.281   3.314  10.076 -0.4125 -1.1387 -2.6429
  768MOL0     H 5967   7.194   3.098  10.118 -2.9958 -3.2895 -4.1182
  768MOL0     H 5968   7.329   2.788  10.964  1.9776 -0.3048  1.9100
  768MOL0     H 5969   7.231   2.668  11.156 -1.4550 -0.6247 -0.0345
  768MOL0     H 5970   6.924   2.887  11.526  0.2142 -0.8596 -1.9671
  768MOL0     H 5971   6.836   2.909  11.740  1.5859  0.5012  0.0932
  768MOL0     H 5972   6.901   3.003  11.959 -0.1414 -1.2207 -1.5999
  768MOL0     H 5973   6.741   2.926  11.972  0.3517  2.2309  1.3424
  768MOL0     H 5974   6.945   2.914  12.197 -0.1790 -2.1659  2.0933
  768MOL0     H 5975   6.813   2.806  12.187  1.0579 -1.4894 -0.0530
  768MOL0     H 5976   6.767   3.023  12.315  0.6697 -1.6747  0.1952
  768MOL0     H 5977   6.790   3.119  12.173 -2.7312  0.2402  1.6080
  768MOL0     H 5978   6.575   3.024  12.076  1.2794 -2.6359 -0.7288
  768MOL0     H 5979   6.570   3.097  12.242  3.2235 -1.4157  3.9700
  768MOL0     H 5980   6.419   2.701  12.287 -2.2155  0.2235 -2.9604
  768MOL0     H 5981   7.103   2.627  11.900  2.3934 -1.7858 -2.4417
  768MOL0     H 5982   7.226   2.483  11.615 -0.6254  0.6666 -0.1677
  768MOL0     H 5983   7.323   2.619  11.664  0.3794 -1.3799 -1.3882
  768MOL0     H 5984   7.240   2.509  11.786 -1.1577 -1.6004  0.0274
  769MOL0     O 5985   0.683   3.249   7.471  0.6157 -0.0323  0.1455
  769MOL0     C 5986   0.699   3.207   7.356  0.9725  0.5841  0.3111
  769MOL0     O 5987   0.621   3.247   7.247 -0.0009 -0.7117  0.5532
  769MOL0     C 5988   0.499   3.303   7.283  0.1526  0.0769 -0.0374
  769MOL0     C 5989   0.453   3.422   7.233  0.1008  0.0157  0.3274
  769MOL0     C 5990   0.321   3.460   7.244 -0.6614  0.0497  0.2201
  769MOL0     C 5991   0.234   3.395   7.329  0.0570 -0.1652 -0.2111
  769MOL0     O 5992   0.113   3.450   7.342 -0.2302 -0.0675 -0.0355
  769MOL0     C 5993   0.012   3.394   7.428  0.5383 -0.2250  0.3400
  769MOL0     C 5994  -0.124   3.474   7.404 -0.9864  0.0962 -0.1653
  769MOL0     C 5995  -0.156   3.593   7.505  0.4921 -0.1164 -0.4179
  769MOL0     C 5996  -0.148   3.556   7.650 -0.6561 -0.3975 -0.3159
  769MOL0     C 5997  -0.219   3.657   7.740  0.1591  0.5975 -0.3934
  769MOL0     C 5998  -0.208   3.630   7.889 -0.3796 -0.3982  0.3399
  769MOL0     C 5999  -0.073   3.620   7.960 -0.1827  0.5026  0.2022
  769MOL0     C 6000  -0.056   3.640   8.111 -0.4885 -0.4108  0.2074
  769MOL0     N 6001   0.084   3.613   8.146 -0.2304 -0.4136  0.0377
  769MOL0     C 6002   0.186   3.704   8.159  0.4914 -0.0952  0.6891
  769MOL0     C 6003   0.291   3.642   8.217 -0.1257 -1.0310  0.2623
  769MOL0     C 6004   0.423   3.701   8.257  0.0640 -0.3869 -0.9540
  769MOL0     C 6005   0.535   3.672   8.148  0.6412 -0.1271  0.2154
  769MOL0     C 6006   0.662   3.761   8.152  0.8680  0.3148 -0.6510
  769MOL0     C 6007   0.743   3.761   8.012 -0.3584 -0.0443 -0.1300
  769MOL0     O 6008   0.874   3.802   8.028 -0.5749 -0.1044 -0.3330
  769MOL0     C 6009   0.975   3.710   8.063  0.4454 -0.8703  0.0883
  769MOL0     C 6010   0.950   3.574   8.098 -0.9222  1.0451 -0.1938
  769MOL0     C 6011   1.064   3.490   8.139 -0.4013 -0.0313  0.1454
  769MOL0     C 6012   1.023   3.355   8.195 -0.4232  0.6750  0.3137
  769MOL0     C 6013   1.191   3.551   8.132 -0.1259  0.8258  0.9837
  769MOL0     C 6014   1.318   3.480   8.151  0.5133 -0.9784 -0.7299
  769MOL0     O 6015   1.423   3.555   8.176 -0.3958  0.1592  0.0568
  769MOL0     C 6016   1.548   3.497   8.168 -0.6531  0.5679 -0.2577
  769MOL0     C 6017   1.597   3.456   8.040 -0.8155  0.3711  0.8858
  769MOL0     C 6018   1.726   3.405   8.027 -0.1412 -0.8297  0.8324
  769MOL0     C 6019   1.819   3.389   8.135  0.4224  0.1843  0.7454
  769MOL0     O 6020   1.949   3.356   8.131 -0.3184  0.7049 -0.2403
  769MOL0     C 6021   1.997   3.324   7.998  0.4401  0.4792 -0.2204
  769MOL0     C 6022   2.138   3.280   8.014 -0.4305 -0.3269  0.4796
  769MOL0     C 6023   2.201   3.232   7.884  0.6726 -0.2872 -0.6721
  769MOL0     C 6024   2.343   3.188   7.910 -0.7373  0.5805 -1.0914
  769MOL0     C 6025   2.422   3.148   7.783 -0.1121  0.3073  0.2509
  769MOL0     C 6026   2.572   3.123   7.814  0.2208 -0.2446  0.4519
  769MOL0     C 6027   2.610   3.021   7.916  0.1272 -1.3168 -0.7100
  769MOL0     C 6028   2.760   2.987   7.899  0.0174  0.4223  0.8290
  769MOL0    Cl 6029   2.814   2.933   8.059  0.0677  0.1215  0.3060
  769MOL0     C 6030   1.773   3.446   8.255  0.4210  0.7251 -0.2625
  769MOL0     C 6031   1.639   3.494   8.275  0.4023  0.2354  0.6429
  769MOL0     O 6032   1.319   3.361   8.136 -0.3893  0.0118 -0.5005
  769MOL0     C 6033   1.208   3.679   8.094  0.2304  0.5843  0.4134
  769MOL0     C 6034   1.101   3.763   8.054  0.1927  0.4327 -0.7495
  769MOL0     N 6035   0.261   3.510   8.227  0.7352  0.1931 -0.3739
  769MOL0     N 6036   0.135   3.495   8.195 -0.4833  0.2885 -0.3503
  769MOL0     C 6037   0.282   3.285   7.401 -0.0851  0.2485  0.0553
  769MOL0     C 6038   0.413   3.230   7.375  0.2447 -0.0305 -0.6026
  769MOL0     C 6039   0.805   3.099   7.322 -0.1988 -0.1378 -0.9226
  769MOL0     C 6040   0.795   3.019   7.212 -0.1286  0.3258 -0.1583
  769MOL0     C 6041   0.884   2.916   7.180  0.9097 -0.3960  0.6169
  769MOL0     C 6042   0.976   2.880   7.270 -0.0592  0.4660  0.0424
  769MOL0     O 6043   1.078   2.785   7.248  0.6769  0.1794  0.5266
  769MOL0     C 6044   1.101   2.713   7.123  0.3638  0.2337 -0.3678
  769MOL0     C 6045   1.247   2.666   7.116 -1.0752 -0.0710  0.2655
  769MOL0     C 6046   1.271   2.554   7.214 -0.2952 -0.2610  0.3331
  769MOL0     C 6047   1.423   2.525   7.225  0.4103 -0.0635 -0.1949
  769MOL0     C 6048   1.438   2.395   7.276 -0.0464 -0.1672 -0.0065
  769MOL0     C 6049   1.464   2.295   7.330 -0.4071  0.6205 -0.6653
  769MOL0     C 6050   0.978   2.945   7.394 -0.0482 -0.0667  0.3936
  769MOL0     C 6051   0.907   3.064   7.418  0.4361  0.3869  0.9574
  769MOL0     C 6052   0.943   3.138   7.540 -0.5180  0.0407  0.0850
  769MOL0     H 6053   0.514   3.488   7.173 -0.4463  1.4242  1.2819
  769MOL0     H 6054   0.303   3.561   7.206 -2.9935 -0.0029  1.0073
  769MOL0     H 6055   0.040   3.392   7.534  3.7109 -0.6711 -0.4185
  769MOL0     H 6056  -0.019   3.292   7.405  0.5331 -0.1825  0.1572
  769MOL0     H 6057  -0.132   3.503   7.299 -1.8877  0.4678 -0.0041
  769MOL0     H 6058  -0.214   3.413   7.414 -0.1240 -2.0253 -3.5724
  769MOL0     H 6059  -0.082   3.673   7.503 -0.4791  0.7981 -0.4367
  769MOL0     H 6060  -0.255   3.630   7.479 -0.2113 -2.0633 -0.6565
  769MOL0     H 6061  -0.170   3.450   7.669 -0.4556 -0.2076  1.1160
  769MOL0     H 6062  -0.042   3.560   7.680 -0.9218 -0.8707  0.7427
  769MOL0     H 6063  -0.325   3.651   7.717  0.0360  1.0556  0.0478
  769MOL0     H 6064  -0.190   3.760   7.718 -0.9168  1.0214  0.1487
  769MOL0     H 6065  -0.259   3.709   7.945 -2.1728  1.1397 -3.1908
  769MOL0     H 6066  -0.269   3.541   7.911 -0.4796 -0.0801  1.3903
  769MOL0     H 6067  -0.022   3.703   7.910  0.0453 -1.3766 -2.9653
  769MOL0     H 6068  -0.031   3.526   7.922 -0.7646  0.7791 -1.2102
  769MOL0     H 6069  -0.101   3.736   8.140  0.9203  0.1699  0.5603
  769MOL0     H 6070  -0.122   3.564   8.152  1.5779 -1.1031  2.4853
  769MOL0     H 6071   0.193   3.812   8.148  0.9824 -0.1767  0.1281
  769MOL0     H 6072   0.447   3.660   8.356  2.4151  3.8243  0.4680
  769MOL0     H 6073   0.415   3.808   8.280  1.8293 -0.4820  0.2876
  769MOL0     H 6074   0.561   3.566   8.155 -0.2392 -0.3016  0.9424
  769MOL0     H 6075   0.483   3.677   8.052  1.5976 -4.2382 -0.7316
  769MOL0     H 6076   0.636   3.862   8.183 -1.5440 -0.4403 -0.0145
  769MOL0     H 6077   0.723   3.718   8.233 -1.5543 -1.1434  0.5002
  769MOL0     H 6078   0.736   3.662   7.967  1.6507  0.2346 -1.1391
  769MOL0     H 6079   0.682   3.819   7.943 -2.5005  0.5380  2.1037
  769MOL0     H 6080   0.850   3.532   8.086 -1.9651  2.8795  1.5036
  769MOL0     H 6081   1.098   3.283   8.227 -0.0144  0.6658 -0.6348
  769MOL0     H 6082   0.977   3.297   8.115  1.2958 -0.6881  0.2656
  769MOL0     H 6083   0.952   3.369   8.277  0.8986 -0.0438  1.6201
  769MOL0     H 6084   1.533   3.466   7.953 -1.2973 -4.3092  0.4713
  769MOL0     H 6085   1.750   3.365   7.929 -0.2598 -0.9534  0.8529
  769MOL0     H 6086   1.945   3.241   7.949  3.4845 -1.2368 -0.7971
  769MOL0     H 6087   1.988   3.416   7.939 -2.3110 -0.8774 -2.1511
  769MOL0     H 6088   2.204   3.358   8.053  1.5305 -0.4800 -2.2469
  769MOL0     H 6089   2.144   3.200   8.088  0.9317  0.5145  1.3328
  769MOL0     H 6090   2.227   3.316   7.819 -3.7216  1.7780 -0.1227
  769MOL0     H 6091   2.140   3.148   7.849  0.0757 -0.1770  0.0766
  769MOL0     H 6092   2.347   3.098   7.973 -1.4489  1.1732 -0.1588
  769MOL0     H 6093   2.400   3.268   7.958 -1.8022 -0.0310  1.3599
  769MOL0     H 6094   2.388   3.054   7.741  2.9551 -0.9981  0.3852
  769MOL0     H 6095   2.414   3.231   7.712 -0.7360  2.0935  2.2988
  769MOL0     H 6096   2.626   3.218   7.824 -0.3590  0.5158 -2.4883
  769MOL0     H 6097   2.618   3.086   7.722 -0.9824 -1.5819  0.3571
  769MOL0     H 6098   2.553   2.929   7.899 -0.5228 -1.1200  0.2914
  769MOL0     H 6099   2.590   3.061   8.016 -1.4417  1.6943 -2.0734
  769MOL0     H 6100   2.809   3.078   7.863  0.1318  0.8219  1.9359
  769MOL0     H 6101   2.774   2.912   7.821 -0.8755 -1.8696  2.7614
  769MOL0     H 6102   1.836   3.445   8.343 -0.1780  2.3492  0.2179
  769MOL0     H 6103   1.615   3.535   8.372 -0.9036  0.0699  0.4094
  769MOL0     H 6104   1.309   3.714   8.078  0.0670  2.3802  2.7446
  769MOL0     H 6105   1.122   3.862   8.015  2.0712 -0.1804 -1.4063
  769MOL0     H 6106   0.217   3.239   7.474  0.5485 -1.4728 -0.4167
  769MOL0     H 6107   0.446   3.144   7.431 -2.3292  0.8358  2.5399
  769MOL0     H 6108   0.706   3.037   7.153  0.0132 -0.3700 -0.5989
  769MOL0     H 6109   0.854   2.860   7.092 -1.5137  2.1782 -0.3594
  769MOL0     H 6110   1.026   2.634   7.116  0.6138  0.0549 -1.1403
  769MOL0     H 6111   1.077   2.780   7.040 -1.1441 -0.1399 -0.2617
  769MOL0     H 6112   1.328   2.739   7.126 -0.4506 -1.0114  2.6592
  769MOL0     H 6113   1.259   2.635   7.011  1.5166  0.5777  0.2957
  769MOL0     H 6114   1.234   2.584   7.312 -0.2383  0.8605  0.0285
  769MOL0     H 6115   1.207   2.469   7.185  0.2548 -1.8114  3.2836
  769MOL0     H 6116   1.470   2.602   7.286 -1.2938  0.1224  0.9572
  769MOL0     H 6117   1.477   2.524   7.130  2.2613 -1.3083  0.7897
  769MOL0     H 6118   1.516   2.205   7.356  0.6905  2.1529  2.9885
  769MOL0     H 6119   1.040   2.895   7.467 -0.0617 -0.9622 -0.1843
  769MOL0     H 6120   1.044   3.127   7.579 -0.0852  1.1762 -0.6487
  769MOL0     H 6121   0.923   3.245   7.526  2.6020  0.5869 -1.0646
  769MOL0     H 6122   0.880   3.105   7.623 -1.0442 -1.1542 -0.7621
  770MOL0     O 6123   6.876   9.242   4.381  0.0830 -0.3321  0.3321
  770MOL0     C 6124   6.859   9.129   4.430 -0.1003 -0.0893 -0.9957
  770MOL0     O 6125   6.943   9.067   4.520 -1.0043 -0.1035 -0.3374
  770MOL0     C 6126   7.010   9.135   4.627  0.1455 -0.4519  0.2773
  770MOL0     C 6127   7.099   9.054   4.709  0.8332  0.0689 -0.6100
  770MOL0     C 6128   7.164   9.111   4.819 -0.5217 -0.7802  0.2334
  770MOL0     C 6129   7.157   9.247   4.841 -0.2502 -0.7455  0.1610
  770MOL0     O 6130   7.222   9.298   4.951 -0.0529 -0.4246  0.0326
  770MOL0     C 6131   7.251   9.439   4.965  0.1207  0.1761  0.0859
  770MOL0     C 6132   7.375   9.470   5.052  0.3008 -0.3096  0.4716
  770MOL0     C 6133   7.395   9.623   5.073 -0.4179  0.3306 -0.7332
  770MOL0     C 6134   7.492   9.643   5.188  0.2453 -0.1331 -0.4848
  770MOL0     C 6135   7.538   9.781   5.184 -1.5465 -0.3801  0.1924
  770MOL0     C 6136   7.650   9.819   5.285  0.0393  0.1933  0.3907
  770MOL0     C 6137   7.681   9.971   5.310 -0.0333 -0.0395 -0.1824
  770MOL0     C 6138   7.804   9.974   5.407  0.4151  0.3706  0.1135
  770MOL0     N 6139   7.879  10.094   5.402 -0.5501 -0.3525 -0.2621
  770MOL0     C 6140   8.009  10.108   5.353 -0.4364  0.7865  0.0344
  770MOL0     C 6141   8.050  10.224   5.419  0.6787 -0.1260  0.3242
  770MOL0     C 6142   8.191  10.280   5.441  0.5490  0.3760  0.2213
  770MOL0     C 6143   8.252  10.182   5.540  0.4228 -0.4042 -0.0738
  770MOL0     C 6144   8.392  10.228   5.578  1.2672  0.2191  0.0073
  770MOL0     C 6145   8.466  10.124   5.674  0.3977 -0.9885 -0.0328
  770MOL0     O 6146   8.448  10.170   5.808 -0.0406  0.1107 -0.1669
  770MOL0     C 6147   8.506  10.085   5.896  0.4760  0.2458 -0.0170
  770MOL0     C 6148   8.497  10.134   6.029 -0.6358 -0.7460  0.9748
  770MOL0     C 6149   8.550  10.063   6.137 -0.5072  0.4272 -0.4906
  770MOL0     C 6150   8.551  10.120   6.274  0.2785  0.2537  0.1566
  770MOL0     C 6151   8.623   9.944   6.112  0.8464  0.1494  0.0670
  770MOL0     C 6152   8.691   9.853   6.214 -0.2220  0.3507 -0.0045
  770MOL0     O 6153   8.738   9.727   6.178  0.6107  0.5987 -0.3898
  770MOL0     C 6154   8.773   9.639   6.280 -0.1380  0.8167  0.1127
  770MOL0     C 6155   8.897   9.573   6.257  0.3943 -0.1651 -0.4021
  770MOL0     C 6156   8.935   9.466   6.346  0.7368  0.2975  0.6707
  770MOL0     C 6157   8.854   9.443   6.464 -0.4339 -0.1064  1.5567
  770MOL0     O 6158   8.889   9.355   6.562  0.3311  0.1693 -0.0504
  770MOL0     C 6159   8.993   9.256   6.536 -0.4130 -0.9046 -0.0667
  770MOL0     C 6160   9.023   9.154   6.644  0.4561 -1.1199  0.2596
  770MOL0     C 6161   8.902   9.119   6.739  0.5977  0.5543 -0.1164
  770MOL0     C 6162   8.919   8.994   6.825 -0.5155  0.1445 -0.1521
  770MOL0     C 6163   8.824   8.970   6.942  0.4372 -0.9999 -0.6681
  770MOL0     C 6164   8.678   9.003   6.908 -0.1293  0.8721  1.5124
  770MOL0     C 6165   8.580   9.009   7.015  0.4139  0.3506 -0.1101
  770MOL0     C 6166   8.599   8.912   7.134 -0.1892 -0.6118 -0.0986
  770MOL0    Cl 6167   8.572   8.744   7.095  0.8488 -0.6666  0.3182
  770MOL0     C 6168   8.744   9.516   6.486  0.0637 -0.2844 -0.5548
  770MOL0     C 6169   8.695   9.609   6.391 -0.2897 -0.8773 -0.9165
  770MOL0     O 6170   8.715   9.891   6.333  0.3294 -0.0733  0.2923
  770MOL0     C 6171   8.626   9.897   5.984 -0.2949 -0.3355  0.2886
  770MOL0     C 6172   8.564   9.958   5.880 -0.6678  1.1130  0.6751
  770MOL0     N 6173   7.940  10.283   5.481 -0.0856  0.9367 -0.0066
  770MOL0     N 6174   7.841  10.202   5.474  0.1240  0.2944 -0.1352
  770MOL0     C 6175   7.067   9.326   4.762 -0.7812 -0.0595 -0.6076
  770MOL0     C 6176   7.003   9.273   4.659  0.4512  1.2657 -0.1976
  770MOL0     C 6177   6.740   9.060   4.388  0.2080  0.2854  0.2413
  770MOL0     C 6178   6.644   9.137   4.313 -0.0304  0.2378  0.1049
  770MOL0     C 6179   6.519   9.077   4.268  0.4663  0.2503  0.6221
  770MOL0     C 6180   6.505   8.945   4.292  0.0111  0.7960 -0.2658
  770MOL0     O 6181   6.391   8.875   4.256  1.3137  0.1562  0.4828
  770MOL0     C 6182   6.386   8.839   4.115 -0.1103  0.2064  0.1269
  770MOL0     C 6183   6.254   8.848   4.043  0.6947  0.8761  0.0062
  770MOL0     C 6184   6.271   8.817   3.893 -0.4905 -0.2279  0.5278
  770MOL0     C 6185   6.275   8.668   3.851 -0.5842  0.1185 -1.0350
  770MOL0     C 6186   6.402   8.606   3.897  0.5866 -0.0404  0.3298
  770MOL0     C 6187   6.513   8.570   3.915 -0.8030 -0.1411 -0.6151
  770MOL0     C 6188   6.594   8.870   4.363  0.6051  0.2418  0.6472
  770MOL0     C 6189   6.709   8.926   4.415  0.2483 -0.2297  0.2123
  770MOL0     C 6190   6.795   8.843   4.496 -0.0930 -0.3133 -0.2922
  770MOL0     H 6191   7.114   8.947   4.695 -0.3269 -0.3067  0.8364
  770MOL0     H 6192   7.224   9.043   4.879 -1.3074 -2.2556 -0.5949
  770MOL0     H 6193   7.172   9.494   5.017  1.1309  1.1941  0.6045
  770MOL0     H 6194   7.265   9.496   4.872 -1.4096  1.4645  0.5982
  770MOL0     H 6195   7.362   9.423   5.149 -2.6780 -1.5338 -0.4138
  770MOL0     H 6196   7.470   9.430   5.015 -0.8095 -3.0863  0.4162
  770MOL0     H 6197   7.423   9.673   4.980  2.1568 -0.4006 -0.4346
  770MOL0     H 6198   7.301   9.668   5.105  1.2606  2.9831  0.8606
  770MOL0     H 6199   7.438   9.628   5.282  1.5946  2.6510  0.8685
  770MOL0     H 6200   7.576   9.573   5.186 -0.2732 -0.8202  0.7229
  770MOL0     H 6201   7.453   9.847   5.205 -0.4798  1.1826 -0.2561
  770MOL0     H 6202   7.588   9.803   5.089  3.3731  0.6905  2.7043
  770MOL0     H 6203   7.638   9.764   5.379 -1.8777  1.3262  0.8734
  770MOL0     H 6204   7.738   9.762   5.254  0.2097  0.3072  0.6566
  770MOL0     H 6205   7.597  10.035   5.336 -0.6015 -0.1499 -1.6776
  770MOL0     H 6206   7.722  10.018   5.221  0.3487 -1.2895 -0.6996
  770MOL0     H 6207   7.755   9.963   5.504 -0.9090  0.6637 -0.5021
  770MOL0     H 6208   7.869   9.887   5.399  1.0561  0.6308  1.9023
  770MOL0     H 6209   8.077  10.038   5.307  0.4275  0.2064  2.0789
  770MOL0     H 6210   8.188  10.385   5.472 -1.7074  0.1672  0.9250
  770MOL0     H 6211   8.253  10.279   5.351 -2.5788  2.4083 -2.1778
  770MOL0     H 6212   8.187  10.173   5.628 -1.8268 -0.1580 -1.6297
  770MOL0     H 6213   8.252  10.087   5.486 -2.6276 -0.4630 -0.1301
  770MOL0     H 6214   8.458  10.236   5.491 -0.8128 -2.8258 -2.0406
  770MOL0     H 6215   8.385  10.324   5.630  0.6955 -0.5999  1.5096
  770MOL0     H 6216   8.434  10.022   5.650 -0.2034 -0.5735 -1.0313
  770MOL0     H 6217   8.573  10.120   5.654 -0.0359  1.3784 -3.8347
  770MOL0     H 6218   8.439  10.224   6.050 -0.5962  0.1604 -2.3106
  770MOL0     H 6219   8.653  10.151   6.295 -0.1065  0.9794  1.0089
  770MOL0     H 6220   8.520  10.044   6.346 -2.9742 -0.3255 -1.6105
  770MOL0     H 6221   8.480  10.204   6.272 -0.2953 -0.2162 -1.5269
  770MOL0     H 6222   8.959   9.614   6.177  3.7935  0.5859  2.3326
  770MOL0     H 6223   9.035   9.424   6.351  0.1530 -1.1175  5.3487
  770MOL0     H 6224   8.962   9.205   6.444 -0.7478  1.2014 -1.1852
  770MOL0     H 6225   9.082   9.319   6.529 -0.7683 -0.4309 -0.3603
  770MOL0     H 6226   9.044   9.068   6.579 -0.5079 -0.2264 -1.3191
  770MOL0     H 6227   9.112   9.180   6.702  0.4349 -0.8676  0.1802
  770MOL0     H 6228   8.814   9.116   6.674  2.1354  2.8532 -2.5009
  770MOL0     H 6229   8.885   9.205   6.804  0.0753  0.3271  0.0594
  770MOL0     H 6230   9.020   9.016   6.861 -0.7517  0.8597  0.0798
  770MOL0     H 6231   8.910   8.896   6.776  2.0539 -1.4491  2.1858
  770MOL0     H 6232   8.825   8.861   6.957  0.1529 -1.5980 -4.0816
  770MOL0     H 6233   8.854   9.024   7.032 -0.8979  2.7809 -2.2879
  770MOL0     H 6234   8.657   8.927   6.831 -1.6862  3.8770 -1.3027
  770MOL0     H 6235   8.658   9.097   6.855 -0.3416 -0.5572 -1.1537
  770MOL0     H 6236   8.479   8.993   6.978  0.3479  1.7962 -0.6259
  770MOL0     H 6237   8.587   9.113   7.050 -0.1925  1.3425 -2.7214
  770MOL0     H 6238   8.528   8.945   7.210  2.3391 -0.7802  2.5287
  770MOL0     H 6239   8.693   8.924   7.189 -1.1509  0.3591  1.4496
  770MOL0     H 6240   8.700   9.503   6.584  0.9530 -1.3263 -0.2659
  770MOL0     H 6241   8.599   9.656   6.409 -0.0076 -0.2965 -0.9125
  770MOL0     H 6242   8.683   9.808   5.963 -0.9966 -0.5739 -0.6651
  770MOL0     H 6243   8.573   9.917   5.780 -2.6487  0.6519  0.6337
  770MOL0     H 6244   7.030   9.426   4.782 -1.5665 -0.2622 -0.9841
  770MOL0     H 6245   6.932   9.329   4.599  1.0174  0.6019 -1.5357
  770MOL0     H 6246   6.656   9.242   4.289 -1.0903  0.0996 -1.1612
  770MOL0     H 6247   6.445   9.134   4.212 -0.7185 -2.9836 -1.4028
  770MOL0     H 6248   6.448   8.913   4.064 -0.4971  2.2467  2.4595
  770MOL0     H 6249   6.419   8.735   4.103 -3.5332 -1.0340  0.1535
  770MOL0     H 6250   6.215   8.948   4.062 -0.4005  0.3078  0.8552
  770MOL0     H 6251   6.183   8.775   4.082  2.3082 -2.5932 -2.8836
  770MOL0     H 6252   6.189   8.872   3.845  0.6975  4.0842  2.9008
  770MOL0     H 6253   6.363   8.870   3.866  0.4556 -0.2267  3.3398
  770MOL0     H 6254   6.266   8.666   3.742  2.2613 -1.0550 -1.3335
  770MOL0     H 6255   6.184   8.622   3.889 -0.0836  1.1061  1.5773
  770MOL0     H 6256   6.614   8.537   3.930 -1.4554 -2.2581 -0.6306
  770MOL0     H 6257   6.564   8.768   4.384  1.1743 -0.4109 -1.5426
  770MOL0     H 6258   6.794   8.891   4.594 -0.9979  1.7059 -1.2218
  770MOL0     H 6259   6.758   8.742   4.518  0.6765 -0.8120 -1.2538
  770MOL0     H 6260   6.891   8.821   4.449  0.5964 -1.2891  1.4454
  771MOL0     O 6261   9.305   8.821  10.466  0.1869  0.2813 -0.0494
  771MOL0     C 6262   9.320   8.714  10.515 -0.6862 -0.3036 -1.1131
  771MOL0     O 6263   9.432   8.636  10.502  0.0635  0.4037  0.2007
  771MOL0     C 6264   9.547   8.679  10.444 -0.5697 -0.0452 -0.8671
  771MOL0     C 6265   9.622   8.582  10.389  0.0722  0.7102  0.2243
  771MOL0     C 6266   9.747   8.600  10.336  1.0876  0.3711 -0.3915
  771MOL0     C 6267   9.792   8.734  10.321 -0.9724  0.3129  0.3053
  771MOL0     O 6268   9.902   8.780  10.259  0.2089  0.7003 -0.2831
  771MOL0     C 6269   9.951   8.687  10.165 -0.3853 -0.5412 -0.4008
  771MOL0     C 6270  10.071   8.750  10.083 -0.2237  0.5499  0.4978
  771MOL0     C 6271  10.185   8.781  10.183  0.1933 -0.8707 -0.1402
  771MOL0     C 6272  10.287   8.884  10.122 -0.6926 -0.9110 -0.7008
  771MOL0     C 6273  10.355   8.968  10.232  0.4341  0.0770 -0.5338
  771MOL0     C 6274  10.440   9.075  10.159 -0.0273 -0.5614  0.6013
  771MOL0     C 6275  10.360   9.198  10.119  0.3734  0.4616 -0.0565
  771MOL0     C 6276  10.449   9.313  10.070  0.2296 -0.2486 -0.1480
  771MOL0     N 6277  10.380   9.440  10.072  0.3689  0.5924 -0.2851
  771MOL0     C 6278  10.374   9.546  10.162 -0.1784  0.0408 -0.3655
  771MOL0     C 6279  10.314   9.649  10.095 -0.8399  0.6549  0.2755
  771MOL0     C 6280  10.316   9.793  10.145  0.3505 -0.4520  0.0284
  771MOL0     C 6281  10.194   9.874  10.097 -0.0363 -0.1016 -0.1306
  771MOL0     C 6282  10.207  10.026  10.099 -0.0602  0.4072  0.2555
  771MOL0     C 6283  10.262  10.085  10.231 -0.3274 -0.0656 -0.1618
  771MOL0     O 6284  10.307  10.212  10.196 -0.4014  0.6660 -0.3494
  771MOL0     C 6285  10.356  10.299  10.291  0.8054  0.3171 -0.4725
  771MOL0     C 6286  10.425  10.417  10.253 -0.6818  0.4184  0.1746
  771MOL0     C 6287  10.500  10.492  10.349  0.4988  0.3316 -0.6586
  771MOL0     C 6288  10.563  10.620  10.302 -1.1346 -0.4391 -0.0661
  771MOL0     C 6289  10.504  10.460  10.491  0.6463  1.2918  1.0834
  771MOL0     C 6290  10.578  10.523  10.600 -0.2510  0.3955  0.6391
  771MOL0     O 6291  10.538  10.516  10.735  1.2342 -0.0083 -0.2211
  771MOL0     C 6292  10.625  10.551  10.830  0.1872 -0.8368 -0.0119
  771MOL0     C 6293  10.658  10.686  10.840 -0.7589  0.7947  0.3562
  771MOL0     C 6294  10.752  10.714  10.941  0.6787  0.0609  0.1636
  771MOL0     C 6295  10.826  10.616  11.016 -0.2681 -0.3793  0.0788
  771MOL0     O 6296  10.927  10.661  11.090 -0.0843 -0.1204  0.6262
  771MOL0     C 6297  11.063  10.633  11.047 -0.7626 -0.2297 -0.2155
  771MOL0     C 6298  11.134  10.774  11.015  0.5977  0.9696 -0.2343
  771MOL0     C 6299  11.182  10.852  11.138 -0.3770  0.4752  0.0151
  771MOL0     C 6300  11.120  10.993  11.142  0.0796  0.6849  0.2356
  771MOL0     C 6301  11.173  11.083  11.017  0.1416  0.3016 -0.0009
  771MOL0     C 6302  11.119  11.219  11.019 -0.0771  0.7459 -0.0040
  771MOL0     C 6303  10.965  11.232  10.996  0.4889 -0.6976  0.5365
  771MOL0     C 6304  10.921  11.193  10.848 -0.3097 -0.9963  1.0046
  771MOL0    Cl 6305  10.902  11.014  10.821  0.3963  0.3707 -0.4244
  771MOL0     C 6306  10.793  10.484  10.993  0.0208 -0.3711 -0.2344
  771MOL0     C 6307  10.685  10.453  10.906  0.3333 -0.7069  0.3484
  771MOL0     O 6308  10.688  10.557  10.552 -0.5047  0.4593  0.1955
  771MOL0     C 6309  10.425  10.355  10.523 -0.2806  0.6927 -0.0036
  771MOL0     C 6310  10.352  10.279  10.432  0.1466 -0.0868 -0.1558
  771MOL0     N 6311  10.272   9.596   9.972  0.7665 -0.1016 -0.2489
  771MOL0     N 6312  10.319   9.473   9.960  0.7408 -0.6724  0.5241
  771MOL0     C 6313   9.719   8.844  10.379 -0.2148  1.0085  0.6402
  771MOL0     C 6314   9.602   8.814  10.455  1.0365  0.5308  1.6363
  771MOL0     C 6315   9.205   8.652  10.597  0.0722 -0.9913 -0.2394
  771MOL0     C 6316   9.240   8.540  10.669  0.1217  0.4182 -0.2248
  771MOL0     C 6317   9.145   8.478  10.760  0.6388 -0.1565  0.0444
  771MOL0     C 6318   9.014   8.524  10.765  0.2835  0.1846 -0.0117
  771MOL0     O 6319   8.907   8.476  10.839  0.0185  0.2369  0.0053
  771MOL0     C 6320   8.913   8.358  10.916  0.1616 -0.0364  0.5566
  771MOL0     C 6321   8.916   8.397  11.067 -0.4625  0.6463  0.2176
  771MOL0     C 6322   8.818   8.502  11.111 -0.2246  0.5304  0.8067
  771MOL0     C 6323   8.668   8.476  11.086 -0.1580  0.9570 -0.1996
  771MOL0     C 6324   8.584   8.583  11.132  0.4982 -0.7934  0.3069
  771MOL0     C 6325   8.513   8.680  11.171  0.5138  0.3102  0.2797
  771MOL0     C 6326   8.984   8.635  10.691  0.3409 -0.7764  0.1389
  771MOL0     C 6327   9.077   8.700  10.606  0.1345 -0.4615  0.6362
  771MOL0     C 6328   9.043   8.828  10.543 -0.0986  0.3465  0.1541
  771MOL0     H 6329   9.569   8.487  10.386 -0.9653  0.9875  4.0619
  771MOL0     H 6330   9.799   8.515  10.294 -1.7367 -0.7179 -1.9557
  771MOL0     H 6331   9.867   8.660  10.101 -1.9683  2.9475 -0.0189
  771MOL0     H 6332   9.983   8.594  10.213 -0.0092 -1.8072 -2.9533
  771MOL0     H 6333  10.097   8.677  10.006  1.6390 -1.8430  3.2003
  771MOL0     H 6334  10.037   8.840  10.031 -1.5605  0.2454  0.8083
  771MOL0     H 6335  10.131   8.828  10.267 -1.7686  1.4753 -2.5077
  771MOL0     H 6336  10.224   8.685  10.217 -1.1630 -1.5572 -0.4575
  771MOL0     H 6337  10.364   8.828  10.067 -0.4941 -1.2779 -0.0547
  771MOL0     H 6338  10.247   8.950  10.045  1.0343  1.5989  0.4490
  771MOL0     H 6339  10.422   8.892  10.275  0.9481  2.1357  2.5882
  771MOL0     H 6340  10.288   9.015  10.303  0.9779  0.8968 -0.5494
  771MOL0     H 6341  10.518   9.111  10.227 -1.5529 -1.8073  3.1229
  771MOL0     H 6342  10.485   9.038  10.066 -1.2532 -0.7991  0.0819
  771MOL0     H 6343  10.293   9.234  10.198 -0.8446 -3.5759  1.0107
  771MOL0     H 6344  10.294   9.158  10.041 -0.6997  2.7259 -0.3855
  771MOL0     H 6345  10.540   9.324  10.130  0.6872  0.9002 -0.9916
  771MOL0     H 6346  10.473   9.303   9.963 -0.9612  1.9751 -0.6853
  771MOL0     H 6347  10.431   9.552  10.255 -1.8166 -4.3840  1.1700
  771MOL0     H 6348  10.406   9.847  10.117 -0.1633 -0.2279 -1.2488
  771MOL0     H 6349  10.322   9.789  10.254  1.0500 -1.5426 -0.0382
  771MOL0     H 6350  10.173   9.855   9.992 -0.2462  0.5719 -0.2141
  771MOL0     H 6351  10.104   9.849  10.154 -1.4827 -1.3824 -2.8024
  771MOL0     H 6352  10.263  10.055  10.010 -0.3314 -1.7326 -0.6687
  771MOL0     H 6353  10.104  10.059  10.079 -1.0102 -1.8468  1.0806
  771MOL0     H 6354  10.187  10.091  10.310  1.8124 -1.5029  2.0894
  771MOL0     H 6355  10.348  10.027  10.263  1.1690  2.0698 -0.0967
  771MOL0     H 6356  10.422  10.452  10.151  1.0356  1.1038  0.3199
  771MOL0     H 6357  10.564  10.688  10.387 -2.2426 -0.7266  0.1906
  771MOL0     H 6358  10.515  10.665  10.215 -1.4301  0.8739  0.7506
  771MOL0     H 6359  10.664  10.595  10.268 -0.5908 -1.2793  2.0188
  771MOL0     H 6360  10.618  10.766  10.779  0.0359  1.5560  0.7982
  771MOL0     H 6361  10.786  10.815  10.961  1.9405 -0.1850 -0.6623
  771MOL0     H 6362  11.122  10.575  11.118 -2.2336  1.1741  2.2928
  771MOL0     H 6363  11.060  10.572  10.956 -1.9667 -0.7186  0.1306
  771MOL0     H 6364  11.223  10.758  10.954  0.3691  0.4212 -0.4267
  771MOL0     H 6365  11.072  10.830  10.945  1.0060  0.0722 -1.3487
  771MOL0     H 6366  11.287  10.880  11.146 -0.5197  0.6952  1.3500
  771MOL0     H 6367  11.152  10.802  11.231 -0.6022 -0.0692 -0.3493
  771MOL0     H 6368  11.143  11.035  11.241 -0.6124  1.8132 -0.0651
  771MOL0     H 6369  11.011  10.990  11.148  0.0457  2.8623  3.1720
  771MOL0     H 6370  11.282  11.085  11.014  0.1233  0.2563 -1.1642
  771MOL0     H 6371  11.141  11.044  10.920 -0.5739  1.5523 -0.2869
  771MOL0     H 6372  11.174  11.271  10.939  1.5789  2.4551  2.1228
  771MOL0     H 6373  11.136  11.268  11.115 -4.3137 -2.0138  2.4601
  771MOL0     H 6374  10.942  11.338  11.010  4.9561  0.5393  0.2111
  771MOL0     H 6375  10.917  11.164  11.066 -0.0910 -1.0544 -0.1964
  771MOL0     H 6376  10.988  11.234  10.773 -3.9610  3.7860 -0.1396
  771MOL0     H 6377  10.821  11.231  10.827  1.1120  1.0428 -3.1473
  771MOL0     H 6378  10.858  10.410  11.037  0.6055 -1.0546 -2.1446
  771MOL0     H 6379  10.651  10.352  10.886  0.4452 -0.3101 -2.1794
  771MOL0     H 6380  10.414  10.326  10.627 -2.7014 -2.1801 -0.9175
  771MOL0     H 6381  10.291  10.202  10.477  2.5285 -1.7131  0.5208
  771MOL0     H 6382   9.761   8.942  10.359 -0.8649  1.7267  2.5702
  771MOL0     H 6383   9.542   8.886  10.509  0.1155  0.3365  0.8926
  771MOL0     H 6384   9.338   8.495  10.680 -0.4359 -0.8643 -0.2187
  771MOL0     H 6385   9.179   8.394  10.821 -0.4524 -1.1687 -0.6827
  771MOL0     H 6386   8.827   8.291  10.909  1.0594 -1.3891  1.7289
  771MOL0     H 6387   8.992   8.287  10.889 -0.0810 -0.1855  0.2267
  771MOL0     H 6388   9.020   8.423  11.088 -0.6619  2.1804 -0.5477
  771MOL0     H 6389   8.899   8.307  11.128  0.2461  0.1780 -0.2651
  771MOL0     H 6390   8.834   8.543  11.211  0.8400 -1.8631  1.7051
  771MOL0     H 6391   8.851   8.584  11.047 -1.1325  0.9902  0.9131
  771MOL0     H 6392   8.650   8.386  11.146  1.3829  0.8267  0.1105
  771MOL0     H 6393   8.647   8.460  10.979 -3.0939 -0.4254  0.4801
  771MOL0     H 6394   8.454   8.755  11.221 -3.0405 -0.3292 -2.5257
  771MOL0     H 6395   8.889   8.688  10.691  1.3699  1.1914 -0.8992
  771MOL0     H 6396   9.103   8.910  10.582  1.3372  0.2834 -1.7737
  771MOL0     H 6397   9.056   8.823  10.435  1.6307 -2.5248  0.3704
  771MOL0     H 6398   8.938   8.846  10.565  0.2193  2.7858 -0.0353
  772MOL0     O 6399   0.710   7.507   3.775 -0.0872  0.5288 -1.0065
  772MOL0     C 6400   0.628   7.427   3.736  0.6051  0.0408 -0.7014
  772MOL0     O 6401   0.599   7.420   3.595  0.3092  0.6955 -0.0459
  772MOL0     C 6402   0.686   7.487   3.508 -0.4086  0.4205  0.5302
  772MOL0     C 6403   0.782   7.421   3.432  0.1104  0.2462  0.3919
  772MOL0     C 6404   0.856   7.484   3.330 -0.2194  0.2630 -0.6195
  772MOL0     C 6405   0.835   7.624   3.312 -0.1180 -0.8411 -0.3500
  772MOL0     O 6406   0.909   7.685   3.213  0.1488 -0.0443 -0.5603
  772MOL0     C 6407   0.970   7.806   3.252  0.1584  0.3326  0.0595
  772MOL0     C 6408   1.082   7.819   3.145 -0.3429 -0.1054 -0.9134
  772MOL0     C 6409   1.154   7.954   3.164  0.5148  0.3228  0.6260
  772MOL0     C 6410   1.292   7.969   3.095  0.5142 -1.1036  0.4862
  772MOL0     C 6411   1.368   8.108   3.136 -0.5980  0.4480 -0.4563
  772MOL0     C 6412   1.519   8.112   3.092 -0.4664 -0.4527 -0.1131
  772MOL0     C 6413   1.600   8.246   3.134 -0.0278  0.1756  0.3270
  772MOL0     C 6414   1.607   8.269   3.285  0.7758 -0.1467 -0.6975
  772MOL0     N 6415   1.707   8.369   3.332 -0.9346 -0.9041  0.8234
  772MOL0     C 6416   1.797   8.439   3.260  0.4978 -0.5271 -0.0287
  772MOL0     C 6417   1.853   8.528   3.346 -0.5373 -0.1472  0.6019
  772MOL0     C 6418   1.963   8.632   3.322  0.4047 -0.3752 -0.7088
  772MOL0     C 6419   2.100   8.572   3.339  0.8010 -0.4506 -0.0722
  772MOL0     C 6420   2.202   8.654   3.262  0.8377  0.3143 -1.2231
  772MOL0     C 6421   2.251   8.775   3.342  0.1943  0.1286 -0.4972
  772MOL0     O 6422   2.343   8.865   3.279  0.3568  0.2483  0.2812
  772MOL0     C 6423   2.369   8.976   3.348 -0.8137 -0.0509  0.4456
  772MOL0     C 6424   2.414   9.089   3.272 -0.8556 -0.1227 -0.0014
  772MOL0     C 6425   2.457   9.205   3.335 -0.3337  0.0866 -0.0320
  772MOL0     C 6426   2.512   9.305   3.239  0.0279  0.6041 -0.1900
  772MOL0     C 6427   2.466   9.212   3.477 -0.1292 -1.1831 -0.1167
  772MOL0     C 6428   2.508   9.337   3.541  0.0147  0.2555  0.7690
  772MOL0     O 6429   2.447   9.448   3.503  0.4713 -0.9181 -0.0644
  772MOL0     C 6430   2.478   9.558   3.578 -0.1488 -0.0577  0.1351
  772MOL0     C 6431   2.566   9.653   3.530 -0.1543  0.3879  0.8516
  772MOL0     C 6432   2.619   9.756   3.607 -0.5218 -0.0702 -0.4358
  772MOL0     C 6433   2.560   9.791   3.730  0.1098  0.0335  0.6370
  772MOL0     O 6434   2.584   9.895   3.815  0.3493 -0.5280 -0.1774
  772MOL0     C 6435   2.632  10.008   3.760 -0.1960 -0.0236 -0.2662
  772MOL0     C 6436   2.778  10.008   3.808 -0.5808 -0.9246 -0.5154
  772MOL0     C 6437   2.822  10.155   3.785 -0.0793 -0.0620 -0.5512
  772MOL0     C 6438   2.964  10.200   3.828  2.1018 -0.7598 -0.0330
  772MOL0     C 6439   2.988  10.343   3.789  0.5623  0.8626  0.3284
  772MOL0     C 6440   3.113  10.394   3.864 -0.0721  0.0646 -0.2736
  772MOL0     C 6441   3.233  10.334   3.797  0.4795 -0.6177  0.0552
  772MOL0     C 6442   3.368  10.386   3.839 -0.9010  0.0237 -1.0683
  772MOL0    Cl 6443   3.496  10.296   3.750 -0.0266  0.5056  0.2105
  772MOL0     C 6444   2.454   9.701   3.767  0.1241 -0.2274  0.3568
  772MOL0     C 6445   2.425   9.580   3.693  0.5336 -0.6876 -0.0487
  772MOL0     O 6446   2.578   9.315   3.632 -0.0677  0.5601  0.8158
  772MOL0     C 6447   2.405   9.109   3.549  0.2704  0.1920  0.0030
  772MOL0     C 6448   2.369   8.987   3.488  0.0474  0.3322 -0.8935
  772MOL0     N 6449   1.813   8.492   3.466 -0.3761 -0.1684 -0.9587
  772MOL0     N 6450   1.731   8.398   3.464 -0.1593  0.1152  0.8769
  772MOL0     C 6451   0.747   7.693   3.395  0.7698  0.2326 -0.5467
  772MOL0     C 6452   0.671   7.623   3.489 -0.1034 -0.0015  0.7174
  772MOL0     C 6453   0.552   7.342   3.835 -0.0865  0.0645  0.1536
  772MOL0     C 6454   0.494   7.230   3.782  0.0882  0.7407 -0.3544
  772MOL0     C 6455   0.425   7.144   3.867 -0.5874 -0.3504 -0.3018
  772MOL0     C 6456   0.413   7.163   4.009  0.1012  0.4949  1.0190
  772MOL0     O 6457   0.351   7.069   4.081  0.0270 -0.4810  1.3652
  772MOL0     C 6458   0.224   7.028   4.048 -0.7869  0.3275  0.5555
  772MOL0     C 6459   0.114   7.129   4.094  0.7135  0.2833  0.1730
  772MOL0     C 6460   0.115   7.147   4.249 -0.7095 -0.0727  0.3586
  772MOL0     C 6461   0.064   7.288   4.290  0.3000  0.2858 -0.1147
  772MOL0     C 6462  -0.081   7.316   4.276  0.1158  0.2780 -0.4939
  772MOL0     C 6463  -0.200   7.350   4.282  0.0706  0.2792  0.0116
  772MOL0     C 6464   0.479   7.276   4.060  0.8315 -0.1983 -0.2718
  772MOL0     C 6465   0.547   7.366   3.975  0.8144  0.3340 -0.2302
  772MOL0     C 6466   0.574   7.508   4.046 -1.2179  0.9720 -0.2381
  772MOL0     H 6467   0.794   7.313   3.440 -1.6318  0.0500  0.7436
  772MOL0     H 6468   0.925   7.426   3.270 -1.7866 -5.2732  2.2498
  772MOL0     H 6469   1.016   7.801   3.351 -0.8636  1.4720  0.6325
  772MOL0     H 6470   0.895   7.886   3.256  1.8835  1.9786  3.6842
  772MOL0     H 6471   1.157   7.743   3.164 -1.5817 -1.1594 -0.0756
  772MOL0     H 6472   1.037   7.798   3.048 -0.5782  0.1943 -0.8719
  772MOL0     H 6473   1.082   8.026   3.125 -0.5307 -0.4197  1.1216
  772MOL0     H 6474   1.180   7.978   3.268 -2.0355  3.0220  0.7660
  772MOL0     H 6475   1.351   7.882   3.124  0.7714 -0.2298  2.8142
  772MOL0     H 6476   1.293   7.974   2.986  1.2463  1.1982  0.5337
  772MOL0     H 6477   1.359   8.124   3.244  0.6062 -1.4024 -0.0312
  772MOL0     H 6478   1.317   8.195   3.095  0.6221  0.2475 -2.5610
  772MOL0     H 6479   1.578   8.033   3.138  1.4536  0.8916 -0.1581
  772MOL0     H 6480   1.530   8.094   2.984 -3.0912  1.0599 -0.7355
  772MOL0     H 6481   1.551   8.330   3.085 -2.8679 -1.8948 -0.6151
  772MOL0     H 6482   1.702   8.219   3.104 -0.6772 -2.8735  0.5287
  772MOL0     H 6483   1.508   8.298   3.323  1.0654 -0.8942  0.6856
  772MOL0     H 6484   1.629   8.175   3.335 -3.0656 -1.7568 -1.6569
  772MOL0     H 6485   1.817   8.443   3.153  1.8302 -0.6372  0.1990
  772MOL0     H 6486   1.951   8.699   3.408  3.0006  0.8044 -1.1704
  772MOL0     H 6487   1.951   8.682   3.226  1.1270 -1.6885 -1.5094
  772MOL0     H 6488   2.133   8.551   3.441  2.2594 -2.9318 -0.9762
  772MOL0     H 6489   2.094   8.474   3.291  0.5906  0.8303 -2.8523
  772MOL0     H 6490   2.291   8.598   3.233 -0.0434 -0.8995 -1.6357
  772MOL0     H 6491   2.158   8.681   3.165  0.6053 -1.6516 -1.6996
  772MOL0     H 6492   2.170   8.835   3.386  1.4054  0.3128  1.6257
  772MOL0     H 6493   2.292   8.737   3.436 -1.0947  1.3339  0.6073
  772MOL0     H 6494   2.415   9.073   3.165  4.1352 -0.7125 -0.0879
  772MOL0     H 6495   2.564   9.267   3.150  1.0057  0.1992  0.5438
  772MOL0     H 6496   2.584   9.369   3.290  1.3466  0.5492 -1.8939
  772MOL0     H 6497   2.432   9.368   3.200  1.9972  2.5235 -1.3802
  772MOL0     H 6498   2.612   9.638   3.433 -3.5704  0.2195 -0.8663
  772MOL0     H 6499   2.708   9.805   3.569 -1.1911  1.9522  0.4338
  772MOL0     H 6500   2.631  10.010   3.651 -0.2511  1.9417 -0.2592
  772MOL0     H 6501   2.570  10.088   3.801  0.3923 -0.3752  1.3795
  772MOL0     H 6502   2.773   9.983   3.914  0.3111 -2.3677 -0.7912
  772MOL0     H 6503   2.835   9.937   3.747 -1.9610 -3.6216  1.1298
  772MOL0     H 6504   2.747  10.213   3.840 -2.0525 -3.2845  0.4618
  772MOL0     H 6505   2.817  10.182   3.679 -0.7910 -1.1672 -0.8224
  772MOL0     H 6506   3.027  10.120   3.790  4.4920  1.8803 -2.1052
  772MOL0     H 6507   2.972  10.198   3.937  1.9253  0.3981  0.0134
  772MOL0     H 6508   3.005  10.350   3.681  1.7877 -1.2588  0.3272
  772MOL0     H 6509   2.903  10.405   3.819  1.0316  1.4172  0.5358
  772MOL0     H 6510   3.109  10.384   3.973 -1.1626  0.4134 -0.2730
  772MOL0     H 6511   3.105  10.501   3.843  2.4080 -0.1062 -2.7207
  772MOL0     H 6512   3.221  10.350   3.689  1.1232 -1.5787 -0.1756
  772MOL0     H 6513   3.234  10.225   3.809 -1.7634 -0.4685  2.7579
  772MOL0     H 6514   3.389  10.374   3.946 -3.2505 -1.5666 -0.7069
  772MOL0     H 6515   3.382  10.492   3.818 -1.9198  0.5202  0.5937
  772MOL0     H 6516   2.408   9.710   3.865 -0.1300  0.1559  0.2048
  772MOL0     H 6517   2.364   9.504   3.740 -1.5868  1.2111  0.4555
  772MOL0     H 6518   2.408   9.118   3.658 -0.7172  3.5607 -0.1465
  772MOL0     H 6519   2.342   8.904   3.553  0.1377  0.2242 -0.9944
  772MOL0     H 6520   0.723   7.799   3.399 -3.4498 -0.4026 -2.5473
  772MOL0     H 6521   0.592   7.674   3.542 -0.2274  0.5359  0.0342
  772MOL0     H 6522   0.504   7.210   3.676 -1.4267  0.1932 -0.4171
  772MOL0     H 6523   0.388   7.053   3.821  1.7469 -1.3551 -0.3295
  772MOL0     H 6524   0.217   7.012   3.940 -0.3811 -0.4608  0.6353
  772MOL0     H 6525   0.209   6.930   4.095 -1.7921  0.5130  0.6308
  772MOL0     H 6526   0.018   7.084   4.068  1.2244 -1.1323  0.6346
  772MOL0     H 6527   0.140   7.224   4.048 -1.6163  0.4197 -0.9509
  772MOL0     H 6528   0.059   7.072   4.305  0.0883 -1.8716 -1.1224
  772MOL0     H 6529   0.215   7.131   4.291 -0.8557 -1.4636  0.2427
  772MOL0     H 6530   0.118   7.346   4.216 -1.1955 -1.0606 -2.3732
  772MOL0     H 6531   0.089   7.327   4.390 -1.1085  2.8092 -0.6467
  772MOL0     H 6532  -0.292   7.405   4.281 -1.8024 -2.6184 -1.4296
  772MOL0     H 6533   0.472   7.295   4.167 -1.6572 -0.6028 -0.2985
  772MOL0     H 6534   0.493   7.577   4.020  0.0257  2.2741 -0.8504
  772MOL0     H 6535   0.598   7.510   4.153 -0.1825  3.4461 -0.4295
  772MOL0     H 6536   0.667   7.555   4.009 -0.4247 -0.8775 -0.7134
  773MOL0     O 6537  10.993   1.015   8.766 -0.5806 -0.3752 -0.1214
  773MOL0     C 6538  10.919   0.982   8.855  0.7973 -0.0979  0.1094
  773MOL0     O 6539  10.945   0.885   8.941 -0.4149 -0.1587  0.1849
  773MOL0     C 6540  11.082   0.857   8.949 -0.1305  0.4533 -0.0052
  773MOL0     C 6541  11.177   0.952   8.995 -0.4372 -0.5443 -0.4137
  773MOL0     C 6542  11.300   0.914   9.044 -0.3225  0.2519  0.8268
  773MOL0     C 6543  11.344   0.780   9.025  0.3995 -0.3699  0.2372
  773MOL0     O 6544  11.471   0.751   9.066  0.4858 -0.0478  0.3886
  773MOL0     C 6545  11.553   0.654   8.997  0.3569 -0.1906 -0.6182
  773MOL0     C 6546  11.679   0.613   9.082 -0.3150  0.3253 -0.5378
  773MOL0     C 6547  11.765   0.511   8.997  0.4096 -0.2050 -0.4172
  773MOL0     C 6548  11.894   0.474   9.071  0.4061  1.0413  0.2952
  773MOL0     C 6549  11.859   0.394   9.197  0.3478  0.3618 -0.9546
  773MOL0     C 6550  11.988   0.345   9.255 -0.1533  0.0815  0.0931
  773MOL0     C 6551  12.075   0.448   9.322 -0.4356 -0.7893  0.6643
  773MOL0     C 6552  12.199   0.389   9.391  0.6503  0.8283 -0.2952
  773MOL0     N 6553  12.250   0.469   9.498  1.1594  0.2375 -0.1011
  773MOL0     C 6554  12.290   0.600   9.477 -0.5937  0.1659 -0.2132
  773MOL0     C 6555  12.290   0.649   9.603 -0.3778 -0.0634  0.1103
  773MOL0     C 6556  12.298   0.794   9.635 -0.3688 -0.9449 -0.1077
  773MOL0     C 6557  12.184   0.885   9.593  0.5496  0.3540 -0.2146
  773MOL0     C 6558  12.064   0.866   9.680  0.1868  0.6677 -0.6689
  773MOL0     C 6559  11.930   0.878   9.588  0.0516 -0.0242 -0.3172
  773MOL0     O 6560  11.931   0.764   9.501 -0.6999  0.0807 -0.0306
  773MOL0     C 6561  11.796   0.727   9.478 -0.4512  0.4713 -0.1843
  773MOL0     C 6562  11.760   0.597   9.507 -1.0206  0.6198 -0.1734
  773MOL0     C 6563  11.626   0.558   9.470 -0.0273  0.6334  0.0323
  773MOL0     C 6564  11.575   0.419   9.509  0.2138  0.1240 -0.2646
  773MOL0     C 6565  11.534   0.659   9.413 -0.8272 -0.2467 -0.4513
  773MOL0     C 6566  11.406   0.625   9.386 -0.3326 -0.0916 -0.4462
  773MOL0     O 6567  11.320   0.722   9.438  1.2969 -0.1081 -0.7390
  773MOL0     C 6568  11.188   0.689   9.431  0.5917  1.3092 -0.1221
  773MOL0     C 6569  11.115   0.642   9.534 -0.7874 -0.0232  0.1379
  773MOL0     C 6570  10.987   0.590   9.516  0.5046 -0.0434  1.0343
  773MOL0     C 6571  10.917   0.608   9.396 -0.9579  0.7940 -0.3690
  773MOL0     O 6572  10.792   0.557   9.377  0.4044  0.1436  0.0616
  773MOL0     C 6573  10.710   0.598   9.272  0.6209  0.2736 -0.6446
  773MOL0     C 6574  10.715   0.509   9.153 -0.3227 -0.2241  0.5369
  773MOL0     C 6575  10.631   0.544   9.032  0.6185  0.8492  0.4298
  773MOL0     C 6576  10.704   0.650   8.947  0.1988  0.8057  0.2135
  773MOL0     C 6577  10.617   0.712   8.839  0.0049 -0.8254 -0.8898
  773MOL0     C 6578  10.473   0.742   8.887 -0.3274 -0.5326  0.5180
  773MOL0     C 6579  10.400   0.834   8.785  0.4392  0.1355  0.4530
  773MOL0     C 6580  10.417   0.787   8.641 -0.9686 -0.0556 -0.0897
  773MOL0    Cl 6581  10.287   0.846   8.538 -0.4010  0.1645 -0.5115
  773MOL0     C 6582  10.988   0.671   9.291 -0.0538 -0.2536 -0.6162
  773MOL0     C 6583  11.113   0.717   9.312 -0.6969 -0.2586 -0.7642
  773MOL0     O 6584  11.384   0.522   9.320  0.0849 -0.0199  0.3017
  773MOL0     C 6585  11.579   0.789   9.398 -0.4304 -0.3290 -0.2876
  773MOL0     C 6586  11.708   0.816   9.421  0.1485 -0.2845 -0.5811
  773MOL0     N 6587  12.266   0.548   9.695  0.0474  0.4139 -0.2768
  773MOL0     N 6588  12.245   0.451   9.627 -0.6942  0.1711 -0.3975
  773MOL0     C 6589  11.246   0.696   8.962  0.3317  0.8230  0.4342
  773MOL0     C 6590  11.114   0.732   8.929 -0.4754 -0.8986 -0.0610
  773MOL0     C 6591  10.790   1.047   8.856 -0.7035  1.0711  0.6228
  773MOL0     C 6592  10.736   1.096   8.736 -0.0036  0.1088 -0.3130
  773MOL0     C 6593  10.612   1.160   8.735 -0.0353  0.0951 -0.5838
  773MOL0     C 6594  10.534   1.177   8.850  0.3140 -0.0826  0.9770
  773MOL0     O 6595  10.405   1.231   8.859 -0.3117  0.5293 -0.1241
  773MOL0     C 6596  10.306   1.199   8.751 -0.5823 -0.2703 -0.0191
  773MOL0     C 6597  10.162   1.219   8.808  0.0537  0.9705  0.1448
  773MOL0     C 6598  10.053   1.169   8.720  0.0655  0.4635  0.1263
  773MOL0     C 6599   9.918   1.200   8.792  0.0013 -0.2564  0.0283
  773MOL0     C 6600   9.894   1.108   8.899 -1.0639  0.7033 -0.5432
  773MOL0     C 6601   9.894   1.024   8.984  0.5732  0.6436 -0.0020
  773MOL0     C 6602  10.594   1.137   8.968  0.6478  0.3647 -0.6231
  773MOL0     C 6603  10.718   1.064   8.978  0.0675 -0.6128  0.1791
  773MOL0     C 6604  10.782   1.038   9.113  0.0920  0.2582  0.1038
  773MOL0     H 6605  11.144   1.054   9.013 -3.3896 -1.5698  0.6623
  773MOL0     H 6606  11.361   0.994   9.085 -1.6387  0.4063  2.5845
  773MOL0     H 6607  11.578   0.689   8.897  2.7231 -2.1192 -0.8117
  773MOL0     H 6608  11.495   0.562   8.985 -1.6587  1.1018 -1.1044
  773MOL0     H 6609  11.742   0.699   9.105 -0.3109 -0.3791  2.5778
  773MOL0     H 6610  11.650   0.561   9.174  2.0758 -0.1511  0.0327
  773MOL0     H 6611  11.709   0.418   8.979  2.2192 -2.0316  2.4896
  773MOL0     H 6612  11.811   0.558   8.910  0.5794  0.0516 -0.1897
  773MOL0     H 6613  11.941   0.406   8.999 -1.0780  0.3676 -0.0840
  773MOL0     H 6614  11.957   0.559   9.097 -0.2507  1.2532  1.2364
  773MOL0     H 6615  11.804   0.304   9.169  2.8745 -1.3648 -0.7173
  773MOL0     H 6616  11.814   0.465   9.267  1.8452 -0.9530  1.4712
  773MOL0     H 6617  11.960   0.272   9.331 -6.1979 -0.6844 -2.3540
  773MOL0     H 6618  12.050   0.296   9.178  0.8804 -2.3289  2.3075
  773MOL0     H 6619  12.018   0.507   9.394 -0.3332  1.4907 -1.0011
  773MOL0     H 6620  12.109   0.524   9.251 -0.5022 -1.0204  0.3830
  773MOL0     H 6621  12.181   0.288   9.430 -2.5310  0.7130 -1.7361
  773MOL0     H 6622  12.275   0.373   9.314  2.1099 -1.8028  1.5095
  773MOL0     H 6623  12.309   0.666   9.393  0.4596 -1.4036 -1.2566
  773MOL0     H 6624  12.392   0.836   9.595 -0.2165  0.0338  1.1938
  773MOL0     H 6625  12.299   0.797   9.744 -3.2908  1.1024 -0.0218
  773MOL0     H 6626  12.226   0.985   9.601  0.6893  0.2637  0.2309
  773MOL0     H 6627  12.154   0.866   9.490 -0.5574 -2.4863  0.5213
  773MOL0     H 6628  12.069   0.764   9.721  1.6281  0.6043 -0.9325
  773MOL0     H 6629  12.059   0.945   9.755  2.4740  0.4877 -0.2371
  773MOL0     H 6630  11.849   0.881   9.662  2.7002  0.0440  2.7835
  773MOL0     H 6631  11.920   0.966   9.524  1.3065  1.6391  1.6569
  773MOL0     H 6632  11.830   0.526   9.549 -0.2775  2.9277  2.7423
  773MOL0     H 6633  11.585   0.351   9.424  3.3783  2.9655 -2.4584
  773MOL0     H 6634  11.472   0.421   9.546 -0.2736 -3.3299 -1.1128
  773MOL0     H 6635  11.641   0.370   9.581 -0.1764 -0.2254 -0.1454
  773MOL0     H 6636  11.156   0.646   9.634  0.7558 -0.2056 -0.4633
  773MOL0     H 6637  10.925   0.544   9.592 -0.7224 -3.0095 -1.5402
  773MOL0     H 6638  10.615   0.583   9.324  0.6883 -1.0931 -0.8725
  773MOL0     H 6639  10.723   0.704   9.249 -0.2871  0.5908  0.2572
  773MOL0     H 6640  10.821   0.502   9.127 -0.9749 -2.4097 -2.0765
  773MOL0     H 6641  10.680   0.413   9.191 -1.6233 -0.3783 -0.9374
  773MOL0     H 6642  10.538   0.580   9.077  0.0994 -0.3395  0.3199
  773MOL0     H 6643  10.615   0.454   8.972  0.0118 -0.2225  2.1386
  773MOL0     H 6644  10.786   0.604   8.892 -0.5396 -0.4623  0.1385
  773MOL0     H 6645  10.739   0.742   8.994 -2.8648  2.9124 -1.3252
  773MOL0     H 6646  10.664   0.790   8.779 -1.2735  1.5222  0.9873
  773MOL0     H 6647  10.608   0.637   8.761 -1.5802 -1.3425 -0.2440
  773MOL0     H 6648  10.474   0.800   8.979  0.6734 -0.2234  0.3310
  773MOL0     H 6649  10.423   0.647   8.908 -1.6294  0.0765  0.2417
  773MOL0     H 6650  10.441   0.935   8.790  0.0309  0.2467  2.0724
  773MOL0     H 6651  10.293   0.828   8.808  0.3648 -0.0730  0.0680
  773MOL0     H 6652  10.425   0.677   8.641  0.7848 -0.0295 -3.1891
  773MOL0     H 6653  10.512   0.827   8.604  0.1588 -1.2533  1.3324
  773MOL0     H 6654  10.939   0.682   9.194 -1.3514  3.5120  0.3255
  773MOL0     H 6655  11.181   0.762   9.241  2.2091 -0.8247  1.4829
  773MOL0     H 6656  11.526   0.876   9.359 -0.4976  0.3254  1.2037
  773MOL0     H 6657  11.735   0.920   9.410  0.0405 -0.2209 -0.2682
  773MOL0     H 6658  11.278   0.592   8.955 -1.2064  0.3218  0.4629
  773MOL0     H 6659  11.037   0.661   8.899  1.1317 -1.5054 -3.1955
  773MOL0     H 6660  10.796   1.078   8.647  2.3299 -1.8197  1.4801
  773MOL0     H 6661  10.567   1.191   8.641 -0.1833 -0.4271 -0.6882
  773MOL0     H 6662  10.310   1.275   8.672 -1.4839 -1.4830 -1.2900
  773MOL0     H 6663  10.321   1.099   8.709  2.5616  0.6720 -1.3858
  773MOL0     H 6664  10.148   1.327   8.824  1.3454  1.1958 -0.1379
  773MOL0     H 6665  10.155   1.175   8.908  0.7160  2.2431  0.7795
  773MOL0     H 6666  10.053   1.218   8.622  0.7166 -0.4470 -0.3389
  773MOL0     H 6667  10.056   1.062   8.701  1.8052 -0.0246  2.7297
  773MOL0     H 6668   9.841   1.207   8.715  1.1489  2.1359 -0.9901
  773MOL0     H 6669   9.919   1.301   8.833 -2.0234  0.7815 -2.2951
  773MOL0     H 6670   9.902   0.955   9.066 -1.3514 -0.4284 -0.6605
  773MOL0     H 6671  10.537   1.163   9.057 -0.9922 -1.7600 -0.9793
  773MOL0     H 6672  10.717   1.073   9.194  0.8697 -0.6908  1.1720
  773MOL0     H 6673  10.797   0.930   9.120 -0.4051 -0.0580 -2.5856
  773MOL0     H 6674  10.875   1.095   9.116 -1.4309  2.8702  2.8230
  774MOL0     O 6675   6.435   5.568   0.354  0.1488  0.6831 -0.2571
  774MOL0     C 6676   6.558   5.576   0.322  0.0453  0.2906  0.2517
  774MOL0     O 6677   6.609   5.511   0.213  0.3769 -0.3824  0.5680
  774MOL0     C 6678   6.526   5.457   0.115 -0.0422  0.5399  0.3482
  774MOL0     C 6679   6.420   5.542   0.068 -0.8634  0.9549 -0.5647
  774MOL0     C 6680   6.357   5.512  -0.055  0.4427 -0.3768  0.1524
  774MOL0     C 6681   6.394   5.399  -0.127  0.5674  0.3506  0.2901
  774MOL0     O 6682   6.322   5.372  -0.237 -0.2477 -0.2452 -1.1456
  774MOL0     C 6683   6.345   5.257  -0.319 -0.6365 -0.6354 -0.0460
  774MOL0     C 6684   6.322   5.292  -0.466 -0.4985 -1.6512  0.1453
  774MOL0     C 6685   6.376   5.190  -0.563 -0.2074 -0.1391 -0.0496
  774MOL0     C 6686   6.530   5.194  -0.568  0.3749 -0.3514 -0.2843
  774MOL0     C 6687   6.594   5.073  -0.641  0.6310  0.7556 -0.4211
  774MOL0     C 6688   6.726   5.124  -0.700 -0.0745 -0.0219 -0.1529
  774MOL0     C 6689   6.827   5.017  -0.763  1.1007  0.5446  0.3175
  774MOL0     C 6690   6.976   5.045  -0.756  0.1026 -0.5478 -1.0298
  774MOL0     N 6691   7.022   5.157  -0.829  0.5717 -0.1661 -0.1616
  774MOL0     C 6692   7.065   5.152  -0.961 -1.0421 -0.2451  0.6384
  774MOL0     C 6693   7.102   5.280  -0.983 -0.7205 -0.2951  0.4090
  774MOL0     C 6694   7.154   5.351  -1.105 -0.1316  0.5020  0.3016
  774MOL0     C 6695   7.084   5.487  -1.127 -0.9162 -0.3822 -0.4873
  774MOL0     C 6696   6.927   5.469  -1.127 -0.1921  0.1484 -0.9112
  774MOL0     C 6697   6.878   5.363  -1.233 -0.2975  0.6040  0.8232
  774MOL0     O 6698   6.737   5.388  -1.275 -0.4172  0.6716  0.7553
  774MOL0     C 6699   6.633   5.405  -1.183  0.3232  0.5988  0.3161
  774MOL0     C 6700   6.537   5.504  -1.211 -0.0352 -0.4864 -0.8081
  774MOL0     C 6701   6.430   5.528  -1.129  0.3187 -0.6289 -0.8351
  774MOL0     C 6702   6.358   5.650  -1.166  0.3577 -0.0331  0.6318
  774MOL0     C 6703   6.409   5.441  -1.016  0.3003 -0.3656  0.5024
  774MOL0     C 6704   6.326   5.483  -0.898  0.7463  0.5108 -0.2558
  774MOL0     O 6705   6.342   5.614  -0.868 -0.0102 -0.0840  0.0284
  774MOL0     C 6706   6.256   5.678  -0.778  0.4165  0.4768  0.1458
  774MOL0     C 6707   6.302   5.709  -0.652 -0.9083 -1.5061 -1.5771
  774MOL0     C 6708   6.213   5.759  -0.557 -0.4490  0.4338  0.3522
  774MOL0     C 6709   6.070   5.756  -0.577 -0.6187 -0.2391 -0.6957
  774MOL0     O 6710   5.998   5.780  -0.460  0.0924 -0.1315 -0.2271
  774MOL0     C 6711   5.922   5.676  -0.415  0.1869  0.0173  0.2775
  774MOL0     C 6712   5.884   5.695  -0.274 -0.1183 -1.1893 -0.9737
  774MOL0     C 6713   5.998   5.689  -0.167  0.1800  0.1211  0.2741
  774MOL0     C 6714   5.987   5.786  -0.050 -0.0983  0.8565 -0.0207
  774MOL0     C 6715   6.124   5.793   0.035  0.2530  0.6968  0.0820
  774MOL0     C 6716   6.132   5.899   0.153 -0.1457  0.1004  0.2405
  774MOL0     C 6717   6.272   5.893   0.235  0.0221  0.5408  0.6378
  774MOL0     C 6718   6.388   5.911   0.149 -0.8861 -0.0604 -0.4546
  774MOL0    Cl 6719   6.530   5.914   0.246 -0.0482 -0.0957  0.0181
  774MOL0     C 6720   6.027   5.730  -0.698  0.4493 -0.3751  0.0835
  774MOL0     C 6721   6.119   5.699  -0.802  1.1036 -0.0084 -0.5455
  774MOL0     O 6722   6.261   5.399  -0.833 -0.7119 -0.1748  0.5922
  774MOL0     C 6723   6.483   5.324  -1.011  0.3509 -0.8601 -0.6592
  774MOL0     C 6724   6.605   5.314  -1.086  0.1688  0.4104 -1.0253
  774MOL0     N 6725   7.074   5.365  -0.873  0.3727  1.1205 -0.2835
  774MOL0     N 6726   7.026   5.291  -0.791  0.0995  0.3085 -0.2067
  774MOL0     C 6727   6.492   5.312  -0.085 -0.2466  0.3693  0.1465
  774MOL0     C 6728   6.564   5.353   0.027 -0.1822  0.2453 -0.9855
  774MOL0     C 6729   6.656   5.648   0.409  0.1703  0.1038 -0.0882
  774MOL0     C 6730   6.640   5.638   0.543 -0.1652  0.4995  0.0894
  774MOL0     C 6731   6.749   5.663   0.625  0.4231  0.5464 -0.5751
  774MOL0     C 6732   6.867   5.711   0.575 -1.1276 -0.1149 -0.4390
  774MOL0     O 6733   6.968   5.724   0.664  0.0217  0.1757  0.3847
  774MOL0     C 6734   7.042   5.609   0.704 -0.8945  0.0549  0.0061
  774MOL0     C 6735   7.092   5.527   0.582  0.4288 -0.4041 -0.0560
  774MOL0     C 6736   7.209   5.435   0.617 -0.2639  1.0225  0.6468
  774MOL0     C 6737   7.182   5.284   0.623 -0.4015  0.4582 -0.4174
  774MOL0     C 6738   7.308   5.211   0.650 -0.2080 -0.1664 -0.7002
  774MOL0     C 6739   7.405   5.138   0.672 -0.4649 -0.3940 -0.8686
  774MOL0     C 6740   6.875   5.744   0.436 -0.3231 -0.1963  0.2862
  774MOL0     C 6741   6.777   5.695   0.351  1.0034  0.2401  0.5802
  774MOL0     C 6742   6.830   5.669   0.206 -0.6710  0.1714  0.3023
  774MOL0     H 6743   6.392   5.628   0.128 -1.1537 -0.3484  1.2293
  774MOL0     H 6744   6.276   5.577  -0.085  1.8542  3.2344  3.2810
  774MOL0     H 6745   6.282   5.177  -0.280 -1.7856 -1.0015 -2.5087
  774MOL0     H 6746   6.452   5.233  -0.316 -1.0162 -2.7041 -1.0857
  774MOL0     H 6747   6.213   5.297  -0.481 -0.1061  3.3831 -3.8361
  774MOL0     H 6748   6.361   5.393  -0.485 -4.4436  0.3417  1.5053
  774MOL0     H 6749   6.346   5.090  -0.530 -0.6684 -0.7752 -2.2271
  774MOL0     H 6750   6.323   5.199  -0.659 -2.2783  3.3899  1.2559
  774MOL0     H 6751   6.560   5.286  -0.619  1.9565  1.6800  3.8761
  774MOL0     H 6752   6.579   5.181  -0.471 -0.0200 -0.0376 -0.0387
  774MOL0     H 6753   6.535   5.034  -0.724  0.6346  1.7278 -0.9022
  774MOL0     H 6754   6.612   4.994  -0.568  0.2062 -0.1207 -1.2545
  774MOL0     H 6755   6.711   5.203  -0.774  0.2363  1.1910  1.0543
  774MOL0     H 6756   6.774   5.175  -0.616  1.9065 -3.0087  0.6862
  774MOL0     H 6757   6.807   5.007  -0.870  0.6446 -0.3502  0.4781
  774MOL0     H 6758   6.808   4.929  -0.700 -2.1737  2.6616  2.6293
  774MOL0     H 6759   7.003   5.060  -0.652  0.8355 -4.5038 -0.4869
  774MOL0     H 6760   7.032   4.958  -0.791  0.6354 -0.7944  0.3999
  774MOL0     H 6761   7.072   5.069  -1.030  0.2462  1.6967 -1.7461
  774MOL0     H 6762   7.138   5.284  -1.190  1.3737 -0.5111  0.7720
  774MOL0     H 6763   7.261   5.365  -1.090  0.2049 -2.2502  1.0026
  774MOL0     H 6764   7.109   5.576  -1.070 -1.3644  0.6287 -1.8072
  774MOL0     H 6765   7.110   5.520  -1.228  1.7647 -1.8664 -0.3637
  774MOL0     H 6766   6.883   5.455  -1.028  1.2378  1.5201 -0.0459
  774MOL0     H 6767   6.887   5.566  -1.158 -0.1629 -0.7587 -4.1334
  774MOL0     H 6768   6.941   5.348  -1.322 -3.1507 -0.2012 -1.2047
  774MOL0     H 6769   6.897   5.261  -1.199  0.9248 -0.5543 -2.8127
  774MOL0     H 6770   6.558   5.578  -1.288  0.1817  0.7025  0.3430
  774MOL0     H 6771   6.390   5.729  -1.098 -0.8460  0.9951  0.0452
  774MOL0     H 6772   6.250   5.631  -1.166  0.2124  0.3691 -2.0182
  774MOL0     H 6773   6.389   5.682  -1.266  0.8695  1.2122  1.1739
  774MOL0     H 6774   6.407   5.704  -0.625 -0.3898  0.4357 -3.0191
  774MOL0     H 6775   6.253   5.794  -0.463  1.5891  0.1315 -0.3479
  774MOL0     H 6776   5.835   5.676  -0.482  1.9507 -1.6066 -2.1611
  774MOL0     H 6777   5.971   5.580  -0.429  4.2666  1.2702  3.7918
  774MOL0     H 6778   5.829   5.790  -0.263  0.5025 -0.6972 -1.9626
  774MOL0     H 6779   5.801   5.628  -0.249 -1.8451  0.6376 -1.5222
  774MOL0     H 6780   6.097   5.707  -0.210 -0.0293 -0.2267 -0.3712
  774MOL0     H 6781   6.002   5.584  -0.137  0.8100 -0.3466 -1.3098
  774MOL0     H 6782   5.904   5.756   0.015 -0.0834 -0.5668 -0.6178
  774MOL0     H 6783   5.958   5.884  -0.087 -1.5389 -0.2248 -1.9467
  774MOL0     H 6784   6.147   5.696   0.079  1.8347  1.0855  0.1785
  774MOL0     H 6785   6.208   5.806  -0.034  0.1404  0.3158 -0.1324
  774MOL0     H 6786   6.037   5.879   0.203 -0.5774  0.7884 -0.2795
  774MOL0     H 6787   6.120   5.997   0.105  1.6497 -1.3514 -3.6149
  774MOL0     H 6788   6.266   5.797   0.289 -1.6067  0.0706 -0.3152
  774MOL0     H 6789   6.271   5.971   0.312 -0.7143  0.7936  0.3726
  774MOL0     H 6790   6.383   6.006   0.094  0.2458  1.7676  2.3564
  774MOL0     H 6791   6.394   5.833   0.072  1.5195 -0.4071  0.0136
  774MOL0     H 6792   5.923   5.731  -0.729  0.9307  1.4139 -1.6450
  774MOL0     H 6793   6.078   5.661  -0.895 -1.1570 -2.1337  1.1942
  774MOL0     H 6794   6.470   5.262  -0.923  2.2566  0.0363  0.3025
  774MOL0     H 6795   6.677   5.237  -1.058 -2.9025 -1.7682  1.7984
  774MOL0     H 6796   6.518   5.214  -0.124 -1.2273  0.4109 -0.6684
  774MOL0     H 6797   6.651   5.289   0.041 -0.3344 -0.1436 -1.7621
  774MOL0     H 6798   6.553   5.585   0.580 -2.0220  2.0922 -1.7454
  774MOL0     H 6799   6.750   5.656   0.734  1.3226 -2.1983 -0.6749
  774MOL0     H 6800   7.127   5.647   0.761  1.2582 -1.2780 -2.1094
  774MOL0     H 6801   6.976   5.553   0.771 -0.9663 -0.6782 -0.6636
  774MOL0     H 6802   7.128   5.598   0.507 -1.1337 -0.6705 -1.1226
  774MOL0     H 6803   7.004   5.473   0.545 -1.1546  2.5672 -0.9969
  774MOL0     H 6804   7.284   5.445   0.539  0.4793 -2.2609  0.7997
  774MOL0     H 6805   7.260   5.472   0.706 -0.3185 -1.0139  1.5738
  774MOL0     H 6806   7.146   5.253   0.524 -2.2124  0.2896  0.2700
  774MOL0     H 6807   7.112   5.251   0.700 -0.2139  0.3135 -0.3086
  774MOL0     H 6808   7.474   5.061   0.701 -4.2078 -2.9070  2.4010
  774MOL0     H 6809   6.960   5.784   0.381  0.2306 -1.2912  0.3152
  774MOL0     H 6810   6.922   5.727   0.194 -1.8569  2.7187  2.4446
  774MOL0     H 6811   6.859   5.564   0.193  2.7601  0.5481  3.2567
  774MOL0     H 6812   6.767   5.704   0.124  0.0603 -0.6126 -0.6183
  775MOL0     O 6813   1.564   8.590   8.943 -0.2552  0.4161  0.0678
  775MOL0     C 6814   1.543   8.596   8.822 -0.5421 -0.6034  0.2370
  775MOL0     O 6815   1.638   8.577   8.725  0.6037 -0.5505 -0.2774
  775MOL0     C 6816   1.768   8.595   8.761  0.0666 -0.8881  0.5113
  775MOL0     C 6817   1.835   8.507   8.844 -0.6928  0.1199 -0.4072
  775MOL0     C 6818   1.961   8.531   8.879 -0.0795 -0.1479  1.0562
  775MOL0     C 6819   2.043   8.628   8.822 -0.5447 -0.0702 -0.4034
  775MOL0     O 6820   2.174   8.648   8.848 -0.6230  1.0663 -0.5545
  775MOL0     C 6821   2.226   8.596   8.974  0.5495 -0.6465  0.0649
  775MOL0     C 6822   2.203   8.724   9.054 -0.1816  1.0533 -0.2088
  775MOL0     C 6823   2.291   8.721   9.184  0.1899 -0.3434 -0.9522
  775MOL0     C 6824   2.313   8.863   9.247  0.8890 -0.4800 -1.0720
  775MOL0     C 6825   2.414   8.848   9.365  0.4375  0.4845 -0.4160
  775MOL0     C 6826   2.565   8.851   9.319  0.2177 -0.2696 -0.3217
  775MOL0     C 6827   2.662   8.831   9.440  0.6118 -0.2173  0.7525
  775MOL0     C 6828   2.661   8.952   9.539 -0.9057 -0.0114  0.6098
  775MOL0     N 6829   2.745   8.918   9.655 -0.1231 -0.0503  1.5821
  775MOL0     C 6830   2.867   8.858   9.654  0.4263 -0.7959 -0.7356
  775MOL0     C 6831   2.903   8.856   9.788 -0.9538 -0.9722  0.1551
  775MOL0     C 6832   3.031   8.805   9.853  0.4110  0.4569  0.2915
  775MOL0     C 6833   3.127   8.920   9.876 -0.8354  0.7765  0.2030
  775MOL0     C 6834   3.085   9.028   9.977 -0.6553  0.0015 -0.8276
  775MOL0     C 6835   3.041   8.986  10.118  0.7274  0.2095  0.5141
  775MOL0     O 6836   3.127   8.879  10.163  0.4462  0.6414  0.2194
  775MOL0     C 6837   3.257   8.892  10.198 -0.4509  0.6003  0.3581
  775MOL0     C 6838   3.327   9.020  10.209  0.8939  0.2368  0.1476
  775MOL0     C 6839   3.458   9.019  10.262  0.4735 -0.5646  0.6725
  775MOL0     C 6840   3.520   9.154  10.282 -0.5562 -0.4952 -0.1983
  775MOL0     C 6841   3.517   8.895  10.296  0.0592 -0.0811  0.0734
  775MOL0     C 6842   3.657   8.883  10.317  0.1852  0.7206 -0.4770
  775MOL0     O 6843   3.711   8.772  10.255  0.0063 -0.0929 -0.5477
  775MOL0     C 6844   3.843   8.740  10.287  0.1382  0.5754  0.4122
  775MOL0     C 6845   3.865   8.647  10.386 -0.0108  0.3039 -0.2031
  775MOL0     C 6846   3.999   8.622  10.421 -0.2045 -0.6382  0.2235
  775MOL0     C 6847   4.103   8.676  10.348  0.9868  0.2910 -0.2550
  775MOL0     O 6848   4.229   8.646  10.382 -0.4035  0.3257 -0.0803
  775MOL0     C 6849   4.303   8.581  10.271 -0.2200 -0.0314  0.5609
  775MOL0     C 6850   4.403   8.476  10.311  0.4060  0.2987  0.2388
  775MOL0     C 6851   4.472   8.406  10.195  0.0840 -0.6991  0.5640
  775MOL0     C 6852   4.389   8.293  10.122 -0.5947 -0.5769 -0.6128
  775MOL0     C 6853   4.491   8.206  10.036  1.0805 -0.4039 -1.0474
  775MOL0     C 6854   4.559   8.106  10.133  0.5540  0.2461  0.8636
  775MOL0     C 6855   4.651   8.011  10.054  0.2168 -0.5642 -0.3139
  775MOL0     C 6856   4.576   7.913   9.971  0.6882  0.2397 -0.1118
  775MOL0    Cl 6857   4.667   7.774   9.908  0.1955  0.2455 -0.2842
  775MOL0     C 6858   4.076   8.770  10.252 -0.0376  0.0044 -0.2758
  775MOL0     C 6859   3.943   8.805  10.222 -0.5368  0.1027 -0.8897
  775MOL0     O 6860   3.720   8.951  10.401  0.3753  0.4687 -0.0554
  775MOL0     C 6861   3.444   8.779  10.289 -0.2439  0.5539 -0.7952
  775MOL0     C 6862   3.319   8.771  10.237  0.2837 -0.1029 -0.4136
  775MOL0     N 6863   2.801   8.899   9.858  0.1341 -0.2622 -0.6779
  775MOL0     N 6864   2.710   8.946   9.780 -0.0598  0.7134  1.2694
  775MOL0     C 6865   1.978   8.709   8.733  0.3916 -0.6798  0.0137
  775MOL0     C 6866   1.839   8.705   8.704  0.2525 -0.1738  0.6296
  775MOL0     C 6867   1.409   8.627   8.775 -0.0533  0.4636  0.2817
  775MOL0     C 6868   1.302   8.596   8.856 -0.4007 -0.5850 -0.6938
  775MOL0     C 6869   1.178   8.614   8.805  0.5998 -0.2333  0.2239
  775MOL0     C 6870   1.158   8.668   8.677 -0.2834 -0.4078  0.3741
  775MOL0     O 6871   1.034   8.677   8.622  0.1696 -0.3725  0.6795
  775MOL0     C 6872   0.918   8.651   8.704 -0.3483  0.5704  0.4714
  775MOL0     C 6873   0.869   8.760   8.794  0.0864 -0.3666  0.8342
  775MOL0     C 6874   0.809   8.891   8.728  0.3781  0.2200 -0.8487
  775MOL0     C 6875   0.690   8.882   8.639 -0.4305  0.0771 -0.2413
  775MOL0     C 6876   0.576   8.871   8.721 -0.6980 -0.7293  0.6145
  775MOL0     C 6877   0.466   8.867   8.777  0.2052 -0.8301  0.2122
  775MOL0     C 6878   1.271   8.697   8.602  0.2103  0.2358 -0.4751
  775MOL0     C 6879   1.397   8.680   8.644  0.5544  0.0328 -1.3192
  775MOL0     C 6880   1.497   8.725   8.543  0.0593  0.1189 -0.5612
  775MOL0     H 6881   1.777   8.423   8.881 -2.5529  0.7179 -1.7813
  775MOL0     H 6882   2.008   8.451   8.936 -4.1091 -3.8592 -0.2970
  775MOL0     H 6883   2.332   8.578   8.953 -0.3826 -3.1068 -3.6858
  775MOL0     H 6884   2.187   8.505   9.018 -2.1349  0.0245 -0.7741
  775MOL0     H 6885   2.236   8.813   8.999 -1.1098  0.8548 -1.1101
  775MOL0     H 6886   2.100   8.731   9.090 -0.8093 -3.5266 -0.4784
  775MOL0     H 6887   2.241   8.646   9.246  1.8847 -1.0785 -0.4139
  775MOL0     H 6888   2.388   8.674   9.164  0.1798  0.0792 -2.0996
  775MOL0     H 6889   2.370   8.926   9.178  0.8116  0.5413 -0.2252
  775MOL0     H 6890   2.219   8.911   9.275  0.7087 -1.7984  0.7468
  775MOL0     H 6891   2.381   8.755   9.411  2.2600 -0.0336 -0.0678
  775MOL0     H 6892   2.410   8.932   9.436  2.2918  0.1206  0.1756
  775MOL0     H 6893   2.580   8.769   9.248  1.1172  1.0473 -1.7216
  775MOL0     H 6894   2.597   8.938   9.262  0.8981  0.2668  0.8448
  775MOL0     H 6895   2.764   8.820   9.402  1.1086  1.1673  1.6063
  775MOL0     H 6896   2.633   8.743   9.497  0.6322 -1.3942 -0.9816
  775MOL0     H 6897   2.689   9.046   9.490 -3.0945 -0.0661 -0.9070
  775MOL0     H 6898   2.563   8.969   9.584 -0.9149 -0.3668  0.7231
  775MOL0     H 6899   2.930   8.831   9.569 -0.0019  0.4491 -1.4837
  775MOL0     H 6900   3.056   8.723   9.784 -1.9428 -0.3112  0.2464
  775MOL0     H 6901   3.013   8.758   9.951  0.7936 -1.2411 -0.4105
  775MOL0     H 6902   3.215   8.862   9.904 -3.5705 -3.3131  1.2831
  775MOL0     H 6903   3.145   8.974   9.782 -0.1978 -0.4591 -0.4127
  775MOL0     H 6904   3.174   9.088   9.999 -1.4734  0.0069  3.3218
  775MOL0     H 6905   3.002   9.086   9.936 -2.7980 -1.7633  0.7566
  775MOL0     H 6906   3.041   9.074  10.182  1.5499 -0.5431  1.5793
  775MOL0     H 6907   2.939   8.946  10.113 -0.7433  3.6080  0.5372
  775MOL0     H 6908   3.277   9.104  10.161 -1.3016 -2.1626 -2.0798
  775MOL0     H 6909   3.451   9.239  10.285  1.1047  0.8927  0.3365
  775MOL0     H 6910   3.590   9.183  10.203 -1.3113 -0.8666 -1.0288
  775MOL0     H 6911   3.585   9.146  10.370  4.4486 -2.9715 -3.6161
  775MOL0     H 6912   3.786   8.603  10.446  1.8996 -2.4421  0.5146
  775MOL0     H 6913   4.018   8.569  10.514  1.8050 -0.9639 -0.3164
  775MOL0     H 6914   4.241   8.525  10.200 -2.0038 -0.2514  2.2006
  775MOL0     H 6915   4.340   8.664  10.211 -1.5705  0.7568  0.7964
  775MOL0     H 6916   4.482   8.518  10.374  0.4403 -1.7908  1.7119
  775MOL0     H 6917   4.349   8.396  10.363  0.9473  0.4278  1.0242
  775MOL0     H 6918   4.566   8.372  10.239  1.3713  1.4171 -0.4120
  775MOL0     H 6919   4.492   8.483  10.119 -0.1759 -2.2835 -1.1997
  775MOL0     H 6920   4.314   8.342  10.061 -2.9066 -2.7599  0.3021
  775MOL0     H 6921   4.340   8.224  10.191 -0.7505 -2.4646 -2.5072
  775MOL0     H 6922   4.451   8.154   9.948  2.3069 -2.4306 -0.4644
  775MOL0     H 6923   4.569   8.277  10.005  3.5962 -3.5442 -2.5486
  775MOL0     H 6924   4.476   8.055  10.181 -2.6200  2.8542 -1.3975
  775MOL0     H 6925   4.620   8.155  10.210 -0.8230  0.3187  1.9392
  775MOL0     H 6926   4.703   7.957  10.133 -0.1322 -2.2881 -1.2147
  775MOL0     H 6927   4.726   8.061   9.992  3.0472 -0.5330  2.8764
  775MOL0     H 6928   4.527   7.969   9.890  1.1635 -1.0613 -1.3438
  775MOL0     H 6929   4.495   7.874  10.033 -1.1105  1.6950 -1.4353
  775MOL0     H 6930   4.161   8.827  10.216 -0.5897  0.1433 -1.4197
  775MOL0     H 6931   3.925   8.888  10.154 -1.5779  1.0463  0.4892
  775MOL0     H 6932   3.481   8.681  10.318  0.8456  1.5884  1.5758
  775MOL0     H 6933   3.252   8.686  10.234 -0.0096  0.1487 -2.0998
  775MOL0     H 6934   2.038   8.793   8.700 -0.1116 -0.1444  0.4488
  775MOL0     H 6935   1.802   8.782   8.637  1.1951  1.1668  1.6068
  775MOL0     H 6936   1.331   8.558   8.954 -0.1606  1.3561  0.0239
  775MOL0     H 6937   1.098   8.596   8.876  1.4153 -1.4617  0.8738
  775MOL0     H 6938   0.842   8.618   8.633  0.1596  0.1283  0.1270
  775MOL0     H 6939   0.937   8.562   8.764  1.4784  1.4331  1.2543
  775MOL0     H 6940   0.952   8.785   8.860  2.2108 -1.3322 -1.3316
  775MOL0     H 6941   0.787   8.719   8.853 -1.5437 -1.6363 -2.0750
  775MOL0     H 6942   0.778   8.964   8.803 -0.9289 -3.0763  2.1170
  775MOL0     H 6943   0.894   8.933   8.673  2.0051  0.3472  1.5885
  775MOL0     H 6944   0.697   8.800   8.567 -0.9425 -0.1295 -0.0596
  775MOL0     H 6945   0.683   8.975   8.582 -0.4640  0.9322  1.1059
  775MOL0     H 6946   0.367   8.877   8.817 -0.7276  1.4133 -2.3572
  775MOL0     H 6947   1.257   8.737   8.502  2.5853  0.3467 -0.8225
  775MOL0     H 6948   1.452   8.788   8.465  0.4625  0.5659 -0.4411
  775MOL0     H 6949   1.580   8.783   8.586 -1.0846  1.3517  0.0462
  775MOL0     H 6950   1.544   8.639   8.494  3.2693  1.4587 -0.0963
  776MOL0     O 6951   0.037   3.604   2.210  0.5999  0.7852 -0.7976
  776MOL0     C 6952   0.112   3.635   2.117  0.2211 -0.2031 -0.1199
  776MOL0     O 6953   0.096   3.595   1.985  0.3379 -0.1263  0.8946
  776MOL0     C 6954   0.038   3.470   1.952  0.0833 -0.1438  0.2248
  776MOL0     C 6955   0.103   3.378   1.877 -0.3076  0.0484 -0.2307
  776MOL0     C 6956   0.044   3.255   1.852 -0.5140  0.2867 -0.5632
  776MOL0     C 6957  -0.087   3.221   1.898  0.9761 -0.1566  0.3049
  776MOL0     O 6958  -0.135   3.098   1.870  0.1477  0.4538 -0.7451
  776MOL0     C 6959  -0.097   3.001   1.964 -0.1998  0.0660  0.4458
  776MOL0     C 6960  -0.076   2.859   1.893 -0.2849 -0.6589 -1.0601
  776MOL0     C 6961   0.055   2.853   1.813 -1.0429  0.1887 -0.4074
  776MOL0     C 6962   0.026   2.894   1.665 -1.0862  1.0098  0.2544
  776MOL0     C 6963   0.131   2.854   1.566 -0.8650  0.4050  0.6947
  776MOL0     C 6964   0.077   2.871   1.427  0.2649 -0.8571 -0.0824
  776MOL0     C 6965   0.187   2.901   1.327  0.3885  0.7643 -0.1423
  776MOL0     C 6966   0.138   3.001   1.218 -1.0126 -0.4783 -0.7752
  776MOL0     N 6967   0.036   2.941   1.136  0.7158 -0.1302  0.1597
  776MOL0     C 6968   0.047   2.842   1.046  0.2454 -0.9187  0.1758
  776MOL0     C 6969  -0.076   2.835   0.986  0.9431 -0.6059  0.2418
  776MOL0     C 6970  -0.098   2.762   0.853 -0.7374  0.9022  0.4424
  776MOL0     C 6971  -0.222   2.672   0.876  0.5368 -0.5374  0.3902
  776MOL0     C 6972  -0.202   2.542   0.958  0.3638 -0.8269  0.3903
  776MOL0     C 6973  -0.076   2.459   0.932 -0.2228 -0.4633  0.2242
  776MOL0     O 6974  -0.047   2.445   0.791  0.4220  0.7253  0.7168
  776MOL0     C 6975   0.068   2.395   0.748 -0.0451 -0.2422  0.3407
  776MOL0     C 6976   0.191   2.399   0.813  0.4564  0.8530 -1.0200
  776MOL0     C 6977   0.304   2.351   0.754  0.3310  0.0806  0.2637
  776MOL0     C 6978   0.419   2.372   0.840 -1.0004  0.0238 -1.5174
  776MOL0     C 6979   0.301   2.294   0.620  0.4870  0.1001 -0.7893
  776MOL0     C 6980   0.423   2.240   0.552  0.1951 -0.9615  0.7660
  776MOL0     O 6981   0.396   2.187   0.428 -0.4952 -1.0184 -0.6008
  776MOL0     C 6982   0.496   2.137   0.342  0.9404 -0.1106  0.2346
  776MOL0     C 6983   0.458   2.129   0.211 -0.0315  0.9149  0.5593
  776MOL0     C 6984   0.550   2.098   0.110 -0.3753 -0.4762 -0.0907
  776MOL0     C 6985   0.686   2.078   0.137 -0.4306 -0.0015  0.4053
  776MOL0     O 6986   0.793   2.073   0.045 -0.0277  0.4405 -0.0706
  776MOL0     C 6987   0.759   2.058  -0.095 -0.1968 -0.7254  0.8112
  776MOL0     C 6988   0.883   2.031  -0.179  0.7846  0.1085 -0.3749
  776MOL0     C 6989   0.852   1.990  -0.332 -1.2572  0.3210  0.5677
  776MOL0     C 6990   0.977   1.986  -0.402 -0.5926 -0.5359  0.5699
  776MOL0     C 6991   0.976   1.944  -0.550 -0.7176 -1.2642 -0.3703
  776MOL0     C 6992   1.121   1.914  -0.611 -0.9037  0.0787  0.8057
  776MOL0     C 6993   1.112   1.843  -0.746  0.1763  0.5192 -0.1073
  776MOL0     C 6994   1.057   1.927  -0.860  1.0900  0.4178  0.7178
  776MOL0    Cl 6995   1.129   2.079  -0.871 -0.2504  0.0958  0.0617
  776MOL0     C 6996   0.715   2.089   0.272 -0.8449  1.5783  0.5684
  776MOL0     C 6997   0.628   2.115   0.373 -0.1927 -0.1846  0.3775
  776MOL0     O 6998   0.529   2.229   0.615 -1.1484 -0.3675  0.0740
  776MOL0     C 6999   0.170   2.294   0.560  0.3547  0.2144  0.0385
  776MOL0     C 7000   0.060   2.339   0.618 -0.1129  0.1346 -1.0369
  776MOL0     N 7001  -0.164   2.922   1.055  0.1032  0.6769  0.4917
  776MOL0     N 7002  -0.093   2.985   1.147 -0.2742  0.4605  0.9625
  776MOL0     C 7003  -0.153   3.313   1.973  0.2134  0.1064  0.5668
  776MOL0     C 7004  -0.092   3.445   1.994  1.0242  0.2630  0.3508
  776MOL0     C 7005   0.226   3.724   2.157 -0.9030  0.8081  0.1476
  776MOL0     C 7006   0.238   3.776   2.294 -0.3382 -0.1483 -0.2085
  776MOL0     C 7007   0.334   3.862   2.331  0.1676 -0.8387 -0.2738
  776MOL0     C 7008   0.440   3.897   2.239  0.7776 -0.1212 -0.4145
  776MOL0     O 7009   0.538   3.981   2.286 -0.1806 -0.3498  0.4109
  776MOL0     C 7010   0.658   4.004   2.214 -0.1465  1.2962 -0.8673
  776MOL0     C 7011   0.708   4.146   2.246 -0.1219 -1.0269 -0.9852
  776MOL0     C 7012   0.836   4.194   2.167  0.0964 -0.6302  0.1739
  776MOL0     C 7013   0.968   4.137   2.230 -0.0437  0.3719  0.2425
  776MOL0     C 7014   0.994   4.201   2.364 -0.5203 -0.1839  0.1466
  776MOL0     C 7015   1.036   4.246   2.470 -0.0278  0.8769 -0.3630
  776MOL0     C 7016   0.436   3.844   2.108 -0.1549  0.1660 -0.7621
  776MOL0     C 7017   0.332   3.765   2.067  0.8529  0.1399  0.0105
  776MOL0     C 7018   0.340   3.717   1.927 -0.1809 -0.1034 -0.2111
  776MOL0     H 7019   0.204   3.398   1.844  0.3241 -1.7336  0.4746
  776MOL0     H 7020   0.111   3.195   1.791  1.7169  0.1530  1.8402
  776MOL0     H 7021  -0.167   2.994   2.047 -1.0369 -1.8427 -0.3609
  776MOL0     H 7022  -0.005   3.031   2.015  1.2730  0.6788 -2.3609
  776MOL0     H 7023  -0.075   2.775   1.963  0.6029 -1.2333 -1.7377
  776MOL0     H 7024  -0.164   2.829   1.836 -2.8013  0.6077  1.8520
  776MOL0     H 7025   0.135   2.899   1.872 -0.5812 -0.5521 -0.4358
  776MOL0     H 7026   0.085   2.748   1.811  0.6901  0.6226  0.3836
  776MOL0     H 7027  -0.072   2.856   1.636 -0.1469 -1.0438 -0.4356
  776MOL0     H 7028   0.014   3.001   1.649  0.1771  1.2499  0.7781
  776MOL0     H 7029   0.173   2.753   1.570  0.6085  0.9288 -0.6746
  776MOL0     H 7030   0.214   2.924   1.576 -1.5963  1.3809 -0.0227
  776MOL0     H 7031   0.002   2.797   1.400  0.0903 -0.2725 -1.2650
  776MOL0     H 7032   0.027   2.968   1.417 -1.4153 -1.8286 -1.5466
  776MOL0     H 7033   0.213   2.803   1.285  3.8433  1.6060 -0.3193
  776MOL0     H 7034   0.279   2.944   1.369 -1.0469  1.0083  3.0321
  776MOL0     H 7035   0.104   3.095   1.260  1.1125  0.1594 -0.3614
  776MOL0     H 7036   0.233   3.020   1.166  0.3767  0.1720  1.8280
  776MOL0     H 7037   0.138   2.795   1.011  0.6045  0.8638 -1.4803
  776MOL0     H 7038  -0.012   2.700   0.824 -2.4891 -1.5583  0.2010
  776MOL0     H 7039  -0.116   2.830   0.769 -5.3374 -0.5184 -0.0144
  776MOL0     H 7040  -0.303   2.732   0.917 -0.8445  0.8619 -3.8337
  776MOL0     H 7041  -0.276   2.652   0.782 -0.5296  2.6600  0.2221
  776MOL0     H 7042  -0.205   2.573   1.063 -0.5503  2.5457 -0.4965
  776MOL0     H 7043  -0.292   2.482   0.940  1.6505 -2.5647 -0.4427
  776MOL0     H 7044   0.001   2.516   0.986  1.1658 -2.0724  0.0057
  776MOL0     H 7045  -0.072   2.369   0.994 -1.2525 -1.0437 -0.5281
  776MOL0     H 7046   0.189   2.434   0.915  0.7981  0.5798 -0.9153
  776MOL0     H 7047   0.450   2.279   0.887  0.1095 -0.2945 -2.8190
  776MOL0     H 7048   0.401   2.451   0.913  2.2573  0.0157 -0.5421
  776MOL0     H 7049   0.509   2.411   0.791  0.6237  3.0922  3.1723
  776MOL0     H 7050   0.352   2.139   0.192  0.2765  3.0898 -0.2187
  776MOL0     H 7051   0.503   2.102   0.013 -0.9409 -1.4760  0.1272
  776MOL0     H 7052   0.687   1.976  -0.102 -2.1267  0.6562  3.0514
  776MOL0     H 7053   0.719   2.151  -0.137  2.3072  0.0309 -0.0908
  776MOL0     H 7054   0.937   2.125  -0.167 -2.8870  2.2057  1.1980
  776MOL0     H 7055   0.935   1.950  -0.127  0.8942  0.2759 -0.2233
  776MOL0     H 7056   0.782   2.061  -0.376 -0.5265  1.2739  0.9039
  776MOL0     H 7057   0.793   1.898  -0.343 -1.1598  0.0053  2.3097
  776MOL0     H 7058   1.048   1.914  -0.359 -0.7790 -0.1298  1.5863
  776MOL0     H 7059   1.033   2.074  -0.371  0.1261 -0.9538  0.4781
  776MOL0     H 7060   0.908   1.859  -0.544 -2.1788 -0.1319 -0.0277
  776MOL0     H 7061   0.933   2.031  -0.602  0.9532  2.2766  3.5313
  776MOL0     H 7062   1.170   1.851  -0.535 -0.5787 -3.8338 -2.3188
  776MOL0     H 7063   1.175   2.009  -0.621 -0.0731 -0.3246  1.2921
  776MOL0     H 7064   1.055   1.751  -0.731  2.1495 -0.7427 -0.0236
  776MOL0     H 7065   1.217   1.825  -0.768  0.4104  0.4032  1.0225
  776MOL0     H 7066   0.950   1.943  -0.843  0.4104 -1.5725 -1.2731
  776MOL0     H 7067   1.076   1.858  -0.943  0.8477 -0.8346  1.6833
  776MOL0     H 7068   0.819   2.075   0.302 -0.5975  2.3187  0.0758
  776MOL0     H 7069   0.671   2.129   0.472  0.4655  2.0461 -0.1639
  776MOL0     H 7070   0.165   2.249   0.461  2.7038  0.6745 -0.3348
  776MOL0     H 7071  -0.031   2.332   0.560 -1.6098 -1.7647  1.3346
  776MOL0     H 7072  -0.250   3.286   2.014 -0.2192  0.9366  0.1136
  776MOL0     H 7073  -0.152   3.513   2.054 -0.8401 -0.2785 -0.8226
  776MOL0     H 7074   0.160   3.748   2.365  0.8270 -0.4189  0.9981
  776MOL0     H 7075   0.331   3.927   2.418 -0.7605  1.0725 -1.6490
  776MOL0     H 7076   0.720   3.923   2.253 -3.6533 -1.5243 -0.6150
  776MOL0     H 7077   0.649   3.990   2.106 -3.7041 -1.5031 -0.3921
  776MOL0     H 7078   0.729   4.145   2.354  0.9192  1.0528 -1.1237
  776MOL0     H 7079   0.626   4.214   2.224  1.8787  1.3551 -1.4320
  776MOL0     H 7080   0.829   4.159   2.064 -0.2507  0.8160 -0.3164
  776MOL0     H 7081   0.841   4.303   2.161 -2.0458 -0.5401 -0.8395
  776MOL0     H 7082   1.047   4.172   2.162 -0.1124  1.8106  0.8682
  776MOL0     H 7083   0.967   4.030   2.251 -0.8462  0.4128  0.4541
  776MOL0     H 7084   1.072   4.289   2.562  1.4785  0.1288 -0.5791
  776MOL0     H 7085   0.506   3.866   2.028 -0.2683  0.1393 -0.8691
  776MOL0     H 7086   0.440   3.731   1.884 -1.7210  2.5699 -3.2942
  776MOL0     H 7087   0.328   3.608   1.919 -0.6005 -0.1466  0.7903
  776MOL0     H 7088   0.271   3.767   1.860  1.0933  2.7174  0.4339
  777MOL0     O 7089   1.995   8.413   0.669 -0.2358 -0.1251  0.0474
  777MOL0     C 7090   1.932   8.357   0.577  0.2722  0.2867 -1.0735
  777MOL0     O 7091   1.978   8.291   0.472  0.1727  0.1831  0.0455
  777MOL0     C 7092   2.112   8.294   0.465  0.0860  0.7847  0.7821
  777MOL0     C 7093   2.177   8.175   0.507  0.6746  0.6025 -0.8439
  777MOL0     C 7094   2.313   8.154   0.479  0.9788 -0.4409  0.6919
  777MOL0     C 7095   2.391   8.251   0.417 -0.6920  0.2133  1.3016
  777MOL0     O 7096   2.529   8.229   0.418 -0.0725 -0.4301 -0.6280
  777MOL0     C 7097   2.608   8.291   0.312  0.2081  0.0114  1.1080
  777MOL0     C 7098   2.688   8.421   0.365 -0.3555  0.7129 -0.8691
  777MOL0     C 7099   2.789   8.398   0.477 -0.2484  0.1716 -1.1937
  777MOL0     C 7100   2.833   8.521   0.557 -0.4275  0.1818  0.1669
  777MOL0     C 7101   2.905   8.494   0.695 -0.0838  0.5797  0.9147
  777MOL0     C 7102   2.810   8.508   0.813 -0.3915  0.2364  0.5284
  777MOL0     C 7103   2.874   8.525   0.957  0.6049 -0.0688  0.3264
  777MOL0     C 7104   2.761   8.592   1.040 -0.7055  0.1837  0.1704
  777MOL0     N 7105   2.803   8.621   1.178  0.3105  0.1136  0.7011
  777MOL0     C 7106   2.855   8.547   1.278  0.0539  0.5838  0.3113
  777MOL0     C 7107   2.884   8.633   1.376  0.0394 -0.6859 -0.6383
  777MOL0     C 7108   2.949   8.594   1.515  0.9103 -0.1491 -0.1487
  777MOL0     C 7109   3.092   8.641   1.515  0.1646  0.2432 -0.3703
  777MOL0     C 7110   3.157   8.648   1.651  0.2041  0.0737  0.5497
  777MOL0     C 7111   3.309   8.651   1.640  0.5214  0.0207  0.0193
  777MOL0     O 7112   3.355   8.749   1.552  0.0547  0.0858 -0.1131
  777MOL0     C 7113   3.494   8.762   1.513  0.2662 -0.7512  0.1998
  777MOL0     C 7114   3.554   8.868   1.450 -0.2579 -0.8494  0.3075
  777MOL0     C 7115   3.688   8.870   1.410  0.0165  0.0648 -1.3631
  777MOL0     C 7116   3.735   8.990   1.336  0.3952  0.0142 -0.0326
  777MOL0     C 7117   3.776   8.754   1.442 -0.2767 -0.2526 -0.3502
  777MOL0     C 7118   3.926   8.759   1.424 -0.1274 -0.4217 -0.4620
  777MOL0     O 7119   3.992   8.644   1.430  1.0803  0.4971  0.6210
  777MOL0     C 7120   4.131   8.640   1.424 -0.3316 -0.3719 -0.1161
  777MOL0     C 7121   4.220   8.596   1.523  1.0878  0.4189 -0.5531
  777MOL0     C 7122   4.354   8.611   1.506 -0.1836  0.0245 -0.0221
  777MOL0     C 7123   4.402   8.662   1.386 -0.6365  0.7774  0.2998
  777MOL0     O 7124   4.537   8.675   1.367 -0.4681  0.0722 -0.1755
  777MOL0     C 7125   4.591   8.603   1.252  0.1544 -0.0042  0.3340
  777MOL0     C 7126   4.741   8.599   1.240  0.4278 -0.2376  0.2277
  777MOL0     C 7127   4.788   8.728   1.166  0.2737  0.5789  0.0903
  777MOL0     C 7128   4.946   8.751   1.193  0.4490  0.6976  0.5113
  777MOL0     C 7129   5.005   8.868   1.122 -0.6727  1.4989 -1.4072
  777MOL0     C 7130   5.161   8.892   1.169 -0.3936 -0.4859 -0.2072
  777MOL0     C 7131   5.259   8.834   1.065  0.7918  0.0721  1.1152
  777MOL0     C 7132   5.394   8.816   1.116 -0.0935  0.6714 -0.1618
  777MOL0    Cl 7133   5.413   8.715   1.263  0.0407 -0.3208  0.2361
  777MOL0     C 7134   4.319   8.707   1.288 -0.9220  0.6815 -0.2273
  777MOL0     C 7135   4.181   8.701   1.305 -0.5622  1.0490  0.1312
  777MOL0     O 7136   3.979   8.864   1.417 -0.4474  0.7040 -0.3300
  777MOL0     C 7137   3.719   8.644   1.507  0.1950 -0.3575 -0.3189
  777MOL0     C 7138   3.580   8.644   1.544  0.4168 -0.1353 -0.3520
  777MOL0     N 7139   2.833   8.758   1.342  0.4363  0.1929 -0.4565
  777MOL0     N 7140   2.794   8.746   1.221 -0.2208  0.4186  0.1701
  777MOL0     C 7141   2.333   8.384   0.384 -0.1585 -0.5198  0.3400
  777MOL0     C 7142   2.193   8.390   0.404  0.1264 -0.1930 -0.8356
  777MOL0     C 7143   1.790   8.377   0.584  0.0384  0.0234  0.1260
  777MOL0     C 7144   1.697   8.283   0.531 -1.6974  0.6734 -0.1562
  777MOL0     C 7145   1.562   8.314   0.528  0.1061 -0.0057  1.0956
  777MOL0     C 7146   1.515   8.427   0.599  1.9800  0.1190 -0.3867
  777MOL0     O 7147   1.381   8.449   0.615 -0.2743  0.1703 -0.3000
  777MOL0     C 7148   1.324   8.368   0.722  0.1252 -0.5790  0.4193
  777MOL0     C 7149   1.245   8.247   0.685 -1.1190  1.3430  0.2162
  777MOL0     C 7150   1.170   8.268   0.554  0.0601  0.5402 -0.7973
  777MOL0     C 7151   1.132   8.132   0.490 -0.7695  0.3285  1.1551
  777MOL0     C 7152   1.017   8.068   0.556 -0.8012  0.6700  0.1844
  777MOL0     C 7153   0.931   8.002   0.602  1.2535 -0.5051 -0.6374
  777MOL0     C 7154   1.603   8.516   0.658  0.4994 -0.2152  0.5553
  777MOL0     C 7155   1.740   8.494   0.657 -0.7149 -0.0719 -0.1705
  777MOL0     C 7156   1.813   8.595   0.738  0.0431  0.4365  0.0268
  777MOL0     H 7157   2.129   8.085   0.546  1.3367  1.1607  1.4232
  777MOL0     H 7158   2.355   8.063   0.520  1.8262  0.2183  1.3301
  777MOL0     H 7159   2.549   8.327   0.227  0.5342  0.2982  1.0038
  777MOL0     H 7160   2.681   8.223   0.266 -2.3918 -2.6300  0.5479
  777MOL0     H 7161   2.727   8.476   0.279 -2.5242 -1.9819 -3.7616
  777MOL0     H 7162   2.613   8.485   0.413  0.0859  1.6324 -1.3666
  777MOL0     H 7163   2.741   8.324   0.542 -2.2481  1.8379 -0.6341
  777MOL0     H 7164   2.878   8.350   0.438  1.1573  4.8125 -4.5812
  777MOL0     H 7165   2.896   8.583   0.492 -1.2128 -0.3259 -1.1117
  777MOL0     H 7166   2.747   8.587   0.572 -0.1262 -0.1727  4.7793
  777MOL0     H 7167   2.989   8.565   0.701  0.6322  0.1917 -2.4992
  777MOL0     H 7168   2.938   8.390   0.700  0.2644  0.7520  3.5401
  777MOL0     H 7169   2.764   8.605   0.791  2.0467  1.5358  0.7051
  777MOL0     H 7170   2.730   8.434   0.816 -1.5854  1.0446 -4.1124
  777MOL0     H 7171   2.964   8.588   0.954  1.4473 -1.2733 -1.7207
  777MOL0     H 7172   2.903   8.425   0.990 -1.8424 -2.1039 -3.0406
  777MOL0     H 7173   2.747   8.681   0.978  0.1431 -0.4276 -0.9449
  777MOL0     H 7174   2.668   8.536   1.025 -0.1609 -0.8159  0.4056
  777MOL0     H 7175   2.887   8.443   1.273 -1.3055  0.1543  0.0337
  777MOL0     H 7176   2.938   8.487   1.535  1.0572 -0.6819 -2.5835
  777MOL0     H 7177   2.880   8.645   1.582  0.7907  0.5756 -0.8058
  777MOL0     H 7178   3.143   8.559   1.464 -0.9718 -1.2995  0.8892
  777MOL0     H 7179   3.107   8.725   1.446  1.7934  0.3204  0.0474
  777MOL0     H 7180   3.116   8.733   1.706 -0.6217 -0.1590  0.2976
  777MOL0     H 7181   3.134   8.557   1.707  1.0154  0.0208  0.8150
  777MOL0     H 7182   3.345   8.671   1.742 -2.3573 -2.6580  1.7151
  777MOL0     H 7183   3.337   8.550   1.610 -0.9950  0.3602 -2.8431
  777MOL0     H 7184   3.495   8.958   1.434  1.1481  0.1197  0.3825
  777MOL0     H 7185   3.656   9.065   1.330  0.8292  0.3904 -2.5570
  777MOL0     H 7186   3.752   8.958   1.233 -2.4064  0.4385 -0.7007
  777MOL0     H 7187   3.829   9.033   1.374  0.9518  1.6489 -2.9115
  777MOL0     H 7188   4.171   8.541   1.603  1.4554  1.2910  0.2898
  777MOL0     H 7189   4.424   8.564   1.575  0.8936  1.4264 -0.0936
  777MOL0     H 7190   4.568   8.499   1.277  3.4596 -0.4403  2.0915
  777MOL0     H 7191   4.552   8.634   1.154  0.5339  0.4358  0.3231
  777MOL0     H 7192   4.785   8.589   1.340 -2.0766 -2.3677  1.2490
  777MOL0     H 7193   4.772   8.514   1.179  1.1141  0.4191 -0.3575
  777MOL0     H 7194   4.731   8.817   1.196  1.2409  1.9071 -1.8192
  777MOL0     H 7195   4.765   8.717   1.060 -4.4743  1.9454  0.7350
  777MOL0     H 7196   4.995   8.656   1.169  1.6437  1.4241 -0.0187
  777MOL0     H 7197   4.959   8.763   1.300  1.9719 -3.1348  0.8869
  777MOL0     H 7198   4.999   8.849   1.014 -3.0174 -1.5417 -0.8821
  777MOL0     H 7199   4.953   8.959   1.154  1.9925  2.6624 -0.1159
  777MOL0     H 7200   5.182   8.850   1.268  0.9159 -1.3883 -0.8396
  777MOL0     H 7201   5.174   9.001   1.170 -3.5350  0.0004 -1.2147
  777MOL0     H 7202   5.258   8.888   0.970 -0.4358 -2.4301 -0.3944
  777MOL0     H 7203   5.224   8.734   1.039 -0.4828  0.6783  0.4219
  777MOL0     H 7204   5.446   8.910   1.135  0.5588  0.5810 -1.3723
  777MOL0     H 7205   5.459   8.767   1.042  1.0969  0.4087  1.0241
  777MOL0     H 7206   4.365   8.748   1.198  2.2068  0.0716  0.9484
  777MOL0     H 7207   4.108   8.728   1.230 -0.4242 -0.5175 -0.6021
  777MOL0     H 7208   3.779   8.561   1.543 -1.2932 -1.0758  0.6531
  777MOL0     H 7209   3.550   8.556   1.600 -1.2005  0.9298  0.5434
  777MOL0     H 7210   2.384   8.472   0.345 -1.0730  0.1398  0.5849
  777MOL0     H 7211   2.133   8.472   0.367 -2.7184 -1.9428 -0.4660
  777MOL0     H 7212   1.737   8.192   0.488 -0.5823  0.8730  0.4385
  777MOL0     H 7213   1.497   8.245   0.474  0.2698  0.1501  0.6930
  777MOL0     H 7214   1.396   8.351   0.802 -1.0917  1.7211  2.1070
  777MOL0     H 7215   1.259   8.436   0.778 -1.0233  0.8109 -2.3434
  777MOL0     H 7216   1.181   8.215   0.768  0.0643 -1.0652  0.3151
  777MOL0     H 7217   1.314   8.163   0.667 -3.2300 -0.2836 -0.7389
  777MOL0     H 7218   1.079   8.316   0.591 -0.7414 -1.0634 -0.6032
  777MOL0     H 7219   1.226   8.333   0.485 -0.6146 -0.1889 -2.0777
  777MOL0     H 7220   1.217   8.062   0.487 -1.2401 -0.2053 -0.5687
  777MOL0     H 7221   1.093   8.150   0.390  0.2702 -1.1702  0.4521
  777MOL0     H 7222   0.854   7.952   0.658  1.5751 -0.2905  0.0086
  777MOL0     H 7223   1.556   8.598   0.712 -1.0412 -1.1372  0.6532
  777MOL0     H 7224   1.878   8.547   0.813  1.3664 -1.8351 -2.4149
  777MOL0     H 7225   1.873   8.653   0.668  1.6297  0.3588  1.2594
  777MOL0     H 7226   1.747   8.655   0.802 -2.4255 -1.0512 -0.9638
  778MOL0     O 7227   2.024   5.379   5.021  0.4088  0.1957  0.0488
  778MOL0     C 7228   2.020   5.437   5.131 -0.8126  0.0595 -0.1406
  778MOL0     O 7229   1.984   5.383   5.249 -0.1487  0.5468  0.4196
  778MOL0     C 7230   1.885   5.288   5.252  1.0191  1.1290 -0.2855
  778MOL0     C 7231   1.788   5.263   5.157  0.4124  0.1961 -1.1398
  778MOL0     C 7232   1.695   5.163   5.175  0.5395  0.6838  0.0182
  778MOL0     C 7233   1.690   5.075   5.284  0.4275 -0.2249 -0.3292
  778MOL0     O 7234   1.582   4.989   5.315  0.4334  0.1604  0.1350
  778MOL0     C 7235   1.499   4.952   5.205 -0.2339  0.0186 -0.4866
  778MOL0     C 7236   1.404   4.849   5.264 -0.1979  0.3222  0.3377
  778MOL0     C 7237   1.480   4.731   5.335  0.2595  0.1235  0.7531
  778MOL0     C 7238   1.384   4.645   5.424  0.8584 -0.4210 -0.2932
  778MOL0     C 7239   1.445   4.506   5.468  0.8776  0.1702  0.0295
  778MOL0     C 7240   1.582   4.522   5.537  0.2580  0.1924  0.1983
  778MOL0     C 7241   1.631   4.384   5.588  0.6453 -0.3299 -0.4639
  778MOL0     C 7242   1.707   4.403   5.720  0.3827  0.3126 -0.7518
  778MOL0     N 7243   1.838   4.469   5.705  0.4577 -0.1271  0.6726
  778MOL0     C 7244   1.945   4.416   5.636 -0.4813  0.3176 -0.3398
  778MOL0     C 7245   2.058   4.488   5.673  0.7128  0.2039  0.4511
  778MOL0     C 7246   2.193   4.477   5.612 -1.2470  0.9546  0.3844
  778MOL0     C 7247   2.310   4.504   5.703  0.3453 -0.3794 -0.5361
  778MOL0     C 7248   2.326   4.656   5.711 -0.4251 -0.0221 -0.3294
  778MOL0     C 7249   2.437   4.683   5.794  0.0481 -0.1746  0.4326
  778MOL0     O 7250   2.570   4.657   5.738  1.1013 -0.2935 -0.0389
  778MOL0     C 7251   2.668   4.680   5.826  0.2161  0.7279  0.0718
  778MOL0     C 7252   2.678   4.788   5.916  0.1004 -0.3842  0.2717
  778MOL0     C 7253   2.764   4.795   6.031 -0.6361  0.1388 -0.0774
  778MOL0     C 7254   2.745   4.904   6.131  0.2953  0.4389  0.2817
  778MOL0     C 7255   2.857   4.680   6.046 -0.0052 -0.4572 -0.2077
  778MOL0     C 7256   2.942   4.673   6.157 -0.6799 -0.5897 -0.5865
  778MOL0     O 7257   2.973   4.792   6.223 -0.1152  0.1755 -0.2079
  778MOL0     C 7258   3.021   4.777   6.352  0.0808  0.0032  0.8001
  778MOL0     C 7259   2.945   4.749   6.462 -0.2142 -0.3897 -0.0987
  778MOL0     C 7260   2.995   4.754   6.596  0.8063 -1.2617  0.5048
  778MOL0     C 7261   3.128   4.793   6.615  0.0761  0.6940 -0.0718
  778MOL0     O 7262   3.183   4.778   6.738  0.2971 -0.7307  0.7446
  778MOL0     C 7263   3.162   4.885   6.832  0.3936 -0.6194  0.5715
  778MOL0     C 7264   3.264   4.883   6.937 -0.0416  0.3375 -0.3219
  778MOL0     C 7265   3.301   4.741   6.997  0.4066  0.2682  0.5379
  778MOL0     C 7266   3.402   4.771   7.118  0.2441  0.0749  0.0897
  778MOL0     C 7267   3.443   4.642   7.185  0.4806  0.1234 -0.3315
  778MOL0     C 7268   3.584   4.661   7.245  0.7593 -0.2311 -0.1242
  778MOL0     C 7269   3.703   4.633   7.156 -0.2685 -0.9964 -0.0770
  778MOL0     C 7270   3.815   4.566   7.233 -0.4534 -1.1079 -0.8588
  778MOL0    Cl 7271   3.871   4.684   7.357  0.0346  0.1919 -0.0101
  778MOL0     C 7272   3.208   4.824   6.506 -0.2649  0.0617 -0.2071
  778MOL0     C 7273   3.158   4.821   6.372  0.5154 -0.6756 -0.8561
  778MOL0     O 7274   2.982   4.563   6.194 -0.2243  0.6027  0.4199
  778MOL0     C 7275   2.848   4.578   5.944  0.2640 -0.4192 -0.4279
  778MOL0     C 7276   2.753   4.578   5.843 -0.1816 -0.2911 -0.0056
  778MOL0     N 7277   2.021   4.569   5.778  0.9856 -0.1686 -0.9851
  778MOL0     N 7278   1.891   4.556   5.801  0.3413 -0.6822 -0.4997
  778MOL0     C 7279   1.780   5.101   5.388  0.5491 -0.2544  0.4718
  778MOL0     C 7280   1.877   5.212   5.368  0.3661  0.2104  0.7591
  778MOL0     C 7281   2.085   5.566   5.143  0.8440 -0.4520 -0.4707
  778MOL0     C 7282   2.115   5.615   5.278 -0.5906  0.6969  0.1559
  778MOL0     C 7283   2.148   5.757   5.296  0.2749  0.9758  0.3391
  778MOL0     C 7284   2.164   5.847   5.187 -0.5259 -0.9453 -0.5045
  778MOL0     O 7285   2.196   5.980   5.226 -0.0527 -0.1824 -0.1666
  778MOL0     C 7286   2.307   6.050   5.174 -0.3222 -0.2915 -0.1076
  778MOL0     C 7287   2.443   5.978   5.190 -0.2722  0.1611 -0.0332
  778MOL0     C 7288   2.555   6.057   5.123  0.5933  0.4811 -0.3665
  778MOL0     C 7289   2.678   5.977   5.094  0.7122  0.0965  1.0060
  778MOL0     C 7290   2.731   5.906   5.211 -0.1819  0.1353  0.2928
  778MOL0     C 7291   2.788   5.827   5.292 -0.2286  0.6279  0.1524
  778MOL0     C 7292   2.154   5.793   5.063  0.2551 -0.1893  0.0156
  778MOL0     C 7293   2.110   5.660   5.038  0.2729 -0.0950  0.3755
  778MOL0     C 7294   2.086   5.626   4.891 -0.4379  0.4444  0.9545
  778MOL0     H 7295   1.803   5.325   5.069  1.3645  0.8379 -0.5451
  778MOL0     H 7296   1.637   5.123   5.093 -2.9167 -2.3653  3.5011
  778MOL0     H 7297   1.559   4.910   5.124 -0.4521 -1.3890  0.0452
  778MOL0     H 7298   1.445   5.038   5.164  0.7879  0.0699 -1.7730
  778MOL0     H 7299   1.354   4.899   5.348  4.0163  1.6946  2.3155
  778MOL0     H 7300   1.330   4.813   5.192 -0.3830 -1.0449  1.1653
  778MOL0     H 7301   1.519   4.668   5.254 -1.7033 -1.7290  1.1488
  778MOL0     H 7302   1.567   4.771   5.387  1.6617  0.0320 -1.3636
  778MOL0     H 7303   1.357   4.703   5.513 -0.1410  0.7704 -1.3154
  778MOL0     H 7304   1.291   4.624   5.370  0.8458 -0.2045 -0.3603
  778MOL0     H 7305   1.462   4.448   5.377 -0.2610 -2.4453  1.3952
  778MOL0     H 7306   1.372   4.455   5.531 -1.2652 -0.5519 -2.7987
  778MOL0     H 7307   1.656   4.580   5.481 -1.0608  1.0042 -0.7398
  778MOL0     H 7308   1.556   4.589   5.620 -0.4830 -1.1533  1.0916
  778MOL0     H 7309   1.707   4.356   5.515  0.5421 -0.1425 -0.6436
  778MOL0     H 7310   1.552   4.310   5.594  0.5278 -0.1179  0.8856
  778MOL0     H 7311   1.652   4.468   5.789 -0.8317 -0.6629 -0.7716
  778MOL0     H 7312   1.719   4.307   5.771 -0.8088  0.8151  0.5266
  778MOL0     H 7313   1.951   4.335   5.564 -1.1707 -2.2419  2.3258
  778MOL0     H 7314   2.193   4.542   5.524  0.8364 -0.9095 -1.0970
  778MOL0     H 7315   2.190   4.375   5.574 -1.3407  0.9764  0.3335
  778MOL0     H 7316   2.289   4.460   5.801 -2.1300 -1.6747 -1.5665
  778MOL0     H 7317   2.401   4.449   5.681 -0.5410 -1.6127 -1.1968
  778MOL0     H 7318   2.341   4.704   5.614 -0.8833  0.4401 -0.1824
  778MOL0     H 7319   2.233   4.699   5.749 -0.8145 -0.4427 -0.8004
  778MOL0     H 7320   2.428   4.792   5.805 -1.0277 -0.2788  0.6860
  778MOL0     H 7321   2.422   4.632   5.890 -0.7113 -1.8987 -0.5539
  778MOL0     H 7322   2.611   4.870   5.896 -1.1766 -0.3649  3.8682
  778MOL0     H 7323   2.836   4.964   6.128  0.3896  0.3272  0.8295
  778MOL0     H 7324   2.731   4.856   6.229 -1.5609 -0.7257 -0.5030
  778MOL0     H 7325   2.656   4.964   6.109 -0.4928 -0.3152  1.3033
  778MOL0     H 7326   2.844   4.712   6.444  1.1803 -3.4320 -2.6474
  778MOL0     H 7327   2.929   4.729   6.678  2.1850  0.5271  2.2561
  778MOL0     H 7328   3.173   4.980   6.780 -1.6074 -0.7149 -0.1133
  778MOL0     H 7329   3.061   4.872   6.874  0.5223  0.9231  1.4096
  778MOL0     H 7330   3.353   4.928   6.892 -0.3826  3.9500  2.1988
  778MOL0     H 7331   3.225   4.946   7.017 -1.9397 -0.8763 -0.2270
  778MOL0     H 7332   3.345   4.685   6.915 -0.0875 -0.1882  0.5770
  778MOL0     H 7333   3.214   4.685   7.031  1.1150 -0.2709  1.5003
  778MOL0     H 7334   3.369   4.840   7.196 -0.1448 -0.5241  0.4683
  778MOL0     H 7335   3.490   4.813   7.068  0.9499  1.5285  2.3821
  778MOL0     H 7336   3.360   4.625   7.254 -0.4417  0.5558 -1.3085
  778MOL0     H 7337   3.451   4.551   7.125 -0.1295  0.3925 -0.8324
  778MOL0     H 7338   3.584   4.590   7.329 -3.4106 -2.0516 -1.3988
  778MOL0     H 7339   3.601   4.756   7.296 -0.6516 -1.2419  2.4214
  778MOL0     H 7340   3.730   4.721   7.096 -0.1382  0.2744  1.7589
  778MOL0     H 7341   3.674   4.555   7.085 -0.8205 -2.3586  1.6028
  778MOL0     H 7342   3.901   4.553   7.166  0.4314  0.0775 -0.0013
  778MOL0     H 7343   3.794   4.467   7.275 -1.0825  0.1399  2.0539
  778MOL0     H 7344   3.311   4.844   6.536 -0.6680 -1.6028  2.6568
  778MOL0     H 7345   3.222   4.834   6.286  1.4637 -0.9101 -0.2029
  778MOL0     H 7346   2.924   4.501   5.954 -0.8324 -1.2386  2.7008
  778MOL0     H 7347   2.759   4.495   5.775 -2.5287 -0.9965  0.5470
  778MOL0     H 7348   1.772   5.046   5.481  0.3250 -1.9130 -0.4872
  778MOL0     H 7349   1.938   5.227   5.457 -0.3779 -0.7393  1.4561
  778MOL0     H 7350   2.110   5.552   5.366  3.2455  2.1192  1.6003
  778MOL0     H 7351   2.164   5.788   5.398  1.4280 -2.3404  1.3113
  778MOL0     H 7352   2.280   6.084   5.074  1.5200 -3.1919 -1.7442
  778MOL0     H 7353   2.320   6.135   5.241 -1.3543 -0.1589 -0.0653
  778MOL0     H 7354   2.436   5.875   5.153 -3.2228  0.2881 -0.0389
  778MOL0     H 7355   2.468   5.978   5.297  1.5761  0.0562 -0.4274
  778MOL0     H 7356   2.522   6.101   5.028  0.9073  0.4309 -0.5033
  778MOL0     H 7357   2.563   6.137   5.197 -2.6250  1.5978 -1.0670
  778MOL0     H 7358   2.747   6.048   5.048  2.6149  0.2915  3.9196
  778MOL0     H 7359   2.647   5.908   5.015 -0.8411  2.8985 -1.0310
  778MOL0     H 7360   2.850   5.767   5.355 -0.7899  2.1902  2.2962
  778MOL0     H 7361   2.170   5.857   4.977  1.6273  1.4372  1.4038
  778MOL0     H 7362   1.985   5.600   4.858 -0.5647 -0.4512  1.9718
  778MOL0     H 7363   2.122   5.705   4.825 -1.0364  2.2078  2.6734
  778MOL0     H 7364   2.142   5.533   4.874  0.7049  1.3204 -0.3138
  779MOL0     O 7365   3.306  11.018   6.220 -0.3050 -0.3575 -0.1877
  779MOL0     C 7366   3.266  10.942   6.312 -1.0812 -0.3727  0.3131
  779MOL0     O 7367   3.147  10.871   6.294 -0.9956  0.0800 -0.8065
  779MOL0     C 7368   3.097  10.861   6.166  0.2616 -0.4628  0.5056
  779MOL0     C 7369   2.995  10.938   6.114  0.4126 -0.3621  0.8229
  779MOL0     C 7370   2.957  10.916   5.982 -0.1821  0.0596  0.8459
  779MOL0     C 7371   3.011  10.816   5.903 -0.5446  0.5130 -2.1563
  779MOL0     O 7372   2.985  10.780   5.775  0.2517  0.8695 -0.0968
  779MOL0     C 7373   2.937  10.876   5.681 -0.1294 -0.5113 -0.1988
  779MOL0     C 7374   2.881  10.820   5.553 -0.2999 -0.0152 -0.4108
  779MOL0     C 7375   2.960  10.710   5.479 -0.2392 -1.0447 -0.6355
  779MOL0     C 7376   2.894  10.672   5.343  0.0377  0.0632 -0.3427
  779MOL0     C 7377   2.981  10.592   5.247 -0.1482 -0.2449  0.2822
  779MOL0     C 7378   2.913  10.607   5.110 -0.2738  0.5585  1.0234
  779MOL0     C 7379   2.957  10.501   5.015 -0.3174 -0.6443  0.1081
  779MOL0     C 7380   2.918  10.530   4.868 -0.3262  0.0956  0.1259
  779MOL0     N 7381   2.991  10.434   4.782  0.7195  0.2068 -0.5888
  779MOL0     C 7382   2.952  10.312   4.740 -0.7992 -0.6766 -0.0298
  779MOL0     C 7383   3.058  10.261   4.686  0.2227 -0.1517 -0.4912
  779MOL0     C 7384   3.068  10.116   4.635 -0.1557 -0.4643 -0.3445
  779MOL0     C 7385   3.132  10.024   4.739 -0.9168 -0.4669  0.2130
  779MOL0     C 7386   3.059  10.004   4.879  0.1202  0.0441  0.2910
  779MOL0     C 7387   3.119   9.885   4.962  0.4133  0.0699  0.6665
  779MOL0     O 7388   3.122   9.770   4.870 -0.3582  0.6470 -1.2852
  779MOL0     C 7389   3.037   9.656   4.877 -0.5632 -0.2255  0.0777
  779MOL0     C 7390   2.917   9.648   4.939  0.8848 -0.1599 -0.9871
  779MOL0     C 7391   2.845   9.524   4.955  0.0411 -0.5827  0.3889
  779MOL0     C 7392   2.718   9.524   5.029  0.4324 -0.2387  0.5191
  779MOL0     C 7393   2.887   9.418   4.872  0.3538 -0.4456 -0.6404
  779MOL0     C 7394   2.808   9.293   4.860  0.4183  0.9091 -0.1974
  779MOL0     O 7395   2.892   9.199   4.803  0.8531  0.8138  0.1341
  779MOL0     C 7396   2.854   9.076   4.750  1.2306 -0.1749 -0.5214
  779MOL0     C 7397   2.960   8.987   4.705 -0.3456 -0.8896 -0.7951
  779MOL0     C 7398   2.932   8.871   4.649  0.5071 -0.0468 -0.0846
  779MOL0     C 7399   2.800   8.821   4.623 -0.4970 -0.1463  0.6786
  779MOL0     O 7400   2.771   8.701   4.562  0.5976  0.5417 -0.6230
  779MOL0     C 7401   2.864   8.630   4.478  0.2216 -0.2328 -0.0925
  779MOL0     C 7402   2.951   8.534   4.549  0.6177  0.3434 -0.1934
  779MOL0     C 7403   2.871   8.416   4.597 -0.1020 -0.3240  0.8961
  779MOL0     C 7404   2.791   8.345   4.485 -0.4942  0.4457 -0.0698
  779MOL0     C 7405   2.755   8.204   4.533 -0.4726 -0.2799 -0.2787
  779MOL0     C 7406   2.696   8.120   4.424  0.7533  0.2253 -0.7147
  779MOL0     C 7407   2.560   8.194   4.372 -0.9329  0.5673  0.0086
  779MOL0     C 7408   2.496   8.105   4.268 -0.1258  1.4714  0.2163
  779MOL0    Cl 7409   2.499   7.930   4.306  0.0147 -0.1282  0.2540
  779MOL0     C 7410   2.698   8.900   4.666  0.6716  0.1923 -0.5203
  779MOL0     C 7411   2.727   9.032   4.718  1.1513  1.0016 -0.2336
  779MOL0     O 7412   2.684   9.284   4.874 -0.5000 -0.1169  0.2158
  779MOL0     C 7413   3.010   9.429   4.806  0.7942  0.1768 -0.0144
  779MOL0     C 7414   3.079   9.545   4.809 -0.4003  0.2699 -0.1268
  779MOL0     N 7415   3.164  10.353   4.690  0.0277 -1.7684 -0.6396
  779MOL0     N 7416   3.115  10.459   4.740  0.6373 -1.1781  0.2861
  779MOL0     C 7417   3.109  10.736   5.966  0.9389 -0.2570 -1.2611
  779MOL0     C 7418   3.151  10.768   6.090 -0.0968  0.0975 -0.2443
  779MOL0     C 7419   3.326  10.937   6.446 -0.5506  0.0465 -0.3859
  779MOL0     C 7420   3.237  10.924   6.550  0.5334 -0.4450  0.2837
  779MOL0     C 7421   3.275  10.926   6.681  0.1291  0.4396 -0.1098
  779MOL0     C 7422   3.413  10.926   6.717 -0.7815 -1.2854  0.2906
  779MOL0     O 7423   3.457  10.932   6.843 -0.1685  0.0994 -0.1792
  779MOL0     C 7424   3.577  11.009   6.863 -0.4677  0.7298 -0.4542
  779MOL0     C 7425   3.565  11.095   6.990  0.5627 -0.2175 -0.8910
  779MOL0     C 7426   3.428  11.164   7.006  0.0132 -0.1692 -0.1505
  779MOL0     C 7427   3.440  11.303   7.075 -0.8188  0.6693 -0.4952
  779MOL0     C 7428   3.309  11.371   7.080  0.0920  0.1572  0.6499
  779MOL0     C 7429   3.197  11.416   7.076 -0.4135 -0.2954  0.2970
  779MOL0     C 7430   3.507  10.927   6.607  0.0703 -0.1425  0.2680
  779MOL0     C 7431   3.466  10.937   6.473  0.4263  0.5198  0.2032
  779MOL0     C 7432   3.565  10.956   6.367  0.0277 -0.3064  0.7035
  779MOL0     H 7433   2.949  11.024   6.162  0.9015 -0.9230  2.3310
  779MOL0     H 7434   2.880  10.980   5.942 -0.4026 -0.5851  0.2213
  779MOL0     H 7435   3.006  10.954   5.648 -1.3146  0.9513  0.6470
  779MOL0     H 7436   2.846  10.923   5.720  0.4142  0.0491  0.4175
  779MOL0     H 7437   2.784  10.779   5.580 -0.6099  1.6680  1.2778
  779MOL0     H 7438   2.866  10.904   5.484 -0.3959  1.3761  1.2376
  779MOL0     H 7439   3.053  10.764   5.457  0.1904 -1.1698  0.7558
  779MOL0     H 7440   2.980  10.621   5.541  1.0147 -0.2054  0.2129
  779MOL0     H 7441   2.799  10.621   5.361 -0.1493 -0.2435 -2.0565
  779MOL0     H 7442   2.870  10.769   5.299 -1.5490 -0.7624 -1.3727
  779MOL0     H 7443   2.996  10.488   5.277  0.8154 -0.7429 -1.7840
  779MOL0     H 7444   3.084  10.628   5.249 -0.7608  1.6215  0.3034
  779MOL0     H 7445   2.806  10.587   5.123 -0.2976  0.0806  0.1321
  779MOL0     H 7446   2.940  10.708   5.077  1.3129  0.3996  1.7289
  779MOL0     H 7447   2.917  10.401   5.036 -0.4636 -0.5232  0.4092
  779MOL0     H 7448   3.067  10.504   5.017 -0.2286  3.9267 -0.5774
  779MOL0     H 7449   2.814  10.505   4.844 -0.3641 -1.3357  1.6244
  779MOL0     H 7450   2.923  10.636   4.844 -1.9737  0.5949  1.7300
  779MOL0     H 7451   2.866  10.248   4.757 -0.5342 -0.6917  1.3940
  779MOL0     H 7452   3.105  10.110   4.532 -1.3503 -1.7947 -0.7311
  779MOL0     H 7453   2.964  10.087   4.614 -0.6106 -0.2316  1.4740
  779MOL0     H 7454   3.138   9.925   4.694 -0.7533 -1.9995  3.3197
  779MOL0     H 7455   3.232  10.065   4.757 -0.3547 -1.4320 -0.6431
  779MOL0     H 7456   3.055  10.101   4.930 -2.3491  1.2578 -2.0082
  779MOL0     H 7457   2.955   9.979   4.856  0.8802 -3.7358  0.3406
  779MOL0     H 7458   3.224   9.909   4.978  1.5107  2.0408 -6.3254
  779MOL0     H 7459   3.063   9.856   5.052 -0.6877 -0.2208 -0.0869
  779MOL0     H 7460   2.882   9.745   4.972  1.1423 -0.8958  1.6512
  779MOL0     H 7461   2.693   9.425   5.069  0.7589 -0.2399  0.7202
  779MOL0     H 7462   2.638   9.560   4.964 -0.0130  2.6147  2.4481
  779MOL0     H 7463   2.715   9.588   5.117 -0.0159  0.6270 -0.1145
  779MOL0     H 7464   3.065   9.011   4.720  0.1203 -3.5017  0.7767
  779MOL0     H 7465   3.008   8.798   4.625  0.4946  0.6486 -2.5194
  779MOL0     H 7466   2.804   8.573   4.406 -1.6380 -0.0996  1.2628
  779MOL0     H 7467   2.931   8.699   4.427  2.2001 -1.3406  0.9212
  779MOL0     H 7468   3.020   8.483   4.481 -1.2594 -0.1212 -1.8714
  779MOL0     H 7469   3.003   8.584   4.631 -0.6662  0.6422  0.4648
  779MOL0     H 7470   2.793   8.448   4.667 -0.6540  0.8207 -0.2030
  779MOL0     H 7471   2.936   8.340   4.641 -2.8643 -2.0141  2.3083
  779MOL0     H 7472   2.849   8.347   4.393  0.9607 -3.4699  0.5643
  779MOL0     H 7473   2.696   8.397   4.469 -0.5182  1.0621  1.7571
  779MOL0     H 7474   2.836   8.151   4.583 -1.7647 -0.1698  2.0696
  779MOL0     H 7475   2.676   8.213   4.608 -2.8716 -1.6085 -2.4243
  779MOL0     H 7476   2.665   8.027   4.472 -2.9070  0.5163 -2.1765
  779MOL0     H 7477   2.762   8.099   4.339  1.1457  1.8098 -0.8383
  779MOL0     H 7478   2.579   8.289   4.322 -1.6441  0.5104 -0.3767
  779MOL0     H 7479   2.493   8.213   4.456 -1.1351  1.4174 -0.3352
  779MOL0     H 7480   2.551   8.119   4.175  0.1549  0.3053  0.1902
  779MOL0     H 7481   2.395   8.147   4.254 -0.1954  1.2687  0.1073
  779MOL0     H 7482   2.594   8.869   4.661  0.2119  1.7253 -1.3921
  779MOL0     H 7483   2.646   9.103   4.733  0.9865  0.4629  1.7513
  779MOL0     H 7484   3.045   9.349   4.741 -0.3407 -1.5376  1.4017
  779MOL0     H 7485   3.164   9.550   4.743  2.2445 -5.4135  2.2012
  779MOL0     H 7486   3.160  10.658   5.911  1.1027 -0.0068 -1.4676
  779MOL0     H 7487   3.238  10.716   6.130 -0.4142  0.9466  1.6785
  779MOL0     H 7488   3.131  10.930   6.530  0.7358  1.5747 -0.3827
  779MOL0     H 7489   3.202  10.911   6.759 -0.4577 -0.8016 -0.8788
  779MOL0     H 7490   3.666  10.945   6.861 -0.0706  1.2230  0.7877
  779MOL0     H 7491   3.604  11.079   6.783  0.5699  0.8522 -0.0088
  779MOL0     H 7492   3.645  11.169   6.987  0.2510  0.2265  0.6941
  779MOL0     H 7493   3.588  11.027   7.073 -1.1888  1.6629  1.2926
  779MOL0     H 7494   3.396  11.177   6.902  1.0250 -1.6349 -0.6935
  779MOL0     H 7495   3.360  11.095   7.058  0.1919 -1.8741 -2.0371
  779MOL0     H 7496   3.521  11.365   7.037  0.6830  0.0589  1.5304
  779MOL0     H 7497   3.468  11.276   7.178 -1.0131 -2.1895 -1.0892
  779MOL0     H 7498   3.096  11.453   7.082 -0.3321  0.1411 -0.7701
  779MOL0     H 7499   3.612  10.920   6.635  0.8348  1.6050 -1.8743
  779MOL0     H 7500   3.667  10.949   6.407 -0.7001 -1.0579  2.5040
  779MOL0     H 7501   3.568  10.869   6.301  1.6627 -0.8298  1.4063
  779MOL0     H 7502   3.549  11.052   6.317 -4.5119 -0.6050  1.2165
  780MOL0     O 7503   1.567   3.946   8.027 -0.5182  0.1681 -0.6407
  780MOL0     C 7504   1.518   3.962   8.142  0.2267  0.0415  0.3932
  780MOL0     O 7505   1.588   3.932   8.257 -1.2632 -0.1016 -0.4778
  780MOL0     C 7506   1.728   3.907   8.253  0.8699  0.2926  0.2651
  780MOL0     C 7507   1.781   3.789   8.194  0.7904 -0.3883 -0.4844
  780MOL0     C 7508   1.920   3.758   8.197  0.7181  0.2730  1.0512
  780MOL0     C 7509   2.004   3.845   8.269  0.4119 -0.4611  0.9354
  780MOL0     O 7510   2.138   3.834   8.283 -0.3429 -0.1035  0.7620
  780MOL0     C 7511   2.210   3.718   8.233  0.1510  0.8401  0.7986
  780MOL0     C 7512   2.237   3.712   8.082  0.0436 -0.0984 -0.0832
  780MOL0     C 7513   2.359   3.627   8.048  0.4330 -0.6128  0.0636
  780MOL0     C 7514   2.399   3.648   7.902 -0.3855 -0.2081  0.3412
  780MOL0     C 7515   2.532   3.588   7.869 -0.2991 -0.0045  0.7409
  780MOL0     C 7516   2.650   3.669   7.932  0.4076 -0.3697 -0.2645
  780MOL0     C 7517   2.792   3.650   7.871 -0.0283 -1.4269  0.0286
  780MOL0     C 7518   2.840   3.503   7.877  0.8490 -0.7737 -0.4988
  780MOL0     N 7519   2.826   3.452   8.014  0.8114 -0.2459 -0.0596
  780MOL0     C 7520   2.922   3.473   8.117  0.3123  0.4855 -0.6101
  780MOL0     C 7521   2.889   3.372   8.210  0.0582 -0.5294 -1.1220
  780MOL0     C 7522   2.951   3.356   8.347  0.0326  0.4388 -0.6202
  780MOL0     C 7523   2.941   3.202   8.387 -0.0058 -0.5389  0.3674
  780MOL0     C 7524   2.967   3.169   8.533 -0.8463  0.5609 -1.0219
  780MOL0     C 7525   3.099   3.219   8.584 -0.5774 -0.5457 -0.8725
  780MOL0     O 7526   3.194   3.162   8.486  0.6604  0.8109 -0.9860
  780MOL0     C 7527   3.332   3.172   8.511 -0.2685 -0.5942 -0.4442
  780MOL0     C 7528   3.416   3.162   8.398  0.2134  0.6592 -0.3073
  780MOL0     C 7529   3.554   3.182   8.404  0.5595  0.3467  0.8223
  780MOL0     C 7530   3.639   3.157   8.278 -0.3268  0.0074 -0.1856
  780MOL0     C 7531   3.606   3.214   8.523 -0.7376  0.2550 -0.5242
  780MOL0     C 7532   3.752   3.237   8.544  0.2840  0.5283  0.4134
  780MOL0     O 7533   3.811   3.116   8.532 -0.2911 -0.4515  1.1649
  780MOL0     C 7534   3.943   3.104   8.564  0.5432 -0.4112 -0.2115
  780MOL0     C 7535   4.038   3.201   8.558 -1.2266 -0.8787  0.3258
  780MOL0     C 7536   4.166   3.169   8.605 -0.1611 -0.5570  0.9191
  780MOL0     C 7537   4.204   3.040   8.639 -0.6494 -0.4621 -0.6186
  780MOL0     O 7538   4.336   3.029   8.680  0.2839 -0.4429 -0.5134
  780MOL0     C 7539   4.371   2.928   8.773  0.3648  0.5451 -0.0338
  780MOL0     C 7540   4.525   2.924   8.794  0.5445  0.1182 -0.6884
  780MOL0     C 7541   4.596   2.842   8.684  0.3110  0.0635 -0.5743
  780MOL0     C 7542   4.592   2.910   8.548  0.9960 -0.1482  0.2779
  780MOL0     C 7543   4.653   2.827   8.435 -0.7609  0.2115 -0.7951
  780MOL0     C 7544   4.792   2.777   8.454 -0.1706 -1.0358  1.1567
  780MOL0     C 7545   4.817   2.653   8.347 -0.1656 -0.9681 -0.6337
  780MOL0     C 7546   4.749   2.523   8.390  0.1159 -0.2382  0.4174
  780MOL0    Cl 7547   4.785   2.392   8.281 -0.4261  0.1243  0.1835
  780MOL0     C 7548   4.110   2.943   8.628 -0.2563 -0.5541  0.9406
  780MOL0     C 7549   3.978   2.974   8.602 -0.1361 -0.0125 -0.6532
  780MOL0     O 7550   3.791   3.338   8.610 -0.4929 -0.1612  0.3041
  780MOL0     C 7551   3.525   3.236   8.643  0.1510 -0.5831 -0.7216
  780MOL0     C 7552   3.387   3.220   8.635 -0.4613  0.2748  0.2278
  780MOL0     N 7553   2.777   3.310   8.161  0.4364  0.1538  0.7748
  780MOL0     N 7554   2.741   3.358   8.053  0.0725 -0.5919  0.2446
  780MOL0     C 7555   1.949   3.962   8.331 -0.5403  0.4643  0.1209
  780MOL0     C 7556   1.815   3.990   8.320  0.9345 -0.4419  0.7812
  780MOL0     C 7557   1.379   4.016   8.154 -0.4450 -0.7483 -0.0268
  780MOL0     C 7558   1.295   3.969   8.264 -0.6534  0.0853 -0.4208
  780MOL0     C 7559   1.166   4.025   8.282  0.0839  0.3722  0.9133
  780MOL0     C 7560   1.123   4.134   8.201  0.0773 -0.4703 -0.4208
  780MOL0     O 7561   1.004   4.193   8.235  0.9862  0.8648 -0.0514
  780MOL0     C 7562   0.930   4.275   8.136  0.3284 -0.4039  1.0430
  780MOL0     C 7563   0.778   4.281   8.174  0.7454 -0.1759  0.7234
  780MOL0     C 7564   0.693   4.164   8.105 -0.5789  0.3666  0.1749
  780MOL0     C 7565   0.554   4.216   8.059  0.0909  0.2797  0.1270
  780MOL0     C 7566   0.471   4.100   8.030  0.6461  0.0913 -0.9397
  780MOL0     C 7567   0.410   4.000   7.980  0.1020 -0.0276  0.1424
  780MOL0     C 7568   1.208   4.179   8.102 -1.0055 -1.3575  0.4053
  780MOL0     C 7569   1.334   4.117   8.071 -0.1979 -0.7719 -0.3397
  780MOL0     C 7570   1.409   4.158   7.942  0.6831  0.0899  0.0442
  780MOL0     H 7571   1.709   3.732   8.136  3.2255 -0.0493 -4.1019
  780MOL0     H 7572   1.952   3.666   8.148 -0.3738  0.3171  0.1979
  780MOL0     H 7573   2.152   3.631   8.263  1.7984 -0.9165 -0.7954
  780MOL0     H 7574   2.308   3.715   8.281  0.5413 -3.2263  0.1278
  780MOL0     H 7575   2.151   3.670   8.029  0.4956 -1.4356  0.1877
  780MOL0     H 7576   2.255   3.813   8.044 -0.1092  0.0270  0.1736
  780MOL0     H 7577   2.444   3.666   8.106 -0.1253  0.3674  0.2434
  780MOL0     H 7578   2.340   3.521   8.069  2.7301 -1.1570 -0.2609
  780MOL0     H 7579   2.318   3.607   7.840 -1.4183  1.8804  0.2319
  780MOL0     H 7580   2.407   3.756   7.883  0.7868 -0.3428 -0.0481
  780MOL0     H 7581   2.549   3.589   7.761 -3.7980 -2.4393  0.0251
  780MOL0     H 7582   2.528   3.482   7.893 -0.5168 -0.0235  0.6232
  780MOL0     H 7583   2.615   3.773   7.931 -2.2523 -1.1748 -0.6394
  780MOL0     H 7584   2.658   3.642   8.037  4.0160  2.0765  0.2823
  780MOL0     H 7585   2.866   3.712   7.923 -1.7130  1.0964 -0.4151
  780MOL0     H 7586   2.792   3.684   7.767  1.7756  3.0304  1.2203
  780MOL0     H 7587   2.776   3.448   7.808 -1.1977  1.3145 -0.4058
  780MOL0     H 7588   2.945   3.488   7.850  1.4727 -1.6244  2.0480
  780MOL0     H 7589   2.997   3.551   8.128 -0.1541  0.6169  2.5049
  780MOL0     H 7590   2.894   3.424   8.411  0.5537  0.1377  0.1850
  780MOL0     H 7591   3.053   3.394   8.349  0.2302 -0.0950  0.3804
  780MOL0     H 7592   2.842   3.157   8.373 -1.0805  1.4303  1.2235
  780MOL0     H 7593   3.016   3.146   8.331  0.3715 -0.0827  0.4113
  780MOL0     H 7594   2.892   3.218   8.595 -2.0890 -2.1991 -0.1872
  780MOL0     H 7595   2.967   3.062   8.557 -0.6495  0.5071 -1.2634
  780MOL0     H 7596   3.096   3.328   8.581  1.2200 -0.3370  1.8439
  780MOL0     H 7597   3.114   3.189   8.688  1.7539 -0.5778 -1.1465
  780MOL0     H 7598   3.381   3.135   8.299  5.3547  0.9632 -2.5479
  780MOL0     H 7599   3.700   3.248   8.274 -0.9269  0.4707  0.7849
  780MOL0     H 7600   3.579   3.161   8.186  3.2325  1.9908 -2.6660
  780MOL0     H 7601   3.704   3.070   8.287 -3.0055 -2.0204  0.9836
  780MOL0     H 7602   4.016   3.300   8.519  1.1965 -1.5086 -3.0996
  780MOL0     H 7603   4.234   3.251   8.619  0.3112 -0.3318 -2.0464
  780MOL0     H 7604   4.324   2.956   8.868  2.2173 -1.6646  1.6501
  780MOL0     H 7605   4.330   2.834   8.734  1.0541  0.5839 -0.8568
  780MOL0     H 7606   4.566   3.025   8.789 -0.6072  0.6141 -0.3831
  780MOL0     H 7607   4.538   2.890   8.897  1.0189  1.0099 -0.4463
  780MOL0     H 7608   4.554   2.741   8.675 -0.1609  0.1561  0.4756
  780MOL0     H 7609   4.699   2.827   8.719  0.5738  0.8168 -0.9768
  780MOL0     H 7610   4.642   3.007   8.561  0.1273  0.1166  1.8263
  780MOL0     H 7611   4.492   2.936   8.511  2.1106  1.9151 -1.5221
  780MOL0     H 7612   4.590   2.739   8.424  0.9613 -1.1003 -0.5574
  780MOL0     H 7613   4.643   2.876   8.338  0.2983  3.4135  0.5616
  780MOL0     H 7614   4.807   2.750   8.559  0.4942  2.4985  2.1134
  780MOL0     H 7615   4.858   2.862   8.435 -0.3709 -0.5498  2.5033
  780MOL0     H 7616   4.922   2.634   8.323 -0.3546 -0.9810 -1.4775
  780MOL0     H 7617   4.774   2.685   8.252 -2.2198 -1.5603  0.0542
  780MOL0     H 7618   4.641   2.532   8.406  0.0297  1.2436 -0.7930
  780MOL0     H 7619   4.797   2.495   8.484  1.7432  1.8670  0.2868
  780MOL0     H 7620   4.125   2.837   8.643 -3.9554 -1.1184  1.6052
  780MOL0     H 7621   3.904   2.896   8.592  1.6156 -2.2314  2.2310
  780MOL0     H 7622   3.573   3.278   8.731  1.5788 -1.4123 -1.0682
  780MOL0     H 7623   3.318   3.255   8.710  1.8184  1.4358  1.8886
  780MOL0     H 7624   2.022   4.022   8.385  1.7855 -0.2840 -1.9899
  780MOL0     H 7625   1.772   4.074   8.374  2.0422  1.5152 -1.2236
  780MOL0     H 7626   1.336   3.893   8.330 -0.5185 -2.4786 -3.2197
  780MOL0     H 7627   1.104   3.991   8.365  2.4188 -0.5405  2.3833
  780MOL0     H 7628   0.970   4.376   8.134  1.5175 -0.8747  0.6473
  780MOL0     H 7629   0.935   4.227   8.038  2.4204 -0.5390  1.1739
  780MOL0     H 7630   0.742   4.371   8.123  2.9793 -0.2792 -1.1898
  780MOL0     H 7631   0.768   4.289   8.283  0.4762 -4.4086  1.1604
  780MOL0     H 7632   0.743   4.130   8.014  0.2282  0.6568  0.5026
  780MOL0     H 7633   0.682   4.083   8.179 -0.6890  0.0039 -0.2299
  780MOL0     H 7634   0.562   4.285   7.975 -4.0888  1.5930  0.6115
  780MOL0     H 7635   0.501   4.268   8.140 -0.1458  0.6200 -0.2446
  780MOL0     H 7636   0.363   3.917   7.931 -3.2780  0.8311  1.6273
  780MOL0     H 7637   1.173   4.255   8.033  3.9101  2.4178  1.4959
  780MOL0     H 7638   1.407   4.061   7.891 -0.2208  1.1892 -2.1536
  780MOL0     H 7639   1.349   4.224   7.879  1.4909  1.4176  0.6153
  780MOL0     H 7640   1.510   4.197   7.958  0.2269  0.9355  1.0095
  781MOL0     O 7641   5.406   0.671   1.360 -0.1696  0.2448  0.0183
  781MOL0     C 7642   5.338   0.740   1.438 -0.0497  0.1458  0.7245
  781MOL0     O 7643   5.317   0.877   1.425 -0.1891  0.3699 -0.3137
  781MOL0     C 7644   5.388   0.949   1.335 -0.4396 -1.4619 -0.2203
  781MOL0     C 7645   5.358   0.963   1.200 -0.0086 -0.5345  0.5029
  781MOL0     C 7646   5.443   1.049   1.125 -0.7511  0.7894  0.5138
  781MOL0     C 7647   5.561   1.124   1.174  0.1277 -1.0932  0.2506
  781MOL0     O 7648   5.626   1.210   1.087  0.0610  0.7655  0.2675
  781MOL0     C 7649   5.679   1.333   1.140  0.2433 -0.3206 -0.4393
  781MOL0     C 7650   5.726   1.421   1.027 -0.0571 -0.4647 -0.5285
  781MOL0     C 7651   5.855   1.380   0.972  0.3679 -0.2325  0.5377
  781MOL0     C 7652   5.883   1.429   0.829  0.4587 -0.9531 -0.4566
  781MOL0     C 7653   5.868   1.581   0.813 -0.3738  0.4137  0.3983
  781MOL0     C 7654   5.943   1.612   0.676  0.4137 -0.2986 -0.2544
  781MOL0     C 7655   5.916   1.747   0.620 -1.3222 -0.1600 -0.2711
  781MOL0     C 7656   5.775   1.776   0.570  0.3954 -0.0523  0.7041
  781MOL0     N 7657   5.739   1.716   0.441  0.1703  0.6038 -0.2997
  781MOL0     C 7658   5.810   1.654   0.343 -0.5709 -0.1011  0.1207
  781MOL0     C 7659   5.728   1.576   0.268  0.0176  0.5926  0.4439
  781MOL0     C 7660   5.755   1.496   0.138  0.2270 -0.4247 -0.1119
  781MOL0     C 7661   5.808   1.361   0.176 -0.3113 -0.0730 -0.0623
  781MOL0     C 7662   5.750   1.245   0.095  0.4110 -0.3308 -1.1161
  781MOL0     C 7663   5.826   1.108   0.110 -0.1145 -0.5998 -0.2455
  781MOL0     O 7664   5.862   1.073   0.251  0.3575 -1.1320  0.0755
  781MOL0     C 7665   5.989   1.094   0.288 -0.4567  0.0435 -0.8344
  781MOL0     C 7666   6.019   1.200   0.374  0.5709  0.2354  0.4070
  781MOL0     C 7667   6.151   1.240   0.393  0.1985  0.6663  0.0342
  781MOL0     C 7668   6.178   1.351   0.489  0.6398  0.1622  0.2160
  781MOL0     C 7669   6.262   1.172   0.329 -0.3061  0.1434  0.6001
  781MOL0     C 7670   6.400   1.210   0.340 -1.1210 -1.0013 -0.1815
  781MOL0     O 7671   6.481   1.106   0.331 -0.6946  0.2754  0.1372
  781MOL0     C 7672   6.617   1.115   0.340  0.0187  0.2575  0.6709
  781MOL0     C 7673   6.682   1.009   0.410  0.0681 -0.0240  0.2878
  781MOL0     C 7674   6.820   1.024   0.429  0.7716  1.0060 -0.1231
  781MOL0     C 7675   6.895   1.134   0.382  0.2534 -0.5165 -0.7504
  781MOL0     O 7676   7.027   1.133   0.400  0.4358  0.2064  0.1161
  781MOL0     C 7677   7.072   1.131   0.535  0.3328 -0.4127 -0.3728
  781MOL0     C 7678   7.171   1.244   0.567 -0.4493  0.6467 -0.2514
  781MOL0     C 7679   7.301   1.218   0.489 -0.3599 -0.5816  0.6895
  781MOL0     C 7680   7.407   1.320   0.528 -0.2693  0.0509  0.1338
  781MOL0     C 7681   7.541   1.286   0.463 -0.0899  0.6968  0.3150
  781MOL0     C 7682   7.647   1.383   0.519  0.2777  0.1681  0.3595
  781MOL0     C 7683   7.784   1.343   0.476 -0.0076  0.5275 -0.4400
  781MOL0     C 7684   7.894   1.435   0.544  0.3552  1.0116  0.4375
  781MOL0    Cl 7685   8.057   1.363   0.515  0.2265  0.9668  0.1377
  781MOL0     C 7686   6.834   1.235   0.298 -0.1061  0.1003  0.5540
  781MOL0     C 7687   6.696   1.220   0.277  0.8155 -0.3238 -0.4691
  781MOL0     O 7688   6.438   1.328   0.363  0.6172  0.3825 -0.2339
  781MOL0     C 7689   6.230   1.064   0.249  0.9102 -0.8274  0.5379
  781MOL0     C 7690   6.098   1.028   0.225 -0.1664 -0.7349 -0.1323
  781MOL0     N 7691   5.607   1.589   0.327 -0.4327 -0.0839  0.8296
  781MOL0     N 7692   5.608   1.672   0.424  0.0513  0.1913  0.2821
  781MOL0     C 7693   5.588   1.102   1.306  0.2753  0.6376 -0.0073
  781MOL0     C 7694   5.502   1.020   1.391  0.1011  0.4252  0.1549
  781MOL0     C 7695   5.246   0.688   1.547  0.0045  0.2316 -0.1230
  781MOL0     C 7696   5.114   0.720   1.533 -0.3387 -0.3589 -0.8269
  781MOL0     C 7697   5.015   0.686   1.624 -0.7723 -0.8243  0.6079
  781MOL0     C 7698   5.058   0.630   1.744 -0.0082  0.5428  0.5618
  781MOL0     O 7699   4.977   0.591   1.844 -0.2217 -0.0337 -0.5559
  781MOL0     C 7700   4.840   0.630   1.838 -0.4827  1.0925  0.3938
  781MOL0     C 7701   4.776   0.508   1.778  0.2838 -0.0944 -0.1648
  781MOL0     C 7702   4.778   0.389   1.857  0.3021 -0.0977 -0.4349
  781MOL0     C 7703   4.641   0.318   1.873  1.3624  0.0125 -0.2651
  781MOL0     C 7704   4.602   0.260   1.739 -0.2015 -0.9957  0.4576
  781MOL0     C 7705   4.584   0.228   1.619  0.3245  0.1718  0.1863
  781MOL0     C 7706   5.193   0.592   1.758 -0.0089 -0.3871 -0.7864
  781MOL0     C 7707   5.290   0.618   1.661 -0.0227 -0.4027 -0.5906
  781MOL0     C 7708   5.428   0.569   1.688  0.0564  0.4278  0.3569
  781MOL0     H 7709   5.275   0.903   1.164 -2.1660  3.0662 -1.1242
  781MOL0     H 7710   5.424   1.050   1.019 -3.4070  0.8150  0.9068
  781MOL0     H 7711   5.762   1.317   1.209 -0.9698 -0.3891  1.0690
  781MOL0     H 7712   5.596   1.378   1.195  1.4330  1.5066 -0.0628
  781MOL0     H 7713   5.655   1.411   0.945 -1.0109  0.0809  0.2100
  781MOL0     H 7714   5.726   1.527   1.056 -2.9088 -0.1425 -1.4218
  781MOL0     H 7715   5.933   1.415   1.040  0.9417 -1.5588  0.5872
  781MOL0     H 7716   5.862   1.271   0.964 -1.4416 -0.4615  1.5105
  781MOL0     H 7717   5.987   1.409   0.801  0.5029 -0.9470 -0.2946
  781MOL0     H 7718   5.821   1.376   0.755  0.7710 -0.2696 -1.2293
  781MOL0     H 7719   5.909   1.639   0.897  2.0599 -0.3893 -0.1564
  781MOL0     H 7720   5.761   1.599   0.803  0.0619  2.6355 -0.8843
  781MOL0     H 7721   6.050   1.611   0.697  0.2408  0.0691  0.7006
  781MOL0     H 7722   5.916   1.541   0.598 -0.2319  0.7858 -1.0402
  781MOL0     H 7723   5.986   1.771   0.540 -1.0551  0.5985  0.1884
  781MOL0     H 7724   5.943   1.820   0.696  4.7045 -0.3732 -1.7285
  781MOL0     H 7725   5.702   1.762   0.650  0.5479 -1.9315  0.5528
  781MOL0     H 7726   5.772   1.885   0.555  3.7573  0.0795  0.3285
  781MOL0     H 7727   5.915   1.666   0.320 -1.2338  0.5408 -3.1195
  781MOL0     H 7728   5.823   1.546   0.068 -0.8596  0.9172 -0.2422
  781MOL0     H 7729   5.657   1.477   0.094 -0.6290 -0.5162  1.7439
  781MOL0     H 7730   5.917   1.359   0.177 -0.3146 -0.3683  1.1008
  781MOL0     H 7731   5.777   1.339   0.279  0.4694  0.4153  0.2896
  781MOL0     H 7732   5.645   1.248   0.123  1.0292 -1.4120  1.6568
  781MOL0     H 7733   5.748   1.274  -0.011 -0.8588  1.4221 -0.6551
  781MOL0     H 7734   5.764   1.022   0.080 -1.3502 -1.5014  4.1919
  781MOL0     H 7735   5.917   1.106   0.049  0.3418 -0.4093  0.4260
  781MOL0     H 7736   5.937   1.227   0.439  1.1551 -0.2054  1.3480
  781MOL0     H 7737   6.183   1.438   0.422 -2.9688 -0.5537 -1.2542
  781MOL0     H 7738   6.258   1.336   0.561  1.0253 -4.8676 -0.8698
  781MOL0     H 7739   6.085   1.363   0.545  0.5242 -0.5419  0.1804
  781MOL0     H 7740   6.629   0.919   0.441  1.5762 -0.2085  2.5399
  781MOL0     H 7741   6.878   0.948   0.480 -0.4556  0.0389 -0.1101
  781MOL0     H 7742   6.990   1.138   0.607 -0.6780 -0.6784 -1.4739
  781MOL0     H 7743   7.110   1.030   0.556 -0.9469 -0.8929 -0.2592
  781MOL0     H 7744   7.129   1.343   0.546 -0.1655  0.9583  0.6019
  781MOL0     H 7745   7.216   1.238   0.667 -0.2175  2.1293 -0.2416
  781MOL0     H 7746   7.276   1.227   0.383 -1.4110  1.9967  1.0970
  781MOL0     H 7747   7.333   1.117   0.519 -3.7296 -1.6298  1.1958
  781MOL0     H 7748   7.422   1.323   0.636 -0.3202  2.8400  0.1179
  781MOL0     H 7749   7.368   1.420   0.509  1.3481  0.4201 -1.5918
  781MOL0     H 7750   7.577   1.184   0.478  2.9258  1.8458  1.9527
  781MOL0     H 7751   7.532   1.294   0.355 -1.3975 -3.3549 -0.0327
  781MOL0     H 7752   7.645   1.368   0.628  0.8713 -0.6376  0.2699
  781MOL0     H 7753   7.624   1.489   0.503  3.8256  1.0711  0.3130
  781MOL0     H 7754   7.791   1.355   0.368 -0.7365  0.9015 -0.4562
  781MOL0     H 7755   7.802   1.238   0.501  0.0637  0.5493 -0.3997
  781MOL0     H 7756   7.869   1.429   0.651 -1.1755 -1.0822  0.0388
  781MOL0     H 7757   7.880   1.538   0.512 -0.2861  0.6161 -0.6032
  781MOL0     H 7758   6.886   1.328   0.280  2.4116 -1.2483  0.3915
  781MOL0     H 7759   6.643   1.298   0.224  1.7372  0.3034 -0.5034
  781MOL0     H 7760   6.312   1.017   0.196  2.6702  3.7408 -1.2918
  781MOL0     H 7761   6.075   0.949   0.154 -4.4324  0.8517 -0.8383
  781MOL0     H 7762   5.668   1.149   1.362  0.6979 -3.2615  3.1443
  781MOL0     H 7763   5.536   1.012   1.493 -0.0749  0.1137  0.1917
  781MOL0     H 7764   5.087   0.775   1.443 -2.5014  2.4507  1.3511
  781MOL0     H 7765   4.916   0.724   1.603  0.4282  1.3541 -1.7679
  781MOL0     H 7766   4.802   0.666   1.933  1.0244  0.9072  1.0994
  781MOL0     H 7767   4.809   0.707   1.767 -1.1251 -0.5767 -1.2263
  781MOL0     H 7768   4.831   0.493   1.685 -0.6768  1.9116 -1.1219
  781MOL0     H 7769   4.671   0.529   1.753  0.5714  1.5985 -0.0814
  781MOL0     H 7770   4.843   0.316   1.807  0.0145 -0.8497  0.2489
  781MOL0     H 7771   4.818   0.408   1.958  3.1376  0.9169 -1.6470
  781MOL0     H 7772   4.567   0.393   1.903 -0.9294 -0.7171 -3.6170
  781MOL0     H 7773   4.633   0.231   1.939 -3.4910 -0.1423 -0.6818
  781MOL0     H 7774   4.572   0.192   1.519 -3.0040  2.5983 -0.4918
  781MOL0     H 7775   5.212   0.525   1.841  1.4744  1.4475  0.4188
  781MOL0     H 7776   5.442   0.526   1.788  1.9092  1.1659  0.4646
  781MOL0     H 7777   5.445   0.486   1.618  1.0235  2.6725 -2.2729
  781MOL0     H 7778   5.505   0.646   1.671  2.5867 -1.5808  1.9245
  782MOL0     O 7779   5.885  10.084   9.159  0.4201  0.0479 -0.3660
  782MOL0     C 7780   5.905   9.989   9.239  0.2454  0.1868 -0.5729
  782MOL0     O 7781   5.808   9.912   9.298 -0.7047  0.1129  0.3956
  782MOL0     C 7782   5.677   9.926   9.247  0.8471  0.1712 -0.4143
  782MOL0     C 7783   5.597   9.803   9.238 -0.1120 -0.3134  0.1739
  782MOL0     C 7784   5.472   9.799   9.180 -0.4167  0.1919  1.3116
  782MOL0     C 7785   5.410   9.925   9.152  0.1754  0.0835 -0.0862
  782MOL0     O 7786   5.286   9.930   9.101 -0.3244  0.0163  0.0489
  782MOL0     C 7787   5.277   9.879   8.964 -0.5375 -0.2424  0.1543
  782MOL0     C 7788   5.246   9.994   8.870 -0.1721 -0.7109  0.6821
  782MOL0     C 7789   5.108  10.062   8.869  0.5012  0.8351 -0.2040
  782MOL0     C 7790   5.125  10.194   8.791 -0.2601 -0.4034  0.4953
  782MOL0     C 7791   4.995  10.273   8.779  0.7727 -1.6471 -0.1198
  782MOL0     C 7792   5.025  10.416   8.710 -0.2278 -0.5992  0.1708
  782MOL0     C 7793   4.895  10.479   8.653  0.3633 -0.7589  0.8800
  782MOL0     C 7794   4.925  10.627   8.608 -0.8423  0.7632  0.1585
  782MOL0     N 7795   5.073  10.664   8.582 -0.7938  0.5246 -0.0158
  782MOL0     C 7796   5.154  10.622   8.476  0.5169 -0.3066  0.2997
  782MOL0     C 7797   5.271  10.677   8.498 -0.7383  0.2491 -0.3477
  782MOL0     C 7798   5.391  10.633   8.407  0.0306  0.2120 -0.3040
  782MOL0     C 7799   5.495  10.576   8.494 -0.0386  1.0889 -0.7399
  782MOL0     C 7800   5.502  10.421   8.487  0.4517 -0.4116 -0.5496
  782MOL0     C 7801   5.372  10.350   8.514  0.4300 -0.3375 -0.1118
  782MOL0     O 7802   5.376  10.216   8.485 -0.3367  0.0763 -0.0678
  782MOL0     C 7803   5.441  10.126   8.561  0.0348 -0.3929  0.6969
  782MOL0     C 7804   5.520  10.159   8.673 -0.4607  0.0575 -0.7622
  782MOL0     C 7805   5.600  10.064   8.739  0.8822 -0.0362  0.4335
  782MOL0     C 7806   5.686  10.112   8.848  0.0378 -0.2195  0.2630
  782MOL0     C 7807   5.592   9.934   8.701 -0.5784  0.3542  0.5627
  782MOL0     C 7808   5.687   9.827   8.741  0.8771 -0.1236  0.9157
  782MOL0     O 7809   5.670   9.786   8.866  0.2274 -0.4260 -1.0830
  782MOL0     C 7810   5.760   9.701   8.933 -0.2947  0.1046 -0.1101
  782MOL0     C 7811   5.882   9.755   8.973 -0.1622  0.5233 -0.7942
  782MOL0     C 7812   5.983   9.675   9.024  0.1922 -0.8273  0.0618
  782MOL0     C 7813   5.967   9.542   9.060 -0.3720  0.0523 -0.6301
  782MOL0     O 7814   6.054   9.475   9.144 -0.1598 -0.0210 -0.1603
  782MOL0     C 7815   6.194   9.498   9.150 -0.9739  0.3137  0.0483
  782MOL0     C 7816   6.253   9.351   9.148  0.7760  0.8369 -0.3017
  782MOL0     C 7817   6.247   9.294   9.297 -0.8813 -0.3218 -0.1096
  782MOL0     C 7818   6.360   9.353   9.385  0.4234 -0.1042  0.2895
  782MOL0     C 7819   6.358   9.281   9.523 -0.1593  0.0135 -0.6322
  782MOL0     C 7820   6.464   9.334   9.619 -0.1824 -0.5792 -0.1037
  782MOL0     C 7821   6.482   9.245   9.742  0.4612 -0.4829 -0.0955
  782MOL0     C 7822   6.589   9.308   9.837  0.2164  1.1116  0.3639
  782MOL0    Cl 7823   6.757   9.308   9.773 -0.3760  0.0097  0.3862
  782MOL0     C 7824   5.837   9.495   9.033  0.5954 -1.1805 -0.1699
  782MOL0     C 7825   5.736   9.570   8.971  0.0761  0.0253 -0.1069
  782MOL0     O 7826   5.767   9.786   8.664  0.0249  0.4796 -0.4936
  782MOL0     C 7827   5.518   9.901   8.590 -0.0508  0.2980 -0.0360
  782MOL0     C 7828   5.435   9.992   8.526  0.0246  0.4231  0.6655
  782MOL0     N 7829   5.267  10.757   8.612  0.3902 -0.7529 -0.2347
  782MOL0     N 7830   5.148  10.744   8.658  0.3429  0.3975  0.5057
  782MOL0     C 7831   5.473  10.051   9.176  0.8264  0.0253 -0.1451
  782MOL0     C 7832   5.605  10.042   9.204  0.0413 -0.3795 -0.7058
  782MOL0     C 7833   6.044   9.969   9.288 -0.3843  0.5875  0.4111
  782MOL0     C 7834   6.080   9.843   9.346  0.8349  0.4006  0.6783
  782MOL0     C 7835   6.208   9.804   9.377 -0.5019 -0.0489  0.7524
  782MOL0     C 7836   6.316   9.891   9.359  0.2745 -0.2960  0.5004
  782MOL0     O 7837   6.433   9.843   9.401 -0.4360 -0.3917 -0.1411
  782MOL0     C 7838   6.541   9.933   9.408 -1.1540  0.5316 -0.4254
  782MOL0     C 7839   6.644   9.884   9.510  0.4874  0.3534 -0.0102
  782MOL0     C 7840   6.593   9.881   9.648  0.9201  0.3808  1.2420
  782MOL0     C 7841   6.689   9.929   9.761 -0.0229 -0.2881 -0.3875
  782MOL0     C 7842   6.682  10.072   9.793  0.0766  0.3124  0.1090
  782MOL0     C 7843   6.667  10.190   9.832 -0.2924  0.0996 -0.8606
  782MOL0     C 7844   6.288  10.019   9.303 -0.4477  0.2949 -0.5116
  782MOL0     C 7845   6.157  10.056   9.269  0.2287 -0.3863 -0.2177
  782MOL0     C 7846   6.153  10.198   9.192  0.8657  0.3388 -0.0551
  782MOL0     H 7847   5.645   9.707   9.257 -0.0061 -0.0124  1.5270
  782MOL0     H 7848   5.430   9.701   9.163  1.8502 -0.2239 -3.5719
  782MOL0     H 7849   5.206   9.796   8.967 -0.9262  0.0298 -0.9763
  782MOL0     H 7850   5.374   9.845   8.927 -0.2111 -0.9221  1.5910
  782MOL0     H 7851   5.325  10.067   8.895 -0.1089 -0.5194 -0.0499
  782MOL0     H 7852   5.273   9.970   8.766  1.3472 -0.7530  1.0512
  782MOL0     H 7853   5.035   9.996   8.821 -0.6574  1.9395 -0.0254
  782MOL0     H 7854   5.069  10.083   8.969 -0.3510 -1.1063 -0.0848
  782MOL0     H 7855   5.198  10.258   8.840 -1.4795  0.6357  1.0162
  782MOL0     H 7856   5.175  10.174   8.695  1.9492 -0.1752  1.5446
  782MOL0     H 7857   4.951  10.299   8.876  1.9419 -1.7494  0.4581
  782MOL0     H 7858   4.926  10.208   8.724  0.5764 -1.4012 -0.1680
  782MOL0     H 7859   5.078  10.483   8.778  4.4730 -0.1821 -3.4389
  782MOL0     H 7860   5.079  10.400   8.616 -0.8707 -2.5672  0.0919
  782MOL0     H 7861   4.805  10.486   8.716  0.2115  1.5749  0.4944
  782MOL0     H 7862   4.866  10.415   8.569  0.4271 -1.1279  1.1368
  782MOL0     H 7863   4.885  10.653   8.510 -0.4648  1.3171  0.1509
  782MOL0     H 7864   4.875  10.692   8.681  0.5083  0.7156  1.1652
  782MOL0     H 7865   5.126  10.541   8.410 -2.8020  0.8540  0.1133
  782MOL0     H 7866   5.429  10.723   8.356 -2.1440 -0.7906 -4.1218
  782MOL0     H 7867   5.361  10.561   8.330  2.1011  0.4793 -1.4200
  782MOL0     H 7868   5.591  10.608   8.452  0.4780  1.4057  0.6492
  782MOL0     H 7869   5.489  10.616   8.595  1.2019 -1.2237  0.3148
  782MOL0     H 7870   5.536  10.401   8.385 -0.6378  0.2465 -1.0624
  782MOL0     H 7871   5.569  10.391   8.568 -0.5128  1.2796  0.9439
  782MOL0     H 7872   5.338  10.384   8.612  3.9851  0.0321  1.1341
  782MOL0     H 7873   5.304  10.390   8.438 -0.2214 -1.2493 -0.0293
  782MOL0     H 7874   5.518  10.257   8.721  0.1070 -0.7855  1.0423
  782MOL0     H 7875   5.729  10.027   8.901 -1.0061  0.0089  1.5210
  782MOL0     H 7876   5.614  10.158   8.916 -0.2068  0.7593 -0.6333
  782MOL0     H 7877   5.763  10.179   8.810  1.7525 -3.1096 -1.8082
  782MOL0     H 7878   5.890   9.862   8.956  1.5701  0.5907  0.1947
  782MOL0     H 7879   6.075   9.716   9.064  1.6463 -2.6940 -1.1955
  782MOL0     H 7880   6.231   9.545   9.059  0.3335  0.0760  0.4259
  782MOL0     H 7881   6.216   9.550   9.244  0.4998 -2.2423  1.2400
  782MOL0     H 7882   6.191   9.290   9.082  1.2732  0.1075 -0.1008
  782MOL0     H 7883   6.353   9.358   9.105  0.7186  0.2899 -0.5337
  782MOL0     H 7884   6.258   9.185   9.297 -0.0079 -0.2511  1.2827
  782MOL0     H 7885   6.151   9.322   9.342 -0.3914  1.2324  0.0223
  782MOL0     H 7886   6.336   9.457   9.408  1.7744  0.3022 -0.0386
  782MOL0     H 7887   6.461   9.345   9.342  1.3445 -1.2497  2.4891
  782MOL0     H 7888   6.260   9.296   9.570  0.4903 -0.3181  0.9088
  782MOL0     H 7889   6.364   9.173   9.511 -1.1165 -0.1814  0.3876
  782MOL0     H 7890   6.443   9.436   9.652  1.3247  0.8459 -3.1581
  782MOL0     H 7891   6.556   9.340   9.560 -1.5914  0.6698 -2.2713
  782MOL0     H 7892   6.500   9.140   9.720  1.0596 -0.7187  1.3918
  782MOL0     H 7893   6.395   9.255   9.808  0.3612 -2.4595  0.1033
  782MOL0     H 7894   6.583   9.264   9.937 -4.8363 -0.5099 -0.3552
  782MOL0     H 7895   6.561   9.411   9.860  2.1018  1.8952 -0.6101
  782MOL0     H 7896   5.807   9.394   9.061 -1.0622 -0.7286 -0.1986
  782MOL0     H 7897   5.651   9.509   8.942  0.7417 -0.6964 -0.5778
  782MOL0     H 7898   5.515   9.798   8.557 -0.5515  0.5891 -0.9273
  782MOL0     H 7899   5.380   9.955   8.439  0.6673 -1.6503  1.0902
  782MOL0     H 7900   5.416  10.140   9.148 -2.6436 -1.5200  1.3716
  782MOL0     H 7901   5.653  10.138   9.192  0.0987 -0.4923 -1.4832
  782MOL0     H 7902   5.999   9.773   9.366 -1.4504  2.5472 -0.4710
  782MOL0     H 7903   6.222   9.710   9.429  1.5403  0.8658  1.9840
  782MOL0     H 7904   6.591   9.942   9.311  0.5600 -1.2223  0.2151
  782MOL0     H 7905   6.500  10.027   9.446 -1.4127 -0.4147  1.7770
  782MOL0     H 7906   6.726   9.955   9.523 -0.1954  0.8345  2.0388
  782MOL0     H 7907   6.679   9.784   9.486  3.1559  0.7362  1.8035
  782MOL0     H 7908   6.503   9.941   9.661  0.9788  0.4906  1.1471
  782MOL0     H 7909   6.559   9.778   9.665  1.0837 -0.0898 -0.9290
  782MOL0     H 7910   6.791   9.894   9.746  1.1438  3.0968 -1.1530
  782MOL0     H 7911   6.644   9.876   9.845 -1.5074  0.8581 -0.4100
  782MOL0     H 7912   6.651  10.291   9.865  3.5398  0.9315 -1.0336
  782MOL0     H 7913   6.370  10.081   9.269  3.1839 -3.9122 -0.3732
  782MOL0     H 7914   6.233  10.265   9.226  1.1916 -0.4733  0.7971
  782MOL0     H 7915   6.158  10.191   9.083 -1.9957 -1.3824 -0.1608
  782MOL0     H 7916   6.060  10.248   9.220 -0.1475 -0.7038 -1.3794
  783MOL0     O 7917   7.516   0.818   8.412  0.4956  0.2290 -0.2390
  783MOL0     C 7918   7.441   0.724   8.450 -1.4581 -0.4694 -0.3254
  783MOL0     O 7919   7.480   0.595   8.463  0.5950  0.0666  0.3181
  783MOL0     C 7920   7.608   0.545   8.474  0.5250  0.3579  0.4896
  783MOL0     C 7921   7.734   0.621   8.481  0.8742  0.5551  0.7378
  783MOL0     C 7922   7.862   0.560   8.480  0.3893  0.5814 -0.5446
  783MOL0     C 7923   7.871   0.420   8.498  0.2310 -0.4471 -0.2144
  783MOL0     O 7924   7.999   0.372   8.543  0.1562 -0.4806 -0.2917
  783MOL0     C 7925   8.006   0.247   8.611 -0.1027  0.2301 -0.4914
  783MOL0     C 7926   8.151   0.220   8.660  0.8673 -0.1057 -0.4430
  783MOL0     C 7927   8.257   0.222   8.547  0.0230  0.0165 -0.5419
  783MOL0     C 7928   8.322   0.360   8.524  0.1934  0.0276 -1.4415
  783MOL0     C 7929   8.309   0.397   8.379 -0.0067  0.4468 -0.2643
  783MOL0     C 7930   8.389   0.519   8.364  0.1534  0.4303 -0.1779
  783MOL0     C 7931   8.389   0.580   8.228 -0.5828 -0.0181 -0.7171
  783MOL0     C 7932   8.487   0.690   8.205 -0.2124  0.9285  0.4981
  783MOL0     N 7933   8.472   0.794   8.310 -0.1669  0.8194  0.0104
  783MOL0     C 7934   8.376   0.893   8.323 -0.3117  0.4992  0.7219
  783MOL0     C 7935   8.407   0.940   8.446 -0.2288  0.3174 -0.1377
  783MOL0     C 7936   8.341   1.053   8.514  0.5922 -0.4625 -0.3669
  783MOL0     C 7937   8.247   0.990   8.614 -0.0415 -0.0335  0.0723
  783MOL0     C 7938   8.163   1.095   8.697 -0.0329 -0.3836 -0.1586
  783MOL0     C 7939   8.053   1.026   8.779 -0.3980  0.3888  0.1249
  783MOL0     O 7940   7.935   0.984   8.699  0.1600  0.0032  0.0128
  783MOL0     C 7941   7.813   0.967   8.762  0.6399 -0.3689  0.0598
  783MOL0     C 7942   7.803   0.956   8.900  0.6252  0.8419  1.0390
  783MOL0     C 7943   7.675   0.904   8.955 -0.3975 -0.0252  0.5679
  783MOL0     C 7944   7.673   0.865   9.102 -0.7373  0.3330 -0.0277
  783MOL0     C 7945   7.560   0.905   8.878 -0.0864  0.1756 -0.3898
  783MOL0     C 7946   7.419   0.878   8.921 -0.8719 -0.4951 -1.5264
  783MOL0     O 7947   7.400   0.904   9.050  0.3541 -0.7807 -0.0881
  783MOL0     C 7948   7.280   0.875   9.103  0.1703  0.6179 -0.5871
  783MOL0     C 7949   7.199   0.982   9.141  0.0999 -0.0372  0.2461
  783MOL0     C 7950   7.074   0.962   9.193  0.8025 -0.5150 -0.1337
  783MOL0     C 7951   7.026   0.835   9.215 -0.1836 -0.3992 -1.0302
  783MOL0     O 7952   6.915   0.798   9.283  0.3254 -0.3025  0.1404
  783MOL0     C 7953   6.827   0.895   9.341  0.4672  0.0934  0.7133
  783MOL0     C 7954   6.693   0.827   9.387 -0.6704 -1.6156 -0.0541
  783MOL0     C 7955   6.618   0.759   9.287  0.0804 -0.9066  0.3395
  783MOL0     C 7956   6.501   0.678   9.329  0.6164  0.3623 -1.2906
  783MOL0     C 7957   6.417   0.643   9.207  0.5521  0.8794 -0.3974
  783MOL0     C 7958   6.310   0.531   9.228 -0.1765 -0.6727  0.6824
  783MOL0     C 7959   6.212   0.545   9.344  0.2604 -0.5589  0.3820
  783MOL0     C 7960   6.094   0.452   9.328  0.4095  0.8170 -0.0824
  783MOL0    Cl 7961   5.980   0.497   9.196 -0.0721 -0.1819 -0.1769
  783MOL0     C 7962   7.100   0.726   9.158  0.3924 -0.9085 -0.1560
  783MOL0     C 7963   7.227   0.749   9.106 -0.6047 -0.2896  1.3439
  783MOL0     O 7964   7.344   0.823   8.846 -0.0243  0.3697 -0.7448
  783MOL0     C 7965   7.576   0.927   8.744 -0.4973  0.4290 -0.2797
  783MOL0     C 7966   7.698   0.946   8.685 -0.5649  0.8964  0.7611
  783MOL0     N 7967   8.507   0.873   8.504 -0.2241  0.6471 -0.7781
  783MOL0     N 7968   8.542   0.783   8.426 -0.3358  0.5507  0.9064
  783MOL0     C 7969   7.751   0.343   8.493  0.3115 -0.4623 -0.1097
  783MOL0     C 7970   7.623   0.397   8.477 -0.4852  0.4006  0.6570
  783MOL0     C 7971   7.292   0.744   8.457  0.1964  0.1223 -0.3322
  783MOL0     C 7972   7.210   0.667   8.542 -0.3955 -0.2442  0.6269
  783MOL0     C 7973   7.082   0.700   8.564  0.0922  0.7525 -0.3593
  783MOL0     C 7974   7.017   0.797   8.486 -0.0513  0.7421 -0.7156
  783MOL0     O 7975   6.884   0.824   8.497 -0.3888 -0.3849  0.0898
  783MOL0     C 7976   6.799   0.717   8.543  0.3576 -0.4649  1.8242
  783MOL0     C 7977   6.650   0.740   8.515  0.2032 -0.9487  0.0946
  783MOL0     C 7978   6.601   0.750   8.368 -0.0603  0.1153  0.0629
  783MOL0     C 7979   6.557   0.622   8.297 -0.4665 -0.4449 -0.7628
  783MOL0     C 7980   6.659   0.516   8.316  0.5540 -0.8201 -0.4541
  783MOL0     C 7981   6.746   0.428   8.332  1.1708 -0.9836 -0.6586
  783MOL0     C 7982   7.084   0.875   8.402 -0.5347 -0.4118  0.5269
  783MOL0     C 7983   7.221   0.849   8.384  0.2181  0.1104  0.9318
  783MOL0     C 7984   7.287   0.930   8.270 -0.6466  0.1285  0.0115
  783MOL0     H 7985   7.735   0.729   8.467 -1.2475  0.5233  0.0729
  783MOL0     H 7986   7.951   0.622   8.482  2.3836 -2.1082  0.4546
  783MOL0     H 7987   7.974   0.164   8.548  0.6527 -0.5045  0.0587
  783MOL0     H 7988   7.943   0.251   8.700  2.5671 -1.1257  1.6197
  783MOL0     H 7989   8.189   0.291   8.734  2.9312 -0.8218 -0.7291
  783MOL0     H 7990   8.135   0.121   8.704 -1.3406 -0.0669 -1.0687
  783MOL0     H 7991   8.339   0.157   8.577 -0.6267  0.1776  1.7838
  783MOL0     H 7992   8.219   0.186   8.451 -0.0044  0.8292 -0.8426
  783MOL0     H 7993   8.275   0.432   8.592  0.6107  0.2134 -1.3460
  783MOL0     H 7994   8.428   0.357   8.553 -0.2951  1.7548  0.8546
  783MOL0     H 7995   8.205   0.410   8.347 -0.8723 -0.3803  2.0259
  783MOL0     H 7996   8.360   0.322   8.318  1.7743  2.9776 -2.0737
  783MOL0     H 7997   8.356   0.596   8.435  1.7351 -0.8409  2.0968
  783MOL0     H 7998   8.494   0.492   8.381  0.3086 -0.2371 -2.0385
  783MOL0     H 7999   8.286   0.601   8.196 -0.7515 -1.3800 -1.1685
  783MOL0     H 8000   8.413   0.502   8.154 -0.9714  1.4638 -2.4855
  783MOL0     H 8001   8.587   0.647   8.200  0.0109  1.5365 -0.6249
  783MOL0     H 8002   8.469   0.740   8.109  0.2837 -1.6345 -1.0082
  783MOL0     H 8003   8.304   0.919   8.247  1.3138 -1.6232 -1.7286
  783MOL0     H 8004   8.289   1.113   8.439  1.1475 -0.7349 -0.9876
  783MOL0     H 8005   8.414   1.109   8.573 -0.9254 -0.3789  1.5252
  783MOL0     H 8006   8.173   0.922   8.572  1.3942 -1.9184  0.4505
  783MOL0     H 8007   8.311   0.926   8.676 -1.0284 -1.1585 -0.0410
  783MOL0     H 8008   8.227   1.157   8.761 -0.3058 -0.6478  0.3818
  783MOL0     H 8009   8.118   1.169   8.630  0.8838  0.3847  0.0567
  783MOL0     H 8010   8.101   0.941   8.829  0.5863  2.3306  2.7497
  783MOL0     H 8011   8.015   1.092   8.857 -2.1986  0.5455 -0.8309
  783MOL0     H 8012   7.888   0.961   8.968  2.4941 -1.8389 -0.8807
  783MOL0     H 8013   7.627   0.946   9.159  1.6451  3.7246 -2.5505
  783MOL0     H 8014   7.772   0.842   9.140 -0.5503  2.7699  1.1137
  783MOL0     H 8015   7.611   0.777   9.123  0.4727 -0.8633 -1.2463
  783MOL0     H 8016   7.243   1.080   9.133  2.2212 -0.8338  1.2686
  783MOL0     H 8017   7.009   1.042   9.226  0.6157 -0.9600  0.6084
  783MOL0     H 8018   6.874   0.948   9.424 -2.9810  0.5289  2.5516
  783MOL0     H 8019   6.793   0.954   9.255  0.0093 -1.0658  0.0817
  783MOL0     H 8020   6.727   0.771   9.475 -1.3892  1.3569  2.2840
  783MOL0     H 8021   6.639   0.916   9.421  2.3850  1.8361 -3.3194
  783MOL0     H 8022   6.689   0.688   9.244  0.1193 -0.2276 -0.7571
  783MOL0     H 8023   6.593   0.826   9.204  1.5610 -0.9272 -0.1529
  783MOL0     H 8024   6.435   0.740   9.390  2.1783 -1.2838  2.3798
  783MOL0     H 8025   6.523   0.587   9.385  1.7403  1.7206  0.5599
  783MOL0     H 8026   6.367   0.732   9.169 -2.8646  0.0539  1.6453
  783MOL0     H 8027   6.479   0.595   9.131 -0.4979  1.4001 -1.6051
  783MOL0     H 8028   6.358   0.433   9.232 -0.6181 -0.9063  0.3317
  783MOL0     H 8029   6.254   0.542   9.134 -1.1977 -2.4465  1.0352
  783MOL0     H 8030   6.170   0.646   9.346 -1.2029 -1.1612  0.9099
  783MOL0     H 8031   6.256   0.524   9.442 -1.0105 -2.3147  0.6222
  783MOL0     H 8032   6.024   0.459   9.412 -0.9224 -2.4672 -0.7328
  783MOL0     H 8033   6.119   0.346   9.312 -0.4491  0.7227 -0.8505
  783MOL0     H 8034   7.057   0.626   9.169  1.6279 -1.4894 -0.4099
  783MOL0     H 8035   7.290   0.666   9.076 -1.0694 -0.1287 -0.1688
  783MOL0     H 8036   7.492   0.916   8.676 -0.3077  1.6752 -0.7416
  783MOL0     H 8037   7.691   0.942   8.576 -0.2872 -0.1693  0.7723
  783MOL0     H 8038   7.755   0.235   8.488  2.3739 -0.4455  0.3033
  783MOL0     H 8039   7.539   0.330   8.464  0.5975 -0.6013 -1.6622
  783MOL0     H 8040   7.253   0.586   8.600  1.9464 -0.7608 -1.6439
  783MOL0     H 8041   7.025   0.633   8.627  1.6366 -0.5554 -0.2870
  783MOL0     H 8042   6.832   0.616   8.517  1.8454  0.6451 -0.9564
  783MOL0     H 8043   6.809   0.716   8.652  0.7026  0.5713  1.8096
  783MOL0     H 8044   6.621   0.835   8.562  0.4866 -1.0081  0.4004
  783MOL0     H 8045   6.591   0.659   8.560 -1.2515 -0.0344 -0.1111
  783MOL0     H 8046   6.513   0.815   8.372  0.6724  1.0831  0.9277
  783MOL0     H 8047   6.670   0.805   8.303  0.8318 -2.2233 -1.0677
  783MOL0     H 8048   6.542   0.632   8.189 -2.7588 -1.4707 -0.5810
  783MOL0     H 8049   6.471   0.581   8.350  0.5616 -0.3723  1.0691
  783MOL0     H 8050   6.811   0.343   8.341  0.9410 -1.0304  1.0144
  783MOL0     H 8051   7.037   0.951   8.341  0.1481  0.5761  1.2023
  783MOL0     H 8052   7.210   0.954   8.196  1.4066 -1.4577 -2.8403
  783MOL0     H 8053   7.337   1.016   8.315 -0.4651 -1.2735  2.6944
  783MOL0     H 8054   7.362   0.868   8.219  1.7009  2.7574  0.0422
  784MOL0     O 8055   9.894   7.668   0.170  0.8044  0.8084  0.1215
  784MOL0     C 8056   9.854   7.558   0.229 -0.6827 -0.0679  0.3604
  784MOL0     O 8057   9.914   7.494   0.336  0.6252  0.6440 -0.1071
  784MOL0     C 8058  10.030   7.552   0.385 -0.0175 -0.0964  0.1619
  784MOL0     C 8059  10.149   7.476   0.407 -0.5361 -0.1398  0.3868
  784MOL0     C 8060  10.259   7.534   0.468  1.0476 -0.5070 -0.0792
  784MOL0     C 8061  10.251   7.665   0.523 -1.0935 -0.2931 -0.4776
  784MOL0     O 8062  10.355   7.727   0.584 -0.1993 -0.3203 -0.1142
  784MOL0     C 8063  10.490   7.688   0.558  0.2638  0.5909 -0.6445
  784MOL0     C 8064  10.537   7.606   0.680  0.0520 -0.1844 -0.0822
  784MOL0     C 8065  10.660   7.516   0.656  0.3921  0.0612 -0.2385
  784MOL0     C 8066  10.678   7.415   0.775 -0.1761  1.2370 -0.2506
  784MOL0     C 8067  10.785   7.321   0.755 -0.6087 -0.4513 -0.4247
  784MOL0     C 8068  10.923   7.376   0.735  0.7427 -1.0450  0.2798
  784MOL0     C 8069  11.019   7.260   0.762  1.1033  0.8680 -0.2084
  784MOL0     C 8070  11.150   7.271   0.684  0.5263  0.8786 -0.0320
  784MOL0     N 8071  11.140   7.257   0.542 -0.1151 -0.5955 -0.5173
  784MOL0     C 8072  11.240   7.257   0.453 -0.8925 -0.3676  0.0378
  784MOL0     C 8073  11.190   7.244   0.330 -0.2928 -0.0056 -0.1531
  784MOL0     C 8074  11.273   7.219   0.207  0.0076  0.1793 -0.3870
  784MOL0     C 8075  11.262   7.320   0.096  0.1307 -0.6324  0.2659
  784MOL0     C 8076  11.323   7.458   0.126  0.6663  0.0182  0.0178
  784MOL0     C 8077  11.289   7.564   0.018 -0.7578 -0.0856  0.4660
  784MOL0     O 8078  11.394   7.557  -0.081  0.1472 -0.6695  0.1489
  784MOL0     C 8079  11.385   7.638  -0.195 -0.1186  0.1232  0.1624
  784MOL0     C 8080  11.303   7.751  -0.207 -0.3241  0.1102 -0.0758
  784MOL0     C 8081  11.295   7.830  -0.322 -0.0823 -0.4281  0.6131
  784MOL0     C 8082  11.197   7.950  -0.317  0.6183 -0.5365 -0.1852
  784MOL0     C 8083  11.379   7.800  -0.435 -0.0843 -1.4284 -0.1063
  784MOL0     C 8084  11.402   7.879  -0.557 -0.4240  0.0417  0.4562
  784MOL0     O 8085  11.399   8.020  -0.547 -0.2527 -0.2005  0.9756
  784MOL0     C 8086  11.449   8.084  -0.655  0.9674  0.1901 -0.8085
  784MOL0     C 8087  11.564   8.167  -0.634  0.7178 -0.5698  0.0151
  784MOL0     C 8088  11.610   8.251  -0.734 -0.4734 -0.2468  0.2570
  784MOL0     C 8089  11.547   8.257  -0.854 -0.5754 -0.6824 -0.4067
  784MOL0     O 8090  11.591   8.356  -0.941 -0.4924 -0.5281  0.3471
  784MOL0     C 8091  11.577   8.346  -1.079  0.4640 -0.5220 -0.2871
  784MOL0     C 8092  11.709   8.300  -1.139 -0.3000  0.3286  0.2292
  784MOL0     C 8093  11.814   8.399  -1.149 -0.2124 -0.6098  0.4496
  784MOL0     C 8094  11.964   8.341  -1.139  0.8387 -0.1351  0.1363
  784MOL0     C 8095  12.024   8.321  -0.995 -0.5395 -0.3735 -0.5480
  784MOL0     C 8096  12.101   8.440  -0.926 -0.2792  0.2618  0.4321
  784MOL0     C 8097  12.244   8.454  -0.975 -1.1349  0.6600  0.1261
  784MOL0     C 8098  12.328   8.555  -0.893 -0.3098 -0.3028  0.3802
  784MOL0    Cl 8099  12.329   8.519  -0.714 -0.2215  0.4233  0.2946
  784MOL0     C 8100  11.437   8.177  -0.881 -0.0893 -0.1036  0.2708
  784MOL0     C 8101  11.389   8.095  -0.782 -0.2098  0.9181  0.3074
  784MOL0     O 8102  11.433   7.816  -0.661  0.0713  0.4044 -0.1373
  784MOL0     C 8103  11.443   7.680  -0.429 -0.1989 -0.1061 -0.2009
  784MOL0     C 8104  11.434   7.601  -0.321 -0.1230  0.3826 -0.5836
  784MOL0     N 8105  11.053   7.231   0.340  0.3484  0.4273 -0.0029
  784MOL0     N 8106  11.025   7.238   0.467 -1.3770  0.6037  0.1431
  784MOL0     C 8107  10.138   7.748   0.502  1.2973  0.7737  0.1678
  784MOL0     C 8108  10.025   7.684   0.433 -0.1471 -0.3594 -0.1146
  784MOL0     C 8109   9.743   7.490   0.157  0.7243  0.0593 -0.1331
  784MOL0     C 8110   9.631   7.569   0.122 -0.4306 -0.1664 -0.4775
  784MOL0     C 8111   9.530   7.521   0.063  0.6929  1.1074 -0.5558
  784MOL0     C 8112   9.520   7.391   0.036  0.2083  0.1099 -1.1818
  784MOL0     O 8113   9.412   7.359  -0.037  0.7178  0.5625 -0.2416
  784MOL0     C 8114   9.365   7.221  -0.005  0.6336 -0.3815 -0.4604
  784MOL0     C 8115   9.239   7.190  -0.091  0.1425 -0.4526 -0.1523
  784MOL0     C 8116   9.260   7.189  -0.247  0.6084 -1.1373  0.5989
  784MOL0     C 8117   9.145   7.266  -0.318 -0.4390 -0.2959  0.0653
  784MOL0     C 8118   9.164   7.263  -0.468  0.5513  0.9575  0.2478
  784MOL0     C 8119   9.183   7.239  -0.589  0.1609  1.1164  0.0108
  784MOL0     C 8120   9.623   7.304   0.063  0.5205  0.6314  0.6955
  784MOL0     C 8121   9.748   7.353   0.114  0.2481 -0.2855  0.1454
  784MOL0     C 8122   9.875   7.271   0.143  0.1827 -0.7685 -0.1470
  784MOL0     H 8123  10.145   7.376   0.364  0.8639 -2.0843  4.2357
  784MOL0     H 8124  10.354   7.482   0.468 -0.8151 -4.3680  1.5600
  784MOL0     H 8125  10.544   7.780   0.534 -1.2891  1.3949 -1.1673
  784MOL0     H 8126  10.491   7.622   0.471 -1.4439 -1.6047  0.8851
  784MOL0     H 8127  10.555   7.682   0.757  1.6081 -0.6724  0.0564
  784MOL0     H 8128  10.455   7.549   0.725 -0.6286 -0.5371 -1.6948
  784MOL0     H 8129  10.638   7.454   0.568 -0.3908 -2.4387  1.6079
  784MOL0     H 8130  10.754   7.568   0.633  0.2763  0.6997  0.6716
  784MOL0     H 8131  10.720   7.470   0.860  0.9283  2.6236 -1.6226
  784MOL0     H 8132  10.577   7.383   0.802 -0.6658  0.8549 -2.3805
  784MOL0     H 8133  10.770   7.250   0.673  2.6580 -2.9265  0.8692
  784MOL0     H 8134  10.785   7.257   0.844 -0.4225 -2.4359 -1.7858
  784MOL0     H 8135  10.921   7.404   0.630 -3.2096 -0.0350  0.4678
  784MOL0     H 8136  10.946   7.459   0.802  2.1059 -0.7927 -0.4696
  784MOL0     H 8137  10.980   7.162   0.732  0.7374  0.7991  0.4669
  784MOL0     H 8138  11.034   7.257   0.871 -3.2667  3.8880  0.7356
  784MOL0     H 8139  11.197   7.367   0.710  0.2973  0.6568  1.2968
  784MOL0     H 8140  11.222   7.194   0.713 -1.2846 -0.8428  0.0531
  784MOL0     H 8141  11.346   7.273   0.472 -0.2033 -4.2752  0.2144
  784MOL0     H 8142  11.229   7.125   0.173 -2.1928  1.2980 -0.8172
  784MOL0     H 8143  11.379   7.210   0.233  0.3485  2.0880 -0.9150
  784MOL0     H 8144  11.300   7.284  -0.000  1.2806  0.4548  0.2811
  784MOL0     H 8145  11.154   7.332   0.090  0.2696  1.8095  1.4557
  784MOL0     H 8146  11.273   7.488   0.219 -2.8966 -2.1838 -1.0102
  784MOL0     H 8147  11.429   7.440   0.144  0.4223 -1.7543 -0.1738
  784MOL0     H 8148  11.193   7.548  -0.032 -0.0297  0.7984 -1.3276
  784MOL0     H 8149  11.287   7.665   0.060 -2.5047  1.5165 -3.0242
  784MOL0     H 8150  11.253   7.789  -0.119 -0.8778 -0.1135 -0.2855
  784MOL0     H 8151  11.148   7.957  -0.219  0.0162 -2.0225 -0.3531
  784MOL0     H 8152  11.110   7.944  -0.383  0.5687 -1.3261 -0.0615
  784MOL0     H 8153  11.248   8.046  -0.329  1.5324 -1.2782 -2.9500
  784MOL0     H 8154  11.620   8.175  -0.542  2.2211 -2.2358 -0.6787
  784MOL0     H 8155  11.694   8.316  -0.709 -1.4804  1.3748 -0.4109
  784MOL0     H 8156  11.505   8.278  -1.126 -0.4059  0.4421 -0.3733
  784MOL0     H 8157  11.553   8.448  -1.110  0.8950  0.2055  1.6296
  784MOL0     H 8158  11.737   8.208  -1.087 -3.0676 -1.4446 -1.2033
  784MOL0     H 8159  11.688   8.277  -1.244  2.9581 -0.6279 -0.3271
  784MOL0     H 8160  11.790   8.485  -1.085 -4.6293 -0.9172 -0.4732
  784MOL0     H 8161  11.824   8.443  -1.249 -2.3560  4.0504  2.0064
  784MOL0     H 8162  12.029   8.416  -1.186 -1.9154  2.6252  0.4418
  784MOL0     H 8163  11.963   8.247  -1.194  0.6300  0.9265 -1.7576
  784MOL0     H 8164  11.935   8.303  -0.934  0.0334 -3.8333 -0.5071
  784MOL0     H 8165  12.084   8.229  -0.994 -1.6736 -1.1406  0.6621
  784MOL0     H 8166  12.104   8.414  -0.820 -2.0224 -1.3703  0.1485
  784MOL0     H 8167  12.049   8.537  -0.931  1.0831  0.9814 -0.2871
  784MOL0     H 8168  12.258   8.480  -1.080  1.1530 -3.3419 -0.7519
  784MOL0     H 8169  12.304   8.364  -0.956 -2.6586 -0.3502  0.3922
  784MOL0     H 8170  12.284   8.652  -0.915 -1.8680 -1.2501 -0.9195
  784MOL0     H 8171  12.430   8.553  -0.934 -0.7645  0.7932 -0.8494
  784MOL0     H 8172  11.384   8.183  -0.975  1.2858 -0.7309 -0.5840
  784MOL0     H 8173  11.298   8.049  -0.818  0.4340  0.2207 -0.4863
  784MOL0     H 8174  11.508   7.645  -0.509 -1.9025  0.8987 -2.0941
  784MOL0     H 8175  11.478   7.501  -0.328 -2.9165 -1.1263  1.4395
  784MOL0     H 8176  10.134   7.852   0.532 -2.0573  0.8041  0.0103
  784MOL0     H 8177   9.938   7.745   0.411  0.0686  0.0981  0.2612
  784MOL0     H 8178   9.624   7.676   0.135  3.8144  0.2554 -0.3291
  784MOL0     H 8179   9.449   7.589   0.038  1.6945  1.9638 -1.5485
  784MOL0     H 8180   9.437   7.141  -0.026 -0.1762 -0.7325 -2.0415
  784MOL0     H 8181   9.336   7.223   0.100  3.2255  1.3287  0.3233
  784MOL0     H 8182   9.161   7.262  -0.068 -2.9446 -3.0356 -1.8017
  784MOL0     H 8183   9.207   7.090  -0.063 -2.6182  0.3999  0.0242
  784MOL0     H 8184   9.354   7.243  -0.260  0.5032 -0.3462  2.7383
  784MOL0     H 8185   9.269   7.084  -0.278 -1.7406 -1.8689  2.1255
  784MOL0     H 8186   9.148   7.374  -0.301 -1.1497 -0.1963 -0.4121
  784MOL0     H 8187   9.046   7.228  -0.292  0.1815 -1.2483  1.1039
  784MOL0     H 8188   9.196   7.224  -0.694 -1.2618 -3.2197  0.2470
  784MOL0     H 8189   9.624   7.204   0.020  1.7160  1.2721 -0.8758
  784MOL0     H 8190   9.877   7.169   0.102  3.5113 -0.7768 -0.2795
  784MOL0     H 8191   9.959   7.335   0.113 -1.1830  0.8490 -0.6741
  784MOL0     H 8192   9.876   7.252   0.251 -2.2253 -2.4806 -0.3473
  785MOL0     O 8193   4.036   0.916   6.354 -0.2265  1.2324  0.0353
  785MOL0     C 8194   4.120   0.842   6.415  0.1400 -0.6326  0.2314
  785MOL0     O 8195   4.190   0.749   6.355  0.5620  0.7290  0.7752
  785MOL0     C 8196   4.193   0.724   6.218 -0.3425  0.0881 -0.7755
  785MOL0     C 8197   4.237   0.605   6.179  0.3111 -0.4314 -0.8249
  785MOL0     C 8198   4.254   0.567   6.045 -0.0925  0.4518  0.0799
  785MOL0     C 8199   4.209   0.650   5.947  0.6976 -0.6578  0.0569
  785MOL0     O 8200   4.213   0.614   5.817 -0.1379 -0.1108 -0.3115
  785MOL0     C 8201   4.311   0.668   5.731  0.8328  0.0286  0.5696
  785MOL0     C 8202   4.449   0.614   5.765 -0.4068 -0.7174  0.5750
  785MOL0     C 8203   4.566   0.676   5.680  0.2660 -0.6511  0.2417
  785MOL0     C 8204   4.699   0.617   5.726 -0.1490  0.1052  0.0515
  785MOL0     C 8205   4.820   0.644   5.637  0.4225 -0.0037  0.0067
  785MOL0     C 8206   4.953   0.660   5.717 -0.1139 -0.4722  0.6993
  785MOL0     C 8207   5.073   0.710   5.625 -0.2368  0.3175 -0.7790
  785MOL0     C 8208   5.213   0.715   5.681 -0.0482  0.4356 -0.9503
  785MOL0     N 8209   5.219   0.805   5.794  1.0731  0.4089  0.0209
  785MOL0     C 8210   5.219   0.772   5.926 -0.0052  0.7701  0.4590
  785MOL0     C 8211   5.233   0.885   5.997 -0.0746 -0.1850 -0.0552
  785MOL0     C 8212   5.223   0.914   6.145 -0.1176  0.5048 -0.6997
  785MOL0     C 8213   5.347   0.982   6.204 -0.2689 -0.3778  1.2476
  785MOL0     C 8214   5.358   0.964   6.357 -0.4723 -0.0056  0.1786
  785MOL0     C 8215   5.489   1.012   6.420 -0.0615  0.4464 -0.1494
  785MOL0     O 8216   5.495   1.151   6.435 -0.3981 -0.6583  0.1224
  785MOL0     C 8217   5.487   1.207   6.562  0.0033  0.8145  0.2627
  785MOL0     C 8218   5.579   1.297   6.603  1.0658 -0.4696 -0.5215
  785MOL0     C 8219   5.580   1.344   6.738 -0.3651 -0.0823 -0.2261
  785MOL0     C 8220   5.679   1.443   6.772 -0.8280 -0.6639 -0.2009
  785MOL0     C 8221   5.481   1.300   6.831 -0.6484 -0.1295 -0.2998
  785MOL0     C 8222   5.466   1.354   6.970  1.0861 -1.1753 -0.2082
  785MOL0     O 8223   5.399   1.263   7.049  0.4618  0.6564  0.5281
  785MOL0     C 8224   5.439   1.255   7.177 -0.6681  1.1006 -0.3986
  785MOL0     C 8225   5.562   1.197   7.223 -1.0783  0.7929 -1.1146
  785MOL0     C 8226   5.603   1.192   7.358  0.7900  0.2333  1.1003
  785MOL0     C 8227   5.512   1.240   7.459  0.6830  0.1092 -0.0157
  785MOL0     O 8228   5.544   1.231   7.596  0.5440  0.8763 -0.1169
  785MOL0     C 8229   5.582   1.361   7.645 -0.1082 -0.5844  0.0183
  785MOL0     C 8230   5.621   1.354   7.799 -0.1497  0.4493 -0.3803
  785MOL0     C 8231   5.512   1.310   7.897  0.0103 -0.0347 -0.1350
  785MOL0     C 8232   5.392   1.400   7.890  0.1913 -0.6708 -0.6914
  785MOL0     C 8233   5.273   1.344   7.975  0.3273  0.3762 -0.0600
  785MOL0     C 8234   5.148   1.440   7.970 -0.2845 -1.2686  0.1520
  785MOL0     C 8235   5.083   1.460   7.836  0.1579  0.2999  0.3143
  785MOL0     C 8236   4.934   1.515   7.845 -0.9597  0.5721  0.0082
  785MOL0    Cl 8237   4.826   1.383   7.884  0.3563  0.2058 -0.1740
  785MOL0     C 8238   5.388   1.294   7.415  0.5878 -0.7772  0.0769
  785MOL0     C 8239   5.344   1.296   7.275 -0.3415  0.1232 -0.1348
  785MOL0     O 8240   5.510   1.464   7.009 -0.4970 -0.1681 -0.5353
  785MOL0     C 8241   5.385   1.207   6.781 -0.0967 -0.1451 -0.5349
  785MOL0     C 8242   5.385   1.163   6.646 -1.2010 -0.2958  0.6315
  785MOL0     N 8243   5.246   0.990   5.904  0.3984 -0.4326  0.1098
  785MOL0     N 8244   5.244   0.939   5.784 -0.5976  0.4695  0.4690
  785MOL0     C 8245   4.159   0.778   5.978  0.2447  0.8431 -0.3869
  785MOL0     C 8246   4.151   0.811   6.112  0.2966 -0.0331  0.6104
  785MOL0     C 8247   4.131   0.860   6.559 -0.3159  0.5013  0.3663
  785MOL0     C 8248   4.217   0.771   6.627  0.1703 -0.6102 -0.9731
  785MOL0     C 8249   4.226   0.774   6.767 -0.4050  0.2970 -0.0843
  785MOL0     C 8250   4.158   0.863   6.844  0.6949 -0.3045 -0.1241
  785MOL0     O 8251   4.172   0.866   6.983 -0.0366 -0.5819  0.2251
  785MOL0     C 8252   4.085   0.777   7.054 -0.0201 -0.4330  0.1809
  785MOL0     C 8253   4.174   0.666   7.103  0.3251  0.7642  0.2813
  785MOL0     C 8254   4.082   0.563   7.169 -1.4383  0.1474 -0.2808
  785MOL0     C 8255   4.151   0.467   7.258 -0.2756  0.4361 -0.4969
  785MOL0     C 8256   4.228   0.506   7.373  0.6156 -0.5570  0.0886
  785MOL0     C 8257   4.294   0.546   7.466  0.5643  0.0406  0.2128
  785MOL0     C 8258   4.079   0.951   6.781  0.0895 -0.6658  0.6833
  785MOL0     C 8259   4.064   0.957   6.643  0.4141 -0.7005  0.3015
  785MOL0     C 8260   3.966   1.058   6.590  0.1007  0.1834  0.6213
  785MOL0     H 8261   4.244   0.530   6.257 -2.0519  0.0363 -0.0878
  785MOL0     H 8262   4.285   0.467   6.016  1.2042  0.8730 -0.0153
  785MOL0     H 8263   4.329   0.776   5.735  0.5798  0.1247 -0.5489
  785MOL0     H 8264   4.296   0.647   5.625 -1.7385  0.1719  0.8412
  785MOL0     H 8265   4.465   0.635   5.871 -0.5101  1.2400  0.2456
  785MOL0     H 8266   4.459   0.506   5.748  0.1426 -0.2892 -2.3402
  785MOL0     H 8267   4.551   0.654   5.574  0.6052  3.6938 -0.9177
  785MOL0     H 8268   4.566   0.785   5.690 -0.3775 -0.0351 -4.3660
  785MOL0     H 8269   4.712   0.645   5.831 -0.1584 -0.5509  0.2316
  785MOL0     H 8270   4.692   0.508   5.726 -1.1433  0.0860 -2.8606
  785MOL0     H 8271   4.800   0.730   5.572  1.1411 -0.0900 -0.3391
  785MOL0     H 8272   4.833   0.559   5.570  1.1855 -0.4681  0.7239
  785MOL0     H 8273   4.949   0.727   5.803  0.2902  3.4903 -2.0632
  785MOL0     H 8274   4.980   0.565   5.763  1.6946  0.4068  1.5761
  785MOL0     H 8275   5.062   0.809   5.581  1.9339  1.3958  0.8725
  785MOL0     H 8276   5.069   0.638   5.543 -2.1318  2.0562 -2.3260
  785MOL0     H 8277   5.246   0.616   5.712  2.4001  1.9245  1.7365
  785MOL0     H 8278   5.285   0.762   5.613  0.6533 -0.3822 -0.7809
  785MOL0     H 8279   5.214   0.676   5.976 -0.6804 -0.2577 -1.4717
  785MOL0     H 8280   5.221   0.816   6.194 -0.3476  0.1406 -1.4314
  785MOL0     H 8281   5.136   0.977   6.167  0.6126  1.4808 -0.5607
  785MOL0     H 8282   5.439   0.945   6.156 -1.7324  0.7962 -2.8099
  785MOL0     H 8283   5.348   1.087   6.175 -1.1490 -1.1467 -1.8717
  785MOL0     H 8284   5.277   1.031   6.390  1.6973  3.7960 -1.5717
  785MOL0     H 8285   5.342   0.861   6.391 -0.7608  0.4486  1.4883
  785MOL0     H 8286   5.485   0.959   6.516  0.2483 -1.0273 -0.9214
  785MOL0     H 8287   5.582   0.980   6.372  0.7783 -0.7495  2.1161
  785MOL0     H 8288   5.644   1.345   6.530 -0.0173  0.6512 -0.7739
  785MOL0     H 8289   5.748   1.457   6.689  0.6872  1.6600  1.3260
  785MOL0     H 8290   5.732   1.420   6.865 -2.2532 -2.7879  0.1574
  785MOL0     H 8291   5.624   1.535   6.797  1.6551  0.8163  0.1397
  785MOL0     H 8292   5.623   1.140   7.153 -0.3935 -0.7422  0.6373
  785MOL0     H 8293   5.696   1.139   7.376  0.3709 -0.8935  0.0893
  785MOL0     H 8294   5.674   1.386   7.591 -0.9328  1.1601 -0.6547
  785MOL0     H 8295   5.505   1.436   7.625  2.9991  2.7582 -0.6323
  785MOL0     H 8296   5.710   1.292   7.808  0.7403  1.5798 -1.0432
  785MOL0     H 8297   5.656   1.452   7.832  2.6593 -1.2740  2.1759
  785MOL0     H 8298   5.553   1.318   7.998 -0.3239  1.8626 -0.1126
  785MOL0     H 8299   5.494   1.203   7.883  2.2565 -0.4204 -0.5340
  785MOL0     H 8300   5.366   1.418   7.785 -1.7758  2.9411  0.2269
  785MOL0     H 8301   5.424   1.497   7.929  0.1046 -1.1374  0.5803
  785MOL0     H 8302   5.252   1.244   7.936 -1.3844  0.1432  1.3284
  785MOL0     H 8303   5.296   1.328   8.081  3.2668  1.5090 -0.4260
  785MOL0     H 8304   5.169   1.537   8.015 -2.1756 -0.4591 -0.6115
  785MOL0     H 8305   5.077   1.391   8.037  1.5276 -1.4404  2.0413
  785MOL0     H 8306   5.091   1.368   7.777  1.0890  1.4995 -1.5276
  785MOL0     H 8307   5.146   1.531   7.783  1.0956  0.1322  1.1669
  785MOL0     H 8308   4.898   1.553   7.749  1.2051  0.0025 -1.1040
  785MOL0     H 8309   4.932   1.593   7.922 -0.0368  1.4136 -0.7825
  785MOL0     H 8310   5.333   1.341   7.496 -1.2522 -0.1684 -1.4399
  785MOL0     H 8311   5.247   1.336   7.247 -0.1567  1.2342  0.7403
  785MOL0     H 8312   5.303   1.181   6.846 -0.9446  0.7159 -1.2205
  785MOL0     H 8313   5.306   1.100   6.605  2.0429 -3.2574 -1.7839
  785MOL0     H 8314   4.116   0.830   5.893 -0.2721  2.5727  0.8670
  785MOL0     H 8315   4.142   0.917   6.130  1.4787  0.2412 -0.2890
  785MOL0     H 8316   4.274   0.699   6.569  1.7963  0.9531 -1.3876
  785MOL0     H 8317   4.283   0.698   6.819 -2.8493 -1.4890  0.1367
  785MOL0     H 8318   4.047   0.823   7.146  0.2105 -0.9182  0.5205
  785MOL0     H 8319   4.001   0.743   6.992 -0.0913  1.6566 -1.0000
  785MOL0     H 8320   4.245   0.703   7.178  0.6452 -1.5527  1.2042
  785MOL0     H 8321   4.221   0.616   7.019  1.4989  5.0144 -1.8601
  785MOL0     H 8322   4.010   0.615   7.233  0.6518  1.0176  1.5143
  785MOL0     H 8323   4.036   0.495   7.097  0.1306  1.1803 -2.3615
  785MOL0     H 8324   4.220   0.413   7.192 -0.0468 -2.5818  1.9834
  785MOL0     H 8325   4.074   0.396   7.289  1.0469 -1.7957 -2.0028
  785MOL0     H 8326   4.345   0.582   7.553 -0.3668  1.7544  0.1069
  785MOL0     H 8327   4.015   1.017   6.838 -2.3587 -2.3622  0.0173
  785MOL0     H 8328   4.021   1.140   6.543  0.3853  0.3185  1.1812
  785MOL0     H 8329   3.899   1.027   6.510  0.7570 -1.5642  0.6877
  785MOL0     H 8330   3.898   1.089   6.670 -1.2946 -1.6598  0.2056
  786MOL0     O 8331   2.546  10.287   3.983  0.0551  1.4400  0.0506
  786MOL0     C 8332   2.528  10.276   4.106  0.0239  0.5579 -0.5446
  786MOL0     O 8333   2.403  10.251   4.166  0.4761 -0.1136  0.3652
  786MOL0     C 8334   2.291  10.235   4.085 -0.5421  0.8039  0.2225
  786MOL0     C 8335   2.287  10.142   3.986  0.6230  0.9647  0.4954
  786MOL0     C 8336   2.169  10.108   3.917 -0.2511 -0.2727  0.9138
  786MOL0     C 8337   2.051  10.174   3.954 -0.9778 -0.6894 -0.2751
  786MOL0     O 8338   1.929  10.145   3.900  0.9432 -0.0877  0.2981
  786MOL0     C 8339   1.911  10.040   3.806  0.1156 -0.1883  0.0005
  786MOL0     C 8340   1.769   9.993   3.815  0.3275 -0.3700  0.0152
  786MOL0     C 8341   1.754   9.872   3.708  0.5998 -0.5375 -0.2433
  786MOL0     C 8342   1.614   9.808   3.732  0.3045 -0.6245  0.4938
  786MOL0     C 8343   1.600   9.671   3.667  0.1622 -0.0719 -0.3908
  786MOL0     C 8344   1.458   9.605   3.681 -0.7437 -0.7078 -0.1445
  786MOL0     C 8345   1.468   9.447   3.643 -0.4080  0.5547 -0.0462
  786MOL0     C 8346   1.548   9.365   3.738  0.9490 -0.1112  0.0727
  786MOL0     N 8347   1.478   9.367   3.867 -0.1786  0.5823 -0.2660
  786MOL0     C 8348   1.527   9.434   3.977 -0.3148  0.2225 -0.7187
  786MOL0     C 8349   1.426   9.418   4.069  0.4872  0.8952 -0.3126
  786MOL0     C 8350   1.439   9.450   4.222  0.9979  0.2075 -0.3129
  786MOL0     C 8351   1.317   9.521   4.292  0.5449 -0.0347  0.1181
  786MOL0     C 8352   1.278   9.643   4.224  0.5303 -0.2873  0.0266
  786MOL0     C 8353   1.151   9.693   4.287  0.1126  0.4948  0.3470
  786MOL0     O 8354   1.168   9.714   4.429  0.1684 -0.0121 -0.0326
  786MOL0     C 8355   1.063   9.760   4.505  0.2329 -0.4474  0.0003
  786MOL0     C 8356   0.931   9.782   4.455  0.4722  1.1010  0.1439
  786MOL0     C 8357   0.827   9.840   4.528 -0.1351 -0.1879  0.1964
  786MOL0     C 8358   0.696   9.870   4.455  0.1942 -0.2615  0.4686
  786MOL0     C 8359   0.846   9.846   4.664 -0.5718  1.1036 -1.3736
  786MOL0     C 8360   0.729   9.865   4.758  1.2087  0.4145 -0.3015
  786MOL0     O 8361   0.761   9.886   4.890 -0.3153  0.4632  0.2612
  786MOL0     C 8362   0.664   9.905   4.985 -0.2244 -1.0309  0.3845
  786MOL0     C 8363   0.699  10.002   5.087 -0.5444  0.9995  0.1613
  786MOL0     C 8364   0.601  10.030   5.184  1.1507 -0.5557  0.0884
  786MOL0     C 8365   0.464   9.976   5.171  0.7068  0.4845 -1.3852
  786MOL0     O 8366   0.367  10.005   5.263  0.0971 -0.2098 -0.3864
  786MOL0     C 8367   0.360  10.135   5.333  0.9322  0.4380  1.1698
  786MOL0     C 8368   0.211  10.147   5.388  0.1731  0.0672 -0.3121
  786MOL0     C 8369   0.108  10.157   5.276 -0.5369  0.2616 -1.0215
  786MOL0     C 8370   0.092  10.304   5.234 -0.4141 -0.3706  0.8042
  786MOL0     C 8371  -0.005  10.317   5.115 -0.2067  0.3921  0.2335
  786MOL0     C 8372  -0.138  10.255   5.118  0.8559  0.9291  0.0928
  786MOL0     C 8373  -0.217  10.299   4.996  0.2344 -0.3146 -0.7533
  786MOL0     C 8374  -0.368  10.261   5.022 -0.0355 -0.8861 -0.3785
  786MOL0    Cl 8375  -0.375  10.078   5.065 -0.1816 -0.1972 -0.3128
  786MOL0     C 8376   0.441   9.874   5.083  1.3598 -1.4546  0.2613
  786MOL0     C 8377   0.541   9.841   4.989  0.2903 -0.4610  0.4796
  786MOL0     O 8378   0.616   9.855   4.716 -0.2043  1.1792  0.4911
  786MOL0     C 8379   0.983   9.840   4.714  0.2111  0.0887 -0.2123
  786MOL0     C 8380   1.090   9.797   4.635 -0.0806 -0.3254 -0.5520
  786MOL0     N 8381   1.324   9.350   4.019 -0.2105 -0.7561 -0.2182
  786MOL0     N 8382   1.352   9.313   3.899  0.2691  1.3433  0.3822
  786MOL0     C 8383   2.054  10.253   4.067 -0.0569  0.1556 -1.2119
  786MOL0     C 8384   2.172  10.289   4.134  0.3176  0.8848 -0.5099
  786MOL0     C 8385   2.645  10.309   4.194  0.7298 -0.0147  0.5247
  786MOL0     C 8386   2.756  10.368   4.130  0.3562  0.8069  0.2688
  786MOL0     C 8387   2.863  10.408   4.205  0.0187  0.0519 -0.4179
  786MOL0     C 8388   2.871  10.391   4.340  0.1666 -0.5658 -0.3958
  786MOL0     O 8389   2.967  10.425   4.427 -0.1204 -0.3699  0.4495
  786MOL0     C 8390   3.081  10.501   4.391 -0.7050 -0.5421  0.5153
  786MOL0     C 8391   3.049  10.654   4.383  0.2579  0.6006 -0.4144
  786MOL0     C 8392   3.031  10.708   4.525 -0.3596  0.2642 -0.0004
  786MOL0     C 8393   3.042  10.862   4.534  0.3034  0.7233 -1.4491
  786MOL0     C 8394   2.931  10.917   4.453 -0.0683 -0.4246 -0.3361
  786MOL0     C 8395   2.838  10.961   4.391 -0.2433  0.7560  0.7177
  786MOL0     C 8396   2.770  10.317   4.408 -0.5672  0.1831 -0.5107
  786MOL0     C 8397   2.659  10.275   4.331  0.1454  0.3147  0.9842
  786MOL0     C 8398   2.550  10.202   4.401  0.1838  0.7689 -0.6156
  786MOL0     H 8399   2.376  10.091   3.949 -0.8002 -0.4841 -1.1152
  786MOL0     H 8400   2.175  10.035   3.837  0.1807  1.4458 -0.6875
  786MOL0     H 8401   1.971   9.950   3.820 -0.6046 -1.0852 -2.2547
  786MOL0     H 8402   1.926  10.075   3.703  2.9719 -0.0032  0.3879
  786MOL0     H 8403   1.743   9.947   3.911  1.3107 -2.9336 -0.8581
  786MOL0     H 8404   1.712  10.083   3.792  0.8244  0.1096  0.6303
  786MOL0     H 8405   1.754   9.911   3.606 -0.4320  0.4921  0.1309
  786MOL0     H 8406   1.833   9.797   3.718 -0.6374 -1.5814  2.9363
  786MOL0     H 8407   1.575   9.806   3.834 -0.8138  0.0623  0.0927
  786MOL0     H 8408   1.556   9.885   3.681  1.6469 -0.1141 -0.2995
  786MOL0     H 8409   1.673   9.603   3.713  1.8071  1.5120 -0.5423
  786MOL0     H 8410   1.628   9.669   3.561 -0.2979 -1.0970 -0.5023
  786MOL0     H 8411   1.422   9.616   3.784 -2.4699 -1.0007 -0.6889
  786MOL0     H 8412   1.389   9.651   3.611 -0.0523 -1.5571 -1.4398
  786MOL0     H 8413   1.492   9.422   3.539 -0.0252 -0.8398  0.3513
  786MOL0     H 8414   1.367   9.403   3.639  0.6949 -2.1812  0.2088
  786MOL0     H 8415   1.551   9.265   3.694  1.1002 -0.3148  0.5352
  786MOL0     H 8416   1.649   9.406   3.748  1.4034 -0.2535 -2.9093
  786MOL0     H 8417   1.623   9.480   4.001 -1.3393  2.5936 -0.9264
  786MOL0     H 8418   1.524   9.518   4.233  0.1554  1.4823 -1.3505
  786MOL0     H 8419   1.453   9.360   4.283  4.3135  0.2705 -0.7964
  786MOL0     H 8420   1.236   9.448   4.290  0.4159  0.0931  0.6976
  786MOL0     H 8421   1.350   9.535   4.395  2.2570  0.6638 -0.4723
  786MOL0     H 8422   1.346   9.728   4.233 -3.5930  3.1468  2.1279
  786MOL0     H 8423   1.266   9.624   4.117 -1.8850 -1.8744  0.4948
  786MOL0     H 8424   1.132   9.787   4.234  0.9413 -0.2717 -1.3701
  786MOL0     H 8425   1.080   9.615   4.258  1.1296 -1.3766  2.5332
  786MOL0     H 8426   0.916   9.768   4.348 -0.0991 -0.4506  0.4053
  786MOL0     H 8427   0.649   9.961   4.495  2.5494  0.8260  0.9162
  786MOL0     H 8428   0.635   9.779   4.464  0.4218 -0.7453 -2.1864
  786MOL0     H 8429   0.728   9.881   4.351  2.7532 -0.5637  1.1579
  786MOL0     H 8430   0.802  10.037   5.091  0.1411 -0.8688 -0.1549
  786MOL0     H 8431   0.625  10.100   5.264  1.1411 -0.9662  0.4544
  786MOL0     H 8432   0.427  10.145   5.418 -0.5614  1.6243  2.2519
  786MOL0     H 8433   0.374  10.220   5.265  1.1545 -0.8764 -0.5198
  786MOL0     H 8434   0.188  10.054   5.442  1.7447 -0.3948 -0.3841
  786MOL0     H 8435   0.210  10.235   5.453 -0.5659  0.9883 -1.5494
  786MOL0     H 8436   0.008  10.131   5.311 -0.9137 -3.7508 -4.4190
  786MOL0     H 8437   0.133  10.090   5.193  1.2660 -0.1111 -0.2361
  786MOL0     H 8438   0.183  10.355   5.203 -1.1703  0.3506 -0.3169
  786MOL0     H 8439   0.054  10.362   5.319  1.1206  1.3036  0.4168
  786MOL0     H 8440  -0.021  10.425   5.104 -2.7999 -0.0781 -1.3525
  786MOL0     H 8441   0.049  10.285   5.026 -3.3413 -4.4916 -0.2725
  786MOL0     H 8442  -0.188  10.303   5.202  1.9922  1.9059  0.2408
  786MOL0     H 8443  -0.130  10.148   5.139 -1.1743  0.6833 -0.1241
  786MOL0     H 8444  -0.196  10.245   4.904 -1.9884 -4.6370  0.9997
  786MOL0     H 8445  -0.215  10.408   4.983  0.6219 -0.0316  1.3255
  786MOL0     H 8446  -0.437  10.277   4.938 -1.0883 -0.9495  0.4533
  786MOL0     H 8447  -0.405  10.323   5.104  2.9432 -0.2135  0.5719
  786MOL0     H 8448   0.338   9.842   5.072 -0.9461  4.6356 -0.0723
  786MOL0     H 8449   0.508   9.771   4.914  0.1551 -1.0559  1.0845
  786MOL0     H 8450   0.998   9.889   4.809  2.0497 -1.6381  0.4545
  786MOL0     H 8451   1.191   9.806   4.674  0.3404 -0.6513 -1.5511
  786MOL0     H 8452   1.958  10.285   4.106 -0.0415 -1.2040  0.0234
  786MOL0     H 8453   2.160  10.345   4.226 -1.0592 -1.6050  0.9177
  786MOL0     H 8454   2.758  10.385   4.023 -0.4417 -0.1092  0.0958
  786MOL0     H 8455   2.949  10.445   4.150  0.3127 -0.5898 -0.4068
  786MOL0     H 8456   3.151  10.481   4.472 -1.3020 -0.8894  0.9530
  786MOL0     H 8457   3.122  10.464   4.296 -0.4636 -0.8750  0.7473
  786MOL0     H 8458   2.957  10.657   4.324 -1.2365 -1.7972  1.5779
  786MOL0     H 8459   3.137  10.707   4.345  1.3934 -0.4248  0.7256
  786MOL0     H 8460   2.935  10.679   4.569 -0.0439 -2.4345 -0.8943
  786MOL0     H 8461   3.112  10.667   4.585 -1.6383 -3.4379 -0.5218
  786MOL0     H 8462   3.138  10.907   4.507 -0.0042  2.6730  0.4748
  786MOL0     H 8463   3.021  10.881   4.639 -0.7809 -0.6764 -1.3747
  786MOL0     H 8464   2.756  10.999   4.334 -1.3466 -3.1523 -0.6423
  786MOL0     H 8465   2.790  10.299   4.514  2.4133  1.7042 -0.6890
  786MOL0     H 8466   2.544  10.098   4.367 -0.7828  0.3983  0.6247
  786MOL0     H 8467   2.556  10.206   4.510 -3.7495 -2.6358 -0.0176
  786MOL0     H 8468   2.457  10.258   4.389 -0.9594 -0.8437  0.3517
  787MOL0     O 8469   3.809   0.491   3.325  0.4316 -0.3092 -0.2880
  787MOL0     C 8470   3.873   0.430   3.241  0.0900  0.3664 -0.6484
  787MOL0     O 8471   3.887   0.463   3.114  0.2589  0.7896 -0.6380
  787MOL0     C 8472   3.848   0.588   3.069 -0.0987 -0.4706  0.0069
  787MOL0     C 8473   3.948   0.665   3.003 -0.1840 -0.1628 -0.2534
  787MOL0     C 8474   3.928   0.787   2.951 -0.5703  0.0716 -0.5235
  787MOL0     C 8475   3.801   0.841   2.974 -0.6383 -0.5753 -0.5876
  787MOL0     O 8476   3.758   0.970   2.952 -1.0912  0.5195  0.0445
  787MOL0     C 8477   3.861   1.069   2.947  0.1917 -0.2566  0.0083
  787MOL0     C 8478   3.809   1.175   2.841  0.4330  1.2367 -0.6949
  787MOL0     C 8479   3.913   1.278   2.816 -0.4456 -0.2221  0.6698
  787MOL0     C 8480   3.861   1.396   2.733  0.1653 -0.3682  1.2573
  787MOL0     C 8481   3.984   1.463   2.682  0.5458 -0.3896  0.1944
  787MOL0     C 8482   3.965   1.595   2.608  0.2459  0.2616 -0.2016
  787MOL0     C 8483   4.106   1.653   2.565  0.9868  0.0399  0.2330
  787MOL0     C 8484   4.081   1.794   2.504  0.3270  0.1414 -0.6227
  787MOL0     N 8485   4.206   1.864   2.481 -1.0897 -0.0454 -0.9732
  787MOL0     C 8486   4.261   1.943   2.579  0.7185 -0.5368  0.7717
  787MOL0     C 8487   4.362   2.010   2.527 -0.0520  0.5503  0.7430
  787MOL0     C 8488   4.445   2.119   2.571  0.0450  0.8425 -1.1700
  787MOL0     C 8489   4.409   2.167   2.712 -0.0246 -0.7606 -0.9394
  787MOL0     C 8490   4.479   2.308   2.743 -0.2399 -0.0194 -0.8521
  787MOL0     C 8491   4.623   2.295   2.781 -0.0445  0.6224 -0.3119
  787MOL0     O 8492   4.707   2.250   2.678 -0.2127  0.8150 -0.4098
  787MOL0     C 8493   4.774   2.337   2.602  0.2098  0.4969 -0.2357
  787MOL0     C 8494   4.756   2.476   2.591  0.1508 -0.1035  0.3347
  787MOL0     C 8495   4.843   2.567   2.527  0.5123  0.3644  0.7030
  787MOL0     C 8496   4.803   2.714   2.517 -0.3802  0.0949 -0.7655
  787MOL0     C 8497   4.957   2.512   2.466  0.0024 -0.1381 -0.2135
  787MOL0     C 8498   5.045   2.587   2.367 -0.3046 -0.0348  1.0266
  787MOL0     O 8499   5.056   2.552   2.233 -0.9596  0.4023 -0.5799
  787MOL0     C 8500   4.950   2.507   2.159 -0.4445  0.0091  0.5654
  787MOL0     C 8501   4.812   2.536   2.166 -0.0740 -0.4060  0.1151
  787MOL0     C 8502   4.728   2.478   2.077  0.1940 -0.6871  0.1762
  787MOL0     C 8503   4.768   2.406   1.962  0.5519  0.1139 -0.5560
  787MOL0     O 8504   4.675   2.391   1.860 -0.0737 -0.0777  0.6269
  787MOL0     C 8505   4.713   2.325   1.741  0.2792 -0.5538  0.4932
  787MOL0     C 8506   4.608   2.345   1.630  0.7989 -0.0358 -0.2970
  787MOL0     C 8507   4.458   2.328   1.684  0.6985 -0.5738  0.2391
  787MOL0     C 8508   4.422   2.182   1.711  0.4162  0.9586  0.1105
  787MOL0     C 8509   4.274   2.147   1.746  0.1142 -0.5844 -0.6064
  787MOL0     C 8510   4.189   2.201   1.631  0.0494  0.5271 -0.4056
  787MOL0     C 8511   4.054   2.130   1.649 -0.2977 -0.4471  0.9418
  787MOL0     C 8512   3.980   2.144   1.784  0.1471 -0.0104 -0.1009
  787MOL0    Cl 8513   3.946   2.315   1.822  0.2038  0.1568 -0.5210
  787MOL0     C 8514   4.907   2.369   1.957 -0.4356  0.3312  0.2930
  787MOL0     C 8515   4.992   2.416   2.058  0.1956 -0.4248  0.3625
  787MOL0     O 8516   5.113   2.672   2.421  0.0759 -0.0069 -0.3101
  787MOL0     C 8517   4.978   2.373   2.472  0.6206 -1.0718 -0.1365
  787MOL0     C 8518   4.888   2.287   2.537  0.5059  0.6026  1.2200
  787MOL0     N 8519   4.368   1.972   2.395 -0.3453  0.4077  0.1644
  787MOL0     N 8520   4.278   1.882   2.369 -0.0207  0.1910 -0.1609
  787MOL0     C 8521   3.697   0.771   3.031  0.2216 -0.1041  1.3722
  787MOL0     C 8522   3.715   0.639   3.078  0.8491  0.2694  0.4039
  787MOL0     C 8523   3.918   0.293   3.274 -0.4870 -0.6819 -0.4686
  787MOL0     C 8524   3.884   0.188   3.198 -0.5705  0.9160 -0.0674
  787MOL0     C 8525   3.918   0.057   3.225 -1.2249  0.6932 -0.4952
  787MOL0     C 8526   3.994   0.030   3.337 -0.4286 -1.0613 -0.5148
  787MOL0     O 8527   4.049  -0.085   3.367  0.6584  0.0228 -0.0169
  787MOL0     C 8528   4.054  -0.188   3.266 -0.4274  0.1160  0.1050
  787MOL0     C 8529   4.105  -0.316   3.333 -0.1141  1.5702  1.0368
  787MOL0     C 8530   3.988  -0.390   3.389 -0.5489  1.1624  0.4485
  787MOL0     C 8531   4.031  -0.504   3.492  0.4231 -0.7938  0.1809
  787MOL0     C 8532   4.166  -0.564   3.475 -0.0777 -0.3286 -0.6461
  787MOL0     C 8533   4.280  -0.619   3.471 -0.4035 -0.7596  0.1516
  787MOL0     C 8534   4.024   0.138   3.421 -0.5348 -0.0680  0.4389
  787MOL0     C 8535   3.984   0.267   3.394 -0.0174 -0.3047  0.4303
  787MOL0     C 8536   4.013   0.380   3.491  0.0047 -0.0752  0.3626
  787MOL0     H 8537   4.037   0.606   2.984 -0.3202 -0.2407 -0.6435
  787MOL0     H 8538   3.999   0.839   2.887 -2.1175  0.4133 -2.0416
  787MOL0     H 8539   3.961   1.035   2.918 -0.7032 -3.1414  0.0926
  787MOL0     H 8540   3.883   1.107   3.048  3.2574  2.4951 -1.5285
  787MOL0     H 8541   3.787   1.128   2.745  1.2253 -2.2535  0.6748
  787MOL0     H 8542   3.714   1.215   2.875 -0.5169 -0.1951 -1.5593
  787MOL0     H 8543   3.943   1.310   2.917  0.2101 -1.1768  0.7985
  787MOL0     H 8544   3.995   1.232   2.759 -0.3574  3.0990 -2.1479
  787MOL0     H 8545   3.796   1.372   2.648  1.4497 -0.2632  0.2058
  787MOL0     H 8546   3.810   1.467   2.799  1.1323  0.6038  1.0022
  787MOL0     H 8547   4.034   1.390   2.617 -0.5710 -1.5377  0.5692
  787MOL0     H 8548   4.058   1.481   2.760  0.2889 -4.0299  1.4701
  787MOL0     H 8549   3.890   1.574   2.532 -0.8339 -3.5530  1.7068
  787MOL0     H 8550   3.919   1.661   2.682 -1.6933 -0.9790 -0.2306
  787MOL0     H 8551   4.143   1.579   2.493 -2.2601 -2.5663  1.0093
  787MOL0     H 8552   4.173   1.664   2.651 -0.2602 -1.3155  1.4122
  787MOL0     H 8553   4.032   1.776   2.407 -0.5285 -1.8836  0.1150
  787MOL0     H 8554   4.017   1.855   2.568  0.1370 -0.5100 -0.1871
  787MOL0     H 8555   4.221   1.950   2.680  1.9062  0.7583  1.1972
  787MOL0     H 8556   4.420   2.192   2.493 -3.5439 -2.2067 -3.2077
  787MOL0     H 8557   4.552   2.095   2.561 -0.2021 -1.2314  0.5619
  787MOL0     H 8558   4.301   2.181   2.718  0.1408  0.0202  1.0483
  787MOL0     H 8559   4.447   2.084   2.772 -0.2786 -1.3197 -1.5362
  787MOL0     H 8560   4.465   2.366   2.652 -1.4658  0.1716 -0.5527
  787MOL0     H 8561   4.423   2.362   2.819 -1.7424 -3.5913  0.7947
  787MOL0     H 8562   4.649   2.392   2.826  0.3429  0.6728 -0.6376
  787MOL0     H 8563   4.638   2.224   2.863 -1.7037 -2.0504 -2.1905
  787MOL0     H 8564   4.668   2.519   2.639  0.9131  1.6783  0.2354
  787MOL0     H 8565   4.694   2.710   2.510 -0.7615  3.4187  1.1096
  787MOL0     H 8566   4.853   2.773   2.440 -0.0421  1.1947  0.2607
  787MOL0     H 8567   4.816   2.768   2.611 -1.6298  1.9295 -1.5980
  787MOL0     H 8568   4.761   2.593   2.244 -2.5759  0.0033 -1.7152
  787MOL0     H 8569   4.621   2.488   2.093 -0.0839 -0.0043 -1.7694
  787MOL0     H 8570   4.806   2.372   1.705 -0.3185 -0.1268 -0.5313
  787MOL0     H 8571   4.720   2.218   1.760  1.1614 -1.0429 -2.0961
  787MOL0     H 8572   4.626   2.445   1.590  1.8575 -0.5688 -1.2052
  787MOL0     H 8573   4.630   2.271   1.553  1.5864 -0.8682  0.7009
  787MOL0     H 8574   4.390   2.366   1.608 -1.2086 -3.2157  0.4784
  787MOL0     H 8575   4.449   2.390   1.773  2.2667  3.1424 -1.9629
  787MOL0     H 8576   4.483   2.134   1.788 -0.2518  2.0427  1.3557
  787MOL0     H 8577   4.439   2.141   1.611 -0.2746  2.4592 -0.6630
  787MOL0     H 8578   4.265   2.038   1.757 -0.5601 -0.3121  2.2297
  787MOL0     H 8579   4.255   2.193   1.843  1.2595 -0.4398 -0.4308
  787MOL0     H 8580   4.220   2.185   1.528  2.2173 -4.1802  0.7275
  787MOL0     H 8581   4.180   2.309   1.649  1.6236  0.5250  0.5637
  787MOL0     H 8582   4.051   2.023   1.629 -1.6587 -0.0957 -1.0308
  787MOL0     H 8583   3.991   2.165   1.567  1.1856 -0.1669 -0.1006
  787MOL0     H 8584   4.032   2.090   1.864  1.3446 -0.8812 -1.4173
  787MOL0     H 8585   3.879   2.108   1.768  0.6408 -0.1303 -3.9072
  787MOL0     H 8586   4.946   2.309   1.875  2.5853 -1.6237  2.9217
  787MOL0     H 8587   5.096   2.385   2.055 -0.5038 -3.0353  0.8617
  787MOL0     H 8588   5.064   2.328   2.423  2.1477 -0.6342  1.9931
  787MOL0     H 8589   4.911   2.181   2.527  0.5499  0.8457 -3.6663
  787MOL0     H 8590   3.602   0.819   3.057 -0.2325 -0.8049  1.0200
  787MOL0     H 8591   3.638   0.590   3.137 -1.0649  3.0995  0.4645
  787MOL0     H 8592   3.826   0.201   3.108 -1.2797 -0.4060  0.1777
  787MOL0     H 8593   3.898  -0.028   3.160 -0.3032 -1.6950  2.1204
  787MOL0     H 8594   3.955  -0.211   3.227 -1.1300  2.4106  0.4429
  787MOL0     H 8595   4.127  -0.166   3.187 -0.1437  0.0953  0.3612
  787MOL0     H 8596   4.179  -0.307   3.413  2.5677  0.5544 -1.1751
  787MOL0     H 8597   4.149  -0.379   3.256  0.2052  1.8619  0.9793
  787MOL0     H 8598   3.908  -0.321   3.418 -2.7061 -0.5566 -1.0157
  787MOL0     H 8599   3.936  -0.439   3.305 -1.4859  4.6313 -1.1769
  787MOL0     H 8600   3.962  -0.589   3.490  0.3248 -0.7193  0.3625
  787MOL0     H 8601   4.029  -0.472   3.597 -3.4975 -1.3846  0.4272
  787MOL0     H 8602   4.370  -0.675   3.457  2.2839  2.5437  2.5009
  787MOL0     H 8603   4.069   0.115   3.517 -0.1598 -1.7661 -0.1073
  787MOL0     H 8604   4.080   0.353   3.574  0.3931 -1.4942 -0.3858
  787MOL0     H 8605   4.070   0.457   3.438 -2.9601  2.2312  0.2675
  787MOL0     H 8606   3.928   0.429   3.539  2.7525  2.7355  2.8495
  788MOL0     O 8607  11.296   3.622   6.838  0.0530 -1.0173  0.2015
  788MOL0     C 8608  11.243   3.514   6.854 -0.3911  0.3432 -0.2726
  788MOL0     O 8609  11.131   3.498   6.917  0.2165 -0.0368 -0.7319
  788MOL0     C 8610  11.060   3.604   6.959  0.3113  0.1043  1.0738
  788MOL0     C 8611  10.986   3.681   6.871  0.0717 -0.5105 -0.6069
  788MOL0     C 8612  10.929   3.806   6.909 -0.4854  0.2940  0.0728
  788MOL0     C 8613  10.928   3.835   7.046 -0.1130 -0.9013  0.1006
  788MOL0     O 8614  10.869   3.956   7.089 -0.0896  0.0045 -0.5347
  788MOL0     C 8615  10.808   4.042   6.992  0.6652  1.2707 -0.9119
  788MOL0     C 8616  10.772   4.168   7.056 -0.1367 -0.6798 -0.1905
  788MOL0     C 8617  10.624   4.217   7.009  0.2783  0.9409  0.0507
  788MOL0     C 8618  10.519   4.152   7.100  0.2442 -0.2614  0.0095
  788MOL0     C 8619  10.383   4.188   7.048 -0.2948  0.5341  0.0740
  788MOL0     C 8620  10.274   4.107   7.127 -0.3712  0.2998 -0.3588
  788MOL0     C 8621  10.121   4.134   7.078 -1.1938  0.6579  0.1732
  788MOL0     C 8622  10.093   4.059   6.951  0.0256  0.3041 -0.3919
  788MOL0     N 8623   9.955   4.065   6.899  0.4839 -0.1477  0.4092
  788MOL0     C 8624   9.898   4.162   6.827 -0.5556  0.2977 -0.4178
  788MOL0     C 8625   9.771   4.134   6.816  0.2056 -0.7487  0.0894
  788MOL0     C 8626   9.648   4.203   6.759 -0.3759  0.3848 -0.3931
  788MOL0     C 8627   9.674   4.309   6.659 -0.0811 -0.7644  0.6909
  788MOL0     C 8628   9.540   4.364   6.607 -0.8086 -0.2061  0.1255
  788MOL0     C 8629   9.491   4.477   6.705 -0.1140 -0.5020 -1.0021
  788MOL0     O 8630   9.414   4.424   6.820 -0.6433  1.0187  0.0443
  788MOL0     C 8631   9.366   4.498   6.917 -0.3644  0.3337  0.2221
  788MOL0     C 8632   9.429   4.615   6.964  1.0493  0.7668  0.5576
  788MOL0     C 8633   9.358   4.700   7.053  0.9568  0.3564  0.3688
  788MOL0     C 8634   9.424   4.829   7.085 -1.2673  0.8873  0.5981
  788MOL0     C 8635   9.227   4.659   7.099 -0.8926 -0.4682  0.5052
  788MOL0     C 8636   9.147   4.742   7.201  0.0370 -0.9264  1.0798
  788MOL0     O 8637   9.020   4.752   7.162  0.2406 -0.2263  0.1518
  788MOL0     C 8638   8.923   4.759   7.254  0.9218  0.2175 -0.0208
  788MOL0     C 8639   8.921   4.677   7.374 -0.3509 -0.3343  0.0171
  788MOL0     C 8640   8.813   4.683   7.462  0.5705  0.6581 -0.5427
  788MOL0     C 8641   8.703   4.776   7.440 -0.3933  0.2513  0.1123
  788MOL0     O 8642   8.607   4.775   7.532 -0.6271  0.0416 -0.7321
  788MOL0     C 8643   8.561   4.905   7.574  0.3098  0.8789  0.4459
  788MOL0     C 8644   8.525   4.882   7.725 -0.0428  0.7171 -0.2457
  788MOL0     C 8645   8.639   4.862   7.824 -0.0067 -0.0634  0.5476
  788MOL0     C 8646   8.603   4.772   7.933 -0.5754  1.1393  0.6444
  788MOL0     C 8647   8.680   4.792   8.061 -0.2255  0.8491 -1.9317
  788MOL0     C 8648   8.660   4.678   8.164 -0.4019  0.3815 -0.5094
  788MOL0     C 8649   8.749   4.682   8.297 -0.0915 -0.6538 -0.5563
  788MOL0     C 8650   8.741   4.564   8.389 -0.0472 -0.0678 -0.2450
  788MOL0    Cl 8651   8.861   4.442   8.328  0.4169 -0.3354  0.1539
  788MOL0     C 8652   8.705   4.857   7.325 -0.0549 -0.8449 -0.2962
  788MOL0     C 8653   8.806   4.839   7.231 -0.8795  0.4965 -0.4052
  788MOL0     O 8654   9.193   4.791   7.303 -0.1222 -0.0801 -0.4416
  788MOL0     C 8655   9.167   4.537   7.055 -0.1597 -0.8117 -0.1933
  788MOL0     C 8656   9.235   4.458   6.963 -0.2441 -0.2338  0.5560
  788MOL0     N 8657   9.741   4.016   6.886 -0.4401  0.0012 -0.4626
  788MOL0     N 8658   9.861   3.974   6.928  0.2270  0.2878  0.3484
  788MOL0     C 8659  11.001   3.748   7.135 -0.0571 -0.4007 -1.2026
  788MOL0     C 8660  11.067   3.640   7.094  1.2343 -0.0987  0.2611
  788MOL0     C 8661  11.316   3.392   6.804 -0.8843 -1.1476 -0.5717
  788MOL0     C 8662  11.309   3.274   6.879  0.8439 -0.8099  0.2769
  788MOL0     C 8663  11.384   3.162   6.856 -0.1740  0.1091 -0.1522
  788MOL0     C 8664  11.479   3.163   6.759 -0.3325 -0.0427 -0.3624
  788MOL0     O 8665  11.553   3.050   6.735 -0.0297  0.7091 -0.5542
  788MOL0     C 8666  11.637   3.007   6.843  0.2880  0.9949 -0.8148
  788MOL0     C 8667  11.759   3.095   6.832  0.6238 -0.2797 -0.0297
  788MOL0     C 8668  11.874   3.055   6.928 -0.7824  0.2962  0.4192
  788MOL0     C 8669  11.822   3.007   7.067  0.2436 -0.4244 -0.1408
  788MOL0     C 8670  11.920   2.978   7.183  0.1262 -0.1915  0.4818
  788MOL0     C 8671  11.976   2.917   7.274  0.1776 -0.6418 -0.5803
  788MOL0     C 8672  11.485   3.272   6.676  0.1265  0.2119  0.3880
  788MOL0     C 8673  11.407   3.387   6.692  0.2678  0.0556  0.8835
  788MOL0     C 8674  11.402   3.506   6.599 -0.2259 -0.1995 -0.7161
  788MOL0     H 8675  10.980   3.654   6.766 -3.6301 -0.4947 -0.5228
  788MOL0     H 8676  10.870   3.856   6.833  2.3824 -0.4936 -2.8750
  788MOL0     H 8677  10.710   4.004   6.961  0.4598 -1.2409  2.2780
  788MOL0     H 8678  10.881   4.052   6.911  1.2522  1.4556 -0.3756
  788MOL0     H 8679  10.764   4.175   7.164 -0.3626  2.6211 -0.3348
  788MOL0     H 8680  10.852   4.238   7.030  1.3232 -1.0325  2.8934
  788MOL0     H 8681  10.617   4.325   7.028 -3.2673  0.7015  0.7685
  788MOL0     H 8682  10.602   4.197   6.904  3.6269  0.4756 -0.6733
  788MOL0     H 8683  10.546   4.046   7.088  1.4759  0.1791 -1.3250
  788MOL0     H 8684  10.539   4.183   7.203  3.7707  3.7396 -1.5956
  788MOL0     H 8685  10.388   4.143   6.949 -0.4871 -4.2592  1.9958
  788MOL0     H 8686  10.359   4.295   7.048 -0.3780  0.5319  1.4756
  788MOL0     H 8687  10.300   4.001   7.115 -0.0280  0.6774 -3.7261
  788MOL0     H 8688  10.270   4.125   7.235 -2.8245  1.3167 -0.5492
  788MOL0     H 8689  10.123   4.242   7.060  1.5618  1.3699  3.6562
  788MOL0     H 8690  10.062   4.105   7.165 -1.3800  2.3206  0.6349
  788MOL0     H 8691  10.158   4.098   6.871 -3.2358  2.5281 -2.1877
  788MOL0     H 8692  10.096   3.952   6.969  0.0206  0.2891 -0.4803
  788MOL0     H 8693   9.952   4.249   6.789 -0.2187 -0.7975 -2.6196
  788MOL0     H 8694   9.604   4.259   6.842  0.4297  0.4397  0.0068
  788MOL0     H 8695   9.591   4.122   6.713  3.2369 -1.4214 -2.1415
  788MOL0     H 8696   9.724   4.395   6.706 -1.3077 -1.0412  2.6263
  788MOL0     H 8697   9.740   4.277   6.578 -1.1249  0.7271 -0.8102
  788MOL0     H 8698   9.570   4.423   6.521 -0.3412  1.6407  1.4980
  788MOL0     H 8699   9.465   4.286   6.589 -0.5375 -0.7214  1.1240
  788MOL0     H 8700   9.573   4.544   6.735 -1.1692  0.1286  0.5437
  788MOL0     H 8701   9.431   4.546   6.644 -0.1688 -0.7490 -1.2272
  788MOL0     H 8702   9.524   4.649   6.925 -0.1797  1.1464 -2.3234
  788MOL0     H 8703   9.371   4.897   7.152  2.9925  0.7357  4.7085
  788MOL0     H 8704   9.464   4.882   6.999  0.3290 -0.7346  0.2770
  788MOL0     H 8705   9.517   4.806   7.138 -0.8313  2.4622  0.5689
  788MOL0     H 8706   9.004   4.608   7.387 -1.6823 -1.9357  0.3900
  788MOL0     H 8707   8.817   4.611   7.543  1.1808 -1.8495 -2.6794
  788MOL0     H 8708   8.642   4.978   7.572  1.1786  0.2838  4.5711
  788MOL0     H 8709   8.472   4.938   7.520  1.5459  0.9199 -1.6517
  788MOL0     H 8710   8.458   4.956   7.770 -0.2601  0.0794  0.4880
  788MOL0     H 8711   8.473   4.786   7.713 -1.0267  0.9258  1.9402
  788MOL0     H 8712   8.672   4.959   7.864 -2.6007  1.2651 -0.2746
  788MOL0     H 8713   8.729   4.824   7.775  0.0432  2.7641 -1.8355
  788MOL0     H 8714   8.634   4.674   7.894 -1.0482  0.8794  0.9132
  788MOL0     H 8715   8.496   4.770   7.956 -1.7961  0.0564 -3.9605
  788MOL0     H 8716   8.788   4.798   8.043  0.4922  1.3439  1.7565
  788MOL0     H 8717   8.647   4.882   8.114  0.0579 -1.1157  1.9004
  788MOL0     H 8718   8.689   4.584   8.116 -0.5161  0.5352 -0.8771
  788MOL0     H 8719   8.552   4.684   8.181 -1.2638 -1.1006 -4.4443
  788MOL0     H 8720   8.709   4.767   8.352 -0.6930  0.9829 -3.3507
  788MOL0     H 8721   8.852   4.696   8.261 -0.4207  0.8999 -0.9309
  788MOL0     H 8722   8.637   4.531   8.394 -0.3223  0.9628  2.2273
  788MOL0     H 8723   8.761   4.595   8.492 -0.3191 -0.0003 -0.2101
  788MOL0     H 8724   8.627   4.932   7.320 -0.9112 -1.6257  0.7854
  788MOL0     H 8725   8.824   4.895   7.140  5.2168  1.3903  0.9456
  788MOL0     H 8726   9.067   4.506   7.084  0.3406 -1.1092  1.2831
  788MOL0     H 8727   9.200   4.363   6.925  0.8602  0.6450 -3.0112
  788MOL0     H 8728  11.010   3.777   7.239 -0.2340  0.9239 -1.5339
  788MOL0     H 8729  11.124   3.591   7.173  1.5293 -1.1759 -0.5921
  788MOL0     H 8730  11.238   3.276   6.961 -0.1474  0.1616 -0.5849
  788MOL0     H 8731  11.373   3.069   6.910 -0.9369  0.2481 -0.0499
  788MOL0     H 8732  11.590   2.996   6.941  1.6911 -3.9993 -0.4196
  788MOL0     H 8733  11.676   2.906   6.831 -0.7854  0.5545 -0.6855
  788MOL0     H 8734  11.719   3.194   6.855 -2.5908 -1.3995 -0.3415
  788MOL0     H 8735  11.792   3.106   6.728 -0.1470 -0.5234 -0.3076
  788MOL0     H 8736  11.942   2.980   6.886 -1.0583  0.0663  0.3757
  788MOL0     H 8737  11.936   3.143   6.947  1.5626 -0.8348 -1.3970
  788MOL0     H 8738  11.758   2.919   7.055 -0.3266  0.1716 -1.8053
  788MOL0     H 8739  11.764   3.092   7.104 -0.5277 -0.1365 -1.8920
  788MOL0     H 8740  12.033   2.863   7.347 -0.6420  0.1678  0.7035
  788MOL0     H 8741  11.550   3.266   6.589  1.7685 -0.1873  1.5889
  788MOL0     H 8742  11.448   3.483   6.503  2.0116  1.0731 -0.0112
  788MOL0     H 8743  11.300   3.538   6.576  0.4454  1.5739 -1.3678
  788MOL0     H 8744  11.460   3.586   6.646 -1.4012 -1.4450  3.2564
  789MOL0     O 8745   7.314   0.834  10.613 -0.4152 -0.0333  0.0632
  789MOL0     C 8746   7.288   0.735  10.547  0.2571 -0.0758 -0.9452
  789MOL0     O 8747   7.381   0.644  10.517 -0.3265  0.0753  0.7713
  789MOL0     C 8748   7.507   0.642  10.582  1.1413 -0.0844  0.0085
  789MOL0     C 8749   7.621   0.660  10.509  0.3263  0.4927  0.0747
  789MOL0     C 8750   7.740   0.671  10.574 -0.1147 -0.5146 -0.1228
  789MOL0     C 8751   7.751   0.655  10.707  0.4358 -1.2134 -0.9312
  789MOL0     O 8752   7.872   0.692  10.758 -0.1414  0.7092 -0.1604
  789MOL0     C 8753   7.923   0.624  10.877  0.6652 -0.1942 -0.2038
  789MOL0     C 8754   7.982   0.719  10.975 -0.3582 -0.5636  0.5611
  789MOL0     C 8755   7.884   0.779  11.074  0.1679 -0.0220 -0.0036
  789MOL0     C 8756   7.965   0.853  11.187 -0.9595  0.1757 -0.1703
  789MOL0     C 8757   7.866   0.898  11.292 -0.4437  0.8392 -0.4805
  789MOL0     C 8758   7.935   0.951  11.417 -0.5744  0.2503  1.3419
  789MOL0     C 8759   7.867   0.912  11.545 -0.1006  0.5855 -0.7782
  789MOL0     C 8760   7.919   1.007  11.648  0.0861  0.2922 -0.9030
  789MOL0     N 8761   7.876   1.144  11.633  0.0503 -0.1191  0.8532
  789MOL0     C 8762   7.751   1.183  11.588 -0.4032  0.4719 -0.4494
  789MOL0     C 8763   7.772   1.318  11.560  0.9542  0.7496 -0.5337
  789MOL0     C 8764   7.665   1.417  11.522  0.6470  0.0878 -0.2648
  789MOL0     C 8765   7.636   1.411  11.368  1.3797  0.8974 -0.6693
  789MOL0     C 8766   7.515   1.488  11.311 -0.3094 -0.0748 -0.0757
  789MOL0     C 8767   7.498   1.453  11.161 -0.2334 -0.5529 -0.5453
  789MOL0     O 8768   7.417   1.558  11.098  0.0101  1.0135 -0.5028
  789MOL0     C 8769   7.395   1.564  10.966  0.6832  0.2960 -0.0635
  789MOL0     C 8770   7.296   1.654  10.918  0.5446  0.3554 -0.6175
  789MOL0     C 8771   7.287   1.684  10.785 -1.2124 -0.3070  1.0692
  789MOL0     C 8772   7.189   1.796  10.751 -0.9804  0.2765  0.3017
  789MOL0     C 8773   7.349   1.605  10.685  0.8457 -0.3898 -0.8494
  789MOL0     C 8774   7.330   1.620  10.538 -0.0470  0.7598  0.9369
  789MOL0     O 8775   7.229   1.687  10.483 -0.0164 -0.6261  0.0299
  789MOL0     C 8776   7.162   1.665  10.369  1.4909  1.0238 -0.4577
  789MOL0     C 8777   7.035   1.731  10.351  0.2557  0.1000  0.0304
  789MOL0     C 8778   6.951   1.720  10.235 -1.0589  0.2257 -0.3676
  789MOL0     C 8779   6.994   1.622  10.139 -0.8524 -1.1806 -1.0257
  789MOL0     O 8780   6.936   1.590  10.020  0.8435  0.8968 -0.3589
  789MOL0     C 8781   6.864   1.687   9.953  0.4366 -0.3381  1.1328
  789MOL0     C 8782   6.856   1.642   9.803 -0.9774  0.3277  0.1706
  789MOL0     C 8783   6.778   1.526   9.773  0.4081  0.6014  0.4378
  789MOL0     C 8784   6.627   1.539   9.818 -0.5622 -0.0656  0.1463
  789MOL0     C 8785   6.541   1.646   9.758 -0.4042 -0.1448  0.0489
  789MOL0     C 8786   6.392   1.628   9.786  0.6211  0.2539  0.1787
  789MOL0     C 8787   6.341   1.738   9.881  0.6611  0.2826 -0.2390
  789MOL0     C 8788   6.332   1.871   9.804  0.3127 -0.4333 -0.7191
  789MOL0    Cl 8789   6.266   2.018   9.882  0.1845 -0.2499 -0.1522
  789MOL0     C 8790   7.114   1.556  10.162  1.2144 -0.1861  0.7128
  789MOL0     C 8791   7.206   1.579  10.266 -0.1798  0.2736  0.6155
  789MOL0     O 8792   7.412   1.552  10.469 -0.3316 -0.5454 -0.2739
  789MOL0     C 8793   7.448   1.514  10.735 -0.1720  0.3619  0.3697
  789MOL0     C 8794   7.465   1.489  10.872 -0.2387 -0.2898  0.9278
  789MOL0     N 8795   7.909   1.348  11.565 -0.6078 -0.5356 -0.4477
  789MOL0     N 8796   7.966   1.244  11.616  0.0186  0.1746 -0.8609
  789MOL0     C 8797   7.637   0.634  10.784 -0.1913  0.1161 -0.4019
  789MOL0     C 8798   7.517   0.629  10.722 -0.2007  0.1883  0.5545
  789MOL0     C 8799   7.154   0.706  10.513  0.8150 -0.7181  0.7081
  789MOL0     C 8800   7.129   0.576  10.456  0.4104  0.3592 -0.2238
  789MOL0     C 8801   6.996   0.530  10.436  0.3886 -0.5867 -0.0665
  789MOL0     C 8802   6.887   0.611  10.450  0.2869  1.1913 -0.1629
  789MOL0     O 8803   6.761   0.582  10.433  0.3992  0.4249  0.2793
  789MOL0     C 8804   6.731   0.541  10.297  0.1272  0.0661  0.9944
  789MOL0     C 8805   6.604   0.607  10.256  0.7197  0.6615 -0.3358
  789MOL0     C 8806   6.578   0.593  10.104 -0.2475 -0.2844  0.4513
  789MOL0     C 8807   6.463   0.672  10.052 -1.0202 -0.3263  0.4584
  789MOL0     C 8808   6.337   0.622  10.104  0.2004 -0.4879 -0.3806
  789MOL0     C 8809   6.236   0.576  10.147  0.1378  0.0863  0.0702
  789MOL0     C 8810   6.913   0.746  10.487  0.0326 -0.6093  0.2500
  789MOL0     C 8811   7.041   0.794  10.520  0.1469 -0.6413 -0.4819
  789MOL0     C 8812   7.048   0.933  10.585 -0.5721  0.4507 -0.9718
  789MOL0     H 8813   7.612   0.655  10.401  0.4329 -2.5506  0.1229
  789MOL0     H 8814   7.831   0.698  10.521  0.5025  0.1935  1.2220
  789MOL0     H 8815   7.995   0.558  10.827  1.8052 -0.2285  1.4228
  789MOL0     H 8816   7.851   0.564  10.934  0.6932  0.2617  0.3083
  789MOL0     H 8817   8.061   0.668  11.031  1.1316 -0.6803 -1.5209
  789MOL0     H 8818   8.041   0.790  10.917  2.8575 -2.0332  1.7903
  789MOL0     H 8819   7.828   0.853  11.016  1.1626  2.0442  1.5720
  789MOL0     H 8820   7.824   0.700  11.118 -3.2262  1.7678 -1.0926
  789MOL0     H 8821   8.028   0.773  11.227 -1.8534 -0.1482  0.6217
  789MOL0     H 8822   8.018   0.940  11.149 -2.3134  0.9950 -0.2415
  789MOL0     H 8823   7.812   0.807  11.317 -1.6569  1.2147 -1.6293
  789MOL0     H 8824   7.803   0.981  11.258 -0.0194  2.6306  2.6687
  789MOL0     H 8825   8.038   0.914  11.411 -0.6069 -0.2550  3.2826
  789MOL0     H 8826   7.933   1.060  11.411 -2.0084  0.1537 -1.3210
  789MOL0     H 8827   7.885   0.809  11.577  0.3642  0.8405 -0.1967
  789MOL0     H 8828   7.759   0.916  11.530 -0.0634 -0.3825 -1.3739
  789MOL0     H 8829   7.887   0.976  11.748 -0.2340  1.7681 -0.5212
  789MOL0     H 8830   8.028   1.018  11.648 -0.1531  5.1129 -1.8347
  789MOL0     H 8831   7.660   1.124  11.579 -1.4988  2.2615 -1.8945
  789MOL0     H 8832   7.696   1.516  11.556  2.7562 -0.5422 -0.2606
  789MOL0     H 8833   7.577   1.397  11.584  0.1601  3.1602  0.2143
  789MOL0     H 8834   7.729   1.447  11.324  1.9664  0.7530  0.4168
  789MOL0     H 8835   7.626   1.308  11.331 -2.1862 -0.1071  2.3339
  789MOL0     H 8836   7.418   1.470  11.358 -0.7605  1.2310 -0.4598
  789MOL0     H 8837   7.546   1.592  11.329 -1.2790  0.3524 -0.8189
  789MOL0     H 8838   7.599   1.443  11.121  0.8015 -2.2939  2.2428
  789MOL0     H 8839   7.450   1.355  11.150 -1.5532 -0.4359  2.9410
  789MOL0     H 8840   7.250   1.711  10.998  0.8292 -1.9414  1.2980
  789MOL0     H 8841   7.164   1.850  10.842 -2.8407  1.0653 -0.6151
  789MOL0     H 8842   7.100   1.749  10.707  1.1793 -1.1624 -2.9209
  789MOL0     H 8843   7.239   1.861  10.679  1.4236 -0.8144  0.8764
  789MOL0     H 8844   6.986   1.787  10.430  0.2672 -1.8719  1.4955
  789MOL0     H 8845   6.850   1.758  10.240 -0.6524  1.1088  2.3169
  789MOL0     H 8846   6.766   1.705   9.998  0.2508  0.3616  0.4706
  789MOL0     H 8847   6.916   1.784   9.950 -0.8929  0.4249 -2.8447
  789MOL0     H 8848   6.817   1.725   9.744  0.4469 -0.0859 -1.4147
  789MOL0     H 8849   6.955   1.630   9.758 -2.0735  1.0311 -2.6619
  789MOL0     H 8850   6.825   1.446   9.831 -2.8221  0.0221  2.5142
  789MOL0     H 8851   6.789   1.496   9.669  2.3024 -0.1041  0.7983
  789MOL0     H 8852   6.620   1.529   9.926  0.5923 -0.0539  0.2352
  789MOL0     H 8853   6.571   1.451   9.786 -1.0022  0.0114  0.6853
  789MOL0     H 8854   6.577   1.744   9.791  1.1719 -0.8656  0.5763
  789MOL0     H 8855   6.547   1.639   9.649 -1.9329  3.3141 -0.3800
  789MOL0     H 8856   6.369   1.533   9.835 -0.7010  0.5992  0.2702
  789MOL0     H 8857   6.344   1.624   9.687 -1.6767  1.0948  1.1960
  789MOL0     H 8858   6.410   1.752   9.965  2.9805 -2.8703 -1.4305
  789MOL0     H 8859   6.245   1.713   9.926  1.2352 -0.1694  0.7840
  789MOL0     H 8860   6.275   1.836   9.718  1.0070  1.0846 -1.8570
  789MOL0     H 8861   6.426   1.896   9.754  1.4177 -1.9242  0.5244
  789MOL0     H 8862   7.130   1.485  10.081 -1.4657  2.7915 -2.7549
  789MOL0     H 8863   7.296   1.519  10.269 -0.0210  0.5185  0.8809
  789MOL0     H 8864   7.503   1.449  10.668 -1.2344  1.0564 -1.2465
  789MOL0     H 8865   7.550   1.425  10.893  0.0948  0.4059  1.7420
  789MOL0     H 8866   7.642   0.628  10.892 -1.0072 -2.9566 -0.4639
  789MOL0     H 8867   7.426   0.625  10.781  0.5542  1.9133  1.9115
  789MOL0     H 8868   7.199   0.496  10.430  1.3005  0.4994  1.5818
  789MOL0     H 8869   6.962   0.431  10.407 -4.0654  0.4534  0.8215
  789MOL0     H 8870   6.812   0.564  10.227  1.0926 -1.3272  1.5973
  789MOL0     H 8871   6.737   0.432  10.292 -0.8310  0.0440  0.1142
  789MOL0     H 8872   6.592   0.711  10.290 -1.0195  0.9429 -1.6596
  789MOL0     H 8873   6.523   0.560  10.313  0.7215  2.1805  1.0069
  789MOL0     H 8874   6.674   0.622  10.060  1.0217 -1.1616  2.4807
  789MOL0     H 8875   6.555   0.489  10.077 -1.9398  0.5752 -1.6783
  789MOL0     H 8876   6.465   0.661   9.943  2.2683 -0.9872  0.4893
  789MOL0     H 8877   6.468   0.780  10.070  0.8989 -0.4856  1.0582
  789MOL0     H 8878   6.139   0.546  10.183  0.0317  1.1661  0.7203
  789MOL0     H 8879   6.830   0.816  10.482 -0.3525 -1.0999 -0.4534
  789MOL0     H 8880   7.131   0.991  10.543  1.4627  1.1941  3.4807
  789MOL0     H 8881   6.956   0.988  10.560  0.1716  1.0298 -2.5964
  789MOL0     H 8882   7.064   0.919  10.692  2.1314 -0.8254 -1.4571
  790MOL0     O 8883   8.691   5.504  11.292 -0.5334 -0.3732 -0.2854
  790MOL0     C 8884   8.674   5.617  11.253 -0.3983 -0.7407  0.9859
  790MOL0     O 8885   8.785   5.704  11.236 -0.4881  0.2926 -0.0012
  790MOL0     C 8886   8.917   5.655  11.248 -0.7549  0.6545  0.0105
  790MOL0     C 8887   8.960   5.533  11.190 -0.0401  0.7129 -0.3995
  790MOL0     C 8888   9.092   5.490  11.209  0.4680  0.1581  0.4279
  790MOL0     C 8889   9.182   5.574  11.268  0.0512 -0.1770  0.0717
  790MOL0     O 8890   9.307   5.525  11.292  0.1062 -0.8312 -0.4745
  790MOL0     C 8891   9.378   5.495  11.171  0.1764 -0.4533 -0.2609
  790MOL0     C 8892   9.403   5.612  11.069 -0.4302 -0.4740  0.0581
  790MOL0     C 8893   9.451   5.748  11.125  0.4735 -0.3363  1.0783
  790MOL0     C 8894   9.579   5.743  11.219  0.5560  0.2069 -0.8527
  790MOL0     C 8895   9.608   5.882  11.260  0.7662  0.2499  0.0986
  790MOL0     C 8896   9.727   5.880  11.361 -0.2254 -0.3508 -0.5343
  790MOL0     C 8897   9.776   6.015  11.405 -1.0033 -1.3932  0.5031
  790MOL0     C 8898   9.911   5.999  11.468 -1.0849  0.3163 -0.0663
  790MOL0     N 8899  10.023   5.971  11.363  0.4580 -0.5496  0.2152
  790MOL0     C 8900  10.046   6.055  11.254  1.0995 -0.1279 -0.8810
  790MOL0     C 8901  10.158   6.011  11.198  0.3127  0.4680  0.5072
  790MOL0     C 8902  10.242   6.082  11.093 -0.5145 -0.6101  0.0178
  790MOL0     C 8903  10.308   6.202  11.154  0.6091 -0.6784  0.5979
  790MOL0     C 8904  10.384   6.162  11.276  0.6612 -1.2018  0.7616
  790MOL0     C 8905  10.496   6.252  11.311  0.0602  0.2936 -0.4772
  790MOL0     O 8906  10.572   6.311  11.199  0.4255  0.8414  0.5018
  790MOL0     C 8907  10.680   6.392  11.216 -0.4293 -0.6501 -0.3199
  790MOL0     C 8908  10.757   6.432  11.112 -0.2440  0.4929  0.8873
  790MOL0     C 8909  10.862   6.524  11.122  0.1342  0.1290  0.2856
  790MOL0     C 8910  10.937   6.581  11.007  0.5754 -0.2519  0.2572
  790MOL0     C 8911  10.890   6.574  11.244  0.2143 -0.3712 -0.1249
  790MOL0     C 8912  11.006   6.667  11.266 -0.1971 -1.0320  0.8675
  790MOL0     O 8913  11.011   6.784  11.193  1.0676 -0.4016  0.1847
  790MOL0     C 8914  11.127   6.863  11.202 -0.2154  0.3882  0.1693
  790MOL0     C 8915  11.258   6.820  11.169  0.4666 -0.7274 -0.8965
  790MOL0     C 8916  11.364   6.919  11.183 -0.1598  0.5327 -0.4324
  790MOL0     C 8917  11.338   7.042  11.241 -0.5845 -0.4356  0.3172
  790MOL0     O 8918  11.437   7.145  11.250 -0.2282  0.7016 -1.0010
  790MOL0     C 8919  11.578   7.107  11.239 -0.8343 -0.4986  0.1376
  790MOL0     C 8920  11.649   7.237  11.235 -0.1690  1.0774  0.0419
  790MOL0     C 8921  11.654   7.304  11.375 -0.1100 -0.0654 -0.5323
  790MOL0     C 8922  11.771   7.416  11.372 -0.1149 -0.0900  0.4962
  790MOL0     C 8923  11.915   7.371  11.390  0.9609  0.4003 -0.2241
  790MOL0     C 8924  12.002   7.487  11.352 -0.2430 -0.7410  0.1838
  790MOL0     C 8925  12.148   7.478  11.404 -0.5665 -0.6049 -0.2593
  790MOL0     C 8926  12.223   7.604  11.354 -0.7140  0.4821 -0.1092
  790MOL0    Cl 8927  12.393   7.567  11.403 -0.2075 -0.4342 -0.5326
  790MOL0     C 8928  11.208   7.076  11.259  0.2835 -0.1131  0.1676
  790MOL0     C 8929  11.107   6.986  11.243  0.2324 -0.5335 -0.0540
  790MOL0     O 8930  11.094   6.635  11.349  0.3897 -0.8359  0.0905
  790MOL0     C 8931  10.825   6.524  11.358  0.1317 -1.1200  0.6065
  790MOL0     C 8932  10.713   6.438  11.347 -0.7412 -0.2677  0.3168
  790MOL0     N 8933  10.201   5.898  11.271  0.2418 -0.3176  0.2123
  790MOL0     N 8934  10.112   5.877  11.361  0.2937  0.0485 -0.8037
  790MOL0     C 8935   9.146   5.710  11.317  0.0621  0.6776 -0.3643
  790MOL0     C 8936   9.004   5.742  11.312 -0.4651 -0.9054  0.5542
  790MOL0     C 8937   8.538   5.660  11.214 -0.5387 -0.6468 -1.1751
  790MOL0     C 8938   8.520   5.753  11.109 -0.2449 -0.1729  0.5709
  790MOL0     C 8939   8.387   5.783  11.055 -0.6120 -0.4056 -0.5278
  790MOL0     C 8940   8.270   5.726  11.107  0.3485 -0.1825 -0.1822
  790MOL0     O 8941   8.139   5.747  11.068  0.2430  0.0501 -0.6876
  790MOL0     C 8942   8.117   5.796  10.930  0.3927 -0.1532  0.2298
  790MOL0     C 8943   8.048   5.701  10.844  0.0961  0.1723 -0.4132
  790MOL0     C 8944   8.081   5.553  10.845 -0.2167  0.6565 -0.3183
  790MOL0     C 8945   8.210   5.539  10.770 -0.2975 -0.0781 -0.1347
  790MOL0     C 8946   8.253   5.396  10.774 -0.3928 -0.2852  0.2441
  790MOL0     C 8947   8.323   5.210  10.788  0.2757 -0.5582 -0.1000
  790MOL0     C 8948   8.290   5.630  11.207 -0.0625 -0.1544 -0.9916
  790MOL0     C 8949   8.418   5.598  11.264 -1.1240  0.1039 -0.1631
  790MOL0     C 8950   8.423   5.494  11.365  0.0683  0.2445 -0.7667
  790MOL0     H 8951   8.887   5.472  11.139  0.3452 -0.2007  0.1230
  790MOL0     H 8952   9.115   5.392  11.168  1.4931  1.0566 -1.2777
  790MOL0     H 8953   9.332   5.412  11.118  1.5992 -1.6583  0.3308
  790MOL0     H 8954   9.475   5.459  11.206  0.2433 -0.1823 -0.1657
  790MOL0     H 8955   9.483   5.586  10.999 -1.3640 -2.1132 -0.4658
  790MOL0     H 8956   9.315   5.624  11.005  0.4247 -3.0073 -1.8059
  790MOL0     H 8957   9.474   5.817  11.043 -2.9117  0.2398  0.4657
  790MOL0     H 8958   9.372   5.797  11.183  1.1045  0.5577  1.2049
  790MOL0     H 8959   9.558   5.681  11.307 -3.6647  3.2437  0.6048
  790MOL0     H 8960   9.664   5.695  11.169  0.4728 -2.6159  1.4549
  790MOL0     H 8961   9.517   5.924  11.302 -0.6790 -0.6008 -2.0295
  790MOL0     H 8962   9.637   5.938  11.170  0.6502  0.0399 -0.0712
  790MOL0     H 8963   9.692   5.822  11.448 -0.7003  0.9307  0.1554
  790MOL0     H 8964   9.806   5.816  11.323 -1.5521 -3.2331  1.1566
  790MOL0     H 8965   9.695   6.041  11.474 -1.4900 -0.5558 -0.3573
  790MOL0     H 8966   9.780   6.083  11.319  2.0548 -1.9550  0.0878
  790MOL0     H 8967   9.944   6.088  11.522  0.8854 -0.0223 -0.6055
  790MOL0     H 8968   9.914   5.921  11.544  0.9692  0.8595  0.4959
  790MOL0     H 8969   9.999   6.151  11.241 -1.0625 -1.0861 -0.6388
  790MOL0     H 8970  10.195   6.116  11.000  1.1893  1.2588 -0.2379
  790MOL0     H 8971  10.330   6.023  11.067 -0.8389 -1.4383  0.7329
  790MOL0     H 8972  10.371   6.242  11.075 -1.0987 -0.7341 -0.8702
  790MOL0     H 8973  10.238   6.283  11.175  3.2192  2.3374 -1.5261
  790MOL0     H 8974  10.321   6.153  11.365 -0.0937  0.5243  0.4431
  790MOL0     H 8975  10.439   6.069  11.260  3.2370  0.1714  1.1041
  790MOL0     H 8976  10.452   6.330  11.374  2.3660  1.3524 -0.0779
  790MOL0     H 8977  10.559   6.197  11.381  0.3567  1.9783  0.6239
  790MOL0     H 8978  10.728   6.391  11.016  4.8965  2.1455 -1.7319
  790MOL0     H 8979  10.932   6.688  10.983 -1.9363 -1.0105 -3.3511
  790MOL0     H 8980  10.902   6.533  10.915  0.7872 -1.0920  0.6066
  790MOL0     H 8981  11.042   6.550  11.013  1.0394  1.3784  1.2260
  790MOL0     H 8982  11.288   6.727  11.122 -2.0981 -1.8441 -0.5101
  790MOL0     H 8983  11.465   6.881  11.174 -1.1338 -2.2138 -0.5104
  790MOL0     H 8984  11.615   7.050  11.325 -0.5157  2.2744  1.9451
  790MOL0     H 8985  11.601   7.058  11.144 -0.8291 -1.0339  0.4094
  790MOL0     H 8986  11.752   7.225  11.200  1.1250  2.1841  3.1821
  790MOL0     H 8987  11.595   7.302  11.166 -0.4114 -0.9440 -1.8008
  790MOL0     H 8988  11.665   7.232  11.456 -1.6176  1.2056  0.8723
  790MOL0     H 8989  11.567   7.355  11.417  1.2146  1.1832  0.8009
  790MOL0     H 8990  11.754   7.506  11.432  2.4287  1.7810 -1.3999
  790MOL0     H 8991  11.755   7.457  11.272 -0.0897 -2.1337 -0.3849
  790MOL0     H 8992  11.907   7.344  11.496  1.6727  1.4555  0.1156
  790MOL0     H 8993  11.941   7.281  11.334 -1.2492 -0.1885 -0.4193
  790MOL0     H 8994  11.972   7.581  11.399  5.2056  0.9892  0.9165
  790MOL0     H 8995  12.005   7.478  11.243  3.5810  0.3783  0.0500
  790MOL0     H 8996  12.199   7.387  11.369  0.2460 -0.5027  0.5882
  790MOL0     H 8997  12.153   7.482  11.514 -1.9805 -0.1044 -0.2002
  790MOL0     H 8998  12.196   7.693  11.412  0.3431 -1.1551  3.1248
  790MOL0     H 8999  12.216   7.621  11.246 -1.5365  4.2849  0.3897
  790MOL0     H 9000  11.183   7.178  11.288  0.7800 -0.5217  2.2187
  790MOL0     H 9001  11.004   7.015  11.253 -0.4112 -2.0392 -1.7151
  790MOL0     H 9002  10.861   6.552  11.457 -1.6040 -0.6431  1.1305
  790MOL0     H 9003  10.660   6.396  11.432 -2.0225 -1.2028 -0.8919
  790MOL0     H 9004   9.214   5.781  11.363 -0.4265  1.0301 -0.1696
  790MOL0     H 9005   8.971   5.841  11.343  2.4530 -0.2693  2.0417
  790MOL0     H 9006   8.600   5.810  11.062 -2.1337 -0.3371 -3.2697
  790MOL0     H 9007   8.383   5.860  10.978  2.7036  0.0474 -0.3734
  790MOL0     H 9008   8.063   5.890  10.943 -3.7343 -1.9156 -1.9808
  790MOL0     H 9009   8.212   5.809  10.877 -1.3274  2.3376 -2.5199
  790MOL0     H 9010   8.035   5.734  10.740 -1.3877  1.1538  0.0555
  790MOL0     H 9011   7.946   5.705  10.881  0.8884 -1.2653  2.1520
  790MOL0     H 9012   8.083   5.536  10.953  2.0766 -0.2565 -0.4518
  790MOL0     H 9013   8.005   5.488  10.801 -2.5864  3.1284 -0.2076
  790MOL0     H 9014   8.288   5.609  10.800 -3.2544  3.0398  0.8808
  790MOL0     H 9015   8.194   5.564  10.665  1.8510  1.5881 -0.1377
  790MOL0     H 9016   8.361   5.111  10.805  1.2013 -0.1612  0.1921
  790MOL0     H 9017   8.204   5.580  11.251  1.7816 -4.4785 -1.7876
  790MOL0     H 9018   8.462   5.520  11.464 -1.8155 -0.7469  0.3091
  790MOL0     H 9019   8.320   5.458  11.378  0.0038  0.9237  0.8364
  790MOL0     H 9020   8.476   5.411  11.317  2.4580  1.2381  0.0134
  791MOL0     O 9021  10.308   2.040   5.600 -0.6159 -0.5670 -0.0409
  791MOL0     C 9022  10.311   2.160   5.623  0.9296 -0.0772  1.0884
  791MOL0     O 9023  10.245   2.258   5.551 -0.4638  0.8470 -0.8257
  791MOL0     C 9024  10.113   2.254   5.540 -0.2525 -0.2711 -0.1004
  791MOL0     C 9025  10.019   2.211   5.633 -0.2650 -0.6693 -1.1129
  791MOL0     C 9026   9.885   2.227   5.613  0.4396  0.0281  0.4445
  791MOL0     C 9027   9.836   2.296   5.497  0.7541  0.2942  0.7133
  791MOL0     O 9028   9.693   2.322   5.492  0.0525 -0.4262 -0.2906
  791MOL0     C 9029   9.633   2.293   5.367 -0.3355  0.5533  0.1191
  791MOL0     C 9030   9.484   2.332   5.361  0.1063  0.6320  0.3468
  791MOL0     C 9031   9.453   2.478   5.314  0.4529  0.0612 -0.2974
  791MOL0     C 9032   9.316   2.495   5.256 -0.2226 -0.1428 -1.3427
  791MOL0     C 9033   9.309   2.640   5.203 -0.0716 -0.3057  0.3039
  791MOL0     C 9034   9.164   2.698   5.182  0.3884  0.2253 -0.3358
  791MOL0     C 9035   9.159   2.847   5.145  0.8499  0.4932 -0.1299
  791MOL0     C 9036   9.206   2.939   5.256 -0.6486  0.5059  0.6713
  791MOL0     N 9037   9.194   3.078   5.204  0.9077  0.6406  0.8584
  791MOL0     C 9038   9.291   3.133   5.118  0.2708  0.1415 -1.3968
  791MOL0     C 9039   9.248   3.260   5.106  0.2994  0.2775 -1.0952
  791MOL0     C 9040   9.333   3.355   5.023  0.6298  0.6220  0.6211
  791MOL0     C 9041   9.356   3.500   5.068  0.1082  0.5904  0.8452
  791MOL0     C 9042   9.387   3.605   4.959 -0.5619  0.2869  0.0901
  791MOL0     C 9043   9.449   3.740   5.009  0.0732  0.2783  0.6398
  791MOL0     O 9044   9.570   3.726   5.088 -0.2173  0.0020  0.5525
  791MOL0     C 9045   9.682   3.696   5.020 -0.0724 -0.7560  0.1900
  791MOL0     C 9046   9.731   3.562   5.026  0.3505 -1.2024  0.2616
  791MOL0     C 9047   9.846   3.523   4.965 -0.8652 -0.7057  0.1338
  791MOL0     C 9048   9.880   3.381   4.970 -0.1227  0.5864  0.2229
  791MOL0     C 9049   9.920   3.616   4.885 -0.1805  1.0923 -0.1752
  791MOL0     C 9050  10.038   3.585   4.802 -0.1850  0.0426 -1.3096
  791MOL0     O 9051  10.038   3.634   4.671 -0.6004 -0.1367 -0.2424
  791MOL0     C 9052  10.150   3.615   4.589 -0.3109  0.0863  0.0296
  791MOL0     C 9053  10.216   3.727   4.525 -0.8389  0.7399 -0.1718
  791MOL0     C 9054  10.335   3.702   4.446  0.5979 -0.3366 -0.3942
  791MOL0     C 9055  10.378   3.569   4.432 -1.2033 -1.0119  0.0316
  791MOL0     O 9056  10.486   3.544   4.360 -0.0303 -0.1267  0.0258
  791MOL0     C 9057  10.584   3.629   4.305 -0.1900  0.4187 -0.4064
  791MOL0     C 9058  10.673   3.718   4.390 -0.2331 -1.3000  0.1789
  791MOL0     C 9059  10.668   3.865   4.336  0.0388  0.1181  0.6835
  791MOL0     C 9060  10.763   3.951   4.430  0.0141 -0.5704 -0.1286
  791MOL0     C 9061  10.726   4.102   4.401  0.3257  1.0772 -0.5117
  791MOL0     C 9062  10.819   4.182   4.498  0.8062 -0.9224  0.0959
  791MOL0     C 9063  10.817   4.333   4.481 -0.2359 -0.5655 -0.1946
  791MOL0     C 9064  10.677   4.394   4.535 -0.4890  0.7738  0.5677
  791MOL0    Cl 9065  10.602   4.313   4.671 -0.4273  0.4323 -0.1827
  791MOL0     C 9066  10.315   3.471   4.491  1.3066  0.1057  0.3210
  791MOL0     C 9067  10.205   3.487   4.568  1.1288 -0.1249 -0.6443
  791MOL0     O 9068  10.114   3.495   4.838 -0.7043 -0.0049  0.6527
  791MOL0     C 9069   9.879   3.750   4.881 -0.2458 -0.9427 -0.9066
  791MOL0     C 9070   9.762   3.788   4.945  0.0428 -0.6380  0.2416
  791MOL0     N 9071   9.135   3.281   5.180 -0.5034  0.1955 -0.7257
  791MOL0     N 9072   9.095   3.165   5.240  0.4685 -0.3962  0.4782
  791MOL0     C 9073   9.930   2.334   5.402 -0.6934 -0.4483 -0.3924
  791MOL0     C 9074  10.070   2.319   5.423  0.2305 -0.1947  0.7185
  791MOL0     C 9075  10.405   2.213   5.718  0.4819  0.9509  0.1917
  791MOL0     C 9076  10.383   2.343   5.762  0.4662 -0.5470  0.2765
  791MOL0     C 9077  10.455   2.409   5.853 -0.6416  0.2748 -0.4303
  791MOL0     C 9078  10.566   2.348   5.902 -0.1883 -0.3008 -0.3129
  791MOL0     O 9079  10.629   2.414   6.008  0.8880  0.7062 -0.2306
  791MOL0     C 9080  10.745   2.364   6.065 -1.5076  0.8271  0.2105
  791MOL0     C 9081  10.823   2.470   6.133  0.0819 -0.0920  0.5214
  791MOL0     C 9082  10.750   2.553   6.232 -0.4892 -0.4288 -0.1234
  791MOL0     C 9083  10.809   2.692   6.245 -0.2077  0.5365  0.4277
  791MOL0     C 9084  10.741   2.778   6.334  0.1565  0.5655  0.0214
  791MOL0     C 9085  10.661   2.827   6.417 -0.5229 -0.8711 -0.1661
  791MOL0     C 9086  10.606   2.213   5.863 -0.5374 -0.4021 -1.0574
  791MOL0     C 9087  10.523   2.154   5.767 -0.7185 -0.0936 -0.6009
  791MOL0     C 9088  10.575   2.018   5.716  0.6076  0.0973  0.5686
  791MOL0     H 9089  10.058   2.162   5.722  0.1240 -1.5800 -1.7651
  791MOL0     H 9090   9.808   2.193   5.682 -1.0791  1.1437 -0.6258
  791MOL0     H 9091   9.646   2.184   5.369 -0.3148  0.5534  0.0004
  791MOL0     H 9092   9.685   2.348   5.288  1.1194 -0.4528  0.3325
  791MOL0     H 9093   9.450   2.268   5.279  0.9463 -0.0959  0.5550
  791MOL0     H 9094   9.425   2.301   5.448 -0.1943  0.8407  0.2188
  791MOL0     H 9095   9.473   2.540   5.402 -0.8668 -2.0856  1.6334
  791MOL0     H 9096   9.517   2.494   5.226  1.0970 -5.0509 -1.0261
  791MOL0     H 9097   9.289   2.412   5.190 -0.4419 -1.4003  0.2585
  791MOL0     H 9098   9.243   2.488   5.337  0.7179  1.1624 -0.3320
  791MOL0     H 9099   9.360   2.640   5.106  1.1113  1.3008  0.8756
  791MOL0     H 9100   9.361   2.700   5.278 -0.7943  1.2695 -0.4007
  791MOL0     H 9101   9.108   2.650   5.101 -0.6808  1.4434 -0.3552
  791MOL0     H 9102   9.106   2.680   5.273 -3.7706  3.1979 -2.1017
  791MOL0     H 9103   9.052   2.858   5.123  1.2967  2.3326 -1.6440
  791MOL0     H 9104   9.210   2.862   5.049  2.3863 -1.5132  0.3022
  791MOL0     H 9105   9.135   2.923   5.337 -1.5570  0.7116 -0.0612
  791MOL0     H 9106   9.308   2.909   5.278 -0.8240 -0.0943  0.6859
  791MOL0     H 9107   9.370   3.075   5.071  1.8557 -0.7830  2.0720
  791MOL0     H 9108   9.285   3.356   4.924 -0.8365 -1.2124  1.2435
  791MOL0     H 9109   9.433   3.310   5.020  0.2536 -0.2193 -0.6118
  791MOL0     H 9110   9.260   3.530   5.110 -0.7776 -2.0379  0.8209
  791MOL0     H 9111   9.430   3.500   5.149 -0.8758 -2.2974  1.8517
  791MOL0     H 9112   9.463   3.553   4.901  2.4377  0.7739  3.2500
  791MOL0     H 9113   9.295   3.630   4.906  0.3461  1.2053 -1.0940
  791MOL0     H 9114   9.462   3.794   4.915 -1.4350  2.5877  1.6576
  791MOL0     H 9115   9.378   3.802   5.064  0.6758 -0.8310  2.7923
  791MOL0     H 9116   9.674   3.496   5.091  0.7308  0.8624  2.8378
  791MOL0     H 9117   9.801   3.313   5.002 -2.4206  2.4091 -1.2375
  791MOL0     H 9118   9.968   3.382   5.035  1.1735 -2.2520 -1.3227
  791MOL0     H 9119   9.916   3.354   4.870  0.8853  1.9329  0.1856
  791MOL0     H 9120  10.167   3.824   4.527 -3.6171 -0.5639  0.0550
  791MOL0     H 9121  10.388   3.786   4.403 -2.1598  0.3657 -2.7146
  791MOL0     H 9122  10.653   3.558   4.258 -2.3394 -1.1185 -1.4158
  791MOL0     H 9123  10.549   3.686   4.218 -0.1288 -1.9281 -2.0781
  791MOL0     H 9124  10.644   3.710   4.495  1.6625  2.3354  1.1288
  791MOL0     H 9125  10.770   3.667   4.391  0.4017 -0.3006 -2.3938
  791MOL0     H 9126  10.566   3.905   4.342  0.2682  1.2441 -1.7648
  791MOL0     H 9127  10.705   3.875   4.234  1.6036 -0.1833  1.1970
  791MOL0     H 9128  10.865   3.913   4.413 -1.0677 -4.1062  0.3874
  791MOL0     H 9129  10.752   3.927   4.536  0.6660  1.7592  0.5064
  791MOL0     H 9130  10.732   4.122   4.293 -3.9508  3.2526 -0.5506
  791MOL0     H 9131  10.621   4.122   4.423  0.3329  1.6028 -0.9296
  791MOL0     H 9132  10.921   4.148   4.479  0.6783 -0.5012 -1.5370
  791MOL0     H 9133  10.793   4.160   4.602  1.1591  0.3232  0.4623
  791MOL0     H 9134  10.816   4.363   4.376 -0.7597 -2.2119 -0.6868
  791MOL0     H 9135  10.902   4.371   4.539  0.7090 -1.5097 -0.9184
  791MOL0     H 9136  10.600   4.384   4.457  0.4368 -4.0128  0.0101
  791MOL0     H 9137  10.690   4.497   4.571 -0.5422  0.5679  1.1843
  791MOL0     H 9138  10.362   3.373   4.492  0.3426 -0.3584  0.7194
  791MOL0     H 9139  10.164   3.407   4.628 -0.1299  2.5359  2.3372
  791MOL0     H 9140   9.947   3.822   4.837 -1.8154  2.0448  1.1626
  791MOL0     H 9141   9.735   3.890   4.921  4.2065 -0.0005 -3.0696
  791MOL0     H 9142   9.894   2.395   5.320  0.9189 -0.1248 -0.9026
  791MOL0     H 9143  10.139   2.368   5.356 -3.8054  1.8074 -2.4270
  791MOL0     H 9144  10.296   2.404   5.737  2.0373  2.5736  1.8421
  791MOL0     H 9145  10.427   2.505   5.894  1.8534 -0.7461  4.3669
  791MOL0     H 9146  10.715   2.287   6.136 -3.0364 -0.3786 -1.6418
  791MOL0     H 9147  10.807   2.317   5.987 -0.6658  3.6508 -0.9573
  791MOL0     H 9148  10.856   2.528   6.046  0.1895  0.2138  0.7643
  791MOL0     H 9149  10.910   2.425   6.182  1.4425  3.5938  1.8740
  791MOL0     H 9150  10.645   2.567   6.209 -0.9919 -2.3000  0.7960
  791MOL0     H 9151  10.750   2.493   6.324 -2.0975 -1.4444 -0.7433
  791MOL0     H 9152  10.811   2.735   6.145 -1.4401 -0.9955 -0.2920
  791MOL0     H 9153  10.906   2.669   6.290 -1.1791  1.1003  3.0054
  791MOL0     H 9154  10.599   2.880   6.487 -0.6365 -1.3366  0.0869
  791MOL0     H 9155  10.689   2.159   5.909 -0.6448  0.2083 -0.1025
  791MOL0     H 9156  10.527   1.941   5.778  1.6322  0.4261  1.8209
  791MOL0     H 9157  10.562   2.013   5.608  0.0112  1.1342  0.5826
  791MOL0     H 9158  10.684   2.015   5.727  0.6305 -1.0147  0.1349
  792MOL0     O 9159   8.362   6.549   1.809  0.0007 -0.2479 -0.0515
  792MOL0     C 9160   8.353   6.447   1.875  0.0006  0.7283 -0.6914
  792MOL0     O 9161   8.234   6.390   1.913  0.3275  0.9332 -0.3189
  792MOL0     C 9162   8.121   6.454   1.956  0.7978  0.2287  0.1762
  792MOL0     C 9163   8.093   6.592   1.990 -0.2468  0.3872  0.3777
  792MOL0     C 9164   7.973   6.641   2.039  0.2022 -1.2173 -0.4849
  792MOL0     C 9165   7.868   6.545   2.045 -0.1542 -0.3932 -0.3563
  792MOL0     O 9166   7.742   6.575   2.092 -0.3495  0.6457 -0.2781
  792MOL0     C 9167   7.694   6.712   2.112 -0.2232  0.5368 -0.1742
  792MOL0     C 9168   7.540   6.696   2.129 -0.2143 -0.2555  0.1438
  792MOL0     C 9169   7.448   6.815   2.093  0.0207 -0.7537  0.8638
  792MOL0     C 9170   7.479   6.878   1.963 -0.4671  0.4022  0.6154
  792MOL0     C 9171   7.419   6.799   1.845  0.1955  0.2970 -0.2176
  792MOL0     C 9172   7.461   6.866   1.711 -0.4512  0.3911  0.2206
  792MOL0     C 9173   7.401   6.806   1.584 -0.0271  0.2777  0.6582
  792MOL0     C 9174   7.250   6.818   1.574  0.9558 -0.6964  0.2029
  792MOL0     N 9175   7.199   6.779   1.446  0.1047  0.1108 -0.0274
  792MOL0     C 9176   7.236   6.830   1.323  0.1128 -0.1911 -0.5512
  792MOL0     C 9177   7.180   6.751   1.233  0.5667  1.2474  0.2093
  792MOL0     C 9178   7.176   6.750   1.084  0.1986 -0.7225  0.4177
  792MOL0     C 9179   7.038   6.801   1.035 -0.8915 -0.1306 -0.6865
  792MOL0     C 9180   6.980   6.928   1.101  0.2815 -0.2636  0.6960
  792MOL0     C 9181   6.868   6.992   1.018  0.7702  0.9198  0.0547
  792MOL0     O 9182   6.754   6.911   1.007  0.1740 -0.2848  0.2771
  792MOL0     C 9183   6.629   6.946   0.956 -0.3881  0.3180 -0.7182
  792MOL0     C 9184   6.609   7.059   0.877 -0.5149  0.6122  0.4585
  792MOL0     C 9185   6.481   7.088   0.823 -0.2727 -0.4980  0.5169
  792MOL0     C 9186   6.465   7.201   0.717  0.1274  0.2016  0.0379
  792MOL0     C 9187   6.371   7.001   0.853 -0.0815  0.2905  0.5638
  792MOL0     C 9188   6.232   7.019   0.809 -0.8163 -0.8571  0.1817
  792MOL0     O 9189   6.189   7.146   0.787 -0.0908  0.0778 -0.0079
  792MOL0     C 9190   6.069   7.182   0.729  0.6709  0.8638  0.4504
  792MOL0     C 9191   6.056   7.318   0.740 -0.2358  0.5967 -0.0350
  792MOL0     C 9192   5.939   7.379   0.697  0.3710  0.2424 -0.4088
  792MOL0     C 9193   5.830   7.301   0.638 -0.0315  0.6000  0.8530
  792MOL0     O 9194   5.711   7.374   0.609 -0.1027 -0.1981 -0.2081
  792MOL0     C 9195   5.615   7.327   0.530  0.1424 -0.4592 -0.3503
  792MOL0     C 9196   5.506   7.440   0.517  0.7531  0.3967  0.1238
  792MOL0     C 9197   5.545   7.556   0.428  0.4687  0.4125  0.7844
  792MOL0     C 9198   5.545   7.688   0.503  0.2501  0.0550  0.6505
  792MOL0     C 9199   5.594   7.796   0.415  0.4140  0.3803 -0.0065
  792MOL0     C 9200   5.658   7.908   0.504  0.1634  0.7913  0.1427
  792MOL0     C 9201   5.725   7.998   0.398 -1.0116 -0.6051  0.5603
  792MOL0     C 9202   5.831   8.088   0.466 -0.2290  0.4275  0.2010
  792MOL0    Cl 9203   5.764   8.235   0.524 -0.5117 -0.4220 -0.2065
  792MOL0     C 9204   5.849   7.156   0.631 -0.2452 -0.0503 -0.2906
  792MOL0     C 9205   5.968   7.098   0.679  0.3242  0.0899 -0.5265
  792MOL0     O 9206   6.174   6.914   0.791 -0.3415 -0.6532  0.2465
  792MOL0     C 9207   6.390   6.896   0.940 -0.2479  0.3835  0.7388
  792MOL0     C 9208   6.522   6.870   0.976  0.3698 -0.1242 -0.6424
  792MOL0     N 9209   7.112   6.648   1.303 -0.6618 -0.1586  0.6313
  792MOL0     N 9210   7.131   6.664   1.428  0.7067 -0.5562  0.7629
  792MOL0     C 9211   7.883   6.412   2.017 -0.2193  0.2159  0.7330
  792MOL0     C 9212   8.009   6.370   1.969  0.3515 -0.3906  0.5204
  792MOL0     C 9213   8.471   6.378   1.926  0.1716 -0.1146 -0.5771
  792MOL0     C 9214   8.448   6.254   1.998  0.3532 -0.7940 -0.1995
  792MOL0     C 9215   8.556   6.198   2.060 -0.7769  0.3299 -0.0631
  792MOL0     C 9216   8.690   6.250   2.054  0.0199  0.7203  0.1273
  792MOL0     O 9217   8.797   6.184   2.122  0.5516 -0.1613 -0.0074
  792MOL0     C 9218   8.787   6.049   2.176  0.1400 -0.6703  0.3012
  792MOL0     C 9219   8.921   5.982   2.196 -1.1158 -0.1117 -1.1456
  792MOL0     C 9220   8.896   5.838   2.244 -0.8339 -0.0002  0.2280
  792MOL0     C 9221   9.036   5.774   2.290  0.2707  0.5820  0.5116
  792MOL0     C 9222   9.088   5.849   2.412  0.0957 -0.0932  0.8117
  792MOL0     C 9223   9.128   5.897   2.521  1.1060 -0.0485  1.1422
  792MOL0     C 9224   8.703   6.375   2.002  0.6892  0.9778 -0.0828
  792MOL0     C 9225   8.600   6.437   1.926  0.8039 -0.6185 -0.5501
  792MOL0     C 9226   8.628   6.581   1.875  0.6106  0.3704  0.0802
  792MOL0     H 9227   8.180   6.654   1.970  0.9465 -0.9553  1.2509
  792MOL0     H 9228   7.954   6.743   2.072 -0.5216 -0.6889 -2.3797
  792MOL0     H 9229   7.722   6.792   2.043  3.7268  2.4580  3.1839
  792MOL0     H 9230   7.741   6.749   2.204 -2.0308  0.5871  0.7678
  792MOL0     H 9231   7.481   6.623   2.073 -2.0365  3.7667 -3.8694
  792MOL0     H 9232   7.537   6.676   2.236  3.0936 -2.6977 -0.0701
  792MOL0     H 9233   7.346   6.776   2.101  1.1600 -3.6385  3.0381
  792MOL0     H 9234   7.453   6.890   2.173  2.8993  0.8589 -0.6841
  792MOL0     H 9235   7.433   6.977   1.966 -0.3082  0.4924  0.1493
  792MOL0     H 9236   7.584   6.895   1.938 -0.9157  1.1082 -0.9411
  792MOL0     H 9237   7.310   6.799   1.849  0.1354  1.3403 -1.3461
  792MOL0     H 9238   7.456   6.696   1.851 -0.6063 -0.0450 -0.9604
  792MOL0     H 9239   7.443   6.974   1.704 -0.9339  0.2078 -3.1638
  792MOL0     H 9240   7.568   6.846   1.699 -0.7486 -1.4738  0.3876
  792MOL0     H 9241   7.420   6.699   1.592 -0.3579  0.2693  1.4349
  792MOL0     H 9242   7.444   6.859   1.498 -0.1969  0.1312  0.4817
  792MOL0     H 9243   7.185   6.772   1.649  0.1815 -2.8823 -1.6884
  792MOL0     H 9244   7.225   6.924   1.580 -0.4756 -0.9432 -0.8536
  792MOL0     H 9245   7.304   6.911   1.297 -0.0438 -0.6916 -2.6617
  792MOL0     H 9246   7.191   6.648   1.047  0.0668  0.1564 -2.2499
  792MOL0     H 9247   7.253   6.817   1.044 -1.7999 -0.0275 -2.6163
  792MOL0     H 9248   7.042   6.811   0.926 -0.4128  0.1282 -0.6470
  792MOL0     H 9249   6.964   6.729   1.073 -1.0082  0.9117  1.1893
  792MOL0     H 9250   6.948   6.904   1.203 -0.8324 -3.4905 -0.2921
  792MOL0     H 9251   7.060   7.003   1.103  1.3255 -1.3139  0.0848
  792MOL0     H 9252   6.844   7.091   1.058 -1.1276  0.6683 -0.3802
  792MOL0     H 9253   6.911   7.013   0.919 -0.1523  1.4037 -0.2561
  792MOL0     H 9254   6.686   7.132   0.852 -0.2750  0.1045 -0.3157
  792MOL0     H 9255   6.400   7.280   0.756  0.0062 -0.4691  1.2390
  792MOL0     H 9256   6.419   7.160   0.627 -0.8665 -0.2156  0.7254
  792MOL0     H 9257   6.561   7.248   0.691  0.1053 -1.2336 -3.1384
  792MOL0     H 9258   6.138   7.378   0.779 -0.9958  0.3155  2.1683
  792MOL0     H 9259   5.925   7.483   0.722 -1.0830  0.0750 -0.4481
  792MOL0     H 9260   5.669   7.305   0.438 -0.3448 -3.0484 -0.0807
  792MOL0     H 9261   5.555   7.245   0.571 -1.4640  0.0387 -1.6066
  792MOL0     H 9262   5.427   7.394   0.457  1.0895  0.2290 -0.1952
  792MOL0     H 9263   5.454   7.465   0.610 -1.4636  0.4045 -1.0708
  792MOL0     H 9264   5.471   7.559   0.347 -0.5962  2.1501  1.7526
  792MOL0     H 9265   5.636   7.534   0.372 -0.3802 -0.8023 -0.1915
  792MOL0     H 9266   5.611   7.681   0.591  0.1131 -1.1222  0.6705
  792MOL0     H 9267   5.445   7.715   0.537  1.4206  1.7059  3.1273
  792MOL0     H 9268   5.668   7.761   0.343 -0.7689 -1.3355 -0.4606
  792MOL0     H 9269   5.503   7.829   0.365 -1.3363 -2.2343  1.2476
  792MOL0     H 9270   5.730   7.865   0.574  0.1331  0.6681  0.0994
  792MOL0     H 9271   5.584   7.967   0.557 -0.3158  1.5725 -1.3282
  792MOL0     H 9272   5.654   8.052   0.334 -0.9536 -0.9986  0.1604
  792MOL0     H 9273   5.782   7.928   0.336 -3.4678 -1.8793 -0.3599
  792MOL0     H 9274   5.907   8.115   0.393 -1.5097  1.2325 -0.8981
  792MOL0     H 9275   5.880   8.026   0.542  0.0126 -1.8569 -1.7094
  792MOL0     H 9276   5.776   7.097   0.577  1.4286 -2.3427 -0.1812
  792MOL0     H 9277   5.976   6.991   0.666 -4.5296 -0.3999 -1.4831
  792MOL0     H 9278   6.309   6.836   0.980  0.0263 -0.9496 -0.6083
  792MOL0     H 9279   6.538   6.777   1.030  0.6712 -0.0983 -0.6851
  792MOL0     H 9280   7.796   6.347   2.009 -1.1477  1.6382 -2.1489
  792MOL0     H 9281   8.012   6.265   1.939  0.1842  0.3315 -2.2708
  792MOL0     H 9282   8.347   6.216   2.004 -0.8689  1.9251 -2.0825
  792MOL0     H 9283   8.527   6.128   2.138 -0.4555  1.9531  1.5827
  792MOL0     H 9284   8.729   6.038   2.268  1.0896 -2.1865  0.7508
  792MOL0     H 9285   8.740   5.984   2.102  0.5742  1.0447 -1.5861
  792MOL0     H 9286   8.982   6.034   2.271 -1.2754 -3.3912  1.4966
  792MOL0     H 9287   8.977   5.977   2.102 -2.1421 -0.5433 -1.7399
  792MOL0     H 9288   8.820   5.840   2.322 -0.9023  1.4417  0.1497
  792MOL0     H 9289   8.843   5.777   2.170  0.2591 -2.4363  1.3328
  792MOL0     H 9290   9.115   5.794   2.217 -0.0871  2.6688  0.6346
  792MOL0     H 9291   9.035   5.664   2.296 -2.9510  0.2276 -2.7852
  792MOL0     H 9292   9.149   5.944   2.615  0.7081  1.4566  0.5097
  792MOL0     H 9293   8.799   6.423   2.016  2.3390 -2.2702  0.8997
  792MOL0     H 9294   8.633   6.591   1.767 -1.3095  0.2410 -0.0504
  792MOL0     H 9295   8.567   6.663   1.915  0.8764  1.3905 -1.5485
  792MOL0     H 9296   8.724   6.609   1.920  1.7566  0.2299 -2.1524
  793MOL0     O 9297   7.113  10.658  10.837  0.1830 -0.5334  0.2885
  793MOL0     C 9298   7.070  10.587  10.750  0.1253  0.5466  0.3099
  793MOL0     O 9299   6.936  10.562  10.737  0.5208  0.2882  0.4059
  793MOL0     C 9300   6.846  10.595  10.837 -0.5471 -0.0136 -0.1491
  793MOL0     C 9301   6.869  10.585  10.978 -0.0779  0.0610  0.4785
  793MOL0     C 9302   6.777  10.616  11.071  0.4125 -0.6379 -0.3321
  793MOL0     C 9303   6.646  10.653  11.038 -0.4948  0.0888  0.6581
  793MOL0     O 9304   6.538  10.651  11.122  0.2659 -0.3887 -0.7826
  793MOL0     C 9305   6.569  10.695  11.258 -0.4210 -0.0137  0.2166
  793MOL0     C 9306   6.590  10.844  11.270 -0.3278  0.3153 -0.6295
  793MOL0     C 9307   6.748  10.868  11.274  0.1536  0.4655 -0.0443
  793MOL0     C 9308   6.780  10.999  11.348  0.4427 -1.1981 -0.0806
  793MOL0     C 9309   6.923  11.050  11.337 -0.0615  0.0729 -0.2888
  793MOL0     C 9310   6.944  11.137  11.462  0.3299 -0.5156  0.0816
  793MOL0     C 9311   7.089  11.190  11.498 -0.1284 -0.1110  0.0431
  793MOL0     C 9312   7.076  11.269  11.628  0.0114 -0.3965 -0.5187
  793MOL0     N 9313   7.210  11.304  11.683 -0.1237  1.4301  0.2622
  793MOL0     C 9314   7.316  11.223  11.699  0.3218  0.4277  0.0011
  793MOL0     C 9315   7.415  11.297  11.742  0.0889  0.4839 -0.3653
  793MOL0     C 9316   7.559  11.246  11.745  0.4382  0.8414 -0.3876
  793MOL0     C 9317   7.641  11.334  11.659 -0.2264  0.0628  0.4855
  793MOL0     C 9318   7.715  11.456  11.716 -0.6387 -0.0507 -0.2960
  793MOL0     C 9319   7.846  11.426  11.781  0.1131 -0.2093 -0.1181
  793MOL0     O 9320   7.909  11.550  11.817  0.4753 -0.5234  0.5535
  793MOL0     C 9321   8.034  11.557  11.853  0.2099  0.0634  0.5338
  793MOL0     C 9322   8.101  11.678  11.869  0.1664 -0.3464  0.0324
  793MOL0     C 9323   8.242  11.688  11.900  0.4406  0.1108 -0.5496
  793MOL0     C 9324   8.279  11.847  11.912  0.0697 -0.0931  0.4730
  793MOL0     C 9325   8.323  11.577  11.920 -0.2741 -0.1601 -0.2285
  793MOL0     C 9326   8.467  11.586  11.950 -0.3286 -0.1057  0.8493
  793MOL0     O 9327   8.539  11.462  11.969 -0.1010 -0.6033  0.1053
  793MOL0     C 9328   8.667  11.467  11.952  0.0734 -0.0874  0.0378
  793MOL0     C 9329   8.731  11.496  11.831 -0.3765  0.6446  0.2140
  793MOL0     C 9330   8.869  11.497  11.822  0.8915  0.8321  0.5696
  793MOL0     C 9331   8.940  11.461  11.941 -0.3450  0.0218 -0.6336
  793MOL0     O 9332   9.076  11.457  11.947  0.7751 -0.4576 -0.1689
  793MOL0     C 9333   9.157  11.534  11.853 -0.3101  0.5867  0.1972
  793MOL0     C 9334   9.300  11.547  11.917 -0.1247 -0.2316 -0.3034
  793MOL0     C 9335   9.391  11.650  11.847 -0.2141  0.1137 -0.7682
  793MOL0     C 9336   9.333  11.790  11.839  0.3998  0.0111 -0.0566
  793MOL0     C 9337   9.419  11.884  11.757 -0.1004 -0.3292 -0.0290
  793MOL0     C 9338   9.366  12.026  11.722  0.2007  0.3758  0.0349
  793MOL0     C 9339   9.347  12.117  11.834 -0.3527 -0.5476  0.1360
  793MOL0     C 9340   9.359  12.265  11.794 -0.8935  0.4958 -0.8977
  793MOL0    Cl 9341   9.535  12.294  11.778  0.2103  0.3709 -0.1204
  793MOL0     C 9342   8.883  11.425  12.056  0.3088 -0.7645 -0.6405
  793MOL0     C 9343   8.743  11.429  12.059  0.3862 -0.0505 -0.6415
  793MOL0     O 9344   8.522  11.694  11.953  0.4332  0.2350 -0.3395
  793MOL0     C 9345   8.259  11.458  11.899  0.3476 -0.6825 -0.8316
  793MOL0     C 9346   8.117  11.443  11.867 -0.3809  0.5772 -0.0789
  793MOL0     N 9347   7.371  11.426  11.773  0.4589 -0.4561  0.2792
  793MOL0     N 9348   7.248  11.431  11.723 -0.9790  0.6547 -0.0209
  793MOL0     C 9349   6.617  10.659  10.898  0.3612 -0.7513 -0.3382
  793MOL0     C 9350   6.715  10.634  10.805  0.7862  0.4245  0.5724
  793MOL0     C 9351   7.160  10.517  10.656 -0.0971 -0.1153 -0.9382
  793MOL0     C 9352   7.111  10.477  10.533 -0.8796 -1.0404 -0.1167
  793MOL0     C 9353   7.195  10.435  10.431  0.1378 -0.1360 -0.0782
  793MOL0     C 9354   7.329  10.414  10.450 -0.1295  0.6734 -0.2698
  793MOL0     O 9355   7.395  10.375  10.340 -0.3004 -1.0723  0.1829
  793MOL0     C 9356   7.534  10.342  10.358 -0.3240 -0.4423  0.9355
  793MOL0     C 9357   7.611  10.311  10.224 -0.3109 -0.3237  0.0190
  793MOL0     C 9358   7.766  10.284  10.259  1.1103  0.0596 -0.5560
  793MOL0     C 9359   7.835  10.180  10.172 -0.1322  0.0723  0.0726
  793MOL0     C 9360   7.828  10.210  10.026  0.7833 -0.8710  0.2190
  793MOL0     C 9361   7.833  10.227   9.903  0.1166 -0.8342  0.4473
  793MOL0     C 9362   7.375  10.445  10.581 -0.5132 -0.2506 -0.2475
  793MOL0     C 9363   7.295  10.484  10.682 -0.1491 -1.0237  0.2440
  793MOL0     C 9364   7.358  10.494  10.816 -0.3512 -0.1262 -0.3905
  793MOL0     H 9365   6.957  10.543  11.026  1.1295  2.8299  0.9193
  793MOL0     H 9366   6.812  10.606  11.173  1.8658  0.6292 -0.6640
  793MOL0     H 9367   6.637  10.627  11.311 -1.5794 -1.5520 -0.2065
  793MOL0     H 9368   6.478  10.672  11.313 -1.6202  2.3769 -0.6397
  793MOL0     H 9369   6.542  10.899  11.188  0.6621  0.3907 -1.1671
  793MOL0     H 9370   6.546  10.870  11.367  2.2404 -0.0553  0.7146
  793MOL0     H 9371   6.803  10.780  11.309  3.6168  1.9391 -1.3054
  793MOL0     H 9372   6.786  10.886  11.173 -1.9312  3.0867 -0.4467
  793MOL0     H 9373   6.711  11.070  11.303  1.8333  0.2831  0.0446
  793MOL0     H 9374   6.757  10.990  11.454  1.5481  1.5238  0.4680
  793MOL0     H 9375   6.934  11.118  11.251  2.9642 -2.0570 -1.7873
  793MOL0     H 9376   7.006  10.984  11.308 -0.5636  0.8632 -4.1565
  793MOL0     H 9377   6.885  11.224  11.429  1.4181  0.8824  1.6293
  793MOL0     H 9378   6.912  11.091  11.556  2.3005 -0.8911  0.6124
  793MOL0     H 9379   7.135  11.250  11.418 -0.1329 -1.1464 -0.7497
  793MOL0     H 9380   7.149  11.102  11.518 -0.6497 -0.6761 -0.8037
  793MOL0     H 9381   7.012  11.358  11.632  1.8836  0.9750  0.4544
  793MOL0     H 9382   7.024  11.199  11.694  1.2263 -0.7756  0.0543
  793MOL0     H 9383   7.319  11.115  11.698  0.7662  0.4015 -2.7516
  793MOL0     H 9384   7.562  11.139  11.726 -0.5053  0.9965 -1.5531
  793MOL0     H 9385   7.597  11.257  11.847  0.4143  3.7791 -0.5904
  793MOL0     H 9386   7.727  11.288  11.609  0.2806  1.5029 -0.0510
  793MOL0     H 9387   7.590  11.371  11.570 -1.2463 -0.2160  0.9457
  793MOL0     H 9388   7.733  11.515  11.625 -2.5640  2.9302  1.1083
  793MOL0     H 9389   7.641  11.509  11.777 -1.6831 -2.1655  0.3617
  793MOL0     H 9390   7.830  11.358  11.866 -2.8557 -0.4632 -0.7755
  793MOL0     H 9391   7.919  11.375  11.717 -0.8940 -0.6794 -0.9223
  793MOL0     H 9392   8.040  11.765  11.849 -1.6901 -1.2806  1.3147
  793MOL0     H 9393   8.342  11.872  11.827  0.8276  0.3199  1.1450
  793MOL0     H 9394   8.338  11.875  12.000  0.8038 -0.9436  0.2730
  793MOL0     H 9395   8.191  11.911  11.913  0.0347 -0.0270 -1.6416
  793MOL0     H 9396   8.665  11.528  11.750 -1.4530 -1.8325  0.0164
  793MOL0     H 9397   8.916  11.530  11.730 -1.3525  2.0839 -0.2122
  793MOL0     H 9398   9.171  11.473  11.764  0.6999  1.1859 -0.0749
  793MOL0     H 9399   9.115  11.634  11.836  0.4380  0.6711 -1.2792
  793MOL0     H 9400   9.276  11.585  12.017  2.5608 -3.2212  1.6597
  793MOL0     H 9401   9.353  11.451  11.923  0.1150 -0.1891 -1.6159
  793MOL0     H 9402   9.415  11.610  11.748 -0.7062  0.3407 -0.9865
  793MOL0     H 9403   9.481  11.660  11.908 -2.4523  1.3631  2.5833
  793MOL0     H 9404   9.327  11.835  11.938 -0.4301 -1.3842  0.5722
  793MOL0     H 9405   9.239  11.786  11.783  1.0153 -0.1048 -1.1055
  793MOL0     H 9406   9.508  11.896  11.819 -1.4732 -1.4159  2.2737
  793MOL0     H 9407   9.447  11.836  11.663  2.5221 -0.5787  0.7889
  793MOL0     H 9408   9.276  12.013  11.661  0.3804 -0.3545 -0.0785
  793MOL0     H 9409   9.437  12.068  11.650  0.9133 -0.0709  0.4732
  793MOL0     H 9410   9.423  12.097  11.909 -0.2169  0.6405  0.3333
  793MOL0     H 9411   9.250  12.106  11.884 -1.2027 -1.2706 -1.5866
  793MOL0     H 9412   9.324  12.316  11.883 -0.7515 -1.7588  0.5360
  793MOL0     H 9413   9.302  12.293  11.705 -2.5846  1.9951  0.6069
  793MOL0     H 9414   8.932  11.410  12.151 -2.3398  1.1233  1.1726
  793MOL0     H 9415   8.704  11.405  12.158  0.9666  0.7674 -0.2033
  793MOL0     H 9416   8.309  11.365  11.924 -1.7974 -1.0358  2.8782
  793MOL0     H 9417   8.082  11.343  11.847 -2.6275  1.6727 -2.1853
  793MOL0     H 9418   6.520  10.688  10.858  1.2586  1.3725 -1.1389
  793MOL0     H 9419   6.684  10.626  10.701  1.9264  3.1108 -0.0613
  793MOL0     H 9420   7.010  10.505  10.503  0.0896  1.8347 -1.0840
  793MOL0     H 9421   7.149  10.411  10.336 -0.6061  1.6156 -0.2096
  793MOL0     H 9422   7.585  10.429  10.401 -0.7213 -0.0093  0.5352
  793MOL0     H 9423   7.545  10.252  10.420  0.9876 -1.2028 -0.3577
  793MOL0     H 9424   7.600  10.396  10.156  2.9686 -0.0527 -0.3592
  793MOL0     H 9425   7.569  10.221  10.178 -2.6876  1.1127 -0.7853
  793MOL0     H 9426   7.823  10.377  10.248 -0.2910  0.9673 -0.3658
  793MOL0     H 9427   7.779  10.264  10.366  2.6742  0.9789 -0.5365
  793MOL0     H 9428   7.791  10.084  10.200 -2.9211  0.7571 -1.5613
  793MOL0     H 9429   7.939  10.161  10.198  0.1895 -0.1346 -1.2774
  793MOL0     H 9430   7.832  10.227   9.796 -3.7817  0.4684  0.3132
  793MOL0     H 9431   7.480  10.424  10.599 -0.5477 -0.4806 -0.3079
  793MOL0     H 9432   7.441  10.423  10.823  0.6710  1.0816  0.0095
  793MOL0     H 9433   7.403  10.594  10.821  0.2506 -0.4153  0.1253
  793MOL0     H 9434   7.289  10.482  10.901 -0.6678 -1.4385 -0.8093
  794MOL0     O 9435   4.195  10.406   9.854  0.2092 -0.1757 -0.4703
  794MOL0     C 9436   4.101  10.397   9.778  0.8835 -0.3008 -0.4291
  794MOL0     O 9437   4.005  10.491   9.769 -0.1542  0.1251  0.6327
  794MOL0     C 9438   4.029  10.607   9.829 -0.2097  0.2117  0.9139
  794MOL0     C 9439   4.090  10.714   9.758  0.7904 -0.7761  0.4532
  794MOL0     C 9440   4.107  10.835   9.831 -0.9445  1.1243 -0.3935
  794MOL0     C 9441   4.065  10.852   9.966 -0.2695  0.0744  0.2464
  794MOL0     O 9442   4.090  10.972  10.030 -0.3711  0.0288 -0.4067
  794MOL0     C 9443   4.102  11.091   9.949 -0.0110 -0.2862  0.2763
  794MOL0     C 9444   4.122  11.203  10.051 -0.6730 -0.6222  0.3820
  794MOL0     C 9445   4.089  11.342   9.994 -0.1453  0.7698 -0.1016
  794MOL0     C 9446   3.930  11.364   9.970  0.0309  0.3151 -0.5613
  794MOL0     C 9447   3.904  11.523   9.946 -0.2850  0.1040 -0.5241
  794MOL0     C 9448   3.761  11.565   9.902 -0.6886  0.7170  0.4136
  794MOL0     C 9449   3.658  11.546  10.004  0.3898 -0.2012  0.4265
  794MOL0     C 9450   3.650  11.670  10.098  0.7231 -0.9797 -0.5345
  794MOL0     N 9451   3.563  11.642  10.217 -0.2700  0.7298  0.0052
  794MOL0     C 9452   3.438  11.588  10.207 -0.5946  0.3338  0.8485
  794MOL0     C 9453   3.408  11.531  10.325  0.2626 -0.7584  0.8752
  794MOL0     C 9454   3.289  11.446  10.353 -0.1509 -0.5418 -0.5038
  794MOL0     C 9455   3.335  11.310  10.417 -0.3120  0.2512  0.1067
  794MOL0     C 9456   3.241  11.266  10.529  0.3831  0.0088 -0.2476
  794MOL0     C 9457   3.300  11.139  10.608  0.0320  0.3483  0.8461
  794MOL0     O 9458   3.196  11.108  10.707 -0.4605  0.4488  0.2269
  794MOL0     C 9459   3.224  11.011  10.795 -0.0322  0.6481  1.3577
  794MOL0     C 9460   3.351  10.937  10.783  0.9006  0.0335 -0.0095
  794MOL0     C 9461   3.384  10.844  10.888 -0.2627 -0.3288 -0.0495
  794MOL0     C 9462   3.519  10.782  10.879  0.3011  0.0469 -0.2896
  794MOL0     C 9463   3.304  10.815  10.996  0.6846 -0.2458 -0.6232
  794MOL0     C 9464   3.344  10.740  11.126  0.4881  0.2816 -0.5744
  794MOL0     O 9465   3.245  10.721  11.228  0.6354  0.0603 -0.2632
  794MOL0     C 9466   3.270  10.685  11.357 -0.9810 -0.2429  0.4579
  794MOL0     C 9467   3.283  10.780  11.460 -0.1957 -0.3403  0.9048
  794MOL0     C 9468   3.311  10.749  11.590 -1.0076 -0.1146  0.0796
  794MOL0     C 9469   3.342  10.615  11.622  0.3894 -0.5387 -0.1940
  794MOL0     O 9470   3.375  10.575  11.746 -0.1137 -0.1558 -0.1329
  794MOL0     C 9471   3.496  10.641  11.805 -0.1701  0.3802  0.1010
  794MOL0     C 9472   3.499  10.632  11.949  0.2736 -1.8238 -0.6590
  794MOL0     C 9473   3.617  10.717  12.003  0.1530  0.1710  1.0792
  794MOL0     C 9474   3.752  10.674  11.957 -2.1927 -0.1806  0.7296
  794MOL0     C 9475   3.880  10.737  12.028  1.0359 -0.8633  0.1267
  794MOL0     C 9476   3.892  10.879  11.980  1.0476  0.3180  1.5052
  794MOL0     C 9477   4.002  10.951  12.056  0.4764  0.4416  0.5119
  794MOL0     C 9478   4.031  11.080  11.993 -0.2408  0.4326 -1.0655
  794MOL0    Cl 9479   4.084  11.075  11.822  0.6615 -0.1827  0.2082
  794MOL0     C 9480   3.318  10.509  11.530 -0.6538 -0.2447 -0.5281
  794MOL0     C 9481   3.272  10.549  11.402 -0.3932  0.4176 -0.1273
  794MOL0     O 9482   3.463  10.715  11.152  0.0940  0.2403  0.8790
  794MOL0     C 9483   3.178  10.884  11.003  0.3005 -0.0653  0.1455
  794MOL0     C 9484   3.138  10.983  10.907 -0.5936 -1.1265 -0.6068
  794MOL0     N 9485   3.515  11.551  10.417 -0.2371  0.0566  0.0352
  794MOL0     N 9486   3.609  11.614  10.344 -0.3292 -0.7590 -0.6361
  794MOL0     C 9487   4.007  10.747  10.040 -0.0933 -0.2630 -0.1209
  794MOL0     C 9488   3.998  10.624   9.967  0.8160  0.1721 -0.1159
  794MOL0     C 9489   4.080  10.278   9.699 -1.3010 -1.1043  0.1001
  794MOL0     C 9490   4.006  10.293   9.578 -0.1572 -0.5816 -0.3682
  794MOL0     C 9491   3.981  10.182   9.500  0.1550  0.8724 -0.0355
  794MOL0     C 9492   4.031  10.057   9.531 -0.6138  0.8019 -0.2043
  794MOL0     O 9493   4.024   9.947   9.454 -0.2367 -0.1621  0.7760
  794MOL0     C 9494   3.990   9.942   9.317  0.6264 -0.7675 -0.6626
  794MOL0     C 9495   3.836   9.918   9.318  0.8767 -0.4466  0.5296
  794MOL0     C 9496   3.799   9.782   9.381 -0.3849 -0.1950  0.3576
  794MOL0     C 9497   3.652   9.762   9.386  0.9846 -0.1428  1.0784
  794MOL0     C 9498   3.620   9.656   9.477  0.1867  0.0041 -1.2107
  794MOL0     C 9499   3.589   9.583   9.570  0.2532  0.0154 -0.2690
  794MOL0     C 9500   4.098  10.045   9.655 -0.4625  0.5358 -0.3471
  794MOL0     C 9501   4.118  10.152   9.743 -0.9620  1.6045 -0.4342
  794MOL0     C 9502   4.184  10.124   9.877  0.6687 -0.1656 -0.4256
  794MOL0     H 9503   4.122  10.706   9.655 -1.4718 -2.0523 -0.2084
  794MOL0     H 9504   4.170  10.905   9.777  3.0475 -3.0452 -1.7873
  794MOL0     H 9505   4.013  11.101   9.887  0.0047 -1.0358  0.1185
  794MOL0     H 9506   4.191  11.088   9.886  1.4691 -1.0719  2.2779
  794MOL0     H 9507   4.060  11.186  10.140 -1.0377 -1.3814 -0.0124
  794MOL0     H 9508   4.225  11.199  10.087 -0.5182 -2.6418 -0.1374
  794MOL0     H 9509   4.131  11.426  10.050 -1.6157  0.5784  1.3289
  794MOL0     H 9510   4.141  11.355   9.898  2.1715  1.7497  1.1952
  794MOL0     H 9511   3.883  11.305   9.891 -0.0551 -0.9996  0.4380
  794MOL0     H 9512   3.888  11.348  10.070  0.7477 -1.1686 -0.4701
  794MOL0     H 9513   3.980  11.561   9.877 -2.4959  0.2805 -3.0239
  794MOL0     H 9514   3.913  11.579  10.039 -3.0674  0.7067 -0.5186
  794MOL0     H 9515   3.760  11.668   9.864  0.7850  0.0904 -1.4710
  794MOL0     H 9516   3.730  11.493   9.826 -0.3317  1.6797 -0.6761
  794MOL0     H 9517   3.678  11.456  10.063 -1.3681  1.2301  3.4326
  794MOL0     H 9518   3.559  11.528   9.961  0.2418  2.3057 -0.4676
  794MOL0     H 9519   3.749  11.697  10.133  0.5101  0.3543 -0.9113
  794MOL0     H 9520   3.613  11.757  10.043  2.8291  0.6876  0.5428
  794MOL0     H 9521   3.377  11.568  10.120  0.6755  2.8185 -0.7483
  794MOL0     H 9522   3.240  11.418  10.259  0.4770  1.7048 -1.5744
  794MOL0     H 9523   3.231  11.505  10.426  1.0874  2.7069 -1.9347
  794MOL0     H 9524   3.340  11.233  10.339  0.8297 -1.7726  2.0258
  794MOL0     H 9525   3.434  11.326  10.461  1.0058  0.4763 -2.7017
  794MOL0     H 9526   3.233  11.347  10.602  0.7342 -0.6111  0.5000
  794MOL0     H 9527   3.142  11.245  10.487 -0.2621 -1.6128  1.8810
  794MOL0     H 9528   3.328  11.062  10.536  1.2991  3.6144 -2.4880
  794MOL0     H 9529   3.394  11.171  10.652 -0.1754  1.1348  0.7335
  794MOL0     H 9530   3.426  10.953  10.706  0.4673 -0.7620 -0.6130
  794MOL0     H 9531   3.570  10.806  10.786  2.7931  0.2793  1.0427
  794MOL0     H 9532   3.527  10.675  10.902 -1.5399  0.0858  0.7547
  794MOL0     H 9533   3.577  10.832  10.958  2.7424 -2.0235 -0.6431
  794MOL0     H 9534   3.273  10.885  11.434  1.9335 -0.5011 -0.7977
  794MOL0     H 9535   3.321  10.827  11.665 -1.7496  3.0715 -2.9314
  794MOL0     H 9536   3.581  10.586  11.764 -1.6747 -0.7592 -1.6073
  794MOL0     H 9537   3.504  10.747  11.778  2.0676  0.4209  0.6989
  794MOL0     H 9538   3.402  10.676  11.975  0.6121 -0.4266 -1.6349
  794MOL0     H 9539   3.495  10.531  11.989  2.3742 -2.0435 -0.8879
  794MOL0     H 9540   3.620  10.687  12.108  1.9455  1.7901  1.5500
  794MOL0     H 9541   3.595  10.823  11.988  2.7952  0.7776  1.0333
  794MOL0     H 9542   3.764  10.695  11.850  1.7595  0.2547  1.1328
  794MOL0     H 9543   3.767  10.567  11.975 -0.2029 -0.1511 -0.5198
  794MOL0     H 9544   3.867  10.735  12.137  0.8245  1.6170  0.1918
  794MOL0     H 9545   3.966  10.673  12.006  0.1734 -2.2760  0.7495
  794MOL0     H 9546   3.796  10.930  11.993 -0.3137 -1.1473 -1.7262
  794MOL0     H 9547   3.914  10.880  11.873  0.2593 -0.3964  1.3242
  794MOL0     H 9548   4.092  10.890  12.048 -0.2206 -0.3155 -4.2756
  794MOL0     H 9549   3.975  10.952  12.162 -1.6175  2.9330  0.0717
  794MOL0     H 9550   4.112  11.127  12.049 -0.4973 -1.1929  0.7696
  794MOL0     H 9551   3.943  11.143  12.004 -0.2422  0.6644 -2.2135
  794MOL0     H 9552   3.343  10.406  11.549 -2.7722 -0.5952  0.7369
  794MOL0     H 9553   3.246  10.473  11.330  0.6406  0.2036 -0.2920
  794MOL0     H 9554   3.114  10.877  11.090 -0.4327 -0.7886 -0.4353
  794MOL0     H 9555   3.051  11.041  10.937 -0.9833 -1.6601 -0.6880
  794MOL0     H 9556   3.975  10.749  10.144 -0.3054 -3.0408 -0.0623
  794MOL0     H 9557   3.955  10.535  10.011 -2.7896  0.8682 -1.8284
  794MOL0     H 9558   3.971  10.390   9.545 -2.9803 -0.0692  3.4660
  794MOL0     H 9559   3.917  10.196   9.413  2.0947  1.1663 -1.4729
  794MOL0     H 9560   4.022  10.038   9.277  1.4528  0.0340  1.7497
  794MOL0     H 9561   4.050   9.861   9.273 -0.0546 -1.1545 -0.9039
  794MOL0     H 9562   3.792   9.926   9.218 -0.5267 -4.6002  0.6235
  794MOL0     H 9563   3.787   9.995   9.378 -0.0535  0.0053 -0.7597
  794MOL0     H 9564   3.842   9.703   9.318  3.1001  2.1206 -0.4251
  794MOL0     H 9565   3.843   9.781   9.481 -1.6399  1.3791  0.9746
  794MOL0     H 9566   3.627   9.735   9.283 -2.6557  0.0202  1.7683
  794MOL0     H 9567   3.598   9.855   9.406  0.7544 -0.0205 -0.0434
  794MOL0     H 9568   3.551   9.512   9.641  0.8265  1.8925  2.0597
  794MOL0     H 9569   4.119   9.941   9.677 -0.9797  0.4451 -0.2810
  794MOL0     H 9570   4.159  10.021   9.905  0.5584 -0.1819 -0.5822
  794MOL0     H 9571   4.292  10.140   9.876  0.7258 -0.4882  0.1533
  794MOL0     H 9572   4.136  10.181   9.958 -0.3312 -1.0736 -0.3507
  795MOL0     O 9573   8.569   1.898  11.268  0.0485 -0.6493  0.5244
  795MOL0     C 9574   8.625   1.949  11.361 -0.2978 -0.8254 -0.4224
  795MOL0     O 9575   8.572   2.051  11.441 -0.0944 -0.4134 -0.3330
  795MOL0     C 9576   8.452   2.095  11.398  0.7690 -0.7303  0.4865
  795MOL0     C 9577   8.436   2.216  11.328 -0.3702 -0.0150  0.8245
  795MOL0     C 9578   8.313   2.250  11.258 -0.1673 -0.8150 -1.7409
  795MOL0     C 9579   8.195   2.174  11.270  0.0452 -0.1335  0.0784
  795MOL0     O 9580   8.081   2.207  11.204  0.1296 -0.1078 -0.7009
  795MOL0     C 9581   7.965   2.131  11.238  1.3101  0.3274 -0.1309
  795MOL0     C 9582   7.857   2.168  11.132 -0.3813  0.3221  0.7199
  795MOL0     C 9583   7.727   2.085  11.153 -0.2386  0.6312 -0.4799
  795MOL0     C 9584   7.611   2.117  11.066  0.0155 -0.0042 -0.5893
  795MOL0     C 9585   7.494   2.014  11.088  0.3159 -0.2347 -0.0374
  795MOL0     C 9586   7.382   2.033  10.988  0.6035  0.9142 -0.2128
  795MOL0     C 9587   7.244   2.070  11.044  0.8752  0.6593 -0.9760
  795MOL0     C 9588   7.240   2.190  11.133 -0.3419 -0.7307 -0.6458
  795MOL0     N 9589   7.116   2.270  11.103  0.8253 -0.1912 -0.4856
  795MOL0     C 9590   6.983   2.248  11.154 -0.8232 -0.0468  0.2496
  795MOL0     C 9591   6.916   2.354  11.105 -0.1233 -0.0997  1.0751
  795MOL0     C 9592   6.764   2.364  11.109 -0.4366  0.0045 -0.0814
  795MOL0     C 9593   6.717   2.418  11.244 -0.1565  0.1188 -0.6340
  795MOL0     C 9594   6.777   2.553  11.278 -0.1701 -0.5883 -0.4025
  795MOL0     C 9595   6.720   2.624  11.411  0.3445  0.8675  0.5929
  795MOL0     O 9596   6.581   2.635  11.382 -0.6854 -0.5374  0.4176
  795MOL0     C 9597   6.500   2.677  11.483  0.7790 -1.1495  0.4097
  795MOL0     C 9598   6.533   2.695  11.614  0.1734  0.5644 -0.4975
  795MOL0     C 9599   6.455   2.771  11.701 -0.2700 -0.2082  0.5573
  795MOL0     C 9600   6.504   2.785  11.835 -0.4047 -0.0856  0.0397
  795MOL0     C 9601   6.329   2.825  11.662  1.2351  0.7045  0.3007
  795MOL0     C 9602   6.216   2.887  11.747  0.4241 -0.8386  0.5746
  795MOL0     O 9603   6.103   2.926  11.679 -0.1112 -0.3551 -0.6123
  795MOL0     C 9604   6.010   3.006  11.753 -0.0037 -0.3653 -0.9658
  795MOL0     C 9605   6.010   3.145  11.722  0.1698  0.5813 -1.0399
  795MOL0     C 9606   5.916   3.237  11.784  0.3327 -0.1950  0.5469
  795MOL0     C 9607   5.829   3.189  11.878 -0.6250  0.1209 -0.0647
  795MOL0     O 9608   5.733   3.272  11.935 -0.6156 -0.1577  0.2049
  795MOL0     C 9609   5.602   3.205  11.917 -0.2169  0.0676  0.8951
  795MOL0     C 9610   5.537   3.200  12.054  0.4100  0.1887 -1.4259
  795MOL0     C 9611   5.396   3.141  12.027  0.0760 -0.4719  0.5999
  795MOL0     C 9612   5.386   2.990  12.005  0.9150  0.1944  0.1046
  795MOL0     C 9613   5.239   2.945  11.986 -0.3202 -0.7476 -0.0654
  795MOL0     C 9614   5.146   2.978  12.096  0.6618  0.4274 -0.1612
  795MOL0     C 9615   5.183   2.948  12.242  0.7378 -0.5769  0.4273
  795MOL0     C 9616   5.241   2.809  12.251 -0.4179  0.0046 -1.4483
  795MOL0    Cl 9617   5.193   2.729  12.404  0.0144 -0.0813 -0.0049
  795MOL0     C 9618   5.838   3.057  11.922 -0.3593 -0.4955 -0.0547
  795MOL0     C 9619   5.934   2.961  11.864  0.2026 -0.3645  0.6222
  795MOL0     O 9620   6.244   2.908  11.865 -0.1978 -0.1205  0.2271
  795MOL0     C 9621   6.298   2.798  11.527  0.0326  0.0649 -0.5718
  795MOL0     C 9622   6.381   2.726  11.437  0.2978 -0.7984 -0.0528
  795MOL0     N 9623   6.995   2.448  11.045 -0.5831 -0.1835 -0.1665
  795MOL0     N 9624   7.117   2.393  11.043  0.0742 -0.3462  0.5116
  795MOL0     C 9625   8.216   2.061  11.351 -0.8504 -0.2334  0.1777
  795MOL0     C 9626   8.337   2.024  11.416 -0.2192  0.2336  0.2537
  795MOL0     C 9627   8.762   1.893  11.399  0.2143  0.3358  0.3684
  795MOL0     C 9628   8.851   1.979  11.455  0.2113 -0.8176 -0.1670
  795MOL0     C 9629   8.982   1.937  11.496 -0.8039 -0.6372 -0.4509
  795MOL0     C 9630   9.018   1.804  11.478 -0.5417  1.1507 -0.2446
  795MOL0     O 9631   9.133   1.748  11.501 -0.6002 -0.5304  0.5882
  795MOL0     C 9632   9.237   1.810  11.582 -0.0706 -0.0398 -0.3095
  795MOL0     C 9633   9.359   1.720  11.580  0.8052 -0.3864  0.2055
  795MOL0     C 9634   9.335   1.589  11.646 -0.2496  0.5687 -0.1743
  795MOL0     C 9635   9.371   1.573  11.797 -0.0276 -0.0091 -0.3645
  795MOL0     C 9636   9.509   1.558  11.821 -0.2916 -0.2354 -0.2704
  795MOL0     C 9637   9.626   1.553  11.844 -0.2204  0.7902  0.2732
  795MOL0     C 9638   8.931   1.718  11.411 -0.1597 -0.8714 -0.0494
  795MOL0     C 9639   8.799   1.764  11.374  0.3734  0.2854  0.0921
  795MOL0     C 9640   8.720   1.659  11.311  0.0734 -0.2072 -0.0246
  795MOL0     H 9641   8.513   2.290  11.306 -0.6641 -0.4154 -1.8460
  795MOL0     H 9642   8.306   2.345  11.206  0.3323  0.2544  0.0411
  795MOL0     H 9643   7.940   2.161  11.340  1.6364  4.6743 -1.1388
  795MOL0     H 9644   7.975   2.022  11.236 -3.6909 -0.3768 -1.4279
  795MOL0     H 9645   7.827   2.273  11.141 -2.5348  0.0864 -2.2334
  795MOL0     H 9646   7.888   2.162  11.027 -1.2564 -0.4418  0.4900
  795MOL0     H 9647   7.752   1.979  11.146 -0.6622  0.3845  1.4120
  795MOL0     H 9648   7.694   2.093  11.257 -0.6274  1.5042 -0.6631
  795MOL0     H 9649   7.583   2.223  11.071  0.8839  0.2105  0.0723
  795MOL0     H 9650   7.644   2.104  10.963  1.1497 -1.0588 -0.1191
  795MOL0     H 9651   7.453   2.027  11.189  4.1617 -0.8745  1.7975
  795MOL0     H 9652   7.523   1.911  11.064  1.7210  0.1401 -0.0484
  795MOL0     H 9653   7.417   2.107  10.915  2.1149 -0.8594 -1.3713
  795MOL0     H 9654   7.379   1.943  10.926  0.0799  1.9669 -1.7773
  795MOL0     H 9655   7.207   1.986  11.103 -1.6882  2.5511  0.3066
  795MOL0     H 9656   7.168   2.080  10.966 -0.5123 -0.6611  0.1496
  795MOL0     H 9657   7.228   2.153  11.236 -3.4460  0.6539 -0.4019
  795MOL0     H 9658   7.330   2.253  11.137 -0.7935 -0.0990 -0.2394
  795MOL0     H 9659   6.936   2.161  11.200  0.6224 -1.5051 -0.8993
  795MOL0     H 9660   6.718   2.265  11.102 -2.8027  1.0125  0.2671
  795MOL0     H 9661   6.729   2.419  11.021 -3.8280 -3.1203 -0.9450
  795MOL0     H 9662   6.608   2.424  11.242 -0.1106  3.3434  0.7903
  795MOL0     H 9663   6.745   2.361  11.333 -0.1817  1.5804  0.3424
  795MOL0     H 9664   6.886   2.547  11.286 -0.1192  0.0068 -0.6619
  795MOL0     H 9665   6.755   2.623  11.197  0.2447 -2.4753 -2.2230
  795MOL0     H 9666   6.746   2.553  11.491 -3.4634 -2.1947 -0.5592
  795MOL0     H 9667   6.771   2.717  11.436  1.8629  0.0576  0.6509
  795MOL0     H 9668   6.630   2.654  11.640  0.1540  0.7768 -0.0834
  795MOL0     H 9669   6.512   2.888  11.871  3.0990 -1.0278  2.4872
  795MOL0     H 9670   6.599   2.737  11.860  0.6144 -0.2278 -3.5305
  795MOL0     H 9671   6.427   2.741  11.899 -0.5786  0.1406 -0.0132
  795MOL0     H 9672   6.089   3.166  11.650 -1.0077  1.4852 -2.1186
  795MOL0     H 9673   5.890   3.337  11.750 -0.0446  0.6807  3.1619
  795MOL0     H 9674   5.550   3.272  11.848  3.2933  2.7739  0.5750
  795MOL0     H 9675   5.603   3.108  11.868  0.9310  0.7117 -0.4035
  795MOL0     H 9676   5.606   3.150  12.123 -1.1988 -0.0433  0.0684
  795MOL0     H 9677   5.529   3.294  12.109  2.8713 -1.6655  2.5265
  795MOL0     H 9678   5.348   3.186  11.940 -0.1188 -2.5733 -0.4357
  795MOL0     H 9679   5.331   3.165  12.111 -4.0821  1.2405 -2.7306
  795MOL0     H 9680   5.418   2.923  12.085 -1.6516 -1.5935 -0.2387
  795MOL0     H 9681   5.435   2.962  11.911 -1.0347 -1.6898 -0.4141
  795MOL0     H 9682   5.195   2.986  11.895  0.5353  0.3352 -0.0060
  795MOL0     H 9683   5.242   2.836  11.981  2.4207 -0.8116  1.4327
  795MOL0     H 9684   5.046   2.938  12.073  1.0243  0.4284 -1.8897
  795MOL0     H 9685   5.129   3.086  12.091  2.1683  0.8830  2.6844
  795MOL0     H 9686   5.087   2.947  12.294  0.9061  2.3398  0.9561
  795MOL0     H 9687   5.253   3.021  12.282 -0.1596 -0.1436  1.2472
  795MOL0     H 9688   5.348   2.804  12.230  0.2956  1.0574  1.4526
  795MOL0     H 9689   5.210   2.745  12.168 -2.1806 -0.0590 -0.7988
  795MOL0     H 9690   5.771   3.032  12.004 -0.3953  2.4203  0.9149
  795MOL0     H 9691   5.940   2.863  11.909  3.0026 -1.3201 -1.5327
  795MOL0     H 9692   6.207   2.837  11.483 -0.1270 -0.8975 -1.1292
  795MOL0     H 9693   6.371   2.722  11.329  1.3994  0.6698 -0.2412
  795MOL0     H 9694   8.139   1.987  11.372  0.3028 -0.4589  4.6736
  795MOL0     H 9695   8.338   1.930  11.470  0.8881  0.7003  1.0651
  795MOL0     H 9696   8.823   2.084  11.462  0.5614 -0.8375  2.1668
  795MOL0     H 9697   9.061   1.991  11.547  0.2463 -0.9742 -1.6711
  795MOL0     H 9698   9.264   1.910  11.548  1.2285  0.5012  2.0586
  795MOL0     H 9699   9.199   1.819  11.684 -1.9285  0.9124 -1.0424
  795MOL0     H 9700   9.443   1.762  11.634  0.4786 -2.5339  2.5835
  795MOL0     H 9701   9.389   1.696  11.477 -1.5957  0.2779 -0.7189
  795MOL0     H 9702   9.229   1.565  11.635  0.6201 -2.8444 -2.8014
  795MOL0     H 9703   9.401   1.525  11.587 -1.1357 -0.2175 -0.3263
  795MOL0     H 9704   9.317   1.487  11.837 -0.1304 -0.5358 -1.5931
  795MOL0     H 9705   9.325   1.652  11.857 -1.1138 -1.0692  0.2421
  795MOL0     H 9706   9.730   1.555  11.871  0.3572  1.5494 -1.8153
  795MOL0     H 9707   8.963   1.615  11.402  3.5740 -0.1154  2.3817
  795MOL0     H 9708   8.617   1.653  11.347 -0.8091  0.0432 -2.3283
  795MOL0     H 9709   8.706   1.678  11.204 -2.7080  1.0030  0.4738
  795MOL0     H 9710   8.768   1.561  11.322  0.4096 -0.1887 -1.1495
  796MOL0     O 9711  11.013   3.155  10.701 -0.5426 -0.0406 -0.2805
  796MOL0     C 9712  11.000   3.253  10.627 -0.0780  0.0420  0.9349
  796MOL0     O 9713  11.076   3.279  10.521  0.5364 -0.6596 -0.0378
  796MOL0     C 9714  11.171   3.188  10.483  0.1624 -0.4343  0.4473
  796MOL0     C 9715  11.149   3.109  10.361  0.0992  0.0473  1.0480
  796MOL0     C 9716  11.235   3.005  10.325 -0.2184  0.3831 -0.1285
  796MOL0     C 9717  11.338   2.964  10.410 -1.2783 -0.3991  0.0358
  796MOL0     O 9718  11.436   2.872  10.388 -0.3854  0.3875  0.1430
  796MOL0     C 9719  11.434   2.823  10.254 -0.5811 -0.2009 -0.1453
  796MOL0     C 9720  11.557   2.755  10.195  0.0205  0.8990 -0.4780
  796MOL0     C 9721  11.685   2.828  10.221  0.6902 -0.1217  0.6872
  796MOL0     C 9722  11.687   2.965  10.143  0.0387 -0.6148  0.2868
  796MOL0     C 9723  11.815   3.039  10.179 -0.0931 -0.3424 -0.8734
  796MOL0     C 9724  11.942   2.960  10.139 -0.1754  0.9610  0.0542
  796MOL0     C 9725  12.072   3.049  10.128 -1.0931 -0.2170 -0.3571
  796MOL0     C 9726  12.087   3.138  10.012  0.2948  0.2147  0.0085
  796MOL0     N 9727  12.217   3.201   9.992 -0.2888 -0.5101 -0.0075
  796MOL0     C 9728  12.286   3.274  10.088 -0.6714  0.4012  0.5356
  796MOL0     C 9729  12.409   3.305  10.027  0.3486 -0.9266 -0.4974
  796MOL0     C 9730  12.520   3.376  10.098  0.5103 -0.6431 -0.1668
  796MOL0     C 9731  12.639   3.387  10.023  0.5473  0.2359  0.3914
  796MOL0     C 9732  12.744   3.485  10.083  0.1827 -0.2800 -0.1627
  796MOL0     C 9733  12.877   3.505  10.003  0.6964  0.5773 -0.1868
  796MOL0     O 9734  12.970   3.395  10.020  0.0387 -0.4328 -0.6145
  796MOL0     C 9735  13.027   3.390  10.150 -0.2723 -0.6339  0.1129
  796MOL0     C 9736  13.005   3.479  10.259  0.0498  0.7728  0.3709
  796MOL0     C 9737  13.052   3.453  10.392  0.4515  0.9496 -0.9151
  796MOL0     C 9738  13.019   3.545  10.500  0.2865 -0.2195 -0.4294
  796MOL0     C 9739  13.152   3.355  10.403 -0.3773  0.3302  1.4072
  796MOL0     C 9740  13.239   3.335  10.525  0.0996  0.5683  0.5627
  796MOL0     O 9741  13.281   3.209  10.542 -0.2497  0.0674 -0.8932
  796MOL0     C 9742  13.350   3.169  10.653 -0.3768  0.9183  0.2945
  796MOL0     C 9743  13.321   3.195  10.789  0.6078  0.2647  0.4402
  796MOL0     C 9744  13.403   3.145  10.891 -0.6054 -0.2925 -0.8244
  796MOL0     C 9745  13.521   3.076  10.857 -0.4821 -0.5073 -0.6515
  796MOL0     O 9746  13.618   3.039  10.955  0.4839  0.6581 -0.2906
  796MOL0     C 9747  13.610   3.110  11.076 -0.1760  0.4523  0.0818
  796MOL0     C 9748  13.522   3.032  11.180  0.9518  0.4956 -0.2021
  796MOL0     C 9749  13.577   2.885  11.178  0.1699  0.7131 -0.7806
  796MOL0     C 9750  13.530   2.803  11.307 -0.1834  0.3652  0.6947
  796MOL0     C 9751  13.380   2.782  11.313 -0.3141 -0.5870 -0.1626
  796MOL0     C 9752  13.344   2.745  11.465  0.6326 -0.3202  0.3057
  796MOL0     C 9753  13.191   2.744  11.480  0.5048  0.3789 -0.7788
  796MOL0     C 9754  13.145   2.671  11.605 -1.1223 -0.8079  0.5551
  796MOL0    Cl 9755  13.230   2.510  11.624  0.0461  0.4166 -0.7774
  796MOL0     C 9756  13.535   3.031  10.722 -0.3966  0.4597  0.6423
  796MOL0     C 9757  13.447   3.085  10.626 -0.3786  0.4077 -0.0643
  796MOL0     O 9758  13.258   3.432  10.606  0.5641  0.1980  0.1598
  796MOL0     C 9759  13.181   3.280  10.288  1.0328 -0.0041 -0.5392
  796MOL0     C 9760  13.119   3.290  10.169 -0.1985  0.0127  0.4383
  796MOL0     N 9761  12.403   3.257   9.898  0.1247  0.5063  0.3209
  796MOL0     N 9762  12.286   3.203   9.881 -0.4033 -0.1155 -0.0856
  796MOL0     C 9763  11.360   3.034  10.524 -0.5286 -0.1609 -0.7604
  796MOL0     C 9764  11.279   3.141  10.564  0.0878 -0.6042 -0.7683
  796MOL0     C 9765  10.878   3.343  10.638 -0.4408  0.7681 -0.4691
  796MOL0     C 9766  10.785   3.291  10.725  0.0252  0.0206 -0.6229
  796MOL0     C 9767  10.659   3.364  10.754 -0.8132 -0.3934 -0.1400
  796MOL0     C 9768  10.642   3.488  10.696  0.5174  0.4745  0.0837
  796MOL0     O 9769  10.526   3.559  10.699  0.1358  0.6177  0.0099
  796MOL0     C 9770  10.464   3.592  10.831  0.3137 -0.2175 -0.4006
  796MOL0     C 9771  10.406   3.732  10.822  0.8849 -0.0764 -0.5792
  796MOL0     C 9772  10.346   3.777  10.955 -0.8785  1.0238  1.4527
  796MOL0     C 9773  10.273   3.909  10.942 -1.2560 -1.0217 -0.5281
  796MOL0     C 9774  10.371   4.018  10.926 -0.0351 -1.2230 -0.1702
  796MOL0     C 9775  10.432   4.123  10.910  0.6088 -0.5310  0.7637
  796MOL0     C 9776  10.738   3.530  10.603 -0.3792 -0.1168 -0.1378
  796MOL0     C 9777  10.865   3.470  10.577  0.6991 -0.0458 -1.6785
  796MOL0     C 9778  10.963   3.532  10.478 -0.3281  0.2905 -0.1504
  796MOL0     H 9779  11.061   3.131  10.302 -1.5632 -0.5786  3.1728
  796MOL0     H 9780  11.217   2.958  10.229 -0.9934 -1.8949  1.0592
  796MOL0     H 9781  11.428   2.907  10.183  1.7081 -3.4479 -4.6808
  796MOL0     H 9782  11.348   2.759  10.233 -2.8059  2.1669  1.1089
  796MOL0     H 9783  11.567   2.652  10.230 -1.9350  0.2877 -1.5699
  796MOL0     H 9784  11.535   2.759  10.088  1.2823  0.5530 -0.7661
  796MOL0     H 9785  11.706   2.850  10.326  4.7626 -0.0940  0.0328
  796MOL0     H 9786  11.763   2.757  10.193  1.1183  0.7841 -0.5052
  796MOL0     H 9787  11.674   2.938  10.038 -4.0051  0.4532  0.3524
  796MOL0     H 9788  11.595   3.022  10.155 -0.1940 -0.7578 -0.7020
  796MOL0     H 9789  11.817   3.078  10.282 -0.3523  1.3514 -1.4883
  796MOL0     H 9790  11.815   3.131  10.121  0.7266  1.6972  2.1029
  796MOL0     H 9791  11.963   2.879  10.210  1.5077  0.9075 -0.4667
  796MOL0     H 9792  11.917   2.917  10.042 -2.1710  2.4414 -0.1548
  796MOL0     H 9793  12.164   2.989  10.134 -1.4484 -0.6250  2.2421
  796MOL0     H 9794  12.078   3.115  10.215  0.7081  2.3298 -2.2581
  796MOL0     H 9795  12.052   3.088   9.921 -2.1488 -0.9050  1.4525
  796MOL0     H 9796  12.020   3.224  10.020 -1.4995 -1.2203  1.4084
  796MOL0     H 9797  12.251   3.303  10.187  2.0442  3.0042  0.8685
  796MOL0     H 9798  12.551   3.310  10.180  1.6727  0.8659  0.6559
  796MOL0     H 9799  12.493   3.475  10.136  0.4007 -0.7026 -0.0881
  796MOL0     H 9800  12.680   3.286  10.011  1.9109  0.9320 -1.2460
  796MOL0     H 9801  12.612   3.429   9.926 -0.1570 -0.0670  0.4486
  796MOL0     H 9802  12.691   3.580  10.099  0.3096 -0.3838  0.9706
  796MOL0     H 9803  12.761   3.442  10.182 -0.9214 -0.1991  0.0808
  796MOL0     H 9804  12.855   3.502   9.895  1.0064 -2.2075 -0.2371
  796MOL0     H 9805  12.912   3.603  10.037  0.7677  0.2807  0.6171
  796MOL0     H 9806  12.946   3.567  10.236  1.8846  1.1503 -4.0144
  796MOL0     H 9807  13.004   3.487  10.592 -2.1155  1.5335  0.3808
  796MOL0     H 9808  12.928   3.598  10.470 -0.2572 -1.4509 -1.0118
  796MOL0     H 9809  13.101   3.616  10.515  1.3463 -1.2547 -1.0974
  796MOL0     H 9810  13.245   3.269  10.813 -0.4427 -0.7669  0.3939
  796MOL0     H 9811  13.362   3.183  10.984  0.6363 -2.6995  0.8240
  796MOL0     H 9812  13.713   3.113  11.112 -1.2801 -0.6428  3.7651
  796MOL0     H 9813  13.584   3.216  11.062 -0.3627  0.2217 -1.5236
  796MOL0     H 9814  13.535   3.079  11.278  0.0715 -0.8904  0.6052
  796MOL0     H 9815  13.415   3.031  11.157  0.3472 -0.8540  2.3222
  796MOL0     H 9816  13.687   2.882  11.175  0.2457  2.0934 -0.1257
  796MOL0     H 9817  13.537   2.825  11.096 -0.7501  2.0275 -1.3355
  796MOL0     H 9818  13.575   2.857  11.390  4.3801 -2.4998  0.4174
  796MOL0     H 9819  13.585   2.709  11.316 -0.9149 -0.2043 -0.4631
  796MOL0     H 9820  13.329   2.874  11.283 -0.7553 -0.3679  1.1620
  796MOL0     H 9821  13.351   2.714  11.233 -0.2420 -0.7686 -0.0351
  796MOL0     H 9822  13.373   2.812  11.546 -1.0495 -1.1948  1.7068
  796MOL0     H 9823  13.385   2.645  11.480  0.2812 -0.6119 -0.5510
  796MOL0     H 9824  13.142   2.695  11.395 -0.9086  0.5395 -0.0685
  796MOL0     H 9825  13.150   2.845  11.480 -1.9913 -0.5768 -0.2661
  796MOL0     H 9826  13.038   2.654  11.593 -1.1936  0.3595 -0.7280
  796MOL0     H 9827  13.158   2.733  11.694 -3.4478 -0.4901  0.7383
  796MOL0     H 9828  13.623   2.977  10.690 -0.7609  0.2941 -0.1177
  796MOL0     H 9829  13.463   3.044  10.527 -3.3654  1.4950 -1.1021
  796MOL0     H 9830  13.246   3.194  10.298  0.1819 -0.6390 -0.3561
  796MOL0     H 9831  13.132   3.212  10.094 -0.4943 -0.1076  0.5081
  796MOL0     H 9832  11.448   3.012  10.583 -0.0392 -0.1746 -1.4911
  796MOL0     H 9833  11.289   3.190  10.660 -0.4527  0.6210 -1.3126
  796MOL0     H 9834  10.808   3.206  10.788  1.8176  1.0945  0.2506
  796MOL0     H 9835  10.583   3.328  10.823 -1.6463 -1.4455 -1.5467
  796MOL0     H 9836  10.388   3.521  10.863 -0.1594 -1.4856 -3.8828
  796MOL0     H 9837  10.547   3.592  10.902 -1.4264  1.2479  1.7839
  796MOL0     H 9838  10.326   3.732  10.748 -3.2133 -0.0899  3.4183
  796MOL0     H 9839  10.484   3.794  10.777 -0.5369  1.9507 -0.3691
  796MOL0     H 9840  10.262   3.709  10.969 -1.3921  1.1099 -0.8249
  796MOL0     H 9841  10.423   3.776  11.033  2.1205 -0.3108 -1.2848
  796MOL0     H 9842  10.215   3.930  11.032 -0.2365 -0.8148  0.0990
  796MOL0     H 9843  10.206   3.906  10.855 -0.1997 -0.2569 -1.4035
  796MOL0     H 9844  10.491   4.209  10.885  1.1476 -1.8586 -3.1427
  796MOL0     H 9845  10.716   3.629  10.566 -1.5829 -0.3549 -0.1184
  796MOL0     H 9846  10.926   3.627  10.437  0.3012  0.5273 -0.1898
  796MOL0     H 9847  11.055   3.559  10.531  0.2911 -3.1524  0.7586
  796MOL0     H 9848  10.980   3.473  10.388 -0.7653 -1.3994  0.8226
  797MOL0     O 9849   2.911   8.285  11.138 -0.1735  0.3980  0.4867
  797MOL0     C 9850   2.871   8.198  11.214  0.4452 -0.0669  0.5324
  797MOL0     O 9851   2.850   8.222  11.348 -0.3567  0.2736 -0.7377
  797MOL0     C 9852   2.882   8.342  11.404 -0.5200  0.6347  0.0758
  797MOL0     C 9853   2.786   8.407  11.480 -0.6635  0.3712  0.0131
  797MOL0     C 9854   2.816   8.522  11.545 -0.3469 -0.6290  0.9414
  797MOL0     C 9855   2.940   8.586  11.532  0.0212 -0.1042  0.3833
  797MOL0     O 9856   2.967   8.711  11.590  0.5209  0.0188 -0.1051
  797MOL0     C 9857   2.916   8.724  11.723  0.0996 -0.0503 -0.4098
  797MOL0     C 9858   2.987   8.837  11.790 -0.6496 -0.6514  0.5980
  797MOL0     C 9859   3.133   8.820  11.846  0.1732 -0.6213  0.8626
  797MOL0     C 9860   3.182   8.945  11.917  0.5437 -0.6681 -0.0557
  797MOL0     C 9861   3.176   9.077  11.846  0.1710  0.5039  0.1990
  797MOL0     C 9862   3.252   9.079  11.720  0.3675  0.3590 -0.6463
  797MOL0     C 9863   3.270   9.216  11.658 -0.8118  0.5373  0.7133
  797MOL0     C 9864   3.143   9.301  11.651  0.4867 -0.4519  0.2194
  797MOL0     N 9865   3.163   9.419  11.565  0.3103 -0.2935 -0.1951
  797MOL0     C 9866   3.176   9.420  11.428 -0.2683  0.8064 -0.8654
  797MOL0     C 9867   3.209   9.548  11.399 -0.2238 -0.3059 -0.7718
  797MOL0     C 9868   3.227   9.610  11.258  0.2658  0.2016  0.2445
  797MOL0     C 9869   3.104   9.675  11.197 -0.3711  0.3339 -0.0065
  797MOL0     C 9870   3.016   9.562  11.131 -0.4287 -0.7919 -0.1547
  797MOL0     C 9871   2.885   9.612  11.064 -0.9637 -0.0418  0.7209
  797MOL0     O 9872   2.783   9.632  11.159  0.1821  0.4112  0.2738
  797MOL0     C 9873   2.650   9.607  11.126 -0.4144 -0.6378  1.5793
  797MOL0     C 9874   2.568   9.570  11.227  0.4795 -0.6090  1.2153
  797MOL0     C 9875   2.434   9.527  11.198  0.2788  0.0291  0.0365
  797MOL0     C 9876   2.364   9.444  11.299  0.6061  0.0105  0.0053
  797MOL0     C 9877   2.373   9.577  11.072 -0.6970  0.0131 -0.2084
  797MOL0     C 9878   2.229   9.584  11.048 -0.5029  0.6277 -0.2419
  797MOL0     O 9879   2.174   9.533  10.934 -0.2719  0.0577 -0.3689
  797MOL0     C 9880   2.049   9.496  10.947 -0.0925  1.1096  0.3968
  797MOL0     C 9881   2.022   9.372  11.000 -0.6016 -0.1797 -0.5842
  797MOL0     C 9882   1.892   9.318  11.014 -0.0336 -0.2321 -1.3567
  797MOL0     C 9883   1.782   9.392  10.973  0.0899 -0.0074  0.6485
  797MOL0     O 9884   1.654   9.345  10.978  0.0818 -0.1931  0.0463
  797MOL0     C 9885   1.579   9.419  11.076  0.3818  1.5298  0.4153
  797MOL0     C 9886   1.431   9.388  11.052  0.9351 -0.8920  0.1379
  797MOL0     C 9887   1.405   9.241  11.085  0.0430  1.1541 -0.0383
  797MOL0     C 9888   1.277   9.186  11.026  0.4205 -0.3106  0.5158
  797MOL0     C 9889   1.269   9.030  11.034  0.8238  0.8006  0.0666
  797MOL0     C 9890   1.353   8.951  10.926 -0.6211 -0.1123  0.2755
  797MOL0     C 9891   1.327   8.801  10.905 -0.5345 -0.1617  0.1093
  797MOL0     C 9892   1.187   8.780  10.877  0.3235  1.0155  0.3531
  797MOL0    Cl 9893   1.190   8.607  10.831 -0.1191  0.0836  0.1793
  797MOL0     C 9894   1.806   9.525  10.913 -0.9081 -0.5658 -0.6601
  797MOL0     C 9895   1.937   9.569  10.904  0.2551  0.0790 -0.0152
  797MOL0     O 9896   2.166   9.621  11.143  0.1647 -0.0659 -0.2628
  797MOL0     C 9897   2.464   9.646  10.978  0.3238 -0.0871 -0.4334
  797MOL0     C 9898   2.603   9.648  11.000  0.9334 -0.1965 -0.3115
  797MOL0     N 9899   3.214   9.620  11.513  0.5495 -0.1943 -0.6518
  797MOL0     N 9900   3.179   9.544  11.615  0.2179  0.4062  0.5121
  797MOL0     C 9901   3.031   8.529  11.451  0.0481  0.4209  0.7051
  797MOL0     C 9902   3.005   8.408  11.383  0.2384  0.6046  0.0785
  797MOL0     C 9903   2.821   8.065  11.157 -0.8718 -0.3300  0.3198
  797MOL0     C 9904   2.751   7.979  11.246  0.4134  1.1201 -0.8750
  797MOL0     C 9905   2.681   7.866  11.204 -0.7847 -0.7407 -0.9238
  797MOL0     C 9906   2.686   7.823  11.073 -0.6128  0.1906 -0.4940
  797MOL0     O 9907   2.622   7.703  11.037 -0.1725  0.2951 -0.2777
  797MOL0     C 9908   2.652   7.643  10.912 -0.5411  0.3025  0.4476
  797MOL0     C 9909   2.660   7.490  10.922 -0.3171 -0.2369 -0.2012
  797MOL0     C 9910   2.759   7.445  11.014 -1.1914  1.8679 -0.0500
  797MOL0     C 9911   2.773   7.288  11.018 -0.4033  0.6729  0.1362
  797MOL0     C 9912   2.866   7.234  11.119  0.2113 -0.3678  0.2341
  797MOL0     C 9913   2.930   7.181  11.207  0.6580  0.5007 -0.6151
  797MOL0     C 9914   2.758   7.909  10.985  0.6885  0.0320 -0.7848
  797MOL0     C 9915   2.822   8.025  11.021  1.0016 -0.0595 -0.0957
  797MOL0     C 9916   2.869   8.109  10.907  0.4843 -0.6951  0.6045
  797MOL0     H 9917   2.685   8.368  11.487 -0.4363 -0.3841 -0.7278
  797MOL0     H 9918   2.735   8.580  11.588 -0.4352  0.0632 -0.1346
  797MOL0     H 9919   2.934   8.640  11.791  2.8305 -2.2397 -3.5327
  797MOL0     H 9920   2.811   8.755  11.728  0.4662  1.5659 -1.8239
  797MOL0     H 9921   2.991   8.919  11.718  1.2048 -0.8588  0.4189
  797MOL0     H 9922   2.922   8.873  11.871  1.4406  1.7839  1.3205
  797MOL0     H 9923   3.139   8.745  11.926 -1.1160  2.0447  3.6979
  797MOL0     H 9924   3.193   8.787  11.761  0.0639  0.5855  0.2900
  797MOL0     H 9925   3.112   8.962  11.999  1.0350  2.8103 -0.2178
  797MOL0     H 9926   3.286   8.938  11.947  1.4896  2.1201 -2.2858
  797MOL0     H 9927   3.225   9.155  11.905  0.5783 -1.0588  2.0686
  797MOL0     H 9928   3.072   9.109  11.832 -1.0847 -3.3859 -0.8085
  797MOL0     H 9929   3.347   9.027  11.735  0.4230  0.2068 -1.4896
  797MOL0     H 9930   3.198   9.019  11.646  0.9297  0.6713 -1.3258
  797MOL0     H 9931   3.304   9.215  11.554 -2.1100 -0.9036  0.2679
  797MOL0     H 9932   3.352   9.263  11.713  0.0830  1.5692 -1.4289
  797MOL0     H 9933   3.061   9.244  11.606 -1.0911  4.2976 -3.9238
  797MOL0     H 9934   3.104   9.340  11.746 -1.3721 -1.4178 -0.1003
  797MOL0     H 9935   3.149   9.339  11.361 -0.4308 -0.4004  0.6096
  797MOL0     H 9936   3.274   9.537  11.191  1.4812  1.1445  0.0379
  797MOL0     H 9937   3.303   9.688  11.262  0.8284 -0.3130 -0.2623
  797MOL0     H 9938   3.051   9.724  11.279 -0.8122 -2.8766  1.7772
  797MOL0     H 9939   3.141   9.750  11.126 -2.4731  1.0906 -0.3776
  797MOL0     H 9940   3.081   9.506  11.062  1.3796  2.7683 -1.6223
  797MOL0     H 9941   2.993   9.495  11.213 -0.9363  2.3757  2.5021
  797MOL0     H 9942   2.908   9.711  11.023 -1.4567 -0.5007 -0.6910
  797MOL0     H 9943   2.863   9.549  10.978 -1.4326  0.6415  0.3357
  797MOL0     H 9944   2.604   9.538  11.324 -1.1598 -2.0083  1.4017
  797MOL0     H 9945   2.439   9.403  11.367 -1.7887  2.8157  4.7967
  797MOL0     H 9946   2.292   9.374  11.254  1.5342 -1.0231  0.0763
  797MOL0     H 9947   2.314   9.508  11.372 -1.4912 -0.1932 -1.1572
  797MOL0     H 9948   2.112   9.315  11.018 -1.2237 -1.4006 -1.2167
  797MOL0     H 9949   1.879   9.221  11.061  2.8569  0.5128  1.3381
  797MOL0     H 9950   1.611   9.388  11.175  0.3551  0.3814  0.0773
  797MOL0     H 9951   1.593   9.528  11.068  2.6031  1.3057  0.8046
  797MOL0     H 9952   1.365   9.446  11.117  0.1253  1.4547 -2.5314
  797MOL0     H 9953   1.399   9.408  10.949 -2.9260 -0.4203  1.2463
  797MOL0     H 9954   1.413   9.211  11.190  0.1408 -3.4455 -1.1616
  797MOL0     H 9955   1.482   9.180  11.038 -1.1631 -0.6171  0.2135
  797MOL0     H 9956   1.282   9.208  10.919  1.0561  0.6937  0.7294
  797MOL0     H 9957   1.181   9.222  11.064  0.5565 -0.1313  0.6938
  797MOL0     H 9958   1.287   8.985  11.132  3.0632 -0.6873 -0.9284
  797MOL0     H 9959   1.165   9.001  11.018  1.7681 -2.3610 -1.1574
  797MOL0     H 9960   1.458   8.970  10.948 -0.5338  1.8325 -1.4061
  797MOL0     H 9961   1.354   9.006  10.831 -1.2436  0.1053  0.3874
  797MOL0     H 9962   1.337   8.763  11.007  0.3829  3.3830  1.4556
  797MOL0     H 9963   1.398   8.748  10.841  0.5745 -1.7145  2.4908
  797MOL0     H 9964   1.149   8.847  10.800 -3.7271  1.8218  2.7772
  797MOL0     H 9965   1.123   8.787  10.965 -0.7507  1.8783 -0.4678
  797MOL0     H 9966   1.726   9.590  10.879 -0.4943 -1.6753 -4.2153
  797MOL0     H 9967   1.952   9.668  10.863 -1.2333  0.6925  0.8523
  797MOL0     H 9968   2.416   9.691  10.891  0.5469 -0.2160 -0.6240
  797MOL0     H 9969   2.661   9.698  10.923 -1.1070  2.5869 -0.2185
  797MOL0     H 9970   3.126   8.582  11.450  0.1959  0.2704  2.6337
  797MOL0     H 9971   3.064   8.372  11.300 -1.4689  0.8520 -1.3067
  797MOL0     H 9972   2.742   8.007  11.350 -4.1781 -0.4632 -0.5934
  797MOL0     H 9973   2.627   7.810  11.281  1.8601 -1.0176  0.8602
  797MOL0     H 9974   2.575   7.661  10.837  0.0760 -3.0774 -1.1858
  797MOL0     H 9975   2.742   7.677  10.860  1.0409 -1.3190  1.9549
  797MOL0     H 9976   2.681   7.457  10.819  1.4117  3.5602 -1.2284
  797MOL0     H 9977   2.558   7.456  10.941 -0.8407  0.6435 -1.3419
  797MOL0     H 9978   2.858   7.487  10.994  0.4284 -1.3916  0.3703
  797MOL0     H 9979   2.739   7.484  11.114  4.4166  0.2180  2.1059
  797MOL0     H 9980   2.810   7.246  10.924  0.7686  0.4506  0.6777
  797MOL0     H 9981   2.674   7.249  11.043 -0.1711  0.3047  0.5180
  797MOL0     H 9982   3.001   7.154  11.282  0.5536  0.0970 -0.6593
  797MOL0     H 9983   2.746   7.889  10.879 -0.4886  1.4805 -0.9582
  797MOL0     H 9984   2.819   8.206  10.902 -0.8299 -1.4137 -1.9939
  797MOL0     H 9985   2.975   8.138  10.908  0.0396  1.0061  0.3666
  797MOL0     H 9986   2.858   8.055  10.813 -0.7113  1.7969 -0.7774
  798MOL0     O 9987   6.416   9.998   5.575  0.1285 -0.1438  0.0415
  798MOL0     C 9988   6.492  10.095   5.562  0.0650 -0.8373  0.3756
  798MOL0     O 9989   6.457  10.221   5.589  0.3913 -0.4379 -0.7337
  798MOL0     C 9990   6.334  10.253   5.641 -0.8250 -0.1862  0.0241
  798MOL0     C 9991   6.291  10.228   5.766  0.7990 -0.0376 -0.5965
  798MOL0     C 9992   6.167  10.263   5.798  0.5739  0.6056 -0.3146
  798MOL0     C 9993   6.089  10.349   5.719  0.7877  0.9445 -0.6500
  798MOL0     O 9994   5.968  10.382   5.780  0.4563 -0.1572  0.2919
  798MOL0     C 9995   5.904  10.507   5.762  0.8430  0.3738 -0.1461
  798MOL0     C 9996   5.782  10.480   5.675  0.5454 -1.2259 -0.0806
  798MOL0     C 9997   5.687  10.608   5.674 -0.2824  0.9176 -0.0278
  798MOL0     C 9998   5.561  10.590   5.585 -0.4442 -0.4448  0.2013
  798MOL0     C 9999   5.556  10.701   5.471 -0.6747 -0.1840  0.4319
  798MOL0     C10000   5.433  10.676   5.383 -0.5850 -0.5655 -0.8958
  798MOL0     C10001   5.437  10.749   5.246 -0.1708  0.4100 -0.3333
  798MOL0     C10002   5.411  10.908   5.250  0.0504 -0.6408 -0.2952
  798MOL0     N10003   5.270  10.941   5.239  0.8481  0.1031  0.8308
  798MOL0     C10004   5.178  10.924   5.337 -0.5022  0.5780 -0.5143
  798MOL0     C10005   5.062  10.963   5.283 -0.3813 -0.2329 -0.1334
  798MOL0     C10006   4.944  10.985   5.370  0.3762 -0.0458  0.7627
  798MOL0     C10007   4.813  10.929   5.300 -0.3008  0.3775 -0.0756
  798MOL0     C10008   4.693  10.994   5.378  0.4194 -0.2259 -0.0730
  798MOL0     C10009   4.563  10.932   5.327 -0.0692  0.0559 -0.7304
  798MOL0     O10010   4.542  10.950   5.192 -0.2776  0.9090  0.0596
  798MOL0     C10011   4.511  11.072   5.150 -0.6646 -0.0708  0.2015
  798MOL0     C10012   4.488  11.195   5.215 -0.7256 -0.4186  0.4248
  798MOL0     C10013   4.454  11.311   5.151 -0.8884  2.1236  0.0362
  798MOL0     C10014   4.401  11.416   5.245  0.2677 -0.0459 -0.0303
  798MOL0     C10015   4.454  11.313   5.012  0.5414 -0.3799  0.9240
  798MOL0     C10016   4.401  11.428   4.928 -0.6165 -0.1688  0.7358
  798MOL0     O10017   4.403  11.417   4.793 -0.3453 -0.0602  0.3150
  798MOL0     C10018   4.388  11.535   4.721 -0.2069 -0.5845  0.2987
  798MOL0     C10019   4.495  11.618   4.698  0.1909 -0.5684  0.6596
  798MOL0     C10020   4.478  11.743   4.637 -0.0115  0.3366 -0.3669
  798MOL0     C10021   4.346  11.788   4.613 -0.0156 -1.0261  0.3681
  798MOL0     O10022   4.307  11.906   4.539 -0.1238 -0.0721 -0.7609
  798MOL0     C10023   4.418  11.990   4.491  0.2519 -0.5464  0.1947
  798MOL0     C10024   4.483  12.077   4.589  0.8949  0.3416 -0.6307
  798MOL0     C10025   4.404  12.204   4.624 -0.1201  0.4580 -1.0557
  798MOL0     C10026   4.438  12.315   4.540  0.1515  0.7676  0.0799
  798MOL0     C10027   4.382  12.447   4.600 -0.4532 -0.1200  0.4414
  798MOL0     C10028   4.478  12.542   4.675 -0.2939 -0.1387 -0.0277
  798MOL0     C10029   4.551  12.479   4.799  0.3744 -0.0286  0.2591
  798MOL0     C10030   4.597  12.588   4.894 -0.1320 -0.4848 -0.6752
  798MOL0    Cl10031   4.717  12.529   5.004  0.0035 -0.2681 -0.2322
  798MOL0     C10032   4.236  11.709   4.645  0.4349 -1.0078  0.2132
  798MOL0     C10033   4.260  11.577   4.689 -0.6901 -0.2737  0.0689
  798MOL0     O10034   4.370  11.529   4.987 -0.4242 -0.1770  0.2106
  798MOL0     C10035   4.488  11.195   4.945  0.1654  0.4448  1.0118
  798MOL0     C10036   4.519  11.083   5.013  0.0068  0.4725  0.1152
  798MOL0     N10037   5.081  10.995   5.153  0.0053 -0.8519 -0.5519
  798MOL0     N10038   5.202  10.987   5.123  0.2923 -0.8670 -0.0430
  798MOL0     C10039   6.139  10.384   5.600  0.2705 -0.4215  0.1754
  798MOL0     C10040   6.261  10.331   5.557  0.4933  0.1343 -0.1086
  798MOL0     C10041   6.627  10.074   5.496  0.7028  0.4726 -0.7941
  798MOL0     C10042   6.720  10.178   5.507 -0.2858  1.3954  0.7092
  798MOL0     C10043   6.854  10.159   5.449 -0.6353 -0.6075  0.8484
  798MOL0     C10044   6.890  10.039   5.387  0.7244  0.5017  0.1217
  798MOL0     O10045   7.009  10.009   5.329 -0.0535  0.1105 -0.1093
  798MOL0     C10046   7.125  10.080   5.380 -0.0879 -0.2489  0.3262
  798MOL0     C10047   7.261  10.029   5.326 -0.1083 -0.0186  0.3764
  798MOL0     C10048   7.293  10.099   5.191  0.2592 -0.8724 -0.0288
  798MOL0     C10049   7.333  10.254   5.198  0.4908  0.3397 -1.1240
  798MOL0     C10050   7.433  10.287   5.301  0.1057  0.8658  0.6968
  798MOL0     C10051   7.525  10.313   5.365  0.3576  0.3745 -2.0537
  798MOL0     C10052   6.799   9.936   5.381  0.9005 -0.7312 -0.0429
  798MOL0     C10053   6.666   9.945   5.432 -0.3734 -0.0228  0.2728
  798MOL0     C10054   6.583   9.829   5.405  0.1529  0.3713  0.0015
  798MOL0     H10055   6.352  10.160   5.826  1.3169  0.3669 -0.6519
  798MOL0     H10056   6.113  10.238   5.889 -2.6759  2.5374 -1.5418
  798MOL0     H10057   5.977  10.582   5.732 -0.9147  2.4014  0.4019
  798MOL0     H10058   5.857  10.539   5.856 -1.9814 -1.2867 -0.8704
  798MOL0     H10059   5.827  10.478   5.575  1.4258  1.6244  0.1491
  798MOL0     H10060   5.725  10.393   5.709 -0.6041 -1.9826 -3.5267
  798MOL0     H10061   5.648  10.629   5.773 -2.5708 -1.1351 -0.3900
  798MOL0     H10062   5.751  10.686   5.633 -0.4375 -0.6114 -3.5655
  798MOL0     H10063   5.549  10.493   5.535 -2.3467  0.3959 -1.0633
  798MOL0     H10064   5.477  10.610   5.652 -0.6571  2.1881 -0.7591
  798MOL0     H10065   5.641  10.694   5.403 -0.5244 -1.3247  0.7134
  798MOL0     H10066   5.549  10.798   5.523 -1.9916  0.8615 -1.5811
  798MOL0     H10067   5.425  10.570   5.357  1.1104 -1.3417  1.4083
  798MOL0     H10068   5.339  10.690   5.437 -0.7404 -2.3984 -0.6225
  798MOL0     H10069   5.370  10.700   5.175 -0.6810  1.2821 -0.4647
  798MOL0     H10070   5.533  10.733   5.197 -1.8929 -1.2131 -3.4351
  798MOL0     H10071   5.463  10.944   5.339 -2.2313 -0.2888  0.9610
  798MOL0     H10072   5.464  10.955   5.166  0.4642 -0.5766  0.0001
  798MOL0     H10073   5.222  10.901   5.433 -0.6008  3.0010  0.1805
  798MOL0     H10074   4.942  11.094   5.384  1.1655  0.2693 -1.1888
  798MOL0     H10075   4.973  10.934   5.462  2.5999  1.0646  0.7470
  798MOL0     H10076   4.804  10.956   5.194 -2.0939  2.0648  0.4316
  798MOL0     H10077   4.809  10.820   5.300  2.2981  0.2047 -1.5424
  798MOL0     H10078   4.713  10.976   5.483  3.3696 -0.8181 -0.6637
  798MOL0     H10079   4.691  11.099   5.348  0.8528 -0.6826 -1.8385
  798MOL0     H10080   4.566  10.823   5.339  0.6281  0.1810  0.3121
  798MOL0     H10081   4.477  10.969   5.383 -0.7794  0.9158 -2.3293
  798MOL0     H10082   4.471  11.189   5.322  0.7705  2.2956  0.9171
  798MOL0     H10083   4.292  11.421   5.249  0.2739  0.9343 -0.8837
  798MOL0     H10084   4.417  11.519   5.212 -3.7837  0.6998 -0.1702
  798MOL0     H10085   4.453  11.416   5.341  0.1329 -0.3372  0.0476
  798MOL0     H10086   4.598  11.583   4.703  2.1733  4.2793 -0.7550
  798MOL0     H10087   4.566  11.797   4.603  0.1441  1.2003  1.3005
  798MOL0     H10088   4.497  11.931   4.443  0.4023  0.0069 -0.2473
  798MOL0     H10089   4.376  12.053   4.413  2.5930  0.9382  0.0393
  798MOL0     H10090   4.496  12.012   4.676 -1.9450  0.6056  0.0894
  798MOL0     H10091   4.584  12.104   4.557  0.2376  0.0506 -3.1798
  798MOL0     H10092   4.442  12.228   4.723  1.0320  0.2756 -1.4451
  798MOL0     H10093   4.296  12.187   4.626 -0.0610  0.0895 -0.9800
  798MOL0     H10094   4.385  12.298   4.446 -1.0905 -0.1821  0.9297
  798MOL0     H10095   4.546  12.324   4.525  0.1968  0.5873  0.2994
  798MOL0     H10096   4.351  12.511   4.518 -0.0711  0.4178  0.7109
  798MOL0     H10097   4.295  12.433   4.665 -0.2142  1.7435  1.2150
  798MOL0     H10098   4.426  12.631   4.713  2.1794  1.6743 -0.5969
  798MOL0     H10099   4.557  12.583   4.611 -0.9332  1.4079  0.1110
  798MOL0     H10100   4.637  12.421   4.765  0.5953 -0.1369  0.9877
  798MOL0     H10101   4.489  12.405   4.852  2.3447 -1.3999  0.7620
  798MOL0     H10102   4.506  12.610   4.950  0.0781 -0.9202 -0.1577
  798MOL0     H10103   4.633  12.675   4.838 -0.3156  0.5852  0.8297
  798MOL0     H10104   4.134  11.738   4.619  0.9878  0.3686 -0.5384
  798MOL0     H10105   4.180  11.503   4.697 -0.4661 -0.5415 -0.1395
  798MOL0     H10106   4.487  11.182   4.838  2.0538 -1.7845  1.1878
  798MOL0     H10107   4.531  10.988   4.962  3.3100  0.6444  0.3769
  798MOL0     H10108   6.089  10.453   5.533  2.7234  1.0277 -0.2723
  798MOL0     H10109   6.294  10.356   5.457  0.1282 -0.6702 -0.4331
  798MOL0     H10110   6.695  10.273   5.553 -2.4972  0.7935  0.8349
  798MOL0     H10111   6.931  10.233   5.465  1.2311 -1.5406 -2.6010
  798MOL0     H10112   7.125  10.188   5.364  2.5614 -0.0344  1.2224
  798MOL0     H10113   7.129  10.068   5.489 -2.4681 -0.3833  0.4492
  798MOL0     H10114   7.267   9.922   5.303  3.7402  0.3520 -1.1554
  798MOL0     H10115   7.343  10.043   5.397  0.6409 -0.9209 -0.2853
  798MOL0     H10116   7.382  10.045   5.156  1.2152  0.2807  0.5381
  798MOL0     H10117   7.215  10.079   5.116  2.3030 -1.0116 -2.2410
  798MOL0     H10118   7.242  10.307   5.227  0.8416 -0.0074  0.7186
  798MOL0     H10119   7.358  10.272   5.093  0.1337 -0.8899 -1.4397
  798MOL0     H10120   7.615  10.336   5.417 -0.4294  1.1170 -0.9578
  798MOL0     H10121   6.838   9.845   5.337  0.3705  0.5824 -3.4887
  798MOL0     H10122   6.550   9.796   5.504  0.8287  4.4427  1.7981
  798MOL0     H10123   6.496   9.857   5.345  1.3235 -0.8069 -2.3685
  798MOL0     H10124   6.635   9.752   5.348  1.5563  2.0572 -1.1258
  799MOL0     O10125   4.603  10.051   5.730  0.0646 -0.3591  0.2148
  799MOL0     C10126   4.628   9.929   5.726 -0.3133  0.5956 -0.4869
  799MOL0     O10127   4.544   9.833   5.680  0.7733  0.4551  0.5088
  799MOL0     C10128   4.406   9.868   5.684  0.2374  0.1019  0.4688
  799MOL0     C10129   4.346   9.890   5.800  0.2811 -0.0705  0.5415
  799MOL0     C10130   4.204   9.912   5.812  0.6317 -0.6338  0.8242
  799MOL0     C10131   4.131   9.906   5.687 -0.3165  0.2116  0.6594
  799MOL0     O10132   4.001   9.916   5.675 -0.3652 -1.0285 -0.0236
  799MOL0     C10133   3.934   9.989   5.785  0.4218  0.0520 -1.0286
  799MOL0     C10134   3.807  10.061   5.739 -0.0155 -0.2083  0.7427
  799MOL0     C10135   3.692   9.965   5.712  0.6625  0.0590  0.2257
  799MOL0     C10136   3.553  10.036   5.706  0.3434  0.2771 -0.3184
  799MOL0     C10137   3.433   9.938   5.724  0.3331  0.2191  0.0860
  799MOL0     C10138   3.458   9.837   5.844  0.0120 -0.8432 -0.3303
  799MOL0     C10139   3.330   9.775   5.901 -0.5062 -0.4005 -0.3528
  799MOL0     C10140   3.220   9.733   5.797  0.7341 -0.0691  0.5966
  799MOL0     N10141   3.267   9.625   5.712  0.2580  0.1505 -0.3536
  799MOL0     C10142   3.308   9.499   5.746 -0.1724  0.5282  0.5819
  799MOL0     C10143   3.344   9.448   5.624 -0.7842 -0.1929 -0.0757
  799MOL0     C10144   3.422   9.326   5.610 -0.6853  0.6421 -0.6208
  799MOL0     C10145   3.572   9.332   5.642  0.4576 -0.0879  0.2310
  799MOL0     C10146   3.655   9.403   5.535 -0.9135  0.0071 -1.1686
  799MOL0     C10147   3.671   9.556   5.566 -0.1151 -0.5884  0.6006
  799MOL0     O10148   3.714   9.587   5.700  0.0387 -0.1213  0.6034
  799MOL0     C10149   3.849   9.581   5.727 -0.5170 -0.8011 -0.7527
  799MOL0     C10150   3.955   9.519   5.666  0.4062 -0.7833 -0.1820
  799MOL0     C10151   4.089   9.531   5.714  0.7820  0.6278 -0.4052
  799MOL0     C10152   4.199   9.481   5.619 -0.7570 -0.7109  0.3386
  799MOL0     C10153   4.104   9.586   5.842  0.1924 -0.7569  0.0888
  799MOL0     C10154   4.230   9.571   5.926 -0.0534 -0.8405 -0.1274
  799MOL0     O10155   4.236   9.650   6.038  0.1806  0.0297 -0.4501
  799MOL0     C10156   4.305   9.635   6.150 -0.2051 -0.6324  0.0944
  799MOL0     C10157   4.363   9.518   6.203  0.1164  1.1215  0.1846
  799MOL0     C10158   4.439   9.501   6.318  0.7388 -0.3524  0.2879
  799MOL0     C10159   4.467   9.617   6.388  0.6748  0.6621  0.3504
  799MOL0     O10160   4.556   9.592   6.491 -0.3894  0.4743 -0.1071
  799MOL0     C10161   4.610   9.700   6.566 -0.9223 -0.4101 -0.4296
  799MOL0     C10162   4.505   9.761   6.661  0.4036 -0.4927 -0.3369
  799MOL0     C10163   4.577   9.837   6.762  0.1787  0.0382 -0.8339
  799MOL0     C10164   4.500   9.860   6.893 -0.1020 -0.2002 -0.7448
  799MOL0     C10165   4.489   9.736   6.990  0.5738  1.4014 -0.8185
  799MOL0     C10166   4.431   9.786   7.118 -0.2374 -0.3269  0.3207
  799MOL0     C10167   4.422   9.684   7.229 -0.2998  0.1767 -0.0298
  799MOL0     C10168   4.380   9.740   7.364 -0.8456  0.7307 -0.7552
  799MOL0    Cl10169   4.338   9.616   7.475 -0.1499 -0.2492 -0.2138
  799MOL0     C10170   4.414   9.739   6.342 -0.3280  0.4387  0.6763
  799MOL0     C10171   4.331   9.743   6.230 -0.4934 -0.0733  0.0428
  799MOL0     O10172   4.303   9.481   5.895 -0.2477 -0.5629  0.1513
  799MOL0     C10173   3.995   9.645   5.903  0.1983  0.6410  0.5714
  799MOL0     C10174   3.870   9.650   5.845  0.3517 -1.1796 -0.4922
  799MOL0     N10175   3.320   9.535   5.516 -0.3525  0.5491 -0.1366
  799MOL0     N10176   3.268   9.633   5.579  0.0680  0.0756  0.5067
  799MOL0     C10177   4.198   9.876   5.569  0.2845 -0.0601 -0.2723
  799MOL0     C10178   4.332   9.853   5.565  0.2349 -0.2473  1.0198
  799MOL0     C10179   4.765   9.892   5.766  0.7679  0.4639  0.3743
  799MOL0     C10180   4.797   9.751   5.773 -0.3948  0.6080 -0.3483
  799MOL0     C10181   4.927   9.703   5.782 -0.5471 -0.3569 -0.1481
  799MOL0     C10182   5.036   9.790   5.784  0.2792 -0.3726  0.2756
  799MOL0     O10183   5.163   9.740   5.799  0.0905  0.5704 -0.4059
  799MOL0     C10184   5.268   9.830   5.825 -1.0788 -0.4344  1.2877
  799MOL0     C10185   5.392   9.747   5.850 -0.2994 -0.9770  0.5724
  799MOL0     C10186   5.373   9.671   5.982 -0.3679  0.2054  0.1007
  799MOL0     C10187   5.493   9.593   6.023 -0.3091  0.0503  0.6473
  799MOL0     C10188   5.455   9.525   6.146  0.0984  0.3434 -0.8289
  799MOL0     C10189   5.410   9.467   6.241 -0.7785  0.2058 -0.1819
  799MOL0     C10190   5.014   9.932   5.790 -0.0757  0.9349 -0.5874
  799MOL0     C10191   4.879   9.977   5.762 -0.1751  0.5242  0.8621
  799MOL0     C10192   4.875  10.129   5.767 -0.6199 -0.8503  0.3446
  799MOL0     H10193   4.408   9.873   5.887 -0.2040 -4.1308  0.2870
  799MOL0     H10194   4.153   9.938   5.904 -2.4746  0.9986 -1.1698
  799MOL0     H10195   4.003  10.063   5.826 -0.0037 -0.1361  0.0647
  799MOL0     H10196   3.906   9.919   5.864 -3.4793  1.4469 -0.9476
  799MOL0     H10197   3.774  10.131   5.817  2.8303  4.1611 -1.5772
  799MOL0     H10198   3.825  10.118   5.648 -1.8066 -1.0254 -0.1829
  799MOL0     H10199   3.713   9.915   5.618 -0.7147  0.5757 -0.3804
  799MOL0     H10200   3.703   9.897   5.797  4.4008 -0.0739 -0.1690
  799MOL0     H10201   3.557  10.111   5.785  1.3315  1.5433 -1.5304
  799MOL0     H10202   3.543  10.085   5.608  1.5332  0.0443 -0.5726
  799MOL0     H10203   3.413   9.895   5.626  1.4474  2.8891 -1.4277
  799MOL0     H10204   3.344   9.996   5.749  0.0190  0.5871 -1.7594
  799MOL0     H10205   3.527   9.761   5.808  3.6268  1.8469  0.3715
  799MOL0     H10206   3.514   9.879   5.928 -1.5192 -2.3821  1.5629
  799MOL0     H10207   3.280   9.839   5.975  0.4159 -1.4182  1.2191
  799MOL0     H10208   3.352   9.680   5.951 -0.7611 -1.5300 -2.2984
  799MOL0     H10209   3.128   9.695   5.842  0.0873 -0.6123 -1.0761
  799MOL0     H10210   3.180   9.814   5.735 -1.5886 -1.1938  0.4963
  799MOL0     H10211   3.318   9.455   5.845 -3.9725  0.5047  1.0936
  799MOL0     H10212   3.409   9.295   5.506  2.9513 -0.8577 -0.7667
  799MOL0     H10213   3.375   9.251   5.674  0.6547  3.5479  4.2842
  799MOL0     H10214   3.561   9.391   5.734 -0.7409  1.2218 -0.7244
  799MOL0     H10215   3.622   9.237   5.664 -2.0176 -1.6741 -0.6272
  799MOL0     H10216   3.754   9.357   5.542 -0.9401  0.1740  2.4019
  799MOL0     H10217   3.614   9.376   5.437 -0.8527 -3.1001 -0.4480
  799MOL0     H10218   3.736   9.609   5.496 -1.2908 -1.7617 -1.4838
  799MOL0     H10219   3.577   9.609   5.545  0.3183  0.2197  0.6950
  799MOL0     H10220   3.929   9.468   5.574  3.4778 -0.1567 -1.5242
  799MOL0     H10221   4.279   9.415   5.653 -0.5665 -0.3290  0.6470
  799MOL0     H10222   4.245   9.572   5.581 -2.2708  1.1900  2.7577
  799MOL0     H10223   4.153   9.432   5.533  1.4489 -0.2231 -1.1791
  799MOL0     H10224   4.346   9.418   6.163  0.4159  0.0273  2.6535
  799MOL0     H10225   4.465   9.402   6.354 -0.8150 -0.4665  1.1848
  799MOL0     H10226   4.693   9.646   6.613  0.6523  1.3778 -1.0064
  799MOL0     H10227   4.662   9.773   6.503  1.0901 -1.9702 -0.6754
  799MOL0     H10228   4.437   9.829   6.609  1.7889  0.5951 -0.7821
  799MOL0     H10229   4.456   9.676   6.709  0.6304 -0.9034 -0.8379
  799MOL0     H10230   4.602   9.928   6.708  0.1001 -0.6373 -2.0350
  799MOL0     H10231   4.674   9.789   6.781 -0.0701  0.3806  1.5829
  799MOL0     H10232   4.404   9.905   6.867  0.6661  1.1297 -1.3688
  799MOL0     H10233   4.561   9.943   6.929  2.9322 -2.4109 -0.4062
  799MOL0     H10234   4.419   9.670   6.938  1.0776  2.5155 -3.0214
  799MOL0     H10235   4.582   9.685   7.017  0.6230  2.3710  1.0394
  799MOL0     H10236   4.338   9.840   7.097  0.8680  1.8479  0.6417
  799MOL0     H10237   4.507   9.855   7.158 -0.0721 -0.5223  0.3465
  799MOL0     H10238   4.520   9.638   7.241 -0.0279  1.0847  1.4288
  799MOL0     H10239   4.338   9.618   7.206  0.2735  0.2929 -2.8043
  799MOL0     H10240   4.297   9.810   7.366 -2.5696 -1.2085  1.0962
  799MOL0     H10241   4.469   9.779   7.414 -0.3384 -2.8310  1.5037
  799MOL0     H10242   4.430   9.831   6.397 -2.7674  1.4582 -0.1302
  799MOL0     H10243   4.279   9.835   6.204 -0.0980 -0.2932 -1.6729
  799MOL0     H10244   4.005   9.671   6.008  0.2908  0.0999  0.7017
  799MOL0     H10245   3.794   9.693   5.909 -0.3925  0.6460 -2.5119
  799MOL0     H10246   4.138   9.874   5.478  0.4633  1.6899 -0.4695
  799MOL0     H10247   4.378   9.833   5.469 -1.7034  0.6261 -0.1631
  799MOL0     H10248   4.727   9.669   5.760  2.2514 -1.6209 -1.8653
  799MOL0     H10249   4.942   9.595   5.784 -1.1611 -0.4444 -0.1812
  799MOL0     H10250   5.286   9.889   5.735  1.6519 -1.1626  1.2795
  799MOL0     H10251   5.254   9.901   5.907 -2.6381  0.1820  0.5368
  799MOL0     H10252   5.474   9.817   5.866 -1.8422  0.7388  1.4157
  799MOL0     H10253   5.421   9.670   5.778  1.6107 -0.6722  0.9579
  799MOL0     H10254   5.345   9.737   6.065 -1.0429 -0.9377  0.8153
  799MOL0     H10255   5.291   9.603   5.958  0.8695 -0.1310 -3.7256
  799MOL0     H10256   5.581   9.657   6.030  0.2241 -0.3251 -1.8514
  799MOL0     H10257   5.514   9.524   5.941  2.8521  1.5285  0.0673
  799MOL0     H10258   5.355   9.419   6.319 -4.8508  0.6726 -2.4644
  799MOL0     H10259   5.093  10.005   5.784  0.2587  0.7543  1.1720
  799MOL0     H10260   4.974  10.173   5.761 -0.2622 -1.8383 -1.8105
  799MOL0     H10261   4.832  10.179   5.680  2.6892  1.1296 -0.3042
  799MOL0     H10262   4.823  10.167   5.856  1.4499 -1.5096  1.9117
  800MOL0     O10263   9.803   7.692   9.303  0.3281 -0.3224 -0.4229
  800MOL0     C10264   9.769   7.798   9.248  0.7763  0.7471  0.2290
  800MOL0     O10265   9.798   7.920   9.298  0.1874 -0.3637 -0.2219
  800MOL0     C10266   9.885   7.940   9.402 -0.1130 -0.3842 -0.5528
  800MOL0     C10267  10.000   8.007   9.375 -0.4093 -0.1146 -0.1185
  800MOL0     C10268  10.086   8.036   9.482 -0.3307  0.5906  0.7412
  800MOL0     C10269  10.056   8.001   9.617 -1.1529 -0.0811  0.1024
  800MOL0     O10270  10.138   8.029   9.729  0.1979 -0.7298 -0.0294
  800MOL0     C10271  10.275   8.066   9.713 -0.7334  0.0344 -0.2492
  800MOL0     C10272  10.356   7.948   9.659  0.1806 -0.5820  0.1355
  800MOL0     C10273  10.486   7.986   9.606  0.0401 -0.0777 -0.3142
  800MOL0     C10274  10.557   7.856   9.553  0.3429  0.0499 -0.4451
  800MOL0     C10275  10.691   7.888   9.473  0.1838 -0.3099 -0.5233
  800MOL0     C10276  10.779   7.753   9.474  0.4666  0.3082  0.4813
  800MOL0     C10277  10.917   7.757   9.414 -0.4296 -0.3663 -0.0286
  800MOL0     C10278  11.005   7.846   9.500 -0.0483  0.2136 -0.8512
  800MOL0     N10279  11.137   7.860   9.442 -0.2547 -0.1968 -0.6761
  800MOL0     C10280  11.230   7.762   9.410  0.1738  0.0141 -0.8200
  800MOL0     C10281  11.330   7.821   9.324 -0.0064  0.1061  0.2416
  800MOL0     C10282  11.458   7.760   9.271 -0.3019 -0.3787  0.4529
  800MOL0     C10283  11.485   7.769   9.114 -0.4809 -0.3530 -0.2014
  800MOL0     C10284  11.607   7.663   9.089 -0.0276 -0.2094  0.5946
  800MOL0     C10285  11.738   7.724   9.126 -0.1015  1.5583  0.2502
  800MOL0     O10286  11.771   7.841   9.049 -0.3361  0.3879 -0.1612
  800MOL0     C10287  11.877   7.921   9.089  0.4541 -0.4280  0.7054
  800MOL0     C10288  11.893   8.040   9.010  0.8798  0.6617 -0.3012
  800MOL0     C10289  12.018   8.110   9.012 -0.1310  0.2825  0.3386
  800MOL0     C10290  12.019   8.227   8.917 -0.1515  0.6169  0.0240
  800MOL0     C10291  12.116   8.082   9.113  0.1770  0.5947  0.0523
  800MOL0     C10292  12.253   8.144   9.129 -0.9883  0.0991 -1.0465
  800MOL0     O10293  12.290   8.251   9.057 -0.2412  0.0259 -0.0277
  800MOL0     C10294  12.398   8.328   9.102 -0.2653  0.2155 -0.1379
  800MOL0     C10295  12.536   8.296   9.072  0.1114  0.6889  0.2075
  800MOL0     C10296  12.638   8.369   9.134 -0.7169 -0.5895  0.3903
  800MOL0     C10297  12.614   8.482   9.208  0.4010  0.3593 -0.5962
  800MOL0     O10298  12.717   8.566   9.249  0.3338  0.4333  0.0815
  800MOL0     C10299  12.775   8.541   9.371 -0.0016 -0.3227  0.5415
  800MOL0     C10300  12.910   8.607   9.367  0.3928  0.0785 -0.0247
  800MOL0     C10301  13.010   8.541   9.274  0.1481 -0.9188  0.0180
  800MOL0     C10302  13.082   8.425   9.342 -0.7140  0.7333 -0.6342
  800MOL0     C10303  13.200   8.362   9.267 -1.2747  0.3615 -0.1020
  800MOL0     C10304  13.160   8.285   9.154  1.0860  0.7288  0.1835
  800MOL0     C10305  13.043   8.179   9.168 -0.2646  0.2335  0.2529
  800MOL0     C10306  13.071   8.056   9.263 -0.3109  0.2023  0.3003
  800MOL0    Cl10307  12.921   7.951   9.229 -0.1406 -0.0653  0.1386
  800MOL0     C10308  12.480   8.509   9.236 -0.6548 -0.4082  0.7047
  800MOL0     C10309  12.365   8.435   9.180 -0.1343 -1.0249 -0.6072
  800MOL0     O10310  12.326   8.088   9.214 -0.5288 -0.4163 -0.5863
  800MOL0     C10311  12.091   7.965   9.194  0.5800  0.3637 -0.3197
  800MOL0     C10312  11.981   7.879   9.178  0.5560 -0.0777 -0.0218
  800MOL0     N10313  11.290   7.959   9.310  0.3720 -0.8943 -0.1676
  800MOL0     N10314  11.177   7.980   9.377  0.6608 -0.0117  0.2712
  800MOL0     C10315   9.944   7.921   9.639 -0.6613  0.1581  1.0906
  800MOL0     C10316   9.851   7.893   9.531 -0.1324 -0.5722  0.8461
  800MOL0     C10317   9.696   7.775   9.122 -0.2814 -0.3823 -0.4689
  800MOL0     C10318   9.722   7.881   9.026  0.3429 -0.6088  0.1482
  800MOL0     C10319   9.658   7.869   8.897  0.0718  0.0132 -0.1638
  800MOL0     C10320   9.595   7.748   8.863 -0.1676 -0.1585 -0.0145
  800MOL0     O10321   9.549   7.731   8.738  0.0726 -0.4315  0.2877
  800MOL0     C10322   9.645   7.670   8.652 -0.9372 -0.9835 -0.2352
  800MOL0     C10323   9.592   7.613   8.518 -0.4861  0.2228 -0.3726
  800MOL0     C10324   9.473   7.505   8.548 -0.0720 -0.0881  0.3834
  800MOL0     C10325   9.427   7.424   8.423  0.1379 -0.5260 -0.4530
  800MOL0     C10326   9.395   7.510   8.312  0.4811  0.0539  0.0827
  800MOL0     C10327   9.353   7.568   8.213 -0.9899 -0.0909  0.4852
  800MOL0     C10328   9.574   7.654   8.961 -0.5877 -0.0415  0.6231
  800MOL0     C10329   9.613   7.667   9.096  0.0075  0.9998  0.8821
  800MOL0     C10330   9.584   7.552   9.190  0.5989  0.8837 -0.2553
  800MOL0     H10331  10.026   8.034   9.272  3.5450 -0.7659  0.5242
  800MOL0     H10332  10.177   8.090   9.459  0.4871 -0.6494  1.0006
  800MOL0     H10333  10.323   8.111   9.800 -1.8691  1.4257 -0.2994
  800MOL0     H10334  10.274   8.147   9.639 -1.8331 -0.1797 -0.4883
  800MOL0     H10335  10.364   7.874   9.739  0.2931  0.6777  1.3335
  800MOL0     H10336  10.303   7.899   9.577  0.6327  2.4534 -2.2001
  800MOL0     H10337  10.476   8.054   9.521  1.0286  2.1352  1.2063
  800MOL0     H10338  10.544   8.029   9.689  0.0173 -3.8050  1.8456
  800MOL0     H10339  10.577   7.782   9.630 -0.2689  2.3724  2.1016
  800MOL0     H10340  10.499   7.814   9.470  0.5207  1.8681 -1.5489
  800MOL0     H10341  10.742   7.968   9.529 -0.2970 -0.8062  0.6635
  800MOL0     H10342  10.667   7.922   9.372 -2.0509 -1.5692 -0.4741
  800MOL0     H10343  10.790   7.724   9.579  3.2679  0.6591  0.3661
  800MOL0     H10344  10.715   7.686   9.417  2.0523 -1.0322  0.1916
  800MOL0     H10345  10.920   7.810   9.318  1.5825 -0.3997 -0.0266
  800MOL0     H10346  10.955   7.657   9.394 -0.6187 -0.1050 -1.8343
  800MOL0     H10347  10.952   7.935   9.535  0.5151 -0.0068  0.6439
  800MOL0     H10348  11.023   7.795   9.595 -2.3695 -0.1902 -0.5818
  800MOL0     H10349  11.223   7.661   9.450  2.2611  0.4192  0.7466
  800MOL0     H10350  11.461   7.653   9.295 -1.6317 -1.0504 -2.0814
  800MOL0     H10351  11.544   7.812   9.315  0.0655 -1.3158  0.8768
  800MOL0     H10352  11.397   7.730   9.062 -1.1405 -0.9458  1.3012
  800MOL0     H10353  11.498   7.874   9.083 -2.5430 -0.0213 -0.1449
  800MOL0     H10354  11.601   7.572   9.150  1.3303 -1.3829 -0.9399
  800MOL0     H10355  11.614   7.627   8.986  0.2254  1.4237  0.0165
  800MOL0     H10356  11.730   7.751   9.232  1.6228 -1.0537  1.1554
  800MOL0     H10357  11.815   7.646   9.119  0.6847  2.3753 -0.4949
  800MOL0     H10358  11.815   8.058   8.937 -0.8094  1.2031  1.5245
  800MOL0     H10359  11.928   8.288   8.927 -1.2797 -0.9441 -0.2812
  800MOL0     H10360  12.028   8.190   8.815  1.4403  0.9533  0.0210
  800MOL0     H10361  12.098   8.300   8.934 -1.8127  2.8800 -1.2673
  800MOL0     H10362  12.557   8.202   9.021 -4.9898 -0.7303  0.1071
  800MOL0     H10363  12.746   8.353   9.129 -0.4363  1.2412 -0.3064
  800MOL0     H10364  12.714   8.589   9.448 -3.0533 -1.5242 -0.9661
  800MOL0     H10365  12.795   8.435   9.391  1.2807 -0.8703 -2.9806
  800MOL0     H10366  12.889   8.710   9.338  0.6855  0.0836 -0.2227
  800MOL0     H10367  12.954   8.616   9.467  2.1007  0.9608 -0.8162
  800MOL0     H10368  13.087   8.618   9.263 -0.7496  0.6919  3.5800
  800MOL0     H10369  12.964   8.507   9.181 -1.3045  0.3185  0.2452
  800MOL0     H10370  13.024   8.336   9.370  3.4579 -2.1313 -0.3088
  800MOL0     H10371  13.108   8.451   9.445 -3.3995  1.7290 -0.1256
  800MOL0     H10372  13.280   8.433   9.245 -0.6517  0.1195  1.2735
  800MOL0     H10373  13.246   8.290   9.335 -0.9037  1.9562  1.4020
  800MOL0     H10374  13.253   8.233   9.130  2.6989  2.9314  1.3093
  800MOL0     H10375  13.140   8.352   9.070 -0.8438 -1.1489 -0.9486
  800MOL0     H10376  13.016   8.139   9.070  1.9384 -1.4424  0.2580
  800MOL0     H10377  12.950   8.226   9.201 -0.5030 -0.5567  0.7318
  800MOL0     H10378  13.069   8.085   9.368  0.2212 -1.9666  0.9545
  800MOL0     H10379  13.169   8.014   9.240 -0.3597 -0.4278  1.2215
  800MOL0     H10380  12.471   8.587   9.311  4.5567  1.5634 -0.3273
  800MOL0     H10381  12.259   8.451   9.195  0.2788  1.4803  0.1386
  800MOL0     H10382  12.168   7.928   9.261  0.1233 -1.9217 -0.9708
  800MOL0     H10383  11.965   7.792   9.240  0.2717  0.7144  1.0557
  800MOL0     H10384   9.906   7.902   9.738  1.4374  2.4507  2.4491
  800MOL0     H10385   9.758   7.841   9.549 -0.5782 -0.0692  0.0503
  800MOL0     H10386   9.801   7.953   9.047 -0.3922 -0.4880  2.8227
  800MOL0     H10387   9.691   7.934   8.816  1.9067 -0.2532  0.3410
  800MOL0     H10388   9.740   7.723   8.645 -0.8507 -1.2104 -0.7928
  800MOL0     H10389   9.679   7.588   8.717  0.0106 -0.3191  0.1341
  800MOL0     H10390   9.677   7.567   8.467  0.9058  2.2403 -0.0085
  800MOL0     H10391   9.558   7.695   8.453 -1.1261 -0.5735 -1.0737
  800MOL0     H10392   9.514   7.435   8.622 -0.9909  0.2749  1.2618
  800MOL0     H10393   9.387   7.552   8.596  0.3755 -2.0960  3.4119
  800MOL0     H10394   9.331   7.378   8.444  0.3429 -1.2768 -1.0998
  800MOL0     H10395   9.493   7.340   8.398 -0.5102 -1.2035  0.1005
  800MOL0     H10396   9.307   7.604   8.124 -1.0813 -0.7528  0.2554
  800MOL0     H10397   9.513   7.567   8.940 -1.8779  0.0269  3.6352
  800MOL0     H10398   9.507   7.482   9.157  1.4655  0.8317 -2.2894
  800MOL0     H10399   9.678   7.495   9.191 -1.4863 -2.8791 -0.2278
  800MOL0     H10400   9.560   7.585   9.292  0.7698 -1.0188  0.4458
  801MOL0     O10401   3.507  11.192   0.890 -0.0424  0.6406 -0.0424
  801MOL0     C10402   3.413  11.262   0.856 -0.3100  0.3774 -0.1631
  801MOL0     O10403   3.367  11.366   0.925 -0.3907 -0.0421 -0.1442
  801MOL0     C10404   3.451  11.460   0.974  0.0480 -0.1432  0.2080
  801MOL0     C10405   3.590  11.460   0.972 -0.3120 -0.0820 -0.7775
  801MOL0     C10406   3.659  11.564   1.032  0.1708 -0.7948  1.1767
  801MOL0     C10407   3.600  11.674   1.091 -0.8098  0.5170 -0.1463
  801MOL0     O10408   3.676  11.776   1.151  0.5739  0.5521 -0.2163
  801MOL0     C10409   3.772  11.844   1.063 -0.4139  0.4723  0.6717
  801MOL0     C10410   3.761  11.991   1.081 -0.1964  0.4469  0.2978
  801MOL0     C10411   3.831  12.079   0.979 -0.5054 -0.8276  0.1577
  801MOL0     C10412   3.988  12.076   0.996  0.4613  0.8587 -0.3712
  801MOL0     C10413   4.072  12.164   0.904  0.3914 -0.1368 -0.0483
  801MOL0     C10414   4.219  12.168   0.958  0.0779  0.0651 -0.0083
  801MOL0     C10415   4.263  12.217   1.099 -0.0365 -0.8122  0.6862
  801MOL0     C10416   4.226  12.366   1.133 -0.2155  0.2566 -0.5617
  801MOL0     N10417   4.326  12.454   1.068  0.7342 -0.4917  0.5675
  801MOL0     C10418   4.443  12.516   1.116  1.2338  0.4853  0.4187
  801MOL0     C10419   4.493  12.591   1.020 -0.3318  0.3503 -0.8292
  801MOL0     C10420   4.627  12.663   1.012  0.0787  0.2476  0.6488
  801MOL0     C10421   4.673  12.682   0.865 -0.3019 -0.2460 -0.4823
  801MOL0     C10422   4.833  12.718   0.859  0.2282  0.5293 -0.1843
  801MOL0     C10423   4.861  12.778   0.720  0.2532  0.0743 -0.1364
  801MOL0     O10424   4.817  12.682   0.623 -0.2272  0.3035 -0.1824
  801MOL0     C10425   4.890  12.577   0.579  0.3777  0.7954 -0.3182
  801MOL0     C10426   4.817  12.479   0.501 -0.1335 -0.2278  0.4140
  801MOL0     C10427   4.875  12.361   0.450  0.6141  0.2517  0.3244
  801MOL0     C10428   4.786  12.273   0.383 -0.3151  1.2486  0.3799
  801MOL0     C10429   5.009  12.343   0.467 -0.6568 -0.3893 -0.3322
  801MOL0     C10430   5.095  12.232   0.401  0.7147 -0.6118  0.1045
  801MOL0     O10431   5.213  12.209   0.458 -0.9455  0.2873  0.1914
  801MOL0     C10432   5.309  12.162   0.366  0.0831 -0.4870 -0.7275
  801MOL0     C10433   5.384  12.257   0.290  0.6483  0.2799 -0.4632
  801MOL0     C10434   5.483  12.214   0.197 -0.5464 -2.1710 -0.4962
  801MOL0     C10435   5.511  12.080   0.172  0.2453 -0.2509 -0.9619
  801MOL0     O10436   5.597  12.032   0.080  0.8442 -0.2854  0.7513
  801MOL0     C10437   5.702  12.121   0.028  0.3714 -0.5947  0.4832
  801MOL0     C10438   5.790  12.190   0.126 -0.2905 -0.5046  0.2611
  801MOL0     C10439   5.837  12.108   0.251  0.6935 -0.3928  0.7117
  801MOL0     C10440   5.945  12.187   0.334  0.0236  0.5234 -0.1532
  801MOL0     C10441   5.992  12.126   0.466  0.9354 -0.2060  0.0537
  801MOL0     C10442   6.112  12.216   0.509  0.0022 -0.0262  0.3595
  801MOL0     C10443   6.073  12.360   0.543  0.0655 -0.4525  0.6392
  801MOL0     C10444   6.198  12.433   0.602  0.4535  0.2142  0.0618
  801MOL0    Cl10445   6.128  12.546   0.724 -0.0951  0.4497 -0.0702
  801MOL0     C10446   5.435  11.990   0.252  0.4674 -0.1473 -0.1744
  801MOL0     C10447   5.342  12.028   0.352  0.2391  0.0039 -0.0679
  801MOL0     O10448   5.045  12.165   0.316  0.3913 -0.0958  0.4746
  801MOL0     C10449   5.086  12.445   0.539  0.9965  1.1042 -0.8728
  801MOL0     C10450   5.024  12.553   0.597 -0.8935  0.5720 -0.3806
  801MOL0     N10451   4.398  12.597   0.920 -0.1384 -0.5791 -0.2554
  801MOL0     N10452   4.291  12.525   0.948 -0.1485  0.1329 -0.6798
  801MOL0     C10453   3.462  11.682   1.099  0.4554  0.4873  0.3740
  801MOL0     C10454   3.391  11.573   1.032  0.2628  0.1639 -0.3690
  801MOL0     C10455   3.343  11.197   0.732 -0.0750  0.8589  0.2139
  801MOL0     C10456   3.425  11.129   0.638  0.0960 -0.3085  0.1715
  801MOL0     C10457   3.381  11.082   0.513  0.3944  0.2360 -0.6977
  801MOL0     C10458   3.245  11.082   0.491  0.2737  1.1246  0.2000
  801MOL0     O10459   3.201  11.034   0.366 -0.8467  0.0800 -0.3172
  801MOL0     C10460   3.066  11.007   0.348  0.1772  0.3705  0.9760
  801MOL0     C10461   3.056  10.888   0.241  0.7615 -0.2887 -0.1663
  801MOL0     C10462   2.914  10.855   0.185  0.5627 -0.5193  0.3130
  801MOL0     C10463   2.865  10.948   0.065 -0.7975  0.6359 -0.0571
  801MOL0     C10464   2.901  10.887  -0.071 -0.5721 -0.0050 -0.0106
  801MOL0     C10465   2.937  10.825  -0.169 -0.0467 -0.8302  0.3294
  801MOL0     C10466   3.154  11.146   0.583 -0.1205  0.1189  0.4648
  801MOL0     C10467   3.210  11.205   0.700 -0.2050 -0.9631 -0.1794
  801MOL0     C10468   3.119  11.282   0.796 -0.2892  1.0228  0.7955
  801MOL0     H10469   3.648  11.378   0.928 -1.0467 -1.7457  1.1945
  801MOL0     H10470   3.766  11.548   1.027  0.0850 -1.7767  2.1034
  801MOL0     H10471   3.749  11.810   0.962 -0.5142 -0.2034  0.9145
  801MOL0     H10472   3.871  11.807   1.090 -0.3845  0.7093  0.8954
  801MOL0     H10473   3.654  12.016   1.078 -0.3487 -0.1978 -1.7721
  801MOL0     H10474   3.797  12.019   1.180 -1.3369 -0.2305  0.9286
  801MOL0     H10475   3.809  12.047   0.876 -0.6690 -0.3230  0.0340
  801MOL0     H10476   3.798  12.180   1.003  0.9513 -0.2253 -0.2608
  801MOL0     H10477   4.007  12.123   1.093  0.5122  1.2137 -0.5494
  801MOL0     H10478   4.016  11.971   1.007 -1.2048  0.6654  3.4451
  801MOL0     H10479   4.029  12.264   0.902  2.7370  1.0162  1.4563
  801MOL0     H10480   4.084  12.121   0.804  1.3525 -2.4526  0.9820
  801MOL0     H10481   4.260  12.067   0.956 -2.3215 -0.9776 -2.1306
  801MOL0     H10482   4.284  12.233   0.898  2.0424 -1.6810  0.0940
  801MOL0     H10483   4.372  12.207   1.102  0.2554  0.6531 -1.7771
  801MOL0     H10484   4.228  12.151   1.179  0.5012  0.2638  1.8468
  801MOL0     H10485   4.126  12.404   1.108 -1.0890 -1.0454  0.7544
  801MOL0     H10486   4.234  12.366   1.243 -0.0775 -0.1524 -0.5726
  801MOL0     H10487   4.504  12.491   1.202  1.4645  0.0401  0.1326
  801MOL0     H10488   4.702  12.599   1.059  1.6902  3.0475  2.1101
  801MOL0     H10489   4.617  12.761   1.058  1.6079 -0.2663  2.1894
  801MOL0     H10490   4.650  12.591   0.809 -0.1417 -2.1003  2.3078
  801MOL0     H10491   4.612  12.769   0.838 -0.4678 -0.1028  0.3474
  801MOL0     H10492   4.859  12.799   0.928  3.4731 -2.8074  3.0234
  801MOL0     H10493   4.899  12.633   0.880  0.4617  0.8169  0.2577
  801MOL0     H10494   4.800  12.868   0.720 -1.2971 -0.9457 -0.6995
  801MOL0     H10495   4.967  12.804   0.712  0.6062 -0.6666  1.5521
  801MOL0     H10496   4.711  12.503   0.496  0.3006  1.5287 -2.0122
  801MOL0     H10497   4.726  12.202   0.440 -1.3967  1.6730 -0.1924
  801MOL0     H10498   4.822  12.241   0.284 -1.5497  3.8842 -1.0291
  801MOL0     H10499   4.702  12.336   0.353 -1.0847  0.5760  1.0785
  801MOL0     H10500   5.364  12.359   0.319 -2.0300 -0.1943 -0.4472
  801MOL0     H10501   5.514  12.299   0.136 -1.0499 -2.3938 -1.0695
  801MOL0     H10502   5.765  12.053  -0.030  0.7025 -1.3781  1.7291
  801MOL0     H10503   5.653  12.196  -0.035 -1.4966 -1.3278  1.0011
  801MOL0     H10504   5.884  12.234   0.090 -0.7061  3.5459  3.4250
  801MOL0     H10505   5.741  12.277   0.171  1.7702 -0.1364  1.9848
  801MOL0     H10506   5.885  12.016   0.217 -1.6051 -1.1930 -0.6285
  801MOL0     H10507   5.747  12.086   0.309 -1.5819  0.6637 -2.1621
  801MOL0     H10508   5.895  12.283   0.350  0.2203  1.1521 -2.8095
  801MOL0     H10509   6.029  12.212   0.268 -1.0907  2.8924 -0.8116
  801MOL0     H10510   5.914  12.145   0.541  1.3407  1.3687  0.1118
  801MOL0     H10511   6.025  12.022   0.460 -3.0775 -1.5884 -2.5569
  801MOL0     H10512   6.190  12.215   0.432 -1.7343 -2.2126 -1.5076
  801MOL0     H10513   6.167  12.179   0.596  1.1448  0.9336  0.0780
  801MOL0     H10514   5.993  12.360   0.618  0.8401  0.5246  1.4879
  801MOL0     H10515   6.048  12.427   0.461  2.5980  0.8824  0.8664
  801MOL0     H10516   6.249  12.495   0.527  1.0270 -0.8416 -0.4492
  801MOL0     H10517   6.271  12.367   0.650  0.6418 -0.5456 -1.2277
  801MOL0     H10518   5.467  11.887   0.248  1.5527  0.2122 -2.6863
  801MOL0     H10519   5.285  11.959   0.414  0.5899  2.3989  3.1658
  801MOL0     H10520   5.192  12.439   0.558  0.9048  0.0891 -0.6667
  801MOL0     H10521   5.086  12.621   0.654  0.3380 -1.8365  1.3238
  801MOL0     H10522   3.413  11.767   1.146  1.6872  0.4827  1.7528
  801MOL0     H10523   3.283  11.565   1.037  0.1569  1.2138 -0.7147
  801MOL0     H10524   3.528  11.128   0.672  0.0810 -0.8463  0.2009
  801MOL0     H10525   3.455  11.055   0.439 -0.1664 -1.2580 -0.7423
  801MOL0     H10526   3.012  10.963   0.432 -1.4621  1.4393  0.5275
  801MOL0     H10527   3.013  11.090   0.300  1.1543  0.3965 -0.1116
  801MOL0     H10528   3.099  10.803   0.295 -2.9991 -1.1760  1.7824
  801MOL0     H10529   3.114  10.902   0.150 -0.7941 -2.9091 -1.7028
  801MOL0     H10530   2.922  10.748   0.165  0.5896 -0.4249 -0.1993
  801MOL0     H10531   2.841  10.858   0.266 -0.3672 -1.2889 -0.4785
  801MOL0     H10532   2.899  11.051   0.078 -0.0168  0.0816  2.7969
  801MOL0     H10533   2.756  10.955   0.073 -0.6206  1.5904  2.1358
  801MOL0     H10534   2.963  10.778  -0.262 -0.6588  0.7812 -0.7062
  801MOL0     H10535   3.047  11.141   0.567 -0.3059 -2.5598  1.9961
  801MOL0     H10536   3.143  11.242   0.895  4.0176 -3.4973 -1.5679
  801MOL0     H10537   3.144  11.388   0.792 -0.3348  1.0821  1.9300
  801MOL0     H10538   3.016  11.258   0.767  0.8795 -1.8922 -1.5478
  802MOL0     O10539   5.465   6.732   7.042 -0.3404 -0.1703 -0.9315
  802MOL0     C10540   5.393   6.724   7.144 -0.2951  0.4623 -0.7384
  802MOL0     O10541   5.322   6.616   7.179  0.1012 -0.0444 -0.1100
  802MOL0     C10542   5.342   6.500   7.111 -0.1536  0.4052 -0.4943
  802MOL0     C10543   5.239   6.407   7.119  0.7347 -0.2149 -0.5168
  802MOL0     C10544   5.250   6.277   7.060  0.9722 -0.2719 -0.3164
  802MOL0     C10545   5.361   6.244   6.974  0.5804 -0.3965 -0.4551
  802MOL0     O10546   5.353   6.134   6.897  0.7343  0.0271 -0.3578
  802MOL0     C10547   5.469   6.090   6.819 -0.6329  0.5066 -0.7843
  802MOL0     C10548   5.430   5.956   6.748  0.2079  0.5297 -0.5198
  802MOL0     C10549   5.554   5.900   6.689 -0.0346  0.0942  0.2146
  802MOL0     C10550   5.519   5.775   6.597 -0.3606 -0.2363 -0.1385
  802MOL0     C10551   5.650   5.698   6.551  0.4552 -1.1531  0.5977
  802MOL0     C10552   5.624   5.551   6.511  0.5924  0.0339 -0.0493
  802MOL0     C10553   5.574   5.466   6.625  0.0304  1.0214 -0.0963
  802MOL0     C10554   5.682   5.430   6.737  0.6298  0.6107  0.0336
  802MOL0     N10555   5.805   5.374   6.683  0.3872 -0.4778 -0.5037
  802MOL0     C10556   5.863   5.265   6.743  0.1925  0.3089  0.7754
  802MOL0     C10557   5.989   5.269   6.704 -1.2226  1.1112 -0.3063
  802MOL0     C10558   6.103   5.181   6.747  0.3337  0.8032 -0.7099
  802MOL0     C10559   6.119   5.056   6.659 -0.3269  0.5229  1.3217
  802MOL0     C10560   6.173   5.094   6.522 -0.0187  0.2114  0.5943
  802MOL0     C10561   6.195   4.964   6.451 -0.1084 -0.1712  1.0140
  802MOL0     O10562   6.255   4.987   6.318 -0.2165  0.2247 -0.0806
  802MOL0     C10563   6.304   4.883   6.253  0.4708  1.8757  0.2025
  802MOL0     C10564   6.255   4.844   6.136  1.1781 -0.1990  0.7624
  802MOL0     C10565   6.315   4.743   6.053  1.1907  0.1570 -0.2389
  802MOL0     C10566   6.239   4.709   5.927  0.5823 -0.0147 -0.6118
  802MOL0     C10567   6.434   4.674   6.093  0.4710  0.0813  0.7718
  802MOL0     C10568   6.522   4.584   6.006  1.2599 -0.5154 -0.3252
  802MOL0     O10569   6.609   4.498   6.084 -0.0552  0.1154  0.1374
  802MOL0     C10570   6.684   4.412   6.004  0.6962 -0.2551 -0.5353
  802MOL0     C10571   6.628   4.287   5.978 -0.1596  0.5031 -1.1995
  802MOL0     C10572   6.692   4.197   5.892 -0.1918  0.4192 -0.0219
  802MOL0     C10573   6.816   4.229   5.831 -0.0816 -0.5945 -0.5717
  802MOL0     O10574   6.885   4.147   5.748  0.2636  0.4624  0.5432
  802MOL0     C10575   6.877   4.007   5.782 -0.1755  0.1229  0.2158
  802MOL0     C10576   6.799   3.926   5.680 -0.1619 -0.2382 -0.3933
  802MOL0     C10577   6.863   3.933   5.541 -0.9521 -1.3922 -0.4511
  802MOL0     C10578   6.765   3.880   5.436 -0.7475  0.0973 -0.6660
  802MOL0     C10579   6.830   3.839   5.309  1.1026 -1.8112  0.3924
  802MOL0     C10580   6.888   3.958   5.227  0.6346  1.3547 -0.1334
  802MOL0     C10581   6.797   4.021   5.124  0.6464 -0.3180  0.2199
  802MOL0     C10582   6.878   4.111   5.026  1.0449 -0.4599  0.1781
  802MOL0    Cl10583   6.929   4.269   5.107  0.3736 -0.1339  0.1067
  802MOL0     C10584   6.867   4.358   5.863 -0.1457  0.0091 -0.1509
  802MOL0     C10585   6.798   4.449   5.940 -0.5809  0.6347 -0.3379
  802MOL0     O10586   6.496   4.575   5.891 -0.1836 -0.2523  0.5642
  802MOL0     C10587   6.478   4.706   6.225 -0.2620  0.1930 -0.0849
  802MOL0     C10588   6.415   4.809   6.295 -0.3383  0.4608  0.1364
  802MOL0     N10589   6.016   5.382   6.629  0.5115 -0.2315  0.7510
  802MOL0     N10590   5.902   5.437   6.615  0.1058 -0.6402 -0.2917
  802MOL0     C10591   5.466   6.338   6.968 -0.4068 -0.0374 -0.7471
  802MOL0     C10592   5.458   6.463   7.040 -0.2922 -0.1749 -0.7090
  802MOL0     C10593   5.398   6.839   7.242 -0.0207 -0.1173 -0.8192
  802MOL0     C10594   5.316   6.840   7.348 -0.6767  0.6045 -0.7746
  802MOL0     C10595   5.316   6.938   7.442 -0.4839 -0.4044 -0.2150
  802MOL0     C10596   5.387   7.060   7.429  0.8726  0.8422  0.7627
  802MOL0     O10597   5.380   7.161   7.514 -0.5959 -0.3838 -1.0519
  802MOL0     C10598   5.263   7.175   7.596 -0.6779  0.2611 -0.5834
  802MOL0     C10599   5.134   7.202   7.526  0.1202  1.2823  0.1607
  802MOL0     C10600   5.129   7.286   7.401  0.1905  0.0119 -0.4807
  802MOL0     C10601   4.994   7.337   7.357  0.9902  0.0558  0.4164
  802MOL0     C10602   4.904   7.224   7.319  0.1573  0.4855  0.2294
  802MOL0     C10603   4.843   7.122   7.294 -0.0677 -0.3000  0.2586
  802MOL0     C10604   5.454   7.063   7.312  0.3555  0.7753 -0.5189
  802MOL0     C10605   5.473   6.956   7.222 -0.5594  0.1478  0.2480
  802MOL0     C10606   5.552   6.991   7.095  0.2186  0.2268  0.5519
  802MOL0     H10607   5.155   6.440   7.178  2.0996 -0.5933  1.7265
  802MOL0     H10608   5.162   6.214   7.071  0.0635  1.1171  0.8724
  802MOL0     H10609   5.554   6.076   6.885 -0.5969  0.7263 -0.7845
  802MOL0     H10610   5.505   6.157   6.740  1.7404 -1.3957 -1.4236
  802MOL0     H10611   5.400   5.879   6.819 -0.4826 -0.3083 -1.6870
  802MOL0     H10612   5.341   5.961   6.685 -0.1450 -0.6942 -0.1396
  802MOL0     H10613   5.610   5.974   6.631  2.0094 -2.4558 -1.3543
  802MOL0     H10614   5.616   5.872   6.775 -1.1708 -0.7388  0.7875
  802MOL0     H10615   5.455   5.710   6.658  1.2076 -0.4411  1.3510
  802MOL0     H10616   5.472   5.809   6.504 -0.2512 -0.5177 -0.2988
  802MOL0     H10617   5.737   5.689   6.616 -0.2438 -3.5197  1.2928
  802MOL0     H10618   5.685   5.762   6.469 -0.4330 -1.1856  0.1765
  802MOL0     H10619   5.545   5.548   6.435 -0.1948  1.3892  0.6768
  802MOL0     H10620   5.715   5.500   6.479  2.1592 -1.7795  5.9731
  802MOL0     H10621   5.550   5.367   6.588  2.4147  1.2274 -2.5073
  802MOL0     H10622   5.480   5.505   6.665 -0.2653 -1.0077  1.3433
  802MOL0     H10623   5.705   5.520   6.794 -1.0754  2.4200 -1.9540
  802MOL0     H10624   5.627   5.352   6.790  0.0015  0.4530 -0.8255
  802MOL0     H10625   5.809   5.205   6.816  1.5436 -0.8374  0.8725
  802MOL0     H10626   6.061   5.154   6.845 -1.2924  1.1074 -1.2822
  802MOL0     H10627   6.192   5.242   6.763  0.1080  1.1920 -0.9133
  802MOL0     H10628   6.189   4.996   6.718  0.6873  2.0301  1.7000
  802MOL0     H10629   6.028   4.996   6.644  0.0902  0.7268 -3.3761
  802MOL0     H10630   6.101   5.157   6.469 -0.3721 -0.4344  0.2954
  802MOL0     H10631   6.261   5.160   6.531 -1.4397  2.6566 -1.8050
  802MOL0     H10632   6.266   4.913   6.517  0.7896  2.0507  1.8705
  802MOL0     H10633   6.099   4.915   6.434 -1.7536  3.0722  0.1875
  802MOL0     H10634   6.155   4.882   6.119 -0.1719 -3.1540  1.5564
  802MOL0     H10635   6.276   4.761   5.838 -0.4915  1.0704 -0.4565
  802MOL0     H10636   6.138   4.748   5.945  1.3443  1.6904  0.1143
  802MOL0     H10637   6.230   4.601   5.913 -2.4201 -0.0506  0.7756
  802MOL0     H10638   6.532   4.260   6.020 -1.1872 -0.0557 -3.7083
  802MOL0     H10639   6.653   4.099   5.862 -0.5829  0.9092 -1.1860
  802MOL0     H10640   6.979   3.967   5.772 -0.5826 -0.5425 -1.7636
  802MOL0     H10641   6.839   3.998   5.884  0.8362 -1.7884  0.4819
  802MOL0     H10642   6.789   3.820   5.705 -0.9847 -0.3999 -1.3371
  802MOL0     H10643   6.699   3.970   5.685 -1.9434 -3.9699  1.0618
  802MOL0     H10644   6.952   3.870   5.552  0.1558 -0.0130 -1.1876
  802MOL0     H10645   6.890   4.036   5.518 -1.1495 -1.8528 -3.0310
  802MOL0     H10646   6.699   3.963   5.411  0.4288  0.8457 -1.4333
  802MOL0     H10647   6.716   3.793   5.479  0.6427 -0.9449 -1.1097
  802MOL0     H10648   6.912   3.769   5.327  2.6504 -0.3714 -0.7506
  802MOL0     H10649   6.751   3.790   5.251 -1.4062 -0.4335  2.4145
  802MOL0     H10650   6.967   3.907   5.171  0.6814 -1.5237  2.2186
  802MOL0     H10651   6.939   4.030   5.292  2.5684  0.5720 -0.7123
  802MOL0     H10652   6.723   4.091   5.165 -0.4073  0.2054 -2.3661
  802MOL0     H10653   6.752   3.942   5.063  1.2797  0.1411 -0.8734
  802MOL0     H10654   6.817   4.145   4.941 -0.0932  0.8663  1.4727
  802MOL0     H10655   6.951   4.050   4.973 -2.4859 -1.1932 -4.5465
  802MOL0     H10656   6.966   4.381   5.826  0.7695 -2.6652  0.3816
  802MOL0     H10657   6.847   4.545   5.942  0.4679  0.1330  2.1382
  802MOL0     H10658   6.562   4.657   6.273  0.7501  0.7064 -1.2707
  802MOL0     H10659   6.456   4.842   6.390 -5.6082  2.3346  2.1123
  802MOL0     H10660   5.553   6.313   6.909 -0.5830 -1.2199 -0.5334
  802MOL0     H10661   5.545   6.528   7.031 -1.2937  1.4629  0.7511
  802MOL0     H10662   5.259   6.751   7.372  0.5106 -0.2895 -1.1608
  802MOL0     H10663   5.251   6.913   7.525  2.2418 -0.3471  2.1164
  802MOL0     H10664   5.260   7.081   7.651 -0.6861  1.4838  1.5942
  802MOL0     H10665   5.274   7.256   7.669 -5.1834  1.4767 -0.9254
  802MOL0     H10666   5.058   7.238   7.596  0.3342  0.8241  0.6373
  802MOL0     H10667   5.096   7.108   7.487  2.2680  0.2072  0.5011
  802MOL0     H10668   5.183   7.377   7.427  2.5058 -1.7172  1.2987
  802MOL0     H10669   5.178   7.223   7.326  0.5493  1.5151 -1.5381
  802MOL0     H10670   5.015   7.399   7.270  2.0715  0.1362  0.7121
  802MOL0     H10671   4.938   7.388   7.436 -1.9034 -0.2207 -1.3331
  802MOL0     H10672   4.791   7.034   7.264 -0.0608 -0.9493  2.0354
  802MOL0     H10673   5.510   7.155   7.295  0.5323  0.4522 -1.7884
  802MOL0     H10674   5.600   7.087   7.114  0.5979  0.3934 -1.1060
  802MOL0     H10675   5.625   6.912   7.072 -0.3449 -0.7239  1.9319
  802MOL0     H10676   5.483   6.985   7.010 -0.7154 -1.1680  1.3589
  803MOL0     O10677  10.425   7.293   7.294 -0.0549  0.2478  0.3168
  803MOL0     C10678  10.346   7.307   7.199 -0.5400 -1.1466 -0.1027
  803MOL0     O10679  10.345   7.402   7.104 -0.3273  0.5987 -0.2665
  803MOL0     C10680  10.422   7.518   7.120 -0.5912 -0.1084 -0.3855
  803MOL0     C10681  10.387   7.613   7.218 -0.2280 -0.9312  0.1835
  803MOL0     C10682  10.459   7.736   7.227 -0.0113  0.1051  0.1100
  803MOL0     C10683  10.570   7.764   7.136  0.7853  0.2591  0.4544
  803MOL0     O10684  10.649   7.875   7.127  0.3207  0.1448  0.0700
  803MOL0     C10685  10.594   7.996   7.180  0.6733 -0.1852 -0.3708
  803MOL0     C10686  10.711   8.090   7.209 -0.0481  0.2587  0.3922
  803MOL0     C10687  10.675   8.242   7.191  0.0620  0.0194  0.4346
  803MOL0     C10688  10.728   8.280   7.052  0.7739  0.5929 -0.4398
  803MOL0     C10689  10.689   8.422   7.001 -0.3668  0.1973 -0.0401
  803MOL0     C10690  10.797   8.539   7.025  0.3878  0.1996 -0.0718
  803MOL0     C10691  10.770   8.659   6.941  1.0918 -0.5434 -1.2072
  803MOL0     C10692  10.656   8.753   6.987 -0.2161  0.6869 -0.6209
  803MOL0     N10693  10.617   8.850   6.892 -0.1582 -0.2294 -0.0834
  803MOL0     C10694  10.512   8.933   6.919  0.0400  0.3988 -0.0762
  803MOL0     C10695  10.499   9.007   6.806 -0.1748  0.7729  0.0360
  803MOL0     C10696  10.403   9.120   6.780 -0.4096 -0.7953  0.3148
  803MOL0     C10697  10.460   9.257   6.830  0.7772 -0.2726 -0.0408
  803MOL0     C10698  10.350   9.355   6.820  0.7196  0.5511 -0.0241
  803MOL0     C10699  10.409   9.491   6.854 -0.3625 -0.5744 -0.7084
  803MOL0     O10700  10.412   9.505   6.996 -0.2875 -0.7981  0.6592
  803MOL0     C10701  10.502   9.604   7.041  1.0793  0.5981  0.2444
  803MOL0     C10702  10.539   9.590   7.167 -0.6442 -0.7069 -1.0773
  803MOL0     C10703  10.623   9.686   7.231  0.9934 -0.3669  0.4266
  803MOL0     C10704  10.648   9.655   7.369  0.8330 -0.2593 -0.4421
  803MOL0     C10705  10.677   9.792   7.156 -0.2370  0.4076 -0.7626
  803MOL0     C10706  10.773   9.893   7.209 -0.3898 -1.4222 -0.0512
  803MOL0     O10707  10.837   9.858   7.320  0.6594 -0.4835  0.4140
  803MOL0     C10708  10.933   9.940   7.369  0.0119  0.6937  0.5791
  803MOL0     C10709  10.907  10.006   7.485  0.0749  0.0944  0.5565
  803MOL0     C10710  10.987  10.105   7.530  0.0870  0.2155  0.0050
  803MOL0     C10711  11.112  10.130   7.468 -0.4161  0.6466 -0.0960
  803MOL0     O10712  11.207  10.217   7.512  0.2749 -0.4994  0.2018
  803MOL0     C10713  11.184  10.358   7.500  0.0517  0.6372 -0.1334
  803MOL0     C10714  11.310  10.440   7.529 -0.7859  0.2430 -0.0783
  803MOL0     C10715  11.359  10.419   7.669  0.2288 -0.5350 -1.2066
  803MOL0     C10716  11.480  10.509   7.720 -0.5491  0.4799  0.1784
  803MOL0     C10717  11.508  10.507   7.876 -0.6666 -0.0479  0.2448
  803MOL0     C10718  11.423  10.617   7.937 -0.7315 -0.0666 -0.6298
  803MOL0     C10719  11.437  10.615   8.091 -0.1464  0.4823  0.7569
  803MOL0     C10720  11.578  10.636   8.139 -0.0649  0.9737 -0.0422
  803MOL0    Cl10721  11.587  10.650   8.319  0.0260 -0.1385 -0.1445
  803MOL0     C10722  11.153  10.047   7.362  0.7355 -0.1570  0.6724
  803MOL0     C10723  11.056   9.964   7.303 -0.6176  0.5474  0.1656
  803MOL0     O10724  10.798   9.990   7.132 -0.0838 -0.0282 -0.6911
  803MOL0     C10725  10.627   9.808   7.022 -0.2745  0.2387  0.0031
  803MOL0     C10726  10.549   9.709   6.964  0.1370 -0.0470  0.4235
  803MOL0     N10727  10.599   8.963   6.715  0.4139 -1.0600  0.5511
  803MOL0     N10728  10.672   8.867   6.763 -0.2085 -0.5782  0.8174
  803MOL0     C10729  10.605   7.660   7.041  0.5982 -0.2451  0.1850
  803MOL0     C10730  10.526   7.544   7.034 -0.0510 -0.0821  0.0241
  803MOL0     C10731  10.229   7.220   7.183  0.1048  0.2549 -1.0049
  803MOL0     C10732  10.172   7.177   7.060 -0.2762 -0.0023  0.7620
  803MOL0     C10733  10.063   7.083   7.049  0.0618 -0.3126  0.3332
  803MOL0     C10734   9.999   7.048   7.170  0.4614 -0.0540  0.1964
  803MOL0     O10735   9.884   6.969   7.180  0.8572  0.0709 -0.8351
  803MOL0     C10736   9.829   6.903   7.058 -0.0272  0.1956  0.7185
  803MOL0     C10737   9.730   6.793   7.088 -0.2072 -0.0768 -0.0850
  803MOL0     C10738   9.790   6.692   7.187 -0.6342  0.7007  0.2157
  803MOL0     C10739   9.693   6.569   7.207  0.4607  0.3520 -0.2575
  803MOL0     C10740   9.563   6.601   7.267  0.2407 -0.1234 -0.5397
  803MOL0     C10741   9.451   6.615   7.313  0.0562 -0.1766 -0.6132
  803MOL0     C10742  10.045   7.096   7.291 -0.3396  0.4014 -0.5264
  803MOL0     C10743  10.154   7.180   7.294 -0.1136  0.3286  1.5929
  803MOL0     C10744  10.194   7.231   7.433  0.8661  0.1174  1.1765
  803MOL0     H10745  10.293   7.603   7.271  0.5770  2.3406  2.5034
  803MOL0     H10746  10.424   7.814   7.293 -1.4653  2.7257 -3.4105
  803MOL0     H10747  10.538   7.978   7.272 -2.9621  1.0233 -2.1451
  803MOL0     H10748  10.520   8.047   7.118  0.8077  3.6740  2.2788
  803MOL0     H10749  10.743   8.071   7.312 -1.0474  2.6504  1.2130
  803MOL0     H10750  10.792   8.058   7.143  0.1451  1.5694 -0.0473
  803MOL0     H10751  10.566   8.245   7.189  0.0798  0.4878 -2.1983
  803MOL0     H10752  10.715   8.292   7.280 -1.0355  0.8369  0.4867
  803MOL0     H10753  10.837   8.273   7.053  0.8841  0.3294 -3.5839
  803MOL0     H10754  10.698   8.202   6.982  0.8434 -0.1324  0.3207
  803MOL0     H10755  10.597   8.454   7.050  0.6294  1.1078  1.3272
  803MOL0     H10756  10.665   8.411   6.895  0.7356  1.8744 -0.4999
  803MOL0     H10757  10.799   8.558   7.133  1.2079  0.4930 -0.1377
  803MOL0     H10758  10.895   8.500   6.998 -0.6315 -0.1633 -3.7782
  803MOL0     H10759  10.752   8.620   6.841  0.3408 -3.1548 -0.1501
  803MOL0     H10760  10.860   8.720   6.927  0.1621  0.6696 -2.0865
  803MOL0     H10761  10.571   8.693   7.021 -0.0647 -0.0777 -1.5625
  803MOL0     H10762  10.700   8.798   7.077  1.4169 -0.6213 -0.7108
  803MOL0     H10763  10.458   8.931   7.013  1.0133 -2.8258  0.5287
  803MOL0     H10764  10.303   9.101   6.820 -1.5337  0.7296 -1.5794
  803MOL0     H10765  10.387   9.132   6.672 -2.4966  0.9763  0.7535
  803MOL0     H10766  10.493   9.255   6.934  1.7365 -0.4276 -0.3322
  803MOL0     H10767  10.545   9.282   6.765  0.0444  1.0706 -0.5164
  803MOL0     H10768  10.307   9.364   6.720 -1.7434  0.1540  0.9163
  803MOL0     H10769  10.265   9.330   6.885 -0.5161  3.1606 -0.4944
  803MOL0     H10770  10.508   9.501   6.809  0.8217  0.5352  1.9417
  803MOL0     H10771  10.331   9.556   6.811 -2.6010 -3.4226 -1.2700
  803MOL0     H10772  10.490   9.505   7.215  2.0642 -0.7663  1.8955
  803MOL0     H10773  10.651   9.741   7.437  2.6198 -2.0756  1.9628
  803MOL0     H10774  10.745   9.607   7.385  0.5833 -0.5172  0.4004
  803MOL0     H10775  10.571   9.596   7.420 -0.0148  2.5016  1.7761
  803MOL0     H10776  10.813   9.991   7.537  1.3221 -0.3375  2.8013
  803MOL0     H10777  10.957  10.148   7.625 -0.5659 -0.2120 -0.0069
  803MOL0     H10778  11.156  10.377   7.397 -0.3622 -0.0284 -0.1444
  803MOL0     H10779  11.098  10.392   7.558 -1.7460 -2.5629 -0.7340
  803MOL0     H10780  11.387  10.393   7.467 -0.1537  1.9254 -0.6373
  803MOL0     H10781  11.286  10.537   7.483 -3.4413 -1.2122 -2.0183
  803MOL0     H10782  11.412  10.323   7.675  1.1015 -0.0324 -0.5897
  803MOL0     H10783  11.287  10.424   7.750  2.5561 -2.2382  1.1609
  803MOL0     H10784  11.460  10.615   7.702 -1.8871  0.5964  2.0367
  803MOL0     H10785  11.577  10.480   7.679 -0.1317  2.1602 -0.1132
  803MOL0     H10786  11.493  10.402   7.902 -1.2073 -0.3651 -1.2689
  803MOL0     H10787  11.615  10.524   7.893 -1.1201  1.8197  1.4115
  803MOL0     H10788  11.317  10.597   7.920 -0.5162 -2.6662  0.6873
  803MOL0     H10789  11.438  10.717   7.894 -1.9188  0.3737 -0.0784
  803MOL0     H10790  11.419  10.514   8.129 -1.9201  0.7508  0.7028
  803MOL0     H10791  11.381  10.698   8.136  1.1291  1.9189 -0.1936
  803MOL0     H10792  11.608  10.731   8.094  0.7050  1.5705  1.6658
  803MOL0     H10793  11.654  10.568   8.099  0.4742 -0.7055  3.4635
  803MOL0     H10794  11.245  10.069   7.310 -1.2631  3.0359 -1.9347
  803MOL0     H10795  11.100   9.922   7.214  1.5591  3.5763 -0.3550
  803MOL0     H10796  10.650   9.897   6.965  0.4273 -0.4557 -0.8283
  803MOL0     H10797  10.506   9.732   6.867 -1.9996  1.4709  1.6379
  803MOL0     H10798  10.683   7.700   6.978 -0.5199 -1.3033 -1.9810
  803MOL0     H10799  10.548   7.477   6.951  0.5963 -0.0272  0.1462
  803MOL0     H10800  10.207   7.215   6.965 -0.8285 -0.2932  0.4357
  803MOL0     H10801  10.037   7.039   6.953 -1.1138 -0.0408  0.5092
  803MOL0     H10802   9.770   6.985   7.018 -0.4162  1.3202  3.3567
  803MOL0     H10803   9.911   6.865   6.996  0.7374 -0.6998  2.1958
  803MOL0     H10804   9.694   6.750   6.994 -1.3366 -0.9573  0.7224
  803MOL0     H10805   9.642   6.843   7.131 -1.0589  0.9257 -2.7785
  803MOL0     H10806   9.883   6.654   7.145 -0.7685 -0.5968  1.0458
  803MOL0     H10807   9.833   6.737   7.277  1.8749 -0.0379 -0.5308
  803MOL0     H10808   9.742   6.498   7.275  0.8167  1.9548  1.2433
  803MOL0     H10809   9.692   6.526   7.107  2.5349  3.6916 -1.8725
  803MOL0     H10810   9.350   6.639   7.336  0.1600 -0.4274  0.1300
  803MOL0     H10811   9.977   7.088   7.375  2.4357 -1.1187  1.7402
  803MOL0     H10812  10.274   7.164   7.466 -0.0085 -1.0240  1.0451
  803MOL0     H10813  10.225   7.336   7.426  0.5172  0.1434 -0.2695
  803MOL0     H10814  10.120   7.225   7.513  0.7086  1.2329  1.1262
  804MOL0     O10815   3.516  11.481   2.407 -0.3660 -0.6201  0.2208
  804MOL0     C10816   3.571  11.379   2.458  0.0263 -0.5028  0.6818
  804MOL0     O10817   3.703  11.341   2.431  0.3116  0.0160  0.1355
  804MOL0     C10818   3.753  11.377   2.312  0.2086 -0.2859  0.0556
  804MOL0     C10819   3.883  11.436   2.321  0.7599 -1.0129 -0.4531
  804MOL0     C10820   3.951  11.475   2.199  0.5192  0.1995 -0.7872
  804MOL0     C10821   3.885  11.459   2.073  0.3312 -0.0322 -0.8135
  804MOL0     O10822   3.946  11.514   1.960  0.0442 -0.7812 -1.1919
  804MOL0     C10823   3.984  11.421   1.863 -0.2932  0.2239 -0.0151
  804MOL0     C10824   4.131  11.442   1.842  0.2689  0.0110 -0.0268
  804MOL0     C10825   4.202  11.361   1.959  0.6924  0.7026 -0.0130
  804MOL0     C10826   4.349  11.403   1.956 -0.0279  0.0096 -0.7158
  804MOL0     C10827   4.422  11.361   2.079  0.2844 -0.3576 -0.5736
  804MOL0     C10828   4.547  11.443   2.082  0.2897 -0.8460  0.0831
  804MOL0     C10829   4.630  11.447   2.223  0.9586  0.9921  0.4285
  804MOL0     C10830   4.562  11.542   2.318 -0.3974  0.2491 -0.2064
  804MOL0     N10831   4.600  11.678   2.306  0.2080  0.4565  0.3023
  804MOL0     C10832   4.719  11.729   2.332 -0.3653 -0.2500  0.0685
  804MOL0     C10833   4.713  11.855   2.296  0.1684  0.5850 -0.4275
  804MOL0     C10834   4.812  11.962   2.337 -0.1550 -0.5520  0.4578
  804MOL0     C10835   4.918  11.978   2.232 -0.2342 -0.4513 -0.5727
  804MOL0     C10836   5.007  12.095   2.263  0.8834  0.2188 -0.2210
  804MOL0     C10837   5.109  12.140   2.165  0.0263  0.4550  0.8077
  804MOL0     O10838   5.204  12.232   2.221  0.9323  0.4614  0.3497
  804MOL0     C10839   5.332  12.240   2.182  0.2946 -0.0491 -0.5467
  804MOL0     C10840   5.432  12.253   2.273 -0.4854 -0.3695 -1.2048
  804MOL0     C10841   5.577  12.270   2.238  0.2026 -0.2533  0.0249
  804MOL0     C10842   5.667  12.263   2.359 -0.1556  0.4764 -0.3019
  804MOL0     C10843   5.617  12.286   2.108 -0.1231 -0.0208  1.1617
  804MOL0     C10844   5.757  12.308   2.073 -0.2863 -0.6195 -0.0371
  804MOL0     O10845   5.786  12.293   1.942  0.8040  0.4800  0.7135
  804MOL0     C10846   5.918  12.310   1.901  0.5143  0.7800  0.7279
  804MOL0     C10847   6.022  12.228   1.957 -0.3902 -0.1126  0.1743
  804MOL0     C10848   6.151  12.236   1.900  0.6971 -0.2413 -0.2738
  804MOL0     C10849   6.181  12.327   1.803 -1.0201  0.0869  0.3445
  804MOL0     O10850   6.315  12.334   1.764 -0.1061 -0.0811  0.3466
  804MOL0     C10851   6.378  12.458   1.747  0.5581 -0.5323 -0.1195
  804MOL0     C10852   6.487  12.483   1.858  0.8675  0.4013  0.1051
  804MOL0     C10853   6.440  12.456   2.003  0.1970 -0.3616 -0.1396
  804MOL0     C10854   6.322  12.550   2.048 -0.1395  0.4035  0.0043
  804MOL0     C10855   6.301  12.551   2.195 -0.0369  0.4938  0.3307
  804MOL0     C10856   6.225  12.424   2.247  0.3279 -0.5080  0.0166
  804MOL0     C10857   6.192  12.423   2.391  0.1448  0.3044 -0.9052
  804MOL0     C10858   6.045  12.401   2.416  0.6143  0.3514 -0.5988
  804MOL0    Cl10859   6.010  12.417   2.596 -0.4234  0.1705  0.0862
  804MOL0     C10860   6.085  12.411   1.746  0.1533 -0.6329  0.0939
  804MOL0     C10861   5.951  12.401   1.795  0.2882  0.2094  0.0464
  804MOL0     O10862   5.845  12.331   2.158 -0.2484 -0.0098  0.2266
  804MOL0     C10863   5.511  12.273   2.012 -0.9912  0.2073 -0.3483
  804MOL0     C10864   5.372  12.260   2.044 -0.0882 -0.4005 -0.0833
  804MOL0     N10865   4.593  11.893   2.244  0.3657 -0.4118  0.6311
  804MOL0     N10866   4.524  11.780   2.250  0.6978 -0.5817  0.2519
  804MOL0     C10867   3.754  11.416   2.075  0.7121  0.4468 -0.2340
  804MOL0     C10868   3.689  11.365   2.190 -0.0420 -0.0660 -1.8684
  804MOL0     C10869   3.511  11.307   2.576 -1.1790 -0.3445 -0.1136
  804MOL0     C10870   3.589  11.221   2.652 -0.1440 -0.1319  0.8613
  804MOL0     C10871   3.547  11.162   2.770 -0.4148  0.5749  0.4594
  804MOL0     C10872   3.414  11.187   2.819  0.3564  0.4393  1.7480
  804MOL0     O10873   3.375  11.127   2.941 -0.2599 -0.0452 -0.0088
  804MOL0     C10874   3.259  11.171   2.999  1.0669 -0.1700 -0.4741
  804MOL0     C10875   3.241  11.112   3.144  0.2732  0.2407 -0.1895
  804MOL0     C10876   3.110  11.153   3.217  0.0874  0.0374  0.0761
  804MOL0     C10877   3.117  11.138   3.372 -0.1660 -0.9489  0.5461
  804MOL0     C10878   3.124  10.997   3.418 -0.0828  0.4904 -0.0855
  804MOL0     C10879   3.112  10.889   3.464 -0.7585 -1.1221 -0.9591
  804MOL0     C10880   3.327  11.267   2.736 -0.3930 -0.0870  0.2736
  804MOL0     C10881   3.384  11.327   2.615  0.5877  0.4191 -0.8179
  804MOL0     C10882   3.276  11.413   2.540  0.0979 -0.0302  0.5938
  804MOL0     H10883   3.929  11.468   2.413 -4.2797 -0.1355  2.0835
  804MOL0     H10884   4.053  11.510   2.210  0.9516 -1.4035  0.6876
  804MOL0     H10885   3.936  11.445   1.768  0.0207  2.8563  0.4232
  804MOL0     H10886   3.963  11.318   1.893  1.7317 -0.2877 -0.2114
  804MOL0     H10887   4.162  11.385   1.755  0.9799 -3.0663  2.0762
  804MOL0     H10888   4.151  11.546   1.814 -2.1898  0.7291  0.5529
  804MOL0     H10889   4.167  11.391   2.058  3.7579  1.0458  1.0592
  804MOL0     H10890   4.187  11.253   1.966 -1.6367  0.9815  0.1069
  804MOL0     H10891   4.396  11.362   1.866  2.0942  1.6273 -0.4385
  804MOL0     H10892   4.348  11.512   1.949  2.6149  0.2025  0.6415
  804MOL0     H10893   4.439  11.254   2.063  0.7283 -0.1918 -1.2569
  804MOL0     H10894   4.353  11.366   2.164 -1.5150 -2.7458 -1.7835
  804MOL0     H10895   4.616  11.399   2.010  1.2325  2.5254 -1.2686
  804MOL0     H10896   4.522  11.546   2.053 -0.2706 -1.3856 -1.4463
  804MOL0     H10897   4.736  11.464   2.203  0.4932  0.4162 -3.1841
  804MOL0     H10898   4.616  11.349   2.270 -2.2669  0.7492 -0.7919
  804MOL0     H10899   4.458  11.533   2.286 -0.1416  0.3305 -1.0710
  804MOL0     H10900   4.579  11.510   2.422 -0.6145 -1.3648 -0.6376
  804MOL0     H10901   4.809  11.677   2.363 -0.3397 -1.6998 -2.1819
  804MOL0     H10902   4.861  11.933   2.431 -1.2746  0.7698  1.4937
  804MOL0     H10903   4.760  12.058   2.342  1.1594  0.2520 -0.4145
  804MOL0     H10904   4.978  11.887   2.230  0.8554  0.1946  0.8794
  804MOL0     H10905   4.866  12.002   2.139  2.4414  1.1114 -1.7994
  804MOL0     H10906   4.934  12.172   2.290 -1.2378 -1.4186 -0.9198
  804MOL0     H10907   5.066  12.076   2.352  0.4604 -0.0230  0.0113
  804MOL0     H10908   5.158  12.053   2.120  0.9173 -0.8144  3.9625
  804MOL0     H10909   5.065  12.198   2.083 -0.6870 -1.3692 -0.1465
  804MOL0     H10910   5.403  12.256   2.378  0.3716  0.6386 -0.9803
  804MOL0     H10911   5.615  12.246   2.454 -0.0808 -1.9201 -0.6310
  804MOL0     H10912   5.728  12.353   2.367 -1.7287  1.8304 -2.5207
  804MOL0     H10913   5.743  12.185   2.357  0.6203  0.8290  4.2220
  804MOL0     H10914   6.001  12.145   2.024  0.8834 -1.0161 -0.5060
  804MOL0     H10915   6.220  12.162   1.939 -0.0627 -0.0020  1.6211
  804MOL0     H10916   6.417  12.465   1.645  0.5758  3.4993  0.0007
  804MOL0     H10917   6.311  12.543   1.759  1.6215  0.4360 -0.8157
  804MOL0     H10918   6.572  12.417   1.838  0.2551 -0.3099 -0.1441
  804MOL0     H10919   6.528  12.585   1.848 -0.8991  0.9182 -5.5493
  804MOL0     H10920   6.527  12.472   2.067  1.2503 -1.7007 -1.1975
  804MOL0     H10921   6.410  12.351   2.009 -0.1387 -0.2746 -0.2607
  804MOL0     H10922   6.231  12.522   1.995 -0.7259 -1.1729  1.7610
  804MOL0     H10923   6.356  12.650   2.017  2.2210 -0.7649 -1.5123
  804MOL0     H10924   6.397  12.556   2.247 -0.9512 -1.6338  2.3823
  804MOL0     H10925   6.239  12.636   2.227 -0.2273  0.9538 -1.1990
  804MOL0     H10926   6.298  12.344   2.232  0.8906 -0.0299  0.1777
  804MOL0     H10927   6.138  12.415   2.181  2.4759  1.2503 -3.3805
  804MOL0     H10928   6.233  12.509   2.445  2.3906 -0.3276 -1.5077
  804MOL0     H10929   6.253  12.340   2.427 -0.1372 -0.3943 -1.9825
  804MOL0     H10930   6.008  12.303   2.384 -0.4343 -0.8369  3.6029
  804MOL0     H10931   5.991  12.472   2.353  0.9973 -0.6349 -2.1065
  804MOL0     H10932   6.100  12.490   1.674 -4.2263  0.5721  0.1792
  804MOL0     H10933   5.874  12.462   1.749  0.6990 -0.9815 -2.3588
  804MOL0     H10934   5.537  12.295   1.909 -0.0073  2.3020  0.2990
  804MOL0     H10935   5.295  12.263   1.968 -0.7154 -0.9369  0.5081
  804MOL0     H10936   3.704  11.425   1.979 -1.6862  1.2843  1.0107
  804MOL0     H10937   3.592  11.318   2.195 -0.2807  0.5431  0.1426
  804MOL0     H10938   3.690  11.190   2.625  0.5188  0.7235  2.2630
  804MOL0     H10939   3.605  11.081   2.813 -1.8970 -1.0450 -0.4791
  804MOL0     H10940   3.256  11.280   3.010  0.5507 -0.1774 -0.5413
  804MOL0     H10941   3.180  11.143   2.929  0.4844  0.3049 -0.0105
  804MOL0     H10942   3.326  11.158   3.197 -1.7734  2.6336  1.2250
  804MOL0     H10943   3.247  11.003   3.138 -0.5779  0.2039 -0.4047
  804MOL0     H10944   3.089  11.259   3.200 -1.5928 -0.2837 -0.0030
  804MOL0     H10945   3.022  11.096   3.187 -1.0763 -0.0358  3.2398
  804MOL0     H10946   3.030  11.189   3.414 -1.1154 -1.9616 -0.1305
  804MOL0     H10947   3.202  11.199   3.405 -0.7518  0.3751 -0.3024
  804MOL0     H10948   3.092  10.798   3.518 -0.1508  0.0912  1.4667
  804MOL0     H10949   3.225  11.286   2.768  0.2883 -1.1017  3.4624
  804MOL0     H10950   3.306  11.517   2.552 -1.0793  0.2421  1.2551
  804MOL0     H10951   3.279  11.381   2.435  0.5851 -1.6888  1.0762
  804MOL0     H10952   3.176  11.386   2.575  0.8441 -1.4841  1.7390
  805MOL0     O10953   9.258   4.560   6.469 -0.4793 -0.0086  0.2900
  805MOL0     C10954   9.265   4.613   6.360 -0.3195 -0.2512  0.5723
  805MOL0     O10955   9.377   4.682   6.310 -0.6143  0.2326  0.0732
  805MOL0     C10956   9.479   4.715   6.407  0.2736  0.0132  0.8258
  805MOL0     C10957   9.450   4.806   6.504 -0.9683 -0.5541 -0.3428
  805MOL0     C10958   9.538   4.836   6.607 -0.0509  0.7530  0.4021
  805MOL0     C10959   9.669   4.780   6.601 -0.7039 -0.2744 -0.8306
  805MOL0     O10960   9.761   4.795   6.712 -0.3470 -0.8141 -0.5262
  805MOL0     C10961   9.757   4.922   6.784  0.2843  0.0983 -0.0411
  805MOL0     C10962   9.809   4.892   6.926  0.3524  0.0365 -0.0491
  805MOL0     C10963   9.786   5.002   7.039 -0.2519  0.2779  0.4343
  805MOL0     C10964   9.889   5.125   7.040 -0.1688 -0.2703 -0.3121
  805MOL0     C10965   9.920   5.166   7.188 -0.0586 -0.4313  0.1809
  805MOL0     C10966  10.043   5.264   7.187  0.4929  0.3970  0.3643
  805MOL0     C10967  10.105   5.287   7.324 -0.5342 -0.1830  0.4401
  805MOL0     C10968  10.224   5.383   7.329 -0.3238 -0.1534  0.3882
  805MOL0     N10969  10.170   5.519   7.301 -0.3734 -0.0154 -0.3349
  805MOL0     C10970  10.239   5.615   7.246  0.2678  0.2993 -0.3130
  805MOL0     C10971  10.159   5.726   7.257 -0.0292  1.3599  0.0874
  805MOL0     C10972  10.190   5.861   7.194 -0.4402 -0.1758  0.3674
  805MOL0     C10973  10.052   5.901   7.136  0.5460 -0.7223  0.6628
  805MOL0     C10974  10.004   5.816   7.023 -0.4197  0.1431 -0.1534
  805MOL0     C10975  10.083   5.822   6.895  0.0137  0.4933 -0.2932
  805MOL0     O10976  10.107   5.955   6.864 -0.7512  0.1436  0.4616
  805MOL0     C10977  10.206   5.984   6.770 -0.8477  0.1202 -0.8421
  805MOL0     C10978  10.229   6.120   6.745  0.6573  0.3566 -0.0460
  805MOL0     C10979  10.317   6.173   6.653 -1.5106 -0.5246 -0.2954
  805MOL0     C10980  10.335   6.325   6.654  0.4624 -0.0817  0.8628
  805MOL0     C10981  10.391   6.078   6.568 -0.1143  0.4244 -0.0056
  805MOL0     C10982  10.479   6.117   6.455  0.1245  0.5731 -0.7619
  805MOL0     O10983  10.550   6.023   6.400  0.1236  0.2927 -0.2293
  805MOL0     C10984  10.612   6.041   6.279 -0.3237  0.5914 -0.0750
  805MOL0     C10985  10.557   6.102   6.161 -0.8447 -0.3234  0.6270
  805MOL0     C10986  10.638   6.105   6.041 -0.1307 -0.9522  0.4100
  805MOL0     C10987  10.763   6.044   6.043  0.1353  1.2631  0.5505
  805MOL0     O10988  10.829   6.037   5.923 -0.2960 -0.3283  0.0792
  805MOL0     C10989  10.887   5.909   5.909 -0.3577  0.0298 -0.3120
  805MOL0     C10990  10.921   5.896   5.766  0.7642  0.2488  0.0729
  805MOL0     C10991  10.792   5.897   5.675  0.8483 -0.6627  0.2354
  805MOL0     C10992  10.682   5.812   5.728  1.1229  0.1137  0.4896
  805MOL0     C10993  10.584   5.785   5.609 -0.0765 -0.3759 -0.2913
  805MOL0     C10994  10.449   5.731   5.655 -0.0172 -0.6791 -0.0242
  805MOL0     C10995  10.359   5.700   5.527  0.3646  0.2099  0.0468
  805MOL0     C10996  10.228   5.650   5.580 -0.5507 -0.6636 -0.1648
  805MOL0    Cl10997  10.112   5.619   5.450  0.1461 -0.0004  0.2559
  805MOL0     C10998  10.812   5.987   6.159 -0.6817 -0.6120  0.1919
  805MOL0     C10999  10.744   5.983   6.273  1.5981 -0.0205 -0.0627
  805MOL0     O11000  10.461   6.233   6.411  0.0942 -0.7867 -0.2608
  805MOL0     C11001  10.373   5.939   6.589  0.0214 -0.7149  1.0265
  805MOL0     C11002  10.283   5.897   6.685 -1.0141  1.1505  0.7111
  805MOL0     N11003  10.059   5.699   7.357 -1.5707 -0.4257  0.0231
  805MOL0     N11004  10.057   5.572   7.369 -0.1338 -0.1985 -0.5487
  805MOL0     C11005   9.704   4.698   6.497  0.5611 -0.2031 -0.0089
  805MOL0     C11006   9.614   4.668   6.396  1.0108  0.4594  0.0710
  805MOL0     C11007   9.142   4.620   6.270  0.4590 -0.6458 -0.2743
  805MOL0     C11008   9.133   4.719   6.177 -0.2299 -0.2751  0.0602
  805MOL0     C11009   9.019   4.745   6.101 -0.0438  0.8173 -0.4893
  805MOL0     C11010   8.895   4.678   6.121 -0.5252  1.4306 -0.1121
  805MOL0     O11011   8.786   4.707   6.040 -0.1147 -0.5945  0.0609
  805MOL0     C11012   8.693   4.609   5.994  0.2980 -0.1585  0.8295
  805MOL0     C11013   8.731   4.546   5.855  0.9200  0.4636 -0.0260
  805MOL0     C11014   8.685   4.632   5.734 -0.6811 -0.4158  0.4102
  805MOL0     C11015   8.744   4.570   5.596  0.8808 -0.4761  0.0733
  805MOL0     C11016   8.679   4.633   5.476 -0.3210 -0.4215  0.3747
  805MOL0     C11017   8.638   4.690   5.379  0.1617 -0.0875 -0.8993
  805MOL0     C11018   8.896   4.578   6.219  0.0527  0.2165 -0.2400
  805MOL0     C11019   9.016   4.549   6.290 -0.0298  0.4593  0.0717
  805MOL0     C11020   9.010   4.428   6.389  0.8016  0.1876  0.2186
  805MOL0     H11021   9.353   4.853   6.505 -0.3759  0.8882 -2.7226
  805MOL0     H11022   9.496   4.895   6.687 -0.4548  0.7324  0.2045
  805MOL0     H11023   9.657   4.964   6.794  0.1976 -0.2148  0.4319
  805MOL0     H11024   9.827   4.983   6.726 -0.5428 -0.9765 -2.2764
  805MOL0     H11025   9.750   4.806   6.958 -0.7247  0.2027 -1.4636
  805MOL0     H11026   9.917   4.880   6.921  0.3281  0.2494 -2.4667
  805MOL0     H11027   9.685   5.040   7.025  0.3178  1.1490 -1.7305
  805MOL0     H11028   9.787   4.942   7.131 -0.1864 -1.6288 -0.7405
  805MOL0     H11029   9.982   5.091   6.993  0.4302  1.1166 -0.1752
  805MOL0     H11030   9.843   5.204   6.980 -3.4857 -0.2909  1.9278
  805MOL0     H11031   9.946   5.077   7.246 -1.0827  0.0867  1.4801
  805MOL0     H11032   9.848   5.221   7.249  1.4227  1.3117  0.4462
  805MOL0     H11033  10.122   5.233   7.118 -0.8869 -0.9580 -0.6664
  805MOL0     H11034  10.012   5.359   7.143 -1.7345 -0.1198  0.6909
  805MOL0     H11035  10.133   5.190   7.365 -0.6549 -0.9506 -1.2045
  805MOL0     H11036  10.026   5.323   7.391  0.1127 -1.4235  1.8995
  805MOL0     H11037  10.287   5.380   7.419  1.4225  1.1287 -0.7322
  805MOL0     H11038  10.287   5.357   7.244  1.6045  0.4407  1.5557
  805MOL0     H11039  10.334   5.603   7.196  0.2720 -2.2992  0.1834
  805MOL0     H11040  10.264   5.854   7.114 -1.6856  1.6125 -1.0100
  805MOL0     H11041  10.213   5.932   7.275 -3.9628  1.8523 -0.2127
  805MOL0     H11042   9.970   5.901   7.208 -0.0100 -0.4985  0.0403
  805MOL0     H11043  10.071   6.001   7.095  0.6774 -1.3814 -0.9217
  805MOL0     H11044   9.988   5.712   7.054 -1.2906  0.1718 -0.4560
  805MOL0     H11045   9.901   5.847   7.000 -0.6935  0.4491  1.3490
  805MOL0     H11046  10.178   5.768   6.899  0.0238  0.3128 -2.2811
  805MOL0     H11047  10.017   5.782   6.817 -0.6726  1.2164 -0.0961
  805MOL0     H11048  10.189   6.187   6.821  3.3866  1.9689  0.1071
  805MOL0     H11049  10.427   6.355   6.604 -0.3381 -0.3061 -0.8110
  805MOL0     H11050  10.341   6.359   6.758  1.8246  1.9350  0.1771
  805MOL0     H11051  10.243   6.361   6.607 -0.7710 -2.3814  1.3672
  805MOL0     H11052  10.459   6.147   6.168 -1.5064 -1.6619  0.2544
  805MOL0     H11053  10.605   6.158   5.952  0.4666 -1.8659 -0.3817
  805MOL0     H11054  10.976   5.914   5.971 -1.4314  1.0878  1.2211
  805MOL0     H11055  10.828   5.823   5.942  2.6870 -1.7776  0.8162
  805MOL0     H11056  10.992   5.974   5.736  1.1589 -0.5479 -1.1290
  805MOL0     H11057  10.973   5.802   5.746  1.8877  1.5984 -4.7274
  805MOL0     H11058  10.819   5.860   5.575 -0.4486  0.0932 -0.4281
  805MOL0     H11059  10.742   5.994   5.672 -3.5521 -2.6201  1.5641
  805MOL0     H11060  10.636   5.876   5.804  1.3156 -0.7154  1.3293
  805MOL0     H11061  10.717   5.715   5.766  4.0144  0.9604  0.2198
  805MOL0     H11062  10.562   5.877   5.553  1.9704  0.9846  1.0242
  805MOL0     H11063  10.631   5.709   5.546 -1.3190 -0.1382 -1.5603
  805MOL0     H11064  10.402   5.806   5.719 -0.0846  0.2399 -1.1117
  805MOL0     H11065  10.461   5.635   5.705  0.4607  0.5445  2.3207
  805MOL0     H11066  10.408   5.627   5.462  1.8213 -0.4525  1.7913
  805MOL0     H11067  10.342   5.792   5.471  0.9767  0.0868 -0.3550
  805MOL0     H11068  10.183   5.723   5.648 -0.8310 -1.0667  0.0864
  805MOL0     H11069  10.248   5.550   5.621 -0.2746 -1.9835 -3.2197
  805MOL0     H11070  10.915   5.953   6.165  0.0388  0.7302 -2.7362
  805MOL0     H11071  10.783   5.938   6.364  0.1815 -3.2254 -0.8978
  805MOL0     H11072  10.446   5.872   6.545  0.1583  1.2635 -2.0775
  805MOL0     H11073  10.268   5.790   6.698  0.0069  0.7830 -0.8103
  805MOL0     H11074   9.805   4.657   6.495 -0.1307 -2.3875  3.1089
  805MOL0     H11075   9.648   4.601   6.318  1.4599  1.9022 -1.0285
  805MOL0     H11076   9.219   4.784   6.163 -0.1555  0.1238  2.1077
  805MOL0     H11077   9.015   4.824   6.027  0.3112  1.5681  0.2860
  805MOL0     H11078   8.658   4.547   6.077  1.7579  2.0565  3.2758
  805MOL0     H11079   8.605   4.669   5.970  0.8805  1.0333  1.5209
  805MOL0     H11080   8.665   4.459   5.857  0.6594  0.6762  1.4907
  805MOL0     H11081   8.835   4.512   5.847  0.5549 -1.3087  1.9095
  805MOL0     H11082   8.577   4.649   5.733 -0.4975  1.0796  2.2195
  805MOL0     H11083   8.734   4.729   5.737  2.5578 -1.6762 -3.4404
  805MOL0     H11084   8.728   4.462   5.597  0.9807 -0.4911  0.8843
  805MOL0     H11085   8.852   4.587   5.587  1.3131 -3.3697 -1.1883
  805MOL0     H11086   8.618   4.739   5.286 -2.3088  3.6447  1.3564
  805MOL0     H11087   8.816   4.510   6.245 -0.1596  0.8600  0.8549
  805MOL0     H11088   9.071   4.340   6.370 -0.7312 -0.9426  0.3140
  805MOL0     H11089   9.038   4.457   6.491 -1.2610  1.9398  0.3678
  805MOL0     H11090   8.907   4.390   6.393  0.4976  0.9666 -0.0511
  806MOL0     O11091   6.204   7.185   9.320  0.5508 -0.5459  0.2963
  806MOL0     C11092   6.244   7.122   9.416 -0.5736 -0.9205  0.5455
  806MOL0     O11093   6.355   7.051   9.412 -0.1357 -0.3256 -0.2801
  806MOL0     C11094   6.441   7.064   9.309 -0.2559  0.5480 -0.1269
  806MOL0     C11095   6.402   7.046   9.179 -0.8337  1.1883  0.1285
  806MOL0     C11096   6.493   7.054   9.075 -1.0114 -0.1987 -1.1151
  806MOL0     C11097   6.631   7.085   9.095  0.6450  0.3548  0.5572
  806MOL0     O11098   6.715   7.085   8.990 -0.4161  0.3995  0.3639
  806MOL0     C11099   6.720   7.212   8.916  0.5358 -0.3509  0.6674
  806MOL0     C11100   6.753   7.336   9.001  0.0073 -0.1553  0.0423
  806MOL0     C11101   6.843   7.435   8.920  0.3750  0.7099 -0.4111
  806MOL0     C11102   6.875   7.563   8.991  0.0428 -0.3061 -0.3838
  806MOL0     C11103   6.931   7.673   8.903  0.7457  0.6576 -0.7486
  806MOL0     C11104   7.026   7.632   8.795 -1.0142 -0.2695 -0.2782
  806MOL0     C11105   7.167   7.622   8.859  0.0080 -0.5293 -0.0373
  806MOL0     C11106   7.275   7.620   8.751 -0.1852 -0.1217  0.8721
  806MOL0     N11107   7.294   7.750   8.693  0.2069 -0.1007 -0.3049
  806MOL0     C11108   7.357   7.856   8.749  0.1239 -0.3082 -0.6979
  806MOL0     C11109   7.371   7.953   8.647  0.0074  0.0878  0.4259
  806MOL0     C11110   7.435   8.088   8.655 -0.3912 -0.7646  0.4415
  806MOL0     C11111   7.581   8.066   8.670 -0.3277  0.4797  0.2508
  806MOL0     C11112   7.665   8.201   8.676 -0.6259  0.4873 -0.4366
  806MOL0     C11113   7.670   8.259   8.530  0.6182  0.8722  0.0818
  806MOL0     O11114   7.719   8.400   8.546  0.3600  0.0525  0.9100
  806MOL0     C11115   7.789   8.454   8.445 -0.5882 -0.1283 -0.5200
  806MOL0     C11116   7.792   8.406   8.313  0.0681  0.5338 -0.6125
  806MOL0     C11117   7.876   8.454   8.206  0.2665 -0.7241 -0.4650
  806MOL0     C11118   7.873   8.411   8.067  0.4985  0.1681  0.2431
  806MOL0     C11119   7.948   8.580   8.240  0.1929  0.1696  0.2463
  806MOL0     C11120   8.018   8.659   8.140  0.0998  0.0549  0.0611
  806MOL0     O11121   7.944   8.710   8.038 -0.3008 -0.6265 -0.8584
  806MOL0     C11122   8.013   8.779   7.936 -0.6053 -0.0521  0.1938
  806MOL0     C11123   8.039   8.707   7.808 -0.4753 -0.4648  0.0183
  806MOL0     C11124   8.120   8.782   7.720  0.0213 -0.2299  0.3528
  806MOL0     C11125   8.168   8.908   7.751 -0.0032 -0.0065  0.3957
  806MOL0     O11126   8.239   8.979   7.660 -0.6499 -1.0389 -0.1139
  806MOL0     C11127   8.258   8.935   7.525  0.4088  0.5456 -1.7155
  806MOL0     C11128   8.380   8.839   7.527 -0.3344 -0.6262 -0.8711
  806MOL0     C11129   8.505   8.908   7.584 -0.2561 -0.1499  0.0644
  806MOL0     C11130   8.615   8.804   7.582  0.1498 -0.9606  0.0339
  806MOL0     C11131   8.744   8.869   7.648  0.5272  0.1256 -0.3842
  806MOL0     C11132   8.820   8.974   7.567 -0.0173 -0.6148  0.3554
  806MOL0     C11133   8.941   9.058   7.630 -0.4074 -0.9240 -0.4824
  806MOL0     C11134   9.022   8.972   7.732 -0.0228  0.3589 -0.7648
  806MOL0    Cl11135   9.127   8.853   7.653  0.3412  0.1077  0.0318
  806MOL0     C11136   8.130   8.973   7.871  0.3752  0.3328  0.1055
  806MOL0     C11137   8.051   8.911   7.963 -0.0457  0.4586 -0.3562
  806MOL0     O11138   8.123   8.699   8.176 -0.2738 -0.2618  0.1035
  806MOL0     C11139   7.938   8.640   8.368  0.1587 -0.2760  0.5542
  806MOL0     C11140   7.859   8.578   8.465 -0.1747 -0.7640  0.1840
  806MOL0     N11141   7.319   7.901   8.524 -0.5014  0.2397 -0.4162
  806MOL0     N11142   7.267   7.785   8.558  0.0468 -0.5644 -0.6725
  806MOL0     C11143   6.673   7.096   9.232  0.5708  0.6083 -0.2019
  806MOL0     C11144   6.576   7.090   9.333 -0.2616 -0.2980  0.2020
  806MOL0     C11145   6.155   7.125   9.537 -1.0114  0.5013 -0.4775
  806MOL0     C11146   6.194   7.043   9.642  0.0852  0.3512 -0.7621
  806MOL0     C11147   6.120   7.035   9.759  0.1006  0.2151 -0.2939
  806MOL0     C11148   6.006   7.108   9.780 -0.6771 -0.2740 -0.0781
  806MOL0     O11149   5.930   7.122   9.892 -0.4379 -0.0547 -0.6968
  806MOL0     C11150   5.983   7.080  10.020  0.3754 -0.2797 -0.4825
  806MOL0     C11151   6.097   7.173  10.072  0.3723  0.4533 -0.3338
  806MOL0     C11152   6.082   7.327  10.047  0.3962  0.3396 -0.2132
  806MOL0     C11153   6.203   7.402  10.105 -0.3698  0.1866  0.7036
  806MOL0     C11154   6.194   7.544  10.086  0.5706  0.2760  0.3684
  806MOL0     C11155   6.199   7.664  10.073 -0.3067 -0.7441  0.6093
  806MOL0     C11156   5.966   7.197   9.679  0.0721  0.1876 -0.1570
  806MOL0     C11157   6.042   7.204   9.566  1.0439 -0.5871  0.1519
  806MOL0     C11158   5.977   7.302   9.458  0.2939 -0.2531 -0.2882
  806MOL0     H11159   6.304   7.008   9.154  0.8991 -3.2866 -0.7576
  806MOL0     H11160   6.455   7.048   8.973 -0.4330 -1.6421 -1.2612
  806MOL0     H11161   6.624   7.233   8.870 -0.2882  1.2988  2.9680
  806MOL0     H11162   6.801   7.210   8.842  2.1390 -1.8326  2.3476
  806MOL0     H11163   6.659   7.388   9.023  0.0114 -0.3065  0.4323
  806MOL0     H11164   6.809   7.294   9.085 -1.1728  0.3463  1.1182
  806MOL0     H11165   6.935   7.379   8.902 -2.1074 -3.8501 -0.5638
  806MOL0     H11166   6.807   7.454   8.819  0.4045 -0.9939 -0.7636
  806MOL0     H11167   6.782   7.598   9.037 -1.8215 -5.0841  0.0918
  806MOL0     H11168   6.951   7.549   9.069 -2.5355 -3.0765  1.9122
  806MOL0     H11169   6.968   7.758   8.961  0.4317  1.7949 -2.1624
  806MOL0     H11170   6.839   7.709   8.855  0.2905  0.4255 -0.0574
  806MOL0     H11171   6.988   7.534   8.765 -3.4816 -0.1056  1.9305
  806MOL0     H11172   7.029   7.708   8.717 -1.6348  4.2771  3.6547
  806MOL0     H11173   7.182   7.536   8.924 -0.4740  1.2904  2.6042
  806MOL0     H11174   7.182   7.713   8.918 -2.0090  0.8606 -1.5068
  806MOL0     H11175   7.366   7.583   8.799 -1.3357 -0.9382  2.5323
  806MOL0     H11176   7.249   7.543   8.678 -3.0178  1.6058 -0.1298
  806MOL0     H11177   7.387   7.880   8.850 -2.5727  1.7384 -0.2704
  806MOL0     H11178   7.396   8.147   8.738  0.9662  1.1406 -0.1990
  806MOL0     H11179   7.414   8.145   8.563  1.6398 -0.4517  0.1212
  806MOL0     H11180   7.589   8.004   8.760  0.4532  0.9511  0.5277
  806MOL0     H11181   7.619   8.001   8.591  0.6031  0.6520  0.5414
  806MOL0     H11182   7.614   8.267   8.746 -0.5830 -0.3718  0.4252
  806MOL0     H11183   7.765   8.171   8.709 -0.8651  1.6339  1.4749
  806MOL0     H11184   7.730   8.196   8.463  1.7943  2.3213 -0.2711
  806MOL0     H11185   7.569   8.258   8.487  0.6318  2.7158 -0.0606
  806MOL0     H11186   7.746   8.313   8.282 -0.3591  1.2960 -2.3562
  806MOL0     H11187   7.836   8.308   8.056 -2.6877  1.1750  0.3825
  806MOL0     H11188   7.975   8.419   8.031  0.7305 -1.3817  0.4701
  806MOL0     H11189   7.802   8.472   8.011  1.5291  0.0179 -1.2619
  806MOL0     H11190   8.002   8.607   7.791  1.4561 -1.6069  1.9802
  806MOL0     H11191   8.128   8.732   7.623  0.8457  0.7755 -0.1141
  806MOL0     H11192   8.173   8.879   7.484  1.2108 -1.3796 -0.8831
  806MOL0     H11193   8.285   9.024   7.468  3.3937  1.4521  0.8343
  806MOL0     H11194   8.360   8.748   7.584 -0.5705 -0.2064 -0.2782
  806MOL0     H11195   8.380   8.808   7.422 -1.1696 -0.3959 -0.9453
  806MOL0     H11196   8.489   8.968   7.674  0.2118 -0.8496  0.6265
  806MOL0     H11197   8.531   8.987   7.513 -4.3770  0.3218 -1.1555
  806MOL0     H11198   8.645   8.776   7.480  0.0846  0.4301 -0.3863
  806MOL0     H11199   8.588   8.707   7.624 -3.1994  0.6998  2.1262
  806MOL0     H11200   8.735   8.893   7.754 -1.7209 -0.4074 -0.4057
  806MOL0     H11201   8.800   8.776   7.658 -0.6635 -0.6161 -0.5184
  806MOL0     H11202   8.746   9.046   7.530 -0.4447 -0.6437  1.1404
  806MOL0     H11203   8.853   8.912   7.483  0.1964 -1.0627  0.7670
  806MOL0     H11204   8.892   9.141   7.681  2.1716  0.2575  0.2371
  806MOL0     H11205   9.017   9.091   7.559 -1.5843  3.0181 -0.1539
  806MOL0     H11206   8.949   8.916   7.791 -0.5414  2.3163  0.5658
  806MOL0     H11207   9.090   9.029   7.796 -1.2311 -0.7338  1.6043
  806MOL0     H11208   8.176   9.069   7.890  0.4446  0.7833 -2.0220
  806MOL0     H11209   8.030   8.955   8.060 -1.4964  0.5363 -0.6853
  806MOL0     H11210   7.978   8.738   8.391 -1.1495  0.1214  1.2303
  806MOL0     H11211   7.844   8.641   8.552 -3.6069 -0.9515 -0.1241
  806MOL0     H11212   6.778   7.119   9.245  0.4946  0.2126  1.4003
  806MOL0     H11213   6.614   7.123   9.429 -3.6572  2.5802  0.7789
  806MOL0     H11214   6.279   6.979   9.623 -0.7993 -0.5934 -1.6640
  806MOL0     H11215   6.153   6.963   9.833 -1.3757 -1.1874 -0.9445
  806MOL0     H11216   5.904   7.079  10.096  0.2140 -0.3578 -0.6520
  806MOL0     H11217   6.025   6.979  10.010 -2.0219 -1.4228  0.1263
  806MOL0     H11218   6.184   7.132  10.020  1.1357  0.6440  0.7606
  806MOL0     H11219   6.123   7.156  10.177  2.8743 -0.5273 -1.0459
  806MOL0     H11220   6.081   7.341   9.939  0.8320 -0.6672 -0.3644
  806MOL0     H11221   5.991   7.362  10.096 -1.2852 -1.8050 -1.6008
  806MOL0     H11222   6.291   7.366  10.050 -1.1373  1.3637 -1.4216
  806MOL0     H11223   6.210   7.366  10.208  0.0305  0.5334  0.7991
  806MOL0     H11224   6.204   7.769  10.054  1.4443 -0.5194  2.0778
  806MOL0     H11225   5.884   7.266   9.693 -1.9095 -1.5804 -2.2330
  806MOL0     H11226   5.879   7.340   9.489  0.9534  0.6425  0.7807
  806MOL0     H11227   6.038   7.393   9.460  0.7525 -0.4211  4.3121
  806MOL0     H11228   5.969   7.261   9.357 -2.1576 -0.5404 -0.0407
  807MOL0     O11229   5.392   2.239   0.371 -0.4295 -0.2271  0.7321
  807MOL0     C11230   5.329   2.216   0.269  0.7752  0.1406  0.1302
  807MOL0     O11231   5.275   2.305   0.182  0.5654 -0.0186  0.2907
  807MOL0     C11232   5.299   2.443   0.191 -0.3441  0.7939 -1.2555
  807MOL0     C11233   5.229   2.522   0.098  0.1376 -0.6009 -0.3993
  807MOL0     C11234   5.232   2.659   0.088 -0.6092 -0.2023  0.5755
  807MOL0     C11235   5.328   2.727   0.167  0.8735  0.4849  0.3663
  807MOL0     O11236   5.359   2.854   0.150 -0.3117  0.1744 -0.1950
  807MOL0     C11237   5.280   2.957   0.094 -0.3553  0.0296 -0.0231
  807MOL0     C11238   5.362   3.082   0.102  0.1612 -0.2603  0.7829
  807MOL0     C11239   5.503   3.059   0.036 -0.5035 -0.2501 -0.1654
  807MOL0     C11240   5.503   3.009  -0.111  0.4183  1.3682  0.4429
  807MOL0     C11241   5.646   3.028  -0.163 -0.4239 -0.0128 -1.0167
  807MOL0     C11242   5.761   2.959  -0.091 -0.2729 -0.4705 -0.1986
  807MOL0     C11243   5.891   2.948  -0.174 -1.1615  0.4128 -0.1112
  807MOL0     C11244   5.948   3.091  -0.183 -0.1069 -0.3998  0.2215
  807MOL0     N11245   6.082   3.067  -0.249  0.4964  0.5998  0.6530
  807MOL0     C11246   6.101   3.029  -0.380 -0.5827 -0.7724 -0.7258
  807MOL0     C11247   6.233   2.992  -0.384 -0.5374 -0.6572  0.2008
  807MOL0     C11248   6.294   2.951  -0.513  1.2183  0.5193 -0.6337
  807MOL0     C11249   6.422   2.870  -0.492 -0.1339  1.0362  0.5298
  807MOL0     C11250   6.551   2.947  -0.460  0.8548 -0.6152  0.2212
  807MOL0     C11251   6.677   2.864  -0.510 -0.1795 -0.0535  0.0021
  807MOL0     O11252   6.700   2.864  -0.650  0.1049  0.2029 -1.3046
  807MOL0     C11253   6.816   2.793  -0.687 -0.4149 -0.3780 -0.2873
  807MOL0     C11254   6.841   2.783  -0.824 -0.1079 -0.5161  0.5350
  807MOL0     C11255   6.964   2.748  -0.881  0.2184 -0.7132  0.0874
  807MOL0     C11256   6.991   2.771  -1.027 -0.5496  0.4609  0.6978
  807MOL0     C11257   7.059   2.679  -0.795 -0.8245  1.2270 -0.4703
  807MOL0     C11258   7.181   2.603  -0.837  0.4996  0.4156  0.3160
  807MOL0     O11259   7.296   2.628  -0.763  0.4621  0.8255 -0.2785
  807MOL0     C11260   7.409   2.556  -0.788 -0.1893 -0.2771 -0.1784
  807MOL0     C11261   7.429   2.430  -0.718  0.0509 -0.0744  0.4444
  807MOL0     C11262   7.539   2.351  -0.748 -1.0929 -0.5432 -0.1022
  807MOL0     C11263   7.642   2.402  -0.825  0.4287 -0.5987  0.0732
  807MOL0     O11264   7.752   2.317  -0.861  0.5263 -0.4056  0.2812
  807MOL0     C11265   7.858   2.314  -0.759 -0.0382 -0.2446  0.1520
  807MOL0     C11266   7.998   2.336  -0.829 -0.2873 -0.2788 -0.2219
  807MOL0     C11267   8.108   2.389  -0.723 -0.0013 -0.3527  0.0945
  807MOL0     C11268   8.170   2.281  -0.625  0.3552 -0.4709  0.4455
  807MOL0     C11269   8.221   2.165  -0.700 -0.5602 -0.2538 -0.0724
  807MOL0     C11270   8.317   2.082  -0.606  0.5471  0.6102 -0.1256
  807MOL0     C11271   8.386   1.953  -0.637 -0.1005  0.0471  1.3859
  807MOL0     C11272   8.494   1.957  -0.739  0.7625  0.2071  0.4792
  807MOL0    Cl11273   8.634   2.056  -0.670 -0.5634 -0.1614 -0.0578
  807MOL0     C11274   7.616   2.529  -0.894 -0.0198 -0.6451 -0.2372
  807MOL0     C11275   7.506   2.606  -0.869  0.1321  0.8681 -0.2119
  807MOL0     O11276   7.180   2.546  -0.940  0.4384  0.1015  0.4317
  807MOL0     C11277   7.031   2.689  -0.656 -0.1774 -0.7001 -0.8669
  807MOL0     C11278   6.914   2.736  -0.604  0.4561 -0.1609  0.7115
  807MOL0     N11279   6.290   3.002  -0.257  0.1353 -0.4139 -0.4475
  807MOL0     N11280   6.197   3.058  -0.175 -0.2845  0.3639 -0.4522
  807MOL0     C11281   5.410   2.652   0.251  0.5315  0.7990 -0.6161
  807MOL0     C11282   5.392   2.513   0.269  0.0744  0.2318  0.1913
  807MOL0     C11283   5.319   2.076   0.220 -0.4150 -0.5597  0.1124
  807MOL0     C11284   5.207   2.050   0.139  0.4560 -0.0181  1.0472
  807MOL0     C11285   5.204   1.928   0.070  0.1473  0.1081  0.0264
  807MOL0     C11286   5.300   1.827   0.089 -0.7252 -0.3461  0.4569
  807MOL0     O11287   5.284   1.711   0.019 -0.0164  0.0375 -0.3796
  807MOL0     C11288   5.407   1.650  -0.037 -0.1569 -0.2083 -0.1907
  807MOL0     C11289   5.375   1.547  -0.150  0.1859  0.5281 -0.3331
  807MOL0     C11290   5.501   1.466  -0.192 -0.5944 -0.2981  1.0165
  807MOL0     C11291   5.585   1.530  -0.301  0.0169 -0.7123 -0.5857
  807MOL0     C11292   5.713   1.454  -0.308  0.6919  0.6808 -0.1719
  807MOL0     C11293   5.819   1.393  -0.327 -0.5959 -0.7362 -0.4265
  807MOL0     C11294   5.410   1.864   0.166 -0.9817 -0.1647 -0.1892
  807MOL0     C11295   5.419   1.975   0.241 -0.7431 -0.5108 -0.2123
  807MOL0     C11296   5.536   2.002   0.326  1.2126 -0.0450 -0.5254
  807MOL0     H11297   5.159   2.479   0.027 -1.1718  1.0868 -0.1974
  807MOL0     H11298   5.188   2.718   0.008  1.0051  0.9150  0.4650
  807MOL0     H11299   5.189   2.962   0.156 -1.2682 -0.5602 -1.2658
  807MOL0     H11300   5.238   2.949  -0.007  2.2692 -4.4127 -1.0124
  807MOL0     H11301   5.309   3.158   0.044  1.6052  0.1041 -0.1182
  807MOL0     H11302   5.378   3.126   0.201  0.8710  2.2128 -0.3652
  807MOL0     H11303   5.553   3.156   0.046 -0.4323 -0.5413  3.3345
  807MOL0     H11304   5.564   2.992   0.097 -0.4826 -0.6896 -0.6663
  807MOL0     H11305   5.471   2.904  -0.117  0.8667  1.2549 -0.0773
  807MOL0     H11306   5.434   3.070  -0.170  0.4724 -0.4067 -1.6163
  807MOL0     H11307   5.672   3.133  -0.151  0.5867 -0.5380  2.5642
  807MOL0     H11308   5.641   3.004  -0.270  1.7781 -0.9161 -0.9905
  807MOL0     H11309   5.769   3.013   0.004 -3.1455  0.9665 -0.6679
  807MOL0     H11310   5.725   2.859  -0.064  1.0635 -1.2492 -1.1674
  807MOL0     H11311   5.870   2.907  -0.273 -0.6902 -2.2813  0.8345
  807MOL0     H11312   5.958   2.886  -0.115 -3.4326 -0.4461  1.7127
  807MOL0     H11313   5.882   3.158  -0.239 -1.0492 -1.0377  0.5498
  807MOL0     H11314   5.957   3.126  -0.080 -4.4994 -1.2628  1.0722
  807MOL0     H11315   6.033   3.027  -0.464 -1.0102 -0.8647 -0.3844
  807MOL0     H11316   6.318   3.043  -0.566  0.4616  1.7889  1.1316
  807MOL0     H11317   6.217   2.891  -0.564  0.6532 -1.2489  2.0756
  807MOL0     H11318   6.410   2.784  -0.426  0.7056  1.1609  0.8512
  807MOL0     H11319   6.445   2.830  -0.591  0.1505 -0.2130  1.0887
  807MOL0     H11320   6.546   3.042  -0.515  0.4607 -1.9553 -2.2190
  807MOL0     H11321   6.558   2.970  -0.353 -1.5524  3.2937 -0.2639
  807MOL0     H11322   6.765   2.908  -0.463  1.1602 -1.7124 -0.8595
  807MOL0     H11323   6.661   2.761  -0.477 -2.5086 -1.4216 -4.5348
  807MOL0     H11324   6.760   2.815  -0.888  0.6506 -2.3686 -1.4871
  807MOL0     H11325   6.901   2.792  -1.085 -0.0072  2.9235  0.6691
  807MOL0     H11326   7.040   2.687  -1.078  1.4472  0.6418  2.1946
  807MOL0     H11327   7.067   2.849  -1.033 -0.8251  0.7584  1.0106
  807MOL0     H11328   7.359   2.401  -0.640 -2.1956  3.2817 -0.1096
  807MOL0     H11329   7.564   2.256  -0.701  4.0399  1.2182  1.3718
  807MOL0     H11330   7.845   2.396  -0.688  1.1441  0.3684 -0.3023
  807MOL0     H11331   7.850   2.214  -0.716 -2.5854 -0.5018 -0.7751
  807MOL0     H11332   8.029   2.242  -0.876 -2.7206  0.2520 -3.2136
  807MOL0     H11333   7.995   2.404  -0.915  3.1615 -1.0735 -1.1118
  807MOL0     H11334   8.065   2.474  -0.669 -0.4651  1.7509 -3.2876
  807MOL0     H11335   8.186   2.431  -0.788 -1.4742 -0.8849 -2.1423
  807MOL0     H11336   8.096   2.233  -0.560 -1.0668  1.2964  0.2141
  807MOL0     H11337   8.244   2.323  -0.557  0.8434 -0.8332  0.1441
  807MOL0     H11338   8.135   2.109  -0.739 -1.9807  0.0337  2.4171
  807MOL0     H11339   8.278   2.197  -0.788 -2.7478  1.2421 -1.0628
  807MOL0     H11340   8.257   2.049  -0.520  0.9564  1.5626  0.5416
  807MOL0     H11341   8.399   2.144  -0.569  1.6673 -0.7226 -0.3250
  807MOL0     H11342   8.315   1.873  -0.660 -0.3907  1.0327 -1.5400
  807MOL0     H11343   8.436   1.902  -0.554  2.0514 -0.8931 -0.3952
  807MOL0     H11344   8.450   1.996  -0.831 -5.9593 -1.9041  2.2382
  807MOL0     H11345   8.540   1.858  -0.753 -1.1914 -0.9352  1.5868
  807MOL0     H11346   7.692   2.573  -0.958  3.1625 -0.1113  3.4980
  807MOL0     H11347   7.482   2.693  -0.928  0.2023  1.3842  0.5058
  807MOL0     H11348   7.102   2.639  -0.591  0.4570  0.9861 -0.2066
  807MOL0     H11349   6.891   2.742  -0.498 -0.7763  0.7283  0.4121
  807MOL0     H11350   5.484   2.691   0.320 -0.1041  0.8178  0.0655
  807MOL0     H11351   5.448   2.462   0.347  1.1720 -1.1401 -1.4236
  807MOL0     H11352   5.117   2.106   0.118  0.3039 -0.8027 -0.5908
  807MOL0     H11353   5.123   1.903   0.002  0.2032 -1.9657  0.6280
  807MOL0     H11354   5.472   1.731  -0.071  2.0249  0.1039  4.0211
  807MOL0     H11355   5.463   1.601   0.043  0.6815 -0.2158 -0.7822
  807MOL0     H11356   5.336   1.605  -0.234 -1.4151 -1.5176 -1.0813
  807MOL0     H11357   5.295   1.482  -0.114  3.8927 -3.8174  0.9574
  807MOL0     H11358   5.563   1.443  -0.104  0.6065  1.5839  0.7165
  807MOL0     H11359   5.472   1.368  -0.232  0.0826  0.0752 -0.4323
  807MOL0     H11360   5.609   1.634  -0.279  1.6895 -0.7930 -1.8448
  807MOL0     H11361   5.536   1.528  -0.399 -2.7385  1.3765  0.6138
  807MOL0     H11362   5.915   1.346  -0.338 -1.2930 -2.5174  0.7135
  807MOL0     H11363   5.494   1.798   0.182 -0.4475  0.8631  1.5548
  807MOL0     H11364   5.504   2.014   0.430  4.0806 -0.7884  0.5296
  807MOL0     H11365   5.616   1.928   0.320 -0.8859 -2.4712 -0.2786
  807MOL0     H11366   5.590   2.091   0.291 -0.7842  2.2587  1.7939
  808MOL0     O11367   4.422   7.871   4.096  0.1946 -1.4414 -0.9717
  808MOL0     C11368   4.371   7.921   3.999  0.1949 -0.7108  0.1565
  808MOL0     O11369   4.438   8.015   3.927  0.1890 -0.5646 -0.0414
  808MOL0     C11370   4.564   8.044   3.969  0.1808 -0.0205 -0.0878
  808MOL0     C11371   4.662   7.998   3.894 -0.0930 -0.1534  0.0265
  808MOL0     C11372   4.792   8.033   3.910 -0.0314 -0.7240  0.2555
  808MOL0     C11373   4.835   8.109   4.018 -0.5293 -0.1441  1.0547
  808MOL0     O11374   4.973   8.125   4.024 -0.2233  1.2297  0.1704
  808MOL0     C11375   5.019   8.165   4.155  0.7342  0.7137 -0.0136
  808MOL0     C11376   5.161   8.118   4.160 -0.9220 -0.1929 -0.0888
  808MOL0     C11377   5.247   8.174   4.037 -0.0307  0.1089 -0.2860
  808MOL0     C11378   5.387   8.121   4.046  0.1491  0.2057 -0.2879
  808MOL0     C11379   5.484   8.218   3.969  0.0920  0.8204 -0.4427
  808MOL0     C11380   5.631   8.168   3.960  0.5149 -0.3018  0.6619
  808MOL0     C11381   5.725   8.262   3.880 -0.0751  0.0443 -0.0832
  808MOL0     C11382   5.706   8.270   3.724  0.5260  0.2840  0.1098
  808MOL0     N11383   5.788   8.370   3.661 -0.0191  0.2572 -0.1699
  808MOL0     C11384   5.929   8.356   3.673  0.2220 -0.1797 -0.4099
  808MOL0     C11385   5.979   8.448   3.584  0.9344 -0.2219 -0.0047
  808MOL0     C11386   6.127   8.474   3.569  0.3066  0.3047  0.3409
  808MOL0     C11387   6.216   8.371   3.498  0.3914 -0.2630  0.1425
  808MOL0     C11388   6.249   8.398   3.351 -1.1118  0.1383 -0.0920
  808MOL0     C11389   6.165   8.327   3.247  0.5799  0.7099  0.3817
  808MOL0     O11390   6.202   8.182   3.257 -0.3619  0.3919 -0.3014
  808MOL0     C11391   6.304   8.124   3.183  0.5657 -0.1076  0.9142
  808MOL0     C11392   6.379   8.191   3.089 -0.1573 -0.2056  0.0889
  808MOL0     C11393   6.482   8.125   3.019 -0.5435  0.4825 -0.0447
  808MOL0     C11394   6.569   8.209   2.917  0.1590 -0.6261 -0.1959
  808MOL0     C11395   6.508   7.984   3.040 -0.4398 -0.6871 -0.3095
  808MOL0     C11396   6.625   7.906   2.987 -0.2765 -0.4276 -0.2704
  808MOL0     O11397   6.610   7.779   2.990  0.1227 -0.8011 -0.6861
  808MOL0     C11398   6.709   7.699   2.949 -0.8753  0.2340 -0.2107
  808MOL0     C11399   6.706   7.646   2.819  1.1018  0.3484  0.2098
  808MOL0     C11400   6.811   7.559   2.777  0.6722  1.1506  0.2671
  808MOL0     C11401   6.922   7.542   2.867  0.8345  0.5164 -0.0721
  808MOL0     O11402   7.026   7.467   2.825 -0.0768  0.9843  0.0548
  808MOL0     C11403   6.987   7.338   2.791 -0.8692 -0.4149 -0.4597
  808MOL0     C11404   7.096   7.235   2.821  0.3766  0.5669  0.4505
  808MOL0     C11405   7.043   7.097   2.836  0.5280  0.4440  0.6120
  808MOL0     C11406   6.987   7.038   2.712 -0.3611  0.7564 -0.6103
  808MOL0     C11407   7.083   7.034   2.597 -0.4751  0.0442  0.0858
  808MOL0     C11408   7.194   6.937   2.626  0.3179 -0.1597 -0.3453
  808MOL0     C11409   7.268   6.914   2.491 -0.0357 -0.2026 -0.5048
  808MOL0     C11410   7.371   6.800   2.502  0.5288 -0.4015  0.1415
  808MOL0    Cl11411   7.495   6.836   2.622 -0.5648 -0.3490 -0.1231
  808MOL0     C11412   6.925   7.610   2.980 -0.4717 -0.1205 -0.5173
  808MOL0     C11413   6.824   7.686   3.028  0.1488  0.8212  0.2363
  808MOL0     O11414   6.727   7.971   2.952 -0.9413 -0.2906 -0.1436
  808MOL0     C11415   6.417   7.912   3.126 -1.5216  0.1690  0.6874
  808MOL0     C11416   6.323   7.981   3.199  0.4632  0.4908  0.3957
  808MOL0     N11417   5.871   8.512   3.522  0.2189  0.3666  0.4103
  808MOL0     N11418   5.758   8.465   3.569 -0.2574 -0.6614  0.0564
  808MOL0     C11419   4.735   8.162   4.100  0.0692 -0.4059 -0.4600
  808MOL0     C11420   4.597   8.130   4.077 -0.0379  0.3348 -0.3239
  808MOL0     C11421   4.238   7.862   3.951  0.1619 -0.0888 -0.1176
  808MOL0     C11422   4.158   7.796   4.037 -0.3343  0.2706  1.0331
  808MOL0     C11423   4.034   7.750   3.995 -0.5547 -0.0717 -0.6117
  808MOL0     C11424   3.977   7.766   3.867 -0.6496  0.1043  0.7488
  808MOL0     O11425   3.850   7.722   3.839  0.5003 -0.3226 -0.2642
  808MOL0     C11426   3.762   7.815   3.771  0.4764 -0.4477  0.4960
  808MOL0     C11427   3.631   7.749   3.724 -0.0011  0.3949  0.5686
  808MOL0     C11428   3.674   7.666   3.598 -0.3158 -0.3001 -0.6910
  808MOL0     C11429   3.547   7.603   3.544 -0.0603  0.0879  0.2614
  808MOL0     C11430   3.457   7.690   3.463  0.1815  0.2668 -0.0881
  808MOL0     C11431   3.385   7.764   3.399 -0.6007 -0.7123  0.1514
  808MOL0     C11432   4.052   7.841   3.780 -0.2538 -0.5617 -0.8530
  808MOL0     C11433   4.181   7.896   3.816  0.9917  0.3778  0.4110
  808MOL0     C11434   4.255   7.989   3.715 -0.2841 -0.1788  0.7863
  808MOL0     H11435   4.644   7.917   3.825  3.2449 -0.4376 -0.6538
  808MOL0     H11436   4.848   7.996   3.825 -3.0459 -1.8564 -1.4222
  808MOL0     H11437   4.966   8.120   4.240  3.1242 -1.5708  0.3825
  808MOL0     H11438   5.020   8.274   4.168  0.4327  0.5462  1.6435
  808MOL0     H11439   5.195   8.156   4.257  0.2399  3.2416 -1.7013
  808MOL0     H11440   5.181   8.011   4.151  4.7470  0.5041  0.6574
  808MOL0     H11441   5.200   8.130   3.949  0.3310  0.7658 -0.8111
  808MOL0     H11442   5.242   8.284   4.033  0.3955  0.0885 -2.5172
  808MOL0     H11443   5.421   8.107   4.149  1.4495 -1.0652 -0.8593
  808MOL0     H11444   5.383   8.024   3.996 -0.8790  1.8490 -3.7395
  808MOL0     H11445   5.493   8.310   4.027  0.5523  2.3958 -2.9167
  808MOL0     H11446   5.450   8.240   3.868  1.2159  2.2818 -0.5381
  808MOL0     H11447   5.669   8.152   4.062 -0.2518 -2.2855  0.6944
  808MOL0     H11448   5.646   8.068   3.917  0.6844  0.4882 -1.1556
  808MOL0     H11449   5.827   8.227   3.898 -0.5122 -0.3364  1.8696
  808MOL0     H11450   5.712   8.362   3.923 -3.2363 -1.6937  3.6043
  808MOL0     H11451   5.728   8.172   3.679  1.9149  1.2942 -1.4880
  808MOL0     H11452   5.603   8.299   3.699  0.8538  0.0510 -1.6788
  808MOL0     H11453   5.980   8.292   3.745 -2.8425 -1.9068  0.4249
  808MOL0     H11454   6.155   8.504   3.670  0.0944  3.4689 -0.4461
  808MOL0     H11455   6.127   8.573   3.524  0.7496  1.2694  2.3662
  808MOL0     H11456   6.311   8.367   3.552  0.8227 -0.7278 -0.6249
  808MOL0     H11457   6.164   8.275   3.499  0.4826 -0.4182 -2.4071
  808MOL0     H11458   6.249   8.504   3.324  2.5877 -0.1828 -2.0685
  808MOL0     H11459   6.356   8.378   3.336 -0.6163  3.0838 -1.1602
  808MOL0     H11460   6.058   8.338   3.265  0.6505  0.3279  1.0770
  808MOL0     H11461   6.190   8.359   3.145 -2.7099 -1.5031 -1.2902
  808MOL0     H11462   6.361   8.296   3.069  2.7160  0.8001  2.1696
  808MOL0     H11463   6.675   8.207   2.946  0.6887  1.6228 -1.7233
  808MOL0     H11464   6.534   8.312   2.918 -2.1749 -1.3756 -0.7732
  808MOL0     H11465   6.555   8.173   2.815 -1.1247  2.7706 -1.3430
  808MOL0     H11466   6.623   7.661   2.750  1.3064 -2.0269 -0.6528
  808MOL0     H11467   6.809   7.510   2.680  3.4871  0.1230  0.6268
  808MOL0     H11468   6.901   7.317   2.856 -0.3387  1.5047  0.9768
  808MOL0     H11469   6.963   7.334   2.684 -1.1838  0.5854 -0.4438
  808MOL0     H11470   7.178   7.234   2.749  1.3347  3.0050  1.4061
  808MOL0     H11471   7.130   7.261   2.922 -2.1155  0.2147  1.4587
  808MOL0     H11472   6.969   7.095   2.916 -1.0352  0.2218 -0.7710
  808MOL0     H11473   7.132   7.041   2.865  1.2427  2.2362  2.0566
  808MOL0     H11474   6.902   7.100   2.681 -1.0937  0.6610  1.1373
  808MOL0     H11475   6.950   6.937   2.730 -0.6519  1.1349  1.0899
  808MOL0     H11476   7.025   7.013   2.507  2.9624 -2.3857 -1.7829
  808MOL0     H11477   7.137   7.128   2.582 -0.1282  0.2856  2.4165
  808MOL0     H11478   7.157   6.839   2.657 -0.0493 -2.2348 -6.1207
  808MOL0     H11479   7.253   6.983   2.706 -1.8428  2.0068  0.1323
  808MOL0     H11480   7.326   7.007   2.479 -2.7570  1.6749  0.0207
  808MOL0     H11481   7.202   6.899   2.405  1.2069  0.6948 -1.6642
  808MOL0     H11482   7.425   6.797   2.407  0.4691  0.6103  0.0649
  808MOL0     H11483   7.322   6.702   2.508  0.3165 -0.3142 -0.1944
  808MOL0     H11484   7.015   7.603   3.040 -0.9618  0.7270  0.3160
  808MOL0     H11485   6.829   7.733   3.126  2.1738  1.6573 -0.2215
  808MOL0     H11486   6.414   7.804   3.138  0.7517  0.1426  1.5502
  808MOL0     H11487   6.258   7.924   3.264 -2.1622  0.8253 -1.7910
  808MOL0     H11488   4.765   8.218   4.188 -1.5950  1.1065 -0.8067
  808MOL0     H11489   4.522   8.177   4.139 -1.0349 -2.4080  0.7309
  808MOL0     H11490   4.195   7.782   4.138 -1.4673 -0.4364  1.3695
  808MOL0     H11491   3.973   7.699   4.069  2.5011 -0.0948  2.1684
  808MOL0     H11492   3.738   7.901   3.833 -0.4209 -1.8378  2.1599
  808MOL0     H11493   3.803   7.847   3.675 -2.1933 -1.3261 -1.0555
  808MOL0     H11494   3.558   7.819   3.683 -1.8148 -2.2016 -0.8437
  808MOL0     H11495   3.601   7.684   3.807  3.4583  0.3881  2.0198
  808MOL0     H11496   3.705   7.743   3.527 -2.6820  1.2920 -0.1347
  808MOL0     H11497   3.742   7.586   3.629 -2.8038 -1.5516  2.0443
  808MOL0     H11498   3.485   7.563   3.625 -2.1524  0.8764 -0.8640
  808MOL0     H11499   3.579   7.518   3.484 -2.9613  1.5422 -3.8436
  808MOL0     H11500   3.312   7.824   3.348  2.3973  1.8132 -1.4920
  808MOL0     H11501   4.022   7.857   3.677 -0.8495 -1.0109 -0.7573
  808MOL0     H11502   4.357   7.955   3.694 -1.2072 -1.8802 -1.2814
  808MOL0     H11503   4.203   7.978   3.619 -0.5205  0.2886  0.8604
  808MOL0     H11504   4.241   8.088   3.759 -2.8818  0.4296 -1.1737
  809MOL0     O11505   1.041   8.611   5.175 -0.3571  0.2081 -0.2220
  809MOL0     C11506   1.011   8.726   5.166 -0.0756 -0.5234 -0.5341
  809MOL0     O11507   1.050   8.813   5.262  0.3175 -0.8977 -0.5056
  809MOL0     C11508   1.104   8.765   5.383 -0.1761 -0.3186  0.1010
  809MOL0     C11509   1.221   8.685   5.397 -0.7852 -0.1962  0.5112
  809MOL0     C11510   1.293   8.682   5.519 -0.5077 -0.0917  0.5098
  809MOL0     C11511   1.239   8.722   5.644  0.3949  0.2321 -0.0656
  809MOL0     O11512   1.282   8.698   5.772  0.4865 -0.0150 -0.2202
  809MOL0     C11513   1.418   8.659   5.781 -0.4933  0.3748 -0.1378
  809MOL0     C11514   1.457   8.609   5.920 -0.0316 -0.0939  0.7956
  809MOL0     C11515   1.614   8.602   5.933  1.7641  0.4237  0.3736
  809MOL0     C11516   1.646   8.551   6.076 -0.2561 -0.6701  1.2728
  809MOL0     C11517   1.796   8.523   6.088  0.9610  0.8299 -0.4774
  809MOL0     C11518   1.817   8.407   6.195 -0.6224 -0.4632 -0.2627
  809MOL0     C11519   1.966   8.391   6.205  0.3410 -0.3885 -0.3315
  809MOL0     C11520   2.036   8.485   6.303 -0.2205  0.5796 -0.1341
  809MOL0     N11521   2.183   8.459   6.295  0.3314  0.2346 -0.0926
  809MOL0     C11522   2.270   8.494   6.199  0.1970 -0.2983  0.7438
  809MOL0     C11523   2.380   8.425   6.236 -0.2690  0.5217  0.2447
  809MOL0     C11524   2.510   8.413   6.173 -0.8867 -1.2394 -0.4036
  809MOL0     C11525   2.595   8.289   6.189 -0.1889  0.5441 -0.1240
  809MOL0     C11526   2.746   8.315   6.189 -0.2561  0.1895 -0.3370
  809MOL0     C11527   2.822   8.181   6.168 -0.1227  0.4733  0.0299
  809MOL0     O11528   2.960   8.206   6.187 -0.7299  0.6188 -0.1091
  809MOL0     C11529   3.039   8.206   6.076 -0.5189  0.3066 -0.0243
  809MOL0     C11530   2.996   8.237   5.950 -0.6203 -0.1972  0.4648
  809MOL0     C11531   3.076   8.207   5.834  0.1082  0.3020  0.9503
  809MOL0     C11532   3.022   8.248   5.697  0.6647 -0.0416 -0.0930
  809MOL0     C11533   3.212   8.154   5.851 -0.1805 -0.6701 -0.4241
  809MOL0     C11534   3.316   8.128   5.745 -0.3639  0.5232  1.0364
  809MOL0     O11535   3.431   8.056   5.793 -0.7344 -0.1808  1.0414
  809MOL0     C11536   3.554   8.067   5.728  0.5477  0.8387  0.7021
  809MOL0     C11537   3.651   7.956   5.728  0.5759 -0.3848  1.0065
  809MOL0     C11538   3.778   7.960   5.665 -0.2281 -0.3283  0.5747
  809MOL0     C11539   3.820   8.075   5.596 -0.8983  0.3302  0.3600
  809MOL0     O11540   3.933   8.082   5.525 -1.0475  0.0785  0.0339
  809MOL0     C11541   3.981   7.967   5.455 -0.7117 -0.0826  0.4614
  809MOL0     C11542   4.090   7.909   5.545  0.2361  0.3002 -0.5790
  809MOL0     C11543   4.231   7.932   5.486  0.3092 -0.0124  0.0197
  809MOL0     C11544   4.283   8.077   5.506 -0.1918  0.0484 -0.2014
  809MOL0     C11545   4.422   8.094   5.435 -0.7473  0.2848  0.6507
  809MOL0     C11546   4.444   8.036   5.297  0.5368 -0.1025 -1.0202
  809MOL0     C11547   4.370   8.126   5.201  0.1963  0.1529 -0.0255
  809MOL0     C11548   4.367   8.077   5.058 -1.2200 -0.4640  0.7350
  809MOL0    Cl11549   4.534   8.024   4.996 -0.3284 -0.4078  0.0547
  809MOL0     C11550   3.728   8.190   5.602 -0.0465 -0.7829 -0.0221
  809MOL0     C11551   3.603   8.189   5.665 -0.8589 -0.7550 -0.1515
  809MOL0     O11552   3.310   8.184   5.631  0.1037  0.5565 -0.7881
  809MOL0     C11553   3.251   8.137   5.988 -0.0912 -0.8256  0.6102
  809MOL0     C11554   3.166   8.160   6.092  0.7242 -0.0197  0.0466
  809MOL0     N11555   2.354   8.351   6.353 -0.4389  0.0784  0.0135
  809MOL0     N11556   2.236   8.372   6.392 -0.1485  0.0228  0.0778
  809MOL0     C11557   1.125   8.797   5.631  0.2498  1.1937  0.3457
  809MOL0     C11558   1.055   8.822   5.501  0.2648 -0.0174 -0.2787
  809MOL0     C11559   0.945   8.778   5.043 -0.4486  0.9564  0.2557
  809MOL0     C11560   0.962   8.913   5.011  0.0729  0.3065 -0.1232
  809MOL0     C11561   0.927   8.953   4.889 -0.3238 -0.3499  0.4396
  809MOL0     C11562   0.861   8.868   4.798  0.3604 -0.5506  0.7214
  809MOL0     O11563   0.815   8.904   4.671  0.7739  0.3982  0.3335
  809MOL0     C11564   0.905   9.005   4.607 -0.2262  0.1257  0.0229
  809MOL0     C11565   0.855   9.019   4.458 -0.6316  0.2946  0.1824
  809MOL0     C11566   0.968   9.074   4.371  0.7292 -0.2578 -0.7391
  809MOL0     C11567   1.086   8.979   4.355  0.0282 -0.3371  0.8142
  809MOL0     C11568   1.199   9.003   4.445 -0.8170 -1.4369  0.6081
  809MOL0     C11569   1.298   9.016   4.512  0.2047 -1.4148 -0.0133
  809MOL0     C11570   0.820   8.748   4.842 -0.8343 -0.1510 -0.7996
  809MOL0     C11571   0.867   8.699   4.961 -0.9940  0.9666 -0.5468
  809MOL0     C11572   0.821   8.564   4.988 -0.3277  0.7038 -0.4496
  809MOL0     H11573   1.274   8.656   5.307  5.7098  0.0941  3.6363
  809MOL0     H11574   1.383   8.622   5.526 -1.6266 -1.8942  0.2428
  809MOL0     H11575   1.476   8.750   5.763 -1.3786  1.1150  0.6211
  809MOL0     H11576   1.447   8.581   5.710 -0.2022  1.2711 -1.0268
  809MOL0     H11577   1.430   8.690   5.988 -0.4915  0.7531 -0.3533
  809MOL0     H11578   1.406   8.517   5.951 -2.3375  0.0010 -2.2105
  809MOL0     H11579   1.656   8.534   5.858  2.6304 -2.3570  3.1359
  809MOL0     H11580   1.654   8.703   5.928 -3.4948  2.9541  2.2800
  809MOL0     H11581   1.617   8.628   6.148 -1.0989  1.8247 -1.5324
  809MOL0     H11582   1.590   8.459   6.094 -0.1594 -1.1238 -0.5755
  809MOL0     H11583   1.859   8.604   6.125  1.9817  0.2933 -0.9867
  809MOL0     H11584   1.829   8.509   5.984 -1.4544 -1.5204 -1.0405
  809MOL0     H11585   1.771   8.428   6.292  2.3433 -1.7376  1.5683
  809MOL0     H11586   1.781   8.307   6.168 -1.1268 -0.5321  0.6047
  809MOL0     H11587   2.007   8.406   6.105  2.4208 -0.5930  0.4255
  809MOL0     H11588   1.990   8.290   6.240  1.5906  0.8136  2.6506
  809MOL0     H11589   2.023   8.593   6.288  3.2480  1.5699  2.5695
  809MOL0     H11590   2.004   8.462   6.405  0.4948  0.8482  0.1618
  809MOL0     H11591   2.261   8.548   6.105 -1.5289 -2.2736 -0.3057
  809MOL0     H11592   2.574   8.484   6.226  2.8683 -3.1990 -1.9247
  809MOL0     H11593   2.514   8.435   6.066  0.5254 -1.0451 -0.3326
  809MOL0     H11594   2.574   8.246   6.288  0.5591  1.4024  0.4341
  809MOL0     H11595   2.560   8.225   6.108 -0.8293  0.8246 -0.0752
  809MOL0     H11596   2.782   8.386   6.114  0.7035  0.3624  0.2760
  809MOL0     H11597   2.768   8.355   6.288 -1.1735  1.4007 -0.5911
  809MOL0     H11598   2.798   8.103   6.240  3.6392 -0.8605  0.0491
  809MOL0     H11599   2.787   8.140   6.073  0.2115  0.9434 -0.3031
  809MOL0     H11600   2.897   8.278   5.932  0.8422  3.8616  0.5582
  809MOL0     H11601   3.046   8.154   5.646  0.1023 -0.1922 -0.0931
  809MOL0     H11602   3.087   8.331   5.670 -0.5436  1.8321  2.3095
  809MOL0     H11603   2.920   8.288   5.692  0.9859  0.6747 -1.2557
  809MOL0     H11604   3.613   7.866   5.776 -1.9315  0.2641  0.3824
  809MOL0     H11605   3.845   7.877   5.682 -0.8947 -0.6663  1.5876
  809MOL0     H11606   3.903   7.893   5.432 -0.7574 -0.5994  2.1465
  809MOL0     H11607   4.031   7.996   5.362 -1.1345  0.4437  0.3948
  809MOL0     H11608   4.088   7.946   5.648 -0.9961 -0.5122 -0.2893
  809MOL0     H11609   4.067   7.802   5.540 -1.9517  0.7727 -2.3363
  809MOL0     H11610   4.226   7.907   5.380 -1.0550  0.4090 -0.0263
  809MOL0     H11611   4.297   7.857   5.531  0.9405  1.5856  1.8640
  809MOL0     H11612   4.299   8.090   5.613  2.6942  0.5236 -0.6073
  809MOL0     H11613   4.213   8.152   5.470  0.5589  0.7896 -0.1332
  809MOL0     H11614   4.426   8.203   5.433 -1.4377  0.3258  0.9981
  809MOL0     H11615   4.509   8.062   5.493  0.2419  0.1465 -0.8380
  809MOL0     H11616   4.420   7.929   5.288 -3.1050  0.3462  1.3109
  809MOL0     H11617   4.546   8.035   5.257  1.3026 -1.8112  0.8091
  809MOL0     H11618   4.428   8.219   5.200 -1.5979  1.3507  1.2892
  809MOL0     H11619   4.269   8.136   5.240  0.5507  1.3167  0.6360
  809MOL0     H11620   4.334   8.159   4.994 -0.7274 -0.7477  0.1095
  809MOL0     H11621   4.302   7.990   5.040 -0.8616 -0.3637 -1.2115
  809MOL0     H11622   3.746   8.284   5.551 -1.1516 -1.1402 -1.1323
  809MOL0     H11623   3.544   8.280   5.667  0.6741  0.2812 -0.4508
  809MOL0     H11624   3.348   8.122   6.035  0.2976 -2.5149 -0.6131
  809MOL0     H11625   3.207   8.145   6.192  1.4495  0.8665 -0.1096
  809MOL0     H11626   1.083   8.844   5.720 -1.6921 -0.5875  0.4461
  809MOL0     H11627   0.968   8.885   5.485 -0.7313 -1.3230 -0.1542
  809MOL0     H11628   1.003   8.981   5.085  1.6314  2.0317 -2.4366
  809MOL0     H11629   0.948   9.057   4.869  0.4722 -0.4021  0.9303
  809MOL0     H11630   0.898   9.098   4.664  1.4021  1.0167 -1.1302
  809MOL0     H11631   1.006   8.966   4.622  0.2513  2.1690  3.0693
  809MOL0     H11632   0.766   9.083   4.450 -0.1644  1.3764  2.7234
  809MOL0     H11633   0.832   8.918   4.422  0.1741  0.6695 -1.4864
  809MOL0     H11634   0.920   9.095   4.274 -0.0100  1.0337 -0.1135
  809MOL0     H11635   0.995   9.169   4.416 -1.1957  0.5258 -1.1104
  809MOL0     H11636   1.123   9.015   4.258 -2.1048 -0.5008 -0.1286
  809MOL0     H11637   1.060   8.873   4.353 -2.5885  0.2064 -1.3051
  809MOL0     H11638   1.381   9.046   4.572  0.6389 -0.1927 -1.2039
  809MOL0     H11639   0.760   8.687   4.775  1.7014 -2.2224 -1.3480
  809MOL0     H11640   0.744   8.566   5.065  1.6061 -2.8175  1.8437
  809MOL0     H11641   0.761   8.517   4.909 -0.3918 -1.4613  0.7962
  809MOL0     H11642   0.899   8.490   5.008  0.4520  1.5738 -0.2066
  810MOL0     O11643   1.639   6.402   6.046  0.4924  0.0814 -0.7825
  810MOL0     C11644   1.637   6.522   6.062 -0.3601  0.7163  0.3174
  810MOL0     O11645   1.701   6.613   5.977 -0.1079 -0.7972  0.1480
  810MOL0     C11646   1.775   6.570   5.870 -0.5335 -0.5588  0.5930
  810MOL0     C11647   1.904   6.612   5.850  0.0735 -0.8131  0.1421
  810MOL0     C11648   1.982   6.545   5.748  0.0414 -0.0829  0.7247
  810MOL0     C11649   1.929   6.456   5.661  0.0462  0.4310  0.8766
  810MOL0     O11650   2.016   6.408   5.574  0.3316  0.2472  0.2348
  810MOL0     C11651   2.001   6.271   5.517 -0.5597  0.0136  0.1831
  810MOL0     C11652   2.069   6.172   5.609  0.2881  0.0801 -0.2899
  810MOL0     C11653   2.220   6.206   5.594 -0.1129 -0.3555 -1.3854
  810MOL0     C11654   2.303   6.086   5.627 -0.1751 -0.9293  0.1103
  810MOL0     C11655   2.448   6.116   5.677  0.0590 -0.1982  0.2607
  810MOL0     C11656   2.538   6.114   5.552  0.4335 -0.8220 -0.1365
  810MOL0     C11657   2.660   6.196   5.586  0.5473 -0.2023  0.3628
  810MOL0     C11658   2.668   6.349   5.555  0.2942  0.4855 -0.2377
  810MOL0     N11659   2.641   6.383   5.416  0.6214 -0.0976  0.3644
  810MOL0     C11660   2.737   6.397   5.317  0.0115 -0.3658  0.0246
  810MOL0     C11661   2.665   6.430   5.211  0.1722  0.3939  0.5282
  810MOL0     C11662   2.728   6.443   5.081 -0.0236 -0.5255  0.3644
  810MOL0     C11663   2.724   6.593   5.030 -0.9641 -0.0186 -0.3837
  810MOL0     C11664   2.588   6.623   4.969 -0.0550 -0.0661 -0.2951
  810MOL0     C11665   2.578   6.766   4.914  0.0121 -0.4281 -0.6927
  810MOL0     O11666   2.703   6.821   4.873 -1.1732  0.8156 -0.4990
  810MOL0     C11667   2.713   6.937   4.808 -0.1383 -1.2981 -0.3249
  810MOL0     C11668   2.618   7.027   4.781 -0.1679  0.3084  0.4314
  810MOL0     C11669   2.640   7.155   4.718  0.4290 -0.1060 -0.2501
  810MOL0     C11670   2.526   7.254   4.717  0.0026 -0.6358 -0.2962
  810MOL0     C11671   2.768   7.181   4.663 -0.9805 -0.1911 -0.9014
  810MOL0     C11672   2.803   7.307   4.583 -0.5173  0.2534 -0.0143
  810MOL0     O11673   2.936   7.352   4.603 -0.4030 -0.0549 -0.2883
  810MOL0     C11674   2.965   7.467   4.522 -1.4800 -0.2941  0.9938
  810MOL0     C11675   2.963   7.587   4.583 -0.6655 -0.8148 -0.3145
  810MOL0     C11676   3.000   7.706   4.526 -0.7622 -0.4395  0.2704
  810MOL0     C11677   3.038   7.696   4.393  0.7381 -0.6925 -0.6396
  810MOL0     O11678   3.038   7.800   4.310 -0.3951 -0.1978 -0.3787
  810MOL0     C11679   3.105   7.912   4.354 -0.1260 -1.1436 -0.1899
  810MOL0     C11680   3.134   7.984   4.240 -0.3132 -0.3013 -0.3705
  810MOL0     C11681   3.227   8.110   4.264  0.4426 -1.1768 -0.8094
  810MOL0     C11682   3.159   8.211   4.352  0.1348 -0.0250 -0.8238
  810MOL0     C11683   3.257   8.332   4.392 -0.5582  0.7185 -0.0077
  810MOL0     C11684   3.282   8.416   4.268  0.6235 -0.5287  0.0560
  810MOL0     C11685   3.375   8.532   4.303 -0.0615 -0.5690  0.3332
  810MOL0     C11686   3.422   8.623   4.194 -0.4490 -0.5813  0.5734
  810MOL0    Cl11687   3.544   8.741   4.244  0.3225  0.2158  0.7277
  810MOL0     C11688   3.044   7.575   4.322 -0.0994 -0.5008  0.1614
  810MOL0     C11689   3.018   7.459   4.387  1.3362 -0.2025 -0.5481
  810MOL0     O11690   2.729   7.338   4.491 -0.4888  0.6526 -0.0850
  810MOL0     C11691   2.864   7.074   4.681  0.3574 -0.7087  0.1895
  810MOL0     C11692   2.838   6.965   4.761  0.1233  0.0260 -0.3618
  810MOL0     N11693   2.531   6.432   5.241  0.1427 -0.1527  0.2885
  810MOL0     N11694   2.514   6.391   5.362  0.1155  0.2898  0.4884
  810MOL0     C11695   1.794   6.430   5.669  0.9166 -0.0183  0.1070
  810MOL0     C11696   1.716   6.483   5.776  0.7647  0.0650  0.5329
  810MOL0     C11697   1.560   6.573   6.170  0.4078 -0.3946  0.9941
  810MOL0     C11698   1.613   6.687   6.237  0.5508  0.1703 -0.3433
  810MOL0     C11699   1.551   6.733   6.351  0.3383 -0.1721 -0.1630
  810MOL0     C11700   1.444   6.665   6.410  0.5588  0.0855 -0.3201
  810MOL0     O11701   1.386   6.706   6.529  0.3074  0.3004  0.2961
  810MOL0     C11702   1.414   6.836   6.583 -1.3773  0.2757  0.5871
  810MOL0     C11703   1.345   6.859   6.718  0.4039  0.5727  0.0768
  810MOL0     C11704   1.404   6.757   6.816  0.1575  0.3539 -1.1108
  810MOL0     C11705   1.342   6.617   6.827 -0.2383  0.1064 -0.2821
  810MOL0     C11706   1.196   6.604   6.815 -0.2546  0.9295  0.1458
  810MOL0     C11707   1.076   6.576   6.802 -0.1224 -0.0390  0.0163
  810MOL0     C11708   1.384   6.556   6.345  0.5321  0.9932  0.8824
  810MOL0     C11709   1.448   6.506   6.229 -0.4618  1.0233  0.1798
  810MOL0     C11710   1.390   6.366   6.176 -0.0610 -0.2611 -0.0542
  810MOL0     H11711   1.952   6.689   5.910  2.2592 -1.9191 -0.0585
  810MOL0     H11712   2.086   6.572   5.736  0.4967 -2.4598 -1.5821
  810MOL0     H11713   2.043   6.277   5.416  0.1642  1.8673  0.5489
  810MOL0     H11714   1.897   6.244   5.495 -0.2974 -1.1593  0.3306
  810MOL0     H11715   2.040   6.173   5.715  1.1094  0.4392 -0.0524
  810MOL0     H11716   2.061   6.071   5.569  0.1370 -0.5804  1.3457
  810MOL0     H11717   2.252   6.250   5.499  1.6187  4.0398  0.9324
  810MOL0     H11718   2.239   6.277   5.675 -2.8434 -0.3161 -0.6656
  810MOL0     H11719   2.260   6.048   5.721  0.8686 -2.2707  0.0661
  810MOL0     H11720   2.290   6.011   5.549 -0.3883 -0.4509 -0.3187
  810MOL0     H11721   2.496   6.057   5.756  2.5634 -0.3420 -1.2476
  810MOL0     H11722   2.450   6.219   5.713 -0.4906  0.5686 -1.7702
  810MOL0     H11723   2.564   6.009   5.536  0.7202 -0.8767  0.6431
  810MOL0     H11724   2.490   6.157   5.463  0.6176  0.0057  0.1566
  810MOL0     H11725   2.743   6.156   5.528  0.8208  0.8454  0.0030
  810MOL0     H11726   2.687   6.182   5.692 -1.1888  1.2012  1.0492
  810MOL0     H11727   2.591   6.392   5.620 -0.6477 -0.3443 -0.7776
  810MOL0     H11728   2.765   6.381   5.594 -0.1109 -1.7576  2.9781
  810MOL0     H11729   2.845   6.398   5.325  0.3315 -1.7942 -2.8083
  810MOL0     H11730   2.681   6.378   5.006 -0.7488  1.2278 -0.7590
  810MOL0     H11731   2.831   6.405   5.077 -0.3928 -1.4320 -1.4324
  810MOL0     H11732   2.741   6.662   5.113  0.5656  1.5529 -1.9300
  810MOL0     H11733   2.812   6.604   4.966  0.4110 -2.2866  0.9766
  810MOL0     H11734   2.576   6.563   4.878  3.3967  0.3062 -1.1686
  810MOL0     H11735   2.500   6.607   5.032  0.1561 -0.9099 -0.1945
  810MOL0     H11736   2.516   6.751   4.826 -0.4158 -3.9304  0.0736
  810MOL0     H11737   2.528   6.832   4.986  3.0479  0.5404  0.7442
  810MOL0     H11738   2.520   7.012   4.823 -0.0405  0.5262  0.8088
  810MOL0     H11739   2.562   7.346   4.765 -2.7279 -0.2243  1.1912
  810MOL0     H11740   2.451   7.240   4.796  0.8457  1.3222  0.9270
  810MOL0     H11741   2.474   7.261   4.621  1.8783  2.6897 -1.2599
  810MOL0     H11742   2.929   7.596   4.686  0.0865  2.7902 -0.2740
  810MOL0     H11743   2.992   7.801   4.578  2.4461  0.9941 -1.5157
  810MOL0     H11744   3.022   7.956   4.411 -0.3905 -1.6610 -0.1659
  810MOL0     H11745   3.193   7.898   4.418  2.1239  1.2343 -2.5378
  810MOL0     H11746   3.196   7.922   4.175 -0.7209 -0.4654 -0.5997
  810MOL0     H11747   3.042   8.012   4.188 -1.0391  1.2954  1.6283
  810MOL0     H11748   3.264   8.150   4.169 -0.1548 -0.0001 -0.5736
  810MOL0     H11749   3.319   8.084   4.317  1.8331  1.2938 -1.8401
  810MOL0     H11750   3.128   8.168   4.448 -3.6604  2.4167 -0.7617
  810MOL0     H11751   3.065   8.252   4.314 -0.1706  0.4859  0.4243
  810MOL0     H11752   3.211   8.391   4.471  3.3023  3.5272  0.3811
  810MOL0     H11753   3.349   8.290   4.433 -1.0978 -0.6205 -0.1086
  810MOL0     H11754   3.184   8.448   4.231  0.7700 -0.2654 -0.1098
  810MOL0     H11755   3.331   8.353   4.193 -1.4007 -1.6973 -0.3582
  810MOL0     H11756   3.462   8.492   4.357  0.6182 -0.3385 -0.5716
  810MOL0     H11757   3.317   8.590   4.375 -0.9975 -3.3270  1.9651
  810MOL0     H11758   3.331   8.676   4.163 -0.4660  0.4367  2.2494
  810MOL0     H11759   3.465   8.554   4.121  0.3101 -0.2948  0.7368
  810MOL0     H11760   3.066   7.577   4.216  0.2005 -0.1039  0.2315
  810MOL0     H11761   3.040   7.363   4.341 -2.7747 -1.7517  0.3467
  810MOL0     H11762   2.968   7.080   4.653  0.6592  0.4191  1.4471
  810MOL0     H11763   2.915   6.894   4.788 -0.3590 -1.0008 -1.5930
  810MOL0     H11764   1.749   6.357   5.603 -3.0249  2.1862  0.0537
  810MOL0     H11765   1.615   6.447   5.794  0.5908  0.9850  1.5166
  810MOL0     H11766   1.694   6.752   6.206  2.1038 -0.7284  1.6202
  810MOL0     H11767   1.587   6.825   6.394  0.6047  0.7601 -2.2696
  810MOL0     H11768   1.520   6.850   6.602 -1.0568 -0.6082 -0.4957
  810MOL0     H11769   1.386   6.908   6.505 -1.3277  1.0214  1.2352
  810MOL0     H11770   1.237   6.841   6.719  0.3129  1.0501  1.5847
  810MOL0     H11771   1.366   6.961   6.750  0.5916  0.8197 -0.8157
  810MOL0     H11772   1.513   6.756   6.811  0.1601  0.6954 -1.1189
  810MOL0     H11773   1.370   6.815   6.902  1.1367  0.8068 -1.0147
  810MOL0     H11774   1.362   6.581   6.928 -0.1113  0.4264 -0.1945
  810MOL0     H11775   1.388   6.550   6.753 -1.0223 -0.4096 -0.3220
  810MOL0     H11776   0.970   6.578   6.786  0.1775  1.5015 -2.2897
  810MOL0     H11777   1.298   6.509   6.391  2.0132 -0.5160  2.1940
  810MOL0     H11778   1.370   6.374   6.069  4.3106 -0.2947 -1.0735
  810MOL0     H11779   1.473   6.296   6.176  0.1511 -0.0312  1.0643
  810MOL0     H11780   1.299   6.329   6.224 -0.8189 -1.5765 -2.3431
  811MOL0     O11781   7.906   7.717   6.572  0.1482  0.1810 -0.0790
  811MOL0     C11782   7.923   7.658   6.464 -0.2156 -0.5512 -0.5229
  811MOL0     O11783   7.993   7.706   6.353 -0.2562 -0.1010  0.1998
  811MOL0     C11784   8.071   7.816   6.361 -0.5438 -0.0593  0.7014
  811MOL0     C11785   8.209   7.803   6.388  0.1159  0.1598  0.1777
  811MOL0     C11786   8.300   7.914   6.377  0.4141  0.4686  0.2429
  811MOL0     C11787   8.253   8.043   6.363  0.0427  0.4929 -0.1299
  811MOL0     O11788   8.347   8.138   6.349  0.3977  0.2055  0.3889
  811MOL0     C11789   8.309   8.277   6.367  0.0113 -0.7430 -0.3600
  811MOL0     C11790   8.426   8.383   6.383  0.6010  0.1671 -0.1662
  811MOL0     C11791   8.407   8.524   6.324 -0.2689  0.4662  0.1553
  811MOL0     C11792   8.532   8.602   6.348  0.8819  0.2289  0.3254
  811MOL0     C11793   8.518   8.750   6.298  0.2682  0.5961 -0.4458
  811MOL0     C11794   8.655   8.814   6.284 -0.3511 -0.1762 -0.3805
  811MOL0     C11795   8.652   8.964   6.300  0.4952  0.1967  0.3288
  811MOL0     C11796   8.778   9.030   6.269 -0.7149  0.0845  0.2968
  811MOL0     N11797   8.778   9.080   6.127 -0.1031 -0.9410 -0.1642
  811MOL0     C11798   8.791   8.995   6.018  0.1843 -0.1238  0.0228
  811MOL0     C11799   8.782   9.084   5.918  0.0506 -0.7149 -0.2891
  811MOL0     C11800   8.790   9.058   5.771 -0.6828  0.4311 -0.3160
  811MOL0     C11801   8.932   9.086   5.728  0.1888 -0.4314 -0.5078
  811MOL0     C11802   8.933   9.057   5.577  0.1140  0.2768 -0.4079
  811MOL0     C11803   9.071   9.100   5.526 -0.5154  0.7968  0.1312
  811MOL0     O11804   9.178   9.022   5.597  0.1170 -0.7233 -0.0866
  811MOL0     C11805   9.308   9.069   5.588  0.9796 -0.3259  0.5395
  811MOL0     C11806   9.351   9.148   5.478  0.4426  0.1685 -0.1610
  811MOL0     C11807   9.478   9.186   5.462  0.1005 -0.7660 -0.9498
  811MOL0     C11808   9.529   9.240   5.335  0.7847 -0.2592  0.2494
  811MOL0     C11809   9.568   9.163   5.573 -0.7483  1.5168 -1.4309
  811MOL0     C11810   9.713   9.178   5.562 -0.7243 -0.5151 -0.3381
  811MOL0     O11811   9.793   9.073   5.583 -0.6845  0.8513  0.6728
  811MOL0     C11812   9.925   9.085   5.562  0.5598 -0.0049  0.1082
  811MOL0     C11813  10.024   9.071   5.665  0.6790  0.2316  0.3147
  811MOL0     C11814  10.161   9.068   5.631  0.9356 -1.0937 -0.0628
  811MOL0     C11815  10.200   9.106   5.500 -0.4052 -0.0805  0.4208
  811MOL0     O11816  10.334   9.126   5.480  0.9994 -0.0146  0.0078
  811MOL0     C11817  10.373   9.203   5.366  0.3194  0.2199  0.1352
  811MOL0     C11818  10.324   9.351   5.389 -0.8804 -1.0572  0.6343
  811MOL0     C11819  10.384   9.410   5.513 -0.1244 -0.3520 -1.0760
  811MOL0     C11820  10.524   9.471   5.486 -1.0581  0.1344  0.0484
  811MOL0     C11821  10.584   9.542   5.610  0.3525 -0.0513 -0.1253
  811MOL0     C11822  10.736   9.524   5.604  0.8029 -0.1308  1.1668
  811MOL0     C11823  10.799   9.617   5.709 -0.5246 -0.6044 -0.3040
  811MOL0     C11824  10.950   9.649   5.675 -1.0489 -1.4113  0.6522
  811MOL0    Cl11825  11.005   9.781   5.784 -0.1219 -0.5023  0.0677
  811MOL0     C11826  10.108   9.107   5.400 -0.5842 -0.0651 -0.8628
  811MOL0     C11827   9.967   9.103   5.428 -1.0856 -0.7829 -0.2103
  811MOL0     O11828   9.753   9.290   5.518  0.9000  0.0762 -1.0461
  811MOL0     C11829   9.524   9.089   5.683  0.8788 -0.3837 -0.2849
  811MOL0     C11830   9.391   9.034   5.691  0.5180  0.4929 -0.7260
  811MOL0     N11831   8.772   9.215   5.963  0.9757 -0.1781 -0.0815
  811MOL0     N11832   8.766   9.214   6.091  0.3342 -0.3151  0.6791
  811MOL0     C11833   8.112   8.057   6.347  0.1891  0.7710 -0.0160
  811MOL0     C11834   8.025   7.947   6.340 -0.7358  0.5430  0.5328
  811MOL0     C11835   7.858   7.528   6.451 -1.1947 -0.3018  0.1324
  811MOL0     C11836   7.818   7.472   6.579  0.0700  0.4209  0.7011
  811MOL0     C11837   7.745   7.356   6.587  0.2249  0.0942 -0.3150
  811MOL0     C11838   7.714   7.289   6.462 -0.4611 -0.6114 -0.4064
  811MOL0     O11839   7.632   7.183   6.474  0.1527  0.2052 -0.1874
  811MOL0     C11840   7.586   7.115   6.356  0.1522  0.2256 -0.2430
  811MOL0     C11841   7.494   7.002   6.392  0.1073  0.2865  0.1966
  811MOL0     C11842   7.371   7.046   6.477 -0.3401  0.3012 -0.1311
  811MOL0     C11843   7.306   6.913   6.527 -0.2359 -0.2823  0.0018
  811MOL0     C11844   7.213   6.862   6.420  0.0592  0.3238 -0.1943
  811MOL0     C11845   7.142   6.816   6.327 -0.3785  0.3777 -0.6163
  811MOL0     C11846   7.753   7.339   6.331  0.8979  0.2540 -0.5075
  811MOL0     C11847   7.827   7.462   6.329 -0.1472  0.3814  0.2675
  811MOL0     C11848   7.872   7.504   6.196 -0.0834 -0.1079 -0.0667
  811MOL0     H11849   8.244   7.704   6.415  1.2739  0.0811 -1.4385
  811MOL0     H11850   8.406   7.899   6.393 -0.2027 -3.5286  1.8463
  811MOL0     H11851   8.247   8.269   6.458  0.5378  2.0069  0.3317
  811MOL0     H11852   8.238   8.312   6.292  1.6147 -0.6717 -1.8956
  811MOL0     H11853   8.439   8.399   6.491  0.4514  0.8617 -0.2510
  811MOL0     H11854   8.518   8.339   6.343  0.4888 -0.1963 -0.0284
  811MOL0     H11855   8.373   8.515   6.220 -4.1995 -1.4998  1.4289
  811MOL0     H11856   8.324   8.563   6.384 -0.5541 -0.1395  0.1632
  811MOL0     H11857   8.579   8.586   6.445  4.2442  0.2050 -1.1984
  811MOL0     H11858   8.606   8.553   6.284  1.5563 -1.4517  2.3153
  811MOL0     H11859   8.454   8.815   6.359 -0.1324  1.8232 -2.0968
  811MOL0     H11860   8.471   8.760   6.200 -1.8247 -0.7945  0.3490
  811MOL0     H11861   8.711   8.766   6.365 -0.9013 -0.7985 -0.3557
  811MOL0     H11862   8.692   8.778   6.187  0.7449 -1.4816  0.4779
  811MOL0     H11863   8.623   8.989   6.403 -0.7444  0.4339 -0.0610
  811MOL0     H11864   8.584   9.008   6.227  1.7821  1.3607 -0.2086
  811MOL0     H11865   8.803   9.111   6.338  0.3390  0.1879 -0.1933
  811MOL0     H11866   8.867   8.966   6.281 -0.6176  0.5456  2.4331
  811MOL0     H11867   8.792   8.887   6.008 -2.6763 -0.3022  0.7597
  811MOL0     H11868   8.710   9.117   5.725  0.4714  0.4188 -2.4974
  811MOL0     H11869   8.762   8.955   5.749  1.0887 -0.3758  0.9761
  811MOL0     H11870   8.957   9.189   5.757  0.4419 -0.8144  0.7047
  811MOL0     H11871   9.003   9.022   5.782  1.9063  0.0680 -2.0674
  811MOL0     H11872   8.918   8.951   5.553  0.7808  0.3595 -1.2654
  811MOL0     H11873   8.857   9.110   5.519  0.2624  2.5075  1.3218
  811MOL0     H11874   9.086   9.080   5.420 -2.1066  0.1267  0.0046
  811MOL0     H11875   9.081   9.205   5.553  1.8362 -0.1915  4.0045
  811MOL0     H11876   9.282   9.185   5.402  0.2266  0.7310  0.3037
  811MOL0     H11877   9.568   9.342   5.338  2.6553 -0.8951 -1.1850
  811MOL0     H11878   9.447   9.250   5.263 -1.9209  2.2430  3.3317
  811MOL0     H11879   9.616   9.190   5.294  0.9943  2.1179 -2.5388
  811MOL0     H11880   9.992   9.040   5.764 -0.6444  0.1090 -0.1404
  811MOL0     H11881  10.226   9.070   5.718 -1.8186  0.2730  2.1323
  811MOL0     H11882  10.480   9.181   5.357  0.4888  0.7246  0.7963
  811MOL0     H11883  10.322   9.166   5.276 -0.3686  0.2519  0.5091
  811MOL0     H11884  10.349   9.412   5.301  1.0791 -1.8448  0.6013
  811MOL0     H11885  10.215   9.350   5.400 -1.3227  2.2927 -1.5929
  811MOL0     H11886  10.404   9.331   5.586  3.2029 -1.5481 -3.0246
  811MOL0     H11887  10.321   9.489   5.554 -0.9690 -1.6843  0.2788
  811MOL0     H11888  10.513   9.548   5.409 -3.4159 -1.1206 -0.9521
  811MOL0     H11889  10.585   9.390   5.443 -1.2608  0.9840 -1.9200
  811MOL0     H11890  10.551   9.646   5.616  0.5738 -0.0758  2.6739
  811MOL0     H11891  10.546   9.503   5.704 -2.6539 -1.0128 -1.6165
  811MOL0     H11892  10.771   9.543   5.502  2.1544  1.0491  1.8233
  811MOL0     H11893  10.736   9.417   5.625  0.5327 -0.1528  1.0735
  811MOL0     H11894  10.793   9.572   5.808  0.6500 -2.0543 -0.8584
  811MOL0     H11895  10.746   9.712   5.713 -1.7093 -1.1824 -1.5344
  811MOL0     H11896  10.959   9.678   5.570 -1.0769  1.7554  1.4064
  811MOL0     H11897  11.009   9.558   5.689 -0.4949 -1.3981 -1.2773
  811MOL0     H11898  10.125   9.113   5.293 -0.3413 -3.0911 -1.0783
  811MOL0     H11899   9.896   9.104   5.346  2.5720  0.3780 -3.6697
  811MOL0     H11900   9.594   9.072   5.764  1.3379  0.2790 -0.5369
  811MOL0     H11901   9.344   8.983   5.774 -0.9961  2.6997 -0.1609
  811MOL0     H11902   8.067   8.151   6.316 -0.3135  0.9564  1.2392
  811MOL0     H11903   7.924   7.963   6.303  0.2037  2.7082 -1.3489
  811MOL0     H11904   7.842   7.520   6.674 -2.2809 -1.0840  2.1600
  811MOL0     H11905   7.734   7.316   6.687  2.7587  0.9640  0.3909
  811MOL0     H11906   7.544   7.182   6.281 -0.1477 -1.4041 -1.5988
  811MOL0     H11907   7.673   7.077   6.302 -0.9203 -3.3375  0.2393
  811MOL0     H11908   7.548   6.920   6.441 -1.3844  0.7796  2.8439
  811MOL0     H11909   7.462   6.955   6.298  1.3802  0.3099 -0.2661
  811MOL0     H11910   7.405   7.110   6.559  2.7396  0.3178 -1.2940
  811MOL0     H11911   7.298   7.096   6.412 -0.6273 -1.3844 -1.1769
  811MOL0     H11912   7.244   6.929   6.616  0.5824 -4.2420  1.5012
  811MOL0     H11913   7.380   6.836   6.553  1.0912 -0.6539 -4.1614
  811MOL0     H11914   7.086   6.773   6.247 -1.4928 -3.8377  2.1147
  811MOL0     H11915   7.735   7.282   6.240 -0.9071  1.8768 -1.2573
  811MOL0     H11916   7.822   7.453   6.113  2.1347 -0.4798 -1.2567
  811MOL0     H11917   7.853   7.611   6.192  1.3536  0.2403  1.2967
  811MOL0     H11918   7.977   7.483   6.176 -0.6009 -4.2426  0.6427
  812MOL0     O11919   3.762   1.396  11.303 -0.0150 -0.5018 -0.4182
  812MOL0     C11920   3.855   1.455  11.360 -0.1174 -0.1455 -0.1137
  812MOL0     O11921   3.994   1.421  11.354 -0.8965 -0.1363 -0.4162
  812MOL0     C11922   4.031   1.295  11.323  0.5557 -0.1052 -0.7518
  812MOL0     C11923   4.028   1.191  11.422  0.4982 -0.4191  0.5925
  812MOL0     C11924   4.065   1.060  11.383 -0.6932  0.0435 -0.0892
  812MOL0     C11925   4.091   1.020  11.249 -0.1366 -0.5221 -0.1589
  812MOL0     O11926   4.121   0.884  11.232  0.4037 -0.9572 -0.3779
  812MOL0     C11927   4.197   0.857  11.115  0.3310  0.8514  0.1153
  812MOL0     C11928   4.353   0.872  11.122  0.3228 -0.6109  0.3331
  812MOL0     C11929   4.418   0.785  11.223 -0.0234 -0.5405  0.8794
  812MOL0     C11930   4.566   0.824  11.226  0.2348 -0.2219  0.0594
  812MOL0     C11931   4.640   0.763  11.350 -0.9388  0.1761  0.3392
  812MOL0     C11932   4.780   0.823  11.369  0.3650  0.8535  0.5180
  812MOL0     C11933   4.847   0.772  11.499 -0.1384 -0.6335 -0.0557
  812MOL0     C11934   4.991   0.841  11.519  1.0937  0.9205 -0.5072
  812MOL0     N11935   5.077   0.778  11.417 -0.5679  0.6660  0.1649
  812MOL0     C11936   5.122   0.651  11.399  0.1523  0.1157  0.0711
  812MOL0     C11937   5.211   0.663  11.292  0.8419 -0.3368  0.9685
  812MOL0     C11938   5.306   0.543  11.260  0.2871  0.1678  0.1945
  812MOL0     C11939   5.374   0.572  11.122 -1.3161  0.0965 -0.3432
  812MOL0     C11940   5.518   0.603  11.146  0.0997  0.2260  0.3910
  812MOL0     C11941   5.607   0.481  11.135  0.1357  0.7135  0.3270
  812MOL0     O11942   5.609   0.410  11.002  1.3726  0.4750  0.1220
  812MOL0     C11943   5.661   0.477  10.895 -0.2328 -1.2474  0.2196
  812MOL0     C11944   5.779   0.553  10.894  0.2233  1.1546 -0.0258
  812MOL0     C11945   5.815   0.619  10.777  0.5015 -0.3749 -0.3335
  812MOL0     C11946   5.929   0.712  10.803  0.3950  1.1427 -0.3172
  812MOL0     C11947   5.744   0.604  10.653  0.1319 -0.0563 -1.0138
  812MOL0     C11948   5.770   0.683  10.524  0.0230  0.5463  0.0487
  812MOL0     O11949   5.701   0.642  10.411 -0.0230 -0.4219  0.3045
  812MOL0     C11950   5.742   0.676  10.281 -0.3689 -0.3676 -0.2890
  812MOL0     C11951   5.879   0.698  10.249 -0.0601  0.8050 -0.4352
  812MOL0     C11952   5.909   0.737  10.120  0.3019 -0.1307  0.9486
  812MOL0     C11953   5.817   0.748  10.017  0.1853  0.2181  0.5775
  812MOL0     O11954   5.836   0.776   9.883 -0.2358 -0.4502  1.0738
  812MOL0     C11955   5.934   0.875   9.830  0.7872  0.0543 -0.5829
  812MOL0     C11956   5.874   1.013   9.866 -0.5445 -0.4552 -0.0830
  812MOL0     C11957   5.939   1.116   9.778  0.2451 -0.2935 -0.3948
  812MOL0     C11958   5.876   1.251   9.813 -0.0141  0.5676 -0.5602
  812MOL0     C11959   5.943   1.363   9.731  0.5043  0.5707  0.9234
  812MOL0     C11960   5.873   1.493   9.753 -0.5266 -0.0201  0.2467
  812MOL0     C11961   5.940   1.593   9.667 -0.4042  0.1407 -0.1868
  812MOL0     C11962   5.869   1.731   9.659 -0.5438  0.0116 -0.0725
  812MOL0    Cl11963   5.969   1.822   9.545  0.1984 -0.5209  0.6064
  812MOL0     C11964   5.679   0.722  10.050 -0.0746  0.0225 -0.2488
  812MOL0     C11965   5.648   0.688  10.184 -0.5473  1.1047  0.2577
  812MOL0     O11966   5.819   0.792  10.540 -0.6994  0.1235  0.3869
  812MOL0     C11967   5.628   0.520  10.660 -0.2584 -0.0583  0.2117
  812MOL0     C11968   5.589   0.466  10.780  0.1116  0.3765  0.3813
  812MOL0     N11969   5.230   0.793  11.252  0.0610  0.5848 -0.5686
  812MOL0     N11970   5.147   0.859  11.329 -0.3320  1.1501  0.7366
  812MOL0     C11971   4.102   1.130  11.160 -1.2472 -0.1140 -0.2475
  812MOL0     C11972   4.073   1.262  11.195  0.6077 -1.0395 -0.5323
  812MOL0     C11973   3.837   1.594  11.426  0.4617  1.8267  1.1385
  812MOL0     C11974   3.935   1.686  11.405 -0.0688 -0.2298 -0.2357
  812MOL0     C11975   3.937   1.811  11.466  0.4139  0.2550 -0.6446
  812MOL0     C11976   3.829   1.830  11.554  0.2325 -0.6509 -0.0049
  812MOL0     O11977   3.812   1.937  11.633 -1.0293 -0.5366 -0.2191
  812MOL0     C11978   3.923   2.036  11.642 -0.2542 -0.0369 -0.6738
  812MOL0     C11979   3.920   2.126  11.768 -0.4662  0.0876 -0.2978
  812MOL0     C11980   4.052   2.203  11.800 -0.0100  0.2334  0.2079
  812MOL0     C11981   4.025   2.284  11.924 -0.4210  0.7098  0.5436
  812MOL0     C11982   4.133   2.377  11.954  0.6842  1.5679  0.5002
  812MOL0     C11983   4.223   2.454  11.958 -0.2659  0.0384  0.2222
  812MOL0     C11984   3.721   1.747  11.559  0.5057  0.0445  0.1254
  812MOL0     C11985   3.722   1.627  11.491  0.0782 -0.0252 -0.2448
  812MOL0     C11986   3.589   1.549  11.478 -0.9473 -0.2400 -0.9183
  812MOL0     H11987   3.980   1.217  11.515 -3.5439  1.2400 -1.7016
  812MOL0     H11988   4.074   0.984  11.460 -5.6768  1.8784  2.8261
  812MOL0     H11989   4.158   0.913  11.029  0.6247  1.9444  0.6688
  812MOL0     H11990   4.168   0.754  11.097 -2.7416  1.8439 -1.2326
  812MOL0     H11991   4.396   0.852  11.024 -0.0256  0.7783 -0.1273
  812MOL0     H11992   4.374   0.977  11.144 -2.2894  0.6629 -2.5070
  812MOL0     H11993   4.370   0.805  11.319 -0.2950  0.8766  0.4795
  812MOL0     H11994   4.405   0.686  11.179 -1.1283 -0.0962  0.1526
  812MOL0     H11995   4.615   0.791  11.134 -1.1450  0.4241 -0.9451
  812MOL0     H11996   4.566   0.933  11.223  0.9644 -0.2175 -2.5508
  812MOL0     H11997   4.652   0.655  11.340 -2.3634 -0.0123  0.4212
  812MOL0     H11998   4.582   0.787  11.439  0.0884  1.2851  0.7410
  812MOL0     H11999   4.834   0.788  11.280 -1.0611  0.8871 -0.3822
  812MOL0     H12000   4.776   0.933  11.369  0.1143  0.8587  1.9359
  812MOL0     H12001   4.875   0.667  11.511 -0.1012 -0.9440 -2.3046
  812MOL0     H12002   4.777   0.801  11.578 -0.6019  0.4733 -0.8402
  812MOL0     H12003   4.989   0.950  11.504  0.6877  0.8435 -1.0295
  812MOL0     H12004   5.034   0.820  11.617  0.7895 -1.2546 -0.8031
  812MOL0     H12005   5.089   0.562  11.452 -2.5290 -0.0998 -1.7798
  812MOL0     H12006   5.242   0.458  11.238  1.0295 -0.1839 -0.6719
  812MOL0     H12007   5.374   0.531  11.345 -1.2925  0.2845  1.5298
  812MOL0     H12008   5.354   0.486  11.057 -1.3329  1.4974 -2.2698
  812MOL0     H12009   5.328   0.658  11.073 -0.6121  0.4354 -0.4180
  812MOL0     H12010   5.556   0.664  11.063  0.5381 -2.5014 -1.5636
  812MOL0     H12011   5.534   0.660  11.238 -0.4417  2.0135 -0.5751
  812MOL0     H12012   5.711   0.502  11.160  0.9074 -1.8917 -0.3132
  812MOL0     H12013   5.576   0.412  11.214 -0.3251  0.6780  0.1204
  812MOL0     H12014   5.838   0.556  10.985 -0.8283  1.6898  0.6653
  812MOL0     H12015   5.896   0.813  10.827  1.0301  0.7716  2.5169
  812MOL0     H12016   5.993   0.711  10.715  0.4847 -1.3290 -0.2950
  812MOL0     H12017   5.992   0.674  10.885 -1.4698 -4.4283 -1.0287
  812MOL0     H12018   5.950   0.681  10.329  2.1103  0.6949 -2.2864
  812MOL0     H12019   6.010   0.768  10.095  0.0187  0.2133  0.2100
  812MOL0     H12020   6.032   0.869   9.878  0.6251  1.4910  0.0047
  812MOL0     H12021   5.945   0.866   9.722 -1.6391  0.0438 -0.8927
  812MOL0     H12022   5.768   1.008   9.841 -0.1917 -3.6345 -1.3871
  812MOL0     H12023   5.897   1.044   9.968 -0.6647  0.5834 -0.3608
  812MOL0     H12024   5.921   1.094   9.672  1.5206  0.9042 -0.8994
  812MOL0     H12025   6.046   1.118   9.802 -0.3438 -1.4458  2.6524
  812MOL0     H12026   5.878   1.275   9.920 -0.6934  0.9515 -0.6201
  812MOL0     H12027   5.770   1.249   9.784  0.3073 -1.5385 -1.8082
  812MOL0     H12028   6.045   1.379   9.766  0.3431  1.4352  1.0106
  812MOL0     H12029   5.940   1.327   9.628  0.0011 -2.3368  1.8465
  812MOL0     H12030   5.880   1.534   9.855 -3.0227  0.8652  0.1268
  812MOL0     H12031   5.770   1.482   9.720 -0.0613  1.3158 -1.8143
  812MOL0     H12032   5.951   1.556   9.564  0.0294  1.9861 -0.8321
  812MOL0     H12033   6.039   1.602   9.712 -1.4161 -0.9023  2.4131
  812MOL0     H12034   5.867   1.773   9.759  1.4259  0.4221 -0.1707
  812MOL0     H12035   5.765   1.723   9.627 -0.4095  0.3438 -0.6054
  812MOL0     H12036   5.590   0.732   9.988  0.0394  0.1260 -0.3967
  812MOL0     H12037   5.543   0.682  10.210  0.0210 -2.1686  2.4280
  812MOL0     H12038   5.562   0.516  10.574  0.4884  2.0484 -0.5188
  812MOL0     H12039   5.495   0.414  10.795 -0.1235  0.7971  0.3757
  812MOL0     H12040   4.144   1.130  11.060 -1.8284 -0.5079 -0.4895
  812MOL0     H12041   4.080   1.334  11.114  0.9064 -2.7405 -2.0782
  812MOL0     H12042   4.025   1.670  11.347 -0.9204 -3.8368 -0.7936
  812MOL0     H12043   4.018   1.881  11.449 -0.3794  1.7822  1.3439
  812MOL0     H12044   4.016   1.979  11.637 -1.0347 -1.3256 -0.9746
  812MOL0     H12045   3.931   2.101  11.554 -0.2825  1.0940  0.1262
  812MOL0     H12046   3.888   2.063  11.852  0.2328  2.1703  1.6145
  812MOL0     H12047   3.837   2.196  11.781 -2.3262 -2.1670  0.7916
  812MOL0     H12048   4.130   2.127  11.813  1.2211  0.8599 -2.6468
  812MOL0     H12049   4.075   2.267  11.714  3.3558  0.2001  0.9510
  812MOL0     H12050   4.015   2.208  12.002  1.4655 -1.9866 -1.6531
  812MOL0     H12051   3.930   2.338  11.917 -0.6620  0.3281  0.8084
  812MOL0     H12052   4.304   2.524  11.963  2.0438 -2.4314 -0.7322
  812MOL0     H12053   3.632   1.770  11.617  1.4969  3.4514  0.4881
  812MOL0     H12054   3.606   1.450  11.522  2.6908  0.2310 -1.0239
  812MOL0     H12055   3.506   1.600  11.528 -1.6827 -0.8031 -1.5329
  812MOL0     H12056   3.563   1.523  11.375  1.0479 -2.0561 -1.0345
  813MOL0     O12057   1.425  11.119   0.068 -0.0016  0.2610  0.8112
  813MOL0     C12058   1.377  11.047   0.154  1.2531  0.7492 -0.1612
  813MOL0     O12059   1.402  11.054   0.291  0.1356  0.0358 -0.1856
  813MOL0     C12060   1.496  11.143   0.336 -0.1205  0.5451 -0.7985
  813MOL0     C12061   1.476  11.272   0.345 -1.0811 -0.4880 -0.6029
  813MOL0     C12062   1.582  11.357   0.403 -0.0446  0.8373 -0.1341
  813MOL0     C12063   1.701  11.298   0.453 -0.0217 -0.4549 -0.3781
  813MOL0     O12064   1.801  11.364   0.524  0.4635 -0.4075 -0.4542
  813MOL0     C12065   1.909  11.428   0.447 -0.1849 -0.4374  0.6279
  813MOL0     C12066   1.987  11.533   0.514  0.1013 -0.2707 -0.5191
  813MOL0     C12067   2.073  11.493   0.642  0.3650 -0.1949  0.2684
  813MOL0     C12068   2.200  11.423   0.613  0.0725 -0.2207 -0.7247
  813MOL0     C12069   2.304  11.445   0.721  0.3135 -0.6908  0.8488
  813MOL0     C12070   2.445  11.388   0.698  0.3181  0.3910 -0.5343
  813MOL0     C12071   2.535  11.411   0.815  0.4181 -0.3386 -0.1666
  813MOL0     C12072   2.686  11.403   0.776 -0.1922 -0.3126  0.4139
  813MOL0     N12073   2.775  11.481   0.864 -0.2979  0.5870 -0.1111
  813MOL0     C12074   2.759  11.503   1.001 -0.1415 -0.0324 -0.0676
  813MOL0     C12075   2.866  11.579   1.034 -0.1717  0.3821  0.6716
  813MOL0     C12076   2.870  11.664   1.158 -0.5774  0.5065 -0.8859
  813MOL0     C12077   2.987  11.633   1.251  0.0940 -0.1364 -0.0171
  813MOL0     C12078   2.979  11.490   1.302 -0.6074 -0.1348 -0.2168
  813MOL0     C12079   3.098  11.475   1.403  0.1407 -0.7390 -0.5257
  813MOL0     O12080   3.221  11.430   1.345 -0.1711  0.3674 -0.0150
  813MOL0     C12081   3.325  11.403   1.429 -0.4848  0.6782 -0.6499
  813MOL0     C12082   3.331  11.346   1.558 -0.3834 -0.6405 -0.2281
  813MOL0     C12083   3.446  11.325   1.629  0.0811 -1.3234  0.5654
  813MOL0     C12084   3.433  11.265   1.766  0.7563 -0.7679  1.0257
  813MOL0     C12085   3.566  11.335   1.560 -0.4045 -0.2039  0.2432
  813MOL0     C12086   3.697  11.296   1.617 -0.6194 -0.5015 -0.1209
  813MOL0     O12087   3.795  11.247   1.528  0.5708  0.6763  0.0339
  813MOL0     C12088   3.910  11.200   1.570 -0.3716  0.3322  0.5261
  813MOL0     C12089   3.926  11.112   1.676  0.2461 -0.0976 -0.1943
  813MOL0     C12090   4.055  11.073   1.708 -0.3620  0.1771  1.4106
  813MOL0     C12091   4.170  11.106   1.641  0.5631 -0.0373 -0.4281
  813MOL0     O12092   4.285  11.059   1.694  0.5538  0.0483 -0.7884
  813MOL0     C12093   4.414  11.125   1.660  1.0701 -0.2426 -0.7839
  813MOL0     C12094   4.528  11.055   1.738  0.4727 -1.1670  0.1817
  813MOL0     C12095   4.640  11.163   1.773 -0.3080  0.3072 -0.7106
  813MOL0     C12096   4.670  11.275   1.664  0.8562 -0.3650  0.0641
  813MOL0     C12097   4.777  11.365   1.713 -1.1379  0.2635 -1.1258
  813MOL0     C12098   4.915  11.305   1.717 -0.2336 -0.8070  0.0902
  813MOL0     C12099   5.009  11.398   1.789 -0.6109 -0.9004 -0.5591
  813MOL0     C12100   5.146  11.333   1.793 -0.4677 -0.5520 -0.2556
  813MOL0    Cl12101   5.174  11.227   1.931  0.1503 -0.1807  0.0704
  813MOL0     C12102   4.162  11.184   1.531  0.6090  0.0535  0.6340
  813MOL0     C12103   4.030  11.234   1.497 -0.1778  0.5586  0.2680
  813MOL0     O12104   3.721  11.321   1.739  0.3915  0.3086 -0.3231
  813MOL0     C12105   3.571  11.379   1.425  0.8761 -0.1132 -0.3136
  813MOL0     C12106   3.450  11.415   1.365  0.9286 -0.7276 -0.1000
  813MOL0     N12107   2.948  11.591   0.917 -0.2466 -0.4133 -0.4727
  813MOL0     N12108   2.894  11.533   0.816  0.4559  0.1914  0.3840
  813MOL0     C12109   1.715  11.161   0.446 -1.4336 -0.4720  0.4262
  813MOL0     C12110   1.615  11.083   0.380  0.0460  1.3110  0.6551
  813MOL0     C12111   1.258  10.961   0.120 -0.2604 -0.1646 -0.7391
  813MOL0     C12112   1.165  10.931   0.225  0.9303 -0.8309  1.1091
  813MOL0     C12113   1.050  10.851   0.207 -0.0097 -0.1690 -0.3610
  813MOL0     C12114   1.033  10.787   0.083  1.0490 -0.2714 -0.3513
  813MOL0     O12115   0.919  10.719   0.049  0.0825  0.5841  0.0820
  813MOL0     C12116   0.947  10.576   0.039 -0.1247 -0.4433 -0.5838
  813MOL0     C12117   0.825  10.501   0.104 -0.2236  0.1834 -0.5227
  813MOL0     C12118   0.871  10.360   0.155  0.2945 -0.1940 -0.4713
  813MOL0     C12119   0.941  10.263   0.049  0.2080  1.0323  0.0299
  813MOL0     C12120   0.869  10.131   0.048 -0.7043  0.6428 -0.4401
  813MOL0     C12121   0.824  10.017   0.061  0.5754 -1.0620  0.0632
  813MOL0     C12122   1.115  10.820  -0.025 -0.7139  0.0440 -0.7008
  813MOL0     C12123   1.229  10.903  -0.016  0.0132  0.1209  0.3657
  813MOL0     C12124   1.318  10.924  -0.137  0.3385 -0.1755 -0.4446
  813MOL0     H12125   1.384  11.320   0.312 -1.4472  0.2559  1.3314
  813MOL0     H12126   1.570  11.463   0.423  2.5961  0.7256  2.7487
  813MOL0     H12127   1.863  11.473   0.359 -0.3298 -4.2102 -1.4638
  813MOL0     H12128   1.986  11.358   0.411  1.9149  1.7251  0.6250
  813MOL0     H12129   2.054  11.574   0.439 -0.4760  2.7492  0.5062
  813MOL0     H12130   1.907  11.603   0.537 -1.1733 -1.8634  0.1645
  813MOL0     H12131   2.094  11.585   0.697  1.4556 -0.0040 -0.4452
  813MOL0     H12132   2.007  11.430   0.702  0.6435  1.4914  2.4610
  813MOL0     H12133   2.169  11.319   0.616 -1.0391  0.0793 -1.1735
  813MOL0     H12134   2.237  11.446   0.513 -0.1715 -1.6049 -1.1539
  813MOL0     H12135   2.270  11.396   0.813  0.2031  0.6406  1.5442
  813MOL0     H12136   2.308  11.554   0.736 -0.3606  0.0669 -3.1987
  813MOL0     H12137   2.425  11.283   0.677 -1.2385  0.5759 -0.0964
  813MOL0     H12138   2.496  11.435   0.613 -1.7055  3.2245 -0.3332
  813MOL0     H12139   2.508  11.334   0.887 -0.9079 -0.7119 -1.0157
  813MOL0     H12140   2.516  11.512   0.851 -0.1073 -0.3562 -0.3722
  813MOL0     H12141   2.716  11.298   0.778 -2.1356 -0.9847 -1.7552
  813MOL0     H12142   2.697  11.450   0.678 -0.7614 -1.1895 -0.0829
  813MOL0     H12143   2.675  11.486   1.067  0.6737  2.0945  1.6230
  813MOL0     H12144   2.781  11.657   1.221  0.4225  1.0724  0.6436
  813MOL0     H12145   2.875  11.772   1.141 -0.3451  0.2593 -2.5788
  813MOL0     H12146   3.084  11.645   1.201  1.2997 -1.5739  1.8244
  813MOL0     H12147   2.986  11.697   1.340 -1.6747 -1.3856  0.9160
  813MOL0     H12148   2.880  11.482   1.349 -1.3934  2.2704 -1.2827
  813MOL0     H12149   2.984  11.420   1.219 -2.5793  1.2986 -1.6432
  813MOL0     H12150   3.108  11.575   1.446  0.4554  0.1816 -2.6471
  813MOL0     H12151   3.067  11.402   1.479 -0.1667 -1.7134 -1.5569
  813MOL0     H12152   3.238  11.332   1.613 -0.1561  1.6920  0.8771
  813MOL0     H12153   3.416  11.340   1.843 -2.1067  0.7789 -0.9082
  813MOL0     H12154   3.517  11.198   1.787  0.4465 -1.7941 -0.7489
  813MOL0     H12155   3.347  11.197   1.766  0.9527 -1.0485 -0.1098
  813MOL0     H12156   3.846  11.086   1.745 -1.8219 -0.5002 -2.6029
  813MOL0     H12157   4.060  10.997   1.785  2.2925 -1.4391 -0.2421
  813MOL0     H12158   4.430  11.123   1.551 -3.1622 -0.8888 -1.5697
  813MOL0     H12159   4.401  11.230   1.688  0.7263 -0.0225 -1.7214
  813MOL0     H12160   4.489  11.014   1.832  1.6934 -0.1363  1.1733
  813MOL0     H12161   4.561  10.981   1.664 -0.1802 -0.4344 -0.8765
  813MOL0     H12162   4.735  11.111   1.786 -0.2124  0.4264 -0.9174
  813MOL0     H12163   4.622  11.219   1.866 -1.9721  0.0944 -0.8845
  813MOL0     H12164   4.578  11.329   1.640 -0.1784 -1.7329  0.7921
  813MOL0     H12165   4.709  11.224   1.575 -1.2450  1.8772 -2.3301
  813MOL0     H12166   4.780  11.441   1.635  0.3450 -0.7300 -2.0717
  813MOL0     H12167   4.753  11.400   1.814  0.3316 -4.2674  1.0342
  813MOL0     H12168   4.949  11.290   1.615 -0.5502  1.8470 -0.4840
  813MOL0     H12169   4.907  11.209   1.769  1.4415 -0.2545  1.4633
  813MOL0     H12170   4.977  11.424   1.890 -1.6576  0.4303 -1.2034
  813MOL0     H12171   5.015  11.495   1.739 -1.1109  0.3257  1.6437
  813MOL0     H12172   5.220  11.414   1.788  1.1113 -1.9587 -0.7075
  813MOL0     H12173   5.157  11.291   1.692  1.8347  0.9419 -0.6986
  813MOL0     H12174   4.243  11.220   1.468  0.5469 -0.6672  0.1286
  813MOL0     H12175   4.016  11.301   1.413  2.2958  1.3885  0.4152
  813MOL0     H12176   3.653  11.371   1.354  1.0616  3.9413 -0.7848
  813MOL0     H12177   3.456  11.439   1.260  1.8750 -1.5134 -0.2437
  813MOL0     H12178   1.811  11.128   0.485 -2.0072  1.2376  3.6422
  813MOL0     H12179   1.634  10.976   0.391  1.3100  1.5625  1.1213
  813MOL0     H12180   1.181  10.965   0.327 -1.0110  0.7818  0.9432
  813MOL0     H12181   0.977  10.834   0.284 -1.6377  1.4569 -1.4670
  813MOL0     H12182   0.951  10.542  -0.064  1.9221 -0.6312 -0.4691
  813MOL0     H12183   1.042  10.554   0.089 -0.0859 -1.3999 -1.0614
  813MOL0     H12184   0.750  10.488   0.026  0.7531  2.1838 -1.8908
  813MOL0     H12185   0.780  10.562   0.183  0.8696 -1.7806  1.7465
  813MOL0     H12186   0.943  10.371   0.237 -1.9301  0.4564  1.4766
  813MOL0     H12187   0.784  10.310   0.197  0.9958 -1.4298 -0.4440
  813MOL0     H12188   1.046  10.239   0.070 -0.5471 -1.4351  1.4427
  813MOL0     H12189   0.939  10.306  -0.052  0.1428  0.4489 -0.2243
  813MOL0     H12190   0.788   9.917   0.075 -1.6981 -0.6847 -2.3691
  813MOL0     H12191   1.095  10.763  -0.115 -0.8779 -1.3013  0.1668
  813MOL0     H12192   1.281  10.873  -0.227  1.2202 -0.8892 -0.4144
  813MOL0     H12193   1.325  11.033  -0.147  0.6964  0.0465  1.7088
  813MOL0     H12194   1.420  10.884  -0.129  1.0425  0.0485 -5.1337
  814MOL0     O12195   0.822   2.692   5.076  0.0711 -0.3470 -0.3584
  814MOL0     C12196   0.704   2.681   5.066 -0.9307 -1.2711 -0.1470
  814MOL0     O12197   0.614   2.768   5.111 -0.0860 -0.0644 -0.3447
  814MOL0     C12198   0.663   2.893   5.143 -0.0373 -0.5000  0.3596
  814MOL0     C12199   0.634   2.996   5.055 -0.2715  0.1758  0.6754
  814MOL0     C12200   0.690   3.114   5.094  0.1145  0.0979 -0.2011
  814MOL0     C12201   0.790   3.133   5.197  0.6165  0.2422 -0.2642
  814MOL0     O12202   0.838   3.261   5.211 -0.0432  0.0328  0.2250
  814MOL0     C12203   0.980   3.266   5.220  0.7008 -0.1467  0.7326
  814MOL0     C12204   1.018   3.357   5.099 -0.0085 -0.3629  1.0442
  814MOL0     C12205   1.164   3.417   5.122  0.3078  0.4650 -1.7791
  814MOL0     C12206   1.222   3.458   4.981 -0.1072 -0.7532 -0.8776
  814MOL0     C12207   1.172   3.589   4.929 -0.5755  0.1213 -1.0036
  814MOL0     C12208   1.179   3.604   4.772 -0.6737  0.2746  0.0534
  814MOL0     C12209   1.316   3.575   4.706  0.0263 -0.1039 -0.4664
  814MOL0     C12210   1.403   3.694   4.731 -0.4439 -1.3149 -0.6477
  814MOL0     N12211   1.539   3.655   4.691  0.3252 -0.6402  0.6557
  814MOL0     C12212   1.631   3.604   4.778 -0.7014  0.6892  0.8409
  814MOL0     C12213   1.717   3.545   4.696 -0.6540 -0.0830 -0.3389
  814MOL0     C12214   1.847   3.479   4.730  0.3920  0.3209 -0.2172
  814MOL0     C12215   1.961   3.537   4.809  0.1509  0.1697 -0.6112
  814MOL0     C12216   1.911   3.585   4.950 -1.1546 -0.7289 -0.1037
  814MOL0     C12217   2.033   3.624   5.027 -0.3747  1.0513 -0.4957
  814MOL0     O12218   2.005   3.650   5.162  0.2325 -0.4668 -0.7029
  814MOL0     C12219   2.100   3.704   5.251  0.7533 -0.1000 -0.1704
  814MOL0     C12220   2.102   3.648   5.374 -0.0759  0.5559  0.7051
  814MOL0     C12221   2.195   3.690   5.474 -0.4995  0.6726 -0.1946
  814MOL0     C12222   2.170   3.632   5.610  0.1760 -0.7410 -0.5609
  814MOL0     C12223   2.285   3.788   5.450  0.4301 -1.2138 -0.7342
  814MOL0     C12224   2.388   3.837   5.551  0.3660 -0.3475  1.0311
  814MOL0     O12225   2.444   3.948   5.514  0.1086 -0.4811  0.2052
  814MOL0     C12226   2.557   4.000   5.587 -0.5777  0.6145 -1.2879
  814MOL0     C12227   2.560   4.142   5.595 -0.8820  0.3929  0.2855
  814MOL0     C12228   2.657   4.209   5.664  0.2831 -0.5090  1.2436
  814MOL0     C12229   2.756   4.149   5.729 -0.6666  0.5300 -0.6085
  814MOL0     O12230   2.821   4.221   5.828 -0.1858 -0.6584  0.9119
  814MOL0     C12231   2.961   4.202   5.831 -0.0133  0.0835 -0.3525
  814MOL0     C12232   3.000   4.215   5.977  0.4554 -0.0629  1.4939
  814MOL0     C12233   3.049   4.077   6.025 -0.2080  0.3769 -0.3582
  814MOL0     C12234   3.087   4.068   6.174 -0.2178 -0.2653  0.9105
  814MOL0     C12235   3.181   4.181   6.209 -1.4689  0.5253 -0.2564
  814MOL0     C12236   3.272   4.141   6.329 -0.3920  0.4381  0.2681
  814MOL0     C12237   3.392   4.224   6.330  0.2992 -0.6990  0.5674
  814MOL0     C12238   3.500   4.177   6.424 -0.6155 -0.0635 -0.1859
  814MOL0    Cl12239   3.452   4.187   6.593  0.0583 -0.2071 -0.3897
  814MOL0     C12240   2.767   4.001   5.717  0.4721 -1.8670 -0.3422
  814MOL0     C12241   2.666   3.931   5.648  0.1993 -0.4608 -0.9870
  814MOL0     O12242   2.424   3.759   5.643 -0.0613 -0.6176  0.4711
  814MOL0     C12243   2.289   3.840   5.321  0.4426 -0.0621 -0.1154
  814MOL0     C12244   2.202   3.802   5.221  0.0302  0.4294  0.4816
  814MOL0     N12245   1.687   3.561   4.563  0.4538  0.1320 -0.2240
  814MOL0     N12246   1.579   3.633   4.562  0.1118 -0.2195  0.7047
  814MOL0     C12247   0.815   3.034   5.288  0.2683 -0.2962  0.0282
  814MOL0     C12248   0.753   2.912   5.259  0.0799 -0.4705 -0.5514
  814MOL0     C12249   0.663   2.543   5.031  0.3392  1.3486  0.0825
  814MOL0     C12250   0.529   2.518   5.033  0.2988  0.1857 -0.0779
  814MOL0     C12251   0.473   2.392   4.999 -0.6586 -0.2790  0.2006
  814MOL0     C12252   0.554   2.295   4.952  0.3214  0.3832 -0.0132
  814MOL0     O12253   0.508   2.180   4.898  0.2282 -0.1998  0.4831
  814MOL0     C12254   0.437   2.096   4.988 -0.5641 -0.3049 -0.8253
  814MOL0     C12255   0.294   2.070   4.947  0.6293 -0.3135  0.0406
  814MOL0     C12256   0.289   2.039   4.795  0.1777  0.5765 -0.3590
  814MOL0     C12257   0.141   2.003   4.756 -0.2053 -0.0056 -0.3079
  814MOL0     C12258   0.040   2.110   4.778 -0.4163  0.5505  0.1468
  814MOL0     C12259  -0.037   2.206   4.785 -1.1485  0.1377 -0.5012
  814MOL0     C12260   0.691   2.319   4.947  0.3248  0.1599 -0.0145
  814MOL0     C12261   0.748   2.438   4.986 -0.5797 -0.3437  0.2820
  814MOL0     C12262   0.894   2.448   4.976 -1.1611  0.9478  0.4253
  814MOL0     H12263   0.568   2.971   4.972 -1.3154  2.5735  0.6992
  814MOL0     H12264   0.667   3.198   5.029  3.1204  0.4176 -1.0220
  814MOL0     H12265   1.036   3.174   5.206  1.0734  0.1119  0.4885
  814MOL0     H12266   1.009   3.317   5.312  0.2600 -2.5055  2.2415
  814MOL0     H12267   1.020   3.295   5.008 -0.3377 -2.1807  2.2128
  814MOL0     H12268   0.947   3.438   5.081 -0.8676 -1.1007  1.0163
  814MOL0     H12269   1.145   3.511   5.176 -2.5071 -0.2068 -1.4172
  814MOL0     H12270   1.225   3.351   5.185  0.3401  1.4046 -0.7834
  814MOL0     H12271   1.330   3.461   4.999 -0.8517  1.2071  6.1761
  814MOL0     H12272   1.203   3.373   4.914 -0.8248 -0.2456 -1.3385
  814MOL0     H12273   1.225   3.667   4.984 -1.0726 -0.7271  0.7762
  814MOL0     H12274   1.065   3.596   4.954 -0.2937  1.4540 -0.0422
  814MOL0     H12275   1.106   3.532   4.733  0.3057  0.2336 -1.8362
  814MOL0     H12276   1.169   3.711   4.750  3.9626  1.5374  2.7765
  814MOL0     H12277   1.308   3.564   4.597  2.6045 -0.3982 -0.6877
  814MOL0     H12278   1.359   3.480   4.738 -2.4303 -0.5555  1.7788
  814MOL0     H12279   1.359   3.782   4.683 -2.2910  1.6619  5.4905
  814MOL0     H12280   1.400   3.714   4.838 -4.5773 -0.2670 -0.7996
  814MOL0     H12281   1.642   3.621   4.884  2.4347  2.1247  0.4263
  814MOL0     H12282   1.889   3.428   4.643 -2.4966 -1.0382 -0.9365
  814MOL0     H12283   1.807   3.403   4.798 -0.0120 -1.4376 -2.3274
  814MOL0     H12284   2.034   3.455   4.812  1.7049  1.4598 -1.7508
  814MOL0     H12285   2.012   3.616   4.754  1.5522  1.0703  1.8016
  814MOL0     H12286   1.850   3.676   4.938  1.4344  1.7680  3.4438
  814MOL0     H12287   1.859   3.506   5.004  0.9921 -3.5247 -1.8771
  814MOL0     H12288   2.097   3.537   5.042 -0.3045  1.4304  1.9147
  814MOL0     H12289   2.087   3.706   4.979  2.6534 -0.5357 -0.0788
  814MOL0     H12290   2.025   3.576   5.398  0.1349  0.0312 -0.1547
  814MOL0     H12291   2.064   3.623   5.637  0.7009 -0.4396  1.8304
  814MOL0     H12292   2.206   3.717   5.670  1.2469  2.4816 -5.1540
  814MOL0     H12293   2.220   3.538   5.631  0.6332 -0.6166 -1.0606
  814MOL0     H12294   2.489   4.188   5.527  0.1327  2.4767  0.5641
  814MOL0     H12295   2.664   4.313   5.694 -2.3705 -0.7289  2.8717
  814MOL0     H12296   2.994   4.103   5.799  1.5164  0.7288 -0.8293
  814MOL0     H12297   3.023   4.274   5.778  2.3060 -1.4362  0.1590
  814MOL0     H12298   3.088   4.278   5.994  3.9236 -4.6277  2.7133
  814MOL0     H12299   2.923   4.256   6.042 -1.8686  2.8946 -2.6764
  814MOL0     H12300   3.137   4.045   5.969 -0.0927 -1.8067  0.9393
  814MOL0     H12301   2.968   4.005   6.011  1.6512 -2.0281  0.5894
  814MOL0     H12302   3.142   3.975   6.184  1.8927  0.6809 -1.0505
  814MOL0     H12303   3.005   4.058   6.246  0.9141 -1.9411  2.0341
  814MOL0     H12304   3.252   4.204   6.129 -0.0093 -0.6269  0.6432
  814MOL0     H12305   3.121   4.268   6.239 -3.9609 -2.4650  4.9332
  814MOL0     H12306   3.303   4.036   6.324 -0.6315  0.4177 -1.9062
  814MOL0     H12307   3.221   4.162   6.424  1.0040  3.5061  0.4229
  814MOL0     H12308   3.353   4.321   6.362  2.6758  0.6605 -0.4082
  814MOL0     H12309   3.435   4.241   6.231 -0.7625  2.3489  0.5352
  814MOL0     H12310   3.585   4.242   6.402 -0.9072  0.3240 -0.1973
  814MOL0     H12311   3.518   4.071   6.404  2.2402  0.5322 -1.2741
  814MOL0     H12312   2.847   3.948   5.768  2.3546  0.1356 -1.0444
  814MOL0     H12313   2.677   3.823   5.641  0.9954 -0.3057 -2.4170
  814MOL0     H12314   2.364   3.915   5.302  2.6583 -1.9789  0.6291
  814MOL0     H12315   2.205   3.846   5.122  0.0198  1.3929  0.9024
  814MOL0     H12316   0.871   3.062   5.377 -0.1765 -1.0274  0.5565
  814MOL0     H12317   0.773   2.833   5.330  1.8333  0.4406  0.0470
  814MOL0     H12318   0.462   2.594   5.071  0.9218  0.2718  0.8736
  814MOL0     H12319   0.367   2.368   4.988 -0.8414 -0.2455  1.7405
  814MOL0     H12320   0.491   2.001   5.001 -0.1736  0.2341  2.0343
  814MOL0     H12321   0.419   2.132   5.089 -3.7694 -1.9469 -0.6958
  814MOL0     H12322   0.242   2.164   4.968 -1.4094 -0.7166 -2.6538
  814MOL0     H12323   0.239   2.004   5.015 -1.6807  1.7862  0.3776
  814MOL0     H12324   0.319   2.124   4.733  1.5160 -0.1685 -0.7675
  814MOL0     H12325   0.359   1.960   4.769  0.4571  0.5119  0.5758
  814MOL0     H12326   0.120   1.927   4.832 -0.3959  0.5387  0.1878
  814MOL0     H12327   0.134   1.957   4.657  2.1157  0.6387 -0.8272
  814MOL0     H12328  -0.099   2.290   4.810 -2.6629 -1.6228  2.3102
  814MOL0     H12329   0.748   2.243   4.895  1.4153  1.3238 -0.5790
  814MOL0     H12330   0.933   2.374   4.905  1.6920  2.2620  0.5151
  814MOL0     H12331   0.914   2.547   4.936 -2.5879  1.0970  0.0115
  814MOL0     H12332   0.933   2.426   5.076 -1.9185  0.0748  0.5472
  815MOL0     O12333   2.067  11.294   9.791 -0.1198  0.2306  1.0935
  815MOL0     C12334   2.006  11.190   9.794  0.6207 -0.0538 -0.9886
  815MOL0     O12335   2.027  11.095   9.890 -0.0224  0.2000 -0.2382
  815MOL0     C12336   2.139  11.108   9.970  0.8779  0.1610  0.0319
  815MOL0     C12337   2.150  11.186  10.083 -0.0294  0.4928  0.6828
  815MOL0     C12338   2.260  11.172  10.163 -0.3023 -0.7526  0.5508
  815MOL0     C12339   2.378  11.097  10.127  0.9107  0.0844 -0.0547
  815MOL0     O12340   2.478  11.060  10.207 -0.1338 -0.1614  0.1561
  815MOL0     C12341   2.438  11.050  10.346 -0.1512 -0.6930 -0.1647
  815MOL0     C12342   2.468  11.176  10.430  0.0076  0.0778 -0.6733
  815MOL0     C12343   2.621  11.189  10.440  0.3884  0.3153 -0.5898
  815MOL0     C12344   2.691  11.163  10.575 -0.3526 -0.8483 -0.3842
  815MOL0     C12345   2.844  11.194  10.570 -0.8077  0.8980  1.0434
  815MOL0     C12346   2.881  11.337  10.607 -0.0345 -0.0255  0.2686
  815MOL0     C12347   2.907  11.363  10.760  0.3117  0.4402  0.2125
  815MOL0     C12348   2.977  11.492  10.783  0.3672  0.1323 -0.3367
  815MOL0     N12349   3.028  11.501  10.923 -0.6283 -0.2357 -0.2405
  815MOL0     C12350   3.149  11.452  10.970  0.7143  0.2780 -1.1976
  815MOL0     C12351   3.144  11.487  11.107  0.2506  0.0649 -0.8360
  815MOL0     C12352   3.250  11.452  11.212  0.0798  0.7261 -0.2050
  815MOL0     C12353   3.326  11.583  11.243 -0.0429  0.2578  0.6271
  815MOL0     C12354   3.453  11.565  11.326 -0.1459  0.2323 -0.3510
  815MOL0     C12355   3.585  11.603  11.257  0.2072 -0.2144 -0.3076
  815MOL0     O12356   3.555  11.730  11.196  0.1047 -0.3926 -0.2429
  815MOL0     C12357   3.647  11.773  11.105  0.2773  0.0952  0.8761
  815MOL0     C12358   3.764  11.706  11.053  0.7158  0.4117 -0.3378
  815MOL0     C12359   3.845  11.763  10.955  0.1673  0.0917  0.7757
  815MOL0     C12360   3.978  11.689  10.936  0.1175 -0.1832  0.0851
  815MOL0     C12361   3.806  11.884  10.893  0.7936  0.2417  0.4051
  815MOL0     C12362   3.877  11.941  10.770 -0.0481 -0.4094  0.2988
  815MOL0     O12363   3.909  11.853  10.664  0.4676 -1.3190 -0.2418
  815MOL0     C12364   3.928  11.914  10.540 -0.7035 -0.2248  0.4587
  815MOL0     C12365   4.026  11.859  10.459 -0.2188  0.6944 -0.2004
  815MOL0     C12366   4.064  11.911  10.339 -0.5588 -0.8386  0.3797
  815MOL0     C12367   4.006  12.026  10.293  0.6559  0.4441 -0.4555
  815MOL0     O12368   4.032  12.062  10.159 -0.0485  0.0724  0.2985
  815MOL0     C12369   3.915  12.088  10.071 -0.4108  0.4897 -0.0186
  815MOL0     C12370   3.957  12.087   9.922  0.0365 -1.1367  0.2377
  815MOL0     C12371   3.951  11.951   9.866 -0.3785  0.4333 -0.2157
  815MOL0     C12372   4.013  11.950   9.733  0.6079  0.0955 -0.0701
  815MOL0     C12373   3.974  11.819   9.656 -0.3823  0.2402  0.0004
  815MOL0     C12374   4.025  11.836   9.511  0.6909  0.1408 -0.6536
  815MOL0     C12375   3.999  11.708   9.438  0.1939 -0.0917 -0.7074
  815MOL0     C12376   4.088  11.596   9.495 -0.1048  0.5845  0.8711
  815MOL0    Cl12377   3.993  11.504   9.617 -0.5327 -0.6235  0.2713
  815MOL0     C12378   3.901  12.086  10.367  1.0829 -0.5025 -0.0766
  815MOL0     C12379   3.865  12.027  10.491 -0.4135  0.6681 -0.0264
  815MOL0     O12380   3.918  12.057  10.782  0.9100 -0.0748 -0.0986
  815MOL0     C12381   3.691  11.952  10.952 -0.8592  0.1273 -0.2194
  815MOL0     C12382   3.612  11.893  11.055  0.0173 -0.4744  0.1579
  815MOL0     N12383   3.030  11.571  11.119  0.5373  0.0691  0.4890
  815MOL0     N12384   2.958  11.572  11.017 -0.0791 -0.0418  0.8454
  815MOL0     C12385   2.369  11.028  10.014  1.1074  0.7540  0.4218
  815MOL0     C12386   2.249  11.029   9.931  0.3543 -0.3348 -0.0487
  815MOL0     C12387   1.898  11.167   9.698  0.0498  0.5442  0.4399
  815MOL0     C12388   1.852  11.277   9.620  0.1177 -0.7333 -0.0575
  815MOL0     C12389   1.753  11.271   9.526 -0.4248 -0.0601  0.2081
  815MOL0     C12390   1.686  11.154   9.514  0.3903 -0.3113  0.6076
  815MOL0     O12391   1.581  11.152   9.432  0.6520  0.4304  0.1917
  815MOL0     C12392   1.457  11.205   9.483 -0.4633 -0.9429 -0.7205
  815MOL0     C12393   1.413  11.341   9.420  0.0059  1.1551 -0.7312
  815MOL0     C12394   1.295  11.403   9.496  0.0883  0.2761 -0.6788
  815MOL0     C12395   1.172  11.318   9.509  0.0486 -0.4410 -0.1092
  815MOL0     C12396   1.108  11.307   9.374 -0.0672 -0.6837 -0.0507
  815MOL0     C12397   1.074  11.308   9.256 -0.2244  0.3113  0.3882
  815MOL0     C12398   1.722  11.042   9.582  0.2205 -0.1369 -0.0516
  815MOL0     C12399   1.834  11.041   9.677  0.0512 -0.5224 -0.1658
  815MOL0     C12400   1.866  10.905   9.734 -0.0708  0.4829 -0.3470
  815MOL0     H12401   2.076  11.260  10.109 -2.2969 -0.3578 -2.6971
  815MOL0     H12402   2.257  11.225  10.257 -1.4431 -2.4857  1.5482
  815MOL0     H12403   2.504  10.969  10.379  4.0224  1.3875 -2.5833
  815MOL0     H12404   2.330  11.035  10.354 -0.7976  2.3523 -1.6026
  815MOL0     H12405   2.439  11.272  10.385  3.0609  0.8814 -1.1057
  815MOL0     H12406   2.429  11.177  10.533  0.8708  0.7198 -0.3411
  815MOL0     H12407   2.672  11.126  10.367  1.6139  1.7983 -1.0801
  815MOL0     H12408   2.637  11.293  10.410  0.7487  1.9038  4.2060
  815MOL0     H12409   2.650  11.239  10.643  3.2924  0.9010  0.0725
  815MOL0     H12410   2.671  11.068  10.624  1.6231 -0.4433  1.3086
  815MOL0     H12411   2.876  11.173  10.468 -1.6906  3.0122  0.2952
  815MOL0     H12412   2.893  11.121  10.636  1.0270  0.1235 -1.0566
  815MOL0     H12413   2.965  11.375  10.547  1.0268 -1.6681  0.6420
  815MOL0     H12414   2.795  11.397  10.577 -0.6865 -0.7144  0.7350
  815MOL0     H12415   2.956  11.269  10.788  1.6092  0.4439 -1.8275
  815MOL0     H12416   2.817  11.370  10.822  0.2395 -1.9939  0.5056
  815MOL0     H12417   3.068  11.486  10.722 -0.1843  3.0107 -1.6238
  815MOL0     H12418   2.921  11.585  10.768 -1.0352 -0.5123  0.6711
  815MOL0     H12419   3.225  11.390  10.924  1.6645  0.3287  0.2248
  815MOL0     H12420   3.323  11.385  11.165  1.1136  1.3286  0.5046
  815MOL0     H12421   3.204  11.399  11.296 -1.0726  0.1941 -1.1338
  815MOL0     H12422   3.347  11.628  11.146 -0.6393  2.0304  1.2919
  815MOL0     H12423   3.264  11.655  11.297  1.1460 -0.3493  2.9186
  815MOL0     H12424   3.436  11.618  11.420 -0.3073 -1.4027  0.5923
  815MOL0     H12425   3.484  11.464  11.355  1.9594  1.5425  2.3572
  815MOL0     H12426   3.663  11.609  11.333  0.8600  1.4940 -1.0607
  815MOL0     H12427   3.603  11.526  11.181 -3.2771 -1.1097 -0.3949
  815MOL0     H12428   3.777  11.608  11.099  1.3572  1.8993  2.9869
  815MOL0     H12429   3.953  11.585  10.916 -2.4670  0.9165 -3.6359
  815MOL0     H12430   4.052  11.695  11.016  0.3617  0.7195 -0.1925
  815MOL0     H12431   4.031  11.734  10.851  3.2228  4.1548  3.8612
  815MOL0     H12432   4.072  11.767  10.491 -1.8230 -1.2687 -3.0682
  815MOL0     H12433   4.144  11.862  10.284 -1.5550 -1.3541 -0.6646
  815MOL0     H12434   3.842  12.008  10.085  3.3799 -4.1913 -3.5403
  815MOL0     H12435   3.875  12.186  10.098  1.3438  0.8873  1.3345
  815MOL0     H12436   3.891  12.161   9.876 -0.2545 -0.9472  0.9528
  815MOL0     H12437   4.058  12.125   9.905 -0.8342  0.4700 -1.8647
  815MOL0     H12438   3.851  11.907   9.869 -1.0949  1.8631 -1.7719
  815MOL0     H12439   4.008  11.871   9.916  1.2130  1.3745 -0.4701
  815MOL0     H12440   4.120  11.971   9.743 -0.0344  2.3147  4.0810
  815MOL0     H12441   3.971  12.035   9.678  0.8686  0.3011  0.0479
  815MOL0     H12442   4.018  11.732   9.705 -1.4127 -1.0253 -1.2518
  815MOL0     H12443   3.866  11.811   9.671 -0.2770  1.3083  1.6491
  815MOL0     H12444   4.133  11.840   9.526  0.7012  0.8222 -0.8558
  815MOL0     H12445   3.978  11.914   9.449 -0.0979 -1.6410 -2.4240
  815MOL0     H12446   4.008  11.721   9.329 -0.0506  1.6648 -0.5467
  815MOL0     H12447   3.893  11.679   9.437 -0.0590  0.5945 -3.6589
  815MOL0     H12448   4.175  11.641   9.544  1.3919 -0.0569 -1.0947
  815MOL0     H12449   4.133  11.525   9.426 -0.7900  0.2582  0.7552
  815MOL0     H12450   3.839  12.168  10.332  0.7493  0.0562  1.7111
  815MOL0     H12451   3.790  12.074  10.554 -1.4556 -1.4135  0.3758
  815MOL0     H12452   3.640  12.039  10.911 -5.7793 -1.6582  1.4369
  815MOL0     H12453   3.526  11.944  11.097  1.7987  2.3756  0.6688
  815MOL0     H12454   2.461  10.980   9.982  2.1451  2.1453  1.1997
  815MOL0     H12455   2.232  10.967   9.844  0.4620 -2.0990  1.1298
  815MOL0     H12456   1.904  11.372   9.629  0.7116 -1.0759  0.2611
  815MOL0     H12457   1.714  11.362   9.480  1.8205  0.5373 -0.6480
  815MOL0     H12458   1.369  11.141   9.476 -2.0146  1.0840 -0.5679
  815MOL0     H12459   1.476  11.211   9.591 -0.6257  0.2377 -0.7380
  815MOL0     H12460   1.381  11.320   9.318 -0.1396 -1.0030 -0.3008
  815MOL0     H12461   1.491  11.418   9.420 -1.0043  2.2123 -1.3632
  815MOL0     H12462   1.328  11.417   9.599 -1.4812 -2.1618  0.2352
  815MOL0     H12463   1.266  11.496   9.445  2.7565  1.7802  0.3036
  815MOL0     H12464   1.104  11.381   9.567 -0.4514  0.3710 -1.5061
  815MOL0     H12465   1.184  11.230   9.572 -2.0811 -1.2572 -0.7688
  815MOL0     H12466   1.037  11.312   9.156 -1.0236  1.8470  0.7199
  815MOL0     H12467   1.675  10.945   9.568  4.2366 -1.9713 -2.8196
  815MOL0     H12468   1.837  10.899   9.840  0.8709  2.6895  0.0887
  815MOL0     H12469   1.810  10.836   9.671  1.3795  0.3869 -1.5894
  815MOL0     H12470   1.971  10.879   9.747 -0.9084 -3.0762  0.2497
  816MOL0     O12471   7.370  10.941   1.723 -0.6874  0.0782 -0.0504
  816MOL0     C12472   7.486  10.974   1.686  0.0979  0.0424 -0.2099
  816MOL0     O12473   7.519  11.099   1.653 -0.2671 -0.0180 -0.5300
  816MOL0     C12474   7.429  11.202   1.637  0.1269  0.0451 -0.0962
  816MOL0     C12475   7.484  11.326   1.671 -0.3468 -0.3364 -0.8892
  816MOL0     C12476   7.397  11.444   1.666 -0.0573  0.1484 -0.8736
  816MOL0     C12477   7.258  11.437   1.639  0.6376  0.6642 -0.3141
  816MOL0     O12478   7.180  11.557   1.644  0.0499 -0.2310  0.0651
  816MOL0     C12479   7.034  11.534   1.658 -0.2580 -0.4396 -0.3620
  816MOL0     C12480   6.955  11.657   1.678  0.1180 -0.1912  0.5549
  816MOL0     C12481   7.014  11.760   1.785  0.5602 -0.3288 -0.5184
  816MOL0     C12482   7.047  11.688   1.917 -1.3120 -0.2624 -0.4656
  816MOL0     C12483   7.024  11.779   2.040  0.3714  0.3748  0.3108
  816MOL0     C12484   6.874  11.791   2.073  0.0131  0.7820 -0.3773
  816MOL0     C12485   6.857  11.888   2.193  0.0996  0.5501  0.7381
  816MOL0     C12486   6.925  11.842   2.321  0.3808 -0.3789 -0.1132
  816MOL0     N12487   6.864  11.721   2.383  0.4473  0.0924  0.6233
  816MOL0     C12488   6.737  11.713   2.437 -0.2288 -0.4053 -0.4618
  816MOL0     C12489   6.720  11.580   2.484  0.0996  0.5332  0.3492
  816MOL0     C12490   6.593  11.514   2.549  0.1506  0.3605 -0.2879
  816MOL0     C12491   6.625  11.405   2.651 -0.6375 -0.1023  0.1063
  816MOL0     C12492   6.505  11.309   2.683 -0.0633  0.1318 -0.7418
  816MOL0     C12493   6.389  11.384   2.748  0.0044  0.1466  0.4136
  816MOL0     O12494   6.411  11.430   2.880  0.0398  0.3383 -1.3059
  816MOL0     C12495   6.311  11.486   2.953  0.0821 -0.7284 -0.0902
  816MOL0     C12496   6.342  11.513   3.083 -0.8888 -0.1465 -1.0372
  816MOL0     C12497   6.248  11.579   3.173 -0.0655 -0.2589 -0.7556
  816MOL0     C12498   6.293  11.629   3.301 -0.1107  0.4725 -0.0065
  816MOL0     C12499   6.120  11.612   3.126  0.3717 -0.6801 -0.1123
  816MOL0     C12500   6.007  11.677   3.203  0.1777  0.3567  0.1436
  816MOL0     O12501   6.019  11.680   3.335 -0.0272 -0.5073 -0.1568
  816MOL0     C12502   5.940  11.751   3.415 -1.0224 -0.0204 -0.6838
  816MOL0     C12503   5.894  11.689   3.538  0.9314 -0.5330 -0.2241
  816MOL0     C12504   5.814  11.764   3.632 -0.7774 -0.2462  0.0236
  816MOL0     C12505   5.800  11.906   3.622 -0.4238  0.0715  1.0569
  816MOL0     O12506   5.743  11.968   3.734  0.9482  0.1478  0.0164
  816MOL0     C12507   5.693  12.105   3.719  0.8802 -1.1850 -0.9233
  816MOL0     C12508   5.570  12.122   3.810 -0.3068 -0.6536 -0.6085
  816MOL0     C12509   5.506  12.266   3.815 -0.9687 -1.4382 -0.0417
  816MOL0     C12510   5.614  12.381   3.807  0.0405 -0.2327  0.3716
  816MOL0     C12511   5.550  12.512   3.842 -0.1590  0.6610 -0.4271
  816MOL0     C12512   5.508  12.536   3.986  0.3707 -0.5456 -0.2132
  816MOL0     C12513   5.479  12.681   4.012  0.6811  0.0390  0.5732
  816MOL0     C12514   5.599  12.767   4.002 -0.0200 -0.4048 -0.1692
  816MOL0    Cl12515   5.582  12.917   4.100  0.0193  0.2126 -0.0486
  816MOL0     C12516   5.837  11.963   3.502  0.5291 -0.2966  0.0846
  816MOL0     C12517   5.905  11.890   3.401 -0.5180 -0.5478  0.2348
  816MOL0     O12518   5.918  11.738   3.142  0.0221 -0.6392  0.8416
  816MOL0     C12519   6.088  11.570   2.992  0.4984  0.5159  0.6841
  816MOL0     C12520   6.175  11.510   2.911 -0.4672 -0.1744  0.0027
  816MOL0     N12521   6.844  11.522   2.447  0.5737 -0.0058 -0.1003
  816MOL0     N12522   6.922  11.604   2.387 -0.3352  0.2992  0.1213
  816MOL0     C12523   7.213  11.311   1.606 -0.1219  0.2312 -0.0530
  816MOL0     C12524   7.295  11.201   1.609  0.1277  1.2553  1.0708
  816MOL0     C12525   7.586  10.857   1.679  0.4212  0.0302 -0.3480
  816MOL0     C12526   7.720  10.895   1.668 -0.2828 -0.2664  0.3606
  816MOL0     C12527   7.818  10.797   1.674 -0.9034  0.3818 -0.5257
  816MOL0     C12528   7.792  10.661   1.687  0.3290 -0.1587 -0.0131
  816MOL0     O12529   7.893  10.574   1.722 -0.3573 -0.0107  0.4315
  816MOL0     C12530   7.882  10.434   1.697 -0.5957 -0.6002  0.3103
  816MOL0     C12531   7.874  10.378   1.557 -0.4371  1.2973  0.3899
  816MOL0     C12532   7.844  10.231   1.567  0.0948 -0.4811 -1.1242
  816MOL0     C12533   7.817  10.157   1.432 -0.1530 -0.3666  0.4560
  816MOL0     C12534   7.940  10.165   1.353 -0.4735 -0.5375 -0.3543
  816MOL0     C12535   8.050  10.177   1.301 -0.0801 -0.6585  0.2913
  816MOL0     C12536   7.659  10.624   1.670 -0.3212  0.0772  0.3603
  816MOL0     C12537   7.557  10.719   1.671 -0.3062  0.4008  0.1780
  816MOL0     C12538   7.423  10.653   1.679  0.4506 -0.8135 -0.4362
  816MOL0     H12539   7.591  11.332   1.687 -0.1911 -1.6464 -1.3453
  816MOL0     H12540   7.443  11.541   1.684 -2.0201  0.7955  1.2205
  816MOL0     H12541   7.007  11.465   1.738 -1.0325  0.2444 -0.0269
  816MOL0     H12542   7.000  11.495   1.561  0.4245 -1.6261 -0.1475
  816MOL0     H12543   6.969  11.716   1.587 -0.4131  0.9715  1.2040
  816MOL0     H12544   6.849  11.631   1.687 -0.0486  1.1782  3.6891
  816MOL0     H12545   7.111  11.803   1.760  2.1152 -2.3797  1.6074
  816MOL0     H12546   6.939  11.835   1.810  0.3588 -0.7907  0.2745
  816MOL0     H12547   6.991  11.595   1.926 -3.1253  0.6302 -1.7705
  816MOL0     H12548   7.153  11.663   1.927 -0.6461  1.9810 -1.3273
  816MOL0     H12549   7.082  11.869   2.017  2.2661 -0.7282  0.5659
  816MOL0     H12550   7.080  11.736   2.124  1.1009 -2.0961 -1.3007
  816MOL0     H12551   6.820  11.842   1.993 -0.6072 -1.8730 -1.7745
  816MOL0     H12552   6.833  11.693   2.101  1.3546  0.1703 -0.4425
  816MOL0     H12553   6.751  11.908   2.210 -0.0177  0.5680  0.0106
  816MOL0     H12554   6.888  11.987   2.159 -2.9418  1.2082 -0.4814
  816MOL0     H12555   7.031  11.822   2.307  0.6399 -0.8457  2.0767
  816MOL0     H12556   6.926  11.918   2.400  0.8615 -0.2110 -0.2830
  816MOL0     H12557   6.666  11.793   2.418 -0.6222 -0.7540 -0.4701
  816MOL0     H12558   6.526  11.481   2.469 -1.5834  3.5260 -0.3262
  816MOL0     H12559   6.529  11.589   2.596 -0.5737 -0.0392 -0.6213
  816MOL0     H12560   6.710  11.345   2.619 -0.3213 -0.1304  0.9827
  816MOL0     H12561   6.646  11.462   2.742  0.6396 -2.4168  1.3604
  816MOL0     H12562   6.472  11.250   2.597  0.0769 -1.5053  0.2735
  816MOL0     H12563   6.543  11.232   2.751 -0.4969 -0.1008 -0.7594
  816MOL0     H12564   6.353  11.461   2.679  0.3038  1.6897  1.9288
  816MOL0     H12565   6.306  11.314   2.758 -1.1770  1.3771 -0.3742
  816MOL0     H12566   6.441  11.489   3.122 -1.1893 -2.2599 -1.4634
  816MOL0     H12567   6.398  11.606   3.324 -0.8956 -1.9054  1.5765
  816MOL0     H12568   6.238  11.590   3.387  0.0273  3.5656  1.6037
  816MOL0     H12569   6.284  11.738   3.308  1.7203  0.6049  1.3742
  816MOL0     H12570   5.911  11.582   3.551 -2.1715 -1.0681  0.3714
  816MOL0     H12571   5.768  11.714   3.717 -2.6036  2.3669  0.7222
  816MOL0     H12572   5.773  12.173   3.748 -0.1712 -0.3561  0.1195
  816MOL0     H12573   5.666  12.136   3.617 -0.8383  4.4397  0.8573
  816MOL0     H12574   5.501  12.045   3.777  0.9289 -1.3048 -1.7587
  816MOL0     H12575   5.580  12.103   3.917 -4.8325 -0.0186  0.1245
  816MOL0     H12576   5.439  12.287   3.899 -2.1961  3.1564 -1.8592
  816MOL0     H12577   5.444  12.266   3.725 -1.1008 -0.5384  0.0418
  816MOL0     H12578   5.651  12.384   3.704 -0.7812  0.7761  0.0858
  816MOL0     H12579   5.689  12.377   3.886  0.9121  0.7840 -0.3807
  816MOL0     H12580   5.627  12.586   3.819 -0.8560  0.8498 -2.3102
  816MOL0     H12581   5.475  12.526   3.764  0.3511  0.9023 -0.8804
  816MOL0     H12582   5.595  12.514   4.050  2.0165  2.8385 -1.0203
  816MOL0     H12583   5.423  12.477   4.020 -0.9058  1.7242  0.7936
  816MOL0     H12584   5.439  12.687   4.114  1.1230  1.5887  0.6846
  816MOL0     H12585   5.399  12.712   3.944  1.2410  1.0977  0.3733
  816MOL0     H12586   5.615  12.794   3.897  2.8580  1.2738  0.6121
  816MOL0     H12587   5.686  12.721   4.049 -0.9340  1.0874  3.3811
  816MOL0     H12588   5.822  12.062   3.460  0.0137 -1.4888 -2.7837
  816MOL0     H12589   5.927  11.937   3.305  0.2434 -0.0862  0.6239
  816MOL0     H12590   5.987  11.578   2.952  1.1133  1.3402 -0.7702
  816MOL0     H12591   6.136  11.475   2.816 -1.2136 -1.8467  0.8866
  816MOL0     H12592   7.110  11.288   1.579 -0.1257 -1.3810  1.1541
  816MOL0     H12593   7.249  11.112   1.566  0.9680  1.2834  0.0787
  816MOL0     H12594   7.749  10.999   1.658 -1.4329  0.0416  0.1728
  816MOL0     H12595   7.919  10.835   1.672 -0.1266 -1.5665 -0.4262
  816MOL0     H12596   7.964  10.391   1.756 -0.2050  1.4514  1.3312
  816MOL0     H12597   7.793  10.401   1.751  1.3589 -1.8893  2.9837
  816MOL0     H12598   7.973  10.400   1.517  0.6182 -1.6061  1.1995
  816MOL0     H12599   7.795  10.425   1.497  1.1345  3.4984 -0.0609
  816MOL0     H12600   7.919  10.172   1.619 -2.2453 -1.1788  1.7153
  816MOL0     H12601   7.764  10.224   1.641  2.9214  0.9337  2.3452
  816MOL0     H12602   7.727  10.196   1.384  1.2161  0.1502 -1.8235
  816MOL0     H12603   7.797  10.049   1.439 -2.9411 -0.1684 -2.2195
  816MOL0     H12604   8.148  10.188   1.258 -1.0723  2.3101 -1.5581
  816MOL0     H12605   7.638  10.520   1.691  0.1013  0.6550  4.7185
  816MOL0     H12606   7.362  10.703   1.755  0.6274  0.1794 -0.9298
  816MOL0     H12607   7.380  10.666   1.580 -0.7605 -1.8169 -0.0651
  816MOL0     H12608   7.422  10.545   1.696 -0.8999 -1.3087 -3.2740
  817MOL0     O12609   4.515   0.349   1.041 -0.1171  0.6430 -0.1376
  817MOL0     C12610   4.503   0.261   1.122  1.3941 -0.2481  0.6649
  817MOL0     O12611   4.586   0.248   1.229  0.4868  0.4682  0.6808
  817MOL0     C12612   4.705   0.305   1.217 -0.5834  0.4890  0.1295
  817MOL0     C12613   4.740   0.399   1.314  0.1529  1.5603  0.8190
  817MOL0     C12614   4.856   0.466   1.296 -0.2396  0.1842 -0.5836
  817MOL0     C12615   4.945   0.447   1.195  1.2385  0.2853 -0.5289
  817MOL0     O12616   5.057   0.536   1.191  0.2138 -0.0084 -0.5807
  817MOL0     C12617   5.185   0.493   1.144  0.1134  0.5293  0.0585
  817MOL0     C12618   5.212   0.532   0.996  0.2399  0.3469 -0.1840
  817MOL0     C12619   5.366   0.544   0.955 -0.9039 -0.0187  0.2644
  817MOL0     C12620   5.391   0.639   0.846 -0.2678 -1.3128  0.3254
  817MOL0     C12621   5.542   0.671   0.815 -0.2613 -0.2794  0.3158
  817MOL0     C12622   5.548   0.798   0.740 -0.6973 -0.1881 -0.5221
  817MOL0     C12623   5.687   0.851   0.736  0.1899  0.1621  0.2194
  817MOL0     C12624   5.697   0.965   0.638  0.6385 -0.7655  1.0254
  817MOL0     N12625   5.580   1.048   0.625  0.8254  0.1104 -0.0723
  817MOL0     C12626   5.544   1.140   0.716 -0.7430 -0.8049  0.0317
  817MOL0     C12627   5.441   1.208   0.647 -0.5396 -0.0878 -0.1718
  817MOL0     C12628   5.364   1.324   0.703  0.7374  1.1848  0.0711
  817MOL0     C12629   5.320   1.308   0.850 -1.2040 -0.6530  0.0388
  817MOL0     C12630   5.239   1.430   0.887 -0.9482 -0.2499  0.6421
  817MOL0     C12631   5.301   1.566   0.862  0.4259  0.3921  0.5427
  817MOL0     O12632   5.415   1.596   0.951 -0.4221 -0.3145 -0.3674
  817MOL0     C12633   5.441   1.732   0.963 -0.3626 -0.0726 -0.7187
  817MOL0     C12634   5.438   1.805   1.081  0.2354 -0.3761  0.4318
  817MOL0     C12635   5.484   1.937   1.084 -0.1185  0.5560  0.6024
  817MOL0     C12636   5.454   2.010   1.215  0.3792  0.7704 -0.6276
  817MOL0     C12637   5.541   1.994   0.968  0.0533 -0.2626  0.1034
  817MOL0     C12638   5.566   2.141   0.947 -0.8982  0.5460 -0.3466
  817MOL0     O12639   5.524   2.245   1.030  1.1686  0.8179 -0.9139
  817MOL0     C12640   5.588   2.361   1.050  0.3078 -0.3382  1.1043
  817MOL0     C12641   5.522   2.469   1.110  0.7626 -0.0518  0.5244
  817MOL0     C12642   5.587   2.589   1.137 -0.2484  1.4171 -0.5196
  817MOL0     C12643   5.726   2.596   1.106 -0.2606  0.6612  0.1579
  817MOL0     O12644   5.803   2.704   1.141  0.1626 -0.2368 -0.0223
  817MOL0     C12645   5.763   2.787   1.257 -0.5934 -0.4032 -0.1734
  817MOL0     C12646   5.867   2.902   1.252  0.7078 -0.2329 -0.2735
  817MOL0     C12647   6.007   2.863   1.289 -0.3847 -0.1705  0.0380
  817MOL0     C12648   6.013   2.779   1.412 -0.2702 -0.1096  0.5709
  817MOL0     C12649   6.167   2.745   1.454 -0.7244  0.3747  0.5012
  817MOL0     C12650   6.223   2.625   1.382 -0.8133  0.2002 -0.4198
  817MOL0     C12651   6.136   2.499   1.397 -0.0501 -0.5064  0.9475
  817MOL0     C12652   6.215   2.368   1.379 -0.3023 -0.0599 -0.1340
  817MOL0    Cl12653   6.245   2.313   1.208 -0.2802 -0.1498 -0.3561
  817MOL0     C12654   5.792   2.498   1.043  0.6625  0.1326 -0.3409
  817MOL0     C12655   5.723   2.379   1.020  0.3561  0.1462 -0.8365
  817MOL0     O12656   5.622   2.170   0.839 -0.5778 -0.4242  1.0632
  817MOL0     C12657   5.556   1.909   0.852 -0.4427 -0.7074  0.4544
  817MOL0     C12658   5.504   1.782   0.854  0.5999 -0.7525  0.5186
  817MOL0     N12659   5.409   1.140   0.536  1.0218  0.4487  0.0856
  817MOL0     N12660   5.494   1.045   0.523 -0.3187  0.2038 -1.3016
  817MOL0     C12661   4.916   0.344   1.095  0.0261 -1.0997 -0.5500
  817MOL0     C12662   4.799   0.272   1.117 -0.5229  0.6080 -0.2582
  817MOL0     C12663   4.394   0.159   1.123  0.0332  1.1334  0.0746
  817MOL0     C12664   4.397   0.058   1.214  1.0547  1.6454  0.0553
  817MOL0     C12665   4.314  -0.060   1.202  0.8836 -0.1035  0.0859
  817MOL0     C12666   4.218  -0.067   1.103  0.2994  0.6763  0.3180
  817MOL0     O12667   4.130  -0.168   1.109  0.6934  0.1282  0.5249
  817MOL0     C12668   4.179  -0.279   1.041  0.1272 -0.4212  0.5120
  817MOL0     C12669   4.070  -0.394   1.061 -0.4764 -0.2879 -1.2760
  817MOL0     C12670   3.956  -0.393   0.960  1.0283 -0.5700 -0.4299
  817MOL0     C12671   3.872  -0.276   0.993  0.0481 -0.2814  0.3720
  817MOL0     C12672   3.894  -0.172   0.901 -0.2752 -0.0254  1.8108
  817MOL0     C12673   3.915  -0.090   0.812 -0.1577  0.1704  0.2254
  817MOL0     C12674   4.213   0.033   1.005 -0.6230 -0.0502 -0.2307
  817MOL0     C12675   4.298   0.143   1.017 -0.5691 -0.8429  0.2741
  817MOL0     C12676   4.283   0.243   0.904  0.0882 -0.2604  0.4601
  817MOL0     H12677   4.674   0.443   1.388  0.0800  0.8463  1.1771
  817MOL0     H12678   4.886   0.549   1.360  1.9785  2.2294 -3.9509
  817MOL0     H12679   5.195   0.387   1.167 -4.7208  0.2267  1.9008
  817MOL0     H12680   5.270   0.535   1.199  2.2943 -1.4313 -1.5859
  817MOL0     H12681   5.169   0.450   0.938  0.2342  1.1920 -1.4320
  817MOL0     H12682   5.157   0.619   0.959 -1.4418 -0.9103 -0.7808
  817MOL0     H12683   5.424   0.576   1.042 -0.5753  0.9531 -0.3038
  817MOL0     H12684   5.400   0.443   0.929 -0.3113 -0.5776  2.8882
  817MOL0     H12685   5.341   0.608   0.753 -0.8173  2.2245 -0.6836
  817MOL0     H12686   5.347   0.732   0.883  2.3612 -0.7618  2.3412
  817MOL0     H12687   5.590   0.596   0.752  1.5127  2.8676 -2.4075
  817MOL0     H12688   5.599   0.681   0.908  3.0985  2.2921 -1.7946
  817MOL0     H12689   5.499   0.785   0.643 -0.1298 -1.0588 -0.7020
  817MOL0     H12690   5.492   0.872   0.798 -4.1200 -1.6727 -1.6727
  817MOL0     H12691   5.757   0.775   0.702 -0.9064 -0.4584 -0.7013
  817MOL0     H12692   5.731   0.874   0.834  2.3961 -2.3759 -0.0857
  817MOL0     H12693   5.792   1.019   0.641 -1.0437  2.4509  1.2196
  817MOL0     H12694   5.702   0.919   0.539  0.6606  1.4317 -0.0735
  817MOL0     H12695   5.591   1.172   0.809  1.6446 -1.6846 -0.7842
  817MOL0     H12696   5.273   1.344   0.646  1.9401  0.9474 -2.0213
  817MOL0     H12697   5.431   1.410   0.699 -0.5714  2.2471  0.1693
  817MOL0     H12698   5.257   1.221   0.873 -0.3973 -1.4709 -0.7626
  817MOL0     H12699   5.421   1.297   0.891 -0.2658 -2.7542 -2.5233
  817MOL0     H12700   5.142   1.427   0.837 -0.8760  1.0630  0.3959
  817MOL0     H12701   5.214   1.428   0.994 -0.3594 -3.3943  0.8129
  817MOL0     H12702   5.313   1.584   0.754  2.3083 -2.5207  0.1620
  817MOL0     H12703   5.218   1.631   0.894 -0.4118  0.3331 -1.3360
  817MOL0     H12704   5.403   1.748   1.166  0.9272  0.9030  1.6106
  817MOL0     H12705   5.539   2.070   1.248  1.0853 -0.3086 -0.4347
  817MOL0     H12706   5.429   1.937   1.292 -0.7659  1.1876 -0.5897
  817MOL0     H12707   5.367   2.075   1.199  0.8150  1.7753  0.8348
  817MOL0     H12708   5.419   2.446   1.135  0.0046  0.6622 -1.6682
  817MOL0     H12709   5.540   2.674   1.185  2.1284  1.7267  1.4353
  817MOL0     H12710   5.662   2.830   1.250 -0.9114 -0.6546  2.0932
  817MOL0     H12711   5.766   2.731   1.351  0.1870 -0.5503 -0.2810
  817MOL0     H12712   5.866   2.933   1.147  1.9301 -0.7991 -0.4752
  817MOL0     H12713   5.842   2.986   1.317 -0.4793  0.4152 -1.5130
  817MOL0     H12714   6.051   2.961   1.312 -1.9518  0.6831 -0.4063
  817MOL0     H12715   6.058   2.811   1.208  0.1770 -3.0891  2.1222
  817MOL0     H12716   5.965   2.681   1.407  0.5320 -0.4941  0.0967
  817MOL0     H12717   5.957   2.838   1.484 -0.7099 -1.6007  1.5116
  817MOL0     H12718   6.228   2.829   1.422 -1.1692  0.8387  0.8621
  817MOL0     H12719   6.176   2.725   1.561  0.2170  1.5774  0.6577
  817MOL0     H12720   6.318   2.606   1.434  1.1531  4.1863 -2.0972
  817MOL0     H12721   6.256   2.635   1.278 -2.0939  1.1490 -0.7596
  817MOL0     H12722   6.056   2.501   1.322  0.1648  3.1019  0.6428
  817MOL0     H12723   6.090   2.501   1.496  0.6561  0.6463  1.2726
  817MOL0     H12724   6.150   2.300   1.434  1.1024 -0.1317  1.5046
  817MOL0     H12725   6.310   2.379   1.432 -0.7338  0.8342  0.4736
  817MOL0     H12726   5.894   2.518   1.011  0.3321 -1.2401 -2.3859
  817MOL0     H12727   5.770   2.292   0.974 -2.5725 -0.2773 -3.3239
  817MOL0     H12728   5.610   1.952   0.768 -0.0138 -1.4944  0.3222
  817MOL0     H12729   5.507   1.710   0.773  1.5876 -2.0781  1.6965
  817MOL0     H12730   4.986   0.326   1.015  0.3156  1.1689 -0.8843
  817MOL0     H12731   4.767   0.205   1.038  0.6026 -2.4260  1.6648
  817MOL0     H12732   4.467   0.049   1.297  3.1512 -0.7025 -1.7993
  817MOL0     H12733   4.318  -0.137   1.278 -0.7238 -0.4455 -0.1417
  817MOL0     H12734   4.187  -0.254   0.934  4.4596  0.5744  0.8593
  817MOL0     H12735   4.281  -0.312   1.064  1.9634  4.0070 -0.2203
  817MOL0     H12736   4.042  -0.400   1.167  0.3291  0.1885 -1.0298
  817MOL0     H12737   4.122  -0.491   1.061 -0.4452 -0.2905  0.0938
  817MOL0     H12738   3.990  -0.388   0.856  0.7942 -1.6935 -0.5696
  817MOL0     H12739   3.902  -0.488   0.963 -2.3790  1.1519 -1.6959
  817MOL0     H12740   3.895  -0.243   1.095  1.9986 -1.8554  0.5019
  817MOL0     H12741   3.770  -0.315   0.996  0.5775 -1.6392  2.0263
  817MOL0     H12742   3.912  -0.028   0.725 -3.0668 -1.0549 -0.6874
  817MOL0     H12743   4.133   0.027   0.932 -0.7665  0.6086 -0.1396
  817MOL0     H12744   4.292   0.344   0.946 -0.2165  0.1923 -0.5295
  817MOL0     H12745   4.356   0.217   0.827  0.4596 -0.8053  0.9908
  817MOL0     H12746   4.182   0.244   0.862  0.0723 -1.7628  0.3954
  818MOL0     O12747   4.488   0.345  11.260  0.0755  0.1749 -0.0340
  818MOL0     C12748   4.394   0.348  11.183 -0.1349  0.3003  0.2356
  818MOL0     O12749   4.402   0.274  11.062 -0.4502 -0.9890  0.2719
  818MOL0     C12750   4.526   0.236  11.013  0.2795  0.1146 -0.5206
  818MOL0     C12751   4.624   0.330  10.964 -0.5060  0.0572 -0.0959
  818MOL0     C12752   4.735   0.291  10.895  0.0483 -0.6001 -0.1508
  818MOL0     C12753   4.752   0.154  10.860  0.1574  0.0651 -0.2581
  818MOL0     O12754   4.870   0.135  10.788 -0.6182 -0.8508 -0.0883
  818MOL0     C12755   4.904   0.004  10.749 -0.7396 -0.1691 -0.9322
  818MOL0     C12756   4.910   0.011  10.596 -0.0472  0.0585 -0.9692
  818MOL0     C12757   4.959  -0.118  10.532  0.4262 -0.7145 -0.8463
  818MOL0     C12758   4.978  -0.113  10.380 -0.2632 -0.1973 -0.2739
  818MOL0     C12759   5.028  -0.244  10.313  0.3460  0.3943 -0.0108
  818MOL0     C12760   4.934  -0.357  10.337  0.2281 -1.2747  0.3676
  818MOL0     C12761   4.959  -0.465  10.227 -0.5656  0.1613  0.2652
  818MOL0     C12762   4.915  -0.607  10.257  0.5402  0.2865 -0.2281
  818MOL0     N12763   4.943  -0.691  10.140 -0.1049  0.2643  0.3536
  818MOL0     C12764   5.077  -0.738  10.112  1.1569  0.3790 -0.4093
  818MOL0     C12765   5.077  -0.759   9.973 -1.4761  0.8698  0.2308
  818MOL0     C12766   5.198  -0.811   9.908  0.3115 -0.2712  0.0458
  818MOL0     C12767   5.201  -0.791   9.750  0.6526 -0.5005 -0.1085
  818MOL0     C12768   5.291  -0.675   9.704 -0.0731  0.0907  0.0160
  818MOL0     C12769   5.261  -0.535   9.771  0.5706  0.2598  0.2874
  818MOL0     O12770   5.346  -0.435   9.721  0.1189 -0.1846  0.5129
  818MOL0     C12771   5.429  -0.384   9.814 -0.2322 -0.5339  0.3326
  818MOL0     C12772   5.408  -0.254   9.857  0.4419 -0.6738  0.4056
  818MOL0     C12773   5.499  -0.194   9.953  0.4524 -0.2815  0.0699
  818MOL0     C12774   5.453  -0.063  10.007  0.2591 -0.7515 -0.7163
  818MOL0     C12775   5.629  -0.253   9.977  0.5002 -0.8664 -0.3449
  818MOL0     C12776   5.726  -0.188  10.068  0.0459 -0.0769  0.3037
  818MOL0     O12777   5.746  -0.051  10.056 -0.6785 -0.5360  0.1041
  818MOL0     C12778   5.805   0.013  10.157  0.5890  0.1992 -0.2012
  818MOL0     C12779   5.732   0.046  10.265 -0.0292  0.2806 -0.5879
  818MOL0     C12780   5.789   0.114  10.370  0.3690  0.4977  1.2718
  818MOL0     C12781   5.929   0.148  10.369  0.1479  0.2808  0.3966
  818MOL0     O12782   6.010   0.205  10.458  0.6323 -0.5760 -0.1438
  818MOL0     C12783   5.961   0.289  10.568  0.5024  0.1990  0.2147
  818MOL0     C12784   6.040   0.415  10.599 -0.8438  0.8272  0.5763
  818MOL0     C12785   6.184   0.366  10.606 -0.4036 -1.2204 -0.4597
  818MOL0     C12786   6.264   0.499  10.595 -0.0829  0.5114  0.1708
  818MOL0     C12787   6.401   0.487  10.664 -0.1944 -0.0932  0.4232
  818MOL0     C12788   6.478   0.612  10.624 -0.0287 -0.7869 -0.5820
  818MOL0     C12789   6.438   0.743  10.695  0.3603  0.1893 -0.3460
  818MOL0     C12790   6.500   0.855  10.611 -0.8049 -0.2303  0.4156
  818MOL0    Cl12791   6.378   0.893  10.483 -0.2443 -0.1129  0.2580
  818MOL0     C12792   6.006   0.094  10.255  0.1485 -0.4407 -0.2317
  818MOL0     C12793   5.936   0.036  10.148  0.8141 -0.9261  1.3724
  818MOL0     O12794   5.792  -0.263  10.142  0.5016  0.5671  0.4689
  818MOL0     C12795   5.641  -0.383   9.934 -0.4416 -0.7630  1.1159
  818MOL0     C12796   5.550  -0.453   9.856 -0.4301 -0.6256 -0.3240
  818MOL0     N12797   4.949  -0.733   9.922  0.2597 -0.9771  0.4801
  818MOL0     N12798   4.873  -0.695  10.022  0.6905  0.3223  0.1952
  818MOL0     C12799   4.647   0.064  10.890 -0.7892 -0.3352 -0.1357
  818MOL0     C12800   4.544   0.103  10.972  0.8521  0.5296  0.5699
  818MOL0     C12801   4.269   0.420  11.229  0.3697  0.1625  0.3526
  818MOL0     C12802   4.156   0.411  11.141 -0.1819  0.2402  1.0512
  818MOL0     C12803   4.032   0.476  11.176 -0.6151  0.5975 -0.3324
  818MOL0     C12804   4.019   0.544  11.300  0.5799  1.3215 -0.1413
  818MOL0     O12805   3.886   0.582  11.336 -0.1212  0.4747 -0.5177
  818MOL0     C12806   3.878   0.723  11.383  0.2004  0.7312 -0.3413
  818MOL0     C12807   3.734   0.749  11.437  0.1674  1.3660 -0.3745
  818MOL0     C12808   3.634   0.764  11.327  0.7685 -0.8516 -0.1725
  818MOL0     C12809   3.640   0.886  11.248 -0.0373 -0.2709  1.2638
  818MOL0     C12810   3.731   0.878  11.130  0.3568  0.5892  0.3584
  818MOL0     C12811   3.785   0.843  11.023 -0.0456  0.1989  0.2413
  818MOL0     C12812   4.121   0.540  11.391 -0.1275  0.1223 -0.1275
  818MOL0     C12813   4.242   0.478  11.361  1.4674 -0.8315 -0.8204
  818MOL0     C12814   4.352   0.493  11.466 -0.8963  0.8965  0.1667
  818MOL0     H12815   4.593   0.434  10.974  1.0265  0.7197 -1.7539
  818MOL0     H12816   4.807   0.363  10.858 -0.1916 -1.1730 -1.7827
  818MOL0     H12817   4.830  -0.072  10.779  1.0248 -1.6955 -0.2425
  818MOL0     H12818   5.004  -0.030  10.777 -0.5687  1.1890  0.2203
  818MOL0     H12819   4.809   0.040  10.566 -0.1456 -1.9043 -2.7554
  818MOL0     H12820   4.988   0.085  10.577  1.2951 -0.9127  0.5342
  818MOL0     H12821   5.050  -0.156  10.578  0.9303  0.5081 -0.7962
  818MOL0     H12822   4.888  -0.199  10.550  3.6380 -3.3002  1.1620
  818MOL0     H12823   4.881  -0.088  10.338 -0.6940  0.1557  0.8974
  818MOL0     H12824   5.039  -0.026  10.353  2.2732 -1.0258  2.2748
  818MOL0     H12825   5.131  -0.269  10.341 -0.3370 -1.4098  1.0417
  818MOL0     H12826   5.037  -0.217  10.208 -0.5044  4.4374  0.7556
  818MOL0     H12827   4.943  -0.383  10.443  1.3619  3.9299  1.8084
  818MOL0     H12828   4.832  -0.322  10.323  0.2045 -0.5399  2.1860
  818MOL0     H12829   5.068  -0.466  10.214 -0.6973 -1.1570 -0.9252
  818MOL0     H12830   4.909  -0.429  10.136  0.2798  0.0903 -0.2429
  818MOL0     H12831   4.974  -0.653  10.337  0.8201 -2.5260 -1.9121
  818MOL0     H12832   4.807  -0.621  10.266 -0.0070  1.6862 -3.4005
  818MOL0     H12833   5.163  -0.758  10.175  0.6424  0.8545  0.4697
  818MOL0     H12834   5.214  -0.918   9.924  3.0759 -0.3419 -2.4026
  818MOL0     H12835   5.281  -0.753   9.952  0.4702  0.1794 -0.8209
  818MOL0     H12836   5.240  -0.883   9.707  0.4007  0.7590 -3.2930
  818MOL0     H12837   5.096  -0.782   9.720  0.6826 -1.6893 -0.6196
  818MOL0     H12838   5.394  -0.695   9.734  0.2402 -0.6950 -1.4605
  818MOL0     H12839   5.278  -0.659   9.596  0.0677 -3.6152 -0.6768
  818MOL0     H12840   5.159  -0.521   9.734  0.5665  0.2181  0.2816
  818MOL0     H12841   5.259  -0.538   9.880 -2.1291  0.4687  0.3118
  818MOL0     H12842   5.319  -0.201   9.826 -0.6665 -0.6770  3.3413
  818MOL0     H12843   5.350  -0.069  10.042  0.5451 -1.6841 -0.0068
  818MOL0     H12844   5.463   0.018   9.934 -0.8042  0.3170  0.2837
  818MOL0     H12845   5.512  -0.032  10.094 -0.9579 -1.3591  0.3370
  818MOL0     H12846   5.624   0.032  10.266  0.0791 -0.6835 -1.0157
  818MOL0     H12847   5.724   0.126  10.456 -1.3129 -4.6091  1.0660
  818MOL0     H12848   5.865   0.335  10.541  1.6654  2.7946  0.1954
  818MOL0     H12849   5.945   0.234  10.661 -2.3447  1.3891  0.5380
  818MOL0     H12850   6.037   0.471  10.505 -1.7767  0.0727  0.1404
  818MOL0     H12851   6.011   0.474  10.686 -1.4182  2.2875 -0.5508
  818MOL0     H12852   6.210   0.306  10.518  0.2546 -0.0129 -1.1033
  818MOL0     H12853   6.215   0.312  10.697 -0.0336  0.0444  0.1843
  818MOL0     H12854   6.210   0.582  10.641  0.7748  1.6029 -0.7552
  818MOL0     H12855   6.276   0.513  10.487 -3.2428 -3.6267 -0.9831
  818MOL0     H12856   6.392   0.473  10.772 -0.1927 -0.0247  0.4317
  818MOL0     H12857   6.456   0.401  10.624  1.8145  1.7556 -1.0097
  818MOL0     H12858   6.479   0.624  10.516 -0.3208 -1.3397 -0.6510
  818MOL0     H12859   6.584   0.588  10.637  0.1988  0.0542 -0.8075
  818MOL0     H12860   6.475   0.739  10.798 -0.5619  2.6054  0.1438
  818MOL0     H12861   6.329   0.758  10.694  0.0782 -1.5969 -0.8395
  818MOL0     H12862   6.596   0.829  10.565 -1.0571  1.4603 -1.1827
  818MOL0     H12863   6.513   0.942  10.676 -1.2425 -1.1508  1.7855
  818MOL0     H12864   6.114   0.107  10.250  0.1729 -0.5772 -0.0541
  818MOL0     H12865   5.976   0.005  10.052 -0.8980 -1.4993  0.8204
  818MOL0     H12866   5.739  -0.426   9.949  0.1805  0.3083  0.2840
  818MOL0     H12867   5.568  -0.551   9.813 -1.6579 -1.2553  0.5453
  818MOL0     H12868   4.655  -0.040  10.859 -0.8671  0.1784 -2.0588
  818MOL0     H12869   4.458   0.036  10.968 -0.4049  2.0562 -3.7247
  818MOL0     H12870   4.154   0.370  11.040 -0.6190 -0.5988  1.3893
  818MOL0     H12871   3.950   0.491  11.107 -0.6038 -0.3476 -0.5690
  818MOL0     H12872   3.953   0.741  11.460 -0.6402  1.2612  0.3824
  818MOL0     H12873   3.898   0.799  11.307 -0.0820  1.3199  0.1685
  818MOL0     H12874   3.735   0.833  11.507 -2.5698  1.0033  0.1921
  818MOL0     H12875   3.717   0.661  11.500  1.2599  1.4157  0.0255
  818MOL0     H12876   3.645   0.680  11.257  0.7656  1.0236 -2.5286
  818MOL0     H12877   3.534   0.741  11.366  1.5247 -3.1947  0.5712
  818MOL0     H12878   3.683   0.967  11.307 -0.7446  1.7527 -0.8311
  818MOL0     H12879   3.539   0.916  11.219 -0.3406 -3.1359 -1.2326
  818MOL0     H12880   3.832   0.803  10.935 -3.2448 -0.9277 -1.1101
  818MOL0     H12881   4.108   0.596  11.483 -2.0297  0.9162 -0.8176
  818MOL0     H12882   4.307   0.541  11.554 -0.8440  1.5240 -0.1437
  818MOL0     H12883   4.395   0.394  11.482  1.2493  1.5981 -0.9193
  818MOL0     H12884   4.437   0.549  11.426  1.7561 -2.5375  0.4772
  819MOL0     O12885   1.757   0.984  10.049 -0.1131 -0.5532 -0.1171
  819MOL0     C12886   1.838   1.016  10.132  0.6260  0.1073 -0.4841
  819MOL0     O12887   1.825   1.027  10.265 -0.6721 -0.7669 -0.0772
  819MOL0     C12888   1.708   1.062  10.330  0.9134  0.2313 -0.5375
  819MOL0     C12889   1.696   1.046  10.470  0.3714  0.2928  0.5014
  819MOL0     C12890   1.587   1.096  10.542  0.8481  0.4311  0.3693
  819MOL0     C12891   1.488   1.176  10.475  0.4516  0.3767  0.0717
  819MOL0     O12892   1.372   1.236  10.529  0.6121  0.1094  0.5566
  819MOL0     C12893   1.350   1.193  10.667  0.4888 -0.1255  0.5443
  819MOL0     C12894   1.208   1.238  10.699  0.8647 -1.0563  1.3339
  819MOL0     C12895   1.174   1.186  10.846 -0.1205  0.2183  0.3628
  819MOL0     C12896   1.028   1.220  10.878  0.0330  0.1631  0.6622
  819MOL0     C12897   0.981   1.187  11.018 -0.1751 -0.5260  0.5087
  819MOL0     C12898   0.832   1.197  11.032 -0.3466 -0.2304  0.3907
  819MOL0     C12899   0.779   1.161  11.168 -0.1624  0.0203 -0.2545
  819MOL0     C12900   0.669   1.254  11.220  0.1273 -0.2129 -0.1004
  819MOL0     N12901   0.548   1.252  11.137  0.4636  0.2559 -0.0872
  819MOL0     C12902   0.485   1.142  11.097  0.4281 -1.0916  0.0733
  819MOL0     C12903   0.377   1.186  11.029 -0.9642  1.1334 -0.4788
  819MOL0     C12904   0.283   1.098  10.952 -0.0990  0.7936 -0.6094
  819MOL0     C12905   0.152   1.127  11.014  0.7089  0.3980 -0.3436
  819MOL0     C12906   0.056   1.215  10.931 -0.2099 -0.2533 -0.5550
  819MOL0     C12907  -0.079   1.256  10.997  0.7590  0.0869  0.2844
  819MOL0     O12908  -0.179   1.150  11.005  0.5150 -0.3375  0.5994
  819MOL0     C12909  -0.310   1.171  11.023 -0.9670 -0.0228  0.8263
  819MOL0     C12910  -0.400   1.061  11.014 -0.6265 -1.0919 -0.2987
  819MOL0     C12911  -0.537   1.077  11.034 -0.2959  0.9301  0.1525
  819MOL0     C12912  -0.614   0.947  10.993  0.6735  0.4594 -0.3273
  819MOL0     C12913  -0.594   1.203  11.072 -1.2826 -0.8342 -0.0604
  819MOL0     C12914  -0.739   1.220  11.089 -0.1194  0.1249 -0.0830
  819MOL0     O12915  -0.836   1.124  11.048 -0.2515  0.8440 -0.2341
  819MOL0     C12916  -0.974   1.151  11.046 -0.0633  0.4005  1.0760
  819MOL0     C12917  -1.042   1.279  11.040 -0.1751  0.4739 -0.9281
  819MOL0     C12918  -1.181   1.265  11.053  0.6621  0.0590 -0.7593
  819MOL0     C12919  -1.254   1.148  11.056 -1.7692  1.3330 -0.2847
  819MOL0     O12920  -1.387   1.167  11.072 -0.1345  0.4607  0.6567
  819MOL0     C12921  -1.468   1.047  11.063 -0.1830  0.0494 -0.5430
  819MOL0     C12922  -1.616   1.089  11.073  0.2741  0.1768  0.4902
  819MOL0     C12923  -1.670   1.146  10.944 -0.1270  0.7552  0.8027
  819MOL0     C12924  -1.801   1.222  10.953  0.5686 -0.4420  0.1333
  819MOL0     C12925  -1.838   1.287  10.816 -0.8509  0.2194  0.4577
  819MOL0     C12926  -1.987   1.328  10.819  0.4283 -0.0253 -0.0933
  819MOL0     C12927  -2.030   1.389  10.683 -0.5665 -0.5651 -0.2389
  819MOL0     C12928  -2.181   1.419  10.694 -0.6057 -0.1714 -0.5555
  819MOL0    Cl12929  -2.275   1.272  10.711 -0.1257 -0.2121 -0.3902
  819MOL0     C12930  -1.178   1.028  11.058  0.7000 -0.3056  0.0947
  819MOL0     C12931  -1.044   1.026  11.049  0.1129 -0.8594 -0.2236
  819MOL0     O12932  -0.762   1.330  11.132  0.0431 -0.5975  0.2552
  819MOL0     C12933  -0.501   1.308  11.092 -0.6497 -0.7177 -0.7039
  819MOL0     C12934  -0.366   1.296  11.072 -0.3209  0.3384 -0.0896
  819MOL0     N12935   0.368   1.325  11.044 -0.9642  0.0502  0.6209
  819MOL0     N12936   0.479   1.363  11.104  0.4852  0.0357  0.2354
  819MOL0     C12937   1.502   1.205  10.346 -0.2109  0.1560  0.6792
  819MOL0     C12938   1.603   1.145  10.275 -0.0551  0.2308 -0.5502
  819MOL0     C12939   1.982   1.034  10.079  0.5218  0.3461  1.3992
  819MOL0     C12940   2.022   0.947   9.978 -0.0744 -0.2663  0.6472
  819MOL0     C12941   2.152   0.954   9.921  0.4377  0.1457  0.2649
  819MOL0     C12942   2.249   1.041   9.971 -0.0727 -0.2048 -0.3933
  819MOL0     O12943   2.386   1.060   9.935  0.6870  0.2005  0.5733
  819MOL0     C12944   2.447   0.962   9.854 -0.7499  0.8419  0.6084
  819MOL0     C12945   2.407   0.990   9.710 -0.5251  0.4796 -0.6213
  819MOL0     C12946   2.462   1.123   9.661  0.2385 -0.0798 -0.1871
  819MOL0     C12947   2.440   1.135   9.512 -0.7874 -0.5779 -0.4761
  819MOL0     C12948   2.304   1.142   9.467 -0.0257 -0.0037  0.4427
  819MOL0     C12949   2.186   1.148   9.432 -0.2547 -0.2481  0.4477
  819MOL0     C12950   2.211   1.120  10.076  0.0270 -0.9330 -0.5222
  819MOL0     C12951   2.081   1.124  10.123 -0.1419  0.0046 -0.1757
  819MOL0     C12952   2.052   1.219  10.233  0.6768 -0.6668  0.0879
  819MOL0     H12953   1.778   0.983  10.504 -0.9152 -0.7707  1.7437
  819MOL0     H12954   1.569   1.076  10.647 -2.0821  0.8169  0.0262
  819MOL0     H12955   1.415   1.240  10.740  1.2957 -0.8107  0.2801
  819MOL0     H12956   1.350   1.084  10.678  0.0887  0.0095  2.0497
  819MOL0     H12957   1.202   1.347  10.690 -0.9540 -1.1773  0.8183
  819MOL0     H12958   1.125   1.188  10.649  0.8793 -0.4737  0.7057
  819MOL0     H12959   1.177   1.078  10.835 -2.6904  0.1024  0.1530
  819MOL0     H12960   1.233   1.224  10.930 -0.9649  1.8555  0.2634
  819MOL0     H12961   1.029   1.329  10.867  2.8085 -0.0397 -2.6552
  819MOL0     H12962   0.968   1.167  10.804  2.0845  0.1206 -1.0761
  819MOL0     H12963   1.033   1.239  11.099 -2.7408 -0.3261  2.1274
  819MOL0     H12964   0.998   1.080  11.038 -2.9872 -1.1996 -0.2783
  819MOL0     H12965   0.800   1.300  11.020 -3.0288 -0.8583  1.4969
  819MOL0     H12966   0.778   1.134  10.961  1.1532  1.0204 -1.9797
  819MOL0     H12967   0.865   1.168  11.235 -0.6980  0.8720  0.3592
  819MOL0     H12968   0.744   1.058  11.163  0.2303 -0.2676  1.9972
  819MOL0     H12969   0.643   1.225  11.323  0.8318  0.5854  0.3146
  819MOL0     H12970   0.694   1.360  11.221  0.3213 -0.2579  0.7814
  819MOL0     H12971   0.514   1.037  11.103 -1.5871 -1.7805 -1.1647
  819MOL0     H12972   0.305   0.993  10.976  0.8307  1.3235  0.9499
  819MOL0     H12973   0.273   1.119  10.845 -5.3664 -0.6757 -0.7230
  819MOL0     H12974   0.099   1.034  11.037  1.0419 -0.0370 -1.3068
  819MOL0     H12975   0.161   1.164  11.117  0.2294 -4.4976  1.7526
  819MOL0     H12976   0.119   1.304  10.923  1.2299 -1.0798  0.8950
  819MOL0     H12977   0.029   1.180  10.831 -0.6263  2.3038 -1.3939
  819MOL0     H12978  -0.065   1.306  11.094 -3.9993  1.4904  0.4888
  819MOL0     H12979  -0.116   1.331  10.927 -2.3335 -0.0236  1.6452
  819MOL0     H12980  -0.357   0.965  10.989  0.1466 -1.2660  1.5187
  819MOL0     H12981  -0.540   0.878  10.951  3.2385  1.3281  2.4424
  819MOL0     H12982  -0.692   0.958  10.917 -0.9370 -3.6843  0.4321
  819MOL0     H12983  -0.656   0.896  11.080  2.0661 -0.1428  0.0100
  819MOL0     H12984  -0.990   1.374  11.036 -1.2590  1.1172 -0.1197
  819MOL0     H12985  -1.238   1.357  11.067 -0.2947 -0.3025 -2.1066
  819MOL0     H12986  -1.458   0.982  10.976 -1.4465 -1.4723  0.4018
  819MOL0     H12987  -1.450   0.999  11.160  1.8208  2.4448  0.3914
  819MOL0     H12988  -1.680   1.010  11.113  1.6748 -0.9385  0.5898
  819MOL0     H12989  -1.623   1.174  11.141  2.1627  2.2310 -1.6759
  819MOL0     H12990  -1.679   1.069  10.867 -0.8925  2.3649 -0.7760
  819MOL0     H12991  -1.600   1.222  10.907 -0.4275  0.8576  0.4403
  819MOL0     H12992  -1.806   1.301  11.029  0.6550  2.2597 -2.4744
  819MOL0     H12993  -1.890   1.164  10.977 -1.2673  1.7861 -0.9398
  819MOL0     H12994  -1.783   1.381  10.801  0.4010 -0.9771 -4.1892
  819MOL0     H12995  -1.804   1.215  10.740  2.2371  0.9352  1.0250
  819MOL0     H12996  -2.019   1.400  10.895  1.5979 -1.4307  1.8034
  819MOL0     H12997  -2.046   1.239  10.839 -0.1453 -0.4513 -3.1764
  819MOL0     H12998  -2.016   1.316  10.602 -0.8980 -3.8455  2.4275
  819MOL0     H12999  -1.983   1.486  10.665 -1.1274 -0.0380  1.0129
  819MOL0     H13000  -2.220   1.465  10.602 -2.2324  1.4531  0.8603
  819MOL0     H13001  -2.206   1.485  10.778  2.5931  0.6252 -0.1172
  819MOL0     H13002  -1.219   0.931  11.083  0.3901 -0.6599 -1.6783
  819MOL0     H13003  -0.997   0.928  11.057 -1.0256 -1.3637  0.4975
  819MOL0     H13004  -0.539   1.404  11.126 -0.6877 -0.1399 -2.3341
  819MOL0     H13005  -0.310   1.388  11.085  0.2379 -0.2477  2.0581
  819MOL0     H13006   1.419   1.257  10.298  1.3780 -0.9852 -3.8301
  819MOL0     H13007   1.602   1.183  10.173 -0.5748 -3.0958 -1.9127
  819MOL0     H13008   1.960   0.863   9.950 -0.7826  0.8136 -1.2341
  819MOL0     H13009   2.179   0.883   9.844  0.7686 -1.1052  1.4848
  819MOL0     H13010   2.556   0.961   9.865 -0.5292 -1.7635 -1.0493
  819MOL0     H13011   2.426   0.858   9.882  4.0644 -0.3866  0.5137
  819MOL0     H13012   2.299   0.983   9.696 -0.6790  1.9797 -0.2907
  819MOL0     H13013   2.454   0.911   9.650  1.2653  1.6512 -0.8285
  819MOL0     H13014   2.404   1.203   9.708 -0.2045 -1.5052  1.8199
  819MOL0     H13015   2.569   1.120   9.681  0.4047 -0.6471 -1.1109
  819MOL0     H13016   2.488   1.050   9.463 -1.8561  0.0488 -2.7059
  819MOL0     H13017   2.489   1.226   9.477  4.8332 -2.8433  0.4946
  819MOL0     H13018   2.085   1.155   9.398  0.8383  0.9190 -3.0625
  819MOL0     H13019   2.293   1.185  10.107  0.2763  0.3860 -3.6462
  819MOL0     H13020   1.953   1.262  10.218  1.1453  0.1489 -0.7270
  819MOL0     H13021   2.067   1.167  10.328  3.0058 -0.3211 -0.0236
  819MOL0     H13022   2.121   1.304  10.231 -0.9180  0.7029 -2.8433
  820MOL0     O13023   3.098   9.728   6.608 -0.8359  0.0898  0.0690
  820MOL0     C13024   3.152   9.782   6.511  0.1640 -1.2587 -0.2873
  820MOL0     O13025   3.119   9.763   6.379 -0.5332  0.2341  0.6891
  820MOL0     C13026   2.992   9.718   6.338  0.2224  0.1651 -1.0140
  820MOL0     C13027   2.990   9.701   6.203 -0.3421  0.5880  1.4139
  820MOL0     C13028   2.874   9.660   6.138  0.6895 -0.4182 -0.5051
  820MOL0     C13029   2.753   9.661   6.208 -0.3955 -0.4369 -0.2041
  820MOL0     O13030   2.636   9.643   6.136  0.0481  0.4703 -0.4772
  820MOL0     C13031   2.516   9.614   6.204 -0.4695  0.4401 -0.6686
  820MOL0     C13032   2.413   9.560   6.107  1.1026 -0.1273  0.5648
  820MOL0     C13033   2.461   9.434   6.028  0.2835 -0.1052  0.0414
  820MOL0     C13034   2.355   9.360   5.951  0.3932  0.7048  0.7019
  820MOL0     C13035   2.415   9.248   5.876 -0.2192  0.2751  0.2183
  820MOL0     C13036   2.313   9.196   5.778 -0.5661  0.2194 -0.4595
  820MOL0     C13037   2.354   9.054   5.720 -0.2169 -0.2078  0.2699
  820MOL0     C13038   2.448   9.057   5.603 -0.2955  0.7696  0.2426
  820MOL0     N13039   2.576   9.122   5.647 -0.2208  0.1555 -0.7554
  820MOL0     C13040   2.650   9.207   5.566  0.3610 -0.5195  0.2965
  820MOL0     C13041   2.760   9.238   5.633  0.3760 -0.8768 -0.5608
  820MOL0     C13042   2.862   9.346   5.598  0.8525 -0.7321  0.3385
  820MOL0     C13043   2.973   9.284   5.514 -0.3183  0.2022 -0.0314
  820MOL0     C13044   3.038   9.388   5.427  0.1741 -0.0370 -0.8548
  820MOL0     C13045   2.950   9.444   5.313 -1.4281 -0.9661  0.3103
  820MOL0     O13046   2.870   9.555   5.353  0.4785  0.2678  0.1557
  820MOL0     C13047   2.922   9.681   5.338  0.4780 -0.0694  0.4351
  820MOL0     C13048   2.823   9.783   5.358  0.0099  0.0577 -0.1635
  820MOL0     C13049   2.864   9.915   5.338  0.0436 -0.5903 -0.6038
  820MOL0     C13050   2.756  10.016   5.347  1.0583  0.4537 -0.5135
  820MOL0     C13051   3.003   9.945   5.322 -1.0660 -0.7828  0.5689
  820MOL0     C13052   3.066  10.086   5.293  0.2769  0.5702  0.3913
  820MOL0     O13053   3.204  10.100   5.287  0.9535  0.2241 -0.5640
  820MOL0     C13054   3.245  10.213   5.236 -0.0085 -0.2142 -0.2081
  820MOL0     C13055   3.251  10.331   5.312  1.1769  0.7804 -0.1421
  820MOL0     C13056   3.275  10.458   5.263 -0.2703 -0.4231 -0.3086
  820MOL0     C13057   3.308  10.475   5.128  1.0468  0.3930 -0.1144
  820MOL0     O13058   3.345  10.595   5.089 -0.3179 -0.5802 -0.0839
  820MOL0     C13059   3.355  10.642   4.950 -1.0763 -0.2747 -0.4432
  820MOL0     C13060   3.406  10.782   4.940  0.3846  0.3847 -0.1728
  820MOL0     C13061   3.309  10.872   5.014 -0.0883 -0.2227  0.1143
  820MOL0     C13062   3.176  10.888   4.937 -0.4081 -0.0839 -0.2894
  820MOL0     C13063   3.078  10.988   5.006 -0.1616  0.4051 -1.3025
  820MOL0     C13064   2.942  10.979   4.934  0.0929 -0.9821 -0.6332
  820MOL0     C13065   2.821  10.986   5.032  0.1512  0.6883 -0.7219
  820MOL0     C13066   2.828  11.129   5.088  0.0866 -0.7332 -0.4631
  820MOL0    Cl13067   2.666  11.167   5.154  0.1184  0.2063 -0.2644
  820MOL0     C13068   3.307  10.362   5.049  0.9909  1.1792  0.1847
  820MOL0     C13069   3.267  10.236   5.102  0.6631 -0.5905  0.0212
  820MOL0     O13070   2.986  10.179   5.253  0.3788  0.4755 -0.4449
  820MOL0     C13071   3.098   9.842   5.313 -0.5216 -0.9445 -0.2330
  820MOL0     C13072   3.055   9.710   5.315 -0.1708  0.0630 -0.8281
  820MOL0     N13073   2.758   9.161   5.749 -0.2124  0.4394  0.4616
  820MOL0     N13074   2.654   9.090   5.757 -0.9581 -0.3975  0.4820
  820MOL0     C13075   2.758   9.692   6.341  0.2622 -0.1050 -0.1156
  820MOL0     C13076   2.871   9.706   6.412 -0.6153 -0.6638  0.5035
  820MOL0     C13077   3.283   9.851   6.523 -0.0921  0.2154  0.3618
  820MOL0     C13078   3.378   9.788   6.598 -0.4870 -0.7325 -0.4162
  820MOL0     C13079   3.507   9.837   6.600 -0.1092  0.3032 -0.6350
  820MOL0     C13080   3.549   9.938   6.517  0.0172  0.2198  0.0340
  820MOL0     O13081   3.678   9.974   6.537 -0.3240 -0.5757 -0.1456
  820MOL0     C13082   3.733  10.075   6.462 -0.6594  0.0726  0.0107
  820MOL0     C13083   3.691  10.210   6.500  1.0462 -0.5380 -0.9265
  820MOL0     C13084   3.770  10.257   6.628 -0.0690 -0.9588 -0.3896
  820MOL0     C13085   3.695  10.358   6.724 -0.4962  0.2660  0.0615
  820MOL0     C13086   3.688  10.493   6.668  0.9992 -0.6555 -1.2362
  820MOL0     C13087   3.702  10.610   6.635  0.3827 -0.3933 -0.6416
  820MOL0     C13088   3.452   9.994   6.430 -0.0688 -0.3931  0.8899
  820MOL0     C13089   3.318   9.955   6.438 -0.4179  0.3901  0.2550
  820MOL0     C13090   3.224  10.039   6.350 -0.2257 -0.3178  0.6423
  820MOL0     H13091   3.083   9.708   6.147  0.2790  1.7624  2.5589
  820MOL0     H13092   2.869   9.622   6.036 -1.5395 -2.1176  0.1403
  820MOL0     H13093   2.471   9.704   6.246 -0.6543  0.2196 -0.3952
  820MOL0     H13094   2.536   9.546   6.287  2.0357 -1.6150 -2.7563
  820MOL0     H13095   2.316   9.536   6.153  0.1689 -0.2212 -1.3279
  820MOL0     H13096   2.384   9.638   6.035  0.8766  0.7238  1.5470
  820MOL0     H13097   2.543   9.462   5.960  0.3988 -0.9366 -0.1682
  820MOL0     H13098   2.500   9.363   6.101 -0.0358  0.3316  0.6444
  820MOL0     H13099   2.284   9.316   6.021  1.5814  0.7833  2.0071
  820MOL0     H13100   2.301   9.424   5.880 -0.3988 -1.0093 -0.2950
  820MOL0     H13101   2.448   9.174   5.949 -1.0266  3.5850  4.3054
  820MOL0     H13102   2.502   9.289   5.824  0.7568  0.9479  2.2656
  820MOL0     H13103   2.219   9.188   5.833  0.9613 -1.6935  2.0970
  820MOL0     H13104   2.302   9.267   5.696  0.2231 -0.7408 -1.4335
  820MOL0     H13105   2.261   9.006   5.690 -0.1665  0.0158 -0.2604
  820MOL0     H13106   2.391   8.996   5.805 -0.8265 -2.6033 -1.0137
  820MOL0     H13107   2.460   8.949   5.585  0.9741  0.5922  1.8711
  820MOL0     H13108   2.397   9.094   5.514 -3.2415  1.7065  2.1578
  820MOL0     H13109   2.605   9.264   5.485 -1.2728  0.4304  1.8025
  820MOL0     H13110   2.914   9.383   5.687 -0.5946  0.7214  0.6352
  820MOL0     H13111   2.815   9.430   5.546  5.2401  0.9569 -1.3425
  820MOL0     H13112   3.045   9.224   5.569 -0.4708  1.0867  1.1577
  820MOL0     H13113   2.930   9.205   5.451  0.9166 -1.2871  0.9400
  820MOL0     H13114   3.073   9.467   5.494  1.5255 -2.0893  0.9940
  820MOL0     H13115   3.126   9.336   5.388 -1.0274 -0.3313 -3.3725
  820MOL0     H13116   3.007   9.474   5.224 -2.7182 -2.5880 -1.1395
  820MOL0     H13117   2.891   9.360   5.276 -1.7137 -1.3159  1.5424
  820MOL0     H13118   2.722   9.756   5.386  0.1472  0.2638  0.5515
  820MOL0     H13119   2.753  10.095   5.271 -3.3336  4.0053  2.7962
  820MOL0     H13120   2.760  10.070   5.442 -2.2994 -1.0695  0.6642
  820MOL0     H13121   2.660   9.963   5.346  0.9675  0.6210 -0.7499
  820MOL0     H13122   3.242  10.319   5.419  3.1525 -1.1097 -0.1064
  820MOL0     H13123   3.283  10.548   5.324  1.6776  0.7370 -2.1272
  820MOL0     H13124   3.418  10.573   4.894 -1.9220  1.8257 -4.3593
  820MOL0     H13125   3.258  10.633   4.901 -0.6000 -0.3123 -1.3958
  820MOL0     H13126   3.502  10.781   4.993 -0.0104  0.4712  0.5621
  820MOL0     H13127   3.427  10.812   4.837 -0.0417  1.0051 -0.0840
  820MOL0     H13128   3.351  10.973   5.025  0.5064 -0.3374 -0.9237
  820MOL0     H13129   3.280  10.830   5.110  0.6553 -1.4006 -0.1551
  820MOL0     H13130   3.126  10.791   4.936 -0.0684 -0.3038  1.4652
  820MOL0     H13131   3.194  10.921   4.834  1.3975 -1.5466 -0.5014
  820MOL0     H13132   3.060  10.953   5.109  2.1360 -2.1714 -1.6697
  820MOL0     H13133   3.119  11.088   5.015 -1.5122  1.0874 -2.4454
  820MOL0     H13134   2.928  10.883   4.885 -0.0445 -1.6367  0.6509
  820MOL0     H13135   2.932  11.053   4.854 -0.5231 -1.8616 -1.3812
  820MOL0     H13136   2.820  10.910   5.111  2.2255  0.1165 -1.1992
  820MOL0     H13137   2.732  10.966   4.972  0.7134 -2.5664 -0.6216
  820MOL0     H13138   2.843  11.207   5.013  0.7676 -0.3574  0.0574
  820MOL0     H13139   2.906  11.136   5.164 -2.1355  0.9844  1.8563
  820MOL0     H13140   3.326  10.374   4.943  3.8964 -0.9612  0.3543
  820MOL0     H13141   3.257  10.151   5.035 -1.1640 -1.4196  1.2627
  820MOL0     H13142   3.203   9.862   5.293 -1.0524  1.0158 -1.3340
  820MOL0     H13143   3.124   9.626   5.311 -0.0804 -0.0200  1.3830
  820MOL0     H13144   2.662   9.696   6.391  1.3777 -0.4214  2.1959
  820MOL0     H13145   2.877   9.728   6.518  2.0869  2.6527 -0.1625
  820MOL0     H13146   3.356   9.694   6.648  1.3412 -1.5380 -1.0449
  820MOL0     H13147   3.569   9.782   6.671  0.3817 -1.1265 -2.1209
  820MOL0     H13148   3.842  10.068   6.474 -0.5324 -2.9411 -1.7205
  820MOL0     H13149   3.716  10.045   6.358 -0.5470 -0.4063  0.1249
  820MOL0     H13150   3.583  10.206   6.520  1.0693  1.5304 -0.0987
  820MOL0     H13151   3.690  10.283   6.418 -0.1320  0.0706 -0.4030
  820MOL0     H13152   3.800  10.171   6.688  3.3109  0.7571  0.6831
  820MOL0     H13153   3.867  10.298   6.598 -0.5906  0.1953 -0.5637
  820MOL0     H13154   3.753  10.364   6.817 -2.4136  2.5827  1.1967
  820MOL0     H13155   3.596  10.320   6.748 -0.0407  0.7332  3.1402
  820MOL0     H13156   3.704  10.707   6.589  1.2000 -1.4305 -2.9097
  820MOL0     H13157   3.471  10.087   6.378 -1.6302 -0.6371 -0.2043
  820MOL0     H13158   3.201   9.978   6.262  0.0352 -0.0226  0.3701
  820MOL0     H13159   3.130  10.060   6.401  0.6568  1.8020  1.5013
  820MOL0     H13160   3.255  10.140   6.324 -1.1651  0.3259  1.9312
  821MOL0     O13161   9.665  10.574   9.822 -0.0494 -0.2169 -0.0812
  821MOL0     C13162   9.658  10.678   9.749  0.4427 -0.9513  0.0397
  821MOL0     O13163   9.614  10.684   9.621  0.0770 -0.2671 -0.1296
  821MOL0     C13164   9.603  10.575   9.539  0.9358 -0.3350 -0.0251
  821MOL0     C13165   9.646  10.588   9.403  0.4113  0.1771 -1.2180
  821MOL0     C13166   9.613  10.491   9.307 -0.2211 -1.2289 -0.1227
  821MOL0     C13167   9.537  10.382   9.351 -0.6998 -0.4172  0.2613
  821MOL0     O13168   9.492  10.275   9.282  0.9428  0.1973  0.6613
  821MOL0     C13169   9.537  10.253   9.148 -0.5275 -0.1350  0.1626
  821MOL0     C13170   9.460  10.134   9.093  0.2522 -0.8394 -1.0508
  821MOL0     C13171   9.517  10.007   9.155  0.4693  0.7435 -0.9449
  821MOL0     C13172   9.469   9.984   9.300 -0.6651 -0.0418  0.1647
  821MOL0     C13173   9.479   9.835   9.340  0.7318  0.3142 -0.2937
  821MOL0     C13174   9.613   9.766   9.322  0.1175 -0.7198  0.4161
  821MOL0     C13175   9.618   9.613   9.366 -0.2795  0.3225 -0.6361
  821MOL0     C13176   9.508   9.538   9.290 -0.0887  0.2266  0.8865
  821MOL0     N13177   9.517   9.392   9.304 -0.1743 -0.1151  0.1414
  821MOL0     C13178   9.496   9.319   9.420  0.0657 -0.2744 -0.5858
  821MOL0     C13179   9.503   9.189   9.386 -0.2798 -0.1357 -0.4394
  821MOL0     C13180   9.480   9.075   9.486 -0.4227  0.0450  1.1265
  821MOL0     C13181   9.606   9.064   9.573 -0.9135  0.4961 -0.5599
  821MOL0     C13182   9.715   8.973   9.523 -0.2924 -0.3616  0.0311
  821MOL0     C13183   9.841   8.961   9.602  1.1173  0.1166  0.0011
  821MOL0     O13184   9.953   8.944   9.513 -0.7100 -0.0128  0.1208
  821MOL0     C13185  10.072   8.896   9.559  0.2697  0.3415 -0.1454
  821MOL0     C13186  10.161   8.846   9.467  0.3245 -0.1877 -0.2442
  821MOL0     C13187  10.290   8.801   9.498  0.3160 -0.0129  0.2364
  821MOL0     C13188  10.385   8.761   9.388 -0.5063 -0.1412  0.3819
  821MOL0     C13189  10.330   8.802   9.632 -0.2670 -0.4253 -0.4966
  821MOL0     C13190  10.467   8.751   9.688  1.2521 -0.6591 -0.3008
  821MOL0     O13191  10.486   8.739   9.819  0.6517  0.2677 -0.5462
  821MOL0     C13192  10.603   8.691   9.868  0.0163 -0.5315 -0.7195
  821MOL0     C13193  10.625   8.548   9.875  1.0527 -0.1138 -0.7270
  821MOL0     C13194  10.750   8.502   9.923  0.5522 -0.1082 -1.0855
  821MOL0     C13195  10.848   8.598   9.965 -0.9914  0.5893 -0.3676
  821MOL0     O13196  10.961   8.569  10.023  0.5178 -0.6742  0.8087
  821MOL0     C13197  11.053   8.463   9.961  0.1415 -0.9366  0.4037
  821MOL0     C13198  11.057   8.336  10.039  1.5662 -0.0596  0.2658
  821MOL0     C13199  11.064   8.353  10.194  0.6333 -1.0094  0.6008
  821MOL0     C13200  11.097   8.217  10.257 -0.1082 -0.4448  0.2229
  821MOL0     C13201  11.063   8.211  10.398  0.3230 -0.4973 -0.3985
  821MOL0     C13202  11.114   8.331  10.479 -0.8892  0.6270  0.2631
  821MOL0     C13203  11.098   8.305  10.629  1.1607 -0.1519  0.1254
  821MOL0     C13204  11.177   8.395  10.732 -0.9336  1.0210 -0.2121
  821MOL0    Cl13205  11.148   8.342  10.908 -0.1242 -0.0662  0.1072
  821MOL0     C13206  10.820   8.733   9.962 -0.1731  0.0746 -1.2299
  821MOL0     C13207  10.695   8.784   9.922 -0.6563  0.0570  0.0873
  821MOL0     O13208  10.556   8.731   9.603 -0.0479  0.8608 -0.5679
  821MOL0     C13209  10.235   8.845   9.727 -1.0242 -0.0953  0.1821
  821MOL0     C13210  10.109   8.892   9.697 -0.4004 -0.7505  0.2687
  821MOL0     N13211   9.506   9.184   9.243  0.3512  0.5581  0.2218
  821MOL0     N13212   9.545   9.297   9.205  0.3372 -0.0647  1.1881
  821MOL0     C13213   9.515  10.368   9.490  0.5375  0.8392  0.8155
  821MOL0     C13214   9.532  10.464   9.584 -0.7620  0.1240 -0.3201
  821MOL0     C13215   9.681  10.809   9.816  0.0421 -0.2444  0.2310
  821MOL0     C13216   9.668  10.932   9.737  0.4745  0.9329 -0.2312
  821MOL0     C13217   9.682  11.060   9.797  0.4677 -0.3149  0.2134
  821MOL0     C13218   9.710  11.075   9.937 -0.5019 -0.1287 -0.0441
  821MOL0     O13219   9.724  11.206   9.984  0.5358  0.2201  0.3789
  821MOL0     C13220   9.778  11.208  10.116 -0.4529  0.4941  0.3225
  821MOL0     C13221   9.796  11.350  10.165  0.8179  0.2513  0.4013
  821MOL0     C13222   9.922  11.431  10.097  0.7666  0.1132 -0.4676
  821MOL0     C13223  10.048  11.428  10.187  0.4742 -0.1558 -0.1800
  821MOL0     C13224  10.155  11.511  10.124 -0.0806 -0.8003 -0.2903
  821MOL0     C13225  10.241  11.592  10.083 -0.3836  0.2443 -0.2236
  821MOL0     C13226   9.724  10.958  10.015  0.0308  0.0509  0.0321
  821MOL0     C13227   9.709  10.831   9.956 -0.2089  0.4601 -0.4228
  821MOL0     C13228   9.687  10.729  10.070  0.1681 -0.1145 -0.2973
  821MOL0     H13229   9.694  10.677   9.365 -0.7658 -0.5158 -4.7090
  821MOL0     H13230   9.654  10.501   9.207  1.4293 -0.5447  0.5872
  821MOL0     H13231   9.645  10.237   9.146 -0.8046 -2.2851 -1.1224
  821MOL0     H13232   9.522  10.347   9.094 -2.5424 -0.2289  0.4790
  821MOL0     H13233   9.356  10.159   9.119  1.0982 -0.5606  2.6709
  821MOL0     H13234   9.463  10.141   8.984 -2.8585  2.2901 -1.1068
  821MOL0     H13235   9.491   9.915   9.101 -1.7354 -0.2130  1.5511
  821MOL0     H13236   9.627  10.008   9.159  0.4725 -0.5691  1.4641
  821MOL0     H13237   9.535  10.037   9.370 -1.2599  2.2460 -0.9213
  821MOL0     H13238   9.372  10.030   9.319  0.8991  2.3478  3.5007
  821MOL0     H13239   9.404   9.784   9.279  0.8476  1.1256 -1.1299
  821MOL0     H13240   9.442   9.820   9.442 -0.8175  2.3661 -0.4816
  821MOL0     H13241   9.648   9.763   9.218  0.8842  0.5976  0.6152
  821MOL0     H13242   9.685   9.832   9.372 -0.9539  0.8268 -0.0434
  821MOL0     H13243   9.596   9.603   9.473 -1.2593 -0.8604 -0.9231
  821MOL0     H13244   9.716   9.568   9.348 -0.8904 -2.3496  1.8501
  821MOL0     H13245   9.408   9.569   9.320 -0.5728 -0.9784  0.5847
  821MOL0     H13246   9.511   9.567   9.185 -2.0116  1.2561  1.0677
  821MOL0     H13247   9.484   9.361   9.520  0.4656 -2.5085  0.4617
  821MOL0     H13248   9.463   8.978   9.439 -0.5798 -0.9626  3.1397
  821MOL0     H13249   9.396   9.094   9.553 -1.3025  0.3353 -0.0329
  821MOL0     H13250   9.645   9.162   9.603  1.4218 -0.4762 -0.1521
  821MOL0     H13251   9.574   9.016   9.666 -0.4000  1.2099  0.0004
  821MOL0     H13252   9.677   8.872   9.505  0.1268 -0.7742  1.3649
  821MOL0     H13253   9.756   9.008   9.428  1.8055 -4.6640 -0.8939
  821MOL0     H13254   9.858   9.047   9.668  0.1976  1.4048 -1.3715
  821MOL0     H13255   9.837   8.877   9.672  1.7532  3.1260  3.9919
  821MOL0     H13256  10.124   8.864   9.367 -3.1625  1.5182  1.1805
  821MOL0     H13257  10.471   8.828   9.376 -1.3966  1.0997  0.8063
  821MOL0     H13258  10.330   8.755   9.294  1.9725 -4.7070 -1.1340
  821MOL0     H13259  10.418   8.657   9.390 -0.7314 -0.3089 -1.8949
  821MOL0     H13260  10.535   8.502   9.834 -0.6594 -2.2100  4.5118
  821MOL0     H13261  10.777   8.398   9.938  4.0357  0.9291  0.9571
  821MOL0     H13262  11.030   8.451   9.855 -0.3607 -0.9221  0.5081
  821MOL0     H13263  11.157   8.496   9.969 -0.3698  0.9499 -0.0549
  821MOL0     H13264  10.965   8.282  10.018  1.3195 -0.7168  2.7549
  821MOL0     H13265  11.142   8.275  10.006 -1.2580 -2.7236 -2.7402
  821MOL0     H13266  10.960   8.381  10.211  0.3957  0.4415 -2.5756
  821MOL0     H13267  11.135   8.429  10.228 -0.9058 -1.1862  4.7255
  821MOL0     H13268  11.206   8.205  10.267 -0.0678 -0.1189  0.1895
  821MOL0     H13269  11.060   8.136  10.194  2.3860 -2.1794  0.8350
  821MOL0     H13270  10.959   8.195  10.428  0.4410 -0.4129  0.0502
  821MOL0     H13271  11.117   8.124  10.436 -0.1440 -0.5570  0.1311
  821MOL0     H13272  11.057   8.422  10.458 -2.7425  0.3094  3.3219
  821MOL0     H13273  11.218   8.360  10.462 -0.6440 -0.8619 -0.9515
  821MOL0     H13274  11.124   8.204  10.661 -1.4633 -0.0674  3.0022
  821MOL0     H13275  10.992   8.315  10.655  0.3442  0.5596 -2.9863
  821MOL0     H13276  11.141   8.498  10.724 -0.1873  1.2069 -1.6279
  821MOL0     H13277  11.285   8.404  10.713 -1.1345  0.5445 -1.6824
  821MOL0     H13278  10.901   8.794  10.001  2.0276 -2.6089 -1.2535
  821MOL0     H13279  10.664   8.888   9.926 -2.1631 -0.3948  1.1343
  821MOL0     H13280  10.269   8.852   9.830  0.1127 -1.4147 -0.0861
  821MOL0     H13281  10.052   8.934   9.779  2.8092 -0.0581  2.3534
  821MOL0     H13282   9.466  10.273   9.511  0.3045  0.2032 -2.1367
  821MOL0     H13283   9.502  10.455   9.688  3.8667  0.4351  1.2781
  821MOL0     H13284   9.660  10.930   9.629  1.2620 -1.6029 -0.3156
  821MOL0     H13285   9.668  11.145   9.731  1.6301 -0.9157 -0.8466
  821MOL0     H13286   9.708  11.160  10.185 -0.2425  0.2632  0.3732
  821MOL0     H13287   9.873  11.155  10.126 -1.8979 -2.4210 -0.3832
  821MOL0     H13288   9.807  11.347  10.274  0.1525 -0.0223  0.4698
  821MOL0     H13289   9.705  11.406  10.141 -1.9103 -3.9511 -0.2523
  821MOL0     H13290   9.944  11.380  10.003 -0.8413 -1.0592 -0.2505
  821MOL0     H13291   9.898  11.535  10.075 -0.7429 -0.2580 -0.6817
  821MOL0     H13292  10.078  11.323  10.182  0.8152 -0.0326 -0.9635
  821MOL0     H13293  10.037  11.457  10.291 -0.2355  1.9213 -0.7990
  821MOL0     H13294  10.309  11.671  10.058 -4.5272  3.4999 -2.7826
  821MOL0     H13295   9.737  10.963  10.122 -1.1615 -1.4666  0.2922
  821MOL0     H13296   9.636  10.776  10.154  1.9821  0.0536  0.7596
  821MOL0     H13297   9.613  10.652  10.043  1.6992 -1.6582 -0.3179
  821MOL0     H13298   9.781  10.692  10.113  0.9792  1.7705 -0.3585
  822MOL0     O13299   3.591   8.157   9.445  0.7832  0.3982  0.6912
  822MOL0     C13300   3.588   8.040   9.480  0.9040 -0.2048  0.5202
  822MOL0     O13301   3.480   7.980   9.529  0.3580 -1.0523 -0.0422
  822MOL0     C13302   3.370   8.043   9.566 -0.2306 -0.5503 -0.1846
  822MOL0     C13303   3.296   7.970   9.665 -0.0202 -0.0128 -0.4558
  822MOL0     C13304   3.178   8.022   9.727 -0.9085  0.5729 -0.4703
  822MOL0     C13305   3.134   8.150   9.699  0.2955 -0.2889  0.6913
  822MOL0     O13306   3.021   8.188   9.769 -0.1171  0.6250 -0.9686
  822MOL0     C13307   2.982   8.322   9.756  0.6680  0.1797 -0.1992
  822MOL0     C13308   2.857   8.331   9.841 -0.0873  0.3257 -0.1151
  822MOL0     C13309   2.839   8.472   9.903  0.5656 -0.3895  0.0413
  822MOL0     C13310   2.714   8.482   9.997 -0.3392 -0.4825  0.2854
  822MOL0     C13311   2.719   8.594  10.098  0.3361 -0.6712  0.0196
  822MOL0     C13312   2.577   8.606  10.177  1.3747 -0.3897  0.5345
  822MOL0     C13313   2.462   8.633  10.080  0.0488  0.3222 -0.3707
  822MOL0     C13314   2.322   8.667  10.134  0.5435  0.9597 -0.3109
  822MOL0     N13315   2.231   8.718  10.024  0.1846 -0.6939  0.3906
  822MOL0     C13316   2.256   8.833   9.951  0.2582 -0.1789 -1.3167
  822MOL0     C13317   2.174   8.818   9.841  0.0682  0.4768 -0.1999
  822MOL0     C13318   2.171   8.911   9.722 -0.8553 -0.6259  0.2379
  822MOL0     C13319   2.029   8.954   9.700 -0.0833 -0.5755 -0.3682
  822MOL0     C13320   1.994   9.072   9.785 -0.1333 -1.2139 -0.4626
  822MOL0     C13321   1.841   9.114   9.744 -0.5845  0.3421 -0.3938
  822MOL0     O13322   1.752   8.998   9.732  0.2392  0.4165 -0.0765
  822MOL0     C13323   1.635   9.017   9.678 -0.0823 -0.2991  0.8052
  822MOL0     C13324   1.566   9.139   9.679  0.3688 -0.2165  0.5590
  822MOL0     C13325   1.423   9.141   9.652  0.1539  0.7831  0.0240
  822MOL0     C13326   1.355   9.283   9.649 -0.7812 -0.6090  0.1013
  822MOL0     C13327   1.357   9.018   9.618 -0.5601 -0.6575 -0.2494
  822MOL0     C13328   1.211   9.007   9.596 -0.0512  0.7701 -0.0075
  822MOL0     O13329   1.164   8.877   9.599 -0.7389  0.4474  0.0851
  822MOL0     C13330   1.035   8.862   9.563  0.2399  0.5364 -0.7533
  822MOL0     C13331   0.937   8.903   9.659  0.3305  0.0095  0.0621
  822MOL0     C13332   0.799   8.875   9.648  1.0651 -0.2072 -0.1602
  822MOL0     C13333   0.749   8.815   9.530 -0.4885  0.3388  0.0211
  822MOL0     O13334   0.613   8.802   9.518 -0.8595  0.0355  0.0525
  822MOL0     C13335   0.557   8.736   9.408  0.3790 -0.2087 -0.0170
  822MOL0     C13336   0.403   8.730   9.414 -0.2923  0.9667 -0.0101
  822MOL0     C13337   0.326   8.676   9.289  0.3612  0.0309  0.6465
  822MOL0     C13338   0.327   8.531   9.290  0.5347 -0.2127  0.9976
  822MOL0     C13339   0.274   8.451   9.168 -0.3780 -0.8831 -0.3001
  822MOL0     C13340   0.126   8.471   9.162  0.3369  0.2997  0.8096
  822MOL0     C13341   0.042   8.375   9.248 -0.1496 -0.1919 -0.9763
  822MOL0     C13342   0.052   8.231   9.226 -0.2253 -0.1196 -0.9624
  822MOL0    Cl13343  -0.074   8.181   9.118 -0.2670 -0.1874  0.3925
  822MOL0     C13344   0.842   8.783   9.428  0.5334 -0.0040  0.7269
  822MOL0     C13345   0.978   8.810   9.446 -0.1386  0.0151 -0.7845
  822MOL0     O13346   1.148   9.098   9.561 -0.2396  0.0730  0.1305
  822MOL0     C13347   1.435   8.908   9.606  0.2489  0.6925 -0.2220
  822MOL0     C13348   1.564   8.903   9.646 -0.5395  0.5262 -0.0158
  822MOL0     N13349   2.105   8.701   9.856  0.0173 -0.1439  0.2219
  822MOL0     N13350   2.139   8.645   9.966 -0.5468 -0.3203  0.2888
  822MOL0     C13351   3.209   8.222   9.598  0.8655 -0.7895  0.1124
  822MOL0     C13352   3.319   8.173   9.535 -0.1694 -0.2131  0.0492
  822MOL0     C13353   3.698   7.952   9.446 -0.3956 -0.2273 -0.0537
  822MOL0     C13354   3.665   7.808   9.459  0.6091 -0.5477 -0.8120
  822MOL0     C13355   3.743   7.716   9.405 -0.2569  0.4402 -0.5058
  822MOL0     C13356   3.869   7.746   9.346 -0.2204 -0.4177  0.3905
  822MOL0     O13357   3.957   7.643   9.304  0.2203 -0.7620 -0.5454
  822MOL0     C13358   4.030   7.663   9.181  0.2907  0.4324  0.0772
  822MOL0     C13359   4.175   7.704   9.200 -0.5488  0.2606  0.5484
  822MOL0     C13360   4.259   7.600   9.292 -0.0542 -0.1833  0.1499
  822MOL0     C13361   4.403   7.652   9.315  0.3751 -0.4036 -0.0972
  822MOL0     C13362   4.474   7.555   9.404  0.6752  0.7593  0.4607
  822MOL0     C13363   4.503   7.461   9.472  0.1872 -0.5022  0.8602
  822MOL0     C13364   3.910   7.881   9.358  0.1344 -0.4148 -0.5882
  822MOL0     C13365   3.825   7.986   9.403 -1.4424 -0.2272  0.6326
  822MOL0     C13366   3.883   8.120   9.407 -0.2239 -0.7401  0.1630
  822MOL0     H13367   3.336   7.872   9.690  3.0175  0.8233 -1.5852
  822MOL0     H13368   3.127   7.965   9.805  0.8327 -1.2912 -0.6045
  822MOL0     H13369   2.940   8.352   9.660 -3.9325 -0.4160  1.3658
  822MOL0     H13370   3.056   8.393   9.795 -0.9948  0.5234  2.6532
  822MOL0     H13371   2.769   8.308   9.779  0.1114 -3.5040  0.7806
  822MOL0     H13372   2.855   8.260   9.924 -1.8931  2.5244  1.8543
  822MOL0     H13373   2.930   8.506   9.952 -0.2267 -1.9608  2.8411
  822MOL0     H13374   2.819   8.536   9.816 -2.5616 -1.7113 -0.3696
  822MOL0     H13375   2.622   8.493   9.940 -0.5814  1.3529  0.9458
  822MOL0     H13376   2.708   8.394  10.062 -1.3215 -2.7599 -2.6716
  822MOL0     H13377   2.740   8.689  10.050 -4.8050  1.0898  0.5931
  822MOL0     H13378   2.798   8.578  10.172  3.0961  3.1601 -1.7972
  822MOL0     H13379   2.558   8.510  10.225  3.2199 -0.9351  0.2295
  822MOL0     H13380   2.576   8.680  10.257  0.2022 -1.2099  1.3068
  822MOL0     H13381   2.458   8.556  10.002  2.5186 -0.4140  0.1423
  822MOL0     H13382   2.497   8.724  10.031 -1.0966  1.0092  0.0562
  822MOL0     H13383   2.283   8.577  10.182 -3.6647  1.4771 -2.3244
  822MOL0     H13384   2.318   8.742  10.214 -1.9274  0.9672 -0.3739
  822MOL0     H13385   2.325   8.914   9.974 -1.0074  0.4655  0.4239
  822MOL0     H13386   2.200   8.857   9.632 -3.0783 -0.8101 -0.4094
  822MOL0     H13387   2.233   9.001   9.731 -2.2994  0.3234  1.1728
  822MOL0     H13388   2.026   8.992   9.598  1.4295 -0.9561 -0.5921
  822MOL0     H13389   1.959   8.871   9.703  1.6090 -2.4798 -5.0309
  822MOL0     H13390   2.004   9.051   9.892  0.2983  0.4924 -0.1344
  822MOL0     H13391   2.063   9.152   9.758 -1.8093 -0.1694 -1.8905
  822MOL0     H13392   1.800   9.188   9.813 -2.8713  1.0152 -2.3332
  822MOL0     H13393   1.852   9.163   9.646 -2.5031  0.7555 -0.4359
  822MOL0     H13394   1.618   9.229   9.709  1.2351  0.3220 -2.2086
  822MOL0     H13395   1.257   9.283   9.696  0.3068 -2.0206  2.5740
  822MOL0     H13396   1.345   9.314   9.544 -2.1142  0.0325  0.4066
  822MOL0     H13397   1.408   9.353   9.713  1.5487  1.2570 -3.5005
  822MOL0     H13398   0.978   8.951   9.747 -2.8138  0.2505  1.5504
  822MOL0     H13399   0.733   8.898   9.731 -0.1722  1.4352 -1.5138
  822MOL0     H13400   0.576   8.784   9.311 -1.9516  0.7446 -0.0528
  822MOL0     H13401   0.609   8.639   9.408 -0.2704 -0.6779  3.3743
  822MOL0     H13402   0.377   8.677   9.506  1.3265  0.7128  0.3192
  822MOL0     H13403   0.365   8.832   9.426 -1.5977  0.2461  2.6593
  822MOL0     H13404   0.375   8.719   9.201 -1.8350  2.3079  0.4065
  822MOL0     H13405   0.222   8.709   9.276 -0.3176 -2.0243  0.3731
  822MOL0     H13406   0.279   8.506   9.385  1.3677 -1.0638  1.2047
  822MOL0     H13407   0.433   8.508   9.294  0.6869 -0.0664 -0.9554
  822MOL0     H13408   0.313   8.498   9.077 -0.3077  0.9296  0.6122
  822MOL0     H13409   0.295   8.347   9.194 -4.1274 -1.3131  1.7206
  822MOL0     H13410   0.101   8.448   9.058  0.6723 -1.4971  1.0911
  822MOL0     H13411   0.088   8.572   9.181 -0.7401 -0.0604  0.6016
  822MOL0     H13412  -0.065   8.395   9.234  0.0023  0.7067 -0.9548
  822MOL0     H13413   0.070   8.388   9.353  2.7008 -1.5782 -1.4901
  822MOL0     H13414   0.048   8.187   9.326 -1.3985  0.1527 -0.8665
  822MOL0     H13415   0.147   8.204   9.180 -0.0041 -1.4259  0.1710
  822MOL0     H13416   0.804   8.757   9.330  0.5409  2.1556  0.1015
  822MOL0     H13417   1.041   8.793   9.360  0.7633  2.3617 -0.6559
  822MOL0     H13418   1.390   8.814   9.576  3.5180 -0.5554 -1.6292
  822MOL0     H13419   1.611   8.808   9.666  0.3284  0.5814 -1.6107
  822MOL0     H13420   3.176   8.324   9.581 -2.0859 -1.2680  2.1812
  822MOL0     H13421   3.372   8.238   9.466  0.3262  4.2789  4.0956
  822MOL0     H13422   3.574   7.775   9.509  1.0388  0.2707  0.5803
  822MOL0     H13423   3.716   7.611   9.401 -0.8871  0.5121  1.3232
  822MOL0     H13424   4.005   7.576   9.120  1.1163 -0.0043  0.3345
  822MOL0     H13425   3.984   7.743   9.124  1.4835  1.8676  1.0321
  822MOL0     H13426   4.182   7.797   9.258 -0.1196  0.7627 -0.2991
  822MOL0     H13427   4.224   7.719   9.104 -0.4610  2.0323  0.8223
  822MOL0     H13428   4.209   7.593   9.390 -2.1519 -1.6892 -0.9426
  822MOL0     H13429   4.255   7.495   9.260  0.0926 -0.2193  0.2474
  822MOL0     H13430   4.400   7.742   9.378 -0.8568 -1.4337  1.3968
  822MOL0     H13431   4.450   7.658   9.217  0.4944 -2.3720 -0.1797
  822MOL0     H13432   4.519   7.371   9.529 -1.5565 -1.2629  0.2069
  822MOL0     H13433   4.012   7.913   9.337 -0.3749  0.0173 -2.6290
  822MOL0     H13434   3.979   8.120   9.355  0.0222  2.3497  0.4175
  822MOL0     H13435   3.815   8.180   9.346 -1.3260 -0.0929  1.9652
  822MOL0     H13436   3.900   8.162   9.506  0.3834 -1.4422  0.3588
  823MOL0     O13437   4.314   3.269   4.939  0.3171 -0.3863 -0.5004
  823MOL0     C13438   4.343   3.367   5.016 -0.5149  0.7964  0.8581
  823MOL0     O13439   4.468   3.407   5.046  0.0396  1.2730 -0.4223
  823MOL0     C13440   4.579   3.348   5.005  0.9993  0.2485  0.0509
  823MOL0     C13441   4.645   3.282   5.105 -0.3298  0.2099  0.7164
  823MOL0     C13442   4.753   3.193   5.079  0.2207  0.5641  1.2177
  823MOL0     C13443   4.819   3.189   4.951  0.1514  0.6636  0.3671
  823MOL0     O13444   4.928   3.106   4.930 -0.0891 -0.0181 -0.1123
  823MOL0     C13445   4.941   3.043   4.803  0.6601 -1.3905 -0.8753
  823MOL0     C13446   5.035   2.926   4.816 -0.2734 -0.2811  0.3519
  823MOL0     C13447   4.992   2.813   4.898  1.7218  0.6649 -0.8561
  823MOL0     C13448   4.846   2.767   4.858 -0.0058  0.6629  0.3768
  823MOL0     C13449   4.804   2.650   4.947 -1.0432 -0.7056 -0.3504
  823MOL0     C13450   4.785   2.672   5.100 -0.4517 -0.7016  0.1905
  823MOL0     C13451   4.695   2.800   5.135  0.2662 -0.0264 -0.2272
  823MOL0     C13452   4.659   2.804   5.288  0.0094  0.0867  0.4881
  823MOL0     N13453   4.558   2.908   5.323 -0.6487  0.0238  0.0549
  823MOL0     C13454   4.431   2.896   5.271  0.2196 -0.1811  0.3297
  823MOL0     C13455   4.367   3.008   5.320 -0.5913  0.4421 -0.7374
  823MOL0     C13456   4.228   3.030   5.290  0.4293 -0.7720 -0.3888
  823MOL0     C13457   4.147   3.027   5.427 -1.1945  0.7219 -0.0679
  823MOL0     C13458   4.151   2.890   5.498  0.4317 -0.7508 -0.0945
  823MOL0     C13459   4.108   2.892   5.648  0.4252 -0.5056 -0.2165
  823MOL0     O13460   4.079   2.762   5.697  0.7774  0.2887  0.1506
  823MOL0     C13461   4.082   2.758   5.833  0.3829  1.4278 -0.0608
  823MOL0     C13462   4.058   2.847   5.937  0.4311 -0.9962 -0.0549
  823MOL0     C13463   4.092   2.816   6.071 -0.9003 -0.1673 -0.1359
  823MOL0     C13464   4.080   2.924   6.179 -0.3313  0.5107 -0.7541
  823MOL0     C13465   4.139   2.684   6.094 -0.1821 -0.2042 -0.2243
  823MOL0     C13466   4.186   2.637   6.222 -0.3335 -0.5347 -0.4577
  823MOL0     O13467   4.280   2.533   6.223 -0.8898 -0.1344  0.3014
  823MOL0     C13468   4.326   2.484   6.338  0.9560 -0.2544 -0.3729
  823MOL0     C13469   4.293   2.357   6.376  1.0468  0.4854 -0.4092
  823MOL0     C13470   4.344   2.304   6.495  0.2400 -1.1387 -0.5317
  823MOL0     C13471   4.437   2.380   6.570 -0.1760  0.0268 -0.2346
  823MOL0     O13472   4.469   2.316   6.690  0.1331  0.2233 -0.4404
  823MOL0     C13473   4.521   2.405   6.787  0.5604 -0.0077  0.3388
  823MOL0     C13474   4.560   2.326   6.912 -0.7636 -0.5573  0.0217
  823MOL0     C13475   4.450   2.223   6.954  0.8639 -0.2681  0.6934
  823MOL0     C13476   4.324   2.295   6.994  0.9833  0.0864 -0.4606
  823MOL0     C13477   4.220   2.226   7.086  0.4076  0.1857 -0.5359
  823MOL0     C13478   4.207   2.079   7.071 -0.6422 -0.0663  0.6117
  823MOL0     C13479   4.109   2.013   7.165 -0.3374 -0.6654 -0.0668
  823MOL0     C13480   3.968   2.047   7.130 -0.2767  0.3724  0.2528
  823MOL0    Cl13481   3.868   1.957   7.242 -0.3778 -0.1725  0.0580
  823MOL0     C13482   4.483   2.506   6.518  0.1956 -0.3173 -0.1011
  823MOL0     C13483   4.423   2.554   6.400  0.1419  0.2948  0.1786
  823MOL0     O13484   4.135   2.685   6.326  0.7984 -0.6364 -0.2130
  823MOL0     C13485   4.152   2.592   5.990 -0.1642  0.7921  1.2797
  823MOL0     C13486   4.121   2.626   5.862  0.3032  0.4991 -0.2209
  823MOL0     N13487   4.465   3.086   5.387  0.1590  0.6965  0.0878
  823MOL0     N13488   4.574   3.017   5.399  0.2490 -0.6283 -0.5762
  823MOL0     C13489   4.753   3.267   4.847 -0.2731  0.5026  0.2088
  823MOL0     C13490   4.634   3.341   4.878 -0.3042  0.6805  0.3438
  823MOL0     C13491   4.238   3.439   5.087  0.3937  0.2766  0.6783
  823MOL0     C13492   4.267   3.517   5.202 -0.6566  0.1531 -1.1505
  823MOL0     C13493   4.169   3.576   5.278  0.1984 -0.1379  0.6243
  823MOL0     C13494   4.032   3.563   5.251 -0.2170 -0.9373 -0.1493
  823MOL0     O13495   3.947   3.630   5.334 -0.9490 -0.5402 -0.4231
  823MOL0     C13496   3.813   3.598   5.310  0.2150 -0.4429 -0.4780
  823MOL0     C13497   3.696   3.676   5.390 -0.0721 -0.8339  0.3087
  823MOL0     C13498   3.743   3.810   5.435 -0.2579  0.1673 -0.8527
  823MOL0     C13499   3.626   3.893   5.503 -1.0884  0.3867  0.6801
  823MOL0     C13500   3.579   3.822   5.618 -0.0714  0.6739  0.1593
  823MOL0     C13501   3.524   3.769   5.715 -1.0850  0.7997 -0.1818
  823MOL0     C13502   3.996   3.470   5.153  0.6661 -0.5362  0.5602
  823MOL0     C13503   4.090   3.415   5.067 -0.1418 -0.9098  0.3054
  823MOL0     C13504   4.035   3.333   4.949 -0.2352 -0.9338 -0.5185
  823MOL0     H13505   4.594   3.278   5.201 -0.2458  1.2560  0.8197
  823MOL0     H13506   4.798   3.142   5.163  0.0826 -2.1435 -0.2604
  823MOL0     H13507   4.979   3.107   4.723 -0.8451 -3.6304 -3.5471
  823MOL0     H13508   4.840   3.024   4.766 -1.4608  1.5055  2.6814
  823MOL0     H13509   5.062   2.890   4.716  1.4707 -1.7458  1.2966
  823MOL0     H13510   5.126   2.964   4.862 -0.1007  0.3143 -0.4551
  823MOL0     H13511   5.060   2.729   4.879  0.3850 -0.2360 -1.8880
  823MOL0     H13512   5.000   2.823   5.006  1.4842 -2.1643 -0.4886
  823MOL0     H13513   4.780   2.851   4.882 -0.1911  0.6554 -0.1077
  823MOL0     H13514   4.846   2.752   4.750 -3.3533  2.1287  0.0350
  823MOL0     H13515   4.881   2.574   4.937  2.6325  2.7195 -0.6112
  823MOL0     H13516   4.711   2.611   4.905 -3.4206  3.5989  0.2610
  823MOL0     H13517   4.747   2.582   5.149  1.1361 -1.6411 -0.2117
  823MOL0     H13518   4.886   2.686   5.139  0.2867 -0.8621 -1.5555
  823MOL0     H13519   4.600   2.782   5.084 -0.0687  0.0405  0.3586
  823MOL0     H13520   4.726   2.898   5.095 -1.8879  0.5753 -0.5499
  823MOL0     H13521   4.616   2.707   5.314  0.1982 -0.2258 -0.3492
  823MOL0     H13522   4.746   2.813   5.354  0.8682  1.6414 -0.7828
  823MOL0     H13523   4.392   2.811   5.216  1.3508 -0.5916  0.1259
  823MOL0     H13524   4.190   2.954   5.222  2.0078 -0.1567 -2.0492
  823MOL0     H13525   4.221   3.125   5.236  0.9318  0.3235  1.3752
  823MOL0     H13526   4.194   3.102   5.491 -1.8617 -0.1067  1.4414
  823MOL0     H13527   4.040   3.048   5.415 -1.2341  0.3038 -0.5154
  823MOL0     H13528   4.075   2.838   5.439 -0.5285  1.6522 -1.1303
  823MOL0     H13529   4.246   2.839   5.480  0.6548 -0.0208 -1.0660
  823MOL0     H13530   4.188   2.941   5.704 -0.1810  0.2795 -0.0192
  823MOL0     H13531   4.014   2.949   5.650 -0.5595 -2.1114  1.3387
  823MOL0     H13532   4.025   2.949   5.921  2.4696 -0.4784 -1.3071
  823MOL0     H13533   4.009   2.889   6.254  1.0262  3.1887  2.0034
  823MOL0     H13534   4.024   3.015   6.156 -2.2669 -0.6979 -1.0152
  823MOL0     H13535   4.177   2.952   6.222 -0.8240  0.2751  0.5566
  823MOL0     H13536   4.220   2.304   6.316  0.8091  1.0371 -0.6132
  823MOL0     H13537   4.315   2.203   6.521  0.4590 -1.3434 -1.0758
  823MOL0     H13538   4.598   2.474   6.751  0.6140 -1.8638 -3.7478
  823MOL0     H13539   4.437   2.465   6.821 -2.0762 -1.7527 -2.5035
  823MOL0     H13540   4.658   2.283   6.890 -0.2365  1.0583 -0.9554
  823MOL0     H13541   4.576   2.398   6.993  0.1954 -0.0430 -0.6014
  823MOL0     H13542   4.493   2.167   7.038  3.0778 -1.1060 -0.9064
  823MOL0     H13543   4.427   2.163   6.865  0.7451  2.4342 -1.2024
  823MOL0     H13544   4.267   2.301   6.901 -1.4538 -1.9490  0.7641
  823MOL0     H13545   4.364   2.389   7.033  3.5599 -1.0149 -0.2654
  823MOL0     H13546   4.266   2.236   7.184 -1.3467 -1.4382  0.5157
  823MOL0     H13547   4.124   2.279   7.090 -2.9697 -5.2814  2.3011
  823MOL0     H13548   4.309   2.044   7.089  0.7823  1.3257 -3.5295
  823MOL0     H13549   4.172   2.056   6.970  1.2955 -0.6848  0.0476
  823MOL0     H13550   4.127   2.064   7.260 -1.0203  2.6416 -1.5896
  823MOL0     H13551   4.117   1.904   7.156  0.7726 -1.0194  3.7211
  823MOL0     H13552   3.941   2.014   7.030  1.5968 -2.2550  0.5222
  823MOL0     H13553   3.941   2.153   7.139 -1.1351  0.1825  0.0087
  823MOL0     H13554   4.546   2.570   6.578 -1.5334  1.4260 -0.0477
  823MOL0     H13555   4.447   2.655   6.367 -1.9096  1.5582  2.2674
  823MOL0     H13556   4.189   2.493   6.012 -1.8223 -0.3314 -0.6245
  823MOL0     H13557   4.135   2.553   5.782  0.8475  1.6545 -1.2010
  823MOL0     H13558   4.795   3.263   4.747 -0.3132  1.1538  0.1592
  823MOL0     H13559   4.580   3.391   4.799  1.6271  0.6065 -1.1018
  823MOL0     H13560   4.371   3.532   5.229 -1.1005  1.2856  0.0046
  823MOL0     H13561   4.190   3.637   5.365  2.6131  0.0766 -0.0275
  823MOL0     H13562   3.786   3.622   5.207 -0.6581  3.2258  0.4584
  823MOL0     H13563   3.804   3.490   5.320 -0.5339 -0.2636  1.1911
  823MOL0     H13564   3.661   3.613   5.472 -2.2045 -1.9746 -1.3618
  823MOL0     H13565   3.603   3.683   5.333 -0.4974 -0.6882  1.0075
  823MOL0     H13566   3.833   3.806   5.497 -1.0302  2.2286  0.5170
  823MOL0     H13567   3.786   3.867   5.352 -1.3546  2.1514 -0.1196
  823MOL0     H13568   3.537   3.906   5.442 -0.9242 -0.4423  0.2507
  823MOL0     H13569   3.669   3.991   5.529  2.2657 -1.2199  1.8885
  823MOL0     H13570   3.483   3.693   5.778  1.0650 -1.2024 -1.0351
  823MOL0     H13571   3.891   3.450   5.130 -0.0179  1.1257  2.0610
  823MOL0     H13572   4.067   3.375   4.854 -2.1284  3.4203  0.5143
  823MOL0     H13573   4.051   3.226   4.961 -0.7920 -0.9964 -0.3129
  823MOL0     H13574   3.926   3.341   4.939 -0.8462 -1.5439  3.7432
  824MOL0     O13575   4.880   4.304   2.907  1.2469  1.3065  0.1320
  824MOL0     C13576   5.000   4.316   2.932 -0.2276  0.2653  1.0021
  824MOL0     O13577   5.058   4.419   3.001  0.2592  0.5802 -0.0393
  824MOL0     C13578   4.973   4.496   3.067  0.2320 -0.2137 -0.0753
  824MOL0     C13579   4.957   4.629   3.029 -0.1878 -0.3148  0.3966
  824MOL0     C13580   4.859   4.709   3.100  0.0653  0.6933 -0.3169
  824MOL0     C13581   4.792   4.658   3.209  0.6359 -0.1550  0.7158
  824MOL0     O13582   4.701   4.732   3.279 -0.4281  0.3568  0.4086
  824MOL0     C13583   4.631   4.840   3.214  1.1845 -0.6026 -0.3832
  824MOL0     C13584   4.483   4.847   3.267  0.6545  0.6009  0.1799
  824MOL0     C13585   4.478   4.926   3.398 -0.1230 -0.0353  0.5852
  824MOL0     C13586   4.339   4.948   3.454 -0.5168  0.0891  0.0528
  824MOL0     C13587   4.358   5.055   3.561  0.1312 -1.0011 -0.5933
  824MOL0     C13588   4.224   5.091   3.627 -0.1784  0.5528 -0.5233
  824MOL0     C13589   4.157   5.211   3.555  0.2306 -0.4354 -0.2811
  824MOL0     C13590   4.021   5.252   3.627 -0.2976 -0.0455  0.7597
  824MOL0     N13591   4.023   5.287   3.768 -0.0507  0.1531  0.8989
  824MOL0     C13592   3.988   5.207   3.866  0.1579 -0.8082 -0.2208
  824MOL0     C13593   3.981   5.279   3.976  0.9663  0.4740 -0.6958
  824MOL0     C13594   3.953   5.222   4.105 -0.2112  0.9926 -0.4980
  824MOL0     C13595   4.068   5.127   4.143  0.3315 -0.1260  0.0108
  824MOL0     C13596   4.035   5.054   4.279  0.2029  0.0201 -0.2192
  824MOL0     C13597   4.126   4.928   4.276  0.7270 -0.2440  0.5115
  824MOL0     O13598   4.114   4.862   4.396 -0.5765  0.6414 -0.2770
  824MOL0     C13599   4.142   4.729   4.396  0.1141  0.6985  0.2673
  824MOL0     C13600   4.076   4.646   4.484 -0.1332  0.7320  0.5331
  824MOL0     C13601   4.102   4.504   4.474 -0.6853 -1.1315  0.4780
  824MOL0     C13602   4.010   4.425   4.569 -0.0840 -0.1104  0.2745
  824MOL0     C13603   4.207   4.446   4.388  0.2401 -0.9866 -0.4417
  824MOL0     C13604   4.226   4.296   4.369  0.3424  0.2046 -0.4773
  824MOL0     O13605   4.125   4.209   4.397  0.6681  0.6994  0.1383
  824MOL0     C13606   4.127   4.076   4.341 -0.3150  0.1535 -0.4564
  824MOL0     C13607   4.247   4.000   4.317 -0.5206 -0.1622 -0.5432
  824MOL0     C13608   4.246   3.873   4.258 -0.3891 -0.3858 -0.1628
  824MOL0     C13609   4.122   3.808   4.218  0.2997  0.2225  0.7325
  824MOL0     O13610   4.113   3.688   4.155  1.0319  0.3541 -0.2652
  824MOL0     C13611   4.231   3.631   4.091  0.4044 -0.3784  0.0098
  824MOL0     C13612   4.231   3.482   4.040  0.0372 -0.2615  0.4991
  824MOL0     C13613   4.197   3.368   4.136  0.1717 -0.0217 -0.4442
  824MOL0     C13614   4.141   3.243   4.066  0.1380 -0.8407 -0.0714
  824MOL0     C13615   3.990   3.265   4.032 -0.3802 -0.3523  0.2303
  824MOL0     C13616   3.920   3.125   3.997 -1.0985  0.6536 -0.7761
  824MOL0     C13617   4.014   3.035   3.907  0.7292 -0.4401  0.1407
  824MOL0     C13618   3.935   2.913   3.852 -0.4943  0.4850  0.5655
  824MOL0    Cl13619   4.052   2.809   3.759  0.1788  0.2181 -0.3082
  824MOL0     C13620   4.007   3.886   4.242 -0.2315 -0.5056  1.0022
  824MOL0     C13621   4.004   4.012   4.300 -0.2852  1.0653 -0.3051
  824MOL0     O13622   4.333   4.268   4.316 -0.8785 -0.4934 -0.6112
  824MOL0     C13623   4.271   4.534   4.302  0.4392 -0.5294  0.0857
  824MOL0     C13624   4.237   4.673   4.307 -0.4484  1.0632 -0.4848
  824MOL0     N13625   3.997   5.410   3.941  0.4685 -0.4357 -0.4392
  824MOL0     N13626   4.013   5.415   3.808 -0.5009  0.7546 -0.2427
  824MOL0     C13627   4.826   4.528   3.252  0.6007 -0.3898  0.2255
  824MOL0     C13628   4.916   4.451   3.181 -0.5490  0.3138 -0.1992
  824MOL0     C13629   5.099   4.218   2.885  0.8697 -0.4338 -0.2038
  824MOL0     C13630   5.238   4.260   2.868 -0.1031  0.6360  0.0845
  824MOL0     C13631   5.339   4.170   2.835 -0.4977 -0.0665 -0.1813
  824MOL0     C13632   5.317   4.033   2.833 -0.1429 -1.0994  0.5460
  824MOL0     O13633   5.418   3.947   2.832 -0.1602 -0.0145  0.6182
  824MOL0     C13634   5.508   3.959   2.717 -0.5684 -0.2979  0.2385
  824MOL0     C13635   5.451   3.890   2.591 -0.7281  0.5066 -0.3650
  824MOL0     C13636   5.407   3.744   2.631  0.3945 -0.5183  0.2702
  824MOL0     C13637   5.394   3.643   2.523 -0.1816  0.6205  0.0279
  824MOL0     C13638   5.520   3.624   2.447 -0.7516  0.1882  0.8173
  824MOL0     C13639   5.611   3.625   2.359 -0.3338  0.3198 -0.8167
  824MOL0     C13640   5.189   3.987   2.845  0.2581  0.4556  0.3208
  824MOL0     C13641   5.073   4.075   2.880 -0.2994 -0.2827 -0.0551
  824MOL0     C13642   4.935   4.016   2.881  0.4058  0.4323 -0.0982
  824MOL0     H13643   5.004   4.658   2.935 -0.1973  0.1963  0.5469
  824MOL0     H13644   4.857   4.809   3.056  1.9240 -0.0166 -2.2107
  824MOL0     H13645   4.624   4.824   3.106  0.9799  2.1214 -0.8573
  824MOL0     H13646   4.683   4.935   3.230  1.6965 -1.1858  1.7106
  824MOL0     H13647   4.417   4.889   3.191 -0.2575 -1.4474 -0.2381
  824MOL0     H13648   4.440   4.747   3.275 -2.6366  2.0105  1.8657
  824MOL0     H13649   4.547   4.880   3.469  0.4220 -1.1455 -0.6071
  824MOL0     H13650   4.508   5.028   3.371  1.1232 -0.5003  0.1235
  824MOL0     H13651   4.255   4.967   3.387 -2.8996 -2.6096  2.0206
  824MOL0     H13652   4.301   4.857   3.501 -2.9212  0.8294 -0.3499
  824MOL0     H13653   4.406   5.146   3.523 -1.2186  0.1361  0.3448
  824MOL0     H13654   4.427   5.029   3.641 -0.6102  0.0106  0.4108
  824MOL0     H13655   4.161   5.003   3.634  1.2484 -0.3439  2.6861
  824MOL0     H13656   4.232   5.116   3.733 -1.1768  0.6718 -0.4701
  824MOL0     H13657   4.135   5.187   3.451  0.6201 -1.5113 -0.1290
  824MOL0     H13658   4.228   5.295   3.561  0.1997 -0.1230 -2.9967
  824MOL0     H13659   3.976   5.328   3.564  1.1235 -2.0092 -2.9696
  824MOL0     H13660   3.959   5.164   3.610 -1.3194  1.1046 -2.1622
  824MOL0     H13661   3.992   5.099   3.868  2.7244 -0.8258 -2.0156
  824MOL0     H13662   3.864   5.158   4.108  1.4656 -1.6857 -2.7456
  824MOL0     H13663   3.953   5.301   4.180  1.9165 -1.4270  2.3114
  824MOL0     H13664   4.078   5.059   4.058  0.6237 -0.1494  0.0623
  824MOL0     H13665   4.163   5.177   4.166  0.6622 -1.8267  2.7981
  824MOL0     H13666   4.044   5.116   4.369  1.5754 -2.0437  1.1568
  824MOL0     H13667   3.933   5.016   4.270  0.0577  0.8531 -2.8934
  824MOL0     H13668   4.083   4.860   4.202 -0.5613 -0.3347  1.3105
  824MOL0     H13669   4.230   4.951   4.251 -0.1390  3.4030 -0.3080
  824MOL0     H13670   4.015   4.693   4.560 -0.3221 -2.3736  2.4666
  824MOL0     H13671   3.950   4.351   4.515 -0.1565 -0.1697  0.4378
  824MOL0     H13672   3.938   4.485   4.624 -2.1448 -3.3233  1.3851
  824MOL0     H13673   4.069   4.370   4.643 -0.6663 -2.4563 -0.8905
  824MOL0     H13674   4.344   4.034   4.351 -0.8194  0.3233 -0.1512
  824MOL0     H13675   4.347   3.835   4.243  0.5527  1.5362  0.8853
  824MOL0     H13676   4.250   3.671   3.991  0.7029  1.4646  0.7461
  824MOL0     H13677   4.323   3.645   4.149  1.3168 -1.5690 -1.1039
  824MOL0     H13678   4.170   3.470   3.950 -0.1236 -0.0548  0.5798
  824MOL0     H13679   4.336   3.470   4.013  0.7481  1.4164  2.2328
  824MOL0     H13680   4.134   3.399   4.219  2.5603 -1.6051  2.1335
  824MOL0     H13681   4.287   3.321   4.176  0.0973 -0.5050 -0.8356
  824MOL0     H13682   4.152   3.158   4.134 -1.8421 -0.5400  0.7046
  824MOL0     H13683   4.190   3.231   3.970  0.6193  0.0101  0.0597
  824MOL0     H13684   3.928   3.317   4.106  1.6351  1.6356  0.6399
  824MOL0     H13685   3.983   3.329   3.944  0.2291  1.0609  1.1839
  824MOL0     H13686   3.821   3.134   3.952 -1.9855 -2.1855  0.4067
  824MOL0     H13687   3.907   3.066   4.088 -0.1716 -1.9118 -2.2198
  824MOL0     H13688   4.097   2.998   3.969  2.8421 -0.3085 -2.4683
  824MOL0     H13689   4.066   3.092   3.831  4.1332  0.2254  2.7141
  824MOL0     H13690   3.858   2.942   3.780 -2.1333 -1.1236  1.5858
  824MOL0     H13691   3.886   2.863   3.935  1.5823  0.6066  1.9468
  824MOL0     H13692   3.915   3.830   4.230 -0.3627 -0.0829 -0.0784
  824MOL0     H13693   3.910   4.060   4.323 -0.6985  0.0417  0.2270
  824MOL0     H13694   4.335   4.483   4.231 -1.6586 -0.8300 -1.6890
  824MOL0     H13695   4.288   4.744   4.243 -0.3190 -0.5234 -2.2352
  824MOL0     H13696   4.770   4.477   3.329  0.0136  2.9217  2.2027
  824MOL0     H13697   4.928   4.348   3.214 -1.3193  0.5997  1.0501
  824MOL0     H13698   5.260   4.366   2.866  1.2403  0.3892  1.0707
  824MOL0     H13699   5.437   4.215   2.825  0.0760 -0.8896  1.2923
  824MOL0     H13700   5.530   4.064   2.698 -1.8632 -0.0880 -0.2350
  824MOL0     H13701   5.600   3.911   2.749 -1.3227 -2.4184 -0.5779
  824MOL0     H13702   5.515   3.897   2.502 -2.6292 -1.2199 -1.9681
  824MOL0     H13703   5.363   3.947   2.561 -0.7452  0.9838  0.5514
  824MOL0     H13704   5.475   3.708   2.709  1.2761 -0.2043 -0.3400
  824MOL0     H13705   5.312   3.767   2.681  0.8243  1.0696  0.3954
  824MOL0     H13706   5.309   3.670   2.460 -0.6231 -1.2090 -0.2240
  824MOL0     H13707   5.381   3.543   2.567 -0.3885  1.2212  1.3805
  824MOL0     H13708   5.690   3.601   2.290 -1.2594  0.6441 -2.0316
  824MOL0     H13709   5.181   3.879   2.836  1.1222  0.1863  2.2003
  824MOL0     H13710   4.943   3.910   2.856  2.5017  0.7481 -0.9292
  824MOL0     H13711   4.885   4.030   2.978 -0.0144 -0.9324 -0.0964
  824MOL0     H13712   4.862   4.054   2.809 -2.6571 -3.2676  0.7423
  825MOL0     O13713   3.271   8.331   3.894  0.1163 -0.9025  0.0492
  825MOL0     C13714   3.192   8.353   3.803 -0.1006  0.2351  0.6297
  825MOL0     O13715   3.100   8.259   3.757 -0.0676  0.3679 -0.0375
  825MOL0     C13716   3.115   8.132   3.800  0.1174  0.4576  0.9413
  825MOL0     C13717   3.012   8.086   3.879 -0.1627 -0.2771 -1.2910
  825MOL0     C13718   3.011   7.943   3.895  0.5561 -0.8222 -0.3612
  825MOL0     C13719   3.097   7.859   3.821  0.6294  0.4601  0.2333
  825MOL0     O13720   3.077   7.725   3.838  0.4636  0.8417  0.3274
  825MOL0     C13721   3.124   7.638   3.740 -0.9160 -0.4328 -0.0705
  825MOL0     C13722   3.133   7.496   3.791  0.2843  0.4311 -1.0455
  825MOL0     C13723   3.198   7.486   3.926 -0.1354 -0.2024  0.0955
  825MOL0     C13724   3.343   7.548   3.939  0.8367  0.0227  0.1308
  825MOL0     C13725   3.411   7.515   4.071 -0.4200 -0.4879  1.1441
  825MOL0     C13726   3.540   7.576   4.084 -1.4310 -0.1678  0.1322
  825MOL0     C13727   3.551   7.724   4.085  0.3095 -0.9773 -0.5315
  825MOL0     C13728   3.448   7.790   4.167  0.3435  0.0067 -0.6479
  825MOL0     N13729   3.484   7.934   4.163  0.1383  0.8535  0.6845
  825MOL0     C13730   3.491   8.006   4.045  0.0228 -0.5508  0.0271
  825MOL0     C13731   3.545   8.121   4.086 -0.3810 -0.0023 -0.3990
  825MOL0     C13732   3.553   8.241   4.002 -0.1588 -0.4750  0.1912
  825MOL0     C13733   3.698   8.288   3.994  0.6947  0.9782 -0.0856
  825MOL0     C13734   3.794   8.191   3.928  0.1532  0.1822 -0.0676
  825MOL0     C13735   3.949   8.217   3.961  0.8300  0.7518  0.7400
  825MOL0     O13736   3.973   8.353   3.933 -0.7156 -0.5397 -0.2872
  825MOL0     C13737   4.103   8.397   3.894 -0.0678 -0.6114 -0.0026
  825MOL0     C13738   4.114   8.515   3.821 -0.0994  0.2839 -0.5989
  825MOL0     C13739   4.235   8.566   3.793 -0.2430  1.2813 -0.3610
  825MOL0     C13740   4.241   8.698   3.724  0.7289  0.0824  0.2746
  825MOL0     C13741   4.357   8.493   3.836 -0.8072 -0.9844  0.3344
  825MOL0     C13742   4.497   8.531   3.808 -0.2797 -0.2461  0.1088
  825MOL0     O13743   4.595   8.449   3.845  0.7681 -0.2944 -0.3845
  825MOL0     C13744   4.733   8.469   3.814  0.3041 -0.5711  0.2456
  825MOL0     C13745   4.790   8.474   3.686  0.1966 -0.4824  0.8297
  825MOL0     C13746   4.931   8.467   3.662  0.3718 -0.7319 -0.5657
  825MOL0     C13747   5.009   8.465   3.765 -0.5306  0.9126  0.6362
  825MOL0     O13748   5.149   8.462   3.748 -0.6296  0.2370  0.1728
  825MOL0     C13749   5.208   8.590   3.717  0.3107 -0.1069 -0.8578
  825MOL0     C13750   5.356   8.570   3.675 -1.1746 -0.2533 -0.8184
  825MOL0     C13751   5.461   8.549   3.787  0.7959  1.0565  0.4044
  825MOL0     C13752   5.542   8.660   3.834 -0.1306 -1.0820 -0.4010
  825MOL0     C13753   5.617   8.738   3.718 -0.4678  0.2248 -0.3117
  825MOL0     C13754   5.720   8.821   3.790  0.0789 -0.3959  0.4666
  825MOL0     C13755   5.807   8.913   3.710 -0.7969 -0.0567  1.2830
  825MOL0     C13756   5.914   8.834   3.623  0.9044  0.3965  0.9813
  825MOL0    Cl13757   6.042   8.939   3.555  0.1511 -0.1430  0.1621
  825MOL0     C13758   4.966   8.453   3.894 -0.0912 -0.3219  0.0849
  825MOL0     C13759   4.830   8.462   3.917  0.1992  0.8680  0.2786
  825MOL0     O13760   4.525   8.642   3.761  0.2124  0.5504  1.0282
  825MOL0     C13761   4.341   8.379   3.907  0.1703  0.4062 -0.3280
  825MOL0     C13762   4.218   8.321   3.932 -0.1928  0.0569 -0.1580
  825MOL0     N13763   3.577   8.109   4.227  0.3323  0.1583  0.0793
  825MOL0     N13764   3.538   7.996   4.269  0.8486 -0.2848 -0.9156
  825MOL0     C13765   3.206   7.920   3.745 -0.0597  0.4341 -0.2502
  825MOL0     C13766   3.210   8.052   3.735  0.0549  1.2962  0.0086
  825MOL0     C13767   3.208   8.489   3.760 -0.0087 -0.4165 -0.0546
  825MOL0     C13768   3.323   8.562   3.788 -0.2616 -0.5825 -1.0223
  825MOL0     C13769   3.344   8.686   3.748 -0.7328 -0.3895  0.1552
  825MOL0     C13770   3.246   8.759   3.673 -0.1680  0.2654 -0.2425
  825MOL0     O13771   3.267   8.889   3.630 -0.0971 -0.1365  0.4850
  825MOL0     C13772   3.170   8.943   3.548  0.2736  0.5636  0.2334
  825MOL0     C13773   3.242   9.072   3.497 -0.1983  0.5195  0.1644
  825MOL0     C13774   3.373   9.054   3.425  0.0983  0.1781  0.9983
  825MOL0     C13775   3.352   8.994   3.279  1.1445 -0.1265 -0.3357
  825MOL0     C13776   3.281   9.101   3.203  0.1113  0.4581  0.3492
  825MOL0     C13777   3.233   9.192   3.133  0.3698 -0.0686  0.0263
  825MOL0     C13778   3.128   8.678   3.641  0.6581 -0.1719 -0.3281
  825MOL0     C13779   3.111   8.554   3.689  0.9076  0.0505  0.1547
  825MOL0     C13780   2.982   8.491   3.655  0.2375  0.2215  0.6482
  825MOL0     H13781   2.947   8.150   3.938  1.9201 -0.3297  1.2597
  825MOL0     H13782   2.932   7.903   3.957 -1.0071  2.0910 -0.3082
  825MOL0     H13783   3.230   7.653   3.717 -1.6003  1.7131 -2.3303
  825MOL0     H13784   3.056   7.651   3.655 -1.0595  0.3616  0.1566
  825MOL0     H13785   3.031   7.459   3.801 -0.5385  2.7855 -0.0961
  825MOL0     H13786   3.192   7.442   3.716  0.2495 -0.0887 -0.7057
  825MOL0     H13787   3.134   7.523   4.007  1.0643  1.6320  0.2812
  825MOL0     H13788   3.206   7.378   3.941  4.8681 -0.0346  0.2853
  825MOL0     H13789   3.394   7.507   3.851 -1.9538 -0.1132 -1.5505
  825MOL0     H13790   3.333   7.656   3.924  2.6731 -0.0536 -2.4337
  825MOL0     H13791   3.424   7.406   4.074 -1.4282 -0.6730 -0.2159
  825MOL0     H13792   3.336   7.540   4.146 -1.8585  0.8280 -0.6474
  825MOL0     H13793   3.588   7.544   4.177  1.5514  0.5798 -1.0250
  825MOL0     H13794   3.601   7.535   4.003 -0.8727 -0.1770  0.5520
  825MOL0     H13795   3.535   7.764   3.984  1.3315 -0.9841 -0.7106
  825MOL0     H13796   3.650   7.755   4.121  0.0686  1.5910 -1.8420
  825MOL0     H13797   3.345   7.775   4.131  0.5721 -2.0365 -0.5696
  825MOL0     H13798   3.453   7.762   4.272 -0.8616  0.5966 -0.4085
  825MOL0     H13799   3.448   7.986   3.947 -0.9733  3.1876 -0.4587
  825MOL0     H13800   3.499   8.326   4.045  0.8383  1.2010 -1.6988
  825MOL0     H13801   3.512   8.211   3.906  1.3852 -1.9493 -0.0630
  825MOL0     H13802   3.701   8.385   3.942  2.2053  0.7287 -0.5155
  825MOL0     H13803   3.725   8.304   4.099 -0.9513  1.7457  0.2548
  825MOL0     H13804   3.777   8.091   3.967 -3.2630  1.4651  2.1060
  825MOL0     H13805   3.760   8.194   3.824  0.8380  0.4311 -0.2946
  825MOL0     H13806   3.979   8.200   4.065  0.0045 -1.0155  0.7322
  825MOL0     H13807   4.002   8.139   3.905 -2.2720 -2.1060  1.4699
  825MOL0     H13808   4.025   8.565   3.783 -1.3061 -0.5425  0.9609
  825MOL0     H13809   4.138   8.726   3.698  1.5128 -0.0343 -3.5378
  825MOL0     H13810   4.302   8.701   3.633  1.5331  1.4414  0.8371
  825MOL0     H13811   4.270   8.783   3.786 -0.6148  1.0022 -0.2858
  825MOL0     H13812   4.731   8.492   3.597  0.9278  1.7035  0.7197
  825MOL0     H13813   4.967   8.479   3.560  1.4759 -2.1790 -0.3802
  825MOL0     H13814   5.145   8.636   3.641 -2.0555 -1.8071 -0.0507
  825MOL0     H13815   5.215   8.639   3.815 -0.6210  0.0417 -0.8586
  825MOL0     H13816   5.355   8.480   3.614  1.4580 -0.8675 -0.0783
  825MOL0     H13817   5.390   8.651   3.609 -0.8938 -0.4011 -0.8581
  825MOL0     H13818   5.520   8.467   3.746 -2.6425 -0.7713 -1.3307
  825MOL0     H13819   5.417   8.494   3.870  0.9934 -4.2617 -2.5938
  825MOL0     H13820   5.611   8.621   3.909  1.1317 -0.4144 -1.1906
  825MOL0     H13821   5.467   8.725   3.880 -0.8674 -4.2509  3.3756
  825MOL0     H13822   5.662   8.667   3.648 -2.2771 -0.1462 -1.1618
  825MOL0     H13823   5.551   8.807   3.664  0.4393  1.3955  0.0216
  825MOL0     H13824   5.776   8.765   3.866 -1.3436 -1.9534  0.4377
  825MOL0     H13825   5.665   8.899   3.843 -2.1501  0.1388 -2.4107
  825MOL0     H13826   5.872   8.968   3.778  0.7711  0.3006 -0.4150
  825MOL0     H13827   5.742   8.987   3.662 -0.9056 -0.7691  0.2863
  825MOL0     H13828   5.858   8.789   3.540  0.4946  0.9445  0.9538
  825MOL0     H13829   5.950   8.748   3.682 -0.7199 -0.5181  0.7112
  825MOL0     H13830   5.045   8.435   3.966  1.4575  0.2985 -1.4003
  825MOL0     H13831   4.796   8.452   4.020 -1.3688 -1.3881 -0.3756
  825MOL0     H13832   4.422   8.319   3.948 -0.4157 -0.3489 -0.2540
  825MOL0     H13833   4.207   8.235   3.996  1.3833  2.0828  3.1106
  825MOL0     H13834   3.278   7.860   3.691 -3.0191 -0.9318 -2.9846
  825MOL0     H13835   3.288   8.101   3.679  0.4245  1.9656  1.0747
  825MOL0     H13836   3.401   8.525   3.854 -0.4897  2.1180  0.9005
  825MOL0     H13837   3.437   8.741   3.757  0.6810 -2.7701  1.0348
  825MOL0     H13838   3.138   8.874   3.470 -1.0543  0.6265  0.7028
  825MOL0     H13839   3.082   8.984   3.598  0.2580  2.8511 -1.4672
  825MOL0     H13840   3.262   9.128   3.589 -0.5301  0.1138  0.4838
  825MOL0     H13841   3.177   9.127   3.428  1.0006  0.7545 -0.8257
  825MOL0     H13842   3.428   9.149   3.416  2.1124 -0.7875  2.3278
  825MOL0     H13843   3.433   8.988   3.488 -0.0015 -0.4459  0.4553
  825MOL0     H13844   3.291   8.906   3.300  3.3591 -1.1129  2.6162
  825MOL0     H13845   3.444   8.955   3.234  3.6442  1.2320  3.1642
  825MOL0     H13846   3.179   9.270   3.084  2.1377  1.9869  1.1506
  825MOL0     H13847   3.046   8.731   3.592  1.8192  2.8147  0.6967
  825MOL0     H13848   2.998   8.413   3.580  4.3798  1.2010  0.2809
  825MOL0     H13849   2.944   8.456   3.752  0.6811  1.1350  1.1684
  825MOL0     H13850   2.899   8.551   3.618 -1.4268 -1.0167  2.2006
  826MOL0     O13851   3.816  11.225   9.229 -0.3118  0.0427  1.2201
  826MOL0     C13852   3.807  11.312   9.312  0.6992  0.2961  1.1785
  826MOL0     O13853   3.855  11.437   9.305  0.2943 -0.5327  0.4766
  826MOL0     C13854   3.940  11.476   9.208 -0.2850  0.1473 -0.0779
  826MOL0     C13855   4.058  11.405   9.182 -0.8469  0.7435 -0.2931
  826MOL0     C13856   4.145  11.440   9.072 -0.1445 -0.1942  0.8173
  826MOL0     C13857   4.105  11.542   8.978 -0.2120  0.2513 -0.1957
  826MOL0     O13858   4.176  11.570   8.862 -0.7268 -0.8143  0.1914
  826MOL0     C13859   4.269  11.466   8.801 -0.5081 -0.0377 -0.5982
  826MOL0     C13860   4.337  11.504   8.667 -1.0614 -0.1407  0.9287
  826MOL0     C13861   4.436  11.633   8.686  0.2341  0.3579  0.0123
  826MOL0     C13862   4.473  11.699   8.551  0.2184 -0.2743  0.0819
  826MOL0     C13863   4.577  11.810   8.580  0.1189  0.7583 -0.1176
  826MOL0     C13864   4.527  11.948   8.625  0.3939  0.5186 -0.4748
  826MOL0     C13865   4.639  12.054   8.657 -0.8768 -0.4642  0.9256
  826MOL0     C13866   4.715  12.031   8.788  0.7357 -0.1181 -0.4491
  826MOL0     N13867   4.797  12.151   8.826  1.0611  0.0132  0.1377
  826MOL0     C13868   4.760  12.231   8.938  0.1155 -0.4353  0.4441
  826MOL0     C13869   4.839  12.343   8.932  0.0265  0.3604  0.1411
  826MOL0     C13870   4.835  12.446   9.036 -0.1923 -0.0642  0.1970
  826MOL0     C13871   4.704  12.528   9.043  0.5806 -0.5163 -0.7680
  826MOL0     C13872   4.665  12.545   9.192  0.3333 -0.1850 -0.3039
  826MOL0     C13873   4.526  12.589   9.223  0.0790  0.3929  0.0190
  826MOL0     O13874   4.513  12.735   9.222 -0.1605 -0.6364  1.0462
  826MOL0     C13875   4.527  12.807   9.335  0.0207  0.7084 -0.3754
  826MOL0     C13876   4.575  12.763   9.457 -0.1182 -0.7606  0.2862
  826MOL0     C13877   4.565  12.840   9.574 -0.1614  0.1662  0.6299
  826MOL0     C13878   4.629  12.787   9.705  0.6954 -0.4489  0.8441
  826MOL0     C13879   4.502  12.970   9.568 -0.4514 -0.5410  0.1043
  826MOL0     C13880   4.492  13.070   9.682 -0.3961  0.3422 -0.1197
  826MOL0     O13881   4.466  13.191   9.649  0.5810 -0.8557  0.7040
  826MOL0     C13882   4.390  13.268   9.736  0.2383 -0.4153 -0.1960
  826MOL0     C13883   4.445  13.395   9.783 -0.4532  0.4970  0.5835
  826MOL0     C13884   4.382  13.487   9.861  0.4400  0.8717 -0.1475
  826MOL0     C13885   4.253  13.454   9.904 -0.8923  0.1825 -0.4772
  826MOL0     O13886   4.177  13.547   9.963  0.4910  0.4287 -0.1911
  826MOL0     C13887   4.226  13.618  10.081 -0.8115 -0.5645  0.2722
  826MOL0     C13888   4.144  13.749  10.114 -0.0628  0.0756  1.5802
  826MOL0     C13889   4.221  13.820  10.219 -0.3146 -0.6930 -0.3976
  826MOL0     C13890   4.264  13.728  10.335  0.0856 -0.2866  0.8785
  826MOL0     C13891   4.337  13.793  10.454 -0.0845 -0.2720 -0.1208
  826MOL0     C13892   4.475  13.855  10.404  0.8991 -0.0800 -0.3602
  826MOL0     C13893   4.550  13.907  10.532  0.2619 -0.2800 -0.0734
  826MOL0     C13894   4.669  13.990  10.492 -0.2926 -0.1523 -0.2823
  826MOL0    Cl13895   4.800  13.908  10.413 -0.5494  0.4444  0.1777
  826MOL0     C13896   4.197  13.329   9.866 -0.7913 -1.1910 -0.0636
  826MOL0     C13897   4.268  13.237   9.790 -0.5070 -0.2910  1.1922
  826MOL0     O13898   4.487  13.023   9.798  0.5624 -0.9097  0.1101
  826MOL0     C13899   4.451  13.012   9.440  1.0278  0.6259 -0.2403
  826MOL0     C13900   4.461  12.935   9.328  0.0889  0.3312 -0.0749
  826MOL0     N13901   4.911  12.335   8.817  0.1902 -0.4929 -0.0558
  826MOL0     N13902   4.876  12.223   8.747 -1.0816  0.0106  0.3198
  826MOL0     C13903   3.987  11.614   9.004  0.0280  0.2298  0.2476
  826MOL0     C13904   3.909  11.576   9.120  0.4560 -0.5063 -0.0113
  826MOL0     C13905   3.730  11.280   9.435  0.9374 -0.1499 -0.1072
  826MOL0     C13906   3.624  11.361   9.467 -0.4615  0.0206  0.0772
  826MOL0     C13907   3.537  11.335   9.568  0.2449  0.8139 -1.0933
  826MOL0     C13908   3.575  11.245   9.674 -0.6134 -0.5935  0.3694
  826MOL0     O13909   3.516  11.224   9.796 -0.4469  0.1994  0.2047
  826MOL0     C13910   3.383  11.262   9.826 -0.4935 -0.9035 -0.3058
  826MOL0     C13911   3.324  11.160   9.929 -0.1507  0.6724  0.3486
  826MOL0     C13912   3.196  11.227   9.994  0.7310 -0.2357  0.1599
  826MOL0     C13913   3.131  11.150  10.103 -0.1763  0.0288 -0.6844
  826MOL0     C13914   3.023  11.222  10.170 -0.0192 -0.1892  0.7515
  826MOL0     C13915   2.924  11.279  10.215 -0.2160  0.2365 -1.1024
  826MOL0     C13916   3.696  11.184   9.651 -0.8040 -0.4699 -1.0545
  826MOL0     C13917   3.772  11.194   9.538  0.0428  0.3835 -0.1158
  826MOL0     C13918   3.905  11.119   9.524  0.3675 -0.6533  0.0560
  826MOL0     H13919   4.076  11.308   9.226  0.4712 -0.4768 -3.2989
  826MOL0     H13920   4.229  11.372   9.060  0.2989  0.3793  0.6240
  826MOL0     H13921   4.207  11.378   8.779 -1.1915  0.0246  0.8925
  826MOL0     H13922   4.343  11.439   8.877 -1.6197 -4.2389 -0.7703
  826MOL0     H13923   4.396  11.417   8.636 -0.6963  0.8763 -1.3487
  826MOL0     H13924   4.262  11.519   8.590  0.8640  1.1153 -0.8113
  826MOL0     H13925   4.377  11.712   8.733 -0.6104  0.8815 -1.8086
  826MOL0     H13926   4.522  11.600   8.744  0.8430 -0.6010 -1.3913
  826MOL0     H13927   4.519  11.621   8.489  0.4885  0.0278 -0.1009
  826MOL0     H13928   4.383  11.741   8.507  0.2313 -0.7134 -0.3689
  826MOL0     H13929   4.638  11.828   8.491  0.8332 -0.3493  0.1241
  826MOL0     H13930   4.636  11.755   8.654 -2.8306 -0.6836  1.3588
  826MOL0     H13931   4.453  11.986   8.554 -2.3404 -0.3502  1.7146
  826MOL0     H13932   4.486  11.937   8.726  1.3501 -3.4386 -0.3421
  826MOL0     H13933   4.600  12.156   8.672  0.4388 -0.2361  3.4349
  826MOL0     H13934   4.710  12.063   8.575  0.2787  0.9965  2.0207
  826MOL0     H13935   4.647  11.998   8.867 -2.0564  0.4774 -2.4411
  826MOL0     H13936   4.785  11.953   8.758 -0.2326 -0.4978 -1.8512
  826MOL0     H13937   4.699  12.213   9.025  1.3900  0.1158  1.4790
  826MOL0     H13938   4.926  12.504   9.018  0.1784 -0.9123 -0.7995
  826MOL0     H13939   4.856  12.403   9.134 -2.2837  0.0163  0.7068
  826MOL0     H13940   4.718  12.629   9.002 -3.0063  1.1318  1.5536
  826MOL0     H13941   4.628  12.478   8.983  1.6837 -4.1916  0.6513
  826MOL0     H13942   4.670  12.444   9.234  4.7856 -0.0323 -0.0620
  826MOL0     H13943   4.740  12.601   9.247 -0.6623  0.7622  0.1314
  826MOL0     H13944   4.459  12.552   9.145  1.0761  0.8756 -1.0959
  826MOL0     H13945   4.490  12.554   9.320 -1.7505  0.9093 -0.4398
  826MOL0     H13946   4.621  12.665   9.467 -2.2801 -1.8340  0.4384
  826MOL0     H13947   4.691  12.861   9.757 -1.0448  1.3335  0.5177
  826MOL0     H13948   4.696  12.700   9.699 -0.3985 -1.5570  3.2767
  826MOL0     H13949   4.551  12.761   9.778 -1.1092 -2.6133 -1.6275
  826MOL0     H13950   4.545  13.432   9.763 -1.6862  2.7397 -2.2107
  826MOL0     H13951   4.428  13.585   9.872 -1.4754  2.1313 -2.3529
  826MOL0     H13952   4.206  13.560  10.172 -1.6950  3.7946  3.1615
  826MOL0     H13953   4.331  13.649  10.079 -1.1957  0.7682 -1.5446
  826MOL0     H13954   4.143  13.793  10.014  1.1004 -1.7495  0.7091
  826MOL0     H13955   4.039  13.734  10.143 -1.1337  2.3063 -0.6956
  826MOL0     H13956   4.173  13.906  10.267  0.8317 -2.8890  5.6362
  826MOL0     H13957   4.312  13.862  10.174  0.4486  0.6914  2.2113
  826MOL0     H13958   4.337  13.652  10.306 -1.4660 -2.1246  1.6290
  826MOL0     H13959   4.184  13.667  10.377 -0.4072  1.0555  1.9812
  826MOL0     H13960   4.280  13.875  10.498  2.2801  0.7429  1.2896
  826MOL0     H13961   4.343  13.714  10.529  1.8340  0.4200  0.5309
  826MOL0     H13962   4.451  13.945  10.347 -1.3183  1.7676  3.1087
  826MOL0     H13963   4.532  13.779  10.349  0.1427 -1.4098  0.6424
  826MOL0     H13964   4.589  13.820  10.585  1.0553 -0.6671 -1.2569
  826MOL0     H13965   4.488  13.965  10.601  1.2910 -0.8728  1.4030
  826MOL0     H13966   4.709  14.034  10.584 -0.8950 -0.9707  0.3774
  826MOL0     H13967   4.639  14.071  10.424  1.8145  0.9032 -0.0554
  826MOL0     H13968   4.096  13.294   9.883  0.1439 -3.0396  2.1802
  826MOL0     H13969   4.217  13.151   9.749 -0.9609 -0.1354  1.4234
  826MOL0     H13970   4.401  13.109   9.437 -0.7171 -0.0843  2.4358
  826MOL0     H13971   4.407  12.967   9.240 -0.8501  3.4495  1.5094
  826MOL0     H13972   3.978  11.692   8.929  2.5309  0.8133  0.4500
  826MOL0     H13973   3.809  11.620   9.125 -1.2521 -3.9662 -0.6577
  826MOL0     H13974   3.592  11.442   9.402 -0.4459 -0.7050 -0.8555
  826MOL0     H13975   3.446  11.392   9.580  0.8176  1.1988  2.3660
  826MOL0     H13976   3.382  11.359   9.878 -0.5631 -0.7678 -0.5580
  826MOL0     H13977   3.318  11.269   9.738  0.2108 -0.3198 -0.7965
  826MOL0     H13978   3.400  11.126   9.999  0.4585 -0.8339 -0.9635
  826MOL0     H13979   3.287  11.072   9.875  0.8931  0.0192  0.6734
  826MOL0     H13980   3.222  11.326  10.034 -1.6194 -0.0644  1.4421
  826MOL0     H13981   3.124  11.245   9.914 -1.4785  0.3692  2.1888
  826MOL0     H13982   3.199  11.115  10.181 -0.8621 -3.1193 -1.3752
  826MOL0     H13983   3.106  11.058  10.049 -2.4794 -1.1757  2.1705
  826MOL0     H13984   2.841  11.322  10.266  1.9124  3.4078 -0.0005
  826MOL0     H13985   3.736  11.108   9.717  0.7882 -0.7043 -2.2506
  826MOL0     H13986   3.994  11.178   9.547 -0.5033  0.4499  0.7069
  826MOL0     H13987   3.909  11.032   9.591 -1.0073 -1.3881 -0.7632
  826MOL0     H13988   3.933  11.094   9.422  1.9866  1.2811 -0.0244
  827MOL0     O13989   5.313   8.669   9.330  0.1452 -0.6259 -0.1571
  827MOL0     C13990   5.430   8.673   9.290  0.3940 -0.4523  0.4803
  827MOL0     O13991   5.543   8.666   9.372 -0.5788 -0.2233  0.8541
  827MOL0     C13992   5.530   8.671   9.502 -0.0706  0.6402  0.1183
  827MOL0     C13993   5.435   8.739   9.573 -0.3921 -0.6615 -0.0024
  827MOL0     C13994   5.435   8.741   9.716 -0.0899  1.6656  0.5906
  827MOL0     C13995   5.535   8.680   9.789 -0.3960  0.3376  0.7878
  827MOL0     O13996   5.516   8.673   9.927 -0.2842 -0.6351  0.4987
  827MOL0     C13997   5.496   8.540   9.992  0.1494 -0.2986  0.2011
  827MOL0     C13998   5.512   8.554  10.141 -0.7830 -0.0130  0.8475
  827MOL0     C13999   5.513   8.407  10.198 -0.6290  0.6841 -0.8176
  827MOL0     C14000   5.507   8.410  10.355 -0.0597 -0.1071 -0.0561
  827MOL0     C14001   5.438   8.282  10.419  0.4834 -0.2405  0.7195
  827MOL0     C14002   5.341   8.312  10.538 -0.1533  0.1059 -0.2383
  827MOL0     C14003   5.285   8.180  10.586  0.0163 -0.0213  0.4479
  827MOL0     C14004   5.210   8.191  10.720  0.3517  0.1054  0.3675
  827MOL0     N14005   5.140   8.063  10.750 -1.0828 -0.2503 -0.0592
  827MOL0     C14006   5.027   8.003  10.701  0.8358  0.0607  0.2653
  827MOL0     C14007   5.035   7.880  10.768  0.1712  0.0140 -0.2109
  827MOL0     C14008   4.924   7.786  10.764  0.6441 -0.4670  0.2804
  827MOL0     C14009   4.943   7.640  10.733  0.0325 -0.2735 -0.3252
  827MOL0     C14010   5.059   7.609  10.636  0.0955 -1.1509 -0.3861
  827MOL0     C14011   5.071   7.461  10.609 -0.3829  0.1042 -0.3488
  827MOL0     O14012   5.142   7.374  10.701  0.1065  0.5176 -0.6484
  827MOL0     C14013   5.158   7.241  10.684  0.0454  0.8422  0.0600
  827MOL0     C14014   5.105   7.172  10.579  0.3264 -0.0235  1.1137
  827MOL0     C14015   5.103   7.028  10.563 -0.8122 -0.4916  0.2487
  827MOL0     C14016   5.068   6.968  10.432  0.2677  0.4666  0.0610
  827MOL0     C14017   5.160   6.957  10.668  0.4319 -1.1937  0.7483
  827MOL0     C14018   5.159   6.813  10.670 -0.4202  0.4036 -0.2125
  827MOL0     O14019   5.034   6.754  10.663  0.2518  0.1577 -0.2028
  827MOL0     C14020   5.017   6.618  10.641  0.1020 -0.3442 -0.1179
  827MOL0     C14021   5.091   6.540  10.548  0.3425 -0.4066 -0.5884
  827MOL0     C14022   5.075   6.403  10.536 -0.2713  0.8430 -0.8218
  827MOL0     C14023   4.968   6.337  10.604 -0.3507  0.1411 -0.2538
  827MOL0     O14024   4.952   6.193  10.614 -0.4134 -0.7869 -0.9289
  827MOL0     C14025   5.074   6.111  10.612  1.4185 -0.4350 -0.1365
  827MOL0     C14026   5.174   6.122  10.725 -0.7237 -0.1722  0.1170
  827MOL0     C14027   5.138   6.081  10.865  0.2142 -0.2141 -0.2214
  827MOL0     C14028   5.056   6.174  10.953  0.0582  0.5943 -0.6074
  827MOL0     C14029   5.062   6.127  11.102  1.1147  0.1595 -0.8187
  827MOL0     C14030   4.956   6.023  11.135  0.5437  0.7418 -0.5344
  827MOL0     C14031   4.824   6.085  11.145  0.2463 -0.9845 -0.1988
  827MOL0     C14032   4.712   5.990  11.169  0.3499 -0.2777  0.2658
  827MOL0    Cl14033   4.691   5.959  11.342 -0.2050  0.1736  0.3937
  827MOL0     C14034   4.884   6.416  10.687  0.4383  0.5558 -0.4760
  827MOL0     C14035   4.909   6.552  10.705  0.0676  0.2107  0.3512
  827MOL0     O14036   5.268   6.751  10.669 -0.6878  0.0588 -0.1305
  827MOL0     C14037   5.216   7.027  10.772 -0.0819  0.5041  0.0949
  827MOL0     C14038   5.218   7.163  10.781  0.1574  0.4451 -0.0677
  827MOL0     N14039   5.137   7.873  10.859  0.2880 -0.3092 -1.2091
  827MOL0     N14040   5.196   7.985  10.847 -0.3832  0.4761 -0.3592
  827MOL0     C14041   5.637   8.619   9.724  0.2571  0.1463  0.0433
  827MOL0     C14042   5.636   8.612   9.584  0.1557 -0.2167 -0.0756
  827MOL0     C14043   5.458   8.676   9.145  0.8580  0.9397  0.1587
  827MOL0     C14044   5.588   8.640   9.101 -0.1403 -0.0578 -0.1705
  827MOL0     C14045   5.622   8.631   8.970 -0.2741 -0.5066  0.1951
  827MOL0     C14046   5.529   8.658   8.873 -0.1958  0.2256  0.0552
  827MOL0     O14047   5.566   8.629   8.741 -0.4958  0.5760  0.1751
  827MOL0     C14048   5.526   8.501   8.692  0.0760 -1.0953  0.4225
  827MOL0     C14049   5.656   8.419   8.677  0.1953  0.0900  0.0839
  827MOL0     C14050   5.736   8.459   8.554 -0.6341  0.4474  0.4305
  827MOL0     C14051   5.884   8.441   8.565 -0.8455 -0.0112  0.3054
  827MOL0     C14052   5.930   8.309   8.528 -0.9304 -0.7388 -0.2835
  827MOL0     C14053   5.966   8.193   8.495 -0.3997 -0.6118 -0.1122
  827MOL0     C14054   5.405   8.709   8.908  0.4414 -0.5226  0.1775
  827MOL0     C14055   5.362   8.702   9.042  0.2788  0.3055  0.4118
  827MOL0     C14056   5.223   8.726   9.070  0.7688 -0.2035  0.5095
  827MOL0     H14057   5.348   8.794   9.541 -1.8467  0.0063  4.4233
  827MOL0     H14058   5.341   8.758   9.767  0.4208  0.4318  2.0070
  827MOL0     H14059   5.579   8.477   9.959  1.3151 -0.0240  2.4291
  827MOL0     H14060   5.404   8.490   9.960  0.1652 -0.1127 -0.1424
  827MOL0     H14061   5.604   8.608  10.163  0.9905 -2.3053 -0.4370
  827MOL0     H14062   5.434   8.611  10.190  0.6408  2.5988  0.2642
  827MOL0     H14063   5.438   8.340  10.156  1.9881 -2.1451 -1.3179
  827MOL0     H14064   5.607   8.360  10.168 -0.1499  0.7138  0.5650
  827MOL0     H14065   5.607   8.430  10.397  1.1388 -3.5006 -0.9985
  827MOL0     H14066   5.445   8.499  10.372 -1.6232 -1.1716 -0.0120
  827MOL0     H14067   5.513   8.213  10.458  2.1841  1.9638  1.5361
  827MOL0     H14068   5.377   8.235  10.341 -0.0056 -0.0231  0.9688
  827MOL0     H14069   5.408   8.351  10.615 -0.9873  2.5651 -0.6794
  827MOL0     H14070   5.260   8.383  10.517 -0.9214  0.2358  2.7435
  827MOL0     H14071   5.371   8.112  10.582  1.8636  2.2187  0.1750
  827MOL0     H14072   5.216   8.136  10.513 -0.8955 -1.8490  2.3080
  827MOL0     H14073   5.283   8.217  10.796  1.3797  0.9958 -0.8753
  827MOL0     H14074   5.145   8.279  10.712 -0.0588 -0.2568 -0.5272
  827MOL0     H14075   4.945   8.042  10.641  0.8282  0.8311  0.7701
  827MOL0     H14076   4.860   7.831  10.687 -0.2334  0.3346  1.4463
  827MOL0     H14077   4.867   7.801  10.856 -1.5851 -1.0353 -0.9321
  827MOL0     H14078   4.975   7.589  10.824 -2.1919  0.2056  0.7887
  827MOL0     H14079   4.842   7.605  10.708  0.0380 -1.0417  0.6725
  827MOL0     H14080   5.041   7.661  10.541  2.1461 -0.0011 -0.1967
  827MOL0     H14081   5.153   7.633  10.686  0.3461 -2.0246 -0.4294
  827MOL0     H14082   4.974   7.415  10.588  0.4004 -0.5605 -2.9041
  827MOL0     H14083   5.122   7.455  10.512 -2.7873  0.9263 -1.7493
  827MOL0     H14084   5.066   7.219  10.489 -2.4180 -1.0017  1.7063
  827MOL0     H14085   5.057   6.860  10.426  0.0238  0.5635 -2.3641
  827MOL0     H14086   5.143   6.987  10.354 -0.3211 -0.8181 -0.8477
  827MOL0     H14087   4.972   7.001  10.391 -1.1202 -3.5071 -0.3210
  827MOL0     H14088   5.170   6.592  10.495  1.0992 -0.9093  0.0333
  827MOL0     H14089   5.139   6.344  10.471 -2.2632 -0.4979 -1.6814
  827MOL0     H14090   5.035   6.010  10.598  0.0839  0.4318 -3.3449
  827MOL0     H14091   5.125   6.139  10.520  1.2364  3.4739  0.7700
  827MOL0     H14092   5.270   6.078  10.700 -0.4039  0.8639 -0.5476
  827MOL0     H14093   5.218   6.222  10.723  0.7554 -0.7741 -2.4602
  827MOL0     H14094   5.234   6.062  10.913  1.0841 -0.2768 -1.9151
  827MOL0     H14095   5.088   5.984  10.858  1.9344 -1.2573  1.1066
  827MOL0     H14096   4.959   6.183  10.903  0.4652 -0.6410 -1.6628
  827MOL0     H14097   5.096   6.276  10.949 -2.1366  1.5091 -0.4595
  827MOL0     H14098   5.151   6.071  11.133  0.1478 -1.2501 -0.4697
  827MOL0     H14099   5.054   6.219  11.160  1.7834  0.4562 -1.1745
  827MOL0     H14100   4.990   5.973  11.226  3.9062 -0.8828 -2.4549
  827MOL0     H14101   4.969   5.953  11.051  4.2622 -0.7140  1.0243
  827MOL0     H14102   4.799   6.156  11.067 -0.4192 -1.1800 -0.1625
  827MOL0     H14103   4.819   6.146  11.236  1.6947 -2.0528  0.6514
  827MOL0     H14104   4.723   5.887  11.133  1.7378 -0.1179  0.1700
  827MOL0     H14105   4.620   6.033  11.128  0.1629 -0.4473  0.5061
  827MOL0     H14106   4.813   6.374  10.757 -1.0650  0.0013 -2.2442
  827MOL0     H14107   4.856   6.612  10.777  0.2056 -0.5071  1.0651
  827MOL0     H14108   5.245   6.963  10.856 -1.6036 -0.0451  0.2337
  827MOL0     H14109   5.263   7.209  10.869  2.6309 -0.9607 -0.5224
  827MOL0     H14110   5.724   8.573   9.769 -0.6055 -0.3529  1.2766
  827MOL0     H14111   5.711   8.549   9.537  0.5136 -1.4955  2.1003
  827MOL0     H14112   5.665   8.612   9.172  1.5761 -2.1361 -2.6553
  827MOL0     H14113   5.722   8.596   8.950 -0.4735 -2.5775  2.3203
  827MOL0     H14114   5.445   8.464   8.756  0.5216  0.7929  2.1927
  827MOL0     H14115   5.484   8.527   8.595 -1.2146  1.8828  1.6510
  827MOL0     H14116   5.628   8.315   8.660 -1.0671  0.5537 -0.8912
  827MOL0     H14117   5.713   8.434   8.769  2.1291  3.6818 -1.5146
  827MOL0     H14118   5.704   8.403   8.465  0.4059 -1.2720  1.0786
  827MOL0     H14119   5.732   8.564   8.525 -0.0198  0.0042 -1.4417
  827MOL0     H14120   5.931   8.460   8.662  3.0021  0.5186 -1.4908
  827MOL0     H14121   5.925   8.501   8.483 -1.2965  1.5616  1.1961
  827MOL0     H14122   6.003   8.104   8.449  0.1950 -0.1974 -0.4641
  827MOL0     H14123   5.336   8.730   8.827  0.0609 -0.3564  0.5414
  827MOL0     H14124   5.173   8.630   9.084  0.0176  0.2071  0.6935
  827MOL0     H14125   5.201   8.791   9.155 -1.5390 -0.9790  0.5671
  827MOL0     H14126   5.167   8.774   8.988 -0.0545  0.5074  1.4574
  828MOL0     O14127   1.975   6.964   0.517  0.4275 -0.0674 -0.7136
  828MOL0     C14128   1.925   7.079   0.530  0.8738 -0.2560 -0.0303
  828MOL0     O14129   1.796   7.107   0.564  0.3564 -0.5332 -0.9812
  828MOL0     C14130   1.699   7.013   0.596 -0.2356  0.0148 -0.0384
  828MOL0     C14131   1.645   7.003   0.726 -0.3662 -1.5129 -0.3571
  828MOL0     C14132   1.551   6.910   0.765 -0.2731  0.0684  0.1400
  828MOL0     C14133   1.489   6.818   0.670 -0.3001 -0.4338  0.0023
  828MOL0     O14134   1.384   6.731   0.704  0.3534  0.2736  0.3569
  828MOL0     C14135   1.272   6.784   0.779  0.2864  0.6788  0.5600
  828MOL0     C14136   1.176   6.673   0.827 -0.7252 -0.0280  0.6436
  828MOL0     C14137   1.058   6.720   0.906 -0.4003 -0.3434 -0.9632
  828MOL0     C14138   0.971   6.593   0.932 -0.4139 -0.9531  0.1086
  828MOL0     C14139   0.865   6.645   1.036  0.2084 -0.2514 -0.7081
  828MOL0     C14140   0.762   6.540   1.049 -0.4176 -0.2406  0.6949
  828MOL0     C14141   0.679   6.547   1.183 -0.8789  0.0401  0.1291
  828MOL0     C14142   0.613   6.416   1.227  0.1829 -0.2544 -0.4026
  828MOL0     N14143   0.502   6.369   1.140 -0.9065 -0.2655  0.4843
  828MOL0     C14144   0.372   6.355   1.175 -1.0763  0.0020 -1.0244
  828MOL0     C14145   0.317   6.253   1.097 -1.2463 -0.7760 -0.4019
  828MOL0     C14146   0.173   6.211   1.088 -0.0556 -0.6781  0.3802
  828MOL0     C14147   0.095   6.335   1.033  0.8275 -0.2337 -0.4236
  828MOL0     C14148   0.097   6.363   0.883 -0.3770 -0.3478 -0.3929
  828MOL0     C14149   0.228   6.349   0.808  0.7473  0.4750 -0.3123
  828MOL0     O14150   0.224   6.380   0.662  0.5466 -0.0362 -0.6100
  828MOL0     C14151   0.331   6.433   0.597 -0.7211 -0.3279 -0.1009
  828MOL0     C14152   0.319   6.413   0.459  0.1112  0.4676 -1.5699
  828MOL0     C14153   0.423   6.436   0.370 -0.5162  0.1213  0.5963
  828MOL0     C14154   0.397   6.408   0.221  0.1893 -0.2950  0.0666
  828MOL0     C14155   0.551   6.477   0.433  0.0440 -0.1456 -0.6475
  828MOL0     C14156   0.669   6.500   0.350  0.6149  0.3353 -1.0788
  828MOL0     O14157   0.676   6.458   0.230  0.6769 -0.0323 -0.2005
  828MOL0     C14158   0.790   6.461   0.154  0.4374 -0.0191  0.2126
  828MOL0     C14159   0.755   6.462   0.017  0.0465  0.1098  0.4537
  828MOL0     C14160   0.844   6.483  -0.088  0.4857  1.3647  0.1782
  828MOL0     C14161   0.980   6.495  -0.050  0.4135  0.1975  0.8520
  828MOL0     O14162   1.070   6.506  -0.149  0.6504  0.3980  0.0867
  828MOL0     C14163   1.086   6.382  -0.221  0.5693 -0.1786  0.4714
  828MOL0     C14164   1.240   6.371  -0.240  0.0485 -0.6100 -0.0413
  828MOL0     C14165   1.312   6.374  -0.101 -0.5152 -0.5240  0.0323
  828MOL0     C14166   1.468   6.368  -0.117 -0.4063 -0.0022 -0.0080
  828MOL0     C14167   1.540   6.365   0.020 -0.9349 -0.2173 -0.4185
  828MOL0     C14168   1.680   6.407  -0.008  0.4608  0.4664  1.3900
  828MOL0     C14169   1.751   6.307  -0.106  1.2695 -1.0215 -0.4973
  828MOL0     C14170   1.894   6.338  -0.113 -1.2307 -0.4827 -0.8401
  828MOL0    Cl14171   1.979   6.286  -0.261 -0.2286 -0.0507 -0.3511
  828MOL0     C14172   1.014   6.503   0.081  1.0909  0.0657  0.1059
  828MOL0     C14173   0.920   6.490   0.185 -0.3512  0.6027 -0.3092
  828MOL0     O14174   0.763   6.561   0.411  1.0793  0.3283 -1.1951
  828MOL0     C14175   0.550   6.520   0.564 -0.2792 -0.1458 -1.1788
  828MOL0     C14176   0.446   6.490   0.655  0.1890 -0.4167 -0.5032
  828MOL0     N14177   0.422   6.202   1.029 -0.0472  0.2910  0.8138
  828MOL0     N14178   0.524   6.267   1.056 -0.0871  0.3203  0.2745
  828MOL0     C14179   1.537   6.844   0.535  0.1570 -0.4390  0.8652
  828MOL0     C14180   1.644   6.932   0.498  0.6662 -0.9271 -0.4763
  828MOL0     C14181   2.016   7.202   0.508 -0.0884  0.2863 -1.1682
  828MOL0     C14182   2.149   7.179   0.464 -0.6975  0.4124 -0.9048
  828MOL0     C14183   2.244   7.286   0.449  1.6086  1.2322  0.6499
  828MOL0     C14184   2.210   7.417   0.470  0.3334 -0.3385 -0.1772
  828MOL0     O14185   2.304   7.501   0.420 -0.6182 -0.6738 -0.5928
  828MOL0     C14186   2.275   7.609   0.332  0.2698  0.0826 -0.2196
  828MOL0     C14187   2.385   7.710   0.332 -0.3309 -0.3373  0.0410
  828MOL0     C14188   2.358   7.805   0.216 -0.6359 -0.9361  0.4704
  828MOL0     C14189   2.471   7.910   0.194 -0.3455  0.6350 -0.5808
  828MOL0     C14190   2.458   8.005   0.084 -0.2242  0.6185  0.5182
  828MOL0     C14191   2.457   8.069  -0.012 -0.0517 -0.7710  0.4211
  828MOL0     C14192   2.075   7.443   0.503  0.6274 -1.2987  0.1841
  828MOL0     C14193   1.983   7.335   0.538 -0.1686  0.4415 -0.6969
  828MOL0     C14194   1.848   7.379   0.600  0.0288 -1.0666  0.0706
  828MOL0     H14195   1.702   7.061   0.798  0.4711 -3.9654  1.0735
  828MOL0     H14196   1.536   6.906   0.872 -1.2087  0.6234  0.0432
  828MOL0     H14197   1.209   6.845   0.715  0.6328  1.2499  0.7571
  828MOL0     H14198   1.302   6.835   0.871 -1.2603 -0.4680  1.7344
  828MOL0     H14199   1.143   6.620   0.737  3.1725  0.6463 -1.4210
  828MOL0     H14200   1.237   6.602   0.884 -1.0513 -0.5854  0.3153
  828MOL0     H14201   1.087   6.764   1.002  0.0911  1.8537 -2.0389
  828MOL0     H14202   1.000   6.799   0.857  2.3006  2.6294  0.2878
  828MOL0     H14203   0.919   6.556   0.843 -1.4836  2.5866 -0.9165
  828MOL0     H14204   1.021   6.516   0.991  0.0200 -1.3940 -0.8174
  828MOL0     H14205   0.819   6.740   1.006 -2.6473 -1.4328 -0.4666
  828MOL0     H14206   0.906   6.663   1.136  1.2554 -1.5276 -0.8915
  828MOL0     H14207   0.699   6.534   0.960  0.1469 -2.7255  0.3918
  828MOL0     H14208   0.813   6.444   1.058 -3.0353 -1.6103  1.8753
  828MOL0     H14209   0.600   6.623   1.182 -0.3838  0.6526  2.1793
  828MOL0     H14210   0.749   6.582   1.259  0.6471 -3.5681  0.5690
  828MOL0     H14211   0.685   6.333   1.221 -0.3897 -0.6532 -3.0238
  828MOL0     H14212   0.593   6.435   1.333  1.2361  1.9404 -0.5590
  828MOL0     H14213   0.313   6.410   1.248 -1.4372  0.6564 -1.7982
  828MOL0     H14214   0.135   6.171   1.182 -3.0055 -1.9440 -1.2308
  828MOL0     H14215   0.161   6.133   1.013  0.6106 -0.2629 -0.1704
  828MOL0     H14216  -0.010   6.320   1.058  0.8473 -0.5818 -0.5516
  828MOL0     H14217   0.120   6.430   1.082 -1.4222  0.2718 -0.1505
  828MOL0     H14218   0.023   6.301   0.832  0.4793 -2.9896  1.3611
  828MOL0     H14219   0.059   6.465   0.877 -1.9434 -0.8015  0.9899
  828MOL0     H14220   0.299   6.414   0.861 -1.1570  2.1702  0.2939
  828MOL0     H14221   0.263   6.246   0.816 -2.3703 -0.5673  1.2157
  828MOL0     H14222   0.223   6.368   0.437 -0.5771  0.3261  1.2685
  828MOL0     H14223   0.463   6.334   0.174  0.4101 -0.2519  0.3091
  828MOL0     H14224   0.401   6.506   0.173  1.5542  1.8690  4.1704
  828MOL0     H14225   0.297   6.367   0.204  0.6365 -0.8948 -1.2994
  828MOL0     H14226   0.650   6.438  -0.002  0.3760 -3.3490  2.1005
  828MOL0     H14227   0.814   6.493  -0.192  1.6448 -0.5252 -0.3929
  828MOL0     H14228   1.042   6.290  -0.180 -1.1479 -0.1359 -1.1779
  828MOL0     H14229   1.037   6.394  -0.318  1.5888  0.9076  0.0616
  828MOL0     H14230   1.277   6.280  -0.287  0.1463 -0.5064 -0.1642
  828MOL0     H14231   1.261   6.461  -0.300  1.1894 -0.0524  1.1334
  828MOL0     H14232   1.274   6.308  -0.023 -1.7754  0.5454  0.3619
  828MOL0     H14233   1.310   6.473  -0.053  2.6979 -0.4837  0.3013
  828MOL0     H14234   1.495   6.455  -0.178  1.7430 -1.6871 -1.6657
  828MOL0     H14235   1.496   6.270  -0.157 -1.9262 -1.1822  1.6770
  828MOL0     H14236   1.493   6.434   0.091  0.3070  0.6076 -0.3636
  828MOL0     H14237   1.535   6.271   0.075  1.6864  0.8156  1.8045
  828MOL0     H14238   1.740   6.398   0.083  0.8189 -2.6436  0.9546
  828MOL0     H14239   1.686   6.510  -0.043  2.7969  0.1178  0.5812
  828MOL0     H14240   1.714   6.317  -0.209  1.5054 -1.4956 -0.6271
  828MOL0     H14241   1.733   6.207  -0.066  1.6944  0.3182  3.5635
  828MOL0     H14242   1.938   6.279  -0.033  0.8065  1.5727 -0.3359
  828MOL0     H14243   1.919   6.442  -0.091 -1.0379 -0.1232 -2.6079
  828MOL0     H14244   1.115   6.517   0.116  1.6263 -2.5911 -0.1789
  828MOL0     H14245   0.943   6.498   0.291 -3.1709  0.2912  0.4212
  828MOL0     H14246   0.641   6.556   0.611 -2.4683  1.8048  1.9349
  828MOL0     H14247   0.458   6.487   0.763 -1.9812  0.3834 -0.2005
  828MOL0     H14248   1.479   6.800   0.455  2.5815  0.5842 -1.6119
  828MOL0     H14249   1.688   6.943   0.400 -0.7299  0.5647 -0.9767
  828MOL0     H14250   2.191   7.082   0.443 -1.9511 -0.3696  0.0592
  828MOL0     H14251   2.342   7.246   0.426  0.2693 -2.4186  0.5628
  828MOL0     H14252   2.268   7.571   0.229  2.1253 -1.7056  0.2378
  828MOL0     H14253   2.183   7.661   0.358 -1.6669 -1.3256 -3.5944
  828MOL0     H14254   2.485   7.666   0.334 -0.9821 -2.0834 -2.1410
  828MOL0     H14255   2.376   7.775   0.420  0.4225  0.0842 -0.1850
  828MOL0     H14256   2.360   7.743   0.126  0.1254  0.0612 -0.2266
  828MOL0     H14257   2.263   7.860   0.224 -1.5510 -2.1970 -1.1625
  828MOL0     H14258   2.572   7.868   0.198 -0.7818 -0.4453  2.8565
  828MOL0     H14259   2.475   7.979   0.280  2.5784  0.3289 -0.3469
  828MOL0     H14260   2.467   8.126  -0.102 -1.0414  0.8784  1.3146
  828MOL0     H14261   2.049   7.548   0.508  0.0425 -1.2776 -2.1604
  828MOL0     H14262   1.833   7.343   0.702  0.5075  0.4161  0.6891
  828MOL0     H14263   1.842   7.488   0.614  1.7891 -1.0172  0.6232
  828MOL0     H14264   1.767   7.343   0.535 -1.1844  2.6867 -0.7693
  829MOL0     O14265   1.185   5.017   8.273  0.7202 -0.3939  0.8518
  829MOL0     C14266   1.126   5.086   8.355  0.0167 -0.2158 -0.1996
  829MOL0     O14267   1.114   5.057   8.485 -0.1368 -0.0249 -0.0839
  829MOL0     C14268   1.189   4.949   8.532 -0.4686  0.0897 -0.2761
  829MOL0     C14269   1.138   4.823   8.564 -0.0468  0.1289 -0.4626
  829MOL0     C14270   1.212   4.728   8.612 -0.7874  0.5189 -0.3269
  829MOL0     C14271   1.356   4.742   8.624 -0.1914 -1.1733 -0.8832
  829MOL0     O14272   1.432   4.648   8.685 -0.2485  0.2512  0.4728
  829MOL0     C14273   1.368   4.540   8.750  0.8315  1.5481  0.8500
  829MOL0     C14274   1.477   4.468   8.839 -0.0629 -0.1228  1.2264
  829MOL0     C14275   1.591   4.409   8.750  0.6927  0.4915  0.1709
  829MOL0     C14276   1.664   4.303   8.839  0.3950  0.7879  0.4827
  829MOL0     C14277   1.806   4.288   8.789 -1.4198  0.1902  0.7948
  829MOL0     C14278   1.880   4.186   8.874 -0.3290  0.0005 -0.7174
  829MOL0     C14279   2.028   4.160   8.830  0.6430 -0.7109  0.4408
  829MOL0     C14280   2.026   4.103   8.684  0.2391  0.0069  0.0343
  829MOL0     N14281   2.150   4.034   8.653 -0.2974 -0.6441  0.8787
  829MOL0     C14282   2.274   4.099   8.663  0.3835 -0.3915  0.4073
  829MOL0     C14283   2.370   4.002   8.624  0.0515 -0.2319  0.5602
  829MOL0     C14284   2.519   4.003   8.635  0.4224  0.6030 -0.5242
  829MOL0     C14285   2.591   4.105   8.533  0.0788 -0.0684  0.0091
  829MOL0     C14286   2.746   4.090   8.535  0.5514  0.1344 -0.8630
  829MOL0     C14287   2.792   3.950   8.517  0.1339 -0.1446  1.1988
  829MOL0     O14288   2.783   3.887   8.643  0.5765 -0.1125  0.5144
  829MOL0     C14289   2.875   3.915   8.740 -0.6857  0.1093 -0.2947
  829MOL0     C14290   2.824   3.880   8.866 -0.9397  0.0098  0.3796
  829MOL0     C14291   2.893   3.887   8.985 -0.2064 -0.7190 -0.8481
  829MOL0     C14292   2.839   3.841   9.113  0.1235  0.1233 -0.3913
  829MOL0     C14293   3.026   3.939   8.983  0.0513 -0.3355 -0.2201
  829MOL0     C14294   3.108   3.952   9.100 -0.0590  0.1945 -0.5188
  829MOL0     O14295   3.056   3.997   9.220  0.0727 -0.6265 -0.1192
  829MOL0     C14296   3.138   4.077   9.296 -0.5629 -0.0512  0.4080
  829MOL0     C14297   3.260   4.035   9.352  0.3620 -0.5715 -0.9036
  829MOL0     C14298   3.333   4.134   9.432  0.2540  0.5634  1.0610
  829MOL0     C14299   3.283   4.254   9.463  0.3658  0.5348 -0.3638
  829MOL0     O14300   3.367   4.349   9.524  0.3195  0.4810  0.0393
  829MOL0     C14301   3.345   4.482   9.483  0.0886  0.2719  0.3929
  829MOL0     C14302   3.464   4.568   9.522  0.1708  0.0302 -0.6359
  829MOL0     C14303   3.444   4.716   9.483  0.4700  0.4286  0.3649
  829MOL0     C14304   3.572   4.787   9.522 -0.1993 -0.1882  0.7378
  829MOL0     C14305   3.543   4.883   9.638  0.0362  0.1821 -0.0425
  829MOL0     C14306   3.677   4.908   9.712 -0.5645 -0.0366 -1.2226
  829MOL0     C14307   3.650   4.989   9.837 -0.6049  0.9888  0.7990
  829MOL0     C14308   3.777   5.017   9.924  0.0564 -0.6147 -0.6442
  829MOL0    Cl14309   3.700   5.061  10.086 -0.4356 -0.1155 -0.0119
  829MOL0     C14310   3.150   4.281   9.424 -0.2409 -0.7431  0.1938
  829MOL0     C14311   3.086   4.200   9.333 -0.1701  0.1921 -0.2180
  829MOL0     O14312   3.226   3.936   9.078 -0.5540  0.8566 -0.1056
  829MOL0     C14313   3.078   3.972   8.860 -0.6672  1.2324  0.0564
  829MOL0     C14314   3.006   3.966   8.740  0.4642  0.4684 -0.8640
  829MOL0     N14315   2.299   3.889   8.600 -0.7921  0.1631  0.3350
  829MOL0     N14316   2.172   3.900   8.618 -0.0438  0.1277  0.9642
  829MOL0     C14317   1.410   4.865   8.579 -0.5888 -0.3502 -0.5993
  829MOL0     C14318   1.331   4.974   8.542  0.3122  0.5251  0.6165
  829MOL0     C14319   1.081   5.219   8.316  0.1293 -0.9922  1.5333
  829MOL0     C14320   1.085   5.329   8.405 -0.7186  1.1755  0.2457
  829MOL0     C14321   1.048   5.451   8.370 -0.7010 -0.3750 -1.0195
  829MOL0     C14322   1.010   5.488   8.243 -0.3292 -0.2205  0.1841
  829MOL0     O14323   0.976   5.612   8.198 -0.3327  0.2103  0.1845
  829MOL0     C14324   1.022   5.726   8.261 -0.9289  0.6536 -1.0493
  829MOL0     C14325   0.964   5.855   8.211 -0.1575 -0.0798 -0.5265
  829MOL0     C14326   1.008   5.910   8.071  0.9905  0.6991  0.4099
  829MOL0     C14327   0.988   6.059   8.045  0.8238 -0.0619 -0.1595
  829MOL0     C14328   0.843   6.072   8.011 -0.7065  0.2571 -0.4196
  829MOL0     C14329   0.727   6.080   7.990 -0.4538 -0.1587 -0.3543
  829MOL0     C14330   1.009   5.393   8.150 -0.0862  1.2577  1.0170
  829MOL0     C14331   1.042   5.256   8.178  0.0288 -0.6805 -0.8320
  829MOL0     C14332   1.037   5.160   8.057 -0.1623 -0.5074  0.6264
  829MOL0     H14333   1.030   4.812   8.556 -0.2703 -1.6554  3.2192
  829MOL0     H14334   1.171   4.631   8.638  3.2069 -1.1157  0.5800
  829MOL0     H14335   1.308   4.480   8.681 -0.4706  1.9266  1.6111
  829MOL0     H14336   1.286   4.578   8.812 -0.1205  1.0888 -0.0805
  829MOL0     H14337   1.506   4.536   8.919  0.5102 -0.7696  1.5845
  829MOL0     H14338   1.420   4.385   8.881  0.3160 -0.2662  1.4595
  829MOL0     H14339   1.543   4.379   8.656 -1.4284  5.1093 -0.4779
  829MOL0     H14340   1.649   4.498   8.726 -0.9379  2.0367  1.7110
  829MOL0     H14341   1.674   4.350   8.938  0.9378 -0.6871  1.1608
  829MOL0     H14342   1.614   4.206   8.837  2.1348 -0.1853  1.3737
  829MOL0     H14343   1.856   4.385   8.784  1.2038 -1.1158 -2.6844
  829MOL0     H14344   1.814   4.254   8.685  3.0755  1.3651  0.5488
  829MOL0     H14345   1.884   4.228   8.975  1.5084 -1.1085 -0.2800
  829MOL0     H14346   1.828   4.089   8.871 -0.4521 -0.1270  2.3781
  829MOL0     H14347   2.085   4.103   8.904 -0.6097  0.3460  2.3001
  829MOL0     H14348   2.077   4.258   8.823 -0.9616  0.1744  0.9782
  829MOL0     H14349   1.949   4.029   8.663  1.3324 -1.3651  0.6744
  829MOL0     H14350   2.016   4.186   8.613  0.9812  2.0801  2.1914
  829MOL0     H14351   2.305   4.194   8.706  2.5813 -0.4338 -0.9239
  829MOL0     H14352   2.539   3.897   8.619 -1.2262  0.1742  0.0415
  829MOL0     H14353   2.558   4.023   8.735  1.3278 -0.5359 -0.6270
  829MOL0     H14354   2.560   4.079   8.431  0.0610  1.0076 -0.2718
  829MOL0     H14355   2.569   4.210   8.553  1.9269 -0.2804  4.2797
  829MOL0     H14356   2.780   4.147   8.448 -0.7576 -1.3142 -2.3830
  829MOL0     H14357   2.788   4.136   8.625  1.0847  1.2334 -1.6413
  829MOL0     H14358   2.731   3.896   8.444  0.9663 -1.9368  1.7534
  829MOL0     H14359   2.889   3.932   8.470 -0.3527  1.0787 -0.3524
  829MOL0     H14360   2.727   3.834   8.881 -1.1300  0.7319  1.5582
  829MOL0     H14361   2.741   3.794   9.101 -0.6206  1.4623  0.2617
  829MOL0     H14362   2.843   3.930   9.177  0.0456  0.7790 -1.2805
  829MOL0     H14363   2.905   3.763   9.154 -1.6036 -0.8752  0.5881
  829MOL0     H14364   3.294   3.933   9.340 -0.2255 -0.9240  0.2836
  829MOL0     H14365   3.437   4.116   9.458  0.4585  1.2268  0.7283
  829MOL0     H14366   3.330   4.485   9.374  3.4251 -2.5276 -0.3298
  829MOL0     H14367   3.256   4.524   9.531  0.6448 -0.0207  1.7102
  829MOL0     H14368   3.464   4.568   9.632 -0.0710 -0.4394 -0.6320
  829MOL0     H14369   3.557   4.522   9.489  0.9112  1.5578 -0.7685
  829MOL0     H14370   3.354   4.763   9.524 -0.6023 -0.7513 -0.5139
  829MOL0     H14371   3.416   4.728   9.378 -2.5118  2.0351  1.2339
  829MOL0     H14372   3.606   4.851   9.440  2.0348 -1.5591  0.5160
  829MOL0     H14373   3.651   4.715   9.543 -0.5643 -1.1057 -0.8935
  829MOL0     H14374   3.508   4.973   9.586  1.7237 -0.8752 -3.2172
  829MOL0     H14375   3.464   4.845   9.704 -1.1447  3.1216  0.3957
  829MOL0     H14376   3.741   4.963   9.641  1.0338  0.4163  0.5020
  829MOL0     H14377   3.735   4.819   9.736  1.1454  2.0254  3.6170
  829MOL0     H14378   3.576   4.948   9.906  1.9664  1.0142  3.7812
  829MOL0     H14379   3.629   5.091   9.804  1.5907  0.6811 -1.9485
  829MOL0     H14380   3.846   5.093   9.888  1.7374 -1.0169  1.5312
  829MOL0     H14381   3.845   4.932   9.925  1.7624  0.5776  3.2386
  829MOL0     H14382   3.107   4.371   9.467 -3.0176 -1.5996 -0.5857
  829MOL0     H14383   2.998   4.245   9.287  1.4987  0.7806 -3.1054
  829MOL0     H14384   3.179   4.010   8.849  0.3084 -1.2834 -0.3738
  829MOL0     H14385   3.053   3.994   8.646 -0.5497 -2.2360 -2.2833
  829MOL0     H14386   1.518   4.865   8.566 -0.4679 -1.9380  0.1489
  829MOL0     H14387   1.385   5.069   8.534  3.2027 -1.0939 -0.6436
  829MOL0     H14388   1.134   5.322   8.501  2.4465  0.1837 -1.2841
  829MOL0     H14389   1.061   5.515   8.457 -1.2614 -1.0165 -0.4440
  829MOL0     H14390   0.990   5.720   8.366  1.1846 -0.2548 -0.4022
  829MOL0     H14391   1.130   5.736   8.251 -1.0723  1.2723 -1.9962
  829MOL0     H14392   0.975   5.932   8.288 -1.3985 -2.5295  2.3195
  829MOL0     H14393   0.856   5.844   8.198 -0.4154 -0.6389  1.6598
  829MOL0     H14394   1.113   5.887   8.049 -0.2279 -2.1393 -3.5097
  829MOL0     H14395   0.960   5.852   7.992  0.3538  1.3162  0.3297
  829MOL0     H14396   1.044   6.104   7.962 -1.3100  2.2908 -0.4431
  829MOL0     H14397   1.016   6.117   8.133  1.8471  2.2931 -1.8975
  829MOL0     H14398   0.626   6.059   7.962 -1.4149  0.4656  2.3910
  829MOL0     H14399   0.996   5.419   8.045 -3.5825 -2.0596  0.4090
  829MOL0     H14400   1.060   5.055   8.079 -0.8960 -1.3686 -2.2954
  829MOL0     H14401   0.933   5.157   8.025 -0.6825  2.0140  1.8190
  829MOL0     H14402   1.098   5.184   7.969  0.8445 -1.7874  0.9433
  830MOL0     O14403   4.497   3.277   0.585 -0.6207  0.2026  0.4699
  830MOL0     C14404   4.435   3.276   0.479  0.9998  0.0425  0.5046
  830MOL0     O14405   4.399   3.384   0.407  0.3028  0.1026 -0.4354
  830MOL0     C14406   4.447   3.500   0.459  0.2424  1.1037  0.3603
  830MOL0     C14407   4.577   3.535   0.425 -0.4302  0.7594  0.1387
  830MOL0     C14408   4.632   3.657   0.448  1.1229  0.4818 -0.5663
  830MOL0     C14409   4.544   3.759   0.499  0.3023 -1.0841  0.2243
  830MOL0     O14410   4.579   3.890   0.512 -0.4464 -0.0894  0.3913
  830MOL0     C14411   4.704   3.925   0.437  0.5091  0.3327  0.3908
  830MOL0     C14412   4.708   4.077   0.415  0.2195  0.2561 -0.0158
  830MOL0     C14413   4.709   4.163   0.536 -0.1926 -0.0368  0.0771
  830MOL0     C14414   4.711   4.309   0.503  1.0916 -0.0478 -0.0927
  830MOL0     C14415   4.759   4.397   0.627 -0.7132 -0.2259 -0.5778
  830MOL0     C14416   4.780   4.543   0.588 -0.4563  0.4210  0.0622
  830MOL0     C14417   4.850   4.631   0.699 -0.0235  0.3473 -0.0606
  830MOL0     C14418   4.769   4.750   0.739  0.7134  0.4531  0.1350
  830MOL0     N14419   4.843   4.853   0.804  0.5082 -0.2385 -0.3199
  830MOL0     C14420   4.944   4.925   0.734 -0.2833  0.2785 -0.5652
  830MOL0     C14421   5.015   4.995   0.835 -0.2669 -0.4073  0.6221
  830MOL0     C14422   5.125   5.094   0.822 -0.8051  0.6698 -0.8503
  830MOL0     C14423   5.257   5.046   0.875  0.1520  0.7698  0.1131
  830MOL0     C14424   5.313   4.928   0.792 -0.1869 -0.1538  0.5330
  830MOL0     C14425   5.413   4.847   0.878 -0.6346 -0.0479 -0.4501
  830MOL0     O14426   5.458   4.741   0.794 -0.4990 -0.1399 -0.0838
  830MOL0     C14427   5.523   4.633   0.846  0.2487 -0.8253 -0.2128
  830MOL0     C14428   5.569   4.535   0.761  0.4908  0.9930  0.1090
  830MOL0     C14429   5.629   4.412   0.815 -0.1234 -0.9641  0.4187
  830MOL0     C14430   5.673   4.313   0.710 -0.2689  0.7300  0.2112
  830MOL0     C14431   5.656   4.405   0.951  0.1029 -1.2842 -0.4371
  830MOL0     C14432   5.712   4.289   1.032 -0.2380 -0.3280 -0.4910
  830MOL0     O14433   5.703   4.296   1.165 -0.4867  0.3879 -0.2525
  830MOL0     C14434   5.713   4.180   1.235  0.6324 -0.2849 -0.6940
  830MOL0     C14435   5.599   4.098   1.269  0.1748  0.0188  0.4410
  830MOL0     C14436   5.615   3.981   1.344  0.4277  0.2345 -0.2165
  830MOL0     C14437   5.736   3.953   1.406  0.9541  0.9246  0.3924
  830MOL0     O14438   5.759   3.839   1.482  0.3905 -0.3495 -0.3743
  830MOL0     C14439   5.652   3.779   1.563  0.9592 -0.5578 -0.3305
  830MOL0     C14440   5.737   3.703   1.665 -0.5854 -0.5284 -0.2337
  830MOL0     C14441   5.655   3.602   1.754 -0.1648  0.9248  0.9991
  830MOL0     C14442   5.658   3.625   1.900  0.2110 -0.4273 -0.0287
  830MOL0     C14443   5.585   3.513   1.982 -0.2827 -0.6352 -0.4217
  830MOL0     C14444   5.428   3.538   1.970  0.4967 -0.1703  0.3636
  830MOL0     C14445   5.350   3.450   2.061  0.2369  0.5933 -1.1471
  830MOL0     C14446   5.218   3.518   2.055 -0.7412  0.6671 -0.5171
  830MOL0    Cl14447   5.111   3.452   2.180  0.4255  0.2943 -0.0442
  830MOL0     C14448   5.845   4.033   1.379  0.6677 -0.0345 -0.1145
  830MOL0     C14449   5.834   4.141   1.291  0.3245 -0.2027  0.5418
  830MOL0     O14450   5.770   4.196   0.981 -0.8660 -1.4165  0.0222
  830MOL0     C14451   5.614   4.511   1.034  0.0864 -0.5067 -0.1810
  830MOL0     C14452   5.549   4.621   0.979  0.0006 -0.4308  0.2394
  830MOL0     N14453   4.954   4.959   0.955 -0.8147 -0.5434 -0.8989
  830MOL0     N14454   4.859   4.874   0.935  0.1732  0.5650 -0.0649
  830MOL0     C14455   4.412   3.728   0.528 -0.4562  0.8631 -0.1970
  830MOL0     C14456   4.364   3.600   0.513  0.1660  0.5731 -0.0134
  830MOL0     C14457   4.405   3.148   0.431  0.4754  0.4238 -0.8769
  830MOL0     C14458   4.497   3.044   0.438 -0.2746  0.4277  0.3415
  830MOL0     C14459   4.473   2.914   0.386  0.1174 -0.0113 -0.4767
  830MOL0     C14460   4.350   2.894   0.329  0.3244 -0.2827  0.2635
  830MOL0     O14461   4.319   2.769   0.282 -0.4861  0.5180 -0.5134
  830MOL0     C14462   4.281   2.766   0.146 -0.2748  0.8290 -0.2541
  830MOL0     C14463   4.257   2.615   0.121  0.1380  0.0981  1.1727
  830MOL0     C14464   4.379   2.523   0.138 -0.1525  1.1472  0.0593
  830MOL0     C14465   4.502   2.554   0.055 -0.3287  0.1637 -0.0099
  830MOL0     C14466   4.482   2.557  -0.086  0.3452  0.1285 -0.1719
  830MOL0     C14467   4.486   2.557  -0.209 -1.3538 -0.3793 -0.0431
  830MOL0     C14468   4.253   2.988   0.345 -0.6295  0.0140 -0.0490
  830MOL0     C14469   4.270   3.118   0.393 -1.1135  0.2294  0.0473
  830MOL0     C14470   4.156   3.203   0.420  0.4501  0.2302 -0.4091
  830MOL0     H14471   4.637   3.464   0.369 -0.4712  1.6525 -1.0777
  830MOL0     H14472   4.730   3.687   0.411  0.6390  1.9433 -0.7294
  830MOL0     H14473   4.707   3.889   0.334  2.6062 -1.1607  0.9168
  830MOL0     H14474   4.792   3.890   0.493  0.5102  0.2078  0.3127
  830MOL0     H14475   4.791   4.103   0.349  0.2899  2.4241  0.8386
  830MOL0     H14476   4.613   4.091   0.362 -0.1710 -2.7014 -0.2592
  830MOL0     H14477   4.624   4.140   0.602 -0.3038 -2.0801 -0.6848
  830MOL0     H14478   4.802   4.131   0.584 -1.4218 -4.1096  0.1730
  830MOL0     H14479   4.788   4.332   0.428  0.2808  0.5903 -0.7462
  830MOL0     H14480   4.618   4.351   0.466  2.0426  1.1043 -1.2691
  830MOL0     H14481   4.841   4.344   0.676  0.1436  1.7950  0.3231
  830MOL0     H14482   4.685   4.390   0.707 -0.0895  0.4412  0.0849
  830MOL0     H14483   4.828   4.540   0.490 -1.9237 -0.9126 -0.6607
  830MOL0     H14484   4.681   4.584   0.568 -1.3040 -0.6535  1.8008
  830MOL0     H14485   4.951   4.649   0.660  2.1174 -2.9192  3.2394
  830MOL0     H14486   4.866   4.572   0.790  2.5748 -0.5972 -1.0454
  830MOL0     H14487   4.732   4.784   0.642 -1.4678 -0.1581  0.6951
  830MOL0     H14488   4.679   4.722   0.795  1.3783 -1.5593  0.2650
  830MOL0     H14489   4.968   4.935   0.628 -0.3752 -2.7788 -0.9593
  830MOL0     H14490   5.113   5.193   0.868  1.4618  1.0146 -0.9087
  830MOL0     H14491   5.135   5.121   0.716  1.9130 -1.5179 -1.2630
  830MOL0     H14492   5.333   5.123   0.866  2.0367 -1.1454 -1.3693
  830MOL0     H14493   5.249   5.023   0.982 -0.1676 -2.7568 -0.5291
  830MOL0     H14494   5.233   4.865   0.752  1.6615 -1.4802 -1.2606
  830MOL0     H14495   5.369   4.961   0.705 -4.4365 -0.1790 -2.4957
  830MOL0     H14496   5.490   4.914   0.917 -3.3064  2.4000  0.9377
  830MOL0     H14497   5.360   4.801   0.962  1.6998  0.1476  1.2239
  830MOL0     H14498   5.538   4.559   0.660 -0.4799  2.5556  0.7464
  830MOL0     H14499   5.730   4.230   0.754  0.7958  0.8910 -0.8334
  830MOL0     H14500   5.730   4.365   0.633 -0.1875  0.8314  0.3393
  830MOL0     H14501   5.582   4.262   0.674  0.4170 -1.0745  0.9053
  830MOL0     H14502   5.495   4.120   1.247  0.6214 -0.2407 -2.2432
  830MOL0     H14503   5.528   3.921   1.368  0.0203  1.5125  1.7808
  830MOL0     H14504   5.593   3.858   1.610 -0.8622 -1.1855 -1.4644
  830MOL0     H14505   5.584   3.721   1.499 -1.9392  2.4080 -0.2049
  830MOL0     H14506   5.816   3.649   1.612  1.7199  2.1337  0.2732
  830MOL0     H14507   5.793   3.781   1.716  0.0502 -1.0916 -0.0551
  830MOL0     H14508   5.696   3.502   1.738 -2.0636  0.4875 -1.9546
  830MOL0     H14509   5.553   3.601   1.715 -0.1611  0.8498  0.9922
  830MOL0     H14510   5.613   3.722   1.924 -0.3947 -0.4681 -0.9483
  830MOL0     H14511   5.764   3.631   1.923  0.6983 -0.1066 -2.2141
  830MOL0     H14512   5.609   3.413   1.945  0.6307 -0.7671  0.4875
  830MOL0     H14513   5.608   3.509   2.088  2.3398  0.3085 -0.8945
  830MOL0     H14514   5.404   3.531   1.864  4.5862  1.8811 -0.9287
  830MOL0     H14515   5.405   3.644   1.985 -1.7152 -0.0242 -3.0447
  830MOL0     H14516   5.386   3.449   2.164 -2.7304  2.2892  0.0340
  830MOL0     H14517   5.328   3.348   2.030  2.0998  0.3258 -1.6590
  830MOL0     H14518   5.160   3.496   1.965 -1.1200 -3.1889  0.4674
  830MOL0     H14519   5.224   3.626   2.070  1.4820  0.5904 -0.5162
  830MOL0     H14520   5.937   3.982   1.403 -0.5196 -2.6957 -0.9062
  830MOL0     H14521   5.926   4.193   1.267  0.1704 -0.7013 -1.2723
  830MOL0     H14522   5.621   4.514   1.142  0.3746 -3.0441 -0.0784
  830MOL0     H14523   5.528   4.697   1.053  2.6304  1.6044 -0.9419
  830MOL0     H14524   4.341   3.803   0.562  0.9776  0.9308  3.1315
  830MOL0     H14525   4.259   3.574   0.524 -1.2365  3.3988 -4.2665
  830MOL0     H14526   4.601   3.052   0.468  0.4037 -1.5325 -1.2712
  830MOL0     H14527   4.555   2.844   0.389 -0.0743 -0.2395 -0.5665
  830MOL0     H14528   4.185   2.814   0.124 -0.1620  0.8656 -0.6867
  830MOL0     H14529   4.357   2.803   0.077  0.7686 -0.2233  0.2911
  830MOL0     H14530   4.216   2.604   0.020 -0.7866  3.0886  1.1330
  830MOL0     H14531   4.171   2.585   0.182 -3.1372  2.2690 -1.9963
  830MOL0     H14532   4.406   2.523   0.244 -1.8855  1.9331  0.5471
  830MOL0     H14533   4.350   2.422   0.106  2.0968  1.3209 -2.9241
  830MOL0     H14534   4.576   2.477   0.081  0.5434  1.7024  2.3535
  830MOL0     H14535   4.542   2.653   0.079 -2.6922  1.7878 -2.2717
  830MOL0     H14536   4.496   2.536  -0.313  0.1140 -1.5605  0.3058
  830MOL0     H14537   4.154   2.956   0.314 -0.0232  0.3072 -2.5590
  830MOL0     H14538   4.174   3.267   0.506 -3.0230 -1.3976  1.7570
  830MOL0     H14539   4.136   3.268   0.334  2.4069  3.0533  1.1272
  830MOL0     H14540   4.065   3.145   0.440 -0.2384  1.7936  1.2576
  831MOL0     O14541   6.547   3.584   9.752 -0.1082 -0.7075  1.1671
  831MOL0     C14542   6.425   3.613   9.767 -0.5629 -0.9863  1.3554
  831MOL0     O14543   6.378   3.741   9.771 -0.7597  0.0707 -0.2948
  831MOL0     C14544   6.456   3.852   9.739 -0.2189  1.4332  0.4980
  831MOL0     C14545   6.407   3.927   9.633  0.4369  0.4058  0.6462
  831MOL0     C14546   6.489   4.029   9.580 -0.9721  0.4871  0.1383
  831MOL0     C14547   6.612   4.057   9.637 -0.2434  0.3505  0.3622
  831MOL0     O14548   6.693   4.156   9.581 -0.4477  0.1086 -0.3398
  831MOL0     C14549   6.787   4.218   9.668  0.8027 -0.8040  0.3592
  831MOL0     C14550   6.851   4.331   9.583  0.2280 -0.5487 -0.8470
  831MOL0     C14551   6.965   4.268   9.502  0.0810  0.4900  1.2077
  831MOL0     C14552   6.963   4.325   9.352 -0.5450  0.0366 -0.3727
  831MOL0     C14553   7.102   4.298   9.282  0.6712  0.4365  0.4414
  831MOL0     C14554   7.162   4.157   9.275 -0.1759 -0.5326 -0.4716
  831MOL0     C14555   7.063   4.058   9.195 -0.4158 -0.0527 -0.9848
  831MOL0     C14556   7.139   3.928   9.151 -0.3706 -0.5340  0.0340
  831MOL0     N14557   7.213   3.860   9.253 -0.1305 -0.7640 -0.2067
  831MOL0     C14558   7.159   3.831   9.375  0.2023  0.3866  0.5963
  831MOL0     C14559   7.264   3.792   9.448 -0.2231  0.0953 -0.3369
  831MOL0     C14560   7.250   3.734   9.592 -0.2846 -0.5137  0.3183
  831MOL0     C14561   7.114   3.744   9.645  0.0131  0.3282  0.1550
  831MOL0     C14562   7.064   3.879   9.689 -0.5842  0.5603  0.2437
  831MOL0     C14563   7.166   3.976   9.748  0.8826 -0.0958  0.6049
  831MOL0     O14564   7.109   4.111   9.775  0.2636 -0.1636  0.4281
  831MOL0     C14565   7.174   4.195   9.859 -0.2466 -0.4419 -0.4706
  831MOL0     C14566   7.316   4.195   9.879  0.4662 -0.5074  0.2320
  831MOL0     C14567   7.386   4.287   9.964 -0.6168  0.7399 -0.7783
  831MOL0     C14568   7.533   4.258   9.984 -0.4741 -0.6572  0.0611
  831MOL0     C14569   7.317   4.392  10.022 -0.4919  0.1975 -1.3090
  831MOL0     C14570   7.386   4.497  10.112  0.2703  0.4527  0.1127
  831MOL0     O14571   7.521   4.482  10.149 -0.1195 -0.8023  0.5034
  831MOL0     C14572   7.594   4.561  10.227 -0.6030  0.0592  0.4008
  831MOL0     C14573   7.726   4.599  10.185  0.0721  0.1659 -0.3370
  831MOL0     C14574   7.808   4.677  10.271 -0.9926 -0.5627 -0.1017
  831MOL0     C14575   7.760   4.710  10.398 -1.3482 -0.1770  0.6775
  831MOL0     O14576   7.848   4.762  10.491 -0.4434 -0.2111  0.5577
  831MOL0     C14577   7.805   4.848  10.603 -0.3258 -0.2797  0.2989
  831MOL0     C14578   7.927   4.868  10.702  0.4363 -0.7204  0.2494
  831MOL0     C14579   8.000   4.737  10.749  0.5640 -0.2530  0.0952
  831MOL0     C14580   8.131   4.779  10.826 -0.4561 -0.7286 -0.5107
  831MOL0     C14581   8.184   4.648  10.905 -0.0272  0.3354 -0.0398
  831MOL0     C14582   8.304   4.681  10.992  0.1088 -0.6133  0.2027
  831MOL0     C14583   8.361   4.551  11.054 -0.0678 -0.4278  0.1858
  831MOL0     C14584   8.283   4.487  11.177  0.7526  0.0918  0.7519
  831MOL0    Cl14585   8.294   4.595  11.309 -0.0751 -0.2837  0.2879
  831MOL0     C14586   7.629   4.678  10.426 -1.0363 -0.7001 -0.0397
  831MOL0     C14587   7.549   4.595  10.350 -0.0298  0.2006 -0.3879
  831MOL0     O14588   7.308   4.589  10.143 -0.2004  0.1139 -0.9093
  831MOL0     C14589   7.177   4.394  10.003 -0.5782  0.1499  0.4400
  831MOL0     C14590   7.106   4.298   9.928 -0.4722 -0.3063  0.1077
  831MOL0     N14591   7.379   3.806   9.375  0.4591  0.6994 -0.3060
  831MOL0     N14592   7.342   3.855   9.264 -0.5452 -0.4273 -0.2031
  831MOL0     C14593   6.652   3.990   9.751 -0.9339 -0.2080  0.3814
  831MOL0     C14594   6.578   3.880   9.803  1.1326 -0.5013  0.4524
  831MOL0     C14595   6.327   3.502   9.796 -0.2094 -0.9750  0.0859
  831MOL0     C14596   6.192   3.538   9.846  0.4104  0.1284 -0.6590
  831MOL0     C14597   6.086   3.446   9.851  0.3583 -0.7335  0.6514
  831MOL0     C14598   6.112   3.318   9.798 -0.1002 -0.6712  0.3224
  831MOL0     O14599   6.021   3.216   9.784  0.5959 -0.4543  0.1605
  831MOL0     C14600   5.892   3.236   9.845 -0.7758 -0.4545 -0.5884
  831MOL0     C14601   5.812   3.117   9.877 -1.2081  0.2252  0.2144
  831MOL0     C14602   5.733   3.073   9.748 -0.9407  0.0382 -0.1515
  831MOL0     C14603   5.599   3.146   9.719 -0.3087 -0.3965  0.3906
  831MOL0     C14604   5.501   3.113   9.820  0.0518 -0.3898  0.5309
  831MOL0     C14605   5.428   3.087   9.915  0.4882  0.5632 -0.3240
  831MOL0     C14606   6.242   3.278   9.764  0.4243  0.2375  0.4984
  831MOL0     C14607   6.351   3.367   9.764 -0.8654 -0.2782  0.7777
  831MOL0     C14608   6.485   3.308   9.712 -0.4584 -0.2774  0.3535
  831MOL0     H14609   6.308   3.908   9.593 -0.5849  3.5883  1.3642
  831MOL0     H14610   6.454   4.072   9.487 -1.4781 -2.9798 -1.4271
  831MOL0     H14611   6.864   4.147   9.698 -0.5410 -2.6456 -0.3132
  831MOL0     H14612   6.737   4.253   9.759 -0.4472 -0.7315 -0.3231
  831MOL0     H14613   6.776   4.370   9.513 -0.4542  2.0933  1.1637
  831MOL0     H14614   6.871   4.411   9.655 -1.9993 -0.4282 -0.2766
  831MOL0     H14615   7.054   4.312   9.547  1.3522 -1.5945  0.8164
  831MOL0     H14616   6.985   4.161   9.505  2.0863  0.4842 -3.5002
  831MOL0     H14617   6.881   4.284   9.292  0.2489  2.0635 -3.0348
  831MOL0     H14618   6.946   4.433   9.352  0.2351  0.1690 -0.5372
  831MOL0     H14619   7.170   4.367   9.332 -1.5529  0.2626  4.0630
  831MOL0     H14620   7.082   4.332   9.180 -0.6900 -1.4449  0.0220
  831MOL0     H14621   7.256   4.172   9.222 -0.7059 -1.5545 -1.7445
  831MOL0     H14622   7.200   4.125   9.372  2.0272  0.6479 -0.8885
  831MOL0     H14623   7.016   4.114   9.114 -0.8149 -0.5310 -1.0931
  831MOL0     H14624   6.979   4.035   9.263 -0.3510  1.5482 -0.3329
  831MOL0     H14625   7.074   3.850   9.111 -0.4163 -0.6852  0.4007
  831MOL0     H14626   7.208   3.970   9.077  1.4520  0.5046  2.1786
  831MOL0     H14627   7.057   3.835   9.412  1.2830  0.8429  3.9234
  831MOL0     H14628   7.327   3.771   9.660 -1.6694  1.7664  0.7334
  831MOL0     H14629   7.267   3.626   9.583  0.7676 -0.6770  3.3531
  831MOL0     H14630   7.043   3.707   9.570  4.5561 -2.1411 -3.5038
  831MOL0     H14631   7.104   3.664   9.718 -0.5301  1.4373  1.3437
  831MOL0     H14632   7.021   3.929   9.602 -0.0676  3.5163  1.5626
  831MOL0     H14633   6.982   3.869   9.762 -1.1236 -0.6170 -0.4880
  831MOL0     H14634   7.213   3.940   9.840  1.6593 -1.2942 -0.2208
  831MOL0     H14635   7.246   3.994   9.675 -1.7638  2.4339 -1.9831
  831MOL0     H14636   7.363   4.123   9.814 -1.7182  1.4807 -3.9252
  831MOL0     H14637   7.561   4.242  10.089  2.3491 -2.4067 -0.8412
  831MOL0     H14638   7.595   4.336   9.938 -0.8728 -0.0365  0.5509
  831MOL0     H14639   7.561   4.170   9.926 -1.0668  0.9150 -2.8243
  831MOL0     H14640   7.768   4.562  10.092 -0.0702 -0.8141 -0.0255
  831MOL0     H14641   7.904   4.717  10.239 -1.5439 -1.4439 -3.1432
  831MOL0     H14642   7.767   4.942  10.560  0.4369 -0.1854 -0.1810
  831MOL0     H14643   7.719   4.808  10.657 -1.4385 -1.9870 -2.5355
  831MOL0     H14644   8.006   4.928  10.657 -2.9171  4.3134  0.2206
  831MOL0     H14645   7.888   4.928  10.785  4.1625  2.5763 -0.0930
  831MOL0     H14646   8.019   4.679  10.658 -5.3402 -0.5424 -1.4015
  831MOL0     H14647   7.944   4.675  10.819  0.7798  2.2770  2.7041
  831MOL0     H14648   8.117   4.864  10.894 -0.0226 -2.0623  1.3309
  831MOL0     H14649   8.202   4.821  10.754 -1.3635  0.7097 -0.6117
  831MOL0     H14650   8.110   4.617  10.980  2.2753  0.0019  2.2466
  831MOL0     H14651   8.203   4.577  10.825 -4.3935 -1.4117  0.1724
  831MOL0     H14652   8.288   4.759  11.066  1.3298  0.8818 -1.0444
  831MOL0     H14653   8.378   4.733  10.931  1.3399 -1.0828  1.2423
  831MOL0     H14654   8.466   4.563  11.081 -0.3219  2.0589  0.3155
  831MOL0     H14655   8.350   4.478  10.974  0.7080 -2.2402  1.6644
  831MOL0     H14656   8.335   4.393  11.197  2.8579 -0.0735 -4.1266
  831MOL0     H14657   8.179   4.476  11.145  1.4733  0.7813 -2.1964
  831MOL0     H14658   7.597   4.696  10.528  3.3934 -1.0861  1.6416
  831MOL0     H14659   7.461   4.552  10.397 -1.2359  2.2941 -0.6370
  831MOL0     H14660   7.110   4.472  10.037  0.0964 -0.1120  2.4996
  831MOL0     H14661   7.000   4.310   9.908  0.0232 -1.6502 -4.8470
  831MOL0     H14662   6.748   4.009   9.798 -1.2115 -1.1594  1.3794
  831MOL0     H14663   6.601   3.810   9.882 -0.5901  0.3727  1.8057
  831MOL0     H14664   6.171   3.642   9.867  0.3811  0.2915 -1.4587
  831MOL0     H14665   5.984   3.468   9.882 -0.3285  1.2630 -2.5938
  831MOL0     H14666   5.912   3.281   9.943  0.0612 -2.7625  0.3709
  831MOL0     H14667   5.840   3.313   9.787  1.0987  2.0622  0.8721
  831MOL0     H14668   5.744   3.148   9.957  0.5197  2.0023  1.0813
  831MOL0     H14669   5.869   3.037   9.926  0.3611  1.8600  1.1936
  831MOL0     H14670   5.799   3.098   9.664 -0.2369  4.0680  1.3746
  831MOL0     H14671   5.721   2.964   9.747 -0.4036 -0.0396 -1.7704
  831MOL0     H14672   5.562   3.140   9.616  0.1516 -0.6111  0.2348
  831MOL0     H14673   5.605   3.254   9.736 -0.8179 -0.1616 -0.8194
  831MOL0     H14674   5.359   3.045   9.986 -0.0370 -0.3294 -1.3250
  831MOL0     H14675   6.248   3.173   9.738  0.0066 -1.2317  5.2838
  831MOL0     H14676   6.477   3.201   9.693  0.6100 -0.0312 -1.7733
  831MOL0     H14677   6.523   3.353   9.619  1.1924 -0.8015  0.7441
  831MOL0     H14678   6.560   3.311   9.792  0.7468 -2.8266 -0.5660
  832MOL0     O14679   8.170   8.564   7.434  0.4292  0.1725 -0.1907
  832MOL0     C14680   8.143   8.448   7.452  1.9269  0.9146  0.1765
  832MOL0     O14681   8.017   8.407   7.502  0.4387  0.1924 -0.5015
  832MOL0     C14682   7.915   8.492   7.532  0.1123 -0.1984 -0.7514
  832MOL0     C14683   7.876   8.606   7.454 -0.8055  0.2861  0.2939
  832MOL0     C14684   7.760   8.680   7.497  0.0180  0.4537 -0.3522
  832MOL0     C14685   7.691   8.636   7.613  0.2845  0.3670  0.2678
  832MOL0     O14686   7.582   8.706   7.660  0.0612  0.3259 -0.1676
  832MOL0     C14687   7.446   8.646   7.661  0.1517  0.1707  0.0179
  832MOL0     C14688   7.340   8.735   7.731  0.5339 -0.5427 -0.6308
  832MOL0     C14689   7.278   8.850   7.639 -0.4526 -1.0704  0.3800
  832MOL0     C14690   7.143   8.829   7.576 -0.6580  0.2889  0.8362
  832MOL0     C14691   7.058   8.952   7.539 -0.5560 -0.0255  0.0444
  832MOL0     C14692   6.964   9.001   7.656 -0.2259 -0.9528 -0.1168
  832MOL0     C14693   6.915   9.145   7.645 -0.4760  0.5180 -0.0210
  832MOL0     C14694   6.789   9.167   7.734 -1.0596 -0.1257  0.0580
  832MOL0     N14695   6.718   9.297   7.711  0.0379 -0.5475  0.9239
  832MOL0     C14696   6.700   9.403   7.790 -0.1587  0.4428  0.3123
  832MOL0     C14697   6.612   9.489   7.716 -0.4413 -0.0958  0.5139
  832MOL0     C14698   6.561   9.620   7.761  0.4952  0.5500 -0.1301
  832MOL0     C14699   6.457   9.618   7.865 -0.1350  0.3865 -0.4318
  832MOL0     C14700   6.323   9.575   7.800  0.3452 -0.0154 -0.0312
  832MOL0     C14701   6.227   9.515   7.900 -0.2586 -0.9540  0.7766
  832MOL0     O14702   6.287   9.393   7.946  0.0039  0.6082 -0.0578
  832MOL0     C14703   6.260   9.278   7.875  0.4564  0.1230 -0.1110
  832MOL0     C14704   6.339   9.222   7.779 -0.2201 -0.3115 -0.6968
  832MOL0     C14705   6.293   9.103   7.720 -0.8370 -0.2463 -0.4809
  832MOL0     C14706   6.390   9.056   7.618  0.2690  0.1647  0.0407
  832MOL0     C14707   6.176   9.034   7.749 -0.0698 -0.5774  0.0258
  832MOL0     C14708   6.128   8.910   7.683  0.5513  0.2581  0.7178
  832MOL0     O14709   6.024   8.855   7.752 -0.0340  0.4614 -0.6975
  832MOL0     C14710   5.976   8.739   7.708  0.2993 -0.1546  1.3714
  832MOL0     C14711   5.842   8.737   7.678  0.2737 -0.1323  0.2459
  832MOL0     C14712   5.790   8.621   7.627 -0.1893  0.0079 -0.9035
  832MOL0     C14713   5.858   8.498   7.632 -0.5511 -0.3805 -0.2744
  832MOL0     O14714   5.814   8.384   7.574  0.7879 -0.0302  0.2835
  832MOL0     C14715   5.734   8.394   7.456 -0.0157 -0.1167  0.0852
  832MOL0     C14716   5.702   8.260   7.393 -0.9644 -0.7109 -0.3298
  832MOL0     C14717   5.599   8.181   7.473  0.2075  0.1183  0.3652
  832MOL0     C14718   5.454   8.248   7.465 -0.4094  0.4480  1.1094
  832MOL0     C14719   5.356   8.137   7.482  0.9211  0.3886  0.1340
  832MOL0     C14720   5.222   8.183   7.535  1.3450  0.4185  0.9281
  832MOL0     C14721   5.139   8.252   7.424  0.0339  1.2421  0.3585
  832MOL0     C14722   4.989   8.240   7.454  0.4199  0.7880  0.3894
  832MOL0    Cl14723   4.924   8.071   7.468 -0.2347  0.2591 -0.1107
  832MOL0     C14724   5.982   8.499   7.688 -0.4520  0.0269  0.1153
  832MOL0     C14725   6.042   8.618   7.721 -0.1666  0.0015  0.1452
  832MOL0     O14726   6.191   8.857   7.589 -0.7651 -0.2853 -0.7505
  832MOL0     C14727   6.104   9.090   7.859 -0.6445  0.6563 -0.3030
  832MOL0     C14728   6.144   9.206   7.920 -0.7962 -0.1552  1.0077
  832MOL0     N14729   6.613   9.450   7.588 -0.4783 -0.5708  0.7462
  832MOL0     N14730   6.674   9.334   7.590 -0.0106 -0.8161 -0.4312
  832MOL0     C14731   7.728   8.529   7.681  0.1672 -0.2618 -0.4075
  832MOL0     C14732   7.840   8.459   7.645  0.4365  0.4622 -0.6023
  832MOL0     C14733   8.239   8.331   7.431 -0.5758 -0.3972 -0.2124
  832MOL0     C14734   8.195   8.217   7.375  0.4659 -0.2246  0.7172
  832MOL0     C14735   8.281   8.105   7.348 -0.0995 -0.5749 -0.2603
  832MOL0     C14736   8.421   8.110   7.381  0.6378 -0.4624  0.5465
  832MOL0     O14737   8.508   8.012   7.332 -0.6710 -0.2217 -0.2454
  832MOL0     C14738   8.635   8.001   7.408 -0.0710  0.7288  0.0569
  832MOL0     C14739   8.721   7.882   7.361  0.4210  0.7657 -0.0505
  832MOL0     C14740   8.650   7.744   7.387 -0.1969  0.1012 -0.3560
  832MOL0     C14741   8.742   7.620   7.345  0.2535  0.5726 -0.2521
  832MOL0     C14742   8.739   7.588   7.201  0.1312  1.6268 -0.5722
  832MOL0     C14743   8.733   7.559   7.086  0.0690 -0.6370  0.6305
  832MOL0     C14744   8.461   8.227   7.444  0.3797 -0.1144  0.0987
  832MOL0     C14745   8.373   8.331   7.479 -0.4770  0.0113  0.9074
  832MOL0     C14746   8.435   8.442   7.560  0.3239  0.2224 -0.4148
  832MOL0     H14747   7.937   8.636   7.370 -0.6623  0.4753  0.4628
  832MOL0     H14748   7.719   8.767   7.445 -2.6396 -0.1625  0.5662
  832MOL0     H14749   7.449   8.549   7.711  0.5902 -0.7282 -1.6517
  832MOL0     H14750   7.415   8.647   7.556  0.2129  0.4591  0.0010
  832MOL0     H14751   7.259   8.672   7.769  1.2830 -2.1887 -1.6443
  832MOL0     H14752   7.392   8.783   7.815 -0.6544  1.2385 -0.8514
  832MOL0     H14753   7.275   8.929   7.715  0.1233 -0.3512 -0.3230
  832MOL0     H14754   7.356   8.891   7.573  0.8367  0.6546  2.7767
  832MOL0     H14755   7.159   8.786   7.477 -0.3253 -1.2230  1.5168
  832MOL0     H14756   7.082   8.755   7.628 -0.7366 -1.4922 -1.5888
  832MOL0     H14757   7.003   8.924   7.449  0.4202 -0.4592 -0.4295
  832MOL0     H14758   7.124   9.038   7.525 -1.4456  0.5531 -0.7215
  832MOL0     H14759   6.880   8.933   7.674  0.1644 -0.8688  2.5069
  832MOL0     H14760   7.030   9.005   7.744  1.4481 -0.7007 -1.3384
  832MOL0     H14761   6.881   9.161   7.542 -0.6095  1.7805  0.2048
  832MOL0     H14762   7.002   9.206   7.672  0.0899 -0.2114 -0.1631
  832MOL0     H14763   6.724   9.080   7.719  0.3314 -2.0937  4.1673
  832MOL0     H14764   6.816   9.150   7.838 -0.9031  0.8334  0.1849
  832MOL0     H14765   6.727   9.413   7.895  0.4591 -1.0465  0.3235
  832MOL0     H14766   6.527   9.675   7.672  2.7606  0.9058 -0.8424
  832MOL0     H14767   6.646   9.677   7.798  0.5021 -0.0240  0.7416
  832MOL0     H14768   6.476   9.542   7.941 -3.6559 -1.7119 -1.3743
  832MOL0     H14769   6.441   9.720   7.902 -2.1454 -0.2447  0.6130
  832MOL0     H14770   6.277   9.658   7.747  1.7326  2.0213  1.7483
  832MOL0     H14771   6.352   9.499   7.727 -0.5033 -1.9517  1.5837
  832MOL0     H14772   6.217   9.578   7.988  2.5127  2.2310 -0.9296
  832MOL0     H14773   6.132   9.482   7.857  1.0478 -1.4802 -1.9878
  832MOL0     H14774   6.428   9.277   7.752 -1.3179  3.0900  1.8343
  832MOL0     H14775   6.337   9.071   7.524 -0.9810 -2.8811  0.1675
  832MOL0     H14776   6.412   8.950   7.630  0.0493  0.1399  0.2336
  832MOL0     H14777   6.489   9.103   7.618  1.4830 -2.0124  3.2258
  832MOL0     H14778   5.778   8.824   7.688  0.2666 -0.1072 -0.0225
  832MOL0     H14779   5.691   8.621   7.582 -2.4719  2.8081  3.4251
  832MOL0     H14780   5.633   8.430   7.481  0.7440  0.9429  1.8623
  832MOL0     H14781   5.772   8.460   7.378 -1.3666  1.5245  0.7330
  832MOL0     H14782   5.657   8.271   7.293 -1.4681 -2.2036 -0.2846
  832MOL0     H14783   5.788   8.194   7.393  0.2573  0.8151 -0.8999
  832MOL0     H14784   5.628   8.159   7.576 -1.8710 -1.0107  0.7721
  832MOL0     H14785   5.594   8.086   7.419 -2.1698 -0.0109  0.6716
  832MOL0     H14786   5.447   8.298   7.368  1.2052 -2.0679 -0.4379
  832MOL0     H14787   5.442   8.329   7.537  1.5013  0.7244  1.1629
  832MOL0     H14788   5.366   8.076   7.391  4.6607 -1.3956  1.4966
  832MOL0     H14789   5.386   8.068   7.562  0.5149  1.2581  1.0526
  832MOL0     H14790   5.228   8.242   7.626  1.3573 -3.1664  3.4518
  832MOL0     H14791   5.166   8.091   7.557  2.4022 -0.7230 -0.8139
  832MOL0     H14792   5.148   8.202   7.327 -0.8333 -0.3691  1.0735
  832MOL0     H14793   5.187   8.350   7.417  1.3173  0.9603  3.5801
  832MOL0     H14794   4.933   8.293   7.377 -2.2085 -0.2871  1.4438
  832MOL0     H14795   4.973   8.284   7.552  2.5665  0.1440  1.0968
  832MOL0     H14796   6.029   8.402   7.705  0.6743  0.7167  1.0763
  832MOL0     H14797   6.149   8.611   7.740 -0.5990 -0.7201  2.5639
  832MOL0     H14798   6.019   9.039   7.903  0.5154 -0.0428  1.2108
  832MOL0     H14799   6.083   9.248   7.999  1.2230  0.4004  2.3448
  832MOL0     H14800   7.673   8.491   7.766 -0.0381 -0.5881 -0.6844
  832MOL0     H14801   7.873   8.372   7.702  2.0451 -0.2150 -2.4520
  832MOL0     H14802   8.094   8.201   7.340  0.6283 -3.3435  1.3053
  832MOL0     H14803   8.228   8.029   7.291  0.3298  1.5989 -3.8581
  832MOL0     H14804   8.689   8.096   7.405 -0.3906  0.9601 -3.8449
  832MOL0     H14805   8.621   7.976   7.513  1.3751  1.8435  0.5481
  832MOL0     H14806   8.823   7.877   7.401  0.6377 -3.1782 -0.7060
  832MOL0     H14807   8.729   7.904   7.254 -1.7055  0.2271 -0.3715
  832MOL0     H14808   8.617   7.745   7.492  0.0140  1.3717 -0.2877
  832MOL0     H14809   8.558   7.719   7.332 -0.2102  1.3697 -0.9536
  832MOL0     H14810   8.700   7.533   7.395 -2.3886  2.3685  0.9102
  832MOL0     H14811   8.847   7.644   7.364 -0.0081  1.4863  0.1232
  832MOL0     H14812   8.725   7.542   6.981  0.1789 -0.0745  0.5312
  832MOL0     H14813   8.566   8.237   7.469 -0.1717  0.9140  2.2079
  832MOL0     H14814   8.522   8.480   7.506  1.0697  1.9635  1.8746
  832MOL0     H14815   8.369   8.528   7.572  0.8508  0.5326  0.3251
  832MOL0     H14816   8.480   8.401   7.650 -1.9846 -2.3270 -0.2874
  833MOL0     O14817   3.185   1.843   5.178  0.1623  0.8119 -0.1778
  833MOL0     C14818   3.188   1.852   5.303  0.1555 -0.6399 -0.2801
  833MOL0     O14819   3.161   1.962   5.375 -0.0309  0.7457  0.0675
  833MOL0     C14820   3.108   2.077   5.313  0.3296  0.6303  1.0307
  833MOL0     C14821   3.133   2.198   5.390 -0.0442  0.8192  0.1387
  833MOL0     C14822   3.093   2.329   5.340  0.4455 -0.3189  0.1858
  833MOL0     C14823   3.026   2.346   5.218 -0.6018 -0.1148 -0.9969
  833MOL0     O14824   2.996   2.473   5.164 -0.0025  0.2386 -0.6534
  833MOL0     C14825   2.923   2.552   5.259 -0.4086  0.1413 -0.6955
  833MOL0     C14826   2.888   2.682   5.183 -0.0074  0.4724 -0.4386
  833MOL0     C14827   2.791   2.669   5.067  0.3732 -0.8910  0.2958
  833MOL0     C14828   2.762   2.812   5.015  0.0026  0.4212 -0.0805
  833MOL0     C14829   2.652   2.813   4.917 -0.0055 -0.9370  0.0431
  833MOL0     C14830   2.709   2.745   4.785  0.9943 -0.2771 -0.1148
  833MOL0     C14831   2.827   2.825   4.709 -0.1946 -0.4090 -0.5504
  833MOL0     C14832   2.899   2.747   4.606 -0.7220  0.9356 -0.3713
  833MOL0     N14833   3.003   2.665   4.676  0.1654  0.0042  1.0054
  833MOL0     C14834   2.989   2.544   4.720 -0.1929 -0.0215  0.9345
  833MOL0     C14835   3.113   2.501   4.755  0.4282 -0.3225 -0.3410
  833MOL0     C14836   3.158   2.378   4.821  0.0731  0.2224  0.0245
  833MOL0     C14837   3.128   2.261   4.719  0.3678 -0.4419  0.0037
  833MOL0     C14838   3.232   2.239   4.599  0.1246 -1.0574 -0.3888
  833MOL0     C14839   3.218   2.339   4.478  0.1409 -0.1993 -0.0752
  833MOL0     O14840   3.082   2.336   4.432 -0.0054  0.4290 -0.3303
  833MOL0     C14841   3.059   2.366   4.306 -0.1630 -0.4422  0.2004
  833MOL0     C14842   3.038   2.268   4.217  0.7833  0.7552  0.1572
  833MOL0     C14843   3.012   2.298   4.080 -0.0845 -0.3644 -1.4494
  833MOL0     C14844   3.022   2.187   3.982 -0.3575 -0.1585 -0.5528
  833MOL0     C14845   2.982   2.431   4.043 -0.2989  0.2189 -0.4813
  833MOL0     C14846   2.952   2.473   3.906  0.3630  0.4525  0.8558
  833MOL0     O14847   2.844   2.410   3.840 -0.7125 -0.1190  0.7206
  833MOL0     C14848   2.768   2.471   3.736  0.2672  1.5414  0.4366
  833MOL0     C14849   2.803   2.587   3.662 -0.1612  0.7150 -0.7950
  833MOL0     C14850   2.720   2.643   3.567 -1.1920 -0.6677  0.2330
  833MOL0     C14851   2.601   2.582   3.522 -0.3796 -0.3943  0.4324
  833MOL0     O14852   2.526   2.639   3.422  0.3834 -0.4333 -0.4241
  833MOL0     C14853   2.445   2.558   3.333 -0.0539  0.4658 -0.2225
  833MOL0     C14854   2.305   2.634   3.318 -0.0037 -0.0247 -1.1891
  833MOL0     C14855   2.192   2.532   3.263  0.5131  0.2033 -0.8704
  833MOL0     C14856   2.184   2.554   3.112  0.6122 -0.2645  0.6799
  833MOL0     C14857   2.069   2.470   3.052  0.8799  0.3149  0.2575
  833MOL0     C14858   2.065   2.474   2.907 -0.7406  0.1431 -0.1906
  833MOL0     C14859   1.938   2.399   2.861  0.2793  0.0420 -0.7445
  833MOL0     C14860   1.924   2.377   2.710 -0.4726 -0.1242 -0.6258
  833MOL0    Cl14861   1.882   2.519   2.625 -0.4405 -0.2672 -0.4839
  833MOL0     C14862   2.561   2.464   3.596 -0.2959 -0.2677  0.0865
  833MOL0     C14863   2.646   2.415   3.700 -0.3764 -0.2491 -0.1883
  833MOL0     O14864   3.024   2.558   3.861 -0.3837 -0.0536 -0.1868
  833MOL0     C14865   2.984   2.530   4.138  0.3691  0.3419 -1.3699
  833MOL0     C14866   3.034   2.496   4.266 -0.2871  0.3603  0.3841
  833MOL0     N14867   3.199   2.601   4.730  0.4545 -0.5011 -0.1222
  833MOL0     N14868   3.136   2.701   4.681  0.2195  0.2976  0.2176
  833MOL0     C14869   2.996   2.222   5.147 -0.1627 -0.1036  0.8079
  833MOL0     C14870   3.030   2.096   5.193  0.5863  0.1263 -0.3250
  833MOL0     C14871   3.216   1.733   5.388  0.0053 -0.6397 -0.5182
  833MOL0     C14872   3.212   1.607   5.333 -0.0981 -0.3915 -1.1831
  833MOL0     C14873   3.245   1.488   5.392 -0.1599  0.0540  0.0373
  833MOL0     C14874   3.278   1.495   5.530  0.5517  1.1704  0.3441
  833MOL0     O14875   3.337   1.390   5.589 -0.2101 -0.2624 -0.1211
  833MOL0     C14876   3.305   1.264   5.532  0.1472 -0.1070  0.2356
  833MOL0     C14877   3.152   1.232   5.550 -0.9428 -0.0709 -0.0542
  833MOL0     C14878   3.126   1.108   5.475  0.3990 -0.5263  0.1341
  833MOL0     C14879   2.997   1.041   5.538  0.1971  0.3229  0.1137
  833MOL0     C14880   2.877   1.127   5.509 -0.1016 -0.2201 -0.3014
  833MOL0     C14881   2.783   1.200   5.492 -0.0592 -0.0206 -0.1653
  833MOL0     C14882   3.294   1.621   5.587  0.8701 -0.0246  0.2713
  833MOL0     C14883   3.258   1.737   5.524 -0.2923 -0.0358 -0.7215
  833MOL0     C14884   3.283   1.859   5.611  0.2875  0.2659 -0.0387
  833MOL0     H14885   3.189   2.185   5.482 -1.9614 -1.5973  1.0491
  833MOL0     H14886   3.105   2.410   5.412  0.2309  0.1387 -0.2832
  833MOL0     H14887   2.978   2.577   5.349 -1.7245 -0.7233  0.3935
  833MOL0     H14888   2.828   2.503   5.282 -1.6189  2.7402  0.2795
  833MOL0     H14889   2.846   2.754   5.253  0.3296 -1.3841  1.8345
  833MOL0     H14890   2.974   2.734   5.140 -0.5807  1.0464 -0.9035
  833MOL0     H14891   2.837   2.601   4.996  2.3277  0.1918  0.4644
  833MOL0     H14892   2.704   2.627   5.119  0.9375 -1.8647  0.4592
  833MOL0     H14893   2.727   2.868   5.102  2.1351  2.2411 -0.2873
  833MOL0     H14894   2.857   2.862   4.991 -0.4897  1.3626 -0.1409
  833MOL0     H14895   2.618   2.915   4.895 -2.4598 -0.8952  3.1932
  833MOL0     H14896   2.569   2.750   4.949 -0.0464 -0.0999  1.7276
  833MOL0     H14897   2.745   2.642   4.796  0.3990 -0.4582  0.1574
  833MOL0     H14898   2.627   2.732   4.714  1.8074 -0.2569 -1.0854
  833MOL0     H14899   2.897   2.862   4.784 -0.1629 -0.3237 -0.6236
  833MOL0     H14900   2.783   2.914   4.664 -2.5340 -0.7713  0.8395
  833MOL0     H14901   2.820   2.694   4.552  1.0897 -2.1298 -0.2419
  833MOL0     H14902   2.944   2.815   4.533 -1.1229  2.8208  1.0642
  833MOL0     H14903   2.897   2.487   4.731  0.9143 -2.0480  0.2597
  833MOL0     H14904   3.085   2.365   4.901 -1.4706  0.1252 -1.3312
  833MOL0     H14905   3.259   2.385   4.863  2.1788 -0.8394 -4.2455
  833MOL0     H14906   3.127   2.168   4.776  3.0399  0.0158  0.9013
  833MOL0     H14907   3.026   2.277   4.682  0.0396 -0.0612  1.0448
  833MOL0     H14908   3.336   2.251   4.629 -1.0800  1.7257  3.5636
  833MOL0     H14909   3.215   2.136   4.567 -4.1620 -1.1403  1.3753
  833MOL0     H14910   3.238   2.443   4.504 -2.3352  1.1129 -2.8335
  833MOL0     H14911   3.285   2.305   4.399 -0.2825  0.2800 -0.6531
  833MOL0     H14912   3.048   2.165   4.249 -0.3119  0.6653  0.2623
  833MOL0     H14913   3.091   2.216   3.903  1.2546  1.1910  1.2751
  833MOL0     H14914   2.929   2.165   3.928  1.6233 -1.4243 -3.6767
  833MOL0     H14915   3.037   2.093   4.036  0.2572 -1.1881 -2.4242
  833MOL0     H14916   2.904   2.626   3.674 -0.5976  1.7756 -0.4256
  833MOL0     H14917   2.761   2.731   3.519 -1.5565 -0.8390 -0.4156
  833MOL0     H14918   2.487   2.553   3.232  1.2063 -1.5419  0.3353
  833MOL0     H14919   2.421   2.460   3.375 -1.6299  1.1105  0.4210
  833MOL0     H14920   2.266   2.658   3.417  0.5109  0.0028 -0.9869
  833MOL0     H14921   2.319   2.728   3.263  1.3920  2.1869  2.5600
  833MOL0     H14922   2.092   2.554   3.303  0.7747  0.4088 -0.3136
  833MOL0     H14923   2.227   2.432   3.290 -2.2929  0.1703  3.6760
  833MOL0     H14924   2.283   2.528   3.073  0.2660 -1.6097  0.6467
  833MOL0     H14925   2.160   2.657   3.085  1.6388 -0.2194 -0.1392
  833MOL0     H14926   2.073   2.365   3.082  0.5412  0.8360  2.2621
  833MOL0     H14927   1.980   2.513   3.098  0.4331  2.2637 -2.2436
  833MOL0     H14928   2.152   2.418   2.871  0.8113  0.7900  2.3331
  833MOL0     H14929   2.064   2.580   2.881  1.2016  0.0357 -0.8847
  833MOL0     H14930   1.853   2.457   2.899  0.3237  0.6679 -1.5780
  833MOL0     H14931   1.935   2.299   2.905  0.4104  0.7356  0.9255
  833MOL0     H14932   1.852   2.300   2.681 -1.9895  1.0713 -0.1530
  833MOL0     H14933   2.020   2.341   2.672  0.6694  2.9166 -0.9349
  833MOL0     H14934   2.467   2.412   3.583 -1.4955  1.0930  2.5606
  833MOL0     H14935   2.619   2.328   3.759  0.4761  0.4342  1.2520
  833MOL0     H14936   2.962   2.630   4.101  4.2961  0.6999 -3.3219
  833MOL0     H14937   3.026   2.576   4.339 -0.6710  0.2594  0.4547
  833MOL0     H14938   2.945   2.244   5.054  0.8219  1.0583  0.5115
  833MOL0     H14939   2.991   2.009   5.141 -1.3233  0.3836  0.5707
  833MOL0     H14940   3.172   1.600   5.232 -0.3108 -0.5712 -1.0868
  833MOL0     H14941   3.235   1.398   5.332 -0.4838  1.5722 -2.3159
  833MOL0     H14942   3.338   1.265   5.428 -2.1646 -0.4069 -0.5688
  833MOL0     H14943   3.365   1.183   5.575 -0.4841 -1.7418 -1.7647
  833MOL0     H14944   3.090   1.317   5.519 -0.1608  1.8271  3.1004
  833MOL0     H14945   3.135   1.219   5.657 -3.3221 -0.5471 -0.4310
  833MOL0     H14946   3.118   1.135   5.370  1.3710 -0.6455  0.0157
  833MOL0     H14947   3.204   1.033   5.491 -0.2457 -2.0131 -2.9995
  833MOL0     H14948   3.006   1.028   5.647 -0.0767 -1.6888 -0.0600
  833MOL0     H14949   2.974   0.941   5.500 -4.6087  1.0001  0.4962
  833MOL0     H14950   2.690   1.255   5.491  0.6002  1.1261  0.2727
  833MOL0     H14951   3.334   1.616   5.688  0.0070  1.3938  0.7004
  833MOL0     H14952   3.337   1.929   5.548 -2.2098  1.4438 -1.0137
  833MOL0     H14953   3.196   1.907   5.657  0.9166  0.0561  1.4129
  833MOL0     H14954   3.342   1.834   5.699 -1.8435 -2.4205  0.7978
  834MOL0     O14955   6.804   1.434   8.958  0.5747 -0.1021  0.0387
  834MOL0     C14956   6.765   1.368   9.056  1.3178 -0.3802 -0.2845
  834MOL0     O14957   6.847   1.319   9.155 -0.0739  1.3450  0.8337
  834MOL0     C14958   6.976   1.368   9.152 -0.3159  0.2991 -0.4048
  834MOL0     C14959   7.025   1.431   9.273  0.1813 -0.4584  0.9690
  834MOL0     C14960   7.169   1.456   9.281  0.3595  0.1914  0.1780
  834MOL0     C14961   7.258   1.416   9.182 -0.3864 -0.2514  0.1397
  834MOL0     O14962   7.395   1.445   9.184 -0.2978 -0.5116  0.5237
  834MOL0     C14963   7.454   1.538   9.278  0.7454  1.1117 -0.1807
  834MOL0     C14964   7.474   1.474   9.413 -0.0645 -0.5972 -0.0864
  834MOL0     C14965   7.621   1.474   9.443  0.4432  0.4037 -0.3760
  834MOL0     C14966   7.667   1.614   9.498 -1.4197 -0.3373 -0.7507
  834MOL0     C14967   7.819   1.606   9.518  1.0814  0.2648 -0.4524
  834MOL0     C14968   7.907   1.603   9.402 -0.1451  0.6282  0.8133
  834MOL0     C14969   8.050   1.580   9.443 -0.4446 -0.0330 -0.1647
  834MOL0     C14970   8.115   1.688   9.553 -0.1684 -0.2586  0.3211
  834MOL0     N14971   8.256   1.692   9.547 -0.4515  0.9788 -0.0478
  834MOL0     C14972   8.339   1.652   9.442 -0.3413 -0.7740  0.0342
  834MOL0     C14973   8.457   1.701   9.458  0.4828 -0.0335 -0.0297
  834MOL0     C14974   8.581   1.690   9.374 -0.4550 -0.7427  0.8678
  834MOL0     C14975   8.588   1.813   9.276 -0.8428  0.0014 -0.2149
  834MOL0     C14976   8.719   1.807   9.195 -0.8683 -0.0497 -0.0669
  834MOL0     C14977   8.847   1.817   9.281  0.4552  0.0918  0.5011
  834MOL0     O14978   8.955   1.807   9.191  0.6370  0.2903  0.0468
  834MOL0     C14979   8.983   1.922   9.126 -0.4602  0.4718  0.0228
  834MOL0     C14980   9.063   2.021   9.191  0.7715 -0.0538  0.2426
  834MOL0     C14981   9.093   2.147   9.127 -0.1177  0.1506 -0.1329
  834MOL0     C14982   9.183   2.243   9.195 -0.7184  0.0753 -0.5769
  834MOL0     C14983   9.043   2.166   8.996  0.1908  0.1430 -0.3679
  834MOL0     C14984   9.074   2.278   8.909 -0.7052 -0.0756  0.5049
  834MOL0     O14985   9.069   2.256   8.771  0.0793 -0.2115 -0.4916
  834MOL0     C14986   9.084   2.356   8.684  0.0651 -0.3295  0.6667
  834MOL0     C14987   9.007   2.479   8.688  0.0341 -0.2069  0.7000
  834MOL0     C14988   9.039   2.587   8.604 -0.1033 -0.4427 -0.1270
  834MOL0     C14989   9.143   2.576   8.507 -0.7609  1.7237  0.4669
  834MOL0     O14990   9.196   2.669   8.432  0.6535 -0.2803 -1.2613
  834MOL0     C14991   9.145   2.804   8.446 -0.2671 -0.1103  0.0782
  834MOL0     C14992   9.201   2.881   8.560 -0.5824 -0.3138  0.3775
  834MOL0     C14993   9.348   2.896   8.563  0.2320  0.0437  0.2450
  834MOL0     C14994   9.409   2.786   8.665  1.0053 -0.2696  0.7262
  834MOL0     C14995   9.554   2.825   8.695 -0.1400 -0.0152  0.5821
  834MOL0     C14996   9.645   2.814   8.569 -0.0067  0.5470 -1.3591
  834MOL0     C14997   9.782   2.768   8.616  0.0393 -0.1594 -0.4017
  834MOL0     C14998   9.886   2.761   8.509 -0.8065  0.2298  0.2043
  834MOL0    Cl14999   9.823   2.662   8.377  0.3443 -0.3487 -0.6819
  834MOL0     C15000   9.204   2.454   8.503  0.5591 -0.4575  0.3535
  834MOL0     C15001   9.178   2.341   8.580  0.2397  0.1480 -0.4133
  834MOL0     O15002   9.081   2.389   8.961  0.0304 -0.1157 -0.0915
  834MOL0     C15003   8.974   2.057   8.936 -0.8010  0.6432  0.6167
  834MOL0     C15004   8.950   1.937   8.996 -0.0143 -0.4040 -0.2589
  834MOL0     N15005   8.460   1.760   9.579 -0.2772  0.2886  0.2502
  834MOL0     N15006   8.338   1.770   9.628  0.2148  0.1513  0.4024
  834MOL0     C15007   7.204   1.365   9.068 -0.1852  0.3085 -0.0761
  834MOL0     C15008   7.067   1.343   9.049 -0.2479  0.0942 -0.0032
  834MOL0     C15009   6.617   1.338   9.068  0.1006 -0.5331 -0.3163
  834MOL0     C15010   6.573   1.253   9.170  0.3210  0.3106  0.8959
  834MOL0     C15011   6.441   1.209   9.180  0.8586  0.1816 -0.2959
  834MOL0     C15012   6.339   1.254   9.103  0.1819  0.4297  0.9785
  834MOL0     O15013   6.216   1.213   9.121 -0.0608  0.1794  0.1782
  834MOL0     C15014   6.117   1.258   9.035  0.3956 -1.2583 -0.0950
  834MOL0     C15015   5.986   1.195   9.084  0.2590 -0.5395 -0.4050
  834MOL0     C15016   5.961   1.046   9.045  0.3919 -0.7999 -0.2778
  834MOL0     C15017   5.961   1.009   8.895 -0.1049  0.1852 -0.6256
  834MOL0     C15018   5.881   1.067   8.790 -0.0272  0.6557 -0.9560
  834MOL0     C15019   5.814   1.098   8.694 -0.6463 -0.4304 -0.2240
  834MOL0     C15020   6.384   1.338   8.993 -1.0876  1.3220 -0.1357
  834MOL0     C15021   6.513   1.377   8.974 -0.8657 -1.3185  0.4416
  834MOL0     C15022   6.539   1.487   8.864 -0.1771 -0.4118 -0.1379
  834MOL0     H15023   6.959   1.452   9.357 -0.0452 -0.0520  0.6874
  834MOL0     H15024   7.193   1.500   9.378 -0.0078 -1.0065  0.8289
  834MOL0     H15025   7.388   1.625   9.280 -1.3723 -0.4376  1.5519
  834MOL0     H15026   7.551   1.573   9.241  0.8722  0.0103 -0.9383
  834MOL0     H15027   7.410   1.530   9.482 -1.5595  0.2548 -2.0538
  834MOL0     H15028   7.443   1.369   9.412  1.1436 -1.0179  1.7513
  834MOL0     H15029   7.620   1.408   9.530 -2.2409  1.3194  0.3989
  834MOL0     H15030   7.673   1.433   9.356 -0.7115 -1.2955 -0.3203
  834MOL0     H15031   7.650   1.695   9.427  2.2530  1.6432  0.3824
  834MOL0     H15032   7.615   1.637   9.591 -1.8566 -0.0658 -1.0594
  834MOL0     H15033   7.831   1.515   9.577 -2.1509 -0.2889 -0.4686
  834MOL0     H15034   7.849   1.693   9.578 -1.5719 -0.4118  2.1138
  834MOL0     H15035   7.885   1.516   9.339  3.3773 -1.0847  1.6988
  834MOL0     H15036   7.901   1.695   9.343 -0.5983  0.0721 -0.0298
  834MOL0     H15037   8.106   1.581   9.349  0.2863  2.3283  0.2310
  834MOL0     H15038   8.062   1.482   9.491  2.5627 -0.4720 -1.5977
  834MOL0     H15039   8.075   1.788   9.538  0.1588 -0.3118 -0.9633
  834MOL0     H15040   8.080   1.672   9.656  1.5023  3.8291  1.7340
  834MOL0     H15041   8.309   1.608   9.348 -2.1578  1.7444 -0.6610
  834MOL0     H15042   8.580   1.594   9.323 -0.2231 -0.8446  1.0514
  834MOL0     H15043   8.659   1.697   9.451 -2.0600  0.5721  2.4644
  834MOL0     H15044   8.505   1.813   9.205 -0.5718 -1.6611 -0.5727
  834MOL0     H15045   8.573   1.909   9.325  0.1537 -0.7666  1.7199
  834MOL0     H15046   8.722   1.715   9.135  2.9940  2.4683 -4.4471
  834MOL0     H15047   8.714   1.894   9.129  2.1843  0.0689 -0.2458
  834MOL0     H15048   8.848   1.915   9.331 -1.5656 -0.4116  1.6437
  834MOL0     H15049   8.858   1.738   9.356  1.9325 -0.3763 -0.1848
  834MOL0     H15050   9.111   1.984   9.281  2.1898 -1.8948 -1.1833
  834MOL0     H15051   9.223   2.219   9.293 -0.5005  2.7162  0.0642
  834MOL0     H15052   9.136   2.342   9.201  0.5003  0.8008 -2.0765
  834MOL0     H15053   9.269   2.255   9.129  0.7321 -0.7736  1.0898
  834MOL0     H15054   8.935   2.491   8.768 -1.9688 -0.3484 -1.0203
  834MOL0     H15055   8.979   2.674   8.628  0.7804  0.6018 -1.5174
  834MOL0     H15056   9.162   2.845   8.346 -0.0127 -2.8040 -1.0704
  834MOL0     H15057   9.036   2.808   8.433 -0.0908  1.2822 -1.4103
  834MOL0     H15058   9.161   2.982   8.570 -0.8079 -0.5794  2.5282
  834MOL0     H15059   9.175   2.833   8.655  1.0289  1.7802  1.9625
  834MOL0     H15060   9.371   2.997   8.600 -0.1629  0.7060 -1.2401
  834MOL0     H15061   9.395   2.887   8.465  0.2114  0.8111  0.1520
  834MOL0     H15062   9.398   2.686   8.622 -1.4706  0.0445  0.5052
  834MOL0     H15063   9.345   2.794   8.753 -0.5173 -0.8872 -0.2946
  834MOL0     H15064   9.555   2.927   8.735  2.5935  0.0802  0.4034
  834MOL0     H15065   9.574   2.754   8.776  0.8102 -1.6586 -1.0290
  834MOL0     H15066   9.645   2.911   8.518  2.9211  1.2983 -0.1671
  834MOL0     H15067   9.616   2.734   8.501  2.8200 -1.1113 -0.7765
  834MOL0     H15068   9.768   2.664   8.649 -1.8900 -0.0908 -0.8749
  834MOL0     H15069   9.799   2.832   8.703 -1.3731  1.6738 -1.4061
  834MOL0     H15070   9.978   2.714   8.545  0.0607  0.7547 -1.2471
  834MOL0     H15071   9.914   2.865   8.488  3.2585 -0.5398  0.9126
  834MOL0     H15072   9.287   2.433   8.436  3.6146  3.5996  2.4378
  834MOL0     H15073   9.225   2.245   8.564 -2.6628 -1.5712  0.7305
  834MOL0     H15074   8.925   2.070   8.840 -0.1981 -0.2287  0.1767
  834MOL0     H15075   8.900   1.854   8.947 -0.4188  0.0202 -0.5797
  834MOL0     H15076   7.268   1.351   8.982 -1.1135  1.3597 -0.9792
  834MOL0     H15077   7.032   1.297   8.958  0.6162  1.3939 -1.0221
  834MOL0     H15078   6.641   1.214   9.246 -1.0790 -3.4888  0.4137
  834MOL0     H15079   6.422   1.152   9.270  3.1826  2.0147  1.4578
  834MOL0     H15080   6.113   1.367   9.040 -3.4000 -1.2864  3.8502
  834MOL0     H15081   6.133   1.227   8.932 -0.4377  1.0413 -0.9657
  834MOL0     H15082   5.905   1.255   9.043 -0.7967 -1.3961  0.3655
  834MOL0     H15083   5.978   1.209   9.192 -1.0755 -0.3069 -0.5169
  834MOL0     H15084   6.035   0.985   9.098  0.6314 -0.2658  0.0043
  834MOL0     H15085   5.863   1.021   9.085  0.7278 -0.3303  0.8780
  834MOL0     H15086   5.944   0.901   8.891  2.5286 -0.3029 -0.4330
  834MOL0     H15087   6.060   1.042   8.864  0.1251  2.4201  2.1118
  834MOL0     H15088   5.781   1.116   8.594  1.3984  2.7192 -0.4725
  834MOL0     H15089   6.310   1.380   8.925  0.3003  2.3317 -1.0674
  834MOL0     H15090   6.457   1.490   8.792  0.6130 -1.9919 -1.1496
  834MOL0     H15091   6.554   1.577   8.924 -0.2791 -0.8506  0.5673
  834MOL0     H15092   6.632   1.462   8.814  0.5544  1.1841  0.3749
  835MOL0     O15093   3.508   0.536   5.918 -0.3506  0.0644 -0.4135
  835MOL0     C15094   3.591   0.607   5.972  1.1565 -0.5711  0.0656
  835MOL0     O15095   3.581   0.741   5.987 -0.3406 -0.2213  0.4588
  835MOL0     C15096   3.468   0.813   5.954  0.5770  0.0660 -0.0327
  835MOL0     C15097   3.436   0.853   5.820 -0.3868 -1.1206 -0.3346
  835MOL0     C15098   3.319   0.936   5.794 -1.0653  0.2509 -0.1320
  835MOL0     C15099   3.233   0.967   5.895  0.1356  0.0487 -0.2379
  835MOL0     O15100   3.129   1.047   5.873 -0.1380 -0.4340 -0.0565
  835MOL0     C15101   3.027   1.063   5.973  0.2250 -0.2112  0.1499
  835MOL0     C15102   2.925   1.172   5.941 -0.5118 -0.1858  0.4100
  835MOL0     C15103   2.790   1.109   5.906 -0.7127  0.3887 -0.6788
  835MOL0     C15104   2.684   1.211   5.861  0.6223  1.1274  0.2986
  835MOL0     C15105   2.559   1.127   5.820  0.2372 -0.1661 -0.4562
  835MOL0     C15106   2.436   1.208   5.800 -0.5254 -1.0102  0.4383
  835MOL0     C15107   2.445   1.325   5.700  0.6512 -0.9175 -0.0585
  835MOL0     C15108   2.311   1.407   5.693  0.1078  0.1770 -0.3823
  835MOL0     N15109   2.198   1.317   5.647 -0.0706 -0.5377  0.1602
  835MOL0     C15110   2.093   1.282   5.733  0.5397  0.1441  0.1057
  835MOL0     C15111   2.008   1.210   5.656  0.4547 -0.1710 -0.2314
  835MOL0     C15112   1.873   1.154   5.685  0.1163  0.0554 -0.2454
  835MOL0     C15113   1.755   1.208   5.600 -0.1996 -0.4229  0.8581
  835MOL0     C15114   1.702   1.341   5.656  0.2314  0.0629 -0.9345
  835MOL0     C15115   1.573   1.389   5.599  0.6200 -0.4686 -0.0126
  835MOL0     O15116   1.468   1.315   5.645  0.2146 -0.6738  0.0478
  835MOL0     C15117   1.341   1.361   5.638 -0.9178  0.3576  0.9166
  835MOL0     C15118   1.303   1.490   5.594  0.2883 -0.9461 -0.1990
  835MOL0     C15119   1.161   1.518   5.566  0.1412  0.2317 -0.4434
  835MOL0     C15120   1.112   1.642   5.494  0.2541 -0.2167 -0.0914
  835MOL0     C15121   1.061   1.430   5.623  0.2819 -0.4279 -0.2394
  835MOL0     C15122   0.911   1.462   5.614  0.2891  0.4454 -1.4989
  835MOL0     O15123   0.840   1.345   5.604  0.0015 -0.0340 -0.2894
  835MOL0     C15124   0.708   1.338   5.626  0.4898  1.0288  0.0673
  835MOL0     C15125   0.613   1.427   5.577  0.1894 -0.0426 -0.9978
  835MOL0     C15126   0.481   1.397   5.585 -0.6926  0.7736 -0.1507
  835MOL0     C15127   0.435   1.274   5.641  0.2930  0.4712 -0.5412
  835MOL0     O15128   0.300   1.244   5.631 -0.7094 -0.6457  0.7645
  835MOL0     C15129   0.262   1.113   5.571 -0.2085 -0.2815  0.0319
  835MOL0     C15130   0.153   1.148   5.475 -0.6769  0.4202  0.0906
  835MOL0     C15131   0.217   1.213   5.350  0.2908  0.4627 -0.1971
  835MOL0     C15132   0.119   1.215   5.235 -0.4346 -0.8569 -0.1178
  835MOL0     C15133   0.163   1.332   5.140  0.1283 -0.2524 -0.0717
  835MOL0     C15134   0.070   1.345   5.015  0.7028 -0.3141 -0.1992
  835MOL0     C15135  -0.066   1.408   5.054 -0.5015 -0.4528  0.1658
  835MOL0     C15136  -0.125   1.486   4.943  0.0592  0.4219  0.1240
  835MOL0    Cl15137  -0.040   1.633   4.922  0.1952  0.2952 -0.0333
  835MOL0     C15138   0.536   1.193   5.686 -0.2628  0.4586  0.4705
  835MOL0     C15139   0.668   1.218   5.677 -0.2504 -0.4622  0.0342
  835MOL0     O15140   0.855   1.571   5.636  0.2716  0.1233  0.3928
  835MOL0     C15141   1.102   1.312   5.676 -0.2032  0.6377 -0.1630
  835MOL0     C15142   1.233   1.270   5.671 -0.4719 -0.8057  0.1617
  835MOL0     N15143   2.068   1.206   5.536 -0.7376 -0.0650  0.1037
  835MOL0     N15144   2.176   1.269   5.523 -0.3853 -0.7691 -0.4209
  835MOL0     C15145   3.265   0.913   6.020  0.1250 -0.6181  0.0323
  835MOL0     C15146   3.384   0.846   6.048  1.0306 -0.3734 -0.6875
  835MOL0     C15147   3.709   0.537   6.041  0.3522  0.7117 -0.7668
  835MOL0     C15148   3.738   0.407   5.996  0.0646  0.8422  0.2803
  835MOL0     C15149   3.852   0.338   6.041 -0.0306 -1.1610  0.6331
  835MOL0     C15150   3.938   0.393   6.134  0.4567 -0.6880 -0.9397
  835MOL0     O15151   4.041   0.322   6.184 -0.5726  0.1435 -0.3731
  835MOL0     C15152   4.089   0.193   6.135  0.0945  0.1226 -0.0616
  835MOL0     C15153   4.240   0.169   6.181  0.5336 -0.0970  0.8564
  835MOL0     C15154   4.239   0.145   6.343  0.5156  0.0904  0.2793
  835MOL0     C15155   4.379   0.171   6.411 -0.1812 -0.1153 -0.6491
  835MOL0     C15156   4.412   0.316   6.433 -0.1629 -0.8048 -0.6428
  835MOL0     C15157   4.444   0.430   6.439 -0.0481 -0.4035 -0.3001
  835MOL0     C15158   3.897   0.520   6.190 -0.2316 -0.9973  0.1926
  835MOL0     C15159   3.789   0.597   6.147 -1.0185  0.0774 -0.7835
  835MOL0     C15160   3.792   0.741   6.196 -0.6983  0.0708  0.3437
  835MOL0     H15161   3.506   0.824   5.743  2.0224 -0.5522  1.5317
  835MOL0     H15162   3.301   0.967   5.691 -0.3069 -2.2036 -1.0960
  835MOL0     H15163   3.075   1.100   6.064  2.5138  1.5444 -1.6317
  835MOL0     H15164   2.972   0.969   5.982 -1.1694  0.4455 -1.0700
  835MOL0     H15165   2.916   1.243   6.023  0.0164  0.1258  0.2025
  835MOL0     H15166   2.969   1.220   5.853  0.2915  1.4540  1.6657
  835MOL0     H15167   2.816   1.041   5.824  4.4686 -1.4968  2.0550
  835MOL0     H15168   2.751   1.054   5.992 -1.5480 -0.0448 -1.3262
  835MOL0     H15169   2.669   1.277   5.947  0.6362 -0.4851  1.5837
  835MOL0     H15170   2.705   1.282   5.780  1.1223  1.1371  0.4334
  835MOL0     H15171   2.535   1.054   5.898  1.6077 -1.3600 -1.1058
  835MOL0     H15172   2.580   1.075   5.727 -3.5996 -2.6032 -0.1782
  835MOL0     H15173   2.358   1.137   5.769  0.5080 -1.7077 -0.6043
  835MOL0     H15174   2.408   1.250   5.897  0.6698 -0.4010  0.5373
  835MOL0     H15175   2.461   1.288   5.598 -1.0424  1.2646 -1.1992
  835MOL0     H15176   2.518   1.399   5.732  0.3149 -0.4318 -0.4107
  835MOL0     H15177   2.289   1.438   5.796  0.6382  1.2831 -0.5893
  835MOL0     H15178   2.324   1.493   5.627  1.2248  0.5896  0.3587
  835MOL0     H15179   2.076   1.314   5.835  0.1420  2.1349 -0.5532
  835MOL0     H15180   1.857   1.162   5.793  1.0425  1.0221 -0.1694
  835MOL0     H15181   1.875   1.047   5.663 -1.1239 -0.2532  0.9419
  835MOL0     H15182   1.796   1.223   5.500  1.3189 -3.1307  0.9586
  835MOL0     H15183   1.679   1.130   5.604  0.6928 -1.3937 -0.4805
  835MOL0     H15184   1.688   1.334   5.764  1.8141  1.5875 -0.5871
  835MOL0     H15185   1.784   1.411   5.636  0.3371 -0.7652 -3.8734
  835MOL0     H15186   1.563   1.494   5.629  1.4448 -1.0817  2.6882
  835MOL0     H15187   1.582   1.389   5.490  0.8063  2.9782 -0.1106
  835MOL0     H15188   1.369   1.568   5.559 -0.1470 -0.8151 -0.7298
  835MOL0     H15189   1.117   1.729   5.561  0.3899 -1.2400  1.2646
  835MOL0     H15190   1.012   1.645   5.450  0.7144 -0.4666 -1.1829
  835MOL0     H15191   1.176   1.665   5.409 -2.8314  1.4135 -2.2029
  835MOL0     H15192   0.646   1.523   5.540 -1.4519  2.1927  2.7879
  835MOL0     H15193   0.408   1.466   5.543  1.7612  1.8764 -2.9519
  835MOL0     H15194   0.351   1.066   5.528  0.3657  0.8240 -0.0223
  835MOL0     H15195   0.228   1.056   5.658 -0.8610 -0.1658 -0.1371
  835MOL0     H15196   0.106   1.054   5.444 -0.9583  0.1718  1.2413
  835MOL0     H15197   0.083   1.214   5.525  0.2304  2.7207 -1.4876
  835MOL0     H15198   0.310   1.167   5.315 -0.6568 -0.0423 -2.1977
  835MOL0     H15199   0.251   1.310   5.388 -0.3287  0.4905  0.3208
  835MOL0     H15200   0.015   1.230   5.264 -0.9892 -2.7296 -0.9583
  835MOL0     H15201   0.117   1.120   5.181  2.1882 -1.4072  0.6271
  835MOL0     H15202   0.173   1.425   5.195  1.0809  0.6563 -1.7089
  835MOL0     H15203   0.264   1.313   5.102  0.8776  1.3525  1.0455
  835MOL0     H15204   0.059   1.246   4.972  0.2061 -0.5597  0.4688
  835MOL0     H15205   0.124   1.410   4.945  0.8965  0.1151  0.3377
  835MOL0     H15206  -0.061   1.466   5.146  0.5448 -1.8948  1.0598
  835MOL0     H15207  -0.127   1.321   5.078 -1.8092  0.3277 -0.2588
  835MOL0     H15208  -0.229   1.507   4.971 -0.2164 -0.2483 -0.3903
  835MOL0     H15209  -0.126   1.420   4.857  1.5373 -2.0566  1.8622
  835MOL0     H15210   0.504   1.103   5.737 -1.8221  1.1412  0.7603
  835MOL0     H15211   0.746   1.150   5.709 -0.9956 -0.4676  1.9232
  835MOL0     H15212   1.041   1.233   5.718  0.1900  0.6982  0.5444
  835MOL0     H15213   1.266   1.171   5.702  2.9070 -0.4079 -1.6533
  835MOL0     H15214   3.200   0.927   6.106 -2.2814 -2.7691 -1.3197
  835MOL0     H15215   3.413   0.815   6.148  1.4491  1.6747 -0.1323
  835MOL0     H15216   3.677   0.353   5.924  2.4088 -1.9407  0.1621
  835MOL0     H15217   3.866   0.242   5.994  2.3742 -0.9644  0.8254
  835MOL0     H15218   4.038   0.100   6.162  0.6451 -0.7273 -1.7867
  835MOL0     H15219   4.092   0.196   6.025  1.3655 -2.0232 -0.1277
  835MOL0     H15220   4.288   0.265   6.160  1.5606 -0.7360  0.2375
  835MOL0     H15221   4.287   0.087   6.127  1.1890  0.3995  0.6702
  835MOL0     H15222   4.164   0.210   6.391  0.2510  0.7384 -0.9632
  835MOL0     H15223   4.213   0.041   6.362  4.3181 -0.8946  0.7563
  835MOL0     H15224   4.457   0.130   6.345  1.0340  0.5087  0.3734
  835MOL0     H15225   4.390   0.123   6.509  1.0569  0.8338 -0.2998
  835MOL0     H15226   4.467   0.534   6.452  1.9709 -1.0934  2.5334
  835MOL0     H15227   3.952   0.557   6.277 -2.7444  1.1933  0.9889
  835MOL0     H15228   3.833   0.803   6.117  1.2655 -0.8500  0.5778
  835MOL0     H15229   3.688   0.759   6.225 -0.5689  0.4178  0.5966
  835MOL0     H15230   3.843   0.746   6.293  2.7952 -3.2063 -1.0673
  836MOL0     O15231  10.328  11.306   3.376 -0.5710 -0.4079  0.8339
  836MOL0     C15232  10.329  11.417   3.426  1.0084 -0.5268 -0.7776
  836MOL0     O15233  10.418  11.459   3.520  0.0474 -0.1074  0.2416
  836MOL0     C15234  10.540  11.411   3.524 -0.3896 -0.4611 -0.1701
  836MOL0     C15235  10.620  11.377   3.407 -0.3600  0.1252 -0.0911
  836MOL0     C15236  10.755  11.329   3.413  0.4855  0.5861 -0.8499
  836MOL0     C15237  10.819  11.313   3.537 -0.2880 -0.0405  0.1660
  836MOL0     O15238  10.951  11.257   3.544  0.6033 -0.5759  0.0256
  836MOL0     C15239  11.005  11.223   3.676 -0.4240  0.5268  1.0419
  836MOL0     C15240  11.140  11.151   3.647 -0.3258  0.4032 -0.2043
  836MOL0     C15241  11.249  11.232   3.579  0.4252  0.0909  0.9316
  836MOL0     C15242  11.383  11.169   3.605 -0.3967  0.5846 -0.2369
  836MOL0     C15243  11.512  11.238   3.553  0.2820 -0.5142 -0.0634
  836MOL0     C15244  11.637  11.194   3.636  0.3182 -0.9789  0.1963
  836MOL0     C15245  11.770  11.262   3.582 -0.2954  0.1536  0.6154
  836MOL0     C15246  11.891  11.166   3.633 -0.2067 -0.1674 -0.0929
  836MOL0     N15247  12.020  11.217   3.576  0.2563  0.0763 -0.0436
  836MOL0     C15248  12.122  11.283   3.638 -0.0738 -0.7308  0.2664
  836MOL0     C15249  12.224  11.296   3.552 -0.7546  0.2348  0.2525
  836MOL0     C15250  12.349  11.376   3.537 -1.0210 -0.3061  0.2854
  836MOL0     C15251  12.384  11.454   3.415  0.3499 -0.3330  0.3287
  836MOL0     C15252  12.527  11.512   3.419  0.6602  0.3540 -0.5434
  836MOL0     C15253  12.586  11.576   3.544 -0.1027  0.5457  0.4564
  836MOL0     O15254  12.505  11.693   3.570  0.1891  0.2400  0.0947
  836MOL0     C15255  12.532  11.771   3.671  0.4578  0.6606  1.1445
  836MOL0     C15256  12.563  11.723   3.797 -0.0938 -0.2811 -0.3099
  836MOL0     C15257  12.578  11.810   3.910 -0.4171 -0.4161  0.4214
  836MOL0     C15258  12.627  11.748   4.035 -0.2079 -0.4554  0.9705
  836MOL0     C15259  12.538  11.948   3.897 -0.2903 -0.3627 -0.0426
  836MOL0     C15260  12.524  12.037   4.021  0.2146  0.0597  0.7554
  836MOL0     O15261  12.520  11.977   4.143  0.3525  0.3469  0.2506
  836MOL0     C15262  12.531  12.045   4.257  0.0945 -0.3535  0.6952
  836MOL0     C15263  12.436  12.129   4.303 -0.3605  0.3862  0.0205
  836MOL0     C15264  12.455  12.208   4.413  0.4425 -0.8898  0.7441
  836MOL0     C15265  12.576  12.192   4.485 -0.8623  0.3235  0.6956
  836MOL0     O15266  12.605  12.268   4.595  0.2212 -0.2564 -0.6349
  836MOL0     C15267  12.501  12.311   4.679 -0.6372  0.1252 -0.1335
  836MOL0     C15268  12.551  12.376   4.812  0.0686 -0.2077 -0.1376
  836MOL0     C15269  12.660  12.482   4.788  0.4380 -0.1801  0.6581
  836MOL0     C15270  12.721  12.528   4.917 -0.1014 -0.0821 -0.6764
  836MOL0     C15271  12.865  12.570   4.888  0.4719  0.5598  0.0554
  836MOL0     C15272  12.868  12.695   4.798  0.2122  0.1723  0.0310
  836MOL0     C15273  12.851  12.826   4.876  0.0194  0.2790 -0.2099
  836MOL0     C15274  12.823  12.947   4.778 -0.9939 -0.8047  0.1943
  836MOL0    Cl15275  12.979  12.972   4.692  0.0439 -0.0282  0.1422
  836MOL0     C15276  12.670  12.102   4.445 -0.1929  0.1448  0.1145
  836MOL0     C15277  12.645  12.035   4.325  0.6295  0.0138  0.3952
  836MOL0     O15278  12.517  12.157   3.995  0.0855 -0.1918 -0.4737
  836MOL0     C15279  12.503  11.993   3.766 -0.5110  0.8693  0.3898
  836MOL0     C15280  12.500  11.904   3.660 -0.1702 -0.6805  0.1602
  836MOL0     N15281  12.185  11.224   3.438 -0.2869  0.6467 -0.4879
  836MOL0     N15282  12.064  11.176   3.448 -0.4979 -0.9009  1.0797
  836MOL0     C15283  10.740  11.332   3.657 -0.4126 -0.5018  0.0351
  836MOL0     C15284  10.606  11.390   3.650 -0.2377 -0.2867  0.8095
  836MOL0     C15285  10.201  11.483   3.414  0.3734 -0.4001 -0.6991
  836MOL0     C15286  10.084  11.403   3.430 -0.2849 -0.0700  0.1162
  836MOL0     C15287   9.957  11.460   3.452 -1.0214 -0.7778 -0.1352
  836MOL0     C15288   9.944  11.605   3.459 -0.2863  0.1335  0.5236
  836MOL0     O15289   9.830  11.668   3.495 -0.0636 -0.1151  0.5329
  836MOL0     C15290   9.708  11.590   3.493  0.5118  0.1888 -0.1041
  836MOL0     C15291   9.578  11.665   3.510 -0.0380  0.8532 -0.2831
  836MOL0     C15292   9.573  11.767   3.390  0.9927  1.6960  0.0878
  836MOL0     C15293   9.437  11.840   3.376 -0.0295  0.4727  0.7587
  836MOL0     C15294   9.340  11.810   3.488 -0.3291  0.1003  0.4293
  836MOL0     C15295   9.268  11.778   3.584  0.0302  0.5981  0.4563
  836MOL0     C15296  10.057  11.680   3.447 -0.8971  0.5265  0.1461
  836MOL0     C15297  10.190  11.624   3.423 -0.5050 -0.1063  0.5972
  836MOL0     C15298  10.303  11.719   3.401 -1.2611 -0.4382  1.2728
  836MOL0     H15299  10.579  11.396   3.308  0.9553  0.2397 -0.6360
  836MOL0     H15300  10.812  11.309   3.323 -0.3629 -1.1148 -1.0662
  836MOL0     H15301  10.940  11.149   3.725  0.8120 -0.1726  1.7109
  836MOL0     H15302  11.028  11.311   3.737  0.8088  1.0113 -0.0819
  836MOL0     H15303  11.168  11.106   3.742 -1.0129  1.6042  0.6018
  836MOL0     H15304  11.128  11.070   3.575  0.5287 -3.0758  3.2157
  836MOL0     H15305  11.240  11.234   3.470 -3.0969  0.4081  1.1111
  836MOL0     H15306  11.244  11.333   3.621  0.5150  0.3217  0.3918
  836MOL0     H15307  11.412  11.177   3.710  1.9106  4.1309 -0.9972
  836MOL0     H15308  11.382  11.062   3.580 -0.5420 -0.2997  3.0802
  836MOL0     H15309  11.501  11.347   3.562 -1.6712 -0.8559  2.8319
  836MOL0     H15310  11.537  11.212   3.450 -2.6597  1.2469 -1.3323
  836MOL0     H15311  11.608  11.225   3.737 -0.1039  0.4136 -0.3293
  836MOL0     H15312  11.647  11.086   3.626  1.7745 -0.8376 -0.1244
  836MOL0     H15313  11.781  11.367   3.611  3.0533  0.3918 -0.9845
  836MOL0     H15314  11.775  11.250   3.473  1.8260  0.7333  0.6103
  836MOL0     H15315  11.892  11.168   3.743 -1.0464  0.4029 -0.0801
  836MOL0     H15316  11.876  11.065   3.593  0.0942 -1.0278  1.8350
  836MOL0     H15317  12.120  11.335   3.734  0.6863 -0.9133  0.3895
  836MOL0     H15318  12.430  11.305   3.558 -0.8607 -0.1542  0.1871
  836MOL0     H15319  12.356  11.441   3.625  2.1305 -1.2350  0.8478
  836MOL0     H15320  12.376  11.384   3.331  0.8526 -0.2897  0.2401
  836MOL0     H15321  12.326  11.546   3.403  1.5501  0.2553 -1.2378
  836MOL0     H15322  12.599  11.431   3.404  1.6298  0.2860  3.4592
  836MOL0     H15323  12.544  11.574   3.330 -0.1464 -1.7334 -2.2332
  836MOL0     H15324  12.588  11.507   3.629  1.2385  1.4139  1.1811
  836MOL0     H15325  12.689  11.606   3.521 -0.1437  2.9905  2.8221
  836MOL0     H15326  12.588  11.621   3.822  2.0225  0.8250  2.5791
  836MOL0     H15327  12.696  11.672   3.996  0.4724  0.3759  0.5322
  836MOL0     H15328  12.547  11.703   4.095 -1.6600  0.1683 -0.4150
  836MOL0     H15329  12.684  11.821   4.092  1.2187  0.7733 -1.8077
  836MOL0     H15330  12.340  12.134   4.251  0.5013 -0.0031 -1.6659
  836MOL0     H15331  12.375  12.272   4.448 -0.8738 -3.1525  2.2123
  836MOL0     H15332  12.441  12.382   4.621  1.4321  1.7296 -0.4165
  836MOL0     H15333  12.447  12.225   4.719 -0.0033  0.0270  0.5120
  836MOL0     H15334  12.472  12.428   4.866  0.3875  0.6849 -0.5161
  836MOL0     H15335  12.585  12.291   4.872 -1.7430 -0.2671  0.8686
  836MOL0     H15336  12.610  12.558   4.728 -1.2666  1.7919  4.2654
  836MOL0     H15337  12.737  12.437   4.725  1.3110  0.2342  1.4092
  836MOL0     H15338  12.715  12.443   4.986 -0.6424 -0.6985 -1.4710
  836MOL0     H15339  12.674  12.612   4.968  0.3603 -1.8965  3.1017
  836MOL0     H15340  12.918  12.584   4.983 -0.1556 -1.5718  0.7720
  836MOL0     H15341  12.919  12.493   4.833  0.9159  0.8206  0.1236
  836MOL0     H15342  12.792  12.685   4.720  0.8422 -0.4250 -0.5178
  836MOL0     H15343  12.963  12.699   4.744  1.0198  0.2618  1.4184
  836MOL0     H15344  12.941  12.848   4.934 -0.4008 -1.4942  1.1909
  836MOL0     H15345  12.775  12.807   4.952 -1.0427  2.0578 -0.7764
  836MOL0     H15346  12.807  13.036   4.841  1.9747  0.5647 -0.7876
  836MOL0     H15347  12.738  12.925   4.714  1.1724 -5.5460 -1.5262
  836MOL0     H15348  12.759  12.076   4.502  0.7333  0.6535 -1.0584
  836MOL0     H15349  12.719  11.967   4.284  1.6382  1.6162 -0.5876
  836MOL0     H15350  12.473  12.096   3.747 -1.4403  0.5776  0.2555
  836MOL0     H15351  12.472  11.950   3.566 -1.0506  0.1553  0.8163
  836MOL0     H15352  10.768  11.290   3.753 -1.0833 -3.4840 -0.9484
  836MOL0     H15353  10.552  11.412   3.741 -0.7546  1.8579  0.0542
  836MOL0     H15354  10.094  11.296   3.422  2.0497 -0.0016  1.3075
  836MOL0     H15355   9.873  11.393   3.471 -0.1147 -2.4431 -1.6391
  836MOL0     H15356   9.699  11.548   3.392 -0.6660  1.6593 -0.6654
  836MOL0     H15357   9.716  11.503   3.559 -0.0587 -1.8412 -2.5499
  836MOL0     H15358   9.578  11.697   3.615 -2.9927  0.5025 -0.0891
  836MOL0     H15359   9.494  11.595   3.511 -0.6859  1.5872  1.1824
  836MOL0     H15360   9.652  11.842   3.399  2.9880 -0.3913  0.7524
  836MOL0     H15361   9.598  11.717   3.296  1.0414  0.0354  0.9444
  836MOL0     H15362   9.382  11.809   3.286 -0.5045 -1.2631  1.6087
  836MOL0     H15363   9.454  11.947   3.360 -0.7574  0.5342  0.3115
  836MOL0     H15364   9.224  11.744   3.676  2.2120 -0.2137  1.2638
  836MOL0     H15365  10.048  11.787   3.464  1.4172  0.7071  0.6514
  836MOL0     H15366  10.339  11.754   3.498 -2.6445  1.9455  1.0064
  836MOL0     H15367  10.382  11.668   3.344 -0.9693  1.3683  0.0041
  836MOL0     H15368  10.266  11.808   3.350  0.8501  0.3171  0.9842
  837MOL0     O15369   6.237   0.202   6.166 -0.4860  0.5160  0.7260
  837MOL0     C15370   6.143   0.123   6.146 -0.2365 -0.6856 -0.5969
  837MOL0     O15371   6.155  -0.006   6.111 -0.4123 -0.0123 -0.1674
  837MOL0     C15372   6.285  -0.038   6.070  0.8841 -0.4899  1.4196
  837MOL0     C15373   6.331   0.014   5.946  0.1499  0.5360  0.4319
  837MOL0     C15374   6.454  -0.020   5.891  0.6363  1.0655 -0.2138
  837MOL0     C15375   6.539  -0.104   5.966  0.0863 -0.5929 -0.4166
  837MOL0     O15376   6.660  -0.149   5.919 -0.7134  0.2439  0.2644
  837MOL0     C15377   6.741  -0.062   5.837  1.1967  0.0900  0.2921
  837MOL0     C15378   6.855  -0.150   5.785 -0.8516 -0.0957 -0.4194
  837MOL0     C15379   6.907  -0.103   5.653  0.5265  0.8471 -0.0941
  837MOL0     C15380   7.055  -0.148   5.630  0.1458  0.5406 -0.1624
  837MOL0     C15381   7.113  -0.091   5.502 -0.1545  0.0800  0.5019
  837MOL0     C15382   7.255  -0.151   5.462 -0.5309  0.5671  0.5514
  837MOL0     C15383   7.357  -0.109   5.564 -1.0150  0.4520 -0.4225
  837MOL0     C15384   7.495  -0.147   5.507 -0.1429  0.3049 -0.7242
  837MOL0     N15385   7.606  -0.093   5.593  0.6537  0.4690 -1.0752
  837MOL0     C15386   7.620  -0.124   5.727 -0.0888 -0.8853  0.9714
  837MOL0     C15387   7.752  -0.106   5.744  0.6728 -0.1773 -0.3591
  837MOL0     C15388   7.829  -0.164   5.857  0.0483  0.4991  0.1097
  837MOL0     C15389   7.880  -0.061   5.962  0.1756  0.7121 -0.4623
  837MOL0     C15390   7.952  -0.124   6.084 -0.1413 -0.2947 -1.3836
  837MOL0     C15391   7.958  -0.018   6.201 -0.3265 -0.2487 -0.8278
  837MOL0     O15392   8.061  -0.080   6.280  0.1475  0.4102 -0.1370
  837MOL0     C15393   8.061  -0.044   6.412 -0.8481  0.3716 -0.4999
  837MOL0     C15394   8.130  -0.137   6.500  0.0526 -0.2616 -0.6101
  837MOL0     C15395   8.139  -0.116   6.642  0.2929 -0.3344  0.0783
  837MOL0     C15396   8.230  -0.215   6.712 -0.1446 -0.0243 -0.6151
  837MOL0     C15397   8.076  -0.005   6.698 -0.2453 -0.6171 -0.1940
  837MOL0     C15398   8.085   0.041   6.845  1.5906  0.5408  0.7246
  837MOL0     O15399   8.010   0.151   6.884 -1.4490 -0.5523  0.3882
  837MOL0     C15400   8.014   0.197   7.012  1.1718  0.8119 -0.3240
  837MOL0     C15401   7.994   0.104   7.123 -1.1209  0.4384  0.9561
  837MOL0     C15402   7.997   0.158   7.255 -0.3922 -0.2382 -0.1711
  837MOL0     C15403   7.998   0.304   7.287  0.3346 -0.0277 -0.1243
  837MOL0     O15404   8.013   0.341   7.417 -0.3894  0.2711  0.9053
  837MOL0     C15405   7.971   0.468   7.468 -1.1670 -0.1214  0.1679
  837MOL0     C15406   7.990   0.466   7.626 -0.1229  0.1709 -0.2476
  837MOL0     C15407   8.131   0.416   7.661 -0.4268  0.3404 -0.5485
  837MOL0     C15408   8.173   0.448   7.813  0.7415  0.6071 -1.1544
  837MOL0     C15409   8.120   0.327   7.896  0.1081  0.3045 -0.0884
  837MOL0     C15410   8.209   0.294   8.010 -0.4262  1.1158 -0.7762
  837MOL0     C15411   8.139   0.181   8.098 -0.0085 -0.5894 -0.6597
  837MOL0     C15412   7.998   0.216   8.133  0.0875 -0.3026  0.2278
  837MOL0    Cl15413   7.944   0.106   8.268 -0.4021 -0.0087 -0.1366
  837MOL0     C15414   8.006   0.380   7.168  0.7846 -0.6517  0.2032
  837MOL0     C15415   8.003   0.330   7.039 -0.1238 -0.8731  0.3611
  837MOL0     O15416   8.165  -0.020   6.914  0.8472 -0.1288 -1.0237
  837MOL0     C15417   8.003   0.079   6.611  0.2221 -0.1865 -1.3853
  837MOL0     C15418   7.999   0.067   6.473  0.2905 -0.8279 -0.0225
  837MOL0     N15419   7.811  -0.054   5.633 -0.0782  0.8225  1.2386
  837MOL0     N15420   7.727  -0.057   5.538 -0.7277  0.2096  0.5027
  837MOL0     C15421   6.494  -0.146   6.088 -0.5714  0.0421 -0.9476
  837MOL0     C15422   6.369  -0.126   6.143  0.3447 -0.0402 -0.2619
  837MOL0     C15423   6.002   0.166   6.183  0.0746 -0.8564 -0.3737
  837MOL0     C15424   5.911   0.065   6.214 -0.2168  0.6747  0.0025
  837MOL0     C15425   5.778   0.090   6.232 -0.3422  0.4926 -0.4180
  837MOL0     C15426   5.733   0.224   6.228  0.1242 -0.2532 -0.2139
  837MOL0     O15427   5.602   0.263   6.261  0.2705 -0.6130 -0.5091
  837MOL0     C15428   5.490   0.171   6.254 -0.7617  0.3094  0.2392
  837MOL0     C15429   5.465   0.110   6.101 -0.6508 -0.0421 -0.8722
  837MOL0     C15430   5.350   0.017   6.100 -0.3634  0.1084 -0.0204
  837MOL0     C15431   5.359  -0.097   6.001 -0.2349  0.4741  0.5519
  837MOL0     C15432   5.459  -0.198   6.049 -0.8396  0.4080  0.7072
  837MOL0     C15433   5.554  -0.259   6.079  0.4471  0.3803  0.2443
  837MOL0     C15434   5.818   0.319   6.196 -0.0048  0.5014 -0.2723
  837MOL0     C15435   5.955   0.293   6.163  0.2699 -0.1123  0.0049
  837MOL0     C15436   6.033   0.401   6.092 -0.3151 -0.1989  0.3041
  837MOL0     H15437   6.270   0.077   5.881  0.8486 -1.0032 -1.8185
  837MOL0     H15438   6.465   0.016   5.790 -0.9746 -0.6028 -1.0547
  837MOL0     H15439   6.776   0.030   5.886  1.4884 -1.7760  3.9183
  837MOL0     H15440   6.681  -0.036   5.749  0.8893 -0.3291  0.3752
  837MOL0     H15441   6.938  -0.129   5.854  0.1999  3.4762 -2.4768
  837MOL0     H15442   6.831  -0.256   5.776  0.3788 -0.3451 -0.9586
  837MOL0     H15443   6.836  -0.146   5.582  1.3197 -1.6759  0.5638
  837MOL0     H15444   6.902   0.006   5.639 -1.2434  0.4978 -2.9386
  837MOL0     H15445   7.109  -0.130   5.724 -0.4170  0.9744  0.0820
  837MOL0     H15446   7.053  -0.257   5.618 -0.8663  0.6761 -1.2711
  837MOL0     H15447   7.100   0.018   5.508  0.8046  0.4003 -2.0381
  837MOL0     H15448   7.048  -0.118   5.418 -0.4006 -1.5965  1.1996
  837MOL0     H15449   7.260  -0.260   5.455  0.9651  0.6974 -1.0143
  837MOL0     H15450   7.297  -0.099   5.376  1.5907  0.4662  1.4517
  837MOL0     H15451   7.336  -0.161   5.658 -1.9024  3.3456  1.1043
  837MOL0     H15452   7.367  -0.002   5.583 -1.1063  0.2066  1.1219
  837MOL0     H15453   7.504  -0.255   5.493 -0.9292  0.3166 -1.4676
  837MOL0     H15454   7.516  -0.105   5.408  0.6910 -2.2243 -1.6982
  837MOL0     H15455   7.547  -0.156   5.801 -1.1870  2.3354  1.4685
  837MOL0     H15456   7.913  -0.213   5.808 -0.8515 -0.0478 -0.9196
  837MOL0     H15457   7.771  -0.237   5.914  0.5250  2.6227  3.6233
  837MOL0     H15458   7.947   0.012   5.917 -1.3387  1.5374 -1.4813
  837MOL0     H15459   7.795  -0.002   5.998 -0.4380 -0.6142  0.3273
  837MOL0     H15460   7.900  -0.214   6.118  0.1272  0.6591  1.9531
  837MOL0     H15461   8.049  -0.167   6.055 -0.1133 -2.7193  1.6878
  837MOL0     H15462   7.997   0.077   6.162 -1.0857 -0.1987 -1.4704
  837MOL0     H15463   7.866   0.008   6.255  1.1508  2.6951  0.5212
  837MOL0     H15464   8.189  -0.206   6.441  0.8099  2.0630 -2.7359
  837MOL0     H15465   8.258  -0.303   6.653  0.4883 -0.6676  0.6175
  837MOL0     H15466   8.176  -0.257   6.798  0.5781 -0.6900 -0.4748
  837MOL0     H15467   8.315  -0.164   6.758  1.2638 -3.2444  0.6488
  837MOL0     H15468   7.985  -0.004   7.115 -0.1197  0.4381 -0.7462
  837MOL0     H15469   8.007   0.094   7.342 -1.2274 -1.1159 -0.6843
  837MOL0     H15470   8.028   0.549   7.422  0.0451  1.0815  3.4831
  837MOL0     H15471   7.866   0.492   7.450 -1.7575 -1.0380  2.1174
  837MOL0     H15472   7.984   0.567   7.669 -1.4781  0.7843 -1.7687
  837MOL0     H15473   7.908   0.408   7.669 -1.2255  1.7763 -0.1017
  837MOL0     H15474   8.199   0.481   7.604  4.5523 -1.0126  3.1419
  837MOL0     H15475   8.140   0.313   7.624 -2.4009 -0.4748  1.0584
  837MOL0     H15476   8.134   0.543   7.849  5.1388  1.9999  0.6321
  837MOL0     H15477   8.279   0.469   7.832  0.9594 -1.4394  0.2969
  837MOL0     H15478   8.020   0.349   7.936 -1.3404 -4.1582 -0.7383
  837MOL0     H15479   8.100   0.246   7.826  0.0785  1.1817 -1.1297
  837MOL0     H15480   8.227   0.378   8.078  1.6732 -0.2670  0.4974
  837MOL0     H15481   8.300   0.254   7.964  0.0512 -0.9110  1.7111
  837MOL0     H15482   8.195   0.165   8.190  3.0162  0.5522 -2.1409
  837MOL0     H15483   8.134   0.094   8.032 -1.4496 -0.5270 -0.6690
  837MOL0     H15484   7.937   0.212   8.043  2.4478 -1.7411 -1.3954
  837MOL0     H15485   7.983   0.313   8.182 -0.2865 -0.6435  0.8022
  837MOL0     H15486   8.006   0.488   7.181 -0.4065 -0.7828  1.6059
  837MOL0     H15487   8.008   0.399   6.955 -3.0082  0.9177  1.5325
  837MOL0     H15488   7.950   0.166   6.648 -0.1907 -0.3623 -1.5671
  837MOL0     H15489   7.955   0.146   6.413  3.1448 -0.6115 -2.0484
  837MOL0     H15490   6.553  -0.213   6.150 -2.9065 -0.4246  0.8989
  837MOL0     H15491   6.335  -0.163   6.239 -1.3330  2.6583  0.3070
  837MOL0     H15492   5.943  -0.037   6.229  1.6602  1.4360  1.6847
  837MOL0     H15493   5.709   0.011   6.262  2.8591 -1.9796  0.9900
  837MOL0     H15494   5.507   0.106   6.341  3.4207 -0.8253 -1.1794
  837MOL0     H15495   5.401   0.229   6.280 -2.8208 -0.5922 -3.9186
  837MOL0     H15496   5.560   0.073   6.060 -0.6118  0.0122 -0.8317
  837MOL0     H15497   5.443   0.193   6.034  1.6850  2.5853  1.3671
  837MOL0     H15498   5.325  -0.018   6.201  0.2951  1.6436  0.7211
  837MOL0     H15499   5.257   0.072   6.081  0.1556  1.5427  1.2954
  837MOL0     H15500   5.380  -0.062   5.899 -1.7097 -0.8736 -0.2548
  837MOL0     H15501   5.265  -0.153   5.990 -0.0576  0.3891 -0.7132
  837MOL0     H15502   5.646  -0.310   6.100  0.0248  0.1154  1.5555
  837MOL0     H15503   5.782   0.420   6.178  2.3706  1.4278 -0.2440
  837MOL0     H15504   6.051   0.387   5.985  0.3302  3.4625 -0.2044
  837MOL0     H15505   5.977   0.494   6.100 -0.2657 -0.1768  0.3853
  837MOL0     H15506   6.136   0.409   6.125 -0.7754 -1.3794  2.1885
  838MOL0     O15507   3.466   5.027   5.173 -0.1200 -0.1818  0.5337
  838MOL0     C15508   3.477   5.102   5.079  0.2021 -0.5402  0.1093
  838MOL0     O15509   3.374   5.133   4.992 -0.0096 -0.8492  0.8329
  838MOL0     C15510   3.251   5.073   4.999 -0.5446  0.0730 -1.1638
  838MOL0     C15511   3.238   4.937   4.994 -0.3241 -0.0090 -0.9632
  838MOL0     C15512   3.102   4.881   4.991  0.1511  0.0026 -1.0057
  838MOL0     C15513   2.989   4.967   4.990  0.3063  0.1913 -0.0977
  838MOL0     O15514   2.855   4.927   4.978 -0.6008  0.0755  0.3163
  838MOL0     C15515   2.826   4.812   4.901 -0.6204  0.3987 -0.2062
  838MOL0     C15516   2.881   4.807   4.755 -0.0960  0.7247 -0.8600
  838MOL0     C15517   2.849   4.669   4.691 -0.1117 -0.0126 -0.5471
  838MOL0     C15518   2.923   4.623   4.564 -0.0310 -0.5069 -0.6841
  838MOL0     C15519   2.859   4.505   4.488  1.3728 -0.3771 -0.9341
  838MOL0     C15520   2.855   4.384   4.580 -0.6058  0.0288  0.6877
  838MOL0     C15521   2.800   4.269   4.498  0.4897 -0.0468 -0.1866
  838MOL0     C15522   2.812   4.128   4.561  0.9601  0.3487 -0.0988
  838MOL0     N15523   2.774   4.033   4.456 -0.3583  0.3013  1.2714
  838MOL0     C15524   2.807   4.029   4.319  0.6372  0.5381 -0.5490
  838MOL0     C15525   2.726   3.935   4.267 -0.1756  0.3155 -0.1988
  838MOL0     C15526   2.733   3.913   4.114  0.2832  0.5994 -0.5155
  838MOL0     C15527   2.764   3.768   4.090 -0.6004  0.1561 -0.1881
  838MOL0     C15528   2.654   3.662   4.099  0.1836 -0.7462  0.0051
  838MOL0     C15529   2.703   3.518   4.081  0.9063 -0.4879  0.0610
  838MOL0     O15530   2.599   3.413   4.095  0.6345 -0.1506  0.4357
  838MOL0     C15531   2.639   3.286   4.127 -0.5419  0.7031 -0.7741
  838MOL0     C15532   2.535   3.193   4.135 -0.6678  0.2998 -1.1865
  838MOL0     C15533   2.553   3.059   4.139 -0.1314  1.0413  0.0477
  838MOL0     C15534   2.425   2.975   4.106 -0.2229  0.0151 -0.6713
  838MOL0     C15535   2.688   3.011   4.143  0.7385 -0.2976 -0.2804
  838MOL0     C15536   2.713   2.864   4.141 -0.3966 -0.9331  0.2628
  838MOL0     O15537   2.614   2.774   4.145 -0.4396 -0.4538  0.2139
  838MOL0     C15538   2.654   2.647   4.176  0.2932 -0.4855 -0.2134
  838MOL0     C15539   2.645   2.548   4.076 -0.2472 -0.1807  0.2640
  838MOL0     C15540   2.638   2.413   4.119  0.0470 -0.4339  1.1316
  838MOL0     C15541   2.657   2.371   4.254 -0.2454 -0.3909  0.6528
  838MOL0     O15542   2.636   2.249   4.288 -0.2877 -0.1476 -0.8170
  838MOL0     C15543   2.734   2.201   4.387  0.2882 -0.8725 -0.0434
  838MOL0     C15544   2.689   2.126   4.507 -0.0635  0.4488 -0.2419
  838MOL0     C15545   2.577   2.198   4.598 -0.8479 -0.5106 -0.6957
  838MOL0     C15546   2.646   2.308   4.691  0.6141 -0.1057  0.8240
  838MOL0     C15547   2.732   2.239   4.798 -0.2253  0.4965 -0.6646
  838MOL0     C15548   2.640   2.173   4.908 -0.2445 -0.4746 -0.9453
  838MOL0     C15549   2.624   2.284   5.007  0.8139  0.3083 -0.5144
  838MOL0     C15550   2.557   2.239   5.138  0.2938  0.4140 -0.6379
  838MOL0    Cl15551   2.506   2.397   5.210 -0.5713  0.2600  0.0797
  838MOL0     C15552   2.657   2.474   4.355 -0.3561 -0.4965  0.2921
  838MOL0     C15553   2.662   2.608   4.309  0.7641 -0.3551  0.1789
  838MOL0     O15554   2.833   2.838   4.143  0.2630  0.1324 -0.1975
  838MOL0     C15555   2.793   3.103   4.140  0.3035  0.3407 -0.1106
  838MOL0     C15556   2.772   3.237   4.128 -0.0597 -0.4302  0.2525
  838MOL0     N15557   2.641   3.890   4.364  0.3150  0.6647  0.6620
  838MOL0     N15558   2.673   3.945   4.478  0.7650 -0.9797  0.5878
  838MOL0     C15559   3.014   5.106   4.997  1.0057 -0.3553 -0.3518
  838MOL0     C15560   3.147   5.156   5.008  0.2534  0.8412  0.1172
  838MOL0     C15561   3.605   5.177   5.051  0.3072  0.0930 -0.4366
  838MOL0     C15562   3.601   5.310   5.011  0.1512 -0.0809 -0.5479
  838MOL0     C15563   3.726   5.377   4.982  0.0088 -0.4223  0.1950
  838MOL0     C15564   3.849   5.311   5.003 -0.2936 -0.2335 -0.3220
  838MOL0     O15565   3.975   5.360   4.984  0.5536  0.0612 -0.7831
  838MOL0     C15566   3.986   5.491   4.917 -0.3836  1.0709 -0.3052
  838MOL0     C15567   4.132   5.539   4.939  0.7379 -0.0704  0.2570
  838MOL0     C15568   4.216   5.438   4.872  0.2802  0.9112 -1.1903
  838MOL0     C15569   4.359   5.470   4.860 -0.3485 -0.4697  1.2411
  838MOL0     C15570   4.385   5.602   4.798 -0.1938  0.1223 -0.1245
  838MOL0     C15571   4.413   5.709   4.741  0.4408  0.2375  0.3021
  838MOL0     C15572   3.849   5.184   5.064  0.5301  0.6317  0.5308
  838MOL0     C15573   3.734   5.111   5.070 -0.0538  0.0527 -0.5921
  838MOL0     C15574   3.761   4.975   5.129  0.1573  0.7996 -0.1289
  838MOL0     H15575   3.332   4.884   4.992 -1.2171 -1.8620  1.3822
  838MOL0     H15576   3.100   4.773   4.995 -0.0308  0.0444  2.1149
  838MOL0     H15577   2.718   4.822   4.890 -0.5980  0.2021 -0.6492
  838MOL0     H15578   2.863   4.724   4.955  2.7283  0.8249 -1.5335
  838MOL0     H15579   2.833   4.880   4.690 -1.4394  1.1656  0.5539
  838MOL0     H15580   2.989   4.818   4.743  0.2658  0.2511  1.3502
  838MOL0     H15581   2.851   4.594   4.770 -0.7684  1.0138  0.4872
  838MOL0     H15582   2.740   4.666   4.676 -0.1768  0.2886 -0.1658
  838MOL0     H15583   2.920   4.715   4.504  0.0392  0.2916  0.5007
  838MOL0     H15584   3.028   4.600   4.584 -0.1240 -0.1268  0.2652
  838MOL0     H15585   2.921   4.485   4.400  0.6163 -2.0007 -1.1380
  838MOL0     H15586   2.761   4.528   4.445 -0.5956 -2.1871  2.1967
  838MOL0     H15587   2.960   4.361   4.601 -0.7441 -3.5662 -1.5566
  838MOL0     H15588   2.792   4.397   4.668 -2.7576  3.0485 -1.1022
  838MOL0     H15589   2.847   4.276   4.400  0.6135 -0.4495 -0.1583
  838MOL0     H15590   2.692   4.274   4.479  0.3218 -1.3616  0.2907
  838MOL0     H15591   2.921   4.116   4.572  1.1446  2.9156  1.6329
  838MOL0     H15592   2.739   4.104   4.639 -1.2312 -2.1959 -2.7195
  838MOL0     H15593   2.888   4.078   4.266 -0.3759  0.7218 -1.9939
  838MOL0     H15594   2.804   3.976   4.060 -0.1086 -0.4639 -2.3691
  838MOL0     H15595   2.634   3.933   4.070  0.5039 -0.3811 -1.5069
  838MOL0     H15596   2.802   3.766   3.988  0.8462 -0.1819  0.3348
  838MOL0     H15597   2.849   3.734   4.149  1.3042  2.1167 -1.6664
  838MOL0     H15598   2.600   3.669   4.193 -0.5378 -3.1254 -0.1634
  838MOL0     H15599   2.577   3.685   4.024  1.8326  0.6744 -1.3471
  838MOL0     H15600   2.748   3.510   3.982  1.2446 -2.7559  0.3395
  838MOL0     H15601   2.779   3.505   4.159  0.5448 -0.6867  0.3804
  838MOL0     H15602   2.443   3.251   4.143 -1.2396 -0.7676  0.4985
  838MOL0     H15603   2.419   2.873   4.069 -4.2068 -0.2624  0.3262
  838MOL0     H15604   2.361   3.035   4.040  0.8135  0.2250 -1.5291
  838MOL0     H15605   2.383   2.967   4.206  0.9277  1.2472 -0.0582
  838MOL0     H15606   2.651   2.589   3.975 -1.4997 -1.5561 -0.4112
  838MOL0     H15607   2.614   2.335   4.047 -0.4962 -0.2940  1.1513
  838MOL0     H15608   2.798   2.131   4.332 -0.6413 -1.6381 -0.2013
  838MOL0     H15609   2.791   2.283   4.429 -0.1045 -1.7019  2.2464
  838MOL0     H15610   2.630   2.041   4.472  1.7499 -1.4130  1.0432
  838MOL0     H15611   2.775   2.081   4.556  0.9586  0.4455 -1.9606
  838MOL0     H15612   2.525   2.125   4.661 -1.3680 -0.6533 -1.2820
  838MOL0     H15613   2.502   2.242   4.532 -2.0023 -0.1292  0.8205
  838MOL0     H15614   2.568   2.377   4.725  2.7191  1.3370  3.0491
  838MOL0     H15615   2.713   2.362   4.623  3.0788 -1.1335  2.3094
  838MOL0     H15616   2.787   2.155   4.754 -0.7870 -0.3512  0.2080
  838MOL0     H15617   2.810   2.298   4.846  2.0734 -0.1464 -3.3616
  838MOL0     H15618   2.686   2.097   4.973 -0.4141  1.7013  1.9426
  838MOL0     H15619   2.543   2.144   4.868 -0.4598 -1.8232  0.4301
  838MOL0     H15620   2.572   2.368   4.960  0.6575  0.8391  0.5682
  838MOL0     H15621   2.717   2.320   5.052 -1.1824  3.4390  1.5189
  838MOL0     H15622   2.631   2.179   5.192  1.2839 -1.2671 -3.5997
  838MOL0     H15623   2.466   2.181   5.124  0.0729 -0.3887  3.2569
  838MOL0     H15624   2.651   2.452   4.461  0.0055 -2.9041 -0.1166
  838MOL0     H15625   2.639   2.681   4.387  0.0253 -0.1594 -0.2076
  838MOL0     H15626   2.896   3.068   4.142  0.6611  1.0605  3.8681
  838MOL0     H15627   2.860   3.299   4.117 -1.6775  1.7108 -1.5127
  838MOL0     H15628   2.931   5.176   5.001  1.1014  0.2565 -4.5411
  838MOL0     H15629   3.162   5.263   5.015  0.7758  0.8954 -1.3595
  838MOL0     H15630   3.509   5.367   5.003 -0.3145 -0.6850  0.3499
  838MOL0     H15631   3.726   5.476   4.937 -2.5406 -0.8216 -0.8483
  838MOL0     H15632   3.971   5.489   4.809  1.1356  0.9241 -0.5339
  838MOL0     H15633   3.915   5.549   4.977  3.0560  3.2070  2.0775
  838MOL0     H15634   4.147   5.546   5.047 -0.8892 -1.1846  0.6068
  838MOL0     H15635   4.138   5.629   4.878 -3.0191 -1.5002 -2.6551
  838MOL0     H15636   4.207   5.341   4.922  1.1213  1.2068 -0.4306
  838MOL0     H15637   4.177   5.413   4.773  1.9645 -2.6285 -1.1017
  838MOL0     H15638   4.407   5.398   4.792  1.0377  3.4645 -2.3949
  838MOL0     H15639   4.416   5.472   4.953  0.7287  0.6785  0.5884
  838MOL0     H15640   4.420   5.799   4.683  0.7994 -0.3118 -0.5203
  838MOL0     H15641   3.949   5.146   5.085  0.3736  1.6937  3.5417
  838MOL0     H15642   3.867   4.951   5.118 -0.1342 -0.0529 -1.1520
  838MOL0     H15643   3.734   4.968   5.235 -0.6329 -0.4193 -0.3979
  838MOL0     H15644   3.693   4.909   5.075 -1.1311  1.5403  0.5188
  839MOL0     O15645   9.674   4.371   8.320  0.1812  0.4846  0.1034
  839MOL0     C15646   9.601   4.275   8.339  0.6668 -0.4321 -0.1877
  839MOL0     O15647   9.629   4.168   8.419 -0.5400 -0.1209  0.2328
  839MOL0     C15648   9.722   4.164   8.522  0.7124  0.2687 -0.4321
  839MOL0     C15649   9.791   4.045   8.553 -0.2024  0.4304 -0.3129
  839MOL0     C15650   9.873   4.040   8.666  0.2283 -1.0110 -0.1937
  839MOL0     C15651   9.901   4.156   8.732 -0.1624  0.7059  0.3461
  839MOL0     O15652   9.989   4.145   8.837  0.0129 -0.6136  0.2401
  839MOL0     C15653  10.047   4.258   8.896  0.6643  0.0586  0.2537
  839MOL0     C15654  10.171   4.228   8.972 -0.1874 -0.2029 -0.4092
  839MOL0     C15655  10.142   4.147   9.099 -0.5839 -0.3352 -0.7180
  839MOL0     C15656  10.160   4.216   9.237  0.1125  0.0801 -0.4851
  839MOL0     C15657  10.114   4.128   9.358 -0.5167 -0.5428  0.0322
  839MOL0     C15658  10.224   4.024   9.407  1.0934 -0.8480  0.1239
  839MOL0     C15659  10.169   3.919   9.504 -0.0288 -0.4560 -0.3555
  839MOL0     C15660  10.275   3.837   9.577  0.9545 -0.6932 -0.4622
  839MOL0     N15661  10.207   3.749   9.673 -0.6460  0.0021  0.6052
  839MOL0     C15662  10.148   3.628   9.650 -0.3389 -0.0548  0.5029
  839MOL0     C15663  10.068   3.607   9.759 -0.1319 -0.7065 -0.9171
  839MOL0     C15664   9.958   3.502   9.781  0.9124  1.1760  0.0561
  839MOL0     C15665   9.880   3.474   9.653  0.2683  0.4631  0.9715
  839MOL0     C15666   9.924   3.362   9.562 -0.6507 -0.9905 -0.6982
  839MOL0     C15667   9.869   3.385   9.414  0.5429 -0.1894  1.1932
  839MOL0     O15668   9.954   3.491   9.357 -0.4043 -1.0222 -0.7919
  839MOL0     C15669  10.076   3.469   9.290  0.4486 -0.8839 -0.3909
  839MOL0     C15670  10.126   3.583   9.226  0.1315  0.6545  0.3834
  839MOL0     C15671  10.242   3.583   9.148 -0.5414  1.2674  0.9024
  839MOL0     C15672  10.289   3.714   9.092  0.2289 -0.1785 -0.1585
  839MOL0     C15673  10.313   3.464   9.140 -0.3290  0.6744 -0.7072
  839MOL0     C15674  10.448   3.457   9.075 -0.2093  0.5100  0.0346
  839MOL0     O15675  10.537   3.382   9.153 -0.2337 -0.3738 -0.5566
  839MOL0     C15676  10.666   3.356   9.113  0.0435 -0.9436 -0.0608
  839MOL0     C15677  10.768   3.424   9.182  0.2893  0.2131  0.0322
  839MOL0     C15678  10.903   3.410   9.141  0.1578 -1.2953  0.4675
  839MOL0     C15679  10.955   3.328   9.043  0.7363  0.3417 -0.3537
  839MOL0     O15680  11.090   3.327   9.035 -0.2421 -0.4228 -0.2722
  839MOL0     C15681  11.139   3.284   8.915 -0.4607  0.3489  0.6456
  839MOL0     C15682  11.290   3.241   8.933 -0.3952  1.0404  0.1418
  839MOL0     C15683  11.384   3.350   8.887  0.1816 -0.5567 -0.4288
  839MOL0     C15684  11.532   3.305   8.872  0.9643  1.2406  0.0206
  839MOL0     C15685  11.616   3.426   8.847  1.0194 -0.1763  0.2187
  839MOL0     C15686  11.756   3.405   8.790  0.0888  0.1275  0.5501
  839MOL0     C15687  11.844   3.534   8.767  0.3450 -0.3402  0.1370
  839MOL0     C15688  11.984   3.488   8.728  0.5390 -0.1582 -0.5962
  839MOL0    Cl15689  11.994   3.403   8.574  0.2491  0.0053  0.3511
  839MOL0     C15690  10.847   3.264   8.956 -0.5693 -1.0208 -0.4048
  839MOL0     C15691  10.707   3.280   8.997  0.2216 -0.2401 -0.3129
  839MOL0     O15692  10.469   3.511   8.961 -0.1701  0.9443 -0.3889
  839MOL0     C15693  10.251   3.346   9.183  0.3066  0.9348  1.1405
  839MOL0     C15694  10.140   3.350   9.261 -0.4008 -0.4087 -0.0369
  839MOL0     N15695  10.092   3.713   9.841 -0.1858 -0.3729 -0.6580
  839MOL0     N15696  10.176   3.794   9.794  0.2580  0.2428  0.0445
  839MOL0     C15697   9.846   4.276   8.694  0.6500 -0.2356 -0.5993
  839MOL0     C15698   9.755   4.285   8.594  0.5554  0.2049 -1.1049
  839MOL0     C15699   9.463   4.279   8.292 -0.8610 -0.7614 -0.1290
  839MOL0     C15700   9.362   4.237   8.376  0.2145 -0.1883 -0.4460
  839MOL0     C15701   9.230   4.258   8.342 -0.2469  1.4450  0.3061
  839MOL0     C15702   9.198   4.306   8.212 -0.2438  0.4545  0.4918
  839MOL0     O15703   9.066   4.308   8.183 -0.2576 -0.1629  0.1841
  839MOL0     C15704   9.025   4.348   8.047  0.7473  0.3990 -0.3917
  839MOL0     C15705   8.891   4.285   8.003  0.5163 -0.5047 -0.6370
  839MOL0     C15706   8.845   4.360   7.878 -0.7531  0.2599  0.4645
  839MOL0     C15707   8.690   4.326   7.856 -0.4645  0.1003 -0.0813
  839MOL0     C15708   8.620   4.400   7.752  0.3054 -0.1687  0.2805
  839MOL0     C15709   8.559   4.477   7.673  0.2542  0.6047 -0.2013
  839MOL0     C15710   9.298   4.349   8.125 -0.0989  0.3997  0.5674
  839MOL0     C15711   9.431   4.340   8.168  0.9936 -0.6941  0.1737
  839MOL0     C15712   9.533   4.389   8.066 -0.1792  0.4423  0.3239
  839MOL0     H15713   9.767   3.960   8.490 -0.4639  0.6862 -0.5698
  839MOL0     H15714   9.906   3.940   8.690 -0.5085 -0.3553  4.7944
  839MOL0     H15715   9.975   4.297   8.969 -0.8183 -1.0247 -0.5923
  839MOL0     H15716  10.064   4.331   8.816  1.1320  0.6469  0.8657
  839MOL0     H15717  10.242   4.181   8.903  1.0707 -0.3465  0.9500
  839MOL0     H15718  10.209   4.326   9.002 -0.2447 -0.0562 -0.8066
  839MOL0     H15719  10.044   4.099   9.096 -2.5715  3.2051  1.3699
  839MOL0     H15720  10.209   4.060   9.099 -1.3624 -0.9498  0.1403
  839MOL0     H15721  10.259   4.259   9.256 -0.4703  0.5649  1.8404
  839MOL0     H15722  10.091   4.301   9.229 -0.6060 -0.6296 -2.1786
  839MOL0     H15723  10.012   4.093   9.339 -1.4959 -0.2492  3.8087
  839MOL0     H15724  10.103   4.201   9.439 -0.0931  1.0699 -1.3170
  839MOL0     H15725  10.260   3.970   9.319  0.3072  1.0341 -1.4338
  839MOL0     H15726  10.310   4.076   9.449 -1.1418  1.9889  1.5597
  839MOL0     H15727  10.099   3.854   9.450  2.3844 -5.2782  1.6778
  839MOL0     H15728  10.112   3.983   9.571  0.6956  1.9706 -1.9384
  839MOL0     H15729  10.349   3.784   9.516 -0.6687 -3.3463 -0.2941
  839MOL0     H15730  10.332   3.906   9.640  1.2965 -2.1241  0.8635
  839MOL0     H15731  10.144   3.586   9.550  0.4463  1.8206 -0.3553
  839MOL0     H15732   9.890   3.536   9.860 -1.1084 -1.8872 -0.1983
  839MOL0     H15733   9.997   3.414   9.832  0.6487  1.2200  0.3358
  839MOL0     H15734   9.785   3.439   9.695 -0.0065 -0.9535 -0.7071
  839MOL0     H15735   9.852   3.566   9.600  1.5172 -0.6135 -1.7121
  839MOL0     H15736  10.032   3.351   9.546 -0.6956 -1.5225 -0.6514
  839MOL0     H15737   9.895   3.267   9.609 -1.4408  0.3701  1.7222
  839MOL0     H15738   9.871   3.295   9.352  0.8409 -0.6573  1.8690
  839MOL0     H15739   9.763   3.411   9.413  0.7895  0.9551  0.0472
  839MOL0     H15740  10.081   3.681   9.218  1.0319  1.1853  1.5065
  839MOL0     H15741  10.282   3.730   8.984 -0.7103  0.7537  0.0260
  839MOL0     H15742  10.392   3.738   9.121  0.5800  0.7139 -1.9686
  839MOL0     H15743  10.226   3.788   9.141  2.0278  1.6261 -0.4597
  839MOL0     H15744  10.740   3.503   9.251 -1.1550  0.6974 -1.0622
  839MOL0     H15745  10.969   3.486   9.184 -0.9912  0.0104 -0.0075
  839MOL0     H15746  11.085   3.190   8.898  0.9599  0.0458 -3.0054
  839MOL0     H15747  11.137   3.364   8.841 -3.2394  1.9199  2.2479
  839MOL0     H15748  11.315   3.204   9.033  2.7348 -1.7099 -1.4564
  839MOL0     H15749  11.314   3.159   8.865  2.6045  1.0449  1.0269
  839MOL0     H15750  11.375   3.437   8.952 -1.0186 -0.2495 -0.9742
  839MOL0     H15751  11.346   3.392   8.794 -0.8059  2.0948  1.0739
  839MOL0     H15752  11.541   3.222   8.801  5.4688  1.8161 -0.3275
  839MOL0     H15753  11.566   3.261   8.966 -1.0889  2.1623  1.2611
  839MOL0     H15754  11.568   3.487   8.770 -0.3967 -0.2825  0.9883
  839MOL0     H15755  11.622   3.488   8.937  0.9860  0.7790 -0.4160
  839MOL0     H15756  11.735   3.366   8.690  0.8908 -0.2657  0.5335
  839MOL0     H15757  11.811   3.330   8.847 -0.8322 -0.8710  0.1656
  839MOL0     H15758  11.862   3.594   8.857 -1.1179  2.8091 -1.5330
  839MOL0     H15759  11.795   3.584   8.684 -2.5089 -1.3821  1.0533
  839MOL0     H15760  12.008   3.411   8.802 -3.6640 -1.0454  0.0849
  839MOL0     H15761  12.060   3.566   8.723 -0.5120  0.9210 -0.1688
  839MOL0     H15762  10.880   3.206   8.871  1.3447  0.1493 -0.5364
  839MOL0     H15763  10.631   3.236   8.932  0.5799 -2.1753  0.4838
  839MOL0     H15764  10.304   3.254   9.157 -0.0444  1.1507 -0.4711
  839MOL0     H15765  10.107   3.266   9.321  0.4803 -0.8489 -0.1445
  839MOL0     H15766   9.866   4.370   8.745 -0.7751 -0.2136 -0.0327
  839MOL0     H15767   9.702   4.374   8.562  1.0160 -0.0807 -2.7526
  839MOL0     H15768   9.395   4.182   8.464  0.1505 -1.2778 -1.0728
  839MOL0     H15769   9.144   4.221   8.397 -1.0209 -0.5185 -2.0279
  839MOL0     H15770   9.004   4.453   8.068  1.8529  0.6212 -0.2978
  839MOL0     H15771   9.093   4.337   7.961 -3.0143  2.9948 -4.0830
  839MOL0     H15772   8.814   4.298   8.079  3.0179 -0.4361  2.0623
  839MOL0     H15773   8.898   4.180   7.971  0.3872 -0.0875 -2.1107
  839MOL0     H15774   8.860   4.467   7.895  1.8487 -0.0395  0.5546
  839MOL0     H15775   8.902   4.327   7.790 -0.2297  0.0817  0.8657
  839MOL0     H15776   8.638   4.353   7.949 -0.0756  3.8051 -0.7869
  839MOL0     H15777   8.683   4.218   7.840 -2.9843  0.1091  0.5649
  839MOL0     H15778   8.494   4.539   7.614 -2.0145 -1.2270  0.2347
  839MOL0     H15779   9.282   4.391   8.026  1.6498 -0.1599  0.0215
  839MOL0     H15780   9.636   4.354   8.083 -0.5340 -1.1442 -0.5881
  839MOL0     H15781   9.515   4.346   7.967  2.5081 -0.2444  0.0420
  839MOL0     H15782   9.533   4.498   8.066  0.3792  0.4461  0.4288
  840MOL0     O15783   5.630   4.743   4.421 -0.0051 -0.5138  0.5201
  840MOL0     C15784   5.692   4.673   4.498 -0.0930 -0.3310  1.1277
  840MOL0     O15785   5.688   4.682   4.637  0.0928 -0.0394 -0.6060
  840MOL0     C15786   5.614   4.767   4.709  0.8719 -1.2726  0.3941
  840MOL0     C15787   5.601   4.731   4.844  0.3411 -0.5973 -1.0102
  840MOL0     C15788   5.528   4.804   4.936  0.0752 -1.0530 -0.3941
  840MOL0     C15789   5.463   4.923   4.892  0.4015 -0.0036 -0.0557
  840MOL0     O15790   5.383   4.988   4.986 -0.8225  0.0528  0.1927
  840MOL0     C15791   5.277   5.078   4.944 -0.4177  0.6840 -0.0276
  840MOL0     C15792   5.163   5.085   5.048  0.1764  0.0248  0.2930
  840MOL0     C15793   5.077   4.960   5.028  0.0847  0.2500 -0.9248
  840MOL0     C15794   4.966   4.935   5.131  0.4615 -0.8662 -0.2246
  840MOL0     C15795   4.963   4.786   5.181 -0.4920  0.1744  0.2410
  840MOL0     C15796   4.848   4.700   5.118  0.8991 -0.3349  0.4520
  840MOL0     C15797   4.885   4.548   5.099 -0.1989  0.4829 -0.1990
  840MOL0     C15798   4.761   4.459   5.092 -0.1635 -0.3716  0.7447
  840MOL0     N15799   4.807   4.315   5.093 -0.5008  0.3313 -0.8860
  840MOL0     C15800   4.848   4.234   4.991  0.7975  1.0222 -0.9671
  840MOL0     C15801   4.894   4.122   5.051 -0.1986  0.3439  0.2952
  840MOL0     C15802   4.922   3.994   4.982 -0.4984  0.8606 -0.0601
  840MOL0     C15803   5.060   3.941   5.010  0.1969  0.4117 -0.2680
  840MOL0     C15804   5.156   3.972   4.898 -0.1160 -0.0476  0.0864
  840MOL0     C15805   5.280   3.879   4.920 -0.2330 -0.4425 -0.5976
  840MOL0     O15806   5.326   3.857   4.785 -0.0259  0.2530  0.1067
  840MOL0     C15807   5.417   3.762   4.769 -0.5760 -0.3829  0.5663
  840MOL0     C15808   5.518   3.727   4.861 -0.1710  0.1508  0.3458
  840MOL0     C15809   5.613   3.627   4.847  1.0742 -0.1775 -0.0112
  840MOL0     C15810   5.696   3.578   4.967  0.5937  0.2591 -0.2639
  840MOL0     C15811   5.620   3.571   4.717 -0.0945  1.2647  0.0256
  840MOL0     C15812   5.726   3.474   4.681 -0.0900  0.5282 -0.2217
  840MOL0     O15813   5.685   3.381   4.583 -1.1126  0.8527 -0.1403
  840MOL0     C15814   5.762   3.266   4.566  0.4949  0.3328  0.0668
  840MOL0     C15815   5.804   3.232   4.435  0.5396  0.8803  1.1854
  840MOL0     C15816   5.874   3.117   4.413  0.1526  0.2597  0.0267
  840MOL0     C15817   5.907   3.029   4.522 -0.2256  0.6529 -0.2005
  840MOL0     O15818   5.974   2.902   4.509  0.3704 -0.3325 -0.0080
  840MOL0     C15819   5.923   2.825   4.399 -0.9414 -0.4353 -1.0077
  840MOL0     C15820   5.954   2.673   4.437 -0.0004  0.1821  0.3973
  840MOL0     C15821   6.099   2.630   4.397 -0.1207 -0.5463  0.1664
  840MOL0     C15822   6.210   2.698   4.488 -0.7636  0.3138  0.2306
  840MOL0     C15823   6.348   2.640   4.453  0.4385 -0.2277  0.3523
  840MOL0     C15824   6.454   2.701   4.548 -0.4231  0.5948  0.1948
  840MOL0     C15825   6.598   2.651   4.540  0.7334  0.4187  0.6830
  840MOL0     C15826   6.705   2.748   4.575 -0.5460  0.5827  0.2367
  840MOL0    Cl15827   6.705   2.898   4.480 -0.4554 -0.0372  0.2855
  840MOL0     C15828   5.867   3.062   4.652  0.1024 -0.6016  0.1592
  840MOL0     C15829   5.787   3.181   4.672  0.0681  0.9620  0.6752
  840MOL0     O15830   5.847   3.483   4.719  0.0128  0.5188 -0.2206
  840MOL0     C15831   5.533   3.609   4.616 -0.7952  0.1565  0.0833
  840MOL0     C15832   5.433   3.705   4.642 -0.8034 -0.3804 -0.2230
  840MOL0     N15833   4.883   4.138   5.184 -0.1529  0.1785  0.4668
  840MOL0     N15834   4.832   4.253   5.210 -0.0551 -0.1443 -0.7378
  840MOL0     C15835   5.477   4.966   4.759 -0.0749 -0.8582 -0.6309
  840MOL0     C15836   5.544   4.887   4.664  0.5334 -0.0861 -0.5579
  840MOL0     C15837   5.779   4.565   4.449 -0.1345 -0.3070 -0.4777
  840MOL0     C15838   5.910   4.567   4.494 -0.1507  0.6026  0.3144
  840MOL0     C15839   5.995   4.463   4.457 -0.0410 -0.2646  0.1785
  840MOL0     C15840   5.957   4.363   4.361 -0.1290 -0.9473  0.0178
  840MOL0     O15841   6.043   4.266   4.318 -0.4065  0.1648 -0.0136
  840MOL0     C15842   6.001   4.163   4.218 -0.1212 -0.2321  0.6309
  840MOL0     C15843   6.008   4.219   4.075  1.0003  0.5768  0.2400
  840MOL0     C15844   6.119   4.318   4.044 -1.1383 -0.1240 -0.2501
  840MOL0     C15845   6.255   4.258   4.040  0.6349  0.5241 -0.7975
  840MOL0     C15846   6.343   4.358   3.983  0.5813 -0.5483 -0.1432
  840MOL0     C15847   6.403   4.443   3.922  0.3066 -0.0397  0.0028
  840MOL0     C15848   5.820   4.376   4.312 -0.5958 -0.4135  0.6038
  840MOL0     C15849   5.736   4.463   4.362  0.4547 -0.8865  0.2665
  840MOL0     C15850   5.596   4.450   4.313 -0.0300  1.0184 -0.2355
  840MOL0     H15851   5.650   4.638   4.873 -0.4267 -0.0284  2.5946
  840MOL0     H15852   5.522   4.777   5.041 -0.1323 -1.4440 -0.5040
  840MOL0     H15853   5.239   5.037   4.850  1.0609 -2.9630  0.8246
  840MOL0     H15854   5.320   5.178   4.930  0.1819  0.9827  3.1251
  840MOL0     H15855   5.209   5.087   5.147 -0.5239 -1.2656  0.6709
  840MOL0     H15856   5.103   5.175   5.028 -1.6117 -1.1408  0.1411
  840MOL0     H15857   5.026   4.963   4.931 -0.2449  0.3107 -0.7524
  840MOL0     H15858   5.155   4.884   5.030  0.2726  0.3626 -2.4218
  840MOL0     H15859   4.995   5.004   5.210 -0.1207 -1.4753  0.5328
  840MOL0     H15860   4.866   4.957   5.092 -0.2904 -1.5386  1.2690
  840MOL0     H15861   4.950   4.786   5.290  0.5548  0.4280  0.3824
  840MOL0     H15862   5.058   4.734   5.165  0.5923  2.1863 -0.2065
  840MOL0     H15863   4.756   4.703   5.176 -1.4421 -0.3471 -2.9590
  840MOL0     H15864   4.824   4.745   5.021 -0.4858 -0.3732  0.7617
  840MOL0     H15865   4.935   4.508   5.187 -2.4274 -1.5690  0.2255
  840MOL0     H15866   4.951   4.542   5.012 -0.0892  1.0438 -0.1623
  840MOL0     H15867   4.705   4.480   5.183 -3.4595 -2.6058 -0.5735
  840MOL0     H15868   4.692   4.482   5.010 -2.6153 -3.9593  1.5819
  840MOL0     H15869   4.850   4.258   4.885  3.9640  1.9917 -0.7743
  840MOL0     H15870   4.907   4.014   4.876  1.4180  0.4547 -0.4419
  840MOL0     H15871   4.852   3.917   5.016  0.4333  0.9610  2.2675
  840MOL0     H15872   5.091   3.993   5.102  0.6329  2.2095 -1.3826
  840MOL0     H15873   5.047   3.835   5.031 -2.0873  0.3379 -1.7361
  840MOL0     H15874   5.105   3.961   4.802 -1.7455  3.3614  0.4292
  840MOL0     H15875   5.183   4.078   4.899 -1.6733  0.3744  0.0372
  840MOL0     H15876   5.356   3.939   4.971  0.3751  1.0787 -3.1305
  840MOL0     H15877   5.249   3.790   4.975  0.6366 -0.0325  0.5886
  840MOL0     H15878   5.509   3.780   4.955 -0.5768 -1.2381  1.1183
  840MOL0     H15879   5.697   3.642   5.056 -0.4686 -3.0348  2.3295
  840MOL0     H15880   5.798   3.559   4.931  0.7769  0.2834  0.2363
  840MOL0     H15881   5.641   3.488   4.997  2.3371 -1.1635 -1.1418
  840MOL0     H15882   5.769   3.299   4.358  1.7967  0.3615  0.1330
  840MOL0     H15883   5.919   3.103   4.315  0.9390 -1.0601  0.5350
  840MOL0     H15884   5.817   2.849   4.388 -0.7691 -0.2624 -2.5274
  840MOL0     H15885   5.966   2.854   4.303 -0.6834 -2.5566 -1.5963
  840MOL0     H15886   5.950   2.657   4.545  2.2655 -2.9334  0.1802
  840MOL0     H15887   5.881   2.611   4.384 -1.5694  2.2632  0.0144
  840MOL0     H15888   6.128   2.628   4.291  3.1156 -2.7489  0.9412
  840MOL0     H15889   6.098   2.522   4.415  0.0290 -0.7690 -1.0261
  840MOL0     H15890   6.194   2.676   4.594  0.0933 -1.5649 -0.0058
  840MOL0     H15891   6.212   2.807   4.471  0.8844  0.0412 -1.6875
  840MOL0     H15892   6.345   2.532   4.464 -2.0586 -0.1849  0.5482
  840MOL0     H15893   6.369   2.662   4.347 -2.9799 -1.0021 -0.5975
  840MOL0     H15894   6.431   2.702   4.655  3.3037 -3.0737  1.3283
  840MOL0     H15895   6.448   2.806   4.520 -1.3588  0.6826  0.6907
  840MOL0     H15896   6.622   2.625   4.436 -0.3057  0.5377  0.3956
  840MOL0     H15897   6.611   2.553   4.587  0.4700 -0.4940 -1.0637
  840MOL0     H15898   6.801   2.707   4.544 -0.2277  0.6655  1.0909
  840MOL0     H15899   6.698   2.754   4.684  0.3497 -0.1740  0.3395
  840MOL0     H15900   5.898   3.015   4.745  1.0180  4.0190  2.4836
  840MOL0     H15901   5.756   3.197   4.775  1.0966  0.2780  1.1029
  840MOL0     H15902   5.553   3.570   4.516  2.1226 -1.9101  1.3195
  840MOL0     H15903   5.365   3.737   4.564 -1.2720  0.3591  0.4780
  840MOL0     H15904   5.430   5.059   4.728  1.9668  0.7689  0.8823
  840MOL0     H15905   5.540   4.917   4.560  1.0277  0.4746 -0.4224
  840MOL0     H15906   5.946   4.651   4.552 -0.4429  0.5629  0.5619
  840MOL0     H15907   6.097   4.459   4.491  0.5334  0.4648 -1.3601
  840MOL0     H15908   6.081   4.088   4.228  2.5961  1.9987 -2.1152
  840MOL0     H15909   5.897   4.136   4.234  0.0634 -0.6096  1.2143
  840MOL0     H15910   5.918   4.280   4.060 -0.0831 -0.5410  1.8194
  840MOL0     H15911   6.011   4.134   4.007 -0.9324  0.7668 -0.1314
  840MOL0     H15912   6.091   4.354   3.944 -0.3815 -0.5732 -0.6382
  840MOL0     H15913   6.107   4.405   4.110 -0.6173  0.2054 -0.5826
  840MOL0     H15914   6.259   4.164   3.985 -0.7630 -0.6436  0.9680
  840MOL0     H15915   6.293   4.227   4.137  1.8234 -0.6250 -1.6052
  840MOL0     H15916   6.461   4.519   3.874  0.5023  0.0515  0.3815
  840MOL0     H15917   5.785   4.314   4.229  1.1292  1.2669 -1.4936
  840MOL0     H15918   5.514   4.433   4.383 -2.1185 -0.0782 -2.7627
  840MOL0     H15919   5.571   4.538   4.253  1.7622  1.1288 -0.8710
  840MOL0     H15920   5.580   4.364   4.247  4.8275 -0.6685  0.3952
  841MOL0     O15921   1.299   2.701   2.407  0.0419  0.3210 -0.0317
  841MOL0     C15922   1.329   2.800   2.468  0.1580 -0.0480  0.1827
  841MOL0     O15923   1.449   2.874   2.455 -0.6419 -0.5796  0.2660
  841MOL0     C15924   1.549   2.829   2.378  0.2740 -0.0422 -0.0237
  841MOL0     C15925   1.666   2.786   2.437 -0.3186 -0.2662 -0.0656
  841MOL0     C15926   1.774   2.742   2.353  0.8754 -0.8414 -0.4021
  841MOL0     C15927   1.779   2.765   2.216  0.5369  0.7006 -0.0450
  841MOL0     O15928   1.897   2.734   2.147  0.4082 -0.1519  0.1701
  841MOL0     C15929   1.901   2.766   2.014  0.8290 -0.5738 -0.6907
  841MOL0     C15930   2.033   2.739   1.939 -0.4760 -0.6734 -0.9086
  841MOL0     C15931   2.039   2.816   1.807  0.5488 -0.5163 -0.3384
  841MOL0     C15932   2.183   2.831   1.763 -1.0310 -0.4181  0.2156
  841MOL0     C15933   2.182   2.871   1.621  0.1700 -0.1662  0.5790
  841MOL0     C15934   2.322   2.893   1.559 -0.2604 -0.6569 -0.2019
  841MOL0     C15935   2.329   2.894   1.413 -0.4254 -0.7214  0.7359
  841MOL0     C15936   2.306   3.038   1.354 -0.5589  0.9475 -0.0085
  841MOL0     N15937   2.341   3.030   1.208  0.6356 -0.2181 -0.0861
  841MOL0     C15938   2.450   3.100   1.164  0.8145  0.1582  0.1597
  841MOL0     C15939   2.422   3.103   1.032 -0.3548  0.2629 -0.4854
  841MOL0     C15940   2.520   3.166   0.940  0.1099 -0.5297  0.7225
  841MOL0     C15941   2.644   3.084   0.924 -0.1047  0.6996 -0.0865
  841MOL0     C15942   2.756   3.156   0.853  0.3848 -0.9889 -0.4787
  841MOL0     C15943   2.881   3.077   0.812 -0.9394  0.3565 -0.6959
  841MOL0     O15944   2.942   3.007   0.921 -0.4258 -0.7406 -0.2052
  841MOL0     C15945   3.022   3.092   0.996  0.5540  0.0208  0.2459
  841MOL0     C15946   3.152   3.114   0.951 -1.2057 -0.4162  0.0324
  841MOL0     C15947   3.243   3.200   1.018 -0.1078 -0.1660 -0.4477
  841MOL0     C15948   3.383   3.218   0.978 -0.2636 -0.7586  0.2821
  841MOL0     C15949   3.196   3.256   1.147 -0.0072 -0.5015  0.3915
  841MOL0     C15950   3.276   3.370   1.211 -0.0896 -0.3374 -0.2945
  841MOL0     O15951   3.215   3.494   1.214  1.2016  0.2969  0.1425
  841MOL0     C15952   3.279   3.604   1.264 -0.4886  0.6714 -0.0524
  841MOL0     C15953   3.205   3.710   1.309 -0.0261  0.3714  0.0872
  841MOL0     C15954   3.265   3.835   1.341 -0.2273  0.1517 -0.1222
  841MOL0     C15955   3.403   3.855   1.329  0.1377 -0.3909  0.3368
  841MOL0     O15956   3.446   3.980   1.379  0.1128  0.5637  0.1401
  841MOL0     C15957   3.585   4.017   1.384 -0.0260  0.4660  0.7165
  841MOL0     C15958   3.630   4.078   1.248 -0.9889  0.8609 -0.5920
  841MOL0     C15959   3.541   4.199   1.213  0.4128 -0.4597 -0.2123
  841MOL0     C15960   3.631   4.321   1.244 -0.9119 -0.0752  0.6664
  841MOL0     C15961   3.553   4.448   1.230 -1.3204 -0.9181 -0.5815
  841MOL0     C15962   3.632   4.571   1.277 -0.7123 -0.4055 -0.4588
  841MOL0     C15963   3.559   4.706   1.248 -0.6987  0.4040  0.2902
  841MOL0     C15964   3.628   4.822   1.304 -0.3618  0.5270 -0.1289
  841MOL0    Cl15965   3.804   4.801   1.275  0.4722 -1.1070  0.0439
  841MOL0     C15966   3.482   3.751   1.276 -0.9255  0.3506 -1.7113
  841MOL0     C15967   3.419   3.628   1.252 -0.7151 -0.5910 -0.3666
  841MOL0     O15968   3.389   3.338   1.258 -0.3618 -0.2668  0.0077
  841MOL0     C15969   3.063   3.217   1.184  0.7220  0.9616 -0.1630
  841MOL0     C15970   2.975   3.140   1.120  0.1927  0.1243 -0.2134
  841MOL0     N15971   2.312   3.026   1.005 -0.0680 -0.3108 -0.2258
  841MOL0     N15972   2.262   2.978   1.112  0.2193  0.6953 -0.2839
  841MOL0     C15973   1.665   2.818   2.156 -0.5534 -0.7718 -0.2265
  841MOL0     C15974   1.548   2.845   2.234 -0.7214 -0.3819 -0.5364
  841MOL0     C15975   1.247   2.841   2.586  1.1175 -0.3187 -0.0551
  841MOL0     C15976   1.305   2.910   2.689  0.4260  0.7567  0.8788
  841MOL0     C15977   1.243   2.946   2.807  0.7089 -0.2219  0.1548
  841MOL0     C15978   1.115   2.906   2.839  0.8245  0.0175  1.0054
  841MOL0     O15979   1.035   2.949   2.946 -0.0635  0.0004 -0.0472
  841MOL0     C15980   0.901   2.961   2.919  0.1661 -0.1864  0.1711
  841MOL0     C15981   0.873   3.092   2.830 -0.6054  1.0392 -0.3728
  841MOL0     C15982   0.723   3.127   2.826  0.3730  0.7646  0.6304
  841MOL0     C15983   0.710   3.277   2.848  0.3264 -0.2510  0.7946
  841MOL0     C15984   0.749   3.351   2.728 -0.3454  0.6141  0.1763
  841MOL0     C15985   0.778   3.406   2.626 -0.6158  0.2419  0.1776
  841MOL0     C15986   1.057   2.825   2.739 -0.3878 -0.3364  0.1018
  841MOL0     C15987   1.115   2.803   2.609 -0.0535 -0.3045 -0.3934
  841MOL0     C15988   1.040   2.720   2.508 -0.6173  0.1706 -0.4829
  841MOL0     H15989   1.671   2.786   2.545  2.0142  2.6126 -0.0452
  841MOL0     H15990   1.856   2.698   2.409  1.4595 -0.3862 -0.8877
  841MOL0     H15991   1.886   2.874   2.009  0.9676 -0.4959  0.3483
  841MOL0     H15992   1.812   2.720   1.970 -0.1797  0.5430  0.1192
  841MOL0     H15993   2.116   2.767   2.005 -1.6138 -0.7526  0.6184
  841MOL0     H15994   2.059   2.633   1.923 -0.9303 -0.7546 -1.1377
  841MOL0     H15995   1.986   2.757   1.732  0.8909 -0.8858 -0.2910
  841MOL0     H15996   2.009   2.921   1.808  0.3222 -0.5834 -0.1055
  841MOL0     H15997   2.238   2.900   1.827 -0.4553 -0.1569 -0.5417
  841MOL0     H15998   2.229   2.733   1.778 -2.5066 -0.8797  2.1343
  841MOL0     H15999   2.123   2.961   1.605  0.2940  0.4756  3.2827
  841MOL0     H16000   2.133   2.789   1.567  1.4175  0.2911 -1.3522
  841MOL0     H16001   2.378   2.975   1.606  0.8281 -1.9195  0.7865
  841MOL0     H16002   2.383   2.803   1.571 -2.0007 -2.1418 -1.8613
  841MOL0     H16003   2.260   2.828   1.359 -2.8641  1.9232  0.3928
  841MOL0     H16004   2.427   2.851   1.390  0.5969  1.9494 -0.1935
  841MOL0     H16005   2.202   3.065   1.375 -1.1560 -1.4929  0.5594
  841MOL0     H16006   2.364   3.121   1.394  1.0376  1.0683 -2.4261
  841MOL0     H16007   2.543   3.129   1.212  0.5031  2.6713 -0.6060
  841MOL0     H16008   2.552   3.261   0.984 -1.3249  0.0254  0.6274
  841MOL0     H16009   2.475   3.184   0.842  1.4596  0.2556  0.2120
  841MOL0     H16010   2.678   3.071   1.027  1.3641  2.7616 -0.2584
  841MOL0     H16011   2.619   2.993   0.868 -0.4790  3.0925 -4.1903
  841MOL0     H16012   2.725   3.186   0.753  1.2507  3.6488  0.4134
  841MOL0     H16013   2.788   3.243   0.912 -1.1454 -1.5738  1.3138
  841MOL0     H16014   2.847   3.002   0.740 -2.8876 -0.4343  0.9332
  841MOL0     H16015   2.958   3.138   0.764 -0.0681 -1.3869 -1.5898
  841MOL0     H16016   3.181   3.065   0.858  1.4581  1.0270 -0.0079
  841MOL0     H16017   3.410   3.324   0.978 -0.2572 -0.7041 -2.2167
  841MOL0     H16018   3.403   3.184   0.876 -1.8603  1.6640 -0.9549
  841MOL0     H16019   3.436   3.149   1.044 -0.2800 -2.2861 -1.2065
  841MOL0     H16020   3.099   3.695   1.326  0.5773 -4.3248  0.8365
  841MOL0     H16021   3.195   3.907   1.382 -0.3746  0.9838 -1.7492
  841MOL0     H16022   3.594   4.099   1.455  0.8643  2.4742 -1.5480
  841MOL0     H16023   3.641   3.925   1.405 -0.3970 -0.1652 -0.8715
  841MOL0     H16024   3.737   4.103   1.252  0.0162 -2.3154 -3.0955
  841MOL0     H16025   3.622   4.011   1.161  1.2398  0.7035 -0.7434
  841MOL0     H16026   3.455   4.205   1.281  0.9151 -3.6190  0.8809
  841MOL0     H16027   3.507   4.197   1.109 -0.3890 -0.1302  0.0331
  841MOL0     H16028   3.722   4.310   1.184 -1.7265  0.1403 -0.6557
  841MOL0     H16029   3.672   4.309   1.344  4.2646  0.2920 -1.1018
  841MOL0     H16030   3.524   4.465   1.126  1.3024 -0.2473 -1.2900
  841MOL0     H16031   3.465   4.448   1.295  0.1252  0.9323  1.5468
  841MOL0     H16032   3.732   4.577   1.233 -1.7271  1.3335 -2.7897
  841MOL0     H16033   3.635   4.569   1.386  0.4056  1.0160 -0.4283
  841MOL0     H16034   3.460   4.697   1.292 -0.9577 -1.3376 -0.5634
  841MOL0     H16035   3.566   4.720   1.139  1.8377 -0.4614  0.2666
  841MOL0     H16036   3.612   4.835   1.412 -1.5010  0.6561 -0.2963
  841MOL0     H16037   3.584   4.911   1.258 -4.1745 -1.0928  0.0246
  841MOL0     H16038   3.590   3.759   1.267  0.2349 -1.9746  4.7309
  841MOL0     H16039   3.484   3.548   1.220 -0.1194  1.5704 -5.4251
  841MOL0     H16040   3.020   3.269   1.269  1.9110  3.1446 -0.7995
  841MOL0     H16041   2.880   3.126   1.170  0.0064 -0.8756 -0.8245
  841MOL0     H16042   1.654   2.844   2.051 -2.3586 -0.0394  0.0952
  841MOL0     H16043   1.458   2.877   2.183  0.3585 -2.9430 -4.5169
  841MOL0     H16044   1.411   2.931   2.679  1.2034 -2.8589 -0.0010
  841MOL0     H16045   1.289   3.014   2.878  2.8092 -1.2372 -0.1815
  841MOL0     H16046   0.853   2.866   2.892  0.3603 -0.6281  1.3349
  841MOL0     H16047   0.858   2.987   3.016  0.8227  1.3289  0.0887
  841MOL0     H16048   0.920   3.085   2.732  2.5443 -0.4477  1.1039
  841MOL0     H16049   0.919   3.172   2.889 -2.8490  2.6681 -0.7059
  841MOL0     H16050   0.693   3.096   2.725  0.7878  0.0930  0.7005
  841MOL0     H16051   0.660   3.079   2.902 -0.7142 -2.6549 -2.1393
  841MOL0     H16052   0.768   3.306   2.936 -1.4475 -1.2014  2.3533
  841MOL0     H16053   0.604   3.298   2.866  0.4323  0.7948  0.2641
  841MOL0     H16054   0.793   3.464   2.537 -2.0012 -2.2429 -1.8125
  841MOL0     H16055   0.960   2.778   2.749 -0.1712 -0.6186  0.9243
  841MOL0     H16056   1.052   2.766   2.410 -3.6538  1.8527 -0.1694
  841MOL0     H16057   1.084   2.620   2.515 -2.2261 -0.5209  0.0353
  841MOL0     H16058   0.936   2.703   2.535  0.2927 -1.1295  2.7022
  842MOL0     O16059   7.341   2.392   7.149 -0.0342 -0.5369 -0.4921
  842MOL0     C16060   7.403   2.464   7.229 -0.3550 -0.6292 -0.3835
  842MOL0     O16061   7.410   2.602   7.232 -0.1041  0.2651  0.0165
  842MOL0     C16062   7.364   2.687   7.133 -0.5550 -0.2696 -0.5999
  842MOL0     C16063   7.326   2.808   7.185 -0.0330 -0.6971  0.0428
  842MOL0     C16064   7.289   2.908   7.093 -0.0948 -0.0610 -0.4032
  842MOL0     C16065   7.299   2.896   6.955 -0.9322 -0.1318  0.9957
  842MOL0     O16066   7.286   3.000   6.869  0.6570  0.2279 -0.5291
  842MOL0     C16067   7.406   3.059   6.815 -0.0789  0.1055 -0.3096
  842MOL0     C16068   7.440   3.015   6.672 -0.3278  0.2507 -0.3166
  842MOL0     C16069   7.556   3.087   6.608 -0.0102  0.0652  0.1491
  842MOL0     C16070   7.553   3.241   6.628  0.2797 -0.1055 -0.3530
  842MOL0     C16071   7.658   3.314   6.551  0.0562 -0.3627  0.0173
  842MOL0     C16072   7.693   3.451   6.609  1.4203  0.0998  0.5971
  842MOL0     C16073   7.819   3.512   6.547 -1.0291 -0.2601  0.0582
  842MOL0     C16074   7.828   3.656   6.601 -0.0571 -0.2629 -0.6227
  842MOL0     N16075   7.782   3.758   6.498  0.3215  0.0056 -0.1706
  842MOL0     C16076   7.663   3.799   6.467  0.0384  0.2357 -0.3139
  842MOL0     C16077   7.678   3.884   6.362  1.0295 -0.4366 -0.2229
  842MOL0     C16078   7.565   3.948   6.295  0.0184 -0.2419  0.0532
  842MOL0     C16079   7.520   3.884   6.165 -0.9695  0.1425  0.2012
  842MOL0     C16080   7.447   3.979   6.075  0.9933  0.3432  1.1285
  842MOL0     C16081   7.422   3.903   5.939  0.8746  0.1176 -0.0593
  842MOL0     O16082   7.548   3.889   5.874  0.0210 -0.3921 -0.0879
  842MOL0     C16083   7.566   3.791   5.780  0.8167 -0.3276  1.0035
  842MOL0     C16084   7.690   3.760   5.736 -0.0951 -1.3221  1.3040
  842MOL0     C16085   7.712   3.650   5.662 -0.4045 -0.5900  0.0256
  842MOL0     C16086   7.848   3.611   5.622  0.1327  0.6689 -0.6381
  842MOL0     C16087   7.604   3.573   5.621  0.0303  0.5658 -0.3359
  842MOL0     C16088   7.620   3.456   5.539 -0.0061 -0.3997  0.3024
  842MOL0     O16089   7.573   3.345   5.584  0.6206 -0.5187  1.3532
  842MOL0     C16090   7.609   3.229   5.515  0.7565 -0.1404  0.2759
  842MOL0     C16091   7.512   3.146   5.461 -0.0939 -0.3777  0.4851
  842MOL0     C16092   7.551   3.023   5.400 -0.3839 -0.0853  0.3528
  842MOL0     C16093   7.686   2.984   5.399 -0.0665 -1.2776  0.1599
  842MOL0     O16094   7.718   2.855   5.358 -0.8704 -0.0184 -0.5218
  842MOL0     C16095   7.837   2.834   5.289  0.1495  0.9013 -0.5436
  842MOL0     C16096   7.912   2.706   5.341 -0.7789  0.8244 -0.1075
  842MOL0     C16097   7.844   2.574   5.301 -0.5124 -0.3258  0.1065
  842MOL0     C16098   7.901   2.506   5.171 -0.1993 -0.0230 -0.5515
  842MOL0     C16099   7.806   2.408   5.119 -0.0753  0.3260  0.6421
  842MOL0     C16100   7.824   2.376   4.969 -0.0692  1.1134 -0.7530
  842MOL0     C16101   7.685   2.337   4.909  0.3158 -0.2302 -0.4452
  842MOL0     C16102   7.690   2.292   4.770  0.1340  1.0192  0.1737
  842MOL0    Cl16103   7.536   2.249   4.697  0.4547  0.2208 -0.3231
  842MOL0     C16104   7.777   3.062   5.470  0.8417 -0.6203  0.9894
  842MOL0     C16105   7.744   3.187   5.526  0.4437 -0.2033  1.1367
  842MOL0     O16106   7.663   3.477   5.423 -0.0219  0.3371  0.0788
  842MOL0     C16107   7.477   3.606   5.656 -0.3768  0.3614 -0.0149
  842MOL0     C16108   7.463   3.715   5.739  0.0941 -0.4730  0.8577
  842MOL0     N16109   7.811   3.890   6.332 -0.2249  0.0459  0.8286
  842MOL0     N16110   7.870   3.818   6.413 -0.7278  0.8527  0.2492
  842MOL0     C16111   7.340   2.774   6.903  0.4687  0.0066  0.2832
  842MOL0     C16112   7.371   2.674   6.996 -0.3721  0.9598 -0.7402
  842MOL0     C16113   7.471   2.391   7.345 -0.1535 -0.5598 -0.2477
  842MOL0     C16114   7.493   2.454   7.469  0.1990 -0.3642 -0.6395
  842MOL0     C16115   7.564   2.388   7.570 -0.8114  0.1411 -0.2518
  842MOL0     C16116   7.610   2.261   7.555  0.2348 -0.0312 -0.5412
  842MOL0     O16117   7.696   2.219   7.657 -0.3816 -0.7875 -0.3616
  842MOL0     C16118   7.740   2.085   7.670 -0.5284  0.0629  1.0460
  842MOL0     C16119   7.777   2.042   7.819 -0.1287  0.1916 -0.4789
  842MOL0     C16120   7.881   2.134   7.892  0.0735  1.1547  0.1726
  842MOL0     C16121   7.923   2.090   8.037 -0.5086 -0.2402 -0.1751
  842MOL0     C16122   7.948   1.945   8.039  0.0908 -0.0755  1.1141
  842MOL0     C16123   7.988   1.826   8.037 -0.4978 -0.8774 -0.4453
  842MOL0     C16124   7.586   2.196   7.432 -0.1705 -0.5824 -0.9863
  842MOL0     C16125   7.518   2.256   7.331  0.1879  0.1392 -0.3302
  842MOL0     C16126   7.511   2.181   7.201 -0.2251 -0.4777 -0.6675
  842MOL0     H16127   7.324   2.825   7.292 -1.6249  0.1403 -0.0941
  842MOL0     H16128   7.255   3.006   7.126 -3.1272 -0.0306 -3.1457
  842MOL0     H16129   7.489   3.055   6.887 -0.9700 -1.9516  0.6821
  842MOL0     H16130   7.380   3.165   6.819 -1.0331 -0.1578  1.1354
  842MOL0     H16131   7.461   2.908   6.663  0.6098  0.0502  2.8939
  842MOL0     H16132   7.348   3.034   6.616 -0.9584 -2.7319 -0.4630
  842MOL0     H16133   7.645   3.046   6.656 -1.5792 -1.4842  1.9351
  842MOL0     H16134   7.550   3.062   6.502 -0.1386  0.3033  0.1001
  842MOL0     H16135   7.458   3.287   6.598  1.1120  1.4629 -0.7070
  842MOL0     H16136   7.551   3.277   6.731  0.0381  1.8881 -1.0039
  842MOL0     H16137   7.614   3.322   6.452 -1.9590 -1.0439  0.8213
  842MOL0     H16138   7.751   3.256   6.553  2.5686  3.2404 -1.6879
  842MOL0     H16139   7.608   3.517   6.593  1.6718  0.3141  0.0866
  842MOL0     H16140   7.704   3.437   6.717  1.6053  1.6281  0.7998
  842MOL0     H16141   7.824   3.510   6.438  1.3961 -1.6826  0.1330
  842MOL0     H16142   7.908   3.459   6.582 -1.7973  0.8989  4.3947
  842MOL0     H16143   7.787   3.667   6.702  0.8739  0.3716 -0.3012
  842MOL0     H16144   7.937   3.662   6.607  0.1976 -3.5157 -0.0864
  842MOL0     H16145   7.575   3.767   6.523  1.1924  0.2904  1.6063
  842MOL0     H16146   7.594   4.053   6.282  1.7636 -0.8607 -1.3253
  842MOL0     H16147   7.479   3.945   6.363  0.5365  1.6455  0.8513
  842MOL0     H16148   7.611   3.852   6.115 -1.8906 -1.6614 -0.3783
  842MOL0     H16149   7.467   3.795   6.200  2.6624 -1.5404  1.9774
  842MOL0     H16150   7.348   4.001   6.116 -0.4836 -3.0619 -0.1928
  842MOL0     H16151   7.488   4.080   6.069  0.4648  0.6017  1.7602
  842MOL0     H16152   7.376   3.809   5.970  3.0590 -0.2549  2.4729
  842MOL0     H16153   7.346   3.955   5.880  1.0058  1.2160  0.7194
  842MOL0     H16154   7.773   3.822   5.767  1.4996 -1.5746 -2.0855
  842MOL0     H16155   7.865   3.507   5.651  0.0858  1.3363  2.0116
  842MOL0     H16156   7.917   3.671   5.683 -1.5932  0.8637  1.2196
  842MOL0     H16157   7.873   3.635   5.518 -3.1031 -1.6838 -2.1311
  842MOL0     H16158   7.410   3.183   5.452  0.6282  1.5494 -0.4244
  842MOL0     H16159   7.474   2.960   5.357 -2.6514  1.1103  2.3777
  842MOL0     H16160   7.800   2.824   5.187 -1.7986  1.6259  0.0468
  842MOL0     H16161   7.906   2.918   5.303 -0.9937  1.5956  1.4652
  842MOL0     H16162   8.019   2.707   5.315  0.2640  0.0591  3.5897
  842MOL0     H16163   7.911   2.713   5.450  0.6213  0.3582 -0.0463
  842MOL0     H16164   7.739   2.604   5.294 -0.3682  0.8540  2.1641
  842MOL0     H16165   7.852   2.497   5.379  0.4389 -2.7606 -2.2311
  842MOL0     H16166   7.999   2.461   5.187  0.9566  0.6430 -4.7001
  842MOL0     H16167   7.927   2.586   5.101  0.2861  0.3644  0.0546
  842MOL0     H16168   7.812   2.319   5.183  2.1862 -0.7435 -0.9226
  842MOL0     H16169   7.708   2.448   5.143 -0.4613 -0.4552  0.4102
  842MOL0     H16170   7.895   2.295   4.949  2.8155  2.5274  2.5779
  842MOL0     H16171   7.863   2.462   4.914  0.9657  1.5651  0.6406
  842MOL0     H16172   7.606   2.412   4.917 -0.2240 -0.9740  3.1319
  842MOL0     H16173   7.653   2.248   4.963  2.0504  1.4500  3.8138
  842MOL0     H16174   7.757   2.206   4.775  1.0795  1.7945  1.5501
  842MOL0     H16175   7.736   2.372   4.711 -0.8623  1.2180 -0.3549
  842MOL0     H16176   7.872   3.012   5.489  1.6377 -0.0783 -1.2104
  842MOL0     H16177   7.808   3.246   5.591 -0.8425  0.4148  1.8786
  842MOL0     H16178   7.390   3.547   5.630 -1.6992  1.9293  0.7604
  842MOL0     H16179   7.362   3.738   5.771  0.1381  2.9749 -0.9512
  842MOL0     H16180   7.348   2.762   6.796  0.4621 -1.9694  0.4685
  842MOL0     H16181   7.403   2.577   6.960 -2.0801 -0.1961  0.7075
  842MOL0     H16182   7.465   2.558   7.484 -0.8387 -0.9417  2.1190
  842MOL0     H16183   7.596   2.437   7.661 -0.2202 -1.5669  0.4957
  842MOL0     H16184   7.667   2.015   7.629 -1.1365  1.5919 -0.5745
  842MOL0     H16185   7.824   2.078   7.600 -0.2929 -0.3767  1.3664
  842MOL0     H16186   7.811   1.939   7.803 -1.9193 -0.7471  1.2663
  842MOL0     H16187   7.684   2.031   7.876 -3.0281 -1.1744 -4.9327
  842MOL0     H16188   7.968   2.144   7.827  0.9959  1.2512  1.3776
  842MOL0     H16189   7.830   2.231   7.901  0.2676  1.2497  0.2680
  842MOL0     H16190   7.838   2.121   8.098  1.1103  4.3332  0.1573
  842MOL0     H16191   8.011   2.151   8.063  1.3300 -2.4463 -0.9316
  842MOL0     H16192   8.013   1.722   8.032 -1.0936 -1.1969  2.1148
  842MOL0     H16193   7.629   2.096   7.425 -2.0469 -1.3521 -2.2109
  842MOL0     H16194   7.542   2.233   7.110  1.8765 -2.7835 -1.3947
  842MOL0     H16195   7.587   2.102   7.212  0.6437  0.4652  0.3033
  842MOL0     H16196   7.412   2.136   7.189  0.6706 -1.9630 -3.4830
  843MOL0     O16197   3.116   9.285   8.624  0.4720  1.0667 -0.3908
  843MOL0     C16198   3.037   9.212   8.682 -0.1236  0.0479 -0.2261
  843MOL0     O16199   3.058   9.073   8.695 -0.6544  0.4728 -0.4764
  843MOL0     C16200   3.174   9.000   8.651  0.7939  0.0829 -0.6742
  843MOL0     C16201   3.275   9.041   8.561 -0.2953  0.4461 -0.6038
  843MOL0     C16202   3.376   8.956   8.523 -0.0322  0.5211 -0.0530
  843MOL0     C16203   3.384   8.822   8.568  0.0510 -0.4034 -0.1954
  843MOL0     O16204   3.493   8.760   8.530  0.7443 -0.1045 -0.2892
  843MOL0     C16205   3.555   8.685   8.633 -0.2419 -0.0636 -0.5889
  843MOL0     C16206   3.679   8.611   8.589 -0.1551 -0.3269  0.2886
  843MOL0     C16207   3.801   8.703   8.561 -0.1438 -0.4614  1.1048
  843MOL0     C16208   3.908   8.624   8.467  0.6656 -0.2426  0.4352
  843MOL0     C16209   4.018   8.727   8.420  0.9062 -0.0024  0.6358
  843MOL0     C16210   4.107   8.767   8.526  0.2416  0.2605 -0.0935
  843MOL0     C16211   4.232   8.823   8.484 -0.2947 -0.8580  0.8214
  843MOL0     C16212   4.218   8.951   8.400 -0.1100  0.3849  0.0611
  843MOL0     N16213   4.352   9.005   8.370 -0.9876  0.0312  0.3381
  843MOL0     C16214   4.464   9.028   8.452  1.1396  0.1074 -0.0940
  843MOL0     C16215   4.557   9.081   8.378 -0.0465  0.3491 -0.4195
  843MOL0     C16216   4.687   9.151   8.413  0.6043  0.4997  0.2209
  843MOL0     C16217   4.796   9.092   8.321  0.4497 -0.3317  0.0391
  843MOL0     C16218   4.770   8.948   8.268  0.6182 -0.4507 -0.5368
  843MOL0     C16219   4.883   8.893   8.189 -0.1565 -0.3262 -0.1727
  843MOL0     O16220   4.980   8.850   8.288 -0.8259  0.2699 -0.1426
  843MOL0     C16221   4.954   8.724   8.356 -0.4918 -1.3411  0.4530
  843MOL0     C16222   5.010   8.714   8.484  0.0430 -0.1842 -0.1368
  843MOL0     C16223   4.998   8.595   8.556  0.5183  0.5393  0.3760
  843MOL0     C16224   5.074   8.588   8.692  1.0836  0.5689  0.0447
  843MOL0     C16225   4.928   8.482   8.506  0.3710 -0.2803  0.3987
  843MOL0     C16226   4.901   8.348   8.573 -0.1360  0.1251  0.3670
  843MOL0     O16227   4.998   8.310   8.663  0.0865  0.5492 -0.5345
  843MOL0     C16228   4.971   8.198   8.743  0.3587 -0.3531  0.5300
  843MOL0     C16229   5.020   8.075   8.713  0.3092  0.5505 -0.1333
  843MOL0     C16230   4.978   7.966   8.788 -0.9005  0.2521 -0.2919
  843MOL0     C16231   4.882   7.974   8.890  0.2626 -0.0436  0.2781
  843MOL0     O16232   4.864   7.858   8.968  0.4625 -0.0403  0.2087
  843MOL0     C16233   4.744   7.847   9.046 -0.4547 -0.1959 -0.3459
  843MOL0     C16234   4.752   7.873   9.190 -0.1266  0.8712  0.5574
  843MOL0     C16235   4.782   7.746   9.265 -0.9402  0.6647  0.7880
  843MOL0     C16236   4.767   7.766   9.411 -0.0362 -0.9235 -0.2169
  843MOL0     C16237   4.903   7.828   9.459  0.0706  0.1559  0.3583
  843MOL0     C16238   4.863   7.890   9.591  0.7131  0.1477 -0.6328
  843MOL0     C16239   4.983   7.954   9.655 -0.4968  0.9575 -0.8510
  843MOL0     C16240   4.955   8.004   9.794 -0.6734 -0.3596 -0.5978
  843MOL0    Cl16241   4.866   8.157   9.778  0.1485  0.3881  0.0686
  843MOL0     C16242   4.828   8.108   8.912 -0.0563 -0.4058  0.1486
  843MOL0     C16243   4.875   8.217   8.840 -0.3652  0.5803 -0.6815
  843MOL0     O16244   4.793   8.299   8.560  0.4210 -0.2998  0.2554
  843MOL0     C16245   4.873   8.494   8.374  0.7623  0.2723 -0.0002
  843MOL0     C16246   4.892   8.614   8.300  0.8749  0.3636  0.4886
  843MOL0     N16247   4.503   9.102   8.255  0.5779 -0.0711  0.4679
  843MOL0     N16248   4.390   9.038   8.249 -0.4810  0.4825  0.2953
  843MOL0     C16249   3.292   8.781   8.663  0.3532  0.9624 -0.2317
  843MOL0     C16250   3.186   8.870   8.704 -0.5103  1.0579 -0.4853
  843MOL0     C16251   2.909   9.263   8.749  0.2403 -0.6990  0.7536
  843MOL0     C16252   2.841   9.183   8.847 -0.0580  0.8974 -0.6991
  843MOL0     C16253   2.724   9.223   8.915 -0.6101 -0.9289 -0.1935
  843MOL0     C16254   2.681   9.356   8.900  0.1847 -0.4283  0.3610
  843MOL0     O16255   2.583   9.410   8.980 -0.2864  0.5861  0.0964
  843MOL0     C16256   2.453   9.426   8.919 -0.9823 -0.0253 -0.8270
  843MOL0     C16257   2.350   9.505   9.002 -0.5503  0.3558 -0.5207
  843MOL0     C16258   2.331   9.454   9.139  0.5674 -0.1797  0.5583
  843MOL0     C16259   2.277   9.307   9.145 -0.0420 -0.6829 -0.5039
  843MOL0     C16260   2.137   9.295   9.100 -0.6611  0.5986  0.2967
  843MOL0     C16261   2.034   9.262   9.060  0.4837 -0.8071 -0.1777
  843MOL0     C16262   2.737   9.435   8.800 -0.0704  0.7195  1.0621
  843MOL0     C16263   2.845   9.392   8.721  0.6812  0.5943  0.2687
  843MOL0     C16264   2.896   9.476   8.609  0.2091 -0.1782 -0.6177
  843MOL0     H16265   3.277   9.142   8.521 -1.3513  0.3190 -1.0153
  843MOL0     H16266   3.450   8.985   8.449  0.7009 -0.5329  0.2352
  843MOL0     H16267   3.490   8.600   8.656  0.8192 -0.8917 -0.6091
  843MOL0     H16268   3.579   8.751   8.718 -1.1868  3.6867 -2.9930
  843MOL0     H16269   3.699   8.537   8.667  0.0058 -0.6576 -0.0613
  843MOL0     H16270   3.654   8.549   8.503  1.4334 -0.2577 -0.2564
  843MOL0     H16271   3.772   8.790   8.501 -2.6919 -1.1315  1.2415
  843MOL0     H16272   3.848   8.737   8.654 -1.1943  1.9413  0.8388
  843MOL0     H16273   3.961   8.543   8.517  3.3095 -0.3185 -2.2651
  843MOL0     H16274   3.849   8.588   8.383 -0.4362  4.4327 -1.1014
  843MOL0     H16275   3.974   8.818   8.378 -1.0193  0.1599  2.7977
  843MOL0     H16276   4.068   8.672   8.339  1.0350  1.9106 -0.6475
  843MOL0     H16277   4.062   8.838   8.596  0.1218 -0.2447  0.3533
  843MOL0     H16278   4.145   8.677   8.576  0.6155 -0.5153 -1.6900
  843MOL0     H16279   4.282   8.753   8.416  0.4870  0.5727 -0.1335
  843MOL0     H16280   4.294   8.833   8.573  0.3345 -2.0914  0.5505
  843MOL0     H16281   4.161   8.926   8.310 -2.5291 -0.1135  1.6489
  843MOL0     H16282   4.159   9.025   8.454  0.4159  0.7704  0.1268
  843MOL0     H16283   4.464   9.038   8.560  0.9874  0.9156 -0.1628
  843MOL0     H16284   4.695   9.162   8.521 -1.5939 -0.4125  0.5301
  843MOL0     H16285   4.666   9.254   8.384  1.1115  0.3193 -0.8600
  843MOL0     H16286   4.803   9.160   8.235  0.4949 -1.4165 -0.8469
  843MOL0     H16287   4.894   9.098   8.368 -0.1030  1.3121  1.0484
  843MOL0     H16288   4.738   8.880   8.347 -0.0081  3.1326  2.6120
  843MOL0     H16289   4.684   8.940   8.201  0.9995 -2.5883 -0.8456
  843MOL0     H16290   4.852   8.811   8.123 -0.5921 -1.2574  1.1573
  843MOL0     H16291   4.929   8.975   8.133 -0.1621 -0.6533 -0.6594
  843MOL0     H16292   5.057   8.805   8.519 -0.5484  0.7095 -1.5558
  843MOL0     H16293   5.163   8.528   8.668  0.3023 -1.0229  1.0059
  843MOL0     H16294   5.026   8.542   8.778  4.0919  1.9946  2.6986
  843MOL0     H16295   5.104   8.686   8.730  1.5426  0.1980  0.6648
  843MOL0     H16296   5.086   8.063   8.628  1.5989  0.6990  0.8160
  843MOL0     H16297   5.031   7.874   8.765  1.3496  0.3764  3.5674
  843MOL0     H16298   4.673   7.922   9.009 -0.7922 -1.1100 -1.6064
  843MOL0     H16299   4.693   7.751   9.031  0.4823 -0.7522 -0.0476
  843MOL0     H16300   4.819   7.957   9.211  0.6985  0.9293 -1.9750
  843MOL0     H16301   4.655   7.912   9.223  0.0920 -0.0117  2.3083
  843MOL0     H16302   4.884   7.711   9.250 -1.5473 -2.1108  2.5932
  843MOL0     H16303   4.710   7.666   9.245 -3.8242  2.3924  3.3858
  843MOL0     H16304   4.753   7.676   9.470 -1.1551  0.1194  1.1973
  843MOL0     H16305   4.687   7.839   9.429  0.4878 -0.0519 -1.2788
  843MOL0     H16306   4.983   7.753   9.449  0.5358  0.5543  1.0019
  843MOL0     H16307   4.929   7.908   9.390  2.1841  0.0112  0.9258
  843MOL0     H16308   4.836   7.813   9.665  3.6695  0.8089  1.2972
  843MOL0     H16309   4.784   7.964   9.578 -0.3320 -0.9599 -0.8575
  843MOL0     H16310   5.008   8.035   9.585 -1.6179  1.5490 -0.5914
  843MOL0     H16311   5.073   7.892   9.649 -1.6006 -0.8413  0.4503
  843MOL0     H16312   5.048   8.014   9.850 -0.0621  2.2217 -1.9228
  843MOL0     H16313   4.906   7.921   9.846  1.6513 -0.7696  1.1058
  843MOL0     H16314   4.745   8.129   8.980 -0.8549 -2.3949 -0.1422
  843MOL0     H16315   4.828   8.314   8.845  1.0776  1.4692 -2.7995
  843MOL0     H16316   4.810   8.413   8.339  0.8992 -0.2002  0.8253
  843MOL0     H16317   4.854   8.630   8.199  5.1259 -2.7707 -1.9764
  843MOL0     H16318   3.299   8.677   8.691  2.4246  0.2550 -2.9495
  843MOL0     H16319   3.115   8.828   8.775 -0.5749  3.0694  0.7158
  843MOL0     H16320   2.888   9.091   8.880  0.1787  1.8890  2.0511
  843MOL0     H16321   2.690   9.165   9.000  0.3144 -0.0606  0.8016
  843MOL0     H16322   2.465   9.489   8.830  1.1370 -0.2173 -0.7453
  843MOL0     H16323   2.423   9.324   8.891  0.3283 -0.7520  0.2735
  843MOL0     H16324   2.256   9.494   8.948 -1.2934  0.6643  0.6708
  843MOL0     H16325   2.372   9.612   9.004  0.0369  0.2308  0.2416
  843MOL0     H16326   2.423   9.477   9.194 -0.2159 -0.0807  1.8754
  843MOL0     H16327   2.253   9.518   9.181 -0.3007 -0.7819 -0.0893
  843MOL0     H16328   2.283   9.264   9.245  0.9779 -4.3773 -1.9699
  843MOL0     H16329   2.334   9.241   9.078 -0.0332  0.6217 -1.8509
  843MOL0     H16330   1.932   9.242   9.032  0.2250  0.2934 -0.0620
  843MOL0     H16331   2.690   9.532   8.791 -0.5620  0.7105  3.0596
  843MOL0     H16332   2.889   9.421   8.515 -0.6416 -0.6795 -0.2769
  843MOL0     H16333   2.827   9.561   8.603 -0.4618 -0.7230 -0.7817
  843MOL0     H16334   2.997   9.513   8.626 -1.2730  3.6948  0.8469
  844MOL0     O16335   4.269   5.052   9.363  0.0255  0.7187 -0.1437
  844MOL0     C16336   4.184   4.958   9.368  0.3339 -0.7519  0.6160
  844MOL0     O16337   4.162   4.871   9.467  0.5344 -0.0107  0.3645
  844MOL0     C16338   4.221   4.894   9.589  0.1340 -0.1064 -1.1353
  844MOL0     C16339   4.140   4.847   9.696 -0.3035  0.3236 -0.0280
  844MOL0     C16340   4.173   4.873   9.827 -0.5704  1.0276  0.3603
  844MOL0     C16341   4.295   4.935   9.855 -0.3432 -0.0777 -0.7710
  844MOL0     O16342   4.321   4.979   9.981  0.5400 -0.2494 -0.3398
  844MOL0     C16343   4.275   4.899  10.097  0.1529 -0.0166 -0.3540
  844MOL0     C16344   4.319   4.754  10.105  0.2385 -0.3558 -0.3358
  844MOL0     C16345   4.473   4.744  10.142 -0.3916 -0.6736  0.3173
  844MOL0     C16346   4.571   4.770  10.030  0.4483  0.3039  0.1792
  844MOL0     C16347   4.713   4.785  10.078  0.7655 -0.2640  0.0850
  844MOL0     C16348   4.786   4.648  10.121  0.7518 -0.6843 -0.2161
  844MOL0     C16349   4.929   4.681  10.181  0.2730  0.9607 -0.4263
  844MOL0     C16350   5.024   4.760  10.086 -0.3674 -0.3393 -0.2428
  844MOL0     N16351   5.162   4.757  10.139  0.0788 -0.1823 -0.2773
  844MOL0     C16352   5.204   4.794  10.269  0.1942 -0.6572 -0.7694
  844MOL0     C16353   5.345   4.780  10.261  0.5315  0.1947  0.2229
  844MOL0     C16354   5.445   4.830  10.366  0.8850 -0.5079  0.6032
  844MOL0     C16355   5.581   4.861  10.293 -0.0075 -0.9985  0.5662
  844MOL0     C16356   5.678   4.940  10.386  0.4613  0.3449 -0.4339
  844MOL0     C16357   5.813   4.977  10.310  0.9606  1.1248  0.2514
  844MOL0     O16358   5.892   4.860  10.283 -0.6801  0.5631  0.3325
  844MOL0     C16359   6.008   4.870  10.207  0.3646 -1.3065  0.7310
  844MOL0     C16360   6.077   4.995  10.193 -0.0989  1.1517 -0.0507
  844MOL0     C16361   6.199   5.013  10.112  0.2572  0.4382  0.2129
  844MOL0     C16362   6.262   5.157  10.090  0.1638  0.0012 -0.7697
  844MOL0     C16363   6.263   4.887  10.064  0.3190  0.0066  0.4875
  844MOL0     C16364   6.406   4.883  10.015 -0.2292 -0.7368 -0.0637
  844MOL0     O16365   6.455   4.760   9.962  0.3318  0.0954  0.1233
  844MOL0     C16366   6.581   4.743   9.928  0.2435  0.6473 -0.2770
  844MOL0     C16367   6.646   4.641  10.005 -0.0157 -0.4867 -0.7996
  844MOL0     C16368   6.777   4.608   9.974  0.2536  0.3292 -1.1879
  844MOL0     C16369   6.842   4.663   9.864 -0.9252  0.9145 -0.1618
  844MOL0     O16370   6.976   4.631   9.846  0.3669 -0.5265  0.0670
  844MOL0     C16371   7.047   4.687   9.732 -0.6814 -0.2520 -0.2440
  844MOL0     C16372   7.178   4.609   9.725  0.6198  1.0258  0.2764
  844MOL0     C16373   7.289   4.654   9.632 -0.1881 -0.1588  0.6190
  844MOL0     C16374   7.272   4.616   9.487  0.0328  1.1079 -0.9627
  844MOL0     C16375   7.377   4.681   9.391  0.1836 -0.4542  0.2346
  844MOL0     C16376   7.325   4.656   9.248  0.3268  0.0298  0.0721
  844MOL0     C16377   7.410   4.713   9.135 -0.0884 -0.1321 -0.2623
  844MOL0     C16378   7.564   4.684   9.148 -0.0234 -0.6543  1.2571
  844MOL0    Cl16379   7.651   4.710   8.990  0.1326  0.4400  0.1039
  844MOL0     C16380   6.774   4.756   9.790  0.3045 -0.1813  0.3151
  844MOL0     C16381   6.644   4.796   9.820 -0.1363 -0.5454  0.2242
  844MOL0     O16382   6.478   4.983  10.017  0.2044  0.0975 -0.0744
  844MOL0     C16383   6.190   4.770  10.071  0.3127  0.4936  0.5676
  844MOL0     C16384   6.063   4.762  10.134 -0.0517  0.2712  0.3998
  844MOL0     N16385   5.384   4.719  10.138  0.6782  0.1469 -0.1748
  844MOL0     N16386   5.275   4.709  10.079 -0.0727 -0.1581  0.1783
  844MOL0     C16387   4.383   4.978   9.758 -0.2748  0.0201 -0.0771
  844MOL0     C16388   4.349   4.955   9.625  0.1310  0.0956  0.3806
  844MOL0     C16389   4.097   4.926   9.249 -0.2182 -0.2068  0.2465
  844MOL0     C16390   3.978   4.866   9.270  0.0285  0.5137 -0.4982
  844MOL0     C16391   3.888   4.847   9.165  0.2703 -0.2871  0.0926
  844MOL0     C16392   3.916   4.889   9.038  0.9487  0.2854 -0.0537
  844MOL0     O16393   3.814   4.857   8.944  0.4332  0.4448 -0.2993
  844MOL0     C16394   3.852   4.878   8.807 -0.4992 -0.1633 -0.2477
  844MOL0     C16395   3.734   4.857   8.706  0.2307  0.1010  0.4024
  844MOL0     C16396   3.787   4.865   8.561 -0.5618 -0.2806 -0.4768
  844MOL0     C16397   3.689   4.832   8.450  1.3099  0.5525  0.3294
  844MOL0     C16398   3.606   4.951   8.448  1.0370 -0.4509  0.3980
  844MOL0     C16399   3.558   5.067   8.432  0.4490  0.3452 -0.2142
  844MOL0     C16400   4.043   4.938   9.009  0.6339 -0.3122 -0.0504
  844MOL0     C16401   4.130   4.962   9.114  0.2695  0.0553 -1.2627
  844MOL0     C16402   4.261   5.026   9.083  0.2268 -0.0715  0.0857
  844MOL0     H16403   4.045   4.799   9.675  0.8906 -0.8605 -3.5355
  844MOL0     H16404   4.107   4.848   9.911  0.0950  1.5042  1.0341
  844MOL0     H16405   4.166   4.910  10.094  0.1688  0.3796 -3.7953
  844MOL0     H16406   4.312   4.943  10.190 -2.3925  0.8123  0.3417
  844MOL0     H16407   4.268   4.696  10.183  1.4303 -0.6544  0.2432
  844MOL0     H16408   4.305   4.695  10.015 -0.9589 -4.8190  2.4442
  844MOL0     H16409   4.494   4.827  10.210 -1.2016  0.0745 -0.3257
  844MOL0     H16410   4.500   4.651  10.193  0.5683 -1.2170 -1.1009
  844MOL0     H16411   4.558   4.683   9.965 -3.3870  0.8057  0.0102
  844MOL0     H16412   4.532   4.858   9.977 -3.0263 -0.0163  1.8940
  844MOL0     H16413   4.719   4.865  10.152  3.8918 -0.5144  0.2413
  844MOL0     H16414   4.758   4.812   9.981 -1.0759 -1.1091 -1.0572
  844MOL0     H16415   4.725   4.607  10.202  0.2944  3.3462  1.7593
  844MOL0     H16416   4.796   4.572  10.044  3.6839 -1.5011  0.8497
  844MOL0     H16417   4.974   4.582  10.193  2.2716  2.1414  3.0092
  844MOL0     H16418   4.928   4.729  10.279  0.5329  1.3944 -0.6354
  844MOL0     H16419   5.034   4.706   9.991  2.9632  0.9040 -0.7405
  844MOL0     H16420   4.996   4.864  10.068  0.1975 -0.1197  0.1070
  844MOL0     H16421   5.142   4.848  10.340 -0.1644  0.3946 -1.8474
  844MOL0     H16422   5.451   4.753  10.443 -1.1694 -1.0051  0.3369
  844MOL0     H16423   5.406   4.925  10.406  0.5562 -0.0042 -0.8496
  844MOL0     H16424   5.635   4.769  10.270  2.6789  0.2704  1.4379
  844MOL0     H16425   5.565   4.924  10.205 -2.6860  0.0904  1.7267
  844MOL0     H16426   5.629   5.035  10.404  0.7784  0.7337 -1.5196
  844MOL0     H16427   5.702   4.895  10.483  0.5919  0.5093 -0.3900
  844MOL0     H16428   5.770   5.032  10.226 -2.8350 -1.9136 -0.0834
  844MOL0     H16429   5.878   5.045  10.366  0.3230  1.2733  0.8326
  844MOL0     H16430   6.035   5.087  10.233 -0.5966  1.6059 -1.5565
  844MOL0     H16431   6.341   5.172  10.164 -0.0829  1.2689 -0.7572
  844MOL0     H16432   6.190   5.236  10.114 -1.5252 -1.6974  0.0568
  844MOL0     H16433   6.297   5.173   9.988  0.3926  1.6358 -0.4568
  844MOL0     H16434   6.595   4.597  10.090 -2.1945 -3.4702 -3.4078
  844MOL0     H16435   6.827   4.535  10.037  0.5757 -0.3365 -2.2054
  844MOL0     H16436   6.997   4.670   9.636 -1.5416  0.0712  0.1316
  844MOL0     H16437   7.068   4.793   9.747  1.0026 -0.5654 -0.2780
  844MOL0     H16438   7.222   4.619   9.825  0.9391 -1.5303  0.4576
  844MOL0     H16439   7.150   4.505   9.708  1.0795  0.6630  1.6223
  844MOL0     H16440   7.387   4.624   9.671 -0.3659 -0.1220  1.0936
  844MOL0     H16441   7.305   4.763   9.627 -0.5076 -0.1320 -3.4370
  844MOL0     H16442   7.173   4.647   9.451 -0.7407  1.1426  1.0836
  844MOL0     H16443   7.280   4.507   9.484  0.7441  0.9552  2.3802
  844MOL0     H16444   7.408   4.783   9.415 -1.8884  0.2202  0.2708
  844MOL0     H16445   7.467   4.620   9.405  0.6930 -0.1372 -1.4139
  844MOL0     H16446   7.223   4.694   9.237  0.3327 -0.6103 -3.1562
  844MOL0     H16447   7.330   4.548   9.228  1.8672  0.0258  0.3378
  844MOL0     H16448   7.396   4.821   9.126 -2.0877 -0.4324 -1.3570
  844MOL0     H16449   7.366   4.678   9.041  0.7944  1.0700 -1.1517
  844MOL0     H16450   7.599   4.586   9.182  2.8644 -0.5202 -0.9190
  844MOL0     H16451   7.596   4.755   9.224  1.8531 -1.1376  0.9808
  844MOL0     H16452   6.830   4.807   9.713  0.5531  0.5342  0.9496
  844MOL0     H16453   6.597   4.877   9.765 -0.0685  1.4610  2.9135
  844MOL0     H16454   6.228   4.672  10.044  0.4888 -0.1314  2.8061
  844MOL0     H16455   6.002   4.673  10.138  1.7505 -0.9715  1.7255
  844MOL0     H16456   4.469   5.043   9.776 -2.2124  2.8023 -0.2717
  844MOL0     H16457   4.414   4.988   9.544 -0.2137 -4.4913 -2.0999
  844MOL0     H16458   3.954   4.831   9.370 -2.4407 -1.2575 -1.5975
  844MOL0     H16459   3.787   4.811   9.183  0.2404  0.6218  1.9081
  844MOL0     H16460   3.880   4.981   8.783  0.0659 -0.3369 -0.3419
  844MOL0     H16461   3.942   4.823   8.780  0.9191  1.8531  0.1244
  844MOL0     H16462   3.665   4.941   8.717 -2.4148 -1.8565 -0.4470
  844MOL0     H16463   3.676   4.766   8.721 -1.6926  1.1294 -0.5063
  844MOL0     H16464   3.847   4.956   8.547  0.4888 -0.6929  1.0272
  844MOL0     H16465   3.860   4.783   8.554 -0.0264 -0.0015  1.2985
  844MOL0     H16466   3.621   4.749   8.471  1.0761 -0.2469 -3.0924
  844MOL0     H16467   3.732   4.812   8.352  1.5445 -3.4644  1.0717
  844MOL0     H16468   3.515   5.164   8.417 -2.2270 -0.3561  2.0001
  844MOL0     H16469   4.057   4.960   8.904 -1.6639 -2.5462 -0.9315
  844MOL0     H16470   4.277   5.126   9.125  2.9087 -0.6843  0.7005
  844MOL0     H16471   4.344   4.964   9.119  1.9728  2.3658  0.4851
  844MOL0     H16472   4.268   5.013   8.974  2.3665  0.0365  0.1549
  845MOL0     O16473   8.752   3.841   8.789  0.5560 -0.0674 -1.0476
  845MOL0     C16474   8.863   3.877   8.832 -0.1089 -0.4036  0.1592
  845MOL0     O16475   8.929   3.810   8.928 -0.4117 -0.3226 -0.3099
  845MOL0     C16476   8.897   3.677   8.958  0.1054  0.7519 -1.0006
  845MOL0     C16477   8.851   3.579   8.857  0.6828  1.5252  0.2510
  845MOL0     C16478   8.803   3.449   8.897  0.6278  0.4795  0.1088
  845MOL0     C16479   8.805   3.411   9.034  0.8849  0.3432  1.1334
  845MOL0     O16480   8.759   3.285   9.065 -0.4208  0.5228 -0.2873
  845MOL0     C16481   8.638   3.265   9.154  0.0420 -0.3332  0.1386
  845MOL0     C16482   8.560   3.155   9.082 -0.0367  0.1337  0.1324
  845MOL0     C16483   8.530   3.186   8.941  0.0764 -0.0491  0.4956
  845MOL0     C16484   8.438   3.081   8.886  0.0954  0.7066  0.0156
  845MOL0     C16485   8.399   3.117   8.741  0.6530  0.3338 -0.4671
  845MOL0     C16486   8.312   3.016   8.673 -0.5650 -0.0996 -0.4690
  845MOL0     C16487   8.337   3.029   8.518 -0.1316  0.5438  0.2433
  845MOL0     C16488   8.321   3.179   8.462 -1.0758  0.4865  0.3039
  845MOL0     N16489   8.365   3.188   8.323  0.1998 -0.2409 -0.3208
  845MOL0     C16490   8.328   3.277   8.231 -0.3188 -0.3011 -0.2724
  845MOL0     C16491   8.409   3.270   8.130  0.6958  0.2597 -0.1501
  845MOL0     C16492   8.393   3.350   8.004 -0.5397  0.9402  1.0322
  845MOL0     C16493   8.523   3.428   7.975  0.6377 -1.0765  0.4151
  845MOL0     C16494   8.534   3.486   7.832 -1.0804 -0.5958  0.4190
  845MOL0     C16495   8.674   3.553   7.832 -0.6440 -0.9032 -0.0415
  845MOL0     O16496   8.765   3.443   7.819  0.2034 -0.2463  0.2822
  845MOL0     C16497   8.896   3.490   7.823 -1.5757 -0.3177  1.2916
  845MOL0     C16498   8.961   3.569   7.721  0.0799 -0.9836 -0.1256
  845MOL0     C16499   9.095   3.606   7.736 -0.2971  1.1975  0.5534
  845MOL0     C16500   9.160   3.681   7.623 -0.3261 -0.6404 -0.0188
  845MOL0     C16501   9.166   3.556   7.846 -0.4695 -0.2051  0.3253
  845MOL0     C16502   9.313   3.579   7.861 -0.1175  0.5386 -0.0499
  845MOL0     O16503   9.387   3.607   7.744  0.2104 -0.2335 -0.3087
  845MOL0     C16504   9.522   3.617   7.756  0.1921  0.1442  0.2457
  845MOL0     C16505   9.582   3.737   7.787  0.0270 -0.0286  0.6427
  845MOL0     C16506   9.723   3.748   7.817 -0.0007  0.7400 -0.2518
  845MOL0     C16507   9.810   3.636   7.792  0.0329 -0.2298 -0.7639
  845MOL0     O16508   9.943   3.640   7.818  0.1458  0.3400  1.0699
  845MOL0     C16509  10.026   3.521   7.784 -0.1876 -0.1879 -1.0532
  845MOL0     C16510  10.168   3.571   7.781 -0.6168  0.4656  0.5833
  845MOL0     C16511  10.274   3.470   7.744  0.7480  0.7358  0.8407
  845MOL0     C16512  10.409   3.532   7.705  0.1371 -0.2967 -0.9569
  845MOL0     C16513  10.502   3.423   7.665  0.0567  0.6073 -0.1079
  845MOL0     C16514  10.640   3.473   7.629  0.2204  0.1243 -0.7805
  845MOL0     C16515  10.716   3.550   7.742  0.4154 -0.4272 -0.4309
  845MOL0     C16516  10.870   3.553   7.725  0.2944  0.1376 -0.4751
  845MOL0    Cl16517  10.928   3.574   7.554  0.4431 -0.0340 -0.2423
  845MOL0     C16518   9.739   3.516   7.766 -0.5379  0.1137 -1.2137
  845MOL0     C16519   9.604   3.508   7.752  0.7838  0.7062 -0.0170
  845MOL0     O16520   9.370   3.562   7.969  0.1673 -0.9332  0.0315
  845MOL0     C16521   9.099   3.497   7.952 -0.1222  0.2299  1.1697
  845MOL0     C16522   8.965   3.473   7.941  0.2077  0.0521  0.0792
  845MOL0     N16523   8.484   3.155   8.154  0.2820  0.2370  0.6158
  845MOL0     N16524   8.451   3.100   8.268 -1.2832  0.2947  0.8674
  845MOL0     C16525   8.859   3.507   9.129  0.6554 -0.0395 -0.0190
  845MOL0     C16526   8.899   3.635   9.089 -0.4793 -0.1434  1.0115
  845MOL0     C16527   8.914   4.011   8.794 -0.0865 -0.6172  0.0194
  845MOL0     C16528   8.997   4.070   8.891  0.1071 -0.2339 -0.8871
  845MOL0     C16529   9.059   4.191   8.865  0.1467  0.1808  0.4752
  845MOL0     C16530   9.032   4.260   8.748  0.1833  0.1895  0.6275
  845MOL0     O16531   9.102   4.377   8.723 -0.4168  0.0461 -0.4881
  845MOL0     C16532   9.056   4.464   8.618 -1.2053  0.1669  0.8762
  845MOL0     C16533   9.168   4.580   8.595  0.5154 -0.3144 -0.0761
  845MOL0     C16534   9.309   4.529   8.557  1.1541  0.4337  0.7966
  845MOL0     C16535   9.433   4.616   8.609 -0.5945  0.1763 -0.7955
  845MOL0     C16536   9.426   4.761   8.558 -0.1677  0.1252  0.5090
  845MOL0     C16537   9.438   4.874   8.513  0.2448  0.8787 -0.7319
  845MOL0     C16538   8.952   4.201   8.659 -0.0477 -0.0030  0.3636
  845MOL0     C16539   8.890   4.079   8.672 -1.3819  0.4865 -0.0299
  845MOL0     C16540   8.791   4.037   8.567 -0.7130  0.4875 -0.2243
  845MOL0     H16541   8.839   3.612   8.755  0.2193 -0.5286 -0.3974
  845MOL0     H16542   8.768   3.377   8.824 -0.6641 -0.0957  1.2345
  845MOL0     H16543   8.578   3.355   9.163 -1.8689 -1.5446 -0.0415
  845MOL0     H16544   8.657   3.233   9.257 -1.0860 -0.2658  0.3728
  845MOL0     H16545   8.612   3.058   9.086 -0.1946 -0.2219 -3.2645
  845MOL0     H16546   8.469   3.146   9.141 -0.1808  2.0952  0.2725
  845MOL0     H16547   8.479   3.281   8.924 -1.9118 -1.2528 -0.7251
  845MOL0     H16548   8.624   3.203   8.888  1.1193 -3.6957  0.8538
  845MOL0     H16549   8.483   2.981   8.892 -0.1585  0.6279  0.7162
  845MOL0     H16550   8.342   3.087   8.938 -0.3279  2.8929 -0.9444
  845MOL0     H16551   8.490   3.135   8.683  0.5356  6.1191  0.5499
  845MOL0     H16552   8.337   3.207   8.739  0.0236 -0.0868 -0.0036
  845MOL0     H16553   8.346   2.916   8.704 -0.1473  0.2538  0.2468
  845MOL0     H16554   8.207   3.036   8.695 -0.0561 -0.8877  3.4107
  845MOL0     H16555   8.275   2.968   8.453 -0.3232  2.8777 -1.9171
  845MOL0     H16556   8.441   3.006   8.491  0.4424  0.5796  2.2216
  845MOL0     H16557   8.214   3.201   8.460 -1.9346 -2.7879  2.3741
  845MOL0     H16558   8.377   3.244   8.529 -1.3329  0.6076  0.4027
  845MOL0     H16559   8.250   3.349   8.254 -1.6774 -1.8413  0.1454
  845MOL0     H16560   8.307   3.418   8.002  0.6932  2.5626  0.1135
  845MOL0     H16561   8.380   3.282   7.919  0.0962  0.8061  1.0428
  845MOL0     H16562   8.525   3.513   8.043  0.0426 -1.0024  0.3448
  845MOL0     H16563   8.600   3.354   8.002  0.9757 -0.6818  0.5504
  845MOL0     H16564   8.537   3.399   7.766 -1.5919  0.9114 -1.7072
  845MOL0     H16565   8.460   3.559   7.797  0.5507  0.6480 -0.6267
  845MOL0     H16566   8.686   3.597   7.732  0.5225 -0.5421  0.2442
  845MOL0     H16567   8.694   3.630   7.906  0.6703 -0.8866 -0.3939
  845MOL0     H16568   8.902   3.603   7.637 -1.0401 -0.3808  0.8836
  845MOL0     H16569   9.235   3.628   7.563  3.2750  2.0201  1.7203
  845MOL0     H16570   9.199   3.782   7.642 -0.1085  0.1786 -3.8539
  845MOL0     H16571   9.080   3.694   7.549 -3.6241 -3.2074  2.7967
  845MOL0     H16572   9.526   3.825   7.814  0.5704  1.1919 -1.8766
  845MOL0     H16573   9.770   3.844   7.837  0.2271  0.1904  2.1366
  845MOL0     H16574  10.021   3.446   7.865  2.3518 -1.2101 -1.7394
  845MOL0     H16575  10.004   3.462   7.695  0.2261 -1.9619 -0.0418
  845MOL0     H16576  10.178   3.661   7.719 -2.3898 -0.0408 -0.5219
  845MOL0     H16577  10.194   3.601   7.882 -0.6741 -0.7042  0.9594
  845MOL0     H16578  10.224   3.415   7.664 -1.8333 -0.8574  3.3587
  845MOL0     H16579  10.284   3.409   7.834  1.1096  2.0337  1.7092
  845MOL0     H16580  10.445   3.592   7.789  1.2626  1.9243 -2.8880
  845MOL0     H16581  10.405   3.604   7.622 -0.8892  0.3241 -0.3934
  845MOL0     H16582  10.511   3.362   7.755  3.0643  0.9580 -0.0506
  845MOL0     H16583  10.461   3.371   7.578  0.7942  0.3998 -0.3392
  845MOL0     H16584  10.652   3.534   7.539 -0.5199 -0.6282 -1.4046
  845MOL0     H16585  10.693   3.385   7.592 -2.0352 -1.5834 -0.1830
  845MOL0     H16586  10.687   3.508   7.839 -2.5414 -0.9495 -1.4367
  845MOL0     H16587  10.689   3.656   7.742  0.1886 -0.4861 -0.6288
  845MOL0     H16588  10.906   3.459   7.768  1.5588  2.2359  3.6119
  845MOL0     H16589  10.904   3.631   7.793 -0.6215 -1.1423  1.5505
  845MOL0     H16590   9.792   3.422   7.757  0.1440  0.3579  0.0348
  845MOL0     H16591   9.566   3.409   7.726  2.2130  0.0803  0.1309
  845MOL0     H16592   9.150   3.455   8.038  1.4149 -3.3381 -1.2156
  845MOL0     H16593   8.915   3.430   8.027 -0.7061 -1.4549 -1.1323
  845MOL0     H16594   8.872   3.477   9.233  2.2534  2.5063  0.5985
  845MOL0     H16595   8.936   3.704   9.165 -0.9810 -0.2377  1.3463
  845MOL0     H16596   9.005   4.023   8.988 -0.7756  1.2908 -0.0270
  845MOL0     H16597   9.131   4.242   8.928 -0.0550  1.5593 -0.3675
  845MOL0     H16598   9.038   4.402   8.531  1.3059  1.3368 -0.5873
  845MOL0     H16599   8.965   4.507   8.661 -1.1085 -1.9893  3.4886
  845MOL0     H16600   9.182   4.647   8.681  3.2497  0.3681 -0.9604
  845MOL0     H16601   9.132   4.643   8.513 -0.2765 -1.6064 -0.7446
  845MOL0     H16602   9.317   4.425   8.590 -1.8826 -1.0843 -2.6233
  845MOL0     H16603   9.318   4.512   8.449 -0.8098  4.2369 -0.1552
  845MOL0     H16604   9.522   4.564   8.573  1.0110  1.5680  0.9412
  845MOL0     H16605   9.448   4.614   8.717 -3.6641  1.8297 -0.2292
  845MOL0     H16606   9.446   4.964   8.457  1.5406  2.6706  2.0998
  845MOL0     H16607   8.904   4.262   8.582  2.2680  1.0681 -0.3190
  845MOL0     H16608   8.776   4.106   8.483 -0.7402  0.0647 -0.5681
  845MOL0     H16609   8.837   3.947   8.527 -1.2305 -0.3221  0.9404
  845MOL0     H16610   8.698   4.004   8.614 -0.9784  0.0557 -1.0469
  846MOL0     O16611  10.840  10.444   3.391 -0.0060  0.1469 -1.2775
  846MOL0     C16612  10.760  10.356   3.432  0.2138  0.2155  0.1381
  846MOL0     O16613  10.770  10.274   3.543  0.8812 -0.1923  0.3755
  846MOL0     C16614  10.893  10.286   3.606  0.5822  0.1818  0.1252
  846MOL0     C16615  11.013  10.247   3.544  0.1572 -0.7760  0.7650
  846MOL0     C16616  11.143  10.247   3.608 -0.1932 -0.4761  0.6029
  846MOL0     C16617  11.151  10.285   3.741  0.1060 -0.2133 -0.2526
  846MOL0     O16618  11.273  10.264   3.801  0.6307  0.4335 -0.2984
  846MOL0     C16619  11.306  10.294   3.940  0.5172  0.4559  0.5865
  846MOL0     C16620  11.386  10.170   3.989  0.4746  0.3448 -0.0942
  846MOL0     C16621  11.514  10.140   3.897  0.8746 -0.6723 -0.5695
  846MOL0     C16622  11.597  10.274   3.880 -0.5861 -0.1419 -0.5838
  846MOL0     C16623  11.729  10.268   3.799 -0.3962 -0.4471 -0.7365
  846MOL0     C16624  11.823  10.152   3.828  0.6409  0.7315 -0.2283
  846MOL0     C16625  11.957  10.152   3.753  0.9770  0.5331  1.1101
  846MOL0     C16626  12.032  10.030   3.813  0.4117 -0.9055  0.3038
  846MOL0     N16627  12.087  10.067   3.939  0.2186 -0.7550  0.4116
  846MOL0     C16628  12.202  10.135   3.942  0.4138 -1.0578  0.0529
  846MOL0     C16629  12.222  10.151   4.076  0.7807  0.4104  0.5199
  846MOL0     C16630  12.349  10.207   4.141  0.7755  0.4141 -0.3278
  846MOL0     C16631  12.448  10.097   4.148 -0.7189 -0.1763  0.8707
  846MOL0     C16632  12.566  10.106   4.238 -0.5436  0.0498  0.4794
  846MOL0     C16633  12.544  10.157   4.375 -0.6548 -1.3408 -0.3828
  846MOL0     O16634  12.672  10.173   4.450  0.1030 -0.4721  0.2824
  846MOL0     C16635  12.667  10.201   4.588  0.4139  0.2946 -0.3421
  846MOL0     C16636  12.554  10.206   4.677  0.0735 -0.3146  0.3434
  846MOL0     C16637  12.570  10.232   4.817 -0.7898  0.1406 -0.1427
  846MOL0     C16638  12.443  10.266   4.891 -0.2708  0.4429  0.2209
  846MOL0     C16639  12.702  10.240   4.864 -0.0677  0.1878  0.1344
  846MOL0     C16640  12.731  10.249   5.007  0.7634 -0.0942 -0.2521
  846MOL0     O16641  12.868  10.264   5.042 -0.1869  0.2766 -0.9601
  846MOL0     C16642  12.905  10.285   5.172 -0.6643 -0.1546  0.4813
  846MOL0     C16643  12.980  10.175   5.229  0.1781  0.4220  0.1213
  846MOL0     C16644  13.016  10.176   5.363  0.4263  0.0490 -0.3573
  846MOL0     C16645  12.999  10.293   5.429 -0.6590 -0.0414 -0.6293
  846MOL0     O16646  13.047  10.286   5.563 -0.1224 -0.1523 -1.1355
  846MOL0     C16647  13.155  10.363   5.605 -0.4291 -0.0970 -0.3085
  846MOL0     C16648  13.285  10.283   5.596  0.7662  0.0892  0.2663
  846MOL0     C16649  13.405  10.376   5.625  0.5849 -0.6531 -0.7720
  846MOL0     C16650  13.536  10.325   5.585  0.2323  0.3618  0.1128
  846MOL0     C16651  13.653  10.432   5.614  0.5545  0.1485 -0.7180
  846MOL0     C16652  13.787  10.389   5.562 -0.6765  0.1748  0.5712
  846MOL0     C16653  13.840  10.261   5.637 -0.5141  0.0525 -0.4834
  846MOL0     C16654  13.976  10.225   5.595 -0.0731 -0.5439 -0.4551
  846MOL0    Cl16655  13.967  10.144   5.438 -0.1612 -0.1218 -0.3654
  846MOL0     C16656  12.940  10.408   5.368  0.2745 -0.8080 -0.7302
  846MOL0     C16657  12.882  10.404   5.246  0.5001 -0.8913  1.0454
  846MOL0     O16658  12.642  10.238   5.093 -0.0586  0.1126 -0.3505
  846MOL0     C16659  12.807  10.227   4.771  0.6552  0.6842 -0.3851
  846MOL0     C16660  12.798  10.211   4.634 -0.0374  0.2605  0.2955
  846MOL0     N16661  12.123  10.082   4.141 -0.4428 -0.5910  0.9001
  846MOL0     N16662  12.049  10.021   4.060 -0.0425 -0.6849 -0.0861
  846MOL0     C16663  11.028  10.340   3.801  0.3641  0.3562 -0.6689
  846MOL0     C16664  10.903  10.331   3.734 -0.5969 -0.8163 -0.5013
  846MOL0     C16665  10.631  10.335   3.345  0.8240  0.5821  0.0190
  846MOL0     C16666  10.538  10.232   3.386 -0.1992  0.0579  0.0075
  846MOL0     C16667  10.430  10.194   3.308  1.1689 -1.4553  0.4160
  846MOL0     C16668  10.396  10.278   3.200  0.2286  0.3716 -0.7993
  846MOL0     O16669  10.286  10.249   3.122  0.6217 -0.1092 -0.1741
  846MOL0     C16670  10.183  10.157   3.158 -0.6025 -0.1205  1.0137
  846MOL0     C16671  10.095  10.237   3.253  0.0797 -0.2380  0.1683
  846MOL0     C16672  10.019  10.359   3.195 -0.7110 -0.0751  0.4144
  846MOL0     C16673   9.927  10.435   3.295  0.2207 -0.1657  0.6659
  846MOL0     C16674   9.837  10.521   3.223  0.6940  0.3424  0.0408
  846MOL0     C16675   9.764  10.595   3.164 -0.1993  0.5383 -0.5673
  846MOL0     C16676  10.471  10.388   3.162 -1.2581 -0.2434  0.4242
  846MOL0     C16677  10.594  10.413   3.233 -0.0666 -0.6525  1.0431
  846MOL0     C16678  10.673  10.529   3.179  0.3396 -0.7485  0.4359
  846MOL0     H16679  11.018  10.191   3.451  1.3590  0.7272 -0.1223
  846MOL0     H16680  11.215  10.181   3.561  0.8077 -1.1587  2.9441
  846MOL0     H16681  11.210  10.307   3.990 -0.1130  3.6506 -1.1557
  846MOL0     H16682  11.357  10.390   3.949  1.4909 -0.2260  2.9375
  846MOL0     H16683  11.432  10.192   4.086 -0.3328 -1.1476  0.6704
  846MOL0     H16684  11.320  10.082   3.992  2.3846 -1.4513 -3.9139
  846MOL0     H16685  11.579  10.064   3.942  3.5778  1.9973  0.3381
  846MOL0     H16686  11.498  10.099   3.796  2.7703  0.0673 -1.2174
  846MOL0     H16687  11.531  10.348   3.834 -2.5598 -1.0808  0.6405
  846MOL0     H16688  11.619  10.310   3.981  3.5224 -1.3291 -0.8393
  846MOL0     H16689  11.778  10.366   3.796 -1.1446 -0.0970 -2.7733
  846MOL0     H16690  11.705  10.267   3.692 -1.0466  3.0147 -0.7323
  846MOL0     H16691  11.849  10.157   3.934  0.4029  3.4215 -0.2384
  846MOL0     H16692  11.773  10.057   3.808  0.5570 -1.1668  6.4486
  846MOL0     H16693  12.009  10.247   3.759 -1.4519  2.2393 -1.5798
  846MOL0     H16694  11.940  10.113   3.651 -1.1478 -5.3147  3.2384
  846MOL0     H16695  11.971   9.939   3.809  1.4215 -1.6824  1.8004
  846MOL0     H16696  12.117  10.012   3.746  1.3705 -2.3410  1.8263
  846MOL0     H16697  12.263  10.190   3.870  1.0443 -2.2348 -0.3329
  846MOL0     H16698  12.321  10.248   4.239  2.7635 -0.7100  0.8029
  846MOL0     H16699  12.375  10.294   4.081  1.3652 -0.8432 -1.9541
  846MOL0     H16700  12.397  10.003   4.169  2.2923 -2.3858 -0.8752
  846MOL0     H16701  12.481  10.068   4.047  1.2350  0.0798  1.3983
  846MOL0     H16702  12.608  10.005   4.250  0.4839  0.1688 -1.6432
  846MOL0     H16703  12.653  10.155   4.192 -0.6664 -1.6612 -1.7220
  846MOL0     H16704  12.490  10.251   4.362 -0.8118 -1.3780 -0.0224
  846MOL0     H16705  12.474  10.088   4.425 -1.8260 -1.2571 -1.8252
  846MOL0     H16706  12.456  10.208   4.630 -0.1774  0.9102  0.8844
  846MOL0     H16707  12.426  10.200   4.977  1.4041  0.8238  0.8838
  846MOL0     H16708  12.354  10.289   4.832 -1.2221 -2.0659  0.5468
  846MOL0     H16709  12.461  10.359   4.945  5.1726 -0.1604  0.0299
  846MOL0     H16710  12.999  10.091   5.162 -1.0826  0.4268 -0.2542
  846MOL0     H16711  13.064  10.091   5.412  2.7251  1.4870  0.0606
  846MOL0     H16712  13.169  10.452   5.542 -2.2167  0.6667  0.3298
  846MOL0     H16713  13.147  10.395   5.709  1.8821  0.1299 -0.1417
  846MOL0     H16714  13.285  10.198   5.665  0.2088 -1.2984 -1.3664
  846MOL0     H16715  13.289  10.241   5.496 -1.2404  1.5217 -0.5025
  846MOL0     H16716  13.409  10.386   5.734 -0.2645  0.3975 -0.8188
  846MOL0     H16717  13.398  10.479   5.587  0.4896 -0.6940 -0.8665
  846MOL0     H16718  13.531  10.298   5.479  0.8953 -0.3592  0.2633
  846MOL0     H16719  13.556  10.231   5.637  0.4556 -0.0328 -0.6809
  846MOL0     H16720  13.633  10.523   5.556  0.5471  0.1567 -0.7018
  846MOL0     H16721  13.651  10.447   5.722  0.6512 -2.3692 -0.2949
  846MOL0     H16722  13.854  10.473   5.586 -1.2800  1.8831 -3.1129
  846MOL0     H16723  13.790  10.365   5.456 -0.4491 -2.8960  1.1673
  846MOL0     H16724  13.764  10.183   5.625 -2.7262  1.9252  0.6294
  846MOL0     H16725  13.839  10.280   5.744  0.1723  0.7014 -0.5801
  846MOL0     H16726  14.031  10.161   5.664 -0.2634  1.9779  2.2724
  846MOL0     H16727  14.034  10.318   5.590 -1.8311  0.7576  1.4076
  846MOL0     H16728  12.932  10.496   5.431 -3.1397 -1.4812 -0.0150
  846MOL0     H16729  12.829  10.494   5.221  2.4076  0.5375  1.8597
  846MOL0     H16730  12.910  10.222   4.807 -0.1476 -4.3931  2.0699
  846MOL0     H16731  12.884  10.194   4.569 -0.4159  1.3508 -0.5088
  846MOL0     H16732  11.032  10.387   3.899 -0.5079  0.5973 -0.7442
  846MOL0     H16733  10.814  10.367   3.784 -0.1249  1.1403 -0.9831
  846MOL0     H16734  10.561  10.168   3.471 -0.4119 -1.5782 -1.1286
  846MOL0     H16735  10.371  10.115   3.353 -1.2312 -0.3385 -0.6393
  846MOL0     H16736  10.128  10.123   3.069  1.8181  0.0770 -0.6426
  846MOL0     H16737  10.229  10.063   3.192 -1.1142 -0.3219  1.1604
  846MOL0     H16738  10.157  10.283   3.330 -1.7387  3.5479 -0.4138
  846MOL0     H16739  10.030  10.163   3.300  0.0811  0.0887  0.6940
  846MOL0     H16740  10.087  10.426   3.143  1.6289 -2.4200  0.2150
  846MOL0     H16741   9.963  10.319   3.110  1.9348  3.2307 -3.1944
  846MOL0     H16742   9.982  10.504   3.361  2.3336  0.3861 -1.5277
  846MOL0     H16743   9.868  10.356   3.343  1.7988 -1.4434  0.6169
  846MOL0     H16744   9.697  10.661   3.113 -2.3918 -0.5610  0.7591
  846MOL0     H16745  10.444  10.441   3.071 -0.6328 -1.7661 -0.7017
  846MOL0     H16746  10.669  10.609   3.254 -0.5211 -0.8384  0.4968
  846MOL0     H16747  10.777  10.502   3.159  0.1983 -0.8756 -0.1524
  846MOL0     H16748  10.630  10.569   3.086  1.2181 -1.4440 -0.2931
  847MOL0     O16749   3.997   0.986   1.832  0.6243 -0.2820 -0.1566
  847MOL0     C16750   4.052   1.092   1.870 -0.8455 -0.6149  0.2232
  847MOL0     O16751   3.972   1.206   1.907 -0.2302  0.4080 -0.0378
  847MOL0     C16752   3.837   1.189   1.915  0.1385 -0.2092 -0.5015
  847MOL0     C16753   3.762   1.197   1.798 -0.6373  0.1839  0.7911
  847MOL0     C16754   3.626   1.167   1.794 -0.8102 -0.4262 -0.3452
  847MOL0     C16755   3.553   1.151   1.918 -0.6982  0.3081  0.1754
  847MOL0     O16756   3.407   1.150   1.935 -0.3456  0.3795  0.6119
  847MOL0     C16757   3.336   1.115   1.821 -0.4310  0.7723  0.0595
  847MOL0     C16758   3.203   1.067   1.866 -0.2259  0.9880  0.0301
  847MOL0     C16759   3.121   1.006   1.749 -0.0116 -1.1339 -0.5967
  847MOL0     C16760   3.064   1.128   1.654 -0.5326 -0.0923  0.2151
  847MOL0     C16761   2.973   1.056   1.544 -1.0807  1.7646  0.3452
  847MOL0     C16762   2.868   1.154   1.485 -0.1058 -0.1358  0.6762
  847MOL0     C16763   2.823   1.107   1.342 -0.4784 -0.1439  0.3555
  847MOL0     C16764   2.750   1.212   1.259  0.2217 -0.1619 -0.3830
  847MOL0     N16765   2.826   1.336   1.225 -0.4372  0.1887 -0.4888
  847MOL0     C16766   2.930   1.344   1.137 -0.3195 -0.5641 -0.0543
  847MOL0     C16767   2.998   1.454   1.178  0.0431 -0.1552 -0.9988
  847MOL0     C16768   3.128   1.507   1.117  0.3000  0.5596  0.3466
  847MOL0     C16769   3.233   1.533   1.232 -0.0410  0.1558 -0.1894
  847MOL0     C16770   3.220   1.670   1.294  0.3751  0.1787 -0.4724
  847MOL0     C16771   3.329   1.704   1.396  0.7290 -0.8000  0.2710
  847MOL0     O16772   3.456   1.692   1.343  0.0538 -0.6412 -0.6487
  847MOL0     C16773   3.529   1.808   1.315  0.1720 -0.1624  0.2473
  847MOL0     C16774   3.664   1.790   1.293 -0.5759  0.2952  0.9688
  847MOL0     C16775   3.762   1.894   1.302 -0.4205 -0.6692 -0.1202
  847MOL0     C16776   3.903   1.853   1.286 -0.7769 -0.0521 -0.8138
  847MOL0     C16777   3.716   2.027   1.316  0.5647 -0.0219 -0.3197
  847MOL0     C16778   3.800   2.146   1.286  0.1277 -0.5148 -0.1051
  847MOL0     O16779   3.761   2.248   1.354  0.3964 -0.3844  0.5253
  847MOL0     C16780   3.830   2.364   1.352  0.0927 -0.2341  0.9624
  847MOL0     C16781   3.965   2.380   1.344  0.0712  0.0042  0.1371
  847MOL0     C16782   4.018   2.511   1.341  0.1355 -0.0333  0.7490
  847MOL0     C16783   3.935   2.625   1.353  0.1999 -0.1718 -0.0320
  847MOL0     O16784   3.989   2.745   1.371  0.0869  0.2252 -0.2206
  847MOL0     C16785   3.958   2.839   1.269  0.1753  0.0492 -0.0490
  847MOL0     C16786   4.079   2.929   1.221  0.8221  0.2953 -0.2284
  847MOL0     C16787   4.055   3.077   1.242  1.1168 -0.6243  0.2183
  847MOL0     C16788   4.062   3.114   1.386 -0.3236 -0.5345  0.5947
  847MOL0     C16789   4.001   3.256   1.421  0.2134  0.5010  0.3960
  847MOL0     C16790   3.849   3.248   1.425 -1.1546 -1.0444  0.2823
  847MOL0     C16791   3.787   3.169   1.543  0.0279 -0.9407  0.0383
  847MOL0     C16792   3.635   3.166   1.543 -0.3942 -0.5315 -0.2832
  847MOL0    Cl16793   3.581   3.009   1.463 -0.2754 -0.1866  0.7674
  847MOL0     C16794   3.799   2.607   1.345  0.0136  0.6708  0.7244
  847MOL0     C16795   3.748   2.481   1.342 -0.3034 -0.0116  0.0565
  847MOL0     O16796   3.883   2.148   1.195  0.6218 -0.4588 -0.5862
  847MOL0     C16797   3.576   2.047   1.344 -0.1773 -0.5838  0.2218
  847MOL0     C16798   3.487   1.944   1.340  0.2604  0.4672  1.1113
  847MOL0     N16799   2.919   1.523   1.268 -0.3264  0.8758 -1.1220
  847MOL0     N16800   2.811   1.456   1.294  0.4970 -0.1913  0.4923
  847MOL0     C16801   3.629   1.141   2.030 -0.7209  0.2518  0.0470
  847MOL0     C16802   3.767   1.157   2.033  1.1733 -0.3426  0.7162
  847MOL0     C16803   4.209   1.098   1.881  0.5728  0.4324 -0.1413
  847MOL0     C16804   4.277   0.976   1.868 -0.1667  0.0376 -0.0582
  847MOL0     C16805   4.414   0.967   1.895  0.1572  0.6038 -1.0463
  847MOL0     C16806   4.487   1.087   1.926 -0.5248  0.3825  0.5264
  847MOL0     O16807   4.620   1.070   1.944 -0.8278 -0.5204 -0.3288
  847MOL0     C16808   4.699   1.194   1.976  0.5718  1.2967  0.2381
  847MOL0     C16809   4.851   1.166   1.970 -0.6973 -0.0020 -0.1993
  847MOL0     C16810   4.883   1.036   2.046 -0.2381  0.9796  0.1696
  847MOL0     C16811   5.030   1.021   2.055 -0.3404  0.1269  0.7986
  847MOL0     C16812   5.077   0.993   1.919 -0.9095  0.2049 -0.8464
  847MOL0     C16813   5.121   0.983   1.806 -0.4167  0.1957 -0.2030
  847MOL0     C16814   4.422   1.207   1.930  0.7697 -0.7300  1.7768
  847MOL0     C16815   4.283   1.212   1.916 -0.5693  0.8973 -0.6198
  847MOL0     C16816   4.219   1.346   1.950 -0.9794 -0.5394  0.3238
  847MOL0     H16817   3.802   1.218   1.700 -0.3615 -0.5961  0.7307
  847MOL0     H16818   3.569   1.165   1.701 -1.8802 -2.1025  0.2886
  847MOL0     H16819   3.389   1.031   1.775 -0.9849 -1.0312  2.5237
  847MOL0     H16820   3.324   1.196   1.748  2.0522  3.1189  2.0561
  847MOL0     H16821   3.215   1.000   1.951  0.0398  0.0411 -0.7360
  847MOL0     H16822   3.136   1.145   1.902 -1.4296  0.7721 -1.6232
  847MOL0     H16823   3.182   0.931   1.697  0.6587 -0.3926 -0.8953
  847MOL0     H16824   3.033   0.955   1.790 -1.9541  4.2239  2.8717
  847MOL0     H16825   3.002   1.203   1.704 -1.1962  0.9583 -2.0394
  847MOL0     H16826   3.136   1.185   1.595  1.6215 -0.1115  2.6596
  847MOL0     H16827   2.913   0.977   1.590  0.8547  0.1769  0.2849
  847MOL0     H16828   3.036   1.012   1.466 -1.4371  1.8495  0.0065
  847MOL0     H16829   2.789   1.175   1.557  0.7209  2.1281  0.9940
  847MOL0     H16830   2.923   1.246   1.468 -1.1167 -0.1274 -3.8951
  847MOL0     H16831   2.762   1.017   1.349  0.0590 -0.4324  1.5778
  847MOL0     H16832   2.909   1.088   1.277 -0.1449  2.6557 -0.1235
  847MOL0     H16833   2.723   1.161   1.166 -2.0068 -3.4641  1.8429
  847MOL0     H16834   2.653   1.230   1.305  0.8184 -1.7346  1.6616
  847MOL0     H16835   2.958   1.271   1.061 -0.7420  0.8721 -1.6692
  847MOL0     H16836   3.117   1.595   1.053 -0.7025  0.1609 -0.0425
  847MOL0     H16837   3.173   1.431   1.054  0.6561 -1.1955  2.5895
  847MOL0     H16838   3.210   1.463   1.313 -0.6757  0.5882  0.0138
  847MOL0     H16839   3.333   1.526   1.188  1.2777  0.5846  2.5269
  847MOL0     H16840   3.218   1.746   1.215 -0.7866  0.9951  0.3065
  847MOL0     H16841   3.125   1.676   1.348  1.2641  3.8915  1.0591
  847MOL0     H16842   3.294   1.797   1.442  1.8183  0.2075 -0.8650
  847MOL0     H16843   3.321   1.631   1.477 -1.9501 -0.2357  0.6000
  847MOL0     H16844   3.698   1.688   1.279 -1.0643  0.3773 -1.2802
  847MOL0     H16845   3.964   1.872   1.375 -2.2220 -0.5700  0.3335
  847MOL0     H16846   3.956   1.902   1.204 -0.5901 -3.1415 -2.6929
  847MOL0     H16847   3.911   1.745   1.271  0.0786  0.2058 -2.4596
  847MOL0     H16848   4.034   2.296   1.346  1.1415  0.8261  2.3124
  847MOL0     H16849   4.126   2.518   1.343  0.1519  1.8119 -1.8910
  847MOL0     H16850   3.924   2.815   1.168  0.5272  5.0606 -1.6898
  847MOL0     H16851   3.891   2.908   1.320 -0.4796 -0.0193 -0.7992
  847MOL0     H16852   4.165   2.905   1.283  0.2459 -0.1997  0.4024
  847MOL0     H16853   4.097   2.916   1.114 -1.5744  1.1335 -0.8156
  847MOL0     H16854   3.951   3.099   1.218 -0.0220 -0.1440  4.6700
  847MOL0     H16855   4.112   3.145   1.179 -0.7282  1.5909  0.8208
  847MOL0     H16856   4.168   3.115   1.415 -0.1449  0.5147 -0.0464
  847MOL0     H16857   4.013   3.040   1.451 -0.1879  0.0166  1.3421
  847MOL0     H16858   4.042   3.298   1.513  0.3432  3.6550 -0.9502
  847MOL0     H16859   4.034   3.319   1.337  0.2183 -0.0844 -0.0480
  847MOL0     H16860   3.812   3.206   1.331  0.6750  0.8248 -1.3983
  847MOL0     H16861   3.825   3.354   1.437 -0.6431 -1.1263  2.5389
  847MOL0     H16862   3.817   3.225   1.631 -1.8681 -0.5345  0.4584
  847MOL0     H16863   3.833   3.071   1.558 -0.2480 -1.4637 -2.1094
  847MOL0     H16864   3.582   3.246   1.491  0.5394  0.1023 -0.2800
  847MOL0     H16865   3.593   3.169   1.644 -3.9309  0.1457 -1.6499
  847MOL0     H16866   3.725   2.686   1.343 -2.3840 -1.4254 -1.3788
  847MOL0     H16867   3.642   2.461   1.337 -0.8887  2.8133 -0.8657
  847MOL0     H16868   3.533   2.144   1.365  3.2189  1.1071  0.0307
  847MOL0     H16869   3.380   1.960   1.351 -0.1368 -1.6649  0.7007
  847MOL0     H16870   3.574   1.130   2.123 -0.8371 -1.5426 -0.2011
  847MOL0     H16871   3.818   1.157   2.128  2.2343  2.1353  0.2385
  847MOL0     H16872   4.218   0.891   1.837 -0.8444  0.0025  1.2652
  847MOL0     H16873   4.456   0.867   1.893 -0.5071  0.3270 -1.8593
  847MOL0     H16874   4.681   1.269   1.899 -0.0347  1.0555  0.1413
  847MOL0     H16875   4.667   1.232   2.073 -0.3351  0.4619  0.2846
  847MOL0     H16876   4.915   1.252   1.988 -0.8210  0.0104  0.1893
  847MOL0     H16877   4.874   1.148   1.865 -0.9264 -0.9585 -0.0990
  847MOL0     H16878   4.838   1.034   2.146  1.0452  2.0297  0.8001
  847MOL0     H16879   4.846   0.947   1.994  4.9516 -1.8972  0.7230
  847MOL0     H16880   5.061   0.939   2.121  0.5001  0.2488  0.5623
  847MOL0     H16881   5.067   1.114   2.100  1.2773 -0.0738 -0.0434
  847MOL0     H16882   5.156   0.991   1.705 -0.4625  1.9879 -0.0959
  847MOL0     H16883   4.471   1.297   1.966 -1.0589  0.3554  1.7035
  847MOL0     H16884   4.129   1.334   2.012 -0.4836  1.1228  1.4166
  847MOL0     H16885   4.281   1.393   2.027 -1.0185 -2.6320  1.7219
  847MOL0     H16886   4.192   1.408   1.864  2.2828  0.1892 -0.3057
  848MOL0     O16887   0.404   8.133   0.526  0.3056  0.0223  0.5550
  848MOL0     C16888   0.375   8.186   0.636 -0.5508  0.5729 -0.5470
  848MOL0     O16889   0.420   8.311   0.680 -1.0419  0.2452 -0.3717
  848MOL0     C16890   0.526   8.349   0.598 -0.5467 -0.0114  1.0858
  848MOL0     C16891   0.505   8.435   0.493  0.2226 -0.5898  0.2873
  848MOL0     C16892   0.614   8.481   0.417 -1.3473  0.1610  0.2513
  848MOL0     C16893   0.748   8.428   0.444 -0.0658 -0.6243 -0.4652
  848MOL0     O16894   0.858   8.457   0.369 -0.6020  0.1517 -0.5737
  848MOL0     C16895   0.848   8.497   0.235 -0.4121  0.3479  0.0962
  848MOL0     C16896   0.986   8.496   0.162  0.5007  0.7067 -0.3739
  848MOL0     C16897   1.090   8.596   0.221 -1.2740  0.0583 -0.1982
  848MOL0     C16898   1.048   8.730   0.255  0.7342 -0.3608 -0.8798
  848MOL0     C16899   1.166   8.826   0.297  0.6764  0.5903  0.5384
  848MOL0     C16900   1.209   8.802   0.443  0.6325  0.3593  0.8526
  848MOL0     C16901   1.340   8.873   0.478  0.3177 -0.5435  0.2831
  848MOL0     C16902   1.449   8.804   0.405 -0.1870 -0.0516 -0.0643
  848MOL0     N16903   1.582   8.861   0.445  0.4863 -0.7976  1.4769
  848MOL0     C16904   1.613   8.996   0.428  0.2341 -0.2492  0.5557
  848MOL0     C16905   1.734   9.001   0.486 -0.2033 -0.4285  0.0109
  848MOL0     C16906   1.821   9.119   0.489 -0.6216  0.1437 -0.5248
  848MOL0     C16907   1.947   9.091   0.406 -0.7112  0.3917  0.1589
  848MOL0     C16908   2.071   9.162   0.460  0.4274  1.0562 -0.2176
  848MOL0     C16909   2.205   9.126   0.389  0.2824  0.5961 -0.1017
  848MOL0     O16910   2.189   9.044   0.271  0.0850  0.4445 -0.4084
  848MOL0     C16911   2.303   9.023   0.197 -0.7054 -0.6780  0.4279
  848MOL0     C16912   2.427   9.055   0.231  0.8133 -1.5736  0.0755
  848MOL0     C16913   2.539   9.039   0.146 -0.4627  0.1328  0.9199
  848MOL0     C16914   2.676   9.067   0.205 -0.4229  0.8133 -0.5477
  848MOL0     C16915   2.523   8.979   0.021 -0.0343 -0.1005  1.1968
  848MOL0     C16916   2.634   8.935  -0.069 -0.0478 -0.3459  0.5221
  848MOL0     O16917   2.598   8.911  -0.197  0.6336 -0.1790  0.4390
  848MOL0     C16918   2.660   8.838  -0.288  0.2090  0.9205 -0.5614
  848MOL0     C16919   2.780   8.770  -0.276  0.4391  0.7150  0.7565
  848MOL0     C16920   2.839   8.697  -0.381  0.7609  0.2005 -0.0779
  848MOL0     C16921   2.778   8.696  -0.508 -0.2291  0.3260 -0.5551
  848MOL0     O16922   2.822   8.623  -0.615 -0.1379 -0.0851 -0.4437
  848MOL0     C16923   2.955   8.569  -0.626  0.6237 -0.0063 -0.0393
  848MOL0     C16924   2.985   8.484  -0.752 -0.1995  0.4612  0.7495
  848MOL0     C16925   3.051   8.560  -0.873  0.1505 -0.4115 -1.0524
  848MOL0     C16926   2.994   8.711  -0.902  0.1173  0.2064 -0.4397
  848MOL0     C16927   2.847   8.709  -0.941 -0.3961  0.1617  0.1499
  848MOL0     C16928   2.786   8.846  -0.944 -0.0584  0.6171 -0.4228
  848MOL0     C16929   2.855   8.929  -1.050  0.8983 -0.0389  0.5603
  848MOL0     C16930   2.755   9.037  -1.089 -0.5954  0.5861  0.4169
  848MOL0    Cl16931   2.735   9.180  -0.978  0.2750 -0.1949  0.0632
  848MOL0     C16932   2.649   8.742  -0.512  0.9361  0.0177  0.2082
  848MOL0     C16933   2.590   8.820  -0.405 -0.5547  0.3589  0.2637
  848MOL0     O16934   2.747   8.911  -0.026 -0.5858  0.3850 -0.0477
  848MOL0     C16935   2.394   8.950  -0.018 -0.1419 -0.7773 -0.2120
  848MOL0     C16936   2.284   8.977   0.063  0.2669 -1.3314 -0.0046
  848MOL0     N16937   1.778   8.878   0.533 -0.0021 -0.1668  0.0505
  848MOL0     N16938   1.686   8.793   0.508 -0.1855  0.6111  0.3491
  848MOL0     C16939   0.766   8.334   0.546  0.1476 -0.4078  0.4984
  848MOL0     C16940   0.650   8.295   0.621 -0.1742 -1.1437  0.0607
  848MOL0     C16941   0.274   8.118   0.729 -0.3135 -0.6379  0.7899
  848MOL0     C16942   0.259   7.978   0.716 -0.4275 -0.3418 -0.2124
  848MOL0     C16943   0.159   7.908   0.787 -0.3272 -0.6209  0.3489
  848MOL0     C16944   0.078   7.982   0.878 -0.4690 -0.1364  0.9042
  848MOL0     O16945  -0.016   7.908   0.944 -0.3116 -0.1182 -0.7813
  848MOL0     C16946  -0.084   7.975   1.052 -0.6458  0.3007 -0.5155
  848MOL0     C16947  -0.187   7.871   1.094 -0.0693 -0.0801 -0.0986
  848MOL0     C16948  -0.283   7.857   0.964  0.3722  0.7218  0.4916
  848MOL0     C16949  -0.408   7.765   0.987 -0.4054 -0.8394  0.4770
  848MOL0     C16950  -0.378   7.654   1.081  0.7114 -0.7018 -0.5603
  848MOL0     C16951  -0.361   7.569   1.161  1.3850  0.7264 -0.1764
  848MOL0     C16952   0.096   8.120   0.893  0.4300  0.0450 -0.2968
  848MOL0     C16953   0.184   8.184   0.819  0.7876  0.2116 -0.2809
  848MOL0     C16954   0.201   8.333   0.844 -0.8597  0.3154  0.8054
  848MOL0     H16955   0.406   8.475   0.477 -0.5753 -2.3894  0.5384
  848MOL0     H16956   0.596   8.548   0.334 -0.1526 -1.6159 -1.5433
  848MOL0     H16957   0.800   8.596   0.238 -1.3252 -0.0456 -1.1051
  848MOL0     H16958   0.785   8.428   0.179 -0.1819  0.8396 -0.7779
  848MOL0     H16959   1.039   8.400   0.162  2.1645  1.5387  2.0795
  848MOL0     H16960   0.970   8.526   0.058  0.4809  2.7790  0.1742
  848MOL0     H16961   1.115   8.554   0.319 -1.6704  0.0666 -0.0941
  848MOL0     H16962   1.177   8.598   0.154 -0.0698  3.5444  1.2401
  848MOL0     H16963   0.985   8.775   0.178 -0.1813  0.8158  0.4898
  848MOL0     H16964   0.986   8.727   0.345  3.0637 -0.1639  0.8273
  848MOL0     H16965   1.146   8.932   0.281 -0.2562  0.2291 -0.9504
  848MOL0     H16966   1.242   8.793   0.225  2.1948  1.6741  1.5954
  848MOL0     H16967   1.137   8.833   0.519  2.1141  2.1304  1.6058
  848MOL0     H16968   1.216   8.693   0.445 -0.0004  0.1770 -1.9877
  848MOL0     H16969   1.360   8.874   0.586 -1.3354  3.6881  0.7412
  848MOL0     H16970   1.342   8.978   0.448  2.4844 -0.2094  1.3881
  848MOL0     H16971   1.435   8.698   0.428 -0.1658 -0.4403 -1.7266
  848MOL0     H16972   1.446   8.804   0.296  0.4672 -1.7829 -0.1164
  848MOL0     H16973   1.550   9.078   0.395  1.6408  1.7902  2.5691
  848MOL0     H16974   1.836   9.143   0.595  1.2166 -2.1073 -0.1844
  848MOL0     H16975   1.775   9.197   0.429  1.8536  0.2007 -2.5507
  848MOL0     H16976   1.966   8.984   0.418 -0.0642  0.6296  1.2848
  848MOL0     H16977   1.933   9.110   0.299 -1.1250 -0.6188  0.0148
  848MOL0     H16978   2.055   9.270   0.451 -2.1721  0.8278  0.6148
  848MOL0     H16979   2.077   9.142   0.567  1.1700  1.1603 -0.2362
  848MOL0     H16980   2.260   9.216   0.362 -0.2151  0.9133 -0.0621
  848MOL0     H16981   2.270   9.073   0.460  3.0388  0.5857 -2.4587
  848MOL0     H16982   2.454   9.104   0.324 -0.4294 -1.6671  0.5104
  848MOL0     H16983   2.667   9.143   0.283  2.1093  1.2273 -0.5501
  848MOL0     H16984   2.745   9.107   0.130 -0.2365  2.4700  0.4454
  848MOL0     H16985   2.718   8.978   0.252 -1.2295 -0.2762 -1.8464
  848MOL0     H16986   2.833   8.757  -0.182 -0.5616 -0.0658  1.2411
  848MOL0     H16987   2.939   8.659  -0.366  0.6444  0.0703  0.4031
  848MOL0     H16988   3.030   8.648  -0.621  2.0847 -1.3123 -0.1858
  848MOL0     H16989   2.959   8.503  -0.539 -1.4128  1.7445  1.4696
  848MOL0     H16990   3.062   8.411  -0.726 -0.0714  0.8824  1.5837
  848MOL0     H16991   2.897   8.427  -0.782 -1.0055  1.7923  0.5279
  848MOL0     H16992   3.058   8.500  -0.964  3.5986 -2.8858  0.6152
  848MOL0     H16993   3.156   8.571  -0.844 -0.4001 -1.6902  1.8685
  848MOL0     H16994   3.061   8.758  -0.974  1.9753 -0.1164  0.9820
  848MOL0     H16995   3.006   8.775  -0.814 -0.3517 -0.0142 -0.2079
  848MOL0     H16996   2.834   8.654  -1.035  0.4987 -1.0997  0.7465
  848MOL0     H16997   2.778   8.653  -0.877 -0.8826 -0.2667 -0.7211
  848MOL0     H16998   2.801   8.889  -0.845 -0.4243  1.7215 -0.8305
  848MOL0     H16999   2.680   8.828  -0.964 -0.6432 -3.0580  4.2655
  848MOL0     H17000   2.851   8.866  -1.139 -1.2880 -0.8358  1.1581
  848MOL0     H17001   2.954   8.963  -1.018  0.5152  0.4481  1.2552
  848MOL0     H17002   2.655   9.003  -1.118 -0.4948 -2.2215  2.9150
  848MOL0     H17003   2.797   9.085  -1.178  0.9880  1.3473  1.5328
  848MOL0     H17004   2.592   8.726  -0.603  1.2929  1.5788 -0.3295
  848MOL0     H17005   2.495   8.871  -0.416 -0.8429 -0.3654 -0.6437
  848MOL0     H17006   2.369   8.923  -0.120  1.3837  0.8571 -1.0823
  848MOL0     H17007   2.181   8.970   0.030  0.1930  2.1234 -0.8555
  848MOL0     H17008   0.869   8.316   0.575  1.3415  3.4588 -0.7715
  848MOL0     H17009   0.662   8.228   0.705  0.0083 -0.9585  0.1833
  848MOL0     H17010   0.311   7.922   0.639 -1.3727  1.2748 -2.0958
  848MOL0     H17011   0.146   7.801   0.773  0.7596 -0.7663  0.3383
  848MOL0     H17012  -0.011   7.999   1.130 -0.5555  1.2913 -0.8971
  848MOL0     H17013  -0.133   8.068   1.022 -0.9844 -0.0525 -1.0837
  848MOL0     H17014  -0.251   7.892   1.180  0.0810 -0.7357  0.1797
  848MOL0     H17015  -0.148   7.775   1.130 -0.9701 -0.2285  0.5214
  848MOL0     H17016  -0.320   7.954   0.930  0.5309 -0.5543 -3.9444
  848MOL0     H17017  -0.228   7.825   0.875 -1.2564 -0.2066 -0.2206
  848MOL0     H17018  -0.440   7.733   0.888 -1.6117  0.2612  0.4855
  848MOL0     H17019  -0.486   7.821   1.039 -2.4962 -2.1564 -1.0699
  848MOL0     H17020  -0.333   7.502   1.240  0.9460  0.4287 -0.2702
  848MOL0     H17021   0.040   8.179   0.965  2.3085 -1.7241  2.8318
  848MOL0     H17022   0.301   8.343   0.888 -0.3698  2.4000 -0.6469
  848MOL0     H17023   0.201   8.388   0.750  1.6077 -3.3723 -1.6646
  848MOL0     H17024   0.121   8.376   0.903 -1.2496  3.3567 -1.7160
  849MOL0     O17025   2.602   5.910   0.633  0.1498 -0.1534 -0.4703
  849MOL0     C17026   2.626   5.916   0.509  0.3505 -0.3718  0.1789
  849MOL0     O17027   2.529   5.922   0.409  0.3880 -0.0703  0.4695
  849MOL0     C17028   2.404   5.890   0.448  0.3611  1.3665  0.6187
  849MOL0     C17029   2.384   5.764   0.496  0.8090  0.2326 -0.4328
  849MOL0     C17030   2.257   5.717   0.524 -0.4609  0.0305  1.2077
  849MOL0     C17031   2.146   5.801   0.496 -0.0613  0.5600  0.1717
  849MOL0     O17032   2.022   5.757   0.535 -0.1221 -0.2896 -0.2411
  849MOL0     C17033   1.914   5.842   0.500  0.6980  0.0900 -0.1050
  849MOL0     C17034   1.780   5.781   0.554 -0.0654 -0.1500  0.4990
  849MOL0     C17035   1.775   5.806   0.707  0.5091 -0.2219 -0.5321
  849MOL0     C17036   1.636   5.799   0.770 -0.4511  0.0175  0.6512
  849MOL0     C17037   1.547   5.913   0.722  0.3729  0.3313  0.3374
  849MOL0     C17038   1.420   5.928   0.809  0.0126 -0.1239 -1.0296
  849MOL0     C17039   1.355   6.062   0.774 -0.3367 -0.3592 -0.5033
  849MOL0     C17040   1.231   6.078   0.862 -0.5423 -0.2797 -0.2432
  849MOL0     N17041   1.266   6.097   1.002 -0.6097  0.1401 -0.9521
  849MOL0     C17042   1.321   6.015   1.091 -0.0286 -0.9907  0.0680
  849MOL0     C17043   1.328   6.073   1.214 -0.4658 -1.3253 -1.4238
  849MOL0     C17044   1.382   6.013   1.340 -0.1970 -0.5979 -0.1504
  849MOL0     C17045   1.289   5.926   1.427  0.2831  0.4364  0.7205
  849MOL0     C17046   1.352   5.817   1.502  0.5868  0.6754  0.3623
  849MOL0     C17047   1.425   5.721   1.417  0.6177 -0.2550 -0.6364
  849MOL0     O17048   1.355   5.702   1.294 -0.3777  0.3885 -0.5046
  849MOL0     C17049   1.433   5.641   1.196 -0.4255  0.4147 -0.1205
  849MOL0     C17050   1.379   5.618   1.068  0.6327 -1.2224  0.0495
  849MOL0     C17051   1.432   5.546   0.969 -0.1834  0.4023 -0.4705
  849MOL0     C17052   1.338   5.514   0.850 -0.6408  0.4000 -0.1144
  849MOL0     C17053   1.572   5.504   0.978  0.4521 -0.1836 -0.2729
  849MOL0     C17054   1.656   5.429   0.882 -0.3064 -0.3777  0.1417
  849MOL0     O17055   1.783   5.398   0.916 -0.0186  0.0237 -0.1006
  849MOL0     C17056   1.866   5.331   0.833 -0.1912  0.2220 -0.0840
  849MOL0     C17057   1.970   5.398   0.773  0.9102 -0.6077 -0.8429
  849MOL0     C17058   2.062   5.336   0.681  0.7137  0.0493 -0.6598
  849MOL0     C17059   2.063   5.200   0.676  0.2873  0.3874  0.3373
  849MOL0     O17060   2.165   5.142   0.613  0.5052 -0.0380 -0.2299
  849MOL0     C17061   2.296   5.146   0.682  0.5393  0.0547  0.2174
  849MOL0     C17062   2.314   5.030   0.793 -0.0700 -1.3359  0.3018
  849MOL0     C17063   2.447   5.063   0.864 -0.6097 -0.7347 -0.0297
  849MOL0     C17064   2.509   4.963   0.945 -0.1232  0.1340 -0.3429
  849MOL0     C17065   2.433   4.945   1.073  0.7227 -0.0097 -0.0455
  849MOL0     C17066   2.479   4.868   1.192 -1.4839 -0.3435  0.2305
  849MOL0     C17067   2.375   4.867   1.308  0.2280 -0.1415 -0.0770
  849MOL0     C17068   2.289   4.748   1.283 -0.1117 -0.0687  0.0083
  849MOL0    Cl17069   2.381   4.600   1.314  0.0427 -0.3046  0.1421
  849MOL0     C17070   1.961   5.133   0.740  0.5821 -0.3785  0.1454
  849MOL0     C17071   1.861   5.195   0.811  0.3999 -0.1332 -1.3920
  849MOL0     O17072   1.596   5.380   0.788  0.3844  0.0393  0.3899
  849MOL0     C17073   1.640   5.533   1.101 -0.7594 -0.6337  1.4051
  849MOL0     C17074   1.571   5.601   1.204  0.3695 -0.1374  0.2877
  849MOL0     N17075   1.280   6.198   1.198 -0.4194 -0.3725 -0.0130
  849MOL0     N17076   1.241   6.212   1.073  0.0748 -0.1904 -0.3183
  849MOL0     C17077   2.175   5.922   0.419  0.6619 -0.1457 -0.6901
  849MOL0     C17078   2.294   5.956   0.388 -0.4032  0.1631  0.7879
  849MOL0     C17079   2.768   5.924   0.474  0.9078  0.2985  0.0412
  849MOL0     C17080   2.816   6.047   0.421 -0.8960 -0.1544  0.4029
  849MOL0     C17081   2.951   6.064   0.385 -1.3818  0.9540 -0.4600
  849MOL0     C17082   3.040   5.956   0.391 -0.4424  0.3880 -0.4412
  849MOL0     O17083   3.175   5.968   0.361 -0.2376  0.5605  0.0546
  849MOL0     C17084   3.261   5.988   0.474 -0.6804 -0.0041  1.1027
  849MOL0     C17085   3.275   6.132   0.509  0.9297  0.4339  0.2284
  849MOL0     C17086   3.377   6.164   0.611 -0.0512 -0.5225  0.1865
  849MOL0     C17087   3.525   6.120   0.599  1.2756  0.2050 -0.6294
  849MOL0     C17088   3.541   5.978   0.636  0.0692  0.0867  0.5600
  849MOL0     C17089   3.553   5.863   0.676 -0.7046  0.8838  0.2438
  849MOL0     C17090   2.992   5.840   0.445 -1.1889 -0.2365  0.2317
  849MOL0     C17091   2.865   5.819   0.489  0.6457  0.2212  0.1842
  849MOL0     C17092   2.819   5.684   0.550  0.7751  1.0222 -1.0576
  849MOL0     H17093   2.473   5.707   0.521  2.5382  2.8024 -0.3370
  849MOL0     H17094   2.250   5.620   0.572  1.0819 -0.2904  0.8381
  849MOL0     H17095   1.907   5.835   0.391 -0.7941 -0.1220 -0.0106
  849MOL0     H17096   1.929   5.949   0.521 -1.8253  0.8318 -1.6473
  849MOL0     H17097   1.701   5.831   0.497  0.5740  1.9984  1.3896
  849MOL0     H17098   1.772   5.673   0.543 -1.0237  0.0848 -1.3917
  849MOL0     H17099   1.852   5.737   0.744  2.4302  1.5185 -1.0684
  849MOL0     H17100   1.809   5.903   0.744  0.0837 -0.3977  0.3449
  849MOL0     H17101   1.596   5.697   0.766 -1.9262  0.5786 -3.1055
  849MOL0     H17102   1.661   5.820   0.874  1.5727  1.4370 -0.0696
  849MOL0     H17103   1.501   5.899   0.624  0.8216  0.5464  0.0918
  849MOL0     H17104   1.611   6.001   0.707  3.2237 -1.4185  1.5278
  849MOL0     H17105   1.364   5.835   0.801  1.9216 -1.8362  2.6681
  849MOL0     H17106   1.455   5.917   0.912 -1.2014  0.7390 -0.4913
  849MOL0     H17107   1.328   6.074   0.669 -0.8792  0.5748 -0.2714
  849MOL0     H17108   1.420   6.150   0.781 -3.0619  1.9500 -2.1480
  849MOL0     H17109   1.171   6.165   0.832  0.5137  2.3080  4.1816
  849MOL0     H17110   1.172   5.986   0.855 -1.1688 -0.2305  2.9017
  849MOL0     H17111   1.347   5.912   1.067  2.1445  0.0107 -2.3752
  849MOL0     H17112   1.440   6.077   1.407 -0.7606 -1.9566  1.7093
  849MOL0     H17113   1.454   5.942   1.296 -2.2744 -3.0825  0.2055
  849MOL0     H17114   1.237   6.000   1.489  0.7309  1.8149 -0.4640
  849MOL0     H17115   1.203   5.900   1.364  0.6938 -0.1147  0.3815
  849MOL0     H17116   1.423   5.846   1.580  0.9117 -1.3866  0.9092
  849MOL0     H17117   1.270   5.762   1.550  0.2164  0.6474 -0.2927
  849MOL0     H17118   1.527   5.760   1.405  1.3893 -1.3746  1.7460
  849MOL0     H17119   1.431   5.625   1.470  0.1219 -0.1570 -0.4006
  849MOL0     H17120   1.278   5.657   1.055  0.7380 -1.0264 -0.1811
  849MOL0     H17121   1.233   5.503   0.877 -1.4824  0.9441 -2.8955
  849MOL0     H17122   1.356   5.412   0.813 -0.2255 -0.2660  1.7821
  849MOL0     H17123   1.342   5.584   0.766  1.0286 -0.9972 -1.2719
  849MOL0     H17124   1.980   5.505   0.787 -1.8488 -0.3197 -0.4923
  849MOL0     H17125   2.141   5.392   0.631  0.2471  1.9230  0.5930
  849MOL0     H17126   2.379   5.148   0.611  0.9703 -1.6083  0.6388
  849MOL0     H17127   2.307   5.240   0.737  1.1088 -0.2599  0.6493
  849MOL0     H17128   2.227   5.037   0.860 -2.5161 -0.7188 -2.7130
  849MOL0     H17129   2.325   4.928   0.757 -0.3468 -2.5090  3.2251
  849MOL0     H17130   2.433   5.150   0.929 -1.6905 -1.8828  1.3401
  849MOL0     H17131   2.523   5.090   0.790 -0.0884 -0.8874  0.4496
  849MOL0     H17132   2.609   4.997   0.972  1.8202 -1.8669 -4.2678
  849MOL0     H17133   2.531   4.868   0.896  0.1714 -0.6549  1.2626
  849MOL0     H17134   2.418   5.049   1.103 -1.1290 -0.0954 -0.5209
  849MOL0     H17135   2.336   4.907   1.039  1.0129 -2.2888  1.4331
  849MOL0     H17136   2.572   4.907   1.235 -0.6391  0.3695 -2.1035
  849MOL0     H17137   2.511   4.766   1.169 -0.4118  0.4052 -1.8670
  849MOL0     H17138   2.317   4.960   1.307  1.6955  0.8058  0.0797
  849MOL0     H17139   2.430   4.860   1.402  0.6509  0.7585 -0.2410
  849MOL0     H17140   2.253   4.755   1.180 -2.0051  2.7175  0.7404
  849MOL0     H17141   2.199   4.759   1.344 -2.3292  1.5825 -3.2386
  849MOL0     H17142   1.940   5.027   0.727  1.2469 -0.1680 -4.1218
  849MOL0     H17143   1.778   5.142   0.855 -0.4477 -0.5652 -3.3958
  849MOL0     H17144   1.738   5.496   1.129 -0.1636 -0.0901  0.1229
  849MOL0     H17145   1.617   5.597   1.302  0.8703  2.8807  0.2627
  849MOL0     H17146   2.091   5.979   0.381  1.1621  0.6085 -0.6909
  849MOL0     H17147   2.303   6.034   0.313 -2.3892  0.6309  0.9787
  849MOL0     H17148   2.735   6.111   0.387 -0.9190 -0.0474  0.6518
  849MOL0     H17149   2.987   6.157   0.342  1.5704  0.0547 -0.1483
  849MOL0     H17150   3.224   5.929   0.559  0.3025 -1.5165  0.5228
  849MOL0     H17151   3.360   5.964   0.434 -2.2930 -1.2569 -2.5595
  849MOL0     H17152   3.179   6.171   0.546  0.3882 -0.8190  0.1975
  849MOL0     H17153   3.307   6.194   0.425 -1.6280  0.0444 -1.1451
  849MOL0     H17154   3.379   6.273   0.614 -1.0553 -0.4706 -0.7173
  849MOL0     H17155   3.330   6.126   0.702  0.6883 -2.8499 -0.3220
  849MOL0     H17156   3.567   6.176   0.683 -1.1431  3.6661 -1.5016
  849MOL0     H17157   3.563   6.153   0.502 -1.6009  1.3888 -1.4622
  849MOL0     H17158   3.556   5.766   0.722  2.9438  0.8572  0.1837
  849MOL0     H17159   3.055   5.752   0.449 -2.2715 -1.0337  0.0805
  849MOL0     H17160   2.896   5.622   0.597  2.1955  3.3456 -0.1639
  849MOL0     H17161   2.740   5.695   0.626  1.6990  1.0921 -0.0859
  849MOL0     H17162   2.780   5.619   0.472  0.1955 -0.8627  0.6910
  850MOL0     O17163  11.183   1.483   4.116  0.8234 -0.3370  0.3528
  850MOL0     C17164  11.170   1.572   4.200 -0.0489 -0.0363  0.2666
  850MOL0     O17165  11.057   1.645   4.222 -0.7230 -0.5929 -0.3119
  850MOL0     C17166  10.938   1.598   4.167 -0.2467  1.0049 -0.1822
  850MOL0     C17167  10.915   1.567   4.029 -0.1000 -0.4792  0.6168
  850MOL0     C17168  10.787   1.516   3.986 -0.2479  1.3660 -0.2681
  850MOL0     C17169  10.680   1.497   4.078 -0.1210 -0.1673  0.0712
  850MOL0     O17170  10.561   1.439   4.038 -0.0091 -0.3884  0.2499
  850MOL0     C17171  10.527   1.398   3.903 -0.4689 -0.3001  0.1521
  850MOL0     C17172  10.376   1.367   3.915  0.1337  0.4648 -0.2692
  850MOL0     C17173  10.327   1.261   3.814  0.0951 -0.0462  0.7540
  850MOL0     C17174  10.310   1.326   3.674  0.5621  1.1210 -0.6682
  850MOL0     C17175  10.440   1.316   3.592  0.3598 -0.5172 -0.3620
  850MOL0     C17176  10.419   1.356   3.454 -0.2910 -0.2024  0.1141
  850MOL0     C17177  10.328   1.262   3.367  0.1277  0.1553  0.0059
  850MOL0     C17178  10.392   1.120   3.332 -0.4895 -0.1805 -0.6602
  850MOL0     N17179  10.314   1.052   3.231  0.3792 -0.1991  0.3463
  850MOL0     C17180  10.246   1.105   3.118  0.4717 -0.0826 -0.3767
  850MOL0     C17181  10.196   0.989   3.060  0.8146 -0.9819 -0.6638
  850MOL0     C17182  10.147   0.995   2.921 -0.9750  0.5990 -0.4074
  850MOL0     C17183  10.258   1.017   2.813 -0.1451 -0.0296  0.6118
  850MOL0     C17184  10.380   0.932   2.836 -0.0242  0.4158 -0.6169
  850MOL0     C17185  10.484   0.965   2.727 -0.2758  0.0763 -0.3427
  850MOL0     O17186  10.536   1.096   2.755 -0.6361 -0.4579  0.0199
  850MOL0     C17187  10.668   1.094   2.793  0.3520  1.3311  0.5743
  850MOL0     C17188  10.707   1.135   2.917  0.1025  0.0361 -0.1824
  850MOL0     C17189  10.835   1.133   2.958  0.5582  0.2890  0.3369
  850MOL0     C17190  10.868   1.195   3.094  0.4630  0.3298 -0.3152
  850MOL0     C17191  10.935   1.111   2.862 -0.0774  0.3839  0.3184
  850MOL0     C17192  11.082   1.124   2.887 -0.9532  0.2115  0.3213
  850MOL0     O17193  11.133   1.158   3.012 -0.1886  0.3381  0.2024
  850MOL0     C17194  11.249   1.217   3.010  0.0069  0.0277 -0.0154
  850MOL0     C17195  11.267   1.329   2.939 -0.5204  0.1586  0.3686
  850MOL0     C17196  11.388   1.398   2.934 -0.2251 -0.0282 -0.0280
  850MOL0     C17197  11.496   1.343   3.011  0.9036 -0.5579 -0.9784
  850MOL0     O17198  11.620   1.402   3.012 -0.1034  0.5043 -0.0584
  850MOL0     C17199  11.722   1.302   2.977  0.5237 -0.2608  0.4410
  850MOL0     C17200  11.852   1.367   2.916 -0.1240  0.2117 -0.1905
  850MOL0     C17201  11.942   1.261   2.853 -0.0702  0.7502 -0.2129
  850MOL0     C17202  11.995   1.173   2.969 -0.3732 -1.2585  0.1358
  850MOL0     C17203  11.927   1.046   3.010 -0.1122 -0.7551 -0.3032
  850MOL0     C17204  11.966   1.009   3.160  0.3980  0.2360 -0.0576
  850MOL0     C17205  11.894   0.878   3.207  0.4963 -0.2124 -0.6745
  850MOL0     C17206  11.933   0.835   3.343 -0.5163  0.4333  0.3413
  850MOL0    Cl17207  11.829   0.703   3.403  0.2325  0.1994  0.0294
  850MOL0     C17208  11.477   1.237   3.101  0.1133 -0.0104 -0.5521
  850MOL0     C17209  11.352   1.171   3.089  0.7223  1.0652  0.3811
  850MOL0     O17210  11.160   1.097   2.795 -0.3210 -0.5134  0.5834
  850MOL0     C17211  10.898   1.070   2.728 -0.5190  0.8189 -0.3747
  850MOL0     C17212  10.763   1.053   2.697  0.3606  0.0758  0.0300
  850MOL0     N17213  10.232   0.880   3.131  0.2208 -0.5117 -0.8240
  850MOL0     N17214  10.291   0.920   3.239  0.5869 -0.7445  0.1393
  850MOL0     C17215  10.708   1.518   4.215  0.1523  0.5808  0.7690
  850MOL0     C17216  10.833   1.570   4.254  0.6271  0.2284  0.7032
  850MOL0     C17217  11.299   1.610   4.276  0.2345  0.0124 -0.8680
  850MOL0     C17218  11.419   1.564   4.224 -0.3019 -0.8504  0.1407
  850MOL0     C17219  11.536   1.610   4.283 -0.2441  0.3145  0.7120
  850MOL0     C17220  11.537   1.702   4.392 -0.5679 -0.0362 -0.1517
  850MOL0     O17221  11.650   1.753   4.461 -0.6544  0.1485 -0.3376
  850MOL0     C17222  11.782   1.700   4.450  0.0024 -0.4757 -0.2979
  850MOL0     C17223  11.793   1.615   4.583 -0.4376 -0.3059 -0.5571
  850MOL0     C17224  11.937   1.557   4.578 -0.3008  0.0864 -0.2163
  850MOL0     C17225  12.011   1.580   4.711 -0.6036 -0.1161  0.0049
  850MOL0     C17226  12.066   1.717   4.726  0.2043  0.4423  0.1608
  850MOL0     C17227  12.125   1.822   4.745 -0.1927 -0.2316 -0.1926
  850MOL0     C17228  11.415   1.746   4.444  0.5820 -0.0939  0.0552
  850MOL0     C17229  11.295   1.694   4.393 -0.4023 -0.9265 -0.1996
  850MOL0     C17230  11.166   1.735   4.466 -0.1780  0.3619  0.1934
  850MOL0     H17231  10.997   1.580   3.958 -0.9684 -0.3903 -0.3968
  850MOL0     H17232  10.765   1.507   3.880 -1.0105  2.0714 -0.1770
  850MOL0     H17233  10.577   1.313   3.856  0.9437  1.1066 -1.0271
  850MOL0     H17234  10.533   1.477   3.827 -1.6679 -2.3025 -2.1757
  850MOL0     H17235  10.355   1.336   4.018 -3.9901  0.8728 -0.8454
  850MOL0     H17236  10.317   1.458   3.902  2.0679  1.5524 -2.0926
  850MOL0     H17237  10.381   1.167   3.826  1.9206  1.2983  4.7195
  850MOL0     H17238  10.231   1.236   3.860 -1.0891 -0.4822 -1.7814
  850MOL0     H17239  10.225   1.270   3.634  1.0999 -3.1505  3.3749
  850MOL0     H17240  10.282   1.432   3.681 -0.1819  0.9438 -0.8972
  850MOL0     H17241  10.494   1.222   3.600  0.3844 -0.4203  0.8591
  850MOL0     H17242  10.502   1.398   3.629 -1.0318  1.3822 -2.0036
  850MOL0     H17243  10.386   1.460   3.461  0.4226  0.0813 -0.5785
  850MOL0     H17244  10.519   1.364   3.410 -0.2378 -1.3886 -0.0169
  850MOL0     H17245  10.319   1.309   3.269 -2.8765 -0.2103  0.0043
  850MOL0     H17246  10.228   1.251   3.409  0.8859 -2.5780  1.3781
  850MOL0     H17247  10.492   1.142   3.294 -0.5845  1.5977  0.0113
  850MOL0     H17248  10.410   1.060   3.421 -0.5002  1.0780  0.2193
  850MOL0     H17249  10.249   1.201   3.068  5.7606  0.1560 -0.1641
  850MOL0     H17250  10.077   1.079   2.916  1.8663  3.0369 -1.3503
  850MOL0     H17251  10.100   0.897   2.908 -0.3397  0.1707  0.4077
  850MOL0     H17252  10.216   0.977   2.721  2.6422  0.8799 -1.1880
  850MOL0     H17253  10.276   1.124   2.799 -3.6012  1.0767  3.1392
  850MOL0     H17254  10.422   0.952   2.935  0.0333 -1.3970 -0.2461
  850MOL0     H17255  10.354   0.826   2.830  1.5911 -0.0493  0.0424
  850MOL0     H17256  10.562   0.888   2.731 -2.0207 -1.7571  0.2150
  850MOL0     H17257  10.448   0.966   2.624  0.1870 -2.6422 -0.6038
  850MOL0     H17258  10.623   1.178   2.971 -0.0519  0.7365 -0.9434
  850MOL0     H17259  10.772   1.218   3.141 -0.6102 -2.3067 -1.0221
  850MOL0     H17260  10.903   1.295   3.069 -2.0926  0.9673 -1.6651
  850MOL0     H17261  10.927   1.135   3.164 -2.0031 -1.9251 -0.0333
  850MOL0     H17262  11.180   1.362   2.884  1.2411 -0.0469 -2.7627
  850MOL0     H17263  11.404   1.480   2.865  1.2471  0.0235  0.3318
  850MOL0     H17264  11.748   1.251   3.070 -0.7531 -1.5623  0.1203
  850MOL0     H17265  11.689   1.231   2.901 -0.7057 -1.2160  1.8315
  850MOL0     H17266  11.818   1.439   2.841 -4.8682 -0.8424  0.6052
  850MOL0     H17267  11.915   1.422   2.987  1.0611 -0.7323 -0.4842
  850MOL0     H17268  12.019   1.318   2.800 -1.5431  0.7556 -2.5215
  850MOL0     H17269  11.892   1.203   2.774  0.2505 -3.0904  2.1548
  850MOL0     H17270  12.008   1.234   3.059  1.3669 -2.5199  0.7830
  850MOL0     H17271  12.095   1.144   2.934  0.9188 -1.4676  3.5844
  850MOL0     H17272  11.819   1.054   3.003  0.0720  0.7741 -2.0048
  850MOL0     H17273  11.955   0.960   2.948  1.2810 -0.3458 -0.2886
  850MOL0     H17274  11.939   1.086   3.232  0.5111 -0.8712  1.2072
  850MOL0     H17275  12.073   0.988   3.173  0.9434  2.7814 -0.0674
  850MOL0     H17276  11.919   0.787   3.151  0.4734 -0.9722  0.5174
  850MOL0     H17277  11.788   0.905   3.203  1.1940  2.6542 -2.8032
  850MOL0     H17278  11.926   0.920   3.411 -3.4257  1.6588 -1.3106
  850MOL0     H17279  12.036   0.798   3.343 -0.1175  1.4762 -0.3450
  850MOL0     H17280  11.550   1.207   3.174 -2.1073  0.1316  1.8673
  850MOL0     H17281  11.319   1.091   3.153 -4.2153  2.1549 -0.3967
  850MOL0     H17282  10.974   1.049   2.653  0.2618 -1.3945  0.9559
  850MOL0     H17283  10.730   1.016   2.600 -0.6861 -0.0178  0.4155
  850MOL0     H17284  10.628   1.487   4.282  0.0960  0.1143  0.4896
  850MOL0     H17285  10.848   1.568   4.361  0.7785 -2.0840  0.7032
  850MOL0     H17286  11.414   1.501   4.136  0.3907 -0.4570 -0.1921
  850MOL0     H17287  11.637   1.582   4.255 -0.9927  1.2121 -3.6221
  850MOL0     H17288  11.789   1.631   4.366  2.4303 -0.3393 -0.2720
  850MOL0     H17289  11.862   1.772   4.429  0.0020  0.1698  1.6628
  850MOL0     H17290  11.714   1.543   4.605  0.5150 -1.0727  0.5023
  850MOL0     H17291  11.806   1.669   4.678 -0.0289 -1.5518  0.1157
  850MOL0     H17292  11.932   1.449   4.563  0.1828  0.1456 -0.8131
  850MOL0     H17293  11.991   1.609   4.499 -1.8431 -0.2052 -1.5140
  850MOL0     H17294  12.100   1.517   4.720 -1.3452 -1.0900  0.7408
  850MOL0     H17295  11.943   1.554   4.793 -0.6123 -0.5775 -0.1430
  850MOL0     H17296  12.200   1.898   4.757  2.6543 -2.1736 -3.6741
  850MOL0     H17297  11.412   1.807   4.534  0.6348  0.2426 -0.1702
  850MOL0     H17298  11.119   1.814   4.407 -2.1585 -0.8552  0.0691
  850MOL0     H17299  11.101   1.648   4.473  0.7219 -0.4445 -1.0876
  850MOL0     H17300  11.195   1.790   4.557  1.3030  1.1732 -0.7318
  851MOL0     O17301   2.895   7.829  10.241  0.0638 -0.2532  0.5276
  851MOL0     C17302   2.949   7.885  10.146  1.1496 -0.7571 -0.5364
  851MOL0     O17303   2.938   8.015  10.123 -0.2229 -0.2839 -0.5347
  851MOL0     C17304   2.883   8.089  10.222 -0.3296  0.6441  1.2438
  851MOL0     C17305   2.956   8.175  10.287  0.0509 -0.5746 -0.0053
  851MOL0     C17306   2.889   8.268  10.370 -0.5595 -0.0987  0.2168
  851MOL0     C17307   2.753   8.251  10.401  0.2963  0.1631  0.6676
  851MOL0     O17308   2.702   8.335  10.490 -0.6099 -0.7528 -0.2633
  851MOL0     C17309   2.667   8.276  10.619  0.1023  0.8058  0.5620
  851MOL0     C17310   2.511   8.283  10.644 -0.4348  0.2227 -1.1314
  851MOL0     C17311   2.504   8.253  10.805  0.2615  0.9633  0.4360
  851MOL0     C17312   2.526   8.381  10.891 -0.0487  0.1421 -0.7461
  851MOL0     C17313   2.455   8.342  11.025 -0.6335  0.5947 -0.3418
  851MOL0     C17314   2.455   8.456  11.125  0.8152  0.5444  0.6352
  851MOL0     C17315   2.396   8.439  11.258 -0.4252  0.2769 -0.3205
  851MOL0     C17316   2.408   8.580  11.328 -0.2006 -0.6883  0.9970
  851MOL0     N17317   2.331   8.595  11.446 -0.2708 -0.0252 -0.0555
  851MOL0     C17318   2.193   8.629  11.457 -0.4093  0.5970  0.1076
  851MOL0     C17319   2.177   8.637  11.594  0.3938  0.5455 -0.0517
  851MOL0     C17320   2.053   8.687  11.661 -0.2832  0.0486 -0.5961
  851MOL0     C17321   1.948   8.579  11.668 -0.2939 -0.4222 -0.0954
  851MOL0     C17322   1.815   8.650  11.702 -0.3225 -0.0170  0.3294
  851MOL0     C17323   1.708   8.545  11.699  0.3491 -0.6337 -0.3771
  851MOL0     O17324   1.712   8.475  11.572 -0.0322  0.9080 -0.6104
  851MOL0     C17325   1.684   8.344  11.570 -0.3492 -0.3836  0.8043
  851MOL0     C17326   1.620   8.262  11.669  0.2286 -0.3144  0.5091
  851MOL0     C17327   1.602   8.125  11.662  0.4776 -0.0737  0.4545
  851MOL0     C17328   1.526   8.042  11.767 -1.0770  0.4563  0.0361
  851MOL0     C17329   1.663   8.063  11.542 -0.2763  0.7306 -0.0700
  851MOL0     C17330   1.664   7.919  11.509 -0.5353  0.2182 -0.0324
  851MOL0     O17331   1.674   7.874  11.386  0.3788 -0.5426  0.1509
  851MOL0     C17332   1.614   7.757  11.375 -0.5784 -0.3320  0.1981
  851MOL0     C17333   1.679   7.631  11.413 -0.3093 -0.7161 -0.1306
  851MOL0     C17334   1.612   7.508  11.415  0.1860 -0.1297 -0.8951
  851MOL0     C17335   1.485   7.502  11.369  0.4509 -1.6099  0.5785
  851MOL0     O17336   1.429   7.383  11.376 -0.2945  0.5149  0.8115
  851MOL0     C17337   1.289   7.388  11.413  0.3618 -0.2658 -1.1092
  851MOL0     C17338   1.258   7.273  11.504  0.3368 -0.3275 -0.1913
  851MOL0     C17339   1.128   7.300  11.584  0.6461 -0.0123  1.4213
  851MOL0     C17340   1.116   7.191  11.694  0.4332  0.0585 -0.7291
  851MOL0     C17341   1.032   7.234  11.813  0.1220 -0.1428 -0.0473
  851MOL0     C17342   1.026   7.127  11.926  0.3970 -0.1752  0.3937
  851MOL0     C17343   0.926   7.156  12.034  0.3782  0.8711  0.1692
  851MOL0     C17344   0.780   7.136  11.990  0.3246  0.8606  0.5519
  851MOL0    Cl17345   0.660   7.166  12.115  0.4105 -0.6349  0.1511
  851MOL0     C17346   1.430   7.623  11.315  0.2016  0.9879  0.4142
  851MOL0     C17347   1.484   7.747  11.329 -0.3858  0.6736  0.0925
  851MOL0     O17348   1.652   7.846  11.611 -1.4150 -0.0087  0.1132
  851MOL0     C17349   1.728   8.141  11.452 -0.4475 -0.1325  0.2587
  851MOL0     C17350   1.737   8.277  11.457 -0.2583 -0.0312 -0.8415
  851MOL0     N17351   2.287   8.597  11.660  0.2177 -1.1431 -0.5076
  851MOL0     N17352   2.379   8.582  11.574 -0.3142 -0.3087 -0.0640
  851MOL0     C17353   2.679   8.155  10.328  0.7905  0.3595 -1.2952
  851MOL0     C17354   2.749   8.081  10.230  0.0566 -0.1198  0.5611
  851MOL0     C17355   3.006   7.789  10.052 -0.3336  1.1046 -0.3996
  851MOL0     C17356   2.972   7.818   9.921 -0.3104 -0.1421  0.4204
  851MOL0     C17357   3.017   7.733   9.819 -0.7178 -0.0011 -0.1278
  851MOL0     C17358   3.100   7.621   9.843  0.2790 -0.2758 -0.6170
  851MOL0     O17359   3.148   7.544   9.732  0.2263 -0.6674  0.0202
  851MOL0     C17360   3.246   7.444   9.750 -1.1076 -0.0520 -0.1525
  851MOL0     C17361   3.288   7.391   9.622 -0.1057 -0.1905 -0.1640
  851MOL0     C17362   3.391   7.474   9.544 -0.9856  0.7779  0.4187
  851MOL0     C17363   3.333   7.573   9.436 -0.4967 -0.1107 -0.2004
  851MOL0     C17364   3.327   7.515   9.301 -0.5471 -0.8925  0.3981
  851MOL0     C17365   3.311   7.458   9.194 -0.5336 -0.0748  0.6611
  851MOL0     C17366   3.149   7.604   9.973 -0.1954 -0.3735  0.1389
  851MOL0     C17367   3.092   7.676  10.079  0.5668  0.2348 -0.7225
  851MOL0     C17368   3.127   7.627  10.220 -0.3464 -0.4511 -0.6112
  851MOL0     H17369   3.059   8.174  10.254  0.3935 -1.2520  1.0129
  851MOL0     H17370   2.951   8.337  10.426 -0.4130  0.5043 -0.6543
  851MOL0     H17371   2.720   8.315  10.707  2.3942 -0.7215 -0.0399
  851MOL0     H17372   2.699   8.171  10.617 -1.4416  0.3070  0.9254
  851MOL0     H17373   2.465   8.380  10.626 -2.5712 -0.5220 -0.1067
  851MOL0     H17374   2.447   8.211  10.592  0.8557  0.2700 -2.8853
  851MOL0     H17375   2.408   8.204  10.828  0.0920  2.0595  2.2564
  851MOL0     H17376   2.584   8.182  10.826  1.2981  2.0873  0.3471
  851MOL0     H17377   2.635   8.390  10.894 -0.0204 -0.1231 -0.9779
  851MOL0     H17378   2.475   8.465  10.843 -0.8808 -0.6150 -1.2227
  851MOL0     H17379   2.508   8.261  11.075  0.4465  2.7258  2.1727
  851MOL0     H17380   2.357   8.301  10.999 -0.2817  1.4699 -3.5109
  851MOL0     H17381   2.562   8.470  11.142  0.9322 -1.9758  2.6400
  851MOL0     H17382   2.402   8.534  11.069 -1.1946  0.2128  1.9462
  851MOL0     H17383   2.450   8.370  11.324 -0.2757 -0.6208 -1.3543
  851MOL0     H17384   2.288   8.421  11.250 -0.0097 -3.1807  0.5372
  851MOL0     H17385   2.512   8.611  11.344  0.0660  0.4892 -2.2004
  851MOL0     H17386   2.381   8.660  11.257  1.8413 -0.3085  0.5798
  851MOL0     H17387   2.125   8.652  11.376 -0.5719 -1.0335 -0.2625
  851MOL0     H17388   2.017   8.772  11.603  0.6482  1.5297  0.9287
  851MOL0     H17389   2.077   8.728  11.759  0.6336 -3.9453  1.0478
  851MOL0     H17390   1.948   8.526  11.572  0.3941  1.3310 -1.1131
  851MOL0     H17391   1.962   8.509  11.750 -1.3351  2.3699  2.6300
  851MOL0     H17392   1.825   8.710  11.793  0.3670  1.5217 -0.7139
  851MOL0     H17393   1.789   8.709  11.614  1.8629 -3.7911 -3.1622
  851MOL0     H17394   1.727   8.483  11.787  2.5313 -0.5038 -0.6987
  851MOL0     H17395   1.611   8.594  11.714  0.5140  0.5294 -2.6572
  851MOL0     H17396   1.576   8.305  11.758  4.1833 -0.5781  2.7837
  851MOL0     H17397   1.462   8.108  11.826 -1.6107 -0.9357  1.0670
  851MOL0     H17398   1.601   7.991  11.829  0.1751  0.6002 -1.2891
  851MOL0     H17399   1.450   7.975  11.725 -2.3812  1.6473  0.4480
  851MOL0     H17400   1.782   7.645  11.443 -0.3569 -2.6440  1.0383
  851MOL0     H17401   1.670   7.424  11.450 -2.2135 -0.9223  1.5731
  851MOL0     H17402   1.267   7.478  11.471  0.3416  0.2557 -1.9131
  851MOL0     H17403   1.226   7.382  11.323  0.3482  2.7215 -1.3981
  851MOL0     H17404   1.238   7.181  11.449  0.0591 -3.1289  4.1495
  851MOL0     H17405   1.344   7.243  11.564 -0.7888  1.4761  2.4930
  851MOL0     H17406   1.033   7.289  11.531  0.5167 -1.3985  1.8952
  851MOL0     H17407   1.139   7.397  11.635  0.3305 -0.1693  1.8013
  851MOL0     H17408   1.214   7.161  11.732  0.6944  0.1916 -1.2794
  851MOL0     H17409   1.067   7.103  11.651  1.1189  0.1463 -1.7157
  851MOL0     H17410   1.067   7.326  11.860 -1.2993  0.7104 -0.5835
  851MOL0     H17411   0.932   7.250  11.772 -1.6464  1.6754  4.3203
  851MOL0     H17412   1.123   7.134  11.976 -0.4913  0.1247  2.1458
  851MOL0     H17413   1.013   7.024  11.893  0.3639 -0.1957  0.4707
  851MOL0     H17414   0.924   7.262  12.061  1.4862  1.3535 -1.5332
  851MOL0     H17415   0.937   7.090  12.120  2.8105 -0.1224 -0.8347
  851MOL0     H17416   0.766   7.041  11.937 -1.3022  0.9698  0.7315
  851MOL0     H17417   0.758   7.210  11.912  2.5429 -1.3144 -2.3494
  851MOL0     H17418   1.329   7.626  11.276  0.8761 -1.4972 -1.8576
  851MOL0     H17419   1.417   7.826  11.298 -4.3498 -1.8081  1.5277
  851MOL0     H17420   1.793   8.090  11.381  3.1732  1.2468  2.3078
  851MOL0     H17421   1.796   8.336  11.387 -2.2293  4.6651  1.0460
  851MOL0     H17422   2.570   8.154  10.325  0.8015  0.7699 -2.1552
  851MOL0     H17423   2.704   8.022  10.150  0.9908 -1.0659  0.7142
  851MOL0     H17424   2.895   7.893   9.909  1.4446  2.1727  2.5259
  851MOL0     H17425   2.978   7.754   9.720 -2.0984 -2.5937 -0.2235
  851MOL0     H17426   3.336   7.474   9.804  0.1707 -1.5186 -1.3931
  851MOL0     H17427   3.191   7.371   9.811 -1.7388  1.4099  1.1240
  851MOL0     H17428   3.204   7.361   9.559 -0.7664 -0.4850  0.8328
  851MOL0     H17429   3.335   7.294   9.645 -1.6584 -0.7854  0.6601
  851MOL0     H17430   3.453   7.526   9.619  1.4495 -1.7079  0.2901
  851MOL0     H17431   3.465   7.408   9.498  0.6977  2.1145  1.0712
  851MOL0     H17432   3.412   7.647   9.420 -0.2938 -0.3406 -0.2724
  851MOL0     H17433   3.240   7.626   9.459 -0.8459 -0.3501 -1.0242
  851MOL0     H17434   3.310   7.389   9.113 -0.4369  0.4617  0.1952
  851MOL0     H17435   3.226   7.528   9.988  0.4924  0.4403  0.8440
  851MOL0     H17436   3.055   7.638  10.301  0.9043  0.9175  0.3454
  851MOL0     H17437   3.161   7.523  10.217  1.2522 -0.0846  1.9891
  851MOL0     H17438   3.210   7.688  10.256 -0.9242 -0.8323  1.5008
  852MOL0     O17439   2.469   4.045   5.060  0.4418  0.3961 -0.0682
  852MOL0     C17440   2.518   4.093   5.163 -0.4722  0.3826  0.4543
  852MOL0     O17441   2.456   4.152   5.265  0.0522 -0.0795 -0.1123
  852MOL0     C17442   2.323   4.184   5.251  0.9280 -0.4230  0.3997
  852MOL0     C17443   2.236   4.169   5.360 -0.4011  0.6484  0.0832
  852MOL0     C17444   2.103   4.201   5.359 -0.8591 -0.7413  0.6278
  852MOL0     C17445   2.050   4.276   5.245  0.1861  0.5550  0.2560
  852MOL0     O17446   1.928   4.326   5.266 -0.2566  0.0266 -0.4645
  852MOL0     C17447   1.849   4.407   5.168  0.0760 -0.8091  0.1022
  852MOL0     C17448   1.831   4.549   5.212  0.1591 -0.2039  0.1615
  852MOL0     C17449   1.953   4.640   5.185  0.4957  0.3970 -0.8160
  852MOL0     C17450   1.970   4.779   5.245  1.1007 -0.1284 -0.1953
  852MOL0     C17451   2.094   4.853   5.179 -0.2207  0.3656  0.2754
  852MOL0     C17452   2.095   4.986   5.253 -0.2275 -1.1164  0.2387
  852MOL0     C17453   2.213   5.071   5.203 -0.7005  0.1707  0.3451
  852MOL0     C17454   2.271   5.164   5.308  0.3943  0.5190 -0.9131
  852MOL0     N17455   2.380   5.252   5.271  1.0352  0.6078  0.5056
  852MOL0     C17456   2.355   5.361   5.191 -0.7316  0.6583  0.5612
  852MOL0     C17457   2.467   5.440   5.203  0.6806 -0.5738  0.1693
  852MOL0     C17458   2.482   5.580   5.150  0.4966 -0.2664  0.8071
  852MOL0     C17459   2.527   5.587   5.003 -0.3088  0.3325 -0.3891
  852MOL0     C17460   2.680   5.592   4.987  0.2749  0.2879 -0.4921
  852MOL0     C17461   2.753   5.477   5.061 -0.2065 -1.0073  0.4561
  852MOL0     O17462   2.872   5.416   5.000 -0.1028  0.3132  1.0238
  852MOL0     C17463   2.994   5.486   5.011  0.6952  0.1388  0.0296
  852MOL0     C17464   3.045   5.531   5.133  0.8150  0.1719 -0.0239
  852MOL0     C17465   3.169   5.604   5.142  0.8598  0.9342  0.0815
  852MOL0     C17466   3.203   5.665   5.260 -0.2130 -0.2624  0.0372
  852MOL0     C17467   3.258   5.599   5.037  0.1374 -0.1470 -0.1019
  852MOL0     C17468   3.400   5.649   5.040  0.1109  0.3815 -0.6958
  852MOL0     O17469   3.442   5.698   4.922  0.1556  0.1339  0.2438
  852MOL0     C17470   3.569   5.740   4.910 -0.4908  0.6355  0.6527
  852MOL0     C17471   3.639   5.807   5.015 -0.4758  0.2135  0.1109
  852MOL0     C17472   3.768   5.851   4.990  0.1839  0.0747  0.4162
  852MOL0     C17473   3.828   5.828   4.870 -1.0922 -0.2192 -0.9149
  852MOL0     O17474   3.961   5.871   4.862 -0.8072  0.7692  0.7192
  852MOL0     C17475   3.982   5.973   4.777 -0.0612 -0.9111  0.5933
  852MOL0     C17476   4.114   6.055   4.824  0.5753 -0.1974  0.1561
  852MOL0     C17477   4.193   6.111   4.699 -1.2131 -0.5147  0.4529
  852MOL0     C17478   4.298   6.225   4.744 -0.4426  0.2608 -0.3359
  852MOL0     C17479   4.454   6.177   4.760  0.5616  0.2170  0.0580
  852MOL0     C17480   4.485   6.095   4.883 -0.2896 -0.1872  0.3250
  852MOL0     C17481   4.634   6.078   4.904  0.1473 -0.8630  0.4345
  852MOL0     C17482   4.655   6.005   5.035  0.6474  0.5171 -0.4868
  852MOL0    Cl17483   4.827   5.941   5.055 -0.5801  0.0502 -0.2025
  852MOL0     C17484   3.765   5.758   4.771 -0.0336  0.7505  0.0176
  852MOL0     C17485   3.634   5.713   4.793 -0.3787  0.0483  0.7102
  852MOL0     O17486   3.470   5.609   5.131  0.4673  0.2156 -1.2112
  852MOL0     C17487   3.206   5.542   4.913  0.2933  0.0513  0.1246
  852MOL0     C17488   3.071   5.487   4.901 -0.4635  0.6267  0.0158
  852MOL0     N17489   2.553   5.374   5.286 -0.0968 -0.5592  0.1056
  852MOL0     N17490   2.498   5.267   5.331  1.1136 -0.3203  0.4788
  852MOL0     C17491   2.130   4.281   5.126 -0.3599 -0.6523 -0.2850
  852MOL0     C17492   2.268   4.232   5.128  0.0370  0.4555 -0.2572
  852MOL0     C17493   2.656   4.035   5.193 -0.1631 -0.4402 -1.2625
  852MOL0     C17494   2.673   3.897   5.175  0.9612  0.7726  0.0171
  852MOL0     C17495   2.789   3.833   5.210 -0.2416 -0.3571 -1.0456
  852MOL0     C17496   2.897   3.904   5.261  0.6083 -0.6667 -0.2210
  852MOL0     O17497   3.021   3.855   5.292 -0.3785 -0.3259 -0.3930
  852MOL0     C17498   3.072   3.727   5.270  0.0678 -0.0022  0.0047
  852MOL0     C17499   3.204   3.717   5.335 -0.2640  0.5760  0.2933
  852MOL0     C17500   3.214   3.766   5.477 -0.2811 -0.4649 -0.4924
  852MOL0     C17501   3.093   3.730   5.566 -0.8255  0.1615  0.1664
  852MOL0     C17502   3.137   3.769   5.707 -0.4597  0.6984  0.5617
  852MOL0     C17503   3.161   3.804   5.822  0.1234  0.0676  0.1580
  852MOL0     C17504   2.873   4.042   5.283 -0.5772 -0.2675  0.4429
  852MOL0     C17505   2.752   4.105   5.268  0.0887  0.3979  1.2280
  852MOL0     C17506   2.748   4.254   5.304  0.7850  0.3877  1.1227
  852MOL0     H17507   2.273   4.128   5.454 -1.8802 -2.9630 -0.7485
  852MOL0     H17508   2.040   4.183   5.446  0.1489 -0.4224  1.4409
  852MOL0     H17509   1.757   4.353   5.143 -0.6158  1.2710 -2.2949
  852MOL0     H17510   1.909   4.396   5.078  1.5736  0.0864  0.9532
  852MOL0     H17511   1.739   4.576   5.160 -1.0676 -2.9514  0.7771
  852MOL0     H17512   1.816   4.556   5.320 -2.0242  3.6694 -0.2095
  852MOL0     H17513   2.044   4.587   5.214  1.4294  1.4963 -1.6474
  852MOL0     H17514   1.955   4.654   5.076 -0.3195 -1.9310 -1.2012
  852MOL0     H17515   1.874   4.829   5.232  0.8865  0.8339  3.8731
  852MOL0     H17516   1.971   4.783   5.354 -3.8136 -0.9505  0.0825
  852MOL0     H17517   2.076   4.866   5.072  0.0002  2.7850  0.4919
  852MOL0     H17518   2.180   4.787   5.194 -0.9735 -0.7659 -0.2140
  852MOL0     H17519   2.002   5.040   5.232  0.9953  2.5424  3.1907
  852MOL0     H17520   2.104   4.973   5.361  0.5502 -0.1170  0.3088
  852MOL0     H17521   2.189   5.132   5.116 -0.5597  0.7022  0.6771
  852MOL0     H17522   2.290   5.000   5.169 -1.2407 -0.1133 -0.3008
  852MOL0     H17523   2.184   5.218   5.346  1.4856  0.0278  2.6942
  852MOL0     H17524   2.304   5.100   5.391 -1.2299 -0.0253 -0.6413
  852MOL0     H17525   2.269   5.389   5.130  0.1376  1.4134 -0.3777
  852MOL0     H17526   2.550   5.636   5.214  2.0069 -0.3130 -0.6921
  852MOL0     H17527   2.381   5.620   5.161 -0.1505 -1.3532 -0.7530
  852MOL0     H17528   2.477   5.517   4.935 -1.6444  3.1024 -2.4610
  852MOL0     H17529   2.484   5.681   4.968  1.2526  1.1156 -0.2723
  852MOL0     H17530   2.708   5.587   4.882  0.7006 -0.9726 -0.3406
  852MOL0     H17531   2.713   5.685   5.034 -1.3423  0.3498  0.6236
  852MOL0     H17532   2.769   5.514   5.162  1.0453  1.8245 -0.6799
  852MOL0     H17533   2.682   5.395   5.075  0.6002 -1.6106  1.1320
  852MOL0     H17534   2.980   5.505   5.217  0.9542  0.6908  0.2451
  852MOL0     H17535   3.128   5.659   5.339 -1.0697  0.0517 -0.7480
  852MOL0     H17536   3.219   5.773   5.249 -0.8956 -0.0890  0.6474
  852MOL0     H17537   3.294   5.612   5.291 -0.4702 -1.4849 -1.2168
  852MOL0     H17538   3.583   5.838   5.102 -0.9087 -1.6938  0.5649
  852MOL0     H17539   3.831   5.905   5.061  1.6852  0.6840 -1.2927
  852MOL0     H17540   3.999   5.935   4.676 -3.7927  0.4881 -0.7395
  852MOL0     H17541   3.905   6.050   4.767  1.7730  0.8908 -0.4859
  852MOL0     H17542   4.085   6.137   4.890 -1.7902 -0.5283 -0.4052
  852MOL0     H17543   4.181   5.981   4.870 -0.2344 -1.0246  0.0290
  852MOL0     H17544   4.109   6.158   4.647 -0.0642  0.0898 -0.9094
  852MOL0     H17545   4.241   6.035   4.637  2.4561 -0.2650  2.6654
  852MOL0     H17546   4.264   6.278   4.833 -0.3823 -1.1248  0.5464
  852MOL0     H17547   4.295   6.298   4.663  2.1725 -0.3356 -1.0634
  852MOL0     H17548   4.477   6.114   4.673  0.4044  0.9620 -0.5346
  852MOL0     H17549   4.520   6.264   4.757  0.6604  0.2023  1.3861
  852MOL0     H17550   4.443   5.994   4.879 -1.2848  0.2300 -0.0613
  852MOL0     H17551   4.439   6.153   4.964  1.4465  0.8589  0.6200
  852MOL0     H17552   4.680   6.177   4.908  0.0854 -0.7006 -1.5932
  852MOL0     H17553   4.678   6.025   4.819  0.7368 -0.2053  0.3167
  852MOL0     H17554   4.586   5.920   5.035  2.3760 -1.0055  1.0778
  852MOL0     H17555   4.631   6.074   5.117  0.3214 -0.4761  0.2810
  852MOL0     H17556   3.803   5.737   4.672  0.0315  1.1649 -0.0485
  852MOL0     H17557   3.590   5.667   4.706 -3.7245  3.7249  0.1400
  852MOL0     H17558   3.263   5.561   4.822  0.3266  3.0321  0.6527
  852MOL0     H17559   3.019   5.468   4.808  0.1731 -2.6297  0.1790
  852MOL0     H17560   2.098   4.328   5.034  2.0981  0.5124 -0.6396
  852MOL0     H17561   2.319   4.239   5.033 -0.5607  2.3365 -0.4674
  852MOL0     H17562   2.603   3.831   5.124  1.0589 -0.2112  1.1201
  852MOL0     H17563   2.799   3.728   5.184 -1.2382 -0.2504 -1.9017
  852MOL0     H17564   3.000   3.654   5.310  0.4384  0.1806  1.0568
  852MOL0     H17565   3.063   3.726   5.161 -2.0082 -0.8509  0.1235
  852MOL0     H17566   3.279   3.781   5.288 -2.2839  3.7284  1.0057
  852MOL0     H17567   3.239   3.614   5.344  1.3403  1.1931  1.6284
  852MOL0     H17568   3.308   3.722   5.510  0.0725  0.7586  0.2086
  852MOL0     H17569   3.219   3.875   5.467  1.4271 -0.6281 -2.0429
  852MOL0     H17570   3.080   3.622   5.565  1.6492 -0.2311  1.5729
  852MOL0     H17571   3.003   3.784   5.535 -2.5981 -3.5751 -1.9080
  852MOL0     H17572   3.189   3.828   5.923  0.0367 -1.6335  0.6283
  852MOL0     H17573   2.964   4.098   5.302 -0.2787 -0.3202 -0.7713
  852MOL0     H17574   2.716   4.281   5.406 -0.7596  1.7360  0.3204
  852MOL0     H17575   2.851   4.288   5.294  1.2125 -0.6471  1.8261
  852MOL0     H17576   2.676   4.304   5.239  0.3571  0.8089  1.9022
  853MOL0     O17577   7.114   9.674  10.388 -0.4798 -0.5063 -0.7107
  853MOL0     C17578   7.020   9.709  10.319  0.3214  1.3153  0.3641
  853MOL0     O17579   6.909   9.775  10.360 -0.1344  0.0678  0.3702
  853MOL0     C17580   6.894   9.806  10.496 -0.5714  0.3192  0.4544
  853MOL0     C17581   6.958   9.748  10.610  0.0361 -1.0126  0.7566
  853MOL0     C17582   6.922   9.794  10.735 -0.0664  1.2807 -0.3937
  853MOL0     C17583   6.821   9.895  10.747 -1.0497 -0.3356 -0.1288
  853MOL0     O17584   6.782   9.972  10.852  0.6793 -0.1208 -0.8424
  853MOL0     C17585   6.722   9.896  10.958 -0.0748 -0.2338  0.6031
  853MOL0     C17586   6.593   9.828  10.910  0.0906  0.2935 -0.2406
  853MOL0     C17587   6.494   9.798  11.022 -0.6128 -0.4180 -0.5189
  853MOL0     C17588   6.533   9.665  11.083  0.5051  0.5196  1.2163
  853MOL0     C17589   6.470   9.642  11.217  0.1712 -0.9672  0.6468
  853MOL0     C17590   6.445   9.493  11.251  0.1032 -1.0213  0.0273
  853MOL0     C17591   6.424   9.489  11.410 -0.6870 -0.0464 -0.2280
  853MOL0     C17592   6.285   9.508  11.443 -0.3329 -0.1358 -0.2614
  853MOL0     N17593   6.271   9.493  11.594 -0.7162  0.2212  0.1115
  853MOL0     C17594   6.314   9.579  11.700 -0.1108  0.6109 -0.0611
  853MOL0     C17595   6.289   9.506  11.814  0.4792 -0.6583 -0.1596
  853MOL0     C17596   6.286   9.561  11.955 -1.1950  0.7815  0.1369
  853MOL0     C17597   6.407   9.507  12.034  0.4296 -1.2663  0.6398
  853MOL0     C17598   6.542   9.544  11.973 -0.0497 -0.2265 -0.1379
  853MOL0     C17599   6.569   9.695  11.996 -0.3385 -0.1733 -0.1244
  853MOL0     O17600   6.618   9.764  11.875 -0.4485  0.9375  0.3638
  853MOL0     C17601   6.732   9.713  11.816 -0.4202 -0.5608 -0.2162
  853MOL0     C17602   6.734   9.708  11.671  0.0400 -0.7856 -0.6401
  853MOL0     C17603   6.836   9.639  11.611 -0.7749 -0.2805 -0.1692
  853MOL0     C17604   6.827   9.644  11.457  0.0461  0.0587  0.0233
  853MOL0     C17605   6.949   9.580  11.679 -0.7015  0.2286 -0.1430
  853MOL0     C17606   7.066   9.506  11.615  0.0234 -0.5811 -0.4961
  853MOL0     O17607   7.147   9.434  11.696  0.1178  0.7688 -0.1438
  853MOL0     C17608   7.248   9.353  11.653 -0.2564 -0.1295 -0.0094
  853MOL0     C17609   7.245   9.283  11.531 -0.1827  0.1795  0.3126
  853MOL0     C17610   7.345   9.190  11.509 -0.2930  0.9317  0.2842
  853MOL0     C17611   7.455   9.163  11.600 -0.2085 -0.5484  0.0581
  853MOL0     O17612   7.569   9.085  11.577 -0.7535 -0.7103 -0.8869
  853MOL0     C17613   7.636   9.102  11.449 -0.0895 -0.6716 -0.6223
  853MOL0     C17614   7.682   8.974  11.397 -0.2222  0.2291 -0.3378
  853MOL0     C17615   7.774   8.986  11.274  0.6250 -0.0085  0.6915
  853MOL0     C17616   7.802   9.124  11.219 -0.2114  0.1920 -0.3843
  853MOL0     C17617   7.901   9.104  11.101  0.6953 -1.2839  0.0089
  853MOL0     C17618   7.948   9.236  11.053  0.2075  0.0130  0.7329
  853MOL0     C17619   8.041   9.229  10.926  0.6721  0.9717 -0.0309
  853MOL0     C17620   8.094   9.371  10.887  0.1802  0.4866  0.5576
  853MOL0    Cl17621   8.205   9.367  10.748  0.4642 -0.3226 -0.6682
  853MOL0     C17622   7.447   9.231  11.721  0.1730 -0.0255 -0.9880
  853MOL0     C17623   7.347   9.324  11.752 -0.0924 -0.9660  0.1980
  853MOL0     O17624   7.084   9.529  11.500 -0.0991  0.5914  0.2894
  853MOL0     C17625   6.947   9.599  11.823 -0.2876  0.5712  0.5714
  853MOL0     C17626   6.842   9.667  11.887 -0.6410  0.9820 -0.6480
  853MOL0     N17627   6.221   9.390  11.771  0.0434  0.3203 -1.0626
  853MOL0     N17628   6.220   9.375  11.642 -0.0465 -1.0034 -0.1598
  853MOL0     C17629   6.747   9.928  10.640 -0.8204 -1.3351  0.5960
  853MOL0     C17630   6.790   9.883  10.515  0.5580  0.0098 -0.3364
  853MOL0     C17631   7.028   9.679  10.173  0.0739 -0.1761 -0.1721
  853MOL0     C17632   6.923   9.735  10.097 -0.4065  0.1548 -0.2573
  853MOL0     C17633   6.920   9.726   9.965  0.4568  0.1711 -0.5908
  853MOL0     C17634   7.018   9.660   9.890  0.1008  0.8785  0.0596
  853MOL0     O17635   7.008   9.658   9.761  0.4572  0.3009  0.8074
  853MOL0     C17636   7.108   9.593   9.684  0.0585  0.1174 -0.4769
  853MOL0     C17637   7.085   9.602   9.532  0.3265 -0.5706  0.2895
  853MOL0     C17638   7.117   9.749   9.489 -0.7320  0.3333 -0.3518
  853MOL0     C17639   7.076   9.782   9.343 -0.4272 -0.5455 -0.2389
  853MOL0     C17640   7.000   9.909   9.333  0.4106 -0.4946 -0.2315
  853MOL0     C17641   6.939  10.011   9.306 -0.2878  0.2715 -0.5666
  853MOL0     C17642   7.118   9.583   9.964  0.1161 -0.5170  0.1650
  853MOL0     C17643   7.121   9.593  10.103  0.3523  0.4501  1.0706
  853MOL0     C17644   7.233   9.525  10.176 -0.1962 -0.0169  0.2354
  853MOL0     H17645   7.037   9.674  10.606 -0.0289 -1.0205 -1.9356
  853MOL0     H17646   6.972   9.764  10.827 -1.2897 -0.3138 -0.2050
  853MOL0     H17647   6.703   9.959  11.046 -0.5915 -0.7043  0.8365
  853MOL0     H17648   6.792   9.816  10.985  1.0066  0.2051 -0.8130
  853MOL0     H17649   6.546   9.900  10.843  1.6173  0.3908 -1.2491
  853MOL0     H17650   6.617   9.734  10.859  0.7576  0.8374 -0.9397
  853MOL0     H17651   6.499   9.880  11.094 -2.0280 -0.4210 -0.3781
  853MOL0     H17652   6.389   9.790  10.991 -1.3089  0.7297  1.3303
  853MOL0     H17653   6.501   9.578  11.024 -1.5094 -0.4129  3.4911
  853MOL0     H17654   6.639   9.643  11.094  0.9833  2.8843  1.8646
  853MOL0     H17655   6.371   9.688  11.217  0.8386  0.7650 -2.1841
  853MOL0     H17656   6.547   9.690  11.278  0.8776 -2.0162  0.6120
  853MOL0     H17657   6.356   9.453  11.202  1.9059 -2.2948 -2.4436
  853MOL0     H17658   6.516   9.412  11.229  1.4666 -0.1224  0.9796
  853MOL0     H17659   6.500   9.554  11.455 -1.3642 -0.6059  1.8727
  853MOL0     H17660   6.456   9.396  11.457 -1.1414  0.8108  1.9187
  853MOL0     H17661   6.263   9.606  11.398  0.3707 -1.3435 -3.4738
  853MOL0     H17662   6.222   9.437  11.388 -2.2984  2.0508 -1.0441
  853MOL0     H17663   6.349   9.681  11.685  0.0630  0.5136 -0.3310
  853MOL0     H17664   6.197   9.523  12.007 -0.4497 -0.1382  0.7568
  853MOL0     H17665   6.279   9.670  11.948  0.2389  0.7846 -1.9371
  853MOL0     H17666   6.413   9.522  12.142  0.8292 -1.0391  0.5904
  853MOL0     H17667   6.399   9.399  12.020  0.4903 -1.0950 -0.8377
  853MOL0     H17668   6.620   9.480  12.015  0.5865  0.3629 -0.3799
  853MOL0     H17669   6.543   9.539  11.864 -1.4393  2.8650 -0.4104
  853MOL0     H17670   6.482   9.751  12.031 -0.8947 -0.3991 -1.1014
  853MOL0     H17671   6.639   9.705  12.080  1.5212 -0.0083 -1.6489
  853MOL0     H17672   6.646   9.745  11.620  0.2333  1.4554  0.5183
  853MOL0     H17673   6.922   9.692  11.428 -0.1557  2.0445  2.3319
  853MOL0     H17674   6.746   9.708  11.421 -0.3360  0.4576  1.5306
  853MOL0     H17675   6.816   9.543  11.416 -0.2783 -0.8626  2.2112
  853MOL0     H17676   7.174   9.302  11.451  0.5781  2.8067  0.1980
  853MOL0     H17677   7.342   9.134  11.416  1.1770  1.5880 -0.1898
  853MOL0     H17678   7.568   9.145  11.375  0.2302  0.9231 -0.0415
  853MOL0     H17679   7.719   9.173  11.462 -0.9365  0.7166 -2.3366
  853MOL0     H17680   7.741   8.922  11.473 -1.3440 -1.8446 -0.8090
  853MOL0     H17681   7.592   8.914  11.381  0.4608 -1.3644  1.3805
  853MOL0     H17682   7.725   8.921  11.201 -2.0608  0.8540  1.5944
  853MOL0     H17683   7.870   8.941  11.299  1.7922  2.1700  0.3573
  853MOL0     H17684   7.858   9.176  11.297  1.4644 -2.9541  0.6973
  853MOL0     H17685   7.714   9.173  11.176 -0.2842 -0.7519 -1.3468
  853MOL0     H17686   7.994   9.056  11.133  1.6537  1.2251  1.2274
  853MOL0     H17687   7.847   9.052  11.021 -1.5902 -0.5919  1.0217
  853MOL0     H17688   8.008   9.271  11.138  2.2074 -0.8484 -0.2619
  853MOL0     H17689   7.863   9.301  11.030  1.0890  0.8826 -0.1910
  853MOL0     H17690   7.991   9.169  10.849 -0.1629 -1.6754  2.4077
  853MOL0     H17691   8.135   9.176  10.944 -0.4275 -1.0663  0.0099
  853MOL0     H17692   8.152   9.411  10.971  3.2544 -0.7965 -0.7977
  853MOL0     H17693   8.015   9.441  10.858  0.7532  0.8215 -0.2325
  853MOL0     H17694   7.529   9.213  11.790 -0.3842  0.4210 -0.1973
  853MOL0     H17695   7.327   9.370  11.849 -1.9113  2.1849 -1.5238
  853MOL0     H17696   7.008   9.534  11.885 -2.0785  0.0327  1.8437
  853MOL0     H17697   6.848   9.670  11.995  0.4481 -1.0155 -0.6199
  853MOL0     H17698   6.664   9.997  10.637  0.2605  0.0201 -2.0780
  853MOL0     H17699   6.715   9.882  10.436 -0.7067  0.1373  0.8421
  853MOL0     H17700   6.842   9.788  10.146 -1.0270 -0.3120 -0.7516
  853MOL0     H17701   6.840   9.776   9.911  0.6371  1.7221  0.5393
  853MOL0     H17702   7.211   9.599   9.720 -0.3007  0.0981  0.6038
  853MOL0     H17703   7.085   9.488   9.702  2.7282 -0.1495  2.0716
  853MOL0     H17704   6.982   9.587   9.499  0.7466 -0.8021 -1.0053
  853MOL0     H17705   7.147   9.527   9.482 -0.3287 -0.8041 -0.1891
  853MOL0     H17706   7.069   9.808   9.567  1.5701  0.2488  1.1841
  853MOL0     H17707   7.218   9.784   9.509 -1.3764  0.3586  3.6427
  853MOL0     H17708   7.016   9.703   9.298 -1.9894  0.9574 -0.9043
  853MOL0     H17709   7.171   9.793   9.289 -0.4477  0.6617 -0.0461
  853MOL0     H17710   6.885  10.103   9.293 -3.8523 -0.7888  4.0445
  853MOL0     H17711   7.192   9.526   9.908 -0.8376 -0.7824 -0.8713
  853MOL0     H17712   7.273   9.454  10.104 -0.0984  0.0949  0.1820
  853MOL0     H17713   7.302   9.604  10.207 -1.9028  2.0204 -0.8335
  853MOL0     H17714   7.190   9.463  10.256  0.6794 -1.8523 -0.6703
  854MOL0     O17715   9.656   1.185   2.726 -0.1116 -0.4960  0.0570
  854MOL0     C17716   9.592   1.090   2.707 -0.2154  0.5467  0.3719
  854MOL0     O17717   9.557   0.999   2.809  0.4240  0.0157  0.9941
  854MOL0     C17718   9.623   1.005   2.926  0.8662  0.6857  0.2559
  854MOL0     C17719   9.761   0.986   2.935 -0.4112  0.3607  0.6699
  854MOL0     C17720   9.821   0.990   3.063 -0.1526 -0.3570  0.7695
  854MOL0     C17721   9.748   1.013   3.182  0.2222 -0.5019  0.2388
  854MOL0     O17722   9.790   1.003   3.311 -0.0478 -0.5885  0.2330
  854MOL0     C17723   9.935   0.983   3.340  0.0321  0.0389  0.2254
  854MOL0     C17724   9.964   0.978   3.494  0.5971  0.0207  0.0411
  854MOL0     C17725  10.096   0.916   3.537 -0.7892 -0.6174  0.6657
  854MOL0     C17726  10.165   0.973   3.655  0.7829 -1.2989 -0.4078
  854MOL0     C17727  10.279   0.893   3.722 -0.2559  0.2166 -0.3144
  854MOL0     C17728  10.405   0.869   3.643  0.0306 -0.7312  0.5310
  854MOL0     C17729  10.511   0.804   3.737 -0.3582 -0.0638  0.6109
  854MOL0     C17730  10.636   0.771   3.657 -0.3409 -0.6047  0.4237
  854MOL0     N17731  10.707   0.898   3.621 -0.6261  0.3688 -0.6341
  854MOL0     C17732  10.768   0.974   3.721 -0.1146  0.1841  0.0210
  854MOL0     C17733  10.815   1.084   3.660 -0.0102  0.1112 -0.7206
  854MOL0     C17734  10.883   1.209   3.716  0.1682  0.2971  0.7756
  854MOL0     C17735  11.019   1.238   3.648 -0.0247  0.1808  0.2659
  854MOL0     C17736  11.084   1.360   3.713 -0.7812  0.0645 -0.2883
  854MOL0     C17737  11.167   1.322   3.840 -0.0352 -0.7492  0.5476
  854MOL0     O17738  11.258   1.214   3.829 -0.2290 -0.0634 -0.6174
  854MOL0     C17739  11.386   1.229   3.780  0.0386 -0.3260  0.3327
  854MOL0     C17740  11.449   1.354   3.757  0.2299  0.9464  0.3007
  854MOL0     C17741  11.585   1.358   3.733  0.6857 -0.2217 -0.6565
  854MOL0     C17742  11.653   1.492   3.753 -0.1898  0.8056  0.5398
  854MOL0     C17743  11.655   1.243   3.723  0.0745  0.1100 -0.5796
  854MOL0     C17744  11.798   1.241   3.708  0.1590 -0.6307  0.2180
  854MOL0     O17745  11.881   1.302   3.809 -0.1971  0.5770  0.1469
  854MOL0     C17746  12.019   1.294   3.804  0.1979  0.5806  0.4202
  854MOL0     C17747  12.098   1.411   3.791  0.4783 -0.5037  0.6438
  854MOL0     C17748  12.243   1.412   3.780  0.1599  0.6079 -0.4770
  854MOL0     C17749  12.310   1.289   3.814  0.4012 -0.0626 -0.3861
  854MOL0     O17750  12.442   1.268   3.809  0.0106  0.2392  0.2991
  854MOL0     C17751  12.513   1.333   3.702 -0.3122  0.0969 -0.0842
  854MOL0     C17752  12.647   1.264   3.675  0.3634 -0.3060 -0.0965
  854MOL0     C17753  12.628   1.109   3.650 -0.5079 -0.9862 -0.4542
  854MOL0     C17754  12.766   1.047   3.634  0.5678 -0.2918 -0.3451
  854MOL0     C17755  12.789   0.921   3.719 -0.0545 -0.6566  1.0243
  854MOL0     C17756  12.902   0.842   3.666 -0.9215  0.2227 -0.4535
  854MOL0     C17757  12.906   0.695   3.712  0.8384 -0.3106 -0.0405
  854MOL0     C17758  12.824   0.617   3.603  0.4415 -0.5188 -0.2395
  854MOL0    Cl17759  12.869   0.447   3.628  0.4133 -0.2930 -0.0390
  854MOL0     C17760  12.231   1.180   3.843 -0.3305  0.0403  0.1831
  854MOL0     C17761  12.087   1.176   3.839  0.1350 -0.5821  0.4373
  854MOL0     O17762  11.845   1.178   3.613 -0.2654 -0.1404  0.4905
  854MOL0     C17763  11.591   1.125   3.730 -0.6714 -0.3243  1.2600
  854MOL0     C17764  11.465   1.112   3.767  0.7334  0.1635  0.3724
  854MOL0     N17765  10.794   1.068   3.524  0.3467 -0.6487 -0.2563
  854MOL0     N17766  10.728   0.958   3.500 -0.0464  0.7278 -0.4698
  854MOL0     C17767   9.608   1.018   3.172 -0.0315  0.0770  0.2903
  854MOL0     C17768   9.544   1.015   3.044 -0.6606  0.1284  0.2271
  854MOL0     C17769   9.524   1.078   2.571  0.8174 -0.2978  0.8947
  854MOL0     C17770   9.518   1.194   2.498 -0.4787 -0.1345  0.2530
  854MOL0     C17771   9.457   1.198   2.365 -1.0429 -0.5849  0.2396
  854MOL0     C17772   9.411   1.073   2.310  0.1493 -0.1581 -0.3011
  854MOL0     O17773   9.363   1.058   2.187  0.5194  0.3363  0.4049
  854MOL0     C17774   9.357   1.170   2.100  0.4635  0.0226 -0.5855
  854MOL0     C17775   9.325   1.109   1.960  0.9231 -0.3282 -0.4564
  854MOL0     C17776   9.312   1.218   1.859 -0.7445 -1.2216  0.2916
  854MOL0     C17777   9.273   1.176   1.723 -0.1333  1.6146  0.4729
  854MOL0     C17778   9.326   1.257   1.617  0.3044 -0.7783 -1.0163
  854MOL0     C17779   9.349   1.345   1.537 -0.2475 -0.4241  0.2114
  854MOL0     C17780   9.418   0.961   2.390  0.4086 -0.8714  0.2334
  854MOL0     C17781   9.477   0.960   2.511 -0.5454  0.2662 -0.9694
  854MOL0     C17782   9.486   0.820   2.576  0.1994  0.0005  0.5268
  854MOL0     H17783   9.826   0.962   2.852  0.4049 -2.5172  2.0020
  854MOL0     H17784   9.928   0.968   3.064 -0.1329 -0.5153 -1.4122
  854MOL0     H17785  10.007   1.051   3.295  1.1081  0.3339  2.2784
  854MOL0     H17786   9.953   0.885   3.295 -1.2775  0.3959 -1.1683
  854MOL0     H17787   9.962   1.083   3.527  0.1121  0.4358 -1.2586
  854MOL0     H17788   9.892   0.912   3.543  1.5853 -0.4974  0.8352
  854MOL0     H17789  10.073   0.811   3.558  0.7675 -0.7022  2.1964
  854MOL0     H17790  10.160   0.898   3.450  0.0819 -2.1738  1.5786
  854MOL0     H17791  10.211   1.063   3.613 -2.7575  0.6551 -0.4531
  854MOL0     H17792  10.098   1.000   3.737 -2.0370 -2.6533 -2.1290
  854MOL0     H17793  10.236   0.794   3.733  0.4941 -0.2749 -1.5564
  854MOL0     H17794  10.291   0.956   3.811 -3.3017  1.5016 -0.6834
  854MOL0     H17795  10.380   0.814   3.552 -0.5194  0.7361 -0.2346
  854MOL0     H17796  10.430   0.973   3.619 -0.0642 -1.0847 -1.2581
  854MOL0     H17797  10.475   0.710   3.778 -1.0141  1.0369  2.6891
  854MOL0     H17798  10.537   0.880   3.811  3.0571 -0.3682 -0.1335
  854MOL0     H17799  10.693   0.693   3.709 -1.8706 -1.6212  0.6448
  854MOL0     H17800  10.606   0.718   3.566 -0.2561 -1.6135  0.9659
  854MOL0     H17801  10.758   0.946   3.826  0.0227 -1.7477 -0.4499
  854MOL0     H17802  10.902   1.192   3.822  1.1498 -0.8508  0.4413
  854MOL0     H17803  10.819   1.296   3.703 -3.5556 -2.4299 -1.2119
  854MOL0     H17804  11.087   1.152   3.651 -1.6862 -1.2981 -1.7294
  854MOL0     H17805  11.016   1.261   3.541 -0.1882  0.7823  0.3954
  854MOL0     H17806  11.158   1.396   3.641 -1.7401  1.0849 -0.7929
  854MOL0     H17807  11.018   1.446   3.725  0.2554  1.0739 -1.5348
  854MOL0     H17808  11.216   1.411   3.881  0.7858 -0.2719 -1.3589
  854MOL0     H17809  11.098   1.299   3.921  0.7401 -0.8992  1.1817
  854MOL0     H17810  11.393   1.447   3.748 -3.3053 -0.9129  1.4966
  854MOL0     H17811  11.581   1.569   3.783  0.9419  1.8281  0.7037
  854MOL0     H17812  11.693   1.516   3.654  1.1138  1.7762  1.2596
  854MOL0     H17813  11.730   1.500   3.830  0.5703  0.3618 -0.1555
  854MOL0     H17814  12.039   1.501   3.778 -0.1354 -0.9533  0.2721
  854MOL0     H17815  12.292   1.509   3.784 -1.1658  1.2846 -0.0518
  854MOL0     H17816  12.453   1.348   3.612 -0.9273  2.5429  0.6700
  854MOL0     H17817  12.525   1.432   3.746 -1.3485  0.2648 -0.1375
  854MOL0     H17818  12.707   1.301   3.592  5.4862  1.8568  4.0479
  854MOL0     H17819  12.706   1.263   3.766 -1.9663 -0.9656  1.4918
  854MOL0     H17820  12.584   1.111   3.550  1.0305  2.0817 -1.1945
  854MOL0     H17821  12.571   1.064   3.732  0.8186 -0.7802  0.6179
  854MOL0     H17822  12.838   1.122   3.670  0.5759 -0.5889  0.2741
  854MOL0     H17823  12.785   1.026   3.528 -2.2253 -0.5097 -0.8726
  854MOL0     H17824  12.784   0.927   3.828 -0.3597 -1.6641  1.0810
  854MOL0     H17825  12.702   0.858   3.695  0.5439 -1.2676  0.4267
  854MOL0     H17826  12.997   0.894   3.685  0.2684 -1.4561 -1.5802
  854MOL0     H17827  12.901   0.834   3.557 -0.3051  1.6191 -0.5897
  854MOL0     H17828  12.863   0.685   3.812  4.8000  2.8731  2.3340
  854MOL0     H17829  13.006   0.651   3.708  0.4901 -1.0322 -1.2161
  854MOL0     H17830  12.841   0.652   3.501 -1.3808  0.5756 -0.2258
  854MOL0     H17831  12.721   0.647   3.624  0.7851  0.5579 -0.0546
  854MOL0     H17832  12.290   1.095   3.876 -0.6391 -0.9343 -1.6543
  854MOL0     H17833  12.025   1.088   3.854 -0.3527 -0.6452 -1.6751
  854MOL0     H17834  11.648   1.033   3.717 -0.6164 -0.1413  0.1489
  854MOL0     H17835  11.411   1.019   3.783  1.0193  0.1443  1.3307
  854MOL0     H17836   9.559   1.037   3.267  2.8037  0.3291  1.8110
  854MOL0     H17837   9.439   1.040   3.036 -0.6436 -0.0104 -0.4365
  854MOL0     H17838   9.566   1.286   2.528  0.4014  0.5924 -2.9717
  854MOL0     H17839   9.446   1.290   2.309 -1.5054  0.4276  1.9158
  854MOL0     H17840   9.275   1.235   2.133 -0.3429 -0.2936 -1.8885
  854MOL0     H17841   9.450   1.227   2.087  1.0760 -0.2809  1.9051
  854MOL0     H17842   9.232   1.053   1.968  0.6461  0.1218 -0.4362
  854MOL0     H17843   9.407   1.043   1.931 -1.9460 -4.3642 -0.0558
  854MOL0     H17844   9.228   1.279   1.893  1.6954  1.5987  1.6503
  854MOL0     H17845   9.400   1.283   1.857 -2.1981  0.8513 -0.6081
  854MOL0     H17846   9.163   1.173   1.725 -0.2319 -0.0397  5.0607
  854MOL0     H17847   9.303   1.072   1.706 -3.1377  0.9148 -1.3694
  854MOL0     H17848   9.376   1.414   1.459  5.5517 -1.1263  1.1391
  854MOL0     H17849   9.368   0.874   2.347 -1.1480 -0.4687  1.1395
  854MOL0     H17850   9.466   0.745   2.499  0.1523  0.8647 -0.3133
  854MOL0     H17851   9.583   0.787   2.615  0.4511  0.2390  0.1039
  854MOL0     H17852   9.398   0.814   2.641 -0.0538 -0.4543  0.1500
  855MOL0     O17853   3.266   9.551   7.670 -0.2124 -0.3723  0.7587
  855MOL0     C17854   3.306   9.553   7.784 -0.0124  0.3304 -0.5699
  855MOL0     O17855   3.257   9.632   7.879 -0.2912 -0.0064 -0.1262
  855MOL0     C17856   3.161   9.720   7.847 -0.2330  0.1685  0.3203
  855MOL0     C17857   3.182   9.824   7.749 -0.7705 -0.3456 -0.5913
  855MOL0     C17858   3.084   9.929   7.747 -0.3256 -0.3003  0.0086
  855MOL0     C17859   2.972   9.930   7.829  0.0308 -0.1173  0.0169
  855MOL0     O17860   2.878  10.030   7.803 -0.1438  0.0132 -1.1062
  855MOL0     C17861   2.754  10.032   7.883  0.3762 -0.7852 -0.3753
  855MOL0     C17862   2.663  10.156   7.848  0.3901 -0.2181 -0.0188
  855MOL0     C17863   2.699  10.295   7.897  0.3688  0.3107  0.6066
  855MOL0     C17864   2.792  10.375   7.810 -0.5861 -0.0972  0.6740
  855MOL0     C17865   2.876  10.477   7.886  0.1730  0.5093 -0.0272
  855MOL0     C17866   2.971  10.566   7.813 -0.6867  0.2669  0.0888
  855MOL0     C17867   3.071  10.490   7.721 -0.8631  0.0859 -0.0764
  855MOL0     C17868   3.188  10.417   7.791 -0.0142 -0.3118 -0.0649
  855MOL0     N17869   3.278  10.495   7.880 -0.6662  0.1990 -0.2725
  855MOL0     C17870   3.321  10.622   7.857 -0.3392  0.6235 -0.6076
  855MOL0     C17871   3.392  10.658   7.972  1.1031  0.0324  0.7506
  855MOL0     C17872   3.460  10.783   7.992  0.2192 -0.6181  0.0124
  855MOL0     C17873   3.611  10.777   7.975  0.3067  0.5035 -0.7283
  855MOL0     C17874   3.686  10.914   7.995 -0.1116 -0.1810 -0.0082
  855MOL0     C17875   3.836  10.879   7.964 -0.4216  0.3666 -0.0020
  855MOL0     O17876   3.935  10.965   8.018 -0.1654 -0.3404 -0.0687
  855MOL0     C17877   4.044  11.001   7.941  0.8051 -0.1548  0.0798
  855MOL0     C17878   4.068  10.990   7.808  1.0536  0.1298  0.3417
  855MOL0     C17879   4.182  11.045   7.744  0.0079 -0.3559 -0.5932
  855MOL0     C17880   4.174  11.042   7.592 -0.0026 -0.0015  0.2153
  855MOL0     C17881   4.288  11.098   7.820 -0.2879  0.1163  0.2882
  855MOL0     C17882   4.416  11.162   7.767 -0.0530 -0.4328 -0.5236
  855MOL0     O17883   4.488  11.226   7.867 -0.0244  0.3604  0.3897
  855MOL0     C17884   4.622  11.216   7.842  0.0339 -0.2683  0.1350
  855MOL0     C17885   4.696  11.106   7.855 -0.0302 -0.0361 -0.5709
  855MOL0     C17886   4.834  11.108   7.853 -0.6441  0.0334  0.6540
  855MOL0     C17887   4.916  11.221   7.821  0.2200 -0.1436 -0.6040
  855MOL0     O17888   5.058  11.231   7.822 -0.1881  0.0608  0.3384
  855MOL0     C17889   5.116  11.113   7.769 -0.3269  0.6235  0.4294
  855MOL0     C17890   5.246  11.145   7.702  0.1848  1.2391 -0.2758
  855MOL0     C17891   5.225  11.248   7.597 -0.3329 -0.0826 -0.0840
  855MOL0     C17892   5.351  11.303   7.537  0.3310  0.1396  0.8063
  855MOL0     C17893   5.334  11.409   7.437 -0.8860 -0.7187  0.7947
  855MOL0     C17894   5.287  11.364   7.297  0.1917 -1.0730  0.8780
  855MOL0     C17895   5.334  11.477   7.200  1.5330  0.6407  0.1309
  855MOL0     C17896   5.266  11.439   7.069 -0.2509 -0.7744  0.2559
  855MOL0    Cl17897   5.090  11.453   7.075 -0.2568  0.3719 -0.1158
  855MOL0     C17898   4.835  11.338   7.800 -0.4676  0.7207 -0.3150
  855MOL0     C17899   4.694  11.332   7.816  1.2807  0.2248 -0.4808
  855MOL0     O17900   4.441  11.155   7.647 -0.3634 -0.7804  0.0162
  855MOL0     C17901   4.262  11.095   7.958 -0.2702 -0.7957  0.5296
  855MOL0     C17902   4.146  11.051   8.020 -0.9476 -0.2181 -0.5377
  855MOL0     N17903   3.368  10.566   8.072  0.2996 -0.4129 -0.0498
  855MOL0     N17904   3.298  10.472   8.023 -0.1287 -0.8030 -0.4914
  855MOL0     C17905   2.956   9.827   7.931 -0.3709  0.4506  0.0152
  855MOL0     C17906   3.047   9.720   7.924 -0.3790  0.1204  0.7441
  855MOL0     C17907   3.381   9.438   7.835 -0.1524 -0.5231  0.5316
  855MOL0     C17908   3.367   9.319   7.767  0.4433 -0.2263 -0.7154
  855MOL0     C17909   3.433   9.205   7.827 -0.0089  0.3469  0.8856
  855MOL0     C17910   3.522   9.209   7.933 -0.2701 -0.3212 -0.7919
  855MOL0     O17911   3.577   9.092   7.977 -0.1953 -0.2515  0.4751
  855MOL0     C17912   3.583   9.063   8.116 -0.5540 -0.6786  0.4952
  855MOL0     C17913   3.721   9.096   8.166  0.0969  0.2920 -0.2190
  855MOL0     C17914   3.741   9.046   8.311  0.4787  0.0287  1.7007
  855MOL0     C17915   3.721   9.159   8.410 -0.3599  0.2020 -0.3344
  855MOL0     C17916   3.678   9.110   8.546  0.1741  0.7661  0.4382
  855MOL0     C17917   3.637   9.072   8.657 -0.6221 -0.4550  0.9811
  855MOL0     C17918   3.539   9.337   7.989  1.1893  0.3131  0.3078
  855MOL0     C17919   3.471   9.451   7.946  0.1213 -0.6912 -0.8889
  855MOL0     C17920   3.511   9.596   7.982 -0.1550  0.3367  0.3781
  855MOL0     H17921   3.265   9.820   7.679 -0.2545  0.1106 -0.0163
  855MOL0     H17922   3.101  10.013   7.680 -0.4714  1.3249  1.9061
  855MOL0     H17923   2.767  10.018   7.991 -0.4805  0.9550 -0.0049
  855MOL0     H17924   2.697   9.946   7.848 -1.5796  0.3955 -0.2691
  855MOL0     H17925   2.643  10.157   7.740 -2.2548 -3.1645  0.2850
  855MOL0     H17926   2.571  10.118   7.894  0.5916 -1.2470 -0.4401
  855MOL0     H17927   2.609  10.358   7.900  0.1274 -0.0028 -0.0478
  855MOL0     H17928   2.730  10.284   8.002 -0.1454  1.8137  0.9455
  855MOL0     H17929   2.859  10.300   7.768 -2.6926 -1.1495 -0.9889
  855MOL0     H17930   2.737  10.425   7.730  1.5070  1.5378  0.1673
  855MOL0     H17931   2.940  10.435   7.965 -0.1334 -1.8677 -0.9599
  855MOL0     H17932   2.801  10.541   7.932  0.2681 -0.4064  1.4726
  855MOL0     H17933   2.919  10.650   7.765 -0.3865  1.4780  1.7900
  855MOL0     H17934   3.025  10.629   7.883 -0.6723 -1.3198  1.5717
  855MOL0     H17935   3.112  10.563   7.650 -0.5866  0.6872  0.6889
  855MOL0     H17936   3.004  10.420   7.671 -1.9862 -0.1778  1.7224
  855MOL0     H17937   3.148  10.329   7.843  0.3219 -1.6037 -1.8991
  855MOL0     H17938   3.242  10.367   7.710 -2.2160 -1.1392 -1.1086
  855MOL0     H17939   3.305  10.663   7.758 -1.1095 -1.8661 -1.5841
  855MOL0     H17940   3.441  10.807   8.097 -0.1181 -1.5028  0.1641
  855MOL0     H17941   3.418  10.874   7.948 -0.1205  1.0966  3.5751
  855MOL0     H17942   3.653  10.702   8.042 -0.5535 -2.6348 -3.4430
  855MOL0     H17943   3.631  10.743   7.873  0.7694  0.5342 -0.6511
  855MOL0     H17944   3.642  10.992   7.932 -0.0668  1.5388  1.9658
  855MOL0     H17945   3.682  10.960   8.094 -2.2318  4.3903 -1.9176
  855MOL0     H17946   3.854  10.776   7.994  1.4084 -0.7956 -4.3207
  855MOL0     H17947   3.848  10.874   7.855  2.3231  0.2797  0.2352
  855MOL0     H17948   3.998  10.952   7.734  2.6523  1.9366 -2.3064
  855MOL0     H17949   4.262  10.996   7.546 -1.8363 -2.3312 -1.2190
  855MOL0     H17950   4.162  11.144   7.555 -0.2271 -0.7023 -1.7397
  855MOL0     H17951   4.091  10.974   7.571 -0.3616 -0.1329  1.8736
  855MOL0     H17952   4.640  11.013   7.861 -2.4841  1.3564 -0.6412
  855MOL0     H17953   4.878  11.009   7.855  1.7330  0.9127 -1.3872
  855MOL0     H17954   5.130  11.043   7.852  1.2984  1.0871  0.5725
  855MOL0     H17955   5.052  11.061   7.697  1.0051 -0.3097 -0.1182
  855MOL0     H17956   5.318  11.177   7.778  0.7471 -1.9147  0.6536
  855MOL0     H17957   5.281  11.060   7.644  1.3053  0.9449  0.8053
  855MOL0     H17958   5.184  11.337   7.646  1.2158  0.4250  0.3262
  855MOL0     H17959   5.169  11.210   7.510  0.4810 -1.4459 -0.0426
  855MOL0     H17960   5.411  11.225   7.489  0.7078  0.2856  1.0371
  855MOL0     H17961   5.411  11.351   7.615 -0.0277  0.7479  0.7079
  855MOL0     H17962   5.274  11.492   7.473 -1.3447 -0.4341 -0.5848
  855MOL0     H17963   5.432  11.453   7.414  0.1408 -1.3401  3.5656
  855MOL0     H17964   5.180  11.342   7.301  0.2169 -1.0604  2.0107
  855MOL0     H17965   5.336  11.273   7.261 -0.5668 -0.4242 -2.0470
  855MOL0     H17966   5.440  11.463   7.176  0.7338  0.2703 -3.8181
  855MOL0     H17967   5.298  11.576   7.232 -2.0197  0.1776 -1.9058
  855MOL0     H17968   5.280  11.336   7.035  1.0232  0.4339 -3.3402
  855MOL0     H17969   5.312  11.489   6.983  1.6343 -1.6130  0.7226
  855MOL0     H17970   4.892  11.425   7.772  1.2520 -0.1664  0.2306
  855MOL0     H17971   4.645  11.428   7.805  0.6348  0.0238  0.4721
  855MOL0     H17972   4.337  11.125   8.031  1.4434 -0.3726 -1.2904
  855MOL0     H17973   4.143  11.036   8.128 -1.3916  0.6976 -0.4114
  855MOL0     H17974   2.870   9.820   7.997 -0.7478 -1.4736 -0.6083
  855MOL0     H17975   3.047   9.637   7.994  2.4352  0.6070  1.4785
  855MOL0     H17976   3.311   9.305   7.675  1.5010  2.3087 -1.8318
  855MOL0     H17977   3.409   9.112   7.775 -0.4912  0.8799  0.1244
  855MOL0     H17978   3.503   9.110   8.175 -2.1799 -0.6214 -1.6163
  855MOL0     H17979   3.569   8.955   8.122  1.4454 -0.8968  4.1343
  855MOL0     H17980   3.757   9.197   8.147  0.9441 -0.2194 -1.5660
  855MOL0     H17981   3.794   9.032   8.114 -1.3016 -1.8144  0.2788
  855MOL0     H17982   3.691   8.950   8.328  0.5041 -0.4918 -0.7914
  855MOL0     H17983   3.845   9.013   8.318  0.1782 -1.9081 -1.1958
  855MOL0     H17984   3.657   9.236   8.365  3.4854  4.7385  1.1382
  855MOL0     H17985   3.818   9.206   8.431  0.2942 -0.5460 -1.6362
  855MOL0     H17986   3.626   9.038   8.758  0.6948  1.5192  1.8343
  855MOL0     H17987   3.592   9.347   8.083 -0.1242 -0.3689  1.1448
  855MOL0     H17988   3.497   9.666   7.899 -0.5705 -2.3115 -1.9558
  855MOL0     H17989   3.449   9.617   8.069 -0.0169 -0.7902  0.7730
  855MOL0     H17990   3.618   9.604   8.003  0.1643  2.2339 -1.5700
  856MOL0     O17991   6.971   4.744  10.973  0.2527 -0.1085 -0.4463
  856MOL0     C17992   6.923   4.726  11.089  0.5317 -0.1684 -0.0252
  856MOL0     O17993   6.856   4.614  11.129  0.5090  0.1370  0.1126
  856MOL0     C17994   6.792   4.538  11.038  0.1365  0.5982  0.8509
  856MOL0     C17995   6.831   4.403  11.019 -0.1596 -0.4484 -1.0013
  856MOL0     C17996   6.775   4.329  10.923 -0.1974  0.9705  0.2766
  856MOL0     C17997   6.670   4.380  10.844  0.4932  1.0211 -0.0096
  856MOL0     O17998   6.604   4.296  10.756  0.4443 -0.3328 -0.3953
  856MOL0     C17999   6.558   4.344  10.622 -0.4330 -0.3786 -0.4222
  856MOL0     C18000   6.436   4.261  10.569  1.3462  1.0632  0.4003
  856MOL0     C18001   6.320   4.271  10.675 -0.1395  0.5720  0.0539
  856MOL0     C18002   6.269   4.411  10.693 -0.0171  0.3590  0.4551
  856MOL0     C18003   6.281   4.448  10.840 -0.4372  0.8970 -0.0887
  856MOL0     C18004   6.268   4.601  10.873 -0.0023  0.1872  0.1792
  856MOL0     C18005   6.319   4.643  11.012  0.1496  0.1621 -0.4752
  856MOL0     C18006   6.276   4.789  11.047  1.0274 -0.1896 -0.1841
  856MOL0     N18007   6.332   4.842  11.173 -0.0812 -0.3690  0.2594
  856MOL0     C18008   6.294   4.793  11.291  0.1681 -0.3895 -0.7551
  856MOL0     C18009   6.357   4.877  11.380  0.1643  0.4983 -0.9624
  856MOL0     C18010   6.370   4.868  11.522 -0.2683  1.0281 -0.3051
  856MOL0     C18011   6.289   4.971  11.604  0.5574  0.2534  0.0569
  856MOL0     C18012   6.352   4.984  11.741 -0.2400 -0.8165 -1.0678
  856MOL0     C18013   6.259   5.051  11.843  0.2839  0.7694 -0.1045
  856MOL0     O18014   6.229   5.177  11.786 -0.7517 -0.0130 -0.0664
  856MOL0     C18015   6.098   5.225  11.764 -1.9964 -0.0656  0.0447
  856MOL0     C18016   5.986   5.146  11.744  0.3698  0.0858  0.5128
  856MOL0     C18017   5.864   5.207  11.716 -0.1305  0.7341  0.6081
  856MOL0     C18018   5.740   5.112  11.710 -0.7985  0.3646 -0.7553
  856MOL0     C18019   5.848   5.340  11.713 -0.5168 -0.3470 -0.0347
  856MOL0     C18020   5.718   5.405  11.695 -0.1308 -0.5866 -0.3129
  856MOL0     O18021   5.728   5.531  11.656  0.0411  0.0247  0.5728
  856MOL0     C18022   5.614   5.614  11.640  0.6032 -0.5342 -0.8128
  856MOL0     C18023   5.608   5.720  11.543 -0.4230  0.9199 -1.1283
  856MOL0     C18024   5.514   5.812  11.530  0.1133  0.1036  0.3565
  856MOL0     C18025   5.403   5.816  11.620  0.0074  0.0314 -0.5872
  856MOL0     O18026   5.312   5.911  11.611  0.8895 -0.6102  0.6065
  856MOL0     C18027   5.273   5.958  11.480 -0.2970  0.1496  0.7245
  856MOL0     C18028   5.156   6.048  11.483 -0.0317  0.3686  0.1026
  856MOL0     C18029   5.027   5.980  11.528  0.4252  0.6933 -0.1818
  856MOL0     C18030   4.985   6.000  11.675  0.4226 -0.3172  0.8094
  856MOL0     C18031   4.913   6.141  11.695 -0.1966 -0.1474 -0.5258
  856MOL0     C18032   4.840   6.161  11.826  0.6640 -0.7928  0.0514
  856MOL0     C18033   4.781   6.310  11.842  0.2944  0.0257  1.1116
  856MOL0     C18034   4.642   6.328  11.905  0.5213 -0.7049  0.8345
  856MOL0    Cl18035   4.639   6.328  12.089 -0.3618 -0.3593 -0.3840
  856MOL0     C18036   5.409   5.716  11.725  0.0622 -0.1193  0.5462
  856MOL0     C18037   5.513   5.623  11.738  0.4503  0.8867  0.0495
  856MOL0     O18038   5.612   5.349  11.701  0.0472 -0.0763 -0.3461
  856MOL0     C18039   5.969   5.421  11.719  0.0571  0.3478 -0.8192
  856MOL0     C18040   6.091   5.366  11.747  0.0721  0.3191 -1.0069
  856MOL0     N18041   6.437   4.960  11.310  0.1506 -0.7187 -0.2158
  856MOL0     N18042   6.438   4.928  11.192  0.3601 -0.7039 -0.0390
  856MOL0     C18043   6.635   4.514  10.858 -0.4195  0.6421  0.4681
  856MOL0     C18044   6.697   4.597  10.946  0.6372 -0.2232  0.5017
  856MOL0     C18045   6.919   4.843  11.178 -1.1970 -0.7422  0.9787
  856MOL0     C18046   6.801   4.865  11.243 -0.1872 -1.1944  0.8493
  856MOL0     C18047   6.800   4.961  11.347  0.0360 -0.1601 -0.2535
  856MOL0     C18048   6.909   5.037  11.390  0.0649  0.0541 -0.3108
  856MOL0     O18049   6.898   5.118  11.501 -0.2137 -0.1281  0.3138
  856MOL0     C18050   6.993   5.220  11.528 -0.0019 -0.3396  0.3259
  856MOL0     C18051   6.953   5.277  11.665 -0.8624  0.0167 -0.9725
  856MOL0     C18052   6.954   5.179  11.780  0.5116  0.3419  1.1992
  856MOL0     C18053   6.880   5.224  11.906 -0.7145 -0.1599  0.5747
  856MOL0     C18054   6.735   5.238  11.890 -0.0588  0.5183 -0.0279
  856MOL0     C18055   6.610   5.246  11.893 -0.6287 -0.5298  0.5155
  856MOL0     C18056   7.023   5.023  11.307  0.1526 -0.7399  0.1439
  856MOL0     C18057   7.031   4.931  11.199  0.4151 -0.5039 -0.6502
  856MOL0     C18058   7.152   4.913  11.119 -0.4479  0.4640  0.4795
  856MOL0     H18059   6.922   4.380  11.074  1.6935  1.5945 -2.9924
  856MOL0     H18060   6.819   4.233  10.900  1.8687  2.4601 -2.6717
  856MOL0     H18061   6.642   4.326  10.554  0.6459 -0.6394  0.9315
  856MOL0     H18062   6.539   4.452  10.615 -0.5172  0.0492  3.8410
  856MOL0     H18063   6.406   4.300  10.471 -0.0009 -2.5403 -0.7679
  856MOL0     H18064   6.444   4.154  10.552  0.4056  1.3644 -2.4237
  856MOL0     H18065   6.240   4.204  10.643 -1.3442  1.9596  0.0454
  856MOL0     H18066   6.360   4.224  10.766 -0.5358 -1.1170 -0.6054
  856MOL0     H18067   6.313   4.488  10.628  2.4745  2.0438  3.8479
  856MOL0     H18068   6.166   4.402  10.656  1.1667 -3.9468 -2.7319
  856MOL0     H18069   6.377   4.410  10.878 -1.6404  0.8323  3.1941
  856MOL0     H18070   6.199   4.398  10.890  0.7858  0.6023  1.7057
  856MOL0     H18071   6.319   4.662  10.797 -1.1713  2.4270  1.1229
  856MOL0     H18072   6.166   4.638  10.866  0.9581  3.1340  0.3827
  856MOL0     H18073   6.428   4.635  11.011  0.3274  1.6240  1.0095
  856MOL0     H18074   6.280   4.575  11.088 -1.3924 -1.3968 -2.5533
  856MOL0     H18075   6.301   4.849  10.959 -1.2917 -1.2024 -1.6272
  856MOL0     H18076   6.167   4.782  11.054  1.0662  0.8202  3.9741
  856MOL0     H18077   6.227   4.714  11.324  0.3185 -0.2940 -0.2150
  856MOL0     H18078   6.471   4.889  11.557 -0.5653  0.8901  0.6586
  856MOL0     H18079   6.328   4.774  11.558 -0.9501  1.0025 -1.1293
  856MOL0     H18080   6.288   5.069  11.556 -2.8643 -0.1539 -1.0175
  856MOL0     H18081   6.184   4.938  11.605  1.0847 -1.5314 -0.3851
  856MOL0     H18082   6.394   4.891  11.778  0.7873  0.1548  0.2947
  856MOL0     H18083   6.443   5.044  11.729 -1.1046  0.8988  0.3462
  856MOL0     H18084   6.171   4.993  11.874  0.3763 -0.2030 -1.5271
  856MOL0     H18085   6.326   5.062  11.928  2.0758 -0.4794 -1.2764
  856MOL0     H18086   5.987   5.039  11.760  2.2198  0.3060  2.3019
  856MOL0     H18087   5.772   5.013  11.744  1.6826  0.5497 -2.2865
  856MOL0     H18088   5.708   5.117  11.605 -1.6178 -2.5053 -0.7330
  856MOL0     H18089   5.670   5.151  11.785 -0.8428  1.0316 -1.1318
  856MOL0     H18090   5.699   5.717  11.484  2.5458  0.4050  3.0159
  856MOL0     H18091   5.536   5.886  11.454  0.1752 -1.1543 -0.8856
  856MOL0     H18092   5.346   6.035  11.452  0.4789 -0.4470  1.0566
  856MOL0     H18093   5.264   5.882  11.403 -2.7759  2.5077 -1.5075
  856MOL0     H18094   5.168   6.133  11.552 -2.0025  1.8884 -1.3067
  856MOL0     H18095   5.149   6.093  11.384  0.1959  0.1692 -0.0058
  856MOL0     H18096   5.026   5.871  11.515  0.5411  0.5980  0.5414
  856MOL0     H18097   4.956   6.029  11.462 -0.0811 -0.3745 -0.4635
  856MOL0     H18098   5.071   5.978  11.739  0.9232 -1.0820 -0.1050
  856MOL0     H18099   4.916   5.919  11.701  0.8138 -0.9143 -0.0070
  856MOL0     H18100   4.987   6.222  11.692  0.0535 -0.3435  0.1313
  856MOL0     H18101   4.843   6.147  11.611  1.3296 -1.3433 -1.9669
  856MOL0     H18102   4.911   6.141  11.907  2.4683  1.1185 -0.9555
  856MOL0     H18103   4.755   6.092  11.831 -2.8192  3.0596 -0.3309
  856MOL0     H18104   4.780   6.345  11.739  0.6080 -2.1977  0.3100
  856MOL0     H18105   4.858   6.366  11.897 -1.3174  2.2655  1.2575
  856MOL0     H18106   4.579   6.242  11.881  1.0416 -0.7231 -0.5666
  856MOL0     H18107   4.590   6.418  11.872 -0.5024 -1.0393  1.4900
  856MOL0     H18108   5.319   5.716  11.786 -2.1512  0.0641 -2.4998
  856MOL0     H18109   5.508   5.554  11.821  0.0795  0.6914 -0.1371
  856MOL0     H18110   5.940   5.525  11.729 -4.0182 -0.8085  1.6214
  856MOL0     H18111   6.185   5.418  11.759  0.8899 -1.0368 -1.3600
  856MOL0     H18112   6.549   4.562  10.812  0.1007 -1.0459 -2.5537
  856MOL0     H18113   6.673   4.703  10.947 -0.8013 -0.5220  2.0416
  856MOL0     H18114   6.715   4.803  11.221  0.2214 -1.8147  0.9694
  856MOL0     H18115   6.705   4.980  11.398  1.4050 -0.6978  2.6973
  856MOL0     H18116   7.093   5.177  11.542  0.1331  0.2357  1.2160
  856MOL0     H18117   6.993   5.298  11.452 -1.3540  3.9191  4.2398
  856MOL0     H18118   6.854   5.323  11.663 -0.4324  0.9940 -0.5294
  856MOL0     H18119   7.022   5.358  11.691 -1.3949 -0.0234  0.6763
  856MOL0     H18120   6.924   5.079  11.746  1.2890  0.3403  0.4880
  856MOL0     H18121   7.054   5.175  11.824  0.5843  1.4491  1.1555
  856MOL0     H18122   6.925   5.323  11.917 -1.9400  0.6308 -1.0720
  856MOL0     H18123   6.898   5.165  11.997  2.4207  3.1537  2.3780
  856MOL0     H18124   6.504   5.261  11.895 -0.5840 -0.1819  2.4215
  856MOL0     H18125   7.112   5.084  11.316  1.6922 -2.4409 -2.1873
  856MOL0     H18126   7.136   4.962  11.023 -1.7675 -0.8274  0.0005
  856MOL0     H18127   7.241   4.959  11.163 -0.5241  0.8151  0.2680
  856MOL0     H18128   7.184   4.811  11.096 -0.5257  0.9524 -2.1370
  857MOL0     O18129   9.658   4.478   8.893 -0.0351  0.0683 -0.0986
  857MOL0     C18130   9.634   4.445   9.011  0.3827  0.0010  0.3739
  857MOL0     O18131   9.682   4.509   9.121  0.6514  0.2709  0.3185
  857MOL0     C18132   9.787   4.582   9.103 -0.1866  0.5245  0.1128
  857MOL0     C18133   9.914   4.522   9.128  0.1766 -0.0987  0.5030
  857MOL0     C18134  10.031   4.592   9.116  0.0121  0.0772 -0.9769
  857MOL0     C18135  10.020   4.732   9.091 -0.0358 -0.5572  0.5059
  857MOL0     O18136  10.141   4.796   9.094  0.7335  0.3791 -1.1666
  857MOL0     C18137  10.146   4.928   9.039  0.6290  0.4668  0.4475
  857MOL0     C18138  10.300   4.985   9.033  0.1531 -0.3352 -0.5543
  857MOL0     C18139  10.394   4.950   9.157  0.4846 -0.6218 -0.1491
  857MOL0     C18140  10.426   5.047   9.277 -1.1786  0.2771 -0.3498
  857MOL0     C18141  10.538   4.974   9.358 -0.0909  0.2649 -0.5038
  857MOL0     C18142  10.578   5.062   9.484 -0.9988  0.4958 -0.4967
  857MOL0     C18143  10.689   4.980   9.563 -0.0057  0.5988 -0.0738
  857MOL0     C18144  10.705   5.057   9.701  0.5055  0.2859  0.8383
  857MOL0     N18145  10.814   5.015   9.790  1.2796 -0.3156  0.6450
  857MOL0     C18146  10.941   5.008   9.765 -0.8573 -0.4851 -0.4980
  857MOL0     C18147  11.001   4.946   9.872 -0.0208 -0.2935  0.2626
  857MOL0     C18148  11.134   4.908   9.878  0.1000  0.5767 -0.4010
  857MOL0     C18149  11.140   4.755   9.880  0.4289  0.6428 -0.0756
  857MOL0     C18150  11.180   4.674   9.759  0.4346 -0.4955 -0.2160
  857MOL0     C18151  11.082   4.682   9.644  0.4954  0.1879 -0.4068
  857MOL0     O18152  11.133   4.637   9.524 -0.2497 -0.1381  0.5217
  857MOL0     C18153  11.052   4.617   9.412 -0.2656  0.0734 -0.3352
  857MOL0     C18154  11.110   4.593   9.288  0.1294  0.4539  0.0488
  857MOL0     C18155  11.040   4.565   9.169 -0.6346  0.2688 -0.0259
  857MOL0     C18156  11.134   4.543   9.047  0.1968 -0.0765  0.1748
  857MOL0     C18157  10.895   4.563   9.174 -0.0240  0.6172 -0.6586
  857MOL0     C18158  10.803   4.554   9.066  0.5870  0.1080  0.0057
  857MOL0     O18159  10.667   4.552   9.097  0.3841  0.4524  0.4701
  857MOL0     C18160  10.582   4.539   8.982  0.1611  0.0357  0.0822
  857MOL0     C18161  10.539   4.418   8.928 -0.3559  0.4269  0.6338
  857MOL0     C18162  10.439   4.422   8.819 -0.5659  0.6581 -0.4377
  857MOL0     C18163  10.396   4.542   8.767 -0.9356 -0.1104  0.1833
  857MOL0     O18164  10.290   4.550   8.677 -0.0926 -0.7435  0.4417
  857MOL0     C18165  10.168   4.602   8.742 -0.1780 -0.0585 -0.3754
  857MOL0     C18166  10.044   4.554   8.662 -0.2798  0.7485  0.3195
  857MOL0     C18167  10.044   4.609   8.522  0.1453  0.0650 -0.4302
  857MOL0     C18168   9.922   4.566   8.434 -0.1623 -0.6392 -0.0415
  857MOL0     C18169   9.925   4.619   8.296  0.1640 -0.4162 -0.5691
  857MOL0     C18170   9.892   4.762   8.279  0.1997 -0.0825 -0.4576
  857MOL0     C18171   9.900   4.823   8.138 -0.0366 -0.1341 -1.1170
  857MOL0     C18172   9.864   4.972   8.132 -0.9728  0.0913  0.1214
  857MOL0    Cl18173   9.996   5.061   8.226  0.3181  0.2700  0.1049
  857MOL0     C18174  10.449   4.664   8.819 -0.2852  0.7467 -0.2255
  857MOL0     C18175  10.543   4.655   8.921  0.3790 -0.6293  0.0167
  857MOL0     O18176  10.853   4.561   8.951 -0.1813 -0.9926 -0.0541
  857MOL0     C18177  10.833   4.594   9.304 -0.4724  0.1818  0.1454
  857MOL0     C18178  10.914   4.618   9.417  0.3179 -0.3431 -0.1302
  857MOL0     N18179  10.897   4.936   9.966 -0.8796  0.2357  0.8407
  857MOL0     N18180  10.780   4.970   9.910 -0.0035 -0.9595  0.1603
  857MOL0     C18181   9.894   4.789   9.063 -0.0369 -0.0604  0.4653
  857MOL0     C18182   9.777   4.710   9.060 -1.3471 -0.2926  0.3923
  857MOL0     C18183   9.545   4.328   9.036  0.3949  0.1371  0.2195
  857MOL0     C18184   9.525   4.298   9.166  0.8312  0.3918 -0.7103
  857MOL0     C18185   9.435   4.196   9.207 -0.3103  0.1486  0.6291
  857MOL0     C18186   9.384   4.102   9.115  0.0391 -0.1286  0.1482
  857MOL0     O18187   9.323   3.983   9.142  0.1653 -0.2359 -0.2581
  857MOL0     C18188   9.327   3.930   9.273 -0.0764  0.4762 -0.5910
  857MOL0     C18189   9.230   3.813   9.288  0.2426  1.0454 -0.3580
  857MOL0     C18190   9.243   3.713   9.175 -0.0732 -0.8841  0.7688
  857MOL0     C18191   9.194   3.581   9.222  0.3402  0.0893  0.1986
  857MOL0     C18192   9.304   3.502   9.292  0.5722 -0.6994  0.1864
  857MOL0     C18193   9.389   3.456   9.358 -0.2110 -0.3490 -0.4501
  857MOL0     C18194   9.395   4.137   8.981 -0.3796  0.5605  0.6180
  857MOL0     C18195   9.474   4.250   8.938  0.2827  1.3291 -1.3110
  857MOL0     C18196   9.471   4.282   8.792 -0.4576  0.7933 -0.9266
  857MOL0     H18197   9.920   4.417   9.153  1.1085 -0.7048 -1.9537
  857MOL0     H18198  10.124   4.544   9.143 -0.1988  1.3158  2.6354
  857MOL0     H18199  10.094   5.004   9.099 -0.2796 -0.7566  1.2631
  857MOL0     H18200  10.111   4.938   8.936  0.4766  0.2771  0.4809
  857MOL0     H18201  10.345   4.951   8.939  2.4848  0.4832  0.2028
  857MOL0     H18202  10.290   5.093   9.028  1.2172 -0.2639 -1.6819
  857MOL0     H18203  10.339   4.867   9.201  0.1020  1.1931  3.1627
  857MOL0     H18204  10.493   4.920   9.120  1.6666  3.2902 -0.6640
  857MOL0     H18205  10.465   5.140   9.236 -1.4960  0.9671  0.8742
  857MOL0     H18206  10.333   5.060   9.333 -1.6765  0.6839 -1.2546
  857MOL0     H18207  10.630   4.950   9.304 -0.8349 -1.2978 -1.1316
  857MOL0     H18208  10.507   4.872   9.382  1.2612 -0.3808 -1.3764
  857MOL0     H18209  10.614   5.159   9.449 -0.9015  0.1433 -1.4121
  857MOL0     H18210  10.497   5.065   9.558  1.0135  2.3185  1.7905
  857MOL0     H18211  10.786   4.970   9.513 -1.6534 -2.2294 -3.1176
  857MOL0     H18212  10.647   4.879   9.570  0.7212  0.1774 -1.4460
  857MOL0     H18213  10.718   5.164   9.681  0.4661 -0.0891 -1.3392
  857MOL0     H18214  10.608   5.045   9.750 -0.3956 -0.4413 -1.0576
  857MOL0     H18215  10.988   5.034   9.671  0.4377  2.2830  0.7883
  857MOL0     H18216  11.172   4.946   9.973 -0.0673 -0.4862  0.1076
  857MOL0     H18217  11.199   4.943   9.796 -1.3391  0.4030 -1.6656
  857MOL0     H18218  11.217   4.731   9.954  2.0758  1.0975 -1.5809
  857MOL0     H18219  11.051   4.708   9.923  1.8358 -2.6954 -0.5179
  857MOL0     H18220  11.278   4.711   9.728  1.3301 -3.0023 -0.6128
  857MOL0     H18221  11.196   4.568   9.781  0.4845 -0.4759 -0.1584
  857MOL0     H18222  11.001   4.615   9.676 -0.2455  1.0857 -0.3601
  857MOL0     H18223  11.052   4.785   9.621  4.5663  1.6438  0.0711
  857MOL0     H18224  11.218   4.595   9.288  0.1888 -0.9974  0.9051
  857MOL0     H18225  11.104   4.459   8.983  2.6450 -1.3443  0.5623
  857MOL0     H18226  11.237   4.539   9.081 -0.1122  1.3678  1.3780
  857MOL0     H18227  11.125   4.629   8.981 -0.4749 -0.7169 -0.6015
  857MOL0     H18228  10.568   4.317   8.956  0.6240  0.5110 -0.0306
  857MOL0     H18229  10.409   4.332   8.766 -1.2538  1.3572 -1.2482
  857MOL0     H18230  10.164   4.564   8.844 -3.4664 -2.8002 -1.3289
  857MOL0     H18231  10.163   4.711   8.734 -0.5335 -0.1117 -0.9563
  857MOL0     H18232  10.062   4.448   8.643 -0.9329  1.1309 -3.1182
  857MOL0     H18233   9.955   4.570   8.724  0.8531  0.1459  2.1851
  857MOL0     H18234  10.140   4.583   8.477  0.4638 -1.4690  1.0234
  857MOL0     H18235  10.036   4.717   8.536  3.2765  0.6201 -1.9953
  857MOL0     H18236   9.826   4.586   8.484  1.0530 -0.5645  2.4142
  857MOL0     H18237   9.929   4.458   8.424 -0.0850 -0.6435  0.0637
  857MOL0     H18238  10.021   4.600   8.246  0.1423  1.6534 -1.5244
  857MOL0     H18239   9.851   4.553   8.249 -0.0612 -1.8860  1.7076
  857MOL0     H18240   9.959   4.820   8.342 -0.5636  1.9630 -1.4348
  857MOL0     H18241   9.794   4.769   8.326  0.3119 -1.4205  0.0198
  857MOL0     H18242   9.837   4.756   8.079  0.4290 -1.5400 -0.0696
  857MOL0     H18243  10.001   4.821   8.097 -0.6012 -0.8374 -2.5824
  857MOL0     H18244   9.770   4.985   8.186 -0.4242 -1.3115  1.4906
  857MOL0     H18245   9.850   5.008   8.030  0.5203  1.4241  0.3404
  857MOL0     H18246  10.421   4.762   8.782 -0.8104 -0.0700 -2.1261
  857MOL0     H18247  10.597   4.743   8.955 -2.0075  0.3592  1.4271
  857MOL0     H18248  10.726   4.593   9.318 -0.6254 -0.7287 -0.9770
  857MOL0     H18249  10.852   4.651   9.500  2.0810  5.7824 -0.7698
  857MOL0     H18250   9.889   4.896   9.041 -0.1924 -0.6507 -2.7288
  857MOL0     H18251   9.679   4.754   9.043 -1.1506  0.9297  2.1808
  857MOL0     H18252   9.568   4.355   9.247 -1.1824  1.7832 -0.5527
  857MOL0     H18253   9.417   4.189   9.314 -1.7381  0.1794  0.4046
  857MOL0     H18254   9.428   3.891   9.290  0.3115  1.2437 -1.0441
  857MOL0     H18255   9.295   4.000   9.351 -3.1272 -2.6747  1.2225
  857MOL0     H18256   9.129   3.853   9.286 -0.3727 -0.2824  1.8215
  857MOL0     H18257   9.250   3.766   9.384  3.5892  0.9095 -0.9785
  857MOL0     H18258   9.190   3.753   9.088 -0.3337 -1.9063  0.4366
  857MOL0     H18259   9.350   3.706   9.154  0.0499 -1.1203  1.4703
  857MOL0     H18260   9.156   3.528   9.135 -2.1414  1.7671  0.1526
  857MOL0     H18261   9.123   3.598   9.303  0.7481 -1.7117  0.9939
  857MOL0     H18262   9.458   3.420   9.431 -2.0910  0.2671  1.7535
  857MOL0     H18263   9.339   4.080   8.907  1.5242 -1.1000  0.3566
  857MOL0     H18264   9.575   4.291   8.760 -0.4902 -1.1814 -1.7076
  857MOL0     H18265   9.430   4.192   8.745 -0.4695  0.6325 -0.6140
  857MOL0     H18266   9.402   4.365   8.773 -1.9722 -0.4565 -1.0995
  858MOL0     O18267   2.485   3.180   5.389  0.6362  0.5421  0.1060
  858MOL0     C18268   2.410   3.184   5.292  0.1949  0.4191 -0.0443
  858MOL0     O18269   2.348   3.073   5.237 -0.4687 -0.3059 -0.6040
  858MOL0     C18270   2.313   2.955   5.304 -0.3055 -0.4369  0.8284
  858MOL0     C18271   2.252   2.953   5.432 -0.1299 -0.5008 -0.0541
  858MOL0     C18272   2.206   2.829   5.488 -0.5280 -0.4467 -0.0547
  858MOL0     C18273   2.226   2.708   5.415  0.3029 -0.3490  0.3073
  858MOL0     O18274   2.169   2.590   5.457 -0.0748 -0.6802  0.0024
  858MOL0     C18275   2.226   2.466   5.436  0.4510 -0.9673  0.5633
  858MOL0     C18276   2.145   2.354   5.483 -0.3004 -0.1284 -1.3041
  858MOL0     C18277   2.004   2.326   5.433  0.6051  0.4343  0.2462
  858MOL0     C18278   1.957   2.184   5.487  0.4257 -0.5693 -0.0120
  858MOL0     C18279   1.809   2.149   5.457 -0.4459 -0.1133 -0.1866
  858MOL0     C18280   1.751   2.034   5.529  0.1086 -0.1346 -0.8559
  858MOL0     C18281   1.768   1.906   5.448 -0.3088 -0.0782 -0.2860
  858MOL0     C18282   1.731   1.782   5.528 -0.2542 -0.0033 -1.0302
  858MOL0     N18283   1.738   1.662   5.442 -0.1736 -0.2929 -0.5061
  858MOL0     C18284   1.846   1.583   5.428  0.3262  0.3192 -0.2529
  858MOL0     C18285   1.824   1.508   5.322  0.0113 -0.7398 -1.0959
  858MOL0     C18286   1.921   1.420   5.254  0.5776  0.1629 -0.5885
  858MOL0     C18287   1.862   1.291   5.184 -0.1271 -0.3729 -0.7094
  858MOL0     C18288   1.838   1.309   5.025  0.5167  0.0488 -0.7570
  858MOL0     C18289   1.752   1.195   4.965 -0.6791 -0.7697  0.1129
  858MOL0     O18290   1.809   1.079   5.016  0.2362 -0.3730  0.8788
  858MOL0     C18291   1.788   0.961   4.949  0.2724  0.6786 -0.2799
  858MOL0     C18292   1.852   0.841   5.000 -0.3082 -0.5334  0.3634
  858MOL0     C18293   1.832   0.711   4.941  0.3143  0.6900 -0.0264
  858MOL0     C18294   1.894   0.594   5.017 -0.4912 -0.7314 -0.0258
  858MOL0     C18295   1.731   0.690   4.841 -0.4776  0.4080  0.0775
  858MOL0     C18296   1.688   0.558   4.785 -0.1396  0.4927 -0.1716
  858MOL0     O18297   1.556   0.520   4.801  0.9038 -0.3283  0.4231
  858MOL0     C18298   1.524   0.429   4.703  0.0637 -0.2250 -0.5074
  858MOL0     C18299   1.542   0.452   4.567 -0.3684 -0.9236 -0.0579
  858MOL0     C18300   1.497   0.359   4.472 -0.5853 -0.4479  0.1375
  858MOL0     C18301   1.435   0.238   4.520 -0.6426 -0.7537  0.0460
  858MOL0     O18302   1.401   0.147   4.427  0.1310 -0.1277  0.3792
  858MOL0     C18303   1.355   0.007   4.452 -0.5442  0.4173  0.0583
  858MOL0     C18304   1.302  -0.041   4.317 -0.0692  0.7669  0.5682
  858MOL0     C18305   1.208  -0.161   4.321  0.1784 -0.4168 -0.0394
  858MOL0     C18306   1.156  -0.184   4.173 -0.9551  0.5070 -0.9010
  858MOL0     C18307   1.012  -0.144   4.148 -0.4664  0.0816  0.1096
  858MOL0     C18308   0.980  -0.145   4.000  0.2309  0.6141  1.2100
  858MOL0     C18309   0.838  -0.111   3.965  0.3400  0.2487 -0.4387
  858MOL0     C18310   0.739  -0.204   4.026 -0.3851  0.7275 -0.4239
  858MOL0    Cl18311   0.735  -0.363   3.934 -0.3112 -0.4777  0.1180
  858MOL0     C18312   1.430   0.212   4.661 -0.2297  0.5155  0.3086
  858MOL0     C18313   1.469   0.315   4.751 -0.0096  0.0856 -0.0196
  858MOL0     O18314   1.784   0.484   4.739 -0.0429  0.3247 -0.2906
  858MOL0     C18315   1.669   0.809   4.783  0.2539  0.0343 -0.8707
  858MOL0     C18316   1.694   0.937   4.845  0.3545 -1.0696  0.3083
  858MOL0     N18317   1.694   1.542   5.273  0.3085 -0.0172  0.1628
  858MOL0     N18318   1.662   1.650   5.339 -0.7383  0.7591  1.1419
  858MOL0     C18319   2.289   2.712   5.290  0.1551  0.7930 -1.0176
  858MOL0     C18320   2.336   2.833   5.238  0.7284  0.4230 -0.3637
  858MOL0     C18321   2.390   3.309   5.216  0.8208  0.2867  0.4010
  858MOL0     C18322   2.357   3.300   5.079 -0.3723 -0.2538  0.2501
  858MOL0     C18323   2.349   3.418   5.001 -1.4792 -0.2328 -0.6109
  858MOL0     C18324   2.385   3.547   5.048 -0.6310  0.3217 -0.3899
  858MOL0     O18325   2.379   3.663   4.975  0.2752 -0.4458  0.4760
  858MOL0     C18326   2.420   3.674   4.837  0.3222 -1.0492  0.7592
  858MOL0     C18327   2.456   3.823   4.803  0.1099 -0.4071  1.2268
  858MOL0     C18328   2.330   3.922   4.790 -0.3319 -0.1490 -0.0988
  858MOL0     C18329   2.375   4.065   4.747  0.2437 -0.4823 -0.0933
  858MOL0     C18330   2.259   4.144   4.707  0.1758 -0.2108 -0.1644
  858MOL0     C18331   2.159   4.210   4.684  0.2830  0.5597 -0.0919
  858MOL0     C18332   2.428   3.548   5.183  0.4048  0.9504 -0.0268
  858MOL0     C18333   2.417   3.439   5.272 -0.1428  0.3057  0.2942
  858MOL0     C18334   2.460   3.477   5.410  0.1904 -0.7597 -0.0702
  858MOL0     H18335   2.250   3.042   5.493 -3.0699  0.9673 -2.0555
  858MOL0     H18336   2.170   2.816   5.590 -1.7254  0.4334 -0.3514
  858MOL0     H18337   2.321   2.475   5.489  0.1087 -0.4291  1.0858
  858MOL0     H18338   2.242   2.465   5.328 -2.4476 -0.9479  0.0481
  858MOL0     H18339   2.201   2.261   5.470 -0.3734 -0.2320 -0.8993
  858MOL0     H18340   2.124   2.374   5.588 -0.9703  2.9309 -1.9417
  858MOL0     H18341   1.937   2.411   5.448 -0.1810  0.1459 -1.4532
  858MOL0     H18342   2.006   2.317   5.324 -2.8060  1.7941 -0.0516
  858MOL0     H18343   2.018   2.104   5.444  0.1342 -1.3133  0.8995
  858MOL0     H18344   1.966   2.175   5.596 -1.4637 -3.4884  0.0230
  858MOL0     H18345   1.793   2.137   5.349  1.1884 -1.8430 -0.2847
  858MOL0     H18346   1.756   2.242   5.478  1.6609  1.0712  0.1179
  858MOL0     H18347   1.799   2.030   5.628  1.1868 -1.0195 -1.3931
  858MOL0     H18348   1.650   2.064   5.557  1.9370  2.0823  5.0672
  858MOL0     H18349   1.870   1.893   5.411 -1.3207  0.1958 -3.4447
  858MOL0     H18350   1.694   1.917   5.368  1.1443  0.6005 -1.5897
  858MOL0     H18351   1.800   1.777   5.613 -0.2433 -0.0408 -1.0408
  858MOL0     H18352   1.633   1.774   5.576 -0.6932  0.5674 -1.8210
  858MOL0     H18353   1.943   1.584   5.477  1.3448  0.6543 -2.1586
  858MOL0     H18354   2.002   1.386   5.319 -0.4734 -0.7697  0.2586
  858MOL0     H18355   1.959   1.494   5.182 -0.2185 -0.7710 -2.0343
  858MOL0     H18356   1.934   1.212   5.210  0.0539 -0.1218 -0.4446
  858MOL0     H18357   1.763   1.267   5.222 -0.0697 -2.3283 -1.6370
  858MOL0     H18358   1.781   1.401   5.005 -0.4440 -0.0279  1.3997
  858MOL0     H18359   1.933   1.317   4.971  0.8403 -1.3740 -0.4304
  858MOL0     H18360   1.644   1.201   4.980 -0.8459 -1.7481 -0.6090
  858MOL0     H18361   1.772   1.195   4.857 -1.9120  0.4283 -0.1402
  858MOL0     H18362   1.923   0.840   5.083 -3.6348 -1.1573  3.4518
  858MOL0     H18363   1.827   0.507   5.022  1.2547 -2.0861  0.8815
  858MOL0     H18364   1.931   0.621   5.116 -0.4114  0.3652 -0.3469
  858MOL0     H18365   1.981   0.549   4.969 -1.0500 -0.9884 -0.8239
  858MOL0     H18366   1.591   0.542   4.530  0.7755 -1.7287 -0.5497
  858MOL0     H18367   1.502   0.389   4.368 -1.4831 -1.6886 -0.2935
  858MOL0     H18368   1.433  -0.058   4.494  2.2156  3.2566 -0.2789
  858MOL0     H18369   1.270   0.015   4.520  0.1158  3.5631  0.6473
  858MOL0     H18370   1.254   0.042   4.264  0.7134 -0.6392 -2.5096
  858MOL0     H18371   1.392  -0.062   4.259  0.5716  1.1224  1.3999
  858MOL0     H18372   1.125  -0.156   4.392  1.1541 -0.4778  1.1311
  858MOL0     H18373   1.272  -0.244   4.352 -0.3318 -0.0075  2.3482
  858MOL0     H18374   1.171  -0.292   4.164  0.1428  0.2655  2.5726
  858MOL0     H18375   1.223  -0.132   4.104 -0.3572 -0.1374 -0.8185
  858MOL0     H18376   0.948  -0.222   4.192 -1.7320  0.6204 -0.6994
  858MOL0     H18377   0.984  -0.046   4.187 -1.1033  1.4729 -3.4350
  858MOL0     H18378   1.002  -0.244   3.960 -0.9052  0.5661  0.6475
  858MOL0     H18379   1.021  -0.062   3.941 -2.4767  0.0998 -1.7111
  858MOL0     H18380   0.813  -0.106   3.859 -0.3986  0.8508 -0.2477
  858MOL0     H18381   0.821  -0.009   3.999  2.7255  2.2577 -4.5250
  858MOL0     H18382   0.640  -0.156   4.030 -0.6987  0.0365  3.1304
  858MOL0     H18383   0.753  -0.232   4.130 -1.9135 -0.5610 -0.5181
  858MOL0     H18384   1.412   0.114   4.705  4.2394 -1.2165 -1.1846
  858MOL0     H18385   1.481   0.285   4.854 -0.7220  0.4886  0.1830
  858MOL0     H18386   1.593   0.809   4.707 -2.2889  2.3943  1.4318
  858MOL0     H18387   1.631   1.019   4.813  1.5595 -1.1882 -2.7744
  858MOL0     H18388   2.305   2.626   5.226  2.5470  0.0388  0.4689
  858MOL0     H18389   2.384   2.840   5.141 -1.5158  2.4681 -1.4394
  858MOL0     H18390   2.336   3.205   5.030  1.2281 -1.1271  1.1636
  858MOL0     H18391   2.338   3.390   4.896 -0.3250  1.6936 -1.3018
  858MOL0     H18392   2.516   3.621   4.828  1.3993  1.0203 -0.8069
  858MOL0     H18393   2.345   3.632   4.770 -1.4817  1.8939  0.7715
  858MOL0     H18394   2.510   3.819   4.708  0.2953 -0.5986  1.3410
  858MOL0     H18395   2.510   3.859   4.890 -4.2997  2.3890  3.1794
  858MOL0     H18396   2.262   3.883   4.715 -1.6895 -1.6392  1.8076
  858MOL0     H18397   2.298   3.930   4.894  0.1224 -0.8490  0.1007
  858MOL0     H18398   2.439   4.064   4.659  1.4001  1.7452  0.6452
  858MOL0     H18399   2.441   4.107   4.824  0.0900  3.3376 -1.8140
  858MOL0     H18400   2.075   4.269   4.654  0.2617  0.4365 -0.2716
  858MOL0     H18401   2.456   3.644   5.225  0.7609  0.5699  0.6123
  858MOL0     H18402   2.550   3.427   5.445  0.2993 -1.4363 -1.2814
  858MOL0     H18403   2.494   3.581   5.414  3.6881 -1.8002  0.5798
  858MOL0     H18404   2.382   3.458   5.484  0.7657 -1.8389  0.2659
  859MOL0     O18405   0.669  10.719  10.119 -0.1921  0.6629 -0.1046
  859MOL0     C18406   0.589  10.697  10.208 -0.9126  0.2385  0.2397
  859MOL0     O18407   0.550  10.792  10.306 -0.2363 -0.3294  0.3613
  859MOL0     C18408   0.576  10.922  10.298  0.8853 -0.1413 -0.4360
  859MOL0     C18409   0.567  10.986  10.423 -0.6607 -0.2175  0.0807
  859MOL0     C18410   0.600  11.123  10.444 -0.2429 -0.4115  0.0381
  859MOL0     C18411   0.648  11.197  10.340  0.4312  0.0947  0.0386
  859MOL0     O18412   0.670  11.330  10.369 -0.1507  0.6304 -0.1039
  859MOL0     C18413   0.784  11.393  10.310 -0.0959 -0.6792  0.1706
  859MOL0     C18414   0.925  11.321  10.305  0.1795  0.6604  0.1371
  859MOL0     C18415   1.037  11.390  10.222  0.8996 -0.4170 -0.4655
  859MOL0     C18416   1.163  11.304  10.237  0.5213 -0.0479 -0.2379
  859MOL0     C18417   1.280  11.377  10.197 -0.0793 -0.1210 -0.9011
  859MOL0     C18418   1.412  11.307  10.227 -0.7116  0.8212 -0.8150
  859MOL0     C18419   1.466  11.323  10.368  0.1222 -0.7564  0.0640
  859MOL0     C18420   1.536  11.456  10.395  0.7090 -0.3606  0.2752
  859MOL0     N18421   1.604  11.460  10.534  0.4720  0.3523  1.1715
  859MOL0     C18422   1.621  11.574  10.603  0.2633 -0.4179 -0.4637
  859MOL0     C18423   1.667  11.531  10.721 -0.0382 -0.9793  0.6937
  859MOL0     C18424   1.704  11.615  10.840  0.1286 -0.3681  0.4166
  859MOL0     C18425   1.838  11.566  10.881  0.5006 -0.1747  0.3006
  859MOL0     C18426   1.902  11.663  10.986  0.0983  0.6088  0.2179
  859MOL0     C18427   2.041  11.608  11.026 -0.3230  0.2349 -0.1012
  859MOL0     O18428   2.102  11.711  11.093 -0.5122 -0.3294 -0.7827
  859MOL0     C18429   2.113  11.712  11.231 -0.6536  0.7748  0.1224
  859MOL0     C18430   2.217  11.783  11.282 -0.0701 -0.2031  0.2693
  859MOL0     C18431   2.237  11.800  11.420 -0.1472 -0.1987  0.5498
  859MOL0     C18432   2.366  11.878  11.456  0.4492 -0.8196 -0.2846
  859MOL0     C18433   2.135  11.756  11.510  0.7288  0.4551  0.2243
  859MOL0     C18434   2.145  11.758  11.652 -0.9030 -0.3581  0.3259
  859MOL0     O18435   2.235  11.852  11.698 -0.2151  0.6371 -0.5229
  859MOL0     C18436   2.274  11.839  11.826 -1.1955 -0.0440 -0.2570
  859MOL0     C18437   2.293  11.951  11.903 -0.4177  0.3721  0.1437
  859MOL0     C18438   2.349  11.946  12.023 -0.0910  0.7202  0.1135
  859MOL0     C18439   2.413  11.831  12.069  0.1936 -0.2724  0.3882
  859MOL0     O18440   2.476  11.833  12.188  0.3732 -0.0903  0.0162
  859MOL0     C18441   2.610  11.800  12.203 -0.3911 -0.3235  0.2259
  859MOL0     C18442   2.674  11.912  12.283  0.6642  0.5708  1.2739
  859MOL0     C18443   2.818  11.873  12.322 -0.3957  0.3066  0.0987
  859MOL0     C18444   2.885  11.997  12.399 -0.6778  0.4044  0.4588
  859MOL0     C18445   3.029  11.971  12.441  0.1912  0.6996  0.6571
  859MOL0     C18446   3.126  11.971  12.317  0.3112  0.4836 -0.0475
  859MOL0     C18447   3.273  11.959  12.375 -0.2105 -0.1395 -0.6408
  859MOL0     C18448   3.371  11.951  12.256  0.0516 -0.1795  0.5008
  859MOL0    Cl18449   3.532  11.897  12.301 -0.4161 -0.5997  0.6377
  859MOL0     C18450   2.389  11.712  12.001  0.6116  0.1790  1.1405
  859MOL0     C18451   2.324  11.710  11.880  0.4188  0.0959 -0.0429
  859MOL0     O18452   2.070  11.690  11.715  0.2314  0.8450 -0.3940
  859MOL0     C18453   2.023  11.690  11.452 -0.9776 -0.2817  0.6457
  859MOL0     C18454   2.012  11.661  11.315 -0.3881 -0.1252  0.3717
  859MOL0     N18455   1.669  11.394  10.723  0.3591 -0.1628  0.4903
  859MOL0     N18456   1.617  11.353  10.611 -1.0043  0.5166 -0.7450
  859MOL0     C18457   0.664  11.133  10.212 -1.3222  0.1289 -0.5775
  859MOL0     C18458   0.628  11.003  10.193 -0.1208 -0.4116  0.3122
  859MOL0     C18459   0.536  10.565  10.218 -0.2800 -0.0688 -0.1773
  859MOL0     C18460   0.419  10.551  10.292 -0.0913  0.0176  0.8398
  859MOL0     C18461   0.357  10.426  10.311  0.5094  0.4749 -0.7960
  859MOL0     C18462   0.415  10.318  10.242 -0.0653  0.7995 -0.0637
  859MOL0     O18463   0.352  10.191  10.244  0.0353 -0.3828 -0.0353
  859MOL0     C18464   0.288  10.156  10.369  0.1518 -0.7333  0.6613
  859MOL0     C18465   0.313  10.006  10.390  0.0887 -0.3971  0.3349
  859MOL0     C18466   0.188   9.936  10.325  0.6159  0.5043  0.2182
  859MOL0     C18467   0.153   9.795  10.390  0.0046  0.4947 -0.0868
  859MOL0     C18468   0.123   9.800  10.536 -0.3593  0.1558  0.0728
  859MOL0     C18469   0.097   9.785  10.657  0.1342 -0.5531 -0.3881
  859MOL0     C18470   0.518  10.330  10.164  0.0588  0.4391  0.3930
  859MOL0     C18471   0.588  10.448  10.155  0.4060 -0.1038 -0.5217
  859MOL0     C18472   0.715  10.454  10.062 -0.0790 -0.5605 -0.2428
  859MOL0     H18473   0.523  10.924  10.500  1.4511  1.8502  3.1612
  859MOL0     H18474   0.592  11.173  10.540 -2.6531 -0.1334 -0.2475
  859MOL0     H18475   0.799  11.489  10.362 -0.8934 -1.0618  1.1473
  859MOL0     H18476   0.752  11.422  10.210  3.4385  0.3243 -0.8247
  859MOL0     H18477   0.952  11.316  10.411 -1.0444 -0.0743  0.4378
  859MOL0     H18478   0.918  11.215  10.280  3.1098 -0.1501  2.1941
  859MOL0     H18479   0.998  11.391  10.120 -1.2516 -1.7549  0.2671
  859MOL0     H18480   1.063  11.487  10.264  2.0342 -0.6266 -0.6624
  859MOL0     H18481   1.169  11.286  10.345  0.4438 -0.0809 -0.2391
  859MOL0     H18482   1.165  11.218  10.170  0.5570 -1.0542  1.0170
  859MOL0     H18483   1.297  11.471  10.250 -2.1115 -0.1252 -0.1444
  859MOL0     H18484   1.277  11.399  10.090  0.4370 -1.1546 -1.1380
  859MOL0     H18485   1.402  11.198  10.221  0.3654  0.4318  2.4928
  859MOL0     H18486   1.488  11.343  10.157  0.6971 -0.0681  0.2065
  859MOL0     H18487   1.533  11.239  10.389 -0.9204 -1.4547  0.7506
  859MOL0     H18488   1.387  11.300  10.441 -0.0471 -0.0537  0.1087
  859MOL0     H18489   1.611  11.468  10.316  1.8747 -0.5116  1.3309
  859MOL0     H18490   1.465  11.538  10.408 -0.5165 -1.3930  0.2608
  859MOL0     H18491   1.612  11.676  10.566  2.1931 -0.6902 -1.8211
  859MOL0     H18492   1.613  11.610  10.900 -0.7963  1.1736 -0.7833
  859MOL0     H18493   1.713  11.722  10.820  0.7186  0.8524  5.7797
  859MOL0     H18494   1.823  11.475  10.940  1.5129 -2.4890 -2.7378
  859MOL0     H18495   1.909  11.553  10.799  2.7789  0.9480  1.9974
  859MOL0     H18496   1.909  11.764  10.945 -0.4371  0.9468  0.9365
  859MOL0     H18497   1.837  11.675  11.074  0.2329  3.2396  0.0290
  859MOL0     H18498   2.047  11.519  11.088  3.2436  0.2778 -0.1641
  859MOL0     H18499   2.098  11.593  10.934  1.9239  0.3400  1.1919
  859MOL0     H18500   2.292  11.812  11.209  0.4238 -2.1604 -0.0594
  859MOL0     H18501   2.438  11.887  11.374  2.4163 -1.8742  1.2565
  859MOL0     H18502   2.413  11.811  11.528 -3.1001 -3.5535 -0.2267
  859MOL0     H18503   2.334  11.974  11.497 -2.9470 -0.3467 -3.4548
  859MOL0     H18504   2.247  12.035  11.853 -1.7459 -0.7925 -0.6760
  859MOL0     H18505   2.338  12.041  12.074 -1.3335 -0.1464  1.5306
  859MOL0     H18506   2.628  11.708  12.259  1.9113  0.7234  1.3597
  859MOL0     H18507   2.655  11.797  12.103  4.0597 -0.4275  2.0140
  859MOL0     H18508   2.683  11.997  12.216 -0.4565 -1.1853 -1.2444
  859MOL0     H18509   2.615  11.936  12.372 -1.1704 -0.6116  0.4367
  859MOL0     H18510   2.883  11.837  12.241  1.5702 -0.2225  1.8006
  859MOL0     H18511   2.810  11.789  12.392 -0.6397 -0.1702 -0.4879
  859MOL0     H18512   2.826  11.999  12.492 -2.0618 -2.1744 -0.2587
  859MOL0     H18513   2.875  12.091  12.345 -0.6162  1.0661  1.5563
  859MOL0     H18514   3.066  12.050  12.508 -0.1943  0.7309  0.8340
  859MOL0     H18515   3.035  11.873  12.490 -3.0649 -0.8968 -1.7892
  859MOL0     H18516   3.115  12.058  12.252 -0.4013  1.1539  0.9425
  859MOL0     H18517   3.098  11.886  12.255  0.2125  1.1905 -0.9973
  859MOL0     H18518   3.269  11.867  12.434  1.0193  0.2936  0.1511
  859MOL0     H18519   3.289  12.048  12.437  1.6279 -2.6730  2.8496
  859MOL0     H18520   3.370  12.041  12.194 -0.4110 -0.8006 -0.4208
  859MOL0     H18521   3.332  11.870  12.193 -1.1141 -0.5633  1.6603
  859MOL0     H18522   2.419  11.613  12.033 -1.5930 -1.0072 -0.1954
  859MOL0     H18523   2.316  11.616  11.827 -3.0221  0.6096 -0.6415
  859MOL0     H18524   1.946  11.653  11.519  0.7410 -3.7319  0.9108
  859MOL0     H18525   1.927  11.601  11.285 -0.9140  0.0967  1.3939
  859MOL0     H18526   0.708  11.188  10.130  2.4992  0.0594  1.1945
  859MOL0     H18527   0.639  10.961  10.094  4.1127  0.7961  0.0815
  859MOL0     H18528   0.371  10.632  10.347  0.9765  1.4271 -0.2382
  859MOL0     H18529   0.264  10.419  10.366  1.7987 -1.1912  1.3589
  859MOL0     H18530   0.348  10.216  10.438  1.6468 -0.3974 -0.8607
  859MOL0     H18531   0.187  10.193  10.382  0.3279  0.1266 -0.2857
  859MOL0     H18532   0.320   9.986  10.497 -0.2648 -3.1819 -0.1018
  859MOL0     H18533   0.408   9.981  10.342 -0.2128 -3.0962  1.0227
  859MOL0     H18534   0.096   9.990  10.349  0.0230 -0.6356  0.5776
  859MOL0     H18535   0.190   9.931  10.216 -0.2906 -3.9279  0.2363
  859MOL0     H18536   0.243   9.738  10.366 -1.0194 -1.6328  0.9241
  859MOL0     H18537   0.064   9.747  10.349 -0.3450  2.5111 -1.8389
  859MOL0     H18538   0.070   9.754  10.756  0.3739  1.6026  0.3996
  859MOL0     H18539   0.550  10.238  10.117 -0.5435 -0.5597  1.8832
  859MOL0     H18540   0.694  10.532   9.988 -0.7323 -1.2490 -0.7989
  859MOL0     H18541   0.805  10.476  10.120 -0.4847  0.3805  0.0504
  859MOL0     H18542   0.736  10.364  10.004 -2.2913 -0.2909 -1.5570
  860MOL0     O18543   6.464  10.972   6.252  0.2143 -0.0086  0.7520
  860MOL0     C18544   6.480  10.852   6.266  0.0747 -0.2947 -0.0312
  860MOL0     O18545   6.596  10.793   6.249  0.2329  0.5256  0.3501
  860MOL0     C18546   6.704  10.852   6.180 -0.8566 -0.7162 -0.1731
  860MOL0     C18547   6.827  10.783   6.185 -0.7454 -0.3108  0.4379
  860MOL0     C18548   6.942  10.824   6.131 -0.5046  0.1674  0.2806
  860MOL0     C18549   6.950  10.945   6.062 -0.1060  0.3422 -0.6001
  860MOL0     O18550   7.072  10.986   6.011  0.4152  0.6855 -0.8515
  860MOL0     C18551   7.080  11.104   5.939  0.3781  0.4509  0.4297
  860MOL0     C18552   7.225  11.164   5.939 -0.0455 -0.0968 -0.7508
  860MOL0     C18553   7.341  11.060   5.913  0.7678  0.8923  0.4936
  860MOL0     C18554   7.347  11.032   5.763 -0.5340  0.0534 -0.1639
  860MOL0     C18555   7.455  10.944   5.710 -0.3756  0.3638 -0.2793
  860MOL0     C18556   7.593  10.988   5.765 -0.3287 -0.4413  0.0636
  860MOL0     C18557   7.702  10.940   5.665  0.5161 -0.5890 -0.3235
  860MOL0     C18558   7.838  10.974   5.724 -0.5948  0.1481  0.2294
  860MOL0     N18559   7.962  10.904   5.668 -0.2849 -0.2836  0.5884
  860MOL0     C18560   7.996  10.899   5.537  0.4624 -0.2734  0.1338
  860MOL0     C18561   8.112  10.825   5.531 -0.0688  0.5708  0.0435
  860MOL0     C18562   8.199  10.793   5.415  0.3999 -0.0554 -0.1521
  860MOL0     C18563   8.125  10.765   5.291  0.7306 -0.1592  0.1595
  860MOL0     C18564   8.066  10.621   5.285  0.3115 -0.7652 -0.6285
  860MOL0     C18565   7.953  10.605   5.186 -0.2541 -0.0350  0.2460
  860MOL0     O18566   7.840  10.690   5.227 -0.1608 -0.0660  0.7418
  860MOL0     C18567   7.713  10.665   5.172  0.8125  0.0723 -0.7451
  860MOL0     C18568   7.612  10.738   5.234  1.1144 -0.2713 -0.2722
  860MOL0     C18569   7.480  10.729   5.191 -1.1560  0.7387  0.0174
  860MOL0     C18570   7.382  10.829   5.248  0.2145 -0.1966 -0.7181
  860MOL0     C18571   7.452  10.634   5.090 -0.3011 -0.6287 -0.3373
  860MOL0     C18572   7.322  10.622   5.034  0.4519  0.5689  0.9090
  860MOL0     O18573   7.311  10.623   4.898  0.0572  0.3795  0.1854
  860MOL0     C18574   7.192  10.612   4.839 -0.2976  0.2463 -0.5417
  860MOL0     C18575   7.108  10.505   4.865  0.2387  0.5428 -0.0361
  860MOL0     C18576   6.984  10.489   4.805  0.4969 -0.3503 -0.9712
  860MOL0     C18577   6.937  10.578   4.709 -0.0736  0.4615  0.3664
  860MOL0     O18578   6.820  10.556   4.643 -0.3804  0.0887  0.8570
  860MOL0     C18579   6.780  10.422   4.626 -0.3871  0.0662 -0.5442
  860MOL0     C18580   6.650  10.429   4.552  0.1218  0.6557 -0.1058
  860MOL0     C18581   6.533  10.458   4.650  0.0762  0.2872  0.2590
  860MOL0     C18582   6.391  10.472   4.598  0.2163 -0.0986  0.1394
  860MOL0     C18583   6.332  10.366   4.527  0.0230 -0.4085  0.2024
  860MOL0     C18584   6.316  10.238   4.603  0.0021 -0.0183  0.4082
  860MOL0     C18585   6.227  10.127   4.537 -0.0772 -0.7472  0.2571
  860MOL0     C18586   6.231   9.998   4.625 -0.3499  0.3180  0.0075
  860MOL0    Cl18587   6.155  10.008   4.778 -0.4971 -0.8238 -0.6485
  860MOL0     C18588   7.018  10.694   4.680 -0.1276 -0.0056  0.1023
  860MOL0     C18589   7.143  10.702   4.743 -0.0005 -0.2698  0.2305
  860MOL0     O18590   7.227  10.592   5.112 -1.2829 -0.1768  0.3315
  860MOL0     C18591   7.554  10.557   5.032 -1.2846 -0.4015 -0.2781
  860MOL0     C18592   7.683  10.575   5.073  0.3236 -0.8309 -0.8621
  860MOL0     N18593   8.144  10.796   5.669 -0.0884 -0.1575  0.3517
  860MOL0     N18594   8.055  10.849   5.746 -0.0625  0.7457  0.7666
  860MOL0     C18595   6.827  11.016   6.046 -0.4038 -0.8452 -0.4881
  860MOL0     C18596   6.707  10.973   6.108  0.1111 -0.1228 -0.3192
  860MOL0     C18597   6.362  10.779   6.316 -0.2174 -1.1012  0.5929
  860MOL0     C18598   6.231  10.839   6.313  0.6729 -0.2688  0.2495
  860MOL0     C18599   6.116  10.760   6.321 -0.6636 -0.1869 -0.3006
  860MOL0     C18600   6.126  10.623   6.338 -0.0951  0.1756  0.0595
  860MOL0     O18601   6.014  10.539   6.336 -0.4509  0.2986  0.3983
  860MOL0     C18602   5.882  10.591   6.363  0.0052 -0.6870  0.2558
  860MOL0     C18603   5.875  10.644   6.508 -0.4593  0.8032  1.3488
  860MOL0     C18604   5.877  10.523   6.606  0.8338 -0.2854 -0.0120
  860MOL0     C18605   5.778  10.540   6.725  0.1411  0.3087 -0.9115
  860MOL0     C18606   5.780  10.680   6.770  0.1765  0.1076  0.2198
  860MOL0     C18607   5.776  10.792   6.823 -0.5363 -0.3786  0.7329
  860MOL0     C18608   6.248  10.560   6.347  0.6322 -0.9890  0.0755
  860MOL0     C18609   6.359  10.644   6.351  0.3375  0.2143 -0.1586
  860MOL0     C18610   6.485  10.549   6.362  0.0123 -0.2308 -0.4427
  860MOL0     H18611   6.827  10.691   6.243 -0.1423 -1.0526 -0.7141
  860MOL0     H18612   7.033  10.766   6.140 -1.5455 -1.3652  1.3407
  860MOL0     H18613   7.013  11.184   5.972 -0.5998 -0.7277  1.4199
  860MOL0     H18614   7.051  11.074   5.837  0.2277 -0.2035  0.6588
  860MOL0     H18615   7.231  11.245   5.866 -0.1193  0.1221 -0.5184
  860MOL0     H18616   7.254  11.207   6.036  0.7237 -3.2797  0.5388
  860MOL0     H18617   7.435  11.111   5.937  0.9004  0.1428  1.6740
  860MOL0     H18618   7.333  10.969   5.973 -0.1612 -0.7472 -1.9591
  860MOL0     H18619   7.254  10.995   5.719 -0.0049 -2.7600  0.8980
  860MOL0     H18620   7.367  11.129   5.716 -1.5196 -0.0476 -0.8264
  860MOL0     H18621   7.450  10.954   5.601  2.0910 -1.1772 -0.6172
  860MOL0     H18622   7.435  10.841   5.740 -3.2316  1.0838  0.6263
  860MOL0     H18623   7.593  11.098   5.767  2.4926 -0.3755 -0.1014
  860MOL0     H18624   7.617  10.953   5.866 -0.3889  1.2759  0.7163
  860MOL0     H18625   7.684  10.975   5.563 -2.2739 -4.4421 -1.3812
  860MOL0     H18626   7.690  10.832   5.652 -3.2516 -0.0811 -2.5700
  860MOL0     H18627   7.864  11.080   5.718  0.1128  0.1734  2.6947
  860MOL0     H18628   7.832  10.945   5.829  0.4792 -4.4516 -0.7673
  860MOL0     H18629   7.945  10.942   5.451  1.3271  0.3415 -0.0862
  860MOL0     H18630   8.266  10.710   5.441  1.4420  1.8425  4.2689
  860MOL0     H18631   8.263  10.880   5.397  2.4910 -0.5704  3.6864
  860MOL0     H18632   8.050  10.841   5.269  1.7261  0.8845  0.3197
  860MOL0     H18633   8.196  10.765   5.208 -0.4002 -0.7718 -0.8557
  860MOL0     H18634   8.144  10.556   5.242 -0.8022 -1.6439 -1.3837
  860MOL0     H18635   8.035  10.574   5.379 -0.5855 -0.0403 -0.5516
  860MOL0     H18636   7.988  10.634   5.087 -1.3783 -0.6321 -0.3512
  860MOL0     H18637   7.933  10.498   5.179 -1.0732  0.1651 -0.7068
  860MOL0     H18638   7.642  10.806   5.313  1.8765 -1.3681  0.4039
  860MOL0     H18639   7.327  10.885   5.173 -0.4886 -0.3552 -0.3397
  860MOL0     H18640   7.432  10.909   5.303 -1.3380  0.5644 -0.3702
  860MOL0     H18641   7.315  10.783   5.322  0.9247  0.5637  0.4338
  860MOL0     H18642   7.135  10.432   4.941  0.1221  0.1383 -0.3790
  860MOL0     H18643   6.909  10.425   4.851 -0.8200  0.4578 -1.9050
  860MOL0     H18644   6.859  10.372   4.570  0.5754  1.2915 -0.3204
  860MOL0     H18645   6.765  10.365   4.718 -0.9415 -1.0177 -1.2851
  860MOL0     H18646   6.651  10.518   4.488 -1.0947  0.4877 -0.3800
  860MOL0     H18647   6.646  10.335   4.496  0.0723 -1.4184  3.1071
  860MOL0     H18648   6.559  10.554   4.694  0.5224  2.3353 -3.9930
  860MOL0     H18649   6.526  10.390   4.736  1.0646 -0.7022 -0.4012
  860MOL0     H18650   6.407  10.555   4.529  2.1212  1.7062  2.5890
  860MOL0     H18651   6.329  10.498   4.684  1.3266  0.1937  0.8696
  860MOL0     H18652   6.233  10.405   4.501 -0.4901  0.6896  3.3794
  860MOL0     H18653   6.392  10.334   4.442 -1.1567  1.9502 -1.6519
  860MOL0     H18654   6.268  10.246   4.701  3.0441 -1.3111  2.1496
  860MOL0     H18655   6.413  10.192   4.623 -0.0812 -0.3002  0.1660
  860MOL0     H18656   6.267  10.099   4.439 -0.6984  1.8669 -0.8289
  860MOL0     H18657   6.126  10.162   4.513  0.5438  3.3378  2.7288
  860MOL0     H18658   6.337   9.973   4.636 -1.0485 -1.9209  2.7830
  860MOL0     H18659   6.185   9.916   4.568 -1.1730 -0.0158  1.1098
  860MOL0     H18660   6.986  10.765   4.605 -1.8276 -0.1644  0.6424
  860MOL0     H18661   7.207  10.782   4.706  1.9933 -1.9945 -0.2753
  860MOL0     H18662   7.530  10.497   4.946  0.5502 -0.2600 -0.9251
  860MOL0     H18663   7.755  10.514   5.019 -0.1722 -2.5570  0.3456
  860MOL0     H18664   6.823  11.102   5.980  1.6113 -1.4439 -1.4864
  860MOL0     H18665   6.620  11.038   6.107 -0.7994 -1.2487  1.4229
  860MOL0     H18666   6.209  10.941   6.284 -1.5526 -1.0513 -1.0149
  860MOL0     H18667   6.017  10.804   6.311 -1.0013 -1.4012 -3.0464
  860MOL0     H18668   5.855  10.662   6.284 -0.5246 -1.5209 -0.3243
  860MOL0     H18669   5.811  10.508   6.352  1.4950 -1.9563 -0.0904
  860MOL0     H18670   5.789  10.711   6.502  0.7065  2.2422 -0.2750
  860MOL0     H18671   5.968  10.694   6.535  1.5240 -1.2914 -1.0590
  860MOL0     H18672   5.854  10.424   6.565  2.1127 -1.7511  2.5705
  860MOL0     H18673   5.981  10.513   6.639  0.6569 -3.2406 -0.0360
  860MOL0     H18674   5.817  10.476   6.804  0.9691  1.7410 -0.1166
  860MOL0     H18675   5.681  10.508   6.687 -1.1344  1.4376  1.2230
  860MOL0     H18676   5.781  10.892   6.862 -3.6953  0.2591 -0.1871
  860MOL0     H18677   6.247  10.452   6.358 -1.7499 -0.9266  1.1107
  860MOL0     H18678   6.448  10.462   6.418  1.5454  0.1146  1.1868
  860MOL0     H18679   6.526  10.519   6.265 -1.7262 -0.9242 -1.0109
  860MOL0     H18680   6.560  10.608   6.415  0.8734  0.8719 -2.7590
  861MOL0     O18681  11.163   7.293   1.511 -0.6705  0.0127  0.0907
  861MOL0     C18682  11.197   7.176   1.542 -0.2381  0.0888  0.6704
  861MOL0     O18683  11.110   7.073   1.577  0.8035  0.5653  0.1660
  861MOL0     C18684  10.974   7.101   1.585 -0.9319  0.1665  0.2756
  861MOL0     C18685  10.921   7.172   1.687  0.6198  1.0335 -0.1932
  861MOL0     C18686  10.784   7.193   1.701 -0.3795 -0.0055  0.4371
  861MOL0     C18687  10.699   7.149   1.607  0.0615 -0.0392 -0.3817
  861MOL0     O18688  10.576   7.203   1.594 -0.0979 -0.4449 -0.0500
  861MOL0     C18689  10.454   7.132   1.585 -0.0054  0.4978  0.5156
  861MOL0     C18690  10.343   7.199   1.664 -0.3634 -0.6802 -0.0446
  861MOL0     C18691  10.209   7.127   1.638  0.7545 -0.6257 -0.1478
  861MOL0     C18692  10.093   7.190   1.721 -0.6975  0.1653 -0.0090
  861MOL0     C18693  10.097   7.121   1.862  0.1091  0.5773 -0.3140
  861MOL0     C18694   9.961   7.148   1.941 -0.3338  0.6943  1.3337
  861MOL0     C18695   9.977   7.144   2.091  0.2240  0.5247 -0.1992
  861MOL0     C18696   9.967   6.998   2.149  0.3131  0.2705 -0.0211
  861MOL0     N18697  10.096   6.932   2.117  0.0782  0.3124 -0.6493
  861MOL0     C18698  10.212   6.959   2.187 -1.2298  0.2984  0.1539
  861MOL0     C18699  10.301   6.876   2.126 -0.0441  0.6720 -0.5044
  861MOL0     C18700  10.444   6.861   2.174 -0.0033 -0.7708  0.5499
  861MOL0     C18701  10.536   6.941   2.089  0.0358  1.4956  1.5645
  861MOL0     C18702  10.528   6.889   1.938 -0.1771  0.1518 -1.2346
  861MOL0     C18703  10.672   6.900   1.875  0.0218 -0.2977 -0.0673
  861MOL0     O18704  10.748   6.796   1.933  0.6755 -0.2483  0.3491
  861MOL0     C18705  10.783   6.698   1.841  0.1368 -0.0758 -0.0826
  861MOL0     C18706  10.835   6.722   1.715 -1.1779  0.7077  0.2806
  861MOL0     C18707  10.878   6.620   1.626  0.5212 -0.2375  0.1873
  861MOL0     C18708  10.922   6.662   1.484  0.2693 -0.2055  0.4849
  861MOL0     C18709  10.886   6.490   1.675 -0.4934 -0.4672 -0.4556
  861MOL0     C18710  10.944   6.373   1.603 -0.3117 -0.9780  1.2801
  861MOL0     O18711  11.032   6.301   1.674 -0.6690  0.9523  0.2106
  861MOL0     C18712  11.121   6.217   1.616  0.5986  0.2193 -0.4318
  861MOL0     C18713  11.187   6.233   1.494 -0.0209  0.1869  0.6714
  861MOL0     C18714  11.261   6.119   1.429 -0.7299 -0.1061  0.0147
  861MOL0     C18715  11.270   6.001   1.507  1.0364  0.7730  0.1646
  861MOL0     O18716  11.347   5.897   1.457  0.0732  0.2063  0.0146
  861MOL0     C18717  11.490   5.917   1.465  0.8308 -1.5247 -0.1041
  861MOL0     C18718  11.566   5.845   1.357  0.6741  0.3630  0.2688
  861MOL0     C18719  11.718   5.870   1.366 -0.5072  0.0505  0.4408
  861MOL0     C18720  11.775   5.828   1.233 -0.2158  0.6625  0.7809
  861MOL0     C18721  11.928   5.817   1.234  0.0848 -0.2835  1.0709
  861MOL0     C18722  11.987   5.718   1.138  0.5238 -0.0510 -0.0023
  861MOL0     C18723  11.977   5.772   0.991  0.2022 -1.3727 -0.4563
  861MOL0     C18724  12.016   5.656   0.900  0.0260 -0.9922  0.2401
  861MOL0    Cl18725  11.982   5.717   0.741  0.1626 -0.4651  0.2447
  861MOL0     C18726  11.206   5.991   1.634  0.5447 -0.1355  1.1714
  861MOL0     C18727  11.136   6.096   1.684 -0.7851 -0.7656 -0.1301
  861MOL0     O18728  10.914   6.342   1.486  0.2862 -0.7641  0.1023
  861MOL0     C18729  10.825   6.460   1.798 -0.1882 -0.0262  0.0073
  861MOL0     C18730  10.773   6.561   1.880 -0.5435 -0.1242 -0.0649
  861MOL0     N18731  10.234   6.803   2.027 -1.0574 -0.4743 -0.5192
  861MOL0     N18732  10.118   6.843   2.013 -0.2946  0.3347  0.1502
  861MOL0     C18733  10.752   7.079   1.495 -0.2124  0.1957 -0.4680
  861MOL0     C18734  10.898   7.068   1.476  0.2564 -0.4623 -0.3458
  861MOL0     C18735  11.337   7.143   1.533  0.7926 -0.1106 -0.2792
  861MOL0     C18736  11.383   7.014   1.495  0.6244  0.7130 -0.0690
  861MOL0     C18737  11.521   6.981   1.493  0.3868  0.2703 -0.0111
  861MOL0     C18738  11.617   7.079   1.522 -0.1236 -0.1337 -0.4727
  861MOL0     O18739  11.746   7.038   1.518 -1.0036  0.3188  0.9786
  861MOL0     C18740  11.847   7.137   1.557  0.3299 -0.3231 -1.1329
  861MOL0     C18741  11.859   7.137   1.711  1.5789 -0.4565  0.0357
  861MOL0     C18742  11.919   7.007   1.763 -0.2097  0.6243 -0.0356
  861MOL0     C18743  11.954   7.010   1.907 -0.0915 -0.5351  0.2658
  861MOL0     C18744  12.061   6.922   1.943 -0.1871  0.8136 -0.3518
  861MOL0     C18745  12.143   6.842   1.980 -0.2451 -0.2554 -0.4086
  861MOL0     C18746  11.576   7.201   1.577 -0.4719  0.3737  1.3670
  861MOL0     C18747  11.438   7.235   1.582 -1.2296  0.3420  0.6084
  861MOL0     C18748  11.418   7.370   1.633  0.1455 -0.9535 -1.2195
  861MOL0     H18749  10.981   7.203   1.772 -2.1586  1.4429  1.7613
  861MOL0     H18750  10.733   7.258   1.771 -1.2650 -0.1653 -0.0503
  861MOL0     H18751  10.465   7.032   1.629  1.2292 -1.0441 -2.9871
  861MOL0     H18752  10.419   7.116   1.483 -0.4660  4.5054 -0.0946
  861MOL0     H18753  10.361   7.207   1.771 -0.2041 -0.4568 -0.0889
  861MOL0     H18754  10.326   7.299   1.623 -1.5743 -0.2460  1.4310
  861MOL0     H18755  10.183   7.131   1.531 -2.0160 -2.7125  0.3237
  861MOL0     H18756  10.222   7.021   1.661 -1.2366 -0.4748  1.9821
  861MOL0     H18757  10.091   7.299   1.726  0.8026  0.4601 -3.2167
  861MOL0     H18758  10.000   7.157   1.672  0.4344 -1.5189 -1.1595
  861MOL0     H18759  10.182   7.157   1.920 -0.5484 -1.1844  1.8799
  861MOL0     H18760  10.104   7.015   1.835  1.8151  1.2426 -2.8872
  861MOL0     H18761   9.927   7.247   1.911 -1.9795  0.3554  1.9621
  861MOL0     H18762   9.889   7.071   1.912  2.1093 -2.1759  2.3269
  861MOL0     H18763   9.899   7.210   2.131  1.8248  2.8170 -0.6657
  861MOL0     H18764  10.069   7.196   2.118 -0.6517  1.3060  1.4835
  861MOL0     H18765   9.956   7.000   2.258  0.0953 -2.0112  0.0423
  861MOL0     H18766   9.886   6.932   2.117  1.0274 -0.4866 -0.2848
  861MOL0     H18767  10.216   7.030   2.269 -0.5429  2.5084 -1.6654
  861MOL0     H18768  10.472   6.757   2.154  0.7478 -0.3782 -0.5657
  861MOL0     H18769  10.446   6.882   2.281  0.1675 -1.8643  0.7675
  861MOL0     H18770  10.517   7.048   2.104 -3.9644  1.0887  0.3242
  861MOL0     H18771  10.636   6.918   2.128  1.1859 -0.0916 -1.8945
  861MOL0     H18772  10.489   6.787   1.935 -1.7070  0.6539  0.2171
  861MOL0     H18773  10.460   6.959   1.888  0.3600  1.6122 -0.0067
  861MOL0     H18774  10.657   6.892   1.766 -1.1439 -1.5781  0.1523
  861MOL0     H18775  10.722   6.993   1.901 -1.0657  0.2456  0.1188
  861MOL0     H18776  10.849   6.827   1.690  2.3217  0.1896 -0.4194
  861MOL0     H18777  10.926   6.771   1.484  2.4260 -0.2351  1.3115
  861MOL0     H18778  10.857   6.630   1.401  1.1601  0.6293 -0.5560
  861MOL0     H18779  11.023   6.623   1.469  0.9746  1.4761  0.7277
  861MOL0     H18780  11.180   6.329   1.444 -0.1200 -0.9958 -1.7184
  861MOL0     H18781  11.318   6.120   1.337  0.6852  1.2087  0.8765
  861MOL0     H18782  11.514   6.024   1.468  0.6721 -1.4925  0.0221
  861MOL0     H18783  11.511   5.879   1.565 -0.9084 -1.5992  0.2580
  861MOL0     H18784  11.550   5.737   1.366  0.6703  0.1254 -2.0988
  861MOL0     H18785  11.529   5.871   1.258 -1.7269 -0.9685  0.7227
  861MOL0     H18786  11.766   5.810   1.444  2.8417  0.9858 -0.6872
  861MOL0     H18787  11.737   5.976   1.388 -1.8790  0.3519  0.2268
  861MOL0     H18788  11.746   5.904   1.160 -1.1140 -0.2252  0.1866
  861MOL0     H18789  11.732   5.733   1.200  0.6495 -0.3281  2.4025
  861MOL0     H18790  11.969   5.919   1.234 -1.8690  0.6276  3.8875
  861MOL0     H18791  11.955   5.785   1.334 -0.7888 -3.1796  0.4746
  861MOL0     H18792  11.938   5.623   1.163 -2.1819  1.4137  0.6320
  861MOL0     H18793  12.095   5.717   1.159  0.4344 -0.8787  0.4834
  861MOL0     H18794  12.031   5.866   0.978  3.2536 -3.0807 -0.8812
  861MOL0     H18795  11.873   5.802   0.971 -0.4389 -2.3963  1.1661
  861MOL0     H18796  11.965   5.565   0.931  2.1048 -1.5524  2.3361
  861MOL0     H18797  12.122   5.636   0.920  0.0090 -0.5605  0.7653
  861MOL0     H18798  11.211   5.893   1.679  0.5780 -0.1337  1.1716
  861MOL0     H18799  11.084   6.081   1.778 -0.0186  2.5835  0.9606
  861MOL0     H18800  10.840   6.357   1.828  0.4782  0.1967  0.4756
  861MOL0     H18801  10.729   6.540   1.977  1.6636  0.5198  1.1364
  861MOL0     H18802  10.687   7.052   1.412 -0.1488  1.6864 -1.0354
  861MOL0     H18803  10.929   7.023   1.382  3.0098 -0.2147  0.3631
  861MOL0     H18804  11.307   6.941   1.469  1.9053 -0.8615  0.4799
  861MOL0     H18805  11.552   6.877   1.482  0.3515  0.0475  1.6633
  861MOL0     H18806  11.943   7.122   1.507  1.1609 -0.3752  0.4202
  861MOL0     H18807  11.817   7.239   1.531 -1.1687 -0.2312  0.6754
  861MOL0     H18808  11.765   7.155   1.764 -0.0467  0.4420 -2.8644
  861MOL0     H18809  11.918   7.225   1.736  1.4686 -0.5873  0.7665
  861MOL0     H18810  11.861   6.916   1.751  1.0738 -0.4261  1.2856
  861MOL0     H18811  12.004   6.998   1.695 -0.4135  2.3703 -0.5883
  861MOL0     H18812  11.859   6.988   1.956 -1.2177  1.8856 -0.6668
  861MOL0     H18813  11.982   7.108   1.947 -0.1476 -0.8467  1.0787
  861MOL0     H18814  12.230   6.780   1.992 -1.9212 -3.1581 -2.1600
  861MOL0     H18815  11.642   7.278   1.616  1.2053  0.1865 -0.8588
  861MOL0     H18816  11.455   7.444   1.561  3.2943 -1.2959 -0.1161
  861MOL0     H18817  11.317   7.383   1.673  1.6560 -4.2230  4.7591
  861MOL0     H18818  11.482   7.380   1.721 -1.9262 -0.9031  0.3413
  862MOL0     O18819   6.658   0.585   5.315 -0.2907  0.5099 -0.1172
  862MOL0     C18820   6.566   0.511   5.273 -0.1821 -0.2471 -0.7745
  862MOL0     O18821   6.571   0.448   5.147 -0.2424 -0.4678  0.2426
  862MOL0     C18822   6.663   0.493   5.062 -0.4369  0.1362 -0.0633
  862MOL0     C18823   6.713   0.396   4.969  0.7409  0.0069  0.0152
  862MOL0     C18824   6.799   0.440   4.863  0.1152 -0.2874  0.5463
  862MOL0     C18825   6.837   0.578   4.841  0.9850 -0.0692 -0.8695
  862MOL0     O18826   6.913   0.623   4.740 -0.5520  0.3007 -0.3595
  862MOL0     C18827   6.967   0.534   4.645 -1.1948  0.5219  0.1784
  862MOL0     C18828   7.115   0.499   4.661 -0.4195  0.5423 -0.0311
  862MOL0     C18829   7.221   0.612   4.687  0.1750 -0.3294 -0.4533
  862MOL0     C18830   7.246   0.704   4.570  0.2932  0.2395 -0.4971
  862MOL0     C18831   7.385   0.768   4.581  0.0611  0.0225 -0.0409
  862MOL0     C18832   7.401   0.870   4.693  0.3562 -0.8307 -0.0510
  862MOL0     C18833   7.493   0.819   4.802  0.2787 -0.2364 -0.5939
  862MOL0     C18834   7.505   0.929   4.914 -0.1721  0.1192  0.3538
  862MOL0     N18835   7.548   0.865   5.048  0.3224  0.8754 -0.2089
  862MOL0     C18836   7.637   0.765   5.063 -0.4905 -0.9853 -0.0114
  862MOL0     C18837   7.667   0.765   5.197 -0.4510 -0.0186 -0.2360
  862MOL0     C18838   7.760   0.679   5.283  0.6436 -0.1430 -0.1784
  862MOL0     C18839   7.905   0.708   5.271  0.5288  0.1916 -0.7419
  862MOL0     C18840   7.949   0.830   5.345  0.0585  0.0460  0.4659
  862MOL0     C18841   8.097   0.852   5.326 -0.3887  0.2363 -0.0725
  862MOL0     O18842   8.174   0.731   5.359  0.4998 -0.1674 -0.3405
  862MOL0     C18843   8.304   0.726   5.327  0.3817 -0.3800 -0.0838
  862MOL0     C18844   8.386   0.828   5.275  0.7982  1.0875 -0.2014
  862MOL0     C18845   8.529   0.806   5.255  0.6316  0.4943  0.3346
  862MOL0     C18846   8.605   0.914   5.189  0.0674 -0.4679 -0.0810
  862MOL0     C18847   8.582   0.682   5.288 -0.3391  0.7548 -0.3793
  862MOL0     C18848   8.720   0.633   5.280 -0.8154 -0.1249 -1.0879
  862MOL0     O18849   8.751   0.493   5.258 -0.3158 -0.0271 -0.1367
  862MOL0     C18850   8.888   0.473   5.247 -0.6755  0.0598  0.5592
  862MOL0     C18851   8.954   0.526   5.136 -0.7000 -0.3909 -0.5450
  862MOL0     C18852   9.098   0.522   5.138 -0.3689  0.4252  0.3704
  862MOL0     C18853   9.167   0.461   5.245 -0.0956 -0.3827 -0.3218
  862MOL0     O18854   9.301   0.478   5.255 -0.7525  0.0524 -0.0406
  862MOL0     C18855   9.363   0.452   5.387  0.7841 -0.5704  0.1003
  862MOL0     C18856   9.517   0.458   5.384 -0.8405 -0.0904  0.3898
  862MOL0     C18857   9.577   0.338   5.311 -0.3261  0.1647  0.7645
  862MOL0     C18858   9.726   0.362   5.324 -0.5187  0.1221 -0.2136
  862MOL0     C18859   9.805   0.271   5.226  0.2891  0.1214 -0.3447
  862MOL0     C18860   9.955   0.280   5.260  1.5266  0.0630  0.5295
  862MOL0     C18861  10.052   0.203   5.178 -0.7197  0.4513  0.8137
  862MOL0     C18862  10.199   0.252   5.214 -0.1639 -0.5454 -0.6608
  862MOL0    Cl18863  10.319   0.207   5.087  0.0218 -0.3096 -0.2728
  862MOL0     C18864   9.090   0.395   5.348 -0.2553 -1.0590 -0.0048
  862MOL0     C18865   8.953   0.406   5.356 -0.7325 -0.3717  0.6830
  862MOL0     O18866   8.810   0.719   5.288 -0.1192 -0.0371 -0.1154
  862MOL0     C18867   8.495   0.576   5.334  0.7262  1.1877  0.1643
  862MOL0     C18868   8.362   0.606   5.354  0.2790  0.1906 -0.2480
  862MOL0     N18869   7.601   0.872   5.250 -0.1365  0.2109  0.5063
  862MOL0     N18870   7.526   0.932   5.164 -0.9718 -0.0696 -0.3536
  862MOL0     C18871   6.792   0.666   4.943  0.1002  0.3625  1.0421
  862MOL0     C18872   6.715   0.621   5.042  0.7553 -1.1455 -0.1013
  862MOL0     C18873   6.454   0.474   5.364  0.2730 -0.3032 -0.4807
  862MOL0     C18874   6.350   0.402   5.307  0.4365 -0.5015 -0.6815
  862MOL0     C18875   6.237   0.366   5.383  0.0975 -0.4129  0.0977
  862MOL0     C18876   6.237   0.396   5.520  0.0001  0.6302  0.0547
  862MOL0     O18877   6.139   0.354   5.607  0.2420 -0.0417  0.7208
  862MOL0     C18878   6.051   0.465   5.647  0.8501  0.0902  0.6733
  862MOL0     C18879   5.906   0.425   5.631  0.3689 -0.1615  0.4442
  862MOL0     C18880   5.861   0.315   5.742 -0.2387 -0.9477 -0.1082
  862MOL0     C18881   5.729   0.247   5.706  0.1816 -0.2093 -0.2702
  862MOL0     C18882   5.742   0.180   5.574 -0.2096 -0.0764  0.2447
  862MOL0     C18883   5.756   0.137   5.460  0.3707 -0.6630 -0.0090
  862MOL0     C18884   6.343   0.474   5.575  1.1642  0.4775 -0.0707
  862MOL0     C18885   6.448   0.514   5.504  0.1052 -0.6723  0.2309
  862MOL0     C18886   6.562   0.577   5.589  0.4955 -0.5523 -0.5936
  862MOL0     H18887   6.693   0.289   4.960  1.6128  0.0450 -3.7264
  862MOL0     H18888   6.827   0.358   4.797 -0.2708  0.3067 -0.3683
  862MOL0     H18889   6.969   0.587   4.550 -2.2469  1.8612  0.8664
  862MOL0     H18890   6.908   0.442   4.641  0.8554 -0.8687  0.6454
  862MOL0     H18891   7.119   0.430   4.746  0.3280  1.3421  0.5962
  862MOL0     H18892   7.146   0.455   4.567 -0.4678  0.0682  0.1721
  862MOL0     H18893   7.208   0.662   4.783  1.1007 -0.8123 -0.0555
  862MOL0     H18894   7.315   0.558   4.700  0.1834 -0.4713 -1.0980
  862MOL0     H18895   7.235   0.652   4.475 -0.7502 -2.2656  0.9095
  862MOL0     H18896   7.180   0.791   4.568  1.6848  1.3723  0.3695
  862MOL0     H18897   7.409   0.814   4.485 -1.4884  0.4250 -0.2604
  862MOL0     H18898   7.458   0.688   4.592 -1.9161 -1.8916 -0.1052
  862MOL0     H18899   7.437   0.966   4.653  2.0319 -0.0026  3.0556
  862MOL0     H18900   7.307   0.899   4.741  0.7564 -1.3209  1.0604
  862MOL0     H18901   7.593   0.792   4.768  0.6551  0.0537  0.2477
  862MOL0     H18902   7.449   0.731   4.850  2.3506 -0.8419  0.3104
  862MOL0     H18903   7.581   1.002   4.885 -1.0776  0.9558  0.0355
  862MOL0     H18904   7.415   0.990   4.930 -0.1455  0.9372 -2.2233
  862MOL0     H18905   7.692   0.706   4.990 -0.1020 -1.8641  0.9648
  862MOL0     H18906   7.745   0.578   5.245  0.0271 -0.5674  1.1289
  862MOL0     H18907   7.740   0.677   5.391  1.7676  2.6613  0.1881
  862MOL0     H18908   7.964   0.618   5.294  0.7023 -0.0042 -1.8878
  862MOL0     H18909   7.935   0.722   5.167  1.0507 -0.2278 -0.6557
  862MOL0     H18910   7.913   0.926   5.309  0.5485  0.1329  0.2101
  862MOL0     H18911   7.921   0.821   5.451 -3.0485  0.3627 -0.2454
  862MOL0     H18912   8.122   0.868   5.221  0.1435  2.1369  0.3130
  862MOL0     H18913   8.125   0.936   5.390 -2.0809  0.2913  0.6634
  862MOL0     H18914   8.339   0.924   5.252 -3.2723 -1.1531 -2.4655
  862MOL0     H18915   8.637   0.881   5.090 -1.6468  0.8066 -1.1169
  862MOL0     H18916   8.684   0.948   5.256 -0.3948  1.2482 -0.3476
  862MOL0     H18917   8.540   1.003   5.185  0.8359  0.2387  1.9832
  862MOL0     H18918   8.903   0.563   5.048 -0.1377 -1.6262 -1.4239
  862MOL0     H18919   9.153   0.570   5.058  2.0170 -0.7340  1.1957
  862MOL0     H18920   9.335   0.524   5.465  2.6444 -0.1310  0.4089
  862MOL0     H18921   9.333   0.357   5.432 -1.9300  1.3045  2.5889
  862MOL0     H18922   9.555   0.551   5.342 -4.2449  0.6830 -1.3449
  862MOL0     H18923   9.548   0.461   5.489  2.3417  0.9726 -0.4727
  862MOL0     H18924   9.544   0.336   5.207 -2.0372 -2.3581  1.2617
  862MOL0     H18925   9.547   0.242   5.353  3.7181 -1.3879  0.5451
  862MOL0     H18926   9.740   0.328   5.427 -2.1601 -1.5628 -0.4866
  862MOL0     H18927   9.758   0.466   5.310 -3.2393  0.7854 -2.4434
  862MOL0     H18928   9.769   0.168   5.238 -0.0281  0.4276  1.7186
  862MOL0     H18929   9.790   0.298   5.121  1.3800 -1.4852 -0.9566
  862MOL0     H18930   9.972   0.245   5.362  2.4527 -1.2226 -0.0375
  862MOL0     H18931   9.985   0.385   5.252  2.4409 -0.0342  2.2377
  862MOL0     H18932  10.036   0.222   5.071 -1.6347 -0.5067  0.7593
  862MOL0     H18933  10.038   0.096   5.197  0.0600  0.2032  0.0623
  862MOL0     H18934  10.237   0.205   5.305  1.7858 -0.1498 -1.2213
  862MOL0     H18935  10.188   0.359   5.231  0.3290 -0.5223 -0.4762
  862MOL0     H18936   9.130   0.339   5.432  0.7739 -2.6286 -1.4796
  862MOL0     H18937   8.897   0.379   5.445 -1.3753  1.8848  1.0217
  862MOL0     H18938   8.532   0.478   5.363 -1.6063  0.1042 -0.3352
  862MOL0     H18939   8.303   0.539   5.416 -0.2510 -0.6343 -1.6155
  862MOL0     H18940   6.796   0.773   4.920  1.2989 -0.3629 -2.9742
  862MOL0     H18941   6.699   0.685   5.128  0.1479 -3.6743  1.7936
  862MOL0     H18942   6.346   0.389   5.199  3.0790  1.4858 -1.1248
  862MOL0     H18943   6.150   0.314   5.344 -0.6130  0.1372  0.9117
  862MOL0     H18944   6.069   0.489   5.752 -1.7376 -2.3335  1.8097
  862MOL0     H18945   6.079   0.552   5.587  1.7835 -0.9361 -0.4503
  862MOL0     H18946   5.879   0.387   5.532 -0.4980 -3.9002  1.9271
  862MOL0     H18947   5.846   0.514   5.654  0.1661 -0.0441 -0.4743
  862MOL0     H18948   5.938   0.239   5.759  0.9979  0.6026  1.6216
  862MOL0     H18949   5.853   0.363   5.839  0.3174  1.9675 -1.4079
  862MOL0     H18950   5.657   0.328   5.702 -0.7771 -0.9474  1.3333
  862MOL0     H18951   5.704   0.177   5.786  0.1730  0.0127 -0.0780
  862MOL0     H18952   5.798   0.136   5.361  1.7390 -0.3121  0.5406
  862MOL0     H18953   6.330   0.504   5.678  2.0552  0.1586  0.1437
  862MOL0     H18954   6.536   0.597   5.694  0.2424  4.0722 -1.3646
  862MOL0     H18955   6.654   0.517   5.586  0.6931 -0.2281 -0.9715
  862MOL0     H18956   6.594   0.673   5.548 -1.0434  0.1107 -0.3243
  863MOL0     O18957  10.939   4.873   0.560  0.5060 -0.2592 -0.3274
  863MOL0     C18958  10.946   4.883   0.684  0.6465 -0.1364 -0.0494
  863MOL0     O18959  11.051   4.943   0.749  0.1522  0.0449  0.2131
  863MOL0     C18960  11.150   5.015   0.681 -0.0213 -0.2283 -0.2319
  863MOL0     C18961  11.127   5.136   0.619  0.0888 -0.5205 -0.1131
  863MOL0     C18962  11.229   5.191   0.537  0.0992 -0.8090 -0.1236
  863MOL0     C18963  11.360   5.141   0.529  0.7375 -0.1379 -0.0480
  863MOL0     O18964  11.466   5.196   0.458 -0.5807  0.7516  0.3668
  863MOL0     C18965  11.439   5.299   0.363 -0.6592  0.1579 -0.0562
  863MOL0     C18966  11.565   5.349   0.297 -0.4357  0.4899  0.4276
  863MOL0     C18967  11.668   5.392   0.398  0.0091  0.5749  0.4367
  863MOL0     C18968  11.624   5.536   0.452  0.3913  0.3585  0.1746
  863MOL0     C18969  11.703   5.588   0.573  1.0521 -0.1579  0.7977
  863MOL0     C18970  11.728   5.484   0.689  0.0135 -0.0122  0.1937
  863MOL0     C18971  11.597   5.427   0.758 -0.8591  0.0022  0.6194
  863MOL0     C18972  11.640   5.357   0.888  0.6444 -0.9166  0.0449
  863MOL0     N18973  11.536   5.291   0.966  0.1229  0.5560 -0.0029
  863MOL0     C18974  11.420   5.233   0.928  1.3722 -0.1571 -0.1252
  863MOL0     C18975  11.357   5.179   1.038 -0.1167 -0.6266  0.0056
  863MOL0     C18976  11.210   5.140   1.035  0.6012 -0.1788 -0.0372
  863MOL0     C18977  11.195   5.048   1.161  0.6890 -1.2584  0.7525
  863MOL0     C18978  11.046   5.013   1.183  0.0070  0.2055 -0.6946
  863MOL0     C18979  11.040   4.882   1.276 -0.2679 -0.2730  0.8132
  863MOL0     O18980  10.895   4.866   1.301  0.3506  0.2849  0.7892
  863MOL0     C18981  10.869   4.746   1.369 -0.0009  0.1744  0.5555
  863MOL0     C18982  10.965   4.658   1.424  0.8169 -0.6610 -0.5014
  863MOL0     C18983  10.930   4.552   1.498  0.1888  1.0203  0.5197
  863MOL0     C18984  11.042   4.487   1.573  0.3599 -0.6620  0.0631
  863MOL0     C18985  10.789   4.511   1.511 -0.5980  0.1750  1.1660
  863MOL0     C18986  10.732   4.399   1.596  0.2884 -0.0217 -0.1351
  863MOL0     O18987  10.599   4.379   1.592 -0.0474 -0.5230 -0.1707
  863MOL0     C18988  10.536   4.303   1.687  0.4279  0.2209 -0.1887
  863MOL0     C18989  10.424   4.348   1.765 -0.8702 -0.2174  1.2665
  863MOL0     C18990  10.347   4.269   1.847 -0.4487 -0.3883  0.2326
  863MOL0     C18991  10.378   4.130   1.844  0.9993  0.0827  0.0680
  863MOL0     O18992  10.308   4.051   1.927  0.4731 -0.4089  0.2275
  863MOL0     C18993  10.375   3.940   1.995 -0.7049  0.1890  0.4996
  863MOL0     C18994  10.273   3.900   2.107  0.9700 -0.3417 -0.7383
  863MOL0     C18995  10.247   4.028   2.204 -0.3102  0.0639  0.7507
  863MOL0     C18996  10.170   4.016   2.335  0.1813  0.1546 -0.6395
  863MOL0     C18997  10.135   4.158   2.377  0.1892  0.2686  0.2466
  863MOL0     C18998  10.055   4.153   2.505 -0.4377  0.2009 -0.5467
  863MOL0     C18999  10.154   4.134   2.625  0.0046 -0.5640 -0.6051
  863MOL0     C19000  10.121   4.239   2.741 -0.1827 -0.0164 -0.1034
  863MOL0    Cl19001  10.236   4.198   2.877 -0.2273 -0.3376  0.2851
  863MOL0     C19002  10.478   4.074   1.768 -0.2280  0.4220 -0.0356
  863MOL0     C19003  10.567   4.166   1.707  0.3727 -1.0728 -0.4679
  863MOL0     O19004  10.810   4.340   1.671 -0.1378  0.2758  0.1143
  863MOL0     C19005  10.692   4.590   1.436 -0.0244  0.0825  0.0045
  863MOL0     C19006  10.737   4.700   1.367  0.3640 -0.0827 -0.0155
  863MOL0     N19007  11.439   5.208   1.151 -0.0833 -0.0573  0.1785
  863MOL0     N19008  11.546   5.267   1.098  0.5400  0.2462  0.3209
  863MOL0     C19009  11.386   5.025   0.596  0.2359  0.1708  0.3336
  863MOL0     C19010  11.278   4.961   0.670 -0.6071  0.1636  0.1731
  863MOL0     C19011  10.835   4.828   0.770  0.8700  0.0333  0.2967
  863MOL0     C19012  10.862   4.784   0.902 -0.3071  0.0619  0.3780
  863MOL0     C19013  10.768   4.704   0.966 -0.2603 -0.8326 -0.0127
  863MOL0     C19014  10.640   4.676   0.915 -0.5829 -0.4420  0.6258
  863MOL0     O19015  10.549   4.589   0.968 -0.0535  0.6082 -0.0559
  863MOL0     C19016  10.574   4.508   1.077  0.2541 -0.3856 -0.2028
  863MOL0     C19017  10.653   4.385   1.035  0.8039  0.1771 -0.9600
  863MOL0     C19018  10.690   4.301   1.167  0.0066  0.1704  0.4126
  863MOL0     C19019  10.725   4.164   1.136 -0.0956  0.6178 -0.1237
  863MOL0     C19020  10.789   4.100   1.258  0.9055 -0.0041 -0.1463
  863MOL0     C19021  10.813   4.042   1.361 -0.0259 -0.8119 -0.1665
  863MOL0     C19022  10.608   4.734   0.795  0.0019 -0.9925 -0.0822
  863MOL0     C19023  10.701   4.813   0.720 -0.3165  0.0942  0.3027
  863MOL0     C19024  10.655   4.878   0.598  0.1533  0.4293  0.0020
  863MOL0     H19025  11.033   5.190   0.621  1.1688  1.4228 -0.1348
  863MOL0     H19026  11.197   5.286   0.497  0.3101 -1.1885 -1.2555
  863MOL0     H19027  11.394   5.381   0.421 -0.7629  1.9614 -2.5462
  863MOL0     H19028  11.365   5.256   0.296 -1.9359 -0.8556  1.8849
  863MOL0     H19029  11.597   5.287   0.213 -1.9451 -0.0136  0.1942
  863MOL0     H19030  11.524   5.434   0.241  1.7561  0.0546 -2.0319
  863MOL0     H19031  11.686   5.309   0.468  0.4264  0.0195 -0.3235
  863MOL0     H19032  11.760   5.415   0.344 -0.7005  1.4994 -0.4133
  863MOL0     H19033  11.613   5.620   0.383  1.1843  0.7635  0.5244
  863MOL0     H19034  11.519   5.530   0.485  0.8061 -1.7431  1.2995
  863MOL0     H19035  11.651   5.670   0.622  0.4799 -1.2992  2.1690
  863MOL0     H19036  11.792   5.640   0.534 -1.1181  1.8719 -1.8806
  863MOL0     H19037  11.793   5.408   0.644 -3.3420 -1.9304 -1.8673
  863MOL0     H19038  11.788   5.534   0.766  1.0939  1.4985 -1.5530
  863MOL0     H19039  11.554   5.356   0.687  2.5077 -1.4512 -0.1859
  863MOL0     H19040  11.531   5.509   0.789  1.2139  1.5952  1.1211
  863MOL0     H19041  11.721   5.288   0.864  0.0668 -1.9238  0.8605
  863MOL0     H19042  11.684   5.432   0.954 -0.5704  0.3069 -0.4855
  863MOL0     H19043  11.389   5.223   0.824  2.7714  2.0483 -0.8202
  863MOL0     H19044  11.188   5.078   0.947 -0.8587 -0.7298  0.6905
  863MOL0     H19045  11.155   5.234   1.034  0.0284 -0.4951  0.6463
  863MOL0     H19046  11.259   4.962   1.140  0.8862 -0.9261 -0.0447
  863MOL0     H19047  11.233   5.100   1.249 -1.1658 -0.2350  0.9954
  863MOL0     H19048  11.010   5.100   1.239  4.8892  1.2596  1.3895
  863MOL0     H19049  10.993   4.989   1.091 -0.0381  1.3758 -0.9987
  863MOL0     H19050  11.078   4.795   1.222 -2.5724 -0.7150 -0.2086
  863MOL0     H19051  11.106   4.889   1.363  3.0392  0.5214 -1.5935
  863MOL0     H19052  11.073   4.671   1.427  0.9213 -1.6778  1.9401
  863MOL0     H19053  11.039   4.379   1.560 -0.8437 -0.3110 -3.6643
  863MOL0     H19054  11.031   4.512   1.679  1.1238  0.8555 -0.1782
  863MOL0     H19055  11.139   4.521   1.536  0.0551 -0.0826 -0.2122
  863MOL0     H19056  10.410   4.456   1.760 -2.5137 -0.4458 -0.6425
  863MOL0     H19057  10.264   4.319   1.895 -0.3208 -0.4686  0.5407
  863MOL0     H19058  10.388   3.855   1.928  1.8586 -0.0873  1.2299
  863MOL0     H19059  10.473   3.969   2.034  0.8322 -2.6652 -0.8673
  863MOL0     H19060  10.175   3.878   2.063 -0.1303  2.9871 -0.2343
  863MOL0     H19061  10.308   3.813   2.164 -0.5869  0.1561  1.0675
  863MOL0     H19062  10.183   4.090   2.140 -0.0228 -0.3473  0.0536
  863MOL0     H19063  10.340   4.080   2.226  1.2720 -3.0494  2.1003
  863MOL0     H19064  10.227   3.974   2.418  0.0202  4.6187  2.0825
  863MOL0     H19065  10.083   3.951   2.330 -0.8448  1.4228  0.0727
  863MOL0     H19066  10.223   4.222   2.388 -0.4592  1.4011 -0.7607
  863MOL0     H19067  10.067   4.195   2.299  0.3769 -0.9066 -0.4830
  863MOL0     H19068   9.974   4.080   2.505  0.4528 -0.8266 -1.8408
  863MOL0     H19069  10.011   4.254   2.509 -1.0338 -0.0699 -0.1864
  863MOL0     H19070  10.259   4.153   2.603 -0.4250  1.4730 -1.0753
  863MOL0     H19071  10.143   4.033   2.667  0.0786 -0.5991 -0.6708
  863MOL0     H19072  10.015   4.221   2.764  0.1420 -2.1590 -0.0199
  863MOL0     H19073  10.138   4.339   2.702  0.0897 -0.8097 -2.1699
  863MOL0     H19074  10.499   3.968   1.777 -0.3832  0.4049  0.1284
  863MOL0     H19075  10.643   4.122   1.644 -0.4768  0.7714 -2.9297
  863MOL0     H19076  10.586   4.572   1.449  0.0770  0.4364  1.4197
  863MOL0     H19077  10.670   4.751   1.298 -0.5017 -2.4859 -1.0693
  863MOL0     H19078  11.475   4.963   0.592 -0.2289 -0.5779  1.1116
  863MOL0     H19079  11.291   4.874   0.734 -1.5347 -0.6760 -0.7307
  863MOL0     H19080  10.964   4.797   0.939 -0.2231  0.2226  0.0953
  863MOL0     H19081  10.796   4.670   1.065 -3.4614  0.8846  1.6608
  863MOL0     H19082  10.628   4.558   1.157 -2.0610 -0.8073  1.7456
  863MOL0     H19083  10.478   4.477   1.120 -0.8680  0.3497 -2.0636
  863MOL0     H19084  10.742   4.419   0.980  0.6947 -0.5263 -1.5882
  863MOL0     H19085  10.596   4.316   0.972 -1.1806  1.6177 -0.8492
  863MOL0     H19086  10.774   4.347   1.220 -0.2048 -0.0622  0.9504
  863MOL0     H19087  10.597   4.291   1.223 -2.2131 -3.6843 -3.4152
  863MOL0     H19088  10.794   4.156   1.051  0.0516 -2.6512  0.1958
  863MOL0     H19089  10.637   4.106   1.107  0.7030 -0.6331 -0.1152
  863MOL0     H19090  10.818   3.966   1.437 -4.0628 -0.8188  0.3149
  863MOL0     H19091  10.505   4.722   0.763 -0.3865  0.7631  0.4050
  863MOL0     H19092  10.705   4.975   0.594 -0.9654  1.1992  2.5809
  863MOL0     H19093  10.674   4.817   0.508  0.4678 -0.2344  0.5055
  863MOL0     H19094  10.546   4.885   0.598 -0.0578 -1.7547 -1.5408
  864MOL0     O19095   1.137   0.860   3.093 -0.3926  0.4461  0.3931
  864MOL0     C19096   1.046   0.836   3.016 -0.1484 -0.4959  0.0024
  864MOL0     O19097   0.928   0.784   3.055  0.9785  0.8874 -0.8909
  864MOL0     C19098   0.886   0.768   3.188  0.5224 -0.8824  0.7744
  864MOL0     C19099   0.795   0.669   3.202 -0.2162 -1.4268  0.2471
  864MOL0     C19100   0.756   0.634   3.333 -1.2647 -0.0578 -0.2797
  864MOL0     C19101   0.809   0.710   3.440  0.9639 -0.4742 -0.1531
  864MOL0     O19102   0.740   0.678   3.560  0.0236  0.2244  0.7699
  864MOL0     C19103   0.748   0.765   3.673 -1.1364 -0.1163  0.2205
  864MOL0     C19104   0.661   0.706   3.794 -0.4562 -0.8077  0.1574
  864MOL0     C19105   0.512   0.704   3.752 -0.2194 -0.0551 -0.6765
  864MOL0     C19106   0.436   0.608   3.850 -0.4283 -0.0474  0.4774
  864MOL0     C19107   0.294   0.665   3.881  0.6140  0.4565  0.3083
  864MOL0     C19108   0.296   0.790   3.977 -0.6507 -0.8826 -0.3291
  864MOL0     C19109   0.153   0.830   4.003  0.4792  0.5851 -0.1245
  864MOL0     C19110   0.154   0.955   4.093  0.3642  0.3210 -0.9668
  864MOL0     N19111   0.028   0.967   4.167 -1.1820  0.2214 -0.2869
  864MOL0     C19112  -0.065   1.053   4.123  0.2246  0.1670 -0.4621
  864MOL0     C19113  -0.157   1.053   4.225  0.2480  0.3189 -0.1800
  864MOL0     C19114  -0.269   1.146   4.235 -0.2364 -0.3263  0.6597
  864MOL0     C19115  -0.398   1.105   4.293  0.9258  0.3668 -0.4348
  864MOL0     C19116  -0.507   1.213   4.288 -0.5646  0.0715 -0.5657
  864MOL0     C19117  -0.630   1.180   4.369  0.1257  0.7743 -0.0122
  864MOL0     O19118  -0.710   1.088   4.298 -0.3602 -0.3444 -0.1769
  864MOL0     C19119  -0.848   1.101   4.297  0.1598  0.2763 -0.4942
  864MOL0     C19120  -0.912   1.154   4.410  0.5572 -1.0171 -0.5383
  864MOL0     C19121  -1.055   1.175   4.417  0.6068  0.7511  0.2361
  864MOL0     C19122  -1.105   1.247   4.534  0.7933  0.1937 -1.3473
  864MOL0     C19123  -1.133   1.120   4.307 -0.6127 -0.7255 -0.3988
  864MOL0     C19124  -1.278   1.128   4.296  0.1262 -0.1874 -0.5011
  864MOL0     O19125  -1.345   1.094   4.178  0.3435  0.3861  0.0922
  864MOL0     C19126  -1.484   1.105   4.160  0.5434  1.1636 -0.3637
  864MOL0     C19127  -1.550   0.995   4.101  0.0505 -0.4956  0.9508
  864MOL0     C19128  -1.688   0.997   4.081  0.1359  0.7203  0.5279
  864MOL0     C19129  -1.769   1.103   4.124 -0.2604 -0.1787 -0.0114
  864MOL0     O19130  -1.907   1.108   4.114  0.4423  0.1717 -0.2979
  864MOL0     C19131  -1.980   1.018   4.025 -1.2029 -0.7346 -0.6316
  864MOL0     C19132  -2.133   1.040   4.020  0.1686 -0.1913  0.4321
  864MOL0     C19133  -2.188   0.987   3.886 -0.1587  0.0717 -0.0018
  864MOL0     C19134  -2.338   0.972   3.891  0.6269  0.1952 -0.6556
  864MOL0     C19135  -2.403   1.107   3.932  0.4208  0.0455 -0.5176
  864MOL0     C19136  -2.556   1.091   3.965 -0.5205  1.1097  0.2597
  864MOL0     C19137  -2.609   0.977   4.053  0.8516  0.3238  0.0045
  864MOL0     C19138  -2.760   0.997   4.081 -0.5291 -0.7802 -0.5857
  864MOL0    Cl19139  -2.790   1.151   4.161  0.0034 -0.1387 -0.0478
  864MOL0     C19140  -1.702   1.209   4.176 -0.0609 -0.3530 -0.5217
  864MOL0     C19141  -1.567   1.212   4.192 -0.6494  0.3051  0.3753
  864MOL0     O19142  -1.336   1.158   4.395  1.1357 -0.4318 -0.7195
  864MOL0     C19143  -1.065   1.060   4.198 -0.3931  0.7907  0.2483
  864MOL0     C19144  -0.924   1.060   4.192  0.0054 -0.0121  0.4376
  864MOL0     N19145  -0.111   0.977   4.328 -0.0307 -0.6943  0.2712
  864MOL0     N19146   0.007   0.925   4.294  0.4705 -0.6400  0.6282
  864MOL0     C19147   0.902   0.814   3.418  0.1343 -0.1904  0.3886
  864MOL0     C19148   0.938   0.845   3.291  0.0638 -0.8015 -0.5457
  864MOL0     C19149   1.070   0.894   2.880  0.7738 -0.1635  0.1119
  864MOL0     C19150   1.202   0.908   2.835  0.1314  0.6382  0.2692
  864MOL0     C19151   1.227   0.974   2.717 -0.1053 -0.2195  0.2830
  864MOL0     C19152   1.126   1.030   2.637 -0.7355 -0.1272  0.7211
  864MOL0     O19153   1.140   1.090   2.516 -0.2189  0.3541 -0.1444
  864MOL0     C19154   1.205   1.217   2.510 -0.1671  0.4021 -1.0648
  864MOL0     C19155   1.121   1.323   2.435 -0.1085 -0.0097 -0.5783
  864MOL0     C19156   1.182   1.468   2.433  0.4410  0.2051 -0.7620
  864MOL0     C19157   1.300   1.483   2.343 -0.6844 -0.1619  0.7061
  864MOL0     C19158   1.276   1.464   2.200  0.5899  0.0356  0.1800
  864MOL0     C19159   1.261   1.452   2.080 -0.6827  0.1852  0.3846
  864MOL0     C19160   1.000   1.032   2.694  0.2424 -0.1115 -0.5664
  864MOL0     C19161   0.971   0.967   2.810 -1.0189  0.5612 -1.3792
  864MOL0     C19162   0.823   0.973   2.852 -0.7504 -0.5740  0.7249
  864MOL0     H19163   0.765   0.622   3.109  1.0144 -0.4472 -0.6966
  864MOL0     H19164   0.693   0.552   3.366 -3.0986  2.4036  2.9428
  864MOL0     H19165   0.727   0.869   3.648 -2.3599 -0.7067 -1.4131
  864MOL0     H19166   0.854   0.767   3.697 -1.2347 -0.5904  0.7074
  864MOL0     H19167   0.691   0.601   3.801 -2.1123 -1.4005 -1.0185
  864MOL0     H19168   0.680   0.757   3.889  2.1737 -0.7550 -0.3135
  864MOL0     H19169   0.480   0.808   3.751  0.9383  0.3455  0.5366
  864MOL0     H19170   0.496   0.670   3.649  1.8816  1.1825 -1.4669
  864MOL0     H19171   0.428   0.508   3.806  2.9301 -0.0162 -0.4392
  864MOL0     H19172   0.494   0.590   3.941 -0.5492 -4.1400 -0.0391
  864MOL0     H19173   0.229   0.588   3.923 -0.6684  0.9801 -0.6556
  864MOL0     H19174   0.242   0.702   3.792  0.1092 -0.6052  0.1466
  864MOL0     H19175   0.345   0.764   4.071  1.9320  3.6492 -0.1765
  864MOL0     H19176   0.333   0.872   3.915 -1.5225 -2.5610 -3.2670
  864MOL0     H19177   0.106   0.741   4.047 -0.8043 -0.1453 -2.7051
  864MOL0     H19178   0.096   0.843   3.910  0.0109  0.4209  0.1328
  864MOL0     H19179   0.218   0.945   4.181 -2.2527 -1.1493  0.8989
  864MOL0     H19180   0.177   1.048   4.039  2.4715  0.0716 -0.6018
  864MOL0     H19181  -0.061   1.119   4.037 -2.6581  1.0719 -0.0198
  864MOL0     H19182  -0.307   1.182   4.139 -0.7599  4.0764  2.2572
  864MOL0     H19183  -0.224   1.235   4.279 -0.1328 -0.0275 -0.0446
  864MOL0     H19184  -0.429   1.019   4.234  1.6958 -1.7664  2.0917
  864MOL0     H19185  -0.386   1.070   4.396  1.3448  0.6332 -0.3895
  864MOL0     H19186  -0.475   1.304   4.338  0.3117 -0.5301 -0.0075
  864MOL0     H19187  -0.539   1.242   4.187 -1.5817  0.2149 -0.2030
  864MOL0     H19188  -0.614   1.133   4.467 -2.4897 -1.0424 -0.3380
  864MOL0     H19189  -0.685   1.269   4.399 -2.3354 -0.5305 -0.3486
  864MOL0     H19190  -0.863   1.183   4.503 -3.4297  2.5846  0.7581
  864MOL0     H19191  -1.031   1.300   4.595 -1.5068  2.0614 -0.0135
  864MOL0     H19192  -1.160   1.174   4.594  2.5254  2.2627  3.2637
  864MOL0     H19193  -1.174   1.327   4.505 -1.0720 -0.4560  0.9951
  864MOL0     H19194  -1.505   0.904   4.064  2.6634  0.9712  0.2530
  864MOL0     H19195  -1.737   0.909   4.043 -1.0119  0.7010  1.9467
  864MOL0     H19196  -1.939   1.043   3.927  2.4615 -0.8327  0.6977
  864MOL0     H19197  -1.957   0.916   4.059 -0.9779  0.0716  1.8367
  864MOL0     H19198  -2.181   1.000   4.109 -1.2253 -0.0170 -0.2194
  864MOL0     H19199  -2.164   1.144   4.034  0.3278 -0.4951  3.9000
  864MOL0     H19200  -2.143   0.888   3.868  1.0377  1.1334 -3.6437
  864MOL0     H19201  -2.155   1.048   3.802  0.1207  1.1836  0.8932
  864MOL0     H19202  -2.372   0.896   3.962 -1.3489  0.9749 -0.7260
  864MOL0     H19203  -2.378   0.942   3.793  1.1457 -2.3468 -0.1744
  864MOL0     H19204  -2.377   1.160   4.024 -0.7482  1.4346 -0.9646
  864MOL0     H19205  -2.387   1.168   3.843 -0.8756 -0.5897 -1.2132
  864MOL0     H19206  -2.594   1.067   3.865  2.1416  0.3997 -0.6399
  864MOL0     H19207  -2.607   1.180   4.003  1.4348  1.4819  2.1498
  864MOL0     H19208  -2.550   0.986   4.145  0.0165  2.3686  0.3898
  864MOL0     H19209  -2.597   0.887   3.992 -2.8140  1.9786 -3.5895
  864MOL0     H19210  -2.795   0.920   4.150 -1.2179 -0.1770 -0.2449
  864MOL0     H19211  -2.820   0.988   3.990  0.8133 -0.4122 -1.5332
  864MOL0     H19212  -1.761   1.289   4.220  0.2423 -2.5767  4.6221
  864MOL0     H19213  -1.528   1.298   4.248 -1.2748  0.1893  1.0007
  864MOL0     H19214  -1.116   1.040   4.104 -3.9806  1.6867  1.8227
  864MOL0     H19215  -0.871   1.034   4.101 -0.2902 -0.0773  0.2853
  864MOL0     H19216   0.933   0.876   3.502  1.9853  0.3500 -0.6425
  864MOL0     H19217   1.007   0.928   3.277 -0.5954 -0.5203 -2.5123
  864MOL0     H19218   1.284   0.874   2.899  1.5532  2.0366 -0.7339
  864MOL0     H19219   1.329   0.988   2.680  0.4559 -1.0525  1.4458
  864MOL0     H19220   1.227   1.257   2.609 -0.1455  0.5539 -1.1294
  864MOL0     H19221   1.299   1.210   2.455 -1.7425  3.4221 -4.5916
  864MOL0     H19222   1.032   1.334   2.499 -1.4659 -2.5343 -1.8743
  864MOL0     H19223   1.103   1.284   2.335  2.5600 -0.9286 -0.7796
  864MOL0     H19224   1.100   1.532   2.397 -1.6200 -0.6783  1.9633
  864MOL0     H19225   1.211   1.485   2.537  1.7230 -1.4003 -0.8168
  864MOL0     H19226   1.382   1.421   2.380  0.2901  1.1271  0.7749
  864MOL0     H19227   1.343   1.583   2.348  0.0356 -0.4738  0.8191
  864MOL0     H19228   1.258   1.445   1.973 -0.1926  0.2093  0.3664
  864MOL0     H19229   0.927   1.096   2.644  0.5041 -1.7624 -3.2839
  864MOL0     H19230   0.791   0.868   2.848  4.4312 -2.4460  0.5463
  864MOL0     H19231   0.805   1.019   2.949 -0.6089 -0.9010  0.9068
  864MOL0     H19232   0.778   1.036   2.775  2.2747 -1.6874 -2.1972
  865MOL0     O19233   7.431   5.664   6.254  0.6127 -0.0611  0.4410
  865MOL0     C19234   7.454   5.776   6.204 -0.4306 -0.4594  0.3486
  865MOL0     O19235   7.349   5.867   6.159  0.6872 -0.2319  0.1626
  865MOL0     C19236   7.222   5.816   6.140 -0.2483  0.6508  0.0197
  865MOL0     C19237   7.127   5.918   6.131  0.2462 -1.3424 -0.5270
  865MOL0     C19238   6.998   5.895   6.099  0.6184  0.5663  1.4060
  865MOL0     C19239   6.944   5.769   6.081 -0.4644  0.0244 -0.4763
  865MOL0     O19240   6.811   5.753   6.050  0.1167 -0.1479  0.0045
  865MOL0     C19241   6.723   5.793   6.156  0.1567  0.6272  0.1565
  865MOL0     C19242   6.601   5.703   6.143 -1.0606  0.2875  0.8309
  865MOL0     C19243   6.629   5.553   6.172 -0.3907  0.0087  0.3674
  865MOL0     C19244   6.724   5.511   6.286 -0.4344  0.3638  0.5416
  865MOL0     C19245   6.744   5.353   6.282  0.5191  0.1771  0.4416
  865MOL0     C19246   6.847   5.310   6.393 -1.4360  0.4956 -0.3187
  865MOL0     C19247   6.874   5.152   6.409 -0.2401 -0.4451 -0.4590
  865MOL0     C19248   6.819   5.051   6.310  0.3892 -0.8522 -0.8981
  865MOL0     N19249   6.817   4.925   6.373  0.5129 -1.3667 -0.8771
  865MOL0     C19250   6.898   4.817   6.338 -0.3909  0.4103 -1.5596
  865MOL0     C19251   6.849   4.713   6.413 -0.6339 -1.4168 -0.5410
  865MOL0     C19252   6.906   4.572   6.426 -0.7275  0.0677 -0.9509
  865MOL0     C19253   6.856   4.500   6.303  0.4372 -0.1378 -0.1257
  865MOL0     C19254   6.895   4.357   6.296  0.0499  0.9211 -0.1229
  865MOL0     C19255   6.781   4.262   6.345  0.2053  0.4626  0.0781
  865MOL0     O19256   6.824   4.133   6.297 -0.2785 -0.5588  0.0466
  865MOL0     C19257   6.747   4.032   6.357  1.3964 -0.1840  0.5233
  865MOL0     C19258   6.812   3.917   6.397 -0.1018  0.1932 -0.4016
  865MOL0     C19259   6.740   3.814   6.467  0.0502 -0.5363 -0.0568
  865MOL0     C19260   6.812   3.692   6.520 -0.1945 -0.1200  0.3670
  865MOL0     C19261   6.604   3.834   6.498  1.6927 -0.2562  1.3510
  865MOL0     C19262   6.512   3.737   6.563  0.1494 -1.7269 -0.0737
  865MOL0     O19263   6.417   3.787   6.644  0.3495 -0.1681  0.0923
  865MOL0     C19264   6.324   3.712   6.708  0.9066  0.2571 -0.1950
  865MOL0     C19265   6.350   3.593   6.770 -0.4513  0.4534  0.0472
  865MOL0     C19266   6.262   3.511   6.833 -0.5077 -0.1170 -0.0252
  865MOL0     C19267   6.134   3.555   6.843 -0.3637 -0.5172  0.5617
  865MOL0     O19268   6.030   3.494   6.916 -0.3834 -0.5201 -0.4848
  865MOL0     C19269   6.029   3.358   6.876 -0.7238 -0.2672 -0.0557
  865MOL0     C19270   5.919   3.295   6.946 -0.2354  0.2116  0.2273
  865MOL0     C19271   5.962   3.216   7.072 -0.7994  0.7552 -0.2581
  865MOL0     C19272   5.978   3.323   7.182  0.1986  0.0361  0.7991
  865MOL0     C19273   6.127   3.358   7.214 -0.0281 -0.6345  0.0266
  865MOL0     C19274   6.199   3.238   7.265  0.2739  0.3132  0.4193
  865MOL0     C19275   6.353   3.257   7.260  0.0014 -1.7547 -0.5704
  865MOL0     C19276   6.429   3.125   7.283  0.4040  0.2240  0.3827
  865MOL0    Cl19277   6.360   3.043   7.429  0.0116  0.0327 -0.1828
  865MOL0     C19278   6.092   3.679   6.785 -0.4032 -0.2532  0.5121
  865MOL0     C19279   6.189   3.759   6.725  0.2635  0.3512 -0.1234
  865MOL0     O19280   6.526   3.621   6.537  0.1969 -0.1220 -0.4242
  865MOL0     C19281   6.540   3.944   6.448  0.0876 -0.8700  1.4572
  865MOL0     C19282   6.612   4.039   6.369  0.4465  0.1879 -0.6239
  865MOL0     N19283   6.735   4.758   6.480 -0.0015  0.5327  0.3163
  865MOL0     N19284   6.722   4.888   6.458  0.6476 -0.3274  1.1443
  865MOL0     C19285   7.039   5.655   6.090  0.9633 -1.1642  0.0195
  865MOL0     C19286   7.178   5.682   6.113 -0.0437 -0.1058  0.4677
  865MOL0     C19287   7.594   5.815   6.170  0.6068 -0.1417 -0.2915
  865MOL0     C19288   7.618   5.935   6.100  0.1898  0.1000  0.0752
  865MOL0     C19289   7.738   5.979   6.065  0.3192 -0.2496  0.3677
  865MOL0     C19290   7.853   5.910   6.098 -0.2082 -0.3343 -0.3330
  865MOL0     O19291   7.982   5.959   6.075 -0.4878 -0.0918 -0.0570
  865MOL0     C19292   8.005   6.094   6.027 -0.5640  0.2414 -0.1875
  865MOL0     C19293   8.161   6.129   6.015  0.0814 -0.2752  0.1422
  865MOL0     C19294   8.233   6.087   6.145 -0.4360 -0.5376 -0.0154
  865MOL0     C19295   8.203   6.187   6.252 -0.6837 -0.1126  0.2851
  865MOL0     C19296   8.302   6.161   6.352  0.1594  0.2746 -0.2653
  865MOL0     C19297   8.374   6.122   6.442  0.8408  1.0237  1.1115
  865MOL0     C19298   7.838   5.799   6.182 -0.4046  1.3016  0.6362
  865MOL0     C19299   7.707   5.756   6.218  0.5746  0.4926  0.0570
  865MOL0     C19300   7.708   5.632   6.318  0.0739 -0.5461  0.7631
  865MOL0     H19301   7.175   6.015   6.130  0.4167 -1.3927 -2.8027
  865MOL0     H19302   6.933   5.981   6.084 -0.0061 -0.2002 -0.4437
  865MOL0     H19303   6.701   5.900   6.149  1.1421  0.7433 -4.5804
  865MOL0     H19304   6.779   5.778   6.248  1.0399  3.9896  0.2904
  865MOL0     H19305   6.535   5.735   6.224  0.2991  0.7311  1.8054
  865MOL0     H19306   6.549   5.717   6.048  1.1404  1.1135 -0.3238
  865MOL0     H19307   6.531   5.506   6.184 -1.6289  2.8785  3.1786
  865MOL0     H19308   6.664   5.512   6.077 -0.1007  1.8601 -0.3705
  865MOL0     H19309   6.824   5.556   6.284  0.5632 -1.7397 -0.8788
  865MOL0     H19310   6.681   5.542   6.382  1.2587  0.1261  1.4184
  865MOL0     H19311   6.780   5.333   6.180  0.4897  4.7796 -0.7147
  865MOL0     H19312   6.645   5.312   6.303  0.3164  0.2770 -0.2721
  865MOL0     H19313   6.933   5.375   6.376 -0.1577 -0.6841  1.3129
  865MOL0     H19314   6.800   5.344   6.486 -2.5742 -2.0079  0.1132
  865MOL0     H19315   6.843   5.117   6.508  0.9758  1.1222  0.5366
  865MOL0     H19316   6.983   5.145   6.410 -0.2313 -0.4849 -1.1960
  865MOL0     H19317   6.718   5.087   6.289 -0.0862  1.2439  3.8023
  865MOL0     H19318   6.871   5.055   6.214  3.8871 -1.9900  0.7803
  865MOL0     H19319   6.988   4.821   6.278  2.2668 -1.3151  1.9452
  865MOL0     H19320   6.869   4.515   6.512 -1.6017 -1.9881 -2.6060
  865MOL0     H19321   7.015   4.570   6.433 -0.6258  3.0964 -0.0545
  865MOL0     H19322   6.747   4.502   6.313  0.4425 -2.3579  0.8767
  865MOL0     H19323   6.890   4.547   6.210  0.4139 -0.4758 -0.3069
  865MOL0     H19324   6.912   4.335   6.190  2.1116  0.6211  0.2415
  865MOL0     H19325   6.986   4.341   6.353  0.7881 -1.7778 -1.8764
  865MOL0     H19326   6.778   4.269   6.454 -1.5598  0.7024  0.0331
  865MOL0     H19327   6.685   4.288   6.300 -1.0302 -2.3312  0.9243
  865MOL0     H19328   6.919   3.920   6.382  0.1070  1.5449  1.0587
  865MOL0     H19329   6.797   3.604   6.457  0.0225  1.5655 -2.1670
  865MOL0     H19330   6.777   3.683   6.623  0.0582  0.6296  0.5251
  865MOL0     H19331   6.918   3.711   6.504 -0.7772  3.2711 -0.2819
  865MOL0     H19332   6.453   3.559   6.759  1.3290  5.1098 -0.0039
  865MOL0     H19333   6.298   3.426   6.889  0.2977  0.4633  0.3511
  865MOL0     H19334   6.003   3.340   6.771  1.7395 -2.1088 -0.4339
  865MOL0     H19335   6.124   3.307   6.892  0.1886  1.5405  0.5242
  865MOL0     H19336   5.837   3.365   6.967  0.8000  0.8952  2.2907
  865MOL0     H19337   5.882   3.228   6.868 -1.3874 -0.3806  1.2459
  865MOL0     H19338   6.040   3.144   7.049 -1.1642  0.6030 -1.0453
  865MOL0     H19339   5.881   3.154   7.112  0.3506  0.2754  1.4741
  865MOL0     H19340   5.930   3.291   7.275 -0.4613  0.7515  0.7217
  865MOL0     H19341   5.946   3.421   7.145 -2.5486 -1.0295  0.1679
  865MOL0     H19342   6.172   3.377   7.116 -0.8608 -0.9315 -0.4188
  865MOL0     H19343   6.132   3.442   7.284 -2.4730 -0.2415 -0.2017
  865MOL0     H19344   6.172   3.153   7.202 -0.7780  0.9694 -0.0516
  865MOL0     H19345   6.164   3.213   7.366 -0.3037  0.3042  0.2210
  865MOL0     H19346   6.392   3.329   7.333 -2.9659 -0.3750 -0.2121
  865MOL0     H19347   6.388   3.296   7.164  0.7572 -1.3758 -0.1475
  865MOL0     H19348   6.537   3.139   7.290  0.4067  0.0769  0.6521
  865MOL0     H19349   6.412   3.056   7.199 -1.8310  1.8439 -0.5802
  865MOL0     H19350   5.996   3.725   6.806  1.4576  3.3674  2.0510
  865MOL0     H19351   6.164   3.859   6.691 -0.3839  0.0074 -0.6793
  865MOL0     H19352   6.431   3.949   6.450  0.0700 -0.5536  0.2478
  865MOL0     H19353   6.560   4.123   6.323 -0.8723  0.3325  1.0671
  865MOL0     H19354   6.998   5.556   6.075 -1.1182 -0.1846 -1.2154
  865MOL0     H19355   7.252   5.604   6.095 -0.0084  0.0566 -0.0964
  865MOL0     H19356   7.532   5.996   6.073 -0.1581 -0.6384 -0.5309
  865MOL0     H19357   7.737   6.071   6.006 -0.0054 -0.2152  0.4239
  865MOL0     H19358   7.954   6.101   5.930 -2.5965  1.6521  0.9228
  865MOL0     H19359   7.964   6.176   6.087 -3.8596 -1.4927  0.1721
  865MOL0     H19360   8.178   6.234   5.990 -1.6096 -0.2544 -1.0335
  865MOL0     H19361   8.204   6.088   5.923  1.3596 -2.4480  1.6073
  865MOL0     H19362   8.230   5.982   6.175  1.3743 -0.6610 -0.1283
  865MOL0     H19363   8.337   6.110   6.119 -1.1977  0.0552 -2.8282
  865MOL0     H19364   8.101   6.172   6.288 -1.7884 -0.0402 -2.5201
  865MOL0     H19365   8.223   6.291   6.222  0.1784 -0.0261  1.1092
  865MOL0     H19366   8.438   6.067   6.507 -0.9685 -3.0312 -0.2112
  865MOL0     H19367   7.919   5.731   6.205 -2.5041 -1.0939  1.3097
  865MOL0     H19368   7.797   5.643   6.381 -0.6353 -0.5894  1.7984
  865MOL0     H19369   7.629   5.630   6.393 -0.3330  1.6482  0.4681
  865MOL0     H19370   7.730   5.539   6.264  1.8615 -1.8085  3.4831
  866MOL0     O19371   6.867   6.021   2.347 -0.4043 -0.4460 -0.2797
  866MOL0     C19372   6.842   5.907   2.390  0.1876  0.2777 -0.8839
  866MOL0     O19373   6.830   5.802   2.309  0.0261  0.2063  0.0004
  866MOL0     C19374   6.806   5.815   2.175  1.2940 -0.2333  0.5971
  866MOL0     C19375   6.764   5.919   2.091 -0.3620 -0.4847 -0.3455
  866MOL0     C19376   6.719   5.888   1.957  0.7030 -0.1100 -1.3926
  866MOL0     C19377   6.711   5.752   1.918  0.1567 -0.6728  0.7080
  866MOL0     O19378   6.697   5.711   1.787  0.1678  0.3338 -0.3038
  866MOL0     C19379   6.649   5.794   1.679 -0.2241 -0.0941 -0.1170
  866MOL0     C19380   6.597   5.710   1.568  1.1529 -0.0563  0.3417
  866MOL0     C19381   6.455   5.773   1.525 -0.8751  0.5654 -0.2212
  866MOL0     C19382   6.389   5.701   1.413 -0.2528  0.7827  0.1021
  866MOL0     C19383   6.250   5.761   1.395  0.9137  0.1436  0.2977
  866MOL0     C19384   6.147   5.692   1.478  0.4002 -0.2240 -0.1366
  866MOL0     C19385   6.012   5.762   1.486 -0.2551 -0.0600 -0.0706
  866MOL0     C19386   5.909   5.690   1.574  0.1853  0.8519 -0.1161
  866MOL0     N19387   5.939   5.691   1.719 -0.1823  0.2685 -0.1895
  866MOL0     C19388   5.986   5.799   1.781  0.2797 -0.9804  0.1204
  866MOL0     C19389   6.030   5.746   1.901  1.5183 -0.0188 -0.9616
  866MOL0     C19390   6.121   5.832   1.987 -0.1527  0.0592  0.5528
  866MOL0     C19391   6.213   5.730   2.068  0.0217  0.3391  0.0290
  866MOL0     C19392   6.338   5.802   2.118 -0.3175  0.1977 -1.0233
  866MOL0     C19393   6.459   5.704   2.137 -0.8030  0.5456 -0.0284
  866MOL0     O19394   6.404   5.587   2.198  0.5493  0.4493  0.0587
  866MOL0     C19395   6.423   5.547   2.330 -0.1490  0.6550  0.3829
  866MOL0     C19396   6.368   5.429   2.362 -0.0899  0.0046  0.0177
  866MOL0     C19397   6.405   5.360   2.481  1.3353  0.1523  0.7948
  866MOL0     C19398   6.331   5.234   2.488 -0.1312  0.2697  0.1339
  866MOL0     C19399   6.493   5.415   2.575 -0.2953 -0.1637  0.4618
  866MOL0     C19400   6.531   5.357   2.705 -0.1200  0.3115  0.3277
  866MOL0     O19401   6.619   5.433   2.779 -1.1455  0.1820  0.3835
  866MOL0     C19402   6.667   5.385   2.898 -0.7146  0.1260 -1.0688
  866MOL0     C19403   6.695   5.250   2.932  0.0785  0.1590  0.2027
  866MOL0     C19404   6.759   5.217   3.045 -0.2767  0.1361 -0.3225
  866MOL0     C19405   6.791   5.317   3.148 -0.2174 -0.2524  0.2200
  866MOL0     O19406   6.864   5.284   3.259  0.2277  1.3596  0.7795
  866MOL0     C19407   6.885   5.383   3.364  0.3050  0.1615 -0.2758
  866MOL0     C19408   6.922   5.323   3.501  0.2844  0.1563 -0.4350
  866MOL0     C19409   7.033   5.222   3.493 -0.0237 -1.3207  0.4663
  866MOL0     C19410   7.075   5.177   3.636 -0.6247  0.3384  0.2074
  866MOL0     C19411   7.176   5.066   3.617 -0.0384  1.0736  0.3486
  866MOL0     C19412   7.294   5.100   3.521 -0.5489  0.8804  0.9230
  866MOL0     C19413   7.386   4.973   3.531 -0.4364 -0.7123  0.6750
  866MOL0     C19414   7.495   4.971   3.425  0.4269  0.1911 -0.4547
  866MOL0    Cl19415   7.556   5.139   3.392 -0.3946 -0.1409  0.1044
  866MOL0     C19416   6.741   5.450   3.121  0.4484  0.1152 -0.3974
  866MOL0     C19417   6.676   5.481   3.000  0.2542  0.0095  0.6782
  866MOL0     O19418   6.483   5.251   2.737 -0.1671  0.5363 -0.0144
  866MOL0     C19419   6.548   5.543   2.547 -0.1791  0.1886  0.2624
  866MOL0     C19420   6.518   5.607   2.417 -0.3426 -0.0019  0.1616
  866MOL0     N19421   6.015   5.610   1.904 -1.1697  1.0544  0.2789
  866MOL0     N19422   5.943   5.578   1.804 -0.5881 -0.8649 -0.0574
  866MOL0     C19423   6.740   5.652   2.008  0.2831  0.2860 -0.0767
  866MOL0     C19424   6.789   5.684   2.124 -0.4752 -0.2477  0.4008
  866MOL0     C19425   6.829   5.881   2.534 -0.0716 -0.5951 -0.4883
  866MOL0     C19426   6.839   5.749   2.570 -0.7810 -0.2410  0.3542
  866MOL0     C19427   6.851   5.707   2.704 -1.0225 -0.4675  0.9220
  866MOL0     C19428   6.843   5.791   2.809  0.6227 -0.4928  0.3383
  866MOL0     O19429   6.851   5.738   2.936 -0.2829 -1.0269  1.1517
  866MOL0     C19430   6.952   5.797   3.018 -0.3074  0.2585 -0.6664
  866MOL0     C19431   7.010   5.688   3.114  0.4750 -0.1797  0.5699
  866MOL0     C19432   7.149   5.719   3.179 -0.6608 -0.0180  0.0369
  866MOL0     C19433   7.208   5.616   3.275  0.0810 -0.5301  0.3721
  866MOL0     C19434   7.235   5.484   3.209  0.7672  0.0541  0.8931
  866MOL0     C19435   7.253   5.396   3.124  0.5175  0.1343 -0.0389
  866MOL0     C19436   6.844   5.928   2.775  0.6294  0.0140 -0.3825
  866MOL0     C19437   6.847   5.981   2.642 -0.0791 -0.6480  0.9973
  866MOL0     C19438   6.869   6.128   2.605  0.0413 -0.3234 -1.0206
  866MOL0     H19439   6.776   6.024   2.117  0.7070 -0.9190  1.0432
  866MOL0     H19440   6.684   5.961   1.886 -0.3913 -1.6586 -2.5092
  866MOL0     H19441   6.726   5.861   1.639 -1.1016  1.1727  0.2599
  866MOL0     H19442   6.570   5.859   1.717 -1.6650 -0.3456 -2.4600
  866MOL0     H19443   6.672   5.700   1.488 -0.4668 -1.7225 -1.0691
  866MOL0     H19444   6.584   5.611   1.613 -1.5354 -0.6164 -1.4317
  866MOL0     H19445   6.398   5.775   1.619 -0.1308  0.9211  0.2346
  866MOL0     H19446   6.479   5.876   1.499  1.9058  0.4639  1.4641
  866MOL0     H19447   6.462   5.705   1.331 -2.1477 -1.5815 -1.8559
  866MOL0     H19448   6.380   5.593   1.430  3.8743  0.4668  1.3606
  866MOL0     H19449   6.228   5.735   1.291  1.1293 -0.2365  0.3431
  866MOL0     H19450   6.239   5.869   1.402 -4.6991 -0.0632 -0.5955
  866MOL0     H19451   6.134   5.586   1.453  1.8960 -0.3670 -0.3575
  866MOL0     H19452   6.187   5.695   1.579  0.6458 -0.4405 -0.2255
  866MOL0     H19453   5.963   5.765   1.388 -1.9928  0.5626  0.7671
  866MOL0     H19454   6.010   5.864   1.527 -0.3964  0.0409 -0.3271
  866MOL0     H19455   5.810   5.737   1.566  1.7882  4.9625  1.3896
  866MOL0     H19456   5.900   5.585   1.544 -0.3713  0.8574  0.0144
  866MOL0     H19457   5.995   5.903   1.750  1.9018 -0.3307  2.5499
  866MOL0     H19458   6.072   5.902   2.056  1.4008 -0.0703  1.8412
  866MOL0     H19459   6.182   5.895   1.923  1.8347 -1.9186  0.3602
  866MOL0     H19460   6.161   5.678   2.149  1.0723  1.0847  1.2262
  866MOL0     H19461   6.240   5.655   1.993 -2.9997  0.3258 -1.1755
  866MOL0     H19462   6.362   5.881   2.046  1.9786 -1.6495 -2.4378
  866MOL0     H19463   6.311   5.846   2.214  1.9076  4.4878 -2.1082
  866MOL0     H19464   6.492   5.663   2.041 -2.7795  0.9826 -0.9659
  866MOL0     H19465   6.544   5.747   2.190 -0.2874  2.1034 -2.0141
  866MOL0     H19466   6.290   5.384   2.301 -1.1135 -1.2324  2.1038
  866MOL0     H19467   6.402   5.153   2.509  2.0666  1.3675 -2.5398
  866MOL0     H19468   6.286   5.209   2.392  0.4413  2.8348 -0.8843
  866MOL0     H19469   6.258   5.251   2.568 -0.4270  2.1607 -0.4801
  866MOL0     H19470   6.678   5.170   2.860  0.7008  2.1195 -2.2576
  866MOL0     H19471   6.793   5.116   3.067  0.9654  0.3833 -0.9908
  866MOL0     H19472   6.964   5.447   3.324  1.5166 -1.3235 -0.3554
  866MOL0     H19473   6.797   5.442   3.390 -0.4522 -0.7676 -0.6630
  866MOL0     H19474   6.948   5.403   3.572 -1.0072  0.9407 -0.8204
  866MOL0     H19475   6.830   5.288   3.549 -1.0627 -1.4937 -3.9382
  866MOL0     H19476   7.120   5.274   3.451 -0.0548  0.0733  2.0537
  866MOL0     H19477   6.996   5.136   3.435 -2.7431 -1.1964  1.8721
  866MOL0     H19478   6.995   5.141   3.702 -0.8716  0.9409  0.2408
  866MOL0     H19479   7.124   5.264   3.681 -0.5523  0.3237  0.1565
  866MOL0     H19480   7.218   5.047   3.717  1.2935  1.1312 -0.1759
  866MOL0     H19481   7.121   4.977   3.588 -1.2140  1.3521  1.6173
  866MOL0     H19482   7.329   5.194   3.564 -1.5556  1.6743  0.0648
  866MOL0     H19483   7.262   5.105   3.416  1.1424 -0.8193  0.2520
  866MOL0     H19484   7.322   4.885   3.519  0.6435 -1.4399  0.1102
  866MOL0     H19485   7.427   4.948   3.630  2.9414  0.4909 -0.2873
  866MOL0     H19486   7.453   4.925   3.335 -1.2224 -0.3676  0.5550
  866MOL0     H19487   7.577   4.902   3.443  3.2423  3.7853  1.8293
  866MOL0     H19488   6.741   5.523   3.200 -0.5163 -2.2844  1.9737
  866MOL0     H19489   6.640   5.582   2.982 -0.8121 -0.4260  0.2967
  866MOL0     H19490   6.618   5.588   2.617 -0.1730  1.0339 -0.2788
  866MOL0     H19491   6.574   5.694   2.386 -0.4632 -0.2499 -0.8092
  866MOL0     H19492   6.722   5.546   1.993 -0.6673  0.4365 -0.0713
  866MOL0     H19493   6.826   5.601   2.184  1.1078  0.7158  0.8060
  866MOL0     H19494   6.846   5.680   2.487  0.2852  0.4035 -0.1141
  866MOL0     H19495   6.866   5.601   2.719  1.4956 -0.4324 -0.7072
  866MOL0     H19496   7.042   5.836   2.969  2.4739 -2.5718  1.7704
  866MOL0     H19497   6.907   5.880   3.073 -0.0626 -0.3435  0.4755
  866MOL0     H19498   7.025   5.600   3.051 -0.3630 -1.3237  1.9204
  866MOL0     H19499   6.930   5.668   3.185  0.8004  0.9870  1.3010
  866MOL0     H19500   7.222   5.739   3.100  0.1259 -3.2959 -0.2270
  866MOL0     H19501   7.155   5.807   3.244 -0.0164 -1.0361  1.3942
  866MOL0     H19502   7.132   5.607   3.353  0.9974 -1.7489  1.1686
  866MOL0     H19503   7.298   5.661   3.317 -0.8062  0.6775  1.0342
  866MOL0     H19504   7.281   5.317   3.058 -0.4148  0.2525 -0.5947
  866MOL0     H19505   6.839   6.003   2.853 -0.9363  1.1813 -1.5473
  866MOL0     H19506   6.974   6.142   2.580  0.4890 -1.7450 -0.0476
  866MOL0     H19507   6.806   6.153   2.519 -1.5034  2.0260  0.6682
  866MOL0     H19508   6.837   6.184   2.694  3.0906 -0.6657  0.3880
  867MOL0     O19509   9.167   9.042   9.084 -0.0384  0.0043  0.2911
  867MOL0     C19510   9.117   9.021   9.191 -0.4208 -0.1702 -0.5852
  867MOL0     O19511   9.078   8.898   9.245  0.5289 -0.0080 -0.4999
  867MOL0     C19512   9.050   8.787   9.169  0.4741 -0.9381  0.2214
  867MOL0     C19513   9.037   8.668   9.246 -0.0001  0.9561 -0.0442
  867MOL0     C19514   8.996   8.547   9.186 -0.5034  0.0695  0.2336
  867MOL0     C19515   8.972   8.553   9.042 -0.2125 -0.2219  0.7886
  867MOL0     O19516   8.931   8.436   8.973  0.1765  0.5768  0.1057
  867MOL0     C19517   8.899   8.311   9.037  1.2178 -0.5976  0.4873
  867MOL0     C19518   8.850   8.213   8.926 -0.2564 -0.9318  0.5779
  867MOL0     C19519   8.974   8.170   8.849  0.0313 -0.2429 -0.2241
  867MOL0     C19520   8.945   8.061   8.737 -0.1672 -0.1455 -0.5024
  867MOL0     C19521   8.894   8.122   8.606  0.9043  1.1226 -0.0000
  867MOL0     C19522   8.798   8.015   8.532  0.2448  0.2528  0.0550
  867MOL0     C19523   8.743   8.086   8.402 -0.7274 -0.3758 -0.1246
  867MOL0     C19524   8.693   7.996   8.294 -0.7649 -0.3532 -0.0437
  867MOL0     N19525   8.595   7.900   8.333  0.3436 -0.1524  0.8839
  867MOL0     C19526   8.458   7.927   8.349 -1.1970 -0.2671  0.7070
  867MOL0     C19527   8.401   7.802   8.366 -0.5671 -0.1537 -0.3255
  867MOL0     C19528   8.264   7.760   8.405  0.4923  0.2299  0.3906
  867MOL0     C19529   8.189   7.695   8.282 -0.9985 -0.7757  0.1493
  867MOL0     C19530   8.039   7.671   8.320  0.0553 -0.3604 -0.3315
  867MOL0     C19531   8.013   7.536   8.371  0.9923  1.0106  0.3177
  867MOL0     O19532   7.878   7.500   8.391  0.1390 -0.5924 -0.5163
  867MOL0     C19533   7.830   7.518   8.523  0.7918 -0.0188  0.5723
  867MOL0     C19534   7.720   7.441   8.544  0.0084 -0.3686  1.8053
  867MOL0     C19535   7.648   7.434   8.661 -0.0010  0.0876 -0.7085
  867MOL0     C19536   7.515   7.356   8.664  0.0720  1.0078  0.2024
  867MOL0     C19537   7.704   7.508   8.768  0.4860 -0.7618 -0.1266
  867MOL0     C19538   7.645   7.523   8.911  0.2946  0.1403  0.1235
  867MOL0     O19539   7.694   7.612   9.004 -0.2614  0.3336  0.2736
  867MOL0     C19540   7.658   7.608   9.138  0.2935 -1.6622  1.1887
  867MOL0     C19541   7.531   7.579   9.188 -1.1924 -0.8214  0.0519
  867MOL0     C19542   7.497   7.561   9.327  0.5764 -1.0060 -0.4574
  867MOL0     C19543   7.599   7.571   9.418 -0.0994 -0.4094 -1.1356
  867MOL0     O19544   7.587   7.519   9.553 -0.0450 -0.3937  0.0207
  867MOL0     C19545   7.562   7.627   9.642 -0.1256  0.4281 -1.0100
  867MOL0     C19546   7.550   7.552   9.777 -0.2486 -0.7709  0.7658
  867MOL0     C19547   7.551   7.646   9.905  0.3059 -0.3023  0.6137
  867MOL0     C19548   7.479   7.787   9.895  0.4110  0.0191  0.4648
  867MOL0     C19549   7.476   7.849  10.030 -0.2884 -0.2462 -0.0838
  867MOL0     C19550   7.440   7.999  10.009 -0.1290 -0.0608 -0.1737
  867MOL0     C19551   7.453   8.074  10.143  0.0397 -1.2162  0.7652
  867MOL0     C19552   7.364   8.025  10.260 -0.2522 -0.2759 -0.9837
  867MOL0    Cl19553   7.195   8.020  10.199  0.1462 -0.2059  0.0465
  867MOL0     C19554   7.723   7.607   9.367  0.2119 -0.4590 -0.8827
  867MOL0     C19555   7.766   7.618   9.234  0.7816  0.1416 -0.1196
  867MOL0     O19556   7.551   7.445   8.936 -0.6868 -0.3277 -0.3446
  867MOL0     C19557   7.817   7.587   8.753  0.3567  0.4678  0.0228
  867MOL0     C19558   7.886   7.584   8.635  0.0445 -0.2315  0.1103
  867MOL0     N19559   8.507   7.713   8.364 -0.2812  0.2802  0.3392
  867MOL0     N19560   8.621   7.770   8.339 -0.2106 -0.2900  0.0579
  867MOL0     C19561   8.990   8.670   8.974 -1.0711 -0.3286  0.3637
  867MOL0     C19562   9.033   8.788   9.032  0.2367  0.5993  0.7948
  867MOL0     C19563   9.103   9.140   9.286  0.2680  0.4992 -0.1800
  867MOL0     C19564   9.089   9.110   9.418  0.6756 -0.7014 -0.2639
  867MOL0     C19565   9.100   9.215   9.518 -0.6849 -1.0262  0.8707
  867MOL0     C19566   9.132   9.346   9.476 -0.4190  0.1909  0.1343
  867MOL0     O19567   9.170   9.446   9.559 -0.7003 -0.6419 -0.7185
  867MOL0     C19568   9.176   9.429   9.708  0.4371 -0.2438  0.8267
  867MOL0     C19569   9.210   9.564   9.771  0.6090 -0.1566  0.6203
  867MOL0     C19570   9.340   9.610   9.707  0.1598  0.2626 -0.8371
  867MOL0     C19571   9.467   9.601   9.788  0.0786 -0.2019  0.2853
  867MOL0     C19572   9.508   9.456   9.804  0.5198 -0.0569  0.4205
  867MOL0     C19573   9.547   9.346   9.807 -0.1059  0.3201  0.3326
  867MOL0     C19574   9.141   9.373   9.341  0.0843  0.0086  0.3585
  867MOL0     C19575   9.110   9.273   9.250 -0.0897  0.0858 -0.4646
  867MOL0     C19576   9.099   9.319   9.104 -0.3299  0.2080  0.2715
  867MOL0     H19577   9.065   8.671   9.351  2.5341  2.2176 -0.6866
  867MOL0     H19578   8.990   8.454   9.241  1.9603  0.1730  0.7995
  867MOL0     H19579   8.817   8.329   9.108  1.0721  1.0851 -0.0728
  867MOL0     H19580   8.990   8.283   9.091  1.3212 -1.4925 -0.1287
  867MOL0     H19581   8.812   8.119   8.967  0.1724 -1.6829 -0.6720
  867MOL0     H19582   8.779   8.267   8.863  1.1187  0.6529  0.2981
  867MOL0     H19583   9.020   8.251   8.791 -0.5916  1.6867  1.8189
  867MOL0     H19584   9.052   8.145   8.921 -0.6468  0.6872  0.8784
  867MOL0     H19585   9.046   8.029   8.707  1.0954  1.0358  2.1442
  867MOL0     H19586   8.889   7.976   8.778 -0.0452  1.0442  2.3928
  867MOL0     H19587   8.978   8.167   8.552 -0.5447  2.8236 -0.9783
  867MOL0     H19588   8.827   8.208   8.620  0.4489  0.6605  0.7102
  867MOL0     H19589   8.862   7.933   8.498 -0.0164 -2.4608  5.0460
  867MOL0     H19590   8.719   7.965   8.589  0.6123 -2.2661 -1.4973
  867MOL0     H19591   8.823   8.138   8.350 -0.1693  0.2416  1.2918
  867MOL0     H19592   8.667   8.158   8.435  0.3078 -0.9023  3.9494
  867MOL0     H19593   8.652   8.073   8.228 -0.0778  1.0197  1.0722
  867MOL0     H19594   8.769   7.940   8.239 -2.3898 -0.7997 -1.9595
  867MOL0     H19595   8.417   8.026   8.340  0.4142  0.4009  0.2961
  867MOL0     H19596   8.210   7.840   8.455  1.0685  0.9164 -0.0634
  867MOL0     H19597   8.276   7.686   8.485 -1.8242 -1.6065 -0.8418
  867MOL0     H19598   8.188   7.768   8.200  1.1260 -1.7626 -0.8406
  867MOL0     H19599   8.235   7.602   8.248  2.0207  1.2563 -1.8771
  867MOL0     H19600   8.003   7.747   8.390 -2.5671 -1.2830 -0.5478
  867MOL0     H19601   7.987   7.689   8.226 -1.6574  0.1190  0.6598
  867MOL0     H19602   8.041   7.464   8.294  1.4086  1.1483  0.3384
  867MOL0     H19603   8.082   7.516   8.453 -1.8448  0.9276  2.8528
  867MOL0     H19604   7.691   7.386   8.455 -3.0102  3.3122  0.2404
  867MOL0     H19605   7.495   7.317   8.564 -2.1098  1.7440  0.3132
  867MOL0     H19606   7.426   7.412   8.695 -0.3414 -0.1416  1.1628
  867MOL0     H19607   7.521   7.268   8.730 -1.5683  1.9156  1.6553
  867MOL0     H19608   7.457   7.573   9.108 -1.4466  2.0796 -0.0530
  867MOL0     H19609   7.397   7.544   9.364 -0.2195  0.3407 -1.8492
  867MOL0     H19610   7.648   7.693   9.629 -1.4146  2.0440 -1.6871
  867MOL0     H19611   7.470   7.679   9.614 -0.9154 -0.1336  0.4325
  867MOL0     H19612   7.457   7.498   9.760 -0.8978  0.6947 -0.5689
  867MOL0     H19613   7.624   7.472   9.794 -1.2654 -2.0197 -0.4238
  867MOL0     H19614   7.654   7.667   9.934 -0.6871  2.9450  2.2288
  867MOL0     H19615   7.502   7.575   9.973 -1.8291 -0.6810 -1.1871
  867MOL0     H19616   7.375   7.782   9.861  0.1301  2.6537  0.7471
  867MOL0     H19617   7.530   7.841   9.814  0.1429 -4.7724 -3.3783
  867MOL0     H19618   7.407   7.802  10.100 -2.3541  2.3878 -0.1950
  867MOL0     H19619   7.577   7.843  10.071  0.7560 -0.0221 -2.4422
  867MOL0     H19620   7.340   8.015   9.968 -1.2406 -1.5291  1.7601
  867MOL0     H19621   7.510   8.037   9.934  0.2537  0.7506  0.5746
  867MOL0     H19622   7.441   8.182  10.129  1.8183 -1.0043  0.6735
  867MOL0     H19623   7.557   8.071  10.176 -0.8466  1.9744  4.7795
  867MOL0     H19624   7.373   8.094  10.344  1.5277 -1.9098  0.2444
  867MOL0     H19625   7.402   7.929  10.296  1.1254  0.0799 -1.3951
  867MOL0     H19626   7.810   7.610   9.432 -0.7653  1.1378  0.4422
  867MOL0     H19627   7.869   7.630   9.202  0.4883  0.4570 -0.9650
  867MOL0     H19628   7.868   7.641   8.832  0.4905 -0.7877  0.8120
  867MOL0     H19629   7.984   7.629   8.623  0.7362 -2.0261 -1.5419
  867MOL0     H19630   8.968   8.669   8.868 -0.8180  4.3725  0.0675
  867MOL0     H19631   9.056   8.872   8.968  1.6768 -0.5714 -0.3042
  867MOL0     H19632   9.075   9.007   9.451 -1.6877 -1.1503 -2.3829
  867MOL0     H19633   9.122   9.191   9.622  3.2241 -1.0080  0.1971
  867MOL0     H19634   9.075   9.402   9.741 -0.3086  1.4585  0.0462
  867MOL0     H19635   9.239   9.347   9.746 -0.5203 -1.9283 -1.0675
  867MOL0     H19636   9.226   9.547   9.878 -1.3676 -2.8690  0.5776
  867MOL0     H19637   9.135   9.641   9.753 -0.4541 -1.1604  0.6206
  867MOL0     H19638   9.359   9.563   9.610 -0.7302  0.4102 -1.0860
  867MOL0     H19639   9.327   9.714   9.677 -2.9343  0.4431  0.7542
  867MOL0     H19640   9.445   9.656   9.880  1.3745  1.0899 -0.1405
  867MOL0     H19641   9.551   9.640   9.730 -1.4173  2.0676 -0.5167
  867MOL0     H19642   9.576   9.243   9.815 -0.2706  0.0284 -2.1280
  867MOL0     H19643   9.163   9.473   9.306 -0.4649 -0.2071 -0.6274
  867MOL0     H19644   8.997   9.295   9.073 -0.7828 -0.2606  2.0276
  867MOL0     H19645   9.129   9.422   9.082  3.8446 -0.6065  1.3752
  867MOL0     H19646   9.163   9.255   9.043 -2.1560 -0.9862 -0.4804
  868MOL0     O19647   7.492   9.764   1.166 -0.3667 -0.3426  0.3762
  868MOL0     C19648   7.439   9.765   1.273  0.1962  0.1478 -0.0322
  868MOL0     O19649   7.482   9.690   1.386  0.8429  0.1027  0.4525
  868MOL0     C19650   7.609   9.640   1.395  0.2442 -0.3158  0.1670
  868MOL0     C19651   7.622   9.502   1.397 -0.0518 -0.4814 -0.7143
  868MOL0     C19652   7.755   9.445   1.406 -0.7323  1.5382  0.8950
  868MOL0     C19653   7.875   9.525   1.411 -0.4730 -0.1847  0.0689
  868MOL0     O19654   8.010   9.479   1.410  0.4202  0.1058 -0.7034
  868MOL0     C19655   8.025   9.341   1.420  0.0299  0.4885 -0.1933
  868MOL0     C19656   8.157   9.299   1.378  0.1622  0.3781 -0.8062
  868MOL0     C19657   8.184   9.315   1.230  0.3851  1.1927 -0.8754
  868MOL0     C19658   8.329   9.304   1.184  0.9145  0.0886  0.2725
  868MOL0     C19659   8.339   9.306   1.032 -0.0018 -0.9381  0.1421
  868MOL0     C19660   8.300   9.444   0.962 -0.3698  0.6998 -0.2729
  868MOL0     C19661   8.333   9.445   0.813 -0.1500 -0.2461  0.0528
  868MOL0     C19662   8.254   9.342   0.738  0.9884  0.1723  0.2579
  868MOL0     N19663   8.108   9.338   0.781 -0.2334 -0.3809  0.4494
  868MOL0     C19664   8.029   9.235   0.829  0.5634 -0.4156 -0.0243
  868MOL0     C19665   7.901   9.287   0.830  0.6651  0.7957 -0.0508
  868MOL0     C19666   7.780   9.205   0.875  0.3073 -0.1677 -0.8723
  868MOL0     C19667   7.727   9.262   1.013 -0.5796  0.1115 -0.7223
  868MOL0     C19668   7.663   9.401   1.018  0.6131  0.5181  0.4203
  868MOL0     C19669   7.541   9.415   0.929 -0.0500 -0.8986  0.2975
  868MOL0     O19670   7.444   9.304   0.945 -0.2445 -0.1827 -0.0446
  868MOL0     C19671   7.333   9.329   1.023  0.1100  0.3691  0.2821
  868MOL0     C19672   7.216   9.257   1.009  0.0853  0.9282  0.7697
  868MOL0     C19673   7.096   9.274   1.086 -0.1366 -0.4167 -0.1168
  868MOL0     C19674   6.964   9.210   1.057 -0.7247  0.1541 -0.1472
  868MOL0     C19675   7.110   9.373   1.196  1.0745 -0.3985 -0.0241
  868MOL0     C19676   7.005   9.402   1.301  0.6798  1.3971 -0.7546
  868MOL0     O19677   7.052   9.466   1.409 -0.0459  0.1203 -0.0044
  868MOL0     C19678   6.981   9.515   1.516  0.4518  0.2041  0.2157
  868MOL0     C19679   6.837   9.523   1.519 -0.7606  0.4424  0.6136
  868MOL0     C19680   6.772   9.581   1.633  0.2975 -0.0376  0.1747
  868MOL0     C19681   6.850   9.630   1.738  0.1987  0.0099  0.0772
  868MOL0     O19682   6.797   9.706   1.848  1.0586  0.4943  0.1596
  868MOL0     C19683   6.655   9.695   1.864  0.7429 -0.0997 -0.4279
  868MOL0     C19684   6.599   9.822   1.795  0.4493 -0.2192  0.3302
  868MOL0     C19685   6.445   9.840   1.827 -0.3187 -0.2921 -0.0076
  868MOL0     C19686   6.409   9.984   1.800 -0.3277 -0.0521 -0.9357
  868MOL0     C19687   6.253  10.003   1.775  0.3099 -0.6362 -1.0903
  868MOL0     C19688   6.180   9.970   1.906  0.3422  0.1214 -0.1791
  868MOL0     C19689   6.023   9.949   1.890 -0.5594 -0.2857  0.3574
  868MOL0     C19690   5.949   9.973   2.017  0.8525  0.5141  0.9144
  868MOL0    Cl19691   5.938  10.152   2.054  0.4525 -0.2547  0.1419
  868MOL0     C19692   6.994   9.614   1.735 -0.2682  0.2839  0.0225
  868MOL0     C19693   7.055   9.560   1.621  0.3068 -0.2101 -0.1636
  868MOL0     O19694   6.895   9.348   1.290  0.1753  0.4765  0.3156
  868MOL0     C19695   7.225   9.451   1.202  0.7922 -0.7187  0.1817
  868MOL0     C19696   7.331   9.430   1.111 -0.3899  0.3644  0.2392
  868MOL0     N19697   7.905   9.414   0.773 -0.1210  0.1631 -0.0139
  868MOL0     N19698   8.031   9.444   0.743 -0.4123 -0.3623  0.4050
  868MOL0     C19699   7.852   9.665   1.412  0.2884  0.5382 -0.2195
  868MOL0     C19700   7.723   9.722   1.407 -0.5144 -0.2019  0.3186
  868MOL0     C19701   7.298   9.822   1.285 -0.5692 -0.2737  0.9819
  868MOL0     C19702   7.222   9.771   1.385  1.3810 -0.9239  0.2069
  868MOL0     C19703   7.099   9.831   1.422 -0.3737 -0.2342  0.0324
  868MOL0     C19704   7.044   9.922   1.339 -0.1982  0.0830  0.4698
  868MOL0     O19705   6.919   9.971   1.353  0.7475 -0.0292  0.3682
  868MOL0     C19706   6.840   9.929   1.472  0.3996 -0.0845  0.1984
  868MOL0     C19707   6.703  10.001   1.448  0.4189  0.9548  0.0452
  868MOL0     C19708   6.614   9.921   1.351 -0.2061  0.8408  0.0737
  868MOL0     C19709   6.474   9.990   1.338  0.2276  0.1556  0.2019
  868MOL0     C19710   6.407  10.001   1.209 -0.1608 -0.2302 -0.0666
  868MOL0     C19711   6.354  10.009   1.094 -0.4354  0.5260 -0.0397
  868MOL0     C19712   7.115   9.973   1.226  0.2774  0.1157  0.7523
  868MOL0     C19713   7.246   9.930   1.203  0.7601 -0.4701  0.1674
  868MOL0     C19714   7.323  10.007   1.099 -1.0255  0.7556 -0.5920
  868MOL0     H19715   7.527   9.451   1.395 -1.4498  1.9958 -1.9012
  868MOL0     H19716   7.769   9.337   1.408  1.2062  1.6041 -2.0831
  868MOL0     H19717   7.950   9.298   1.352 -1.4858  0.8078  1.1987
  868MOL0     H19718   7.997   9.299   1.518  3.4541  0.9744  1.1055
  868MOL0     H19719   8.226   9.360   1.437  0.7599  0.4714 -1.5842
  868MOL0     H19720   8.177   9.194   1.397 -3.1830 -0.1935  0.1922
  868MOL0     H19721   8.121   9.234   1.194  2.2641 -0.4798 -0.6157
  868MOL0     H19722   8.140   9.410   1.199 -0.1005  1.9839  1.9560
  868MOL0     H19723   8.381   9.391   1.227  1.0040 -0.4660  1.3185
  868MOL0     H19724   8.374   9.210   1.217  0.4426 -0.0862  0.4149
  868MOL0     H19725   8.288   9.220   0.989 -0.8356 -0.9084  1.0404
  868MOL0     H19726   8.445   9.283   1.016  0.3798 -0.8276  2.1570
  868MOL0     H19727   8.192   9.457   0.973 -1.0035 -2.6933 -1.0830
  868MOL0     H19728   8.349   9.530   1.006 -2.0124  1.6392 -0.2091
  868MOL0     H19729   8.440   9.424   0.805 -0.2980 -1.9004  1.7657
  868MOL0     H19730   8.309   9.540   0.764 -0.6787 -0.5163 -0.2209
  868MOL0     H19731   8.241   9.350   0.630  0.8479  1.2067  0.3495
  868MOL0     H19732   8.300   9.245   0.761 -0.4764 -0.4366  0.7337
  868MOL0     H19733   8.056   9.133   0.854  0.1463 -1.0884 -2.1218
  868MOL0     H19734   7.812   9.102   0.893  1.3505  0.4312  0.9013
  868MOL0     H19735   7.702   9.204   0.797  0.6015  0.2180 -1.1739
  868MOL0     H19736   7.651   9.195   1.055 -1.0534  0.8310 -0.4151
  868MOL0     H19737   7.812   9.264   1.082  0.3917 -3.0108 -1.6838
  868MOL0     H19738   7.621   9.413   1.118 -2.9142  0.2741 -0.9005
  868MOL0     H19739   7.742   9.475   1.001  0.5392  0.8367  1.3621
  868MOL0     H19740   7.501   9.516   0.945 -0.1827 -1.2748  2.8132
  868MOL0     H19741   7.577   9.408   0.826 -0.4303  2.7499 -0.2239
  868MOL0     H19742   7.214   9.188   0.925 -2.6107  0.9443  0.7457
  868MOL0     H19743   6.954   9.186   0.951 -1.2368 -1.3639  0.2206
  868MOL0     H19744   6.870   9.264   1.074 -1.6305 -1.1943 -0.6853
  868MOL0     H19745   6.973   9.116   1.113 -0.1490  0.7213  0.7264
  868MOL0     H19746   6.776   9.501   1.432 -1.4554 -1.2871  1.4882
  868MOL0     H19747   6.665   9.579   1.616  0.4241 -1.1181 -0.5616
  868MOL0     H19748   6.607   9.603   1.830 -2.1631  2.1786 -3.1519
  868MOL0     H19749   6.633   9.698   1.971  2.1238  1.8016 -0.1382
  868MOL0     H19750   6.670   9.893   1.840 -0.8537 -0.6889  3.3472
  868MOL0     H19751   6.623   9.816   1.688  0.9791 -3.1202  0.5373
  868MOL0     H19752   6.418   9.813   1.929  0.2307  3.4562  1.2564
  868MOL0     H19753   6.392   9.769   1.762 -0.6165  0.3692 -0.4876
  868MOL0     H19754   6.462  10.009   1.708  1.6898  0.3683  0.2971
  868MOL0     H19755   6.443  10.052   1.878 -1.5699 -1.6136  1.0712
  868MOL0     H19756   6.225  10.102   1.739 -2.4131 -0.7435  0.4700
  868MOL0     H19757   6.220   9.937   1.695  0.2504  0.6307 -2.1352
  868MOL0     H19758   6.196  10.056   1.971  0.6369  0.0165 -0.1109
  868MOL0     H19759   6.233   9.882   1.945  3.1763  1.4887 -0.7263
  868MOL0     H19760   6.007   9.847   1.853 -0.9848  0.9635 -3.3543
  868MOL0     H19761   5.996  10.023   1.814  2.2722  1.3332  0.7917
  868MOL0     H19762   5.979   9.915   2.105 -1.2466  2.7995  3.3389
  868MOL0     H19763   5.847   9.939   1.996  2.1123 -0.9966 -3.7941
  868MOL0     H19764   7.057   9.674   1.799  0.6027 -0.9639  0.3760
  868MOL0     H19765   7.161   9.541   1.624  0.0232 -1.8351  0.8396
  868MOL0     H19766   7.242   9.535   1.269  0.2689 -0.2196 -0.3094
  868MOL0     H19767   7.428   9.477   1.124  1.3997 -1.7775 -3.5384
  868MOL0     H19768   7.946   9.718   1.417  0.5423  0.0869 -0.1041
  868MOL0     H19769   7.713   9.830   1.415  1.7918  0.1108 -0.3490
  868MOL0     H19770   7.264   9.705   1.461  3.6739 -2.5933 -2.3221
  868MOL0     H19771   7.046   9.815   1.515 -1.4472  0.0804 -0.5083
  868MOL0     H19772   6.835   9.820   1.471 -0.2274 -0.1050  1.8576
  868MOL0     H19773   6.886   9.965   1.565  2.2211 -1.1376 -0.2467
  868MOL0     H19774   6.712  10.103   1.408 -0.9441 -0.1960 -3.6150
  868MOL0     H19775   6.648  10.004   1.542 -0.4554  2.2273 -0.4768
  868MOL0     H19776   6.668   9.910   1.257 -3.2944 -1.3691 -1.6289
  868MOL0     H19777   6.603   9.822   1.394  0.1954  1.6117  2.0281
  868MOL0     H19778   6.482  10.093   1.371 -2.2166  0.2647  0.6851
  868MOL0     H19779   6.407   9.932   1.403 -0.1686 -1.7421 -1.7588
  868MOL0     H19780   6.321  10.030   0.995 -0.1944  0.0205 -0.2312
  868MOL0     H19781   7.061  10.046   1.166  1.1530 -0.3536 -0.6524
  868MOL0     H19782   7.303  10.114   1.109  4.6384  2.0064  2.0332
  868MOL0     H19783   7.430   9.996   1.121 -0.9279  2.6097  0.0758
  868MOL0     H19784   7.299   9.969   1.000  2.5675 -0.5524 -1.1349
  869MOL0     O19785   3.151   8.415   8.885 -0.1493 -0.4385  0.3006
  869MOL0     C19786   3.172   8.325   8.807 -0.0871 -0.0163  0.1201
  869MOL0     O19787   3.296   8.277   8.762  0.3843  0.2714 -0.2600
  869MOL0     C19788   3.421   8.321   8.809 -0.2488 -0.0087  0.6970
  869MOL0     C19789   3.533   8.245   8.777  0.2407 -0.3430 -0.2045
  869MOL0     C19790   3.665   8.271   8.829 -0.2066 -0.1817 -0.1104
  869MOL0     C19791   3.684   8.389   8.912 -0.5513  0.4039 -0.3405
  869MOL0     O19792   3.810   8.438   8.951 -0.3872  0.1712 -0.2708
  869MOL0     C19793   3.925   8.362   8.930 -0.2223  0.9970  0.0985
  869MOL0     C19794   3.990   8.419   8.800 -0.7861 -0.0582 -0.3441
  869MOL0     C19795   4.137   8.371   8.820  0.3405 -0.6197 -0.2277
  869MOL0     C19796   4.212   8.392   8.691  0.0817 -0.5178  0.0174
  869MOL0     C19797   4.346   8.325   8.669  0.3677 -0.1558 -0.0014
  869MOL0     C19798   4.434   8.334   8.793  0.8913  0.7260  0.2689
  869MOL0     C19799   4.479   8.477   8.834 -0.2806 -0.3106 -0.4372
  869MOL0     C19800   4.538   8.554   8.715  0.1707 -0.6545  0.0319
  869MOL0     N19801   4.575   8.686   8.764 -0.0846 -0.3710  0.1081
  869MOL0     C19802   4.677   8.707   8.851 -0.0306  0.0519 -0.7227
  869MOL0     C19803   4.696   8.834   8.853 -0.3734  0.2485 -1.1155
  869MOL0     C19804   4.814   8.898   8.923  0.0822 -0.3872 -0.4155
  869MOL0     C19805   4.928   8.946   8.827  1.0730 -0.4550  0.0366
  869MOL0     C19806   4.907   9.086   8.762 -0.9565  0.2899 -0.9008
  869MOL0     C19807   5.007   9.117   8.652 -0.5547  0.1402  0.3907
  869MOL0     O19808   5.141   9.081   8.694 -0.4616 -0.3844 -0.3091
  869MOL0     C19809   5.218   9.074   8.578  0.9232  1.0430 -0.7590
  869MOL0     C19810   5.281   8.948   8.563 -0.3290 -0.0128 -0.6643
  869MOL0     C19811   5.368   8.927   8.451  0.5995  0.2022 -0.2894
  869MOL0     C19812   5.415   8.779   8.431  0.9830 -0.3615 -0.2736
  869MOL0     C19813   5.376   9.026   8.348 -0.0898 -0.2746 -0.5694
  869MOL0     C19814   5.453   9.013   8.224 -0.0290  0.5959 -0.6482
  869MOL0     O19815   5.438   9.116   8.134  0.3038  0.0900  0.3167
  869MOL0     C19816   5.491   9.096   8.012 -0.9235  0.4781  0.7962
  869MOL0     C19817   5.422   9.118   7.883 -0.6436 -1.0636 -1.1138
  869MOL0     C19818   5.492   9.102   7.764  0.5674  1.1458  0.9990
  869MOL0     C19819   5.633   9.077   7.749  0.2787  0.2764 -1.1744
  869MOL0     O19820   5.682   9.059   7.625  0.0824 -0.0455 -0.4690
  869MOL0     C19821   5.811   9.107   7.578  0.7026 -0.1236  0.0612
  869MOL0     C19822   5.841   9.081   7.428  0.0495 -0.5423 -0.3226
  869MOL0     C19823   5.981   9.143   7.393  0.4227  0.5549 -1.0099
  869MOL0     C19824   6.013   9.294   7.414  0.6648 -0.4431 -0.8090
  869MOL0     C19825   6.168   9.319   7.378  0.4285  0.6066 -0.1406
  869MOL0     C19826   6.206   9.461   7.421 -0.0755 -0.0141  0.2393
  869MOL0     C19827   6.146   9.577   7.339 -0.1491  1.0296  0.1776
  869MOL0     C19828   6.015   9.643   7.384 -0.0684 -0.2978  0.2906
  869MOL0    Cl19829   6.058   9.783   7.493  0.1473 -0.1967  0.2729
  869MOL0     C19830   5.705   9.058   7.868 -0.4920  0.5722  0.5858
  869MOL0     C19831   5.639   9.073   7.994  0.1579  1.2694  0.6176
  869MOL0     O19832   5.509   8.906   8.195 -0.3302 -0.1565 -1.0714
  869MOL0     C19833   5.310   9.156   8.367 -0.6656  1.1861  0.9214
  869MOL0     C19834   5.235   9.179   8.483 -0.0437 -0.2339 -0.8657
  869MOL0     N19835   4.607   8.889   8.762  0.0660 -0.0028  0.5494
  869MOL0     N19836   4.537   8.804   8.712 -0.0199  0.3345  0.1802
  869MOL0     C19837   3.571   8.478   8.922  0.8805  1.4867 -0.6248
  869MOL0     C19838   3.447   8.442   8.869  0.0616 -0.0173 -0.2352
  869MOL0     C19839   3.053   8.250   8.758 -0.3854 -0.4762  0.1295
  869MOL0     C19840   3.073   8.115   8.745  0.6011 -0.3897  0.0446
  869MOL0     C19841   2.961   8.037   8.712 -0.6612  0.9817  0.8393
  869MOL0     C19842   2.839   8.079   8.670  0.7435  0.0412  0.3791
  869MOL0     O19843   2.745   7.990   8.616  0.5281 -0.1557 -0.3538
  869MOL0     C19844   2.640   8.053   8.544  0.5502  0.1312 -0.9310
  869MOL0     C19845   2.566   7.940   8.465 -0.6791  0.2410  0.7337
  869MOL0     C19846   2.438   7.986   8.387 -0.2759 -0.4745 -0.7116
  869MOL0     C19847   2.384   7.871   8.308 -0.0566  0.3784  0.9953
  869MOL0     C19848   2.336   7.777   8.411  0.3169  0.4240  0.3075
  869MOL0     C19849   2.319   7.684   8.492 -0.5630 -0.4747 -0.3342
  869MOL0     C19850   2.827   8.216   8.676  0.3016 -0.2093  0.2309
  869MOL0     C19851   2.925   8.305   8.723 -0.1283 -0.8185  0.6747
  869MOL0     C19852   2.892   8.462   8.712 -0.7160 -0.3966 -0.6184
  869MOL0     H19853   3.503   8.160   8.716 -1.3375  1.6172 -2.3025
  869MOL0     H19854   3.736   8.194   8.802 -2.0920 -1.6947 -0.8846
  869MOL0     H19855   3.910   8.254   8.929  0.1613  0.9294  0.8015
  869MOL0     H19856   3.990   8.388   9.014 -5.0117  7.0756  2.7142
  869MOL0     H19857   3.947   8.372   8.711  0.8798 -0.3078 -1.0523
  869MOL0     H19858   3.977   8.527   8.810  0.8213  0.1098  0.2427
  869MOL0     H19859   4.187   8.421   8.903 -0.8266 -2.1450  1.5129
  869MOL0     H19860   4.148   8.267   8.853 -3.0729 -0.3779  2.3153
  869MOL0     H19861   4.145   8.366   8.608 -1.5745 -1.9392  1.7183
  869MOL0     H19862   4.223   8.501   8.682 -0.0847 -0.6479 -3.1635
  869MOL0     H19863   4.394   8.358   8.576 -2.0430 -1.0463 -1.6759
  869MOL0     H19864   4.326   8.220   8.649 -0.2937 -0.1538  0.6218
  869MOL0     H19865   4.378   8.294   8.878  0.7551 -1.6566 -0.8522
  869MOL0     H19866   4.518   8.267   8.772 -1.4845 -2.1581 -0.7498
  869MOL0     H19867   4.543   8.481   8.922 -1.0351  0.1457  0.0916
  869MOL0     H19868   4.387   8.524   8.869 -1.3629 -4.4578  3.0784
  869MOL0     H19869   4.624   8.498   8.679  0.7778 -0.3527  0.9682
  869MOL0     H19870   4.460   8.568   8.639  1.6652 -2.7712 -1.9983
  869MOL0     H19871   4.732   8.620   8.886  0.1371  0.0266 -1.0363
  869MOL0     H19872   4.866   8.837   8.998 -1.6351 -1.1597  0.2209
  869MOL0     H19873   4.779   8.983   8.983 -0.7025 -0.5323 -0.6611
  869MOL0     H19874   5.017   8.944   8.890 -1.1221  1.2050  3.4293
  869MOL0     H19875   4.935   8.876   8.743  0.5393 -1.6471  0.9518
  869MOL0     H19876   4.805   9.099   8.724 -1.0292  1.7673 -0.2742
  869MOL0     H19877   4.908   9.161   8.842 -1.8636 -0.9919  0.3582
  869MOL0     H19878   4.981   9.051   8.568 -1.4034 -2.0380  2.2576
  869MOL0     H19879   4.994   9.219   8.615 -1.9548 -1.5767 -4.5928
  869MOL0     H19880   5.257   8.870   8.636  1.4991 -1.5636 -1.6468
  869MOL0     H19881   5.392   8.721   8.520  2.1804 -0.7541 -0.2021
  869MOL0     H19882   5.524   8.786   8.426  0.9729 -0.1523 -0.2251
  869MOL0     H19883   5.378   8.742   8.335  0.0228 -0.5849  0.1803
  869MOL0     H19884   5.315   9.136   7.885 -0.5072 -0.0948  1.3122
  869MOL0     H19885   5.424   9.119   7.681  2.4281  0.9755 -0.6318
  869MOL0     H19886   5.826   9.215   7.581  4.0557 -0.3958 -1.6213
  869MOL0     H19887   5.898   9.069   7.634  0.7478 -0.0481  0.0438
  869MOL0     H19888   5.847   8.975   7.403  0.6314 -1.2047  2.3555
  869MOL0     H19889   5.783   9.144   7.360  0.9960  2.9949  1.8991
  869MOL0     H19890   5.992   9.130   7.285 -1.9916 -0.6648 -1.1879
  869MOL0     H19891   6.054   9.090   7.454 -1.7110 -0.5660  0.7410
  869MOL0     H19892   6.002   9.313   7.521  1.5384 -0.0392 -0.7878
  869MOL0     H19893   5.949   9.355   7.350  1.8409 -0.4048 -1.9842
  869MOL0     H19894   6.225   9.255   7.445  0.4654 -0.5545 -1.2460
  869MOL0     H19895   6.186   9.297   7.272 -2.4986 -3.8707 -0.0082
  869MOL0     H19896   6.315   9.465   7.419 -0.0237  4.3602  1.0104
  869MOL0     H19897   6.186   9.467   7.528  2.1611 -2.0743  0.8369
  869MOL0     H19898   6.105   9.506   7.266 -0.2922 -1.5824  2.6157
  869MOL0     H19899   6.230   9.637   7.302  0.0858 -1.0459 -3.0743
  869MOL0     H19900   5.940   9.577   7.428 -2.9281  0.7720 -2.5553
  869MOL0     H19901   5.968   9.690   7.297 -3.4136  1.4050  2.7848
  869MOL0     H19902   5.810   9.029   7.864 -0.6917 -0.0155 -0.8614
  869MOL0     H19903   5.691   9.065   8.089 -1.5078  0.9893  1.5593
  869MOL0     H19904   5.311   9.240   8.298 -2.5016  1.4482  1.1729
  869MOL0     H19905   5.184   9.271   8.510 -1.6262 -2.3882  4.8775
  869MOL0     H19906   3.589   8.569   8.979  3.7879  0.7456 -0.2214
  869MOL0     H19907   3.370   8.518   8.881  1.9622  2.3174 -1.7931
  869MOL0     H19908   3.164   8.061   8.771 -0.6436 -1.9719  1.2426
  869MOL0     H19909   2.986   7.931   8.714 -0.1997  1.0216  4.7113
  869MOL0     H19910   2.575   8.107   8.613  3.1777  0.2904  1.5868
  869MOL0     H19911   2.678   8.133   8.480 -0.6394  3.2268  1.9842
  869MOL0     H19912   2.548   7.859   8.535 -0.3798 -1.8373 -1.4467
  869MOL0     H19913   2.629   7.892   8.390 -1.1014  2.0487 -0.8689
  869MOL0     H19914   2.360   8.026   8.452 -0.8963  1.1349 -2.3572
  869MOL0     H19915   2.473   8.060   8.314  0.5865 -0.7162 -0.5576
  869MOL0     H19916   2.461   7.826   8.246 -1.0018 -0.0896  0.1354
  869MOL0     H19917   2.307   7.912   8.241 -0.3080  0.1954  1.1680
  869MOL0     H19918   2.289   7.597   8.547 -5.5426  1.6645  0.8866
  869MOL0     H19919   2.736   8.261   8.637  0.1142 -1.6748 -1.1411
  869MOL0     H19920   2.794   8.481   8.667 -0.3334 -0.4871 -1.5218
  869MOL0     H19921   2.885   8.498   8.815 -1.1518 -1.5570 -0.2160
  869MOL0     H19922   2.969   8.514   8.655 -0.3388  0.9268  1.0241
  870MOL0     O19923   5.248   3.101   8.051  0.2590  0.2281 -0.3666
  870MOL0     C19924   5.350   3.024   8.058  0.5534 -0.0817  0.3747
  870MOL0     O19925   5.406   2.956   7.953  0.5346  0.6894  0.1382
  870MOL0     C19926   5.353   2.972   7.825  0.2650  0.4185 -0.0354
  870MOL0     C19927   5.406   3.064   7.736  0.1698 -0.5398 -0.3842
  870MOL0     C19928   5.335   3.101   7.620 -0.1128 -0.0853 -0.5822
  870MOL0     C19929   5.215   3.031   7.571 -0.9207 -0.3153 -0.3522
  870MOL0     O19930   5.159   3.067   7.454  0.5485 -0.2755 -0.4635
  870MOL0     C19931   5.014   3.056   7.442 -0.0247 -0.4839  0.0961
  870MOL0     C19932   4.971   2.927   7.374  0.2401  0.7530  0.2939
  870MOL0     C19933   4.818   2.909   7.383 -0.9928  1.0179 -0.4615
  870MOL0     C19934   4.767   2.883   7.534  0.4649 -0.3700  0.3054
  870MOL0     C19935   4.676   3.002   7.573  0.4271  0.2403 -0.9171
  870MOL0     C19936   4.607   2.957   7.707  0.5433 -0.0969 -0.7322
  870MOL0     C19937   4.491   3.046   7.766  0.3969  0.3441 -0.0401
  870MOL0     C19938   4.438   2.979   7.888  0.0000  0.8756 -0.8398
  870MOL0     N19939   4.540   2.957   7.990  0.5491  0.0629  0.9826
  870MOL0     C19940   4.594   3.056   8.066 -0.2466 -0.3729 -0.5390
  870MOL0     C19941   4.707   3.006   8.112  0.2879  0.4776 -0.6408
  870MOL0     C19942   4.821   3.072   8.182  0.7623  0.4501 -0.7042
  870MOL0     C19943   4.894   3.172   8.088 -0.2155 -0.0433 -0.2306
  870MOL0     C19944   4.947   3.115   7.959 -0.0500  0.9098  0.3222
  870MOL0     C19945   5.007   3.229   7.884  0.5377  0.6635  0.4068
  870MOL0     O19946   4.901   3.283   7.805  0.3906 -0.7792  0.2886
  870MOL0     C19947   4.931   3.359   7.687  0.3438 -0.3179 -0.0131
  870MOL0     C19948   5.060   3.374   7.637  0.5289  0.0362 -0.0383
  870MOL0     C19949   5.088   3.464   7.535 -0.4912 -0.0336  0.7689
  870MOL0     C19950   5.233   3.477   7.501 -0.2407 -0.2010 -0.5364
  870MOL0     C19951   4.978   3.533   7.482  0.1802 -0.1532  0.2204
  870MOL0     C19952   4.979   3.638   7.370  0.4299  0.2128 -0.1624
  870MOL0     O19953   5.098   3.641   7.300 -0.0283  0.7614  0.1437
  870MOL0     C19954   5.126   3.725   7.204  0.8778  0.6693 -0.4396
  870MOL0     C19955   5.144   3.856   7.244 -0.5918  0.9238  0.7460
  870MOL0     C19956   5.176   3.960   7.153 -0.2634  0.1608  0.0142
  870MOL0     C19957   5.177   3.924   7.022  0.3045  0.9607  0.3181
  870MOL0     O19958   5.190   4.013   6.916  0.4465 -0.1750 -0.3579
  870MOL0     C19959   5.248   4.140   6.962 -0.6901  0.2048 -0.5031
  870MOL0     C19960   5.276   4.231   6.837  0.3349  0.4345  0.3224
  870MOL0     C19961   5.214   4.363   6.850 -0.7310  0.2644  0.4611
  870MOL0     C19962   5.289   4.453   6.939 -0.3085 -0.7396 -0.8087
  870MOL0     C19963   5.227   4.588   6.932  1.1442  0.1393  0.4371
  870MOL0     C19964   5.247   4.685   7.041 -0.4167 -0.1378  0.1654
  870MOL0     C19965   5.386   4.685   7.091 -0.3800  0.4791 -0.3683
  870MOL0     C19966   5.414   4.787   7.202 -0.0294 -0.4305  0.4829
  870MOL0    Cl19967   5.344   4.720   7.355 -0.1333 -0.1974 -0.1603
  870MOL0     C19968   5.160   3.791   6.980  0.5296 -0.4622 -0.9879
  870MOL0     C19969   5.122   3.691   7.071 -0.3368 -0.1100 -0.5913
  870MOL0     O19970   4.885   3.704   7.347 -0.0349 -1.1406  0.3070
  870MOL0     C19971   4.854   3.502   7.525 -0.7031 -0.6256  0.0543
  870MOL0     C19972   4.820   3.416   7.615 -0.5089  0.5506 -0.3349
  870MOL0     N19973   4.720   2.871   8.082 -0.1886 -0.0319 -0.6093
  870MOL0     N19974   4.615   2.845   8.005 -0.6663  0.2260 -0.1649
  870MOL0     C19975   5.176   2.926   7.658 -0.0475  0.7736 -0.5655
  870MOL0     C19976   5.238   2.903   7.784 -0.2796 -0.1826  1.3467
  870MOL0     C19977   5.413   3.008   8.192  0.2702  0.4951 -0.0029
  870MOL0     C19978   5.328   2.957   8.292 -0.5130  1.0770 -0.5123
  870MOL0     C19979   5.361   2.973   8.425  0.2430 -0.3912 -0.1805
  870MOL0     C19980   5.484   3.041   8.461 -0.0668  0.8470  0.1132
  870MOL0     O19981   5.519   3.040   8.592  0.3866  0.2033  0.1937
  870MOL0     C19982   5.566   3.165   8.641 -0.9945 -0.9393  0.6251
  870MOL0     C19983   5.583   3.159   8.797  0.1508 -1.1355 -0.5871
  870MOL0     C19984   5.470   3.116   8.877  0.9842 -0.0072 -0.2742
  870MOL0     C19985   5.344   3.200   8.862 -0.7017 -0.1840 -0.0747
  870MOL0     C19986   5.371   3.336   8.902  0.4411  0.3672 -0.3503
  870MOL0     C19987   5.374   3.442   8.953 -0.2335 -0.8056  0.2785
  870MOL0     C19988   5.562   3.090   8.352  0.4862  0.1568 -0.1929
  870MOL0     C19989   5.528   3.080   8.221 -0.5463  0.4200 -0.1681
  870MOL0     C19990   5.619   3.155   8.133  0.1585 -0.0500  0.0081
  870MOL0     H19991   5.486   3.136   7.756 -0.9735  0.1160  2.2999
  870MOL0     H19992   5.374   3.173   7.550 -0.6530 -0.5786 -1.4054
  870MOL0     H19993   4.977   3.137   7.377  0.3780  1.0819  1.7202
  870MOL0     H19994   4.970   3.067   7.542  2.7018  2.2508  1.1594
  870MOL0     H19995   5.011   2.926   7.272  0.1946 -0.6603  0.2676
  870MOL0     H19996   5.029   2.843   7.416 -1.9805 -2.0131 -1.8324
  870MOL0     H19997   4.761   2.993   7.343  0.0039  1.0819 -1.8092
  870MOL0     H19998   4.781   2.827   7.321 -0.9895  0.3042  0.4454
  870MOL0     H19999   4.711   2.789   7.532 -1.9387  0.9897 -0.5846
  870MOL0     H20000   4.847   2.865   7.608 -0.4643 -3.3597  0.7492
  870MOL0     H20001   4.603   3.028   7.496 -0.5230  0.7694  0.1170
  870MOL0     H20002   4.745   3.086   7.590 -0.3404  0.5346  1.1576
  870MOL0     H20003   4.570   2.856   7.688  0.3646  0.3709 -3.0975
  870MOL0     H20004   4.686   2.954   7.783 -1.4450 -0.9507  1.4156
  870MOL0     H20005   4.418   3.077   7.690 -1.2295 -2.1872  0.3734
  870MOL0     H20006   4.533   3.139   7.806 -0.0692  0.7052 -0.3740
  870MOL0     H20007   4.353   3.038   7.924 -0.9961 -0.7058 -0.5189
  870MOL0     H20008   4.392   2.882   7.868 -1.7075  0.3005  4.2786
  870MOL0     H20009   4.547   3.153   8.076 -0.1377 -0.3929  0.2638
  870MOL0     H20010   4.895   3.002   8.223  1.4144  1.4749 -0.0920
  870MOL0     H20011   4.783   3.134   8.263  2.5147  0.3100  0.2702
  870MOL0     H20012   4.811   3.241   8.070  0.6739  2.4049  3.7740
  870MOL0     H20013   4.974   3.210   8.152  1.5510 -1.8890 -1.2220
  870MOL0     H20014   5.021   3.037   7.981 -2.1809 -1.0245  1.0923
  870MOL0     H20015   4.875   3.066   7.892  1.0861  0.3774 -0.5421
  870MOL0     H20016   5.057   3.297   7.954 -0.5419  1.1661  0.7020
  870MOL0     H20017   5.073   3.177   7.813 -0.3282  0.2954 -0.1397
  870MOL0     H20018   5.133   3.310   7.687  1.5443 -0.4871 -2.0928
  870MOL0     H20019   5.299   3.412   7.560  0.1196  1.5584  1.1124
  870MOL0     H20020   5.246   3.582   7.529 -0.7432 -0.7513  2.0809
  870MOL0     H20021   5.247   3.471   7.393 -2.5273  1.0802 -0.9551
  870MOL0     H20022   5.143   3.865   7.352  0.4552  3.1252  0.5997
  870MOL0     H20023   5.188   4.061   7.190 -0.8639  2.6089 -5.5377
  870MOL0     H20024   5.181   4.186   7.035 -0.9350  1.2184 -1.3348
  870MOL0     H20025   5.345   4.120   7.008  0.5314  1.2218 -2.4751
  870MOL0     H20026   5.384   4.241   6.836  0.4006  0.8398  3.3399
  870MOL0     H20027   5.240   4.177   6.748 -0.8164  1.7924 -0.0666
  870MOL0     H20028   5.111   4.359   6.887 -0.7874  0.0566  0.2861
  870MOL0     H20029   5.188   4.407   6.753 -2.2422  0.8358  1.0885
  870MOL0     H20030   5.395   4.450   6.915  0.4329  0.9012  1.8859
  870MOL0     H20031   5.289   4.427   7.045  1.8478  1.3844 -0.2181
  870MOL0     H20032   5.253   4.627   6.833 -3.5456 -0.4902 -1.3065
  870MOL0     H20033   5.119   4.568   6.929  1.1094  0.3125  0.5518
  870MOL0     H20034   5.182   4.671   7.128  2.6568  1.7872  3.0521
  870MOL0     H20035   5.227   4.786   7.004  2.9527  0.9174  0.7937
  870MOL0     H20036   5.457   4.698   7.009  0.9570 -2.3287  0.2075
  870MOL0     H20037   5.413   4.587   7.132  0.1828  0.7681 -0.0358
  870MOL0     H20038   5.378   4.888   7.182  0.4527 -0.6393 -1.6487
  870MOL0     H20039   5.522   4.796   7.222 -0.3031  0.2154  1.8435
  870MOL0     H20040   5.160   3.782   6.872  0.6972  0.2185 -1.0532
  870MOL0     H20041   5.104   3.587   7.050  2.8310 -1.1696  1.1935
  870MOL0     H20042   4.764   3.558   7.501 -1.9319 -1.8848  1.5462
  870MOL0     H20043   4.715   3.413   7.640  0.1381 -0.0723  2.7606
  870MOL0     H20044   5.086   2.870   7.633 -0.5888  0.9795  0.8057
  870MOL0     H20045   5.194   2.832   7.854 -0.9025 -0.7091  0.4482
  870MOL0     H20046   5.232   2.917   8.262  0.0737 -1.2294  0.5231
  870MOL0     H20047   5.290   2.947   8.503  0.9977  0.0586  0.6576
  870MOL0     H20048   5.666   3.184   8.601 -1.2915 -0.2488  0.1951
  870MOL0     H20049   5.493   3.244   8.620 -0.0563  0.0424  0.9456
  870MOL0     H20050   5.593   3.260   8.837  1.1874 -1.4147 -0.1049
  870MOL0     H20051   5.680   3.112   8.817  2.1139  1.0783 -3.8378
  870MOL0     H20052   5.449   3.013   8.845 -0.6516  0.9988 -2.6337
  870MOL0     H20053   5.496   3.102   8.983 -1.0282  1.8900  0.5326
  870MOL0     H20054   5.265   3.163   8.927  2.1775  0.2342  4.0774
  870MOL0     H20055   5.311   3.200   8.758 -1.0716 -1.1730  0.0372
  870MOL0     H20056   5.380   3.528   9.017 -0.8944  0.8610 -1.7957
  870MOL0     H20057   5.661   3.130   8.371  0.6293 -0.0703 -0.4631
  870MOL0     H20058   5.606   3.261   8.158 -0.5905  0.1286 -1.0433
  870MOL0     H20059   5.720   3.114   8.123  0.7487  1.7693 -2.7536
  870MOL0     H20060   5.583   3.166   8.030  4.6567  1.8226 -1.6046
  871MOL0     O20061   3.452   4.095   5.269  0.3328  0.0665 -0.0816
  871MOL0     C20062   3.340   4.085   5.223  0.9387 -0.0862 -0.1449
  871MOL0     O20063   3.228   4.130   5.282  0.0792 -0.1782  0.4427
  871MOL0     C20064   3.234   4.210   5.393 -1.0316  0.2869 -0.5531
  871MOL0     C20065   3.324   4.184   5.499 -1.3241 -0.4596 -0.2493
  871MOL0     C20066   3.333   4.269   5.611  0.7125 -0.5394  0.5392
  871MOL0     C20067   3.253   4.386   5.616 -0.1940 -0.2448 -0.5644
  871MOL0     O20068   3.257   4.473   5.719 -0.5019 -0.4227  0.3128
  871MOL0     C20069   3.357   4.454   5.821  0.2439  0.2692 -0.1544
  871MOL0     C20070   3.348   4.567   5.925  0.8568  1.4707  0.4211
  871MOL0     C20071   3.456   4.545   6.027 -1.0250  0.1141 -0.2855
  871MOL0     C20072   3.413   4.593   6.172 -0.7786  0.7769  0.2299
  871MOL0     C20073   3.541   4.579   6.258  0.5570 -0.5464  0.4676
  871MOL0     C20074   3.519   4.644   6.395  0.5946 -0.8765  1.3270
  871MOL0     C20075   3.655   4.661   6.465 -0.5993 -0.2334  0.5320
  871MOL0     C20076   3.655   4.678   6.621 -0.3820  0.4976 -0.2995
  871MOL0     N20077   3.571   4.578   6.689 -0.3162  0.0982  0.5199
  871MOL0     C20078   3.433   4.592   6.707 -0.0810  1.0867  0.7162
  871MOL0     C20079   3.399   4.473   6.752 -0.6681  0.1369 -0.2372
  871MOL0     C20080   3.264   4.417   6.775 -0.3514  0.3871  0.6056
  871MOL0     C20081   3.192   4.401   6.636 -0.5004 -0.3161  0.8467
  871MOL0     C20082   3.086   4.297   6.653 -0.1766  0.0969  1.0491
  871MOL0     C20083   2.977   4.313   6.541 -0.4505  0.2843 -0.5648
  871MOL0     O20084   2.916   4.184   6.530  0.5665 -0.3106 -0.0283
  871MOL0     C20085   2.824   4.168   6.426 -0.1605  0.8161 -0.9312
  871MOL0     C20086   2.776   4.267   6.343  0.0133 -0.4973  0.4171
  871MOL0     C20087   2.695   4.246   6.224  0.6713  0.5879  0.0196
  871MOL0     C20088   2.672   4.363   6.131  0.0594  0.1901  1.0325
  871MOL0     C20089   2.656   4.113   6.198 -0.5190 -0.3216 -0.4283
  871MOL0     C20090   2.575   4.089   6.080  0.9659  1.1427  0.4669
  871MOL0     O20091   2.472   4.174   6.049 -0.5115 -0.2650 -0.1681
  871MOL0     C20092   2.355   4.143   5.978 -0.0000 -0.1173 -0.3517
  871MOL0     C20093   2.337   4.036   5.881  0.2543  0.0177 -0.3854
  871MOL0     C20094   2.217   4.018   5.817 -1.1413 -0.5580 -0.7399
  871MOL0     C20095   2.109   4.097   5.837  0.3517 -0.8947 -0.0090
  871MOL0     O20096   1.982   4.085   5.771  0.3337 -0.5068  0.2116
  871MOL0     C20097   1.964   3.967   5.690  0.6694 -0.7504  0.6754
  871MOL0     C20098   1.840   3.990   5.604  0.1980  0.4903 -0.0151
  871MOL0     C20099   1.800   3.871   5.507 -0.0252 -0.4904 -0.2271
  871MOL0     C20100   1.693   3.907   5.406  0.4849 -0.0643  0.6222
  871MOL0     C20101   1.726   3.839   5.265  0.2694 -0.0641 -0.1180
  871MOL0     C20102   1.606   3.841   5.176  0.9394 -0.3627  0.3715
  871MOL0     C20103   1.565   3.985   5.144  0.3463  0.6171  0.2726
  871MOL0     C20104   1.473   3.982   5.018  0.4693 -0.2396  0.7143
  871MOL0    Cl20105   1.313   3.901   5.052  0.0678  0.3302  0.0631
  871MOL0     C20106   2.120   4.210   5.932  0.2725  1.1390  0.4140
  871MOL0     C20107   2.249   4.231   5.988 -0.0722 -0.5213  0.1358
  871MOL0     O20108   2.608   3.982   6.027 -0.6052  0.5362 -0.3819
  871MOL0     C20109   2.703   4.013   6.287  0.4106  0.0968 -0.2724
  871MOL0     C20110   2.778   4.041   6.399  0.0680 -0.5887  0.0540
  871MOL0     N20111   3.518   4.402   6.782 -0.5384  0.2889 -0.4531
  871MOL0     N20112   3.618   4.464   6.737 -0.0426 -0.8215  0.2102
  871MOL0     C20113   3.181   4.418   5.502  0.4114 -0.0563  0.4816
  871MOL0     C20114   3.179   4.334   5.390 -0.0321  0.4638 -0.5138
  871MOL0     C20115   3.318   4.000   5.098  0.1383 -0.3360  1.3234
  871MOL0     C20116   3.193   4.017   5.031 -0.8828 -0.4381 -0.4082
  871MOL0     C20117   3.168   3.959   4.909 -1.1910 -0.4691  0.6976
  871MOL0     C20118   3.269   3.883   4.843  0.6339  0.4023 -0.2272
  871MOL0     O20119   3.247   3.837   4.714 -0.4871  0.1224 -0.0519
  871MOL0     C20120   3.112   3.817   4.666  0.4445 -0.6128 -0.1195
  871MOL0     C20121   3.111   3.725   4.547  0.5072 -0.3750 -0.5918
  871MOL0     C20122   2.969   3.702   4.502  0.1789 -0.7686  0.1751
  871MOL0     C20123   2.898   3.593   4.585 -0.8106 -1.0068 -0.1916
  871MOL0     C20124   2.831   3.651   4.699 -0.1363  0.1766 -0.6276
  871MOL0     C20125   2.766   3.715   4.780 -0.3464  0.3175  0.5529
  871MOL0     C20126   3.389   3.866   4.910 -0.7620 -0.3551  0.2883
  871MOL0     C20127   3.427   3.928   5.033  0.3187 -0.4849  0.8609
  871MOL0     C20128   3.562   3.900   5.088 -0.2851  0.6585 -0.8927
  871MOL0     H20129   3.379   4.091   5.511  0.0173  0.3039 -0.2933
  871MOL0     H20130   3.395   4.235   5.694  0.4826 -1.2217  0.4383
  871MOL0     H20131   3.457   4.459   5.777 -0.7928  1.0870 -2.6218
  871MOL0     H20132   3.333   4.354   5.859 -2.7143  0.3351 -1.5414
  871MOL0     H20133   3.352   4.671   5.892 -1.3932  1.8136  1.0672
  871MOL0     H20134   3.249   4.557   5.971  0.3593  0.1278 -0.8512
  871MOL0     H20135   3.487   4.441   6.033 -0.0356  0.1501 -3.3074
  871MOL0     H20136   3.540   4.607   5.993 -0.2813 -0.8272 -0.1884
  871MOL0     H20137   3.381   4.698   6.170 -1.5023  0.5696  0.5811
  871MOL0     H20138   3.324   4.542   6.212  0.2031 -1.1207  0.1068
  871MOL0     H20139   3.628   4.620   6.206  0.3582  0.4526  0.8949
  871MOL0     H20140   3.563   4.473   6.274 -1.2613 -1.0179  0.1477
  871MOL0     H20141   3.477   4.745   6.385  1.8095 -0.3736  1.1020
  871MOL0     H20142   3.447   4.596   6.461 -0.7102  0.5390  0.9702
  871MOL0     H20143   3.704   4.743   6.412  1.2079 -3.1922 -2.9050
  871MOL0     H20144   3.717   4.575   6.435  1.3145  1.9984 -2.5741
  871MOL0     H20145   3.749   4.687   6.675 -0.2708  0.8887 -0.5554
  871MOL0     H20146   3.610   4.777   6.637 -1.3733  0.1961 -1.1161
  871MOL0     H20147   3.364   4.671   6.680  1.3699  2.6953  1.5424
  871MOL0     H20148   3.198   4.483   6.832 -1.1146 -1.5736  2.0998
  871MOL0     H20149   3.262   4.328   6.837 -2.4709  0.3401  0.5706
  871MOL0     H20150   3.148   4.496   6.602  3.5345  1.1083 -0.9540
  871MOL0     H20151   3.244   4.356   6.551 -1.8201  0.9287 -0.7008
  871MOL0     H20152   3.128   4.196   6.649 -2.5403 -1.1172  3.6754
  871MOL0     H20153   3.036   4.296   6.749 -2.9186 -0.8955 -0.2923
  871MOL0     H20154   2.902   4.390   6.563  1.6321  2.3681 -0.3745
  871MOL0     H20155   3.032   4.351   6.455  2.1075  1.9356  1.6427
  871MOL0     H20156   2.809   4.370   6.356  0.5224 -0.7299  1.0105
  871MOL0     H20157   2.752   4.437   6.129  1.3380 -1.1154 -1.4255
  871MOL0     H20158   2.577   4.414   6.152 -0.1891 -0.0432  0.5003
  871MOL0     H20159   2.676   4.340   6.024 -0.6469  2.5433  0.4353
  871MOL0     H20160   2.429   3.986   5.851  0.7585  0.9275 -0.3719
  871MOL0     H20161   2.212   3.936   5.746 -2.3614  0.1566 -1.5291
  871MOL0     H20162   2.040   3.957   5.612 -0.3868  0.0832 -0.5078
  871MOL0     H20163   1.942   3.881   5.755 -0.0115 -0.9921  0.1400
  871MOL0     H20164   1.752   3.997   5.669  0.9291 -4.1119  1.8233
  871MOL0     H20165   1.848   4.081   5.544  2.0101 -1.5626 -3.1964
  871MOL0     H20166   1.764   3.789   5.570 -1.4397 -1.7884 -2.6118
  871MOL0     H20167   1.892   3.838   5.459  0.5129  1.4226 -0.6020
  871MOL0     H20168   1.677   4.013   5.382  0.7905 -0.1355  0.0832
  871MOL0     H20169   1.599   3.854   5.422 -0.7238  1.1213 -1.9689
  871MOL0     H20170   1.802   3.905   5.222 -1.3226  2.3625  0.6000
  871MOL0     H20171   1.781   3.747   5.286  1.2663  0.8976  1.8509
  871MOL0     H20172   1.528   3.772   5.209 -2.0642  0.2536 -4.4685
  871MOL0     H20173   1.639   3.804   5.078 -0.2965  2.0118 -1.0232
  871MOL0     H20174   1.650   4.052   5.127  0.0940  0.8756  0.0120
  871MOL0     H20175   1.502   4.022   5.226  0.0330 -1.3734  0.9768
  871MOL0     H20176   1.521   3.925   4.938 -0.1431 -2.2301  1.7077
  871MOL0     H20177   1.450   4.084   4.987  2.3847 -0.0452 -0.2200
  871MOL0     H20178   2.046   4.288   5.948 -0.2206  0.8466 -0.3838
  871MOL0     H20179   2.270   4.308   6.061  0.6139 -0.3100 -0.2769
  871MOL0     H20180   2.687   3.908   6.264 -0.5598  0.4536 -1.2927
  871MOL0     H20181   2.800   3.959   6.466  0.1420  0.9360  1.9633
  871MOL0     H20182   3.132   4.515   5.492  2.4001  0.8293 -1.7389
  871MOL0     H20183   3.118   4.347   5.302 -1.6258  2.6500  0.7906
  871MOL0     H20184   3.111   4.071   5.078 -1.5171  1.3570 -3.3632
  871MOL0     H20185   3.069   3.959   4.866 -0.7197 -1.5731 -0.4451
  871MOL0     H20186   3.052   3.761   4.739  1.7927 -0.8631  0.8423
  871MOL0     H20187   3.053   3.909   4.659  0.0403 -0.9132 -0.6619
  871MOL0     H20188   3.167   3.631   4.554 -2.7930 -2.4879 -0.2145
  871MOL0     H20189   3.157   3.776   4.462  0.6094  1.2229  0.3840
  871MOL0     H20190   2.901   3.786   4.519  0.5644 -0.8959  2.8003
  871MOL0     H20191   2.965   3.672   4.397 -1.8398 -0.5751  0.1533
  871MOL0     H20192   2.983   3.533   4.618  0.2725  2.0725  3.3499
  871MOL0     H20193   2.830   3.540   4.517 -0.3219  0.2736 -1.7416
  871MOL0     H20194   2.705   3.779   4.841  0.8838  2.4762 -0.3694
  871MOL0     H20195   3.456   3.812   4.844 -2.1819 -0.1683 -1.4098
  871MOL0     H20196   3.601   3.807   5.045  1.5624  1.0512 -0.1829
  871MOL0     H20197   3.630   3.984   5.072 -0.3012  0.6980 -0.7549
  871MOL0     H20198   3.554   3.883   5.196  1.9746  0.7556 -0.6580
  872MOL0     O20199   3.508   6.803   4.203  0.3782  0.0184  0.6103
  872MOL0     C20200   3.591   6.716   4.230  0.4122 -0.1269 -0.4168
  872MOL0     O20201   3.566   6.575   4.233  0.2871  0.7312 -0.1980
  872MOL0     C20202   3.437   6.534   4.199  0.5524  0.2957 -0.6837
  872MOL0     C20203   3.322   6.603   4.244 -0.3546 -0.3068  0.4478
  872MOL0     C20204   3.199   6.552   4.208 -0.4763 -0.4673 -0.2378
  872MOL0     C20205   3.173   6.440   4.131  0.2064  0.2552  0.6995
  872MOL0     O20206   3.049   6.383   4.117 -0.3013 -0.1800 -0.1922
  872MOL0     C20207   3.019   6.342   3.991 -0.5297  0.6842 -0.0079
  872MOL0     C20208   2.874   6.383   3.974  0.1075  0.9018 -0.5822
  872MOL0     C20209   2.866   6.534   3.948 -0.0716 -0.1483 -0.3641
  872MOL0     C20210   2.722   6.578   3.974 -0.4798 -0.3836 -0.1920
  872MOL0     C20211   2.699   6.734   3.953  0.9189 -0.2280  0.4621
  872MOL0     C20212   2.558   6.763   4.010  0.2456 -0.1149  0.5212
  872MOL0     C20213   2.486   6.883   3.946 -0.4898  0.0821  0.1773
  872MOL0     C20214   2.357   6.934   4.016  0.1459  0.2357  0.2288
  872MOL0     N20215   2.242   6.851   3.985  0.1363 -0.3636  0.2222
  872MOL0     C20216   2.225   6.716   4.029  0.4576 -0.0262 -0.4396
  872MOL0     C20217   2.100   6.690   3.973 -0.3749  0.6617 -0.0025
  872MOL0     C20218   2.027   6.563   3.987  0.0601 -0.4084 -0.2316
  872MOL0     C20219   2.078   6.461   3.884 -0.8845  0.1535 -0.0278
  872MOL0     C20220   2.039   6.511   3.746  0.2844 -0.6236  0.5113
  872MOL0     C20221   2.063   6.399   3.646  0.5662  0.2066 -0.3456
  872MOL0     O20222   1.972   6.289   3.642  0.5523 -0.9905  0.2038
  872MOL0     C20223   1.982   6.198   3.542 -0.3056 -0.1084 -0.5966
  872MOL0     C20224   2.072   6.201   3.436  0.2157 -0.7369  0.0415
  872MOL0     C20225   2.069   6.111   3.334  0.3826 -0.1018  0.1289
  872MOL0     C20226   2.182   6.096   3.241  0.6645 -0.3944  0.5281
  872MOL0     C20227   1.969   6.008   3.335 -0.1314 -0.4569  0.0237
  872MOL0     C20228   1.955   5.913   3.227 -0.2911 -0.1171  0.1038
  872MOL0     O20229   1.992   5.930   3.096 -0.2725 -0.1851 -0.7138
  872MOL0     C20230   2.008   5.821   3.014  0.0435  0.5621 -0.7232
  872MOL0     C20231   2.105   5.721   3.045  0.5278  1.1587  1.0752
  872MOL0     C20232   2.123   5.617   2.942 -0.3976 -0.0340 -0.3895
  872MOL0     C20233   2.053   5.615   2.821  0.4712 -0.7037  0.2498
  872MOL0     O20234   2.079   5.516   2.732  0.8300  1.0544  0.7280
  872MOL0     C20235   1.999   5.495   2.618  0.1948  0.3684  0.3471
  872MOL0     C20236   2.037   5.368   2.540 -0.0021  0.5445  0.1553
  872MOL0     C20237   2.179   5.317   2.564 -0.3734 -0.3713 -0.2883
  872MOL0     C20238   2.220   5.191   2.480  0.3747 -1.1184  0.4127
  872MOL0     C20239   2.160   5.065   2.537 -0.0622 -0.3675  0.1348
  872MOL0     C20240   2.171   4.962   2.430 -0.5665  0.0325 -0.4237
  872MOL0     C20241   2.099   4.839   2.474  0.6822 -0.8606 -1.6984
  872MOL0     C20242   2.133   4.732   2.376  0.3382 -0.7435 -0.3953
  872MOL0    Cl20243   2.051   4.581   2.410 -0.2671  0.3686 -0.2509
  872MOL0     C20244   1.963   5.722   2.793 -1.0985  0.3061  0.1897
  872MOL0     C20245   1.943   5.818   2.886  0.2105  0.9200 -0.2758
  872MOL0     O20246   1.921   5.802   3.268  0.5125 -0.5534 -0.2374
  872MOL0     C20247   1.869   6.007   3.434  0.0313 -0.5473 -0.9500
  872MOL0     C20248   1.879   6.105   3.539 -0.1910  0.6416  0.8176
  872MOL0     N20249   2.048   6.796   3.892  0.7220 -0.8695  0.0171
  872MOL0     N20250   2.134   6.887   3.907 -0.1737  0.3982 -0.3348
  872MOL0     C20251   3.287   6.379   4.089 -0.5974 -0.5331 -0.1741
  872MOL0     C20252   3.420   6.421   4.115  0.3030  0.3230  0.9715
  872MOL0     C20253   3.736   6.758   4.259 -0.2469  0.1787  0.3303
  872MOL0     C20254   3.841   6.665   4.249  0.0558 -0.4792 -0.7336
  872MOL0     C20255   3.977   6.701   4.260  0.1285 -0.2079 -0.2748
  872MOL0     C20256   4.011   6.834   4.303  0.3001 -0.0483 -0.1550
  872MOL0     O20257   4.146   6.866   4.306  0.2043  0.0009  0.1042
  872MOL0     C20258   4.183   6.954   4.410 -0.4466 -0.4497 -0.8973
  872MOL0     C20259   4.328   6.955   4.420 -0.2910  0.1798 -0.7372
  872MOL0     C20260   4.382   7.022   4.544  0.1280 -0.0724 -0.6325
  872MOL0     C20261   4.530   7.008   4.556  0.7249 -0.6865 -0.1175
  872MOL0     C20262   4.562   7.120   4.651 -0.6782  0.3846 -0.3282
  872MOL0     C20263   4.599   7.208   4.725  0.2617  0.4366  0.6125
  872MOL0     C20264   3.903   6.929   4.323  0.0057 -0.0573  0.6479
  872MOL0     C20265   3.771   6.888   4.308  0.0436  0.5531 -0.3134
  872MOL0     C20266   3.673   6.993   4.355  0.4778  0.4536 -0.1405
  872MOL0     H20267   3.325   6.690   4.308 -1.7589 -0.1753  0.3539
  872MOL0     H20268   3.111   6.583   4.264  0.1304 -0.9767  1.0579
  872MOL0     H20269   3.024   6.233   3.996  2.2351  0.5490 -2.7596
  872MOL0     H20270   3.079   6.374   3.905 -4.2002  2.0469 -2.3442
  872MOL0     H20271   2.848   6.313   3.893 -1.5067 -0.2291  0.8298
  872MOL0     H20272   2.817   6.352   4.062  2.3852 -0.0883  0.6374
  872MOL0     H20273   2.935   6.593   4.010  0.0242  0.3046 -0.8897
  872MOL0     H20274   2.894   6.560   3.846  0.7843 -2.3793 -0.7419
  872MOL0     H20275   2.660   6.518   3.907 -3.2162 -2.5071  3.8815
  872MOL0     H20276   2.682   6.543   4.070  5.7767 -1.0066  2.7435
  872MOL0     H20277   2.715   6.765   3.850 -0.2902 -0.4015  0.2114
  872MOL0     H20278   2.771   6.786   4.017  1.4095  0.3490 -0.5385
  872MOL0     H20279   2.494   6.676   3.988 -2.3409  2.2001 -2.0313
  872MOL0     H20280   2.569   6.767   4.119 -1.6200 -0.1810  0.7409
  872MOL0     H20281   2.458   6.852   3.845 -1.4929 -2.2521  1.1040
  872MOL0     H20282   2.551   6.968   3.927 -0.3439 -0.2967 -1.0956
  872MOL0     H20283   2.392   6.936   4.119  1.8571 -2.2702 -0.2086
  872MOL0     H20284   2.334   7.035   3.982 -1.5389  0.3671  1.6536
  872MOL0     H20285   2.289   6.658   4.095  1.1543 -1.7031 -2.4646
  872MOL0     H20286   1.920   6.587   3.980  0.8688  4.1072 -0.3073
  872MOL0     H20287   2.062   6.524   4.083  0.3628 -1.9824 -0.9531
  872MOL0     H20288   2.184   6.437   3.894 -0.9420 -0.3470 -0.5181
  872MOL0     H20289   2.033   6.362   3.901 -0.3621  0.1277  1.3259
  872MOL0     H20290   1.931   6.522   3.748  0.3544  0.1553  0.2649
  872MOL0     H20291   2.091   6.601   3.711 -0.9790 -0.3458 -0.7445
  872MOL0     H20292   2.071   6.439   3.544  0.2833  1.0046 -0.0614
  872MOL0     H20293   2.158   6.351   3.673 -0.4148  0.1653  3.6955
  872MOL0     H20294   2.153   6.273   3.433 -1.1033  0.7853 -3.0727
  872MOL0     H20295   2.139   6.120   3.143 -3.1620 -1.9637  1.6269
  872MOL0     H20296   2.223   5.997   3.222 -1.3376 -0.9282 -1.5129
  872MOL0     H20297   2.264   6.165   3.262 -1.0642  1.2583  2.3605
  872MOL0     H20298   2.162   5.713   3.137  0.9519  0.7609  0.7884
  872MOL0     H20299   2.192   5.536   2.962  0.2211  0.9233  1.6658
  872MOL0     H20300   1.898   5.480   2.656 -0.2874  1.0411 -0.6193
  872MOL0     H20301   1.999   5.582   2.552 -2.9720 -0.2887 -0.6818
  872MOL0     H20302   1.959   5.302   2.579 -3.1739  3.8095 -0.0745
  872MOL0     H20303   2.025   5.390   2.433 -0.8274  2.5421  0.6045
  872MOL0     H20304   2.182   5.299   2.672  1.4670 -0.9521 -0.3954
  872MOL0     H20305   2.243   5.403   2.544 -1.0330  0.6422  1.6867
  872MOL0     H20306   2.328   5.194   2.463 -0.1995  1.8043 -5.2904
  872MOL0     H20307   2.183   5.204   2.377 -0.6005  2.3863  1.0915
  872MOL0     H20308   2.225   5.039   2.622 -0.9737  0.7678  1.2090
  872MOL0     H20309   2.060   5.086   2.576  0.3884 -0.4633  1.3949
  872MOL0     H20310   2.277   4.938   2.420 -0.6663 -1.2270  1.2309
  872MOL0     H20311   2.129   4.990   2.333 -0.5720  1.1604 -0.1178
  872MOL0     H20312   1.990   4.846   2.480  0.7267 -1.1736  2.2827
  872MOL0     H20313   2.141   4.819   2.573 -0.6684 -0.0817 -0.9398
  872MOL0     H20314   2.241   4.716   2.384  0.5216  1.0724  1.5526
  872MOL0     H20315   2.110   4.761   2.273 -1.1475 -0.5169 -0.0225
  872MOL0     H20316   1.900   5.716   2.705 -2.3771 -0.3438  1.1229
  872MOL0     H20317   1.872   5.892   2.853  1.1657  0.3906 -3.9239
  872MOL0     H20318   1.792   5.932   3.447  1.4919 -1.9829 -0.3545
  872MOL0     H20319   1.803   6.102   3.617 -2.9434  1.0327 -1.6473
  872MOL0     H20320   3.273   6.279   4.050  0.7283 -0.1739 -1.6641
  872MOL0     H20321   3.506   6.383   4.060 -0.2357  1.2594 -0.5953
  872MOL0     H20322   3.829   6.560   4.226 -1.6358 -0.6256  0.6365
  872MOL0     H20323   4.056   6.627   4.261 -0.8331 -1.2601 -0.9761
  872MOL0     H20324   4.149   7.056   4.394  1.0050  0.3600  0.8388
  872MOL0     H20325   4.140   6.921   4.505  1.6832  2.1744  1.1471
  872MOL0     H20326   4.377   7.008   4.338 -0.2124  1.6509  0.2252
  872MOL0     H20327   4.363   6.851   4.424  2.5953  1.0844  1.6687
  872MOL0     H20328   4.369   7.129   4.525  0.2509 -0.1109 -0.9481
  872MOL0     H20329   4.322   6.997   4.632  0.8228  1.1232  0.2090
  872MOL0     H20330   4.583   7.033   4.464 -0.1062  2.7891  0.2075
  872MOL0     H20331   4.566   6.911   4.591  0.7696 -1.1324 -1.3384
  872MOL0     H20332   4.612   7.300   4.778  1.0441  0.4761  0.3645
  872MOL0     H20333   3.921   7.033   4.347  0.3152  0.1905 -0.6027
  872MOL0     H20334   3.578   6.945   4.380 -0.5031  1.9328 -0.8880
  872MOL0     H20335   3.704   7.046   4.445 -0.6003  3.2579 -1.3127
  872MOL0     H20336   3.650   7.071   4.281 -1.6223  2.3431  2.3129
  873MOL0     O20337  10.940   7.919   3.230  0.4239 -0.4165 -0.2764
  873MOL0     C20338  10.937   8.005   3.138 -0.4352  0.7060 -0.7982
  873MOL0     O20339  10.847   8.105   3.124 -0.1725 -0.0058  0.6394
  873MOL0     C20340  10.765   8.138   3.230 -0.1834 -0.3921 -0.5176
  873MOL0     C20341  10.825   8.163   3.358  0.2077 -0.1594 -0.4889
  873MOL0     C20342  10.744   8.209   3.461  0.1686 -0.9121 -0.3905
  873MOL0     C20343  10.608   8.228   3.445 -0.0663 -0.5065 -0.0497
  873MOL0     O20344  10.536   8.274   3.555  0.1392  0.3086  1.3495
  873MOL0     C20345  10.386   8.289   3.548  0.6597  0.0945  0.1122
  873MOL0     C20346  10.361   8.436   3.525  0.7273 -1.0014  0.1053
  873MOL0     C20347  10.214   8.474   3.508 -0.1854 -0.4417  0.5919
  873MOL0     C20348  10.183   8.618   3.500 -0.5689 -0.5091 -1.7778
  873MOL0     C20349  10.031   8.643   3.488 -0.1601 -0.7882 -0.2497
  873MOL0     C20350  10.004   8.791   3.512  0.0871 -0.2245 -0.2456
  873MOL0     C20351   9.854   8.824   3.501  0.0331 -0.4605  0.9798
  873MOL0     C20352   9.818   8.963   3.555 -0.3617  0.7990 -0.1447
  873MOL0     N20353   9.669   8.979   3.527 -0.5251  0.0406 -0.6202
  873MOL0     C20354   9.614   8.986   3.411  0.4281  0.1884  0.3578
  873MOL0     C20355   9.478   9.009   3.434 -0.0733  0.5267 -0.3404
  873MOL0     C20356   9.377   9.015   3.326  0.2366  0.2682  0.0009
  873MOL0     C20357   9.290   8.888   3.310  0.2068 -0.1548  0.4293
  873MOL0     C20358   9.151   8.910   3.250  0.3707  0.4004  0.9233
  873MOL0     C20359   9.057   8.788   3.261  0.2636 -0.7669 -0.2402
  873MOL0     O20360   8.936   8.802   3.182 -0.0407  0.5928  0.3045
  873MOL0     C20361   8.830   8.867   3.233  0.2303  0.0635  0.0904
  873MOL0     C20362   8.797   8.994   3.179  0.2645 -0.3592 -0.0890
  873MOL0     C20363   8.688   9.074   3.215 -0.0988  0.8741 -0.6836
  873MOL0     C20364   8.665   9.200   3.144 -0.0865 -0.0700  0.5351
  873MOL0     C20365   8.612   9.031   3.324  0.3283  1.1845  0.4287
  873MOL0     C20366   8.485   9.098   3.378 -0.1817 -0.6526 -0.7993
  873MOL0     O20367   8.399   9.029   3.461 -0.0641  0.2958  0.7252
  873MOL0     C20368   8.302   9.088   3.533  0.1259  0.2354  0.4246
  873MOL0     C20369   8.276   9.224   3.552  0.4516 -0.5961 -1.5592
  873MOL0     C20370   8.158   9.262   3.607  0.3648  0.2856 -0.5753
  873MOL0     C20371   8.051   9.176   3.641 -0.4381 -0.0567  0.1252
  873MOL0     O20372   7.940   9.213   3.710  0.3599  0.2674 -0.2964
  873MOL0     C20373   7.854   9.291   3.621  0.6592 -0.0535  0.0157
  873MOL0     C20374   7.741   9.345   3.709  0.0704  0.4035 -0.4286
  873MOL0     C20375   7.672   9.217   3.757  0.5093 -0.4181 -0.6824
  873MOL0     C20376   7.535   9.258   3.825  0.8970 -0.2418 -0.2122
  873MOL0     C20377   7.448   9.138   3.866  0.5303 -0.2610  0.1688
  873MOL0     C20378   7.327   9.176   3.940 -0.5085 -0.4639 -0.3913
  873MOL0     C20379   7.248   9.052   3.997 -0.2635 -0.6697  0.0482
  873MOL0     C20380   7.110   9.083   4.040  0.4139 -0.7590 -0.1361
  873MOL0    Cl20381   7.074   8.952   4.154 -0.0264  0.2065 -0.3815
  873MOL0     C20382   8.075   9.043   3.626  0.8261 -0.0057 -0.2273
  873MOL0     C20383   8.198   8.995   3.570  0.1566  0.8102  0.0819
  873MOL0     O20384   8.477   9.213   3.340  0.1938  0.9043  0.0598
  873MOL0     C20385   8.649   8.906   3.383  1.1587  0.8007  0.4357
  873MOL0     C20386   8.740   8.815   3.327 -0.0003 -0.8485 -0.4439
  873MOL0     N20387   9.459   8.988   3.576  0.2419 -0.4661 -0.4361
  873MOL0     N20388   9.576   8.977   3.631  0.6154  0.0603 -0.0499
  873MOL0     C20389  10.555   8.216   3.314  0.1029 -0.4197  0.3207
  873MOL0     C20390  10.635   8.159   3.216  0.8714 -0.7168 -0.1402
  873MOL0     C20391  11.050   7.999   3.030 -0.0674  0.4205  0.1349
  873MOL0     C20392  11.014   8.040   2.904 -0.1129 -0.0277  0.0736
  873MOL0     C20393  11.111   8.032   2.801 -0.1996 -0.5285 -0.6268
  873MOL0     C20394  11.241   7.988   2.834 -0.8110 -0.4202  0.1549
  873MOL0     O20395  11.319   7.993   2.723  0.4111 -1.0237  0.4429
  873MOL0     C20396  11.457   7.976   2.738 -0.7881  0.1633 -0.1104
  873MOL0     C20397  11.519   7.974   2.600  0.4543  0.1394  0.3847
  873MOL0     C20398  11.491   8.099   2.516 -0.7757  0.8045  0.5814
  873MOL0     C20399  11.541   8.237   2.577 -0.4918 -0.6076  0.0345
  873MOL0     C20400  11.687   8.240   2.614  0.7202 -0.1097  0.0476
  873MOL0     C20401  11.812   8.240   2.622  0.4370 -0.5465  0.1361
  873MOL0     C20402  11.273   7.954   2.962  0.0259 -0.3162 -0.7372
  873MOL0     C20403  11.182   7.960   3.061  0.2267 -0.1143  0.0150
  873MOL0     C20404  11.230   7.916   3.207 -0.6415 -0.2888  0.3310
  873MOL0     H20405  10.931   8.143   3.365  0.5785  1.7314 -0.1406
  873MOL0     H20406  10.788   8.240   3.555  1.2941 -0.1746 -1.1462
  873MOL0     H20407  10.331   8.254   3.636  1.7455 -2.2817 -0.0849
  873MOL0     H20408  10.347   8.227   3.467  0.1934  0.2687  0.2012
  873MOL0     H20409  10.404   8.477   3.617  1.3342 -2.1296  0.3501
  873MOL0     H20410  10.423   8.471   3.443  2.6736 -1.3196  1.3776
  873MOL0     H20411  10.171   8.418   3.424 -0.2595  0.7397 -0.1743
  873MOL0     H20412  10.166   8.444   3.602  0.6422  2.4959  2.0564
  873MOL0     H20413  10.222   8.666   3.590 -0.5896  1.9195 -2.9867
  873MOL0     H20414  10.231   8.677   3.422  0.5303  1.3593  0.1915
  873MOL0     H20415   9.965   8.575   3.543  1.1063 -0.8953  1.2169
  873MOL0     H20416  10.009   8.627   3.382  1.2981  1.0790 -0.8785
  873MOL0     H20417  10.025   8.812   3.618 -1.3044  1.8698 -0.3327
  873MOL0     H20418  10.062   8.863   3.455  0.8309  0.0038  0.7584
  873MOL0     H20419   9.801   8.744   3.554 -1.6424 -0.0328 -0.0033
  873MOL0     H20420   9.819   8.819   3.398  0.2372 -0.0413  0.8889
  873MOL0     H20421   9.827   8.982   3.662 -1.0258 -1.5560  0.3903
  873MOL0     H20422   9.870   9.038   3.494 -1.6176  2.0711  0.2946
  873MOL0     H20423   9.661   8.965   3.316 -0.3559  1.1308 -0.2588
  873MOL0     H20424   9.427   9.029   3.230  2.6953 -1.1228  0.9969
  873MOL0     H20425   9.313   9.102   3.347  0.1449  0.4058 -0.8186
  873MOL0     H20426   9.328   8.797   3.261 -2.6541 -1.0113 -0.3934
  873MOL0     H20427   9.265   8.858   3.412 -3.0086 -1.0070 -0.4915
  873MOL0     H20428   9.098   8.994   3.295 -2.9748 -2.4223  2.8313
  873MOL0     H20429   9.174   8.942   3.148 -0.2793  2.7460  1.4582
  873MOL0     H20430   9.104   8.692   3.239  0.4306 -1.1508  1.6267
  873MOL0     H20431   9.037   8.784   3.368  2.4183  1.2043  0.3234
  873MOL0     H20432   8.871   9.030   3.108  0.1264  0.0363 -0.0362
  873MOL0     H20433   8.681   9.290   3.205 -0.4349  0.7988 -0.6239
  873MOL0     H20434   8.566   9.197   3.099 -0.5421 -2.3422  1.5817
  873MOL0     H20435   8.735   9.206   3.060 -0.7960 -1.5974 -0.1943
  873MOL0     H20436   8.349   9.303   3.538 -0.5857  0.5194 -0.8370
  873MOL0     H20437   8.142   9.368   3.625 -1.6390 -0.5252  3.8208
  873MOL0     H20438   7.904   9.381   3.582  1.6644 -0.2150  0.8843
  873MOL0     H20439   7.810   9.239   3.536 -3.7457 -0.0593  2.0264
  873MOL0     H20440   7.772   9.403   3.796  0.3479 -0.9968  0.4400
  873MOL0     H20441   7.673   9.403   3.645 -1.1099 -2.1362 -1.6086
  873MOL0     H20442   7.731   9.149   3.820 -1.5629 -0.7948  1.0012
  873MOL0     H20443   7.636   9.145   3.683 -2.6993 -1.6393  1.7992
  873MOL0     H20444   7.482   9.313   3.747  0.0263 -1.2657 -0.3750
  873MOL0     H20445   7.563   9.311   3.916  2.3440 -1.6388  0.1980
  873MOL0     H20446   7.430   9.072   3.781  3.4942 -2.0418  0.7949
  873MOL0     H20447   7.500   9.068   3.931  0.3828 -0.6492 -0.1318
  873MOL0     H20448   7.247   9.226   3.884  1.1353  1.5046 -1.1255
  873MOL0     H20449   7.353   9.239   4.026 -0.7769 -1.3888  0.3719
  873MOL0     H20450   7.305   9.034   4.089  1.3878  2.3198 -0.2634
  873MOL0     H20451   7.253   8.966   3.930  1.0052  0.5137 -1.4235
  873MOL0     H20452   7.037   9.086   3.959  0.2429 -2.6250 -0.1087
  873MOL0     H20453   7.108   9.182   4.087 -2.4413 -1.6290  1.9016
  873MOL0     H20454   7.996   8.972   3.649  0.1998  1.3656  2.1633
  873MOL0     H20455   8.212   8.890   3.548 -0.0951  0.3779  1.8463
  873MOL0     H20456   8.597   8.867   3.470 -1.5975 -1.7447 -2.1097
  873MOL0     H20457   8.748   8.711   3.359  0.1869 -0.7061 -0.0199
  873MOL0     H20458  10.460   8.258   3.284  1.5225  2.3277 -0.6445
  873MOL0     H20459  10.594   8.153   3.116  0.2491 -1.6712  0.1534
  873MOL0     H20460  10.909   8.060   2.888 -0.2551  0.1165  1.1644
  873MOL0     H20461  11.082   8.051   2.698 -0.0920  1.9314 -0.2539
  873MOL0     H20462  11.500   8.048   2.809 -3.7124 -0.2335  2.2569
  873MOL0     H20463  11.469   7.876   2.782  0.8829  0.2869 -0.2086
  873MOL0     H20464  11.477   7.886   2.552  0.3776 -0.2331  1.1106
  873MOL0     H20465  11.627   7.961   2.610  0.4033  0.3941  1.4153
  873MOL0     H20466  11.542   8.092   2.419  1.6759 -0.5724  1.8623
  873MOL0     H20467  11.383   8.103   2.499 -0.2767  0.1865 -4.1479
  873MOL0     H20468  11.485   8.264   2.667 -1.5965 -1.0246 -0.5078
  873MOL0     H20469  11.533   8.323   2.510  3.1019  2.6679  3.3235
  873MOL0     H20470  11.917   8.230   2.638  0.5689 -0.1519 -0.4256
  873MOL0     H20471  11.372   7.914   2.983  0.0491 -0.0785 -0.3696
  873MOL0     H20472  11.334   7.885   3.217 -0.3111  0.1176 -1.4288
  873MOL0     H20473  11.209   7.988   3.286  0.1064 -3.5805  3.7943
  873MOL0     H20474  11.171   7.829   3.236 -0.2163 -1.0742 -1.0413
  874MOL0     O20475   8.278   6.756   4.213  0.9171 -0.1571 -0.5277
  874MOL0     C20476   8.307   6.641   4.241  0.0658  0.8392 -0.4723
  874MOL0     O20477   8.405   6.601   4.328  0.1642 -0.1909 -0.4263
  874MOL0     C20478   8.477   6.699   4.387  0.3286 -0.3556 -0.0540
  874MOL0     C20479   8.475   6.705   4.527  0.0946  0.1530  0.7845
  874MOL0     C20480   8.558   6.794   4.591 -0.4046  0.5539 -0.6228
  874MOL0     C20481   8.630   6.895   4.525  0.7106 -0.7833 -0.1250
  874MOL0     O20482   8.709   6.985   4.584 -0.0054 -0.0636  0.0425
  874MOL0     C20483   8.709   7.003   4.729  0.9467  1.0873  0.2854
  874MOL0     C20484   8.583   7.060   4.786  0.4515  0.0766 -0.4027
  874MOL0     C20485   8.550   7.195   4.721  0.0675  0.0089  0.0972
  874MOL0     C20486   8.481   7.300   4.814  0.3299 -0.1167 -0.2607
  874MOL0     C20487   8.443   7.426   4.739 -0.3064 -0.4989  0.7509
  874MOL0     C20488   8.315   7.490   4.787  0.8070 -0.4265 -0.8474
  874MOL0     C20489   8.325   7.535   4.933  0.5193 -0.0375  0.0469
  874MOL0     C20490   8.194   7.586   4.983 -0.3819  0.4558 -0.2175
  874MOL0     N20491   8.172   7.733   4.994  0.3811 -0.7194 -0.0565
  874MOL0     C20492   8.062   7.809   4.941  0.1264  1.3138 -0.3953
  874MOL0     C20493   8.073   7.934   4.992 -0.0725 -0.0056 -0.5314
  874MOL0     C20494   7.993   8.057   4.961 -0.4074  0.9707 -0.4440
  874MOL0     C20495   7.984   8.142   5.085  0.4559  0.1505 -0.8852
  874MOL0     C20496   7.887   8.265   5.066  0.6323  0.8125 -0.4072
  874MOL0     C20497   7.915   8.348   4.945  0.3062 -0.1630  0.1625
  874MOL0     O20498   7.890   8.291   4.816  0.5603  0.1497  0.3306
  874MOL0     C20499   7.955   8.368   4.724  0.2250 -0.8664 -0.0851
  874MOL0     C20500   7.930   8.507   4.709 -0.3573  0.2134  0.1128
  874MOL0     C20501   8.006   8.585   4.617 -0.0153 -0.4761  0.1143
  874MOL0     C20502   7.971   8.732   4.602  0.2670  0.5810  1.0076
  874MOL0     C20503   8.107   8.521   4.526  0.1767 -0.4419  0.3266
  874MOL0     C20504   8.191   8.593   4.430 -0.4104  0.4840 -0.6047
  874MOL0     O20505   8.277   8.519   4.349 -0.1920 -0.6845  0.5769
  874MOL0     C20506   8.331   8.579   4.235  0.6919 -0.6058 -0.3864
  874MOL0     C20507   8.464   8.630   4.240  0.0396  0.3099 -0.7363
  874MOL0     C20508   8.527   8.673   4.124 -0.1438 -0.5967  0.1200
  874MOL0     C20509   8.450   8.694   4.005  0.5044  0.2132  0.0858
  874MOL0     O20510   8.497   8.753   3.891 -0.1264 -0.4403  0.2943
  874MOL0     C20511   8.609   8.839   3.898 -0.6954  0.4688  0.1689
  874MOL0     C20512   8.611   8.928   3.778  0.2674  0.6432  0.6097
  874MOL0     C20513   8.728   9.022   3.778 -0.8561 -0.3140 -0.3490
  874MOL0     C20514   8.764   9.068   3.631 -0.4944  0.2555  0.2653
  874MOL0     C20515   8.865   9.184   3.621  0.6171  0.2704 -0.8539
  874MOL0     C20516   8.899   9.224   3.478  0.1578  0.1368 -0.4474
  874MOL0     C20517   8.993   9.338   3.473  0.1217  0.5469 -0.5724
  874MOL0     C20518   9.024   9.370   3.335 -0.4121  0.4749 -0.1791
  874MOL0    Cl20519   9.164   9.475   3.334 -0.0434  0.2850 -0.1568
  874MOL0     C20520   8.318   8.656   4.002  0.2766  0.1728  0.0382
  874MOL0     C20521   8.261   8.583   4.109 -0.4325 -0.6459 -0.9199
  874MOL0     O20522   8.179   8.711   4.421  0.3318 -0.2427 -0.5869
  874MOL0     C20523   8.133   8.383   4.549  0.8304 -0.4489 -0.0940
  874MOL0     C20524   8.054   8.310   4.646  0.2775  0.4360  0.3409
  874MOL0     N20525   8.182   7.934   5.073  0.2480  0.0547 -0.1223
  874MOL0     N20526   8.240   7.821   5.074  0.2372  0.0010 -0.9021
  874MOL0     C20527   8.630   6.893   4.386  0.0362  0.4766 -1.1328
  874MOL0     C20528   8.550   6.800   4.319 -0.5213 -0.0117 -0.4371
  874MOL0     C20529   8.230   6.529   4.179 -0.4829  0.3569  0.4721
  874MOL0     C20530   8.295   6.410   4.171  0.0955  0.9451  0.4678
  874MOL0     C20531   8.241   6.295   4.116  0.9740 -0.1378 -0.6194
  874MOL0     C20532   8.110   6.281   4.089 -0.3123  0.0442 -0.1113
  874MOL0     O20533   8.035   6.167   4.064  0.7846  0.1135  0.5028
  874MOL0     C20534   8.092   6.101   3.946 -0.2159 -0.8424 -0.5195
  874MOL0     C20535   8.009   5.974   3.933  0.7120  0.4479  0.1743
  874MOL0     C20536   7.860   5.985   3.904  0.2592  0.2627  0.3316
  874MOL0     C20537   7.819   6.070   3.785  0.0655 -0.1722  0.3019
  874MOL0     C20538   7.868   6.004   3.663 -0.2660 -0.1050 -0.5315
  874MOL0     C20539   7.902   5.964   3.558 -0.5213 -0.1797  0.4735
  874MOL0     C20540   8.040   6.402   4.100 -0.2796  0.7117 -0.8220
  874MOL0     C20541   8.093   6.526   4.145 -1.1802  0.3491 -0.4272
  874MOL0     C20542   8.004   6.647   4.173  0.0376  0.7388  0.1323
  874MOL0     H20543   8.415   6.633   4.581 -0.5138 -1.0791 -1.4444
  874MOL0     H20544   8.556   6.795   4.700 -2.2564  0.9631 -0.6262
  874MOL0     H20545   8.795   7.068   4.748  1.8082  0.1427 -0.2288
  874MOL0     H20546   8.728   6.904   4.773  0.5515  0.9663  0.1832
  874MOL0     H20547   8.493   7.000   4.769 -0.5466  0.5392  2.5748
  874MOL0     H20548   8.598   7.076   4.893  1.1601 -0.2206 -0.4552
  874MOL0     H20549   8.638   7.237   4.672 -0.3630  0.2557 -0.4704
  874MOL0     H20550   8.473   7.180   4.644 -2.1396  1.0023  1.9702
  874MOL0     H20551   8.398   7.252   4.866  0.4908  0.4990  0.5758
  874MOL0     H20552   8.549   7.329   4.895  1.7041  1.0070 -1.7393
  874MOL0     H20553   8.444   7.423   4.630 -0.7314 -1.4039  0.7579
  874MOL0     H20554   8.522   7.493   4.773 -1.1597 -0.4006  2.6931
  874MOL0     H20555   8.300   7.578   4.723 -2.2882 -2.5505 -3.2986
  874MOL0     H20556   8.228   7.425   4.775  0.5531 -0.3149  0.3070
  874MOL0     H20557   8.393   7.621   4.937  1.3257 -0.6835  0.5087
  874MOL0     H20558   8.347   7.449   4.998 -1.3209  0.9248  2.0798
  874MOL0     H20559   8.114   7.562   4.911  0.5756  4.5984 -2.9988
  874MOL0     H20560   8.162   7.541   5.077 -0.4992 -1.1902 -1.0029
  874MOL0     H20561   7.987   7.786   4.866 -0.2114 -0.3171  0.3919
  874MOL0     H20562   7.891   8.032   4.933  0.4275 -4.0110 -0.0249
  874MOL0     H20563   8.033   8.111   4.874 -1.8674  2.2423 -0.3631
  874MOL0     H20564   7.955   8.078   5.168  0.0199  1.0928 -0.2929
  874MOL0     H20565   8.085   8.184   5.096  0.7647 -0.6591 -0.5274
  874MOL0     H20566   7.785   8.226   5.070  0.3653  1.3804 -1.1677
  874MOL0     H20567   7.882   8.323   5.159 -1.7665 -2.9278  2.0653
  874MOL0     H20568   7.845   8.431   4.960  0.4572 -0.4132  2.6196
  874MOL0     H20569   8.012   8.393   4.965  0.1189 -1.0981  3.7831
  874MOL0     H20570   7.856   8.559   4.768 -0.3656 -1.7787  1.9880
  874MOL0     H20571   7.922   8.762   4.695 -0.8375  0.2387  0.5476
  874MOL0     H20572   7.915   8.737   4.508 -0.1188 -0.8728  1.1386
  874MOL0     H20573   8.061   8.795   4.606  0.1426  0.7710  0.8619
  874MOL0     H20574   8.528   8.623   4.327 -2.3978  1.3609  1.2528
  874MOL0     H20575   8.630   8.705   4.113 -0.8113  1.0292 -2.1275
  874MOL0     H20576   8.604   8.900   3.988 -0.7280  0.8596 -0.0962
  874MOL0     H20577   8.698   8.776   3.912 -3.3636 -3.9086 -0.5819
  874MOL0     H20578   8.628   8.871   3.687 -0.7838  1.1424  0.0848
  874MOL0     H20579   8.515   8.980   3.769 -0.8412 -1.2961  0.8361
  874MOL0     H20580   8.815   8.986   3.833  1.8724  4.7654 -0.7790
  874MOL0     H20581   8.699   9.116   3.827  2.4573  0.5486  0.1758
  874MOL0     H20582   8.671   9.077   3.574 -0.9988 -2.9632  0.4094
  874MOL0     H20583   8.814   8.981   3.587  0.1597  0.3580  0.8000
  874MOL0     H20584   8.823   9.269   3.677  1.2679 -0.2506  0.4699
  874MOL0     H20585   8.957   9.159   3.675  1.1589  1.2385 -1.3051
  874MOL0     H20586   8.811   9.246   3.417  0.9489 -0.2138 -1.7531
  874MOL0     H20587   8.947   9.136   3.434  0.0553 -0.5602  0.7714
  874MOL0     H20588   9.087   9.304   3.519 -0.1504 -0.8141 -0.9618
  874MOL0     H20589   8.952   9.423   3.528  1.7528 -1.8566  4.9721
  874MOL0     H20590   8.948   9.422   3.277  0.9431  0.5981 -1.9288
  874MOL0     H20591   9.034   9.276   3.281  1.4384  1.5815 -1.9290
  874MOL0     H20592   8.246   8.680   3.925 -2.3700  0.1637  2.3523
  874MOL0     H20593   8.161   8.543   4.116 -0.8594  0.6023  0.7796
  874MOL0     H20594   8.198   8.321   4.487  0.4971 -0.9145  0.0147
  874MOL0     H20595   8.083   8.208   4.670 -0.9442  0.5359  2.4868
  874MOL0     H20596   8.675   6.968   4.322 -0.4944  0.1816 -1.8791
  874MOL0     H20597   8.547   6.776   4.214 -1.5817 -2.8335  0.1373
  874MOL0     H20598   8.393   6.396   4.215 -0.9279 -2.0711  2.0770
  874MOL0     H20599   8.305   6.207   4.108 -0.7280 -1.7035  1.5992
  874MOL0     H20600   8.078   6.162   3.857  2.0215 -1.2670 -1.2090
  874MOL0     H20601   8.200   6.086   3.956 -0.0596  0.4776 -0.1280
  874MOL0     H20602   8.022   5.916   4.025  2.8323 -0.7428 -0.7884
  874MOL0     H20603   8.055   5.910   3.857 -1.0508 -0.8641  0.1416
  874MOL0     H20604   7.822   5.885   3.883  1.4977  0.1336 -1.5387
  874MOL0     H20605   7.805   6.023   3.991  0.3983  1.3821 -0.0585
  874MOL0     H20606   7.865   6.169   3.781 -0.9273  0.2723 -1.3750
  874MOL0     H20607   7.712   6.088   3.776 -0.3962 -3.2381 -2.4145
  874MOL0     H20608   7.945   5.920   3.471  0.5027  0.1592  0.7918
  874MOL0     H20609   7.932   6.409   4.090 -0.4595  0.9516  0.9877
  874MOL0     H20610   8.022   6.728   4.103  1.6997 -0.5319 -0.9814
  874MOL0     H20611   7.896   6.626   4.172 -0.2797  2.0492 -3.1329
  874MOL0     H20612   8.038   6.689   4.268  1.0178  1.2738 -0.4486
  875MOL0     O20613   9.430  10.084   3.648  0.5889 -0.1957  0.7948
  875MOL0     C20614   9.371  10.174   3.591  1.1979  0.2137 -0.1456
  875MOL0     O20615   9.419  10.291   3.556  0.4592  0.3636  0.5630
  875MOL0     C20616   9.546  10.339   3.581  0.1951 -0.1771 -0.1653
  875MOL0     C20617   9.640  10.292   3.677 -1.2702  0.4797  0.3238
  875MOL0     C20618   9.758  10.365   3.704 -0.3603  0.8713  0.1662
  875MOL0     C20619   9.792  10.482   3.629  0.5397 -0.2291 -0.5620
  875MOL0     O20620   9.899  10.570   3.660 -0.1397 -0.0296  0.2815
  875MOL0     C20621  10.018  10.514   3.723 -0.2772 -0.6486 -0.1828
  875MOL0     C20622  10.137  10.607   3.705  0.9901 -0.2586 -0.0775
  875MOL0     C20623  10.271  10.542   3.739  0.3042  0.3569 -0.0882
  875MOL0     C20624  10.388  10.642   3.767  0.4033 -0.0966 -0.2713
  875MOL0     C20625  10.443  10.689   3.633 -0.7231 -0.8690  0.1847
  875MOL0     C20626  10.536  10.805   3.656 -0.8735  0.4331 -0.4975
  875MOL0     C20627  10.580  10.861   3.534  0.9007 -0.5053  0.7926
  875MOL0     C20628  10.696  10.960   3.556  0.8808  0.1651 -0.0065
  875MOL0     N20629  10.799  10.908   3.634  0.0925  0.3614 -1.3171
  875MOL0     C20630  10.893  10.828   3.588  0.4086  0.1115 -0.4179
  875MOL0     C20631  10.984  10.811   3.687 -0.1888  0.3422 -0.5620
  875MOL0     C20632  11.109  10.727   3.675  0.8878  0.3769 -0.2302
  875MOL0     C20633  11.120  10.634   3.544 -0.0833 -0.2030 -0.0970
  875MOL0     C20634  11.258  10.579   3.562 -0.0074  0.1216 -0.3442
  875MOL0     C20635  11.307  10.538   3.420  0.0759 -0.1560 -0.5100
  875MOL0     O20636  11.424  10.451   3.396  0.0579  0.5299  0.6577
  875MOL0     C20637  11.554  10.489   3.421  0.0427 -0.0639 -0.0073
  875MOL0     C20638  11.594  10.620   3.461  0.1934 -0.0449 -0.0974
  875MOL0     C20639  11.736  10.651   3.475  0.5065 -0.8622 -0.4671
  875MOL0     C20640  11.772  10.795   3.520  0.2703 -0.4065 -0.0351
  875MOL0     C20641  11.835  10.552   3.472 -0.0442  0.4913  0.1028
  875MOL0     C20642  11.977  10.569   3.516  0.3619  0.0577  0.8415
  875MOL0     O20643  12.037  10.443   3.538 -0.0765 -0.2014 -0.4207
  875MOL0     C20644  12.163  10.422   3.582  1.1276 -0.1555  0.0864
  875MOL0     C20645  12.260  10.352   3.513 -0.9192  0.4088  0.5589
  875MOL0     C20646  12.389  10.323   3.559  1.0627 -0.5388  0.1010
  875MOL0     C20647  12.428  10.399   3.675  0.1345 -0.2281  0.7212
  875MOL0     O20648  12.565  10.388   3.698 -0.5741 -0.4394 -0.0188
  875MOL0     C20649  12.633  10.513   3.734 -0.5241  1.2792  0.3537
  875MOL0     C20650  12.762  10.477   3.803  0.4831  0.2514  0.5253
  875MOL0     C20651  12.849  10.599   3.824  0.1892  0.6195  0.4972
  875MOL0     C20652  12.822  10.645   3.966  0.4878  0.3792 -0.3411
  875MOL0     C20653  12.910  10.763   3.998  0.6428 -0.4873  0.6355
  875MOL0     C20654  12.817  10.885   4.032  0.0421 -0.5619  0.4053
  875MOL0     C20655  12.899  11.011   4.043  0.5091 -1.1981 -0.1221
  875MOL0     C20656  12.915  11.085   3.907  0.4355 -0.0756 -0.0646
  875MOL0    Cl20657  12.956  11.260   3.941 -0.4304 -0.1152 -0.4848
  875MOL0     C20658  12.336  10.475   3.752 -0.7502 -0.7605 -0.1705
  875MOL0     C20659  12.208  10.475   3.703  0.0459 -1.0471  0.1729
  875MOL0     O20660  12.036  10.680   3.506  0.6016  0.0737  0.0925
  875MOL0     C20661  11.794  10.422   3.431 -0.2093 -0.1432 -0.0891
  875MOL0     C20662  11.661  10.395   3.405  0.4020 -0.3668  0.0939
  875MOL0     N20663  10.943  10.888   3.795  0.0799  0.8447  0.4634
  875MOL0     N20664  10.829  10.935   3.766 -0.1709  0.4216 -0.2011
  875MOL0     C20665   9.705  10.520   3.524 -0.5236  0.6860  0.6327
  875MOL0     C20666   9.591  10.452   3.503  0.7454  0.0240 -0.1150
  875MOL0     C20667   9.225  10.147   3.564  0.3020  0.2617  0.1174
  875MOL0     C20668   9.157  10.231   3.481  0.2365 -0.2849  0.0026
  875MOL0     C20669   9.026  10.209   3.451 -0.0146 -0.1164 -0.2270
  875MOL0     C20670   8.951  10.101   3.496 -0.3445  0.0795 -0.9992
  875MOL0     O20671   8.824  10.097   3.458 -0.4722 -0.5787  0.2064
  875MOL0     C20672   8.755   9.975   3.478  0.7530  0.0172  0.2343
  875MOL0     C20673   8.619   9.968   3.410  1.1002 -0.2561 -0.3373
  875MOL0     C20674   8.546  10.095   3.450  1.1935  0.4462 -0.8637
  875MOL0     C20675   8.396  10.094   3.406  0.1731  0.4565 -0.1615
  875MOL0     C20676   8.366  10.067   3.263  0.2742  0.1505 -0.2455
  875MOL0     C20677   8.325  10.058   3.149  0.8160 -0.4891  0.1949
  875MOL0     C20678   9.016  10.022   3.585 -0.1808 -0.9636  0.5695
  875MOL0     C20679   9.146  10.043   3.625  0.2548 -0.8141  0.6308
  875MOL0     C20680   9.200   9.943   3.728 -0.3472  0.1167 -0.0097
  875MOL0     H20681   9.630  10.207   3.744  1.5555 -0.5840 -0.4589
  875MOL0     H20682   9.833  10.334   3.776 -1.2615  0.1761  0.8446
  875MOL0     H20683  10.041  10.419   3.675 -1.2594 -2.2566  2.3405
  875MOL0     H20684  10.010  10.494   3.830 -0.5265 -0.8088 -0.2297
  875MOL0     H20685  10.138  10.661   3.610 -2.9221  1.3377  0.5902
  875MOL0     H20686  10.116  10.680   3.785 -0.6517  3.8413 -3.8137
  875MOL0     H20687  10.258  10.476   3.826 -1.9161  2.1896  1.1079
  875MOL0     H20688  10.301  10.482   3.653 -1.8634  1.0948 -1.4395
  875MOL0     H20689  10.356  10.725   3.832 -0.0948 -0.6937  0.2552
  875MOL0     H20690  10.458  10.576   3.819 -0.4456 -1.7742 -1.1998
  875MOL0     H20691  10.360  10.720   3.569  0.0175 -1.6317 -1.1948
  875MOL0     H20692  10.483  10.608   3.571 -3.7300  1.1754 -5.0971
  875MOL0     H20693  10.497  10.883   3.722 -0.9525  0.5519 -0.6832
  875MOL0     H20694  10.620  10.774   3.719 -2.0347  2.2884  2.1279
  875MOL0     H20695  10.497  10.895   3.471 -0.0693 -0.1500  2.2075
  875MOL0     H20696  10.622  10.776   3.480 -1.5740 -1.4008  0.1354
  875MOL0     H20697  10.713  11.002   3.456 -1.3712 -1.0980 -0.9962
  875MOL0     H20698  10.648  11.042   3.611 -2.3534 -1.1783 -0.5857
  875MOL0     H20699  10.903  10.795   3.485 -0.6010 -0.4511 -0.3444
  875MOL0     H20700  11.108  10.649   3.752 -0.8354  0.6739  0.0795
  875MOL0     H20701  11.199  10.790   3.683  0.5983  0.6289  1.3267
  875MOL0     H20702  11.043  10.557   3.555 -0.1455 -0.1773 -0.3442
  875MOL0     H20703  11.127  10.690   3.450  3.5322 -2.4800 -1.4159
  875MOL0     H20704  11.333  10.647   3.602 -0.2298 -0.1490  0.5464
  875MOL0     H20705  11.272  10.491   3.625 -1.4361  0.5803  0.6459
  875MOL0     H20706  11.218  10.496   3.373 -0.1271  2.1146 -2.3078
  875MOL0     H20707  11.316  10.624   3.354 -0.0263  1.3539  1.3579
  875MOL0     H20708  11.517  10.694   3.482  0.8319  0.3115  1.0378
  875MOL0     H20709  11.832  10.841   3.441 -0.9299 -1.3168 -1.5470
  875MOL0     H20710  11.817  10.800   3.619 -2.6299  2.6852  1.3111
  875MOL0     H20711  11.685  10.861   3.520 -0.8807 -1.8044 -1.6334
  875MOL0     H20712  12.234  10.296   3.423  1.0041 -0.4457  0.4670
  875MOL0     H20713  12.466  10.261   3.513  0.9139 -0.2686 -0.5162
  875MOL0     H20714  12.640  10.579   3.647  1.3558  1.7851  0.8464
  875MOL0     H20715  12.575  10.575   3.803 -0.3484 -0.5112  2.2339
  875MOL0     H20716  12.728  10.439   3.900  1.4741 -1.8125  0.1318
  875MOL0     H20717  12.811  10.405   3.736 -1.4146 -1.0940  0.5137
  875MOL0     H20718  12.824  10.686   3.763  1.0972  1.1940  0.9292
  875MOL0     H20719  12.952  10.568   3.806 -1.1646 -4.0154 -0.6724
  875MOL0     H20720  12.841  10.564   4.036 -0.3676 -2.5865 -3.2825
  875MOL0     H20721  12.717  10.675   3.975  0.4860  0.4622 -0.6425
  875MOL0     H20722  12.972  10.746   4.086  2.4928 -1.7611 -0.8399
  875MOL0     H20723  12.976  10.798   3.918  2.9316 -0.6243  2.3864
  875MOL0     H20724  12.763  10.865   4.125  0.1352  1.2250  0.8786
  875MOL0     H20725  12.747  10.893   3.949  1.2321  2.3053 -0.4438
  875MOL0     H20726  13.000  10.986   4.076  0.1345  0.6722  2.8080
  875MOL0     H20727  12.855  11.072   4.122 -0.2066 -0.7098 -0.8791
  875MOL0     H20728  12.831  11.073   3.839  1.3318 -1.3260 -0.9879
  875MOL0     H20729  13.000  11.040   3.855  0.6936 -0.1679  0.4325
  875MOL0     H20730  12.360  10.523   3.846  2.0532  0.1108 -1.2581
  875MOL0     H20731  12.131  10.523   3.763  1.2821 -0.1544  1.0908
  875MOL0     H20732  11.859  10.337   3.413 -0.5801 -0.1114 -1.7187
  875MOL0     H20733  11.621  10.297   3.383  1.3754 -0.9851  0.9739
  875MOL0     H20734   9.713  10.614   3.470 -0.8776 -0.6001 -1.7894
  875MOL0     H20735   9.527  10.489   3.423  2.0779  0.5333 -0.9885
  875MOL0     H20736   9.211  10.317   3.443  0.3243 -0.6740 -0.7738
  875MOL0     H20737   8.991  10.274   3.372 -1.3983  1.0914  1.3252
  875MOL0     H20738   8.813   9.891   3.439 -0.8258 -0.0749 -2.1081
  875MOL0     H20739   8.745   9.954   3.585  3.3950  0.4439  0.6200
  875MOL0     H20740   8.569   9.874   3.438  0.5273 -0.4879 -2.0481
  875MOL0     H20741   8.638   9.981   3.303  0.1892 -0.1995 -0.4946
  875MOL0     H20742   8.547  10.105   3.558 -1.2762 -1.9577 -0.4947
  875MOL0     H20743   8.589  10.186   3.407 -2.9665  1.8352 -2.7043
  875MOL0     H20744   8.361  10.194   3.432  2.1425  0.4912  2.9455
  875MOL0     H20745   8.341  10.018   3.463  3.7669  0.4106  3.7079
  875MOL0     H20746   8.282  10.045   3.051 -0.9081 -3.6208  1.2362
  875MOL0     H20747   8.954   9.952   3.640 -1.2543  0.5846  1.3932
  875MOL0     H20748   9.249   9.991   3.813 -0.3435  0.7485 -0.3575
  875MOL0     H20749   9.123   9.890   3.785  1.8750 -0.3812  2.7437
  875MOL0     H20750   9.263   9.863   3.688 -0.7161  0.6551 -1.7452
  876MOL0     O20751   1.256   6.059   2.081  0.0600 -0.3299  0.1729
  876MOL0     C20752   1.226   5.967   2.002  0.3080 -0.1931 -0.2096
  876MOL0     O20753   1.315   5.897   1.926  0.2740 -0.4581  0.0736
  876MOL0     C20754   1.449   5.926   1.947  1.0226  0.2716  0.1786
  876MOL0     C20755   1.511   5.879   2.060 -0.6594 -0.7382  0.4168
  876MOL0     C20756   1.639   5.910   2.095 -0.5934  0.5722  0.1455
  876MOL0     C20757   1.711   5.991   2.010  0.0137 -0.3683  0.1108
  876MOL0     O20758   1.843   6.010   2.039 -0.6732  0.2875  0.1048
  876MOL0     C20759   1.936   5.960   1.937  0.5767 -0.8604  0.7605
  876MOL0     C20760   2.051   6.056   1.900  0.0345  0.0887  0.7255
  876MOL0     C20761   1.997   6.182   1.827  0.0274  0.6884  0.2541
  876MOL0     C20762   2.117   6.260   1.769 -0.9459 -1.3682  0.7524
  876MOL0     C20763   2.080   6.346   1.644 -0.0599 -0.3263 -0.1901
  876MOL0     C20764   2.205   6.423   1.609  0.6426 -0.6415 -0.0724
  876MOL0     C20765   2.191   6.503   1.472  1.1418  0.0408  0.4653
  876MOL0     C20766   2.306   6.596   1.441  0.1645  1.1512 -0.1022
  876MOL0     N20767   2.405   6.531   1.347 -0.8022 -0.2227 -0.5072
  876MOL0     C20768   2.463   6.602   1.248 -0.4723 -0.6680  0.6668
  876MOL0     C20769   2.562   6.526   1.198 -0.1941 -0.0021 -0.3552
  876MOL0     C20770   2.640   6.551   1.071  0.4510 -0.2587 -0.2248
  876MOL0     C20771   2.777   6.484   1.082 -0.3486  0.2180 -0.1231
  876MOL0     C20772   2.865   6.535   1.194 -0.3104  0.6732  0.2846
  876MOL0     C20773   3.004   6.472   1.179 -0.1453  0.7526 -0.1335
  876MOL0     O20774   3.079   6.551   1.084  0.3339  0.2681  0.0638
  876MOL0     C20775   3.206   6.507   1.057 -0.2850  1.0382 -0.4509
  876MOL0     C20776   3.259   6.378   1.094  0.0873 -0.2676  0.2802
  876MOL0     C20777   3.389   6.334   1.070  0.6972 -1.0815  0.9322
  876MOL0     C20778   3.427   6.198   1.123 -0.0298 -0.2616  0.7311
  876MOL0     C20779   3.475   6.413   0.997  0.1217  0.3431  0.1044
  876MOL0     C20780   3.618   6.372   0.968  0.6086 -0.9330  0.2479
  876MOL0     O20781   3.709   6.487   0.970  0.2099  0.6024 -0.0039
  876MOL0     C20782   3.843   6.456   0.940 -0.0298  0.1709  0.0329
  876MOL0     C20783   3.879   6.391   0.825 -0.2468 -0.1245 -0.6018
  876MOL0     C20784   4.015   6.353   0.803 -1.1938  0.0622  0.4857
  876MOL0     C20785   4.114   6.373   0.902 -0.5509 -0.1398 -0.7816
  876MOL0     O20786   4.250   6.348   0.898 -0.4965 -0.1007 -0.2508
  876MOL0     C20787   4.317   6.297   0.777  0.2495  0.7920  0.1075
  876MOL0     C20788   4.307   6.146   0.774  0.5438  0.0259  0.8348
  876MOL0     C20789   4.385   6.077   0.659  0.5237 -0.2431  0.2457
  876MOL0     C20790   4.511   6.002   0.703 -0.4970 -0.5623 -1.5002
  876MOL0     C20791   4.573   5.940   0.578 -0.1438 -0.0153  0.0494
  876MOL0     C20792   4.730   5.908   0.608 -0.6934 -0.6127 -0.0141
  876MOL0     C20793   4.809   5.845   0.495  0.4017 -0.3558 -0.3243
  876MOL0     C20794   4.945   5.797   0.550 -0.0494  0.3257  0.0588
  876MOL0    Cl20795   5.050   5.786   0.407 -0.2864 -0.0618  0.1908
  876MOL0     C20796   4.071   6.441   1.014  0.5274  0.7533 -0.3668
  876MOL0     C20797   3.942   6.474   1.036 -0.3312  0.5940  0.8257
  876MOL0     O20798   3.641   6.255   0.942  0.2980 -0.3291  0.0825
  876MOL0     C20799   3.432   6.535   0.948  0.4475 -0.5276 -0.8447
  876MOL0     C20800   3.297   6.583   0.980 -0.4358  0.1451  0.3889
  876MOL0     N20801   2.558   6.409   1.265 -0.4803  0.7256 -0.0427
  876MOL0     N20802   2.458   6.406   1.353 -0.2925 -0.1564 -0.7104
  876MOL0     C20803   1.654   6.046   1.894  0.1908 -0.4714  0.6643
  876MOL0     C20804   1.518   6.013   1.865 -1.0654  0.6062  0.5323
  876MOL0     C20805   1.083   5.926   1.973  0.0568 -0.0987  0.4574
  876MOL0     C20806   1.042   5.894   1.842 -0.9550 -0.2672 -0.9518
  876MOL0     C20807   0.910   5.860   1.818 -0.3061 -0.1610 -0.0384
  876MOL0     C20808   0.807   5.862   1.915  0.5033 -0.2481  0.1803
  876MOL0     O20809   0.674   5.846   1.893 -0.0064  0.2881 -1.1396
  876MOL0     C20810   0.622   5.881   1.765 -1.5038 -0.1904  1.1073
  876MOL0     C20811   0.481   5.882   1.803 -0.3578  0.5732 -0.5781
  876MOL0     C20812   0.433   5.985   1.899 -1.0133 -0.8630  0.3394
  876MOL0     C20813   0.279   6.002   1.913 -0.0887 -0.0326  0.2580
  876MOL0     C20814   0.240   6.112   1.993  0.1214 -0.1772 -0.6541
  876MOL0     C20815   0.202   6.205   2.060  0.3753 -0.1185 -0.2133
  876MOL0     C20816   0.846   5.879   2.043  1.5070  0.3638 -0.8600
  876MOL0     C20817   0.973   5.924   2.076 -1.3847 -0.2172  1.0030
  876MOL0     C20818   1.007   5.973   2.217  0.6269  0.0021 -0.0577
  876MOL0     H20819   1.461   5.807   2.125 -0.5972 -0.1956  1.0746
  876MOL0     H20820   1.692   5.870   2.181 -2.2328 -0.5908  0.6627
  876MOL0     H20821   1.880   5.931   1.848  2.4685  0.0972 -0.8032
  876MOL0     H20822   1.984   5.865   1.961  0.2659 -1.9856 -2.6347
  876MOL0     H20823   2.096   6.093   1.992 -0.6892  2.0434  0.3483
  876MOL0     H20824   2.132   6.007   1.846  2.6622  2.4063  2.3256
  876MOL0     H20825   1.937   6.144   1.744  1.5029 -0.3119 -0.3930
  876MOL0     H20826   1.943   6.250   1.894  3.4401  1.3632  2.5416
  876MOL0     H20827   2.153   6.325   1.850 -0.5940  0.9933 -1.1918
  876MOL0     H20828   2.200   6.196   1.737  0.0117  0.5424 -0.8097
  876MOL0     H20829   1.998   6.411   1.677 -1.3297 -2.1485  0.4142
  876MOL0     H20830   2.044   6.270   1.574  1.4078 -0.7734 -0.4907
  876MOL0     H20831   2.234   6.486   1.694 -1.9150  0.2949  0.1893
  876MOL0     H20832   2.293   6.358   1.602  1.2264  0.0026  0.9047
  876MOL0     H20833   2.102   6.565   1.464  1.1404  0.1021  0.9049
  876MOL0     H20834   2.171   6.429   1.394 -1.0905 -1.0867  2.0021
  876MOL0     H20835   2.269   6.695   1.411 -1.5281  0.2342 -1.2010
  876MOL0     H20836   2.374   6.612   1.525 -0.0180  3.0866 -0.2827
  876MOL0     H20837   2.455   6.708   1.225 -0.9437 -0.4638  1.7196
  876MOL0     H20838   2.649   6.658   1.053 -1.0496 -0.3805 -1.9464
  876MOL0     H20839   2.584   6.506   0.988  1.5138 -1.7219 -0.1799
  876MOL0     H20840   2.762   6.376   1.095  2.3424 -0.2325 -0.2661
  876MOL0     H20841   2.827   6.498   0.986 -4.0449  0.2718 -2.2416
  876MOL0     H20842   2.873   6.643   1.184  1.5801  0.4199 -1.6842
  876MOL0     H20843   2.818   6.515   1.291 -1.7130  0.6515 -0.3697
  876MOL0     H20844   3.062   6.464   1.271  1.1827  0.0678 -1.0126
  876MOL0     H20845   2.982   6.368   1.153 -0.6249  0.4103  1.4884
  876MOL0     H20846   3.185   6.310   1.135 -0.6216  2.3797  3.8874
  876MOL0     H20847   3.359   6.164   1.201  0.1001 -1.1231  0.4745
  876MOL0     H20848   3.530   6.179   1.155 -0.5262 -3.1719  0.8737
  876MOL0     H20849   3.404   6.123   1.048 -2.4296  0.4239  0.7086
  876MOL0     H20850   3.808   6.373   0.745  2.0285  2.0975 -3.3350
  876MOL0     H20851   4.045   6.304   0.711  3.1354  0.8237  1.2652
  876MOL0     H20852   4.269   6.336   0.687 -1.4448 -1.6945 -0.1701
  876MOL0     H20853   4.423   6.322   0.786  0.5538  0.5928 -2.2247
  876MOL0     H20854   4.333   6.106   0.872 -0.7139  0.3873  1.3437
  876MOL0     H20855   4.199   6.127   0.767  0.2411  2.0377 -2.0032
  876MOL0     H20856   4.409   6.138   0.571 -1.8108 -2.2313 -1.9555
  876MOL0     H20857   4.323   6.001   0.610  0.9467 -0.7616  0.5153
  876MOL0     H20858   4.495   5.928   0.783  0.0491  0.4457 -0.4145
  876MOL0     H20859   4.567   6.084   0.749 -3.4674  0.1101  1.3281
  876MOL0     H20860   4.522   5.845   0.556 -0.9387  0.5828 -0.7653
  876MOL0     H20861   4.565   6.011   0.495 -2.7635 -1.4509 -1.0597
  876MOL0     H20862   4.736   5.847   0.698 -2.5528  1.1123  1.3596
  876MOL0     H20863   4.772   6.008   0.625 -0.0295 -0.7395 -0.8362
  876MOL0     H20864   4.818   5.912   0.409  0.4529 -2.5811 -2.1102
  876MOL0     H20865   4.764   5.750   0.466 -0.5049  0.3231 -1.2539
  876MOL0     H20866   4.927   5.707   0.609 -1.1202  0.9223  0.6718
  876MOL0     H20867   4.994   5.868   0.617 -0.8262  1.7040 -0.7711
  876MOL0     H20868   4.135   6.446   1.102 -2.5619 -0.1633  2.1375
  876MOL0     H20869   3.918   6.519   1.132 -1.3120 -0.3147  1.0296
  876MOL0     H20870   3.494   6.600   0.888  0.1753 -1.5245 -2.2648
  876MOL0     H20871   3.268   6.680   0.940  1.9270  0.8055  0.1211
  876MOL0     H20872   1.718   6.109   1.834 -1.3272  0.4714 -0.0246
  876MOL0     H20873   1.468   6.055   1.779 -0.3154 -2.0220 -1.3317
  876MOL0     H20874   1.115   5.912   1.763  0.0945  1.3760  0.3135
  876MOL0     H20875   0.880   5.840   1.716  0.9881 -0.6970 -0.3361
  876MOL0     H20876   0.644   5.982   1.728 -0.3570  0.2373  2.8015
  876MOL0     H20877   0.653   5.810   1.689  1.3536  0.9532  1.0893
  876MOL0     H20878   0.463   5.777   1.829 -0.5540  0.6021 -0.5925
  876MOL0     H20879   0.422   5.902   1.713  0.3167  0.6544 -1.0079
  876MOL0     H20880   0.483   5.973   1.995  3.8110 -0.1969 -1.8300
  876MOL0     H20881   0.481   6.071   1.853  4.1021 -4.5260 -2.2113
  876MOL0     H20882   0.239   5.908   1.951  3.1944 -1.5676  0.1932
  876MOL0     H20883   0.230   6.016   1.816 -1.2772  0.2937  0.8756
  876MOL0     H20884   0.156   6.282   2.118  1.8787  1.4188 -0.9707
  876MOL0     H20885   0.775   5.876   2.125 -0.9197 -1.1683 -2.8589
  876MOL0     H20886   1.000   6.082   2.224  0.2810 -0.0808  1.1549
  876MOL0     H20887   0.929   5.936   2.284  0.6190 -0.8070 -0.5025
  876MOL0     H20888   1.101   5.928   2.252  0.6958  0.5766  0.5097
  877MOL0     O20889   0.317   5.838   7.875  0.0803 -0.1809 -0.1706
  877MOL0     C20890   0.203   5.851   7.916 -0.0488 -0.5754 -0.1996
  877MOL0     O20891   0.146   5.785   8.029 -0.7637  0.8569 -0.4667
  877MOL0     C20892   0.237   5.699   8.096 -0.3251 -1.3813 -0.4317
  877MOL0     C20893   0.268   5.716   8.228  0.1950  0.4029 -0.1389
  877MOL0     C20894   0.355   5.640   8.293 -0.9709 -0.7736 -0.1850
  877MOL0     C20895   0.418   5.537   8.233  0.2455  0.6364  0.2942
  877MOL0     O20896   0.492   5.453   8.325  0.0468  0.0674 -0.3936
  877MOL0     C20897   0.618   5.408   8.286  0.0184 -0.1690 -0.4888
  877MOL0     C20898   0.683   5.344   8.406  0.7637 -0.1524 -0.3419
  877MOL0     C20899   0.737   5.451   8.501 -0.4162 -0.3107 -0.3020
  877MOL0     C20900   0.796   5.388   8.628 -0.4033 -0.7028  0.4354
  877MOL0     C20901   0.876   5.484   8.725  0.1017 -0.1418  0.1392
  877MOL0     C20902   0.799   5.598   8.775 -0.4114  0.3471  0.7234
  877MOL0     C20903   0.780   5.711   8.679 -0.2884 -0.1073 -0.2443
  877MOL0     C20904   0.706   5.819   8.762  0.3595 -0.1401 -0.8712
  877MOL0     N20905   0.663   5.923   8.670  0.5266 -0.1092 -0.2616
  877MOL0     C20906   0.596   5.896   8.554  0.2952 -0.1520  0.3707
  877MOL0     C20907   0.607   6.007   8.481  0.2602 -0.5255 -0.0123
  877MOL0     C20908   0.548   6.049   8.348  0.0440 -0.3985 -0.2386
  877MOL0     C20909   0.396   6.058   8.332  0.6103 -0.2431 -0.3161
  877MOL0     C20910   0.337   6.056   8.190 -0.1916 -0.5315  0.7205
  877MOL0     C20911   0.371   6.189   8.120  0.1120  0.6343  0.1963
  877MOL0     O20912   0.293   6.293   8.175  0.5891 -0.7531  1.5106
  877MOL0     C20913   0.156   6.282   8.162  0.4086  0.1208 -0.6846
  877MOL0     C20914   0.070   6.264   8.268 -0.1289  0.2413 -0.3361
  877MOL0     C20915  -0.067   6.256   8.256  0.4865  0.3523 -0.1918
  877MOL0     C20916  -0.155   6.228   8.373  0.1918  0.0050 -1.5064
  877MOL0     C20917  -0.126   6.258   8.127  0.0699  0.0796  0.7800
  877MOL0     C20918  -0.275   6.241   8.095 -0.5818 -0.6105 -0.0108
  877MOL0     O20919  -0.370   6.326   8.148 -0.1315  0.2259 -0.2458
  877MOL0     C20920  -0.511   6.292   8.142  0.3920  0.6851 -0.5485
  877MOL0     C20921  -0.592   6.326   8.042 -0.0725 -0.1265  0.0504
  877MOL0     C20922  -0.726   6.280   8.031 -0.3289 -0.1390 -0.2788
  877MOL0     C20923  -0.782   6.215   8.146  1.0495  0.5903 -0.1137
  877MOL0     O20924  -0.919   6.180   8.142  0.0069  0.5206 -0.1395
  877MOL0     C20925  -0.971   6.093   8.256  0.8589  1.1568 -0.2497
  877MOL0     C20926  -1.127   6.072   8.237  0.0842 -0.2037 -0.5845
  877MOL0     C20927  -1.180   5.980   8.342  0.2779 -1.0473  0.2251
  877MOL0     C20928  -1.122   5.843   8.344  0.4117  0.2358 -0.0705
  877MOL0     C20929  -1.196   5.751   8.441 -0.7479 -0.1903 -0.7184
  877MOL0     C20930  -1.112   5.627   8.472 -0.0464  0.9136  0.6731
  877MOL0     C20931  -1.205   5.539   8.567  0.1587 -0.1997  0.1385
  877MOL0     C20932  -1.142   5.404   8.568 -0.1721 -0.0373  0.0869
  877MOL0    Cl20933  -0.989   5.409   8.643 -0.2276 -0.0993  0.0668
  877MOL0     C20934  -0.698   6.179   8.259  0.0628 -0.3034  0.7834
  877MOL0     C20935  -0.563   6.220   8.252 -0.6963 -0.3962 -0.5686
  877MOL0     O20936  -0.311   6.162   8.009  0.1074 -0.6136  0.1135
  877MOL0     C20937  -0.045   6.256   8.013  0.7241 -0.5462 -0.1121
  877MOL0     C20938   0.096   6.282   8.032 -0.0741  0.0488 -0.1000
  877MOL0     N20939   0.687   6.097   8.547 -0.1561 -0.4933  0.4700
  877MOL0     N20940   0.724   6.041   8.659  0.2146 -0.6905  0.0761
  877MOL0     C20941   0.380   5.501   8.102  0.3464  0.5082 -0.3182
  877MOL0     C20942   0.298   5.596   8.031 -0.4616 -0.1167  0.5976
  877MOL0     C20943   0.111   5.944   7.845 -0.4946  0.8482 -0.1510
  877MOL0     C20944  -0.028   5.933   7.873  0.4604 -0.2566  1.0698
  877MOL0     C20945  -0.133   6.012   7.798 -0.4389 -0.7297 -0.2106
  877MOL0     C20946  -0.084   6.112   7.711  0.5669 -0.1475 -0.3022
  877MOL0     O20947  -0.164   6.198   7.639 -0.3028 -0.5974 -0.0496
  877MOL0     C20948  -0.303   6.228   7.691 -0.4026  1.2893 -0.8412
  877MOL0     C20949  -0.386   6.320   7.594 -0.3344  0.4680  0.8215
  877MOL0     C20950  -0.537   6.319   7.615 -0.3322  0.0297 -0.4230
  877MOL0     C20951  -0.615   6.431   7.545  0.8213 -1.1164 -0.0703
  877MOL0     C20952  -0.602   6.425   7.402  0.0491 -0.5124  0.0514
  877MOL0     C20953  -0.587   6.429   7.282 -0.8268  0.0419 -0.6156
  877MOL0     C20954   0.055   6.123   7.685  0.7373 -0.9035  0.3509
  877MOL0     C20955   0.153   6.044   7.746 -0.0670  0.7247  0.1855
  877MOL0     C20956   0.291   6.073   7.701  0.1100 -0.3837  0.5955
  877MOL0     H20957   0.216   5.790   8.288  1.6652  1.6708 -0.3733
  877MOL0     H20958   0.381   5.671   8.394 -0.9879 -1.9440  0.1877
  877MOL0     H20959   0.683   5.489   8.249  0.7981  0.4262  2.0112
  877MOL0     H20960   0.603   5.339   8.203  0.5844 -0.4396 -0.3698
  877MOL0     H20961   0.612   5.276   8.454  0.1135  1.2332  0.7573
  877MOL0     H20962   0.768   5.290   8.364  2.3756  1.5325  0.5903
  877MOL0     H20963   0.824   5.502   8.457  1.6631 -1.0334  2.7138
  877MOL0     H20964   0.658   5.521   8.530  0.7233  0.3837  1.2615
  877MOL0     H20965   0.715   5.337   8.681  1.4658 -3.2188  1.0922
  877MOL0     H20966   0.860   5.306   8.592 -1.5566 -2.0265  1.3162
  877MOL0     H20967   0.963   5.514   8.665 -0.7238 -0.4809 -1.2694
  877MOL0     H20968   0.919   5.430   8.810 -3.8888 -0.3474  2.2371
  877MOL0     H20969   0.705   5.564   8.820 -1.8484  3.8850  0.7118
  877MOL0     H20970   0.867   5.643   8.849  2.7903  0.9058 -2.2999
  877MOL0     H20971   0.726   5.682   8.589 -1.6836  0.2966  0.4314
  877MOL0     H20972   0.879   5.753   8.658  0.1883  0.9635  3.3078
  877MOL0     H20973   0.622   5.785   8.822  1.8781  1.4674  2.4839
  877MOL0     H20974   0.782   5.850   8.835  0.1378 -1.4222 -0.0747
  877MOL0     H20975   0.539   5.807   8.528  0.5863 -0.8188  1.9219
  877MOL0     H20976   0.575   5.968   8.280 -1.4516 -1.7403  0.6892
  877MOL0     H20977   0.603   6.139   8.320  1.3285 -1.5665 -1.6757
  877MOL0     H20978   0.359   5.967   8.380 -0.9631  1.3204  1.6166
  877MOL0     H20979   0.357   6.140   8.394 -1.5288 -1.8268  0.5478
  877MOL0     H20980   0.387   5.974   8.138 -1.8209 -0.5867 -0.8533
  877MOL0     H20981   0.231   6.029   8.197  0.4407 -2.7108  4.3732
  877MOL0     H20982   0.477   6.213   8.109 -0.0034  0.3948 -1.7677
  877MOL0     H20983   0.333   6.168   8.019 -0.4421  0.9629  0.3344
  877MOL0     H20984   0.120   6.264   8.365 -1.2579  0.5875  0.2553
  877MOL0     H20985  -0.108   6.208   8.470 -3.5252  0.7114  0.6661
  877MOL0     H20986  -0.221   6.144   8.352  1.6409 -1.7029  0.3566
  877MOL0     H20987  -0.211   6.318   8.403  1.6828 -0.1054  2.2106
  877MOL0     H20988  -0.555   6.398   7.969  2.0085 -0.5681  0.5931
  877MOL0     H20989  -0.782   6.303   7.940  1.1977  4.4046 -0.3297
  877MOL0     H20990  -0.926   5.994   8.253 -0.0364  0.6885  0.9900
  877MOL0     H20991  -0.959   6.134   8.357 -0.8561 -1.0877  0.9661
  877MOL0     H20992  -1.173   6.171   8.242 -0.0589 -0.1722 -2.1822
  877MOL0     H20993  -1.141   6.017   8.144 -1.2985  0.4958 -0.8034
  877MOL0     H20994  -1.288   5.980   8.329  0.1305  3.2215  0.2186
  877MOL0     H20995  -1.155   6.029   8.436 -3.1131 -0.0561  0.7212
  877MOL0     H20996  -1.018   5.846   8.380  1.2596 -0.1715 -2.3204
  877MOL0     H20997  -1.108   5.790   8.249  0.8118 -1.3558  0.8345
  877MOL0     H20998  -1.225   5.803   8.533 -1.3955  1.7648 -1.9646
  877MOL0     H20999  -1.290   5.723   8.393 -0.3803 -3.4585  0.2404
  877MOL0     H21000  -1.019   5.651   8.524  0.4736 -0.8044  0.5886
  877MOL0     H21001  -1.086   5.572   8.381  2.0511  2.2555  0.4141
  877MOL0     H21002  -1.308   5.537   8.532 -0.7061 -2.2511  2.5355
  877MOL0     H21003  -1.221   5.582   8.667 -1.2996  1.4755 -0.7548
  877MOL0     H21004  -1.130   5.350   8.473 -0.0470  0.8199 -0.3952
  877MOL0     H21005  -1.208   5.345   8.632 -0.4034 -0.0339 -0.1456
  877MOL0     H21006  -0.735   6.135   8.351 -0.2603 -0.8669  0.3929
  877MOL0     H21007  -0.491   6.194   8.329 -0.9315  2.0346  0.5991
  877MOL0     H21008  -0.090   6.274   7.916  1.7027  0.5076 -0.3959
  877MOL0     H21009   0.160   6.290   7.945  0.2936 -0.6551  0.0993
  877MOL0     H21010   0.423   5.416   8.051 -0.1317 -0.6027  1.0754
  877MOL0     H21011   0.267   5.596   7.927 -0.2555 -3.4211  0.4129
  877MOL0     H21012  -0.068   5.867   7.950 -0.0828  1.5703  2.4057
  877MOL0     H21013  -0.235   5.994   7.829 -0.1874 -0.3052  0.9146
  877MOL0     H21014  -0.366   6.139   7.699  0.7020  0.6641  2.2595
  877MOL0     H21015  -0.286   6.276   7.788  0.9618 -1.1645  0.2243
  877MOL0     H21016  -0.366   6.286   7.492 -0.8862  2.3334  0.0325
  877MOL0     H21017  -0.351   6.424   7.595 -0.4864  0.5776 -1.1689
  877MOL0     H21018  -0.563   6.215   7.594 -2.2112  0.4864 -0.6111
  877MOL0     H21019  -0.545   6.338   7.723  1.4440  1.1383 -0.4573
  877MOL0     H21020  -0.559   6.522   7.568  1.3709 -1.4735  0.0094
  877MOL0     H21021  -0.720   6.430   7.577  0.0593 -0.8603 -2.3695
  877MOL0     H21022  -0.589   6.452   7.177 -0.1543  0.6246 -0.5094
  877MOL0     H21023   0.074   6.199   7.609  2.0157 -0.9144  0.6367
  877MOL0     H21024   0.360   6.091   7.784 -1.3598  1.8248  1.4334
  877MOL0     H21025   0.333   6.001   7.630  2.0996  1.7361 -0.5162
  877MOL0     H21026   0.286   6.169   7.648  1.6379 -0.4150  0.3393
  878MOL0     O21027   4.202   5.406   3.264 -0.0452 -0.1257  0.1009
  878MOL0     C21028   4.239   5.497   3.187 -0.4480 -0.5500  0.0312
  878MOL0     O21029   4.282   5.473   3.054  0.2384  0.2065 -0.2136
  878MOL0     C21030   4.336   5.352   3.022 -0.4195 -0.1162 -0.3989
  878MOL0     C21031   4.304   5.286   2.904 -0.0723  0.2407  0.7342
  878MOL0     C21032   4.353   5.163   2.860  0.2677 -0.2439 -1.1630
  878MOL0     C21033   4.445   5.103   2.946 -0.1957  0.5049  0.3703
  878MOL0     O21034   4.508   4.983   2.921 -0.5451 -0.7913  0.4080
  878MOL0     C21035   4.450   4.870   2.853  0.3244 -1.0343  0.8673
  878MOL0     C21036   4.521   4.827   2.725 -1.2390  0.6381  0.7485
  878MOL0     C21037   4.675   4.809   2.740 -0.0310 -0.5631  0.1479
  878MOL0     C21038   4.743   4.760   2.614 -0.8760 -0.2380 -0.4871
  878MOL0     C21039   4.833   4.643   2.655 -0.4905  0.6553  0.2022
  878MOL0     C21040   4.766   4.509   2.690  0.3102 -0.1541 -0.3787
  878MOL0     C21041   4.654   4.452   2.606 -0.0890 -0.3942 -0.5674
  878MOL0     C21042   4.633   4.306   2.634 -0.2696  0.1599  0.1094
  878MOL0     N21043   4.511   4.259   2.567 -0.5581 -1.0715  0.5949
  878MOL0     C21044   4.405   4.221   2.651 -0.3532 -1.4724 -0.8627
  878MOL0     C21045   4.315   4.161   2.574 -0.5116  0.9204  0.5600
  878MOL0     C21046   4.204   4.079   2.634  0.2910  0.6159  0.8385
  878MOL0     C21047   4.226   3.925   2.623 -0.2509 -0.2518 -0.4566
  878MOL0     C21048   4.184   3.865   2.481  0.5961 -0.2180  0.1651
  878MOL0     C21049   4.028   3.862   2.488  0.2026 -0.1458  1.4352
  878MOL0     O21050   4.001   3.729   2.432 -0.0757 -0.4369 -0.7151
  878MOL0     C21051   3.874   3.686   2.396  0.2160 -1.3610 -1.3960
  878MOL0     C21052   3.864   3.566   2.331 -0.7665 -0.6157  0.4327
  878MOL0     C21053   3.743   3.524   2.269  0.0324  0.0656 -0.6393
  878MOL0     C21054   3.749   3.398   2.183  0.4770  0.1248 -0.0378
  878MOL0     C21055   3.623   3.601   2.292  0.7848 -0.4912 -0.6126
  878MOL0     C21056   3.485   3.568   2.235 -0.7451 -0.9121  0.6300
  878MOL0     O21057   3.462   3.466   2.151  0.4353  1.0566  0.3052
  878MOL0     C21058   3.332   3.427   2.146 -0.1290 -0.0015  0.0695
  878MOL0     C21059   3.252   3.500   2.063  1.3245  0.1064 -0.2947
  878MOL0     C21060   3.119   3.478   2.045 -0.7237  0.4915  0.9247
  878MOL0     C21061   3.056   3.368   2.115 -0.2770 -0.0674  0.2629
  878MOL0     O21062   2.920   3.342   2.117 -0.5517  0.1222 -0.5072
  878MOL0     C21063   2.844   3.462   2.141  0.7279  0.0181 -0.6714
  878MOL0     C21064   2.713   3.429   2.223  0.3375 -0.0455 -0.2749
  878MOL0     C21065   2.620   3.335   2.160  0.1040  0.3033  1.0971
  878MOL0     C21066   2.474   3.312   2.229 -0.0742  0.0624 -0.7180
  878MOL0     C21067   2.396   3.210   2.149  0.2172 -0.3805 -0.1516
  878MOL0     C21068   2.255   3.180   2.208 -0.1378 -0.1846  0.2585
  878MOL0     C21069   2.169   3.077   2.129  0.1430  0.5771 -0.2659
  878MOL0     C21070   2.016   3.121   2.128  0.0926 -0.0727  1.0543
  878MOL0    Cl21071   1.948   3.093   2.283 -0.6086 -0.3540 -0.5742
  878MOL0     C21072   3.134   3.295   2.206  0.1773 -0.5651 -0.3511
  878MOL0     C21073   3.271   3.324   2.211 -0.2773 -0.0887 -0.6592
  878MOL0     O21074   3.398   3.649   2.278  0.3656  0.3821 -0.2486
  878MOL0     C21075   3.639   3.713   2.375  0.6175 -0.5325  0.5757
  878MOL0     C21076   3.765   3.761   2.416 -0.2677 -0.5781  0.4610
  878MOL0     N21077   4.364   4.156   2.445 -0.1992 -0.1107 -0.4547
  878MOL0     N21078   4.470   4.229   2.442  0.5109  0.5919 -0.2884
  878MOL0     C21079   4.496   5.165   3.067 -0.0445  0.9512 -0.4549
  878MOL0     C21080   4.437   5.285   3.104  0.9391  0.1980  0.2721
  878MOL0     C21081   4.278   5.619   3.251  0.3691 -0.1247  0.0925
  878MOL0     C21082   4.357   5.706   3.174  0.0491 -0.0389  0.9860
  878MOL0     C21083   4.369   5.842   3.210 -1.0322 -0.7420 -0.0309
  878MOL0     C21084   4.318   5.886   3.329 -0.5683 -0.2002 -0.3777
  878MOL0     O21085   4.337   6.018   3.360 -0.3218  0.4626 -0.0264
  878MOL0     C21086   4.212   6.091   3.400 -0.1583 -0.5036 -0.2119
  878MOL0     C21087   4.129   6.118   3.268  0.3815  0.2900 -0.6255
  878MOL0     C21088   4.216   6.194   3.167  0.7176 -0.5609 -0.1787
  878MOL0     C21089   4.132   6.282   3.069 -0.0654 -0.4847  0.2343
  878MOL0     C21090   4.102   6.202   2.953 -0.4050 -0.3673  0.2533
  878MOL0     C21091   4.049   6.144   2.860  0.1572 -0.6171  0.6317
  878MOL0     C21092   4.244   5.805   3.409  0.1798 -0.3987 -0.2890
  878MOL0     C21093   4.218   5.674   3.377 -0.1673  0.8127  1.3354
  878MOL0     C21094   4.118   5.602   3.471 -0.2494  0.3390  0.1552
  878MOL0     H21095   4.233   5.341   2.842 -1.9067  0.3001  2.7834
  878MOL0     H21096   4.304   5.111   2.778 -3.0250  1.5329 -0.4714
  878MOL0     H21097   4.344   4.884   2.832  0.2890 -0.1180  1.6338
  878MOL0     H21098   4.455   4.781   2.917  4.2373 -1.8692 -0.3040
  878MOL0     H21099   4.483   4.733   2.686 -1.0580  0.4824  0.9476
  878MOL0     H21100   4.500   4.905   2.652 -1.1835  1.1076  1.2247
  878MOL0     H21101   4.719   4.903   2.773 -1.4585  0.8502 -1.7717
  878MOL0     H21102   4.689   4.745   2.828 -3.6077 -1.2624  0.3729
  878MOL0     H21103   4.672   4.737   2.534 -0.6251  2.1175 -1.4799
  878MOL0     H21104   4.803   4.845   2.581  0.4043 -0.5979  0.8269
  878MOL0     H21105   4.905   4.676   2.731 -0.1540  3.1148 -1.1024
  878MOL0     H21106   4.894   4.622   2.567 -1.2064 -0.9707  0.0641
  878MOL0     H21107   4.837   4.426   2.691 -0.8271 -1.2036  1.9746
  878MOL0     H21108   4.738   4.523   2.795  1.4646  4.2807 -0.4736
  878MOL0     H21109   4.681   4.467   2.501  2.3532  0.4695  0.1211
  878MOL0     H21110   4.560   4.507   2.615  0.0655 -0.3671  1.0534
  878MOL0     H21111   4.710   4.249   2.581  1.4459  4.3515 -2.4092
  878MOL0     H21112   4.648   4.288   2.741  0.9235  5.2755  1.0620
  878MOL0     H21113   4.400   4.235   2.759  1.1468 -0.6937 -0.8665
  878MOL0     H21114   4.108   4.111   2.593 -0.2507 -1.1258  0.6937
  878MOL0     H21115   4.200   4.101   2.741  0.3919 -1.1492  1.2292
  878MOL0     H21116   4.333   3.914   2.642  0.0311 -2.3800 -2.7088
  878MOL0     H21117   4.168   3.876   2.702  0.2361  1.5142  1.0548
  878MOL0     H21118   4.223   3.922   2.396  0.9503  0.1104  0.5480
  878MOL0     H21119   4.216   3.763   2.456 -3.0360 -0.8887 -2.6176
  878MOL0     H21120   3.987   3.873   2.588 -0.4408 -1.9363  1.3906
  878MOL0     H21121   3.985   3.941   2.426 -1.5852 -2.5599 -0.5956
  878MOL0     H21122   3.954   3.512   2.300 -0.5596  0.5578 -1.1978
  878MOL0     H21123   3.753   3.419   2.075  1.3104  0.7957  0.1105
  878MOL0     H21124   3.669   3.327   2.205  0.8615 -0.5768 -0.8352
  878MOL0     H21125   3.845   3.349   2.199 -0.6442 -1.9909  0.4968
  878MOL0     H21126   3.295   3.582   2.007  3.4136  0.3044  1.4387
  878MOL0     H21127   3.054   3.537   1.982 -1.2178  2.1577  2.9120
  878MOL0     H21128   2.903   3.532   2.202  0.0215  0.1325 -0.1104
  878MOL0     H21129   2.827   3.517   2.048 -3.6258  0.1806  0.0392
  878MOL0     H21130   2.746   3.383   2.317  2.0961  1.3790 -0.1529
  878MOL0     H21131   2.653   3.516   2.252 -0.9856 -0.8665 -0.4318
  878MOL0     H21132   2.667   3.237   2.152 -0.7337 -0.2599  2.6372
  878MOL0     H21133   2.596   3.365   2.057 -2.3482 -1.9775  0.8879
  878MOL0     H21134   2.421   3.408   2.229  0.0909  0.1605  0.1760
  878MOL0     H21135   2.501   3.278   2.329  2.4643  2.8981 -0.2792
  878MOL0     H21136   2.367   3.258   2.055 -0.4393  2.4897  1.3972
  878MOL0     H21137   2.465   3.125   2.141  2.4080  1.0337  2.2917
  878MOL0     H21138   2.204   3.274   2.229 -0.7301 -0.2844 -0.6650
  878MOL0     H21139   2.271   3.141   2.309 -1.4323 -1.6380 -0.0462
  878MOL0     H21140   2.181   2.976   2.170  0.0220  1.5667  2.3950
  878MOL0     H21141   2.213   3.075   2.029  0.8785  1.6226  0.0221
  878MOL0     H21142   1.952   3.076   2.052  1.1382 -0.6026  0.4581
  878MOL0     H21143   2.010   3.227   2.101 -0.7723  0.1357  2.0208
  878MOL0     H21144   3.081   3.226   2.270  0.2621  0.1489  0.5029
  878MOL0     H21145   3.331   3.259   2.273  0.5470  2.8388  1.8695
  878MOL0     H21146   3.548   3.772   2.380 -0.0208 -1.3964 -0.4485
  878MOL0     H21147   3.775   3.863   2.451  0.8002  0.6073 -2.8923
  878MOL0     H21148   4.566   5.125   3.139 -3.6412 -0.8604  2.3458
  878MOL0     H21149   4.479   5.335   3.190  0.6680  0.1687  0.4232
  878MOL0     H21150   4.400   5.685   3.077 -2.6030  1.5695 -0.6283
  878MOL0     H21151   4.424   5.920   3.158 -1.8477 -0.8018 -1.0246
  878MOL0     H21152   4.146   6.033   3.465 -1.7681 -0.3063 -1.5879
  878MOL0     H21153   4.239   6.179   3.458  0.9966 -1.3941  0.6629
  878MOL0     H21154   4.046   6.182   3.298 -0.3640 -1.9091  2.4495
  878MOL0     H21155   4.103   6.022   3.222 -3.6164  0.2357  1.4022
  878MOL0     H21156   4.275   6.266   3.225  3.4886 -4.0474  1.7472
  878MOL0     H21157   4.291   6.131   3.119  0.5046 -2.1010  1.4133
  878MOL0     H21158   4.180   6.374   3.034 -3.2381  0.4909 -1.9769
  878MOL0     H21159   4.037   6.301   3.119 -0.2002 -0.3788 -0.0659
  878MOL0     H21160   4.006   6.104   2.771  2.5076  2.6127 -2.2351
  878MOL0     H21161   4.208   5.849   3.502 -0.1545 -0.6938 -0.2751
  878MOL0     H21162   4.045   5.541   3.418  1.1569 -0.2004 -1.2498
  878MOL0     H21163   4.160   5.525   3.537 -2.0692 -1.9785 -1.2247
  878MOL0     H21164   4.066   5.675   3.533 -2.1896 -0.2744 -0.6798
  879MOL0     O21165   7.879   7.058  10.425  0.0133 -0.5204  0.6415
  879MOL0     C21166   7.845   7.119  10.318  0.1592  1.2553 -0.7065
  879MOL0     O21167   7.879   7.245  10.278 -0.2191 -0.0790  0.2668
  879MOL0     C21168   7.965   7.312  10.355  0.5888  0.1889 -0.5244
  879MOL0     C21169   7.920   7.426  10.428  0.0557  0.9052  0.3551
  879MOL0     C21170   8.016   7.481  10.514 -0.2977 -0.8651 -0.1386
  879MOL0     C21171   8.146   7.432  10.527 -0.1281 -0.3251 -0.1947
  879MOL0     O21172   8.243   7.491  10.601 -0.5149 -0.2650  0.4799
  879MOL0     C21173   8.236   7.629  10.637 -0.1702  0.6210 -0.0078
  879MOL0     C21174   8.344   7.645  10.740 -0.1475 -0.8627 -0.2868
  879MOL0     C21175   8.394   7.796  10.748 -0.7581  0.1133 -0.0178
  879MOL0     C21176   8.480   7.824  10.868  0.0493  0.2826  0.5025
  879MOL0     C21177   8.405   7.818  10.998  0.0472 -0.6321  0.5390
  879MOL0     C21178   8.488   7.802  11.128 -0.0086 -0.7195 -0.1015
  879MOL0     C21179   8.412   7.828  11.266  0.8876  0.1428  0.5074
  879MOL0     C21180   8.318   7.705  11.308 -0.1262 -0.1120  0.4186
  879MOL0     N21181   8.224   7.763  11.408  0.2719  0.0757  0.1813
  879MOL0     C21182   8.091   7.782  11.389 -0.1755 -0.1889  0.1987
  879MOL0     C21183   8.031   7.834  11.506 -0.1240  0.9707  0.5868
  879MOL0     C21184   7.884   7.865  11.513  0.4071 -0.1716 -0.3836
  879MOL0     C21185   7.853   7.970  11.400 -0.4730  0.1399  0.4793
  879MOL0     C21186   7.739   8.057  11.443 -0.6691  0.4059  0.3075
  879MOL0     C21187   7.690   8.150  11.328  1.0658  0.0655 -0.5566
  879MOL0     O21188   7.796   8.243  11.307 -0.3195  0.8596 -0.5304
  879MOL0     C21189   7.814   8.316  11.192 -0.1435 -0.0037 -0.1938
  879MOL0     C21190   7.889   8.426  11.214 -0.4365 -0.1235 -0.3847
  879MOL0     C21191   7.903   8.524  11.117 -0.5161 -0.0724  0.9533
  879MOL0     C21192   7.992   8.639  11.148 -0.5088 -0.0613 -0.1225
  879MOL0     C21193   7.840   8.505  10.990  0.2657 -0.3585  0.4733
  879MOL0     C21194   7.858   8.596  10.874 -0.5068  0.6744 -0.2756
  879MOL0     O21195   7.974   8.665  10.874 -0.0611  0.6680 -0.3384
  879MOL0     C21196   8.000   8.744  10.765  0.7703 -0.4849 -0.0330
  879MOL0     C21197   7.946   8.868  10.742  0.3035 -0.1762 -0.1904
  879MOL0     C21198   7.992   8.940  10.636 -0.6643 -0.8700  0.6337
  879MOL0     C21199   8.070   8.892  10.532 -0.7752 -1.2908 -0.1498
  879MOL0     O21200   8.108   8.974  10.437 -0.7273 -0.6503  0.4838
  879MOL0     C21201   8.234   8.954  10.363  0.7784 -0.2401 -0.2723
  879MOL0     C21202   8.358   8.992  10.447  0.9415  0.1675  0.5858
  879MOL0     C21203   8.398   9.142  10.445  0.4703 -0.3290  0.2551
  879MOL0     C21204   8.438   9.205  10.310 -0.4674 -0.2298 -0.3589
  879MOL0     C21205   8.473   9.359  10.336  0.0298  0.0918 -0.5558
  879MOL0     C21206   8.577   9.405  10.225 -0.7610 -0.4162  0.4057
  879MOL0     C21207   8.519   9.394  10.084  0.0002  0.1427 -0.4556
  879MOL0     C21208   8.601   9.457   9.976 -0.8572  0.5639 -0.4936
  879MOL0    Cl21209   8.734   9.349   9.917  0.1708 -0.1970 -0.6456
  879MOL0     C21210   8.112   8.759  10.550  0.2388  0.2452 -0.6606
  879MOL0     C21211   8.077   8.691  10.665  0.4711 -0.2237  0.2278
  879MOL0     O21212   7.771   8.594  10.790  0.5048 -0.7121  0.1716
  879MOL0     C21213   7.754   8.390  10.977  0.3096  0.0709  0.0977
  879MOL0     C21214   7.747   8.291  11.075  0.5573 -0.4079  0.0326
  879MOL0     N21215   8.138   7.839  11.597 -1.0877 -0.1684 -0.0509
  879MOL0     N21216   8.254   7.802  11.537  0.8484  0.1393 -0.0105
  879MOL0     C21217   8.185   7.322  10.460 -0.0105 -1.2040 -0.1403
  879MOL0     C21218   8.095   7.265  10.373  0.0260 -0.3893 -0.2753
  879MOL0     C21219   7.745   7.048  10.231 -0.4470 -0.3002 -0.3529
  879MOL0     C21220   7.752   6.905  10.220  0.2944  0.7205  0.2739
  879MOL0     C21221   7.661   6.835  10.135 -0.7700  0.8944  0.6273
  879MOL0     C21222   7.559   6.898  10.056  0.3395  0.2108 -0.7076
  879MOL0     O21223   7.506   6.828   9.950  0.6207 -0.7033  0.6111
  879MOL0     C21224   7.380   6.764   9.988 -0.7551 -0.6321 -0.1267
  879MOL0     C21225   7.396   6.618   9.989 -0.2714 -0.0611  0.7924
  879MOL0     C21226   7.413   6.574   9.844  0.2355 -1.1242  0.9018
  879MOL0     C21227   7.268   6.551   9.784 -0.0161  0.0443 -0.2399
  879MOL0     C21228   7.269   6.468   9.669  0.6952 -0.5921  0.0974
  879MOL0     C21229   7.264   6.405   9.569 -0.2878  0.0841 -0.2967
  879MOL0     C21230   7.548   7.038  10.080  1.0004 -0.1562  0.2271
  879MOL0     C21231   7.636   7.116  10.170  1.0237 -1.0066 -0.4598
  879MOL0     C21232   7.597   7.262  10.202 -0.7942  0.1391 -0.4984
  879MOL0     H21233   7.823   7.474  10.417 -0.6847 -0.4359  0.8589
  879MOL0     H21234   7.985   7.565  10.575 -2.4819  0.7352 -3.2034
  879MOL0     H21235   8.143   7.655  10.687  1.6778  2.2892  2.9026
  879MOL0     H21236   8.258   7.689  10.548 -1.5482 -1.0271 -1.5282
  879MOL0     H21237   8.312   7.605  10.837  2.9882  0.5634  1.5047
  879MOL0     H21238   8.427   7.584  10.704  0.5608 -1.0079  1.4637
  879MOL0     H21239   8.449   7.821  10.657 -0.2191 -0.5182  0.1261
  879MOL0     H21240   8.307   7.863  10.752 -1.9208 -1.2619 -1.1060
  879MOL0     H21241   8.569   7.761  10.856 -0.0885  0.4145 -1.5753
  879MOL0     H21242   8.533   7.919  10.856  2.2441 -0.8269  0.8878
  879MOL0     H21243   8.329   7.740  10.993  0.9362 -1.7513  2.7364
  879MOL0     H21244   8.347   7.911  11.000  1.8656  0.5520  0.9904
  879MOL0     H21245   8.546   7.710  11.135  1.0670  0.0433  1.6174
  879MOL0     H21246   8.563   7.882  11.134 -0.1219 -0.6295  0.1295
  879MOL0     H21247   8.357   7.922  11.263 -3.4976 -2.1726 -1.1291
  879MOL0     H21248   8.488   7.833  11.344 -0.8269 -0.1802  2.2684
  879MOL0     H21249   8.258   7.662  11.227 -0.7837 -0.2353  0.9614
  879MOL0     H21250   8.385   7.634  11.356  4.1960  2.8194 -0.6696
  879MOL0     H21251   8.041   7.751  11.297 -0.4778  2.3513 -0.5693
  879MOL0     H21252   7.854   7.914  11.606  0.7049  1.3528 -1.0619
  879MOL0     H21253   7.820   7.777  11.500  1.2398 -0.6339 -1.5277
  879MOL0     H21254   7.934   8.043  11.391 -1.4678  1.4161  1.4515
  879MOL0     H21255   7.839   7.922  11.303 -0.6661  1.4566 -0.1710
  879MOL0     H21256   7.647   8.001  11.463  0.4215 -2.2360 -1.4333
  879MOL0     H21257   7.778   8.117  11.525  3.8368  0.2108 -1.3976
  879MOL0     H21258   7.668   8.094  11.236  2.7978  0.8422 -1.5042
  879MOL0     H21259   7.606   8.209  11.365  1.7835  0.0734  1.1460
  879MOL0     H21260   7.951   8.444  11.301  2.2466  3.1313 -2.6942
  879MOL0     H21261   7.947   8.732  11.111  1.0670  1.1091  0.7805
  879MOL0     H21262   8.094   8.618  11.117  1.0948  4.3777  1.3170
  879MOL0     H21263   7.999   8.661  11.255 -1.1107  3.4854 -0.6547
  879MOL0     H21264   7.885   8.914  10.820  1.2819 -0.0780  0.5381
  879MOL0     H21265   7.963   9.045  10.630  0.4683 -0.5756  0.0440
  879MOL0     H21266   8.242   8.849  10.331  0.6308 -0.0172 -1.0679
  879MOL0     H21267   8.232   9.014  10.272  1.6308 -0.3823 -0.3920
  879MOL0     H21268   8.335   8.970  10.551 -0.1314  1.2781  0.6095
  879MOL0     H21269   8.448   8.942  10.411  1.0829  0.2363  0.8384
  879MOL0     H21270   8.474   9.159  10.521 -0.9489 -2.8658  2.4073
  879MOL0     H21271   8.317   9.209  10.477  1.2403 -0.8544  3.6668
  879MOL0     H21272   8.367   9.194  10.227 -1.4598  2.8500 -0.0512
  879MOL0     H21273   8.532   9.153  10.287 -0.2901 -0.2940  0.4997
  879MOL0     H21274   8.388   9.428  10.341  0.3578  0.5609 -1.1979
  879MOL0     H21275   8.524   9.361  10.433 -0.4662 -3.5561 -0.0819
  879MOL0     H21276   8.669   9.349  10.247 -1.8768 -1.9509  1.4205
  879MOL0     H21277   8.592   9.512  10.241 -1.8135 -0.2786  0.5984
  879MOL0     H21278   8.423   9.445  10.095  0.6606  1.8274 -2.0862
  879MOL0     H21279   8.499   9.288  10.068 -0.2236 -0.1966  1.6754
  879MOL0     H21280   8.658   9.539  10.019  1.6594 -1.7594  0.8624
  879MOL0     H21281   8.548   9.494   9.887  2.3306  0.2287 -2.7104
  879MOL0     H21282   8.167   8.706  10.473 -1.6373 -0.3838 -1.6222
  879MOL0     H21283   8.105   8.586  10.671 -1.7609 -0.9298 -0.8597
  879MOL0     H21284   7.707   8.360  10.884 -1.5757 -0.0236  1.0377
  879MOL0     H21285   7.682   8.205  11.065  1.0934 -0.9153  0.7557
  879MOL0     H21286   8.276   7.267  10.481 -0.8749 -2.5166  0.2378
  879MOL0     H21287   8.124   7.175  10.320 -1.1868 -0.9714  0.0045
  879MOL0     H21288   7.827   6.849  10.275 -3.1402 -1.8978  2.6718
  879MOL0     H21289   7.684   6.729  10.134 -1.8348  0.6447  1.1945
  879MOL0     H21290   7.344   6.802  10.084 -2.3220 -2.0176 -0.1198
  879MOL0     H21291   7.306   6.788   9.912 -3.2588 -2.5154  1.5592
  879MOL0     H21292   7.311   6.568  10.037  0.0369 -1.6323 -0.2535
  879MOL0     H21293   7.484   6.595  10.051  0.0370 -0.6954  0.1339
  879MOL0     H21294   7.460   6.651   9.782 -0.9617  2.1184  3.7025
  879MOL0     H21295   7.462   6.476   9.841 -1.0491 -1.7865  0.6329
  879MOL0     H21296   7.222   6.649   9.766  0.4237 -0.0367 -1.9685
  879MOL0     H21297   7.197   6.504   9.853  0.0850 -0.8763 -0.7462
  879MOL0     H21298   7.252   6.365   9.470 -1.3321  2.0950 -1.0360
  879MOL0     H21299   7.471   7.085  10.020  1.5339 -2.8083 -2.8531
  879MOL0     H21300   7.489   7.270  10.216 -0.9703 -0.3878 -1.4742
  879MOL0     H21301   7.653   7.294  10.291 -2.6386  2.0106  0.0636
  879MOL0     H21302   7.632   7.325  10.119 -2.3159 -0.6165 -1.7648
  880MOL0     O21303   4.163   0.758   8.057  0.3098 -0.5352 -0.2044
  880MOL0     C21304   4.218   0.657   8.101 -0.0540 -0.8096  0.0693
  880MOL0     O21305   4.308   0.660   8.204  0.2481  0.1775 -0.6400
  880MOL0     C21306   4.320   0.761   8.293  0.0767  0.0265  0.0854
  880MOL0     C21307   4.450   0.798   8.332 -0.1129  0.2584 -0.2658
  880MOL0     C21308   4.478   0.891   8.437 -0.8599  0.4677 -0.3899
  880MOL0     C21309   4.372   0.954   8.501  0.0233 -0.4856  0.8482
  880MOL0     O21310   4.407   1.054   8.597 -0.0059  0.2048  0.6340
  880MOL0     C21311   4.461   1.185   8.552  0.5103  0.2457  0.6120
  880MOL0     C21312   4.500   1.271   8.664 -0.5518  0.4548 -0.0871
  880MOL0     C21313   4.642   1.319   8.631 -0.0455 -0.5222 -0.1987
  880MOL0     C21314   4.750   1.242   8.697  0.3603 -0.5381 -0.0509
  880MOL0     C21315   4.891   1.286   8.660 -0.2776  0.2584  0.9936
  880MOL0     C21316   4.998   1.178   8.658  0.0338 -0.6034  0.8326
  880MOL0     C21317   4.972   1.067   8.551 -0.4730 -0.3268 -0.0127
  880MOL0     C21318   5.077   0.958   8.554  0.2149 -0.2383 -0.8226
  880MOL0     N21319   5.206   1.018   8.516  0.7934 -0.5428 -0.1794
  880MOL0     C21320   5.238   1.035   8.386 -0.9897 -0.0650  0.0475
  880MOL0     C21321   5.367   1.081   8.395 -0.7879 -0.1218 -0.3534
  880MOL0     C21322   5.455   1.118   8.273  0.4681  0.0403 -0.1294
  880MOL0     C21323   5.463   1.004   8.172  0.5239  0.6399  0.0851
  880MOL0     C21324   5.604   0.994   8.107  0.8766  1.0765  0.3621
  880MOL0     C21325   5.605   0.903   7.982  0.4253  0.5401  0.1932
  880MOL0     O21326   5.653   0.985   7.874  0.4978  0.3523 -0.7073
  880MOL0     C21327   5.780   0.966   7.835 -0.5415  0.1870  0.1499
  880MOL0     C21328   5.823   1.030   7.725 -0.5197 -0.2917  1.4775
  880MOL0     C21329   5.954   1.028   7.675 -0.7893 -0.3603  0.6373
  880MOL0     C21330   5.972   1.075   7.537 -0.2454 -0.5823  0.2249
  880MOL0     C21331   6.051   0.963   7.751 -0.0371  0.9298  0.2845
  880MOL0     C21332   6.192   0.930   7.712 -0.1236 -0.0664  0.1277
  880MOL0     O21333   6.256   0.841   7.805 -0.0161  0.4983  0.4619
  880MOL0     C21334   6.390   0.840   7.808  0.2979 -0.7834 -0.5419
  880MOL0     C21335   6.473   0.815   7.699  0.4620  0.4266  0.0927
  880MOL0     C21336   6.611   0.785   7.704 -0.2021 -0.7989 -1.1462
  880MOL0     C21337   6.663   0.783   7.837 -0.5678 -0.1903 -0.8175
  880MOL0     O21338   6.795   0.751   7.840  0.1422  0.4889 -0.3204
  880MOL0     C21339   6.880   0.810   7.944 -0.2032 -0.6345 -0.2485
  880MOL0     C21340   6.939   0.719   8.047  0.5201 -0.7290  0.9399
  880MOL0     C21341   7.037   0.610   7.997  0.5633 -0.7459  0.3299
  880MOL0     C21342   7.064   0.519   8.114  0.9377  0.8840  1.0236
  880MOL0     C21343   7.154   0.408   8.075 -0.5001 -0.5364 -0.6950
  880MOL0     C21344   7.202   0.324   8.192  0.1818 -0.6843 -0.4798
  880MOL0     C21345   7.304   0.213   8.149 -0.5194  0.2187 -0.5571
  880MOL0     C21346   7.421   0.256   8.061 -0.2603  1.0002  0.2111
  880MOL0    Cl21347   7.536   0.130   8.057 -0.2837 -0.7127 -0.6234
  880MOL0     C21348   6.584   0.813   7.951  0.5489  0.1608  0.2967
  880MOL0     C21349   6.448   0.833   7.934 -0.2040  0.0970  0.2806
  880MOL0     O21350   6.244   0.988   7.618  0.9533 -0.0237 -0.6165
  880MOL0     C21351   6.008   0.908   7.881  0.9199  0.1402 -0.3858
  880MOL0     C21352   5.873   0.915   7.922 -0.8307  0.3212 -0.3667
  880MOL0     N21353   5.409   1.073   8.524 -0.8601 -0.2752 -0.1822
  880MOL0     N21354   5.311   1.045   8.598 -0.6836  0.1053 -0.3700
  880MOL0     C21355   4.237   0.911   8.469  0.1772  2.0033 -0.2091
  880MOL0     C21356   4.213   0.810   8.364 -0.3311 -0.1326 -0.2838
  880MOL0     C21357   4.173   0.528   8.041 -0.0008 -0.6450 -0.3951
  880MOL0     C21358   4.108   0.527   7.916 -0.4647 -0.4587 -0.4604
  880MOL0     C21359   4.050   0.404   7.874 -0.3159 -0.9018  0.0630
  880MOL0     C21360   4.071   0.287   7.943  0.6807 -0.8215  0.2219
  880MOL0     O21361   4.009   0.180   7.887 -0.4927  0.5173 -0.1287
  880MOL0     C21362   4.014   0.056   7.956  1.0245  0.3351  0.3374
  880MOL0     C21363   3.898  -0.013   7.884 -1.2086  0.0954  0.2138
  880MOL0     C21364   3.916  -0.164   7.921  0.5818  0.2462 -0.3671
  880MOL0     C21365   3.809  -0.250   7.862 -0.3507 -0.3952 -0.1204
  880MOL0     C21366   3.772  -0.221   7.727  0.8138  0.3398 -0.5555
  880MOL0     C21367   3.732  -0.221   7.612  0.0694  0.0593  0.5458
  880MOL0     C21368   4.138   0.291   8.061  0.0749  0.0323 -0.7797
  880MOL0     C21369   4.181   0.412   8.113 -0.1062  0.2187  0.3115
  880MOL0     C21370   4.252   0.390   8.255 -0.0486 -0.3733 -0.0450
  880MOL0     H21371   4.528   0.736   8.289  0.7261  0.4323  0.9721
  880MOL0     H21372   4.576   0.919   8.474 -0.6098 -0.5641 -0.2503
  880MOL0     H21373   4.380   1.232   8.495  0.5943 -0.8959 -0.4965
  880MOL0     H21374   4.541   1.168   8.479 -0.6332 -1.7705 -0.2714
  880MOL0     H21375   4.432   1.356   8.660 -1.0347  0.1110  0.6631
  880MOL0     H21376   4.494   1.209   8.754  1.1078 -1.9451 -1.4913
  880MOL0     H21377   4.660   1.337   8.525  0.3287  2.7426  0.3158
  880MOL0     H21378   4.644   1.420   8.672  1.7231 -0.2175 -0.9451
  880MOL0     H21379   4.740   1.251   8.806  0.5211 -0.8941 -0.0042
  880MOL0     H21380   4.731   1.143   8.657 -1.6433  0.0023 -0.5393
  880MOL0     H21381   4.930   1.367   8.721  0.5569  2.7720 -2.5267
  880MOL0     H21382   4.892   1.324   8.557 -0.4133  1.7326  1.5073
  880MOL0     H21383   5.095   1.225   8.640  0.3184  0.4691  4.3376
  880MOL0     H21384   4.993   1.127   8.755 -3.5076 -2.0385  0.0214
  880MOL0     H21385   4.962   1.112   8.452 -2.8676  0.5590  0.5529
  880MOL0     H21386   4.879   1.019   8.582 -1.3627  1.9710  1.1380
  880MOL0     H21387   5.090   0.923   8.657  1.0187 -1.6133 -1.3455
  880MOL0     H21388   5.053   0.865   8.501 -0.6209 -0.3090 -0.3341
  880MOL0     H21389   5.171   1.031   8.300 -2.2616 -2.2797  1.0572
  880MOL0     H21390   5.555   1.146   8.307  0.2440 -0.6976  1.1974
  880MOL0     H21391   5.428   1.206   8.213 -2.0289 -0.7287 -0.2585
  880MOL0     H21392   5.440   0.913   8.229  1.1362  2.0215  2.6652
  880MOL0     H21393   5.386   1.015   8.095  0.4437  0.1701  0.0899
  880MOL0     H21394   5.620   1.097   8.073 -0.1856  0.4586 -2.2597
  880MOL0     H21395   5.693   0.974   8.166 -0.1760  1.7661  2.2681
  880MOL0     H21396   5.653   0.806   7.998  1.6310  0.6691 -2.2363
  880MOL0     H21397   5.501   0.883   7.955 -0.6263  0.5509  3.7033
  880MOL0     H21398   5.749   1.074   7.660  1.5379  1.7391  0.3381
  880MOL0     H21399   6.043   1.006   7.490  1.6536  1.5198 -0.1716
  880MOL0     H21400   6.026   1.170   7.534  1.1171 -1.3282  0.6584
  880MOL0     H21401   5.883   1.074   7.473 -0.2956  0.3720  0.2631
  880MOL0     H21402   6.424   0.819   7.602 -0.7289  1.8709  0.7067
  880MOL0     H21403   6.666   0.779   7.611 -3.0924  1.3506 -3.1910
  880MOL0     H21404   6.974   0.845   7.901  0.1895  0.4474  1.3851
  880MOL0     H21405   6.837   0.897   7.993  1.1844 -1.4485  2.6041
  880MOL0     H21406   6.999   0.784   8.113 -1.0790  1.4153  0.3780
  880MOL0     H21407   6.855   0.685   8.109  2.8936 -6.0592  1.7988
  880MOL0     H21408   7.134   0.649   7.966  0.7741 -1.4804  0.0591
  880MOL0     H21409   6.995   0.548   7.918 -0.4196 -0.2316  0.4208
  880MOL0     H21410   6.972   0.479   8.156  0.2838  0.4119 -0.7697
  880MOL0     H21411   7.102   0.576   8.199 -1.5638  3.1424  0.7641
  880MOL0     H21412   7.103   0.344   8.003 -2.9053  1.8686 -1.2642
  880MOL0     H21413   7.244   0.447   8.026  0.7647 -0.6926  1.3589
  880MOL0     H21414   7.117   0.277   8.243  1.7328 -0.5707  2.4292
  880MOL0     H21415   7.252   0.382   8.270 -2.4394  1.4033 -0.2101
  880MOL0     H21416   7.249   0.129   8.104  1.2923 -2.3709  1.7138
  880MOL0     H21417   7.342   0.168   8.241 -1.4083  0.6054  0.0207
  880MOL0     H21418   7.463   0.353   8.092  2.9141 -0.0998 -0.2934
  880MOL0     H21419   7.387   0.272   7.959  0.0768  3.4180  0.4173
  880MOL0     H21420   6.630   0.818   8.050 -1.2059 -2.3487  1.3457
  880MOL0     H21421   6.368   0.830   8.008 -2.7774 -0.4792 -2.3104
  880MOL0     H21422   6.073   0.856   7.951  1.8647 -0.8220 -1.9250
  880MOL0     H21423   5.854   0.881   8.023  0.9763  0.7520  0.1632
  880MOL0     H21424   4.143   0.928   8.520  0.3353 -0.6967  1.1770
  880MOL0     H21425   4.113   0.768   8.353 -0.0417 -0.5248 -1.6295
  880MOL0     H21426   4.088   0.622   7.869  1.9564  0.5164  0.3611
  880MOL0     H21427   4.002   0.410   7.777 -0.7296  0.6492  0.3418
  880MOL0     H21428   4.107   0.004   7.934  0.7745 -0.1177  0.3434
  880MOL0     H21429   3.988   0.058   8.062 -0.4935 -1.7453  0.0632
  880MOL0     H21430   3.911   0.009   7.778 -1.1281  2.8711  0.7200
  880MOL0     H21431   3.800   0.018   7.922 -0.0497 -0.9024  4.5773
  880MOL0     H21432   4.017  -0.194   7.889  0.5993 -1.1763  0.8949
  880MOL0     H21433   3.903  -0.185   8.027 -1.2033  1.9314 -0.1931
  880MOL0     H21434   3.726  -0.225   7.929 -2.2212  0.2231 -2.5046
  880MOL0     H21435   3.828  -0.356   7.882  2.7855  0.5707  3.1243
  880MOL0     H21436   3.688  -0.232   7.515 -1.5113 -0.1021  1.2496
  880MOL0     H21437   4.173   0.204   8.116  0.9792  2.2897  2.5137
  880MOL0     H21438   4.215   0.462   8.329  0.8392  1.5903 -1.4112
  880MOL0     H21439   4.240   0.293   8.304  0.3847 -0.1385  0.5414
  880MOL0     H21440   4.361   0.402   8.246 -0.1077 -0.6276 -1.3366
  881MOL0     O21441   4.098   3.683   7.356 -0.5039  0.1730 -0.8120
  881MOL0     C21442   4.002   3.665   7.280 -0.2472  0.3864  0.4669
  881MOL0     O21443   4.013   3.635   7.156  0.1465  0.3987 -0.3123
  881MOL0     C21444   4.132   3.638   7.087  0.2863  0.3728  0.8502
  881MOL0     C21445   4.223   3.534   7.102  0.7546  0.6874  0.5685
  881MOL0     C21446   4.345   3.534   7.040 -0.1691  0.7855  0.4013
  881MOL0     C21447   4.378   3.637   6.953 -1.2592  0.4153 -0.3606
  881MOL0     O21448   4.501   3.636   6.888  0.0480  0.1219 -0.3081
  881MOL0     C21449   4.614   3.628   6.977  0.5276  0.0297 -0.3649
  881MOL0     C21450   4.737   3.618   6.888 -0.4714 -0.2199  0.2119
  881MOL0     C21451   4.770   3.735   6.789 -0.5879 -0.4748  0.0258
  881MOL0     C21452   4.799   3.865   6.868  0.0698 -0.1671  0.0609
  881MOL0     C21453   4.809   3.989   6.786 -0.8502 -1.1396 -0.6014
  881MOL0     C21454   4.826   4.118   6.872  0.2099 -0.3564  0.5970
  881MOL0     C21455   4.700   4.134   6.973 -0.4129  0.3660  0.4455
  881MOL0     C21456   4.697   4.267   7.042  0.4093 -0.1718 -0.4853
  881MOL0     N21457   4.828   4.309   7.087 -0.2428  0.8796  0.1836
  881MOL0     C21458   4.896   4.264   7.198  0.1970  0.6011 -0.3858
  881MOL0     C21459   4.989   4.358   7.225  0.0779  1.0078  0.1589
  881MOL0     C21460   5.089   4.347   7.339 -0.6453  0.2270  1.0750
  881MOL0     C21461   5.065   4.467   7.429 -0.2061 -0.0004  0.4792
  881MOL0     C21462   4.950   4.433   7.526  0.2094 -0.0309  0.5870
  881MOL0     C21463   4.971   4.507   7.658 -0.7800 -0.4599  0.5849
  881MOL0     O21464   4.867   4.493   7.752  0.8186 -0.7670  0.5749
  881MOL0     C21465   4.863   4.371   7.811 -0.0718 -0.1300 -0.4117
  881MOL0     C21466   4.969   4.314   7.876  0.1035 -0.9032 -0.2890
  881MOL0     C21467   4.968   4.188   7.923  0.5379 -0.0397 -0.2300
  881MOL0     C21468   5.096   4.142   7.994  0.8709  0.4402 -0.6492
  881MOL0     C21469   4.859   4.104   7.905 -0.1541  1.3676  0.2485
  881MOL0     C21470   4.837   3.968   7.962 -0.2304  0.3324 -0.8636
  881MOL0     O21471   4.728   3.909   7.910  0.2672 -0.3982  0.0280
  881MOL0     C21472   4.681   3.799   7.975 -0.2348  0.4276 -0.6521
  881MOL0     C21473   4.733   3.673   7.935  0.5737 -0.8006  0.3740
  881MOL0     C21474   4.703   3.550   7.996  0.1551  1.0026 -0.9149
  881MOL0     C21475   4.619   3.554   8.112  0.2016  0.4361  1.3312
  881MOL0     O21476   4.615   3.436   8.182 -0.1448  0.5147  0.8230
  881MOL0     C21477   4.669   3.447   8.321 -0.6747  0.0486  0.2444
  881MOL0     C21478   4.565   3.394   8.419 -0.1386  0.2779 -0.2283
  881MOL0     C21479   4.524   3.241   8.400  0.7642  0.0200 -0.3259
  881MOL0     C21480   4.401   3.241   8.306  0.2835 -0.6758  0.6290
  881MOL0     C21481   4.345   3.089   8.292  0.4701 -0.2883  0.1923
  881MOL0     C21482   4.213   3.099   8.216 -0.8008 -0.2942  0.0708
  881MOL0     C21483   4.143   2.970   8.234  0.3994  0.1696 -0.0768
  881MOL0     C21484   3.997   2.971   8.176  0.1906  0.6847 -0.5593
  881MOL0    Cl21485   3.895   2.838   8.223 -0.3265 -0.0160  0.2343
  881MOL0     C21486   4.559   3.674   8.156 -0.0490 -0.7909 -1.2011
  881MOL0     C21487   4.586   3.794   8.084  0.0038  0.9919 -0.7138
  881MOL0     O21488   4.898   3.932   8.065  0.4286 -0.3249 -0.3841
  881MOL0     C21489   4.748   4.157   7.834 -1.0526 -0.2817 -0.0360
  881MOL0     C21490   4.758   4.289   7.788  0.1366 -0.3423  0.0424
  881MOL0     N21491   4.989   4.457   7.130 -0.1360 -0.7254 -0.4282
  881MOL0     N21492   4.883   4.436   7.056 -0.5746 -0.3642 -0.1170
  881MOL0     C21493   4.290   3.742   6.931  0.3154 -0.6112 -0.1594
  881MOL0     C21494   4.167   3.743   7.006  0.3844 -0.3213  0.0889
  881MOL0     C21495   3.866   3.707   7.329  1.0095 -0.0417 -1.0783
  881MOL0     C21496   3.758   3.689   7.239  0.8825 -0.5996 -0.2874
  881MOL0     C21497   3.618   3.678   7.274  0.2483 -1.1159  0.2235
  881MOL0     C21498   3.588   3.702   7.411 -0.1211  0.3826 -0.2038
  881MOL0     O21499   3.456   3.716   7.460  0.2565 -0.4788 -0.4426
  881MOL0     C21500   3.344   3.697   7.368 -0.3181  0.4458  0.0016
  881MOL0     C21501   3.308   3.550   7.357 -0.2313 -0.6935  0.1605
  881MOL0     C21502   3.217   3.519   7.246  0.3600  0.7069  0.1792
  881MOL0     C21503   3.066   3.565   7.275  0.3233 -0.5522  0.3838
  881MOL0     C21504   2.967   3.504   7.176 -0.4876  0.2124 -0.6351
  881MOL0     C21505   2.896   3.441   7.102 -0.4413 -0.6444 -0.7817
  881MOL0     C21506   3.693   3.742   7.491 -0.8594  0.3884 -0.8827
  881MOL0     C21507   3.828   3.734   7.462 -0.5247  0.3150  0.8027
  881MOL0     C21508   3.926   3.775   7.568  0.6173  0.1004 -0.7364
  881MOL0     H21509   4.197   3.441   7.152  0.6260  0.8632  0.8304
  881MOL0     H21510   4.404   3.444   7.050 -0.0278  0.8404  0.0897
  881MOL0     H21511   4.610   3.536   7.037  0.6203  1.1110  1.3597
  881MOL0     H21512   4.628   3.714   7.043  1.9042 -1.1369  0.9466
  881MOL0     H21513   4.818   3.614   6.962 -1.2082  1.4845  1.1802
  881MOL0     H21514   4.740   3.524   6.833  1.6979  0.8075 -1.6006
  881MOL0     H21515   4.855   3.704   6.726 -0.5524 -1.7478  0.6808
  881MOL0     H21516   4.685   3.752   6.722 -0.7675 -3.5628 -0.6527
  881MOL0     H21517   4.714   3.880   6.935 -1.6628  1.5915 -2.3619
  881MOL0     H21518   4.891   3.858   6.927 -0.2440  0.4091  0.6258
  881MOL0     H21519   4.722   3.999   6.721  0.1547 -1.8394 -2.1075
  881MOL0     H21520   4.892   3.979   6.716 -0.5615 -3.8197  0.0106
  881MOL0     H21521   4.924   4.123   6.922  0.9916  1.4156 -0.9897
  881MOL0     H21522   4.823   4.194   6.794  1.5902 -1.6740 -0.7895
  881MOL0     H21523   4.712   4.055   7.049 -0.7146  0.8938  1.0514
  881MOL0     H21524   4.606   4.120   6.918  0.2882 -0.3598 -0.5910
  881MOL0     H21525   4.663   4.357   6.991  4.1602  2.8634  1.8112
  881MOL0     H21526   4.622   4.251   7.120 -0.8428  1.2312 -1.3577
  881MOL0     H21527   4.871   4.175   7.256  0.9891  1.8911  2.0876
  881MOL0     H21528   5.187   4.332   7.293 -3.0978  0.5794 -5.3265
  881MOL0     H21529   5.074   4.252   7.390 -0.7441 -0.7229 -0.6328
  881MOL0     H21530   5.162   4.472   7.479  1.3687 -1.9391 -2.1085
  881MOL0     H21531   5.048   4.558   7.371  0.5468 -0.0555  0.1621
  881MOL0     H21532   4.856   4.468   7.482  1.2253  1.0986 -0.8195
  881MOL0     H21533   4.944   4.326   7.546 -1.0285  0.0387  0.6797
  881MOL0     H21534   5.071   4.495   7.700 -0.3232  2.1982  0.4608
  881MOL0     H21535   4.966   4.613   7.630 -0.8256  0.4958  3.7398
  881MOL0     H21536   5.051   4.382   7.898 -1.7228  1.7144 -1.0793
  881MOL0     H21537   5.108   4.034   8.009 -3.6397  0.0427  2.1313
  881MOL0     H21538   5.110   4.199   8.086 -2.1403  1.5228 -0.7294
  881MOL0     H21539   5.178   4.170   7.929 -0.0562  3.0944 -0.7722
  881MOL0     H21540   4.803   3.679   7.852  3.5047 -1.0063  2.6713
  881MOL0     H21541   4.747   3.458   7.961  0.2676  0.1974  1.2444
  881MOL0     H21542   4.753   3.378   8.327 -0.1348  0.7720  1.8093
  881MOL0     H21543   4.720   3.541   8.346  2.3205 -0.2147 -3.8991
  881MOL0     H21544   4.614   3.413   8.515 -0.0453 -0.5348 -0.1051
  881MOL0     H21545   4.476   3.457   8.413  0.4795  1.3231  1.2510
  881MOL0     H21546   4.491   3.198   8.495 -1.2873  0.6244 -0.7022
  881MOL0     H21547   4.600   3.186   8.344 -0.4161  0.4849 -2.4864
  881MOL0     H21548   4.423   3.294   8.213 -0.4014 -0.9307  0.3072
  881MOL0     H21549   4.329   3.300   8.364 -1.5105 -0.8525 -1.2639
  881MOL0     H21550   4.408   3.023   8.231 -0.5569  1.0587 -2.4676
  881MOL0     H21551   4.332   3.054   8.395  2.0208 -1.1572  0.1298
  881MOL0     H21552   4.231   3.135   8.114  0.5336  3.5489  1.4575
  881MOL0     H21553   4.148   3.175   8.260 -0.4844  0.0695 -0.0822
  881MOL0     H21554   4.128   2.950   8.341  1.0200  0.5679  0.0867
  881MOL0     H21555   4.195   2.883   8.194 -1.7394 -0.9323 -0.6319
  881MOL0     H21556   4.009   2.969   8.067  1.9387 -2.4090 -0.4319
  881MOL0     H21557   3.947   3.064   8.205 -0.4211  0.0434  0.4927
  881MOL0     H21558   4.496   3.680   8.244 -1.5333 -0.2740 -2.2550
  881MOL0     H21559   4.556   3.882   8.140  0.4179  0.8123 -0.2061
  881MOL0     H21560   4.648   4.116   7.822 -1.6216  1.3863 -1.2856
  881MOL0     H21561   4.676   4.329   7.729  2.4841  3.1882 -1.1604
  881MOL0     H21562   4.295   3.830   6.869  1.2535  0.1728  0.9812
  881MOL0     H21563   4.106   3.833   7.004  0.2195 -0.4061  0.8431
  881MOL0     H21564   3.780   3.664   7.135  4.3511  1.3967 -0.1928
  881MOL0     H21565   3.548   3.656   7.194  1.2438 -1.0366 -0.6823
  881MOL0     H21566   3.260   3.756   7.404  0.5934  1.2934  0.8017
  881MOL0     H21567   3.367   3.750   7.275  3.3480 -0.6353  0.1311
  881MOL0     H21568   3.262   3.497   7.441  1.4457 -1.5119  0.5974
  881MOL0     H21569   3.403   3.499   7.343  2.0639  3.0007  0.9596
  881MOL0     H21570   3.256   3.561   7.153  0.5383  0.7228  0.2625
  881MOL0     H21571   3.214   3.410   7.242  0.1099  0.6982  0.5002
  881MOL0     H21572   3.065   3.674   7.272  2.4782 -0.4622  1.2591
  881MOL0     H21573   3.034   3.523   7.370  0.1377 -1.3043  0.0003
  881MOL0     H21574   2.850   3.374   7.033 -3.3098 -0.1094  0.4669
  881MOL0     H21575   3.670   3.770   7.594 -2.8839 -0.6505 -0.9995
  881MOL0     H21576   3.989   3.849   7.518  0.6925 -0.4143 -1.4264
  881MOL0     H21577   3.876   3.811   7.658  0.0153 -2.0899 -0.1336
  881MOL0     H21578   3.972   3.683   7.604 -2.4721 -0.4356  2.3823
  882MOL0     O21579   8.085  10.820  10.036 -0.0613  0.0646 -0.3832
  882MOL0     C21580   8.201  10.816   9.991 -1.4780  0.5639 -0.3447
  882MOL0     O21581   8.314  10.844  10.063 -0.4969 -0.0021 -0.3489
  882MOL0     C21582   8.308  10.831  10.198  0.0488  0.8880 -0.4713
  882MOL0     C21583   8.320  10.720  10.275 -0.7135 -0.0355  0.3161
  882MOL0     C21584   8.310  10.710  10.410  0.7121  0.0027  0.1818
  882MOL0     C21585   8.287  10.821  10.480 -0.0530  0.2835  0.4477
  882MOL0     O21586   8.294  10.833  10.620  0.4530 -0.3674  0.3971
  882MOL0     C21587   8.368  10.744  10.697 -0.9321  1.1882 -0.1222
  882MOL0     C21588   8.525  10.760  10.674  0.1380 -0.1445  0.4108
  882MOL0     C21589   8.566  10.905  10.673  0.7838  0.2130  0.6495
  882MOL0     C21590   8.610  10.950  10.812 -0.6447  0.1892 -0.2976
  882MOL0     C21591   8.681  11.073  10.809 -0.4426 -0.7631 -0.0205
  882MOL0     C21592   8.613  11.202  10.751  0.2111 -0.0081  0.6393
  882MOL0     C21593   8.697  11.333  10.743  0.1792 -0.8198 -0.5337
  882MOL0     C21594   8.805  11.337  10.626  0.0094 -0.2054  0.4572
  882MOL0     N21595   8.903  11.450  10.621  0.1807 -0.3496 -0.2679
  882MOL0     C21596   8.868  11.583  10.623 -0.5959  0.2434 -0.5708
  882MOL0     C21597   8.990  11.651  10.594 -0.7050 -1.0163 -0.2138
  882MOL0     C21598   9.007  11.800  10.601  0.3393  0.6412 -0.4871
  882MOL0     C21599   9.127  11.858  10.519 -0.2775 -0.1918 -0.0047
  882MOL0     C21600   9.259  11.831  10.594 -0.6266 -0.1408 -0.2703
  882MOL0     C21601   9.377  11.847  10.501 -0.3831 -0.1393  0.4742
  882MOL0     O21602   9.384  11.981  10.448 -0.6916  0.4773  0.5638
  882MOL0     C21603   9.505  12.048  10.447  0.3549  0.0460 -0.4083
  882MOL0     C21604   9.517  12.159  10.364 -0.3584 -0.5205  0.3310
  882MOL0     C21605   9.633  12.232  10.343  0.0179 -1.1042 -0.3850
  882MOL0     C21606   9.631  12.344  10.244  1.2681  0.2083  0.5369
  882MOL0     C21607   9.748  12.193  10.417  0.6208  0.4975 -0.4992
  882MOL0     C21608   9.867  12.277  10.422  0.0406  0.7888 -0.3004
  882MOL0     O21609   9.919  12.288  10.543 -0.4375 -0.0497 -0.0170
  882MOL0     C21610  10.037  12.355  10.560 -0.4702  0.2343 -0.2487
  882MOL0     C21611  10.150  12.353  10.475  0.3981 -0.1301  0.5377
  882MOL0     C21612  10.259  12.434  10.490  0.3129 -0.6627 -0.6172
  882MOL0     C21613  10.263  12.531  10.589  0.7317 -0.3833  0.6276
  882MOL0     O21614  10.374  12.607  10.607 -0.3638 -0.4671 -0.2851
  882MOL0     C21615  10.471  12.548  10.684 -0.2852  0.0365 -1.0553
  882MOL0     C21616  10.614  12.581  10.633 -0.6307 -0.3800  1.0625
  882MOL0     C21617  10.670  12.707  10.702 -1.1446  0.1631  0.7191
  882MOL0     C21618  10.746  12.802  10.600  0.2455 -0.6213 -0.0625
  882MOL0     C21619  10.825  12.906  10.681  0.5414  0.0798 -0.3631
  882MOL0     C21620  10.967  12.840  10.714 -0.2099  0.2532  0.0861
  882MOL0     C21621  11.070  12.950  10.739  0.5061 -0.0386  0.6402
  882MOL0     C21622  11.204  12.878  10.705  0.2855 -0.1936 -0.5993
  882MOL0    Cl21623  11.346  12.983  10.727 -0.0007 -0.0335  0.4995
  882MOL0     C21624  10.151  12.535  10.680 -0.9488 -0.5827  0.2495
  882MOL0     C21625  10.040  12.452  10.661 -0.6491  0.0355 -0.2677
  882MOL0     O21626   9.911  12.330  10.322 -0.3171  0.3525  0.7926
  882MOL0     C21627   9.736  12.078  10.491  0.4672  0.6361 -0.6537
  882MOL0     C21628   9.619  12.006  10.512 -1.3623 -0.2261 -0.2510
  882MOL0     N21629   9.085  11.550  10.568  0.1775 -0.5196  0.4079
  882MOL0     N21630   9.035  11.436  10.597 -0.0999 -0.0374 -0.8547
  882MOL0     C21631   8.268  10.943  10.413  0.8944  0.1732 -0.5195
  882MOL0     C21632   8.284  10.954  10.273  0.0023 -0.7542  0.8727
  882MOL0     C21633   8.222  10.780   9.845  0.3730 -0.0522 -0.5866
  882MOL0     C21634   8.323  10.846   9.786  0.2583 -0.8933  0.1747
  882MOL0     C21635   8.356  10.819   9.655 -0.1101 -0.2923 -0.7062
  882MOL0     C21636   8.296  10.723   9.582 -0.4711 -1.2895  0.4930
  882MOL0     O21637   8.333  10.675   9.460 -0.2790  0.0622 -0.1005
  882MOL0     C21638   8.384  10.773   9.370 -0.2058  0.8860 -0.1665
  882MOL0     C21639   8.272  10.874   9.321  0.1456 -0.5007  0.4455
  882MOL0     C21640   8.280  10.938   9.181  0.0541 -0.0505 -0.4628
  882MOL0     C21641   8.337  11.078   9.180 -0.6281  0.1266  0.3735
  882MOL0     C21642   8.240  11.168   9.252 -0.8836 -0.1614 -0.1599
  882MOL0     C21643   8.154  11.236   9.290 -0.8166  0.1382  0.6355
  882MOL0     C21644   8.188  10.666   9.640 -0.6481  1.2898  0.3343
  882MOL0     C21645   8.145  10.690   9.768 -0.4195  0.0986  0.5249
  882MOL0     C21646   8.028  10.603   9.806 -0.2699 -0.1790 -0.1160
  882MOL0     H21647   8.354  10.628  10.229 -0.4047 -1.0589  2.4698
  882MOL0     H21648   8.319  10.612  10.457  1.3257 -1.6155 -3.0218
  882MOL0     H21649   8.329  10.642  10.682  0.9477  0.0395  2.1616
  882MOL0     H21650   8.351  10.759  10.804  0.1897  1.6419  0.0066
  882MOL0     H21651   8.579  10.690  10.738  0.2159 -1.2278 -0.7920
  882MOL0     H21652   8.553  10.726  10.574  3.1486 -0.5364  1.2985
  882MOL0     H21653   8.648  10.916  10.602  0.4920 -3.3817 -0.4292
  882MOL0     H21654   8.486  10.969  10.635  2.2962  1.3681 -0.7578
  882MOL0     H21655   8.521  10.966  10.874 -0.1829  2.2752 -0.0972
  882MOL0     H21656   8.676  10.880  10.864 -0.1566 -0.2249 -1.4318
  882MOL0     H21657   8.768  11.050  10.749 -0.2973 -2.6522  0.8503
  882MOL0     H21658   8.713  11.094  10.912 -1.0980 -1.7401  0.3980
  882MOL0     H21659   8.579  11.187  10.648 -2.6501 -0.3350  1.5344
  882MOL0     H21660   8.529  11.218  10.819  0.0027  2.0126 -0.0403
  882MOL0     H21661   8.749  11.357  10.836 -2.5522  2.8009  0.2799
  882MOL0     H21662   8.635  11.421  10.722  1.3701 -0.2122 -1.6492
  882MOL0     H21663   8.866  11.247  10.636  1.8121  0.9477  0.2954
  882MOL0     H21664   8.758  11.336  10.527 -0.6516  2.4926  0.6752
  882MOL0     H21665   8.775  11.631  10.650 -1.5623 -1.1102 -1.3699
  882MOL0     H21666   9.017  11.831  10.705  0.4466  2.2953 -0.9603
  882MOL0     H21667   8.925  11.849  10.547  0.9180  2.0270 -0.1481
  882MOL0     H21668   9.123  11.814  10.419  2.2406 -0.1104 -0.1840
  882MOL0     H21669   9.113  11.967  10.512 -0.4245 -0.1109  1.1840
  882MOL0     H21670   9.269  11.888  10.687  2.5961 -0.4705 -0.3144
  882MOL0     H21671   9.254  11.727  10.629 -0.2265 -0.1831 -0.3385
  882MOL0     H21672   9.458  11.807  10.563 -0.0858  0.6705  0.6247
  882MOL0     H21673   9.378  11.781  10.414  4.8909  2.7721 -2.1374
  882MOL0     H21674   9.430  12.186  10.305  0.8634 -0.3693 -1.4738
  882MOL0     H21675   9.725  12.375  10.199 -1.1508  4.6972 -2.2243
  882MOL0     H21676   9.598  12.435  10.296  0.2541 -1.5775  3.2244
  882MOL0     H21677   9.566  12.311  10.162 -0.0668  3.7716 -0.0217
  882MOL0     H21678  10.150  12.285  10.390  2.0733 -0.0345  0.4224
  882MOL0     H21679  10.345  12.423  10.424 -0.1775  2.5216 -1.9658
  882MOL0     H21680  10.466  12.577  10.790  1.9565  0.0282 -0.8845
  882MOL0     H21681  10.464  12.439  10.680 -0.6030 -0.0504  0.7446
  882MOL0     H21682  10.683  12.506  10.671 -0.6085  0.3076  2.4795
  882MOL0     H21683  10.611  12.592  10.525 -1.7156 -2.4559  0.8305
  882MOL0     H21684  10.722  12.680  10.794 -1.1972 -1.2520  0.3583
  882MOL0     H21685  10.588  12.765  10.745 -4.6108 -2.7581 -1.4000
  882MOL0     H21686  10.678  12.858  10.536 -0.8731 -0.9490  0.8045
  882MOL0     H21687  10.797  12.729  10.536 -2.4360 -1.1180 -1.8029
  882MOL0     H21688  10.843  12.981  10.603  1.5332 -0.9613 -1.1671
  882MOL0     H21689  10.789  12.953  10.773 -0.2502 -2.2393  0.5901
  882MOL0     H21690  11.005  12.770  10.638 -1.2733  0.2092 -0.4187
  882MOL0     H21691  10.972  12.789  10.811  0.7407  2.7021  1.4021
  882MOL0     H21692  11.065  12.998  10.837 -4.0554  1.2904  0.0124
  882MOL0     H21693  11.044  13.016  10.655 -0.5098 -0.9964  0.1671
  882MOL0     H21694  11.201  12.852  10.599 -0.0514  1.2277 -0.9582
  882MOL0     H21695  11.218  12.783  10.758 -2.6361 -0.0624  0.6173
  882MOL0     H21696  10.154  12.605  10.763 -2.6017 -0.8926  0.6121
  882MOL0     H21697   9.959  12.474  10.729 -1.8733 -0.6833 -1.4333
  882MOL0     H21698   9.826  12.052  10.545 -2.3938 -0.6451  4.1300
  882MOL0     H21699   9.632  11.925  10.584  1.0703  0.5575  0.2803
  882MOL0     H21700   8.257  11.034  10.472  1.5911 -0.1475  0.1058
  882MOL0     H21701   8.282  11.039  10.206 -2.5276 -1.6578 -0.3562
  882MOL0     H21702   8.379  10.927   9.832 -0.6797  1.3618 -2.3972
  882MOL0     H21703   8.427  10.882   9.603  1.3325 -1.1030  0.2361
  882MOL0     H21704   8.464  10.826   9.422 -1.4559  1.8973  0.7758
  882MOL0     H21705   8.423  10.720   9.283  1.3391  0.2810  0.8377
  882MOL0     H21706   8.264  10.960   9.388 -1.4550 -0.1707 -0.1380
  882MOL0     H21707   8.169  10.838   9.333  0.0860 -0.1323  1.1119
  882MOL0     H21708   8.335  10.869   9.116  2.1327  0.4446  0.6874
  882MOL0     H21709   8.186  10.957   9.127 -0.6827  0.7244  1.0282
  882MOL0     H21710   8.337  11.117   9.078 -1.7974  0.8152  0.6160
  882MOL0     H21711   8.439  11.088   9.217 -0.2685  2.0180 -0.9900
  882MOL0     H21712   8.071  11.292   9.327  0.0449  0.9626  1.3803
  882MOL0     H21713   8.145  10.584   9.584  1.4548 -1.8182  2.8810
  882MOL0     H21714   7.967  10.634   9.891  0.1011  0.1764  0.0219
  882MOL0     H21715   7.962  10.592   9.719  0.4011  2.9895 -1.1365
  882MOL0     H21716   8.070  10.508   9.841  1.5597  1.1279  1.4634
  883MOL0     O21717  10.229   2.924   8.031 -0.2717  0.3125  0.3825
  883MOL0     C21718  10.127   2.885   8.088 -1.4468  0.4659 -0.0484
  883MOL0     O21719  10.137   2.787   8.187 -0.0576 -0.5657 -0.0789
  883MOL0     C21720  10.247   2.697   8.169  1.2045 -0.1294 -1.5871
  883MOL0     C21721  10.319   2.653   8.284  0.3473  0.6408 -0.3704
  883MOL0     C21722  10.423   2.556   8.264  0.3237 -0.2779 -0.2605
  883MOL0     C21723  10.454   2.499   8.142  0.1148  0.4632  1.0943
  883MOL0     O21724  10.555   2.411   8.148 -0.1648 -0.1238 -0.4600
  883MOL0     C21725  10.576   2.327   8.041  0.1343  0.4285  0.0826
  883MOL0     C21726  10.669   2.213   8.089 -0.4964  0.4033 -0.0320
  883MOL0     C21727  10.805   2.273   8.116 -0.0050  0.7311  0.4183
  883MOL0     C21728  10.911   2.163   8.152  0.4699  0.3804 -1.0954
  883MOL0     C21729  10.909   2.041   8.067  0.8406 -0.3571 -0.0211
  883MOL0     C21730  11.012   1.932   8.098 -0.1999  1.4103 -0.0447
  883MOL0     C21731  11.027   1.831   7.992 -0.0065  0.9712  0.3004
  883MOL0     C21732  11.096   1.705   8.044  0.9099  0.5217  0.1486
  883MOL0     N21733  11.153   1.628   7.929  0.1356  0.0794  0.8640
  883MOL0     C21734  11.085   1.519   7.872  0.2823  0.3572 -0.4952
  883MOL0     C21735  11.182   1.452   7.798  0.9150 -0.6615 -0.3422
  883MOL0     C21736  11.150   1.327   7.715  0.5708  0.6903  0.1107
  883MOL0     C21737  11.224   1.198   7.763  1.0954  0.6192 -0.3144
  883MOL0     C21738  11.217   1.170   7.916 -0.4673 -1.2261 -0.0832
  883MOL0     C21739  11.251   1.021   7.965 -0.3848  0.2995 -0.2114
  883MOL0     O21740  11.344   1.030   8.082  0.0382 -0.1146  0.5569
  883MOL0     C21741  11.481   1.059   8.065  0.7385  0.6488  0.1943
  883MOL0     C21742  11.535   1.082   7.935  0.5945 -0.1729 -0.6243
  883MOL0     C21743  11.675   1.090   7.926 -0.6343 -0.0956  0.2768
  883MOL0     C21744  11.716   1.124   7.784  0.2467  0.1484 -0.0305
  883MOL0     C21745  11.760   1.095   8.046 -0.5325  0.0484 -0.8756
  883MOL0     C21746  11.903   1.128   8.040 -0.0422 -0.1804 -0.3496
  883MOL0     O21747  11.965   1.133   8.166  0.6142  0.1707  0.2790
  883MOL0     C21748  12.100   1.104   8.181  0.1953  0.8967  0.2155
  883MOL0     C21749  12.161   1.157   8.296  0.3835 -0.0373  0.6159
  883MOL0     C21750  12.299   1.122   8.310 -0.3277 -0.3145 -0.2245
  883MOL0     C21751  12.370   1.042   8.230  0.4225  0.1764  0.7330
  883MOL0     O21752  12.500   1.021   8.271  0.2135 -0.0082 -0.6291
  883MOL0     C21753  12.587   0.926   8.203  0.8611  0.6435 -0.4505
  883MOL0     C21754  12.713   0.925   8.283 -0.1676  0.0679 -0.2206
  883MOL0     C21755  12.807   1.051   8.253  0.4084  0.7042  0.5651
  883MOL0     C21756  12.837   1.060   8.101 -0.9864 -0.4715  0.9122
  883MOL0     C21757  12.929   1.180   8.064 -0.4406 -0.1578 -0.1513
  883MOL0     C21758  13.079   1.165   8.090 -0.0178  0.3309  0.0916
  883MOL0     C21759  13.136   1.302   8.096  0.2502  0.0240 -0.4657
  883MOL0     C21760  13.284   1.289   8.112  0.0078 -0.2657  0.1451
  883MOL0    Cl21761  13.365   1.449   8.074  0.0107  0.1472  0.4274
  883MOL0     C21762  12.304   0.977   8.124  0.1016  0.3989 -0.4617
  883MOL0     C21763  12.177   1.007   8.106 -0.2005 -0.0613  0.8504
  883MOL0     O21764  11.964   1.129   7.933  0.1669 -0.8614  0.1829
  883MOL0     C21765  11.700   1.094   8.173 -0.3637  0.3352  0.5602
  883MOL0     C21766  11.568   1.065   8.176  0.0158  0.6256 -0.2548
  883MOL0     N21767  11.294   1.531   7.794  0.4469  0.5646 -0.0256
  883MOL0     N21768  11.275   1.635   7.869 -0.3164 -0.0007 -0.3885
  883MOL0     C21769  10.364   2.527   8.038  0.0583  0.6002 -0.2494
  883MOL0     C21770  10.273   2.635   8.047  0.6108 -0.0597 -1.0207
  883MOL0     C21771   9.993   2.951   8.068  0.3199 -0.9390 -1.2743
  883MOL0     C21772   9.891   2.906   8.158 -0.4167  0.0938  0.4381
  883MOL0     C21773   9.755   2.939   8.139 -0.2355  0.7777 -0.2183
  883MOL0     C21774   9.717   3.000   8.020  0.0769  0.2404 -0.3840
  883MOL0     O21775   9.582   3.012   7.999  0.4203  0.2702  0.3262
  883MOL0     C21776   9.542   3.133   7.941 -0.2221 -0.6078 -0.4467
  883MOL0     C21777   9.408   3.178   7.997  0.9816  0.5001  0.1323
  883MOL0     C21778   9.424   3.238   8.136 -0.2779 -0.2582 -1.3778
  883MOL0     C21779   9.342   3.172   8.249  0.6972 -0.6457 -1.0175
  883MOL0     C21780   9.199   3.167   8.208 -0.6419  0.4466 -0.4360
  883MOL0     C21781   9.081   3.167   8.181  0.1447 -0.8176 -0.3298
  883MOL0     C21782   9.817   3.034   7.927  0.2082 -0.0748  0.1815
  883MOL0     C21783   9.954   3.024   7.952 -0.4666  0.2804 -0.0480
  883MOL0     C21784  10.045   3.067   7.839 -0.9462  0.0623 -1.4744
  883MOL0     H21785  10.292   2.705   8.376 -2.2617  1.1084 -1.3152
  883MOL0     H21786  10.489   2.538   8.348  2.4614 -0.1074 -1.8185
  883MOL0     H21787  10.611   2.376   7.949  2.4173 -1.0658  0.0868
  883MOL0     H21788  10.482   2.274   8.020 -0.0958  0.4078  1.1217
  883MOL0     H21789  10.635   2.152   8.173  1.4941 -1.5259 -0.5437
  883MOL0     H21790  10.681   2.148   8.002  0.1504  0.6163 -0.1076
  883MOL0     H21791  10.853   2.328   8.034 -0.0440  0.1915  0.0327
  883MOL0     H21792  10.805   2.347   8.197  0.9794  0.2678  0.8583
  883MOL0     H21793  11.001   2.225   8.148 -0.2292  1.3856 -1.4969
  883MOL0     H21794  10.898   2.135   8.257 -0.6495 -0.1861 -1.3630
  883MOL0     H21795  10.926   2.063   7.961  1.7380  0.4473  0.2857
  883MOL0     H21796  10.811   1.991   8.077  0.8887 -0.4867 -0.2001
  883MOL0     H21797  11.114   1.962   8.122  1.0450 -0.3257 -2.6951
  883MOL0     H21798  10.982   1.879   8.189  0.1243  0.0201 -0.7236
  883MOL0     H21799  11.092   1.870   7.913  1.8862 -4.3707 -1.1924
  883MOL0     H21800  10.933   1.803   7.942 -1.1546 -0.4645  3.0444
  883MOL0     H21801  11.172   1.724   8.119 -1.4312 -0.8897  3.0915
  883MOL0     H21802  11.029   1.639   8.100  1.5741  0.3489  0.7572
  883MOL0     H21803  10.986   1.480   7.890  0.8531 -0.3623  1.3278
  883MOL0     H21804  11.173   1.351   7.611  0.5412 -0.3160 -0.1367
  883MOL0     H21805  11.041   1.319   7.705  0.8705 -0.3266 -3.9723
  883MOL0     H21806  11.183   1.108   7.716  1.5805 -0.2181  0.8240
  883MOL0     H21807  11.325   1.206   7.723  0.7440  0.5931 -1.2319
  883MOL0     H21808  11.285   1.244   7.958 -2.3278 -1.0245  2.8539
  883MOL0     H21809  11.114   1.189   7.948 -0.6771 -4.3352  1.4431
  883MOL0     H21810  11.166   0.964   8.003  0.9416 -0.5843  1.6145
  883MOL0     H21811  11.302   0.954   7.895 -1.0535 -1.6485  1.0909
  883MOL0     H21812  11.480   1.050   7.846  0.1524 -3.4865  0.6851
  883MOL0     H21813  11.779   1.214   7.778 -2.1936  1.9509 -0.3973
  883MOL0     H21814  11.630   1.146   7.720  0.8285  2.8560 -0.0029
  883MOL0     H21815  11.766   1.033   7.750  1.4823  0.1752  1.5973
  883MOL0     H21816  12.106   1.215   8.370 -1.8464  2.1776 -2.5188
  883MOL0     H21817  12.341   1.161   8.402 -2.1321 -1.9544  1.3917
  883MOL0     H21818  12.546   0.825   8.217  0.9411  0.9418  2.6501
  883MOL0     H21819  12.601   0.949   8.097 -2.0854 -1.2531 -1.3778
  883MOL0     H21820  12.701   0.924   8.392  1.6763  1.2974  0.0372
  883MOL0     H21821  12.772   0.837   8.259  0.5632 -0.3677  2.7590
  883MOL0     H21822  12.897   1.040   8.313  1.0060 -0.2890 -0.4796
  883MOL0     H21823  12.766   1.148   8.285  0.0725  0.7430  0.0272
  883MOL0     H21824  12.739   1.083   8.060 -1.2194  1.8921  2.6263
  883MOL0     H21825  12.880   0.971   8.052  0.2547  0.7021 -0.2333
  883MOL0     H21826  12.922   1.190   7.955  0.7042  1.8184 -0.0918
  883MOL0     H21827  12.878   1.262   8.116 -0.9129 -0.6478  0.1725
  883MOL0     H21828  13.114   1.106   8.005  1.6825 -1.0213  1.6603
  883MOL0     H21829  13.112   1.103   8.174 -0.0519  0.6852  0.3724
  883MOL0     H21830  13.113   1.356   8.188  0.5220 -2.5458  1.2098
  883MOL0     H21831  13.122   1.348   7.997  1.4200  0.5877 -0.3816
  883MOL0     H21832  13.315   1.222   8.031 -0.2114  1.2223 -1.2333
  883MOL0     H21833  13.308   1.250   8.211 -2.6806  1.1257  1.4539
  883MOL0     H21834  12.360   0.912   8.058  0.9898 -0.7309  1.3254
  883MOL0     H21835  12.121   0.955   8.029 -0.7848  3.4653 -1.3187
  883MOL0     H21836  11.752   1.103   8.267  2.7687 -2.7905 -0.6266
  883MOL0     H21837  11.517   1.056   8.271  2.9655  0.7934  1.4439
  883MOL0     H21838  10.378   2.478   7.942 -1.3716  0.1951 -0.2827
  883MOL0     H21839  10.214   2.673   7.964 -1.4351  0.0260  0.4065
  883MOL0     H21840   9.916   2.851   8.248  1.6395  0.4634  0.1352
  883MOL0     H21841   9.675   2.917   8.209 -1.0850  0.3636 -1.2916
  883MOL0     H21842   9.621   3.209   7.943  0.4061 -1.2682  1.3433
  883MOL0     H21843   9.520   3.111   7.836 -1.5674  1.5612 -0.7117
  883MOL0     H21844   9.338   3.095   8.003  2.1246 -0.7417 -2.0591
  883MOL0     H21845   9.366   3.243   7.920 -0.6643 -1.1874 -0.4568
  883MOL0     H21846   9.531   3.240   8.158 -0.7451  1.2780  1.0090
  883MOL0     H21847   9.396   3.343   8.135 -0.7479 -0.3394  0.5221
  883MOL0     H21848   9.351   3.235   8.338  0.4964 -1.6233 -0.2806
  883MOL0     H21849   9.371   3.071   8.279 -0.5932 -0.5195  0.8586
  883MOL0     H21850   8.978   3.188   8.163  0.7471  1.2185 -1.8507
  883MOL0     H21851   9.779   3.061   7.829 -2.1493 -1.7473  0.5419
  883MOL0     H21852   9.992   3.106   7.752 -0.9125 -2.1231 -2.5570
  883MOL0     H21853  10.112   3.148   7.869 -0.6322 -0.2321 -1.3681
  883MOL0     H21854  10.096   2.975   7.808  0.4507  0.2008  0.2427
  884MOL0     O21855   5.642   2.290   9.753  0.1483  0.3643  1.3593
  884MOL0     C21856   5.637   2.363   9.650  0.9290  0.6690 -0.3623
  884MOL0     O21857   5.587   2.491   9.640 -0.1634  0.3506 -0.8480
  884MOL0     C21858   5.540   2.556   9.752  1.1805  0.2335 -0.4242
  884MOL0     C21859   5.434   2.505   9.835 -0.4277  0.3490  0.5445
  884MOL0     C21860   5.390   2.581   9.941  0.9159  0.8428  0.7582
  884MOL0     C21861   5.443   2.704   9.972 -0.8709 -0.1737 -0.1509
  884MOL0     O21862   5.394   2.794  10.066  0.3681 -0.0856 -0.0939
  884MOL0     C21863   5.325   2.747  10.184  0.5567 -0.6560  0.5007
  884MOL0     C21864   5.257   2.869  10.245 -0.2923 -0.4115 -0.2782
  884MOL0     C21865   5.123   2.904  10.176  0.0654 -0.5499 -0.2928
  884MOL0     C21866   5.096   3.047  10.236  0.6178 -1.1373 -0.5671
  884MOL0     C21867   4.948   3.090  10.203  0.9002  0.1272 -0.9454
  884MOL0     C21868   4.894   3.209  10.279  0.2921  0.3027  0.3168
  884MOL0     C21869   4.759   3.251  10.227  0.0373 -0.3738  1.0551
  884MOL0     C21870   4.729   3.398  10.246 -0.1143 -0.1485  0.0844
  884MOL0     N21871   4.798   3.466  10.363 -0.3439 -0.4711 -0.4819
  884MOL0     C21872   4.827   3.597  10.374  1.2063  0.7043  0.0409
  884MOL0     C21873   4.878   3.621  10.497 -0.3099  0.2823 -0.0759
  884MOL0     C21874   4.912   3.762  10.538 -0.0946  0.2692  0.3822
  884MOL0     C21875   5.054   3.776  10.585 -0.8644  0.9303 -0.1811
  884MOL0     C21876   5.090   3.924  10.581  0.3250  0.4668  0.5080
  884MOL0     C21877   5.245   3.950  10.612  0.0651  0.0059 -0.1596
  884MOL0     O21878   5.288   4.071  10.557  0.1863 -0.1337 -0.0572
  884MOL0     C21879   5.310   4.110  10.430  0.2148 -0.0305  0.1135
  884MOL0     C21880   5.329   4.246  10.396 -0.8311 -0.1690  0.4013
  884MOL0     C21881   5.356   4.285  10.261 -0.7974 -0.5990 -0.7051
  884MOL0     C21882   5.376   4.431  10.234  0.2528 -0.7782 -0.5817
  884MOL0     C21883   5.361   4.193  10.158  0.0763 -0.3704  0.7335
  884MOL0     C21884   5.376   4.228  10.016 -0.6065  0.4757  0.4817
  884MOL0     O21885   5.414   4.129   9.934 -0.6051 -0.2625  0.2859
  884MOL0     C21886   5.439   4.146   9.799  0.1832 -0.3611 -0.5591
  884MOL0     C21887   5.325   4.196   9.730  0.4858 -0.2876  0.5621
  884MOL0     C21888   5.335   4.234   9.598 -0.5234  0.2982  0.6074
  884MOL0     C21889   5.457   4.226   9.528 -0.0112 -0.2258 -0.1933
  884MOL0     O21890   5.460   4.267   9.394 -0.0193  0.0963  0.0324
  884MOL0     C21891   5.502   4.400   9.385 -0.6834  0.3108 -0.7832
  884MOL0     C21892   5.647   4.413   9.426 -0.0681  0.8382  0.2788
  884MOL0     C21893   5.716   4.548   9.394  0.4413 -0.6925 -0.4981
  884MOL0     C21894   5.850   4.567   9.466  0.0115 -0.0358  0.2542
  884MOL0     C21895   5.904   4.714   9.451  0.3450 -0.0814 -0.8764
  884MOL0     C21896   6.027   4.730   9.541  1.1292  0.2045 -0.0902
  884MOL0     C21897   6.085   4.869   9.524 -0.3752 -0.7057 -0.7591
  884MOL0     C21898   6.208   4.874   9.620  0.2413  0.1197  0.0382
  884MOL0    Cl21899   6.311   5.027   9.612 -0.0905 -0.4616 -0.2039
  884MOL0     C21900   5.559   4.163   9.599 -0.2041 -0.9454  0.5055
  884MOL0     C21901   5.565   4.125   9.741  1.2757 -0.3595 -0.4836
  884MOL0     O21902   5.342   4.339   9.975 -0.1278 -0.2776 -0.3038
  884MOL0     C21903   5.347   4.057  10.195 -0.1625  0.6516 -0.4898
  884MOL0     C21904   5.331   4.011  10.328  0.4509 -0.0875 -0.5344
  884MOL0     N21905   4.887   3.501  10.572  0.4890 -0.0488  0.6354
  884MOL0     N21906   4.837   3.410  10.489 -0.2148  0.7538  0.3930
  884MOL0     C21907   5.546   2.756   9.888 -0.5207  0.4228  0.5073
  884MOL0     C21908   5.582   2.689   9.774 -0.1349 -0.7562  0.6804
  884MOL0     C21909   5.681   2.300   9.523 -0.0437  0.0376 -0.2990
  884MOL0     C21910   5.676   2.158   9.512  0.1604  0.3982  0.1848
  884MOL0     C21911   5.727   2.095   9.399 -0.1760 -0.2128  0.4461
  884MOL0     C21912   5.784   2.155   9.295  0.1486 -0.5052  0.0569
  884MOL0     O21913   5.837   2.078   9.199  0.4462  0.2054 -0.5912
  884MOL0     C21914   5.911   2.136   9.094  0.6459 -0.0257 -1.2070
  884MOL0     C21915   6.039   2.057   9.084 -0.0067 -0.6319 -0.1941
  884MOL0     C21916   6.140   2.132   9.012  0.0422  0.7486  0.1013
  884MOL0     C21917   6.284   2.071   9.023 -0.5094 -1.3562  0.1118
  884MOL0     C21918   6.386   2.154   8.964  0.0179  0.4795  0.0961
  884MOL0     C21919   6.462   2.246   8.927 -0.4708  0.1901 -0.9761
  884MOL0     C21920   5.793   2.294   9.306 -0.1360 -0.4421  0.1274
  884MOL0     C21921   5.747   2.369   9.421  0.6723  0.1613  1.0675
  884MOL0     C21922   5.754   2.520   9.416  0.0722  0.3755 -0.3419
  884MOL0     H21923   5.392   2.409   9.809 -0.4638  1.0363 -2.3078
  884MOL0     H21924   5.311   2.533   9.998  0.1682  0.3374 -0.6488
  884MOL0     H21925   5.392   2.702  10.257  1.1902  1.5330  1.3545
  884MOL0     H21926   5.251   2.667  10.178  0.2374 -0.4172  1.1189
  884MOL0     H21927   5.244   2.837  10.349  0.1536 -0.1094 -0.1274
  884MOL0     H21928   5.323   2.956  10.249 -3.8360  2.4840  0.5795
  884MOL0     H21929   5.148   2.901  10.070  2.8376 -1.5943  0.2885
  884MOL0     H21930   5.039   2.835  10.186 -2.6238  2.5684  0.1127
  884MOL0     H21931   5.108   3.063  10.344 -1.0663 -0.4385 -0.4398
  884MOL0     H21932   5.165   3.124  10.201  0.0492 -1.2263 -1.9309
  884MOL0     H21933   4.881   3.006  10.220  0.2440  0.5219 -1.5204
  884MOL0     H21934   4.943   3.116  10.097 -1.9844  0.7886 -0.7404
  884MOL0     H21935   4.886   3.175  10.383 -2.5051 -0.8216 -0.1877
  884MOL0     H21936   4.971   3.286  10.268 -0.4575  0.8404 -1.5026
  884MOL0     H21937   4.678   3.201  10.280 -0.7881 -3.4734 -2.6772
  884MOL0     H21938   4.727   3.228  10.125  1.2986 -1.0608  0.7945
  884MOL0     H21939   4.768   3.454  10.161  2.4014  1.1634  1.9587
  884MOL0     H21940   4.621   3.412  10.256  0.0245  0.2236  1.3926
  884MOL0     H21941   4.813   3.672  10.297  1.2587 -1.8650 -2.6497
  884MOL0     H21942   4.847   3.784  10.624  1.0586 -2.9935  2.2619
  884MOL0     H21943   4.874   3.828  10.459 -3.2592 -2.9936 -1.1189
  884MOL0     H21944   5.072   3.749  10.689 -1.1013 -1.4218 -0.7016
  884MOL0     H21945   5.124   3.730  10.515  0.8853  0.5928  1.6921
  884MOL0     H21946   5.077   3.955  10.476 -0.2123  0.7369  0.6526
  884MOL0     H21947   5.029   3.987  10.645  0.5368  1.7848 -0.5301
  884MOL0     H21948   5.258   3.939  10.720 -0.8531 -4.1398 -0.2881
  884MOL0     H21949   5.295   3.861  10.575 -1.9578 -1.3000  0.0674
  884MOL0     H21950   5.325   4.323  10.471 -2.4038 -0.5325  0.7312
  884MOL0     H21951   5.418   4.474  10.325  0.5203 -1.5821 -0.3183
  884MOL0     H21952   5.282   4.486  10.219  0.3089 -0.0098  1.5008
  884MOL0     H21953   5.444   4.457  10.153 -2.3136  1.7939 -2.1073
  884MOL0     H21954   5.226   4.197   9.773 -1.8321 -0.6826 -4.1869
  884MOL0     H21955   5.248   4.272   9.546  0.9823  0.7836 -1.6956
  884MOL0     H21956   5.489   4.423   9.279  0.9032  0.2888 -1.0172
  884MOL0     H21957   5.442   4.464   9.451 -1.2485  1.3853 -2.2744
  884MOL0     H21958   5.649   4.400   9.534  0.2127  2.2984  0.4733
  884MOL0     H21959   5.707   4.344   9.366 -0.6416  0.1676  0.4687
  884MOL0     H21960   5.646   4.626   9.425 -0.0010 -1.1434 -0.3366
  884MOL0     H21961   5.733   4.563   9.287  3.2420 -1.8224 -0.3010
  884MOL0     H21962   5.919   4.493   9.424 -1.0224 -1.1558  0.4677
  884MOL0     H21963   5.835   4.542   9.571  1.2096 -0.3194  0.3750
  884MOL0     H21964   5.933   4.732   9.347  0.5464 -3.5195 -1.5547
  884MOL0     H21965   5.824   4.785   9.473 -2.5158 -3.4782  0.6501
  884MOL0     H21966   6.093   4.648   9.509 -0.1658 -1.4860  1.3495
  884MOL0     H21967   5.994   4.707   9.642  0.4455 -3.6798 -1.0303
  884MOL0     H21968   6.012   4.948   9.545  1.0578  0.0319  1.9922
  884MOL0     H21969   6.126   4.881   9.424 -0.6690  2.2284 -0.6177
  884MOL0     H21970   6.280   4.798   9.589  0.4997  0.3543  0.0608
  884MOL0     H21971   6.175   4.855   9.723  3.2388 -0.5700  0.9628
  884MOL0     H21972   5.650   4.146   9.542  0.4090  0.1331  1.1305
  884MOL0     H21973   5.651   4.073   9.783 -0.5978 -1.8269  1.7991
  884MOL0     H21974   5.355   3.976  10.123 -0.5115  1.0227 -0.9492
  884MOL0     H21975   5.329   3.905  10.348 -0.0179  0.1079  0.5253
  884MOL0     H21976   5.605   2.839   9.926  0.8530  0.5272 -1.7108
  884MOL0     H21977   5.645   2.727   9.694  0.1321 -3.2369 -0.4109
  884MOL0     H21978   5.644   2.096   9.595 -3.6721  0.1882 -1.2620
  884MOL0     H21979   5.726   1.986   9.400  0.3338 -0.2795 -1.7364
  884MOL0     H21980   5.860   2.130   8.998  0.7180 -1.3672 -1.1829
  884MOL0     H21981   5.941   2.239   9.112 -2.0896  0.4848  1.0651
  884MOL0     H21982   6.016   1.965   9.029  0.5682 -0.8639 -0.0581
  884MOL0     H21983   6.083   2.034   9.181  1.4663  3.1149  0.1974
  884MOL0     H21984   6.101   2.150   8.911 -0.9556  4.4393  1.0061
  884MOL0     H21985   6.150   2.226   9.067  2.5363  1.0404 -0.7405
  884MOL0     H21986   6.279   1.968   8.986  0.5166 -0.8030 -1.7077
  884MOL0     H21987   6.303   2.075   9.130  2.1659  1.7086 -0.3107
  884MOL0     H21988   6.512   2.336   8.898  0.3082  0.2009  0.2773
  884MOL0     H21989   5.833   2.354   9.225  0.4549  0.5404  1.1253
  884MOL0     H21990   5.804   2.560   9.505 -0.1381  3.2544 -1.4192
  884MOL0     H21991   5.802   2.564   9.328  1.4724 -0.9894 -0.3023
  884MOL0     H21992   5.654   2.562   9.412  0.0575  0.5956  1.3622
  885MOL0     O21993   7.767   9.068   3.182  0.1667 -0.1710 -0.8012
  885MOL0     C21994   7.867   9.091   3.250  0.3933  0.1099  0.7005
  885MOL0     O21995   7.901   9.020   3.352  0.7151  0.5235  0.0415
  885MOL0     C21996   7.817   8.917   3.400  0.1469 -0.2934  0.3191
  885MOL0     C21997   7.793   8.803   3.326  0.7281 -0.1413 -0.1398
  885MOL0     C21998   7.699   8.703   3.360  0.5085 -0.1321 -0.5591
  885MOL0     C21999   7.631   8.708   3.483  0.2585 -0.3275  0.7541
  885MOL0     O22000   7.543   8.618   3.532  0.4892  0.2217 -0.9935
  885MOL0     C22001   7.499   8.510   3.442 -0.6850 -0.0169  0.3303
  885MOL0     C22002   7.403   8.406   3.508 -0.5075  0.0241 -0.3565
  885MOL0     C22003   7.255   8.419   3.471 -0.1806 -0.9681 -0.3804
  885MOL0     C22004   7.192   8.291   3.423  1.0982 -0.2690  0.1376
  885MOL0     C22005   7.045   8.310   3.383 -0.4117 -0.1542 -0.0584
  885MOL0     C22006   6.983   8.166   3.340  1.1548 -0.2935  0.6765
  885MOL0     C22007   7.059   8.109   3.214  0.1591  0.0981  0.2688
  885MOL0     C22008   7.008   7.977   3.162 -0.2248  0.0899 -0.7609
  885MOL0     N22009   7.046   7.870   3.250 -0.6429  0.2822 -0.6063
  885MOL0     C22010   6.962   7.821   3.340 -0.0674 -0.0316 -0.1692
  885MOL0     C22011   7.036   7.721   3.386  0.0256 -0.2299 -0.1887
  885MOL0     C22012   6.992   7.633   3.503  0.7269 -0.5117 -0.0408
  885MOL0     C22013   6.920   7.506   3.447 -0.9965 -0.2129 -0.4121
  885MOL0     C22014   7.017   7.419   3.371 -0.1586  0.8603  0.5871
  885MOL0     C22015   6.946   7.291   3.310 -0.8624  0.2880  0.1252
  885MOL0     O22016   6.834   7.343   3.234  0.5547 -0.0529  0.0011
  885MOL0     C22017   6.768   7.269   3.141 -0.9745  0.4533 -0.7611
  885MOL0     C22018   6.663   7.330   3.078  0.9700  0.0369  0.8497
  885MOL0     C22019   6.598   7.273   2.964 -0.6569  0.3386  0.1471
  885MOL0     C22020   6.505   7.367   2.895 -0.5307  0.2148  0.4957
  885MOL0     C22021   6.624   7.142   2.923  0.3115 -0.9997 -0.5352
  885MOL0     C22022   6.576   7.074   2.799  0.4303  0.5205 -0.4845
  885MOL0     O22023   6.654   6.965   2.765  0.2709  0.1882  0.0464
  885MOL0     C22024   6.617   6.908   2.646 -0.3170 -0.1591  0.1627
  885MOL0     C22025   6.686   6.946   2.532  0.2707  0.3928  0.1534
  885MOL0     C22026   6.662   6.883   2.404  0.0804 -1.2872 -0.5786
  885MOL0     C22027   6.562   6.789   2.392 -0.1707 -0.8876  0.1071
  885MOL0     O22028   6.538   6.716   2.281 -0.1691 -0.0473 -0.1660
  885MOL0     C22029   6.622   6.728   2.159  0.7878 -0.7183 -0.0578
  885MOL0     C22030   6.573   6.653   2.031  0.1808  0.3243  0.0805
  885MOL0     C22031   6.428   6.680   2.003  0.3937 -0.2112 -0.7522
  885MOL0     C22032   6.398   6.675   1.856  0.8210  0.0148 -0.1908
  885MOL0     C22033   6.254   6.717   1.811  0.3409 -0.5389  0.3619
  885MOL0     C22034   6.156   6.602   1.847 -0.0074 -0.2059  0.4573
  885MOL0     C22035   6.023   6.611   1.767 -0.0710  0.9586 -0.2531
  885MOL0     C22036   5.934   6.713   1.850 -0.4476 -0.1401 -0.8218
  885MOL0    Cl22037   5.779   6.740   1.759  0.5083 -0.3127 -0.1309
  885MOL0     C22038   6.499   6.741   2.502  0.0463 -0.3015 -0.3790
  885MOL0     C22039   6.520   6.798   2.629  0.0258  0.0045 -0.4945
  885MOL0     O22040   6.472   7.115   2.744 -0.1179 -0.9714 -0.0455
  885MOL0     C22041   6.730   7.075   2.996 -0.1261 -0.0498  0.4843
  885MOL0     C22042   6.799   7.139   3.100 -0.3789 -1.0797  0.1907
  885MOL0     N22043   7.157   7.714   3.328 -0.0228  0.7356 -0.1839
  885MOL0     N22044   7.161   7.807   3.242 -0.3832  0.2101  0.0170
  885MOL0     C22045   7.663   8.817   3.566  0.5057  0.3339  0.2045
  885MOL0     C22046   7.754   8.913   3.522  0.0333  1.1001 -0.0315
  885MOL0     C22047   7.953   9.205   3.204 -0.2337  0.5731  0.2301
  885MOL0     C22048   8.090   9.214   3.247  0.2547  0.5648 -0.4459
  885MOL0     C22049   8.184   9.302   3.207 -0.8285 -0.3877  0.8596
  885MOL0     C22050   8.155   9.396   3.103 -0.2694  0.9210  0.1679
  885MOL0     O22051   8.242   9.467   3.022 -0.2881  0.1563 -0.1021
  885MOL0     C22052   8.372   9.409   3.003  0.5278  0.1262  0.2107
  885MOL0     C22053   8.434   9.484   2.878 -0.4145 -0.3462 -0.4687
  885MOL0     C22054   8.376   9.442   2.742  0.3704  0.3352 -0.2479
  885MOL0     C22055   8.417   9.541   2.638 -0.3189  1.0251 -0.2251
  885MOL0     C22056   8.386   9.496   2.501 -0.0386 -0.1950 -0.6417
  885MOL0     C22057   8.348   9.444   2.393  0.4611 -0.6811  0.0090
  885MOL0     C22058   8.017   9.416   3.080 -0.5888 -0.7612  0.7764
  885MOL0     C22059   7.921   9.324   3.127  0.4818  0.5577 -0.0281
  885MOL0     C22060   7.779   9.347   3.070 -0.1000 -0.7134  1.2781
  885MOL0     H22061   7.838   8.799   3.227  1.6189  0.7300  0.2096
  885MOL0     H22062   7.693   8.607   3.310 -2.1369 -3.4071  5.0820
  885MOL0     H22063   7.592   8.461   3.413  1.0293  1.2493  3.2573
  885MOL0     H22064   7.455   8.543   3.347 -0.5274 -2.1837 -0.5454
  885MOL0     H22065   7.436   8.304   3.485 -2.8391 -1.0739  0.7062
  885MOL0     H22066   7.413   8.421   3.616  2.0641  0.4505 -0.5928
  885MOL0     H22067   7.200   8.464   3.555 -2.1530  0.4015 -2.2867
  885MOL0     H22068   7.237   8.488   3.388 -1.4852 -1.7703 -0.7913
  885MOL0     H22069   7.242   8.254   3.332 -0.6325 -2.3302 -0.0627
  885MOL0     H22070   7.201   8.215   3.501 -1.1575  1.0487  1.7645
  885MOL0     H22071   7.030   8.395   3.316  0.1951  2.7039  3.1140
  885MOL0     H22072   6.989   8.335   3.474 -2.4977  0.4824 -1.4459
  885MOL0     H22073   6.974   8.094   3.422 -3.5211 -3.8026 -2.4000
  885MOL0     H22074   6.877   8.187   3.322  0.9292 -0.9128  1.2457
  885MOL0     H22075   7.159   8.086   3.251 -0.0185 -0.0847  0.6373
  885MOL0     H22076   7.057   8.181   3.131 -2.5388 -0.9439 -0.6753
  885MOL0     H22077   6.900   7.981   3.148 -0.5861 -1.0384  1.2588
  885MOL0     H22078   7.067   7.962   3.071  2.6116  0.3873  0.8742
  885MOL0     H22079   6.865   7.864   3.365  0.7087  1.7877 -0.1590
  885MOL0     H22080   6.920   7.685   3.568  1.6617 -0.5731  1.0848
  885MOL0     H22081   7.069   7.602   3.574 -2.5212 -3.2684  2.6271
  885MOL0     H22082   6.886   7.447   3.533  0.4519 -1.3452 -0.5725
  885MOL0     H22083   6.834   7.542   3.390 -2.4618 -1.9452  0.5715
  885MOL0     H22084   7.066   7.482   3.296 -1.1199 -0.5543 -1.3300
  885MOL0     H22085   7.095   7.387   3.441 -0.0452  1.7862  0.8955
  885MOL0     H22086   7.016   7.234   3.247  1.1069  1.4575  1.1673
  885MOL0     H22087   6.914   7.225   3.391  1.1164  0.6946  1.3024
  885MOL0     H22088   6.622   7.427   3.103 -2.0679 -0.7637 -0.5669
  885MOL0     H22089   6.482   7.459   2.949  3.4995  0.0772  2.8380
  885MOL0     H22090   6.409   7.321   2.866 -1.8078  4.2920 -2.7010
  885MOL0     H22091   6.543   7.408   2.801  1.1653  0.2797  1.1839
  885MOL0     H22092   6.760   7.025   2.529 -0.3564  0.9633 -0.6962
  885MOL0     H22093   6.717   6.924   2.320  1.7928 -0.5817  0.8364
  885MOL0     H22094   6.634   6.833   2.130  0.3084  0.4374  3.4090
  885MOL0     H22095   6.722   6.687   2.179  0.7720 -1.1219 -0.7929
  885MOL0     H22096   6.640   6.680   1.949  2.4912 -3.1658  0.6029
  885MOL0     H22097   6.578   6.544   2.035 -1.4135  0.1249 -2.0001
  885MOL0     H22098   6.404   6.777   2.047 -4.2864 -1.4752  0.0444
  885MOL0     H22099   6.367   6.601   2.049  0.5970  0.7282  1.2268
  885MOL0     H22100   6.418   6.577   1.812  0.8707 -0.8091  1.6037
  885MOL0     H22101   6.456   6.754   1.807  0.4286 -0.6041 -1.7090
  885MOL0     H22102   6.227   6.809   1.862  0.7689  0.9326 -1.9168
  885MOL0     H22103   6.250   6.736   1.703  0.0789 -3.6482 -0.2899
  885MOL0     H22104   6.138   6.585   1.954 -0.4236  1.2398  0.6409
  885MOL0     H22105   6.208   6.512   1.814  0.4190  0.7145 -1.5428
  885MOL0     H22106   5.981   6.510   1.764  1.0398  0.4969 -0.9471
  885MOL0     H22107   6.035   6.653   1.666 -2.0776 -3.1771 -2.4658
  885MOL0     H22108   5.980   6.812   1.860 -2.4938  0.7158  0.7216
  885MOL0     H22109   5.914   6.673   1.950  2.4204  3.6860  1.5645
  885MOL0     H22110   6.415   6.672   2.496 -0.4664  0.4461 -2.6245
  885MOL0     H22111   6.477   6.782   2.727  1.9643  3.5932  1.1719
  885MOL0     H22112   6.785   6.985   2.968  1.2648  1.5754 -2.4572
  885MOL0     H22113   6.888   7.092   3.140  0.0272 -0.5300 -0.0571
  885MOL0     H22114   7.603   8.815   3.656  0.4374 -0.0714  0.1518
  885MOL0     H22115   7.771   9.003   3.581 -0.7069  1.3967 -0.2638
  885MOL0     H22116   8.121   9.137   3.317 -3.9913 -0.7566  0.2891
  885MOL0     H22117   8.287   9.299   3.240 -0.3069 -1.8829 -0.7470
  885MOL0     H22118   8.430   9.408   3.095 -0.6731  0.6475  0.9908
  885MOL0     H22119   8.367   9.304   2.974 -0.3385 -0.5847  2.7259
  885MOL0     H22120   8.540   9.455   2.875  0.0407  1.2893 -1.2226
  885MOL0     H22121   8.433   9.593   2.880  0.3588 -0.3359  0.9102
  885MOL0     H22122   8.400   9.336   2.725 -0.6935  0.1177 -0.4617
  885MOL0     H22123   8.267   9.443   2.755  0.4296  0.9815  0.2321
  885MOL0     H22124   8.520   9.571   2.655  0.1836  1.0524 -2.8211
  885MOL0     H22125   8.362   9.633   2.661 -1.6051 -0.0828  1.3586
  885MOL0     H22126   8.339   9.415   2.290  0.1168  0.8298 -0.4120
  885MOL0     H22127   7.987   9.500   3.018  0.7027 -0.2696  0.7960
  885MOL0     H22128   7.737   9.268   3.008  1.3707 -0.1421 -0.5455
  885MOL0     H22129   7.708   9.366   3.150  0.6335 -2.2569  2.3383
  885MOL0     H22130   7.786   9.434   3.004  1.6629 -0.7615  1.3519
  886MOL0     O22131   6.777  10.132   1.763  0.1262 -0.5407 -0.1609
  886MOL0     C22132   6.894  10.150   1.817  0.1128 -0.7672 -0.6692
  886MOL0     O22133   6.925  10.133   1.957  0.6874  0.6162  0.4615
  886MOL0     C22134   6.824  10.065   2.027  0.0389  0.5111  0.0110
  886MOL0     C22135   6.841   9.934   2.086  0.7007 -0.2330  0.5157
  886MOL0     C22136   6.738   9.885   2.171  0.3030  1.0372  0.7496
  886MOL0     C22137   6.619   9.955   2.184  0.2046  0.4000  1.3630
  886MOL0     O22138   6.535   9.915   2.275  0.3921  0.6669 -0.0966
  886MOL0     C22139   6.392   9.923   2.237 -0.2140  0.0183 -0.3692
  886MOL0     C22140   6.313  10.041   2.299  0.1415 -0.0776 -0.7197
  886MOL0     C22141   6.170  10.014   2.300 -0.1422  0.2416 -0.2035
  886MOL0     C22142   6.087  10.119   2.397  0.2335 -0.7863  0.9326
  886MOL0     C22143   5.939  10.078   2.406 -0.1811  0.3790 -0.7331
  886MOL0     C22144   5.860  10.153   2.528 -0.4784  0.3415 -0.0265
  886MOL0     C22145   5.723  10.123   2.539  0.2297 -0.2958 -0.0479
  886MOL0     C22146   5.689   9.978   2.575  0.0531  0.1942 -0.7268
  886MOL0     N22147   5.544   9.946   2.591  0.3280  0.7816 -0.8080
  886MOL0     C22148   5.454   9.901   2.496  0.1439  0.4904  0.3005
  886MOL0     C22149   5.333   9.893   2.558  0.6460 -0.6940 -0.3036
  886MOL0     C22150   5.201   9.832   2.508  0.5920 -0.7589  0.1477
  886MOL0     C22151   5.113   9.917   2.422 -0.5787  0.4174 -1.2237
  886MOL0     C22152   4.981   9.857   2.381  0.2678 -0.6045  0.4109
  886MOL0     C22153   4.888   9.961   2.321  0.1511 -1.0693 -0.2819
  886MOL0     O22154   4.826  10.014   2.432 -0.1680 -0.0267 -0.4151
  886MOL0     C22155   4.732  10.109   2.403  0.3994  0.1173 -1.0747
  886MOL0     C22156   4.637  10.134   2.501  0.2178  0.0670 -0.0186
  886MOL0     C22157   4.534  10.229   2.490 -0.2871 -0.0601  0.2658
  886MOL0     C22158   4.437  10.260   2.594 -0.4603 -0.7792 -0.5809
  886MOL0     C22159   4.532  10.304   2.367  0.3920  0.3208  0.4063
  886MOL0     C22160   4.429  10.404   2.345  1.0622 -0.0782  0.7049
  886MOL0     O22161   4.296  10.354   2.356  0.0474 -0.0871 -0.2819
  886MOL0     C22162   4.192  10.445   2.321  1.0565  0.1084  0.4628
  886MOL0     C22163   4.100  10.472   2.429 -0.1406 -0.6298 -0.7175
  886MOL0     C22164   3.991  10.562   2.406 -0.4571  0.1041  0.4327
  886MOL0     C22165   3.962  10.625   2.274 -0.4847  0.2098 -0.4429
  886MOL0     O22166   3.849  10.694   2.252  0.6494  0.1383 -0.1351
  886MOL0     C22167   3.844  10.803   2.164  0.1139 -0.0454 -0.3496
  886MOL0     C22168   3.746  10.906   2.236  1.0005  0.7124  0.5487
  886MOL0     C22169   3.604  10.848   2.234 -0.1728 -0.1515  0.5328
  886MOL0     C22170   3.486  10.944   2.277 -0.4429  0.6290 -0.0409
  886MOL0     C22171   3.444  11.030   2.157 -0.4458 -0.3269 -0.2847
  886MOL0     C22172   3.314  11.116   2.176  0.0513 -0.2758 -0.3613
  886MOL0     C22173   3.183  11.048   2.188 -0.3686 -0.2144 -0.0024
  886MOL0     C22174   3.074  11.152   2.165  0.8161  0.7089  0.7585
  886MOL0    Cl22175   3.057  11.187   1.992 -0.5532 -0.1353  0.1810
  886MOL0     C22176   4.055  10.593   2.172  0.7160 -1.1282  0.8800
  886MOL0     C22177   4.164  10.503   2.193  0.1488 -0.0020 -0.4599
  886MOL0     O22178   4.466  10.512   2.305 -0.1961  0.1352  0.1492
  886MOL0     C22179   4.631  10.283   2.272 -0.3930  0.0125  0.3805
  886MOL0     C22180   4.724  10.183   2.284 -0.1343  0.0150 -0.4336
  886MOL0     N22181   5.341   9.953   2.683  0.0153  0.2630  0.3832
  886MOL0     N22182   5.466   9.984   2.699  0.5298 -0.5943 -0.3606
  886MOL0     C22183   6.603  10.077   2.124 -0.3715 -0.6491 -0.2313
  886MOL0     C22184   6.704  10.129   2.045 -0.1610  0.7140  0.6785
  886MOL0     C22185   7.006  10.211   1.736 -0.4658 -0.6733  0.1049
  886MOL0     C22186   6.990  10.225   1.600 -0.2884 -0.0014 -0.4628
  886MOL0     C22187   7.091  10.262   1.512  0.0577 -0.3571 -0.0781
  886MOL0     C22188   7.218  10.284   1.561 -0.2573  0.0768 -0.2207
  886MOL0     O22189   7.341  10.306   1.496  0.3383  0.4151  0.4239
  886MOL0     C22190   7.334  10.369   1.367 -0.6519 -0.2261  0.2126
  886MOL0     C22191   7.487  10.417   1.347  1.1853 -0.1822  0.5522
  886MOL0     C22192   7.510  10.492   1.215 -0.1803  0.7799  0.6149
  886MOL0     C22193   7.511  10.405   1.092 -0.4895  0.3139  0.3203
  886MOL0     C22194   7.637  10.317   1.094  0.0677  0.0694  0.1327
  886MOL0     C22195   7.734  10.242   1.077 -0.3227  0.1315 -0.1552
  886MOL0     C22196   7.241  10.280   1.696  1.4295  0.6064  0.1517
  886MOL0     C22197   7.139  10.246   1.784 -0.6059  0.0833 -0.1156
  886MOL0     C22198   7.170  10.265   1.934 -0.3710 -0.2906  0.0810
  886MOL0     H22199   6.937   9.886   2.068 -0.2822 -2.7197  1.4694
  886MOL0     H22200   6.755   9.789   2.219 -3.1673 -1.0014 -1.6538
  886MOL0     H22201   6.346   9.827   2.263 -1.3741  0.1254 -1.9194
  886MOL0     H22202   6.377   9.929   2.129  0.2088 -2.6428 -0.6404
  886MOL0     H22203   6.349  10.053   2.402  0.9008  1.4858 -1.1377
  886MOL0     H22204   6.331  10.138   2.252  0.5024  0.1801 -0.0604
  886MOL0     H22205   6.141  10.011   2.194  0.9421  0.2347 -0.5156
  886MOL0     H22206   6.160   9.912   2.340  2.3883  0.0885  0.2053
  886MOL0     H22207   6.146  10.125   2.488 -0.2372 -0.3229  1.2131
  886MOL0     H22208   6.091  10.220   2.355  0.5700 -0.8726  0.7559
  886MOL0     H22209   5.938   9.969   2.413 -0.4171  0.4661  1.4328
  886MOL0     H22210   5.885  10.093   2.312  1.5157 -3.9229 -2.6515
  886MOL0     H22211   5.901  10.123   2.625 -0.6854 -1.5838 -0.4809
  886MOL0     H22212   5.874  10.261   2.522 -0.5313  0.6511  3.4343
  886MOL0     H22213   5.670  10.142   2.445  1.4267  3.4511 -0.1400
  886MOL0     H22214   5.695  10.195   2.616  1.1002  1.5940 -1.4218
  886MOL0     H22215   5.733   9.909   2.502 -0.7692  0.6594 -1.6892
  886MOL0     H22216   5.727   9.944   2.671  0.0746 -1.3133 -1.2447
  886MOL0     H22217   5.480   9.882   2.392 -0.9566  1.3952 -0.1648
  886MOL0     H22218   5.149   9.799   2.599 -1.4895 -1.1791 -1.1341
  886MOL0     H22219   5.212   9.743   2.446  1.9898  1.1446 -2.5840
  886MOL0     H22220   5.089  10.007   2.480  2.4289 -0.8674  2.4451
  886MOL0     H22221   5.175   9.938   2.334  0.3827 -0.7718 -0.8652
  886MOL0     H22222   5.011   9.783   2.305 -0.1760 -1.0456  0.6629
  886MOL0     H22223   4.925   9.808   2.460 -1.4965 -0.0254 -0.4233
  886MOL0     H22224   4.942  10.042   2.269  0.3281 -1.7989 -1.2581
  886MOL0     H22225   4.816   9.926   2.247 -0.4835 -0.5084  0.0584
  886MOL0     H22226   4.659  10.087   2.596  4.5847  0.3597 -0.6959
  886MOL0     H22227   4.334  10.231   2.570 -0.5939 -0.1362 -0.8016
  886MOL0     H22228   4.415  10.365   2.613 -3.6801 -1.7225  2.1038
  886MOL0     H22229   4.470  10.212   2.687  1.1999 -0.1588 -0.8269
  886MOL0     H22230   4.110  10.437   2.532 -0.0709  1.5324  0.0583
  886MOL0     H22231   3.913  10.578   2.479 -1.9782 -4.2725  0.0255
  886MOL0     H22232   3.943  10.848   2.154  1.0368 -1.6027  1.2368
  886MOL0     H22233   3.800  10.770   2.070 -0.6979  1.2650 -0.4614
  886MOL0     H22234   3.771  10.934   2.339  1.5147  1.7729  0.1407
  886MOL0     H22235   3.752  11.002   2.185 -0.0220  0.4598 -0.0776
  886MOL0     H22236   3.601  10.756   2.292  4.1786  0.4623  2.0968
  886MOL0     H22237   3.581  10.806   2.136 -2.3172  2.1819 -0.0837
  886MOL0     H22238   3.536  11.008   2.350 -0.2109 -1.4652  1.7443
  886MOL0     H22239   3.407  10.892   2.333  2.1315 -1.0351  2.3553
  886MOL0     H22240   3.526  11.093   2.119  2.3467 -2.3460  2.0106
  886MOL0     H22241   3.414  10.967   2.073  0.0415 -0.1697 -0.5841
  886MOL0     H22242   3.311  11.178   2.086 -2.0339 -0.6169 -0.5701
  886MOL0     H22243   3.330  11.169   2.270 -2.1768 -1.3502  0.7041
  886MOL0     H22244   3.190  11.006   2.288  0.3635  5.8255  2.9325
  886MOL0     H22245   3.169  10.981   2.103 -0.0581  1.1581 -1.1771
  886MOL0     H22246   3.116  11.236   2.221  4.0625 -2.1228  2.8936
  886MOL0     H22247   2.978  11.121   2.208  1.2860 -1.8956  0.0551
  886MOL0     H22248   4.044  10.634   2.072 -2.0207 -1.6786  0.8876
  886MOL0     H22249   4.219  10.481   2.102  0.6789  1.7060 -0.5832
  886MOL0     H22250   4.633  10.333   2.176 -1.2008 -1.1388 -0.2690
  886MOL0     H22251   4.807  10.177   2.215  2.9001  0.7886  2.8754
  886MOL0     H22252   6.511  10.135   2.121  0.7047  1.1467 -0.0636
  886MOL0     H22253   6.690  10.224   1.995 -0.7916  0.8788  1.1529
  886MOL0     H22254   6.890  10.210   1.560 -0.6969 -2.8232  1.3287
  886MOL0     H22255   7.067  10.275   1.407 -0.3280  0.2564  0.0877
  886MOL0     H22256   7.295  10.297   1.295  1.9671 -2.8271  1.2052
  886MOL0     H22257   7.274  10.460   1.375 -1.3053 -0.6362  0.0064
  886MOL0     H22258   7.556  10.332   1.350  0.1059 -1.4121 -3.5147
  886MOL0     H22259   7.517  10.475   1.434  1.7471 -0.3543  0.4785
  886MOL0     H22260   7.438  10.572   1.199  2.0411  2.7865  0.0587
  886MOL0     H22261   7.607  10.542   1.218 -1.8067  4.2373  0.9751
  886MOL0     H22262   7.518  10.479   1.011 -0.2639  1.7730  1.6350
  886MOL0     H22263   7.428  10.340   1.063  0.6050 -0.9461 -0.0744
  886MOL0     H22264   7.807  10.179   1.031 -1.2207  0.2258 -1.8122
  886MOL0     H22265   7.340  10.293   1.739  2.3221 -2.2097 -0.8298
  886MOL0     H22266   7.191  10.170   1.983 -0.5659 -1.0828 -1.3116
  886MOL0     H22267   7.258  10.329   1.945  0.3713 -0.8193 -2.2719
  886MOL0     H22268   7.087  10.317   1.983  0.7491  2.7504 -0.9793
  887MOL0     O22269   9.871   7.694   6.758  0.1238  0.9071  0.6300
  887MOL0     C22270   9.856   7.785   6.676 -0.8015 -0.0913  0.0399
  887MOL0     O22271   9.834   7.761   6.543  0.7685 -0.1343  0.2022
  887MOL0     C22272   9.781   7.641   6.512  0.9580  0.7565  1.2563
  887MOL0     C22273   9.855   7.528   6.475  0.2576  0.5795  0.0501
  887MOL0     C22274   9.784   7.414   6.438  0.3474  0.1448 -0.4511
  887MOL0     C22275   9.647   7.404   6.442  0.5506  0.0125  0.0244
  887MOL0     O22276   9.570   7.302   6.392 -0.6841 -0.3900  0.4263
  887MOL0     C22277   9.596   7.171   6.440 -0.3594  1.2126 -0.2640
  887MOL0     C22278   9.472   7.083   6.415 -0.4720  0.2279 -0.6724
  887MOL0     C22279   9.452   7.064   6.264  0.7287  0.0176 -0.2518
  887MOL0     C22280   9.448   6.914   6.235  0.1426 -0.7590 -0.3950
  887MOL0     C22281   9.405   6.906   6.088 -0.2152 -0.6245  0.2943
  887MOL0     C22282   9.388   6.759   6.047 -0.1522 -1.0850 -0.1454
  887MOL0     C22283   9.376   6.752   5.900 -0.6965  0.4533 -0.2708
  887MOL0     C22284   9.424   6.618   5.837 -0.3916 -0.0557 -0.2406
  887MOL0     N22285   9.360   6.508   5.901  0.4732  0.1345  0.1664
  887MOL0     C22286   9.419   6.408   5.981 -0.2979 -0.8603  0.3617
  887MOL0     C22287   9.345   6.302   5.961 -0.2598  0.5876 -0.4402
  887MOL0     C22288   9.390   6.171   6.006  0.4712  0.4135  0.1952
  887MOL0     C22289   9.416   6.069   5.886 -0.0883  0.1826  0.5615
  887MOL0     C22290   9.497   5.950   5.940 -0.2698 -0.7513 -0.3568
  887MOL0     C22291   9.422   5.885   6.055 -0.3001  0.3009 -0.2599
  887MOL0     O22292   9.308   5.829   5.990  0.0647  0.8166 -0.3957
  887MOL0     C22293   9.208   5.796   6.082  0.0652  0.1517 -0.8011
  887MOL0     C22294   9.206   5.701   6.187 -0.2714 -0.1960  0.0849
  887MOL0     C22295   9.092   5.671   6.266  0.8770 -0.3233 -0.1044
  887MOL0     C22296   9.114   5.553   6.364  0.4771 -0.4182 -0.8871
  887MOL0     C22297   8.971   5.743   6.252  0.6761  0.7385  0.9104
  887MOL0     C22298   8.837   5.691   6.309  0.3147 -0.6973  0.2450
  887MOL0     O22299   8.740   5.790   6.320  0.0445 -0.0673 -0.1214
  887MOL0     C22300   8.611   5.749   6.348 -0.0131 -0.8004 -0.7877
  887MOL0     C22301   8.528   5.688   6.252 -1.1515  0.7356 -0.0139
  887MOL0     C22302   8.393   5.654   6.277 -0.4473  0.1504 -0.4400
  887MOL0     C22303   8.340   5.677   6.410 -0.6935 -0.4027  1.0605
  887MOL0     O22304   8.225   5.638   6.463 -0.3956  0.1167  0.3002
  887MOL0     C22305   8.151   5.533   6.388 -0.0032 -0.2137 -0.0544
  887MOL0     C22306   8.055   5.456   6.486  0.0684 -0.2452  0.3684
  887MOL0     C22307   7.980   5.352   6.399  0.0214  0.3837 -0.4142
  887MOL0     C22308   7.857   5.281   6.449 -0.2184 -0.5437  0.6346
  887MOL0     C22309   7.820   5.164   6.351 -0.3202 -0.2732  0.0156
  887MOL0     C22310   7.748   5.223   6.220 -0.6158  0.7975 -0.0228
  887MOL0     C22311   7.678   5.107   6.144 -1.2134 -0.9038  0.7128
  887MOL0     C22312   7.618   5.157   6.014 -0.4030 -0.8639 -1.0477
  887MOL0    Cl22313   7.540   5.033   5.920  0.3109  0.1837  0.2126
  887MOL0     C22314   8.422   5.744   6.499  0.7603 -0.7486 -0.3803
  887MOL0     C22315   8.556   5.786   6.470 -0.1918  1.2949  0.3525
  887MOL0     O22316   8.818   5.576   6.341 -0.5049 -0.1822  0.2786
  887MOL0     C22317   8.972   5.841   6.150 -0.4228 -0.2034  0.9822
  887MOL0     C22318   9.088   5.871   6.072  0.4466 -0.6922  0.4239
  887MOL0     N22319   9.240   6.336   5.884  0.1290 -0.5786  0.6409
  887MOL0     N22320   9.247   6.455   5.847  0.4269  0.3912 -0.2000
  887MOL0     C22321   9.574   7.516   6.482  0.4509 -0.5923 -0.5686
  887MOL0     C22322   9.638   7.629   6.526 -0.5297 -0.0804 -0.2746
  887MOL0     C22323   9.852   7.932   6.718 -0.1570  0.1733  0.6320
  887MOL0     C22324   9.915   8.015   6.623 -0.6289 -0.1415  0.5994
  887MOL0     C22325   9.919   8.158   6.649 -0.0459  0.1777 -0.4061
  887MOL0     C22326   9.882   8.209   6.773 -0.0899  0.8864  0.1908
  887MOL0     O22327   9.902   8.339   6.792  0.0546  0.4246 -1.2824
  887MOL0     C22328   9.807   8.433   6.741  0.1784 -0.3083  0.4193
  887MOL0     C22329   9.735   8.486   6.868 -0.9250  0.9016  0.2993
  887MOL0     C22330   9.822   8.559   6.967 -0.2751 -0.0223  1.1667
  887MOL0     C22331   9.878   8.695   6.908 -0.5878 -0.7595  0.0706
  887MOL0     C22332   9.781   8.799   6.863  0.2431 -0.6750 -0.7660
  887MOL0     C22333   9.687   8.875   6.828 -0.5910 -0.1005 -0.5721
  887MOL0     C22334   9.826   8.116   6.864 -0.3877  0.3596 -0.4818
  887MOL0     C22335   9.812   7.984   6.837 -0.5424 -0.0727  0.4440
  887MOL0     C22336   9.743   7.894   6.929  0.4195 -0.0524  0.0264
  887MOL0     H22337   9.962   7.545   6.487  0.3799  1.7593 -2.2248
  887MOL0     H22338   9.830   7.324   6.397 -1.7657 -0.3707 -1.8213
  887MOL0     H22339   9.598   7.173   6.550 -0.0317  1.7991 -0.2795
  887MOL0     H22340   9.684   7.118   6.403 -0.6397 -1.4472  2.3820
  887MOL0     H22341   9.484   6.987   6.466 -3.0172 -1.7622 -3.4824
  887MOL0     H22342   9.390   7.140   6.459  0.3689  2.4640 -1.7950
  887MOL0     H22343   9.353   7.108   6.245  1.4988  2.1872  0.4407
  887MOL0     H22344   9.535   7.108   6.208  0.9173 -1.2845 -1.0448
  887MOL0     H22345   9.544   6.862   6.248 -0.0895 -1.3073 -0.8619
  887MOL0     H22346   9.385   6.860   6.305  0.5930 -0.0070  0.6168
  887MOL0     H22347   9.480   6.959   6.029  0.0039  1.1510  2.0444
  887MOL0     H22348   9.307   6.953   6.074  0.0534 -0.6650 -2.1745
  887MOL0     H22349   9.473   6.700   6.084  2.0682  2.1396  0.3204
  887MOL0     H22350   9.294   6.727   6.092 -2.4767  2.7275 -1.8308
  887MOL0     H22351   9.435   6.829   5.850  0.4122 -0.8125 -0.9844
  887MOL0     H22352   9.269   6.765   5.880 -1.0787 -1.3149  0.4691
  887MOL0     H22353   9.411   6.626   5.729 -1.1089  1.6513 -0.0446
  887MOL0     H22354   9.529   6.595   5.861 -1.2205 -0.2465  3.8833
  887MOL0     H22355   9.523   6.410   6.013  0.0103  0.3972 -0.6298
  887MOL0     H22356   9.329   6.134   6.089 -0.5005  1.4944 -0.0257
  887MOL0     H22357   9.488   6.185   6.054  1.7358 -2.3543 -1.2864
  887MOL0     H22358   9.317   6.033   5.858  0.2582 -1.1207  0.9294
  887MOL0     H22359   9.463   6.111   5.797 -2.8903  0.4142 -0.9188
  887MOL0     H22360   9.522   5.877   5.863  2.6922 -0.0870 -0.1199
  887MOL0     H22361   9.586   6.008   5.965 -2.5310  2.8190  0.1852
  887MOL0     H22362   9.485   5.806   6.098 -3.2792 -0.6962  2.6108
  887MOL0     H22363   9.384   5.952   6.132  1.0792 -0.5173  1.2008
  887MOL0     H22364   9.296   5.643   6.205  0.2099 -0.4549 -2.7041
  887MOL0     H22365   9.178   5.598   6.440  0.2689  1.5250 -1.7930
  887MOL0     H22366   9.161   5.468   6.313 -2.2567 -0.7697 -3.0727
  887MOL0     H22367   9.028   5.513   6.420  1.4707 -1.4768 -0.0678
  887MOL0     H22368   8.583   5.665   6.160 -3.6254  0.7824 -1.5903
  887MOL0     H22369   8.341   5.600   6.198  3.8557 -0.5094 -3.2029
  887MOL0     H22370   8.086   5.591   6.321  1.5834 -1.0535 -2.4585
  887MOL0     H22371   8.212   5.457   6.339  1.7617 -0.3172  2.1595
  887MOL0     H22372   8.131   5.415   6.553  2.0193  1.4328 -0.7055
  887MOL0     H22373   7.993   5.530   6.539  0.3862  0.3747 -0.1112
  887MOL0     H22374   8.048   5.276   6.357  2.8834  0.8231  2.9243
  887MOL0     H22375   7.945   5.407   6.311 -0.0722  1.6943  0.4245
  887MOL0     H22376   7.775   5.353   6.459  0.7566  0.3655  2.8928
  887MOL0     H22377   7.876   5.235   6.547  1.0513 -0.9690  0.2020
  887MOL0     H22378   7.906   5.105   6.318  0.2762  1.9088 -2.6583
  887MOL0     H22379   7.750   5.094   6.398 -1.8342  0.4844 -1.0258
  887MOL0     H22380   7.813   5.267   6.145 -1.7222  0.1715 -1.3979
  887MOL0     H22381   7.667   5.290   6.251  1.0345  3.5797 -1.3847
  887MOL0     H22382   7.595   5.054   6.192 -2.9783 -3.2425 -4.1781
  887MOL0     H22383   7.753   5.029   6.130 -1.8852 -1.6255  1.0801
  887MOL0     H22384   7.685   5.215   5.949 -1.1077  3.0109  1.3066
  887MOL0     H22385   7.535   5.224   6.040  0.6179  0.3534 -0.8218
  887MOL0     H22386   8.388   5.758   6.601 -1.4839  0.5684 -1.2471
  887MOL0     H22387   8.626   5.828   6.542 -0.2212 -0.0022  1.1667
  887MOL0     H22388   8.874   5.880   6.124 -1.6731 -2.1736  2.4034
  887MOL0     H22389   9.080   5.948   5.996 -0.8171  0.4376  1.6423
  887MOL0     H22390   9.466   7.517   6.479  0.4046  0.6309  0.6060
  887MOL0     H22391   9.574   7.712   6.555 -0.7743  1.5862 -4.6860
  887MOL0     H22392   9.959   7.978   6.531  3.4759  1.2131  1.8125
  887MOL0     H22393   9.970   8.231   6.586  1.7153 -0.3319  0.3502
  887MOL0     H22394   9.861   8.512   6.688 -0.6892  0.5892  0.8407
  887MOL0     H22395   9.741   8.390   6.666 -1.3179  0.7617  1.0585
  887MOL0     H22396   9.685   8.409   6.928  2.1674  0.0156  1.9523
  887MOL0     H22397   9.653   8.546   6.827 -0.0613  0.4319 -2.3511
  887MOL0     H22398   9.763   8.577   7.058 -0.5137 -1.9285  1.4318
  887MOL0     H22399   9.910   8.502   6.996  1.8898  1.1599 -2.4134
  887MOL0     H22400   9.934   8.675   6.816 -2.6189 -1.3992 -1.0906
  887MOL0     H22401   9.943   8.747   6.979  0.1808  3.1957 -3.1242
  887MOL0     H22402   9.611   8.945   6.801 -1.0919  0.7228  2.6130
  887MOL0     H22403   9.786   8.162   6.953  0.8346  0.1178  0.2132
  887MOL0     H22404   9.814   7.827   6.977 -1.8035 -2.4946  0.1642
  887MOL0     H22405   9.705   7.954   7.013  0.0741  0.8958 -0.7828
  887MOL0     H22406   9.666   7.830   6.884 -0.4940  1.5179 -0.7618
  888MOL0     O22407   9.493   6.233   3.992 -0.1598  0.8667 -0.1185
  888MOL0     C22408   9.602   6.191   3.956 -0.3283  0.8437 -0.7252
  888MOL0     O22409   9.649   6.059   3.985  0.4084  0.4098  0.0386
  888MOL0     C22410   9.580   5.982   4.080  0.1378 -0.3224 -0.0251
  888MOL0     C22411   9.664   5.917   4.170 -0.2581  0.3549 -0.7348
  888MOL0     C22412   9.611   5.851   4.289  0.7812  0.1028  0.5138
  888MOL0     C22413   9.480   5.856   4.320  0.6304 -0.8579 -0.0341
  888MOL0     O22414   9.444   5.801   4.439  0.0463  0.5861 -0.3438
  888MOL0     C22415   9.305   5.812   4.480 -0.0550 -0.5495 -0.4939
  888MOL0     C22416   9.274   5.772   4.625  0.5867 -0.0894  0.4434
  888MOL0     C22417   9.126   5.730   4.643 -0.6348 -0.7151  0.2918
  888MOL0     C22418   9.087   5.631   4.757 -0.0593  0.6698 -0.2836
  888MOL0     C22419   9.140   5.658   4.896 -1.0356 -0.8065  0.0577
  888MOL0     C22420   9.080   5.790   4.949 -0.0370  0.5310  0.3605
  888MOL0     C22421   9.174   5.831   5.068 -0.3473 -1.2376 -0.0260
  888MOL0     C22422   9.133   5.971   5.128  0.3630 -0.6544 -0.1607
  888MOL0     N22423   8.995   5.998   5.141 -0.0100 -0.6927  0.4379
  888MOL0     C22424   8.914   5.976   5.252 -0.4324  0.2349  0.2069
  888MOL0     C22425   8.804   6.047   5.217 -0.6646  0.3410  0.0348
  888MOL0     C22426   8.691   6.063   5.318 -0.1362  0.0222 -0.6916
  888MOL0     C22427   8.598   5.942   5.309 -0.4732  0.2027 -0.0049
  888MOL0     C22428   8.511   5.958   5.187  0.8907  0.8045 -0.7519
  888MOL0     C22429   8.403   5.849   5.199  0.0052  0.1408 -0.2434
  888MOL0     O22430   8.271   5.898   5.240  0.0372  0.0436  0.7309
  888MOL0     C22431   8.180   5.806   5.278  0.8402 -1.5020 -0.3897
  888MOL0     C22432   8.062   5.848   5.349 -0.2885  0.8883  0.4083
  888MOL0     C22433   7.967   5.755   5.396 -0.7423 -0.6664 -0.4742
  888MOL0     C22434   7.848   5.829   5.457 -0.2845  0.5918  0.3648
  888MOL0     C22435   7.971   5.615   5.368 -0.0771 -0.1567  0.1512
  888MOL0     C22436   7.860   5.515   5.400  0.1424  0.1105  0.7751
  888MOL0     O22437   7.899   5.385   5.422 -0.6762 -0.1012 -0.5561
  888MOL0     C22438   7.815   5.277   5.422  0.6977  0.6816  0.1272
  888MOL0     C22439   7.736   5.239   5.306  0.3005 -0.1408 -0.2953
  888MOL0     C22440   7.656   5.119   5.308 -0.4777 -0.1194  0.1300
  888MOL0     C22441   7.653   5.039   5.419 -0.7114  0.0525 -0.5695
  888MOL0     O22442   7.569   4.933   5.407  0.8149  0.3944 -0.3556
  888MOL0     C22443   7.579   4.813   5.494 -0.3371 -0.8259  0.5914
  888MOL0     C22444   7.460   4.721   5.460  0.5127 -0.6526  0.1216
  888MOL0     C22445   7.475   4.667   5.316  0.1131 -1.1024  0.8664
  888MOL0     C22446   7.587   4.558   5.314  0.3681 -0.1978 -0.4246
  888MOL0     C22447   7.602   4.497   5.176 -1.0590 -0.3915 -0.3758
  888MOL0     C22448   7.487   4.419   5.130  0.4696  0.2437  0.4511
  888MOL0     C22449   7.518   4.370   4.985 -0.5446  0.2753  0.7330
  888MOL0     C22450   7.406   4.289   4.920  0.5378 -0.3200  0.2377
  888MOL0    Cl22451   7.402   4.138   5.029 -0.3776 -0.1053 -0.2846
  888MOL0     C22452   7.736   5.069   5.535 -0.5957 -0.2256 -0.3773
  888MOL0     C22453   7.807   5.190   5.533 -0.4352 -0.1124  0.5609
  888MOL0     O22454   7.744   5.540   5.362  0.3233 -0.4332  0.5193
  888MOL0     C22455   8.087   5.574   5.297  0.8850 -0.5443  0.2172
  888MOL0     C22456   8.183   5.664   5.252  0.7861 -0.2218 -0.0809
  888MOL0     N22457   8.804   6.086   5.086  0.0570 -0.0562 -0.4482
  888MOL0     N22458   8.923   6.063   5.041  0.0770  0.0791  0.2438
  888MOL0     C22459   9.393   5.908   4.219  1.1704  0.4430 -0.6603
  888MOL0     C22460   9.440   5.970   4.106  0.0832 -0.5908  0.4702
  888MOL0     C22461   9.681   6.276   3.859  0.7004 -0.0847 -1.0190
  888MOL0     C22462   9.811   6.303   3.891 -0.7269  0.0147 -0.4110
  888MOL0     C22463   9.892   6.366   3.796 -0.9376  0.6694  0.2563
  888MOL0     C22464   9.840   6.416   3.670 -0.1637 -0.0933  0.0664
  888MOL0     O22465   9.895   6.504   3.583  0.1235  0.4710  0.4890
  888MOL0     C22466  10.035   6.551   3.605  0.4236 -0.5195  0.0424
  888MOL0     C22467  10.044   6.673   3.690  0.4377  0.0853 -0.2110
  888MOL0     C22468  10.031   6.810   3.621 -1.3838  0.9425  0.3117
  888MOL0     C22469   9.987   6.798   3.473  0.2997  0.1619 -0.6552
  888MOL0     C22470   9.993   6.928   3.404  0.0853 -0.5839 -0.7642
  888MOL0     C22471   9.992   7.036   3.346  0.9764  0.1684 -0.3819
  888MOL0     C22472   9.709   6.374   3.630 -0.1185 -1.2665  0.1495
  888MOL0     C22473   9.634   6.303   3.727 -0.3359 -0.6496  0.6020
  888MOL0     C22474   9.504   6.252   3.686 -0.7467  0.3387 -0.3673
  888MOL0     H22475   9.771   5.928   4.156  0.0326  0.8605  1.4172
  888MOL0     H22476   9.679   5.805   4.360  0.3202  0.5847  1.2822
  888MOL0     H22477   9.247   5.747   4.414 -0.1844 -2.5689  1.4858
  888MOL0     H22478   9.265   5.913   4.468 -1.0050 -0.9571 -0.8441
  888MOL0     H22479   9.339   5.687   4.647  0.0614 -0.4615  0.5966
  888MOL0     H22480   9.294   5.861   4.686  0.0293  0.3424  0.0090
  888MOL0     H22481   9.069   5.821   4.663  2.0401  1.2219 -0.3128
  888MOL0     H22482   9.087   5.688   4.550  1.7798 -1.6413 -0.3725
  888MOL0     H22483   8.978   5.623   4.761 -0.1061  1.3877  0.0003
  888MOL0     H22484   9.127   5.532   4.731 -2.3924 -1.2152  2.6073
  888MOL0     H22485   9.250   5.662   4.892 -0.9432 -1.6393  1.3109
  888MOL0     H22486   9.108   5.572   4.955 -1.2186 -1.3212 -0.7692
  888MOL0     H22487   9.085   5.862   4.866  2.6506  2.8263  2.3071
  888MOL0     H22488   8.980   5.767   4.986  0.0963 -0.2263  0.2505
  888MOL0     H22489   9.277   5.829   5.030 -0.3411  2.7303 -0.6092
  888MOL0     H22490   9.163   5.749   5.140 -0.8160 -0.3986  0.8881
  888MOL0     H22491   9.186   5.986   5.223  2.1808 -0.9486 -1.0878
  888MOL0     H22492   9.175   6.040   5.054 -0.1205 -1.3308 -1.0790
  888MOL0     H22493   8.935   5.924   5.345 -0.7308 -2.8797 -1.3290
  888MOL0     H22494   8.642   6.160   5.303 -0.3364 -0.2088 -1.5518
  888MOL0     H22495   8.731   6.058   5.420 -0.2937  0.1292 -0.6245
  888MOL0     H22496   8.663   5.855   5.315 -0.0596  0.5907  1.7294
  888MOL0     H22497   8.531   5.939   5.396 -1.4950 -1.5325 -0.8016
  888MOL0     H22498   8.467   6.057   5.175  1.1136  1.3290  1.9497
  888MOL0     H22499   8.567   5.931   5.097  1.2831 -0.4272 -0.1598
  888MOL0     H22500   8.396   5.813   5.096  0.0174  0.6643 -0.4287
  888MOL0     H22501   8.447   5.769   5.260 -2.5628  0.0098  1.5645
  888MOL0     H22502   8.052   5.955   5.357 -1.7623  1.0549 -2.4996
  888MOL0     H22503   7.774   5.848   5.379 -1.1648  5.9369  2.0487
  888MOL0     H22504   7.870   5.928   5.498 -2.2115  0.5949  1.5108
  888MOL0     H22505   7.816   5.772   5.544  1.0998 -0.2788  0.3286
  888MOL0     H22506   7.751   5.292   5.212 -0.8787  2.8809  1.0861
  888MOL0     H22507   7.601   5.106   5.215 -0.0951 -0.6977 -0.0190
  888MOL0     H22508   7.677   4.766   5.481 -0.2874 -0.1985 -1.7668
  888MOL0     H22509   7.575   4.848   5.598  2.5175  0.9047  0.2279
  888MOL0     H22510   7.453   4.643   5.536 -3.4153 -0.6260 -0.0041
  888MOL0     H22511   7.361   4.765   5.473 -0.3326 -1.7258 -2.0723
  888MOL0     H22512   7.485   4.756   5.253 -1.3313 -0.6335  1.2514
  888MOL0     H22513   7.376   4.624   5.299 -0.1994  0.2302 -0.9234
  888MOL0     H22514   7.569   4.480   5.388 -1.6594 -0.0424 -0.7026
  888MOL0     H22515   7.684   4.606   5.331  1.6423 -2.4360 -0.9260
  888MOL0     H22516   7.606   4.585   5.111  0.4254  0.0428  0.2678
  888MOL0     H22517   7.695   4.440   5.165  1.7942  4.0790 -2.5458
  888MOL0     H22518   7.395   4.478   5.121 -1.2474 -2.5407 -2.0845
  888MOL0     H22519   7.468   4.345   5.208 -0.3611  0.3112  0.3207
  888MOL0     H22520   7.605   4.306   4.971 -3.1936 -4.1599  2.5439
  888MOL0     H22521   7.543   4.457   4.923  0.8866 -1.1592 -0.7894
  888MOL0     H22522   7.432   4.263   4.817 -0.6922  1.1541 -0.4774
  888MOL0     H22523   7.314   4.348   4.915  1.2237  0.7087 -0.6565
  888MOL0     H22524   7.760   5.013   5.625 -1.4758  0.8273  0.5478
  888MOL0     H22525   7.878   5.222   5.609 -1.9957  3.0337  0.8715
  888MOL0     H22526   8.097   5.468   5.279 -0.1739 -1.0542  2.3120
  888MOL0     H22527   8.258   5.640   5.177 -1.1362 -1.5098 -1.6951
  888MOL0     H22528   9.286   5.907   4.238  1.6588  1.0767  2.8699
  888MOL0     H22529   9.366   6.003   4.034  1.5260 -3.8778 -2.8116
  888MOL0     H22530   9.847   6.267   3.988 -0.7780 -0.2528 -0.4910
  888MOL0     H22531   9.999   6.381   3.808 -0.5494  0.3667 -2.1925
  888MOL0     H22532  10.090   6.467   3.648  1.1662  0.0878  0.2918
  888MOL0     H22533  10.092   6.575   3.515  1.6096  4.7677  1.8004
  888MOL0     H22534  10.140   6.671   3.743  0.5519 -0.5392 -0.4262
  888MOL0     H22535   9.972   6.681   3.772 -0.1280 -0.6829 -0.6242
  888MOL0     H22536   9.980   6.882   3.685 -3.3784 -0.5898  0.5543
  888MOL0     H22537  10.131   6.853   3.610  0.3830 -2.6698  0.7440
  888MOL0     H22538   9.882   6.767   3.466  0.0642  0.9406 -0.6259
  888MOL0     H22539  10.056   6.739   3.412  1.8706  1.4591 -0.1973
  888MOL0     H22540   9.995   7.126   3.288  0.3027  3.4370  4.1119
  888MOL0     H22541   9.669   6.393   3.531  0.5790 -0.7531 -0.0435
  888MOL0     H22542   9.422   6.299   3.741 -0.9880 -0.8473  0.3374
  888MOL0     H22543   9.486   6.255   3.578 -1.3493  2.1952 -0.2476
  888MOL0     H22544   9.525   6.145   3.701  3.6043  0.9096 -1.1889
  889MOL0     O22545   0.646   4.126   7.632 -0.2678  0.5808 -0.2061
  889MOL0     C22546   0.648   4.075   7.520  0.6783  0.4463 -0.2492
  889MOL0     O22547   0.760   4.023   7.467 -0.0756  0.6724  0.5859
  889MOL0     C22548   0.887   4.053   7.519 -0.0239  0.9216  0.5657
  889MOL0     C22549   0.976   4.102   7.437  0.4266 -0.6118 -0.3338
  889MOL0     C22550   1.106   4.119   7.472  0.0738 -0.2395  0.1430
  889MOL0     C22551   1.145   4.104   7.601 -0.5702  0.5657 -0.5799
  889MOL0     O22552   1.274   4.121   7.642  0.3525 -0.8290  0.2998
  889MOL0     C22553   1.378   4.032   7.582  0.6322 -0.8558  0.1605
  889MOL0     C22554   1.498   4.118   7.544 -0.3109  0.5023 -0.1936
  889MOL0     C22555   1.621   4.035   7.476 -0.3322 -0.6267  0.1387
  889MOL0     C22556   1.744   4.129   7.455  0.7942  0.3665 -0.1691
  889MOL0     C22557   1.722   4.203   7.322  0.2190  0.3035 -0.0679
  889MOL0     C22558   1.805   4.321   7.280  0.8279 -0.3530  0.5247
  889MOL0     C22559   1.744   4.449   7.327 -0.0727  0.3047 -0.5583
  889MOL0     C22560   1.826   4.574   7.310 -0.9280  0.3585 -1.1504
  889MOL0     N22561   1.948   4.578   7.393 -0.5748 -0.1817  0.8256
  889MOL0     C22562   1.962   4.664   7.500 -0.0457 -0.3582 -0.0226
  889MOL0     C22563   2.087   4.656   7.531  0.2738  0.0879 -0.1676
  889MOL0     C22564   2.153   4.750   7.636  0.4500 -0.2571 -0.1086
  889MOL0     C22565   2.242   4.681   7.731 -0.3303  0.1223  0.1097
  889MOL0     C22566   2.389   4.670   7.666  0.3628  0.7656 -0.2903
  889MOL0     C22567   2.482   4.598   7.766  0.5818  0.1308 -0.5592
  889MOL0     O22568   2.425   4.471   7.791 -0.7761 -0.0002 -0.1443
  889MOL0     C22569   2.492   4.380   7.862 -0.7751 -0.0452  0.4682
  889MOL0     C22570   2.418   4.258   7.870  0.1162 -0.4255  0.3636
  889MOL0     C22571   2.469   4.154   7.948  0.2754  0.9173 -0.1005
  889MOL0     C22572   2.396   4.029   7.981  0.2292 -0.4434  1.0768
  889MOL0     C22573   2.596   4.163   8.008  0.5363 -0.9689  0.2844
  889MOL0     C22574   2.657   4.068   8.092  1.0382  0.2495  1.4538
  889MOL0     O22575   2.771   4.006   8.052 -1.0978 -0.4475 -0.5533
  889MOL0     C22576   2.845   3.923   8.139 -0.6011 -0.2527  0.8083
  889MOL0     C22577   2.984   3.945   8.132  0.9666  1.1491  0.4989
  889MOL0     C22578   3.076   3.865   8.205  0.2962 -0.1486  0.1492
  889MOL0     C22579   3.025   3.762   8.283 -0.1117  1.1189  1.0016
  889MOL0     O22580   3.110   3.682   8.353  0.2565 -0.5779  0.3370
  889MOL0     C22581   3.059   3.666   8.489 -0.4739 -0.1211 -0.3286
  889MOL0     C22582   3.166   3.597   8.574 -0.0143 -0.0891 -0.3554
  889MOL0     C22583   3.290   3.663   8.609 -0.9466  0.6867  0.6775
  889MOL0     C22584   3.363   3.600   8.738 -0.2893  1.1369 -0.4271
  889MOL0     C22585   3.473   3.688   8.807  0.3686  0.5643 -0.4727
  889MOL0     C22586   3.581   3.734   8.711  0.3404  0.3251  0.2732
  889MOL0     C22587   3.707   3.781   8.791  0.6493 -0.6578 -0.2072
  889MOL0     C22588   3.831   3.798   8.695  0.0025  0.6086  0.4011
  889MOL0    Cl22589   3.794   3.930   8.580  0.3154  0.0755 -0.2336
  889MOL0     C22590   2.886   3.733   8.280  0.5427 -0.1004  0.4598
  889MOL0     C22591   2.800   3.822   8.218  0.6149 -0.1633 -0.1258
  889MOL0     O22592   2.595   4.047   8.196 -0.6691  0.4580 -0.0106
  889MOL0     C22593   2.662   4.287   7.995 -0.4707 -0.2377  0.3338
  889MOL0     C22594   2.609   4.398   7.930 -0.4191  0.5284  0.0828
  889MOL0     N22595   2.154   4.560   7.459  0.1358 -0.1705 -0.2890
  889MOL0     N22596   2.067   4.503   7.381  0.3075 -0.5794 -0.7079
  889MOL0     C22597   1.056   4.044   7.690  0.3075 -0.5024 -0.2755
  889MOL0     C22598   0.923   4.020   7.647  0.0263  0.0084 -0.1075
  889MOL0     C22599   0.534   4.036   7.437  0.0390  0.7339 -0.5444
  889MOL0     C22600   0.558   3.982   7.306 -0.8915 -0.5546  0.4373
  889MOL0     C22601   0.446   3.927   7.241  0.1732  0.4108 -0.2502
  889MOL0     C22602   0.317   3.929   7.297  0.5951  0.2574 -0.2896
  889MOL0     O22603   0.220   3.880   7.215 -1.0313  0.5036 -0.8796
  889MOL0     C22604   0.106   3.826   7.288 -0.5195  0.5273  0.6259
  889MOL0     C22605  -0.018   3.825   7.194 -0.6295 -0.4344 -0.4237
  889MOL0     C22606  -0.042   3.978   7.160 -0.4694  0.9498 -0.3957
  889MOL0     C22607  -0.169   3.989   7.073 -0.0693 -0.1515  0.8960
  889MOL0     C22608  -0.185   4.133   7.031 -0.8947 -0.1743 -0.6014
  889MOL0     C22609  -0.202   4.246   6.980 -0.7135 -0.4100 -0.0415
  889MOL0     C22610   0.291   3.996   7.423 -0.1833 -0.9045  1.2159
  889MOL0     C22611   0.402   4.045   7.497  0.0389 -0.3966 -0.5892
  889MOL0     C22612   0.371   4.095   7.649 -1.6483  0.1151  0.5977
  889MOL0     H22613   0.955   4.107   7.331  2.8088 -1.0674 -0.8933
  889MOL0     H22614   1.183   4.156   7.404  3.0965 -3.1220  1.6781
  889MOL0     H22615   1.335   3.983   7.493 -4.1949 -1.3625  2.4210
  889MOL0     H22616   1.408   3.962   7.660  0.7745 -0.0151  0.8700
  889MOL0     H22617   1.466   4.203   7.482 -1.5232 -1.5317 -2.5486
  889MOL0     H22618   1.537   4.155   7.639  2.2822 -1.8690 -0.2084
  889MOL0     H22619   1.661   3.967   7.552  0.9378 -0.2603 -0.1696
  889MOL0     H22620   1.600   3.979   7.384  0.1355  1.9037 -1.6192
  889MOL0     H22621   1.740   4.203   7.536 -1.7907 -0.4906  0.5839
  889MOL0     H22622   1.838   4.072   7.465  0.1003 -0.4190  2.9098
  889MOL0     H22623   1.617   4.221   7.297  0.9827  4.9023 -0.8995
  889MOL0     H22624   1.752   4.133   7.243  3.3938  0.3934  0.9071
  889MOL0     H22625   1.905   4.317   7.325  2.4071 -1.1332 -2.7193
  889MOL0     H22626   1.825   4.340   7.174  2.6304  4.5071  1.4436
  889MOL0     H22627   1.745   4.442   7.436  2.4052  0.8348 -0.4702
  889MOL0     H22628   1.647   4.468   7.280  0.9724 -1.1710 -3.5954
  889MOL0     H22629   1.867   4.588   7.209  0.6380 -0.0924 -0.6114
  889MOL0     H22630   1.755   4.652   7.335 -1.0187 -0.7268  2.4906
  889MOL0     H22631   1.889   4.732   7.542 -1.5591 -1.3933 -0.8730
  889MOL0     H22632   2.080   4.808   7.693  1.7061 -0.8901  2.3338
  889MOL0     H22633   2.202   4.831   7.581 -0.1876 -1.1238 -1.9998
  889MOL0     H22634   2.252   4.730   7.828  0.1242 -1.7497  1.0700
  889MOL0     H22635   2.207   4.580   7.755  0.4230 -0.0364  0.5557
  889MOL0     H22636   2.380   4.606   7.578  1.6445 -0.2735  0.3083
  889MOL0     H22637   2.434   4.763   7.631  0.0681  2.5094  3.4466
  889MOL0     H22638   2.582   4.579   7.725  1.1189  1.4891  0.0414
  889MOL0     H22639   2.489   4.668   7.850  0.4874  0.6084 -0.9450
  889MOL0     H22640   2.332   4.254   7.805  0.9433  0.0043 -0.7991
  889MOL0     H22641   2.462   3.942   7.984  0.0770 -0.5645  0.9374
  889MOL0     H22642   2.336   4.011   7.892 -1.4654  2.4987  1.4889
  889MOL0     H22643   2.329   4.032   8.068 -0.5617 -0.9998  0.4960
  889MOL0     H22644   3.027   4.022   8.068  2.7766  1.6536  2.2092
  889MOL0     H22645   3.183   3.882   8.190  0.4413 -0.6371  0.6105
  889MOL0     H22646   3.026   3.758   8.540 -0.5892 -0.7483  0.7594
  889MOL0     H22647   2.970   3.603   8.495  0.0077 -0.9076 -1.2824
  889MOL0     H22648   3.118   3.547   8.659  0.9023 -1.6414 -0.6977
  889MOL0     H22649   3.188   3.508   8.514  1.3405 -0.6298  0.8731
  889MOL0     H22650   3.272   3.770   8.622 -0.5885  1.0886 -1.7600
  889MOL0     H22651   3.357   3.655   8.523 -1.6308  0.8099  0.1355
  889MOL0     H22652   3.403   3.503   8.706  0.0985  0.1315  2.7577
  889MOL0     H22653   3.292   3.589   8.821 -0.1757  2.1585 -0.1830
  889MOL0     H22654   3.426   3.772   8.859 -2.0610 -0.7934 -0.3183
  889MOL0     H22655   3.509   3.620   8.885 -0.0420 -3.5178 -3.5069
  889MOL0     H22656   3.528   3.814   8.658 -5.5675 -2.8349  0.5398
  889MOL0     H22657   3.611   3.659   8.638 -1.9608  1.2118 -1.7357
  889MOL0     H22658   3.724   3.713   8.875 -2.3851  0.7478  1.6970
  889MOL0     H22659   3.677   3.875   8.838 -1.8609 -1.3871 -0.2014
  889MOL0     H22660   3.843   3.701   8.647 -1.0565  0.0835  1.1583
  889MOL0     H22661   3.923   3.819   8.750  0.1867  1.5790 -0.2337
  889MOL0     H22662   2.842   3.665   8.351 -0.0998  1.8398  2.0103
  889MOL0     H22663   2.693   3.807   8.221  0.8510 -2.1268  0.1503
  889MOL0     H22664   2.759   4.305   8.041  0.0164  2.6739 -1.6102
  889MOL0     H22665   2.654   4.496   7.932  0.8627 -0.0553  0.5832
  889MOL0     H22666   1.093   4.025   7.790 -2.2912  0.0040  0.8529
  889MOL0     H22667   0.849   3.978   7.715  0.2391 -0.0760  0.0764
  889MOL0     H22668   0.659   3.964   7.271 -0.5262  1.4863  0.3232
  889MOL0     H22669   0.460   3.880   7.144 -0.6589 -1.9107  0.6756
  889MOL0     H22670   0.126   3.723   7.318 -0.3678 -0.0856 -1.4348
  889MOL0     H22671   0.076   3.877   7.380  2.3772 -1.7252  3.0873
  889MOL0     H22672  -0.097   3.785   7.257  0.2330 -1.6691 -0.0934
  889MOL0     H22673   0.001   3.766   7.103  2.1988  3.2221 -2.4984
  889MOL0     H22674  -0.053   4.040   7.249  0.9859  0.9962 -0.2298
  889MOL0     H22675   0.051   4.012   7.113  0.1909 -1.5026 -0.9866
  889MOL0     H22676  -0.256   3.957   7.131 -0.0119 -0.2458  0.9298
  889MOL0     H22677  -0.162   3.930   6.981  0.4354 -1.9393  2.0223
  889MOL0     H22678  -0.205   4.347   6.943 -0.8464 -1.0054 -1.6908
  889MOL0     H22679   0.190   4.007   7.461 -0.8104 -1.5248 -0.1976
  889MOL0     H22680   0.441   4.035   7.708 -0.8760  0.3051 -0.0918
  889MOL0     H22681   0.412   4.195   7.663 -1.1591 -0.3388  2.6427
  889MOL0     H22682   0.266   4.083   7.676 -1.2361 -1.3416  1.6793
  890MOL0     O22683   3.099   0.337   3.498  0.0495  0.0554 -0.2247
  890MOL0     C22684   3.044   0.237   3.530 -0.0850  0.8349 -0.0461
  890MOL0     O22685   3.012   0.138   3.442 -0.7489 -0.2690  0.0530
  890MOL0     C22686   2.993   0.183   3.317 -0.6977  0.5233  1.3490
  890MOL0     C22687   2.880   0.250   3.281 -0.1918  1.0387 -0.6134
  890MOL0     C22688   2.866   0.301   3.157  0.3938 -0.1445 -0.0443
  890MOL0     C22689   2.967   0.281   3.064 -0.1000 -0.1455  1.3585
  890MOL0     O22690   2.946   0.335   2.941  0.1026  1.0152  0.0109
  890MOL0     C22691   2.981   0.259   2.820  1.2074 -0.0908 -0.4422
  890MOL0     C22692   2.966   0.366   2.714  0.4437 -0.2572 -0.1338
  890MOL0     C22693   2.980   0.292   2.586  0.7318  1.0213 -0.3928
  890MOL0     C22694   2.961   0.388   2.474  0.2564  0.3073 -0.1175
  890MOL0     C22695   2.978   0.335   2.336  0.0435 -0.4121 -0.1137
  890MOL0     C22696   2.958   0.434   2.223  0.2635 -0.5923  0.3428
  890MOL0     C22697   2.950   0.357   2.093  0.1866 -0.1327  0.1007
  890MOL0     C22698   2.930   0.451   1.969 -0.2032  0.3627 -0.0141
  890MOL0     N22699   3.040   0.536   1.934 -0.1710 -0.0284  0.5122
  890MOL0     C22700   3.171   0.497   1.920  0.6119 -0.0283 -0.0124
  890MOL0     C22701   3.227   0.615   1.878  0.3173  0.2898  0.2868
  890MOL0     C22702   3.387   0.640   1.851  0.7900  0.5682 -0.7004
  890MOL0     C22703   3.460   0.718   1.958 -0.3337  0.1051  1.2436
  890MOL0     C22704   3.608   0.730   1.903 -0.3531 -0.2442 -0.8110
  890MOL0     C22705   3.681   0.820   1.993  0.6513 -1.2013 -0.0339
  890MOL0     O22706   3.739   0.748   2.106  0.2786 -0.3288 -0.4624
  890MOL0     C22707   3.835   0.819   2.177 -0.1583  0.7708  0.6784
  890MOL0     C22708   3.817   0.873   2.305 -0.6086  0.0339 -0.2868
  890MOL0     C22709   3.915   0.955   2.365  0.3341 -0.4243  0.7480
  890MOL0     C22710   3.871   1.013   2.499  0.7205 -0.0269  0.5694
  890MOL0     C22711   4.037   0.988   2.294 -0.0274 -0.1133 -0.5403
  890MOL0     C22712   4.145   1.070   2.353  0.1487  0.7552 -0.7128
  890MOL0     O22713   4.154   1.068   2.484  0.4756 -0.1299 -1.4582
  890MOL0     C22714   4.244   1.148   2.556 -0.3592  0.1387  0.0380
  890MOL0     C22715   4.291   1.090   2.668  0.4052  0.4222  0.0298
  890MOL0     C22716   4.380   1.162   2.757  0.1203 -0.0548  0.1230
  890MOL0     C22717   4.418   1.301   2.725  0.4272  0.1382  0.7434
  890MOL0     O22718   4.501   1.365   2.815 -0.0732  0.1524 -0.9295
  890MOL0     C22719   4.502   1.508   2.805 -0.2999 -1.1108 -0.6841
  890MOL0     C22720   4.606   1.569   2.705 -1.1938  0.1854  0.5647
  890MOL0     C22721   4.597   1.714   2.660 -1.1771  0.8033  0.4093
  890MOL0     C22722   4.688   1.758   2.550  0.3282 -0.4173 -0.3343
  890MOL0     C22723   4.834   1.712   2.568  0.1956  0.2602  0.4803
  890MOL0     C22724   4.931   1.818   2.505  0.2165  0.3575 -0.0107
  890MOL0     C22725   5.078   1.779   2.544  0.3686 -0.2110  0.5552
  890MOL0     C22726   5.111   1.643   2.483 -0.0294 -0.0415 -0.7527
  890MOL0    Cl22727   5.290   1.614   2.480 -0.2865 -0.0434  0.4127
  890MOL0     C22728   4.351   1.356   2.609 -0.8906 -0.1205  0.4143
  890MOL0     C22729   4.271   1.283   2.526  0.6750 -0.1478 -0.3972
  890MOL0     O22730   4.215   1.132   2.277  0.5028 -0.5497  0.3313
  890MOL0     C22731   4.054   0.927   2.172 -0.5158  0.3711  0.4000
  890MOL0     C22732   3.957   0.839   2.110  0.2733 -0.0699 -0.1324
  890MOL0     N22733   3.134   0.722   1.894  0.5099  1.1889 -0.3630
  890MOL0     N22734   3.019   0.668   1.905  0.0777 -0.0415 -0.5159
  890MOL0     C22735   3.085   0.208   3.100  0.0066 -0.4845 -0.2357
  890MOL0     C22736   3.100   0.168   3.225 -0.2043  0.1094 -1.0325
  890MOL0     C22737   3.008   0.219   3.671  0.7478  0.7770  0.3142
  890MOL0     C22738   2.891   0.141   3.704  0.6506  0.1361  0.3012
  890MOL0     C22739   2.856   0.115   3.845  0.6305  0.1821  0.1480
  890MOL0     C22740   2.933   0.157   3.951 -0.0487  0.1585 -0.7954
  890MOL0     O22741   2.902   0.108   4.076  0.0455 -0.6602  0.5949
  890MOL0     C22742   2.978   0.162   4.189 -0.1283 -0.1758  0.3667
  890MOL0     C22743   2.905   0.133   4.322 -0.5184  0.8076 -0.5532
  890MOL0     C22744   2.777   0.214   4.333  0.5439 -0.1598 -0.2958
  890MOL0     C22745   2.664   0.142   4.258  0.0998  0.7135 -0.9345
  890MOL0     C22746   2.531   0.178   4.289  1.0226 -0.2520 -0.1612
  890MOL0     C22747   2.417   0.204   4.311 -0.3686 -0.4033  0.8182
  890MOL0     C22748   3.047   0.234   3.908 -0.4793  0.1909 -0.2378
  890MOL0     C22749   3.088   0.262   3.778  0.0134 -0.5110 -0.6074
  890MOL0     C22750   3.220   0.339   3.765  0.3872  0.4596  0.2953
  890MOL0     H22751   2.811   0.262   3.364 -0.7475  1.3936 -1.1169
  890MOL0     H22752   2.774   0.349   3.124 -1.2978 -1.0895  2.9274
  890MOL0     H22753   2.900   0.185   2.815  0.5100  0.7195 -1.5915
  890MOL0     H22754   3.082   0.218   2.818  0.9842 -0.8475  1.4499
  890MOL0     H22755   2.871   0.421   2.718  1.0015  0.6704  1.1050
  890MOL0     H22756   3.055   0.429   2.722  1.2660 -1.5209  1.2069
  890MOL0     H22757   3.077   0.242   2.578  0.6018  0.1728  2.4100
  890MOL0     H22758   2.915   0.205   2.575  2.6154 -0.4494 -0.3847
  890MOL0     H22759   2.870   0.443   2.501  0.2940 -0.5120  1.8936
  890MOL0     H22760   3.034   0.466   2.500 -1.1641  2.3172 -1.8295
  890MOL0     H22761   2.901   0.257   2.333  0.6160 -1.0882  1.5868
  890MOL0     H22762   3.075   0.287   2.327  0.7235  0.8917  0.0433
  890MOL0     H22763   2.868   0.496   2.222  2.0424  2.2275 -1.9745
  890MOL0     H22764   3.037   0.510   2.225 -2.2057  2.2278 -1.0843
  890MOL0     H22765   2.864   0.290   2.105  1.2853 -1.3112  1.8883
  890MOL0     H22766   3.033   0.289   2.077  1.1153  1.0491 -0.2264
  890MOL0     H22767   2.919   0.391   1.878 -2.6445  0.4942  0.1325
  890MOL0     H22768   2.839   0.512   1.970 -0.3441  0.4147 -3.6511
  890MOL0     H22769   3.203   0.395   1.938 -3.0733 -1.6110 -1.4108
  890MOL0     H22770   3.376   0.710   1.767 -2.5975  0.1314 -0.7483
  890MOL0     H22771   3.430   0.545   1.817  0.2447 -0.3476  1.0498
  890MOL0     H22772   3.412   0.815   1.974 -2.2112 -0.4580 -0.6147
  890MOL0     H22773   3.462   0.651   2.045 -2.2725  1.4144  2.3725
  890MOL0     H22774   3.663   0.636   1.899 -0.2990 -0.2976  0.6289
  890MOL0     H22775   3.603   0.774   1.803  0.8610  0.4481 -0.5888
  890MOL0     H22776   3.748   0.879   1.928 -1.4906  2.2782  0.6691
  890MOL0     H22777   3.600   0.884   2.029 -0.9722 -1.5527 -2.7808
  890MOL0     H22778   3.717   0.852   2.341  0.1511 -1.5004  1.1191
  890MOL0     H22779   3.762   1.010   2.494  0.7719 -1.4914 -1.9082
  890MOL0     H22780   3.905   1.117   2.502  1.1471 -0.1907  1.6131
  890MOL0     H22781   3.905   0.954   2.585 -2.2344 -3.7746 -0.5298
  890MOL0     H22782   4.262   0.990   2.699  0.9726  0.7161  1.6382
  890MOL0     H22783   4.415   1.118   2.850 -1.0669  1.4513  1.3493
  890MOL0     H22784   4.402   1.551   2.790 -1.6682 -4.0457 -0.7181
  890MOL0     H22785   4.527   1.555   2.900 -0.3030 -0.5561 -0.9487
  890MOL0     H22786   4.696   1.541   2.761 -0.2348  2.8924  0.4939
  890MOL0     H22787   4.602   1.513   2.611  1.5375  1.5572 -0.5060
  890MOL0     H22788   4.625   1.769   2.750 -1.3028 -1.8075  2.1615
  890MOL0     H22789   4.493   1.740   2.638 -1.8902 -1.0831  1.2792
  890MOL0     H22790   4.676   1.867   2.547  3.5077  0.0148 -0.4020
  890MOL0     H22791   4.657   1.720   2.452  1.6068  1.9953 -1.7754
  890MOL0     H22792   4.854   1.701   2.674  2.4161 -1.6101 -0.0544
  890MOL0     H22793   4.843   1.616   2.516  0.5417  0.1374  0.7652
  890MOL0     H22794   4.917   1.918   2.546  0.0344 -0.8712  3.1977
  890MOL0     H22795   4.914   1.813   2.397 -0.2286  1.1887  0.0093
  890MOL0     H22796   5.084   1.773   2.653 -2.1189  0.9145  0.8136
  890MOL0     H22797   5.148   1.852   2.502 -1.5837  2.5439  1.7918
  890MOL0     H22798   5.059   1.623   2.389 -1.6501 -3.4428  0.7117
  890MOL0     H22799   5.079   1.568   2.556  0.6983  0.0788 -0.2935
  890MOL0     H22800   4.372   1.452   2.564  2.5847 -1.7081 -1.8374
  890MOL0     H22801   4.239   1.338   2.438 -2.3089  2.2353  1.9713
  890MOL0     H22802   4.150   0.952   2.128 -0.1786 -0.1020  0.8586
  890MOL0     H22803   3.971   0.789   2.015 -0.3065 -0.1136 -0.2013
  890MOL0     H22804   3.168   0.183   3.035  0.4346 -0.0133  0.1153
  890MOL0     H22805   3.201   0.134   3.249 -0.5514  0.4869  1.2632
  890MOL0     H22806   2.829   0.098   3.626  2.7410 -1.5993 -0.5048
  890MOL0     H22807   2.779   0.044   3.873  1.6785 -1.9222 -1.9334
  890MOL0     H22808   3.080   0.122   4.191  0.3938  1.0737 -0.1866
  890MOL0     H22809   2.996   0.269   4.176  3.6221 -0.8430 -1.5572
  890MOL0     H22810   2.984   0.170   4.387 -0.8379 -0.7193  0.7495
  890MOL0     H22811   2.887   0.033   4.363 -0.0828  1.2061  0.6542
  890MOL0     H22812   2.755   0.235   4.438 -1.6597 -0.6644 -0.5885
  890MOL0     H22813   2.776   0.311   4.283 -1.2918 -0.9066 -1.8718
  890MOL0     H22814   2.666   0.034   4.270  0.3418  0.9591  1.6768
  890MOL0     H22815   2.662   0.177   4.154  0.0203 -1.1520 -1.5974
  890MOL0     H22816   2.310   0.210   4.310 -0.3808 -0.5682 -0.7047
  890MOL0     H22817   3.111   0.269   3.988 -1.5487 -0.5701  0.9997
  890MOL0     H22818   3.276   0.349   3.858  2.8549  1.7252 -1.2329
  890MOL0     H22819   3.272   0.285   3.685 -1.2405 -1.1557  0.2592
  890MOL0     H22820   3.192   0.441   3.736 -0.5739  0.3610  0.8363
  891MOL0     O22821   2.795   1.955   2.474  0.4150  0.0655 -0.3156
  891MOL0     C22822   2.877   1.873   2.445 -0.1276 -0.2653  0.2664
  891MOL0     O22823   2.842   1.748   2.405 -0.6807  0.0594 -0.2886
  891MOL0     C22824   2.709   1.720   2.384 -0.0871  1.4286  0.4641
  891MOL0     C22825   2.657   1.617   2.461 -0.2703  0.5067  0.6490
  891MOL0     C22826   2.520   1.591   2.457  1.1594 -0.2017 -0.0482
  891MOL0     C22827   2.446   1.652   2.357 -0.4983  0.3984  0.9398
  891MOL0     O22828   2.317   1.624   2.341 -0.4653 -0.9450  0.0880
  891MOL0     C22829   2.219   1.680   2.424  0.9589 -0.1003 -0.9675
  891MOL0     C22830   2.216   1.634   2.570 -0.4117 -0.1405  0.2217
  891MOL0     C22831   2.199   1.480   2.578  0.0685  0.2670 -0.7255
  891MOL0     C22832   2.234   1.426   2.716 -0.4205  0.5543  0.1950
  891MOL0     C22833   2.293   1.288   2.693 -0.0251  0.6322 -0.7171
  891MOL0     C22834   2.309   1.221   2.838  0.4223  0.3764 -0.3114
  891MOL0     C22835   2.366   1.088   2.814  0.2685  0.2490  0.5592
  891MOL0     C22836   2.410   1.009   2.947  0.6686 -0.0745 -0.3385
  891MOL0     N22837   2.521   1.075   3.023 -0.4713  0.5573  0.3290
  891MOL0     C22838   2.653   1.066   2.997  0.8560  0.1397 -0.2638
  891MOL0     C22839   2.717   1.127   3.097 -0.4212 -0.0150 -0.2706
  891MOL0     C22840   2.867   1.131   3.124  0.0310  0.6545  0.6652
  891MOL0     C22841   2.900   1.268   3.177  0.9901  0.4129 -0.2945
  891MOL0     C22842   3.044   1.278   3.214  0.7242 -0.0315  0.0499
  891MOL0     C22843   3.084   1.426   3.245 -0.6462  0.6621  0.0033
  891MOL0     O22844   3.225   1.419   3.281  0.0262 -0.2209  0.2566
  891MOL0     C22845   3.287   1.536   3.301  0.1225 -0.1428 -0.4185
  891MOL0     C22846   3.419   1.541   3.333 -0.6835  0.4980 -0.0503
  891MOL0     C22847   3.493   1.658   3.345  0.7637  0.9357  0.2059
  891MOL0     C22848   3.627   1.646   3.405 -0.1107 -0.0464 -0.4851
  891MOL0     C22849   3.434   1.789   3.328  0.1674  1.0493  0.0903
  891MOL0     C22850   3.504   1.919   3.340 -0.1980 -0.9271  0.4986
  891MOL0     O22851   3.431   2.032   3.383 -0.5206  0.4575  0.1440
  891MOL0     C22852   3.482   2.156   3.375 -0.4776 -0.1366  0.5104
  891MOL0     C22853   3.599   2.199   3.434  0.5150 -0.5785  0.1513
  891MOL0     C22854   3.655   2.330   3.424  0.8799  0.7816 -0.1284
  891MOL0     C22855   3.582   2.424   3.353 -0.2445 -0.2090 -0.2565
  891MOL0     O22856   3.616   2.554   3.359 -0.1616  0.8320 -0.2455
  891MOL0     C22857   3.564   2.617   3.474  0.5294 -1.0192  0.5045
  891MOL0     C22858   3.492   2.750   3.437  0.3829  0.1396  0.1852
  891MOL0     C22859   3.595   2.869   3.415  0.4497 -0.2405 -0.0674
  891MOL0     C22860   3.539   3.006   3.443  0.0570 -0.0693  0.3682
  891MOL0     C22861   3.643   3.114   3.415  0.1431  0.7855 -0.8672
  891MOL0     C22862   3.580   3.249   3.441  0.3646 -0.5944 -0.1327
  891MOL0     C22863   3.683   3.366   3.417 -0.3998  0.7248 -0.4465
  891MOL0     C22864   3.769   3.365   3.288 -0.0204 -0.1684 -0.6940
  891MOL0    Cl22865   3.666   3.420   3.152  0.1097 -0.4830  0.1615
  891MOL0     C22866   3.457   2.390   3.294  0.4361  0.5875  0.0463
  891MOL0     C22867   3.412   2.251   3.301  0.4000 -0.2031  0.0382
  891MOL0     O22868   3.620   1.923   3.309 -0.5239 -0.2051 -0.0198
  891MOL0     C22869   3.299   1.782   3.284  0.0565 -0.3387  0.4525
  891MOL0     C22870   3.233   1.659   3.276 -0.1064  0.2862  0.0459
  891MOL0     N22871   2.623   1.177   3.178 -0.6913 -0.0522 -0.5612
  891MOL0     N22872   2.506   1.149   3.131 -0.0043 -0.0553  0.1288
  891MOL0     C22873   2.503   1.745   2.265 -0.4151  0.2926 -0.2252
  891MOL0     C22874   2.639   1.777   2.279 -0.1553 -1.0457 -0.2236
  891MOL0     C22875   3.022   1.913   2.459 -0.0335 -1.0178  0.2364
  891MOL0     C22876   3.115   1.824   2.405 -0.1707  0.7044  0.5509
  891MOL0     C22877   3.254   1.851   2.393  0.0091 -0.0933 -0.2794
  891MOL0     C22878   3.300   1.969   2.438 -0.0686  0.3912  0.0141
  891MOL0     O22879   3.433   1.998   2.443 -0.3299 -0.0624 -0.3190
  891MOL0     C22880   3.530   1.892   2.480 -0.2588  0.1553 -0.5230
  891MOL0     C22881   3.572   1.913   2.628  0.3338  0.0138  0.1420
  891MOL0     C22882   3.686   1.815   2.658  0.0016  0.0368  0.2475
  891MOL0     C22883   3.721   1.811   2.809  0.1380  0.0986  0.1591
  891MOL0     C22884   3.651   1.709   2.888 -0.6532  0.3957 -0.1258
  891MOL0     C22885   3.577   1.635   2.944  0.3650  0.0517 -0.0200
  891MOL0     C22886   3.207   2.064   2.499 -0.2305  0.4802 -0.2430
  891MOL0     C22887   3.070   2.030   2.518 -0.2779  0.0089 -0.6328
  891MOL0     C22888   2.987   2.115   2.607  0.3984  1.0194 -0.1963
  891MOL0     H22889   2.719   1.562   2.532  1.3442  0.3100 -0.8578
  891MOL0     H22890   2.470   1.526   2.529 -0.0593  3.3948  2.6784
  891MOL0     H22891   2.122   1.643   2.388  1.5322 -2.6615 -0.1138
  891MOL0     H22892   2.228   1.789   2.420  2.9402 -0.2808 -2.8155
  891MOL0     H22893   2.314   1.657   2.612  0.0394 -1.2815 -0.1530
  891MOL0     H22894   2.133   1.681   2.623 -2.2835  0.6835 -3.1962
  891MOL0     H22895   2.100   1.440   2.552  0.4798 -0.0716 -1.8195
  891MOL0     H22896   2.262   1.428   2.506 -0.9114 -0.7759 -0.8575
  891MOL0     H22897   2.302   1.489   2.774  0.0803  1.4162 -1.2613
  891MOL0     H22898   2.144   1.425   2.778  1.2378  2.9392  2.8859
  891MOL0     H22899   2.379   1.295   2.626 -2.1967  0.1812 -3.7383
  891MOL0     H22900   2.208   1.243   2.642 -0.1007 -1.5176  1.1447
  891MOL0     H22901   2.376   1.287   2.895 -1.8324  1.7055  0.9839
  891MOL0     H22902   2.217   1.208   2.895 -0.8363 -2.6439 -2.7828
  891MOL0     H22903   2.452   1.094   2.746  0.3983  0.1115  0.7079
  891MOL0     H22904   2.283   1.035   2.766 -1.7859  2.4184  1.5000
  891MOL0     H22905   2.322   0.999   3.010  2.3032 -1.3812  1.8847
  891MOL0     H22906   2.450   0.911   2.921  1.6414  0.4772 -1.0042
  891MOL0     H22907   2.699   0.999   2.924  0.3830 -2.6075  1.7849
  891MOL0     H22908   2.908   1.110   3.025 -0.3513  3.9402 -0.3026
  891MOL0     H22909   2.882   1.056   3.203 -0.2804  1.1503  1.2051
  891MOL0     H22910   2.878   1.342   3.100  1.3431  1.0486  0.2060
  891MOL0     H22911   2.848   1.284   3.272 -2.0123 -1.3275 -1.4798
  891MOL0     H22912   3.062   1.217   3.303  0.5154 -1.5147 -0.8948
  891MOL0     H22913   3.099   1.250   3.124  0.8626 -2.3189  0.7788
  891MOL0     H22914   3.068   1.480   3.151  0.4843  0.7031 -0.1891
  891MOL0     H22915   3.030   1.473   3.327 -1.4587  0.5735 -0.4739
  891MOL0     H22916   3.476   1.448   3.342  1.5467  1.9866  2.8786
  891MOL0     H22917   3.622   1.574   3.488 -2.4837 -0.7586 -1.1468
  891MOL0     H22918   3.648   1.739   3.458 -2.9721 -0.3793  1.5102
  891MOL0     H22919   3.694   1.604   3.330 -3.9713 -0.4640 -4.0890
  891MOL0     H22920   3.663   2.127   3.485  3.6286  1.4898 -0.5267
  891MOL0     H22921   3.743   2.357   3.482  0.3589 -0.9111  1.5731
  891MOL0     H22922   3.485   2.559   3.523  0.9559 -2.4307 -0.4140
  891MOL0     H22923   3.645   2.630   3.547  1.3384 -4.3026  0.3684
  891MOL0     H22924   3.433   2.733   3.346  1.0747 -1.0288 -0.0727
  891MOL0     H22925   3.408   2.773   3.504 -1.8660 -0.3649 -2.2651
  891MOL0     H22926   3.642   2.854   3.318  4.0975 -5.2702  2.0303
  891MOL0     H22927   3.669   2.859   3.496 -1.4642  0.7072  1.9059
  891MOL0     H22928   3.495   3.015   3.543 -1.8249 -1.2313 -0.2956
  891MOL0     H22929   3.453   3.019   3.377 -0.6837  0.9243  1.4958
  891MOL0     H22930   3.729   3.096   3.480 -2.5470 -1.7519  2.4324
  891MOL0     H22931   3.676   3.104   3.312 -0.0093 -2.0156 -0.7143
  891MOL0     H22932   3.550   3.244   3.546  1.2096 -0.1717  0.1428
  891MOL0     H22933   3.497   3.267   3.373  0.2155  0.7710  0.3852
  891MOL0     H22934   3.752   3.341   3.498 -3.4548 -0.4338  2.0036
  891MOL0     H22935   3.635   3.463   3.419  1.6032  1.7906 -0.9803
  891MOL0     H22936   3.811   3.267   3.262  0.5910  0.7660 -3.6360
  891MOL0     H22937   3.852   3.436   3.289  1.4774 -1.7261 -3.3285
  891MOL0     H22938   3.414   2.470   3.235  2.4482 -0.1160 -2.5249
  891MOL0     H22939   3.323   2.214   3.252  1.0189 -3.9290  1.4357
  891MOL0     H22940   3.251   1.877   3.263  1.1155 -0.1495 -1.3031
  891MOL0     H22941   3.125   1.669   3.263 -0.3257 -0.6550  0.9235
  891MOL0     H22942   2.444   1.787   2.185  0.2276  2.0575  0.1864
  891MOL0     H22943   2.687   1.855   2.222  0.2377  1.3694  3.0844
  891MOL0     H22944   3.090   1.733   2.353 -0.0682  1.9934 -1.8860
  891MOL0     H22945   3.313   1.785   2.331 -0.1533 -0.8787  0.3815
  891MOL0     H22946   3.494   1.790   2.466  0.7921 -0.1956 -0.7790
  891MOL0     H22947   3.611   1.896   2.406 -1.1661 -1.7870 -1.6964
  891MOL0     H22948   3.494   1.895   2.703  1.8158 -1.7001  1.3497
  891MOL0     H22949   3.597   2.017   2.647  0.6537 -0.0204 -0.0796
  891MOL0     H22950   3.664   1.717   2.614  2.2557 -0.9636  1.1643
  891MOL0     H22951   3.778   1.835   2.602  0.7608 -2.7149  0.3844
  891MOL0     H22952   3.688   1.901   2.861 -2.7520 -1.5586  1.4361
  891MOL0     H22953   3.830   1.807   2.815  0.1933  1.8041  0.7628
  891MOL0     H22954   3.504   1.567   2.984 -1.1346  1.3188 -0.4901
  891MOL0     H22955   3.244   2.155   2.546 -4.2061  1.7482  0.7919
  891MOL0     H22956   2.926   2.186   2.550  0.9010  1.0216 -0.7306
  891MOL0     H22957   2.920   2.052   2.667  0.0878  1.9737  0.4719
  891MOL0     H22958   3.045   2.160   2.688 -0.2029 -1.5433  1.8283
  892MOL0     O22959   0.379   7.623   7.572 -0.9622 -0.4391 -0.4462
  892MOL0     C22960   0.392   7.513   7.618 -0.3214  0.0554 -0.2638
  892MOL0     O22961   0.507   7.464   7.681  0.2993  0.1218  0.1103
  892MOL0     C22962   0.620   7.518   7.622 -0.1758  0.3703 -0.0143
  892MOL0     C22963   0.645   7.526   7.480 -0.5808 -0.5029 -0.3693
  892MOL0     C22964   0.761   7.579   7.438 -0.3376  0.2692  0.2354
  892MOL0     C22965   0.851   7.634   7.526 -0.0219 -0.3401  0.2254
  892MOL0     O22966   0.961   7.712   7.486  0.1319  0.3306  0.0413
  892MOL0     C22967   1.077   7.640   7.438  0.4777 -0.3997 -0.5611
  892MOL0     C22968   1.160   7.733   7.358  0.6857  0.4163  0.0748
  892MOL0     C22969   1.251   7.823   7.440  0.3280  0.2981 -0.4782
  892MOL0     C22970   1.322   7.931   7.354  0.3045  0.8337 -0.2375
  892MOL0     C22971   1.391   8.044   7.441  0.4211 -0.1584 -0.3088
  892MOL0     C22972   1.502   8.104   7.359 -1.0539 -0.1597 -0.5385
  892MOL0     C22973   1.570   8.215   7.448  0.0730  0.2482 -0.4383
  892MOL0     C22974   1.689   8.274   7.367  0.6657 -0.1436  0.5312
  892MOL0     N22975   1.785   8.171   7.337 -0.1991 -0.3306 -0.2764
  892MOL0     C22976   1.902   8.159   7.413  0.2284  0.5174 -0.7146
  892MOL0     C22977   1.990   8.088   7.335  0.4671 -0.0736 -0.3807
  892MOL0     C22978   2.114   8.026   7.379 -0.0260  0.3226  0.0935
  892MOL0     C22979   2.209   8.139   7.414 -0.1408  0.0411  0.4841
  892MOL0     C22980   2.273   8.202   7.289 -0.2976 -0.2018 -0.9525
  892MOL0     C22981   2.383   8.300   7.313  0.2313 -0.3670 -0.1007
  892MOL0     O22982   2.503   8.236   7.381  0.5796  0.5090 -0.6260
  892MOL0     C22983   2.614   8.311   7.409 -0.0143 -0.0900  0.5158
  892MOL0     C22984   2.746   8.262   7.400  0.3712 -1.0873  0.2248
  892MOL0     C22985   2.853   8.352   7.416 -0.0435  0.3913  0.3130
  892MOL0     C22986   2.981   8.293   7.376 -0.6418  0.2348  0.8878
  892MOL0     C22987   2.833   8.495   7.443  0.4814 -0.0222  0.9827
  892MOL0     C22988   2.936   8.592   7.455 -0.4975  0.0179  1.1357
  892MOL0     O22989   2.910   8.729   7.475 -0.1857 -0.2113  0.0986
  892MOL0     C22990   3.007   8.816   7.447  0.3578 -0.5623 -0.7748
  892MOL0     C22991   2.982   8.913   7.344 -0.5385 -0.0803 -0.0792
  892MOL0     C22992   3.085   9.000   7.317  0.4106 -0.3750  0.4308
  892MOL0     C22993   3.200   9.015   7.400 -0.1458 -0.2784  0.2740
  892MOL0     O22994   3.295   9.111   7.371  0.3238  0.1853  0.0435
  892MOL0     C22995   3.431   9.071   7.400 -0.0363  0.2773 -0.2417
  892MOL0     C22996   3.533   9.185   7.352  0.2502  0.1484  0.0268
  892MOL0     C22997   3.508   9.328   7.395 -0.4683 -0.4149 -0.4228
  892MOL0     C22998   3.632   9.412   7.452  0.0225  0.2050 -0.5660
  892MOL0     C22999   3.593   9.560   7.456  0.2092  0.4318 -0.2478
  892MOL0     C23000   3.703   9.646   7.518 -0.2922  0.4912  0.4472
  892MOL0     C23001   3.821   9.677   7.420 -0.0920 -0.2396  0.0683
  892MOL0     C23002   3.782   9.793   7.329  0.4986 -0.4557 -0.3011
  892MOL0    Cl23003   3.910   9.824   7.204 -0.0047  0.2350  0.0402
  892MOL0     C23004   3.211   8.921   7.506 -0.7090 -0.2746 -0.1820
  892MOL0     C23005   3.119   8.825   7.529  0.6345 -0.0217 -1.1193
  892MOL0     O23006   3.050   8.543   7.452 -0.2595  0.2186 -0.4889
  892MOL0     C23007   2.698   8.538   7.471 -0.5514  0.2945  0.1283
  892MOL0     C23008   2.590   8.444   7.449 -0.2182 -0.0168 -0.4094
  892MOL0     N23009   1.920   8.065   7.217 -0.2218  0.8197 -0.1432
  892MOL0     N23010   1.805   8.110   7.219  0.4369  0.7106 -0.0954
  892MOL0     C23011   0.829   7.632   7.663  0.3007  0.9630 -0.0591
  892MOL0     C23012   0.720   7.566   7.711  0.3308 -0.5880 -0.5357
  892MOL0     C23013   0.268   7.443   7.642  0.3069 -0.6978 -0.3783
  892MOL0     C23014   0.257   7.380   7.766 -0.2173 -0.3755 -0.0530
  892MOL0     C23015   0.141   7.319   7.814  0.4752 -0.3280 -0.1165
  892MOL0     C23016   0.034   7.317   7.722 -0.3116  0.1067 -0.3625
  892MOL0     O23017  -0.082   7.249   7.748  0.1881 -0.2811 -0.2065
  892MOL0     C23018  -0.105   7.196   7.878 -0.8266  0.2752 -0.5231
  892MOL0     C23019  -0.244   7.129   7.882  0.0984 -0.2924  0.4709
  892MOL0     C23020  -0.233   6.980   7.915 -0.3461  0.5681 -0.5669
  892MOL0     C23021  -0.362   6.911   7.870  0.2196 -0.8266  0.4691
  892MOL0     C23022  -0.361   6.758   7.878 -0.7443 -0.6557  0.2455
  892MOL0     C23023  -0.349   6.636   7.888  0.1381  0.2842 -0.3818
  892MOL0     C23024   0.043   7.379   7.591  0.2092  1.2414 -0.0512
  892MOL0     C23025   0.154   7.449   7.553  0.4870  0.3226 -0.4163
  892MOL0     C23026   0.155   7.510   7.417 -0.6404  0.3887 -0.3252
  892MOL0     H23027   0.571   7.471   7.421 -0.1523 -0.2775 -1.1327
  892MOL0     H23028   0.776   7.577   7.330 -1.6182 -2.6080  0.0211
  892MOL0     H23029   1.050   7.557   7.372 -0.2000 -1.1166  0.5895
  892MOL0     H23030   1.133   7.599   7.523 -0.3510  0.2323  0.3069
  892MOL0     H23031   1.213   7.679   7.278 -2.0237 -0.6218 -1.1357
  892MOL0     H23032   1.086   7.794   7.307 -0.9772  0.4175  2.3311
  892MOL0     H23033   1.187   7.861   7.520 -2.1873  0.3510 -2.3828
  892MOL0     H23034   1.331   7.767   7.489  2.2404  0.3583 -3.2902
  892MOL0     H23035   1.392   7.877   7.290 -1.4937 -2.8174  0.6486
  892MOL0     H23036   1.252   7.986   7.291  0.3812 -1.2287 -2.2389
  892MOL0     H23037   1.421   8.001   7.537  0.6113 -2.2398 -1.2413
  892MOL0     H23038   1.311   8.119   7.447  0.3141  0.1432 -3.4853
  892MOL0     H23039   1.573   8.022   7.345 -1.7432 -0.8786  0.0471
  892MOL0     H23040   1.451   8.128   7.265  0.5010 -1.3395 -1.7321
  892MOL0     H23041   1.600   8.179   7.547 -1.6553  0.9305  0.3736
  892MOL0     H23042   1.496   8.292   7.470 -1.6318 -1.5612  0.5202
  892MOL0     H23043   1.635   8.323   7.285  0.9758  1.1858  1.0871
  892MOL0     H23044   1.726   8.360   7.423 -1.9708  0.3237  1.7251
  892MOL0     H23045   1.917   8.206   7.510  0.1859 -0.8815 -0.0054
  892MOL0     H23046   2.161   7.966   7.301  0.4388 -1.5963  1.7536
  892MOL0     H23047   2.083   7.968   7.466 -3.2625  3.0134  0.9789
  892MOL0     H23048   2.171   8.219   7.478  1.7619 -0.5621  2.5203
  892MOL0     H23049   2.280   8.091   7.482  1.5316  1.5129 -0.1081
  892MOL0     H23050   2.324   8.117   7.242 -0.4694 -0.5705 -0.4795
  892MOL0     H23051   2.194   8.237   7.222 -0.6185 -1.0355 -1.0228
  892MOL0     H23052   2.422   8.336   7.217  0.6558  1.2892  0.6697
  892MOL0     H23053   2.334   8.383   7.364 -0.0639 -1.6370  1.7715
  892MOL0     H23054   2.763   8.156   7.384  2.7438 -1.1702  2.5874
  892MOL0     H23055   2.974   8.185   7.358 -2.6788 -0.2391  3.8834
  892MOL0     H23056   3.066   8.311   7.443  2.3834 -0.2617 -2.4816
  892MOL0     H23057   3.015   8.337   7.281  1.6710 -0.0684  1.5139
  892MOL0     H23058   2.894   8.912   7.282 -0.2478  0.5835 -0.5087
  892MOL0     H23059   3.075   9.073   7.237 -0.5851  1.3968  2.0932
  892MOL0     H23060   3.436   9.052   7.508  0.6763 -3.0518 -0.7405
  892MOL0     H23061   3.461   8.976   7.353 -1.0725 -0.2174  0.0577
  892MOL0     H23062   3.629   9.159   7.399 -1.4976 -0.2792  3.7174
  892MOL0     H23063   3.544   9.188   7.243  1.7153 -1.5606  0.0637
  892MOL0     H23064   3.430   9.329   7.471  0.1471 -0.3250  0.2150
  892MOL0     H23065   3.466   9.384   7.311 -2.8698 -0.5832  0.5668
  892MOL0     H23066   3.723   9.399   7.392  0.8007  4.5744 -0.6724
  892MOL0     H23067   3.651   9.363   7.548  0.1262 -2.0715 -1.6726
  892MOL0     H23068   3.567   9.599   7.357  0.9751 -0.3193 -0.7564
  892MOL0     H23069   3.502   9.572   7.515  1.3282 -0.7457  1.8442
  892MOL0     H23070   3.735   9.575   7.595  0.5162 -0.9819 -1.1891
  892MOL0     H23071   3.656   9.733   7.565 -2.6687  0.3612 -1.4833
  892MOL0     H23072   3.842   9.597   7.347  4.2577  0.0166  0.7893
  892MOL0     H23073   3.910   9.701   7.479 -2.1846  1.0432  2.9454
  892MOL0     H23074   3.768   9.878   7.397 -1.5911 -1.2756  0.3676
  892MOL0     H23075   3.686   9.777   7.281 -0.9088  1.8536  1.4969
  892MOL0     H23076   3.289   8.919   7.581 -1.3224 -1.4967  0.4499
  892MOL0     H23077   3.128   8.765   7.619  2.0036  1.2627 -0.3461
  892MOL0     H23078   2.680   8.643   7.489 -0.1336  0.4702 -0.4713
  892MOL0     H23079   2.490   8.483   7.467 -0.3183 -0.6796  0.5415
  892MOL0     H23080   0.913   7.677   7.716  0.4884  1.2297 -0.5800
  892MOL0     H23081   0.707   7.549   7.818 -0.4772  1.8642 -0.1952
  892MOL0     H23082   0.347   7.386   7.827 -0.2241  2.6401 -0.2349
  892MOL0     H23083   0.144   7.268   7.910  1.0542 -2.5955 -1.2726
  892MOL0     H23084  -0.031   7.122   7.910 -2.3421 -1.4116 -0.7457
  892MOL0     H23085  -0.093   7.273   7.955 -3.1945 -2.1186  2.5223
  892MOL0     H23086  -0.294   7.133   7.784  0.7435 -0.7686  0.1175
  892MOL0     H23087  -0.315   7.167   7.956 -0.4298  0.1614 -0.2478
  892MOL0     H23088  -0.145   6.934   7.867 -1.5566 -0.5435 -1.8233
  892MOL0     H23089  -0.220   6.965   8.022  0.1521  4.9913  0.1618
  892MOL0     H23090  -0.382   6.946   7.768  1.2814 -1.6825 -0.0678
  892MOL0     H23091  -0.436   6.946   7.941  0.9828  0.5178  0.6314
  892MOL0     H23092  -0.333   6.531   7.898  2.7587  0.6343 -0.2953
  892MOL0     H23093  -0.038   7.367   7.519 -1.7748  1.0559  2.0938
  892MOL0     H23094   0.180   7.432   7.345 -0.8085  0.8003 -0.8308
  892MOL0     H23095   0.054   7.550   7.407  0.1088  1.7517 -3.7494
  892MOL0     H23096   0.228   7.589   7.398  2.1257 -1.4035  1.9735
  893MOL0     O23097   7.590   5.314   0.162 -0.5722 -0.2965 -0.1628
  893MOL0     C23098   7.498   5.239   0.166 -0.1223  0.5026 -0.3626
  893MOL0     O23099   7.369   5.270   0.154 -0.0264  0.4934 -0.6100
  893MOL0     C23100   7.333   5.402   0.129 -0.5976 -0.0775  0.8853
  893MOL0     C23101   7.339   5.447  -0.008  0.1314  0.5259 -0.7582
  893MOL0     C23102   7.298   5.579  -0.035  0.8193  0.3564 -0.6343
  893MOL0     C23103   7.240   5.660   0.063  0.3655 -1.1033 -0.6954
  893MOL0     O23104   7.188   5.782   0.027 -0.0313  0.0985 -0.5245
  893MOL0     C23105   7.242   5.855  -0.084 -0.4238  0.5706  0.4493
  893MOL0     C23106   7.390   5.889  -0.069  0.4969 -0.7132 -0.6258
  893MOL0     C23107   7.437   5.962  -0.197  0.2622  0.3287  0.3259
  893MOL0     C23108   7.565   6.039  -0.164 -0.4019  1.2296 -0.0676
  893MOL0     C23109   7.622   6.142  -0.264 -0.6807 -0.1666  0.4883
  893MOL0     C23110   7.665   6.057  -0.385 -0.4000 -0.1623 -0.0887
  893MOL0     C23111   7.730   6.147  -0.495 -0.2552 -0.1871 -0.1985
  893MOL0     C23112   7.817   6.065  -0.591  0.0489 -0.2347 -0.1906
  893MOL0     N23113   7.936   6.138  -0.642  0.0660 -0.0182  0.1228
  893MOL0     C23114   7.947   6.184  -0.768  0.1636 -0.1063  1.1818
  893MOL0     C23115   8.060   6.256  -0.770 -0.0921  0.2401  0.5785
  893MOL0     C23116   8.081   6.347  -0.881  0.4976 -0.7833  0.7541
  893MOL0     C23117   7.982   6.459  -0.888  0.3439 -0.3932 -0.4433
  893MOL0     C23118   7.967   6.536  -0.763  0.0920 -1.1380  0.3101
  893MOL0     C23119   7.883   6.661  -0.774  0.3681 -0.6904 -0.1653
  893MOL0     O23120   7.901   6.738  -0.651 -0.2297 -0.1745  0.5002
  893MOL0     C23121   7.834   6.863  -0.658  0.6933 -0.4403  0.1339
  893MOL0     C23122   7.904   6.969  -0.718 -0.4189  0.8228  0.3123
  893MOL0     C23123   7.843   7.098  -0.728  0.0631 -0.3274  0.3437
  893MOL0     C23124   7.918   7.217  -0.790  0.3121  0.5361 -1.0221
  893MOL0     C23125   7.711   7.115  -0.671 -0.3362 -0.3314  0.0615
  893MOL0     C23126   7.631   7.238  -0.701  0.9016 -0.3777 -0.1226
  893MOL0     O23127   7.690   7.363  -0.724  0.1491  0.0220 -0.3327
  893MOL0     C23128   7.598   7.456  -0.760 -0.4444 -0.0357 -0.3800
  893MOL0     C23129   7.568   7.454  -0.899  0.4811 -0.8841 -0.2533
  893MOL0     C23130   7.462   7.531  -0.944  0.4256  0.3400 -0.0520
  893MOL0     C23131   7.384   7.608  -0.857  0.2014 -0.2041  0.3205
  893MOL0     O23132   7.269   7.675  -0.897 -0.0981 -0.1854  0.1213
  893MOL0     C23133   7.237   7.702  -1.031 -0.6134  0.5446  0.7647
  893MOL0     C23134   7.176   7.588  -1.110  0.2229  1.2051 -0.5386
  893MOL0     C23135   7.180   7.616  -1.256 -0.2895  0.1792  0.2194
  893MOL0     C23136   7.222   7.497  -1.341  0.3401 -0.0550 -0.5322
  893MOL0     C23137   7.106   7.403  -1.373  0.3054 -1.0458  0.9786
  893MOL0     C23138   7.156   7.281  -1.450 -0.3519 -0.6716 -1.2186
  893MOL0     C23139   7.055   7.184  -1.492 -0.1632 -0.2483  0.4230
  893MOL0     C23140   7.110   7.051  -1.510  0.4200  0.5334  0.4789
  893MOL0    Cl23141   7.187   7.059  -1.668 -0.2512  0.2197  0.4966
  893MOL0     C23142   7.425   7.619  -0.716 -0.7272 -0.0962  0.5334
  893MOL0     C23143   7.530   7.537  -0.669 -0.5802  0.6183 -1.0367
  893MOL0     O23144   7.511   7.218  -0.689  0.7489 -0.3865 -0.3151
  893MOL0     C23145   7.649   7.000  -0.602 -0.9351 -0.1614  0.5233
  893MOL0     C23146   7.708   6.878  -0.603  0.5810  0.2282 -0.4191
  893MOL0     N23147   8.112   6.265  -0.649  0.1240 -0.4187 -0.7900
  893MOL0     N23148   8.042   6.183  -0.572  0.8966 -0.5557  0.0641
  893MOL0     C23149   7.228   5.612   0.197  1.0079 -0.1738  0.1590
  893MOL0     C23150   7.270   5.483   0.228  0.1700  0.0045 -0.8493
  893MOL0     C23151   7.526   5.096   0.216  0.7406 -0.3737  0.3548
  893MOL0     C23152   7.443   5.040   0.317  0.1966 -0.1334  0.9148
  893MOL0     C23153   7.475   4.910   0.365 -0.6236  0.0538 -0.0257
  893MOL0     C23154   7.583   4.839   0.306  0.3154  0.0947 -0.9052
  893MOL0     O23155   7.606   4.714   0.330  0.0637 -0.3198  0.1480
  893MOL0     C23156   7.539   4.646   0.438  0.0889 -0.2274 -0.3936
  893MOL0     C23157   7.611   4.514   0.463 -0.6065 -0.5461  0.6177
  893MOL0     C23158   7.749   4.538   0.519  0.3381 -1.0994 -0.4264
  893MOL0     C23159   7.741   4.534   0.671 -0.6389 -0.4981  0.2413
  893MOL0     C23160   7.857   4.586   0.741  0.6278  0.0407 -0.1095
  893MOL0     C23161   7.962   4.628   0.777  0.4379 -0.3074 -0.0613
  893MOL0     C23162   7.659   4.894   0.209 -0.0881 -0.3708 -0.5483
  893MOL0     C23163   7.639   5.020   0.164  0.2529 -1.3868 -0.5475
  893MOL0     C23164   7.745   5.068   0.060  0.0910  0.6582  0.0414
  893MOL0     H23165   7.376   5.376  -0.082  2.1962 -1.2731  1.8383
  893MOL0     H23166   7.297   5.619  -0.136  0.4134  0.6460 -0.5163
  893MOL0     H23167   7.188   5.950  -0.085  1.0378  1.4313 -1.4261
  893MOL0     H23168   7.228   5.806  -0.181 -0.0776  1.5446 -0.1038
  893MOL0     H23169   7.407   5.947   0.023 -4.7617 -0.5782  0.5751
  893MOL0     H23170   7.449   5.798  -0.062  0.1735 -0.8426  0.7637
  893MOL0     H23171   7.460   5.888  -0.274 -0.9989 -0.1439  0.3720
  893MOL0     H23172   7.352   6.026  -0.223  0.5199  0.6525  0.2730
  893MOL0     H23173   7.538   6.090  -0.071  1.3306 -2.1183  2.5112
  893MOL0     H23174   7.640   5.965  -0.132 -1.1468 -0.0685 -1.2347
  893MOL0     H23175   7.711   6.192  -0.226 -0.0887 -0.1628 -0.8277
  893MOL0     H23176   7.554   6.223  -0.292  0.8394  0.7941 -0.6111
  893MOL0     H23177   7.728   5.973  -0.354  1.4170  1.4630  0.8581
  893MOL0     H23178   7.568   6.024  -0.422 -1.8309  2.6010  0.9534
  893MOL0     H23179   7.791   6.227  -0.451 -1.2626 -0.0945  1.1052
  893MOL0     H23180   7.650   6.195  -0.552  1.7149  0.8797 -2.2225
  893MOL0     H23181   7.860   5.978  -0.540  4.9698  0.6452 -2.2750
  893MOL0     H23182   7.751   6.028  -0.671 -0.1341  0.1852 -0.2363
  893MOL0     H23183   7.876   6.163  -0.848  1.9726 -2.3662  0.0313
  893MOL0     H23184   8.073   6.296  -0.978  0.9722 -1.4923  1.0805
  893MOL0     H23185   8.171   6.408  -0.874 -1.3611  2.6469 -2.1417
  893MOL0     H23186   8.007   6.523  -0.973 -2.5084  1.4524 -0.0238
  893MOL0     H23187   7.879   6.422  -0.894 -0.3788  0.5524  3.2465
  893MOL0     H23188   7.914   6.480  -0.685 -0.8096 -1.4303 -0.4985
  893MOL0     H23189   8.067   6.560  -0.724 -0.4843  1.1967  0.4695
  893MOL0     H23190   7.899   6.711  -0.869 -3.4389  0.7670 -0.1997
  893MOL0     H23191   7.776   6.642  -0.777 -0.1132  1.4743 -5.3523
  893MOL0     H23192   8.009   6.960  -0.747 -0.8257 -1.8646 -0.6369
  893MOL0     H23193   7.934   7.291  -0.711  0.4321 -0.4345 -0.1189
  893MOL0     H23194   7.869   7.266  -0.874  3.1444  1.9956 -1.9510
  893MOL0     H23195   8.014   7.174  -0.819  0.0760 -0.4526 -0.3755
  893MOL0     H23196   7.622   7.392  -0.970  0.0198 -0.8051 -0.6818
  893MOL0     H23197   7.440   7.525  -1.051  2.0331  0.0802 -0.3954
  893MOL0     H23198   7.156   7.776  -1.027 -0.7922  0.4238 -0.2062
  893MOL0     H23199   7.319   7.743  -1.092  0.3765 -0.6586  1.2602
  893MOL0     H23200   7.220   7.489  -1.097  0.3251  1.0227 -2.0243
  893MOL0     H23201   7.072   7.583  -1.077  0.4651  1.4015  0.2754
  893MOL0     H23202   7.252   7.698  -1.269  0.0851  0.1531  1.9246
  893MOL0     H23203   7.080   7.644  -1.290 -0.9764 -2.1817  0.0712
  893MOL0     H23204   7.294   7.442  -1.280 -0.0639  3.2141  3.3323
  893MOL0     H23205   7.261   7.537  -1.434 -2.5686  0.9001 -1.4528
  893MOL0     H23206   7.051   7.363  -1.288 -3.1367 -0.7830 -0.9581
  893MOL0     H23207   7.032   7.455  -1.435  1.5531 -0.3698  0.0086
  893MOL0     H23208   7.225   7.241  -1.375 -0.8246  1.7080  0.6143
  893MOL0     H23209   7.214   7.307  -1.540  0.2179  1.4117 -0.3077
  893MOL0     H23210   7.021   7.208  -1.593 -1.0561 -0.3839  0.6830
  893MOL0     H23211   6.968   7.164  -1.429 -2.0627 -0.6942 -2.1692
  893MOL0     H23212   7.032   6.975  -1.518 -0.5086  1.4959  0.0982
  893MOL0     H23213   7.174   7.027  -1.425 -0.4149  1.0900  1.2753
  893MOL0     H23214   7.368   7.682  -0.649  0.5170  0.7510  0.8349
  893MOL0     H23215   7.553   7.540  -0.563 -3.6653  2.4867 -0.2886
  893MOL0     H23216   7.546   7.008  -0.569 -1.0228  2.9293 -0.2527
  893MOL0     H23217   7.659   6.793  -0.557  0.0611 -0.3767 -2.0369
  893MOL0     H23218   7.184   5.669   0.278  0.2887 -2.8587  1.7878
  893MOL0     H23219   7.270   5.432   0.323 -2.3481 -2.2538 -1.9377
  893MOL0     H23220   7.353   5.089   0.353  0.9290  3.4144 -1.6260
  893MOL0     H23221   7.418   4.861   0.444  0.1514  1.3201  1.3612
  893MOL0     H23222   7.555   4.716   0.520  0.1550  0.6564 -1.1473
  893MOL0     H23223   7.431   4.638   0.424 -0.1858 -0.2391  1.5484
  893MOL0     H23224   7.616   4.455   0.371  2.2727  1.9549 -1.0147
  893MOL0     H23225   7.549   4.457   0.533  1.6614 -3.0523  0.7436
  893MOL0     H23226   7.805   4.461   0.465 -1.7198 -1.1492 -2.6837
  893MOL0     H23227   7.769   4.642   0.493 -1.2935 -0.5025  0.5571
  893MOL0     H23228   7.728   4.429   0.699  1.7728 -0.9826 -0.2930
  893MOL0     H23229   7.664   4.607   0.700  0.4823  0.5459  0.6820
  893MOL0     H23230   8.053   4.676   0.807 -1.8027  3.0782  1.9729
  893MOL0     H23231   7.740   4.826   0.182  0.8991 -0.1153  1.5810
  893MOL0     H23232   7.817   4.987   0.044  0.5889  1.4253 -1.8807
  893MOL0     H23233   7.707   5.090  -0.040  0.3289  0.9204  0.0063
  893MOL0     H23234   7.798   5.156   0.097  0.6436  0.1853  0.3976
  894MOL0     O23235   5.675  11.198  10.711  0.3967 -0.4332 -0.0579
  894MOL0     C23236   5.695  11.313  10.757 -0.3891 -0.0982 -0.3990
  894MOL0     O23237   5.799  11.391  10.705 -0.0868  0.4402  0.3040
  894MOL0     C23238   5.898  11.320  10.641 -1.1267  0.1132 -0.2431
  894MOL0     C23239   5.911  11.327  10.508 -0.0961 -0.1316  0.6249
  894MOL0     C23240   6.019  11.263  10.437 -0.1000 -0.7241  0.0827
  894MOL0     C23241   6.112  11.186  10.501 -0.3728 -0.3631  0.8222
  894MOL0     O23242   6.225  11.147  10.436  0.1948 -0.5649  0.0883
  894MOL0     C23243   6.328  11.081  10.514  0.1103  0.0647 -0.4160
  894MOL0     C23244   6.444  11.021  10.422  0.0407  0.7755 -0.3291
  894MOL0     C23245   6.511  11.137  10.338  0.3163 -0.6890  0.7487
  894MOL0     C23246   6.651  11.112  10.277  0.3660  0.1248  0.5753
  894MOL0     C23247   6.693  11.200  10.151  0.4008  0.4465 -0.0693
  894MOL0     C23248   6.822  11.150  10.096  0.5635 -0.4180 -0.1488
  894MOL0     C23249   6.891  11.252  10.002 -0.3613  0.8643 -0.1094
  894MOL0     C23250   7.024  11.212   9.933 -0.3797 -0.3738 -0.4195
  894MOL0     N23251   7.135  11.215  10.031 -0.2006  0.7134  0.1693
  894MOL0     C23252   7.202  11.325  10.065  0.3287  0.4924 -0.4183
  894MOL0     C23253   7.268  11.290  10.174  0.2637  0.1762 -1.0195
  894MOL0     C23254   7.365  11.375  10.257 -0.4019 -0.6486  0.2917
  894MOL0     C23255   7.493  11.308  10.304  0.2059  0.3045  0.7987
  894MOL0     C23256   7.470  11.216  10.416 -0.8050  0.4840 -0.5526
  894MOL0     C23257   7.607  11.168  10.474 -1.3954 -0.0544  0.0700
  894MOL0     O23258   7.688  11.278  10.517 -0.0263  0.3272  0.1254
  894MOL0     C23259   7.809  11.266  10.575  0.8882  0.3467  0.1743
  894MOL0     C23260   7.848  11.159  10.650  0.1554  0.2820 -0.4191
  894MOL0     C23261   7.969  11.153  10.717 -0.6625 -0.8146  0.0581
  894MOL0     C23262   8.019  11.025  10.790  0.3188 -0.9792 -0.5105
  894MOL0     C23263   8.050  11.277  10.711  0.4933  0.8427  1.1647
  894MOL0     C23264   8.170  11.286  10.806  0.1681 -0.9523  0.6917
  894MOL0     O23265   8.198  11.414  10.827 -0.4875  0.3142  0.0217
  894MOL0     C23266   8.305  11.456  10.894  0.1699 -0.0374 -0.6044
  894MOL0     C23267   8.406  11.520  10.821 -0.8325  0.0299  0.2703
  894MOL0     C23268   8.512  11.595  10.873  1.4341 -1.0220  0.5114
  894MOL0     C23269   8.519  11.609  11.008 -0.1990  0.5237 -0.0633
  894MOL0     O23270   8.619  11.690  11.061 -0.6227 -0.1612  0.0391
  894MOL0     C23271   8.689  11.794  10.991  0.2651  0.0266  0.4378
  894MOL0     C23272   8.795  11.861  11.094  0.1613 -0.6841 -0.5734
  894MOL0     C23273   8.922  11.780  11.118 -0.1106 -0.1965 -0.5764
  894MOL0     C23274   9.033  11.854  11.187  0.3345 -0.6194  0.3803
  894MOL0     C23275   9.119  11.946  11.091 -0.1451 -0.2758 -0.3278
  894MOL0     C23276   9.255  11.997  11.159 -0.1806 -0.4797 -0.9090
  894MOL0     C23277   9.241  12.095  11.277 -0.2731  0.6071  0.3161
  894MOL0     C23278   9.384  12.130  11.325  0.4171 -0.5628 -0.3111
  894MOL0    Cl23279   9.385  12.271  11.437 -0.0560  0.4106 -0.4673
  894MOL0     C23280   8.418  11.540  11.090 -0.0218  0.8327  0.3254
  894MOL0     C23281   8.316  11.465  11.038 -0.1727 -0.0580  0.3140
  894MOL0     O23282   8.239  11.189  10.854 -0.3329  0.2747  0.4854
  894MOL0     C23283   8.005  11.390  10.639 -0.1041  0.4236 -0.0678
  894MOL0     C23284   7.892  11.372  10.563 -0.5686 -0.4474  0.7556
  894MOL0     N23285   7.235  11.161  10.213  0.5713 -0.6348  0.8704
  894MOL0     N23286   7.160  11.117  10.120  0.1528  0.3603 -0.3742
  894MOL0     C23287   6.087  11.167  10.635 -0.8116 -1.1676 -0.0926
  894MOL0     C23288   5.988  11.237  10.706  0.3293  0.2029  0.2400
  894MOL0     C23289   5.623  11.363  10.874  0.7727 -0.8129  0.3871
  894MOL0     C23290   5.547  11.271  10.946 -0.0277  0.5269  0.2246
  894MOL0     C23291   5.469  11.316  11.054  0.3613  0.0320 -0.8190
  894MOL0     C23292   5.478  11.451  11.087 -0.5169  0.3364  0.4270
  894MOL0     O23293   5.441  11.483  11.214 -0.1725 -0.3965  0.0163
  894MOL0     C23294   5.509  11.585  11.283  0.1883  0.5452 -0.1236
  894MOL0     C23295   5.427  11.609  11.411  0.0825  0.2022 -1.0651
  894MOL0     C23296   5.299  11.698  11.390  0.1083 -0.3289  0.5923
  894MOL0     C23297   5.240  11.769  11.509 -0.7412 -0.6701  0.6146
  894MOL0     C23298   5.175  11.673  11.586 -0.1097 -0.6707 -0.1794
  894MOL0     C23299   5.137  11.580  11.665  0.0445 -0.2872  0.3844
  894MOL0     C23300   5.535  11.541  11.005  0.4494 -0.2427 -0.2267
  894MOL0     C23301   5.605  11.504  10.892 -0.4808  0.6361  0.4182
  894MOL0     C23302   5.662  11.618  10.807 -0.2525 -0.1650 -0.2081
  894MOL0     H23303   5.848  11.382  10.440  0.0747 -2.0611 -1.2054
  894MOL0     H23304   6.037  11.302  10.337  2.0939  0.2546  0.7997
  894MOL0     H23305   6.296  11.001  10.580  0.6709  0.0736 -0.1329
  894MOL0     H23306   6.365  11.165  10.573  0.0560  1.4649 -2.2605
  894MOL0     H23307   6.511  10.964  10.486  2.1439  0.8323 -2.3468
  894MOL0     H23308   6.410  10.954  10.342  0.2991 -1.5699  1.4141
  894MOL0     H23309   6.443  11.147  10.252  1.0753 -2.2798 -0.0972
  894MOL0     H23310   6.520  11.234  10.387  3.0358 -0.4397 -0.0713
  894MOL0     H23311   6.725  11.117  10.358  1.8744  0.8361 -0.7881
  894MOL0     H23312   6.652  11.005  10.252 -0.5633  0.5009 -1.2630
  894MOL0     H23313   6.700  11.306  10.174 -1.7291  0.7548 -0.6785
  894MOL0     H23314   6.614  11.191  10.076  1.0303  0.2525 -0.7218
  894MOL0     H23315   6.893  11.124  10.176  0.9076  0.0726 -0.2880
  894MOL0     H23316   6.803  11.063  10.033 -3.5581  0.9167 -1.0238
  894MOL0     H23317   6.899  11.355  10.038  0.5113  1.3684 -1.6421
  894MOL0     H23318   6.821  11.266   9.919 -0.7743 -3.5184 -0.7364
  894MOL0     H23319   7.006  11.112   9.893 -0.7695 -0.6734  0.4798
  894MOL0     H23320   7.050  11.277   9.848 -0.1529  0.0749 -0.0135
  894MOL0     H23321   7.205  11.424  10.020  0.1827  0.2801 -0.8961
  894MOL0     H23322   7.317  11.439  10.332  1.0390  2.2580 -1.1221
  894MOL0     H23323   7.410  11.452  10.194  1.4137 -1.6229  0.3355
  894MOL0     H23324   7.532  11.252  10.219  0.6031 -0.3090  1.3691
  894MOL0     H23325   7.570  11.383  10.326  0.8984  0.2079 -1.0823
  894MOL0     H23326   7.422  11.272  10.497 -1.9286 -2.1698  0.7187
  894MOL0     H23327   7.411  11.131  10.381 -3.4212  1.9611  0.0270
  894MOL0     H23328   7.579  11.115  10.565  0.3219 -1.5900 -0.2295
  894MOL0     H23329   7.662  11.103  10.405 -1.9630 -0.7271  0.2454
  894MOL0     H23330   7.783  11.073  10.657  0.5933 -0.0051  0.1706
  894MOL0     H23331   8.029  11.044  10.897  2.3544 -1.5780 -0.5585
  894MOL0     H23332   8.116  10.990  10.754  1.1795  0.7024  0.0554
  894MOL0     H23333   7.946  10.944  10.787 -0.7866 -0.0329 -0.0788
  894MOL0     H23334   8.392  11.528  10.714 -0.1015  0.9321  0.2294
  894MOL0     H23335   8.564  11.652  10.796 -3.6181  0.3592 -2.3867
  894MOL0     H23336   8.735  11.773  10.894  0.2812  3.2955 -0.3978
  894MOL0     H23337   8.619  11.876  10.971  3.6715  2.7818 -1.3908
  894MOL0     H23338   8.835  11.957  11.059 -1.6109 -0.2477 -1.5019
  894MOL0     H23339   8.743  11.872  11.189  0.3330 -4.2469  0.0624
  894MOL0     H23340   8.959  11.748  11.021 -2.7549  0.5788 -1.9458
  894MOL0     H23341   8.904  11.690  11.177 -1.8122 -0.5690 -1.5853
  894MOL0     H23342   9.105  11.783  11.228  2.0112  1.8186  1.8995
  894MOL0     H23343   8.999  11.917  11.269  1.2633  0.1619  0.1915
  894MOL0     H23344   9.157  11.883  11.010  1.2539  1.0933 -0.7610
  894MOL0     H23345   9.058  12.027  11.051 -0.7461 -1.4922 -2.0495
  894MOL0     H23346   9.324  12.033  11.083 -1.3552  0.9279 -1.3476
  894MOL0     H23347   9.308  11.907  11.191 -0.5657 -1.1345 -2.0630
  894MOL0     H23348   9.178  12.061  11.360 -0.3221 -0.1338 -0.0117
  894MOL0     H23349   9.185  12.185  11.249 -4.7228 -1.3543  1.9737
  894MOL0     H23350   9.445  12.158  11.239  1.6294 -0.1981  0.6312
  894MOL0     H23351   9.425  12.040  11.371  2.7944  1.3077  1.5551
  894MOL0     H23352   8.433  11.540  11.198 -0.3166 -0.5441  0.3862
  894MOL0     H23353   8.244  11.420  11.106  1.3909 -1.3985  1.1471
  894MOL0     H23354   8.059  11.484  10.644  2.2667 -0.9185  0.9905
  894MOL0     H23355   7.856  11.461  10.513  0.1946 -1.2401 -1.2959
  894MOL0     H23356   6.144  11.107  10.705  1.7230  2.3538  1.1552
  894MOL0     H23357   5.982  11.213  10.812  1.8271 -1.7272 -0.0486
  894MOL0     H23358   5.553  11.164  10.930  0.2883  0.1121  2.6583
  894MOL0     H23359   5.424  11.241  11.119  1.7299 -0.2511 -0.1598
  894MOL0     H23360   5.606  11.543  11.311 -1.2220 -1.5350  2.1114
  894MOL0     H23361   5.521  11.681  11.232  4.0825  0.1032 -0.3775
  894MOL0     H23362   5.486  11.656  11.490 -2.3447 -2.0678  2.4259
  894MOL0     H23363   5.398  11.513  11.456 -1.6154  1.1737  0.0472
  894MOL0     H23364   5.325  11.772  11.314  2.8082 -2.5657 -0.8691
  894MOL0     H23365   5.219  11.633  11.354 -1.7335  0.0222  3.7290
  894MOL0     H23366   5.182  11.858  11.483 -0.4180 -1.0974 -1.8386
  894MOL0     H23367   5.328  11.808  11.561 -0.7758 -0.0698  0.2407
  894MOL0     H23368   5.098  11.516  11.741 -0.3393  0.5039  0.8585
  894MOL0     H23369   5.538  11.648  11.026  1.8416 -0.6323  1.8084
  894MOL0     H23370   5.594  11.702  10.822  2.5514  1.6988  3.7970
  894MOL0     H23371   5.757  11.649  10.852 -0.9642  0.0547  1.2212
  894MOL0     H23372   5.668  11.600  10.699  0.4461 -0.3415 -0.1445
  895MOL0     O23373   0.953   7.056  11.125 -0.2520  0.5140 -0.0580
  895MOL0     C23374   1.071   7.033  11.161  0.1386  0.0675  0.8670
  895MOL0     O23375   1.105   6.989  11.285  0.0639 -0.6629 -0.7718
  895MOL0     C23376   1.010   6.971  11.385  0.7152  0.3344  0.7650
  895MOL0     C23377   0.909   7.069  11.406  0.0190 -0.4678  0.6936
  895MOL0     C23378   0.804   7.057  11.497  0.0366 -0.0017  0.1369
  895MOL0     C23379   0.791   6.937  11.571 -0.7229 -0.9217  0.0416
  895MOL0     O23380   0.679   6.943  11.660  0.4146  0.5687  0.7039
  895MOL0     C23381   0.660   6.814  11.732  0.1297 -0.1282  0.1107
  895MOL0     C23382   0.521   6.828  11.793 -0.6026 -0.2722  0.2859
  895MOL0     C23383   0.412   6.836  11.691 -0.1794  0.8091 -0.9387
  895MOL0     C23384   0.276   6.814  11.764  1.2134  0.5583 -0.3994
  895MOL0     C23385   0.169   6.805  11.652  0.3235 -0.2011  0.7221
  895MOL0     C23386   0.033   6.766  11.709  0.5709  0.3567  1.0488
  895MOL0     C23387  -0.064   6.817  11.588 -0.7635  0.5069 -0.3917
  895MOL0     C23388  -0.198   6.747  11.561 -0.0706  0.2865  0.7437
  895MOL0     N23389  -0.309   6.801  11.637 -1.0380  1.0319  0.8243
  895MOL0     C23390  -0.385   6.897  11.592 -0.1026  0.2427  0.9174
  895MOL0     C23391  -0.496   6.897  11.668  0.6008  0.4035  0.7357
  895MOL0     C23392  -0.600   7.005  11.652  0.4223 -0.1252 -0.2712
  895MOL0     C23393  -0.731   6.961  11.590  0.6207 -0.3928 -0.0382
  895MOL0     C23394  -0.726   6.885  11.447 -1.0901 -0.2646  0.2089
  895MOL0     C23395  -0.860   6.858  11.385  0.2699 -0.0935 -0.7359
  895MOL0     O23396  -0.919   6.744  11.452  0.4803  0.5413 -0.1796
  895MOL0     C23397  -1.042   6.697  11.410 -0.5591  0.6097 -0.8574
  895MOL0     C23398  -1.065   6.673  11.276  0.3462 -0.5736  0.6465
  895MOL0     C23399  -1.188   6.643  11.220  0.1773 -0.2854  0.1815
  895MOL0     C23400  -1.196   6.621  11.072 -0.3570 -0.8577  0.4194
  895MOL0     C23401  -1.287   6.624  11.318  0.0201  0.6498 -0.3017
  895MOL0     C23402  -1.424   6.575  11.293 -0.0705  1.3918  0.3647
  895MOL0     O23403  -1.469   6.485  11.386 -0.1618  0.7354  0.0508
  895MOL0     C23404  -1.609   6.450  11.381 -0.2392  1.0953 -0.4967
  895MOL0     C23405  -1.705   6.495  11.475 -0.2043 -0.8615  0.1352
  895MOL0     C23406  -1.838   6.471  11.456  0.7996 -0.0094 -0.0291
  895MOL0     C23407  -1.886   6.398  11.350  0.0668 -0.3474  0.1102
  895MOL0     O23408  -2.024   6.383  11.354  0.3306 -0.4776 -0.4938
  895MOL0     C23409  -2.081   6.298  11.260  0.6275  0.2326  0.5008
  895MOL0     C23410  -2.235   6.281  11.297 -0.8427 -0.2970  0.4443
  895MOL0     C23411  -2.310   6.152  11.254 -0.7485 -0.0771  0.1310
  895MOL0     C23412  -2.333   6.130  11.109 -0.0374 -0.6104  0.0815
  895MOL0     C23413  -2.394   5.995  11.080  0.9133  0.0406  0.2143
  895MOL0     C23414  -2.441   5.989  10.929 -0.2251 -0.2251 -1.8099
  895MOL0     C23415  -2.508   5.855  10.912 -0.0335  0.4559 -0.4093
  895MOL0     C23416  -2.639   5.862  10.837 -0.3543  0.8625 -0.8780
  895MOL0    Cl23417  -2.631   5.912  10.671 -0.1003 -0.0591  0.0435
  895MOL0     C23418  -1.791   6.354  11.256  0.0142  0.1007 -0.6401
  895MOL0     C23419  -1.651   6.380  11.271  0.2548 -0.5107 -0.0648
  895MOL0     O23420  -1.491   6.632  11.204  0.3404 -0.6754  0.5009
  895MOL0     C23421  -1.266   6.636  11.460  0.1663  0.3380 -0.3232
  895MOL0     C23422  -1.141   6.689  11.503  0.6765  0.7813  0.1865
  895MOL0     N23423  -0.482   6.793  11.767  0.8583 -0.1407  1.1687
  895MOL0     N23424  -0.361   6.746  11.743 -0.6088 -0.5427 -0.6279
  895MOL0     C23425   0.886   6.836  11.545 -1.1581 -0.2233 -0.4828
  895MOL0     C23426   0.988   6.849  11.455  0.2217  0.1311  0.7569
  895MOL0     C23427   1.187   7.038  11.065 -0.2885  0.0762  0.2425
  895MOL0     C23428   1.317   7.018  11.109 -0.8529  0.1745 -0.5195
  895MOL0     C23429   1.431   7.032  11.035 -0.6670  0.8276  0.7012
  895MOL0     C23430   1.428   7.053  10.900  0.6673 -0.4407  0.4448
  895MOL0     O23431   1.534   7.070  10.810  0.1694  0.5095  0.6524
  895MOL0     C23432   1.667   7.119  10.857  0.1015 -0.3851 -0.4638
  895MOL0     C23433   1.762   7.134  10.744 -0.3188  1.2096  0.3756
  895MOL0     C23434   1.734   7.259  10.667 -0.3012  0.1213 -0.5983
  895MOL0     C23435   1.817   7.273  10.537  0.1797  0.1656 -0.2125
  895MOL0     C23436   1.926   7.355  10.570  0.4832 -0.1840  0.1046
  895MOL0     C23437   2.021   7.410  10.628  0.1919  1.2139 -0.1638
  895MOL0     C23438   1.295   7.057  10.844 -0.9333  0.1829 -0.3175
  895MOL0     C23439   1.175   7.067  10.926 -0.9945 -0.4450 -1.3942
  895MOL0     C23440   1.047   7.063  10.842  0.0012  0.0440 -0.7678
  895MOL0     H23441   0.907   7.154  11.338  2.7988 -0.1791  0.8495
  895MOL0     H23442   0.728   7.132  11.516 -0.6138 -1.0256  1.7896
  895MOL0     H23443   0.732   6.791  11.811 -0.4802 -0.5251  0.5641
  895MOL0     H23444   0.665   6.730  11.662  4.9402 -2.4512  2.7976
  895MOL0     H23445   0.503   6.739  11.854  0.9447 -0.8305 -0.0296
  895MOL0     H23446   0.529   6.911  11.865 -0.6933 -2.7073  3.3205
  895MOL0     H23447   0.416   6.925  11.627  0.7870  1.2590 -0.2744
  895MOL0     H23448   0.427   6.756  11.618 -0.8159  1.3951 -1.7328
  895MOL0     H23449   0.283   6.724  11.826 -0.9645  0.2546 -0.5005
  895MOL0     H23450   0.257   6.893  11.838  0.4321 -0.0958  0.1205
  895MOL0     H23451   0.204   6.738  11.573  1.5818  1.2543 -0.0105
  895MOL0     H23452   0.156   6.907  11.614 -3.1465  0.0640  2.1906
  895MOL0     H23453   0.030   6.657  11.709 -0.6712  0.2899 -2.4212
  895MOL0     H23454   0.009   6.816  11.804 -0.8629  1.9938 -0.1265
  895MOL0     H23455  -0.009   6.791  11.497 -0.4651 -0.2777  0.0052
  895MOL0     H23456  -0.078   6.925  11.599  0.8855  0.5276  2.8380
  895MOL0     H23457  -0.217   6.768  11.455 -0.8611 -1.8984  0.4125
  895MOL0     H23458  -0.185   6.639  11.577 -1.2694  0.0536  0.1919
  895MOL0     H23459  -0.368   6.959  11.504  1.7507  1.3466  1.9949
  895MOL0     H23460  -0.542   7.076  11.593  0.8815 -2.4448 -2.8043
  895MOL0     H23461  -0.613   7.052  11.750 -0.0213 -0.6909 -0.0515
  895MOL0     H23462  -0.754   6.887  11.667  3.0253 -0.3387  0.8157
  895MOL0     H23463  -0.796   7.048  11.597  1.0233 -0.1042  0.1575
  895MOL0     H23464  -0.681   6.961  11.382  0.6278 -0.3794  1.1948
  895MOL0     H23465  -0.665   6.794  11.446 -2.7766 -1.4525 -0.0266
  895MOL0     H23466  -0.927   6.944  11.381  1.1720  0.5918 -2.0598
  895MOL0     H23467  -0.840   6.830  11.281  2.6284 -1.3255 -0.0122
  895MOL0     H23468  -0.981   6.677  11.207 -0.6865  1.7404 -0.5830
  895MOL0     H23469  -1.289   6.654  11.025  0.5978  0.7302 -0.4466
  895MOL0     H23470  -1.172   6.516  11.052 -0.3935 -0.8051  0.0960
  895MOL0     H23471  -1.126   6.689  11.023 -1.5467  0.8452  1.0096
  895MOL0     H23472  -1.674   6.534  11.571 -0.7549 -0.9749  0.3633
  895MOL0     H23473  -1.911   6.501  11.531  1.6636  2.3124 -0.0550
  895MOL0     H23474  -2.073   6.350  11.165 -0.0098  0.8106  0.7597
  895MOL0     H23475  -2.028   6.202  11.255 -0.1761 -0.1507 -1.1114
  895MOL0     H23476  -2.261   6.297  11.403 -2.2259 -0.7736  0.1926
  895MOL0     H23477  -2.281   6.372  11.257 -0.0659 -0.1839 -0.2210
  895MOL0     H23478  -2.412   6.160  11.291 -0.8258 -1.1926  0.1783
  895MOL0     H23479  -2.253   6.071  11.299  1.3231  1.4233  0.4060
  895MOL0     H23480  -2.247   6.140  11.043 -2.0127  1.9473 -2.3443
  895MOL0     H23481  -2.395   6.213  11.074 -0.7846 -1.7767 -1.4796
  895MOL0     H23482  -2.323   5.913  11.097  0.5036 -0.6789 -1.3924
  895MOL0     H23483  -2.480   5.981  11.147 -0.3354  1.0710 -1.1113
  895MOL0     H23484  -2.357   6.000  10.860  0.3382  0.8014 -0.9993
  895MOL0     H23485  -2.506   6.075  10.908 -1.0822  0.5288  2.7163
  895MOL0     H23486  -2.528   5.808  11.009 -2.2214 -1.3101 -1.6362
  895MOL0     H23487  -2.432   5.780  10.886 -1.6375 -0.9730 -1.1277
  895MOL0     H23488  -2.698   5.933  10.897 -0.9650  0.3993 -0.9207
  895MOL0     H23489  -2.691   5.766  10.836  2.9770 -1.1096 -0.4260
  895MOL0     H23490  -1.833   6.296  11.174  0.0467 -3.2185  1.5125
  895MOL0     H23491  -1.577   6.349  11.198  1.5615  1.1346  0.4840
  895MOL0     H23492  -1.340   6.618  11.537  0.7959 -2.1418 -0.2013
  895MOL0     H23493  -1.131   6.710  11.609 -3.1168 -0.4836  0.9426
  895MOL0     H23494   0.876   6.744  11.601  0.2440 -1.1475 -1.6802
  895MOL0     H23495   1.057   6.765  11.459 -1.8851 -1.8362 -0.9635
  895MOL0     H23496   1.348   6.995  11.211 -2.6950 -2.7466 -0.4896
  895MOL0     H23497   1.523   7.021  11.090 -0.5480  1.4681  0.6363
  895MOL0     H23498   1.645   7.217  10.901 -2.9284  0.6498 -3.8499
  895MOL0     H23499   1.710   7.052  10.933  0.6755 -1.8417 -2.0123
  895MOL0     H23500   1.766   7.049  10.676  2.9225  0.6458  1.1019
  895MOL0     H23501   1.865   7.127  10.779 -0.4090 -2.4594  0.2364
  895MOL0     H23502   1.628   7.263  10.639 -0.0245 -2.1022 -2.2586
  895MOL0     H23503   1.761   7.345  10.729 -1.5985  0.3772 -0.3519
  895MOL0     H23504   1.748   7.320  10.465  1.0558 -0.1159 -1.2706
  895MOL0     H23505   1.863   7.186  10.491 -1.2467  0.0388 -1.5138
  895MOL0     H23506   2.098   7.464  10.679  0.1087 -0.3649  1.7514
  895MOL0     H23507   1.283   7.076  10.738 -0.2157  1.9047 -0.1208
  895MOL0     H23508   1.082   7.077  10.739  3.0691  0.1909  0.1913
  895MOL0     H23509   0.990   6.972  10.866  0.6482  0.4090  2.5845
  895MOL0     H23510   0.981   7.147  10.861  0.4118  0.4964 -1.3059
  896MOL0     O23511   9.013   0.248   7.534  0.3017 -0.7987  0.1969
  896MOL0     C23512   9.123   0.272   7.489 -0.2362 -1.3040 -0.1229
  896MOL0     O23513   9.219   0.357   7.538 -0.1042 -0.1133 -0.1475
  896MOL0     C23514   9.211   0.403   7.668 -0.3636  0.3941  0.0269
  896MOL0     C23515   9.266   0.530   7.698  0.9820  0.3853  1.0166
  896MOL0     C23516   9.276   0.581   7.831 -0.3924 -0.0616 -0.1810
  896MOL0     C23517   9.241   0.508   7.943  1.0797  0.2099  0.8907
  896MOL0     O23518   9.269   0.567   8.056  0.4963 -0.6154  0.7248
  896MOL0     C23519   9.210   0.518   8.171  0.0390 -0.8206 -0.0039
  896MOL0     C23520   9.056   0.540   8.182 -0.4107  0.4049  0.1165
  896MOL0     C23521   9.029   0.696   8.183 -0.2484  0.1951  0.9028
  896MOL0     C23522   8.878   0.718   8.162  0.4453  0.3451  0.2332
  896MOL0     C23523   8.854   0.866   8.203  0.7080 -0.2300 -0.5169
  896MOL0     C23524   8.911   0.961   8.091  0.2871 -0.8878  0.2253
  896MOL0     C23525   8.868   1.108   8.114 -0.1447  0.3270 -0.1902
  896MOL0     C23526   8.721   1.134   8.075  0.2566 -0.2525  0.5051
  896MOL0     N23527   8.684   1.269   8.118 -0.0632  0.0422 -0.6876
  896MOL0     C23528   8.744   1.387   8.067  0.1465  0.5790 -0.8262
  896MOL0     C23529   8.703   1.486   8.158  0.8208 -0.1931  0.2198
  896MOL0     C23530   8.741   1.631   8.149 -0.2411 -0.0523  0.3918
  896MOL0     C23531   8.637   1.715   8.225  0.2712 -0.6593 -0.5188
  896MOL0     C23532   8.636   1.852   8.158  0.2171 -0.1133 -0.7481
  896MOL0     C23533   8.532   1.950   8.222  0.1885  0.7867 -0.6939
  896MOL0     O23534   8.525   2.073   8.172  0.8930  0.2547  0.1567
  896MOL0     C23535   8.456   2.098   8.053  0.0619 -0.0389  1.0076
  896MOL0     C23536   8.373   2.005   7.993 -0.0845  0.3642  0.2771
  896MOL0     C23537   8.304   2.026   7.870 -0.3700 -0.7496  0.7743
  896MOL0     C23538   8.228   1.905   7.819 -0.1048  0.6142 -0.2092
  896MOL0     C23539   8.311   2.161   7.812  0.6381 -0.4097 -0.0232
  896MOL0     C23540   8.244   2.193   7.686 -0.4003  0.0043 -0.1406
  896MOL0     O23541   8.237   2.324   7.651 -0.2352  0.3948 -0.2756
  896MOL0     C23542   8.172   2.359   7.536 -0.4129  0.2187 -0.4017
  896MOL0     C23543   8.039   2.333   7.512 -0.5319 -0.7966 -0.1615
  896MOL0     C23544   7.993   2.368   7.385 -0.6452 -0.2742 -0.0291
  896MOL0     C23545   8.068   2.433   7.290 -1.1280 -0.8150  0.0443
  896MOL0     O23546   8.033   2.473   7.171  0.4372 -0.7151  0.0197
  896MOL0     C23547   7.899   2.469   7.137  0.6944 -0.6267 -0.1719
  896MOL0     C23548   7.882   2.473   6.986 -0.3924 -0.4935 -0.2153
  896MOL0     C23549   7.728   2.505   6.933  0.1809  0.0632  0.3258
  896MOL0     C23550   7.732   2.501   6.779  0.8556 -0.5088 -0.4637
  896MOL0     C23551   7.616   2.568   6.712  0.0215  0.2095  0.3925
  896MOL0     C23552   7.629   2.534   6.556 -1.1843  0.6232  0.2042
  896MOL0     C23553   7.504   2.566   6.474  0.5417 -0.8834  0.2496
  896MOL0     C23554   7.531   2.539   6.328  0.0006  0.4257 -0.4579
  896MOL0    Cl23555   7.380   2.549   6.236  0.1493  0.4354  0.1808
  896MOL0     C23556   8.205   2.456   7.318 -0.0281 -0.9651  0.3608
  896MOL0     C23557   8.257   2.424   7.439 -0.4779  0.8655  0.0021
  896MOL0     O23558   8.221   2.096   7.610  0.3898 -0.4627  0.2085
  896MOL0     C23559   8.394   2.260   7.878 -0.4953 -0.9920  0.3521
  896MOL0     C23560   8.463   2.227   7.992  0.2526  0.8758  0.9830
  896MOL0     N23561   8.609   1.426   8.244  0.1394  0.3270 -0.4753
  896MOL0     N23562   8.597   1.301   8.221  0.0949 -0.4651 -0.5374
  896MOL0     C23563   9.181   0.378   7.917 -0.0715 -0.9952  1.4026
  896MOL0     C23564   9.167   0.331   7.782 -0.2479  0.5269 -0.0069
  896MOL0     C23565   9.134   0.228   7.348  0.4176 -0.9329  1.1281
  896MOL0     C23566   9.134   0.333   7.247 -0.1716  0.8251  0.3868
  896MOL0     C23567   9.142   0.300   7.112  0.6467  0.3943  0.3345
  896MOL0     C23568   9.151   0.164   7.077  0.3606  0.7724  0.5987
  896MOL0     O23569   9.150   0.133   6.945 -0.2235  0.1657 -0.2400
  896MOL0     C23570   9.024   0.100   6.881 -0.2574  0.1611 -0.8295
  896MOL0     C23571   9.056   0.047   6.746 -0.1630 -0.2762 -0.0181
  896MOL0     C23572   8.932   0.041   6.668  0.0371  0.2194  0.7079
  896MOL0     C23573   8.944  -0.003   6.517  0.0764 -0.8535  0.2483
  896MOL0     C23574   9.031   0.095   6.445 -1.0074 -0.3893 -0.2834
  896MOL0     C23575   9.080   0.187   6.378  0.0918 -0.1718 -0.7410
  896MOL0     C23576   9.158   0.059   7.179  0.3345  0.2512  0.0108
  896MOL0     C23577   9.152   0.094   7.318  0.0614  1.1076  0.6842
  896MOL0     C23578   9.139  -0.010   7.412  0.0257  0.4275 -0.2363
  896MOL0     H23579   9.312   0.588   7.619  1.0477 -0.7633  0.1988
  896MOL0     H23580   9.328   0.673   7.856 -1.3208  0.7809 -1.2427
  896MOL0     H23581   9.247   0.573   8.259 -1.6264 -0.8868  0.7919
  896MOL0     H23582   9.235   0.414   8.194 -1.9000 -1.4634 -0.6191
  896MOL0     H23583   9.014   0.497   8.091 -0.9627 -0.0513  0.5754
  896MOL0     H23584   9.009   0.483   8.263 -0.9102  1.4815  0.6164
  896MOL0     H23585   9.059   0.745   8.276 -0.6534  0.7901  0.7249
  896MOL0     H23586   9.069   0.746   8.095 -2.6352 -1.0642 -1.0141
  896MOL0     H23587   8.847   0.704   8.058 -0.4312 -0.8231  0.6339
  896MOL0     H23588   8.826   0.640   8.218 -1.0668 -1.1512 -2.9821
  896MOL0     H23589   8.907   0.875   8.298  0.7384 -2.3771 -0.2783
  896MOL0     H23590   8.747   0.884   8.214  1.1691  2.3286  0.3497
  896MOL0     H23591   9.020   0.959   8.100  0.2569 -2.4512  0.5914
  896MOL0     H23592   8.893   0.930   7.988 -0.4615 -0.2229  0.1504
  896MOL0     H23593   8.943   1.169   8.063 -0.9988  2.3431  0.8365
  896MOL0     H23594   8.874   1.124   8.222  0.2481  0.7991 -0.2752
  896MOL0     H23595   8.702   1.137   7.967  2.5942  2.8047  0.0112
  896MOL0     H23596   8.651   1.067   8.125  0.6732 -1.0009  0.1012
  896MOL0     H23597   8.818   1.388   7.988 -1.5967  0.4959 -2.5400
  896MOL0     H23598   8.773   1.667   8.051  0.7381 -1.7017  0.0566
  896MOL0     H23599   8.833   1.648   8.206  1.5590 -1.0750 -2.0120
  896MOL0     H23600   8.537   1.674   8.211 -0.6870  2.1730 -3.1598
  896MOL0     H23601   8.676   1.720   8.327 -0.1947  0.3458 -0.3732
  896MOL0     H23602   8.733   1.901   8.168 -1.0180  2.1602  1.4428
  896MOL0     H23603   8.612   1.842   8.052  1.6931  1.8325 -1.3226
  896MOL0     H23604   8.434   1.901   8.216 -0.4786  2.0024 -0.0849
  896MOL0     H23605   8.553   1.962   8.329  1.4631 -1.4083 -0.6306
  896MOL0     H23606   8.357   1.907   8.038 -0.7054  0.6606  0.7260
  896MOL0     H23607   8.122   1.929   7.807 -1.3368 -3.7438  0.2759
  896MOL0     H23608   8.233   1.827   7.895  0.0766  0.2125 -0.6302
  896MOL0     H23609   8.266   1.858   7.728 -0.9840  2.2056 -1.4579
  896MOL0     H23610   7.968   2.291   7.582 -0.4994  1.5605  1.3976
  896MOL0     H23611   7.888   2.346   7.369 -1.9895  2.4317  3.7256
  896MOL0     H23612   7.841   2.390   7.186  2.8873 -0.6646  2.6225
  896MOL0     H23613   7.848   2.554   7.184 -0.2610 -2.5316  2.5206
  896MOL0     H23614   7.944   2.553   6.944 -0.0781 -0.6345 -0.0316
  896MOL0     H23615   7.924   2.388   6.931  2.2388  1.2865 -1.1798
  896MOL0     H23616   7.693   2.606   6.952 -0.0559  0.0691 -0.1165
  896MOL0     H23617   7.651   2.435   6.968 -1.0888  0.6310 -1.2244
  896MOL0     H23618   7.729   2.394   6.755  2.9826 -1.0965  1.5332
  896MOL0     H23619   7.821   2.562   6.763  0.1965  0.8406  0.7793
  896MOL0     H23620   7.529   2.517   6.753  0.4968 -1.1213 -0.2135
  896MOL0     H23621   7.617   2.676   6.730  2.5090  0.2380  0.3736
  896MOL0     H23622   7.657   2.430   6.541 -1.7544  0.6309 -1.0062
  896MOL0     H23623   7.712   2.597   6.524 -0.1490  0.3202  2.1244
  896MOL0     H23624   7.471   2.669   6.482 -0.0561 -1.0931  0.5781
  896MOL0     H23625   7.423   2.501   6.509  1.4647 -2.3957 -0.2877
  896MOL0     H23626   7.577   2.440   6.321  0.5177  0.6735 -0.5776
  896MOL0     H23627   7.609   2.605   6.288  1.0906 -2.1076 -2.8203
  896MOL0     H23628   8.255   2.521   7.247 -2.9744  0.4334 -0.5884
  896MOL0     H23629   8.356   2.444   7.479 -0.3471  0.4979 -0.1319
  896MOL0     H23630   8.406   2.359   7.836  1.5845 -1.4090 -0.1399
  896MOL0     H23631   8.516   2.305   8.044  1.6752  0.1620  0.6522
  896MOL0     H23632   9.151   0.306   7.992  3.7495  0.3258  4.5719
  896MOL0     H23633   9.118   0.236   7.765  0.9083 -0.7735  3.2387
  896MOL0     H23634   9.131   0.431   7.293  1.2313 -0.3098  3.1499
  896MOL0     H23635   9.141   0.384   7.044 -0.9387 -0.7154 -1.1052
  896MOL0     H23636   8.955   0.032   6.932  1.5152 -1.4594 -0.4869
  896MOL0     H23637   8.966   0.193   6.880  1.9756  1.9160  4.1743
  896MOL0     H23638   9.082  -0.058   6.756 -2.9860 -1.0950 -0.3290
  896MOL0     H23639   9.135   0.097   6.689 -1.6037  0.7432 -1.2121
  896MOL0     H23640   8.862  -0.028   6.716  0.0831 -0.8510 -0.6873
  896MOL0     H23641   8.903   0.147   6.669 -1.6881 -0.2161  2.2692
  896MOL0     H23642   8.849  -0.005   6.463  0.5119 -0.1701 -0.5864
  896MOL0     H23643   8.991  -0.102   6.511  0.1711 -0.7512 -0.7894
  896MOL0     H23644   9.128   0.279   6.351  1.1220 -0.2409  0.7154
  896MOL0     H23645   9.168  -0.041   7.139 -1.1750 -0.0019  0.1940
  896MOL0     H23646   9.140  -0.110   7.368 -1.3171  0.5178 -0.5108
  896MOL0     H23647   9.211  -0.004   7.495  1.2631 -0.2302 -1.2400
  896MOL0     H23648   9.037  -0.006   7.451  0.4234  1.6300  0.7834
  897MOL0     O23649   6.445   0.376   2.094 -0.6979 -0.2711  1.2772
  897MOL0     C23650   6.379   0.475   2.110  0.6091  0.2189  0.7600
  897MOL0     O23651   6.437   0.596   2.130 -0.0010 -0.0466 -0.1925
  897MOL0     C23652   6.562   0.618   2.072  0.4601 -0.6346  0.2274
  897MOL0     C23653   6.597   0.578   1.936  0.0946 -1.3147  0.0154
  897MOL0     C23654   6.727   0.606   1.891 -0.8387  0.7516 -0.5048
  897MOL0     C23655   6.817   0.681   1.972 -0.2575  0.1767  1.2364
  897MOL0     O23656   6.949   0.694   1.942  1.0783  0.0248  0.0323
  897MOL0     C23657   7.004   0.669   1.818  0.0291 -0.9096 -0.5256
  897MOL0     C23658   7.153   0.720   1.831  0.0897 -0.1446  0.2408
  897MOL0     C23659   7.241   0.717   1.698  0.1142 -0.5230 -0.2268
  897MOL0     C23660   7.265   0.574   1.648 -0.3207 -0.7176 -0.8327
  897MOL0     C23661   7.372   0.590   1.535  0.5867 -1.2136  0.6212
  897MOL0     C23662   7.430   0.473   1.456 -0.5609  0.2071 -0.0651
  897MOL0     C23663   7.330   0.372   1.394 -0.1764 -0.4541  0.5295
  897MOL0     C23664   7.405   0.239   1.364  0.7315  0.5301  0.2217
  897MOL0     N23665   7.494   0.248   1.252 -0.7500  0.6162 -0.1323
  897MOL0     C23666   7.616   0.324   1.226  0.3346 -0.0845 -0.7691
  897MOL0     C23667   7.655   0.288   1.105  0.6508 -0.2945 -0.3031
  897MOL0     C23668   7.791   0.323   1.041  0.4749  0.5551 -0.6495
  897MOL0     C23669   7.882   0.195   1.023 -0.0396 -0.3348 -0.5659
  897MOL0     C23670   7.923   0.121   1.148  0.2016 -0.1668  0.6346
  897MOL0     C23671   8.041   0.179   1.233 -0.9043 -0.0197  0.0933
  897MOL0     O23672   8.005   0.305   1.283 -0.8143 -1.0743 -0.7397
  897MOL0     C23673   7.922   0.321   1.391 -0.6542  0.0396  0.1025
  897MOL0     C23674   7.901   0.452   1.435  0.6412 -0.8481  0.4023
  897MOL0     C23675   7.825   0.490   1.548 -0.7418 -1.1701 -0.2330
  897MOL0     C23676   7.836   0.635   1.601  0.3602  0.2862 -0.8373
  897MOL0     C23677   7.769   0.382   1.621 -0.4877 -0.2393 -0.0531
  897MOL0     C23678   7.697   0.413   1.742 -0.3910  0.4892 -0.8157
  897MOL0     O23679   7.692   0.305   1.836 -0.0049 -0.0063 -0.1362
  897MOL0     C23680   7.616   0.342   1.943  0.5307  0.7618 -0.9704
  897MOL0     C23681   7.482   0.357   1.917 -0.1864 -0.0505 -0.4529
  897MOL0     C23682   7.397   0.369   2.025 -0.1480  0.6770  0.5815
  897MOL0     C23683   7.442   0.361   2.158 -0.2829  0.0352 -0.0413
  897MOL0     O23684   7.354   0.362   2.257 -0.2577 -0.4160 -0.0128
  897MOL0     C23685   7.399   0.326   2.394 -0.6086  0.4182  0.9453
  897MOL0     C23686   7.278   0.311   2.480 -0.3516 -0.0057  0.3208
  897MOL0     C23687   7.314   0.250   2.618 -0.7328  0.1115 -0.4972
  897MOL0     C23688   7.454   0.306   2.666  0.0142 -0.0514 -0.0503
  897MOL0     C23689   7.480   0.291   2.817  0.6582 -0.1696 -0.8750
  897MOL0     C23690   7.619   0.347   2.858 -0.1867  0.1667 -0.3011
  897MOL0     C23691   7.644   0.296   3.009 -0.0207 -0.0232  0.3921
  897MOL0     C23692   7.756   0.380   3.072 -0.2902 -0.2126 -0.9212
  897MOL0    Cl23693   7.774   0.298   3.228  0.0440 -0.4466 -0.4250
  897MOL0     C23694   7.579   0.346   2.177 -0.3493  0.0095  0.6423
  897MOL0     C23695   7.665   0.340   2.074 -0.9148  0.5864 -0.5053
  897MOL0     O23696   7.645   0.523   1.754  0.0731 -0.5124 -0.8510
  897MOL0     C23697   7.776   0.247   1.570 -0.0143 -1.3529  0.1610
  897MOL0     C23698   7.857   0.217   1.458  1.3385 -0.0321  0.0999
  897MOL0     N23699   7.549   0.227   1.041 -0.6191 -0.0337 -0.3251
  897MOL0     N23700   7.456   0.207   1.126  0.5392  0.9294 -0.2685
  897MOL0     C23701   6.774   0.738   2.086 -0.0252 -0.1534 -0.1814
  897MOL0     C23702   6.645   0.699   2.141 -0.1096 -0.9156  0.3913
  897MOL0     C23703   6.238   0.455   2.135  0.9102  0.9513  0.1679
  897MOL0     C23704   6.167   0.501   2.242 -1.0210 -0.5413 -0.5181
  897MOL0     C23705   6.040   0.466   2.270 -0.3557 -0.2034  0.3382
  897MOL0     C23706   5.958   0.394   2.181 -0.8967  0.0405  0.1328
  897MOL0     O23707   5.831   0.359   2.213 -0.6516 -0.3518  0.8679
  897MOL0     C23708   5.734   0.367   2.106 -0.3503  0.8202 -0.6057
  897MOL0     C23709   5.591   0.346   2.161  0.5341  0.1805 -0.3232
  897MOL0     C23710   5.485   0.322   2.046 -1.2736  0.0790 -0.1318
  897MOL0     C23711   5.357   0.274   2.115 -0.5968 -0.1469 -0.0299
  897MOL0     C23712   5.255   0.251   2.015  0.7101 -0.0925 -0.8992
  897MOL0     C23713   5.168   0.243   1.928 -0.7320 -0.3587 -0.2694
  897MOL0     C23714   6.024   0.360   2.061  0.3048  0.3366 -0.1112
  897MOL0     C23715   6.161   0.378   2.038  0.2733 -0.6351 -0.5872
  897MOL0     C23716   6.210   0.323   1.910 -1.0027  0.1942 -1.1493
  897MOL0     H23717   6.528   0.521   1.875 -0.0176 -1.0678 -0.0907
  897MOL0     H23718   6.749   0.558   1.796  0.4743 -0.3587  0.3214
  897MOL0     H23719   6.964   0.738   1.744 -0.5520  0.3113  0.8838
  897MOL0     H23720   7.001   0.561   1.798  2.4661 -1.5210  1.8066
  897MOL0     H23721   7.147   0.825   1.861 -1.0252 -0.2634  0.4701
  897MOL0     H23722   7.214   0.660   1.899  0.1705 -1.8302 -1.2450
  897MOL0     H23723   7.181   0.756   1.616 -0.7418 -2.7771 -0.7261
  897MOL0     H23724   7.327   0.783   1.713 -1.0767  0.7827  1.2879
  897MOL0     H23725   7.304   0.502   1.720 -0.7943 -1.8688 -1.6900
  897MOL0     H23726   7.170   0.534   1.610 -0.6087 -1.2369  0.3774
  897MOL0     H23727   7.456   0.645   1.580  0.8455 -1.5345  0.5319
  897MOL0     H23728   7.322   0.652   1.461  3.0944  0.3525  0.1094
  897MOL0     H23729   7.472   0.518   1.366  0.1393 -3.1559 -1.5846
  897MOL0     H23730   7.495   0.410   1.518 -0.2176  0.0862 -0.5391
  897MOL0     H23731   7.293   0.420   1.303 -2.4695 -0.4182  1.4325
  897MOL0     H23732   7.246   0.348   1.460  0.6409  0.5885  2.0076
  897MOL0     H23733   7.467   0.215   1.451 -1.6545  0.6112  2.0541
  897MOL0     H23734   7.341   0.156   1.334  2.1984  0.2384 -2.3579
  897MOL0     H23735   7.668   0.382   1.301 -0.7060  0.6195 -0.5670
  897MOL0     H23736   7.840   0.396   1.106  2.0617 -1.6750  0.8184
  897MOL0     H23737   7.773   0.380   0.949 -2.4016  1.1891  0.2161
  897MOL0     H23738   7.830   0.128   0.953  0.1792 -2.5224  1.2589
  897MOL0     H23739   7.976   0.227   0.978  1.1337 -2.4805  0.2388
  897MOL0     H23740   7.836   0.104   1.213 -1.9543  0.6984 -1.8409
  897MOL0     H23741   7.951   0.024   1.108 -2.0226  0.4871 -2.8987
  897MOL0     H23742   8.086   0.113   1.307  2.2896  1.7670 -0.0701
  897MOL0     H23743   8.123   0.197   1.162 -1.9429 -0.4315 -1.2578
  897MOL0     H23744   7.952   0.529   1.378 -1.6033 -1.0368 -2.0777
  897MOL0     H23745   7.907   0.697   1.546  1.1972 -0.6059 -0.7962
  897MOL0     H23746   7.850   0.628   1.709 -0.9057  0.4257 -0.6494
  897MOL0     H23747   7.738   0.678   1.576  1.2354  0.5200 -4.5686
  897MOL0     H23748   7.439   0.352   1.817  1.8496 -3.1999 -1.3058
  897MOL0     H23749   7.291   0.380   2.007 -1.1676 -4.1423  2.2718
  897MOL0     H23750   7.439   0.224   2.393  0.4230  0.7317 -2.2192
  897MOL0     H23751   7.471   0.399   2.432  0.5197  0.4070 -1.0375
  897MOL0     H23752   7.239   0.412   2.497  3.1598  1.3727  0.9820
  897MOL0     H23753   7.209   0.244   2.428  0.5861  0.1689 -1.2169
  897MOL0     H23754   7.311   0.141   2.623 -2.0520  0.1777  1.6780
  897MOL0     H23755   7.240   0.275   2.695  0.0471 -0.7201  0.5647
  897MOL0     H23756   7.451   0.415   2.658 -1.9709  0.1116  1.9608
  897MOL0     H23757   7.529   0.254   2.606  0.8309  1.9416 -0.8292
  897MOL0     H23758   7.398   0.339   2.870  1.3672  0.6645 -0.5078
  897MOL0     H23759   7.473   0.185   2.843 -3.2956  0.3321  0.7439
  897MOL0     H23760   7.627   0.456   2.851  0.7876  0.1136 -0.0785
  897MOL0     H23761   7.688   0.304   2.785 -2.1882 -1.0427 -1.5986
  897MOL0     H23762   7.667   0.190   2.998 -0.1199  0.0717 -0.9577
  897MOL0     H23763   7.552   0.316   3.064 -0.4040 -0.2058 -0.1761
  897MOL0     H23764   7.714   0.477   3.101  1.0183  0.3777 -0.9416
  897MOL0     H23765   7.851   0.392   3.019 -0.1333  2.3506 -0.1967
  897MOL0     H23766   7.616   0.345   2.279 -2.3981 -0.6150  1.4238
  897MOL0     H23767   7.769   0.328   2.104 -1.2094 -1.1815 -0.0622
  897MOL0     H23768   7.726   0.162   1.616  1.1375 -3.6333 -2.4706
  897MOL0     H23769   7.877   0.114   1.431  0.8627  0.1076 -0.8114
  897MOL0     H23770   6.846   0.796   2.143 -1.2748  0.2488  1.0237
  897MOL0     H23771   6.610   0.742   2.235  1.6757 -0.7610  1.0323
  897MOL0     H23772   6.232   0.559   2.307  0.2859  0.1637 -2.3516
  897MOL0     H23773   5.988   0.499   2.359  0.2071  1.7715 -0.0099
  897MOL0     H23774   5.737   0.462   2.052  0.2653 -0.2970 -2.6181
  897MOL0     H23775   5.749   0.282   2.038  0.5586 -0.0402  0.6181
  897MOL0     H23776   5.563   0.437   2.213 -2.5633  0.9872 -3.0611
  897MOL0     H23777   5.591   0.252   2.217 -0.8433 -0.2229 -0.9638
  897MOL0     H23778   5.474   0.410   1.983  2.2204 -0.2719 -1.4104
  897MOL0     H23779   5.521   0.243   1.981  0.1962  0.6864 -0.0847
  897MOL0     H23780   5.320   0.351   2.182 -0.3747 -0.8015  0.8680
  897MOL0     H23781   5.362   0.181   2.173  0.1805  1.4751  2.7078
  897MOL0     H23782   5.105   0.226   1.843 -0.1601 -2.0132 -0.3959
  897MOL0     H23783   5.981   0.307   1.977  2.6488  0.3677 -1.4001
  897MOL0     H23784   6.298   0.373   1.869 -0.0251 -0.3602  0.1786
  897MOL0     H23785   6.246   0.221   1.928 -0.8367  0.4540  0.1363
  897MOL0     H23786   6.136   0.325   1.830 -1.4923 -2.1203 -0.8485
  898MOL0     O23787   1.482   0.572   5.321  0.1633  0.3041 -0.2154
  898MOL0     C23788   1.512   0.684   5.277  0.6344 -1.0450  0.7580
  898MOL0     O23789   1.429   0.760   5.196  0.4161 -0.6110 -0.6174
  898MOL0     C23790   1.346   0.699   5.122  1.1958  0.5513 -0.6719
  898MOL0     C23791   1.353   0.704   4.989 -0.5007  0.5089  0.3511
  898MOL0     C23792   1.273   0.627   4.898 -0.2771 -0.0671  0.2043
  898MOL0     C23793   1.157   0.557   4.951 -0.4869  0.1824  0.3187
  898MOL0     O23794   1.070   0.476   4.880 -0.4840  0.0711  0.2556
  898MOL0     C23795   1.120   0.422   4.749  0.2986 -0.2281  0.5005
  898MOL0     C23796   1.012   0.352   4.658 -1.1433  0.5778 -0.2431
  898MOL0     C23797   1.084   0.255   4.557  0.3539  0.4169  0.3289
  898MOL0     C23798   0.994   0.221   4.434 -0.0220  0.2691  0.5219
  898MOL0     C23799   0.882   0.116   4.480 -0.6816 -0.3571  0.6252
  898MOL0     C23800   0.778   0.082   4.372 -0.0523  0.3200 -0.0905
  898MOL0     C23801   0.678  -0.026   4.410 -0.1100 -0.2626  0.1863
  898MOL0     C23802   0.564   0.018   4.501 -0.0205 -0.3962  0.2937
  898MOL0     N23803   0.459  -0.080   4.507  0.2307  0.2794 -0.1649
  898MOL0     C23804   0.395  -0.131   4.616  0.0401 -0.0492 -0.4369
  898MOL0     C23805   0.313  -0.226   4.572  0.5621  0.0660 -0.6471
  898MOL0     C23806   0.230  -0.321   4.660 -0.0892 -0.9650  0.4080
  898MOL0     C23807   0.323  -0.436   4.701 -0.0731  1.3536 -0.2797
  898MOL0     C23808   0.438  -0.398   4.803 -1.1457 -0.4864  0.4106
  898MOL0     C23809   0.403  -0.318   4.926  0.1239  0.1566 -0.2764
  898MOL0     O23810   0.519  -0.273   4.985 -0.0662 -0.9408 -0.6268
  898MOL0     C23811   0.590  -0.366   5.060  0.4259  0.7604 -0.1643
  898MOL0     C23812   0.720  -0.323   5.081 -0.2408  0.4890 -0.4992
  898MOL0     C23813   0.812  -0.404   5.150 -0.0177  0.1258 -0.7161
  898MOL0     C23814   0.954  -0.343   5.161  0.3617  0.5528 -0.1161
  898MOL0     C23815   0.774  -0.534   5.203 -0.2765 -0.6682 -0.3006
  898MOL0     C23816   0.875  -0.624   5.284  0.2094 -0.4006  0.4523
  898MOL0     O23817   0.820  -0.726   5.357  0.1927  0.8469  0.3815
  898MOL0     C23818   0.901  -0.819   5.413  0.1946  0.1209  0.5410
  898MOL0     C23819   0.960  -0.921   5.340  0.3065 -1.0508 -0.7663
  898MOL0     C23820   1.025  -1.020   5.405  0.5863 -0.4571 -0.4096
  898MOL0     C23821   1.040  -1.020   5.548 -0.4086  0.1735 -0.2043
  898MOL0     O23822   1.125  -1.103   5.625 -0.4402 -0.5064  0.7058
  898MOL0     C23823   1.196  -1.207   5.553  0.8162  0.2470 -0.8098
  898MOL0     C23824   1.118  -1.337   5.539 -0.3937  0.2769  0.1598
  898MOL0     C23825   1.208  -1.436   5.454  0.0531  0.7400 -0.0832
  898MOL0     C23826   1.157  -1.580   5.454  0.0085 -0.3207 -0.0087
  898MOL0     C23827   1.231  -1.682   5.351 -0.4093  0.2169  0.8781
  898MOL0     C23828   1.210  -1.641   5.208  0.0856 -0.2082  0.3066
  898MOL0     C23829   1.291  -1.711   5.097 -0.5980  0.7627  0.1483
  898MOL0     C23830   1.304  -1.633   4.972 -0.2858 -0.3454 -1.5145
  898MOL0    Cl23831   1.389  -1.709   4.821  0.4194 -0.5311  0.1365
  898MOL0     C23832   0.956  -0.934   5.615  0.5262 -1.1557  0.2691
  898MOL0     C23833   0.891  -0.829   5.548 -0.4571  0.2577 -0.5531
  898MOL0     O23834   0.997  -0.598   5.290  0.1611  0.0790 -0.0503
  898MOL0     C23835   0.642  -0.573   5.176  0.0206  0.2914  0.2306
  898MOL0     C23836   0.554  -0.493   5.100  0.7008  0.0397 -0.4926
  898MOL0     N23837   0.299  -0.217   4.437 -0.7303  1.0334 -0.6948
  898MOL0     N23838   0.380  -0.129   4.402  0.1983 -0.9389  0.7730
  898MOL0     C23839   1.147   0.560   5.090 -1.1637 -0.1516  0.6929
  898MOL0     C23840   1.236   0.631   5.177 -0.3997 -0.0746 -0.7475
  898MOL0     C23841   1.653   0.754   5.305 -0.0745 -0.4489 -0.4748
  898MOL0     C23842   1.751   0.661   5.355 -0.9416 -0.5840  0.7294
  898MOL0     C23843   1.880   0.705   5.380  0.3378  0.4923  0.5087
  898MOL0     C23844   1.920   0.838   5.351  0.5174  0.5082 -0.3883
  898MOL0     O23845   2.051   0.866   5.386 -0.9982  0.4687  0.2033
  898MOL0     C23846   2.112   0.968   5.301 -0.0591  0.4568 -0.9566
  898MOL0     C23847   2.247   0.930   5.271 -0.9335 -1.4425  0.4320
  898MOL0     C23848   2.356   0.953   5.386 -0.3270 -0.7538  0.8816
  898MOL0     C23849   2.502   0.930   5.344 -0.1390 -0.6548  0.0742
  898MOL0     C23850   2.549   1.034   5.254  0.0087 -0.0796 -0.1058
  898MOL0     C23851   2.588   1.107   5.166  1.1956  1.1938 -0.7633
  898MOL0     C23852   1.825   0.931   5.330 -0.2732  0.1116  0.4850
  898MOL0     C23853   1.696   0.885   5.287  0.3214 -1.0064  0.4937
  898MOL0     C23854   1.599   1.003   5.268  0.3817  0.7419 -0.4463
  898MOL0     H23855   1.445   0.754   4.963 -1.3461  0.7240 -2.5983
  898MOL0     H23856   1.292   0.628   4.791 -2.5977 -0.5982 -0.2743
  898MOL0     H23857   1.207   0.363   4.776  1.7028  0.5877 -1.9596
  898MOL0     H23858   1.156   0.510   4.695 -0.3934 -0.9607 -1.2575
  898MOL0     H23859   0.940   0.305   4.726 -2.7289 -0.1939 -2.3482
  898MOL0     H23860   0.959   0.432   4.605  1.3411  1.3428 -1.7009
  898MOL0     H23861   1.172   0.311   4.524  0.1647 -1.0217 -3.0509
  898MOL0     H23862   1.110   0.159   4.602  0.1420  0.1621 -0.0875
  898MOL0     H23863   0.951   0.316   4.399  2.7238  1.3279 -0.2474
  898MOL0     H23864   1.053   0.182   4.351  0.9935 -3.0670  2.6155
  898MOL0     H23865   0.835   0.152   4.572 -1.7054 -0.3170  0.0952
  898MOL0     H23866   0.932   0.022   4.503  0.6596  0.3491  0.7351
  898MOL0     H23867   0.732   0.174   4.335 -1.2276 -0.6172 -1.0289
  898MOL0     H23868   0.822   0.042   4.280 -0.6241  1.4748 -0.8899
  898MOL0     H23869   0.718  -0.114   4.462 -0.0201 -1.3762 -1.6685
  898MOL0     H23870   0.634  -0.077   4.324 -1.2167 -0.4192  0.8233
  898MOL0     H23871   0.601   0.044   4.601 -0.8746 -0.8321  0.7371
  898MOL0     H23872   0.542   0.116   4.458  2.5427  0.4823  0.8062
  898MOL0     H23873   0.423  -0.112   4.719 -0.1578 -2.3549  0.0812
  898MOL0     H23874   0.150  -0.350   4.590 -0.1050 -1.5900  0.6762
  898MOL0     H23875   0.188  -0.268   4.745  0.7299  0.3396  0.0312
  898MOL0     H23876   0.257  -0.508   4.750 -2.2551  2.7708 -0.9944
  898MOL0     H23877   0.363  -0.486   4.613 -1.5134  0.7340 -0.6104
  898MOL0     H23878   0.488  -0.489   4.838  2.6299  1.3849  0.4244
  898MOL0     H23879   0.512  -0.350   4.737 -0.3358 -1.3363  0.6731
  898MOL0     H23880   0.351  -0.228   4.893 -0.6344 -0.3802 -0.5743
  898MOL0     H23881   0.340  -0.381   4.991  1.8105 -1.9486 -0.5611
  898MOL0     H23882   0.752  -0.222   5.060 -0.1769  0.6851  0.4733
  898MOL0     H23883   0.988  -0.347   5.265 -1.8452  0.0628  0.6292
  898MOL0     H23884   0.962  -0.239   5.126 -1.7246  1.0645  0.7795
  898MOL0     H23885   1.031  -0.396   5.105 -1.2281  0.2753 -2.1401
  898MOL0     H23886   0.946  -0.912   5.232  1.5350  1.1114 -0.7819
  898MOL0     H23887   1.066  -1.097   5.341 -0.2508 -1.7224  0.5522
  898MOL0     H23888   1.211  -1.178   5.448  1.1365 -0.6928 -1.0286
  898MOL0     H23889   1.290  -1.230   5.602 -0.5790 -3.4338  0.4440
  898MOL0     H23890   1.088  -1.376   5.637 -1.5846  0.6018 -0.0544
  898MOL0     H23891   1.024  -1.310   5.489  0.2629  0.9664 -0.7434
  898MOL0     H23892   1.306  -1.439   5.502  0.8030 -0.0294 -1.6177
  898MOL0     H23893   1.212  -1.400   5.352 -0.1070 -2.0893 -1.1922
  898MOL0     H23894   1.048  -1.579   5.444  0.1255  1.1591 -1.5536
  898MOL0     H23895   1.165  -1.626   5.553 -2.0672 -0.4881  0.1183
  898MOL0     H23896   1.339  -1.684   5.371 -0.5219 -0.0762  1.4816
  898MOL0     H23897   1.190  -1.783   5.358 -0.4056  0.0392 -0.9849
  898MOL0     H23898   1.227  -1.533   5.203  0.1396 -0.1575  1.3537
  898MOL0     H23899   1.110  -1.659   5.168  1.1067 -1.5836 -1.8577
  898MOL0     H23900   1.243  -1.806   5.070 -0.5178  1.6307 -3.6507
  898MOL0     H23901   1.391  -1.741   5.130 -0.2564  0.9594 -0.6761
  898MOL0     H23902   1.369  -1.550   5.000 -0.4010 -1.0267  0.9821
  898MOL0     H23903   1.206  -1.591   4.948  0.0900  0.3966 -1.7870
  898MOL0     H23904   0.946  -0.935   5.723 -1.7476 -3.0000  0.1155
  898MOL0     H23905   0.825  -0.763   5.603 -3.1208 -0.2913 -2.8562
  898MOL0     H23906   0.608  -0.672   5.205 -1.8569  0.5106 -0.9900
  898MOL0     H23907   0.456  -0.539   5.087 -0.2040  0.5651  3.2398
  898MOL0     H23908   1.058   0.516   5.134  0.8151 -3.3573  1.7805
  898MOL0     H23909   1.227   0.641   5.284 -1.2903 -0.6023 -0.7667
  898MOL0     H23910   1.738   0.554   5.368  0.4663 -0.7818  0.6463
  898MOL0     H23911   1.961   0.638   5.407  0.4889 -0.1826 -1.4777
  898MOL0     H23912   2.057   1.004   5.214 -1.1158 -0.2258 -0.5824
  898MOL0     H23913   2.120   1.057   5.364 -0.1081  1.0513 -1.7685
  898MOL0     H23914   2.276   0.990   5.184 -0.0310  0.3955  1.9211
  898MOL0     H23915   2.256   0.828   5.233  3.8523 -0.6567 -1.1942
  898MOL0     H23916   2.344   1.057   5.418  1.1915 -0.8558  1.9026
  898MOL0     H23917   2.335   0.884   5.468  2.2890 -3.1262 -0.2867
  898MOL0     H23918   2.513   0.827   5.309  0.9693  0.0981 -1.9843
  898MOL0     H23919   2.566   0.945   5.431 -0.2685  1.8184 -0.1661
  898MOL0     H23920   2.625   1.174   5.091  1.9360 -0.8070 -2.3032
  898MOL0     H23921   1.858   1.034   5.333  1.3400 -0.4102  2.2895
  898MOL0     H23922   1.646   1.093   5.309 -1.8064  0.4923  2.9561
  898MOL0     H23923   1.563   1.013   5.165 -1.4305 -2.3504 -0.2087
  898MOL0     H23924   1.514   0.980   5.331  2.6236 -2.0901  1.7980
  899MOL0     O23925   6.001   1.939   2.442 -0.1482 -0.2459 -0.1110
  899MOL0     C23926   6.069   1.934   2.541 -0.4481  0.0245  0.5586
  899MOL0     O23927   6.124   2.046   2.602 -0.0089 -0.8544 -0.4326
  899MOL0     C23928   6.068   2.175   2.596 -0.7197 -0.4462 -0.2932
  899MOL0     C23929   6.152   2.275   2.657 -0.1130 -0.1811 -0.3487
  899MOL0     C23930   6.123   2.411   2.643 -0.5876  0.2990 -0.3009
  899MOL0     C23931   6.003   2.445   2.577 -0.4677  0.7114 -0.1845
  899MOL0     O23932   5.982   2.574   2.552  0.2012  0.0822 -0.4797
  899MOL0     C23933   6.058   2.629   2.448 -0.7101 -0.4614 -0.1566
  899MOL0     C23934   6.064   2.785   2.445  0.7044 -0.6053 -0.4165
  899MOL0     C23935   6.161   2.846   2.539  0.6698  0.6755  0.3362
  899MOL0     C23936   6.308   2.802   2.528  0.4872 -0.3401  0.6330
  899MOL0     C23937   6.394   2.891   2.631 -0.3358 -0.4558  0.0444
  899MOL0     C23938   6.556   2.874   2.605  0.8633  0.5306  0.0877
  899MOL0     C23939   6.598   2.729   2.620  0.6446  0.3783 -0.0767
  899MOL0     C23940   6.571   2.673   2.760  0.2251 -1.0066 -0.2460
  899MOL0     N23941   6.593   2.529   2.756 -0.6305  0.4874 -0.2145
  899MOL0     C23942   6.708   2.475   2.713  0.0270  0.7121 -0.8179
  899MOL0     C23943   6.680   2.340   2.695  0.1265  0.0930 -0.6453
  899MOL0     C23944   6.799   2.251   2.657 -0.1996  0.0127  0.2413
  899MOL0     C23945   6.869   2.215   2.789  0.4064 -0.1241 -0.0785
  899MOL0     C23946   6.969   2.104   2.787 -0.3563 -0.3119  0.8546
  899MOL0     C23947   7.093   2.142   2.710  0.3827 -0.7055 -0.9584
  899MOL0     O23948   7.075   2.133   2.568 -0.3885 -0.2762 -0.3384
  899MOL0     C23949   7.178   2.157   2.486  0.8841  0.9104 -0.0925
  899MOL0     C23950   7.146   2.162   2.349 -0.5042 -0.6336  0.3461
  899MOL0     C23951   7.257   2.169   2.246 -0.0060 -0.0812 -1.2156
  899MOL0     C23952   7.214   2.149   2.111 -0.2677 -0.7409 -0.0673
  899MOL0     C23953   7.390   2.185   2.286 -0.5676  0.6026 -0.5317
  899MOL0     C23954   7.514   2.207   2.193 -0.1064  0.5532 -0.2374
  899MOL0     O23955   7.639   2.191   2.251 -0.4341 -0.1847  0.1238
  899MOL0     C23956   7.748   2.191   2.174  0.3655  1.1667  0.3599
  899MOL0     C23957   7.833   2.298   2.168 -0.3641 -0.0933 -0.5999
  899MOL0     C23958   7.952   2.302   2.100  0.5310  0.1755  0.7095
  899MOL0     C23959   7.983   2.202   2.009  0.1314 -0.0072 -0.8605
  899MOL0     O23960   8.094   2.201   1.930  0.7766 -0.4406 -0.2020
  899MOL0     C23961   8.202   2.303   1.944  0.4852  0.6456  0.2710
  899MOL0     C23962   8.209   2.421   1.847 -0.2695 -0.3367 -0.5988
  899MOL0     C23963   8.107   2.537   1.882  1.1712  0.3515  0.7829
  899MOL0     C23964   8.097   2.637   1.756  0.0077 -0.4923  0.5201
  899MOL0     C23965   7.987   2.742   1.785  0.0851 -0.7568 -0.6758
  899MOL0     C23966   8.017   2.842   1.899 -0.1694  0.5649  0.3878
  899MOL0     C23967   8.133   2.937   1.868 -0.2699 -0.4197 -0.5337
  899MOL0     C23968   8.104   3.081   1.895 -0.1721 -1.0856 -0.2998
  899MOL0    Cl23969   8.060   3.091   2.068  0.1010 -0.9203 -0.4435
  899MOL0     C23970   7.900   2.089   2.006  1.0033  0.7955  0.9890
  899MOL0     C23971   7.783   2.085   2.079  0.6932  0.5007 -0.4417
  899MOL0     O23972   7.487   2.255   2.084  0.5502 -0.4186 -0.5976
  899MOL0     C23973   7.410   2.184   2.428  0.4982  0.0385  0.4113
  899MOL0     C23974   7.309   2.181   2.528 -0.1675 -0.4892  1.0019
  899MOL0     N23975   6.546   2.319   2.720 -0.6409 -0.0272 -0.9137
  899MOL0     N23976   6.498   2.432   2.768 -0.2214 -0.0244 -0.3611
  899MOL0     C23977   5.914   2.350   2.536  0.2004 -0.2684 -0.4715
  899MOL0     C23978   5.945   2.217   2.540 -1.2911  0.2771 -0.1979
  899MOL0     C23979   6.121   1.800   2.578  0.5487 -0.8901  0.1676
  899MOL0     C23980   6.211   1.796   2.687  0.0675 -0.2781 -0.3097
  899MOL0     C23981   6.265   1.672   2.734  0.1340 -0.1741 -0.0059
  899MOL0     C23982   6.225   1.553   2.665 -0.9009  0.2533 -0.4116
  899MOL0     O23983   6.257   1.429   2.698  0.5493  0.9923 -1.0070
  899MOL0     C23984   6.367   1.413   2.792 -0.3314  0.5838  0.1969
  899MOL0     C23985   6.426   1.270   2.788 -0.0195  0.3029  0.5270
  899MOL0     C23986   6.316   1.155   2.776 -0.2776  0.0250  0.1020
  899MOL0     C23987   6.388   1.017   2.750 -0.0994 -0.3959  0.4912
  899MOL0     C23988   6.470   0.992   2.869 -0.3575  0.5871 -0.1881
  899MOL0     C23989   6.549   0.966   2.965 -0.2441 -0.3269  0.1337
  899MOL0     C23990   6.142   1.558   2.560 -0.3438 -0.0534 -0.2497
  899MOL0     C23991   6.100   1.680   2.499  0.7439  0.0014 -0.6934
  899MOL0     C23992   6.041   1.676   2.358  0.5747 -0.2274  0.1165
  899MOL0     H23993   6.243   2.247   2.709  1.0421  0.9095 -1.6883
  899MOL0     H23994   6.201   2.482   2.667  1.5247 -1.5365 -1.3441
  899MOL0     H23995   5.996   2.599   2.363 -1.0650 -2.3669  0.7061
  899MOL0     H23996   6.158   2.585   2.441 -0.6732 -0.6459  1.3422
  899MOL0     H23997   6.103   2.814   2.347  0.9834  0.0374 -0.1213
  899MOL0     H23998   5.967   2.829   2.470  1.9638  1.5714  0.8678
  899MOL0     H23999   6.156   2.954   2.519  0.6276  0.5774 -0.2064
  899MOL0     H24000   6.117   2.829   2.637  0.3185 -1.0957 -0.1076
  899MOL0     H24001   6.316   2.698   2.561  1.8134  0.0573  1.6549
  899MOL0     H24002   6.342   2.815   2.425  0.4593  0.6620  0.7408
  899MOL0     H24003   6.377   2.865   2.736  1.1103  1.4913  0.8180
  899MOL0     H24004   6.359   2.994   2.620 -2.2349 -0.7737  2.4182
  899MOL0     H24005   6.575   2.900   2.501  0.1912  0.5630 -0.0285
  899MOL0     H24006   6.606   2.950   2.666 -1.0637  3.0014 -1.2288
  899MOL0     H24007   6.707   2.726   2.615  1.0029  2.4311  3.3680
  899MOL0     H24008   6.553   2.668   2.541 -0.7373  0.7515  0.3909
  899MOL0     H24009   6.649   2.708   2.828  0.5216 -3.5479  0.8233
  899MOL0     H24010   6.471   2.694   2.799  0.6879 -1.7452  1.4459
  899MOL0     H24011   6.806   2.521   2.702  2.8714 -4.2727  0.3337
  899MOL0     H24012   6.854   2.303   2.578 -1.2158 -1.8138 -1.7510
  899MOL0     H24013   6.761   2.157   2.615 -0.4730  0.3125 -0.1898
  899MOL0     H24014   6.917   2.304   2.832  3.5693 -0.7096 -2.1191
  899MOL0     H24015   6.795   2.187   2.864  0.7539 -1.0205 -0.0590
  899MOL0     H24016   6.993   2.071   2.888 -2.6100 -0.2102  1.4630
  899MOL0     H24017   6.923   2.010   2.754 -0.1976 -0.6421  1.5578
  899MOL0     H24018   7.115   2.249   2.719  0.5399 -0.3714 -4.0721
  899MOL0     H24019   7.180   2.085   2.743  1.0779  1.2384  0.7787
  899MOL0     H24020   7.043   2.144   2.318 -1.1356 -0.1448  2.0490
  899MOL0     H24021   7.292   2.090   2.062  1.0679  2.2288 -1.7936
  899MOL0     H24022   7.207   2.247   2.063  0.1754  0.0717  1.4839
  899MOL0     H24023   7.117   2.100   2.095 -2.4929  2.5685  2.0523
  899MOL0     H24024   7.822   2.371   2.247 -0.8483 -0.4471 -0.3317
  899MOL0     H24025   8.011   2.393   2.111  0.6179  0.1901  0.1608
  899MOL0     H24026   8.199   2.328   2.051  2.4409  1.0726  0.2716
  899MOL0     H24027   8.300   2.257   1.925 -0.2356 -1.2754  0.8992
  899MOL0     H24028   8.312   2.456   1.858 -1.2042  2.5743 -0.2178
  899MOL0     H24029   8.197   2.390   1.742  0.9383 -0.1162 -0.8134
  899MOL0     H24030   8.144   2.594   1.968 -1.2114  0.9248  1.5190
  899MOL0     H24031   8.008   2.502   1.913  1.4141  0.2722  1.4916
  899MOL0     H24032   8.054   2.586   1.670 -0.9158  4.4759 -2.3141
  899MOL0     H24033   8.194   2.679   1.730  1.0780 -1.7011  2.3402
  899MOL0     H24034   7.980   2.798   1.691  4.3622  0.3896 -0.5669
  899MOL0     H24035   7.894   2.687   1.793  1.4020 -2.8708  1.4826
  899MOL0     H24036   8.044   2.784   1.988  1.3034 -0.9476 -0.9976
  899MOL0     H24037   7.926   2.900   1.915 -1.0719 -0.2101 -1.6806
  899MOL0     H24038   8.157   2.923   1.762  0.6884 -2.7650 -0.0679
  899MOL0     H24039   8.213   2.911   1.938 -2.4404 -2.5770  1.3060
  899MOL0     H24040   8.011   3.107   1.842  0.2076  0.0530 -0.4378
  899MOL0     H24041   8.189   3.141   1.862 -1.0896 -0.2100 -1.1388
  899MOL0     H24042   7.921   2.007   1.937 -2.1016  0.8371 -0.1573
  899MOL0     H24043   7.720   1.999   2.060  0.7831  0.5265 -0.8893
  899MOL0     H24044   7.513   2.198   2.456  0.3919  1.5910  0.0918
  899MOL0     H24045   7.332   2.196   2.632 -1.2810  1.5654  0.9968
  899MOL0     H24046   5.816   2.385   2.506 -0.0202  0.0093  0.5114
  899MOL0     H24047   5.871   2.149   2.498  0.3613 -1.6533 -0.0842
  899MOL0     H24048   6.239   1.889   2.734  1.7413  0.1579 -2.0544
  899MOL0     H24049   6.326   1.674   2.824  0.5190  0.9769 -0.2773
  899MOL0     H24050   6.445   1.485   2.764  1.6268 -1.9283 -1.2776
  899MOL0     H24051   6.333   1.434   2.894 -0.0589  1.6126  0.0836
  899MOL0     H24052   6.476   1.265   2.885  3.1144  1.8255 -0.8490
  899MOL0     H24053   6.493   1.267   2.701 -3.7679  2.8675 -2.8466
  899MOL0     H24054   6.256   1.152   2.867  0.9174  2.1803  1.0279
  899MOL0     H24055   6.244   1.171   2.695  0.5485  1.0438 -0.4641
  899MOL0     H24056   6.443   1.015   2.655 -2.1556 -3.9807 -0.8092
  899MOL0     H24057   6.315   0.936   2.739 -0.8717  0.4352 -0.7637
  899MOL0     H24058   6.622   0.939   3.038 -0.4536 -1.2593  0.0041
  899MOL0     H24059   6.124   1.461   2.515  0.8696 -1.7048  2.5808
  899MOL0     H24060   6.086   1.744   2.286  1.4916  0.2808  1.1471
  899MOL0     H24061   6.042   1.576   2.314 -2.5917 -1.0669  1.6218
  899MOL0     H24062   5.935   1.703   2.367  0.7607  0.7562 -0.4707
  900MOL0     O24063   9.920   5.957   5.767  0.2779  0.3155  0.0068
  900MOL0     C24064  10.035   5.904   5.779  0.6877  0.6097 -0.9038
  900MOL0     O24065  10.057   5.802   5.865  0.1229 -0.3141 -0.4029
  900MOL0     C24066   9.947   5.761   5.946 -0.7763 -0.0504 -0.0099
  900MOL0     C24067   9.908   5.825   6.063 -0.2859  0.3774  0.4412
  900MOL0     C24068   9.798   5.771   6.135  0.5140  0.2539 -0.4051
  900MOL0     C24069   9.731   5.651   6.094 -0.8581 -0.2364  0.0782
  900MOL0     O24070   9.629   5.596   6.158 -0.8601  0.0171 -0.1356
  900MOL0     C24071   9.642   5.606   6.303 -0.4439  1.0101 -1.2330
  900MOL0     C24072   9.538   5.505   6.353 -0.6190  1.1416 -0.1615
  900MOL0     C24073   9.587   5.365   6.326  1.2388  0.3467  0.2047
  900MOL0     C24074   9.493   5.251   6.369  0.1252  0.4791 -0.0450
  900MOL0     C24075   9.555   5.112   6.357 -0.0071  0.2888 -0.5321
  900MOL0     C24076   9.709   5.084   6.393 -0.3180  0.7547  0.2395
  900MOL0     C24077   9.769   4.986   6.302 -0.0659  0.7059  0.2785
  900MOL0     C24078   9.913   4.949   6.339 -0.3116  0.1192 -0.0877
  900MOL0     N24079   9.984   4.876   6.228  0.0036 -1.1102 -0.5222
  900MOL0     C24080  10.034   4.935   6.112 -0.0008 -0.4108 -0.7212
  900MOL0     C24081  10.109   4.842   6.055 -1.1809 -0.3546  1.3858
  900MOL0     C24082  10.184   4.844   5.922 -0.3557  0.0823 -0.3030
  900MOL0     C24083  10.124   4.728   5.836  0.1708 -0.0129 -0.6717
  900MOL0     C24084  10.181   4.741   5.700  0.2853  0.7141 -0.1973
  900MOL0     C24085  10.160   4.622   5.607 -0.5875  0.4398 -0.6405
  900MOL0     O24086  10.244   4.636   5.494 -0.1923  0.3331 -0.2393
  900MOL0     C24087  10.210   4.585   5.369  0.3165  0.5588 -0.1328
  900MOL0     C24088  10.166   4.675   5.274 -0.4428 -0.6264 -0.7368
  900MOL0     C24089  10.107   4.628   5.157  0.2328 -0.2773 -0.4839
  900MOL0     C24090  10.056   4.735   5.061 -0.2959 -0.0636 -0.0109
  900MOL0     C24091  10.104   4.488   5.134 -0.5717 -0.3356  0.3645
  900MOL0     C24092  10.035   4.425   5.011  0.6473 -0.5335 -0.0467
  900MOL0     O24093   9.991   4.293   5.028  0.3310  0.6212 -0.1396
  900MOL0     C24094   9.910   4.244   4.917  0.1759 -0.1270 -0.2171
  900MOL0     C24095   9.782   4.296   4.891  0.5093 -0.1285 -0.5195
  900MOL0     C24096   9.686   4.224   4.808 -0.2293 -0.3217 -0.0319
  900MOL0     C24097   9.736   4.119   4.731 -0.0013 -0.1687  0.1839
  900MOL0     O24098   9.653   4.059   4.646 -1.2174 -0.1261 -0.2491
  900MOL0     C24099   9.711   3.995   4.528  0.0825  0.0975  0.1353
  900MOL0     C24100   9.602   3.963   4.430 -0.1231  0.1862  0.2729
  900MOL0     C24101   9.519   3.844   4.485  0.2266 -0.2960 -0.3463
  900MOL0     C24102   9.592   3.715   4.500 -0.5406 -0.3338  0.7673
  900MOL0     C24103   9.504   3.599   4.550 -1.0813  1.0041  0.6133
  900MOL0     C24104   9.593   3.469   4.611  0.1843 -0.2663 -0.5094
  900MOL0     C24105   9.694   3.416   4.512 -0.6518  0.2780  0.5142
  900MOL0     C24106   9.771   3.290   4.561 -0.5814 -0.1684 -0.5467
  900MOL0    Cl24107   9.659   3.160   4.607  0.2934  0.0725  0.2701
  900MOL0     C24108   9.875   4.085   4.747  0.5037  0.3822 -0.1069
  900MOL0     C24109   9.962   4.148   4.837 -0.3355  0.5640 -0.7893
  900MOL0     O24110  10.008   4.492   4.905  0.6089  0.8827 -0.6507
  900MOL0     C24111  10.155   4.398   5.225 -0.2899 -0.1888  0.0185
  900MOL0     C24112  10.214   4.450   5.340 -0.1209  0.5795  0.0147
  900MOL0     N24113  10.097   4.725   6.138 -0.1909 -0.3047  0.2859
  900MOL0     N24114  10.029   4.753   6.242 -0.7793 -0.2334 -0.0471
  900MOL0     C24115   9.764   5.593   5.968  1.1359  0.2014  0.4657
  900MOL0     C24116   9.885   5.642   5.904  1.1786  0.0471  0.0478
  900MOL0     C24117  10.143   5.976   5.726  0.2895 -0.8668  1.4703
  900MOL0     C24118  10.235   6.025   5.818 -0.6367 -0.0332  0.8373
  900MOL0     C24119  10.353   6.093   5.776  0.5007 -0.9565 -0.1896
  900MOL0     C24120  10.370   6.110   5.636  0.4867  0.3500 -0.8907
  900MOL0     O24121  10.476   6.173   5.579  0.8110  0.1082 -0.2482
  900MOL0     C24122  10.559   6.272   5.645 -0.3515 -0.6761 -0.6558
  900MOL0     C24123  10.587   6.399   5.567  0.1295  0.2722  0.5883
  900MOL0     C24124  10.689   6.379   5.457 -0.1303  0.5345 -0.6377
  900MOL0     C24125  10.674   6.495   5.365  0.2965 -0.3142 -0.9334
  900MOL0     C24126  10.777   6.525   5.261 -0.9129  0.0548 -0.6128
  900MOL0     C24127  10.866   6.558   5.185  0.7666 -0.1107 -0.9603
  900MOL0     C24128  10.278   6.064   5.546  0.8807 -0.3513  0.1478
  900MOL0     C24129  10.164   6.002   5.585  0.5138 -0.4313 -0.4554
  900MOL0     C24130  10.066   5.963   5.477 -0.1622 -0.4231 -0.4110
  900MOL0     H24131   9.957   5.914   6.100  1.2213 -0.2437 -0.0103
  900MOL0     H24132   9.788   5.825   6.228 -4.9982  0.4391 -0.8105
  900MOL0     H24133   9.618   5.707   6.338 -2.1054 -0.1078  1.1744
  900MOL0     H24134   9.745   5.581   6.327 -1.9798 -1.3833  4.5505
  900MOL0     H24135   9.525   5.525   6.460  1.8489  0.3709  0.3355
  900MOL0     H24136   9.448   5.519   6.291 -0.0480  1.0863 -1.0267
  900MOL0     H24137   9.607   5.343   6.220 -0.5107  0.0884 -0.1013
  900MOL0     H24138   9.684   5.361   6.375 -0.1059  0.2824  3.0759
  900MOL0     H24139   9.481   5.255   6.477 -0.3758 -1.3844  0.0008
  900MOL0     H24140   9.391   5.259   6.330 -0.7594  1.3825  2.3081
  900MOL0     H24141   9.544   5.091   6.251 -0.3551  1.0014 -0.6466
  900MOL0     H24142   9.485   5.041   6.402 -0.4166  1.5086  0.8541
  900MOL0     H24143   9.766   5.175   6.373 -0.8446  1.2426  0.9107
  900MOL0     H24144   9.726   5.040   6.491  1.9813  1.4525  0.2173
  900MOL0     H24145   9.784   5.023   6.200  0.9277  0.6250  0.3933
  900MOL0     H24146   9.703   4.900   6.288  0.9490 -0.3167  1.6713
  900MOL0     H24147   9.961   5.045   6.360  0.9747 -0.8776  1.8333
  900MOL0     H24148   9.901   4.892   6.432 -5.4460  1.0528  0.1394
  900MOL0     H24149  10.025   5.037   6.075 -1.0873 -1.3471 -3.1909
  900MOL0     H24150  10.291   4.831   5.944 -0.5967  1.4254  2.0532
  900MOL0     H24151  10.162   4.939   5.872  2.4058  1.1237  0.2386
  900MOL0     H24152  10.151   4.625   5.863  2.1484  0.4377 -0.7994
  900MOL0     H24153  10.015   4.742   5.834  0.0980  2.1303  4.2016
  900MOL0     H24154  10.148   4.831   5.649  0.3885  0.9186  0.0918
  900MOL0     H24155  10.287   4.762   5.716 -0.2027  1.1136  3.4273
  900MOL0     H24156  10.193   4.535   5.664 -0.7073  0.5420 -0.4123
  900MOL0     H24157  10.056   4.605   5.579 -0.7069  1.9347 -1.1997
  900MOL0     H24158  10.164   4.781   5.297 -1.8260 -0.9574  0.8656
  900MOL0     H24159   9.948   4.728   5.076 -0.1492 -4.3750  0.1368
  900MOL0     H24160  10.088   4.725   4.957  0.4905 -0.2658  0.2403
  900MOL0     H24161  10.092   4.834   5.092 -1.5897  0.9098 -1.4248
  900MOL0     H24162   9.747   4.370   4.963  1.4790 -0.8001  0.6962
  900MOL0     H24163   9.582   4.254   4.813 -0.4438 -1.0799  0.2468
  900MOL0     H24164   9.779   4.065   4.477  1.9386 -1.1851  0.7141
  900MOL0     H24165   9.767   3.907   4.558  0.5192  0.9875  2.0861
  900MOL0     H24166   9.542   4.054   4.423  0.3182  0.3677 -1.8359
  900MOL0     H24167   9.641   3.930   4.334 -1.8917 -1.9488  0.2168
  900MOL0     H24168   9.434   3.827   4.419  0.5317 -1.8028 -0.3866
  900MOL0     H24169   9.481   3.879   4.581  0.9287  1.8227 -0.7675
  900MOL0     H24170   9.666   3.724   4.580 -1.5973 -0.0859  1.7272
  900MOL0     H24171   9.644   3.686   4.408 -3.2407  0.5880 -1.1604
  900MOL0     H24172   9.445   3.636   4.634  1.1430 -0.0076  2.7022
  900MOL0     H24173   9.432   3.556   4.479  0.1102 -1.5347  0.7976
  900MOL0     H24174   9.523   3.389   4.637  1.2331 -0.8470  0.6228
  900MOL0     H24175   9.638   3.516   4.699 -0.1996  2.4502 -1.6585
  900MOL0     H24176   9.766   3.492   4.481 -1.6570  1.0783  0.0572
  900MOL0     H24177   9.644   3.389   4.419  1.5259 -0.8451 -0.3957
  900MOL0     H24178   9.829   3.307   4.653 -3.0659  0.3768  1.0284
  900MOL0     H24179   9.836   3.254   4.481 -2.0391  2.4536 -3.0980
  900MOL0     H24180   9.926   4.024   4.673  2.7928  1.0972  0.7985
  900MOL0     H24181  10.061   4.108   4.851 -0.1300  1.5991  1.1726
  900MOL0     H24182  10.155   4.290   5.215 -0.2143 -0.2092  0.2200
  900MOL0     H24183  10.235   4.385   5.424 -1.3108 -0.2381 -0.3029
  900MOL0     H24184   9.714   5.512   5.917  0.1020  1.5738 -0.7952
  900MOL0     H24185   9.927   5.593   5.817  0.7705  0.0960 -0.1806
  900MOL0     H24186  10.219   5.994   5.921  0.7485 -2.1789  0.4634
  900MOL0     H24187  10.422   6.132   5.851 -0.6306 -2.1513  1.5444
  900MOL0     H24188  10.521   6.300   5.743  1.8559 -0.8593  0.2837
  900MOL0     H24189  10.658   6.231   5.661  0.1314  1.2595  1.8880
  900MOL0     H24190  10.622   6.478   5.633 -0.6394  0.3466  0.9198
  900MOL0     H24191  10.497   6.440   5.521  0.8576  0.9686 -0.2589
  900MOL0     H24192  10.792   6.374   5.495 -0.3570  2.4446  0.3705
  900MOL0     H24193  10.680   6.282   5.409  3.9298 -0.8063  0.8204
  900MOL0     H24194  10.668   6.583   5.429 -1.2168 -1.2217  0.2442
  900MOL0     H24195  10.579   6.479   5.314  1.6555 -5.2430 -2.4790
  900MOL0     H24196  10.936   6.602   5.118  1.9184  1.0634  0.9262
  900MOL0     H24197  10.299   6.072   5.439  2.2204 -0.6507  0.3697
  900MOL0     H24198  10.016   5.869   5.504  0.7304 -0.2995  1.9284
  900MOL0     H24199   9.993   6.044   5.471 -1.2183 -1.1469  1.6807
  900MOL0     H24200  10.128   5.957   5.387  4.2425  2.7635  2.0419
  901MOL0     O24201   7.077   6.613   1.809  0.0118  0.1759 -0.7634
  901MOL0     C24202   7.137   6.505   1.822 -0.1756  0.1642  0.1772
  901MOL0     O24203   7.166   6.444   1.941 -0.1405  0.3367 -0.0918
  901MOL0     C24204   7.091   6.473   2.054 -1.0386 -0.2015 -0.3910
  901MOL0     C24205   6.995   6.372   2.099 -0.2411 -0.4794  0.8688
  901MOL0     C24206   6.923   6.396   2.213 -0.1593  0.3922  0.4216
  901MOL0     C24207   6.954   6.500   2.304  0.1895  0.3067  0.6950
  901MOL0     O24208   6.873   6.514   2.417  0.0113  0.1313  0.1692
  901MOL0     C24209   6.916   6.589   2.530 -0.0346 -0.5246  0.0490
  901MOL0     C24210   6.830   6.577   2.659  0.0874 -0.5621  0.2753
  901MOL0     C24211   6.890   6.641   2.776  0.1074  0.0179 -0.5528
  901MOL0     C24212   6.862   6.592   2.917 -0.3068  0.5219 -0.4416
  901MOL0     C24213   6.897   6.693   3.037 -0.4216 -0.5148  0.4495
  901MOL0     C24214   7.033   6.761   3.022  0.1916 -0.6670  0.7546
  901MOL0     C24215   7.110   6.800   3.148 -0.7686 -0.8726  1.0338
  901MOL0     C24216   7.230   6.887   3.099  0.8095 -0.9540  0.3918
  901MOL0     N24217   7.319   6.917   3.221 -0.6916  0.2036  0.6312
  901MOL0     C24218   7.366   6.828   3.313 -0.1034 -0.3702  0.3278
  901MOL0     C24219   7.441   6.901   3.396  0.0265 -0.4329 -0.8356
  901MOL0     C24220   7.531   6.854   3.513  1.4612 -0.9383  0.3825
  901MOL0     C24221   7.670   6.878   3.478 -0.2859  0.3648 -0.5092
  901MOL0     C24222   7.762   6.835   3.599 -0.1130  0.7701  0.7661
  901MOL0     C24223   7.916   6.827   3.549 -0.0539  0.2520  0.8183
  901MOL0     O24224   7.993   6.941   3.606 -0.1443  0.4268 -0.0848
  901MOL0     C24225   8.114   6.972   3.548  0.2137  0.0783 -0.5083
  901MOL0     C24226   8.163   7.099   3.589 -0.5195 -0.0644  0.3769
  901MOL0     C24227   8.285   7.150   3.543  0.7085  0.1280 -0.2702
  901MOL0     C24228   8.334   7.284   3.584 -0.2746  0.5704  0.2273
  901MOL0     C24229   8.353   7.077   3.435 -0.6224 -0.3380  0.4391
  901MOL0     C24230   8.490   7.115   3.377 -0.0169  0.6021  0.6005
  901MOL0     O24231   8.497   7.161   3.246 -0.0010 -0.1424 -0.5662
  901MOL0     C24232   8.618   7.221   3.201  0.6614 -0.2941  0.4294
  901MOL0     C24233   8.736   7.152   3.195  1.2752 -0.2008  0.6851
  901MOL0     C24234   8.844   7.215   3.142  0.1897  0.6459  0.3258
  901MOL0     C24235   8.846   7.347   3.092  0.4965 -0.1745 -0.5276
  901MOL0     O24236   8.955   7.391   3.017 -0.1248 -0.8653 -0.4840
  901MOL0     C24237   8.955   7.519   2.948  0.5575 -0.2499 -0.0312
  901MOL0     C24238   9.021   7.631   3.028  0.0979 -0.0519 -0.2239
  901MOL0     C24239   8.985   7.757   2.950 -1.0806 -0.2356  0.1082
  901MOL0     C24240   9.052   7.884   2.992 -0.0010 -0.2335 -0.0286
  901MOL0     C24241   8.999   8.010   2.929 -0.8841  0.2482  0.3052
  901MOL0     C24242   9.100   8.110   2.883 -0.3157 -0.3315 -0.5098
  901MOL0     C24243   9.038   8.238   2.848 -0.0559  0.1539 -0.3958
  901MOL0     C24244   9.122   8.363   2.856 -0.5988 -0.2251  0.6703
  901MOL0    Cl24245   9.029   8.512   2.819  0.0722  0.1288  0.4346
  901MOL0     C24246   8.719   7.408   3.098 -0.3714 -0.7009  0.2266
  901MOL0     C24247   8.609   7.349   3.149  0.8900  0.7746  0.1366
  901MOL0     O24248   8.581   7.118   3.456 -0.4401  0.2425  0.7664
  901MOL0     C24249   8.298   6.952   3.396 -0.2971  0.4222 -0.6242
  901MOL0     C24250   8.184   6.900   3.449 -0.0948  0.5152 -1.3061
  901MOL0     N24251   7.420   7.035   3.365  0.2629  0.1845 -0.7846
  901MOL0     N24252   7.351   7.045   3.255 -1.3221 -0.0772  0.3895
  901MOL0     C24253   7.055   6.591   2.265 -0.1615  0.4062 -0.4715
  901MOL0     C24254   7.117   6.571   2.145  0.1109 -0.3071  0.1134
  901MOL0     C24255   7.177   6.427   1.704 -0.1281 -0.1004  0.2244
  901MOL0     C24256   7.092   6.430   1.590  0.7471  0.1008  0.0720
  901MOL0     C24257   7.121   6.344   1.473  0.5845 -0.8403  0.2185
  901MOL0     C24258   7.252   6.275   1.469  0.7320 -1.2368 -0.4051
  901MOL0     O24259   7.262   6.184   1.369  0.3510 -0.0311 -0.3836
  901MOL0     C24260   7.295   6.232   1.240  0.1096  0.3740 -0.8465
  901MOL0     C24261   7.439   6.283   1.236 -0.1079 -0.2212  0.9945
  901MOL0     C24262   7.461   6.437   1.240  0.1833 -0.5704 -0.2881
  901MOL0     C24263   7.590   6.503   1.180  0.1542  0.1005 -0.1174
  901MOL0     C24264   7.568   6.643   1.148  0.2477 -0.5497 -0.0062
  901MOL0     C24265   7.535   6.749   1.119  0.8448 -0.3413 -0.1766
  901MOL0     C24266   7.338   6.297   1.572  0.7432 -0.3188  0.6262
  901MOL0     C24267   7.302   6.361   1.693 -1.0260  0.8068 -1.0216
  901MOL0     C24268   7.410   6.365   1.797  0.5858 -0.5548 -0.0952
  901MOL0     H24269   6.983   6.282   2.039  1.2322  0.4777 -0.9216
  901MOL0     H24270   6.847   6.326   2.247 -2.0832  2.5039  0.6440
  901MOL0     H24271   6.910   6.694   2.500 -0.1876 -0.2104  1.1286
  901MOL0     H24272   7.019   6.568   2.560  0.2763  0.4347 -0.2925
  901MOL0     H24273   6.730   6.614   2.637  0.6125 -1.0970 -3.9048
  901MOL0     H24274   6.829   6.471   2.685  0.1265 -1.4072 -2.7547
  901MOL0     H24275   6.998   6.646   2.757  0.4048 -2.0864  0.2291
  901MOL0     H24276   6.856   6.744   2.772  0.9046  0.3768  0.9939
  901MOL0     H24277   6.756   6.565   2.921 -0.0203 -0.5106  2.2847
  901MOL0     H24278   6.923   6.502   2.916 -0.9559 -0.0576  2.4668
  901MOL0     H24279   6.895   6.646   3.135 -3.5886  0.0799  0.7658
  901MOL0     H24280   6.815   6.765   3.029 -0.2022 -0.4176 -1.6671
  901MOL0     H24281   7.101   6.694   2.968 -1.1273 -2.4729  1.2379
  901MOL0     H24282   7.016   6.844   2.953  0.9504 -1.3568 -0.2934
  901MOL0     H24283   7.154   6.716   3.202  2.1441  0.2483  0.5881
  901MOL0     H24284   7.038   6.855   3.208  0.2207  1.0379  0.5334
  901MOL0     H24285   7.296   6.835   3.029  0.9989 -0.4249  0.1695
  901MOL0     H24286   7.191   6.981   3.059  1.2568 -1.3790 -1.1371
  901MOL0     H24287   7.361   6.719   3.310 -2.3745 -0.3278  1.1269
  901MOL0     H24288   7.509   6.749   3.536 -1.6933 -0.0588  1.9505
  901MOL0     H24289   7.487   6.906   3.598  0.9471  1.9671 -1.5075
  901MOL0     H24290   7.684   6.809   3.395 -4.2465 -0.4900 -0.6200
  901MOL0     H24291   7.690   6.981   3.446 -1.5076  0.4004 -1.1801
  901MOL0     H24292   7.766   6.911   3.678  4.3993  0.7765  0.8000
  901MOL0     H24293   7.740   6.735   3.637 -0.1782  0.0219 -1.1175
  901MOL0     H24294   7.966   6.738   3.588 -0.3818 -0.3594 -0.1441
  901MOL0     H24295   7.926   6.823   3.441  3.6719  0.3156  1.0470
  901MOL0     H24296   8.100   7.166   3.648  0.0327  0.7321  0.0882
  901MOL0     H24297   8.328   7.354   3.500 -0.8156 -0.8686 -0.9930
  901MOL0     H24298   8.434   7.290   3.627 -0.0001  0.0543 -0.3134
  901MOL0     H24299   8.256   7.322   3.651 -0.1796  2.1682 -0.5223
  901MOL0     H24300   8.737   7.049   3.229 -1.2445 -0.3215  0.5339
  901MOL0     H24301   8.926   7.145   3.129  1.8904  2.4790  0.7823
  901MOL0     H24302   9.012   7.503   2.856 -2.0923 -2.6474 -1.4537
  901MOL0     H24303   8.857   7.551   2.911  1.5498  4.2887  0.7560
  901MOL0     H24304   8.985   7.627   3.131  1.2253  0.1170  0.1957
  901MOL0     H24305   9.130   7.623   3.019  0.1559  0.3854  0.0469
  901MOL0     H24306   8.878   7.768   2.932 -0.6845 -1.7369 -4.4420
  901MOL0     H24307   9.028   7.747   2.850  0.9925 -0.6750  1.0003
  901MOL0     H24308   9.161   7.877   2.979  0.7521  2.3852  3.4558
  901MOL0     H24309   9.039   7.906   3.099 -5.0719  1.3958 -0.7393
  901MOL0     H24310   8.931   7.991   2.846 -0.4675 -1.0092  0.2319
  901MOL0     H24311   8.931   8.063   2.996  0.4763  0.0336  1.9309
  901MOL0     H24312   9.163   8.063   2.807  0.5433  0.8238 -0.5398
  901MOL0     H24313   9.169   8.140   2.963 -1.6552 -1.1137  0.9751
  901MOL0     H24314   8.951   8.261   2.910 -0.6622  0.4303 -1.3325
  901MOL0     H24315   8.991   8.234   2.749 -1.8433 -3.3941  0.4520
  901MOL0     H24316   9.210   8.363   2.791 -0.2559  3.8965  0.8794
  901MOL0     H24317   9.146   8.373   2.962 -0.0407  1.3598  0.4177
  901MOL0     H24318   8.698   7.512   3.074 -1.6736 -1.2185 -1.0154
  901MOL0     H24319   8.520   7.409   3.168 -0.3381 -0.7289 -0.6527
  901MOL0     H24320   8.349   6.898   3.316 -0.9834 -0.0625 -0.7402
  901MOL0     H24321   8.155   6.808   3.399 -0.6618  1.0904 -2.0673
  901MOL0     H24322   7.074   6.676   2.329 -2.1316  0.0032  0.7327
  901MOL0     H24323   7.198   6.639   2.121  0.0289  0.2987  1.4875
  901MOL0     H24324   6.997   6.482   1.583  0.6699 -0.2569 -2.7269
  901MOL0     H24325   7.047   6.324   1.396  0.0076  0.2056  0.4777
  901MOL0     H24326   7.287   6.144   1.177 -0.5595 -1.4728  1.6507
  901MOL0     H24327   7.229   6.318   1.222  1.3841  1.7595  0.7874
  901MOL0     H24328   7.472   6.252   1.136 -1.2022  0.4898  0.4038
  901MOL0     H24329   7.493   6.224   1.311 -1.6735  0.8262  3.0416
  901MOL0     H24330   7.379   6.489   1.190 -1.3014 -1.6585  0.9166
  901MOL0     H24331   7.460   6.470   1.345 -1.3390  0.0171 -0.4503
  901MOL0     H24332   7.622   6.459   1.086  2.5099  2.0940 -0.3606
  901MOL0     H24333   7.675   6.497   1.249 -0.7796 -2.2774  0.9241
  901MOL0     H24334   7.502   6.849   1.096  0.8620  0.3129  2.3066
  901MOL0     H24335   7.433   6.243   1.568  0.3924 -1.0075  1.3505
  901MOL0     H24336   7.513   6.340   1.771  0.2308  0.5246 -2.8491
  901MOL0     H24337   7.410   6.470   1.828  0.0726 -1.0685  1.7942
  901MOL0     H24338   7.385   6.282   1.864  0.2739 -1.0629 -0.8328
  902MOL0     O24339  11.058   0.856   5.650  0.1858 -0.3383 -0.3187
  902MOL0     C24340  11.063   0.809   5.767 -0.5907 -1.0770 -0.8411
  902MOL0     O24341  10.957   0.796   5.849 -0.4617  0.0463 -0.7722
  902MOL0     C24342  10.830   0.811   5.802  0.1358  0.4141 -1.2035
  902MOL0     C24343  10.799   0.927   5.742  0.9620  0.3319 -0.5792
  902MOL0     C24344  10.659   0.969   5.716  0.7006  0.6699 -0.5656
  902MOL0     C24345  10.565   0.862   5.745 -0.9519 -0.4144 -0.0758
  902MOL0     O24346  10.441   0.905   5.708 -0.2735 -0.2400 -0.0706
  902MOL0     C24347  10.333   0.809   5.715  0.6905 -0.5865 -0.4247
  902MOL0     C24348  10.207   0.853   5.645  0.4477 -0.5666  0.6803
  902MOL0     C24349  10.218   0.841   5.492 -0.0119 -0.4539  0.4544
  902MOL0     C24350  10.228   0.700   5.436  0.2001 -0.1808  0.6915
  902MOL0     C24351  10.248   0.691   5.289 -1.4365 -0.3910  0.4365
  902MOL0     C24352  10.388   0.740   5.257 -0.2547 -0.2235 -0.0984
  902MOL0     C24353  10.419   0.701   5.117 -0.1324 -0.8951 -0.5064
  902MOL0     C24354  10.556   0.771   5.084 -0.3451 -0.5255 -0.2260
  902MOL0     N24355  10.677   0.705   5.150  0.0886  0.1350  0.3050
  902MOL0     C24356  10.738   0.739   5.271  0.2686 -1.1364 -0.2733
  902MOL0     C24357  10.854   0.676   5.266 -0.3675  0.6400 -0.0836
  902MOL0     C24358  10.967   0.687   5.369 -0.0689 -0.5603 -0.0474
  902MOL0     C24359  11.018   0.544   5.415 -0.5701 -0.0703  0.5960
  902MOL0     C24360  10.947   0.482   5.541  0.2331 -0.2851  0.4374
  902MOL0     C24361  10.999   0.347   5.577  0.0152 -0.0226 -0.1283
  902MOL0     O24362  10.942   0.314   5.705 -0.4698 -0.3872  0.3143
  902MOL0     C24363  11.012   0.359   5.818  0.5624  0.8653  0.2349
  902MOL0     C24364  11.144   0.332   5.836  0.2978  0.2606 -0.1773
  902MOL0     C24365  11.206   0.386   5.948 -0.5461  0.3615  0.9301
  902MOL0     C24366  11.347   0.342   5.945  0.0929 -0.0887  0.4159
  902MOL0     C24367  11.140   0.459   6.048  0.2081  0.1675  0.0629
  902MOL0     C24368  11.197   0.497   6.177  0.5837 -0.6576 -0.3644
  902MOL0     O24369  11.106   0.547   6.264 -0.5927  0.1344 -0.4396
  902MOL0     C24370  11.136   0.555   6.397 -0.1675  0.0329  0.2075
  902MOL0     C24371  11.037   0.524   6.493  1.3092 -0.1489  0.6194
  902MOL0     C24372  11.053   0.558   6.633 -0.3067  0.0175 -0.2350
  902MOL0     C24373  11.174   0.616   6.677  0.1843  1.7593  0.5208
  902MOL0     O24374  11.191   0.644   6.811 -0.0148  0.2449  0.3619
  902MOL0     C24375  11.326   0.646   6.845  0.1574  0.8121 -0.8917
  902MOL0     C24376  11.340   0.612   6.989  0.8255  0.4219  0.2653
  902MOL0     C24377  11.465   0.680   7.045  0.3110 -0.1169 -0.5876
  902MOL0     C24378  11.500   0.668   7.197 -0.0088  0.1757  0.1616
  902MOL0     C24379  11.645   0.716   7.226  0.0124  0.2103 -0.0547
  902MOL0     C24380  11.646   0.869   7.227  0.5382 -0.0066  0.4381
  902MOL0     C24381  11.735   0.920   7.333 -0.2516  0.3783  0.2307
  902MOL0     C24382  11.715   1.068   7.336 -0.2168 -0.0466 -0.1644
  902MOL0    Cl24383  11.855   1.131   7.410 -0.0737 -0.5793 -0.0478
  902MOL0     C24384  11.267   0.659   6.574  1.2917  0.0065  0.1562
  902MOL0     C24385  11.252   0.613   6.441 -1.2751 -0.8309 -0.4434
  902MOL0     O24386  11.317   0.473   6.202  0.2293 -0.2789  0.4491
  902MOL0     C24387  11.006   0.485   6.031 -0.8326  0.3353  0.3694
  902MOL0     C24388  10.941   0.432   5.919 -1.4610  1.0738 -0.7278
  902MOL0     N24389  10.866   0.611   5.142  0.0009  0.4805 -0.0492
  902MOL0     N24390  10.751   0.611   5.080 -0.1622  0.4987  0.0425
  902MOL0     C24391  10.606   0.742   5.803  0.5779  0.2376 -0.6341
  902MOL0     C24392  10.733   0.714   5.837 -1.6284  0.8028  0.4720
  902MOL0     C24393  11.196   0.800   5.826 -0.4072 -0.7964 -0.2266
  902MOL0     C24394  11.208   0.783   5.963  0.8802  0.3308  0.3771
  902MOL0     C24395  11.330   0.767   6.030 -0.1835 -0.4049 -0.7161
  902MOL0     C24396  11.452   0.766   5.954  1.1177  0.3743 -0.9051
  902MOL0     O24397  11.570   0.763   6.018  0.0055  0.1598  0.4088
  902MOL0     C24398  11.694   0.754   5.946  0.4172 -0.3225 -1.0181
  902MOL0     C24399  11.776   0.881   5.945 -0.5304 -0.3082 -0.5820
  902MOL0     C24400  11.794   0.918   6.089  0.9207 -0.7134 -0.0360
  902MOL0     C24401  11.901   1.025   6.114  0.3054  0.0738 -0.9974
  902MOL0     C24402  11.883   1.150   6.039 -0.4167  0.6624  0.3104
  902MOL0     C24403  11.857   1.257   5.993  0.1283  0.5538  0.1017
  902MOL0     C24404  11.446   0.799   5.818  0.1763 -0.0158  0.1781
  902MOL0     C24405  11.322   0.824   5.760 -0.3840  0.0940 -0.2761
  902MOL0     C24406  11.339   0.814   5.611  0.3252 -0.0329 -0.8947
  902MOL0     H24407  10.876   1.003   5.735  2.2575 -0.8736  0.1717
  902MOL0     H24408  10.619   1.064   5.682 -0.4758  1.2699  2.2868
  902MOL0     H24409  10.315   0.809   5.823 -3.3787 -0.8467 -0.9642
  902MOL0     H24410  10.374   0.714   5.679  2.1132 -1.2712  2.6696
  902MOL0     H24411  10.127   0.789   5.683  1.7897 -0.4021  4.1080
  902MOL0     H24412  10.181   0.953   5.678  2.8739  0.2819  0.2697
  902MOL0     H24413  10.123   0.874   5.450 -0.1804  0.2530  1.3481
  902MOL0     H24414  10.293   0.913   5.459 -1.6475  1.0013 -0.3034
  902MOL0     H24415  10.302   0.637   5.487 -0.9472 -2.3869 -0.2194
  902MOL0     H24416  10.129   0.655   5.451 -0.2785  0.7106  0.2896
  902MOL0     H24417  10.169   0.745   5.236  0.6577  2.2671 -0.1528
  902MOL0     H24418  10.241   0.584   5.269  1.4122 -0.6676  0.5048
  902MOL0     H24419  10.391   0.849   5.265 -5.0015  0.0995  0.0635
  902MOL0     H24420  10.461   0.691   5.322 -3.2456  0.4992  4.2970
  902MOL0     H24421  10.342   0.747   5.053  0.8542 -0.2655 -1.2779
  902MOL0     H24422  10.432   0.595   5.091  0.1345 -1.1379  0.5814
  902MOL0     H24423  10.570   0.754   4.977  1.4914 -1.4975  0.1276
  902MOL0     H24424  10.559   0.879   5.100  2.7764 -0.0940 -2.8201
  902MOL0     H24425  10.710   0.810   5.347 -0.7390  0.3790 -1.9730
  902MOL0     H24426  10.928   0.752   5.448 -0.1340  0.9444 -1.2945
  902MOL0     H24427  11.045   0.753   5.329 -3.1226  4.0708  0.8372
  902MOL0     H24428  10.998   0.472   5.335  0.0123 -0.9777  1.2442
  902MOL0     H24429  11.127   0.545   5.422 -0.4897 -0.8496 -0.3418
  902MOL0     H24430  10.961   0.552   5.624  0.5421  1.7342 -1.2300
  902MOL0     H24431  10.840   0.468   5.521 -0.1659  3.1775 -0.6738
  902MOL0     H24432  10.962   0.277   5.501 -0.0432  1.6087 -1.6798
  902MOL0     H24433  11.109   0.343   5.570 -0.1055 -2.7170 -1.7406
  902MOL0     H24434  11.182   0.276   5.751  0.1770  1.5689 -1.1309
  902MOL0     H24435  11.376   0.303   5.847 -2.6486 -3.3698  0.6969
  902MOL0     H24436  11.369   0.260   6.014 -2.6332  0.6005  2.2591
  902MOL0     H24437  11.415   0.423   5.973 -0.5442 -0.4058  3.1012
  902MOL0     H24438  10.945   0.474   6.468  0.4902 -0.4385  3.8067
  902MOL0     H24439  10.975   0.543   6.706 -1.0688 -0.2993 -1.0881
  902MOL0     H24440  11.387   0.567   6.801  1.1286  1.0025  0.0479
  902MOL0     H24441  11.369   0.741   6.814  2.9563  0.1730  0.6793
  902MOL0     H24442  11.247   0.647   7.036  2.0907 -0.2296  3.4804
  902MOL0     H24443  11.361   0.506   7.008 -0.7450  0.0369  0.0013
  902MOL0     H24444  11.457   0.787   7.023 -2.3241 -0.6831 -3.0237
  902MOL0     H24445  11.556   0.632   7.010  1.8448 -1.3788  4.2684
  902MOL0     H24446  11.491   0.560   7.218 -4.4370  0.3240 -0.1349
  902MOL0     H24447  11.420   0.725   7.245  0.0097  0.9168 -0.6660
  902MOL0     H24448  11.656   0.689   7.331  0.4399 -0.8841 -0.3641
  902MOL0     H24449  11.712   0.671   7.151 -2.6050  1.4173 -3.4003
  902MOL0     H24450  11.547   0.904   7.258 -1.0873 -4.3962  0.9819
  902MOL0     H24451  11.681   0.910   7.132 -1.3847  0.9301  0.0941
  902MOL0     H24452  11.833   0.890   7.295  0.8878  0.3459  2.9522
  902MOL0     H24453  11.722   0.868   7.428  1.6869 -0.1133  0.2649
  902MOL0     H24454  11.621   1.094   7.386 -2.2798 -1.3788 -3.0631
  902MOL0     H24455  11.719   1.123   7.241  1.3039 -0.0371 -0.1095
  902MOL0     H24456  11.360   0.704   6.606  0.1365  2.2378  0.6385
  902MOL0     H24457  11.330   0.651   6.377  0.2801 -0.1628  1.7161
  902MOL0     H24458  10.947   0.546   6.097  0.9925  2.3247  0.2685
  902MOL0     H24459  10.833   0.438   5.908 -1.5789  0.9531  0.2720
  902MOL0     H24460  10.529   0.669   5.825 -0.1460  0.5249 -2.0323
  902MOL0     H24461  10.760   0.623   5.891  1.2248  1.5288  0.4367
  902MOL0     H24462  11.118   0.780   6.022  0.1095  1.6713 -0.6785
  902MOL0     H24463  11.327   0.753   6.137 -0.9420 -3.5126 -1.0404
  902MOL0     H24464  11.746   0.673   5.998  1.1343  1.9205  2.0176
  902MOL0     H24465  11.687   0.721   5.842 -2.1689 -0.4315 -0.8819
  902MOL0     H24466  11.708   0.947   5.889 -4.0309 -0.5814  2.9064
  902MOL0     H24467  11.872   0.871   5.894 -0.8723 -3.7993 -0.7613
  902MOL0     H24468  11.697   0.948   6.130  2.0400  0.5211  1.8581
  902MOL0     H24469  11.830   0.831   6.144  3.9959 -0.3665 -1.2942
  902MOL0     H24470  12.001   0.985   6.096 -0.8532 -2.9446 -1.3305
  902MOL0     H24471  11.885   1.057   6.217  1.2321 -0.0431 -0.8046
  902MOL0     H24472  11.843   1.355   5.952  0.6808  0.2058 -0.9294
  902MOL0     H24473  11.539   0.812   5.764  0.9565  1.3987  1.7807
  902MOL0     H24474  11.439   0.835   5.573  0.8353 -0.1577  0.3521
  902MOL0     H24475  11.315   0.715   5.571  0.9150 -0.2569 -0.7026
  902MOL0     H24476  11.278   0.889   5.558  0.7138  2.0885  1.4871
  903MOL0     O24477   2.998  10.912   2.499  0.4834  0.5794 -0.1109
  903MOL0     C24478   3.028  10.797   2.490 -0.3615 -0.5915  0.8848
  903MOL0     O24479   2.952  10.702   2.434  0.0830  0.0449 -0.1050
  903MOL0     C24480   2.820  10.732   2.411 -0.2993  0.2416  0.3926
  903MOL0     C24481   2.713  10.728   2.510 -0.2725 -0.5817 -0.0586
  903MOL0     C24482   2.580  10.757   2.475  0.8280  0.4619 -0.0572
  903MOL0     C24483   2.547  10.795   2.343 -1.4045  0.2394  0.1428
  903MOL0     O24484   2.423  10.827   2.290 -0.7381  0.3255 -0.1857
  903MOL0     C24485   2.307  10.814   2.377  0.6734 -0.0021  0.1798
  903MOL0     C24486   2.189  10.886   2.306 -0.9368 -0.7383  0.0784
  903MOL0     C24487   2.080  10.899   2.400  0.8240 -0.6013  0.4182
  903MOL0     C24488   1.943  10.923   2.324 -0.0509 -0.3970 -0.6913
  903MOL0     C24489   1.827  10.931   2.429  0.5083 -0.0059 -0.0368
  903MOL0     C24490   1.682  10.927   2.373 -0.8242 -0.0941 -0.0286
  903MOL0     C24491   1.647  11.038   2.275 -0.5100 -0.9201  0.2286
  903MOL0     C24492   1.678  11.186   2.309  0.4388 -0.4250 -0.9590
  903MOL0     N24493   1.617  11.230   2.433 -0.1135  0.2785 -0.5440
  903MOL0     C24494   1.484  11.239   2.447  0.5057  0.1319  0.8976
  903MOL0     C24495   1.472  11.219   2.589  0.4852 -0.0823 -0.1803
  903MOL0     C24496   1.337  11.207   2.660 -0.5710 -0.6118  0.0587
  903MOL0     C24497   1.294  11.059   2.636 -0.4376  0.2130 -0.3096
  903MOL0     C24498   1.369  10.963   2.743  1.6051  0.4570 -0.1435
  903MOL0     C24499   1.304  10.823   2.725  0.2123  0.2438 -0.2788
  903MOL0     O24500   1.354  10.758   2.603  0.4236  0.2393 -0.0535
  903MOL0     C24501   1.482  10.700   2.591  0.8612 -0.3675 -0.4273
  903MOL0     C24502   1.523  10.635   2.475 -0.7114  0.3957  0.1842
  903MOL0     C24503   1.652  10.578   2.463  0.4724 -0.6482  0.2498
  903MOL0     C24504   1.662  10.490   2.335  0.4710  0.3308 -0.0841
  903MOL0     C24505   1.751  10.599   2.556  0.0065 -0.4125  0.2554
  903MOL0     C24506   1.888  10.558   2.534  0.4549  0.1479 -0.7851
  903MOL0     O24507   1.957  10.549   2.650 -0.6879 -0.1667  0.7946
  903MOL0     C24508   2.093  10.534   2.634 -0.2086 -0.7816  0.0639
  903MOL0     C24509   2.173  10.612   2.715  0.8010 -0.1167 -0.1183
  903MOL0     C24510   2.322  10.587   2.709  0.0654 -0.1136 -1.0243
  903MOL0     C24511   2.387  10.497   2.625 -0.1095  0.5429  0.4273
  903MOL0     O24512   2.527  10.482   2.623 -0.1086 -0.7091 -0.1542
  903MOL0     C24513   2.596  10.383   2.550  0.3370  1.0395 -0.4274
  903MOL0     C24514   2.679  10.298   2.642 -0.8197 -0.9495  0.1463
  903MOL0     C24515   2.785  10.390   2.688 -0.5597 -1.0622  0.3965
  903MOL0     C24516   2.891  10.339   2.774  0.0454 -0.2831  0.4282
  903MOL0     C24517   2.970  10.226   2.721  0.4775  0.1877  0.2092
  903MOL0     C24518   3.099  10.213   2.799 -0.3257  0.2436  0.1052
  903MOL0     C24519   3.192  10.120   2.728  0.0216  0.3047  0.5825
  903MOL0     C24520   3.311  10.078   2.809  0.6282 -0.2503  0.0161
  903MOL0    Cl24521   3.436  10.207   2.798 -0.3960 -0.4163  0.1215
  903MOL0     C24522   2.294  10.426   2.540  0.0346 -0.7497 -0.0683
  903MOL0     C24523   2.151  10.439   2.557  0.1141 -0.6884  0.4700
  903MOL0     O24524   1.931  10.570   2.420 -0.0514 -0.0832  0.1283
  903MOL0     C24525   1.711  10.657   2.678 -1.1419 -0.4787 -0.1128
  903MOL0     C24526   1.577  10.705   2.693  0.6140  0.0401  0.4619
  903MOL0     N24527   1.600  11.212   2.647 -0.3598 -0.5832  0.0733
  903MOL0     N24528   1.680  11.221   2.551  0.5302 -0.2124  0.6740
  903MOL0     C24529   2.657  10.807   2.251  0.0329 -0.9321 -0.4168
  903MOL0     C24530   2.792  10.773   2.281  0.0661 -0.0645  0.0311
  903MOL0     C24531   3.165  10.765   2.547 -0.4854 -0.1592 -0.8146
  903MOL0     C24532   3.238  10.864   2.617  0.5642  0.3694  0.5140
  903MOL0     C24533   3.365  10.837   2.676 -0.4598  0.6478 -0.8575
  903MOL0     C24534   3.419  10.712   2.673 -0.3987  0.4870 -0.1860
  903MOL0     O24535   3.544  10.678   2.729  0.4751  0.1229  1.1868
  903MOL0     C24536   3.532  10.647   2.867  0.1147 -0.0626 -0.2196
  903MOL0     C24537   3.560  10.773   2.951 -0.3169 -0.1961  0.0926
  903MOL0     C24538   3.498  10.770   3.084  0.4132 -0.6308 -0.2459
  903MOL0     C24539   3.550  10.883   3.172  0.1922 -0.2400  0.0762
  903MOL0     C24540   3.672  10.834   3.243  0.1652  0.5265 -0.5286
  903MOL0     C24541   3.765  10.795   3.303 -0.1947  0.5725 -0.4285
  903MOL0     C24542   3.347  10.621   2.595 -0.2931 -0.3131  0.0375
  903MOL0     C24543   3.223  10.637   2.542 -0.2939  0.0425 -0.5228
  903MOL0     C24544   3.166  10.505   2.490  0.2351 -0.3907 -0.0310
  903MOL0     H24545   2.731  10.683   2.608  0.2214 -1.6780 -0.6370
  903MOL0     H24546   2.501  10.733   2.545 -0.9789  0.4290 -2.0084
  903MOL0     H24547   2.309  10.844   2.482 -3.4845  0.8302  0.2142
  903MOL0     H24548   2.268  10.714   2.400 -0.2452  0.4223  0.5156
  903MOL0     H24549   2.230  10.981   2.271  0.5201  0.6110  4.6673
  903MOL0     H24550   2.152  10.830   2.220 -3.2778  0.8922 -0.0842
  903MOL0     H24551   2.065  10.808   2.458 -0.2307 -1.7066 -1.4539
  903MOL0     H24552   2.097  10.977   2.474  0.3926  0.8713 -0.9731
  903MOL0     H24553   1.950  11.020   2.276 -0.7919  2.0271  3.5909
  903MOL0     H24554   1.922  10.838   2.258 -2.1168  0.7547 -1.6020
  903MOL0     H24555   1.841  11.018   2.494  0.8331 -0.6736  0.8030
  903MOL0     H24556   1.825  10.840   2.489  1.1543  1.2189  1.9360
  903MOL0     H24557   1.671  10.829   2.324 -0.2974 -0.5820  0.8056
  903MOL0     H24558   1.627  10.928   2.467 -0.3678  0.4909  0.2387
  903MOL0     H24559   1.540  11.025   2.258 -0.3883 -3.2908  1.0027
  903MOL0     H24560   1.684  11.015   2.174 -0.5061  1.5371 -0.3940
  903MOL0     H24561   1.787  11.197   2.313  0.4686 -0.5966 -1.2472
  903MOL0     H24562   1.630  11.247   2.233 -4.3179 -0.6740  1.4789
  903MOL0     H24563   1.406  11.236   2.372  2.1457 -2.6751 -0.8785
  903MOL0     H24564   1.265  11.279   2.619 -1.1459 -0.6269  1.0119
  903MOL0     H24565   1.346  11.229   2.767  1.7329  1.4175 -0.4586
  903MOL0     H24566   1.188  11.037   2.647  0.3409 -3.8171  0.8442
  903MOL0     H24567   1.330  11.039   2.535 -0.1816 -1.1860  0.0291
  903MOL0     H24568   1.478  10.963   2.730  1.3079  0.6228 -3.5079
  903MOL0     H24569   1.334  10.985   2.844  3.0488 -0.5261  0.6026
  903MOL0     H24570   1.337  10.753   2.803 -0.0839 -0.8519 -1.1196
  903MOL0     H24571   1.195  10.833   2.725  0.1276 -0.5869 -0.8383
  903MOL0     H24572   1.447  10.635   2.397 -0.5593  3.4212 -0.0998
  903MOL0     H24573   1.697  10.389   2.357  0.6303  0.3435 -0.2837
  903MOL0     H24574   1.731  10.531   2.261  2.8663 -2.3257  0.4771
  903MOL0     H24575   1.563  10.474   2.291  1.3286  1.3326 -2.5257
  903MOL0     H24576   2.127  10.686   2.779 -0.3883 -1.4554  0.6219
  903MOL0     H24577   2.391  10.645   2.769  0.4663  0.2265 -1.8055
  903MOL0     H24578   2.530  10.317   2.492 -0.3867  0.6697  0.7653
  903MOL0     H24579   2.669  10.424   2.481  4.7054 -2.7770  1.3899
  903MOL0     H24580   2.612  10.267   2.723 -2.8148  2.6136  0.1077
  903MOL0     H24581   2.726  10.214   2.591  3.1181  0.1134  1.6800
  903MOL0     H24582   2.749  10.480   2.739 -2.3404 -2.8075  2.4138
  903MOL0     H24583   2.838  10.419   2.597  1.4677 -1.4207  1.4063
  903MOL0     H24584   2.855  10.300   2.870 -2.4019  2.0331  0.5806
  903MOL0     H24585   2.955  10.425   2.793 -0.8841  0.0927  2.0022
  903MOL0     H24586   2.903  10.140   2.731 -2.6971  2.3532 -1.0138
  903MOL0     H24587   2.996  10.232   2.615  3.6605 -1.8631  0.7067
  903MOL0     H24588   3.065  10.176   2.896 -4.9547  2.0403 -0.5812
  903MOL0     H24589   3.157  10.305   2.816 -1.0532  0.9817 -1.2329
  903MOL0     H24590   3.221  10.166   2.633  0.6301 -0.2139  0.5092
  903MOL0     H24591   3.140  10.028   2.701 -0.4915  0.8282 -0.2435
  903MOL0     H24592   3.359   9.992   2.762 -0.2896  0.1317 -1.6962
  903MOL0     H24593   3.293  10.054   2.914  0.4902 -0.2214 -0.0006
  903MOL0     H24594   2.328  10.366   2.456  2.5893 -0.3139  0.5584
  903MOL0     H24595   2.089  10.388   2.484  0.2347  0.7903 -0.7074
  903MOL0     H24596   1.780  10.673   2.761 -0.4010 -1.3408 -0.5495
  903MOL0     H24597   1.570  10.770   2.780 -0.7874  0.2520  0.2138
  903MOL0     H24598   2.632  10.845   2.153  0.5665  0.8754  0.1132
  903MOL0     H24599   2.869  10.768   2.204  1.6737  1.4284  1.4405
  903MOL0     H24600   3.207  10.967   2.625 -1.3274  0.1720 -2.5581
  903MOL0     H24601   3.410  10.919   2.730 -2.1765  0.4877  0.9055
  903MOL0     H24602   3.430  10.609   2.883 -1.0018  2.8216  0.0115
  903MOL0     H24603   3.597  10.567   2.903 -0.9881  0.5315  3.4756
  903MOL0     H24604   3.527  10.866   2.902 -0.9584  0.4674  1.7159
  903MOL0     H24605   3.667  10.792   2.966  0.0663 -2.1074  0.0684
  903MOL0     H24606   3.389  10.775   3.077  0.1418 -0.5514  2.7859
  903MOL0     H24607   3.519  10.669   3.120 -1.0408 -0.4238  1.2832
  903MOL0     H24608   3.474  10.917   3.243  0.3008  2.3819 -0.9524
  903MOL0     H24609   3.574  10.975   3.117  1.3845 -0.5982 -0.0291
  903MOL0     H24610   3.851  10.756   3.352 -0.4003  0.4049 -0.1985
  903MOL0     H24611   3.384  10.519   2.593  0.4236 -0.1219  1.5888
  903MOL0     H24612   3.140  10.524   2.385  4.4945  2.4990 -0.8009
  903MOL0     H24613   3.232  10.418   2.481  1.0102  0.3982 -3.1286
  903MOL0     H24614   3.077  10.469   2.543 -0.5419 -0.5939 -1.4210
  904MOL0     O24615   9.927   4.416   2.211 -0.4079 -0.3801  0.3811
  904MOL0     C24616   9.820   4.468   2.247  0.0594 -0.1939  0.8395
  904MOL0     O24617   9.693   4.434   2.200 -0.0098  0.5822 -0.2790
  904MOL0     C24618   9.678   4.381   2.072 -0.4676  1.0335  0.4392
  904MOL0     C24619   9.767   4.388   1.966 -0.5536  0.5329  0.1322
  904MOL0     C24620   9.717   4.364   1.835  0.5329  0.4039  0.5998
  904MOL0     C24621   9.583   4.319   1.806 -0.4548 -0.0911  0.4501
  904MOL0     O24622   9.537   4.322   1.672  0.1025 -0.6834  0.5105
  904MOL0     C24623   9.592   4.427   1.596  0.3920 -0.9265  0.6223
  904MOL0     C24624   9.500   4.460   1.469 -0.4581  0.3649 -0.0173
  904MOL0     C24625   9.581   4.535   1.361  0.0614  0.5654 -0.1441
  904MOL0     C24626   9.675   4.439   1.290  0.1023  0.4143 -0.2830
  904MOL0     C24627   9.753   4.511   1.188 -0.6264 -0.3990 -0.1341
  904MOL0     C24628   9.672   4.586   1.094 -0.0349  0.9083  0.0414
  904MOL0     C24629   9.756   4.657   0.990 -0.0551  0.1442 -0.8400
  904MOL0     C24630   9.676   4.726   0.889  0.1274  0.6602  0.4050
  904MOL0     N24631   9.617   4.860   0.927 -0.4373  0.2917 -0.5352
  904MOL0     C24632   9.687   4.984   0.928 -0.6532  0.0377 -0.6191
  904MOL0     C24633   9.601   5.066   0.982 -0.5642  0.5306 -0.7246
  904MOL0     C24634   9.594   5.218   0.998  0.0533 -0.9109  0.5509
  904MOL0     C24635   9.450   5.258   1.039 -0.5960  0.0202 -0.8424
  904MOL0     C24636   9.418   5.246   1.199  0.3819 -0.4012 -0.7080
  904MOL0     C24637   9.293   5.321   1.245 -0.1440 -0.0498 -0.7031
  904MOL0     O24638   9.292   5.319   1.392 -0.0988  1.2836  0.1611
  904MOL0     C24639   9.202   5.405   1.453  0.0674 -1.0413 -0.7932
  904MOL0     C24640   9.218   5.440   1.586 -0.2776  0.0126  0.3188
  904MOL0     C24641   9.122   5.505   1.660 -0.8910  0.3454  0.0843
  904MOL0     C24642   9.157   5.525   1.810 -0.2347 -0.2086  0.4505
  904MOL0     C24643   9.008   5.561   1.600  0.5148 -0.2290  0.9778
  904MOL0     C24644   8.906   5.649   1.669  0.4228  0.1315 -0.1645
  904MOL0     O24645   8.826   5.737   1.593  0.2168  0.0634 -0.8218
  904MOL0     C24646   8.714   5.791   1.652  0.6127  0.3730 -0.1801
  904MOL0     C24647   8.707   5.926   1.690  0.2077  0.4224 -0.0371
  904MOL0     C24648   8.598   5.991   1.748  0.5273  0.2658 -0.5115
  904MOL0     C24649   8.482   5.914   1.774 -1.2686  0.5994 -0.4329
  904MOL0     O24650   8.371   5.949   1.848 -0.0317 -0.7513 -0.5499
  904MOL0     C24651   8.259   5.984   1.761  0.3494 -0.1699  0.7888
  904MOL0     C24652   8.287   6.105   1.673  0.0451 -0.4296  0.2928
  904MOL0     C24653   8.156   6.135   1.592  0.0840  0.4682 -0.3819
  904MOL0     C24654   8.168   6.073   1.449  0.2825 -0.3484  1.0878
  904MOL0     C24655   8.035   6.110   1.386 -0.6559 -0.7132  0.5210
  904MOL0     C24656   8.037   6.097   1.235  0.1373 -0.3339 -0.1522
  904MOL0     C24657   7.904   6.137   1.182 -0.2823  0.4184 -0.5765
  904MOL0     C24658   7.889   6.094   1.040 -0.5939 -0.2715 -0.0196
  904MOL0    Cl24659   8.015   6.191   0.936 -0.2727 -0.0538  0.0501
  904MOL0     C24660   8.482   5.775   1.730  0.3957 -0.4860 -0.6194
  904MOL0     C24661   8.597   5.710   1.677 -0.5355  0.2668 -0.7801
  904MOL0     O24662   8.898   5.637   1.791 -1.0598 -0.2111 -0.0318
  904MOL0     C24663   8.985   5.532   1.463  1.2220 -0.0032  0.4941
  904MOL0     C24664   9.079   5.454   1.392 -1.1864  0.5255  0.4115
  904MOL0     N24665   9.490   4.995   1.011 -0.3517 -0.1389  0.2426
  904MOL0     N24666   9.488   4.876   0.978  0.1245  0.0851 -0.8792
  904MOL0     C24667   9.501   4.286   1.916 -0.2211 -0.2024  0.4017
  904MOL0     C24668   9.544   4.327   2.043  0.2719 -1.4276  0.5272
  904MOL0     C24669   9.818   4.561   2.368 -0.0786 -0.1459  0.8265
  904MOL0     C24670   9.693   4.618   2.396 -0.2717  0.4743 -1.2178
  904MOL0     C24671   9.674   4.694   2.518 -0.0011 -1.0139  0.4968
  904MOL0     C24672   9.789   4.723   2.595  0.7066 -0.0522  0.2643
  904MOL0     O24673   9.756   4.784   2.710  0.1379 -0.2544 -1.0017
  904MOL0     C24674   9.755   4.928   2.701  0.6233 -0.1065  0.3058
  904MOL0     C24675   9.655   4.985   2.799  0.4584  0.0062 -0.5582
  904MOL0     C24676   9.518   4.913   2.783  0.3367 -0.7441 -0.8143
  904MOL0     C24677   9.413   4.989   2.866 -0.4255  0.4499  0.3680
  904MOL0     C24678   9.275   4.939   2.850  0.5760  0.4424 -0.0484
  904MOL0     C24679   9.166   4.884   2.835  0.2595 -0.6266 -0.2163
  904MOL0     C24680   9.911   4.670   2.561  0.6674  0.1952 -0.6450
  904MOL0     C24681   9.926   4.589   2.452  0.1250 -0.5400  0.0983
  904MOL0     C24682  10.070   4.543   2.419 -0.0495  0.0314  1.0860
  904MOL0     H24683   9.868   4.421   1.984  0.0004 -1.7534  1.6855
  904MOL0     H24684   9.785   4.391   1.754  0.9130 -2.6511 -0.2493
  904MOL0     H24685   9.692   4.406   1.556  1.6080  5.3726 -0.6561
  904MOL0     H24686   9.602   4.521   1.651  2.2635 -1.6231  1.5596
  904MOL0     H24687   9.465   4.371   1.417 -0.7185 -1.0803  2.4605
  904MOL0     H24688   9.410   4.522   1.480 -2.3362 -1.7385 -2.2928
  904MOL0     H24689   9.509   4.572   1.288  2.4802  0.0791 -2.9667
  904MOL0     H24690   9.629   4.628   1.391 -1.7159  1.2988  0.5314
  904MOL0     H24691   9.731   4.381   1.364 -2.9035 -1.6722  0.5849
  904MOL0     H24692   9.623   4.361   1.234 -1.3784  1.8339 -0.9859
  904MOL0     H24693   9.811   4.436   1.134  0.5537  0.1011  0.4100
  904MOL0     H24694   9.814   4.582   1.245  0.3822 -0.4756 -1.0842
  904MOL0     H24695   9.602   4.514   1.051 -0.7593  1.6265  0.0004
  904MOL0     H24696   9.617   4.665   1.146 -0.0477  2.4038 -2.1056
  904MOL0     H24697   9.819   4.586   0.936  1.8851 -1.0361  2.6328
  904MOL0     H24698   9.823   4.719   1.050 -0.8875 -0.6535  1.0003
  904MOL0     H24699   9.738   4.735   0.799 -0.3136  1.5864  0.1773
  904MOL0     H24700   9.603   4.655   0.850  2.6276 -1.2324 -1.1657
  904MOL0     H24701   9.779   5.007   0.874  0.2029  1.9739  1.4784
  904MOL0     H24702   9.623   5.263   0.903  0.6761 -2.2341  0.0879
  904MOL0     H24703   9.662   5.261   1.073 -0.9899  0.9211  0.4917
  904MOL0     H24704   9.446   5.367   1.024  2.4943  0.0733 -2.0809
  904MOL0     H24705   9.378   5.215   0.969 -2.8195  2.8205 -0.4590
  904MOL0     H24706   9.406   5.141   1.228  2.0004  0.8684  6.8329
  904MOL0     H24707   9.498   5.282   1.264  0.4412  0.2943 -1.1659
  904MOL0     H24708   9.293   5.418   1.196  0.9577  0.9856  1.2040
  904MOL0     H24709   9.206   5.274   1.199 -1.5651  1.0784  0.7077
  904MOL0     H24710   9.307   5.401   1.635 -0.3548 -0.0748  0.3899
  904MOL0     H24711   9.151   5.632   1.834 -2.5946  0.0826 -1.0699
  904MOL0     H24712   9.259   5.495   1.834  0.3318  1.6128  0.4883
  904MOL0     H24713   9.089   5.477   1.881 -0.3739 -1.0706 -0.2455
  904MOL0     H24714   8.806   5.972   1.681  1.0686 -1.2149  0.5776
  904MOL0     H24715   8.601   6.092   1.788 -1.3682 -0.1402  0.7823
  904MOL0     H24716   8.232   5.903   1.693  0.5730 -0.5601  1.1649
  904MOL0     H24717   8.181   5.999   1.836 -0.4907 -0.4687 -0.0050
  904MOL0     H24718   8.318   6.185   1.741 -0.8405 -0.1715  0.4062
  904MOL0     H24719   8.365   6.089   1.598 -0.9164  0.3817 -0.9388
  904MOL0     H24720   8.141   6.243   1.601  1.0380  0.4873  1.4433
  904MOL0     H24721   8.076   6.075   1.636  0.2098 -1.0248 -2.0464
  904MOL0     H24722   8.189   5.966   1.449 -1.5905 -0.7457  1.3643
  904MOL0     H24723   8.262   6.110   1.406  0.7481 -1.9497  0.6600
  904MOL0     H24724   7.955   6.050   1.430 -2.1821  0.0636 -1.1192
  904MOL0     H24725   8.002   6.212   1.404  0.1699  0.3935 -3.2692
  904MOL0     H24726   8.048   5.989   1.220 -4.2374 -0.7882 -1.4492
  904MOL0     H24727   8.125   6.154   1.202 -0.6037  3.2897  3.3271
  904MOL0     H24728   7.878   6.241   1.204 -0.4512 -0.3302  3.7830
  904MOL0     H24729   7.825   6.069   1.216  0.0725  0.3603  0.1583
  904MOL0     H24730   7.794   6.127   0.996  1.1507  6.2977  0.1395
  904MOL0     H24731   7.886   5.985   1.043 -0.7100 -0.2445  2.4860
  904MOL0     H24732   8.396   5.717   1.762  1.0141 -0.8418  0.4481
  904MOL0     H24733   8.597   5.604   1.654  1.0273 -0.0034  0.3152
  904MOL0     H24734   8.891   5.549   1.411  0.5982  1.1446  1.9055
  904MOL0     H24735   9.061   5.423   1.290  0.5467 -0.5556  0.3907
  904MOL0     H24736   9.401   4.245   1.905 -0.7014  0.1129  2.8861
  904MOL0     H24737   9.469   4.323   2.121  0.1341  2.4198  0.7983
  904MOL0     H24738   9.608   4.600   2.331  1.3834 -3.2836 -2.6305
  904MOL0     H24739   9.581   4.749   2.526 -0.1563 -1.1498 -0.3425
  904MOL0     H24740   9.856   4.968   2.715  0.4417  0.9725 -1.2934
  904MOL0     H24741   9.722   4.950   2.600 -3.7593 -0.2022  1.5287
  904MOL0     H24742   9.641   5.092   2.782 -0.2971  0.0255  0.1107
  904MOL0     H24743   9.686   4.959   2.901  2.5111  0.4182 -1.0416
  904MOL0     H24744   9.497   4.914   2.676  0.9005 -2.3392 -0.9718
  904MOL0     H24745   9.523   4.809   2.816  0.7366 -0.1744  1.0593
  904MOL0     H24746   9.407   5.095   2.840 -0.5836  0.4316  0.3252
  904MOL0     H24747   9.451   4.976   2.967  0.9322 -0.5294 -0.2448
  904MOL0     H24748   9.072   4.834   2.827  0.0101 -0.5536  1.7835
  904MOL0     H24749   9.995   4.681   2.628 -0.5287 -1.3847  1.2201
  904MOL0     H24750  10.141   4.561   2.501  0.1757  1.9478  0.5391
  904MOL0     H24751  10.070   4.435   2.402 -4.1715  0.1334 -0.6641
  904MOL0     H24752  10.105   4.604   2.335 -0.0461 -2.0358 -0.4772
  905MOL0     O24753   0.237   8.970   4.992 -0.4018 -0.1851  0.8326
  905MOL0     C24754   0.141   8.895   4.981  0.0032  0.0628 -0.6360
  905MOL0     O24755   0.140   8.776   4.917  0.1267 -0.0556  1.2785
  905MOL0     C24756   0.250   8.697   4.883 -0.7951 -0.0978  0.5541
  905MOL0     C24757   0.369   8.745   4.822  0.4594  0.1837  0.4497
  905MOL0     C24758   0.467   8.661   4.783  0.5134  0.3203  0.2680
  905MOL0     C24759   0.457   8.526   4.802  0.3195  0.3105  0.6307
  905MOL0     O24760   0.562   8.448   4.753  0.2291 -0.3442  0.1320
  905MOL0     C24761   0.552   8.305   4.771 -0.2037 -0.2013  0.4538
  905MOL0     C24762   0.678   8.239   4.705  0.5742  0.7999 -0.5205
  905MOL0     C24763   0.638   8.093   4.667 -0.3766 -0.8620 -0.0842
  905MOL0     C24764   0.595   8.001   4.789 -0.4556 -0.1938  0.2218
  905MOL0     C24765   0.533   7.880   4.731  0.0996  0.1311  0.0727
  905MOL0     C24766   0.492   7.776   4.834 -0.0131 -0.3889 -0.3353
  905MOL0     C24767   0.416   7.658   4.766 -0.4241 -1.2870 -0.9386
  905MOL0     C24768   0.339   7.583   4.872  0.9763 -0.1826 -0.2654
  905MOL0     N24769   0.227   7.518   4.800  0.2238 -0.0021 -0.7710
  905MOL0     C24770   0.102   7.579   4.779 -0.0724  0.1544  0.3300
  905MOL0     C24771   0.043   7.509   4.685  0.8228  0.4318 -0.0226
  905MOL0     C24772  -0.096   7.523   4.617 -0.3366 -0.8521 -0.4864
  905MOL0     C24773  -0.141   7.675   4.595  0.5904 -0.1110 -0.7076
  905MOL0     C24774  -0.287   7.694   4.647 -1.0181  0.2717  0.5581
  905MOL0     C24775  -0.313   7.840   4.640  0.4052 -0.5990 -0.0959
  905MOL0     O24776  -0.449   7.852   4.651  0.1930 -0.3625  0.3223
  905MOL0     C24777  -0.519   7.970   4.649  0.5484  0.1218 -0.3057
  905MOL0     C24778  -0.469   8.101   4.656 -0.3476 -0.1774  0.9362
  905MOL0     C24779  -0.552   8.215   4.649 -0.4907 -0.5650 -0.0531
  905MOL0     C24780  -0.481   8.355   4.677 -1.2003  0.3955 -0.5358
  905MOL0     C24781  -0.695   8.197   4.652  0.6895 -1.3520  0.8397
  905MOL0     C24782  -0.802   8.312   4.634 -0.4197 -0.3064 -0.7470
  905MOL0     O24783  -0.935   8.271   4.642 -0.0610  0.1834 -0.7588
  905MOL0     C24784  -1.038   8.363   4.644 -0.1228  0.2454 -0.4225
  905MOL0     C24785  -1.042   8.481   4.561 -0.1815  0.3782  0.5352
  905MOL0     C24786  -1.162   8.553   4.551 -0.4217  0.1284  1.2290
  905MOL0     C24787  -1.279   8.523   4.618 -0.0286  0.1292 -0.3619
  905MOL0     O24788  -1.390   8.613   4.633 -0.1373 -0.3702 -0.0570
  905MOL0     C24789  -1.509   8.576   4.560 -0.6541  0.3512  0.4714
  905MOL0     C24790  -1.628   8.669   4.587 -0.3542  0.5575 -0.3998
  905MOL0     C24791  -1.744   8.646   4.494 -0.3820 -0.4748 -0.1191
  905MOL0     C24792  -1.783   8.502   4.495 -0.3122  0.4323 -0.0287
  905MOL0     C24793  -1.924   8.497   4.454 -0.3378 -0.1652 -0.6128
  905MOL0     C24794  -1.949   8.498   4.301  0.2594 -0.0243 -0.0572
  905MOL0     C24795  -2.096   8.477   4.257  0.3826  0.0652  0.3422
  905MOL0     C24796  -2.100   8.483   4.105  0.4596  0.0421 -0.1987
  905MOL0    Cl24797  -2.260   8.443   4.023 -0.2419  0.4241  0.6647
  905MOL0     C24798  -1.270   8.409   4.698 -0.1266 -0.3718 -0.2321
  905MOL0     C24799  -1.158   8.331   4.706  0.9604 -0.0557  0.0742
  905MOL0     O24800  -0.758   8.425   4.613 -0.2075 -0.0161  0.2317
  905MOL0     C24801  -0.741   8.068   4.642 -0.2421  0.5293 -0.2705
  905MOL0     C24802  -0.654   7.952   4.661 -0.2146 -0.5582 -0.1110
  905MOL0     N24803   0.114   7.402   4.664 -1.2392  0.4198 -0.1692
  905MOL0     N24804   0.232   7.403   4.730  0.4640  0.4946  0.5468
  905MOL0     C24805   0.346   8.479   4.873 -0.5331 -0.4965 -0.0466
  905MOL0     C24806   0.246   8.565   4.919 -0.3179 -0.6123  0.0745
  905MOL0     C24807   0.011   8.945   5.030  0.6088  0.2179 -0.0456
  905MOL0     C24808  -0.075   8.846   5.080 -0.1104 -0.2955  0.1313
  905MOL0     C24809  -0.202   8.867   5.123  0.3796  0.2078  0.4178
  905MOL0     C24810  -0.255   8.990   5.132  1.1170 -0.5420  0.2985
  905MOL0     O24811  -0.384   9.023   5.165 -0.4509 -0.2337 -0.4950
  905MOL0     C24812  -0.440   8.966   5.281 -1.0443 -0.0651  0.0804
  905MOL0     C24813  -0.597   8.998   5.286 -0.5133 -0.3541  0.2101
  905MOL0     C24814  -0.671   8.947   5.405  0.1799  0.3854 -0.6670
  905MOL0     C24815  -0.816   8.984   5.398  0.5695  0.2605  0.2658
  905MOL0     C24816  -0.900   8.890   5.330  0.3925 -0.2464 -0.0669
  905MOL0     C24817  -0.990   8.829   5.274  0.2055 -0.4483 -0.4967
  905MOL0     C24818  -0.182   9.094   5.076  0.0664  0.9331  0.8758
  905MOL0     C24819  -0.046   9.074   5.024 -0.6518 -0.7983  0.1916
  905MOL0     C24820   0.034   9.192   4.954 -0.5311  0.0612 -0.5292
  905MOL0     H24821   0.374   8.852   4.803  2.1177  1.4277  6.0431
  905MOL0     H24822   0.560   8.686   4.732  2.4421  1.1797  3.8702
  905MOL0     H24823   0.458   8.272   4.725  0.2009 -0.2370 -0.3467
  905MOL0     H24824   0.544   8.288   4.879 -1.2270  1.6323  0.7269
  905MOL0     H24825   0.707   8.301   4.620 -2.0082  1.1290 -1.2265
  905MOL0     H24826   0.762   8.252   4.774 -1.3251  0.5104  1.9986
  905MOL0     H24827   0.556   8.107   4.596 -3.1883 -2.9532  2.4892
  905MOL0     H24828   0.724   8.041   4.623  1.1765  0.2448  1.5101
  905MOL0     H24829   0.668   7.987   4.869  0.1275 -0.5441 -0.3592
  905MOL0     H24830   0.519   8.063   4.837 -2.3309 -0.6484 -1.9866
  905MOL0     H24831   0.605   7.829   4.665  0.3047  1.6862 -0.9512
  905MOL0     H24832   0.450   7.909   4.666  0.4546 -0.5813 -0.7262
  905MOL0     H24833   0.584   7.746   4.885 -0.5347  0.2995  1.0549
  905MOL0     H24834   0.424   7.817   4.909 -1.8403 -0.9424 -1.6180
  905MOL0     H24835   0.484   7.590   4.714 -0.7283 -0.6929 -2.1486
  905MOL0     H24836   0.342   7.696   4.695 -1.7815 -0.3462  0.8902
  905MOL0     H24837   0.397   7.499   4.912 -0.6757 -0.8159  0.8948
  905MOL0     H24838   0.307   7.648   4.954 -0.9278 -1.0274 -0.2923
  905MOL0     H24839   0.057   7.664   4.829 -0.5828 -0.0091  0.1526
  905MOL0     H24840  -0.158   7.476   4.694  0.3850  2.4350  2.3458
  905MOL0     H24841  -0.093   7.471   4.521 -0.1442 -0.7604 -0.5298
  905MOL0     H24842  -0.070   7.735   4.652 -0.0673 -0.9451  1.0934
  905MOL0     H24843  -0.135   7.697   4.488  3.8267  2.3309 -0.1797
  905MOL0     H24844  -0.356   7.643   4.579 -1.7604  1.3695  0.4577
  905MOL0     H24845  -0.308   7.659   4.748  0.7390  0.6428  1.0762
  905MOL0     H24846  -0.257   7.896   4.715 -1.7507  0.2771  0.9273
  905MOL0     H24847  -0.278   7.881   4.545  0.5673  3.2134  1.4606
  905MOL0     H24848  -0.363   8.126   4.650 -0.5481  0.3673 -3.0309
  905MOL0     H24849  -0.374   8.353   4.699 -1.9020  0.4771  3.5355
  905MOL0     H24850  -0.533   8.411   4.755 -3.2010 -0.9861 -0.7982
  905MOL0     H24851  -0.502   8.409   4.584  1.9629  0.8769 -1.0811
  905MOL0     H24852  -0.961   8.524   4.503 -0.8136 -0.4990 -1.0627
  905MOL0     H24853  -1.146   8.644   4.493 -2.1190  0.3284  1.0258
  905MOL0     H24854  -1.493   8.581   4.452  1.8385  0.3392  0.7903
  905MOL0     H24855  -1.546   8.473   4.572 -4.5014  1.1561 -2.3065
  905MOL0     H24856  -1.664   8.645   4.688  0.1716  0.0992 -0.3167
  905MOL0     H24857  -1.592   8.772   4.592  0.0757  0.6419 -3.4151
  905MOL0     H24858  -1.719   8.683   4.394 -2.1709  0.3754 -0.3095
  905MOL0     H24859  -1.822   8.706   4.543  1.8860 -0.7777  4.3396
  905MOL0     H24860  -1.765   8.459   4.594  0.3851  3.4159  1.2378
  905MOL0     H24861  -1.721   8.440   4.429 -1.7624  0.4853 -1.4984
  905MOL0     H24862  -1.953   8.399   4.494 -1.3027  0.1783 -0.4415
  905MOL0     H24863  -1.986   8.577   4.496  1.4782  1.1541 -0.3423
  905MOL0     H24864  -1.886   8.413   4.274  1.1712 -0.5019  3.1288
  905MOL0     H24865  -1.919   8.595   4.261 -1.9149  0.6115 -0.2744
  905MOL0     H24866  -2.155   8.558   4.301  1.1700  2.2549 -2.3368
  905MOL0     H24867  -2.140   8.383   4.292 -2.6255  1.8526  1.7877
  905MOL0     H24868  -2.030   8.407   4.070  0.3942 -0.9227  1.6650
  905MOL0     H24869  -2.066   8.583   4.075  1.1764  0.2229  1.1242
  905MOL0     H24870  -1.361   8.387   4.753 -1.1043  1.0671 -1.2346
  905MOL0     H24871  -1.170   8.243   4.768 -0.1010 -0.4962 -0.7350
  905MOL0     H24872  -0.847   8.054   4.627 -0.5931  2.3887  0.2954
  905MOL0     H24873  -0.707   7.858   4.670 -0.1062 -0.4194  3.3517
  905MOL0     H24874   0.352   8.376   4.906  2.6508  0.1547  1.7549
  905MOL0     H24875   0.163   8.532   4.982 -0.2013 -2.2428 -0.5809
  905MOL0     H24876  -0.043   8.744   5.094  1.4482  0.5707  4.4524
  905MOL0     H24877  -0.262   8.787   5.165 -3.0392  1.4752 -1.6166
  905MOL0     H24878  -0.425   8.857   5.277 -3.0151 -0.4826  2.0792
  905MOL0     H24879  -0.382   9.006   5.364  1.3581  0.8856 -1.9126
  905MOL0     H24880  -0.641   8.963   5.192  1.8708 -0.4487 -0.9421
  905MOL0     H24881  -0.590   9.107   5.283 -0.0087 -0.3820 -2.8513
  905MOL0     H24882  -0.670   8.838   5.418  1.7122  0.4245 -0.2145
  905MOL0     H24883  -0.630   8.993   5.495 -1.0360  2.2847 -1.0231
  905MOL0     H24884  -0.825   9.083   5.352  0.1286  1.0877  2.0398
  905MOL0     H24885  -0.851   8.985   5.502  5.1736  0.4858  2.0536
  905MOL0     H24886  -1.058   8.750   5.251  1.8089 -1.5764 -1.6417
  905MOL0     H24887  -0.233   9.189   5.086 -1.0438  0.2287  2.4116
  905MOL0     H24888  -0.033   9.279   4.959 -2.2774 -1.0825 -2.3358
  905MOL0     H24889   0.133   9.207   4.999 -1.1259 -0.3976  1.0091
  905MOL0     H24890   0.039   9.169   4.847 -1.7601 -1.2641 -0.3400
  906MOL0     O24891   7.378   4.559   8.333 -0.2250 -0.6135  0.7647
  906MOL0     C24892   7.341   4.576   8.445  1.1462  1.2717  0.3060
  906MOL0     O24893   7.310   4.474   8.525  0.8335  0.4655 -0.7826
  906MOL0     C24894   7.300   4.339   8.485  0.3444 -0.4478  0.3000
  906MOL0     C24895   7.344   4.244   8.575 -0.5375 -0.0900 -0.3519
  906MOL0     C24896   7.326   4.113   8.545 -0.9058  0.1415  0.0859
  906MOL0     C24897   7.277   4.066   8.421 -0.1365 -0.4809 -0.3158
  906MOL0     O24898   7.278   3.931   8.384  0.4163 -0.2289  0.8030
  906MOL0     C24899   7.346   3.836   8.467 -0.7400 -0.7998  1.1154
  906MOL0     C24900   7.322   3.696   8.399  0.0631 -0.3663 -0.3029
  906MOL0     C24901   7.420   3.657   8.291 -0.1274 -0.3092 -0.0839
  906MOL0     C24902   7.368   3.580   8.178  0.1151  0.7659 -0.5522
  906MOL0     C24903   7.469   3.569   8.062  0.0298  1.1435  0.6577
  906MOL0     C24904   7.569   3.456   8.102  0.3117 -0.4440 -0.6486
  906MOL0     C24905   7.679   3.442   7.989 -0.6052 -0.5938 -0.4520
  906MOL0     C24906   7.794   3.355   8.035 -0.1558  0.1876 -0.1930
  906MOL0     N24907   7.895   3.331   7.932  0.5665 -0.4336 -0.4424
  906MOL0     C24908   7.975   3.428   7.885 -0.2060 -0.3276  0.7024
  906MOL0     C24909   8.016   3.379   7.766 -0.3888 -0.4906 -0.8370
  906MOL0     C24910   8.085   3.438   7.643 -0.2092 -0.4809 -0.7404
  906MOL0     C24911   8.221   3.371   7.616 -0.0421 -0.8882  0.4728
  906MOL0     C24912   8.256   3.360   7.462  0.2448 -0.0034 -0.5052
  906MOL0     C24913   8.398   3.326   7.439 -0.7135 -0.7515 -0.9842
  906MOL0     O24914   8.491   3.434   7.478  0.7990  0.2542  0.3880
  906MOL0     C24915   8.593   3.477   7.396 -0.1978 -0.3134 -0.9164
  906MOL0     C24916   8.639   3.604   7.408 -0.0400  0.1497 -0.1379
  906MOL0     C24917   8.754   3.654   7.340  0.1295 -0.5751 -0.4926
  906MOL0     C24918   8.801   3.804   7.357  1.0686 -0.0727  0.3108
  906MOL0     C24919   8.837   3.557   7.272 -0.6145  0.3578 -0.1910
  906MOL0     C24920   8.969   3.591   7.215 -0.3711 -0.4846  0.1076
  906MOL0     O24921   9.010   3.522   7.107 -0.1108 -0.4247  0.2061
  906MOL0     C24922   9.133   3.531   7.057 -0.1027 -0.5443  0.3494
  906MOL0     C24923   9.198   3.410   7.018 -0.6046 -0.3015 -0.3929
  906MOL0     C24924   9.326   3.420   6.959 -0.6285 -0.5766  0.2970
  906MOL0     C24925   9.390   3.540   6.940  0.3042  0.6228  0.2423
  906MOL0     O24926   9.511   3.537   6.877 -0.3389 -0.0823  0.5884
  906MOL0     C24927   9.592   3.661   6.870 -0.3399  0.0958  0.2031
  906MOL0     C24928   9.702   3.657   6.755  0.7928  0.1895 -0.3809
  906MOL0     C24929   9.649   3.696   6.612  0.1426  0.4377  0.3406
  906MOL0     C24930   9.615   3.837   6.590  0.7814 -0.5426 -0.1491
  906MOL0     C24931   9.547   3.866   6.452  0.1505 -0.2741 -0.1817
  906MOL0     C24932   9.500   4.008   6.431 -1.1544 -0.7780  0.4136
  906MOL0     C24933   9.413   4.018   6.303 -0.2039 -0.0458  0.5547
  906MOL0     C24934   9.375   4.166   6.273 -0.6855 -0.0522 -0.4535
  906MOL0    Cl24935   9.527   4.261   6.244  0.0345  0.6368  0.5971
  906MOL0     C24936   9.331   3.652   6.998  0.8692 -0.4273  0.0067
  906MOL0     C24937   9.198   3.654   7.041 -0.5465  0.1166 -0.5226
  906MOL0     O24938   9.044   3.661   7.284 -0.2955 -0.0543  0.6521
  906MOL0     C24939   8.794   3.416   7.275  1.2828 -0.9417 -0.0922
  906MOL0     C24940   8.678   3.377   7.342  0.4522  0.1371 -0.3181
  906MOL0     N24941   7.966   3.253   7.755 -0.0382  0.2013  0.0599
  906MOL0     N24942   7.885   3.223   7.851 -0.2991 -0.8028 -0.8444
  906MOL0     C24943   7.234   4.161   8.332  0.5130  0.1837 -0.3971
  906MOL0     C24944   7.244   4.301   8.361  0.7470  0.2925 -0.1006
  906MOL0     C24945   7.315   4.708   8.500 -0.9856 -0.1364  0.0575
  906MOL0     C24946   7.224   4.710   8.614  0.2762  0.5596  0.1619
  906MOL0     C24947   7.202   4.819   8.689 -0.2053 -0.1389  0.1821
  906MOL0     C24948   7.250   4.946   8.648 -0.0136  0.9757 -0.0439
  906MOL0     O24949   7.217   5.064   8.700  1.1451 -0.8740 -0.2367
  906MOL0     C24950   7.084   5.097   8.651 -1.0545  0.1819  0.4276
  906MOL0     C24951   7.064   5.254   8.664 -0.3060  0.5770 -0.3430
  906MOL0     C24952   7.158   5.327   8.554 -0.0886  0.5260 -0.3026
  906MOL0     C24953   7.120   5.462   8.511 -0.3021 -0.7003 -0.1213
  906MOL0     C24954   7.230   5.534   8.455 -0.7648 -0.1725  0.7975
  906MOL0     C24955   7.319   5.587   8.396 -0.4762  0.7929 -0.5323
  906MOL0     C24956   7.333   4.950   8.533  0.7115 -0.5434  0.2545
  906MOL0     C24957   7.367   4.834   8.459  1.2550 -1.1959  1.1135
  906MOL0     C24958   7.427   4.859   8.328 -0.6444  0.1301 -0.6256
  906MOL0     H24959   7.396   4.276   8.664 -0.1929 -1.6952  0.0608
  906MOL0     H24960   7.383   4.051   8.614  3.5674  2.0965 -1.4629
  906MOL0     H24961   7.322   3.837   8.574 -2.2679  3.4239  0.9275
  906MOL0     H24962   7.454   3.852   8.460 -1.0576  1.4028  0.5949
  906MOL0     H24963   7.336   3.621   8.478 -1.6179 -0.1111  0.2818
  906MOL0     H24964   7.218   3.703   8.365 -0.1978  2.4267  0.7129
  906MOL0     H24965   7.461   3.750   8.250 -0.4739 -0.3036 -0.4248
  906MOL0     H24966   7.504   3.604   8.337 -0.0907 -0.8720 -0.7946
  906MOL0     H24967   7.356   3.478   8.217  1.0511  1.7286  2.5077
  906MOL0     H24968   7.274   3.632   8.158  0.3146  2.4956  2.4718
  906MOL0     H24969   7.513   3.667   8.038 -2.4029  2.1542  0.0263
  906MOL0     H24970   7.417   3.534   7.972 -1.2204  1.8747  1.0698
  906MOL0     H24971   7.626   3.476   8.193  1.1093 -0.3320 -1.1621
  906MOL0     H24972   7.523   3.357   8.112  0.6709 -0.7459 -1.9012
  906MOL0     H24973   7.717   3.543   7.969 -0.7194 -0.0773  1.7351
  906MOL0     H24974   7.642   3.391   7.900  2.0006 -1.9001 -0.9050
  906MOL0     H24975   7.836   3.404   8.123  0.0802 -0.6645  0.1791
  906MOL0     H24976   7.759   3.256   8.065 -0.5893  0.1328 -0.8577
  906MOL0     H24977   7.994   3.532   7.910  1.7907  0.6541 -3.8262
  906MOL0     H24978   8.098   3.546   7.647  1.8293 -0.7102 -0.2862
  906MOL0     H24979   8.027   3.429   7.550 -0.6818  1.5731 -0.6937
  906MOL0     H24980   8.293   3.437   7.665  1.0010  0.2232 -2.3273
  906MOL0     H24981   8.224   3.272   7.661  1.0483 -1.4943 -0.8455
  906MOL0     H24982   8.200   3.271   7.430  1.9565 -1.8697  1.4181
  906MOL0     H24983   8.226   3.450   7.407 -3.8019 -0.2881  0.9067
  906MOL0     H24984   8.425   3.234   7.492  0.4425 -1.4146 -2.6272
  906MOL0     H24985   8.416   3.304   7.333 -0.1769 -1.3071 -0.7830
  906MOL0     H24986   8.583   3.671   7.474 -0.8476 -0.6269 -0.0206
  906MOL0     H24987   8.842   3.838   7.261 -1.8569  1.1928 -0.5705
  906MOL0     H24988   8.870   3.813   7.441 -1.2962  2.2568  2.1239
  906MOL0     H24989   8.714   3.865   7.378  0.9307  0.3626 -1.3891
  906MOL0     H24990   9.154   3.313   7.038 -0.7088 -0.0091  0.9005
  906MOL0     H24991   9.377   3.326   6.941 -2.9191 -2.0400  0.9507
  906MOL0     H24992   9.533   3.751   6.850 -1.4066 -0.4694  0.6764
  906MOL0     H24993   9.644   3.676   6.965 -0.2835  1.3498 -0.0073
  906MOL0     H24994   9.772   3.737   6.780 -0.9401  1.3211  1.0854
  906MOL0     H24995   9.744   3.557   6.765  0.5815  0.3656  3.4561
  906MOL0     H24996   9.572   3.623   6.586 -1.2646  1.0628  2.4688
  906MOL0     H24997   9.737   3.671   6.552 -1.8909 -2.1799 -1.8195
  906MOL0     H24998   9.700   3.906   6.596  1.1810 -0.9836 -0.5359
  906MOL0     H24999   9.546   3.869   6.668 -0.3366 -0.8208 -0.9898
  906MOL0     H25000   9.607   3.834   6.367  0.0557 -3.4149  0.8339
  906MOL0     H25001   9.449   3.818   6.454 -0.8703  1.7072 -0.3392
  906MOL0     H25002   9.590   4.069   6.425 -0.1958 -2.1710  0.3858
  906MOL0     H25003   9.441   4.049   6.513 -1.1871  2.0656 -0.8799
  906MOL0     H25004   9.332   3.948   6.323 -0.9677  0.2255 -1.4029
  906MOL0     H25005   9.468   3.977   6.218  1.4445  0.8590  1.1319
  906MOL0     H25006   9.329   4.194   6.368 -0.4816  0.2292 -0.4350
  906MOL0     H25007   9.302   4.180   6.192 -0.3033 -0.7873 -0.9392
  906MOL0     H25008   9.379   3.750   6.999 -1.3457  0.7291 -0.5291
  906MOL0     H25009   9.149   3.748   7.062  0.8079  0.3405  1.9939
  906MOL0     H25010   8.860   3.348   7.222  2.5832  2.1375 -2.6976
  906MOL0     H25011   8.658   3.271   7.347 -2.2158  0.6267  1.6362
  906MOL0     H25012   7.190   4.135   8.237 -0.2743 -0.4629  0.1353
  906MOL0     H25013   7.203   4.370   8.288 -3.3319 -3.0871 -1.4003
  906MOL0     H25014   7.184   4.618   8.654 -0.0368  0.4275 -0.4363
  906MOL0     H25015   7.139   4.824   8.777 -1.1762 -1.9994 -0.3684
  906MOL0     H25016   7.060   5.075   8.546 -2.6862  1.4459  0.5012
  906MOL0     H25017   7.014   5.044   8.716 -0.6689 -1.4144 -0.4009
  906MOL0     H25018   7.104   5.273   8.764 -1.0433  0.0824  0.0559
  906MOL0     H25019   6.959   5.279   8.646 -0.6871  0.1646  1.1345
  906MOL0     H25020   7.261   5.338   8.590  0.6626 -2.3295 -1.2750
  906MOL0     H25021   7.172   5.258   8.470  2.3849 -0.1768  0.6047
  906MOL0     H25022   7.085   5.522   8.595  2.0324 -0.7322  0.9524
  906MOL0     H25023   7.043   5.451   8.434  0.3312  1.5003 -1.1474
  906MOL0     H25024   7.396   5.627   8.333  0.3918 -1.3599 -0.9237
  906MOL0     H25025   7.371   5.045   8.496 -0.1602  0.1027  0.9825
  906MOL0     H25026   7.411   4.963   8.299 -0.5836 -0.4789 -3.0942
  906MOL0     H25027   7.534   4.838   8.329 -0.8764 -1.1046 -0.3554
  906MOL0     H25028   7.379   4.798   8.250  0.3882 -4.4364  1.9171
  907MOL0     O25029   4.983   0.017   3.211 -0.0162  0.0700 -0.0566
  907MOL0     C25030   4.953   0.028   3.095  0.4888 -0.1005  0.2808
  907MOL0     O25031   4.880   0.132   3.041  0.1619 -0.2934  0.0843
  907MOL0     C25032   4.838   0.237   3.125 -0.5220 -0.2128  0.1203
  907MOL0     C25033   4.768   0.215   3.240  0.4552  0.0794 -0.7556
  907MOL0     C25034   4.746   0.320   3.337 -0.0687  0.4446  0.5135
  907MOL0     C25035   4.787   0.451   3.307  0.7589  0.0243  0.4415
  907MOL0     O25036   4.759   0.548   3.401  0.0339 -0.4806  1.1996
  907MOL0     C25037   4.863   0.647   3.415  0.5657  0.0242  0.3684
  907MOL0     C25038   4.816   0.740   3.528  0.2220  0.0028  1.0016
  907MOL0     C25039   4.703   0.838   3.482  0.7751  0.4279 -0.1361
  907MOL0     C25040   4.608   0.877   3.598  0.1812 -0.2881  0.2657
  907MOL0     C25041   4.489   0.780   3.620  0.6341  0.2607  0.0091
  907MOL0     C25042   4.523   0.637   3.676 -0.5898  0.0274 -0.4534
  907MOL0     C25043   4.401   0.546   3.691 -0.3421  0.0923 -0.5748
  907MOL0     C25044   4.451   0.395   3.710  0.5352 -0.6287  0.7006
  907MOL0     N25045   4.485   0.366   3.848  0.3339 -0.2456  0.1490
  907MOL0     C25046   4.414   0.276   3.928 -0.5686  0.3831 -0.5080
  907MOL0     C25047   4.459   0.299   4.054 -0.7299  0.5100  1.0363
  907MOL0     C25048   4.419   0.221   4.175  0.2209  0.6851 -0.7534
  907MOL0     C25049   4.443   0.067   4.170  0.4958  0.1277 -1.2374
  907MOL0     C25050   4.471   0.012   4.306  0.2669  0.4931  0.0982
  907MOL0     C25051   4.458  -0.147   4.318  0.8373 -0.6363 -0.1626
  907MOL0     O25052   4.376  -0.219   4.215  0.5604 -0.1348  0.1032
  907MOL0     C25053   4.443  -0.275   4.110  0.6661 -0.3886 -0.6433
  907MOL0     C25054   4.366  -0.363   4.037  0.4446 -0.4022 -0.5177
  907MOL0     C25055   4.428  -0.440   3.936 -0.4817  0.2814 -0.5884
  907MOL0     C25056   4.345  -0.564   3.899 -0.5655  0.1083  0.5336
  907MOL0     C25057   4.564  -0.418   3.901  0.3704  0.4221 -0.5712
  907MOL0     C25058   4.636  -0.500   3.811 -0.4376 -0.0467  0.0804
  907MOL0     O25059   4.582  -0.629   3.777 -0.1958 -0.0007  0.3567
  907MOL0     C25060   4.621  -0.691   3.660 -0.2191 -0.3863  0.1937
  907MOL0     C25061   4.660  -0.827   3.671 -1.0236 -0.8067 -0.2655
  907MOL0     C25062   4.736  -0.890   3.568 -0.5630  0.6519 -0.4068
  907MOL0     C25063   4.765  -0.826   3.447  0.3364 -0.4788 -0.5097
  907MOL0     O25064   4.828  -0.888   3.340  0.0795 -0.4924  0.4124
  907MOL0     C25065   4.882  -1.014   3.347  0.3648 -1.1347 -0.5187
  907MOL0     C25066   4.946  -1.052   3.219  0.1296 -0.1672 -0.0550
  907MOL0     C25067   5.005  -1.184   3.225 -0.8839 -0.2015  0.4699
  907MOL0     C25068   4.930  -1.282   3.137 -0.2646 -0.5701  0.0126
  907MOL0     C25069   5.016  -1.407   3.124  0.6349 -0.0989  0.7414
  907MOL0     C25070   4.934  -1.496   3.025  0.6796 -0.0844 -0.2459
  907MOL0     C25071   4.996  -1.628   3.003  0.1731  0.2245  0.1968
  907MOL0     C25072   4.893  -1.728   2.934 -0.0559 -0.0218 -0.9611
  907MOL0    Cl25073   4.803  -1.819   3.066 -0.3180 -0.0272  0.1991
  907MOL0     C25074   4.719  -0.695   3.430 -0.7695 -0.8868 -0.0894
  907MOL0     C25075   4.660  -0.626   3.534  0.3684  0.6106  0.1076
  907MOL0     O25076   4.745  -0.455   3.767  0.6477  0.4030  0.4960
  907MOL0     C25077   4.628  -0.313   3.967 -0.3769 -0.5749 -0.2727
  907MOL0     C25078   4.572  -0.236   4.070  0.0798 -0.5278 -0.5007
  907MOL0     N25079   4.563   0.389   4.045  0.2204 -0.1146 -0.8339
  907MOL0     N25080   4.566   0.436   3.928 -0.0722 -0.0038 -0.2793
  907MOL0     C25081   4.852   0.479   3.188 -0.7316 -0.0561 -0.2023
  907MOL0     C25082   4.884   0.373   3.101 -0.1342 -0.2431 -0.4374
  907MOL0     C25083   5.007  -0.072   2.988  0.2682  0.2960  0.7610
  907MOL0     C25084   4.914  -0.170   2.965  0.2362  0.1279  0.1907
  907MOL0     C25085   4.949  -0.268   2.874  0.0879  0.4242  0.5940
  907MOL0     C25086   5.069  -0.249   2.788  0.3391 -0.3636 -0.5908
  907MOL0     O25087   5.111  -0.335   2.690  0.0311 -0.0846 -0.1860
  907MOL0     C25088   5.050  -0.465   2.676  0.1491 -0.3314  0.2116
  907MOL0     C25089   5.140  -0.561   2.614 -0.1505 -0.5018 -0.5611
  907MOL0     C25090   5.184  -0.509   2.470 -0.0966 -0.1950 -0.9170
  907MOL0     C25091   5.317  -0.571   2.437 -0.9885 -0.3506 -0.4268
  907MOL0     C25092   5.351  -0.535   2.300 -0.4095  1.2653  0.5440
  907MOL0     C25093   5.384  -0.484   2.190  0.1161  0.5588  0.2202
  907MOL0     C25094   5.159  -0.142   2.812  0.2137 -0.6843 -0.1676
  907MOL0     C25095   5.128  -0.052   2.915 -0.5222 -0.2462 -0.4550
  907MOL0     C25096   5.213   0.064   2.953  0.9821  0.2194 -0.5788
  907MOL0     H25097   4.744   0.112   3.265  0.7894  0.1729 -0.0379
  907MOL0     H25098   4.712   0.292   3.435  0.5474 -0.6097  0.4367
  907MOL0     H25099   4.875   0.710   3.326 -1.3630  1.9230  1.3486
  907MOL0     H25100   4.957   0.595   3.436  0.1642 -0.7152  0.3513
  907MOL0     H25101   4.797   0.672   3.612 -0.2835 -1.0346  0.0806
  907MOL0     H25102   4.889   0.815   3.558  0.3837 -0.6165  2.1881
  907MOL0     H25103   4.746   0.936   3.457  1.3474  0.6106  1.4425
  907MOL0     H25104   4.648   0.803   3.394 -1.0651  2.7994 -0.0183
  907MOL0     H25105   4.670   0.880   3.688 -2.0139  0.2699  1.8348
  907MOL0     H25106   4.554   0.967   3.568 -1.1319 -0.7784  1.0835
  907MOL0     H25107   4.429   0.779   3.528 -1.9790  0.6293  1.5947
  907MOL0     H25108   4.419   0.829   3.689 -3.2224 -2.5251 -1.5602
  907MOL0     H25109   4.594   0.586   3.611  0.9778  0.6119  0.7317
  907MOL0     H25110   4.583   0.644   3.767  0.0379  0.3641 -0.8919
  907MOL0     H25111   4.339   0.537   3.601  0.0306 -2.2834 -0.6351
  907MOL0     H25112   4.336   0.590   3.767  0.1264 -0.4075  0.1152
  907MOL0     H25113   4.378   0.325   3.670  1.0439 -0.8422  0.1385
  907MOL0     H25114   4.542   0.380   3.652  0.5820  0.8613  0.3332
  907MOL0     H25115   4.338   0.203   3.903 -0.0337 -0.2506 -0.3220
  907MOL0     H25116   4.313   0.240   4.198  0.4346  2.6328 -1.2321
  907MOL0     H25117   4.483   0.245   4.260 -0.5814 -2.5791  0.9731
  907MOL0     H25118   4.348   0.033   4.126 -0.4416  1.0654 -0.0064
  907MOL0     H25119   4.516   0.054   4.090 -1.8002 -1.7806 -3.1936
  907MOL0     H25120   4.559   0.050   4.357  0.9873  2.0758 -2.1597
  907MOL0     H25121   4.396   0.047   4.378  1.6680  0.6201  1.5541
  907MOL0     H25122   4.561  -0.183   4.324  2.0829  2.8396  1.6573
  907MOL0     H25123   4.414  -0.175   4.415 -0.9810  1.8180 -0.1964
  907MOL0     H25124   4.264  -0.391   4.063 -1.2313  1.7250 -3.9917
  907MOL0     H25125   4.363  -0.650   3.965 -1.3809  0.9981  1.9583
  907MOL0     H25126   4.363  -0.595   3.795  0.2341 -2.1775  1.2977
  907MOL0     H25127   4.238  -0.543   3.910 -0.4513  2.8959 -2.2258
  907MOL0     H25128   4.646  -0.882   3.764 -2.3298 -3.3544 -1.8696
  907MOL0     H25129   4.769  -0.993   3.577 -1.3221  0.4430  0.0916
  907MOL0     H25130   4.962  -1.020   3.421  1.8236 -0.0181 -1.9210
  907MOL0     H25131   4.810  -1.094   3.367  0.9081 -1.8421 -1.2764
  907MOL0     H25132   4.868  -1.047   3.143 -0.4264  2.3453  0.6054
  907MOL0     H25133   5.010  -0.967   3.194 -0.7708  0.3297 -0.7049
  907MOL0     H25134   5.009  -1.226   3.326  2.5071 -0.2328  0.4207
  907MOL0     H25135   5.101  -1.156   3.180 -0.6846 -2.7920 -0.8887
  907MOL0     H25136   4.911  -1.235   3.040 -0.6177  0.7311  0.6840
  907MOL0     H25137   4.831  -1.306   3.179 -1.1941  2.1944 -0.3622
  907MOL0     H25138   5.106  -1.381   3.067  1.0421 -1.6380  0.6328
  907MOL0     H25139   5.029  -1.469   3.213 -1.4625 -2.8255 -0.6823
  907MOL0     H25140   4.933  -1.442   2.930  1.1039 -0.5861 -0.5446
  907MOL0     H25141   4.828  -1.496   3.053  0.3615  1.8082 -1.3035
  907MOL0     H25142   5.036  -1.676   3.093  0.2444 -2.2019 -1.0349
  907MOL0     H25143   5.075  -1.611   2.929 -1.6565 -1.6364 -2.3712
  907MOL0     H25144   4.953  -1.803   2.879  2.2316 -0.0208  1.3467
  907MOL0     H25145   4.815  -1.676   2.879 -0.4352 -1.2441 -1.6306
  907MOL0     H25146   4.739  -0.647   3.335 -2.5042  2.0586  0.8974
  907MOL0     H25147   4.645  -0.521   3.514 -0.4335  0.1904 -1.6470
  907MOL0     H25148   4.729  -0.283   3.940 -0.0930  1.6533  2.6559
  907MOL0     H25149   4.621  -0.151   4.116 -1.1805 -1.0996  2.1038
  907MOL0     H25150   4.890   0.572   3.148  2.8962 -0.3778  2.0663
  907MOL0     H25151   4.933   0.393   3.006 -1.6475 -0.9527 -1.4050
  907MOL0     H25152   4.813  -0.165   3.004  1.1272  2.0486  2.5311
  907MOL0     H25153   4.876  -0.340   2.838  0.2734  2.4478 -4.6435
  907MOL0     H25154   5.030  -0.496   2.779 -1.2238  1.5411  0.5726
  907MOL0     H25155   4.958  -0.457   2.617  1.2562  0.0810 -1.5002
  907MOL0     H25156   5.093  -0.658   2.602 -4.1074  1.3803 -2.0805
  907MOL0     H25157   5.226  -0.575   2.680 -0.9139 -0.3133  0.5137
  907MOL0     H25158   5.106  -0.516   2.393 -1.9277  0.9275  0.7554
  907MOL0     H25159   5.197  -0.401   2.484 -0.9639 -0.2096  0.0803
  907MOL0     H25160   5.308  -0.680   2.425 -0.6151 -0.4676  0.3139
  907MOL0     H25161   5.405  -0.546   2.497  1.4173  0.2608 -3.8584
  907MOL0     H25162   5.406  -0.432   2.099 -0.7489  0.5652  0.0101
  907MOL0     H25163   5.247  -0.131   2.751 -1.0393  0.3332 -1.8947
  907MOL0     H25164   5.272   0.035   3.040 -0.0434  2.8092  1.0841
  907MOL0     H25165   5.272   0.113   2.875  3.0285  0.9611  1.3361
  907MOL0     H25166   5.146   0.142   2.989  2.4429  1.3036 -0.1121
  908MOL0     O25167   8.618   7.898   6.032 -0.1368  0.0140  0.6398
  908MOL0     C25168   8.638   7.782   5.995  0.4973 -0.0890 -0.1987
  908MOL0     O25169   8.750   7.755   5.920 -1.3114  0.1321 -0.2513
  908MOL0     C25170   8.828   7.862   5.883 -0.1963 -0.2542  0.2620
  908MOL0     C25171   8.787   7.937   5.780  1.2843 -0.9944 -0.1171
  908MOL0     C25172   8.864   8.055   5.745 -0.0102  0.4375  0.4458
  908MOL0     C25173   8.982   8.079   5.819 -0.3623 -0.3352  0.3922
  908MOL0     O25174   9.078   8.168   5.776  0.6194 -0.7020 -0.2700
  908MOL0     C25175   9.086   8.212   5.641  0.2887  0.2351 -0.1577
  908MOL0     C25176   9.205   8.153   5.570  0.2424  0.4703 -0.0392
  908MOL0     C25177   9.341   8.169   5.643  0.7398  0.2602 -0.0820
  908MOL0     C25178   9.464   8.166   5.555  0.0687  0.1029  0.6592
  908MOL0     C25179   9.588   8.207   5.640 -0.8607 -0.8791 -0.4715
  908MOL0     C25180   9.714   8.154   5.584 -0.4579  0.0865 -0.2111
  908MOL0     C25181   9.752   8.218   5.452  0.0851  0.5917  0.0226
  908MOL0     C25182   9.851   8.136   5.375  0.7187  0.2253 -0.3976
  908MOL0     N25183   9.969   8.111   5.453  0.2744 -0.1614  0.5460
  908MOL0     C25184  10.059   8.211   5.495 -0.2559  0.2392  0.0287
  908MOL0     C25185  10.177   8.151   5.524 -0.1873  0.2492 -0.3565
  908MOL0     C25186  10.299   8.225   5.566 -0.6418 -0.8635  0.1016
  908MOL0     C25187  10.431   8.142   5.538  0.3949 -0.2083 -0.7876
  908MOL0     C25188  10.443   8.077   5.398 -0.6955 -0.3380 -0.3019
  908MOL0     C25189  10.584   8.012   5.390  0.2177  0.8664  0.6749
  908MOL0     O25190  10.682   8.112   5.408  0.2600 -0.7094 -0.5683
  908MOL0     C25191  10.796   8.074   5.469  0.3081  1.6440 -0.5847
  908MOL0     C25192  10.838   7.936   5.473 -0.8852  0.0226 -0.6354
  908MOL0     C25193  10.969   7.900   5.532  0.2523 -0.1945 -0.2653
  908MOL0     C25194  11.031   7.765   5.534 -0.4693  0.4941 -0.4941
  908MOL0     C25195  11.048   8.007   5.586  1.0587 -0.3174  0.2955
  908MOL0     C25196  11.177   7.987   5.653  0.2527 -0.1658  0.5443
  908MOL0     O25197  11.189   8.060   5.766 -0.1852  0.1325 -0.1628
  908MOL0     C25198  11.317   8.065   5.821  0.6177 -0.0031 -0.1980
  908MOL0     C25199  11.389   8.180   5.812 -0.5695 -1.0991 -0.5707
  908MOL0     C25200  11.522   8.187   5.852 -0.0528  0.1849  0.6721
  908MOL0     C25201  11.577   8.065   5.898 -0.5799  0.2647 -0.7365
  908MOL0     O25202  11.696   8.075   5.964 -0.1677 -0.3815 -0.3833
  908MOL0     C25203  11.806   8.145   5.899  0.1200 -0.4425  1.0939
  908MOL0     C25204  11.947   8.077   5.898 -0.0605 -0.0027  0.0761
  908MOL0     C25205  12.048   8.117   5.786 -0.1258  0.4134  0.6248
  908MOL0     C25206  11.993   8.076   5.648 -0.4460  0.1209 -0.6130
  908MOL0     C25207  12.095   8.089   5.537  0.4855 -0.0294  0.0647
  908MOL0     C25208  12.116   8.236   5.487  0.5501 -0.0022 -0.5723
  908MOL0     C25209  12.222   8.251   5.374 -0.0767  0.1443 -0.1234
  908MOL0     C25210  12.239   8.396   5.322  0.5109 -0.6585 -0.4651
  908MOL0    Cl25211  12.086   8.452   5.254  0.1043 -0.1537 -0.0494
  908MOL0     C25212  11.503   7.950   5.917  0.4615  1.0884  0.5262
  908MOL0     C25213  11.369   7.946   5.871 -0.1107 -1.3215 -0.8808
  908MOL0     O25214  11.262   7.922   5.599 -0.4169 -0.6568  0.2379
  908MOL0     C25215  10.993   8.138   5.583 -0.1595 -0.5635  0.5616
  908MOL0     C25216  10.873   8.165   5.529  0.7343 -0.7771  0.1602
  908MOL0     N25217  10.162   8.017   5.502 -0.8382  0.1903  0.5642
  908MOL0     N25218  10.042   7.995   5.460 -0.9136  0.8962  0.0365
  908MOL0     C25219   9.023   8.001   5.921  0.4084  0.4441 -0.5987
  908MOL0     C25220   8.939   7.894   5.957 -0.3210  0.0582 -0.7053
  908MOL0     C25221   8.539   7.680   6.042 -1.0177  0.1891 -0.1697
  908MOL0     C25222   8.415   7.724   6.101 -0.7577  0.7573  0.9947
  908MOL0     C25223   8.315   7.624   6.124 -0.1039 -0.7052  0.7985
  908MOL0     C25224   8.334   7.485   6.104 -0.9230  0.0580  0.3978
  908MOL0     O25225   8.228   7.397   6.139 -0.6454 -0.1136  0.5211
  908MOL0     C25226   8.259   7.261   6.116  0.2224 -0.2490 -0.6802
  908MOL0     C25227   8.169   7.167   6.202 -0.1597 -0.2435  0.4548
  908MOL0     C25228   8.185   7.027   6.142 -0.2763 -0.3131  0.9180
  908MOL0     C25229   8.086   6.932   6.220 -0.4350 -0.2714 -0.2254
  908MOL0     C25230   7.949   6.941   6.160  0.7849  0.0351  0.0043
  908MOL0     C25231   7.846   6.940   6.097  0.1921 -0.0779  0.0676
  908MOL0     C25232   8.461   7.449   6.060 -0.3460  0.2443 -0.4096
  908MOL0     C25233   8.565   7.542   6.025  0.3807  0.2489  0.1077
  908MOL0     C25234   8.688   7.479   5.962 -0.6824 -0.3996  0.6687
  908MOL0     H25235   8.706   7.895   5.722  1.6053 -1.2444 -0.3922
  908MOL0     H25236   8.819   8.127   5.677  1.6269 -0.2322 -1.4440
  908MOL0     H25237   9.096   8.321   5.646 -0.2587  0.2944 -0.2255
  908MOL0     H25238   8.996   8.200   5.579 -2.7294  3.1538  3.2349
  908MOL0     H25239   9.183   8.046   5.578 -1.7689  0.5342 -3.1098
  908MOL0     H25240   9.207   8.177   5.463 -1.3430  2.7330  0.3590
  908MOL0     H25241   9.341   8.264   5.697  0.6142  0.2629 -0.0872
  908MOL0     H25242   9.347   8.095   5.724  4.1724 -0.1920 -0.5983
  908MOL0     H25243   9.472   8.068   5.506  0.3450  0.4677 -0.0299
  908MOL0     H25244   9.455   8.236   5.472  3.4872  1.2820  1.1122
  908MOL0     H25245   9.586   8.161   5.740  1.1670 -2.4253 -1.0684
  908MOL0     H25246   9.599   8.315   5.652 -1.0951 -1.0145  1.2071
  908MOL0     H25247   9.795   8.188   5.650 -0.4385  5.0562 -2.3624
  908MOL0     H25248   9.706   8.045   5.582 -1.1133  0.0829  1.0423
  908MOL0     H25249   9.788   8.320   5.467 -1.9977  1.2382  0.8757
  908MOL0     H25250   9.663   8.227   5.390  0.3335  3.9624 -0.0151
  908MOL0     H25251   9.794   8.044   5.359 -0.0753  0.7901 -0.9208
  908MOL0     H25252   9.878   8.191   5.284  0.6859  4.9370  2.1574
  908MOL0     H25253  10.048   8.319   5.488 -1.1391  0.1530 -0.0910
  908MOL0     H25254  10.291   8.260   5.669 -0.3104  0.4333 -0.2963
  908MOL0     H25255  10.302   8.323   5.518  2.2740 -0.4366  0.9565
  908MOL0     H25256  10.510   8.217   5.550 -0.7581  1.9971 -4.9111
  908MOL0     H25257  10.430   8.059   5.609  4.2533 -1.4104 -1.9121
  908MOL0     H25258  10.375   7.993   5.379  1.3004 -2.4125  1.1370
  908MOL0     H25259  10.428   8.155   5.322 -0.3186 -0.3740 -0.4135
  908MOL0     H25260  10.570   7.940   5.471 -3.9953 -0.3988 -0.9295
  908MOL0     H25261  10.590   7.954   5.297 -1.7427  0.6592  0.6285
  908MOL0     H25262  10.785   7.858   5.420  2.1979 -1.8789 -1.1848
  908MOL0     H25263  10.960   7.690   5.498  0.2052 -0.1417 -0.5348
  908MOL0     H25264  11.074   7.734   5.630  3.0485  2.1090 -1.3723
  908MOL0     H25265  11.111   7.770   5.459  0.0603 -1.2229 -0.0831
  908MOL0     H25266  11.348   8.275   5.778  3.9450  2.3555  2.4524
  908MOL0     H25267  11.580   8.279   5.846 -0.0079  0.0764 -1.3133
  908MOL0     H25268  11.773   8.166   5.797  1.8430 -2.1120  0.1213
  908MOL0     H25269  11.822   8.245   5.940 -0.8217  0.0301  0.3630
  908MOL0     H25270  12.004   8.099   5.989  1.4435  1.2177 -1.1005
  908MOL0     H25271  11.932   7.969   5.887 -0.6357  0.2460 -1.8889
  908MOL0     H25272  12.145   8.067   5.798 -0.1950 -2.4252 -6.2131
  908MOL0     H25273  12.067   8.224   5.798 -1.4209  0.4897  2.2858
  908MOL0     H25274  11.908   8.140   5.623 -0.6415  1.4565  2.9625
  908MOL0     H25275  11.970   7.969   5.648  0.8274 -0.1613 -0.7132
  908MOL0     H25276  12.197   8.055   5.558  0.5201 -1.7967 -2.6043
  908MOL0     H25277  12.069   8.031   5.449 -0.5558 -0.5416  0.7007
  908MOL0     H25278  12.150   8.299   5.570 -1.3734  2.1852 -1.3428
  908MOL0     H25279  12.016   8.276   5.466  1.3437  3.2205  1.1338
  908MOL0     H25280  12.189   8.200   5.283 -0.9462  2.5107 -1.2261
  908MOL0     H25281  12.316   8.209   5.410  0.0450  0.8606  0.4224
  908MOL0     H25282  12.330   8.388   5.262  0.9742  2.5485 -0.3193
  908MOL0     H25283  12.276   8.467   5.397  0.0282  1.1637 -1.8892
  908MOL0     H25284  11.555   7.861   5.952  1.2343  0.6345 -1.6476
  908MOL0     H25285  11.311   7.855   5.867 -0.0774 -1.6082  2.3502
  908MOL0     H25286  11.057   8.222   5.609  1.5625 -0.7806 -2.5390
  908MOL0     H25287  10.857   8.270   5.512 -0.3101 -1.2771 -2.4066
  908MOL0     H25288   9.099   8.017   5.997 -2.6141 -2.1290  3.3808
  908MOL0     H25289   8.961   7.827   6.039 -1.5715 -2.0309 -1.9829
  908MOL0     H25290   8.396   7.829   6.120  0.3283  1.0232  0.6552
  908MOL0     H25291   8.212   7.645   6.151 -0.0488 -0.2039  0.6290
  908MOL0     H25292   8.236   7.231   6.013 -2.5547  0.8989 -0.4693
  908MOL0     H25293   8.361   7.237   6.147 -0.3431  0.1606  1.7244
  908MOL0     H25294   8.066   7.203   6.203  0.0659  0.5698  3.0616
  908MOL0     H25295   8.193   7.172   6.309 -1.1763  0.1741  0.6770
  908MOL0     H25296   8.154   7.034   6.038  1.0404  0.7931  0.5707
  908MOL0     H25297   8.286   6.988   6.154  0.4569  0.9744 -0.6477
  908MOL0     H25298   8.087   6.961   6.325 -3.7008 -0.1027 -0.1466
  908MOL0     H25299   8.129   6.832   6.206  0.0100 -0.0186 -0.7045
  908MOL0     H25300   7.757   6.945   6.038  0.1413 -4.3586 -0.5061
  908MOL0     H25301   8.481   7.342   6.062 -3.5688 -0.4689  1.8507
  908MOL0     H25302   8.682   7.370   5.972 -2.9695 -0.1415  3.6737
  908MOL0     H25303   8.686   7.501   5.855 -4.6475 -0.7648  0.5060
  908MOL0     H25304   8.778   7.517   6.009 -1.1066  3.0122 -0.9906
  909MOL0     O25305  10.072   2.935   5.130  0.1089  0.2815  0.3751
  909MOL0     C25306   9.976   2.890   5.193 -0.9403 -0.5147 -0.2544
  909MOL0     O25307   9.975   2.875   5.324 -0.4461 -0.1327 -0.7406
  909MOL0     C25308  10.086   2.882   5.397 -1.3342 -0.2197 -1.0730
  909MOL0     C25309  10.181   2.776   5.396  0.5733 -0.5387  0.4579
  909MOL0     C25310  10.305   2.794   5.461 -0.2371  0.5798  0.3314
  909MOL0     C25311  10.332   2.898   5.553  0.3385  0.1105 -1.1726
  909MOL0     O25312  10.450   2.912   5.617  0.4436  0.3374  0.4964
  909MOL0     C25313  10.515   2.785   5.665 -0.2192  0.0609  0.9381
  909MOL0     C25314  10.602   2.793   5.786  0.1120  0.5081 -0.5463
  909MOL0     C25315  10.542   2.879   5.898  0.2226  0.5779  0.6779
  909MOL0     C25316  10.467   2.793   6.002  0.4053 -0.6407  0.0112
  909MOL0     C25317  10.442   2.869   6.136  0.1917 -0.0266  0.4452
  909MOL0     C25318  10.335   2.989   6.130  0.0248 -0.9036 -0.2591
  909MOL0     C25319  10.276   3.024   6.264 -0.5493  0.1293  0.2504
  909MOL0     C25320  10.377   3.113   6.343 -0.2048  0.3045 -0.2072
  909MOL0     N25321  10.326   3.127   6.484 -0.2236  0.2131  0.6299
  909MOL0     C25322  10.341   3.024   6.577 -1.1931 -0.3010 -0.2131
  909MOL0     C25323  10.259   3.059   6.675  0.2796 -0.2343 -0.0575
  909MOL0     C25324  10.243   2.980   6.804 -0.5364  1.2468 -1.2117
  909MOL0     C25325  10.372   2.956   6.880  0.5781  0.3144 -0.3282
  909MOL0     C25326  10.342   2.922   7.023 -0.2422  0.2027 -0.5203
  909MOL0     C25327  10.445   2.833   7.083 -0.6027  0.8455 -0.9174
  909MOL0     O25328  10.419   2.796   7.218 -0.2072 -0.6561 -0.7021
  909MOL0     C25329  10.524   2.818   7.306 -1.1115 -1.0074 -0.2595
  909MOL0     C25330  10.546   2.941   7.371 -0.3044  0.3839  0.0945
  909MOL0     C25331  10.662   2.968   7.442  0.6664  0.6316 -0.2429
  909MOL0     C25332  10.672   3.105   7.515  0.1330  0.3868  0.2303
  909MOL0     C25333  10.757   2.865   7.463 -0.9101  0.2056 -0.1112
  909MOL0     C25334  10.886   2.890   7.542  0.9812  0.8490  0.9469
  909MOL0     O25335  10.880   2.976   7.643  0.3266  0.9164  0.3921
  909MOL0     C25336  10.979   3.011   7.724 -0.8662 -0.2289 -0.4316
  909MOL0     C25337  10.961   3.133   7.795 -0.3949  0.0013  0.2328
  909MOL0     C25338  11.055   3.193   7.865 -0.2178 -0.8415 -1.4762
  909MOL0     C25339  11.176   3.136   7.891 -0.2321  0.2653 -0.2352
  909MOL0     O25340  11.274   3.204   7.954 -0.1526 -0.4221 -0.1544
  909MOL0     C25341  11.408   3.155   7.945 -0.4529 -0.4208  0.7377
  909MOL0     C25342  11.424   3.038   8.041  0.6784  0.3253 -0.2814
  909MOL0     C25343  11.575   3.005   8.032 -0.5431 -0.1910  0.2634
  909MOL0     C25344  11.614   2.886   8.120  0.4579  0.1127 -0.1028
  909MOL0     C25345  11.766   2.884   8.148  0.2650  0.2748 -0.6467
  909MOL0     C25346  11.856   2.893   8.028  0.0629 -0.1044  0.1644
  909MOL0     C25347  12.006   2.889   8.067  0.7365 -0.8172  1.0450
  909MOL0     C25348  12.044   3.012   8.144  0.4152 -0.2737 -0.2024
  909MOL0    Cl25349  12.219   3.025   8.142 -0.0877  0.0267  0.3134
  909MOL0     C25350  11.197   3.015   7.823  0.4196  0.0491  0.0169
  909MOL0     C25351  11.095   2.944   7.749 -0.3441  0.3784 -0.2111
  909MOL0     O25352  10.989   2.835   7.506 -0.5056  0.3617 -0.6082
  909MOL0     C25353  10.740   2.741   7.397 -0.1115 -0.1714 -0.2892
  909MOL0     C25354  10.629   2.723   7.316  0.3447 -0.0699  0.0718
  909MOL0     N25355  10.195   3.176   6.648 -0.4949 -0.5459 -0.0738
  909MOL0     N25356  10.231   3.208   6.526  0.4076  0.4698 -0.1011
  909MOL0     C25357  10.244   3.007   5.553 -0.1514 -0.4396  0.3645
  909MOL0     C25358  10.127   2.996   5.474 -0.1011  0.7596  0.4214
  909MOL0     C25359   9.852   2.881   5.115  0.8806 -1.6591 -0.3963
  909MOL0     C25360   9.806   2.975   5.024  0.6492  0.5404 -0.0069
  909MOL0     C25361   9.684   2.972   4.960  0.1205  0.0998 -0.5299
  909MOL0     C25362   9.594   2.862   4.970 -0.4339  0.3370  0.4341
  909MOL0     O25363   9.471   2.844   4.907  0.3398  0.2498  0.2154
  909MOL0     C25364   9.452   2.888   4.776 -0.4460  0.5122  0.1481
  909MOL0     C25365   9.314   2.946   4.758 -0.0025  0.6093 -0.3092
  909MOL0     C25366   9.208   2.836   4.751  1.0558  0.0962 -0.1956
  909MOL0     C25367   9.068   2.885   4.716  0.0460 -0.4208 -0.3255
  909MOL0     C25368   9.016   2.990   4.808 -0.3997  0.3332  0.1530
  909MOL0     C25369   8.981   3.072   4.892 -0.7860 -0.3954  0.0862
  909MOL0     C25370   9.639   2.767   5.073  0.2424  0.1930 -0.2762
  909MOL0     C25371   9.761   2.780   5.146  0.4889  0.9262 -0.2052
  909MOL0     C25372   9.794   2.670   5.241  0.5793  0.4265  0.0740
  909MOL0     H25373  10.163   2.689   5.334 -1.3385  0.0980  0.0498
  909MOL0     H25374  10.372   2.714   5.432 -0.3809  0.6622 -0.2543
  909MOL0     H25375  10.568   2.740   5.581 -2.9240 -3.5438  0.9371
  909MOL0     H25376  10.437   2.713   5.691  2.0210 -2.3296  1.4068
  909MOL0     H25377  10.651   2.701   5.819  0.2845  0.3835 -1.1220
  909MOL0     H25378  10.684   2.855   5.748  1.0494 -0.3471  0.0408
  909MOL0     H25379  10.624   2.924   5.955  2.4774 -0.6690 -1.4416
  909MOL0     H25380  10.468   2.956   5.872  0.3771  0.2887 -0.6726
  909MOL0     H25381  10.371   2.763   5.960  0.3100 -0.1453 -0.1360
  909MOL0     H25382  10.520   2.698   6.013  0.0101 -1.0408 -1.3035
  909MOL0     H25383  10.543   2.895   6.169 -1.1586  2.8395  2.7141
  909MOL0     H25384  10.405   2.803   6.216  0.0918 -0.6876 -0.1357
  909MOL0     H25385  10.385   3.073   6.079  1.1698 -1.5092 -0.1687
  909MOL0     H25386  10.246   2.964   6.072 -0.7987 -0.5209  0.8168
  909MOL0     H25387  10.254   2.943   6.335 -1.9179 -0.0504 -0.3524
  909MOL0     H25388  10.181   3.077   6.250 -0.7439 -0.2658  0.0663
  909MOL0     H25389  10.481   3.079   6.342 -0.5503 -1.4157  3.8998
  909MOL0     H25390  10.383   3.216   6.306 -0.7440  0.3692 -0.1240
  909MOL0     H25391  10.392   2.929   6.573 -1.8699 -0.6198 -2.7538
  909MOL0     H25392  10.195   2.886   6.775  0.2437  0.3331  0.3290
  909MOL0     H25393  10.185   3.036   6.878 -2.2008  1.7227 -2.7977
  909MOL0     H25394  10.439   2.883   6.834  1.6150  2.0846 -1.8071
  909MOL0     H25395  10.427   3.051   6.888  1.2997  0.0036 -1.4361
  909MOL0     H25396  10.339   3.001   7.100  1.5207 -0.4402  0.2815
  909MOL0     H25397  10.244   2.874   7.031 -0.1263  0.2230  1.5716
  909MOL0     H25398  10.435   2.736   7.034  0.8259 -1.2179  2.4519
  909MOL0     H25399  10.548   2.870   7.075 -1.3018  3.1605  0.0166
  909MOL0     H25400  10.476   3.019   7.343  0.2868  0.5443 -1.0097
  909MOL0     H25401  10.585   3.164   7.483  0.5026 -0.6994 -3.1981
  909MOL0     H25402  10.764   3.151   7.479  0.4813  2.0062  2.9066
  909MOL0     H25403  10.669   3.084   7.622  0.1335 -1.0498 -0.0214
  909MOL0     H25404  10.866   3.184   7.786 -0.1606  0.0383 -2.9153
  909MOL0     H25405  11.038   3.289   7.912 -0.9729 -2.2550  1.4055
  909MOL0     H25406  11.433   3.123   7.843  1.3885 -0.5319  1.1877
  909MOL0     H25407  11.478   3.237   7.960  1.8540 -1.5662 -2.7208
  909MOL0     H25408  11.383   3.075   8.135  1.7876  0.7957  0.0337
  909MOL0     H25409  11.369   2.949   8.007  3.1576 -1.2987 -0.2983
  909MOL0     H25410  11.632   3.092   8.067  0.9074 -1.4473  1.1695
  909MOL0     H25411  11.603   2.977   7.930  5.2493 -1.4607  1.8136
  909MOL0     H25412  11.578   2.794   8.073 -0.6869  1.0694 -1.1860
  909MOL0     H25413  11.561   2.890   8.216  1.1331  0.2054  0.2713
  909MOL0     H25414  11.785   2.970   8.214  0.3066 -1.5362  1.8306
  909MOL0     H25415  11.784   2.795   8.209  1.1580  0.4878 -0.5868
  909MOL0     H25416  11.829   2.981   7.969 -1.5322 -2.4475 -2.8857
  909MOL0     H25417  11.840   2.801   7.970 -3.7149  0.9919 -0.8291
  909MOL0     H25418  12.071   2.876   7.980  0.0109 -1.0833  0.5379
  909MOL0     H25419  12.021   2.799   8.127 -1.0045 -1.5405  0.4618
  909MOL0     H25420  11.999   3.007   8.243 -1.1284  2.6677 -0.6498
  909MOL0     H25421  12.003   3.098   8.090 -0.3022 -1.0196 -0.8890
  909MOL0     H25422  11.289   2.965   7.795  0.7727  1.2848 -1.1623
  909MOL0     H25423  11.109   2.841   7.716 -1.2758  1.1838 -3.4873
  909MOL0     H25424  10.816   2.667   7.421 -0.4093 -0.9474 -1.6485
  909MOL0     H25425  10.625   2.632   7.257  1.9082  0.2040 -0.5096
  909MOL0     H25426  10.282   3.092   5.608 -0.4216 -0.5768  0.7800
  909MOL0     H25427  10.058   3.079   5.486  2.0148  2.6932  0.0279
  909MOL0     H25428   9.866   3.061   4.996  1.9898 -0.7650 -1.2867
  909MOL0     H25429   9.666   3.050   4.887  0.9784  1.1602  0.3660
  909MOL0     H25430   9.526   2.966   4.757  1.3174 -0.8134  1.2440
  909MOL0     H25431   9.461   2.807   4.703 -1.1177 -0.1806  0.8213
  909MOL0     H25432   9.321   3.001   4.664  1.6172  1.0662  0.0416
  909MOL0     H25433   9.294   3.015   4.841 -0.7495  2.6777 -2.1198
  909MOL0     H25434   9.240   2.754   4.685 -1.1298 -0.5965 -0.4861
  909MOL0     H25435   9.186   2.800   4.852 -0.2060  0.7556 -0.2159
  909MOL0     H25436   8.997   2.803   4.725  0.6601 -0.8269  1.0309
  909MOL0     H25437   9.069   2.930   4.616 -2.6774 -0.7347 -0.5718
  909MOL0     H25438   8.957   3.164   4.940 -0.5502 -0.5218  0.4471
  909MOL0     H25439   9.579   2.676   5.075  1.4869 -0.6411  1.0405
  909MOL0     H25440   9.727   2.585   5.225  0.4239  0.7225 -0.9251
  909MOL0     H25441   9.890   2.621   5.222 -0.7545 -1.9263 -1.0371
  909MOL0     H25442   9.799   2.712   5.342  2.8382  0.4228  0.0051
  910MOL0     O25443   6.631   1.425   2.020 -1.1383 -0.9382 -1.0152
  910MOL0     C25444   6.572   1.453   2.122 -0.1022 -0.2519 -0.8356
  910MOL0     O25445   6.563   1.365   2.229  0.5937 -0.2751  0.6456
  910MOL0     C25446   6.635   1.257   2.261  0.5321 -0.3850  0.0215
  910MOL0     C25447   6.739   1.204   2.184 -0.3074  0.4476  0.0519
  910MOL0     C25448   6.804   1.091   2.234  0.0053 -0.6681  0.1801
  910MOL0     C25449   6.778   1.029   2.357  0.0971  0.3165 -0.3131
  910MOL0     O25450   6.856   0.922   2.399 -0.1017  0.5446  0.3958
  910MOL0     C25451   6.901   0.900   2.526  0.6062  0.4921  0.1968
  910MOL0     C25452   7.003   0.784   2.525 -0.3186  0.5694  0.3346
  910MOL0     C25453   7.136   0.827   2.464 -0.7193 -0.0442 -0.5403
  910MOL0     C25454   7.231   0.715   2.427  0.2685 -0.9504 -1.4028
  910MOL0     C25455   7.343   0.762   2.344 -0.5869 -0.7033  0.3387
  910MOL0     C25456   7.434   0.869   2.409  0.5501 -0.0695  0.5850
  910MOL0     C25457   7.557   0.798   2.466 -0.3018  0.1388 -0.2164
  910MOL0     C25458   7.665   0.898   2.506  0.0743 -0.8677  0.4739
  910MOL0     N25459   7.777   0.841   2.570 -0.2165 -0.2136  0.2594
  910MOL0     C25460   7.782   0.720   2.629 -0.5065  0.8548  0.3830
  910MOL0     C25461   7.905   0.716   2.677  0.2377 -0.9930 -0.2873
  910MOL0     C25462   7.964   0.592   2.745 -0.2049  0.9829 -0.2065
  910MOL0     C25463   8.038   0.503   2.647 -1.3237  0.2142 -0.2730
  910MOL0     C25464   8.110   0.394   2.723  0.0474 -0.2626 -0.3207
  910MOL0     C25465   8.231   0.345   2.645 -0.6174 -0.2420 -0.1113
  910MOL0     O25466   8.338   0.434   2.641 -0.2642 -0.9401 -0.0658
  910MOL0     C25467   8.433   0.408   2.546 -0.4206 -0.2618  0.4112
  910MOL0     C25468   8.467   0.285   2.481  0.5288 -0.1193  0.4816
  910MOL0     C25469   8.567   0.281   2.378  0.2526 -0.6058  0.1967
  910MOL0     C25470   8.602   0.148   2.310  0.1109  0.3181  0.2049
  910MOL0     C25471   8.637   0.402   2.341 -0.6868 -0.3166  0.1761
  910MOL0     C25472   8.757   0.411   2.240  0.4936  0.7304 -0.7066
  910MOL0     O25473   8.824   0.299   2.228 -0.4403 -0.0200  0.4805
  910MOL0     C25474   8.927   0.276   2.130 -0.2483 -0.4562 -0.9081
  910MOL0     C25475   9.013   0.171   2.159 -0.5411  0.6527 -0.0007
  910MOL0     C25476   9.120   0.147   2.076 -0.3117 -0.0766  0.8305
  910MOL0     C25477   9.148   0.224   1.965 -0.6569 -0.1241 -0.2412
  910MOL0     O25478   9.257   0.193   1.896  0.0105 -0.2252  0.0975
  910MOL0     C25479   9.308   0.286   1.802  0.4705 -0.0154 -0.2989
  910MOL0     C25480   9.439   0.222   1.756  0.6408  0.5881 -0.4373
  910MOL0     C25481   9.548   0.213   1.867  0.4802  0.0057 -0.3902
  910MOL0     C25482   9.683   0.176   1.821 -0.9022  0.4406  0.7297
  910MOL0     C25483   9.788   0.166   1.938  1.0676 -0.0120  0.0355
  910MOL0     C25484   9.765   0.028   2.014  0.5904  0.1620  0.1939
  910MOL0     C25485   9.824   0.012   2.149 -0.6534  0.1465 -1.2260
  910MOL0     C25486   9.971  -0.035   2.152  1.1740  0.5160 -0.0902
  910MOL0    Cl25487  10.081   0.066   2.061 -0.3714  0.2031 -0.3961
  910MOL0     C25488   9.060   0.324   1.930 -0.3719  1.0637 -0.3410
  910MOL0     C25489   8.948   0.346   2.006  0.0968  0.7417 -0.1416
  910MOL0     O25490   8.770   0.511   2.166  0.5011 -0.3886  0.3420
  910MOL0     C25491   8.599   0.518   2.403  0.3285  0.0875  0.1277
  910MOL0     C25492   8.493   0.521   2.499 -0.3605  0.1685 -0.6335
  910MOL0     N25493   7.971   0.835   2.655  0.8851 -0.0995  0.3029
  910MOL0     N25494   7.897   0.912   2.580  0.6970 -0.6608 -0.2363
  910MOL0     C25495   6.675   1.082   2.424 -1.4092  0.2756  0.3908
  910MOL0     C25496   6.601   1.190   2.386  0.1675 -0.5542  0.7855
  910MOL0     C25497   6.500   1.589   2.117  0.4857  0.6002  0.0602
  910MOL0     C25498   6.505   1.660   2.001 -0.4652 -0.5067 -0.6918
  910MOL0     C25499   6.438   1.783   1.980 -0.5392  0.2889  0.2872
  910MOL0     C25500   6.366   1.840   2.090 -0.3568  1.1407 -0.8363
  910MOL0     O25501   6.303   1.964   2.069 -0.5187 -0.2632 -0.5178
  910MOL0     C25502   6.189   1.998   2.142  0.5614  1.4036  0.2211
  910MOL0     C25503   6.215   2.094   2.254 -0.4355 -0.0308 -0.1989
  910MOL0     C25504   6.275   2.234   2.207  0.0007  0.1989  0.4800
  910MOL0     C25505   6.259   2.332   2.323 -0.3016 -0.1637 -1.0045
  910MOL0     C25506   6.321   2.462   2.275 -0.3829 -0.0737 -0.1226
  910MOL0     C25507   6.369   2.565   2.234 -0.4071 -1.0780 -0.1675
  910MOL0     C25508   6.365   1.773   2.217  0.3200  0.2158  0.3630
  910MOL0     C25509   6.426   1.646   2.228 -0.4901  0.3192  0.5233
  910MOL0     C25510   6.421   1.584   2.371 -0.2430  0.2514  0.5012
  910MOL0     H25511   6.754   1.231   2.080 -1.5583 -0.4560 -0.3878
  910MOL0     H25512   6.881   1.059   2.164 -0.5393  0.4927 -0.9812
  910MOL0     H25513   6.816   0.858   2.579  1.3208 -1.1608  0.1069
  910MOL0     H25514   6.936   0.994   2.571  1.7746  0.0632  0.2275
  910MOL0     H25515   7.019   0.750   2.627 -0.9353  0.4355  0.3900
  910MOL0     H25516   6.983   0.693   2.468  2.0535 -0.2147  0.6217
  910MOL0     H25517   7.113   0.879   2.371 -0.8598  1.7677  0.4577
  910MOL0     H25518   7.190   0.887   2.538 -1.1953 -1.0456  0.6500
  910MOL0     H25519   7.271   0.676   2.521 -2.2356 -1.8496 -0.6389
  910MOL0     H25520   7.181   0.637   2.368 -0.4334  0.7153 -3.1074
  910MOL0     H25521   7.300   0.816   2.259  1.1225  1.6513  0.8693
  910MOL0     H25522   7.389   0.666   2.320 -2.6216 -2.0645  1.5702
  910MOL0     H25523   7.457   0.932   2.323 -3.3349  0.1632 -0.4974
  910MOL0     H25524   7.380   0.937   2.475 -0.2063  0.6264 -0.7221
  910MOL0     H25525   7.594   0.733   2.386  1.2093  0.7366 -0.0418
  910MOL0     H25526   7.533   0.745   2.559 -1.7744 -1.4755 -1.4585
  910MOL0     H25527   7.695   0.958   2.420  3.3689  1.6725  3.1182
  910MOL0     H25528   7.620   0.960   2.583 -0.0685 -0.8082  0.3427
  910MOL0     H25529   7.700   0.651   2.644 -0.9481  1.5566  1.3657
  910MOL0     H25530   7.881   0.533   2.785  0.2121  0.6373  0.1672
  910MOL0     H25531   8.023   0.624   2.832 -1.5127 -0.4391  1.2639
  910MOL0     H25532   7.973   0.467   2.567 -0.1348  3.5465 -2.9693
  910MOL0     H25533   8.115   0.566   2.602 -0.4468 -0.2221  0.5698
  910MOL0     H25534   8.146   0.427   2.822 -0.3048  0.6777 -0.4956
  910MOL0     H25535   8.037   0.313   2.719  1.2849 -1.3924 -0.7137
  910MOL0     H25536   8.260   0.246   2.682 -1.1413  0.5775  2.6960
  910MOL0     H25537   8.200   0.328   2.541 -0.1813  2.5286 -0.7485
  910MOL0     H25538   8.413   0.195   2.511  0.6611 -1.3917 -2.6590
  910MOL0     H25539   8.527   0.072   2.334 -0.4089 -0.3625 -3.1153
  910MOL0     H25540   8.702   0.112   2.335  0.5536  0.0714 -1.7758
  910MOL0     H25541   8.606   0.164   2.202 -0.5800  1.4727  0.3356
  910MOL0     H25542   9.009   0.120   2.255  0.9761  0.7118  0.1156
  910MOL0     H25543   9.185   0.066   2.107 -0.2689 -0.4813 -0.3009
  910MOL0     H25544   9.231   0.306   1.727 -1.9565 -0.9504  1.7989
  910MOL0     H25545   9.330   0.379   1.855 -2.4108  0.0246  1.0272
  910MOL0     H25546   9.422   0.126   1.706  0.4904  0.2522  0.2494
  910MOL0     H25547   9.487   0.271   1.671  3.5213  0.2315  0.8410
  910MOL0     H25548   9.512   0.145   1.944  0.2564  0.9583  0.3675
  910MOL0     H25549   9.561   0.311   1.915  1.1124 -0.6467  0.8034
  910MOL0     H25550   9.719   0.255   1.756  0.2490 -0.0550  0.7396
  910MOL0     H25551   9.669   0.073   1.785 -1.4412 -0.3653  3.0443
  910MOL0     H25552   9.889   0.162   1.894  0.9426  0.3595 -0.2971
  910MOL0     H25553   9.777   0.256   2.000  2.4129 -0.6026  1.1797
  910MOL0     H25554   9.805  -0.052   1.951 -1.6556 -2.0074  1.3867
  910MOL0     H25555   9.657   0.018   2.026  0.8627 -1.5132  1.5853
  910MOL0     H25556   9.764  -0.063   2.202  2.9123 -1.0519  1.4872
  910MOL0     H25557   9.805   0.105   2.203 -2.2813 -1.1030  0.5194
  910MOL0     H25558   9.963  -0.136   2.111  1.2564  0.1155  0.8502
  910MOL0     H25559   9.997  -0.064   2.254 -3.8765 -2.4761  0.6857
  910MOL0     H25560   9.065   0.386   1.840  6.4040 -0.3876 -1.4953
  910MOL0     H25561   8.873   0.415   1.970  0.7276  0.6625 -1.7165
  910MOL0     H25562   8.647   0.608   2.366 -2.4414  0.9194 -1.7352
  910MOL0     H25563   8.463   0.616   2.543 -1.2400 -0.1311 -0.5556
  910MOL0     H25564   6.654   1.035   2.519  1.0393 -2.6866 -0.3679
  910MOL0     H25565   6.516   1.228   2.442  0.5691  0.5673  0.6581
  910MOL0     H25566   6.563   1.631   1.914 -1.0691 -1.1807 -0.8839
  910MOL0     H25567   6.451   1.840   1.889 -2.7227  1.4565  0.6545
  910MOL0     H25568   6.113   2.051   2.084  1.1891 -0.3695 -2.4328
  910MOL0     H25569   6.140   1.917   2.197  1.8647  2.1745  2.6437
  910MOL0     H25570   6.281   2.043   2.325 -0.8661 -1.3915 -0.7528
  910MOL0     H25571   6.119   2.122   2.299  0.5441  0.6784  1.5587
  910MOL0     H25572   6.380   2.232   2.179 -0.5270  0.8517 -1.7314
  910MOL0     H25573   6.225   2.284   2.123  2.1552 -0.2916 -1.1599
  910MOL0     H25574   6.313   2.296   2.411  3.2267  0.5883 -2.6417
  910MOL0     H25575   6.153   2.350   2.344 -0.3506  0.0093 -1.3869
  910MOL0     H25576   6.403   2.655   2.185  1.0619 -1.7069 -0.3560
  910MOL0     H25577   6.313   1.813   2.304 -1.5886  0.5200 -0.8774
  910MOL0     H25578   6.524   1.548   2.385  1.0896  2.6607 -2.0755
  910MOL0     H25579   6.405   1.656   2.452 -1.1188 -1.8653  2.3118
  910MOL0     H25580   6.350   1.502   2.382  0.0325 -0.4369 -2.0993
  911MOL0     O25581  10.423   8.457   7.844  0.3041  0.2697 -0.4977
  911MOL0     C25582  10.468   8.373   7.765 -0.2430 -0.1776 -0.1875
  911MOL0     O25583  10.586   8.301   7.775  0.4445  0.2178 -0.0349
  911MOL0     C25584  10.647   8.304   7.899  0.6540  0.7908 -0.7244
  911MOL0     C25585  10.635   8.186   7.974 -0.2020 -0.0662  0.0996
  911MOL0     C25586  10.724   8.174   8.083  0.6150 -1.0302 -0.6557
  911MOL0     C25587  10.814   8.273   8.126 -0.2372  0.2003 -0.1537
  911MOL0     O25588  10.904   8.246   8.226  0.4387 -0.1525 -0.1124
  911MOL0     C25589  10.975   8.357   8.294  0.1940  0.6760 -0.5110
  911MOL0     C25590  11.059   8.289   8.400  0.5312  0.1814 -0.3300
  911MOL0     C25591  10.977   8.255   8.528  0.0746  0.7941  1.5473
  911MOL0     C25592  10.939   8.380   8.611  0.3103 -0.3990  0.0197
  911MOL0     C25593  10.896   8.341   8.756 -0.3350  0.4337  0.9720
  911MOL0     C25594  10.756   8.261   8.759  0.2591 -0.1848 -0.8400
  911MOL0     C25595  10.730   8.221   8.917  0.2025 -0.1157  0.2264
  911MOL0     C25596  10.576   8.191   8.920 -0.1420  0.1837 -0.0785
  911MOL0     N25597  10.526   8.224   9.054  0.5037  0.1906 -0.1626
  911MOL0     C25598  10.543   8.336   9.134  0.0973  0.1060 -0.3883
  911MOL0     C25599  10.469   8.318   9.242  0.3738 -0.4494  0.6431
  911MOL0     C25600  10.454   8.391   9.376  0.4775  0.1068 -0.8841
  911MOL0     C25601  10.587   8.454   9.427  0.6063  0.0395  0.3247
  911MOL0     C25602  10.701   8.360   9.459  0.6237 -0.0726 -0.8811
  911MOL0     C25603  10.811   8.435   9.528 -0.8681 -0.7086  0.5505
  911MOL0     O25604  10.939   8.373   9.533  0.5267  0.2600 -0.7198
  911MOL0     C25605  10.968   8.273   9.617  0.1887  0.3413  0.1461
  911MOL0     C25606  11.100   8.217   9.602 -1.0098 -0.2115 -0.0215
  911MOL0     C25607  11.157   8.118   9.690  0.0762  0.7184 -0.1565
  911MOL0     C25608  11.297   8.075   9.671 -0.8021 -0.1281 -0.9857
  911MOL0     C25609  11.070   8.068   9.795  0.5190 -0.0565  0.0219
  911MOL0     C25610  11.110   7.955   9.878 -0.0896  0.2684 -0.4236
  911MOL0     O25611  11.175   7.848   9.820 -0.0059 -0.1837 -0.4357
  911MOL0     C25612  11.147   7.715   9.856 -0.0723 -0.0378  1.1509
  911MOL0     C25613  11.236   7.622   9.807  0.2315  0.0464  0.3746
  911MOL0     C25614  11.229   7.485   9.842  0.6985  0.8736 -0.5450
  911MOL0     C25615  11.127   7.430   9.923  0.1751  0.4068  0.3849
  911MOL0     O25616  11.107   7.298   9.919  0.6268  0.2072  0.6676
  911MOL0     C25617  10.979   7.237   9.955  0.3615  0.6223  0.0470
  911MOL0     C25618  10.999   7.086   9.949 -0.1902 -0.4069  1.0805
  911MOL0     C25619  11.032   7.030   9.810 -0.1998  0.3268 -0.1083
  911MOL0     C25620  11.147   7.088   9.728 -0.1221  1.0169  0.8349
  911MOL0     C25621  11.174   7.012   9.596 -0.6958  1.1027 -0.3766
  911MOL0     C25622  11.268   7.072   9.487 -0.0124 -0.7496  0.0892
  911MOL0     C25623  11.212   7.205   9.425  0.4280 -0.6862 -0.0669
  911MOL0     C25624  11.315   7.245   9.319  0.0199 -0.3931 -0.3366
  911MOL0    Cl25625  11.248   7.399   9.248  0.0851  0.4315 -0.3806
  911MOL0     C25626  11.039   7.525   9.981  0.6634 -0.0305 -0.1125
  911MOL0     C25627  11.045   7.662   9.942  0.0279  0.2422  0.4354
  911MOL0     O25628  11.063   7.949   9.993 -0.1458  0.0137 -0.7282
  911MOL0     C25629  10.933   8.111   9.805  0.0042  0.1990  0.5773
  911MOL0     C25630  10.889   8.214   9.717 -0.6423 -0.1477  0.1903
  911MOL0     N25631  10.401   8.205   9.226  0.1458 -0.5199  0.1403
  911MOL0     N25632  10.437   8.138   9.118 -0.2018  0.0320 -0.9990
  911MOL0     C25633  10.816   8.391   8.046 -0.1487  0.1888  0.5668
  911MOL0     C25634  10.735   8.407   7.931 -0.0136 -0.3901 -0.4720
  911MOL0     C25635  10.397   8.351   7.632 -0.3450 -0.7263  0.1156
  911MOL0     C25636  10.330   8.461   7.572 -0.3498 -0.7765 -0.9805
  911MOL0     C25637  10.261   8.448   7.446  0.2461  0.4233 -0.2745
  911MOL0     C25638  10.266   8.327   7.376  0.3894 -0.1856  1.1009
  911MOL0     O25639  10.204   8.292   7.260 -0.6692 -0.1383 -0.6785
  911MOL0     C25640  10.095   8.367   7.214  0.0862 -0.4097 -0.4928
  911MOL0     C25641   9.974   8.353   7.314 -0.0827  0.0330  0.2038
  911MOL0     C25642   9.841   8.361   7.246  0.4538 -0.0127  0.4763
  911MOL0     C25643   9.734   8.300   7.338 -0.1379 -0.0365  0.2563
  911MOL0     C25644   9.718   8.373   7.464  0.6555 -0.3580 -0.8040
  911MOL0     C25645   9.685   8.414   7.575  0.1550 -0.3148 -0.0954
  911MOL0     C25646  10.344   8.222   7.428  0.7891 -0.3220 -0.4018
  911MOL0     C25647  10.407   8.233   7.553  1.1309 -0.4468 -0.7273
  911MOL0     C25648  10.462   8.099   7.606  0.0173 -0.3300  0.1163
  911MOL0     H25649  10.581   8.096   7.945  1.5999 -0.3343 -2.8587
  911MOL0     H25650  10.723   8.083   8.144 -1.5605 -0.3517  0.4486
  911MOL0     H25651  10.917   8.439   8.335  2.1594  2.2744 -0.7918
  911MOL0     H25652  11.047   8.400   8.223 -1.1086 -0.9036 -2.9422
  911MOL0     H25653  11.102   8.198   8.356 -0.6386  0.1222 -1.4003
  911MOL0     H25654  11.151   8.342   8.424  0.0893  0.9935 -0.4074
  911MOL0     H25655  10.885   8.210   8.491  0.0704  1.5394  0.6034
  911MOL0     H25656  11.030   8.178   8.584  2.4325  1.4582  0.3410
  911MOL0     H25657  11.023   8.448   8.626  0.7109 -0.3186 -2.2527
  911MOL0     H25658  10.853   8.432   8.568 -1.9385 -3.1227  0.9055
  911MOL0     H25659  10.883   8.427   8.821  1.1332  1.7174 -0.3550
  911MOL0     H25660  10.975   8.272   8.788  0.3471 -0.9549 -3.0622
  911MOL0     H25661  10.681   8.333   8.725  1.8832  1.4964 -1.0478
  911MOL0     H25662  10.771   8.177   8.691  2.1619  1.0362 -2.0350
  911MOL0     H25663  10.757   8.303   8.984 -1.0700  1.8781 -1.5559
  911MOL0     H25664  10.786   8.133   8.950 -1.3558 -1.5158 -0.6832
  911MOL0     H25665  10.523   8.258   8.852 -0.2301 -0.3112 -0.5092
  911MOL0     H25666  10.563   8.086   8.891 -0.0781 -1.1042  3.9055
  911MOL0     H25667  10.612   8.412   9.100  0.1588 -0.1848 -0.9317
  911MOL0     H25668  10.417   8.324   9.454  2.1945 -1.2765 -1.2186
  911MOL0     H25669  10.378   8.469   9.361 -1.8896 -1.6883  0.9980
  911MOL0     H25670  10.614   8.536   9.359 -0.7018 -0.6870 -1.1199
  911MOL0     H25671  10.557   8.506   9.518  0.2138 -0.4181  0.4595
  911MOL0     H25672  10.670   8.281   9.529 -3.5189  0.5998 -1.6646
  911MOL0     H25673  10.738   8.311   9.369 -1.0387  0.6142 -1.9897
  911MOL0     H25674  10.824   8.527   9.469 -1.1621 -0.4743  0.8441
  911MOL0     H25675  10.777   8.471   9.626  1.5040  2.0300  0.5040
  911MOL0     H25676  11.173   8.267   9.539  0.1666  0.0815  1.5131
  911MOL0     H25677  11.347   8.097   9.766  1.9005 -1.3575 -2.0240
  911MOL0     H25678  11.344   8.137   9.593  1.0244 -0.9778 -0.6298
  911MOL0     H25679  11.304   7.969   9.643  0.9674  0.1812 -1.9054
  911MOL0     H25680  11.320   7.674   9.762  0.1951  1.5589  1.9291
  911MOL0     H25681  11.302   7.411   9.810  0.3332  0.2910 -0.0438
  911MOL0     H25682  10.963   7.266  10.059  0.0182  0.7231 -0.0356
  911MOL0     H25683  10.900   7.272   9.888  0.2912 -1.0341 -0.8007
  911MOL0     H25684  11.090   7.059  10.004  1.6565  2.7012 -0.1989
  911MOL0     H25685  10.909   7.041   9.993 -0.9260  0.6009  0.6537
  911MOL0     H25686  10.935   7.046   9.761 -0.9508  0.9561  1.5190
  911MOL0     H25687  11.034   6.921   9.816  0.3771  0.2863 -0.8836
  911MOL0     H25688  11.238   7.093   9.789  0.4644  0.7115  0.0112
  911MOL0     H25689  11.119   7.191   9.702  1.4829  1.2571 -0.1005
  911MOL0     H25690  11.224   6.923   9.634 -1.8385  0.1532 -1.0318
  911MOL0     H25691  11.080   6.987   9.545  0.4457 -0.4061 -1.8096
  911MOL0     H25692  11.276   6.999   9.406 -2.4166 -0.2762 -0.6563
  911MOL0     H25693  11.364   7.100   9.531  1.1638 -1.4695 -1.8998
  911MOL0     H25694  11.207   7.288   9.496  2.3253  0.9403 -1.7028
  911MOL0     H25695  11.111   7.189   9.385  0.4255  2.6534 -1.6822
  911MOL0     H25696  11.330   7.174   9.238  1.7104  2.0756 -2.3621
  911MOL0     H25697  11.414   7.274   9.357 -0.4316  0.4591  0.2168
  911MOL0     H25698  10.963   7.484  10.047 -0.2593  3.4832  1.2656
  911MOL0     H25699  10.958   7.719   9.970 -0.5868 -0.0191 -0.8682
  911MOL0     H25700  10.864   8.062   9.872 -0.5120  0.8606  0.5396
  911MOL0     H25701  10.798   8.265   9.746 -1.2348 -1.0660  0.0033
  911MOL0     H25702  10.887   8.471   8.062  0.7531 -0.0652 -1.7981
  911MOL0     H25703  10.750   8.487   7.859 -2.3182 -1.6096 -2.4880
  911MOL0     H25704  10.316   8.562   7.610  1.7770 -0.5045 -0.8179
  911MOL0     H25705  10.203   8.531   7.408 -1.6083 -1.3581 -1.5165
  911MOL0     H25706  10.125   8.471   7.201 -0.2746  0.5575  4.4121
  911MOL0     H25707  10.060   8.323   7.120 -1.6558  0.2817 -0.2173
  911MOL0     H25708   9.976   8.429   7.392 -2.7395 -0.1126  0.4984
  911MOL0     H25709   9.978   8.251   7.354  1.0484  0.4020  1.0894
  911MOL0     H25710   9.817   8.467   7.231  0.4182 -0.2729 -1.5182
  911MOL0     H25711   9.836   8.316   7.147  0.2436  0.1489  0.4121
  911MOL0     H25712   9.764   8.197   7.360 -0.1948 -0.2135 -0.4856
  911MOL0     H25713   9.636   8.311   7.291 -1.4544  2.5227  3.2316
  911MOL0     H25714   9.657   8.448   7.673 -0.4300 -3.5599  0.9857
  911MOL0     H25715  10.334   8.133   7.366 -0.4301 -0.7888  0.4227
  911MOL0     H25716  10.468   8.095   7.715 -1.2416 -0.6175  0.1968
  911MOL0     H25717  10.393   8.020   7.576  0.9748 -1.8198  1.7100
  911MOL0     H25718  10.564   8.079   7.573 -0.4926 -1.9810 -0.5926
  912MOL0     O25719   7.688   3.343   0.785  0.7720 -0.0172  0.2547
  912MOL0     C25720   7.645   3.227   0.798  0.5145 -0.5056  0.5672
  912MOL0     O25721   7.726   3.116   0.773  0.2110 -0.0187 -0.3180
  912MOL0     C25722   7.860   3.128   0.776 -0.2727  0.4018 -0.0484
  912MOL0     C25723   7.941   3.218   0.848  0.5022 -0.0348  0.7183
  912MOL0     C25724   8.082   3.230   0.842 -0.1375  0.7884  0.4002
  912MOL0     C25725   8.152   3.126   0.772  0.0273 -0.1483 -0.2200
  912MOL0     O25726   8.289   3.104   0.783  0.1289 -0.5086 -0.0428
  912MOL0     C25727   8.355   3.225   0.832 -0.4619 -0.2672 -0.6476
  912MOL0     C25728   8.506   3.192   0.847  0.2580 -0.4201  0.0415
  912MOL0     C25729   8.577   3.333   0.868  0.8611  0.5522 -0.0791
  912MOL0     C25730   8.710   3.322   0.936 -0.0257  0.1866  0.4450
  912MOL0     C25731   8.732   3.427   1.042 -0.3391  0.3887 -0.1215
  912MOL0     C25732   8.759   3.563   0.974  0.3697 -0.0520 -0.4850
  912MOL0     C25733   8.868   3.575   0.860 -1.4983  0.8246  0.0894
  912MOL0     C25734   9.008   3.544   0.922 -0.7203 -0.9500 -0.0278
  912MOL0     N25735   9.124   3.586   0.838 -0.8899 -0.1867  0.4721
  912MOL0     C25736   9.214   3.496   0.779 -0.0683 -0.8090  0.0374
  912MOL0     C25737   9.308   3.576   0.726 -0.9971  0.2686 -0.2411
  912MOL0     C25738   9.419   3.538   0.631  0.2518 -0.8955  0.0977
  912MOL0     C25739   9.533   3.447   0.687 -1.1050 -0.6807 -0.1494
  912MOL0     C25740   9.568   3.490   0.828 -0.5733  0.1728  0.4693
  912MOL0     C25741   9.623   3.636   0.839  0.4804  1.3867 -0.1563
  912MOL0     O25742   9.748   3.661   0.760 -0.3960 -0.4153  0.0262
  912MOL0     C25743   9.873   3.631   0.831  0.8616 -0.5449  0.8020
  912MOL0     C25744   9.881   3.546   0.947  0.4351 -0.0421 -0.0923
  912MOL0     C25745  10.001   3.528   1.014  0.2916  0.6895  0.9092
  912MOL0     C25746  10.009   3.447   1.139  0.2911  0.4064 -0.1513
  912MOL0     C25747  10.109   3.599   0.970 -1.3454 -0.6298 -0.8805
  912MOL0     C25748  10.239   3.576   1.026  0.4289  0.9719 -0.0747
  912MOL0     O25749  10.295   3.691   1.066  0.4707 -0.5640 -0.0736
  912MOL0     C25750  10.431   3.696   1.096  0.6544 -0.4345  0.5189
  912MOL0     C25751  10.514   3.725   0.992  0.1408  0.3964 -0.3039
  912MOL0     C25752  10.652   3.745   1.022 -0.2016 -0.1505  0.3548
  912MOL0     C25753  10.698   3.723   1.153 -0.3622  0.2031 -0.0138
  912MOL0     O25754  10.827   3.720   1.199 -0.2331  0.2075  0.2140
  912MOL0     C25755  10.929   3.787   1.123 -0.2553 -0.0438  0.8453
  912MOL0     C25756  10.984   3.715   1.002 -0.3688 -0.1739 -0.0530
  912MOL0     C25757  11.070   3.603   1.046  0.9881  0.0487  0.0995
  912MOL0     C25758  11.157   3.563   0.931 -0.3311  0.2322 -0.6200
  912MOL0     C25759  11.216   3.423   0.962 -0.0534 -1.1081  0.3556
  912MOL0     C25760  11.282   3.372   0.832 -0.1970  0.1416 -0.6820
  912MOL0     C25761  11.336   3.227   0.861 -0.5675  0.0526 -0.7707
  912MOL0     C25762  11.402   3.163   0.733  0.0876  0.5035  0.2920
  912MOL0    Cl25763  11.277   3.139   0.617  0.2029  0.3879 -0.2024
  912MOL0     C25764  10.605   3.678   1.250 -0.1326 -0.0163  0.1888
  912MOL0     C25765  10.474   3.665   1.219  0.0984 -1.1019  0.0156
  912MOL0     O25766  10.298   3.466   1.003 -0.0513 -0.2976  0.1053
  912MOL0     C25767  10.103   3.681   0.850 -0.3374 -0.6459 -1.0381
  912MOL0     C25768   9.984   3.695   0.780  0.1995  0.1014 -0.3107
  912MOL0     N25769   9.287   3.706   0.769 -0.3938  0.9063  0.4422
  912MOL0     N25770   9.182   3.715   0.833 -0.2018  0.8302 -0.5353
  912MOL0     C25771   8.074   3.034   0.699  0.0724  0.3449 -0.3205
  912MOL0     C25772   7.929   3.035   0.695  0.6347 -0.1949 -0.5347
  912MOL0     C25773   7.499   3.198   0.838  0.0756  1.3478 -0.1129
  912MOL0     C25774   7.467   3.068   0.876  0.2518 -0.0894  0.4698
  912MOL0     C25775   7.338   3.020   0.900  0.7239 -0.0243 -0.2480
  912MOL0     C25776   7.232   3.115   0.887  1.3140 -0.3181  0.1653
  912MOL0     O25777   7.093   3.096   0.896 -0.1567  0.1599  0.2337
  912MOL0     C25778   7.054   2.968   0.942  0.7201 -0.2765  0.3825
  912MOL0     C25779   7.068   2.960   1.093 -0.3814  0.4630 -0.8561
  912MOL0     C25780   7.009   3.079   1.171 -0.4590  0.8003  0.5573
  912MOL0     C25781   6.953   3.028   1.307  0.0842  0.6061 -0.2210
  912MOL0     C25782   7.058   2.953   1.381  0.3853 -0.0791  0.5274
  912MOL0     C25783   7.152   2.902   1.438 -0.9455 -0.7841  0.0712
  912MOL0     C25784   7.258   3.245   0.853  0.2189  0.1225 -0.2150
  912MOL0     C25785   7.390   3.288   0.824  0.4393  0.2715  0.2468
  912MOL0     C25786   7.417   3.419   0.765  0.2665  0.2213 -0.5666
  912MOL0     H25787   7.897   3.299   0.905  2.4012 -0.2509  2.6370
  912MOL0     H25788   8.132   3.304   0.903 -0.7162  1.4005  0.1356
  912MOL0     H25789   8.317   3.231   0.934  0.1309 -0.5766 -0.4063
  912MOL0     H25790   8.326   3.314   0.775  0.6065 -0.3777 -1.3907
  912MOL0     H25791   8.526   3.127   0.933  1.8327  1.0117  0.8216
  912MOL0     H25792   8.539   3.133   0.761  1.5998 -3.7139  2.5924
  912MOL0     H25793   8.585   3.385   0.772 -0.0091  1.3509  0.2545
  912MOL0     H25794   8.510   3.393   0.931 -1.2134 -1.4923 -0.2009
  912MOL0     H25795   8.722   3.226   0.986  0.2754  0.5948  1.1660
  912MOL0     H25796   8.789   3.315   0.860 -0.2884  0.5654  0.1297
  912MOL0     H25797   8.821   3.391   1.094 -1.1240  0.0634  1.0300
  912MOL0     H25798   8.652   3.427   1.117 -0.3579 -2.5850 -0.0189
  912MOL0     H25799   8.660   3.601   0.947  0.8691  0.5544 -1.5189
  912MOL0     H25800   8.793   3.624   1.058 -0.0410 -2.5237  1.6089
  912MOL0     H25801   8.873   3.673   0.812  0.7089 -0.0012 -1.5805
  912MOL0     H25802   8.853   3.498   0.783  1.5138 -3.4202  3.2405
  912MOL0     H25803   9.010   3.596   1.018 -2.2004 -1.8546  0.5253
  912MOL0     H25804   9.017   3.438   0.951 -4.0768 -0.5538  3.1212
  912MOL0     H25805   9.208   3.389   0.764  0.4547 -0.5439 -2.4260
  912MOL0     H25806   9.468   3.625   0.587 -0.0503 -1.1374 -0.7244
  912MOL0     H25807   9.369   3.498   0.543 -0.7008 -0.0303  0.2366
  912MOL0     H25808   9.486   3.349   0.687 -2.1689 -0.1928  0.3162
  912MOL0     H25809   9.621   3.450   0.622 -0.3290 -4.9916  0.4539
  912MOL0     H25810   9.480   3.482   0.892 -2.5421 -0.2235 -2.1559
  912MOL0     H25811   9.650   3.430   0.870  2.1134  1.4719 -2.5425
  912MOL0     H25812   9.553   3.711   0.804 -1.9924 -0.8968 -0.4571
  912MOL0     H25813   9.639   3.642   0.947  1.3286 -1.6822  0.0091
  912MOL0     H25814   9.799   3.496   0.998 -1.4978  1.0227 -2.0081
  912MOL0     H25815   9.920   3.415   1.194  1.1327 -3.7630 -0.8633
  912MOL0     H25816  10.074   3.477   1.221 -1.2980 -1.3177  1.8382
  912MOL0     H25817  10.060   3.356   1.105  1.6030  0.9892  0.2014
  912MOL0     H25818  10.474   3.762   0.898  0.8317  2.4161  0.1406
  912MOL0     H25819  10.718   3.759   0.937  1.2036  0.1876  1.4627
  912MOL0     H25820  10.886   3.879   1.084 -0.2360  0.0428  1.0279
  912MOL0     H25821  11.011   3.817   1.189 -1.0408 -0.3500  2.0037
  912MOL0     H25822  10.909   3.667   0.938  0.8998 -0.1050 -1.6573
  912MOL0     H25823  11.048   3.787   0.949  1.5877 -0.1596  2.1451
  912MOL0     H25824  11.014   3.519   1.088  0.5031  0.9182  1.2426
  912MOL0     H25825  11.124   3.646   1.131 -0.4787  0.8280  0.6898
  912MOL0     H25826  11.231   3.644   0.930 -1.5114  1.4895  2.5448
  912MOL0     H25827  11.113   3.559   0.831  2.2876 -0.1431 -1.8586
  912MOL0     H25828  11.278   3.431   1.051 -2.6063 -1.2130  2.2337
  912MOL0     H25829  11.134   3.354   0.983 -2.0702  1.7031  2.3583
  912MOL0     H25830  11.352   3.451   0.805 -3.6563  3.2414 -1.4665
  912MOL0     H25831  11.206   3.366   0.753 -0.0528 -2.4217 -0.7321
  912MOL0     H25832  11.252   3.160   0.881  1.2009 -2.4633 -1.2411
  912MOL0     H25833  11.407   3.242   0.943 -0.7635  1.3572 -0.8206
  912MOL0     H25834  11.447   3.068   0.761  1.4520  1.4032  1.3071
  912MOL0     H25835  11.479   3.234   0.702  2.0653 -2.0213 -0.9518
  912MOL0     H25836  10.639   3.644   1.348 -0.9795 -4.7559 -0.9013
  912MOL0     H25837  10.394   3.626   1.283  1.2117 -2.3892  0.6868
  912MOL0     H25838  10.178   3.739   0.797  0.1670 -0.7164 -0.4133
  912MOL0     H25839   9.982   3.738   0.681 -1.5460 -1.9842 -1.2595
  912MOL0     H25840   8.133   2.955   0.654  0.2556  1.0793 -1.4000
  912MOL0     H25841   7.873   2.964   0.636 -3.1472  0.8947  1.4307
  912MOL0     H25842   7.549   2.999   0.890  1.0601  0.4321 -1.3534
  912MOL0     H25843   7.319   2.915   0.919 -0.7183  0.2610  0.0030
  912MOL0     H25844   6.950   2.940   0.921  0.5506 -0.9151  1.9188
  912MOL0     H25845   7.115   2.891   0.892  1.4078  0.6599 -0.2515
  912MOL0     H25846   7.171   2.951   1.127 -0.5245 -2.2658 -0.9590
  912MOL0     H25847   7.005   2.875   1.119 -0.8499  0.4971 -1.8386
  912MOL0     H25848   7.088   3.155   1.176  1.1715 -0.7332 -0.7504
  912MOL0     H25849   6.935   3.127   1.107  1.2531 -0.0828 -2.2672
  912MOL0     H25850   6.870   2.958   1.302  1.1190 -0.6279 -0.6487
  912MOL0     H25851   6.918   3.109   1.372  0.8208  0.0055  0.9715
  912MOL0     H25852   7.235   2.868   1.497 -2.0284 -2.9246  0.4450
  912MOL0     H25853   7.176   3.314   0.839  2.0564  2.1462 -1.8184
  912MOL0     H25854   7.452   3.409   0.662  0.1641 -2.4940 -0.4167
  912MOL0     H25855   7.329   3.484   0.773  0.7531  0.9413 -0.9808
  912MOL0     H25856   7.494   3.472   0.823 -0.3221  0.9318 -0.4172
  913MOL0     O25857   7.978   8.594   5.460  0.4192 -0.4605  0.7845
  913MOL0     C25858   8.038   8.547   5.547 -0.0887  0.2254  0.5661
  913MOL0     O25859   8.033   8.427   5.594 -0.6226  0.3622  0.0527
  913MOL0     C25860   7.928   8.347   5.568  0.4052 -0.4090 -0.2036
  913MOL0     C25861   7.880   8.277   5.682 -0.3589 -0.0337 -0.4275
  913MOL0     C25862   7.772   8.197   5.669 -0.1296 -0.0898  0.9699
  913MOL0     C25863   7.708   8.178   5.553  1.0843  0.8591  0.2166
  913MOL0     O25864   7.614   8.070   5.548  0.6704  0.3873  0.1969
  913MOL0     C25865   7.488   8.091   5.481  0.8530 -0.2021 -0.5444
  913MOL0     C25866   7.386   7.985   5.538 -0.5217  0.5433  0.0101
  913MOL0     C25867   7.404   7.836   5.500  0.5621  0.2885  0.9569
  913MOL0     C25868   7.488   7.763   5.602  0.1797  0.0111  0.8593
  913MOL0     C25869   7.414   7.714   5.724  0.4611 -0.2557 -0.4707
  913MOL0     C25870   7.512   7.667   5.825 -0.1218 -0.4891 -0.4171
  913MOL0     C25871   7.431   7.591   5.932 -0.8920 -0.1870 -0.7848
  913MOL0     C25872   7.376   7.458   5.896 -1.3215 -0.5012  0.7959
  913MOL0     N25873   7.485   7.369   5.900  0.4707 -0.5915 -0.5535
  913MOL0     C25874   7.570   7.325   5.796 -0.5740  0.3364 -0.8741
  913MOL0     C25875   7.677   7.265   5.863 -0.2136  0.1771  0.4496
  913MOL0     C25876   7.802   7.192   5.820 -0.4407  0.6324  0.3134
  913MOL0     C25877   7.945   7.234   5.871 -0.7899 -0.0722 -0.2689
  913MOL0     C25878   7.988   7.380   5.832  0.0264  0.5130  0.3388
  913MOL0     C25879   8.040   7.402   5.698  0.2389 -0.1534  0.6973
  913MOL0     O25880   8.178   7.385   5.681  0.3478 -0.2486 -0.1155
  913MOL0     C25881   8.243   7.485   5.608 -0.3034  0.6435 -0.4016
  913MOL0     C25882   8.329   7.580   5.662  0.6221  0.3455 -0.2181
  913MOL0     C25883   8.398   7.673   5.589 -0.1104 -0.0203 -0.2269
  913MOL0     C25884   8.474   7.767   5.670 -0.3365 -0.3167 -0.8830
  913MOL0     C25885   8.395   7.665   5.446  0.0747 -0.5104 -0.8581
  913MOL0     C25886   8.487   7.737   5.350 -0.2374  1.6253  0.0962
  913MOL0     O25887   8.491   7.692   5.219 -0.7768 -0.1454 -1.1927
  913MOL0     C25888   8.599   7.740   5.155  0.4936 -0.8672  0.3097
  913MOL0     C25889   8.731   7.699   5.177  0.2500 -0.3594  0.4434
  913MOL0     C25890   8.826   7.756   5.093  0.0746  0.6422  0.5206
  913MOL0     C25891   8.798   7.852   4.998 -0.6578 -0.4394  0.6488
  913MOL0     O25892   8.900   7.915   4.917 -0.4352 -0.9790 -0.9370
  913MOL0     C25893   9.043   7.886   4.937  0.9096 -0.6247 -0.5875
  913MOL0     C25894   9.132   7.969   4.843 -0.7220  0.3174  0.2398
  913MOL0     C25895   9.115   7.931   4.693 -0.2411  0.5033  0.4786
  913MOL0     C25896   9.201   8.015   4.599 -0.1686  0.0695  0.7366
  913MOL0     C25897   9.185   7.968   4.454 -0.2408  0.1452 -0.5418
  913MOL0     C25898   9.284   8.030   4.361 -0.1667  0.5962  0.8421
  913MOL0     C25899   9.256   7.984   4.218 -0.6360  1.1659  0.3060
  913MOL0     C25900   9.343   8.039   4.109  0.1034 -0.8306 -0.0668
  913MOL0    Cl25901   9.519   7.983   4.113  0.2733  0.3537 -0.2574
  913MOL0     C25902   8.672   7.900   4.979 -0.6505  0.5510  0.5655
  913MOL0     C25903   8.581   7.842   5.067  0.1674 -0.1683 -0.3167
  913MOL0     O25904   8.540   7.837   5.392  0.4993  0.8117 -0.1682
  913MOL0     C25905   8.304   7.576   5.392  0.3233 -0.0845 -0.1313
  913MOL0     C25906   8.242   7.481   5.469 -0.6031  0.6945 -0.2854
  913MOL0     N25907   7.629   7.243   5.995  0.4339  0.0622 -0.2605
  913MOL0     N25908   7.524   7.311   6.016  0.4114 -0.6208 -0.8031
  913MOL0     C25909   7.744   8.253   5.439  0.0440 -0.2516 -0.2472
  913MOL0     C25910   7.863   8.331   5.447 -0.6509 -0.0744 -0.9397
  913MOL0     C25911   8.141   8.643   5.620  0.2433 -0.8597 -0.0121
  913MOL0     C25912   8.238   8.587   5.710 -0.1584  0.5131 -0.1394
  913MOL0     C25913   8.318   8.669   5.787  0.1079  0.0652  0.0125
  913MOL0     C25914   8.320   8.808   5.769  0.4083  0.6195  0.2717
  913MOL0     O25915   8.406   8.870   5.851  0.3097  0.0551  0.0524
  913MOL0     C25916   8.387   9.014   5.889 -0.3598  0.1729 -0.1436
  913MOL0     C25917   8.273   9.042   5.984 -0.5258 -0.4049  0.2569
  913MOL0     C25918   8.277   8.962   6.115 -0.2238  0.8647 -0.3992
  913MOL0     C25919   8.159   8.991   6.201  0.1480  1.1422  0.0332
  913MOL0     C25920   8.152   8.899   6.316 -1.3193  0.7208  0.0632
  913MOL0     C25921   8.133   8.842   6.422 -0.5494 -0.4107  0.7092
  913MOL0     C25922   8.240   8.862   5.671  0.2423  0.0197 -0.6794
  913MOL0     C25923   8.152   8.780   5.593  0.1683 -0.5235  0.2584
  913MOL0     C25924   8.089   8.846   5.474 -0.6717 -0.8319 -0.3840
  913MOL0     H25925   7.926   8.275   5.780 -0.1800  3.1305 -0.3423
  913MOL0     H25926   7.748   8.147   5.762 -0.7416  0.6735  1.2337
  913MOL0     H25927   7.496   8.084   5.372  1.5124 -2.7559 -0.3939
  913MOL0     H25928   7.449   8.191   5.498 -1.6459 -1.0279 -1.0194
  913MOL0     H25929   7.385   8.002   5.646  0.0474 -1.2649  0.3342
  913MOL0     H25930   7.290   8.011   5.494 -0.3283 -0.8525 -1.3211
  913MOL0     H25931   7.300   7.802   5.498 -0.3519  2.8524  0.3440
  913MOL0     H25932   7.449   7.842   5.401 -1.6170 -0.3089 -0.1283
  913MOL0     H25933   7.518   7.678   5.540 -2.1767  0.6574 -1.3594
  913MOL0     H25934   7.575   7.819   5.638 -1.0293  1.2025  2.0113
  913MOL0     H25935   7.352   7.631   5.689  0.8443 -0.2398 -1.2209
  913MOL0     H25936   7.361   7.797   5.772 -0.4076  0.7268 -2.9493
  913MOL0     H25937   7.593   7.608   5.781  2.2954  0.9197  1.7925
  913MOL0     H25938   7.556   7.756   5.872  0.5232  1.5146 -4.3782
  913MOL0     H25939   7.346   7.651   5.966  1.5459  2.3393  1.3212
  913MOL0     H25940   7.505   7.569   6.010 -1.6529 -3.4519 -0.8430
  913MOL0     H25941   7.300   7.423   5.967 -1.5312 -0.4704  0.5903
  913MOL0     H25942   7.328   7.445   5.798 -0.2130 -3.5525  0.5551
  913MOL0     H25943   7.556   7.353   5.692  0.4691 -3.7056 -2.2828
  913MOL0     H25944   7.811   7.193   5.711 -0.4279  2.9508  0.2841
  913MOL0     H25945   7.791   7.088   5.853  1.0189  0.6656  0.9891
  913MOL0     H25946   7.939   7.239   5.980 -3.5449  1.3638 -0.3916
  913MOL0     H25947   8.021   7.170   5.826  3.6165  2.9857  2.0242
  913MOL0     H25948   7.901   7.446   5.847 -0.1067 -0.3731  4.8241
  913MOL0     H25949   8.066   7.415   5.899  3.3537 -2.6657 -1.5352
  913MOL0     H25950   7.975   7.347   5.629 -1.9744  3.8606 -0.7768
  913MOL0     H25951   8.014   7.507   5.678 -1.5101 -0.5167  0.8574
  913MOL0     H25952   8.332   7.600   5.768 -0.0504  1.8649 -0.4639
  913MOL0     H25953   8.475   7.867   5.624 -0.9772 -0.4119 -1.1162
  913MOL0     H25954   8.573   7.727   5.692  0.8717  1.6713 -2.3203
  913MOL0     H25955   8.426   7.786   5.766  0.1380 -0.2819 -0.6528
  913MOL0     H25956   8.761   7.624   5.249  0.4307  1.3583  2.2431
  913MOL0     H25957   8.932   7.733   5.098  0.3794 -0.1008 -4.4196
  913MOL0     H25958   9.076   7.921   5.036  1.2652 -0.9551 -0.5886
  913MOL0     H25959   9.064   7.779   4.933  0.7739 -0.7882  1.7690
  913MOL0     H25960   9.128   8.077   4.856 -1.3861  1.0628 -4.3297
  913MOL0     H25961   9.236   7.953   4.873  0.1596  3.8932 -0.4703
  913MOL0     H25962   9.012   7.935   4.658  0.4726  0.3418 -1.8366
  913MOL0     H25963   9.156   7.830   4.686 -0.2796  0.5921 -1.7332
  913MOL0     H25964   9.307   8.017   4.628 -0.4403 -0.1785  1.7809
  913MOL0     H25965   9.170   8.120   4.597  2.0524  0.7959  1.7054
  913MOL0     H25966   9.210   7.863   4.470  2.2255  0.9464  1.7513
  913MOL0     H25967   9.080   7.975   4.425 -0.4238  0.5177  0.1724
  913MOL0     H25968   9.387   7.996   4.378  0.1028 -0.3033 -1.9954
  913MOL0     H25969   9.290   8.139   4.350 -1.6883  0.5045 -1.7548
  913MOL0     H25970   9.158   8.023   4.191 -1.3578 -0.2889  0.7429
  913MOL0     H25971   9.259   7.875   4.209  2.0363  1.1551  0.6154
  913MOL0     H25972   9.350   8.148   4.111  2.5130 -0.9176 -0.7572
  913MOL0     H25973   9.293   8.015   4.015 -0.5568 -1.6851  0.4817
  913MOL0     H25974   8.631   7.976   4.913  0.0653  0.4157 -0.0498
  913MOL0     H25975   8.483   7.886   5.050 -0.3112  0.8942  4.1665
  913MOL0     H25976   8.303   7.567   5.284 -0.3937 -1.1520 -0.0475
  913MOL0     H25977   8.190   7.397   5.423  0.1110 -0.1236  0.3753
  913MOL0     H25978   7.701   8.243   5.340 -0.2983  0.5705 -0.1923
  913MOL0     H25979   7.906   8.402   5.377 -2.6119  1.4101 -0.7299
  913MOL0     H25980   8.238   8.481   5.731 -0.0803  0.1842 -1.6924
  913MOL0     H25981   8.375   8.627   5.869 -3.5020 -2.0300  1.7034
  913MOL0     H25982   8.484   9.038   5.933  1.1245 -0.9355 -2.5570
  913MOL0     H25983   8.383   9.082   5.803  1.5597  2.8134  1.6832
  913MOL0     H25984   8.176   9.027   5.936 -1.7228  1.9566  1.7488
  913MOL0     H25985   8.282   9.149   6.004  2.7379 -0.7026  0.9925
  913MOL0     H25986   8.267   8.854   6.097  1.0323  0.4284  1.3011
  913MOL0     H25987   8.373   8.987   6.162  1.1094  3.7417 -4.1508
  913MOL0     H25988   8.068   8.976   6.142  0.8030  3.2171 -1.6615
  913MOL0     H25989   8.157   9.096   6.233 -1.5643  0.8624  0.9409
  913MOL0     H25990   8.098   8.776   6.499 -2.4770  0.7275  0.8691
  913MOL0     H25991   8.251   8.968   5.656  1.8769 -0.1459 -0.8549
  913MOL0     H25992   7.981   8.855   5.488 -0.3775  1.1236  1.0342
  913MOL0     H25993   8.135   8.945   5.472  0.4470 -1.2944  0.9309
  913MOL0     H25994   8.102   8.798   5.376 -0.9410 -1.9014  0.0877
  914MOL0     O25995   4.150   1.503   5.269  0.8740 -0.1084 -0.3826
  914MOL0     C25996   4.187   1.396   5.319  0.7367  0.2939  0.4250
  914MOL0     O25997   4.309   1.365   5.384  0.0737 -0.0938 -0.5168
  914MOL0     C25998   4.393   1.470   5.429  0.7268  0.4109 -0.6523
  914MOL0     C25999   4.506   1.430   5.502  0.1240  0.4535  1.1858
  914MOL0     C26000   4.605   1.518   5.532  0.3129 -1.1670  0.6036
  914MOL0     C26001   4.591   1.654   5.507 -0.1007  1.4454  0.6922
  914MOL0     O26002   4.692   1.727   5.551 -0.0834  0.2246  0.2261
  914MOL0     C26003   4.670   1.864   5.555 -0.6728  0.3779  0.4961
  914MOL0     C26004   4.789   1.938   5.623  0.0702 -0.1698 -1.0182
  914MOL0     C26005   4.911   1.927   5.532  0.4127  0.3844 -0.5234
  914MOL0     C26006   5.040   1.988   5.600  0.4067 -0.5802  0.0429
  914MOL0     C26007   5.138   2.024   5.490 -0.5747  1.2375  0.8567
  914MOL0     C26008   5.254   2.102   5.541 -0.4121  0.7039  0.0431
  914MOL0     C26009   5.365   2.022   5.612  0.0736  0.9759  0.3326
  914MOL0     C26010   5.427   1.913   5.516  0.0897  0.5072  0.1249
  914MOL0     N26011   5.543   1.850   5.582 -0.1261  0.6959 -0.3890
  914MOL0     C26012   5.557   1.720   5.623  1.3991 -0.9075 -0.5359
  914MOL0     C26013   5.663   1.726   5.713  0.1099 -0.5769 -0.5991
  914MOL0     C26014   5.698   1.620   5.813  0.0226  0.1429 -0.6315
  914MOL0     C26015   5.584   1.566   5.897  0.6336  0.2650  0.2828
  914MOL0     C26016   5.635   1.433   5.970 -0.1949 -0.9640  0.2210
  914MOL0     C26017   5.584   1.312   5.896  0.3255  1.1669  0.4176
  914MOL0     O26018   5.680   1.208   5.911  0.2238  0.2443 -0.1895
  914MOL0     C26019   5.647   1.087   5.843 -0.6823 -0.2654 -0.7678
  914MOL0     C26020   5.723   0.967   5.864  0.6872 -0.4576 -0.9541
  914MOL0     C26021   5.694   0.847   5.803  0.5957  0.5236  0.0234
  914MOL0     C26022   5.793   0.739   5.827  1.1267  0.6405 -0.7650
  914MOL0     C26023   5.596   0.835   5.706  0.4282 -0.7084  0.2136
  914MOL0     C26024   5.568   0.714   5.635 -0.0976 -0.5901 -0.4639
  914MOL0     O26025   5.511   0.729   5.510  0.3097  1.1380  0.8375
  914MOL0     C26026   5.452   0.611   5.454  0.2133 -0.4130  0.3191
  914MOL0     C26027   5.513   0.482   5.432  0.1976  0.2736  0.7900
  914MOL0     C26028   5.443   0.380   5.359  0.1909 -0.8737  0.2971
  914MOL0     C26029   5.322   0.398   5.313 -0.3547 -0.4431 -0.3952
  914MOL0     O26030   5.252   0.285   5.264 -0.5984  0.0171 -0.2941
  914MOL0     C26031   5.129   0.309   5.202  0.0651  0.2251 -0.2047
  914MOL0     C26032   5.080   0.175   5.141  0.7911 -0.4373  1.2498
  914MOL0     C26033   5.173   0.139   5.012  0.8367 -0.4085 -0.4548
  914MOL0     C26034   5.195  -0.012   5.038 -1.0410 -0.2820  0.3754
  914MOL0     C26035   5.262  -0.089   4.918  0.3945  0.7937  0.6052
  914MOL0     C26036   5.407  -0.064   4.887  0.0730  0.3394 -0.5056
  914MOL0     C26037   5.491  -0.085   5.009  0.4225  0.3633  0.0598
  914MOL0     C26038   5.628  -0.150   4.972  0.7077 -0.3075 -1.0596
  914MOL0    Cl26039   5.602  -0.300   4.894 -0.1459  0.4716 -0.0439
  914MOL0     C26040   5.262   0.524   5.332  0.7624 -0.0305 -0.2310
  914MOL0     C26041   5.321   0.626   5.404  1.2775 -0.1299 -0.3069
  914MOL0     O26042   5.578   0.609   5.696 -0.8756  0.6058  0.2086
  914MOL0     C26043   5.521   0.958   5.671 -1.2476  0.6382 -0.0281
  914MOL0     C26044   5.556   1.075   5.738  0.0868  0.0240 -0.1026
  914MOL0     N26045   5.719   1.855   5.704  0.0377 -0.4498  0.5741
  914MOL0     N26046   5.649   1.925   5.627  0.7575 -0.0099  0.2757
  914MOL0     C26047   4.477   1.699   5.439  0.4100  0.3903  0.1946
  914MOL0     C26048   4.380   1.609   5.404  0.5501  0.0963  0.8151
  914MOL0     C26049   4.107   1.281   5.267 -0.2581 -0.3610  0.0855
  914MOL0     C26050   4.165   1.205   5.171  0.8914 -0.2085  0.8922
  914MOL0     C26051   4.101   1.096   5.106  0.7206  0.6546 -0.1741
  914MOL0     C26052   3.966   1.070   5.146 -0.0155  0.0178 -0.4648
  914MOL0     O26053   3.874   0.984   5.081 -0.6873 -0.4394  0.0159
  914MOL0     C26054   3.935   0.901   4.981  0.0770  0.6617  0.8626
  914MOL0     C26055   3.842   0.778   4.957 -0.8181 -0.6975  0.2722
  914MOL0     C26056   3.822   0.684   5.078 -0.4145 -0.3547 -0.5050
  914MOL0     C26057   3.749   0.554   5.049  0.2647 -0.4245 -0.5902
  914MOL0     C26058   3.770   0.457   5.156 -0.1469  0.1031 -0.3249
  914MOL0     C26059   3.782   0.381   5.255 -0.5176 -0.3953  0.5383
  914MOL0     C26060   3.899   1.151   5.241  0.5493  0.2689  0.6771
  914MOL0     C26061   3.974   1.254   5.299 -0.0175 -0.6725  0.5059
  914MOL0     C26062   3.901   1.333   5.398 -0.3883 -0.2807 -0.0486
  914MOL0     H26063   4.515   1.324   5.524  0.6149 -0.1723 -1.7094
  914MOL0     H26064   4.695   1.484   5.584  0.5344 -0.2704  0.8301
  914MOL0     H26065   4.579   1.876   5.614  0.5200 -2.4313  3.1840
  914MOL0     H26066   4.643   1.901   5.456  3.0228  0.5093 -0.5765
  914MOL0     H26067   4.767   2.043   5.647  1.0254 -0.0097 -0.7959
  914MOL0     H26068   4.802   1.891   5.721 -0.8764  1.2929 -0.1335
  914MOL0     H26069   4.924   1.818   5.530 -0.2935  0.2056  1.6339
  914MOL0     H26070   4.897   1.968   5.432  0.4049  2.7746  0.4003
  914MOL0     H26071   5.018   2.081   5.653  4.7564 -0.4642  2.0912
  914MOL0     H26072   5.071   1.927   5.686  0.4109 -0.9080 -0.1910
  914MOL0     H26073   5.090   2.086   5.414  1.7853  2.0938 -0.0123
  914MOL0     H26074   5.181   1.939   5.436  1.1137  3.1893 -1.0550
  914MOL0     H26075   5.295   2.151   5.452 -0.0021 -1.2917 -0.9224
  914MOL0     H26076   5.227   2.186   5.606 -2.4465  1.9830 -2.2877
  914MOL0     H26077   5.331   1.980   5.707 -1.4783 -1.3912 -1.1723
  914MOL0     H26078   5.443   2.094   5.642  1.0126  0.4590 -0.7899
  914MOL0     H26079   5.356   1.838   5.481 -0.2166  0.7126  0.2959
  914MOL0     H26080   5.463   1.961   5.424 -1.8110  1.6479 -0.0738
  914MOL0     H26081   5.493   1.634   5.607  0.7649 -0.7066  0.7744
  914MOL0     H26082   5.777   1.660   5.878  1.0970 -1.5291 -0.8531
  914MOL0     H26083   5.741   1.537   5.756 -0.0915 -1.2905  1.2654
  914MOL0     H26084   5.556   1.647   5.964 -0.4122 -0.2772  0.5223
  914MOL0     H26085   5.492   1.547   5.840 -0.2653  2.7779  0.8074
  914MOL0     H26086   5.743   1.440   5.963 -0.3519  0.5507 -1.6433
  914MOL0     H26087   5.598   1.444   6.072 -1.6133  1.5089 -0.4583
  914MOL0     H26088   5.481   1.286   5.918  0.0467  2.5952  0.9230
  914MOL0     H26089   5.585   1.337   5.790 -4.0502 -0.3796 -0.1622
  914MOL0     H26090   5.800   0.990   5.937 -2.7790  2.1378  2.3218
  914MOL0     H26091   5.743   0.651   5.871  2.8916 -0.2776 -0.5276
  914MOL0     H26092   5.876   0.771   5.891  1.4479 -0.8133 -0.4024
  914MOL0     H26093   5.825   0.704   5.729  1.5880  2.3261 -1.2358
  914MOL0     H26094   5.614   0.461   5.463  1.1760 -1.2899 -2.8571
  914MOL0     H26095   5.481   0.279   5.347  0.5051 -0.5122 -2.4102
  914MOL0     H26096   5.059   0.334   5.282  0.7767 -1.4182  1.0013
  914MOL0     H26097   5.125   0.394   5.134  1.0424  0.1815 -0.3273
  914MOL0     H26098   5.071   0.099   5.219  2.7715 -1.9823  0.0380
  914MOL0     H26099   4.979   0.191   5.101  0.9188 -0.6179  0.8518
  914MOL0     H26100   5.262   0.200   4.994 -0.2516  1.0164 -1.1921
  914MOL0     H26101   5.111   0.150   4.922  1.1888 -0.6685 -0.7301
  914MOL0     H26102   5.100  -0.056   5.070 -0.3248 -0.5434  2.2957
  914MOL0     H26103   5.260  -0.026   5.125 -0.9063 -0.7608  0.1991
  914MOL0     H26104   5.245  -0.196   4.931  0.5517  0.5426 -1.0287
  914MOL0     H26105   5.204  -0.070   4.828  0.1140 -1.1752  0.3237
  914MOL0     H26106   5.410   0.044   4.869 -1.6837  1.2419  3.4431
  914MOL0     H26107   5.432  -0.130   4.804 -1.4494 -0.0110 -0.7062
  914MOL0     H26108   5.428  -0.158   5.061 -1.2456 -0.3113 -2.7005
  914MOL0     H26109   5.507   0.012   5.056 -2.7350  0.6279  0.7815
  914MOL0     H26110   5.687  -0.162   5.063 -1.3834 -1.8231  0.2043
  914MOL0     H26111   5.680  -0.076   4.910 -0.8303  1.9209  0.1887
  914MOL0     H26112   5.161   0.538   5.295  0.4718 -1.4233 -0.0262
  914MOL0     H26113   5.262   0.716   5.399  3.8635  1.6256 -2.1478
  914MOL0     H26114   5.439   0.960   5.599 -1.5739 -0.4694  0.2950
  914MOL0     H26115   5.498   1.164   5.716  4.0550  3.1925  0.9364
  914MOL0     H26116   4.474   1.798   5.395  1.4818  0.5757  0.5114
  914MOL0     H26117   4.287   1.645   5.361  0.6335 -1.0251 -0.3500
  914MOL0     H26118   4.271   1.216   5.152  0.8921  0.4549  1.2565
  914MOL0     H26119   4.144   1.039   5.025  2.9982 -0.7966  1.9154
  914MOL0     H26120   3.941   0.965   4.892 -0.3499 -0.5700 -0.0890
  914MOL0     H26121   4.037   0.873   5.009  1.6118  3.6040 -1.2221
  914MOL0     H26122   3.887   0.718   4.877 -1.4445 -1.5347  0.5318
  914MOL0     H26123   3.746   0.810   4.917 -1.0596  0.8570  1.9934
  914MOL0     H26124   3.917   0.662   5.129 -0.2395 -3.4730 -1.9339
  914MOL0     H26125   3.764   0.742   5.150 -0.4092 -1.9868  0.8854
  914MOL0     H26126   3.788   0.504   4.959 -0.4416 -2.2296  0.0623
  914MOL0     H26127   3.642   0.573   5.049  0.0945 -0.9717  2.4206
  914MOL0     H26128   3.800   0.340   5.353  0.4009  0.3062  0.6778
  914MOL0     H26129   3.803   1.113   5.274  0.9062 -1.1205  0.1791
  914MOL0     H26130   3.795   1.339   5.368 -0.8582  0.8908  1.6784
  914MOL0     H26131   3.920   1.294   5.499  0.2355 -0.3294 -0.1820
  914MOL0     H26132   3.937   1.435   5.390  1.0251 -0.2585  4.2098
  915MOL0     O26133  10.828   2.252   4.605 -0.2583  0.7868  0.4573
  915MOL0     C26134  10.939   2.245   4.555  0.0943  0.3450  0.8574
  915MOL0     O26135  10.994   2.126   4.495 -0.3055 -0.3356 -0.7982
  915MOL0     C26136  10.895   2.033   4.465 -0.0033  0.4485  0.6575
  915MOL0     C26137  10.798   2.069   4.370 -0.5737 -0.3261  0.3044
  915MOL0     C26138  10.693   1.978   4.328 -0.4745 -0.6425 -0.6080
  915MOL0     C26139  10.671   1.867   4.410  0.3123 -0.1477 -0.0746
  915MOL0     O26140  10.557   1.785   4.394 -0.3304  0.0883  0.7308
  915MOL0     C26141  10.479   1.794   4.270 -0.9519  0.8943 -0.2638
  915MOL0     C26142  10.383   1.669   4.266 -0.3404 -0.2122  0.0205
  915MOL0     C26143  10.261   1.712   4.340 -0.5088  0.9909 -0.3610
  915MOL0     C26144  10.181   1.585   4.409 -0.0678 -1.3437  0.1641
  915MOL0     C26145  10.039   1.637   4.438  0.6653  0.2299  0.3255
  915MOL0     C26146   9.955   1.531   4.497 -0.5251  0.2689 -0.0240
  915MOL0     C26147   9.981   1.491   4.645 -0.8387 -0.7431  0.5631
  915MOL0     C26148   9.937   1.362   4.689 -0.2600 -0.2446  0.5663
  915MOL0     N26149   9.794   1.341   4.662 -0.0404 -0.6629  0.4865
  915MOL0     C26150   9.697   1.431   4.708 -0.3598 -0.3830 -0.2448
  915MOL0     C26151   9.583   1.367   4.668  0.2361 -0.5386 -0.0102
  915MOL0     C26152   9.446   1.408   4.713 -0.0386 -0.3239  0.3894
  915MOL0     C26153   9.435   1.370   4.860 -0.2856  0.2820 -0.1755
  915MOL0     C26154   9.293   1.380   4.907 -0.4681  0.4263  0.1383
  915MOL0     C26155   9.295   1.397   5.060  0.8400  0.3456  0.2068
  915MOL0     O26156   9.352   1.270   5.116  0.3200 -0.4060  0.2388
  915MOL0     C26157   9.323   1.245   5.245 -0.1489 -0.6782  0.2075
  915MOL0     C26158   9.251   1.327   5.333  0.8907  0.3241 -0.1937
  915MOL0     C26159   9.246   1.301   5.476  0.4414 -0.3500  0.4610
  915MOL0     C26160   9.145   1.385   5.563 -0.5854 -0.3998  0.2899
  915MOL0     C26161   9.313   1.186   5.524 -0.6334  0.6204  0.1529
  915MOL0     C26162   9.316   1.148   5.673 -0.7348 -0.0263 -0.3448
  915MOL0     O26163   9.305   1.013   5.695 -0.1066 -0.5957 -0.0352
  915MOL0     C26164   9.345   0.968   5.813 -0.4362  0.5303  0.3121
  915MOL0     C26165   9.471   0.962   5.868  0.0677 -0.2092 -0.0315
  915MOL0     C26166   9.482   0.888   5.989 -1.0715 -0.0889  0.5970
  915MOL0     C26167   9.380   0.815   6.044 -0.9068  0.8007 -0.7064
  915MOL0     O26168   9.407   0.744   6.156 -0.0504  0.8256  0.3988
  915MOL0     C26169   9.344   0.619   6.176  0.2052 -0.1207 -0.9796
  915MOL0     C26170   9.414   0.553   6.299  0.2446 -0.5597 -0.3759
  915MOL0     C26171   9.489   0.422   6.268 -0.0915  0.7028 -0.2612
  915MOL0     C26172   9.549   0.368   6.399 -0.1704  0.4474  0.3154
  915MOL0     C26173   9.633   0.237   6.383  0.1127 -0.1402  0.1068
  915MOL0     C26174   9.675   0.180   6.516 -0.3253  0.2522  0.1606
  915MOL0     C26175   9.773   0.280   6.585  0.2961  0.0083 -0.1115
  915MOL0     C26176   9.854   0.212   6.696  1.2757 -0.0846 -0.5332
  915MOL0    Cl26177   9.955   0.334   6.780 -0.3231 -0.1807  0.0048
  915MOL0     C26178   9.251   0.837   5.992 -0.6394  1.0680  0.1475
  915MOL0     C26179   9.239   0.912   5.882 -0.6749  0.3117 -1.0872
  915MOL0     O26180   9.320   1.231   5.760  0.3637 -0.1752  0.0592
  915MOL0     C26181   9.399   1.116   5.437  0.3350 -0.2814  0.0751
  915MOL0     C26182   9.408   1.148   5.300  0.4097  0.1707  0.6827
  915MOL0     N26183   9.610   1.259   4.592 -0.0862  1.0377  0.4055
  915MOL0     N26184   9.740   1.234   4.602  0.1236  0.2406 -0.0448
  915MOL0     C26185  10.766   1.830   4.506  0.5046  0.2747 -0.2441
  915MOL0     C26186  10.877   1.915   4.532  0.4418 -0.2909 -0.2321
  915MOL0     C26187  11.037   2.361   4.563  0.1262  0.4677  0.0363
  915MOL0     C26188  11.173   2.334   4.563 -0.3578 -0.3070  0.1476
  915MOL0     C26189  11.272   2.430   4.575 -0.1002 -0.4317  0.0369
  915MOL0     C26190  11.234   2.567   4.581 -0.6806  0.6072  0.5751
  915MOL0     O26191  11.316   2.677   4.596 -0.3708  0.2481  0.5122
  915MOL0     C26192  11.462   2.672   4.593  0.7799 -0.5147  0.3116
  915MOL0     C26193  11.511   2.715   4.451  0.3760  0.5938 -0.3763
  915MOL0     C26194  11.660   2.706   4.450  0.0451  0.4055 -0.2258
  915MOL0     C26195  11.717   2.578   4.386  0.4731  0.5063 -1.0883
  915MOL0     C26196  11.665   2.458   4.460 -0.6582  0.0161  0.4695
  915MOL0     C26197  11.654   2.363   4.532 -0.7044  0.2293 -0.2155
  915MOL0     C26198  11.102   2.598   4.585 -0.1857 -0.0228  0.5498
  915MOL0     C26199  11.009   2.497   4.577  1.0597 -0.5975  0.2053
  915MOL0     C26200  10.865   2.535   4.570  0.3079  0.4393  0.2023
  915MOL0     H26201  10.797   2.164   4.318 -1.3659 -1.7792 -2.5348
  915MOL0     H26202  10.623   2.012   4.253 -0.6945  0.0584 -0.1018
  915MOL0     H26203  10.551   1.784   4.189 -1.9588 -1.6495 -0.9572
  915MOL0     H26204  10.424   1.889   4.272 -0.3882  1.2659  3.2498
  915MOL0     H26205  10.366   1.637   4.162  0.8401 -0.1784 -0.1961
  915MOL0     H26206  10.417   1.571   4.301  0.9059 -0.3815 -1.5167
  915MOL0     H26207  10.289   1.787   4.414 -0.3274  1.3003 -0.7340
  915MOL0     H26208  10.193   1.776   4.283 -0.1029  3.3518  1.6171
  915MOL0     H26209  10.180   1.498   4.342 -1.8883 -0.9969 -0.2953
  915MOL0     H26210  10.232   1.545   4.497  0.6042 -2.3480 -0.6425
  915MOL0     H26211   9.985   1.673   4.350 -2.0707 -2.8450  0.5668
  915MOL0     H26212  10.044   1.722   4.507  0.3960 -0.2565  0.9481
  915MOL0     H26213   9.854   1.573   4.499 -0.6461 -0.0383  0.4668
  915MOL0     H26214   9.953   1.438   4.441  0.2019 -0.2240  0.7353
  915MOL0     H26215   9.941   1.564   4.715 -2.7301 -0.5957 -0.6131
  915MOL0     H26216  10.090   1.496   4.648 -0.8713 -0.2824  1.2432
  915MOL0     H26217   9.986   1.286   4.628 -0.6460  0.7814 -1.1068
  915MOL0     H26218   9.954   1.324   4.790 -4.7522 -0.4565  1.4564
  915MOL0     H26219   9.701   1.527   4.760 -0.2089 -0.7064  0.3441
  915MOL0     H26220   9.371   1.349   4.660 -1.7215  0.5705  1.6922
  915MOL0     H26221   9.428   1.515   4.700  0.6660 -0.3602 -1.2278
  915MOL0     H26222   9.467   1.267   4.880 -0.0482  0.7616  2.2082
  915MOL0     H26223   9.501   1.434   4.920  1.8955 -0.0696 -2.1004
  915MOL0     H26224   9.241   1.467   4.865  2.0700  1.2260 -1.5840
  915MOL0     H26225   9.229   1.295   4.884 -0.0192  0.4257 -1.1572
  915MOL0     H26226   9.336   1.490   5.101  1.2078  0.9791 -1.5227
  915MOL0     H26227   9.191   1.415   5.087  1.3974  3.5206  0.6116
  915MOL0     H26228   9.195   1.417   5.310 -2.1563 -2.3361 -4.6429
  915MOL0     H26229   9.075   1.441   5.501  0.7912  1.1623  0.0941
  915MOL0     H26230   9.213   1.445   5.625  1.7162 -0.4644 -2.0061
  915MOL0     H26231   9.083   1.318   5.624  1.9438 -2.5386  0.7073
  915MOL0     H26232   9.552   1.020   5.824  0.7941 -1.6048 -0.6022
  915MOL0     H26233   9.582   0.883   6.031  0.8825 -0.8745 -3.5413
  915MOL0     H26234   9.237   0.630   6.195  0.2994 -0.0932 -0.4251
  915MOL0     H26235   9.376   0.565   6.087  0.1889  1.1105 -1.7511
  915MOL0     H26236   9.477   0.624   6.354 -0.9841 -0.1909  0.6173
  915MOL0     H26237   9.333   0.533   6.370  2.9731 -0.7574  2.9811
  915MOL0     H26238   9.574   0.447   6.203  0.2383  1.9916  0.6143
  915MOL0     H26239   9.419   0.353   6.222 -0.5183 -0.4449  1.9679
  915MOL0     H26240   9.468   0.343   6.467 -0.0629 -1.4132 -0.1858
  915MOL0     H26241   9.611   0.447   6.443  0.2452 -0.7947  2.0539
  915MOL0     H26242   9.575   0.162   6.328  0.2502 -1.8139  2.0883
  915MOL0     H26243   9.714   0.244   6.310 -0.5068  1.6664 -0.4503
  915MOL0     H26244   9.724   0.082   6.508  2.3248  1.4433  0.6978
  915MOL0     H26245   9.595   0.154   6.586  2.3745 -2.9511  2.4004
  915MOL0     H26246   9.705   0.358   6.619 -1.1641 -0.8067 -1.0330
  915MOL0     H26247   9.845   0.319   6.513  1.3648  0.9741  1.4185
  915MOL0     H26248   9.917   0.132   6.655  0.4660 -0.9156 -0.2024
  915MOL0     H26249   9.791   0.160   6.768  0.1687  1.5229 -0.2902
  915MOL0     H26250   9.162   0.803   6.044  0.5891  1.0775  2.3873
  915MOL0     H26251   9.139   0.923   5.841 -2.2759  1.0266  2.6553
  915MOL0     H26252   9.457   1.032   5.474  0.3059 -0.6063 -0.5980
  915MOL0     H26253   9.481   1.095   5.240  0.3670 -1.3014  1.8705
  915MOL0     H26254  10.758   1.735   4.557  1.6453 -0.4352 -1.3503
  915MOL0     H26255  10.948   1.868   4.600 -1.2617 -2.5178  0.1026
  915MOL0     H26256  11.205   2.231   4.545  2.3136  0.7235 -1.6605
  915MOL0     H26257  11.376   2.401   4.577  0.3905  0.9876  3.7035
  915MOL0     H26258  11.496   2.736   4.674  2.2972  0.6280 -1.1578
  915MOL0     H26259  11.498   2.572   4.621  1.0930 -0.8574 -1.2098
  915MOL0     H26260  11.477   2.818   4.432  1.6930  1.6540  2.4208
  915MOL0     H26261  11.473   2.650   4.371 -0.0419  1.4779 -0.9140
  915MOL0     H26262  11.695   2.792   4.393  1.8823  0.6713  1.1740
  915MOL0     H26263  11.698   2.716   4.553  0.4628 -1.0032 -0.2226
  915MOL0     H26264  11.825   2.588   4.391  0.2694  4.7943 -1.0262
  915MOL0     H26265  11.687   2.576   4.281  1.7324 -0.9070 -1.4419
  915MOL0     H26266  11.652   2.267   4.580 -0.6188  1.1617  1.7227
  915MOL0     H26267  11.073   2.703   4.578 -0.7900 -0.0921  1.7471
  915MOL0     H26268  10.856   2.644   4.570  2.3270  0.7437  3.6441
  915MOL0     H26269  10.812   2.498   4.481  0.0801 -1.3317  1.0365
  915MOL0     H26270  10.811   2.493   4.655 -0.5964  1.9339  0.4025
  916MOL0     O26271   9.913   5.350   4.099 -0.6504  0.3838  0.3581
  916MOL0     C26272   9.925   5.226   4.082  0.2194  0.4997  0.6378
  916MOL0     O26273   9.854   5.128   4.149 -0.4410  0.1664 -0.4482
  916MOL0     C26274   9.768   5.148   4.259  0.3702  0.2341  0.6856
  916MOL0     C26275   9.696   5.038   4.312  0.6739 -0.8215 -0.6380
  916MOL0     C26276   9.600   5.061   4.415 -0.3568 -0.5008 -0.1027
  916MOL0     C26277   9.600   5.179   4.490  0.6830 -0.1641  0.8877
  916MOL0     O26278   9.504   5.196   4.591 -0.0113  0.0178 -0.2845
  916MOL0     C26279   9.565   5.211   4.721 -0.5592 -1.0539  0.0739
  916MOL0     C26280   9.527   5.343   4.772  0.6618  0.2526 -0.3107
  916MOL0     C26281   9.583   5.377   4.905 -0.0552 -0.8387 -0.0609
  916MOL0     C26282   9.517   5.493   4.983 -0.1045 -0.6092  0.6040
  916MOL0     C26283   9.584   5.496   5.125  0.7669 -1.4798  0.1627
  916MOL0     C26284   9.543   5.631   5.194  0.3926 -0.1392  0.7334
  916MOL0     C26285   9.606   5.753   5.131 -0.1065  0.5126 -0.3470
  916MOL0     C26286   9.735   5.796   5.206  0.5461  0.1091  0.0124
  916MOL0     N26287   9.806   5.914   5.152  0.1846  0.5654  0.1777
  916MOL0     C26288   9.909   5.896   5.059 -0.2845 -0.3460 -0.1928
  916MOL0     C26289   9.975   6.013   5.069 -0.3116  0.7718 -0.4346
  916MOL0     C26290  10.117   6.031   5.015  0.1715 -0.4179  1.0687
  916MOL0     C26291  10.118   6.047   4.856 -0.5648 -0.6656  0.3319
  916MOL0     C26292  10.125   5.914   4.782  0.1564  0.2956  0.7436
  916MOL0     C26293  10.185   5.926   4.635  0.1353 -0.1664 -1.2580
  916MOL0     O26294  10.213   5.791   4.595  0.1773 -0.1881  0.6178
  916MOL0     C26295  10.350   5.753   4.609  0.1229 -0.4278  0.3141
  916MOL0     C26296  10.415   5.715   4.494  0.0585 -0.6363  0.6948
  916MOL0     C26297  10.546   5.664   4.491 -0.2499  0.9721  0.4151
  916MOL0     C26298  10.606   5.639   4.358 -0.2234  1.1606  0.0459
  916MOL0     C26299  10.616   5.640   4.619  0.7473  0.1417  0.2927
  916MOL0     C26300  10.739   5.561   4.618  0.7949  0.1477 -0.1320
  916MOL0     O26301  10.761   5.492   4.736 -0.6898  0.3451 -0.5656
  916MOL0     C26302  10.883   5.433   4.760 -0.2452 -0.9155 -0.5760
  916MOL0     C26303  10.928   5.325   4.688  0.2985  0.3497  0.3466
  916MOL0     C26304  11.051   5.265   4.709 -0.1496 -0.5167  0.1294
  916MOL0     C26305  11.122   5.301   4.819  0.2234  0.9318 -0.4556
  916MOL0     O26306  11.228   5.240   4.876 -0.2324 -0.6015 -0.4662
  916MOL0     C26307  11.313   5.179   4.785 -0.0729 -0.8683  0.5204
  916MOL0     C26308  11.409   5.291   4.737  0.0559  0.0035 -0.9908
  916MOL0     C26309  11.517   5.231   4.654  0.6865  0.4045 -0.4259
  916MOL0     C26310  11.462   5.181   4.514  0.0682 -0.3114 -0.3441
  916MOL0     C26311  11.567   5.140   4.418  0.8968  0.0021 -0.2390
  916MOL0     C26312  11.633   5.253   4.340  0.6391  0.7301 -0.1910
  916MOL0     C26313  11.742   5.206   4.241  0.1826  1.2910  0.5359
  916MOL0     C26314  11.859   5.306   4.229 -1.5022 -0.0247 -0.0587
  916MOL0    Cl26315  11.788   5.459   4.170 -0.2384 -0.2436 -0.0441
  916MOL0     C26316  11.079   5.412   4.895 -1.4416 -0.1362  0.1653
  916MOL0     C26317  10.959   5.483   4.870 -0.7257  0.8796 -0.2743
  916MOL0     O26318  10.799   5.539   4.514  0.2460  0.5728 -0.3167
  916MOL0     C26319  10.545   5.674   4.732 -0.0765  0.1115  1.0140
  916MOL0     C26320  10.418   5.739   4.730  0.1193  0.2748 -0.9757
  916MOL0     N26321   9.926   6.092   5.165  0.5532 -0.4398 -0.5640
  916MOL0     N26322   9.823   6.025   5.225 -0.2208 -0.0198 -0.0358
  916MOL0     C26323   9.683   5.286   4.445 -0.3996  0.0189  0.5591
  916MOL0     C26324   9.768   5.259   4.340 -0.0378 -1.1212  0.0037
  916MOL0     C26325  10.032   5.175   3.992  0.6480 -0.2358 -0.0462
  916MOL0     C26326  10.144   5.254   3.974 -0.1261 -0.0149  0.8326
  916MOL0     C26327  10.261   5.193   3.900  1.3276  0.0271 -1.0271
  916MOL0     C26328  10.257   5.061   3.856 -0.2071  0.2979  0.0167
  916MOL0     O26329  10.335   5.001   3.760  0.3555 -0.4102 -0.4333
  916MOL0     C26330  10.469   5.055   3.748 -0.2265  0.0491 -0.2162
  916MOL0     C26331  10.549   4.972   3.642  0.3378  0.5168 -0.6354
  916MOL0     C26332  10.461   4.964   3.515  0.2870 -0.0631  0.0178
  916MOL0     C26333  10.534   4.907   3.394  0.1551  0.3419 -0.3825
  916MOL0     C26334  10.652   4.993   3.358 -0.7500  0.1232  0.1134
  916MOL0     C26335  10.752   5.060   3.340  0.0700  0.1792  0.2950
  916MOL0     C26336  10.147   4.985   3.877  0.2644 -0.5262 -0.3341
  916MOL0     C26337  10.032   5.042   3.937  0.4970 -0.6986 -0.1859
  916MOL0     C26338   9.926   4.944   3.944  0.2777  0.4998 -0.2046
  916MOL0     H26339   9.707   4.942   4.262 -1.7311 -2.1712  1.1936
  916MOL0     H26340   9.538   4.978   4.448  1.4315 -1.8706  0.0207
  916MOL0     H26341   9.673   5.195   4.714 -0.6770 -1.0603 -2.5907
  916MOL0     H26342   9.523   5.142   4.795  1.5666  1.4911  3.9807
  916MOL0     H26343   9.559   5.412   4.694  1.7942  1.5875  1.2521
  916MOL0     H26344   9.419   5.352   4.781  0.5128  0.5001 -2.0565
  916MOL0     H26345   9.594   5.292   4.973 -2.3350  0.7570  2.4841
  916MOL0     H26346   9.688   5.408   4.893 -0.5051  0.9177  0.2820
  916MOL0     H26347   9.529   5.584   4.924  1.6309 -0.5238  1.0339
  916MOL0     H26348   9.412   5.468   4.998  0.0969 -1.1774  1.1132
  916MOL0     H26349   9.693   5.504   5.121  0.8331  2.1077  3.3235
  916MOL0     H26350   9.541   5.410   5.178 -1.5976 -0.8675 -0.6528
  916MOL0     H26351   9.436   5.637   5.214  0.6924 -1.0460  2.8641
  916MOL0     H26352   9.588   5.631   5.294 -2.2549 -0.0741  2.0059
  916MOL0     H26353   9.540   5.840   5.137  0.7804  1.1302  0.6793
  916MOL0     H26354   9.635   5.733   5.027  0.8672 -0.8070  0.1438
  916MOL0     H26355   9.711   5.817   5.311 -1.0377  0.7462 -0.4424
  916MOL0     H26356   9.807   5.714   5.199  2.8592  2.0279  0.1187
  916MOL0     H26357   9.926   5.813   4.991  2.1293  1.0712 -1.4483
  916MOL0     H26358  10.176   5.946   5.050 -1.7442 -2.1782  0.2281
  916MOL0     H26359  10.160   6.126   5.049 -0.8606  0.6347 -0.4398
  916MOL0     H26360  10.033   6.110   4.829  1.0002  1.1143 -0.7781
  916MOL0     H26361  10.206   6.108   4.834  0.2630 -1.8977  0.1267
  916MOL0     H26362  10.194   5.855   4.843  0.5982  0.1563  0.1171
  916MOL0     H26363  10.027   5.866   4.774  0.1520  0.4902 -0.6899
  916MOL0     H26364  10.124   5.986   4.568  0.4122  0.3930 -1.0184
  916MOL0     H26365  10.278   5.982   4.650 -0.7893  1.4522 -1.4043
  916MOL0     H26366  10.355   5.708   4.404  0.7474 -2.8203  0.3365
  916MOL0     H26367  10.540   5.675   4.279 -1.6745 -1.2508  0.0559
  916MOL0     H26368  10.618   5.531   4.348 -2.2836  0.6856  1.8217
  916MOL0     H26369  10.702   5.690   4.349  2.2264 -2.8750  0.8872
  916MOL0     H26370  10.862   5.285   4.611  0.5864  3.3302 -1.6160
  916MOL0     H26371  11.071   5.187   4.636  2.1246 -0.0524  0.1837
  916MOL0     H26372  11.370   5.121   4.859  0.8612 -0.0328  0.4826
  916MOL0     H26373  11.267   5.126   4.702 -0.7467  1.5902 -0.7699
  916MOL0     H26374  11.340   5.344   4.672 -3.0527 -4.0871 -1.4286
  916MOL0     H26375  11.446   5.358   4.815  1.2844 -0.6512 -0.9803
  916MOL0     H26376  11.573   5.159   4.714 -2.1473 -2.2347 -0.6817
  916MOL0     H26377  11.582   5.315   4.626 -1.1617  1.9341 -0.3068
  916MOL0     H26378  11.390   5.254   4.477  0.3713  0.6223  0.8350
  916MOL0     H26379  11.400   5.094   4.539  1.8082 -0.7489  2.9990
  916MOL0     H26380  11.634   5.069   4.465 -1.3933 -1.5932  0.8186
  916MOL0     H26381  11.521   5.084   4.336 -1.1979 -1.2062  1.6554
  916MOL0     H26382  11.682   5.319   4.413 -2.0398 -0.1309  2.5974
  916MOL0     H26383  11.554   5.317   4.299  0.4898  1.0098  0.5105
  916MOL0     H26384  11.691   5.177   4.149  1.9192  0.7152 -0.2726
  916MOL0     H26385  11.769   5.107   4.278 -0.5704  0.7423 -0.3685
  916MOL0     H26386  11.937   5.273   4.160 -1.6819 -0.5012 -0.0341
  916MOL0     H26387  11.911   5.333   4.322 -1.1388  1.3400 -0.6298
  916MOL0     H26388  11.134   5.442   4.984 -0.9363 -1.3607  0.2784
  916MOL0     H26389  10.920   5.559   4.936 -3.2661 -1.6529  1.3888
  916MOL0     H26390  10.597   5.658   4.826 -0.3092  1.3789  1.3834
  916MOL0     H26391  10.384   5.769   4.828  1.2276 -1.5052  0.0194
  916MOL0     H26392   9.672   5.383   4.494  1.4643 -1.0420  3.3359
  916MOL0     H26393   9.842   5.338   4.330 -0.0091 -1.0529  0.7270
  916MOL0     H26394  10.142   5.359   4.003  1.7826  1.0766 -2.3511
  916MOL0     H26395  10.352   5.247   3.878  0.8352  1.4010  0.1392
  916MOL0     H26396  10.461   5.163   3.732  0.5223 -0.1601 -2.2582
  916MOL0     H26397  10.520   5.033   3.842  0.4983  0.0562 -0.5954
  916MOL0     H26398  10.567   4.869   3.676 -0.8038 -0.5844 -3.1287
  916MOL0     H26399  10.646   5.019   3.623  0.4388  0.6037  0.0695
  916MOL0     H26400  10.378   4.893   3.521 -0.2189  0.2483 -2.4414
  916MOL0     H26401  10.430   5.067   3.498  2.1443  0.5118 -0.1840
  916MOL0     H26402  10.465   4.911   3.309 -1.1816  3.1561  0.7171
  916MOL0     H26403  10.572   4.811   3.431 -0.4227  1.2777  2.8854
  916MOL0     H26404  10.826   5.136   3.323 -0.5732  0.6841 -0.3007
  916MOL0     H26405  10.145   4.885   3.834 -2.4558 -1.0664  0.8456
  916MOL0     H26406   9.827   4.987   3.925  0.2400 -0.0727 -1.3705
  916MOL0     H26407   9.937   4.865   3.870  4.7233  2.2911 -1.7740
  916MOL0     H26408   9.924   4.902   4.045  1.3749 -2.0247 -1.1677
  917MOL0     O26409   8.845  10.921   5.953 -0.3401 -0.1327  0.5801
  917MOL0     C26410   8.902  10.905   5.841 -0.2863 -0.8065  0.8218
  917MOL0     O26411   9.030  10.945   5.815 -0.4499  1.2719  0.7077
  917MOL0     C26412   9.109  10.997   5.920 -0.3851 -0.4523  0.5457
  917MOL0     C26413   9.189  10.902   5.982  0.8011  0.1801  0.1719
  917MOL0     C26414   9.282  10.943   6.079 -0.3148 -0.5006 -0.2626
  917MOL0     C26415   9.282  11.078   6.123  0.3493 -0.5534 -0.4775
  917MOL0     O26416   9.367  11.107   6.224 -0.4469 -0.3143  0.4391
  917MOL0     C26417   9.404  11.241   6.261 -0.5469  0.1588  0.4292
  917MOL0     C26418   9.330  11.303   6.383  0.9679  0.1547 -0.0296
  917MOL0     C26419   9.371  11.232   6.509 -0.1980 -0.1194 -0.3642
  917MOL0     C26420   9.258  11.256   6.614 -0.2487 -0.9236  0.7666
  917MOL0     C26421   9.302  11.246   6.767  0.3540 -0.2801 -0.5445
  917MOL0     C26422   9.332  11.096   6.804  0.3759 -0.3092 -0.0746
  917MOL0     C26423   9.370  11.088   6.954  0.0865  0.5265  0.3678
  917MOL0     C26424   9.422  10.944   6.988  0.2375  0.6797  0.0606
  917MOL0     N26425   9.461  10.926   7.130 -0.1261  0.2387  0.2963
  917MOL0     C26426   9.441  10.806   7.194 -0.4968  0.3652  0.7741
  917MOL0     C26427   9.472  10.831   7.317 -1.2114  0.0301 -0.7695
  917MOL0     C26428   9.461  10.736   7.427  0.2807  0.0823 -0.4110
  917MOL0     C26429   9.370  10.789   7.546 -0.7101 -0.8207  0.4068
  917MOL0     C26430   9.220  10.810   7.509 -0.3825 -0.2138  0.4100
  917MOL0     C26431   9.204  10.928   7.409  0.9584  0.2086 -0.4276
  917MOL0     O26432   9.176  10.868   7.288 -0.4073  0.4599  0.3387
  917MOL0     C26433   9.116  10.936   7.187  0.3588  0.2871 -0.1845
  917MOL0     C26434   9.071  11.067   7.191 -0.3307 -0.2800  0.0424
  917MOL0     C26435   8.998  11.131   7.086 -0.1559 -0.6492 -0.4103
  917MOL0     C26436   8.938  11.269   7.103 -0.4237  0.6034 -0.1409
  917MOL0     C26437   8.976  11.060   6.970 -0.4704 -0.3234  0.4881
  917MOL0     C26438   8.902  11.107   6.845  0.1812 -0.1378  0.1704
  917MOL0     O26439   8.877  11.016   6.751  0.0165  0.8340  0.3436
  917MOL0     C26440   8.841  11.064   6.622  0.7594 -0.7275 -0.3245
  917MOL0     C26441   8.719  11.127   6.605 -0.5396 -0.4544  0.2052
  917MOL0     C26442   8.685  11.161   6.480  1.1241 -0.5019 -0.0873
  917MOL0     C26443   8.755  11.123   6.370 -0.3154  0.7394  0.3699
  917MOL0     O26444   8.713  11.168   6.245 -0.2785 -0.0496 -0.0992
  917MOL0     C26445   8.809  11.203   6.143 -0.2298 -0.7551 -0.8792
  917MOL0     C26446   8.882  11.340   6.174 -0.8046  0.2096  0.2278
  917MOL0     C26447   8.779  11.452   6.184  0.4602 -0.8311  0.5538
  917MOL0     C26448   8.721  11.483   6.041 -0.1943  0.8624  0.1868
  917MOL0     C26449   8.668  11.626   6.026  0.2036  0.6296  0.3787
  917MOL0     C26450   8.520  11.634   6.054  0.4009 -0.6633 -0.6937
  917MOL0     C26451   8.499  11.768   6.140 -0.9976  0.6008  0.2222
  917MOL0     C26452   8.354  11.786   6.188 -0.4182 -0.1024  0.0868
  917MOL0    Cl26453   8.243  11.764   6.053  0.1993  0.3041  0.0033
  917MOL0     C26454   8.876  11.054   6.385  0.2449 -0.1722 -0.3213
  917MOL0     C26455   8.921  11.031   6.514 -0.0206 -0.0710 -0.0815
  917MOL0     O26456   8.877  11.232   6.824  0.3925 -0.0668 -0.8926
  917MOL0     C26457   9.040  10.940   6.953  0.0969  0.7272  0.0116
  917MOL0     C26458   9.102  10.874   7.062 -0.4673 -0.1355  0.1970
  917MOL0     N26459   9.517  10.965   7.323 -0.0454  0.4657  0.1315
  917MOL0     N26460   9.506  11.020   7.209  0.1001 -0.9776  1.0058
  917MOL0     C26461   9.204  11.173   6.053  0.5923 -0.3415 -0.1170
  917MOL0     C26462   9.120  11.135   5.948  0.6591 -0.0480  0.1334
  917MOL0     C26463   8.824  10.843   5.726  0.5458  0.5475  0.3754
  917MOL0     C26464   8.888  10.818   5.603 -0.5736 -0.0006  0.1457
  917MOL0     C26465   8.820  10.760   5.491 -0.4325  0.7706  0.5605
  917MOL0     C26466   8.677  10.731   5.493 -0.2388 -0.8163 -0.5077
  917MOL0     O26467   8.591  10.685   5.389 -0.5987  0.4876  0.1135
  917MOL0     C26468   8.652  10.669   5.261  0.5927 -0.0063 -0.9915
  917MOL0     C26469   8.541  10.654   5.159 -0.0738 -0.4115  0.2836
  917MOL0     C26470   8.462  10.527   5.167  0.8992 -0.1743  0.4375
  917MOL0     C26471   8.388  10.499   5.038  0.3896 -0.0489 -0.0750
  917MOL0     C26472   8.285  10.399   5.034 -0.3991  0.0395  0.1436
  917MOL0     C26473   8.196  10.312   5.029 -0.2667  0.2260  0.1591
  917MOL0     C26474   8.619  10.766   5.620  0.2756 -0.4348 -0.7228
  917MOL0     C26475   8.688  10.801   5.740 -0.0443  0.3694 -0.2211
  917MOL0     C26476   8.625  10.775   5.875  0.5618 -0.2516  0.4902
  917MOL0     H26477   9.199  10.799   5.950  0.0014  0.5915 -1.5236
  917MOL0     H26478   9.361  10.875   6.109  2.4778  3.0942  1.3324
  917MOL0     H26479   9.391  11.305   6.174  2.1192 -3.0068 -2.5988
  917MOL0     H26480   9.508  11.235   6.293 -0.3246  0.6651 -0.1941
  917MOL0     H26481   9.340  11.411   6.396 -1.4629  0.1462  3.2174
  917MOL0     H26482   9.223  11.289   6.366  1.3106 -0.9763 -1.5388
  917MOL0     H26483   9.365  11.124   6.492 -2.8857  0.0019 -0.4959
  917MOL0     H26484   9.463  11.278   6.547 -0.5946 -1.9346  3.1133
  917MOL0     H26485   9.224  11.357   6.591  2.3139 -0.1560  0.0150
  917MOL0     H26486   9.177  11.184   6.600  1.4383 -2.6648 -0.5381
  917MOL0     H26487   9.214  11.283   6.821 -0.2190  0.0233 -1.6557
  917MOL0     H26488   9.389  11.312   6.778 -0.8912  1.4005 -0.2658
  917MOL0     H26489   9.242  11.035   6.793  1.5800 -2.2093 -0.0727
  917MOL0     H26490   9.412  11.057   6.740 -0.1147 -0.0716 -0.8371
  917MOL0     H26491   9.282  11.113   7.015  0.1389  0.0685  0.6364
  917MOL0     H26492   9.449  11.163   6.963 -0.6700  1.3808  0.0109
  917MOL0     H26493   9.359  10.867   6.942  0.9945  1.1061 -1.8006
  917MOL0     H26494   9.515  10.932   6.932  1.1200  1.2708  1.3687
  917MOL0     H26495   9.418  10.711   7.147  0.3607  0.6052 -0.1667
  917MOL0     H26496   9.561  10.722   7.469  0.4065 -3.8229 -1.6395
  917MOL0     H26497   9.431  10.639   7.387 -1.3822 -0.1039  1.1494
  917MOL0     H26498   9.381  10.728   7.636  0.7421  1.9622  2.2609
  917MOL0     H26499   9.408  10.887   7.578  0.0745 -1.2803  0.9201
  917MOL0     H26500   9.176  10.720   7.465 -0.2245 -1.1879  2.1757
  917MOL0     H26501   9.171  10.843   7.601  0.1573  0.5859  0.4213
  917MOL0     H26502   9.119  10.990   7.439  1.4732  2.4437 -3.1917
  917MOL0     H26503   9.290  10.994   7.396  1.4068 -0.2077  0.3726
  917MOL0     H26504   9.081  11.124   7.283  0.1456  1.5526 -1.1096
  917MOL0     H26505   8.932  11.298   7.208 -0.1118 -3.2987  1.1145
  917MOL0     H26506   8.832  11.255   7.079 -1.1841  2.6149  1.7772
  917MOL0     H26507   8.975  11.353   7.043 -1.4164  2.0343  1.1965
  917MOL0     H26508   8.649  11.147   6.686 -1.7214 -1.0933 -0.6193
  917MOL0     H26509   8.591  11.214   6.464  1.6418  1.4855  2.7378
  917MOL0     H26510   8.882  11.123   6.132  0.5932  0.2178 -2.9608
  917MOL0     H26511   8.752  11.205   6.050  1.6895 -1.7001 -2.1294
  917MOL0     H26512   8.934  11.328   6.269 -0.1954 -3.9932 -0.4666
  917MOL0     H26513   8.961  11.371   6.104 -2.6177  2.4431 -0.9925
  917MOL0     H26514   8.833  11.541   6.217  1.6744 -0.3384 -2.4587
  917MOL0     H26515   8.696  11.441   6.255  0.9391 -1.2053  1.0662
  917MOL0     H26516   8.641  11.416   6.010 -1.3760  1.2418  2.2716
  917MOL0     H26517   8.805  11.468   5.973  2.2774  2.4695  2.6300
  917MOL0     H26518   8.731  11.692   6.087  1.0218 -0.1384  0.3801
  917MOL0     H26519   8.670  11.662   5.922  1.4272 -1.3114 -0.3252
  917MOL0     H26520   8.474  11.544   6.096  3.5058 -2.1637 -0.2022
  917MOL0     H26521   8.468  11.653   5.960 -1.5811 -0.4759  0.3745
  917MOL0     H26522   8.526  11.858   6.084 -0.7388  1.6449  1.9570
  917MOL0     H26523   8.556  11.753   6.232  0.1453  1.9088 -0.2348
  917MOL0     H26524   8.341  11.888   6.225  1.4284  0.7318 -1.3640
  917MOL0     H26525   8.348  11.718   6.274 -0.8019  2.3063  2.0778
  917MOL0     H26526   8.934  11.022   6.300  0.3793  0.0820 -0.3257
  917MOL0     H26527   9.017  10.984   6.532  1.1908  2.5587  1.0010
  917MOL0     H26528   9.034  10.875   6.866  6.1448  0.8771 -1.0056
  917MOL0     H26529   9.153  10.778   7.054  1.4685  0.9385 -1.5083
  917MOL0     H26530   9.200  11.279   6.074  1.5426 -0.0025 -1.5092
  917MOL0     H26531   9.069  11.214   5.893  2.8770  2.1819  1.0683
  917MOL0     H26532   8.996  10.830   5.599 -0.4809 -0.8479  0.0425
  917MOL0     H26533   8.874  10.745   5.398 -0.0570  1.7447  0.6092
  917MOL0     H26534   8.721  10.752   5.244  2.4965  0.1124  5.1815
  917MOL0     H26535   8.712  10.578   5.256 -0.2482 -0.8812  2.5063
  917MOL0     H26536   8.580  10.665   5.057  2.2774 -2.1840  0.8897
  917MOL0     H26537   8.465  10.731   5.172 -0.6451 -0.9760  0.3091
  917MOL0     H26538   8.532  10.444   5.186  0.1099 -2.0356 -3.7878
  917MOL0     H26539   8.388  10.535   5.247  1.0786  0.8671  0.5092
  917MOL0     H26540   8.458  10.463   4.961 -0.9642  2.7465 -2.8467
  917MOL0     H26541   8.344  10.596   5.013  2.0864  0.2539 -2.2559
  917MOL0     H26542   8.120  10.242   4.999 -1.6265  2.0283 -0.7741
  917MOL0     H26543   8.514  10.742   5.637  0.8895 -1.9347  1.1656
  917MOL0     H26544   8.690  10.727   5.948 -2.1116 -2.6270  1.4804
  917MOL0     H26545   8.572  10.866   5.904  0.4232  0.0547 -0.6468
  917MOL0     H26546   8.552  10.695   5.860 -1.0159  1.3451 -0.8432
  918MOL0     O26547   3.786  10.944   1.194  0.9065 -0.3907 -0.2878
  918MOL0     C26548   3.716  10.889   1.274  0.6951  1.1839 -0.3809
  918MOL0     O26549   3.757  10.791   1.356 -0.7786 -1.0360 -0.1006
  918MOL0     C26550   3.885  10.761   1.362 -1.0713 -0.1448 -0.1556
  918MOL0     C26551   3.991  10.854   1.363 -0.3446  0.0740 -0.7725
  918MOL0     C26552   4.126  10.811   1.358  0.6837  0.1237  0.0387
  918MOL0     C26553   4.159  10.678   1.381  0.2004  0.5063  0.2240
  918MOL0     O26554   4.281  10.612   1.400 -0.0075 -0.0749  0.3168
  918MOL0     C26555   4.393  10.691   1.436  0.4203 -0.2962 -0.4213
  918MOL0     C26556   4.496  10.598   1.496 -0.9583  0.1190 -0.6483
  918MOL0     C26557   4.622  10.674   1.545  0.3383  0.5653 -0.9732
  918MOL0     C26558   4.691  10.776   1.457  0.9973 -0.3338  1.1765
  918MOL0     C26559   4.819  10.818   1.530  0.2470 -0.3225  0.3191
  918MOL0     C26560   4.921  10.878   1.446 -0.0291  0.6305  0.5032
  918MOL0     C26561   5.023  10.956   1.531 -0.5229  0.3975 -0.1180
  918MOL0     C26562   5.163  10.976   1.463 -0.1324  0.7609  0.2099
  918MOL0     N26563   5.255  11.044   1.555  0.6927  0.8785 -0.1855
  918MOL0     C26564   5.307  10.975   1.661 -0.7127  0.0550 -0.4116
  918MOL0     C26565   5.407  11.056   1.709 -0.5203  0.2456 -0.6857
  918MOL0     C26566   5.510  11.018   1.814  0.4694 -0.0550  0.6307
  918MOL0     C26567   5.643  11.001   1.755 -0.7589  0.1025  0.3641
  918MOL0     C26568   5.772  11.012   1.856  1.2495  0.5256  0.0514
  918MOL0     C26569   5.888  10.953   1.786 -0.1931 -0.7501  0.1995
  918MOL0     O26570   5.912  11.018   1.656 -0.5964  0.5563 -0.4525
  918MOL0     C26571   6.001  11.122   1.643 -1.0765 -0.9721 -0.1659
  918MOL0     C26572   6.058  11.193   1.744  0.0017 -0.7201 -0.2988
  918MOL0     C26573   6.137  11.304   1.732 -0.6036  0.5786  0.2551
  918MOL0     C26574   6.187  11.356   1.866  0.1274 -0.3211  0.5830
  918MOL0     C26575   6.171  11.356   1.608  0.1904 -0.1238  1.1734
  918MOL0     C26576   6.270  11.463   1.588 -0.1455 -0.1166 -0.4971
  918MOL0     O26577   6.401  11.452   1.633  0.4187 -0.2153  0.4980
  918MOL0     C26578   6.490  11.561   1.619 -0.3477  0.4817  1.4007
  918MOL0     C26579   6.511  11.645   1.728 -0.6397  1.1148 -0.4622
  918MOL0     C26580   6.582  11.764   1.716 -0.0403 -0.5678  0.0009
  918MOL0     C26581   6.643  11.806   1.591  0.1829 -0.3028 -0.5496
  918MOL0     O26582   6.719  11.919   1.596 -0.0451  0.0402 -0.5498
  918MOL0     C26583   6.787  11.955   1.482 -0.3453  0.4850 -0.1535
  918MOL0     C26584   6.890  12.054   1.526 -0.1244 -0.2216  0.5110
  918MOL0     C26585   6.938  12.148   1.420 -0.3725 -1.0062  1.3132
  918MOL0     C26586   6.988  12.065   1.297 -1.0227  0.2811  0.1914
  918MOL0     C26587   7.079  12.133   1.194  0.3359  0.4936  0.4073
  918MOL0     C26588   6.998  12.230   1.113  0.0512 -0.2258  0.3114
  918MOL0     C26589   7.071  12.275   0.982  0.6687  0.5239 -0.5334
  918MOL0     C26590   7.032  12.195   0.859 -0.5076 -0.7284 -0.1862
  918MOL0    Cl26591   7.081  12.280   0.695 -0.1851  0.3706 -0.1607
  918MOL0     C26592   6.622  11.714   1.485 -0.1706 -0.5128 -0.0393
  918MOL0     C26593   6.550  11.606   1.499  0.8666  0.0040 -0.3294
  918MOL0     O26594   6.225  11.566   1.532 -0.2879  0.1522  0.0790
  918MOL0     C26595   6.125  11.278   1.492 -0.8076 -0.3062 -0.1710
  918MOL0     C26596   6.040  11.169   1.511 -0.2074 -0.2507 -0.9479
  918MOL0     N26597   5.401  11.172   1.637  0.2435  0.3190  1.0147
  918MOL0     N26598   5.311  11.163   1.544 -1.0154 -0.8617 -0.9523
  918MOL0     C26599   4.048  10.586   1.397 -0.3346  0.0723 -0.2344
  918MOL0     C26600   3.915  10.629   1.376 -0.5506  0.1874  0.5363
  918MOL0     C26601   3.580  10.938   1.279  0.0642  0.3464 -0.2071
  918MOL0     C26602   3.559  11.065   1.240 -0.1183  0.2731 -1.4913
  918MOL0     C26603   3.433  11.108   1.208 -0.4144  0.0659  0.6265
  918MOL0     C26604   3.316  11.028   1.218  0.7653  0.4660 -0.4384
  918MOL0     O26605   3.193  11.088   1.176  0.1546  0.8144 -0.3372
  918MOL0     C26606   3.075  11.020   1.192 -0.4038 -0.1693 -0.2222
  918MOL0     C26607   2.958  11.123   1.169  0.7505  0.4094 -0.3221
  918MOL0     C26608   2.832  11.041   1.211 -0.5721  0.2393 -0.4708
  918MOL0     C26609   2.715  11.144   1.223 -0.1997 -0.5485 -0.7258
  918MOL0     C26610   2.596  11.069   1.225  0.5495 -0.2386 -0.3041
  918MOL0     C26611   2.509  10.986   1.243  0.1009 -1.0325 -0.4945
  918MOL0     C26612   3.335  10.896   1.269  0.2795 -0.1902 -0.0540
  918MOL0     C26613   3.468  10.853   1.289  0.4497  0.5915 -0.5376
  918MOL0     C26614   3.484  10.708   1.320 -0.8996 -0.2145 -0.5799
  918MOL0     H26615   3.964  10.959   1.356 -0.9641 -0.1038 -1.1492
  918MOL0     H26616   4.208  10.879   1.341 -1.3347  2.4592 -1.0120
  918MOL0     H26617   4.352  10.766   1.504 -1.3195 -0.9358 -0.7087
  918MOL0     H26618   4.446  10.756   1.366 -0.1589  2.6638  1.6982
  918MOL0     H26619   4.447  10.533   1.569  0.8919 -1.4013 -0.6745
  918MOL0     H26620   4.530  10.525   1.422  0.7528 -0.7363  0.8886
  918MOL0     H26621   4.583  10.727   1.632 -2.4935 -2.6126 -0.1232
  918MOL0     H26622   4.699  10.607   1.586 -1.2954  0.4305  2.1880
  918MOL0     H26623   4.713  10.730   1.360  3.3168 -0.2899  1.6265
  918MOL0     H26624   4.614  10.852   1.449 -1.1882 -2.3374  2.0356
  918MOL0     H26625   4.860  10.726   1.574 -1.3887 -1.7876 -1.0527
  918MOL0     H26626   4.782  10.878   1.615 -0.0874  0.1637 -0.1618
  918MOL0     H26627   4.971  10.799   1.389  0.1547  0.3621  1.0301
  918MOL0     H26628   4.866  10.948   1.382  2.2464  2.0198 -0.0676
  918MOL0     H26629   5.045  10.898   1.621  0.1598  0.2539 -0.3682
  918MOL0     H26630   4.975  11.043   1.577  0.3184  1.2203 -0.7662
  918MOL0     H26631   5.207  10.879   1.437 -0.0299  0.2708  2.0999
  918MOL0     H26632   5.156  11.025   1.365  0.7839 -2.8741 -1.8698
  918MOL0     H26633   5.302  10.872   1.692  1.7553  0.6209  2.3181
  918MOL0     H26634   5.482  10.931   1.874 -0.4339 -0.0508  0.2315
  918MOL0     H26635   5.516  11.106   1.879 -0.2995 -0.1440  0.8307
  918MOL0     H26636   5.631  10.900   1.715  1.4705 -0.0304 -0.1054
  918MOL0     H26637   5.650  11.066   1.667 -1.4696  0.1173  0.3182
  918MOL0     H26638   5.789  11.118   1.881  1.4730  0.8238 -1.3238
  918MOL0     H26639   5.755  10.955   1.948  1.5403  0.2605 -0.0578
  918MOL0     H26640   5.974  10.963   1.853  0.1365 -2.6908  0.0960
  918MOL0     H26641   5.879  10.845   1.773  0.3784 -1.0866  2.1938
  918MOL0     H26642   6.031  11.152   1.841 -0.0209  1.2336  0.5812
  918MOL0     H26643   6.126  11.441   1.899 -3.2228 -1.0992 -2.8679
  918MOL0     H26644   6.293  11.380   1.855  1.0343 -4.6773 -4.0996
  918MOL0     H26645   6.183  11.281   1.945  0.6187 -0.8281  0.1380
  918MOL0     H26646   6.462  11.608   1.818  0.8805 -3.3898 -1.2614
  918MOL0     H26647   6.583  11.820   1.808  2.5848  0.3759 -0.4999
  918MOL0     H26648   6.826  11.873   1.421  1.4425  3.4740 -3.4105
  918MOL0     H26649   6.720  11.994   1.405 -0.2181  0.1549 -0.4384
  918MOL0     H26650   6.842  12.120   1.599 -2.2844 -0.1752 -0.8627
  918MOL0     H26651   6.976  11.996   1.562  0.2539  0.2841  0.4356
  918MOL0     H26652   7.024  12.204   1.460  0.0668 -0.5742 -0.1573
  918MOL0     H26653   6.852  12.210   1.392 -1.1221 -1.8626  1.6947
  918MOL0     H26654   6.899  12.025   1.247 -1.1976  0.3594  0.4396
  918MOL0     H26655   7.049  11.979   1.322  1.5926  0.8333 -3.4350
  918MOL0     H26656   7.163  12.185   1.240 -0.9407 -0.2253  3.8204
  918MOL0     H26657   7.120  12.055   1.128 -2.8147 -1.1215  0.1497
  918MOL0     H26658   6.982  12.317   1.178  2.3480  0.0135  0.6177
  918MOL0     H26659   6.897  12.197   1.086 -1.1209  1.7867  1.9834
  918MOL0     H26660   7.180  12.268   0.990  0.5213  0.9519  4.6597
  918MOL0     H26661   7.042  12.380   0.976 -1.7593  0.0525  1.5640
  918MOL0     H26662   6.923  12.182   0.861 -1.1261  2.9752 -1.2812
  918MOL0     H26663   7.083  12.099   0.866 -2.3206 -1.6957  0.4116
  918MOL0     H26664   6.651  11.758   1.391 -1.6087 -1.0848 -0.7738
  918MOL0     H26665   6.514  11.558   1.409  0.4717  0.9566 -0.6956
  918MOL0     H26666   6.150  11.303   1.389  0.5297 -2.8759 -0.5441
  918MOL0     H26667   5.997  11.118   1.425  0.2367  0.7708 -1.7970
  918MOL0     H26668   4.061  10.480   1.418  2.3751  0.7285  1.8299
  918MOL0     H26669   3.833  10.559   1.377 -0.1992 -0.4240 -2.6199
  918MOL0     H26670   3.641  11.131   1.216  0.6099  0.3854  1.0107
  918MOL0     H26671   3.426  11.212   1.178 -1.4450  0.6841  2.7594
  918MOL0     H26672   3.069  10.932   1.127  3.3083 -1.6357  1.1431
  918MOL0     H26673   3.064  10.968   1.287  1.5603 -0.1038  0.0805
  918MOL0     H26674   2.942  11.149   1.064  0.6328 -0.1092 -0.4368
  918MOL0     H26675   2.960  11.210   1.235 -0.5312 -0.1597  0.4826
  918MOL0     H26676   2.816  10.950   1.153  1.5294 -1.5069  1.5314
  918MOL0     H26677   2.850  11.007   1.314 -1.8656  1.2003  0.1105
  918MOL0     H26678   2.705  11.213   1.138  1.6583 -1.8493 -2.0563
  918MOL0     H26679   2.733  11.202   1.314 -0.7738 -2.0906  0.4076
  918MOL0     H26680   2.421  10.934   1.272  0.6091 -1.2325  0.7376
  918MOL0     H26681   3.255  10.823   1.272  0.8889 -0.8952 -0.5707
  918MOL0     H26682   3.527  10.653   1.236  1.2076 -1.0961  0.9887
  918MOL0     H26683   3.538  10.708   1.415 -1.6948 -1.5660 -0.1136
  918MOL0     H26684   3.387  10.667   1.349 -0.4453  1.0300  3.2218
  919MOL0     O26685   8.325   6.733   5.980 -0.1279 -0.4864  0.4669
  919MOL0     C26686   8.289   6.815   5.898  0.3863 -0.0436  0.7815
  919MOL0     O26687   8.357   6.930   5.851  0.3482 -0.2528 -0.1663
  919MOL0     C26688   8.490   6.944   5.843  0.0581  0.0244 -1.3984
  919MOL0     C26689   8.527   7.069   5.795  0.6523 -0.9173  0.1801
  919MOL0     C26690   8.663   7.090   5.755 -0.0604  0.6885 -0.1218
  919MOL0     C26691   8.763   6.989   5.777 -0.4844 -0.6146 -0.2296
  919MOL0     O26692   8.896   7.015   5.760 -0.3392  0.6187 -0.4871
  919MOL0     C26693   8.940   7.147   5.752  0.8282 -0.0750 -0.6881
  919MOL0     C26694   9.089   7.158   5.752 -0.4164  0.9917 -0.1016
  919MOL0     C26695   9.125   7.288   5.826 -0.3595  0.3995 -0.7277
  919MOL0     C26696   9.075   7.415   5.761  0.2473  0.5865  0.0091
  919MOL0     C26697   9.101   7.538   5.852 -0.0311 -0.9890  0.0292
  919MOL0     C26698   9.258   7.564   5.854 -0.2600 -0.3131 -0.3083
  919MOL0     C26699   9.282   7.698   5.927 -0.5432 -0.2060  0.3476
  919MOL0     C26700   9.277   7.811   5.826 -0.3062 -0.7531  0.3625
  919MOL0     N26701   9.405   7.837   5.763  0.8132  0.3626  0.3574
  919MOL0     C26702   9.447   7.773   5.648  1.2817 -0.3023  0.2931
  919MOL0     C26703   9.576   7.799   5.634  0.0893 -1.1989  0.1938
  919MOL0     C26704   9.653   7.758   5.511 -0.1772  0.7245 -0.2595
  919MOL0     C26705   9.797   7.743   5.553  0.2238 -0.3458  0.8587
  919MOL0     C26706   9.829   7.616   5.633  0.3939 -0.1420  0.3658
  919MOL0     C26707   9.973   7.614   5.696  0.0917 -0.4316 -0.1927
  919MOL0     O26708  10.030   7.478   5.682  0.8770 -0.0490  0.0798
  919MOL0     C26709  10.162   7.461   5.693 -0.2183 -0.7093  0.2216
  919MOL0     C26710  10.260   7.549   5.649 -0.6925  0.5711 -0.4231
  919MOL0     C26711  10.395   7.536   5.672 -0.2502  0.1741 -0.6097
  919MOL0     C26712  10.479   7.660   5.642  0.7660 -0.8558  1.0698
  919MOL0     C26713  10.442   7.412   5.729  0.3976 -0.0580 -0.2589
  919MOL0     C26714  10.585   7.375   5.757 -0.3360  0.1584 -0.0920
  919MOL0     O26715  10.603   7.261   5.828  0.5675 -0.2550  0.0969
  919MOL0     C26716  10.731   7.237   5.879  0.3240  0.1498 -0.4304
  919MOL0     C26717  10.832   7.193   5.789  1.4403 -0.4709  0.4115
  919MOL0     C26718  10.966   7.172   5.830 -0.2264 -0.4339 -0.4599
  919MOL0     C26719  11.004   7.204   5.957  0.0822  1.1263  0.2082
  919MOL0     O26720  11.136   7.186   5.991  0.2682 -0.1375 -0.2123
  919MOL0     C26721  11.180   7.182   6.130 -0.0187 -0.8803 -0.3070
  919MOL0     C26722  11.328   7.142   6.124  0.0701 -0.6554  0.3726
  919MOL0     C26723  11.394   7.128   6.264 -0.0761  0.0632  0.4051
  919MOL0     C26724  11.522   7.050   6.252  0.6721  0.0724  0.2120
  919MOL0     C26725  11.644   7.119   6.195 -0.9921 -0.1139 -0.5152
  919MOL0     C26726  11.692   7.250   6.267 -0.2716  0.7571  0.2235
  919MOL0     C26727  11.787   7.342   6.184 -0.3190 -0.1308 -0.4540
  919MOL0     C26728  11.815   7.476   6.244 -0.6245 -0.0553  0.3378
  919MOL0    Cl26729  11.661   7.559   6.242  0.2154  0.6739  0.7561
  919MOL0     C26730  10.910   7.252   6.048  0.1216 -0.4978  0.1623
  919MOL0     C26731  10.772   7.264   6.010 -0.3290  0.9516 -0.2811
  919MOL0     O26732  10.680   7.447   5.715  0.2478 -0.0508 -0.5744
  919MOL0     C26733  10.342   7.315   5.767 -0.8056 -0.2170  0.3613
  919MOL0     C26734  10.208   7.345   5.750  0.2644 -0.8862  0.2808
  919MOL0     N26735   9.607   7.880   5.743 -0.2449 -0.3470  0.0892
  919MOL0     N26736   9.507   7.899   5.819 -0.7739  0.5660 -0.3056
  919MOL0     C26737   8.718   6.867   5.822  0.8319  0.3756  0.5510
  919MOL0     C26738   8.582   6.842   5.849  0.2904 -0.6753  0.3747
  919MOL0     C26739   8.161   6.794   5.828  0.9268 -0.6765  0.1235
  919MOL0     C26740   8.121   6.886   5.731 -0.0031  0.3824 -0.2649
  919MOL0     C26741   7.990   6.899   5.683 -0.2865 -0.0051  0.7043
  919MOL0     C26742   7.894   6.808   5.716 -0.1246  0.2327  0.2567
  919MOL0     O26743   7.776   6.816   5.651  0.2283  0.1358  0.5385
  919MOL0     C26744   7.662   6.742   5.704  0.1806 -0.0956 -1.0222
  919MOL0     C26745   7.556   6.814   5.630  0.0151 -0.5258  0.0582
  919MOL0     C26746   7.526   6.963   5.661  0.3363 -0.6379 -0.6444
  919MOL0     C26747   7.466   7.047   5.550 -0.1974 -0.6475  0.3344
  919MOL0     C26748   7.564   7.091   5.450 -0.5411 -1.3977 -0.3826
  919MOL0     C26749   7.659   7.123   5.378  0.5021 -0.4597 -0.2774
  919MOL0     C26750   7.922   6.713   5.815  0.2095 -0.0730  0.0297
  919MOL0     C26751   8.059   6.706   5.873  0.3858  1.1346 -0.4701
  919MOL0     C26752   8.089   6.602   5.974 -0.5265 -0.3462 -0.1065
  919MOL0     H26753   8.456   7.151   5.789  1.9823  0.6529  3.2909
  919MOL0     H26754   8.692   7.186   5.713  0.2489  0.1499 -1.1581
  919MOL0     H26755   8.899   7.199   5.840 -1.2873 -0.9882 -1.0809
  919MOL0     H26756   8.895   7.206   5.672 -3.2739 -0.8114  0.8125
  919MOL0     H26757   9.126   7.082   5.821 -1.5601  1.0465  0.5994
  919MOL0     H26758   9.132   7.142   5.653 -3.3601  0.8755 -1.4383
  919MOL0     H26759   9.085   7.276   5.927 -1.7885  1.1764 -1.1641
  919MOL0     H26760   9.233   7.299   5.835 -0.4325  0.4130  0.2248
  919MOL0     H26761   9.129   7.434   5.668  2.5307  1.2409  1.3781
  919MOL0     H26762   8.968   7.413   5.736 -0.2523 -0.6396  1.9714
  919MOL0     H26763   9.060   7.527   5.953 -1.1426  1.8523 -0.0131
  919MOL0     H26764   9.051   7.624   5.806 -0.8149 -0.7776  1.2371
  919MOL0     H26765   9.305   7.495   5.925  0.2114 -0.0382 -0.3516
  919MOL0     H26766   9.305   7.574   5.755 -0.3745  0.5418 -0.2835
  919MOL0     H26767   9.384   7.710   5.966  0.2902 -1.9373 -1.1295
  919MOL0     H26768   9.205   7.714   6.003 -0.7699 -0.8657  0.2592
  919MOL0     H26769   9.198   7.794   5.752 -0.3359 -1.4683  0.5457
  919MOL0     H26770   9.252   7.910   5.866 -1.8166 -1.3614  1.0121
  919MOL0     H26771   9.383   7.728   5.572  0.2612  0.7853  0.4678
  919MOL0     H26772   9.652   7.842   5.441 -5.1359  0.7275 -0.5363
  919MOL0     H26773   9.610   7.668   5.467 -2.2696  1.1642  0.7412
  919MOL0     H26774   9.855   7.754   5.460 -0.8950 -0.4279  0.1304
  919MOL0     H26775   9.835   7.834   5.600 -0.8552  0.8712 -0.5054
  919MOL0     H26776   9.754   7.616   5.712  0.4793 -0.6168  0.4446
  919MOL0     H26777   9.807   7.529   5.570 -0.8007  0.0088  0.5398
  919MOL0     H26778  10.032   7.686   5.640  3.0690 -2.8965 -0.5013
  919MOL0     H26779   9.971   7.637   5.803 -2.7039 -2.3261  0.2816
  919MOL0     H26780  10.227   7.634   5.589 -2.9411  0.2960  0.3228
  919MOL0     H26781  10.486   7.720   5.733 -0.9614 -3.7832  3.3070
  919MOL0     H26782  10.430   7.727   5.571  2.4230  1.5024  2.0504
  919MOL0     H26783  10.582   7.636   5.616 -0.1727 -1.8421 -2.2954
  919MOL0     H26784  10.797   7.173   5.688  1.3784 -2.4860  0.7878
  919MOL0     H26785  11.042   7.135   5.762  1.2791  0.8660  0.4449
  919MOL0     H26786  11.169   7.284   6.166  0.3678  0.1445 -2.8505
  919MOL0     H26787  11.130   7.111   6.196 -0.2813 -0.9131 -0.5390
  919MOL0     H26788  11.331   7.051   6.064 -0.4719 -1.3804  1.4189
  919MOL0     H26789  11.378   7.217   6.062 -1.1132 -1.1530 -1.2448
  919MOL0     H26790  11.330   7.062   6.324 -1.1440  1.0676  0.3921
  919MOL0     H26791  11.393   7.224   6.316 -0.5581 -0.1050  0.7128
  919MOL0     H26792  11.506   6.957   6.196 -1.2196  1.1735 -1.1675
  919MOL0     H26793  11.546   7.023   6.355  0.3684 -0.6648  0.0950
  919MOL0     H26794  11.727   7.048   6.200 -1.9153 -1.2658 -1.1471
  919MOL0     H26795  11.619   7.134   6.090  0.6616 -0.7630 -1.0451
  919MOL0     H26796  11.730   7.220   6.365 -0.0507 -1.2759 -0.4326
  919MOL0     H26797  11.600   7.304   6.290 -2.0241 -1.3287 -1.4851
  919MOL0     H26798  11.743   7.349   6.085  0.8387  2.0979 -0.8869
  919MOL0     H26799  11.883   7.290   6.173  0.1054  0.7009 -0.8168
  919MOL0     H26800  11.894   7.528   6.187 -3.1633  2.1618 -1.4446
  919MOL0     H26801  11.845   7.466   6.348  1.5316  0.6430 -0.1573
  919MOL0     H26802  10.936   7.275   6.151 -0.6767 -2.4992  0.8796
  919MOL0     H26803  10.703   7.304   6.084 -1.4983  1.0222 -1.3759
  919MOL0     H26804  10.379   7.221   5.807  1.6395 -0.8768 -2.9755
  919MOL0     H26805  10.124   7.283   5.780 -0.0851 -1.4591 -1.7223
  919MOL0     H26806   8.793   6.793   5.847 -1.8737 -2.3440  1.1769
  919MOL0     H26807   8.556   6.741   5.877 -4.6873  0.2319 -0.0742
  919MOL0     H26808   8.199   6.948   5.686  0.0852  1.0670  0.7911
  919MOL0     H26809   7.966   6.979   5.613 -0.8369  0.2906  1.2245
  919MOL0     H26810   7.664   6.639   5.668 -1.1411  0.8756 -4.1446
  919MOL0     H26811   7.657   6.762   5.812  0.2006  1.6576 -1.3165
  919MOL0     H26812   7.465   6.762   5.662 -1.7348  1.7220 -0.9714
  919MOL0     H26813   7.575   6.809   5.522  3.4792  1.6791  0.4285
  919MOL0     H26814   7.452   6.971   5.741 -1.6711  1.1547 -2.5251
  919MOL0     H26815   7.613   7.016   5.701  0.8279 -1.0067 -1.1978
  919MOL0     H26816   7.411   7.138   5.578  1.0682  0.7826 -1.6074
  919MOL0     H26817   7.400   6.976   5.500  2.3405 -1.8070 -1.5829
  919MOL0     H26818   7.737   7.150   5.309  0.5044 -1.3094 -0.6165
  919MOL0     H26819   7.850   6.636   5.843 -0.8100  1.6888  2.6235
  919MOL0     H26820   8.008   6.529   5.967  0.2429 -1.3917  1.2929
  919MOL0     H26821   8.174   6.534   5.965 -0.9356 -0.8957  0.1154
  919MOL0     H26822   8.100   6.636   6.078 -0.0840 -1.2952  0.1665
  920MOL0     O26823   5.502   0.560   9.359 -0.1418  0.7098 -0.0699
  920MOL0     C26824   5.600   0.493   9.402 -0.7439 -0.0678 -0.0815
  920MOL0     O26825   5.701   0.546   9.485 -0.3649  0.3215 -0.4600
  920MOL0     C26826   5.693   0.681   9.507  0.4265  0.1615  0.0869
  920MOL0     C26827   5.777   0.776   9.446  0.4412  0.7675  0.0143
  920MOL0     C26828   5.773   0.914   9.469 -0.5209  0.1771  0.7824
  920MOL0     C26829   5.676   0.964   9.555  0.6935 -0.0599  0.3556
  920MOL0     O26830   5.673   1.100   9.558 -0.0784 -0.7971  0.5456
  920MOL0     C26831   5.543   1.156   9.557 -0.0072  0.5117  0.1278
  920MOL0     C26832   5.545   1.298   9.530 -0.2434  0.2368  0.5067
  920MOL0     C26833   5.597   1.324   9.385 -0.2279 -0.0503 -0.3713
  920MOL0     C26834   5.665   1.456   9.361  0.8227 -0.0871  0.3928
  920MOL0     C26835   5.734   1.447   9.228 -0.7298 -0.0459  0.4326
  920MOL0     C26836   5.782   1.586   9.175 -0.5197  0.4637 -0.8333
  920MOL0     C26837   5.859   1.575   9.040 -1.1078  0.4531  0.2829
  920MOL0     C26838   5.920   1.709   8.987  0.2509  1.7365 -0.2787
  920MOL0     N26839   6.056   1.723   9.043  0.1103  0.0630  0.4576
  920MOL0     C26840   6.090   1.729   9.175 -0.2920 -0.1902 -0.3684
  920MOL0     C26841   6.225   1.719   9.176  0.0332 -1.1921 -0.5830
  920MOL0     C26842   6.300   1.721   9.306 -0.1330  0.0384 -0.1718
  920MOL0     C26843   6.333   1.577   9.346 -0.5498 -0.8360  0.0390
  920MOL0     C26844   6.213   1.513   9.428 -0.3836  0.6790  0.2643
  920MOL0     C26845   6.242   1.364   9.458  0.2608 -0.9214 -0.6004
  920MOL0     O26846   6.370   1.357   9.522  0.7083  0.2278  0.5339
  920MOL0     C26847   6.411   1.240   9.563  0.1083  0.5331  0.0559
  920MOL0     C26848   6.546   1.235   9.602  0.0266 -0.7352  0.3483
  920MOL0     C26849   6.606   1.124   9.661 -0.4248 -0.3060  0.4330
  920MOL0     C26850   6.756   1.145   9.691 -0.4634  0.5884 -0.0509
  920MOL0     C26851   6.525   1.008   9.675  0.1529  0.2555 -1.4921
  920MOL0     C26852   6.576   0.879   9.728 -0.5695 -0.1929 -0.7280
  920MOL0     O26853   6.692   0.870   9.790 -0.2033  0.3527  0.0180
  920MOL0     C26854   6.765   0.757   9.831 -0.1154  0.2162  0.4847
  920MOL0     C26855   6.770   0.634   9.764  0.3047  0.1796  0.1370
  920MOL0     C26856   6.854   0.529   9.801 -0.2884  0.5597 -1.2394
  920MOL0     C26857   6.940   0.541   9.915 -0.0570  0.8988  0.5219
  920MOL0     O26858   7.015   0.445   9.967 -0.6262  0.1471  0.4305
  920MOL0     C26859   6.993   0.318   9.917 -0.3692 -0.2108  0.1115
  920MOL0     C26860   7.052   0.216  10.013  0.5737  0.2035 -0.1714
  920MOL0     C26861   6.979   0.241  10.144 -0.3585  0.1102  0.0762
  920MOL0     C26862   7.003   0.119  10.237 -0.7638 -0.3720  0.1622
  920MOL0     C26863   6.922   0.118  10.370  0.7924  0.6619  1.0828
  920MOL0     C26864   6.910  -0.025  10.431  0.5717  0.0791  0.7120
  920MOL0     C26865   6.841  -0.022  10.568  0.1695 -0.5602 -0.0959
  920MOL0     C26866   6.922  -0.120  10.662  0.0590  0.0303 -0.6227
  920MOL0    Cl26867   7.097  -0.083  10.694 -0.2665  0.1011 -0.5528
  920MOL0     C26868   6.936   0.663   9.980  0.1270 -0.3011 -1.0636
  920MOL0     C26869   6.855   0.774   9.935  0.1940  0.4353 -0.5216
  920MOL0     O26870   6.504   0.779   9.708 -0.7603  0.4342 -0.5882
  920MOL0     C26871   6.387   1.013   9.643  0.3600  0.1579 -0.2526
  920MOL0     C26872   6.326   1.129   9.591 -0.5257 -0.4888 -0.2268
  920MOL0     N26873   6.271   1.693   9.046  0.4283  0.1808 -0.3274
  920MOL0     N26874   6.162   1.697   8.970  0.6972  0.5290  0.2445
  920MOL0     C26875   5.607   0.868   9.636 -0.0637  0.1447 -0.8911
  920MOL0     C26876   5.614   0.732   9.612 -0.3569  0.6987 -0.3711
  920MOL0     C26877   5.614   0.350   9.361 -0.3550 -0.1354 -0.4327
  920MOL0     C26878   5.740   0.290   9.390  0.9585  0.1736 -0.2116
  920MOL0     C26879   5.765   0.157   9.360 -0.0260  0.1894 -0.7588
  920MOL0     C26880   5.669   0.075   9.303 -0.0776 -1.5785 -1.0922
  920MOL0     O26881   5.722  -0.052   9.280  0.3356 -0.1198 -0.2114
  920MOL0     C26882   5.646  -0.152   9.210  0.1273 -0.9035 -0.6921
  920MOL0     C26883   5.727  -0.280   9.206  0.0465 -0.5168 -0.0203
  920MOL0     C26884   5.872  -0.257   9.171 -0.2831  0.7433  0.0218
  920MOL0     C26885   5.941  -0.377   9.110  0.7835  0.1952  0.1078
  920MOL0     C26886   6.080  -0.343   9.100 -0.2679 -0.1455  0.3659
  920MOL0     C26887   6.200  -0.308   9.086 -0.4493  0.3830  0.4241
  920MOL0     C26888   5.544   0.131   9.270  0.2448 -0.4823  0.4818
  920MOL0     C26889   5.509   0.264   9.306 -0.6056  0.1119 -0.6486
  920MOL0     C26890   5.371   0.306   9.283 -0.3327 -0.3792  0.0361
  920MOL0     H26891   5.843   0.734   9.370  0.1541 -1.9880  1.1625
  920MOL0     H26892   5.830   0.985   9.409  1.7922 -0.0711  2.5456
  920MOL0     H26893   5.499   1.127   9.654 -0.0810 -4.2062 -1.0491
  920MOL0     H26894   5.480   1.105   9.483 -0.0996  2.6748 -1.3713
  920MOL0     H26895   5.442   1.331   9.550 -1.2171 -0.2402 -3.0958
  920MOL0     H26896   5.615   1.340   9.603 -0.3861 -0.8543  1.2989
  920MOL0     H26897   5.661   1.236   9.377  0.3257  0.2613  0.5051
  920MOL0     H26898   5.512   1.314   9.317  1.1305  3.1832 -2.7954
  920MOL0     H26899   5.590   1.535   9.351  1.3302  0.1815 -1.5342
  920MOL0     H26900   5.730   1.469   9.448  0.2384  2.3929  0.5316
  920MOL0     H26901   5.675   1.389   9.157  0.4700 -2.5376  1.3433
  920MOL0     H26902   5.828   1.395   9.247  0.3816  1.4821 -0.6488
  920MOL0     H26903   5.696   1.653   9.162  0.1980  1.3314 -1.2062
  920MOL0     H26904   5.847   1.625   9.254 -1.0338 -0.3000 -0.0078
  920MOL0     H26905   5.790   1.531   8.967  0.9526 -1.8228 -0.4731
  920MOL0     H26906   5.940   1.501   9.052 -1.6203  0.3102  4.2038
  920MOL0     H26907   5.925   1.694   8.879 -2.4208 -1.1976 -0.1451
  920MOL0     H26908   5.853   1.792   9.012 -2.0521 -0.1694  0.2509
  920MOL0     H26909   6.032   1.752   9.264  0.1900  2.4210 -0.6519
  920MOL0     H26910   6.259   1.762   9.398  2.0157 -2.5043  2.1125
  920MOL0     H26911   6.394   1.772   9.282 -0.5566  0.0623 -1.9587
  920MOL0     H26912   6.346   1.520   9.254 -1.1642  1.6255 -1.6876
  920MOL0     H26913   6.431   1.579   9.396 -0.0620  0.0986 -0.8899
  920MOL0     H26914   6.193   1.565   9.522 -0.8927 -0.4971  0.8228
  920MOL0     H26915   6.121   1.523   9.368 -0.2753  2.7775  0.3832
  920MOL0     H26916   6.170   1.334   9.534 -1.0242  1.9277 -0.5290
  920MOL0     H26917   6.247   1.306   9.366  2.6989  1.4739 -2.1558
  920MOL0     H26918   6.599   1.325   9.573 -0.2707 -1.3460 -2.3624
  920MOL0     H26919   6.784   1.087   9.779  1.0465 -0.4953 -1.1793
  920MOL0     H26920   6.779   1.251   9.697  0.3816  0.4780 -1.0373
  920MOL0     H26921   6.821   1.105   9.612 -0.5293 -1.5120  0.8853
  920MOL0     H26922   6.699   0.607   9.687 -0.8753  1.2567  0.8092
  920MOL0     H26923   6.856   0.434   9.748  2.7981 -0.5284  0.5548
  920MOL0     H26924   6.887   0.298   9.902 -0.2523  0.8065 -2.7128
  920MOL0     H26925   7.042   0.298   9.821  0.4651 -0.0935  0.5054
  920MOL0     H26926   7.028   0.117   9.974  0.8120  1.1121 -2.8875
  920MOL0     H26927   7.161   0.227  10.012  0.7594 -1.1959 -2.3297
  920MOL0     H26928   6.871   0.251  10.127 -0.3196 -0.9870 -0.9719
  920MOL0     H26929   7.019   0.332  10.190 -0.6894 -0.3417  1.2886
  920MOL0     H26930   7.107   0.130  10.269 -0.6720  2.2953 -0.8155
  920MOL0     H26931   6.973   0.026  10.187 -1.6689 -0.6302  1.1656
  920MOL0     H26932   6.966   0.190  10.438  0.9627 -2.1783  4.2568
  920MOL0     H26933   6.824   0.166  10.369 -0.1572 -1.1191  2.3070
  920MOL0     H26934   7.006  -0.078  10.426 -0.5536 -2.6574  4.1352
  920MOL0     H26935   6.843  -0.079  10.363  0.3201  0.4730  0.6414
  920MOL0     H26936   6.740  -0.064  10.563  0.2852 -0.7903 -0.5443
  920MOL0     H26937   6.851   0.081  10.605 -1.1261 -0.5621  0.2890
  920MOL0     H26938   6.912  -0.220  10.621  2.8276  0.2308 -1.9656
  920MOL0     H26939   6.866  -0.131  10.756  0.0867 -1.0228 -0.7186
  920MOL0     H26940   7.001   0.686  10.064 -3.3184  0.5702  1.5974
  920MOL0     H26941   6.883   0.873   9.970 -4.9345  1.5744  1.1046
  920MOL0     H26942   6.324   0.926   9.658  1.0669 -0.0539  1.9399
  920MOL0     H26943   6.221   1.128   9.564 -0.3306 -1.0502 -1.0215
  920MOL0     H26944   5.538   0.902   9.712 -0.7734 -0.9737 -1.0142
  920MOL0     H26945   5.553   0.663   9.670  0.7059 -1.0670 -1.2846
  920MOL0     H26946   5.817   0.352   9.435 -1.6375  3.5189  0.1094
  920MOL0     H26947   5.864   0.112   9.367 -0.7836 -1.8113 -1.9099
  920MOL0     H26948   5.557  -0.180   9.266 -0.5210 -2.9897 -2.6500
  920MOL0     H26949   5.627  -0.118   9.108 -2.7843  0.2944  0.1601
  920MOL0     H26950   5.673  -0.363   9.158 -1.5216 -1.1725  2.6469
  920MOL0     H26951   5.724  -0.299   9.314  1.6999 -0.9107 -0.0185
  920MOL0     H26952   5.872  -0.167   9.109 -1.9907  1.8811  1.5691
  920MOL0     H26953   5.921  -0.236   9.266 -0.6924 -1.7049  0.8445
  920MOL0     H26954   5.895  -0.411   9.017 -1.4014  1.7324  0.5526
  920MOL0     H26955   5.934  -0.457   9.185 -1.0119  1.0697  0.9279
  920MOL0     H26956   6.303  -0.287   9.068 -0.2689 -1.2398 -0.6808
  920MOL0     H26957   5.479   0.053   9.231  3.4585 -2.5415 -1.1059
  920MOL0     H26958   5.327   0.364   9.365 -0.3545  1.9130 -1.5216
  920MOL0     H26959   5.368   0.370   9.195  1.1274  1.5234  1.3014
  920MOL0     H26960   5.311   0.214   9.277  0.4458 -1.3727  4.3377
  921MOL0     O26961   8.390   7.983  10.457  0.3703  0.3271 -0.4144
  921MOL0     C26962   8.267   7.984  10.444 -0.6706  1.3460 -0.9919
  921MOL0     O26963   8.190   8.089  10.483  0.2633  0.3899 -0.2794
  921MOL0     C26964   8.242   8.213  10.510  0.5799 -1.0735  0.7171
  921MOL0     C26965   8.273   8.258  10.633  0.4017 -0.3648  0.3902
  921MOL0     C26966   8.325   8.382  10.662 -0.1946 -0.5194 -0.6591
  921MOL0     C26967   8.360   8.468  10.559  0.1353  0.7047 -0.7085
  921MOL0     O26968   8.440   8.578  10.563 -0.0645 -1.2370 -0.3184
  921MOL0     C26969   8.491   8.620  10.698  0.0981 -0.6960 -0.1666
  921MOL0     C26970   8.555   8.746  10.669 -0.3798 -0.3620 -0.6803
  921MOL0     C26971   8.606   8.809  10.806  0.9438  0.1727  0.3040
  921MOL0     C26972   8.674   8.948  10.781  0.1441  0.4807  0.0050
  921MOL0     C26973   8.702   9.025  10.903  0.1957  1.0209 -1.2132
  921MOL0     C26974   8.792   8.949  11.007  0.1995 -0.6916 -0.0824
  921MOL0     C26975   8.925   8.910  10.947 -0.5886 -0.6851  0.1714
  921MOL0     C26976   9.031   8.895  11.060  0.6724 -0.1134 -0.2884
  921MOL0     N26977   9.147   8.798  11.035  0.9569 -0.7785  0.3425
  921MOL0     C26978   9.235   8.826  10.935 -0.2409 -0.4889 -0.0273
  921MOL0     C26979   9.324   8.725  10.966  0.6970 -0.2584 -0.2955
  921MOL0     C26980   9.455   8.703  10.905 -0.6148  0.1319  0.4693
  921MOL0     C26981   9.574   8.705  11.002  0.3260  0.8038  0.0558
  921MOL0     C26982   9.579   8.844  11.069 -0.1687 -0.3426 -0.2373
  921MOL0     C26983   9.706   8.841  11.161  0.3382  0.0150  0.6097
  921MOL0     O26984   9.827   8.821  11.077 -0.0952 -0.1762 -0.2390
  921MOL0     C26985   9.942   8.888  11.111  0.7231 -1.0837  0.5067
  921MOL0     C26986   9.983   8.925  11.234  0.4823  0.0046 -0.2580
  921MOL0     C26987  10.111   8.974  11.261  0.5487  0.1431 -0.1101
  921MOL0     C26988  10.134   9.006  11.408  0.0451  0.0794  0.6654
  921MOL0     C26989  10.204   8.996  11.157  0.5408  0.0818  0.5615
  921MOL0     C26990  10.339   9.069  11.172  0.1023  1.2499  0.1729
  921MOL0     O26991  10.436   9.051  11.064 -0.1237  0.5249 -0.1352
  921MOL0     C26992  10.556   9.110  11.082 -0.3987 -0.2292  0.1236
  921MOL0     C26993  10.637   9.063  11.200 -0.0372 -0.1879 -0.4670
  921MOL0     C26994  10.764   9.125  11.220 -0.4479 -0.4891 -0.4100
  921MOL0     C26995  10.820   9.214  11.126 -0.9628  0.4637  0.3417
  921MOL0     O26996  10.943   9.273  11.141  0.2635 -0.0893  0.2556
  921MOL0     C26997  10.985   9.296  11.274 -0.2011  0.7382  0.0199
  921MOL0     C26998  11.120   9.379  11.277  0.5253 -0.4036 -0.2958
  921MOL0     C26999  11.140   9.472  11.402 -0.2013  0.1667  0.5132
  921MOL0     C27000  11.144   9.617  11.361  0.6681 -0.1020  0.4164
  921MOL0     C27001  11.158   9.702  11.481  0.1556 -1.4638 -0.4816
  921MOL0     C27002  11.199   9.839  11.436  0.6073  0.3425 -0.0516
  921MOL0     C27003  11.253   9.923  11.554  0.3027  0.0251 -0.2468
  921MOL0     C27004  11.348  10.032  11.496  0.3394  0.6279  0.1306
  921MOL0    Cl27005  11.505   9.973  11.418 -0.4288  0.0222  0.2441
  921MOL0     C27006  10.750   9.245  11.009  0.5965 -0.9695  0.5540
  921MOL0     C27007  10.618   9.198  10.985 -0.4226 -0.0485 -0.9803
  921MOL0     O27008  10.369   9.122  11.279  0.0987  0.5953  0.0294
  921MOL0     C27009  10.157   8.949  11.028 -0.2475  0.2529  0.2415
  921MOL0     C27010  10.029   8.906  11.006 -0.1595  1.1810  1.3074
  921MOL0     N27011   9.276   8.649  11.067 -0.0749 -0.1768 -0.0838
  921MOL0     N27012   9.170   8.691  11.111 -0.0898 -0.3245  0.2931
  921MOL0     C27013   8.321   8.434  10.427 -0.5144  0.7333  0.3191
  921MOL0     C27014   8.276   8.305  10.399  0.0534  0.0074  0.9245
  921MOL0     C27015   8.189   7.874  10.373 -0.0051 -0.1565  0.1434
  921MOL0     C27016   8.048   7.881  10.369 -0.0450 -0.3843  0.4430
  921MOL0     C27017   7.977   7.777  10.300 -0.4698 -0.0144 -0.7263
  921MOL0     C27018   8.040   7.676  10.238 -0.5931 -0.0138 -0.3162
  921MOL0     O27019   7.975   7.577  10.174 -0.2407  0.0667  0.4559
  921MOL0     C27020   7.951   7.613  10.040  0.1227 -0.0618 -0.8123
  921MOL0     C27021   7.999   7.504   9.940  0.8197 -0.2986 -0.4685
  921MOL0     C27022   7.892   7.386   9.924 -0.2030 -0.5842 -0.0874
  921MOL0     C27023   7.945   7.279   9.837 -0.4977 -0.4510 -0.2612
  921MOL0     C27024   7.853   7.169   9.824  0.8595 -0.2618 -0.3352
  921MOL0     C27025   7.786   7.075   9.789 -0.6183  1.5437 -0.7266
  921MOL0     C27026   8.181   7.667  10.250 -0.1274 -0.5849  0.0569
  921MOL0     C27027   8.256   7.752  10.322 -0.3397 -0.0053 -0.5620
  921MOL0     C27028   8.403   7.715  10.323 -0.2109  0.7329 -0.4765
  921MOL0     H27029   8.281   8.190  10.717  2.9816  0.4701  0.8872
  921MOL0     H27030   8.350   8.403  10.765  4.1431 -0.3731 -1.5544
  921MOL0     H27031   8.563   8.550  10.741  0.4183  0.4236  1.1866
  921MOL0     H27032   8.409   8.642  10.766  0.5007  0.3267 -0.0027
  921MOL0     H27033   8.643   8.729  10.606  0.4686  0.9485  0.1194
  921MOL0     H27034   8.476   8.802  10.619 -0.4345 -1.1357 -1.4906
  921MOL0     H27035   8.522   8.818  10.876  1.9636  0.2590  1.5439
  921MOL0     H27036   8.685   8.744  10.845  0.8231 -0.5916 -0.6756
  921MOL0     H27037   8.766   8.930  10.726 -0.3073  1.0009 -0.9539
  921MOL0     H27038   8.619   9.017  10.716  0.6931  0.4021 -0.5490
  921MOL0     H27039   8.607   9.059  10.945  1.5679  1.0027  2.1696
  921MOL0     H27040   8.750   9.119  10.872 -0.1481  1.6981  0.2421
  921MOL0     H27041   8.797   9.019  11.091 -1.7771  0.4846 -0.8756
  921MOL0     H27042   8.747   8.856  11.044 -0.7146 -0.3333 -0.2757
  921MOL0     H27043   8.964   8.989  10.882  0.5887 -0.2556  1.3618
  921MOL0     H27044   8.911   8.823  10.881  1.0502 -2.1037  1.5893
  921MOL0     H27045   9.059   8.998  11.080 -0.4742  0.1914 -0.1927
  921MOL0     H27046   8.985   8.862  11.154  3.7529  0.2078  1.4726
  921MOL0     H27047   9.239   8.911  10.868  1.4522  0.5180  1.2640
  921MOL0     H27048   9.487   8.754  10.813  3.8339 -0.3368  1.5408
  921MOL0     H27049   9.449   8.600  10.871  0.4475  0.6586 -1.4801
  921MOL0     H27050   9.580   8.626  11.077  1.0635  2.0926  1.4150
  921MOL0     H27051   9.666   8.692  10.943 -0.9061  0.1916 -1.8049
  921MOL0     H27052   9.583   8.926  10.998  2.1692  3.2087  3.5501
  921MOL0     H27053   9.487   8.862  11.125 -2.2444 -1.7678 -2.9368
  921MOL0     H27054   9.723   8.936  11.214 -0.6567 -0.0796  1.1108
  921MOL0     H27055   9.701   8.753  11.226  0.0453 -1.7587 -1.6849
  921MOL0     H27056   9.915   8.902  11.315  1.9896  0.0699  1.0870
  921MOL0     H27057  10.040   9.030  11.460 -0.9131  0.6415 -1.2438
  921MOL0     H27058  10.188   9.100  11.426  1.7344 -0.9580  1.1909
  921MOL0     H27059  10.197   8.929  11.453 -2.3714 -1.1858  2.0694
  921MOL0     H27060  10.591   8.990  11.266 -2.2365  0.7419 -0.8745
  921MOL0     H27061  10.818   9.102  11.312 -0.6893 -0.5214 -0.2781
  921MOL0     H27062  10.906   9.341  11.335 -0.4839  1.5920 -0.9630
  921MOL0     H27063  11.015   9.201  11.320  2.1595  0.3128 -2.1490
  921MOL0     H27064  11.200   9.305  11.272  1.6748  0.8205 -0.5976
  921MOL0     H27065  11.107   9.443  11.189  0.2207 -3.0195 -2.2836
  921MOL0     H27066  11.234   9.450  11.453  1.3847 -0.5205 -2.4522
  921MOL0     H27067  11.055   9.460  11.470 -0.1773  0.5847  0.6235
  921MOL0     H27068  11.054   9.647  11.308 -0.0020  0.2087  1.7132
  921MOL0     H27069  11.229   9.636  11.294 -1.0358  3.0664 -1.0475
  921MOL0     H27070  11.062   9.723  11.530  1.1046  2.6379 -0.0287
  921MOL0     H27071  11.218   9.658  11.561  0.5580 -1.5045 -0.8013
  921MOL0     H27072  11.110   9.878  11.386  0.3791 -0.2761 -0.1434
  921MOL0     H27073  11.285   9.829  11.369  0.9907  3.9045 -0.2424
  921MOL0     H27074  11.306   9.864  11.630 -3.1521 -2.0957  0.7394
  921MOL0     H27075  11.174   9.976  11.609  1.0950 -1.2289  2.2653
  921MOL0     H27076  11.370  10.086  11.589  1.2390 -2.4696  1.8762
  921MOL0     H27077  11.308  10.109  11.431 -1.2051 -0.5615 -0.3698
  921MOL0     H27078  10.792   9.326  10.951  0.5921  0.7660  2.8155
  921MOL0     H27079  10.566   9.234  10.896  0.4745  0.7765 -1.1826
  921MOL0     H27080  10.215   8.937  10.937 -0.1929  0.2886  0.2709
  921MOL0     H27081  10.006   8.878  10.904  1.0103  4.0147  0.1576
  921MOL0     H27082   8.345   8.497  10.342  0.5477 -0.7143 -0.4991
  921MOL0     H27083   8.256   8.280  10.295  2.3657  1.1472  0.1284
  921MOL0     H27084   7.983   7.955  10.416 -0.5533 -1.1486  0.9517
  921MOL0     H27085   7.869   7.767  10.293 -0.4709 -1.7913  0.9938
  921MOL0     H27086   7.843   7.623  10.028 -0.3238 -3.0225  0.0241
  921MOL0     H27087   7.997   7.710  10.019 -0.6738  0.1736 -1.4953
  921MOL0     H27088   8.098   7.473   9.974  0.6910  1.7688  2.1736
  921MOL0     H27089   8.010   7.548   9.840  0.7150  1.0072  0.0676
  921MOL0     H27090   7.866   7.357  10.026  3.0242 -1.9151  0.5063
  921MOL0     H27091   7.802   7.427   9.877  0.0716 -1.3840 -1.3789
  921MOL0     H27092   8.042   7.253   9.878  0.0394  2.7395  0.7877
  921MOL0     H27093   7.962   7.324   9.739  2.8599  0.0538  0.4398
  921MOL0     H27094   7.720   6.995   9.761  1.1530 -0.3797  0.3636
  921MOL0     H27095   8.211   7.571  10.207  2.4872  0.6604 -1.0788
  921MOL0     H27096   8.450   7.737  10.227  0.5631  0.2323 -0.2152
  921MOL0     H27097   8.463   7.762  10.402 -2.3349  0.4136  1.4303
  921MOL0     H27098   8.417   7.611  10.353 -0.1801  1.0583  0.6938
  922MOL0     O27099   1.391   3.230   9.513  0.4035 -0.3255  1.6367
  922MOL0     C27100   1.404   3.155   9.605 -0.7919 -0.8636 -0.0804
  922MOL0     O27101   1.329   3.042   9.637  0.1227  0.1098  0.5092
  922MOL0     C27102   1.208   3.033   9.574 -0.0529  0.0946  0.0627
  922MOL0     C27103   1.189   3.013   9.433 -0.7048 -0.7235 -0.8046
  922MOL0     C27104   1.061   3.039   9.381 -0.7106  0.0246 -0.1747
  922MOL0     C27105   0.947   3.050   9.466 -0.5327  0.2605  0.5734
  922MOL0     O27106   0.829   3.060   9.413 -0.1680  0.3302 -0.0744
  922MOL0     C27107   0.723   3.136   9.481  0.7586  0.8276  0.2475
  922MOL0     C27108   0.610   3.171   9.381 -0.9433 -0.6251  0.1896
  922MOL0     C27109   0.507   3.266   9.431  0.3875 -0.6951  0.2245
  922MOL0     C27110   0.417   3.216   9.556  0.2068  0.6744 -0.7634
  922MOL0     C27111   0.313   3.322   9.606 -0.1029  0.0822 -0.4149
  922MOL0     C27112   0.359   3.438   9.688  0.0001  0.2235 -0.5103
  922MOL0     C27113   0.431   3.386   9.801 -0.2896  0.6527  0.2857
  922MOL0     C27114   0.478   3.491   9.914  0.3071  0.7544  0.9370
  922MOL0     N27115   0.380   3.562   9.997 -0.6063 -0.4611 -0.3815
  922MOL0     C27116   0.333   3.691   9.980 -0.7388 -0.5652 -0.0402
  922MOL0     C27117   0.243   3.723  10.081  0.0141 -0.2350  0.5003
  922MOL0     C27118   0.163   3.850  10.106 -1.0054 -0.4238  0.9647
  922MOL0     C27119   0.109   3.924   9.980 -0.5676  0.2255 -0.5947
  922MOL0     C27120   0.179   4.052   9.929  0.4681 -0.8251  0.1973
  922MOL0     C27121   0.324   4.041   9.873 -0.7302  0.3638 -0.2700
  922MOL0     O27122   0.328   3.942   9.765 -0.5578 -0.1084 -0.3821
  922MOL0     C27123   0.442   3.919   9.710  0.0943  0.5323 -0.2347
  922MOL0     C27124   0.565   3.984   9.735 -0.3598  1.7386 -0.0125
  922MOL0     C27125   0.683   3.943   9.657  0.4762 -1.4227  0.5951
  922MOL0     C27126   0.811   4.023   9.696  0.2996  0.1253  0.0296
  922MOL0     C27127   0.674   3.848   9.552  0.1302 -0.1916  1.0990
  922MOL0     C27128   0.782   3.813   9.458  0.0941  0.7188  0.5022
  922MOL0     O27129   0.751   3.730   9.359  0.5267  0.4348  0.4653
  922MOL0     C27130   0.857   3.666   9.308  0.3058 -0.1507 -1.1331
  922MOL0     C27131   0.882   3.530   9.347 -0.4768  0.4142  0.0444
  922MOL0     C27132   0.988   3.460   9.286 -0.2176  0.5800 -0.7238
  922MOL0     C27133   1.064   3.520   9.183 -0.5411 -0.2342 -0.3298
  922MOL0     O27134   1.151   3.453   9.113  0.1826 -0.6308  0.9235
  922MOL0     C27135   1.214   3.339   9.158 -0.0892  0.5111 -0.6751
  922MOL0     C27136   1.345   3.288   9.084  1.2530 -0.1392 -0.3463
  922MOL0     C27137   1.463   3.379   9.113 -0.3037 -0.9777 -0.3079
  922MOL0     C27138   1.595   3.301   9.123 -0.9396  0.3865 -0.9203
  922MOL0     C27139   1.722   3.392   9.160  0.5624  0.1735  0.5701
  922MOL0     C27140   1.775   3.370   9.301 -0.3724  0.5418  0.3996
  922MOL0     C27141   1.878   3.477   9.338 -0.2777  0.4537 -0.0943
  922MOL0     C27142   1.959   3.434   9.462  0.1359  0.1575  0.5761
  922MOL0    Cl27143   2.090   3.539   9.524  0.2595 -0.1267 -0.1147
  922MOL0     C27144   1.038   3.646   9.146  0.2798 -0.6269  0.3745
  922MOL0     C27145   0.945   3.723   9.211  0.3741  0.1268 -0.1070
  922MOL0     O27146   0.897   3.846   9.494  0.5482 -0.7036 -0.1102
  922MOL0     C27147   0.546   3.796   9.524 -0.0371  0.0692  0.3039
  922MOL0     C27148   0.434   3.827   9.606 -0.1146 -0.1975  0.9880
  922MOL0     N27149   0.233   3.606  10.152  0.9730 -0.0365  0.3658
  922MOL0     N27150   0.305   3.510  10.104 -0.7767 -0.0749 -1.0094
  922MOL0     C27151   0.968   3.052   9.610  0.4753 -0.5518  0.0979
  922MOL0     C27152   1.099   3.049   9.661 -0.6858  0.4764 -0.4329
  922MOL0     C27153   1.532   3.165   9.679  0.6993 -0.1578  0.2298
  922MOL0     C27154   1.607   3.052   9.730 -0.1133 -0.8967 -0.0368
  922MOL0     C27155   1.711   3.075   9.822  0.6624  0.4302  0.2748
  922MOL0     C27156   1.762   3.200   9.856  0.4249 -0.3374  0.2430
  922MOL0     O27157   1.864   3.209   9.945  0.1045  0.0763  0.8410
  922MOL0     C27158   1.921   3.342   9.975  0.1688 -0.2697 -0.0619
  922MOL0     C27159   2.071   3.343   9.966  1.0974  0.0550  0.1452
  922MOL0     C27160   2.122   3.292   9.835  0.8361 -0.6961  0.5399
  922MOL0     C27161   2.274   3.333   9.815  0.5531  0.6525 -0.6652
  922MOL0     C27162   2.338   3.248   9.720 -0.0760  0.3662  0.1539
  922MOL0     C27163   2.386   3.167   9.644  0.9803  0.4598  0.0981
  922MOL0     C27164   1.695   3.308   9.792  0.0898 -0.3638 -0.0058
  922MOL0     C27165   1.584   3.296   9.700  0.3018 -0.5731 -0.6369
  922MOL0     C27166   1.535   3.428   9.642 -0.3055  0.2498  0.7285
  922MOL0     H27167   1.273   3.023   9.364  0.7391  2.6941  1.1792
  922MOL0     H27168   1.042   3.040   9.274 -0.1283 -1.0797 -0.3007
  922MOL0     H27169   0.771   3.226   9.521  2.8782 -0.7703  1.4637
  922MOL0     H27170   0.694   3.077   9.568  1.9017  1.2340  0.9292
  922MOL0     H27171   0.663   3.210   9.293 -0.7527 -0.6996  0.2708
  922MOL0     H27172   0.559   3.077   9.358  1.1468 -0.8754 -4.6387
  922MOL0     H27173   0.564   3.358   9.448 -3.6859  2.3028 -0.6207
  922MOL0     H27174   0.445   3.280   9.342 -0.7136 -0.2076  1.0407
  922MOL0     H27175   0.363   3.125   9.531 -0.5622  0.8546  0.1730
  922MOL0     H27176   0.477   3.185   9.642  1.7314  1.8129 -1.3735
  922MOL0     H27177   0.245   3.269   9.673  2.6702 -0.7008  2.0028
  922MOL0     H27178   0.265   3.373   9.522  0.5126  2.2565  0.4660
  922MOL0     H27179   0.427   3.505   9.635 -1.4908  2.0371 -0.2375
  922MOL0     H27180   0.275   3.496   9.727  0.4887  1.9430 -1.8417
  922MOL0     H27181   0.526   3.336   9.781  1.5184  2.2135  3.8535
  922MOL0     H27182   0.365   3.315   9.851 -0.0904  2.4745  3.4063
  922MOL0     H27183   0.555   3.438   9.972 -1.4083 -3.3340 -0.1614
  922MOL0     H27184   0.529   3.568   9.855  0.1670 -0.3507 -0.6765
  922MOL0     H27185   0.365   3.757   9.900 -2.0498 -1.0897 -1.0302
  922MOL0     H27186   0.221   3.919  10.167  0.5155  2.2820 -3.0717
  922MOL0     H27187   0.075   3.801  10.149 -1.0854  0.7637  2.2169
  922MOL0     H27188   0.108   3.862   9.891  1.5830 -1.5707  0.5155
  922MOL0     H27189   0.009   3.966   9.996  0.6915  3.8098 -1.2176
  922MOL0     H27190   0.116   4.094   9.849  0.7180 -1.7481 -0.5082
  922MOL0     H27191   0.179   4.122  10.013 -1.9379 -0.0623 -0.3513
  922MOL0     H27192   0.361   4.135   9.832 -0.0957  0.1866 -0.1066
  922MOL0     H27193   0.384   4.001   9.955  0.0777  0.3940 -0.8405
  922MOL0     H27194   0.576   4.062   9.809  2.2607 -0.4130  2.1038
  922MOL0     H27195   0.786   4.095   9.775 -1.0037 -0.3861  0.0982
  922MOL0     H27196   0.848   4.070   9.604 -2.9881  1.1682 -0.8957
  922MOL0     H27197   0.883   3.951   9.735  0.7392  0.1729 -0.6675
  922MOL0     H27198   0.822   3.475   9.418  0.0927  0.1651  0.3418
  922MOL0     H27199   0.984   3.352   9.289 -4.4904  0.5894 -0.3933
  922MOL0     H27200   1.230   3.355   9.265  0.8780  3.8903 -1.2119
  922MOL0     H27201   1.141   3.258   9.149 -2.1234  1.6186  3.3631
  922MOL0     H27202   1.373   3.187   9.116  1.7089  0.2841  0.6547
  922MOL0     H27203   1.326   3.296   8.977  2.4097 -0.7484 -0.6191
  922MOL0     H27204   1.446   3.424   9.211 -1.5763  0.1312 -1.0022
  922MOL0     H27205   1.482   3.459   9.041  3.3500 -2.1081 -0.7991
  922MOL0     H27206   1.615   3.253   9.027 -3.4926  1.1737 -1.9353
  922MOL0     H27207   1.575   3.230   9.204 -1.4183  0.5109 -0.9271
  922MOL0     H27208   1.800   3.372   9.086  0.6748 -2.5212  1.2981
  922MOL0     H27209   1.696   3.498   9.150 -1.0834 -0.3774 -1.6826
  922MOL0     H27210   1.828   3.275   9.294 -0.1723  0.4883  2.1829
  922MOL0     H27211   1.695   3.367   9.375 -0.8305 -1.2573 -0.1105
  922MOL0     H27212   1.833   3.576   9.346  0.8353  0.8645  1.6871
  922MOL0     H27213   1.939   3.484   9.247 -2.7693 -1.9593 -2.1395
  922MOL0     H27214   2.005   3.342   9.425  1.1454  0.5079  0.9181
  922MOL0     H27215   1.896   3.390   9.541  0.3850  1.3792  1.4874
  922MOL0     H27216   1.102   3.697   9.075 -0.2432  2.3068  1.8785
  922MOL0     H27217   0.929   3.824   9.176  2.3701 -0.2183 -2.2702
  922MOL0     H27218   0.543   3.708   9.461 -0.4773 -0.1673  0.6459
  922MOL0     H27219   0.341   3.775   9.583  1.5221 -1.6010 -3.4738
  922MOL0     H27220   0.887   3.070   9.680 -0.8511 -2.6653 -0.8143
  922MOL0     H27221   1.107   3.071   9.766 -1.2068  1.4085 -0.5801
  922MOL0     H27222   1.580   2.951   9.700 -0.8337 -0.8195  0.3239
  922MOL0     H27223   1.764   2.992   9.866 -0.0600  1.1938  2.7190
  922MOL0     H27224   1.888   3.419   9.905  0.5569  0.3201  0.3980
  922MOL0     H27225   1.885   3.373  10.073  1.9143  2.2459 -0.1234
  922MOL0     H27226   2.102   3.290  10.056 -0.1677  1.5537  1.5378
  922MOL0     H27227   2.102   3.448   9.974 -1.4918  0.8814  0.6547
  922MOL0     H27228   2.102   3.184   9.832  0.7514 -0.7129  1.4859
  922MOL0     H27229   2.071   3.348   9.756  3.7724 -0.1773 -1.1597
  922MOL0     H27230   2.338   3.326   9.904  1.6114 -0.8032 -1.4940
  922MOL0     H27231   2.270   3.436   9.776  0.7307  1.6492  1.7679
  922MOL0     H27232   2.440   3.101   9.579 -0.4391  1.7074 -2.4776
  922MOL0     H27233   1.714   3.411   9.818  2.7493 -0.5646 -0.8813
  922MOL0     H27234   1.569   3.511   9.704  1.1515  2.8669 -3.2516
  922MOL0     H27235   1.566   3.451   9.540 -0.6482 -1.2519  0.2572
  922MOL0     H27236   1.426   3.435   9.635 -0.3544  4.9472  2.7006
  923MOL0     O27237   1.210   3.029   0.446  0.3208  0.9039 -0.3651
  923MOL0     C27238   1.204   2.916   0.479 -0.2224  0.1156  0.4521
  923MOL0     O27239   1.255   2.813   0.407 -0.3185  0.0501 -0.2961
  923MOL0     C27240   1.273   2.839   0.270 -0.2454  0.2007 -0.8619
  923MOL0     C27241   1.386   2.901   0.224 -0.0677  0.7065 -0.2082
  923MOL0     C27242   1.399   2.921   0.082  0.3039  0.3427 -0.5857
  923MOL0     C27243   1.297   2.875  -0.009  1.1453  0.0293  0.4999
  923MOL0     O27244   1.333   2.877  -0.140  0.2456 -1.1170  0.3534
  923MOL0     C27245   1.321   2.754  -0.206  0.4558  0.1913 -0.1898
  923MOL0     C27246   1.410   2.763  -0.331 -1.0521  0.2084 -0.2373
  923MOL0     C27247   1.428   2.641  -0.421  0.3389 -1.3719 -0.0383
  923MOL0     C27248   1.521   2.658  -0.542  0.8739  0.4808  0.0606
  923MOL0     C27249   1.431   2.725  -0.653  0.6932 -0.0677  0.6244
  923MOL0     C27250   1.507   2.770  -0.771 -0.2099  0.0157  0.2994
  923MOL0     C27251   1.418   2.848  -0.870 -0.5021 -0.2653  0.2750
  923MOL0     C27252   1.509   2.902  -0.985  0.1500 -0.1559 -0.6538
  923MOL0     N27253   1.434   2.980  -1.079  0.0584  0.0833 -0.2487
  923MOL0     C27254   1.472   2.992  -1.206  0.6259  0.9947  0.6971
  923MOL0     C27255   1.358   3.017  -1.277  0.0463  0.4893  0.2798
  923MOL0     C27256   1.357   3.029  -1.430  0.3972 -0.5302  0.1350
  923MOL0     C27257   1.295   2.897  -1.481  0.0319 -0.2656 -0.2657
  923MOL0     C27258   1.418   2.793  -1.490 -0.9891  0.3009  0.5394
  923MOL0     C27259   1.363   2.648  -1.519 -0.4072 -0.1249 -0.4533
  923MOL0     O27260   1.479   2.551  -1.512  0.0279  0.7879 -0.0115
  923MOL0     C27261   1.501   2.490  -1.391 -0.1995  0.3757  0.1439
  923MOL0     C27262   1.545   2.360  -1.400  0.8205 -0.2533  0.3043
  923MOL0     C27263   1.570   2.291  -1.284 -0.1123 -0.5710 -0.3334
  923MOL0     C27264   1.615   2.149  -1.290 -0.2174 -0.3217  0.1165
  923MOL0     C27265   1.547   2.350  -1.151 -0.2096 -0.3263 -0.5128
  923MOL0     C27266   1.566   2.283  -1.020  0.2245  0.8488 -0.2274
  923MOL0     O27267   1.590   2.370  -0.917  0.5121 -0.3695 -0.3069
  923MOL0     C27268   1.530   2.346  -0.797 -0.3529  0.4493 -0.7757
  923MOL0     C27269   1.394   2.354  -0.764 -0.5152  0.0932  1.0221
  923MOL0     C27270   1.357   2.328  -0.628 -0.3518 -0.2037  0.3269
  923MOL0     C27271   1.446   2.290  -0.535  0.1634 -0.3117  0.1232
  923MOL0     O27272   1.405   2.277  -0.401 -0.2894 -0.0173  0.2433
  923MOL0     C27273   1.275   2.220  -0.377  0.0786 -0.2493  0.0896
  923MOL0     C27274   1.194   2.310  -0.279  0.1392  0.2883  0.4244
  923MOL0     C27275   1.270   2.315  -0.140  0.1624  0.3817  0.8005
  923MOL0     C27276   1.177   2.378  -0.033  0.8244  0.6045 -0.2111
  923MOL0     C27277   1.239   2.362   0.102  1.1417 -0.3910  0.0925
  923MOL0     C27278   1.217   2.215   0.151  0.1837  1.1301 -0.2025
  923MOL0     C27279   1.321   2.190   0.264  0.0294  0.4911  0.4629
  923MOL0     C27280   1.273   2.241   0.403  0.3220  0.7931  0.6421
  923MOL0    Cl27281   1.412   2.216   0.511  0.3695 -0.1826 -0.2174
  923MOL0     C27282   1.586   2.272  -0.572  0.0111 -0.2545  0.2685
  923MOL0     C27283   1.621   2.300  -0.700 -0.3364 -0.0416  0.3983
  923MOL0     O27284   1.551   2.160  -1.012 -0.4916  0.2205 -0.3170
  923MOL0     C27285   1.508   2.484  -1.147  1.0028 -0.0621  0.1369
  923MOL0     C27286   1.479   2.549  -1.262 -0.4960 -0.2302  0.6870
  923MOL0     N27287   1.254   3.025  -1.185 -0.6234 -1.2780 -0.2285
  923MOL0     N27288   1.298   3.018  -1.067 -0.8332  0.2884  0.1290
  923MOL0     C27289   1.187   2.813   0.046  0.4666  0.0043  0.1300
  923MOL0     C27290   1.176   2.794   0.186  0.7458 -0.3548 -0.0202
  923MOL0     C27291   1.136   2.891   0.605  0.9580 -0.6118 -0.0339
  923MOL0     C27292   1.061   2.994   0.662 -0.0426 -0.0040 -0.0027
  923MOL0     C27293   0.979   2.973   0.773  0.4520  0.6498 -0.7424
  923MOL0     C27294   0.971   2.856   0.847  0.2477  0.6601  0.8661
  923MOL0     O27295   0.889   2.859   0.957 -0.1633  0.4541 -0.3247
  923MOL0     C27296   0.816   2.743   1.000  0.3685  0.2851  0.5925
  923MOL0     C27297   0.678   2.787   1.048  0.2260  0.3381  0.8035
  923MOL0     C27298   0.591   2.657   1.075 -0.5887 -0.2943 -0.5028
  923MOL0     C27299   0.458   2.666   1.149 -0.2996 -0.2091  0.2979
  923MOL0     C27300   0.414   2.531   1.183  0.3988  0.4497 -0.3597
  923MOL0     C27301   0.377   2.418   1.209  0.4616 -0.2883 -0.6682
  923MOL0     C27302   1.044   2.751   0.792  0.9436  0.1647  0.3182
  923MOL0     C27303   1.134   2.770   0.677  0.2072 -0.7943  0.0602
  923MOL0     C27304   1.223   2.653   0.647 -0.1749 -0.0849  0.6488
  923MOL0     H27305   1.460   2.931   0.298 -0.5750  0.9109  0.2232
  923MOL0     H27306   1.492   2.972   0.056  0.0235  0.8643 -0.5706
  923MOL0     H27307   1.218   2.743  -0.240  0.6354  1.0352 -1.0305
  923MOL0     H27308   1.336   2.672  -0.135 -1.3152  0.7361  0.8669
  923MOL0     H27309   1.356   2.833  -0.395 -0.8791  1.9981  1.4897
  923MOL0     H27310   1.515   2.789  -0.311 -0.4733 -1.9613 -0.2005
  923MOL0     H27311   1.471   2.567  -0.353 -0.6472 -1.8068  0.1288
  923MOL0     H27312   1.328   2.616  -0.456 -0.3396  2.7837 -1.5839
  923MOL0     H27313   1.611   2.718  -0.528  0.0193  1.3605  2.2785
  923MOL0     H27314   1.553   2.564  -0.587 -0.2360  0.3087 -0.4261
  923MOL0     H27315   1.388   2.813  -0.605  2.1090 -1.2918  4.5166
  923MOL0     H27316   1.351   2.657  -0.682 -0.0844  2.0161 -2.6840
  923MOL0     H27317   1.583   2.841  -0.734  0.4723 -1.2437  1.4101
  923MOL0     H27318   1.557   2.685  -0.818  3.1225  1.1206  1.4940
  923MOL0     H27319   1.364   2.925  -0.814 -1.4476 -3.0178  3.4819
  923MOL0     H27320   1.354   2.776  -0.921  0.4794  0.2945 -1.8505
  923MOL0     H27321   1.588   2.965  -0.944  0.9800 -2.8693  2.2663
  923MOL0     H27322   1.558   2.818  -1.035 -2.9119 -1.7348 -1.2566
  923MOL0     H27323   1.567   2.965  -1.252  0.0790  2.6077 -1.5897
  923MOL0     H27324   1.457   3.060  -1.462  0.5888 -1.3876 -0.1334
  923MOL0     H27325   1.293   3.116  -1.451  0.2694 -0.4854  0.6971
  923MOL0     H27326   1.220   2.871  -1.406  0.4568  1.4487  0.8172
  923MOL0     H27327   1.256   2.921  -1.580  0.5217  1.4089 -0.0872
  923MOL0     H27328   1.477   2.824  -1.577  2.7165  1.3263  3.1589
  923MOL0     H27329   1.483   2.797  -1.402 -1.4018  1.1914  0.8132
  923MOL0     H27330   1.276   2.629  -1.456  0.5923 -1.6406  0.5341
  923MOL0     H27331   1.328   2.641  -1.623 -1.4273  1.3409 -0.2406
  923MOL0     H27332   1.558   2.302  -1.491  0.7428 -1.2698  0.9214
  923MOL0     H27333   1.548   2.076  -1.244 -1.0593 -1.2933 -2.4877
  923MOL0     H27334   1.709   2.123  -1.241 -1.6284 -0.4562  2.9543
  923MOL0     H27335   1.609   2.113  -1.393  0.3978  0.1006 -0.0749
  923MOL0     H27336   1.316   2.378  -0.836 -1.0797 -0.5316  1.4101
  923MOL0     H27337   1.249   2.337  -0.618 -0.3364  0.7849 -0.3060
  923MOL0     H27338   1.223   2.203  -0.472  2.3367  0.4880 -1.3478
  923MOL0     H27339   1.278   2.120  -0.333  1.4404 -0.6104 -0.8000
  923MOL0     H27340   1.205   2.411  -0.320  0.7924  0.2546  0.5153
  923MOL0     H27341   1.089   2.279  -0.266  0.6772 -1.8350  0.1157
  923MOL0     H27342   1.366   2.369  -0.145  1.4473 -1.8805 -1.8399
  923MOL0     H27343   1.302   2.215  -0.111  0.8531  0.9330  2.0446
  923MOL0     H27344   1.077   2.333  -0.031  1.0846  0.0408  0.5713
  923MOL0     H27345   1.151   2.483  -0.051 -0.3556  0.6461  1.5092
  923MOL0     H27346   1.341   2.402   0.105  1.5162 -1.3495  0.7527
  923MOL0     H27347   1.191   2.432   0.171  2.4740  0.5169  0.1531
  923MOL0     H27348   1.253   2.148   0.072  0.2291  3.2508 -2.0842
  923MOL0     H27349   1.111   2.211   0.176  0.6138  4.6611  3.2155
  923MOL0     H27350   1.423   2.215   0.235  1.1634 -2.2757  1.6852
  923MOL0     H27351   1.312   2.081   0.266 -1.1626  0.5527 -0.2255
  923MOL0     H27352   1.185   2.197   0.451  1.8461 -0.3419  2.5546
  923MOL0     H27353   1.266   2.349   0.385  2.5296  0.6690 -1.4024
  923MOL0     H27354   1.669   2.258  -0.503  1.9326  2.1643 -1.3809
  923MOL0     H27355   1.723   2.295  -0.737  0.3893  1.2944  2.0634
  923MOL0     H27356   1.490   2.543  -1.058  1.0736 -0.6399  0.5438
  923MOL0     H27357   1.461   2.655  -1.253  0.8060  0.3293 -2.1672
  923MOL0     H27358   1.106   2.786  -0.021 -1.1313  2.3382  1.0034
  923MOL0     H27359   1.110   2.722   0.232  1.6728  0.1022  2.1494
  923MOL0     H27360   1.066   3.095   0.622  1.2408 -1.2357 -3.3178
  923MOL0     H27361   0.909   3.053   0.795  0.5064  1.6604 -3.8609
  923MOL0     H27362   0.793   2.674   0.919  1.1686  0.3809  0.2785
  923MOL0     H27363   0.864   2.686   1.081  0.4865 -1.5872 -0.7398
  923MOL0     H27364   0.644   2.849   0.964  1.8234  2.4508  1.6118
  923MOL0     H27365   0.692   2.854   1.133  0.1693  0.3101  0.8340
  923MOL0     H27366   0.567   2.608   0.980 -2.8110  1.1628 -0.7684
  923MOL0     H27367   0.653   2.584   1.127 -1.6586 -1.9032 -1.3694
  923MOL0     H27368   0.382   2.729   1.102  2.1549  1.9429 -1.0541
  923MOL0     H27369   0.470   2.704   1.251  2.0711 -3.7655  1.5006
  923MOL0     H27370   0.334   2.325   1.238 -0.4782  1.0542  2.8559
  923MOL0     H27371   1.051   2.655   0.842  2.2078 -1.6499 -3.0367
  923MOL0     H27372   1.324   2.686   0.624 -0.9155 -0.7288 -4.6314
  923MOL0     H27373   1.222   2.585   0.733  2.1472  0.1642  0.9337
  923MOL0     H27374   1.188   2.600   0.558 -0.6243  1.3889 -0.0873
  924MOL0     O27375   6.108   7.617   8.204 -0.4027  0.3829  0.2403
  924MOL0     C27376   6.080   7.508   8.157  1.0672  0.3527  0.1445
  924MOL0     O27377   6.054   7.494   8.018  0.2419 -0.0619 -0.6205
  924MOL0     C27378   6.073   7.602   7.929  0.2245  0.3538  0.1388
  924MOL0     C27379   5.971   7.625   7.840 -0.6404  0.4974  0.1962
  924MOL0     C27380   5.978   7.729   7.742 -0.3611 -1.1557  0.3004
  924MOL0     C27381   6.089   7.817   7.747  0.2944  0.2610 -0.1899
  924MOL0     O27382   6.102   7.912   7.650  0.7273  0.2720 -0.3333
  924MOL0     C27383   6.235   7.924   7.599 -0.4053  0.6587 -1.0524
  924MOL0     C27384   6.252   7.980   7.460  0.3001  0.9002 -0.1278
  924MOL0     C27385   6.254   8.125   7.442  0.4434 -1.1025 -0.2029
  924MOL0     C27386   6.230   8.169   7.297  1.0700  0.7078  0.7716
  924MOL0     C27387   6.192   8.328   7.286 -0.3918  0.0928 -0.5119
  924MOL0     C27388   6.215   8.370   7.133 -0.3854  0.3592 -1.0050
  924MOL0     C27389   6.130   8.287   7.036 -0.4599  0.5233  0.5585
  924MOL0     C27390   5.987   8.291   7.064 -0.2601 -0.5572 -0.2796
  924MOL0     N27391   5.906   8.204   6.978 -1.1373  0.8700 -0.8561
  924MOL0     C27392   5.845   8.237   6.856 -0.0903 -0.8666 -0.7255
  924MOL0     C27393   5.745   8.149   6.839 -0.4555  0.2929  0.8718
  924MOL0     C27394   5.620   8.162   6.742  0.1316  0.1757 -0.1957
  924MOL0     C27395   5.648   8.182   6.597 -0.1849  0.1841  0.4655
  924MOL0     C27396   5.658   8.057   6.513  0.7097 -0.5193 -0.1776
  924MOL0     C27397   5.623   8.099   6.369  0.8057  0.2859  0.2712
  924MOL0     O27398   5.713   8.198   6.316 -0.3050  0.0698 -0.6443
  924MOL0     C27399   5.853   8.195   6.308  0.4843  0.6885  0.3729
  924MOL0     C27400   5.933   8.085   6.335 -0.1613  0.6939  1.1829
  924MOL0     C27401   6.069   8.098   6.329 -1.0474  0.0050  0.0551
  924MOL0     C27402   6.157   7.974   6.365  0.0114  0.0269  1.0742
  924MOL0     C27403   6.131   8.217   6.274  0.2800 -0.1171  0.6414
  924MOL0     C27404   6.280   8.255   6.256  0.6597 -0.6087  0.0271
  924MOL0     O27405   6.323   8.308   6.141  0.0589  0.0980  0.4032
  924MOL0     C27406   6.442   8.370   6.133 -0.4068 -0.3539  0.5337
  924MOL0     C27407   6.506   8.441   6.233  0.6288 -0.5255 -0.0455
  924MOL0     C27408   6.622   8.518   6.202 -0.6243  0.9945  0.0256
  924MOL0     C27409   6.667   8.523   6.069 -0.3068  0.1111  0.1781
  924MOL0     O27410   6.788   8.581   6.038  0.8443 -0.2263 -0.2506
  924MOL0     C27411   6.826   8.598   5.903 -0.1179  0.1377  1.1527
  924MOL0     C27412   6.968   8.654   5.910  0.8095 -0.8901  0.0615
  924MOL0     C27413   7.047   8.648   5.773  0.1959 -0.4342  0.4802
  924MOL0     C27414   7.194   8.677   5.781 -0.7305  0.5395  0.0327
  924MOL0     C27415   7.271   8.695   5.646  0.8527 -0.1987 -0.0142
  924MOL0     C27416   7.303   8.550   5.586  0.0048 -0.6086  0.9490
  924MOL0     C27417   7.379   8.560   5.450  0.1872  0.0140  0.8188
  924MOL0     C27418   7.291   8.580   5.328  0.1065 -0.2070 -0.1355
  924MOL0    Cl27419   7.215   8.429   5.261 -0.0805 -0.4165  0.1142
  924MOL0     C27420   6.591   8.461   5.974 -0.6725  0.6927  0.0275
  924MOL0     C27421   6.483   8.387   5.999  1.1373 -0.3579 -0.8880
  924MOL0     O27422   6.351   8.218   6.351 -0.2331 -0.7354  0.0118
  924MOL0     C27423   6.040   8.322   6.248 -0.4972 -0.3524  0.3533
  924MOL0     C27424   5.905   8.312   6.251 -0.0765  0.1635  0.6158
  924MOL0     N27425   5.744   8.069   6.945 -0.2996  0.2003 -0.0153
  924MOL0     N27426   5.847   8.091   7.030  0.5715  0.4129  1.0064
  924MOL0     C27427   6.190   7.797   7.850 -0.4188  0.3730  0.2697
  924MOL0     C27428   6.184   7.684   7.941 -0.6510 -0.3017  0.8515
  924MOL0     C27429   6.075   7.389   8.244 -0.3535  0.5771 -0.9396
  924MOL0     C27430   6.177   7.359   8.345 -0.1795 -0.5016 -1.0828
  924MOL0     C27431   6.165   7.257   8.442  0.0856 -0.1345  0.0744
  924MOL0     C27432   6.058   7.167   8.433  0.2834  0.4716  0.4556
  924MOL0     O27433   6.054   7.049   8.498 -0.0331  0.2651  0.5581
  924MOL0     C27434   5.968   7.045   8.612 -0.0045 -0.2040  0.2661
  924MOL0     C27435   5.823   7.034   8.578 -0.2455 -0.4370 -1.3424
  924MOL0     C27436   5.784   6.907   8.494  0.4668  0.1769  0.0704
  924MOL0     C27437   5.647   6.859   8.533 -0.5205  0.2229  0.1078
  924MOL0     C27438   5.552   6.892   8.427  0.7852  0.3366 -0.9855
  924MOL0     C27439   5.485   6.915   8.324  0.3582  0.1378  0.1462
  924MOL0     C27440   5.963   7.183   8.337  0.9806 -0.5359  0.1443
  924MOL0     C27441   5.967   7.292   8.241  0.1094 -0.0704  0.4092
  924MOL0     C27442   5.847   7.321   8.151  0.6292  0.0041 -0.3064
  924MOL0     H27443   5.884   7.563   7.824  0.6964 -0.8302 -2.6287
  924MOL0     H27444   5.903   7.741   7.665 -2.5946 -1.8585  2.2482
  924MOL0     H27445   6.275   7.823   7.603  0.4628  1.0276  0.4780
  924MOL0     H27446   6.289   7.991   7.667 -2.7883 -0.7107  2.5205
  924MOL0     H27447   6.341   7.929   7.421 -0.5852 -4.7178  3.9157
  924MOL0     H27448   6.174   7.938   7.396 -0.6903  3.4750 -0.7177
  924MOL0     H27449   6.178   8.171   7.505 -1.5423 -3.2882 -0.8476
  924MOL0     H27450   6.352   8.161   7.477  0.1346  2.5717 -2.6093
  924MOL0     H27451   6.315   8.150   7.230 -0.1633  4.6848 -2.3574
  924MOL0     H27452   6.148   8.108   7.261  0.7063  2.6620 -2.0956
  924MOL0     H27453   6.271   8.377   7.344 -0.2382 -0.2798 -0.4074
  924MOL0     H27454   6.090   8.347   7.319  0.0615 -0.7653  1.4863
  924MOL0     H27455   6.199   8.477   7.120  0.8756  0.8928  1.2372
  924MOL0     H27456   6.321   8.350   7.112  0.2596  4.4501 -2.4357
  924MOL0     H27457   6.154   8.180   7.030 -0.8273  0.5310 -2.8352
  924MOL0     H27458   6.139   8.339   6.940 -1.5061  3.6728  2.0333
  924MOL0     H27459   5.950   8.276   7.166 -0.1174  1.6340  0.1486
  924MOL0     H27460   5.954   8.394   7.045 -1.6552 -1.0427 -0.6284
  924MOL0     H27461   5.876   8.318   6.791  0.5446 -0.2716  0.2950
  924MOL0     H27462   5.556   8.238   6.786  4.1332  3.6066  0.3164
  924MOL0     H27463   5.562   8.070   6.747 -1.1750  1.0511  2.8947
  924MOL0     H27464   5.569   8.246   6.558  1.5263  1.6207 -0.7843
  924MOL0     H27465   5.746   8.229   6.599  0.3047 -0.7662  3.3477
  924MOL0     H27466   5.758   8.013   6.513  1.5543  1.2725  0.6851
  924MOL0     H27467   5.591   7.972   6.529 -0.1912  0.3933  1.1146
  924MOL0     H27468   5.626   8.010   6.306 -1.2328  1.0046 -0.9333
  924MOL0     H27469   5.524   8.142   6.353  0.8187  0.1624 -0.1744
  924MOL0     H27470   5.907   7.986   6.372 -0.7638 -0.2450 -1.5152
  924MOL0     H27471   6.261   7.997   6.387 -0.4617 -0.3518  4.1546
  924MOL0     H27472   6.143   7.896   6.290  2.0349  2.6947 -2.3511
  924MOL0     H27473   6.120   7.929   6.458  3.6080 -1.6349  1.8709
  924MOL0     H27474   6.487   8.415   6.337  0.5456 -2.1583 -0.4310
  924MOL0     H27475   6.684   8.549   6.285 -0.8589  2.4962 -0.3302
  924MOL0     H27476   6.830   8.506   5.844  2.5982  0.6196  0.4117
  924MOL0     H27477   6.759   8.658   5.840  2.4521  0.6656 -1.3157
  924MOL0     H27478   6.959   8.757   5.945 -4.3003 -1.2859  0.7014
  924MOL0     H27479   7.026   8.611   5.992  0.5348 -1.7637 -0.1893
  924MOL0     H27480   6.992   8.712   5.704  2.8963  0.6481 -0.7835
  924MOL0     H27481   7.023   8.550   5.730 -0.4836  0.2369 -0.7159
  924MOL0     H27482   7.234   8.597   5.845 -3.4061 -1.0771 -0.1598
  924MOL0     H27483   7.205   8.765   5.845  1.6294 -0.9126  1.8004
  924MOL0     H27484   7.204   8.747   5.577  0.7385  1.8936  1.5682
  924MOL0     H27485   7.366   8.742   5.669 -0.0369  2.3193 -1.1579
  924MOL0     H27486   7.225   8.474   5.578  2.3674 -3.0860 -0.2060
  924MOL0     H27487   7.369   8.503   5.660 -0.1504 -0.1866  1.3598
  924MOL0     H27488   7.445   8.476   5.427  0.8958  0.7333  0.1811
  924MOL0     H27489   7.450   8.643   5.451  1.6909 -1.1599 -1.1079
  924MOL0     H27490   7.347   8.615   5.240 -1.7165  3.4999 -0.0044
  924MOL0     H27491   7.218   8.656   5.356 -0.3270 -0.2934 -0.9955
  924MOL0     H27492   6.630   8.453   5.873  1.5315 -1.8072  0.9891
  924MOL0     H27493   6.429   8.341   5.917  2.4685 -0.6324 -1.6235
  924MOL0     H27494   6.079   8.417   6.213 -0.2265 -0.2498  0.9253
  924MOL0     H27495   5.833   8.388   6.220  1.1558  0.5329 -1.5563
  924MOL0     H27496   6.278   7.861   7.847 -0.5247  0.4851 -2.6607
  924MOL0     H27497   6.263   7.676   8.015 -0.4285  2.9013  1.0879
  924MOL0     H27498   6.257   7.432   8.359 -0.7325 -0.0381 -0.2567
  924MOL0     H27499   6.244   7.233   8.513 -1.0299  1.2363  1.8785
  924MOL0     H27500   5.986   6.954   8.671  0.2707 -1.0289 -1.0584
  924MOL0     H27501   5.975   7.140   8.666  0.8769 -0.7659  1.1951
  924MOL0     H27502   5.788   7.125   8.528 -2.9231 -2.2651 -3.0460
  924MOL0     H27503   5.776   7.024   8.677  3.1300 -0.6517  0.3711
  924MOL0     H27504   5.786   6.931   8.387  0.3523  3.1638  0.6597
  924MOL0     H27505   5.860   6.830   8.507  0.6869  0.7381  2.5311
  924MOL0     H27506   5.612   6.879   8.634 -1.6046  0.9042 -0.3827
  924MOL0     H27507   5.643   6.749   8.536 -3.5374  0.0384 -3.4031
  924MOL0     H27508   5.424   6.927   8.237  2.4624  0.5806 -1.3542
  924MOL0     H27509   5.888   7.105   8.343 -0.3117  0.4602 -1.8283
  924MOL0     H27510   5.769   7.247   8.170  0.5380  0.2998  0.5277
  924MOL0     H27511   5.788   7.413   8.163 -2.2117 -1.4827 -1.8421
  924MOL0     H27512   5.876   7.320   8.045  1.5229  0.0214 -0.0725
  925MOL0     O27513  10.915   5.757  10.103 -0.3836  0.1201 -0.1893
  925MOL0     C27514  10.897   5.808   9.988 -0.2837  0.0886  0.0493
  925MOL0     O27515  10.975   5.798   9.882  0.1380 -0.2474  1.0963
  925MOL0     C27516  11.105   5.759   9.874 -0.5575  0.6986  0.3366
  925MOL0     C27517  11.154   5.701   9.753 -0.2003  0.1211 -0.6543
  925MOL0     C27518  11.284   5.660   9.744 -0.2282 -0.5199 -1.2906
  925MOL0     C27519  11.376   5.695   9.850 -0.4708  0.4026 -0.0774
  925MOL0     O27520  11.512   5.682   9.824  0.6239 -0.0196  0.4651
  925MOL0     C27521  11.574   5.617   9.715  0.3037 -1.1143 -0.5092
  925MOL0     C27522  11.727   5.593   9.740 -0.1763 -0.6924  0.0023
  925MOL0     C27523  11.806   5.589   9.613 -0.5987 -1.4940 -0.4168
  925MOL0     C27524  11.952   5.551   9.640 -0.1322 -0.3037 -0.5780
  925MOL0     C27525  12.040   5.586   9.526 -0.5157 -0.6348  0.1570
  925MOL0     C27526  12.191   5.573   9.549  0.3044  0.4412 -0.1168
  925MOL0     C27527  12.220   5.434   9.606 -0.1842 -0.5609  0.5565
  925MOL0     C27528  12.376   5.409   9.592 -0.8949  1.3273 -1.2090
  925MOL0     N27529  12.412   5.283   9.664  0.8583 -0.0002 -0.1932
  925MOL0     C27530  12.502   5.264   9.764 -0.7824 -0.4165 -0.3516
  925MOL0     C27531  12.486   5.130   9.792  0.4310  1.4094  0.4674
  925MOL0     C27532  12.565   5.055   9.907 -0.6257  0.3622 -0.4139
  925MOL0     C27533  12.515   4.917   9.937 -0.5935 -0.5083 -0.4896
  925MOL0     C27534  12.545   4.867  10.076 -0.2405  0.5042 -0.2367
  925MOL0     C27535  12.491   4.728  10.103  0.4725  0.2183 -0.3100
  925MOL0     O27536  12.352   4.749  10.110 -0.0096 -0.3743 -0.4183
  925MOL0     C27537  12.277   4.633  10.119  0.2418 -0.5756  0.2524
  925MOL0     C27538  12.258   4.544  10.022  1.0065  0.3876  0.6397
  925MOL0     C27539  12.157   4.441  10.020  0.3453 -0.6493 -0.2585
  925MOL0     C27540  12.152   4.337   9.907  0.6859 -0.9080 -0.0682
  925MOL0     C27541  12.073   4.436  10.131  0.2727 -0.5994  0.6958
  925MOL0     C27542  11.958   4.348  10.139 -0.0004  0.0821 -0.0773
  925MOL0     O27543  11.851   4.400  10.217 -0.8793 -0.7601  0.5524
  925MOL0     C27544  11.739   4.336  10.214  0.3911 -0.0040  0.3478
  925MOL0     C27545  11.714   4.230  10.308 -0.5836  0.2400 -0.3075
  925MOL0     C27546  11.595   4.172  10.317  0.5943 -0.3984  1.2587
  925MOL0     C27547  11.479   4.213  10.237 -0.6347 -0.8490 -0.7679
  925MOL0     O27548  11.349   4.157  10.224 -0.0356  0.2240 -0.9929
  925MOL0     C27549  11.332   4.039  10.306  0.7178 -0.5848  0.3687
  925MOL0     C27550  11.197   3.978  10.271  0.1102 -0.5074  0.2876
  925MOL0     C27551  11.210   3.835  10.335  0.1890 -0.6693  0.2493
  925MOL0     C27552  11.285   3.740  10.241  0.8348  0.0740  0.2240
  925MOL0     C27553  11.329   3.617  10.319  0.2949  1.1683  0.0526
  925MOL0     C27554  11.420   3.512  10.245  0.3642  0.1903  0.7820
  925MOL0     C27555  11.434   3.377  10.314  0.3043  0.5895  0.2055
  925MOL0     C27556  11.528   3.278  10.244 -0.5648 -0.5106 -0.4321
  925MOL0    Cl27557  11.484   3.241  10.074  0.2289  0.3701  0.2974
  925MOL0     C27558  11.509   4.311  10.136 -0.0379  1.0345 -0.9128
  925MOL0     C27559  11.630   4.380  10.138  0.2199  0.0136 -1.1256
  925MOL0     O27560  11.955   4.242  10.080 -0.2222 -0.5572  0.1299
  925MOL0     C27561  12.091   4.526  10.236  0.4022  0.3167  0.0136
  925MOL0     C27562  12.195   4.624  10.231  0.7595  0.9677  0.6533
  925MOL0     N27563  12.403   5.076   9.696 -0.7181  0.2128  0.5157
  925MOL0     N27564  12.357   5.167   9.620 -0.4999  0.4210 -0.4361
  925MOL0     C27565  11.326   5.737   9.969 -0.1636  0.0805 -0.7321
  925MOL0     C27566  11.186   5.769   9.981 -1.3383 -0.2435 -0.7694
  925MOL0     C27567  10.771   5.878   9.967  0.6780 -0.5086 -0.5941
  925MOL0     C27568  10.678   5.922  10.072  0.0925  0.1633  0.0836
  925MOL0     C27569  10.548   5.961  10.043 -0.3638  0.4387  0.2064
  925MOL0     C27570  10.501   5.983   9.915 -0.2808 -0.5227 -0.4670
  925MOL0     O27571  10.372   6.036   9.897  0.2441 -0.3110  0.3496
  925MOL0     C27572  10.264   6.020   9.985  0.4478 -0.5694  0.2556
  925MOL0     C27573  10.131   6.021   9.910 -0.1559 -0.2009  0.3588
  925MOL0     C27574  10.117   6.143   9.814 -0.0745  0.5556  0.9106
  925MOL0     C27575  10.105   6.280   9.878 -0.2957  0.2136  0.3814
  925MOL0     C27576  10.062   6.380   9.780  0.4369 -0.5585  0.0472
  925MOL0     C27577  10.034   6.461   9.695 -0.1601 -0.3839 -0.2385
  925MOL0     C27578  10.590   5.963   9.808 -0.3905 -0.0995  0.2963
  925MOL0     C27579  10.720   5.901   9.829 -0.3652  0.5178  0.8153
  925MOL0     C27580  10.785   5.849   9.704  0.2296  0.3994  0.6192
  925MOL0     H27581  11.085   5.690   9.669  0.1912  0.9765 -1.1002
  925MOL0     H27582  11.327   5.615   9.655  1.1576  0.4779 -1.1544
  925MOL0     H27583  11.564   5.684   9.629  1.5009 -0.7854 -0.4046
  925MOL0     H27584  11.532   5.518   9.692  0.5887 -1.3183 -0.1688
  925MOL0     H27585  11.769   5.669   9.806 -1.9821 -0.7380  1.2665
  925MOL0     H27586  11.736   5.495   9.787 -1.1750 -0.4394  0.7379
  925MOL0     H27587  11.765   5.516   9.543 -2.8424  0.1124 -0.8724
  925MOL0     H27588  11.805   5.686   9.564  0.3470 -1.9499 -1.3747
  925MOL0     H27589  11.981   5.612   9.726 -0.3585 -1.6355  0.4674
  925MOL0     H27590  11.963   5.443   9.652  0.9038 -0.0364  1.0698
  925MOL0     H27591  12.011   5.682   9.483  2.8357 -0.5437 -2.2890
  925MOL0     H27592  12.002   5.537   9.436 -0.4846 -0.1926 -0.0983
  925MOL0     H27593  12.244   5.584   9.454 -0.1485  1.5980 -0.2495
  925MOL0     H27594  12.215   5.655   9.617 -3.0713  2.0759 -0.6876
  925MOL0     H27595  12.170   5.363   9.539  0.3016 -0.1136 -0.2899
  925MOL0     H27596  12.185   5.423   9.709 -1.3672  2.5756  0.5827
  925MOL0     H27597  12.398   5.392   9.487 -1.9472  1.0463 -1.3845
  925MOL0     H27598  12.428   5.494   9.639  2.5450 -0.7206 -0.9435
  925MOL0     H27599  12.574   5.334   9.804 -1.6237  0.3051 -0.0645
  925MOL0     H27600  12.548   5.110  10.000  3.0963 -0.0488  0.6540
  925MOL0     H27601  12.672   5.050   9.885  0.0141 -1.4040  2.6100
  925MOL0     H27602  12.406   4.917   9.935 -0.6313 -0.4309  0.7668
  925MOL0     H27603  12.554   4.851   9.858  0.4497  0.8280 -1.1215
  925MOL0     H27604  12.651   4.854  10.100 -0.5593 -2.8809 -0.1584
  925MOL0     H27605  12.507   4.926  10.160  2.7460 -0.5684  2.0580
  925MOL0     H27606  12.518   4.659  10.023 -2.3981 -0.1663 -1.0865
  925MOL0     H27607  12.543   4.697  10.193 -1.0420 -0.7009  0.2923
  925MOL0     H27608  12.309   4.553   9.927 -1.2113 -0.4799 -0.7103
  925MOL0     H27609  12.237   4.358   9.842  2.8113 -0.3848  2.6769
  925MOL0     H27610  12.057   4.344   9.853 -1.5640  1.5061  3.6799
  925MOL0     H27611  12.164   4.232   9.937 -0.9217 -1.1293 -0.1024
  925MOL0     H27612  11.804   4.190  10.354 -1.3157 -1.2201 -0.0920
  925MOL0     H27613  11.584   4.083  10.379 -1.3226 -2.1393 -1.3301
  925MOL0     H27614  11.405   3.967  10.270 -0.4370 -1.8442  0.4621
  925MOL0     H27615  11.343   4.059  10.413 -0.4213  2.1468  0.0610
  925MOL0     H27616  11.114   4.037  10.309  0.0459  0.6030 -1.4701
  925MOL0     H27617  11.171   3.977  10.165 -1.7646  0.9374  0.6974
  925MOL0     H27618  11.108   3.798  10.350 -0.6451  0.1021 -2.7334
  925MOL0     H27619  11.258   3.847  10.432  1.5547  0.5817 -0.5395
  925MOL0     H27620  11.366   3.784  10.182 -1.3117 -0.2448 -3.2600
  925MOL0     H27621  11.219   3.710  10.158  3.7304  1.4422 -2.8133
  925MOL0     H27622  11.372   3.657  10.411 -1.0033  0.7014  0.8963
  925MOL0     H27623  11.247   3.564  10.368  0.9477  0.5590  0.4924
  925MOL0     H27624  11.522   3.551  10.231  0.6805 -0.4633  1.1934
  925MOL0     H27625  11.366   3.497  10.151  1.3558 -0.9853  0.3699
  925MOL0     H27626  11.337   3.327  10.320  1.1336 -1.3328 -1.2561
  925MOL0     H27627  11.459   3.393  10.419 -3.3835  3.2384  0.8790
  925MOL0     H27628  11.532   3.186  10.303  0.9989  1.0204  2.0550
  925MOL0     H27629  11.630   3.314  10.235 -0.3429 -1.0365 -0.0884
  925MOL0     H27630  11.432   4.349  10.069 -1.3734  1.9184  0.9963
  925MOL0     H27631  11.644   4.471  10.080 -1.7602  1.8766  1.1119
  925MOL0     H27632  12.029   4.525  10.324  0.0501  0.8306 -0.2192
  925MOL0     H27633  12.199   4.709  10.298 -0.4139  0.2778  1.6463
  925MOL0     H27634  11.396   5.753  10.051 -0.9008 -1.1281  0.1732
  925MOL0     H27635  11.154   5.819  10.072 -0.5208  0.7030 -0.9963
  925MOL0     H27636  10.717   5.921  10.173 -0.4685  0.5251  0.3059
  925MOL0     H27637  10.479   5.985  10.124  0.6222  2.0500  0.6261
  925MOL0     H27638  10.271   5.926  10.040 -0.4785 -3.6661 -4.3169
  925MOL0     H27639  10.271   6.103  10.056 -0.0653 -1.5284  1.4599
  925MOL0     H27640  10.044   6.036   9.975 -0.3715  1.5935 -0.2868
  925MOL0     H27641  10.117   5.925   9.860  1.7369 -0.3403  0.0324
  925MOL0     H27642  10.195   6.143   9.737 -1.3241 -2.1293 -0.5038
  925MOL0     H27643  10.019   6.134   9.765 -1.0740 -0.7204  3.0227
  925MOL0     H27644  10.207   6.303   9.908  0.6816 -0.3170 -2.2138
  925MOL0     H27645  10.035   6.292   9.961 -0.5645  2.2250 -0.0945
  925MOL0     H27646   9.998   6.540   9.632 -0.4295  1.4602  2.0872
  925MOL0     H27647  10.564   5.981   9.704  6.0207 -1.3947 -2.0030
  925MOL0     H27648  10.818   5.746   9.713  0.9750  0.4823 -1.0006
  925MOL0     H27649  10.713   5.843   9.622  0.0512 -0.4096  0.8337
  925MOL0     H27650  10.866   5.911   9.664  0.8034 -0.8923 -0.2671
  926MOL0     O27651   4.479   7.006   9.505  0.5222 -0.0759 -0.8381
  926MOL0     C27652   4.395   7.073   9.438  0.7250 -0.4654 -0.1801
  926MOL0     O27653   4.394   7.091   9.303 -0.0684  0.3327  0.0891
  926MOL0     C27654   4.501   7.041   9.241  0.4211  0.3657 -0.7918
  926MOL0     C27655   4.490   6.918   9.177  0.5610  0.0972 -1.0048
  926MOL0     C27656   4.604   6.866   9.121  0.2476  0.0752  0.3040
  926MOL0     C27657   4.723   6.930   9.114 -0.0644 -0.3055  0.3666
  926MOL0     O27658   4.839   6.897   9.040  0.2317 -0.0266 -0.2426
  926MOL0     C27659   4.856   6.757   9.002 -0.2569  0.4785 -0.3978
  926MOL0     C27660   5.000   6.713   8.990  0.3301  0.7027  0.3524
  926MOL0     C27661   5.070   6.744   9.129 -0.1039  0.1794 -0.3368
  926MOL0     C27662   5.218   6.689   9.136 -0.0106 -0.3335  0.6137
  926MOL0     C27663   5.244   6.553   9.091 -0.4327  0.7511  0.1443
  926MOL0     C27664   5.392   6.508   9.085  1.2929 -0.8186 -0.6599
  926MOL0     C27665   5.408   6.454   8.937 -1.0476 -0.6603  0.0176
  926MOL0     C27666   5.545   6.387   8.923 -0.8017 -0.6613 -0.7426
  926MOL0     N27667   5.649   6.478   8.899 -0.0195 -0.7893 -0.2214
  926MOL0     C27668   5.704   6.571   8.987 -0.0915  0.1748 -0.4408
  926MOL0     C27669   5.771   6.667   8.913  1.5063  0.5371  1.1094
  926MOL0     C27670   5.852   6.777   8.971  1.0364  0.7391  0.1744
  926MOL0     C27671   5.953   6.723   9.085  0.3460  0.0013  0.0934
  926MOL0     C27672   6.064   6.827   9.112  0.4975  0.0082  0.6230
  926MOL0     C27673   6.126   6.800   9.254  0.3614  0.6600  0.1575
  926MOL0     O27674   6.016   6.801   9.351  0.6982  0.2704  0.0173
  926MOL0     C27675   6.048   6.768   9.474  0.6968 -0.4119  0.0228
  926MOL0     C27676   5.934   6.746   9.563  0.0459 -0.3020  0.1094
  926MOL0     C27677   5.949   6.693   9.697 -0.3246  0.4868 -0.3652
  926MOL0     C27678   5.821   6.653   9.767  0.2122  0.1098 -0.1267
  926MOL0     C27679   6.079   6.674   9.749 -0.3827 -0.0510 -0.2212
  926MOL0     C27680   6.124   6.614   9.869  0.5076 -0.3014 -0.6943
  926MOL0     O27681   6.227   6.675   9.941  0.4251 -0.1755  0.6269
  926MOL0     C27682   6.299   6.601  10.035 -0.0716  0.0124 -0.5067
  926MOL0     C27683   6.330   6.664  10.157 -0.8098  0.9405  0.7149
  926MOL0     C27684   6.426   6.607  10.244  0.1811  0.1187 -0.1174
  926MOL0     C27685   6.479   6.480  10.214  1.5091  0.6968  0.6134
  926MOL0     O27686   6.562   6.423  10.310 -0.1107 -0.1384 -0.1888
  926MOL0     C27687   6.628   6.310  10.264  0.5327 -0.5974 -0.1656
  926MOL0     C27688   6.717   6.276  10.385 -0.1036  0.3763  0.2899
  926MOL0     C27689   6.815   6.392  10.420  0.3788  0.1386 -0.6657
  926MOL0     C27690   6.908   6.354  10.536  0.1159 -0.0588 -0.1439
  926MOL0     C27691   6.994   6.485  10.568 -0.1418  0.0087  0.2540
  926MOL0     C27692   7.114   6.458  10.665 -0.1115 -0.6912 -0.6822
  926MOL0     C27693   7.175   6.592  10.694 -0.4926 -0.0249  0.7330
  926MOL0     C27694   7.255   6.584  10.816  0.6144 -0.4779  0.0291
  926MOL0    Cl27695   7.351   6.733  10.839  0.2165  0.3269 -0.0203
  926MOL0     C27696   6.455   6.423  10.091  0.2864 -0.3604  0.4637
  926MOL0     C27697   6.361   6.478  10.003  0.7921  0.3327  0.2581
  926MOL0     O27698   6.064   6.510   9.898  0.1216  0.1720 -0.0658
  926MOL0     C27699   6.190   6.706   9.665  0.1279  0.7947 -0.2970
  926MOL0     C27700   6.171   6.742   9.526 -1.1887 -0.6704 -0.8582
  926MOL0     N27701   5.749   6.636   8.784  0.0417  0.2223  0.3449
  926MOL0     N27702   5.678   6.529   8.775 -1.1382  0.2380 -0.7392
  926MOL0     C27703   4.732   7.056   9.177  0.0448 -0.1945 -0.5748
  926MOL0     C27704   4.623   7.112   9.248  0.7819  0.6923  0.2379
  926MOL0     C27705   4.283   7.148   9.507 -0.1843 -1.2063  0.2398
  926MOL0     C27706   4.210   7.246   9.442 -0.0125 -0.8992  0.1535
  926MOL0     C27707   4.121   7.323   9.506 -0.6881  0.1021  0.3838
  926MOL0     C27708   4.093   7.313   9.640  0.0508 -0.7223  0.3942
  926MOL0     O27709   4.004   7.387   9.713  0.2873  0.8932 -1.1258
  926MOL0     C27710   3.984   7.519   9.668  0.2748 -0.7867 -0.6049
  926MOL0     C27711   4.091   7.624   9.706  0.0723  0.2564 -0.0598
  926MOL0     C27712   4.105   7.624   9.856  0.2678 -0.3373 -0.4190
  926MOL0     C27713   4.147   7.759   9.920 -1.1556  0.4112  0.3362
  926MOL0     C27714   4.165   7.761  10.066 -0.0597  0.4874  0.4551
  926MOL0     C27715   4.186   7.759  10.187  0.9239 -0.3510  0.7046
  926MOL0     C27716   4.163   7.214   9.704 -0.0143 -0.0551 -0.1186
  926MOL0     C27717   4.258   7.130   9.648 -0.4837 -0.7270 -0.1134
  926MOL0     C27718   4.321   7.028   9.733 -1.0937  1.0765  0.5135
  926MOL0     H27719   4.396   6.865   9.160  1.5605 -1.5265 -1.6581
  926MOL0     H27720   4.605   6.767   9.076 -0.2100 -0.0512  0.5709
  926MOL0     H27721   4.802   6.740   8.909  0.1801 -1.9435 -0.2712
  926MOL0     H27722   4.811   6.686   9.072  2.3362 -1.4247 -0.5308
  926MOL0     H27723   4.995   6.604   8.976  0.8645  0.6454  0.5598
  926MOL0     H27724   5.042   6.755   8.898 -2.2114  0.6649 -0.8942
  926MOL0     H27725   5.080   6.852   9.142  0.0573 -0.0553  1.7040
  926MOL0     H27726   5.014   6.693   9.208 -1.8791  0.4174 -1.3586
  926MOL0     H27727   5.276   6.761   9.078  0.5759  2.4427  4.2854
  926MOL0     H27728   5.252   6.716   9.237  0.4422  2.5306 -0.1990
  926MOL0     H27729   5.194   6.536   8.995 -4.8084 -2.8917  2.6609
  926MOL0     H27730   5.188   6.487   9.158 -1.4144  1.2781 -0.1357
  926MOL0     H27731   5.466   6.586   9.104  0.3072 -0.6527  3.3718
  926MOL0     H27732   5.403   6.436   9.166 -1.2137  0.5771  1.0915
  926MOL0     H27733   5.402   6.533   8.861  2.2172  1.2509  1.5524
  926MOL0     H27734   5.337   6.375   8.911 -1.1795 -0.7239  0.5511
  926MOL0     H27735   5.566   6.334   9.016 -1.5954 -0.5701 -0.5067
  926MOL0     H27736   5.532   6.319   8.838 -0.7812 -0.9382 -0.5282
  926MOL0     H27737   5.691   6.581   9.094 -0.3135 -0.6684 -0.3832
  926MOL0     H27738   5.803   6.868   9.008  0.1339  0.1627  0.4204
  926MOL0     H27739   5.923   6.819   8.899  1.0624 -0.9710 -0.8519
  926MOL0     H27740   5.894   6.710   9.177  0.0531  2.1278  0.2394
  926MOL0     H27741   5.989   6.622   9.063 -0.3681  0.0983 -1.6251
  926MOL0     H27742   6.137   6.808   9.033 -1.5573  0.1413 -1.4362
  926MOL0     H27743   6.022   6.928   9.109 -1.6192 -0.7850 -2.6289
  926MOL0     H27744   6.155   6.695   9.254 -1.5277  0.0885  1.2091
  926MOL0     H27745   6.216   6.856   9.280  1.4008 -1.3968  1.1745
  926MOL0     H27746   5.838   6.776   9.524 -1.0375 -1.7073  1.5953
  926MOL0     H27747   5.770   6.750   9.772 -1.0726 -0.6046  2.0913
  926MOL0     H27748   5.820   6.604   9.865 -1.8523  0.5615  0.1195
  926MOL0     H27749   5.754   6.588   9.711 -2.2159 -0.6638  3.3678
  926MOL0     H27750   6.289   6.762  10.180  1.3737  1.8836  0.9314
  926MOL0     H27751   6.447   6.662  10.335  1.5061 -0.4389 -0.0631
  926MOL0     H27752   6.554   6.232  10.247  0.3740 -1.1303  2.6128
  926MOL0     H27753   6.696   6.326  10.179  0.9961 -0.4875  0.2207
  926MOL0     H27754   6.666   6.245  10.477  1.3498 -2.3695  0.2889
  926MOL0     H27755   6.777   6.191  10.351 -0.7950  1.0257 -2.8765
  926MOL0     H27756   6.758   6.484  10.441  0.3251 -0.2367  1.0048
  926MOL0     H27757   6.874   6.409  10.330  0.6074 -1.8453 -0.9225
  926MOL0     H27758   6.971   6.266  10.519  0.1330 -0.3809  1.4361
  926MOL0     H27759   6.850   6.330  10.625  1.3651 -0.3834  0.5990
  926MOL0     H27760   7.036   6.525  10.476  0.6888 -0.1320  0.5677
  926MOL0     H27761   6.923   6.565  10.594  0.6466  1.4358 -1.7443
  926MOL0     H27762   7.181   6.377  10.633 -0.6813 -1.4747  0.0458
  926MOL0     H27763   7.068   6.423  10.759 -4.3639  0.4366 -2.1233
  926MOL0     H27764   7.099   6.667  10.713 -0.6418 -0.5206  2.2143
  926MOL0     H27765   7.240   6.635  10.616  0.6403  1.7181  2.5504
  926MOL0     H27766   7.327   6.503  10.827  0.9341 -0.3287 -0.9079
  926MOL0     H27767   7.182   6.574  10.898 -0.9309 -0.0593 -1.2367
  926MOL0     H27768   6.492   6.324  10.068 -0.2885 -1.0439  2.3009
  926MOL0     H27769   6.358   6.434   9.904  1.0832 -1.1835  0.8911
  926MOL0     H27770   6.287   6.687   9.709 -0.6715  0.4038  1.3715
  926MOL0     H27771   6.256   6.754   9.460 -0.5899 -0.1650 -0.0230
  926MOL0     H27772   4.826   7.110   9.178 -0.8416  1.4432 -1.7730
  926MOL0     H27773   4.629   7.211   9.294 -1.0710  0.1847  1.6690
  926MOL0     H27774   4.228   7.254   9.335 -0.9792 -1.5749 -0.0740
  926MOL0     H27775   4.066   7.394   9.445  1.4786  1.1386 -0.4264
  926MOL0     H27776   3.964   7.521   9.560 -0.1675  1.4545 -0.5278
  926MOL0     H27777   3.893   7.559   9.715  0.7011  0.3979 -0.7406
  926MOL0     H27778   4.068   7.717   9.652 -0.8003 -1.2535 -2.4287
  926MOL0     H27779   4.182   7.586   9.660  1.2840  1.6595  1.0544
  926MOL0     H27780   4.021   7.574   9.906  0.8121 -2.1904 -1.2880
  926MOL0     H27781   4.188   7.557   9.881  3.0167  1.8215 -3.0261
  926MOL0     H27782   4.073   7.832   9.886  0.9586  2.5915  0.2093
  926MOL0     H27783   4.249   7.781   9.887 -0.8599 -2.5819 -1.0701
  926MOL0     H27784   4.191   7.769  10.293  1.8238  2.3581  0.4963
  926MOL0     H27785   4.133   7.198   9.807 -0.7451  0.0868 -0.3050
  926MOL0     H27786   4.430   7.035   9.726 -1.0313  0.1585  0.3515
  926MOL0     H27787   4.310   7.044   9.840 -1.5782 -0.9601  0.8171
  926MOL0     H27788   4.294   6.927   9.700 -0.4039  1.2346 -0.6023
  927MOL0     O27789   4.244   9.064   2.351 -0.3013  0.1954 -1.3371
  927MOL0     C27790   4.230   8.954   2.307 -0.1872  0.6963  0.0851
  927MOL0     O27791   4.105   8.897   2.276 -0.1794 -1.3853 -0.2463
  927MOL0     C27792   3.996   8.958   2.336  0.2449  0.6117 -0.2246
  927MOL0     C27793   3.912   9.053   2.278 -0.6942  0.0250  0.2556
  927MOL0     C27794   3.803   9.111   2.342 -0.0690 -0.3729  0.0009
  927MOL0     C27795   3.780   9.070   2.473  0.4225  0.5732  0.6227
  927MOL0     O27796   3.680   9.123   2.551 -0.5194 -0.5617  0.2654
  927MOL0     C27797   3.593   9.223   2.503  0.2600 -1.0119 -0.3585
  927MOL0     C27798   3.481   9.236   2.609  0.3132  0.0803 -0.3084
  927MOL0     C27799   3.381   9.335   2.543 -0.1860  0.3799  0.1261
  927MOL0     C27800   3.249   9.345   2.620  0.9439  0.5328 -0.1870
  927MOL0     C27801   3.128   9.433   2.582 -0.9958 -0.5177 -0.0870
  927MOL0     C27802   3.109   9.437   2.427 -0.0612 -0.3904 -0.2567
  927MOL0     C27803   2.976   9.494   2.393 -0.4203 -0.0956 -0.1553
  927MOL0     C27804   2.993   9.609   2.283 -0.1062  0.2061 -0.3236
  927MOL0     N27805   2.862   9.653   2.265 -0.1568 -0.3023 -0.0261
  927MOL0     C27806   2.799   9.749   2.343  0.0289 -0.8825 -0.3720
  927MOL0     C27807   2.679   9.778   2.292 -0.2444  0.3121  0.3331
  927MOL0     C27808   2.585   9.891   2.337 -0.5276  1.4693 -0.0048
  927MOL0     C27809   2.481   9.922   2.225  1.0404  0.0301 -0.2102
  927MOL0     C27810   2.393  10.035   2.261  0.3829  0.8452  0.1852
  927MOL0     C27811   2.294  10.068   2.145 -0.4250 -0.3451 -0.2117
  927MOL0     O27812   2.225  10.185   2.179 -0.7783  0.2805 -0.3961
  927MOL0     C27813   2.171  10.253   2.070  0.1921  0.2793  0.1512
  927MOL0     C27814   2.115  10.384   2.096 -0.8657 -0.3211 -0.6445
  927MOL0     C27815   2.045  10.451   1.998 -0.7849 -0.5247 -0.1651
  927MOL0     C27816   1.971  10.572   2.048  0.8060  0.3025  0.4133
  927MOL0     C27817   2.039  10.409   1.862 -0.0701 -0.2210 -0.3934
  927MOL0     C27818   1.984  10.491   1.746  0.1768 -0.0264  0.6791
  927MOL0     O27819   1.916  10.602   1.776 -0.1354  0.5640 -0.0196
  927MOL0     C27820   1.864  10.685   1.683  0.2391 -0.0664  0.9183
  927MOL0     C27821   1.865  10.825   1.702  0.5076 -0.2481  0.8114
  927MOL0     C27822   1.802  10.921   1.615 -0.1873  0.0214 -1.0507
  927MOL0     C27823   1.738  10.870   1.497  0.0140 -0.8164 -0.7247
  927MOL0     O27824   1.676  10.943   1.395 -0.1041 -0.4393 -0.0538
  927MOL0     C27825   1.645  11.081   1.423  0.6112  0.0156  0.1984
  927MOL0     C27826   1.566  11.124   1.299  0.9783 -0.2941 -0.6260
  927MOL0     C27827   1.522  11.271   1.312  0.0186  0.5270 -1.0957
  927MOL0     C27828   1.408  11.295   1.219 -0.2614 -0.1079 -0.1100
  927MOL0     C27829   1.387  11.442   1.189 -0.6757 -0.2623  0.4694
  927MOL0     C27830   1.277  11.447   1.091 -0.6464 -0.9311  0.6209
  927MOL0     C27831   1.281  11.587   1.016 -0.9046 -0.2624 -0.4265
  927MOL0     C27832   1.203  11.579   0.889  0.2649 -0.3778 -0.4559
  927MOL0    Cl27833   1.302  11.472   0.774 -0.3761  0.1858  0.4477
  927MOL0     C27834   1.744  10.729   1.476  0.2042 -0.4408  0.4831
  927MOL0     C27835   1.809  10.640   1.558 -0.3564 -0.4642 -0.0452
  927MOL0     O27836   2.006  10.451   1.633  0.8554 -0.3662  0.3512
  927MOL0     C27837   2.093  10.277   1.832  0.9060  0.0844 -1.1526
  927MOL0     C27838   2.146  10.201   1.939  0.4778 -0.6751  0.2625
  927MOL0     N27839   2.675   9.697   2.176 -0.0289 -0.7860 -0.4217
  927MOL0     N27840   2.777   9.616   2.163  0.2981  0.1794  0.8056
  927MOL0     C27841   3.855   8.968   2.530  0.6486 -0.5408 -0.1346
  927MOL0     C27842   3.954   8.901   2.458  0.9121  0.8071 -0.5813
  927MOL0     C27843   4.364   8.890   2.271 -0.7704  0.0864 -0.4306
  927MOL0     C27844   4.375   8.805   2.162  0.2308  0.2639 -0.5207
  927MOL0     C27845   4.498   8.744   2.121  0.0309 -0.1559 -0.9154
  927MOL0     C27846   4.615   8.780   2.193 -0.1190  0.2866 -0.4001
  927MOL0     O27847   4.735   8.717   2.149  0.1085 -0.1543  0.2745
  927MOL0     C27848   4.847   8.715   2.232  0.1766 -0.6597 -0.3132
  927MOL0     C27849   4.951   8.613   2.173  0.6133 -0.4499 -0.1156
  927MOL0     C27850   5.093   8.627   2.223 -0.2505  0.0509 -1.1558
  927MOL0     C27851   5.176   8.532   2.144  0.2293  1.0338 -0.0460
  927MOL0     C27852   5.314   8.525   2.195 -0.2893 -0.6478  0.7167
  927MOL0     C27853   5.426   8.517   2.245  0.2438  2.1619  1.0536
  927MOL0     C27854   4.608   8.863   2.303  0.2586 -0.0664  0.1063
  927MOL0     C27855   4.482   8.923   2.341 -0.3362 -0.0028 -1.0268
  927MOL0     C27856   4.498   8.990   2.478  0.2013 -0.1448 -0.4777
  927MOL0     H27857   3.940   9.082   2.177  0.7867 -0.9478  0.3582
  927MOL0     H27858   3.747   9.192   2.296 -0.1670 -1.4043 -1.7868
  927MOL0     H27859   3.551   9.205   2.403 -0.1311  0.0935 -0.4162
  927MOL0     H27860   3.641   9.321   2.496  0.8821 -1.3680 -1.1804
  927MOL0     H27861   3.431   9.139   2.615  1.0373 -0.4160 -1.8140
  927MOL0     H27862   3.508   9.273   2.709  0.9242 -0.4752 -0.2576
  927MOL0     H27863   3.430   9.433   2.534  1.9572 -0.5198  1.2340
  927MOL0     H27864   3.358   9.301   2.441  1.6465  1.9103 -0.8700
  927MOL0     H27865   3.210   9.243   2.605 -0.7113  0.8367  1.6494
  927MOL0     H27866   3.264   9.352   2.728  0.3938 -0.6644 -0.0072
  927MOL0     H27867   3.134   9.536   2.616 -2.5148 -1.1367  2.3080
  927MOL0     H27868   3.037   9.390   2.624  0.6926 -2.9906  1.3786
  927MOL0     H27869   3.191   9.501   2.394  0.6692 -0.1600  1.8495
  927MOL0     H27870   3.113   9.340   2.375  1.7266  0.0993 -1.1112
  927MOL0     H27871   2.937   9.553   2.476  0.7804  0.7239 -0.1546
  927MOL0     H27872   2.902   9.416   2.373  3.4968 -4.3219  0.3238
  927MOL0     H27873   3.063   9.693   2.292 -0.0339  0.1581 -0.4328
  927MOL0     H27874   3.016   9.546   2.197  2.2744 -2.2728  1.9130
  927MOL0     H27875   2.850   9.799   2.424  0.8266  0.3938 -1.6122
  927MOL0     H27876   2.652   9.975   2.359  2.9807 -0.6764 -1.5405
  927MOL0     H27877   2.537   9.843   2.422  4.4050 -1.7466  1.4249
  927MOL0     H27878   2.536   9.937   2.131 -0.9544  0.4526 -1.3672
  927MOL0     H27879   2.420   9.831   2.216 -0.2905  0.9879 -1.2257
  927MOL0     H27880   2.328  10.010   2.345  0.7468 -2.8124 -0.4592
  927MOL0     H27881   2.450  10.122   2.293  0.2125  1.0844 -0.1456
  927MOL0     H27882   2.358  10.079   2.058 -2.7623 -0.0965 -1.9949
  927MOL0     H27883   2.224   9.986   2.128 -1.0075 -0.8138  3.5836
  927MOL0     H27884   2.113  10.417   2.199  0.5899 -0.6761 -0.4868
  927MOL0     H27885   1.867  10.569   2.012  0.2161  0.0593  2.0480
  927MOL0     H27886   2.021  10.667   2.026 -3.2438  2.6002  0.1351
  927MOL0     H27887   1.963  10.569   2.157  0.9378 -1.6236  0.4079
  927MOL0     H27888   1.914  10.862   1.792  0.6945  1.1339  0.1708
  927MOL0     H27889   1.796  11.028   1.630 -1.4450  0.0124 -1.3356
  927MOL0     H27890   1.594  11.082   1.520 -0.3469 -2.6277 -0.2027
  927MOL0     H27891   1.742  11.129   1.435  0.4739 -0.3451  3.5989
  927MOL0     H27892   1.639  11.107   1.219  2.8642 -2.7299  1.4493
  927MOL0     H27893   1.475  11.064   1.291  1.0502 -0.3012 -1.4205
  927MOL0     H27894   1.609  11.332   1.283  3.0142 -2.2255  1.3059
  927MOL0     H27895   1.492  11.303   1.412 -0.2273  3.1071 -1.8955
  927MOL0     H27896   1.318  11.252   1.263  0.9179 -1.0010  1.5388
  927MOL0     H27897   1.426  11.252   1.120  1.5910  1.7680 -0.6752
  927MOL0     H27898   1.363  11.504   1.275 -0.0287  0.1934  0.3268
  927MOL0     H27899   1.477  11.492   1.154  0.9291  0.1704  4.6729
  927MOL0     H27900   1.186  11.439   1.151 -1.9640 -1.5314 -1.3646
  927MOL0     H27901   1.290  11.361   1.025 -0.5167 -3.2469  3.4647
  927MOL0     H27902   1.384  11.611   0.991  0.1657 -1.1929  2.6605
  927MOL0     H27903   1.242  11.666   1.082 -1.7927 -0.1392 -1.0703
  927MOL0     H27904   1.191  11.675   0.838  1.1018 -1.1794 -2.2190
  927MOL0     H27905   1.098  11.546   0.892 -0.0423  0.4474 -1.6104
  927MOL0     H27906   1.692  10.692   1.388 -1.2219  1.2113  0.5903
  927MOL0     H27907   1.797  10.537   1.527 -0.2814 -1.4338  2.9110
  927MOL0     H27908   2.079  10.221   1.740 -0.0216 -0.2014 -0.8487
  927MOL0     H27909   2.164  10.095   1.925  0.9174 -0.4460 -1.1211
  927MOL0     H27910   3.838   8.933   2.631  2.6771 -2.9982 -0.5384
  927MOL0     H27911   4.001   8.818   2.511 -1.7606  0.6220  1.7622
  927MOL0     H27912   4.294   8.774   2.095 -2.2366  1.8163  1.5806
  927MOL0     H27913   4.495   8.678   2.035 -2.3065 -0.9083 -0.3337
  927MOL0     H27914   4.883   8.817   2.215  1.3570 -1.1510 -0.8539
  927MOL0     H27915   4.811   8.698   2.334 -1.0406  1.0774 -0.3952
  927MOL0     H27916   4.943   8.616   2.064 -3.0804 -1.1019  0.0193
  927MOL0     H27917   4.904   8.517   2.197 -1.1961  0.7089  1.2845
  927MOL0     H27918   5.134   8.729   2.219  3.7975 -1.3869 -0.7612
  927MOL0     H27919   5.093   8.602   2.330 -0.5887 -0.8767 -1.3631
  927MOL0     H27920   5.180   8.565   2.040  0.8775  1.5809  0.1438
  927MOL0     H27921   5.134   8.431   2.151  2.2297  0.2081  0.9434
  927MOL0     H27922   5.528   8.498   2.272 -0.1777 -2.0839  0.3653
  927MOL0     H27923   4.693   8.903   2.358  0.4806 -1.8618  1.1848
  927MOL0     H27924   4.403   8.988   2.534  0.6629  0.5404  0.3536
  927MOL0     H27925   4.570   8.933   2.538 -0.8041 -1.3075 -0.3167
  927MOL0     H27926   4.527   9.095   2.466 -2.7923  0.7722 -0.7349
  928MOL0     O27927   7.016   9.649   7.009 -0.3480 -0.2821 -0.0840
  928MOL0     C27928   6.923   9.567   7.017 -0.3373 -1.0612 -0.5507
  928MOL0     O27929   6.869   9.527   7.137  0.1904  0.7094 -0.6423
  928MOL0     C27930   6.888   9.603   7.255  0.7194  0.2782  0.3203
  928MOL0     C27931   6.899   9.742   7.254  0.7607 -1.2870  0.3754
  928MOL0     C27932   6.920   9.821   7.366  0.1885  0.9000 -0.0141
  928MOL0     C27933   6.919   9.755   7.491 -0.3341  0.3841  1.1381
  928MOL0     O27934   6.917   9.837   7.601  0.4725  0.2796  0.3344
  928MOL0     C27935   6.969   9.785   7.720  0.7494 -0.4427  0.0474
  928MOL0     C27936   7.016   9.903   7.809  0.2659 -0.8521 -0.6062
  928MOL0     C27937   7.152   9.945   7.751 -0.2966 -0.4423 -0.3659
  928MOL0     C27938   7.262   9.856   7.813 -0.1530  0.0694  0.1307
  928MOL0     C27939   7.403   9.901   7.768  0.4672  0.2063 -0.0214
  928MOL0     C27940   7.512   9.832   7.848 -0.2788 -0.0731 -0.6436
  928MOL0     C27941   7.521   9.677   7.853 -0.3196  0.3763 -0.5849
  928MOL0     C27942   7.538   9.625   7.709  0.7459 -0.1867  0.3123
  928MOL0     N27943   7.669   9.651   7.646  0.2272 -0.1761 -0.2278
  928MOL0     C27944   7.768   9.559   7.614  0.6990  0.2396  0.7161
  928MOL0     C27945   7.848   9.624   7.518  0.3405 -0.0743 -0.7524
  928MOL0     C27946   7.960   9.539   7.460  0.1557  0.5886 -0.1358
  928MOL0     C27947   7.932   9.525   7.316  0.2781  0.9269 -0.1124
  928MOL0     C27948   7.964   9.649   7.237 -0.6566 -0.3958  0.7627
  928MOL0     C27949   8.107   9.697   7.239  0.0349  0.4748 -0.2445
  928MOL0     O27950   8.122   9.810   7.156  0.1141  0.1463 -0.8624
  928MOL0     C27951   8.136   9.933   7.219 -0.1112  1.1420  0.0432
  928MOL0     C27952   8.059   9.969   7.327 -0.3893 -0.2393 -0.6907
  928MOL0     C27953   8.075  10.092   7.400 -1.0639  0.4773  0.4869
  928MOL0     C27954   7.983  10.131   7.511 -0.2642 -0.3881 -0.2263
  928MOL0     C27955   8.181  10.185   7.358  0.1227  0.3467 -0.3493
  928MOL0     C27956   8.217  10.320   7.425 -0.7622 -1.3448 -0.7054
  928MOL0     O27957   8.308  10.394   7.348  0.0046  0.4135 -0.4973
  928MOL0     C27958   8.382  10.492   7.413  0.0762  0.7994 -0.2957
  928MOL0     C27959   8.487  10.471   7.492  0.3389  0.1014 -0.9432
  928MOL0     C27960   8.543  10.572   7.562  0.7732 -0.6521 -0.7676
  928MOL0     C27961   8.498  10.707   7.547 -0.6334  0.7937 -1.0640
  928MOL0     O27962   8.557  10.802   7.619 -0.1322 -0.0816 -0.2950
  928MOL0     C27963   8.671  10.880   7.567  0.2178 -0.3046 -0.5398
  928MOL0     C27964   8.628  11.011   7.528  0.0861 -1.2463 -0.0483
  928MOL0     C27965   8.730  11.081   7.439  0.5986  0.1887 -0.4753
  928MOL0     C27966   8.730  11.238   7.442 -0.0420  0.5137 -0.4556
  928MOL0     C27967   8.790  11.276   7.579  0.3622 -0.6064 -0.2151
  928MOL0     C27968   8.938  11.238   7.606 -0.0861  0.8500  0.3778
  928MOL0     C27969   8.998  11.318   7.729  0.5180 -0.5797  1.3503
  928MOL0     C27970   9.128  11.260   7.776  0.4143 -0.1820 -0.3120
  928MOL0    Cl27971   9.241  11.247   7.634 -0.3638 -0.2145 -0.4438
  928MOL0     C27972   8.407  10.738   7.449 -1.2937 -0.4989  0.5238
  928MOL0     C27973   8.341  10.627   7.390 -0.5046  0.2457 -0.0872
  928MOL0     O27974   8.186  10.346   7.545  0.5839 -0.0363  0.2878
  928MOL0     C27975   8.246  10.146   7.242  1.2935 -0.1506 -0.2474
  928MOL0     C27976   8.232  10.020   7.183  0.3915 -0.5250  0.9044
  928MOL0     N27977   7.795   9.745   7.498 -0.2431 -0.4997 -0.4220
  928MOL0     N27978   7.687   9.760   7.565  0.1109 -0.5481 -0.0483
  928MOL0     C27979   6.892   9.621   7.501 -0.6313 -0.0418  0.0518
  928MOL0     C27980   6.880   9.541   7.385  0.8072  0.3104  0.8631
  928MOL0     C27981   6.886   9.491   6.905 -0.2755  0.0533 -0.1537
  928MOL0     C27982   6.745   9.479   6.879 -0.0921  0.1277 -0.7916
  928MOL0     C27983   6.700   9.405   6.771  0.1134  0.1476  0.5083
  928MOL0     C27984   6.788   9.342   6.682 -0.3538  0.2273 -0.1255
  928MOL0     O27985   6.733   9.261   6.583 -0.3186 -0.6514 -1.1150
  928MOL0     C27986   6.810   9.216   6.470 -0.5445  0.6568 -0.3275
  928MOL0     C27987   6.732   9.123   6.389 -0.3567 -0.0315  0.0514
  928MOL0     C27988   6.605   9.186   6.338 -0.3060 -0.2413 -1.0733
  928MOL0     C27989   6.527   9.103   6.238  0.3714  0.3405  1.5436
  928MOL0     C27990   6.484   8.961   6.281 -0.1926 -0.1732 -0.1622
  928MOL0     C27991   6.446   8.854   6.309  0.3675 -0.2548 -0.1752
  928MOL0     C27992   6.927   9.365   6.711  0.0076 -0.0196 -0.0210
  928MOL0     C27993   6.980   9.437   6.816 -0.0352 -0.6087  0.4340
  928MOL0     C27994   7.133   9.472   6.821  0.1027 -0.0681 -0.0560
  928MOL0     H27995   6.897   9.793   7.159  0.9128 -2.5749 -0.3363
  928MOL0     H27996   6.925   9.929   7.371 -3.5815  1.1516  2.0385
  928MOL0     H27997   7.046   9.707   7.707  1.2098 -0.0102  0.1501
  928MOL0     H27998   6.898   9.738   7.788 -0.8053  2.5081  0.6055
  928MOL0     H27999   6.942   9.984   7.801 -0.3328 -1.2703  0.5622
  928MOL0     H28000   7.021   9.863   7.910  0.3018 -1.2797 -0.7729
  928MOL0     H28001   7.149   9.947   7.641  0.2639 -0.8770 -0.3912
  928MOL0     H28002   7.174  10.039   7.804 -1.8148 -1.4442  2.1999
  928MOL0     H28003   7.261   9.845   7.922 -1.6436 -1.5205 -0.0042
  928MOL0     H28004   7.255   9.756   7.770  0.3734 -0.0137  0.2276
  928MOL0     H28005   7.412  10.009   7.787 -0.7800  0.3074  0.0281
  928MOL0     H28006   7.413   9.893   7.659  0.9645  1.4937 -0.0962
  928MOL0     H28007   7.610   9.864   7.813 -1.0095 -0.1472 -2.9110
  928MOL0     H28008   7.502   9.858   7.954 -3.0290 -1.6135 -0.4326
  928MOL0     H28009   7.432   9.633   7.898  0.3011  0.8748  1.2142
  928MOL0     H28010   7.606   9.646   7.914  0.7001  1.9096 -1.1491
  928MOL0     H28011   7.515   9.518   7.704 -2.3879  0.4476 -1.6830
  928MOL0     H28012   7.459   9.667   7.646  0.1850 -2.3637 -0.5274
  928MOL0     H28013   7.786   9.454   7.634  5.0757  0.2408 -1.7991
  928MOL0     H28014   7.968   9.438   7.502  2.9557  0.7155 -0.1661
  928MOL0     H28015   8.058   9.582   7.486  0.7050 -0.9251  0.4562
  928MOL0     H28016   7.982   9.441   7.267 -2.7316 -1.8188  1.0853
  928MOL0     H28017   7.826   9.501   7.300  0.4948 -0.8072  0.8390
  928MOL0     H28018   7.949   9.618   7.133  1.9580 -0.1789  0.2519
  928MOL0     H28019   7.895   9.732   7.256  1.0691  0.9258  1.5433
  928MOL0     H28020   8.123   9.725   7.344 -1.6353 -3.8051  1.3556
  928MOL0     H28021   8.188   9.627   7.215 -1.3900 -0.7114 -1.8033
  928MOL0     H28022   7.974   9.905   7.346 -1.3299  0.9883 -0.6257
  928MOL0     H28023   8.049  10.118   7.598  1.8092 -2.2420 -1.9414
  928MOL0     H28024   7.884  10.085   7.515 -1.6318  2.3877  1.8182
  928MOL0     H28025   7.963  10.238   7.496  0.0067 -0.5356 -1.8286
  928MOL0     H28026   8.518  10.367   7.489 -0.7577 -0.4510  2.1951
  928MOL0     H28027   8.622  10.555   7.633 -0.4689  1.5359  1.2739
  928MOL0     H28028   8.745  10.890   7.647 -0.5440 -0.6332  0.2213
  928MOL0     H28029   8.715  10.821   7.486  1.6319 -2.5603  1.7223
  928MOL0     H28030   8.534  11.001   7.473 -0.1765  1.2154 -0.1209
  928MOL0     H28031   8.595  11.061   7.619 -2.8773 -2.3488 -0.4162
  928MOL0     H28032   8.712  11.045   7.337 -0.0032 -1.2931  0.1152
  928MOL0     H28033   8.827  11.033   7.458  0.3491 -0.5076 -0.9031
  928MOL0     H28034   8.631  11.282   7.426 -1.0534 -1.5498 -0.1356
  928MOL0     H28035   8.792  11.281   7.362 -0.2752  2.2227  0.2314
  928MOL0     H28036   8.784  11.386   7.579 -4.3688 -0.6577 -0.5871
  928MOL0     H28037   8.725  11.226   7.651  1.7993  2.0008  3.1598
  928MOL0     H28038   8.997  11.261   7.517  0.8029  1.8514  1.1927
  928MOL0     H28039   8.951  11.132   7.629  1.4279  0.2835 -2.6214
  928MOL0     H28040   8.923  11.310   7.809 -0.1707  0.8597  0.8688
  928MOL0     H28041   9.013  11.422   7.700 -0.8094 -1.4292 -3.1818
  928MOL0     H28042   9.107  11.166   7.828 -2.4317 -0.0217 -0.9696
  928MOL0     H28043   9.171  11.332   7.846  1.2378 -1.0990  0.1269
  928MOL0     H28044   8.381  10.841   7.428 -0.9275 -0.7544 -1.3531
  928MOL0     H28045   8.269  10.648   7.312  0.7801 -1.4460 -1.8341
  928MOL0     H28046   8.323  10.202   7.189  2.1975 -2.3278 -1.3555
  928MOL0     H28047   8.287  10.002   7.091 -1.7627  0.1780 -0.5926
  928MOL0     H28048   6.893   9.576   7.600 -2.9697 -0.5819 -0.0965
  928MOL0     H28049   6.870   9.433   7.380  2.9830  0.1120 -3.3049
  928MOL0     H28050   6.664   9.521   6.938 -1.2881 -2.7866 -0.1675
  928MOL0     H28051   6.596   9.375   6.760  0.9094 -1.8552 -3.5399
  928MOL0     H28052   6.851   9.299   6.411  1.0458 -0.3930 -0.7688
  928MOL0     H28053   6.898   9.160   6.503 -0.5526  2.0257  2.2556
  928MOL0     H28054   6.716   9.030   6.444 -1.3253 -0.2102 -0.5020
  928MOL0     H28055   6.797   9.092   6.307  2.1040 -3.7102  3.0276
  928MOL0     H28056   6.531   9.210   6.415  1.3650  0.5359  0.3547
  928MOL0     H28057   6.634   9.284   6.300  2.0412  0.3104  1.8029
  928MOL0     H28058   6.592   9.100   6.151 -0.4884  1.2067  0.8476
  928MOL0     H28059   6.435   9.154   6.209  2.3464  2.1370 -2.2622
  928MOL0     H28060   6.409   8.756   6.330 -0.8054 -0.2611 -2.1041
  928MOL0     H28061   7.004   9.335   6.641 -0.5957  3.3826 -2.3845
  928MOL0     H28062   7.192   9.425   6.742  0.7600 -0.4828  0.6653
  928MOL0     H28063   7.140   9.581   6.806 -0.5224  0.2036  1.4398
  928MOL0     H28064   7.171   9.445   6.920  2.1353  3.3386  0.2912
  929MOL0     O28065   4.024   1.690  11.035 -0.4805 -0.2379  0.2751
  929MOL0     C28066   3.926   1.678  10.960 -0.7894  0.4102  0.2434
  929MOL0     O28067   3.927   1.627  10.825  0.5153 -0.2507 -0.3192
  929MOL0     C28068   4.047   1.572  10.778  0.0998  0.0838  0.3120
  929MOL0     C28069   4.153   1.507  10.844  0.0916  0.3769 -0.3436
  929MOL0     C28070   4.269   1.467  10.771  0.3014  0.4904  0.3206
  929MOL0     C28071   4.267   1.473  10.629 -0.1131  1.1554 -0.4444
  929MOL0     O28072   4.377   1.419  10.570 -0.4661 -0.1265  0.1669
  929MOL0     C28073   4.479   1.505  10.515  0.1378  0.1611 -0.3203
  929MOL0     C28074   4.611   1.436  10.499  0.7405  0.3094 -0.2336
  929MOL0     C28075   4.729   1.516  10.440  0.1526 -0.1114 -0.0264
  929MOL0     C28076   4.851   1.430  10.401 -0.5584  0.4001 -0.8718
  929MOL0     C28077   4.920   1.357  10.509  0.5395 -0.4799 -1.0502
  929MOL0     C28078   5.011   1.236  10.471  0.0252  0.3797 -0.0321
  929MOL0     C28079   5.123   1.261  10.362 -0.1348  0.3977 -0.1665
  929MOL0     C28080   5.194   1.385  10.390 -0.1346 -0.4586  0.0437
  929MOL0     N28081   5.274   1.424  10.271 -0.3399 -0.2401  0.1858
  929MOL0     C28082   5.390   1.357  10.224 -0.7266 -0.0562 -0.1925
  929MOL0     C28083   5.433   1.451  10.131  0.0059 -0.0410  0.3130
  929MOL0     C28084   5.555   1.440  10.052  0.0416  0.5137  0.0908
  929MOL0     C28085   5.674   1.491  10.119  0.1784  0.1167 -0.2288
  929MOL0     C28086   5.725   1.412  10.238 -0.3014  0.4370  0.2028
  929MOL0     C28087   5.858   1.467  10.283 -0.0657 -0.1398  0.3298
  929MOL0     O28088   5.959   1.436  10.184 -0.7249  0.0720  0.0759
  929MOL0     C28089   6.087   1.485  10.209 -0.5657  0.1338 -0.1518
  929MOL0     C28090   6.128   1.557  10.323  0.5653  0.1070  0.4274
  929MOL0     C28091   6.252   1.613  10.338 -0.5798 -1.2770  0.0397
  929MOL0     C28092   6.292   1.677  10.469  0.3658  0.5624 -0.8832
  929MOL0     C28093   6.333   1.614  10.222  0.3560  0.0008 -0.4232
  929MOL0     C28094   6.465   1.689  10.225 -0.5009  0.5117 -0.9147
  929MOL0     O28095   6.443   1.820  10.257  0.0807 -0.6121 -0.0643
  929MOL0     C28096   6.551   1.904  10.235 -0.0862  0.1369  0.6778
  929MOL0     C28097   6.652   1.919  10.335  0.8684  0.1630  0.4442
  929MOL0     C28098   6.759   2.002  10.301 -0.6933  0.1405 -0.5708
  929MOL0     C28099   6.783   2.057  10.170  1.6747  0.4636  0.1286
  929MOL0     O28100   6.895   2.124  10.134 -0.1029 -0.1462  0.7836
  929MOL0     C28101   7.001   2.146  10.221  0.4590 -0.1438 -0.7598
  929MOL0     C28102   7.130   2.188  10.147 -0.3835 -0.3468 -0.1810
  929MOL0     C28103   7.219   2.061  10.105  0.7413 -0.2018 -0.8872
  929MOL0     C28104   7.321   2.109  10.010  0.0039  0.0642  0.0166
  929MOL0     C28105   7.397   1.986   9.951 -0.8666  0.2856  0.0419
  929MOL0     C28106   7.315   1.902   9.846 -0.0796  0.7080  0.2587
  929MOL0     C28107   7.392   1.777   9.799  0.2996 -0.0690  0.5363
  929MOL0     C28108   7.303   1.659   9.757  0.7213 -0.0850 -0.2098
  929MOL0    Cl28109   7.209   1.704   9.614  0.4540 -0.2660  0.2238
  929MOL0     C28110   6.678   2.042  10.079  0.2577  0.3390  0.3937
  929MOL0     C28111   6.557   1.973  10.119  0.1970 -0.6372  0.7277
  929MOL0     O28112   6.564   1.640  10.181 -0.5505 -0.2610  0.2964
  929MOL0     C28113   6.307   1.522  10.115 -0.5219 -0.1047 -0.4343
  929MOL0     C28114   6.182   1.460  10.110  0.4606  0.3333 -0.3737
  929MOL0     N28115   5.352   1.568  10.127  0.3581 -0.2774 -0.1649
  929MOL0     N28116   5.252   1.544  10.210 -0.0423  0.2651  1.1533
  929MOL0     C28117   4.155   1.522  10.561 -1.0033 -0.5924  0.3862
  929MOL0     C28118   4.054   1.582  10.635  0.4675  0.6801 -0.6643
  929MOL0     C28119   3.794   1.741  11.000 -0.0785  0.1481 -1.0174
  929MOL0     C28120   3.795   1.817  11.123 -0.1202 -0.5860 -0.1430
  929MOL0     C28121   3.677   1.874  11.171 -0.7025 -1.0263  0.7622
  929MOL0     C28122   3.560   1.859  11.110  0.4213 -0.2190  0.6542
  929MOL0     O28123   3.456   1.927  11.170  0.3685  0.3775  0.4232
  929MOL0     C28124   3.325   1.920  11.127 -0.2269  0.8301  0.8503
  929MOL0     C28125   3.234   1.910  11.238  0.3028 -0.0652 -0.1367
  929MOL0     C28126   3.226   1.776  11.298 -0.6659  0.9285 -0.3393
  929MOL0     C28127   3.146   1.781  11.421  0.4838  0.1654 -0.7270
  929MOL0     C28128   3.094   1.651  11.472 -0.3446 -0.8712 -0.3559
  929MOL0     C28129   3.061   1.548  11.526  0.9446 -0.4188  0.7620
  929MOL0     C28130   3.558   1.788  10.986  0.2404  0.3920  0.1778
  929MOL0     C28131   3.672   1.731  10.933 -0.3383 -0.0386  1.4642
  929MOL0     C28132   3.662   1.650  10.798  0.3078  0.4076 -0.3148
  929MOL0     H28133   4.152   1.501  10.953 -0.1009  0.7811 -0.3205
  929MOL0     H28134   4.351   1.420  10.826  1.5066  0.7222 -1.2160
  929MOL0     H28135   4.494   1.589  10.585 -0.5460 -2.0265  2.6335
  929MOL0     H28136   4.440   1.547  10.422  0.0178 -1.2575 -0.9303
  929MOL0     H28137   4.642   1.382  10.589  1.1766  0.4318 -0.3088
  929MOL0     H28138   4.606   1.354  10.427  3.4019  0.0908 -0.2596
  929MOL0     H28139   4.687   1.562  10.350 -1.1037  1.3677  1.2462
  929MOL0     H28140   4.760   1.587  10.518 -2.2175 -0.2322  1.1339
  929MOL0     H28141   4.805   1.351  10.341 -3.4949  1.2382  0.0866
  929MOL0     H28142   4.918   1.486  10.335 -1.2930  1.3513 -0.8377
  929MOL0     H28143   4.850   1.315  10.580  0.6272  0.3010 -0.4865
  929MOL0     H28144   4.963   1.434  10.575 -3.1190 -0.2607  1.3407
  929MOL0     H28145   5.060   1.206  10.564 -0.0465 -1.3742 -0.5226
  929MOL0     H28146   4.955   1.151  10.431 -1.7957  0.9694  1.1655
  929MOL0     H28147   5.091   1.260  10.257  0.3728 -1.2324 -0.3271
  929MOL0     H28148   5.201   1.186  10.373 -0.9393 -0.1889  2.0626
  929MOL0     H28149   5.125   1.465  10.415 -1.6040 -0.8033 -2.5588
  929MOL0     H28150   5.249   1.375  10.484 -0.9164 -0.2771  0.5274
  929MOL0     H28151   5.430   1.263  10.262 -0.8949  0.4410  1.2712
  929MOL0     H28152   5.550   1.498   9.960  0.7159 -1.2359 -1.0972
  929MOL0     H28153   5.560   1.333  10.029  0.2317  0.8468 -1.5010
  929MOL0     H28154   5.761   1.489  10.052  0.0097  0.3836 -0.4573
  929MOL0     H28155   5.646   1.594  10.145 -2.8162 -0.5694 -0.3872
  929MOL0     H28156   5.657   1.416  10.323 -0.0575 -3.5703  0.7561
  929MOL0     H28157   5.728   1.304  10.221 -2.2771  0.2196  0.9413
  929MOL0     H28158   5.847   1.575  10.298 -4.6892 -0.5987  1.9937
  929MOL0     H28159   5.881   1.423  10.380 -1.4729  0.3979  0.9338
  929MOL0     H28160   6.072   1.560  10.416  0.6781 -3.4641  0.7696
  929MOL0     H28161   6.369   1.614  10.512  0.1840  2.1332  1.9647
  929MOL0     H28162   6.214   1.675  10.545  0.4645  1.7201 -0.7223
  929MOL0     H28163   6.314   1.784  10.460  0.0213  0.8774  1.4912
  929MOL0     H28164   6.634   1.853  10.419 -2.0813  0.9193  0.5350
  929MOL0     H28165   6.839   1.997  10.374  0.1352 -1.1849 -1.5277
  929MOL0     H28166   6.968   2.224  10.291 -1.3579 -2.5195  1.2114
  929MOL0     H28167   7.029   2.062  10.285 -0.0253  1.5348  1.8345
  929MOL0     H28168   7.097   2.240  10.056 -1.7587 -0.7596  0.0606
  929MOL0     H28169   7.194   2.245  10.215  1.7573 -0.8703 -1.6631
  929MOL0     H28170   7.148   1.998  10.049  2.2467 -1.8325 -1.0376
  929MOL0     H28171   7.275   2.002  10.178 -0.9888 -0.3433  0.3872
  929MOL0     H28172   7.393   2.172  10.064 -1.3793  0.2633  1.7093
  929MOL0     H28173   7.279   2.173   9.932 -3.3792  0.0037  1.6278
  929MOL0     H28174   7.493   2.011   9.906 -0.4875 -0.2904  0.5118
  929MOL0     H28175   7.422   1.918  10.033  5.1955 -0.9706 -2.3418
  929MOL0     H28176   7.302   1.972   9.762 -1.0209  2.5299  1.8366
  929MOL0     H28177   7.215   1.876   9.883  0.1682  1.8865  1.8733
  929MOL0     H28178   7.461   1.745   9.877 -1.2586 -0.7630  1.6890
  929MOL0     H28179   7.450   1.793   9.707 -2.0969 -1.0127 -1.2603
  929MOL0     H28180   7.248   1.627   9.846  1.9279  0.3768  0.7357
  929MOL0     H28181   7.372   1.576   9.738  0.0711 -0.1516 -2.5483
  929MOL0     H28182   6.711   2.077   9.982  2.6040  1.3685  1.4745
  929MOL0     H28183   6.475   1.955  10.050  2.1355 -2.2543 -1.3419
  929MOL0     H28184   6.382   1.495  10.041 -1.0101  0.0192 -0.9892
  929MOL0     H28185   6.135   1.410  10.026 -0.1237 -0.8433  0.6099
  929MOL0     H28186   4.155   1.531  10.453  0.4146 -3.1079  0.1022
  929MOL0     H28187   3.979   1.630  10.574 -1.5976  0.5158  1.6079
  929MOL0     H28188   3.885   1.836  11.181 -0.7140  1.9277  0.0986
  929MOL0     H28189   3.675   1.929  11.265 -1.1503  1.1010 -0.4302
  929MOL0     H28190   3.292   1.994  11.053  0.7582 -1.3428 -1.9943
  929MOL0     H28191   3.323   1.827  11.069 -1.2916  0.3717  1.5986
  929MOL0     H28192   3.136   1.945  11.206 -0.7571 -1.5678  1.3482
  929MOL0     H28193   3.260   1.990  11.309  1.0875 -0.6506  0.2508
  929MOL0     H28194   3.183   1.704  11.227 -0.5920 -1.3742  1.8089
  929MOL0     H28195   3.329   1.741  11.312  0.4296  3.7255 -0.8733
  929MOL0     H28196   3.053   1.832  11.393  0.5187 -0.3261 -1.7591
  929MOL0     H28197   3.207   1.822  11.503  0.8500 -6.0610  2.7639
  929MOL0     H28198   3.017   1.465  11.577 -2.0434 -0.4636 -1.5591
  929MOL0     H28199   3.466   1.778  10.929  1.4201 -0.9155 -1.6281
  929MOL0     H28200   3.557   1.629  10.775  0.3078  0.6195 -0.5155
  929MOL0     H28201   3.703   1.707  10.713  1.6672  0.0419  0.0781
  929MOL0     H28202   3.706   1.552  10.815  0.6895  1.0057  2.5554
  930MOL0     O28203  10.209   0.568   8.730  0.3562  0.1738 -0.2393
  930MOL0     C28204  10.146   0.549   8.625 -1.1710  0.2484  0.8982
  930MOL0     O28205  10.171   0.449   8.534 -0.5990  0.1054 -0.4407
  930MOL0     C28206  10.241   0.334   8.576 -0.0543  0.0941  0.4423
  930MOL0     C28207  10.166   0.223   8.623 -0.5760  0.3580  0.0613
  930MOL0     C28208  10.229   0.100   8.634 -0.3306  0.5624 -0.6943
  930MOL0     C28209  10.370   0.090   8.631  0.2629 -0.5344 -0.1128
  930MOL0     O28210  10.433  -0.026   8.655  0.0752 -0.1249  0.2783
  930MOL0     C28211  10.408  -0.063   8.794  0.5776 -1.0325 -0.1385
  930MOL0     C28212  10.542  -0.093   8.856 -0.8060  0.2998 -0.1278
  930MOL0     C28213  10.622   0.036   8.871 -0.6589 -0.4877 -0.6897
  930MOL0     C28214  10.720   0.025   8.991 -0.5607 -0.1185  0.6584
  930MOL0     C28215  10.811   0.152   9.007  0.0022 -0.2024  0.4042
  930MOL0     C28216  10.884   0.163   9.144 -0.4774 -0.3689 -0.0855
  930MOL0     C28217  11.009   0.262   9.126  0.3913  0.8329  0.0261
  930MOL0     C28218  11.060   0.299   9.260  0.1532  0.1526  0.2691
  930MOL0     N28219  11.138   0.186   9.307 -0.1096 -0.1720 -0.6340
  930MOL0     C28220  11.262   0.150   9.277 -0.0127  0.2882  0.4262
  930MOL0     C28221  11.280   0.034   9.343 -0.7374 -0.0943 -0.3202
  930MOL0     C28222  11.414  -0.038   9.335  0.0780 -0.4086  1.1289
  930MOL0     C28223  11.489  -0.083   9.465 -0.2434  0.5197 -0.3255
  930MOL0     C28224  11.572   0.025   9.547  1.2893 -0.8566  0.2958
  930MOL0     C28225  11.478   0.093   9.650 -0.3520  0.7332  0.4475
  930MOL0     O28226  11.550   0.182   9.745  0.8527  0.1528  0.4016
  930MOL0     C28227  11.484   0.229   9.861 -0.6326  0.7218  0.0599
  930MOL0     C28228  11.576   0.277   9.956  0.3357 -0.4425  0.2311
  930MOL0     C28229  11.534   0.351  10.061 -0.0989  0.1138  0.0855
  930MOL0     C28230  11.643   0.393  10.156 -0.1939 -0.1438 -0.5959
  930MOL0     C28231  11.396   0.356  10.100 -0.3910 -0.1431  0.0668
  930MOL0     C28232  11.344   0.414  10.223  0.1658  0.0780  0.4723
  930MOL0     O28233  11.209   0.409  10.244  0.5162 -0.5584 -0.0777
  930MOL0     C28234  11.152   0.479  10.339  1.1668 -0.3300 -0.6722
  930MOL0     C28235  11.025   0.435  10.382  0.0285 -0.3392  0.4821
  930MOL0     C28236  10.957   0.498  10.488  0.2723 -0.1808  0.4911
  930MOL0     C28237  10.995   0.616  10.542 -0.0413 -0.2077 -0.1923
  930MOL0     O28238  10.920   0.691  10.635  0.0518  0.6157  0.4214
  930MOL0     C28239  10.850   0.623  10.736 -0.8511  0.3380 -0.9346
  930MOL0     C28240  10.706   0.658  10.725  0.0258 -0.7036 -0.1545
  930MOL0     C28241  10.617   0.576  10.814  0.5545 -0.3977 -0.2593
  930MOL0     C28242  10.467   0.609  10.780  0.4569 -0.0326  0.1796
  930MOL0     C28243  10.373   0.526  10.867  0.3445 -0.3358  0.1764
  930MOL0     C28244  10.229   0.542  10.842  0.5783  0.3236  0.2043
  930MOL0     C28245  10.179   0.657  10.927  0.3045 -0.3014 -0.1936
  930MOL0     C28246  10.034   0.631  10.977  0.8390  0.3650 -0.2726
  930MOL0    Cl28247   9.908   0.627  10.843 -0.1910  0.1804 -0.0084
  930MOL0     C28248  11.110   0.667  10.493 -1.2773  0.2553 -0.0564
  930MOL0     C28249  11.192   0.603  10.400  0.4896 -0.6022 -0.9045
  930MOL0     O28250  11.426   0.441  10.310 -0.4655  0.0352 -0.1994
  930MOL0     C28251  11.299   0.293  10.007 -0.2232  0.4702  0.6904
  930MOL0     C28252  11.344   0.234   9.886 -0.6315 -0.0150  0.3447
  930MOL0     N28253  11.171   0.000   9.412  0.3645  0.1074 -0.4834
  930MOL0     N28254  11.090   0.095   9.396 -0.3007  0.1261  0.2800
  930MOL0     C28255  10.445   0.203   8.578  0.4566  0.0065  0.2045
  930MOL0     C28256  10.376   0.319   8.543  0.2259  0.0583 -0.2674
  930MOL0     C28257  10.033   0.635   8.588  0.7176 -0.0663 -0.3050
  930MOL0     C28258   9.980   0.630   8.453  0.6621  0.3585  0.0926
  930MOL0     C28259   9.868   0.700   8.419  0.5093  0.7015  0.3031
  930MOL0     C28260   9.818   0.800   8.500  0.4936 -0.2499  0.5968
  930MOL0     O28261   9.731   0.888   8.450 -0.6504  0.1366  0.4044
  930MOL0     C28262   9.792   1.018   8.426  0.8298  0.0117 -0.0489
  930MOL0     C28263   9.694   1.136   8.441 -0.4701  0.4301 -0.6422
  930MOL0     C28264   9.591   1.131   8.325  0.1051  0.2058  0.2037
  930MOL0     C28265   9.485   1.244   8.349 -0.1513  0.6358  0.6610
  930MOL0     C28266   9.378   1.249   8.243 -0.4353  0.9369 -0.8238
  930MOL0     C28267   9.283   1.237   8.173  0.3074  0.3015 -0.5910
  930MOL0     C28268   9.862   0.804   8.632 -0.0964  0.7250  0.1300
  930MOL0     C28269   9.964   0.721   8.677  0.0857  0.3236  0.3354
  930MOL0     C28270   9.979   0.730   8.831 -0.0161  0.3462 -0.4167
  930MOL0     H28271  10.058   0.228   8.633 -0.8357  0.6631 -2.2877
  930MOL0     H28272  10.172   0.008   8.647  0.3373  0.1866 -0.3922
  930MOL0     H28273  10.350  -0.156   8.802  2.3303 -2.2306 -0.7525
  930MOL0     H28274  10.358   0.006   8.862  0.2767 -2.6387  1.3472
  930MOL0     H28275  10.523  -0.136   8.955 -3.0456  1.1642 -0.1170
  930MOL0     H28276  10.600  -0.168   8.803 -0.0786  0.6789  0.1129
  930MOL0     H28277  10.679   0.055   8.780 -0.8928 -1.8029 -1.1308
  930MOL0     H28278  10.567   0.128   8.892 -2.3935 -1.6022 -0.0813
  930MOL0     H28279  10.661   0.014   9.083 -2.1171 -1.9625 -0.4964
  930MOL0     H28280  10.794  -0.054   8.975 -0.2210  0.7307 -2.4813
  930MOL0     H28281  10.742   0.236   8.994  0.5816  0.2537  0.2284
  930MOL0     H28282  10.886   0.163   8.927 -1.1079  3.0850 -0.3503
  930MOL0     H28283  10.823   0.196   9.228  2.0855 -0.2986  1.8786
  930MOL0     H28284  10.922   0.063   9.167 -1.9121 -1.0367 -0.5498
  930MOL0     H28285  10.959   0.346   9.079 -1.6299  0.4699  1.3905
  930MOL0     H28286  11.089   0.241   9.055 -0.1159 -0.6330 -0.1522
  930MOL0     H28287  11.111   0.396   9.257 -1.1495  0.8743 -3.1178
  930MOL0     H28288  10.976   0.322   9.325 -2.5681 -1.6244 -2.3452
  930MOL0     H28289  11.346   0.202   9.231  1.7494 -0.2397  2.8198
  930MOL0     H28290  11.484   0.025   9.280 -2.7945  0.4782 -1.8349
  930MOL0     H28291  11.396  -0.117   9.261 -0.8293  1.0444 -0.2708
  930MOL0     H28292  11.420  -0.126   9.537 -0.1678  2.6827  1.1367
  930MOL0     H28293  11.571  -0.153   9.446 -0.2849 -0.5311  2.8965
  930MOL0     H28294  11.646  -0.038   9.598 -0.6140 -3.4034  0.1060
  930MOL0     H28295  11.624   0.099   9.485  2.2102 -0.2920  1.7024
  930MOL0     H28296  11.408   0.159   9.598  0.7194  1.4173 -0.1765
  930MOL0     H28297  11.425   0.016   9.706  0.6576  1.9453  3.2176
  930MOL0     H28298  11.683   0.264   9.939  0.5151 -1.2807  1.8509
  930MOL0     H28299  11.632   0.352  10.256 -1.7937  1.0663 -0.2454
  930MOL0     H28300  11.645   0.502  10.146 -0.9211 -0.1797 -1.2348
  930MOL0     H28301  11.737   0.354  10.114  1.7581  0.7675  2.5858
  930MOL0     H28302  10.983   0.343  10.343  1.0962 -0.7669  0.3019
  930MOL0     H28303  10.865   0.458  10.529 -0.8073  1.5708 -0.0840
  930MOL0     H28304  10.887   0.520  10.733  0.0807  0.6495 -0.4129
  930MOL0     H28305  10.882   0.653  10.836  0.2299 -1.0416 -0.8471
  930MOL0     H28306  10.694   0.766  10.741  0.7532 -0.8144  1.2470
  930MOL0     H28307  10.678   0.647  10.619  2.1859 -0.6821 -0.7884
  930MOL0     H28308  10.632   0.591  10.921  2.0122 -3.4189  0.0915
  930MOL0     H28309  10.625   0.467  10.800  1.5841 -0.4699  0.7085
  930MOL0     H28310  10.459   0.590  10.672 -1.3024 -0.7227  0.4030
  930MOL0     H28311  10.442   0.714  10.801 -0.6422 -0.0555 -0.8900
  930MOL0     H28312  10.383   0.419  10.848 -2.4337 -0.6857  0.3453
  930MOL0     H28313  10.407   0.539  10.971  1.5035 -2.8363  0.1672
  930MOL0     H28314  10.182   0.452  10.881 -0.3197  1.9504  3.2034
  930MOL0     H28315  10.216   0.546  10.734  1.6529 -1.8066 -0.0486
  930MOL0     H28316  10.192   0.759  10.891 -2.6064  0.2983  0.1396
  930MOL0     H28317  10.233   0.646  11.021 -1.3069 -1.8239  0.6307
  930MOL0     H28318   9.993   0.694  11.056 -0.4751  1.9679 -2.1348
  930MOL0     H28319  10.032   0.535  11.030  2.4512 -0.0214 -0.8533
  930MOL0     H28320  11.139   0.755  10.549 -4.7538  3.3406 -2.5802
  930MOL0     H28321  11.276   0.664  10.367  1.3570 -0.1338  1.8930
  930MOL0     H28322  11.194   0.296  10.037 -0.4237  2.2754 -0.0574
  930MOL0     H28323  11.264   0.195   9.824 -0.1795  1.4416 -1.2302
  930MOL0     H28324  10.551   0.190   8.561  1.0908 -0.3232  3.6476
  930MOL0     H28325  10.427   0.400   8.492  0.5371  1.8090  2.5800
  930MOL0     H28326  10.029   0.573   8.374  1.4862  1.4341 -0.1995
  930MOL0     H28327   9.839   0.687   8.315 -2.4020 -1.1126  1.2042
  930MOL0     H28328   9.876   1.030   8.495  0.0176  1.2281  0.7712
  930MOL0     H28329   9.838   1.014   8.327  0.6616  0.4864 -0.1503
  930MOL0     H28330   9.739   1.236   8.434 -1.6459  1.0737  0.6598
  930MOL0     H28331   9.646   1.133   8.538  0.2171  1.1840 -0.2585
  930MOL0     H28332   9.641   1.138   8.228 -2.3453 -0.1845 -1.1569
  930MOL0     H28333   9.530   1.040   8.327 -1.7300  1.3252 -1.4593
  930MOL0     H28334   9.544   1.337   8.354  0.6746  0.1825 -0.3684
  930MOL0     H28335   9.433   1.242   8.445 -0.9985  0.2748  0.1955
  930MOL0     H28336   9.201   1.241   8.104  1.4018  0.2075 -1.9329
  930MOL0     H28337   9.812   0.877   8.695  1.5470 -0.5080  3.0776
  930MOL0     H28338  10.019   0.826   8.864 -3.3124  0.9731  2.3076
  930MOL0     H28339   9.883   0.735   8.884  0.6799  2.3223  0.7681
  930MOL0     H28340  10.049   0.656   8.870  2.1881  2.6381  0.2609
  931MOL0     O28341   9.397   7.688   6.273  0.3366  0.0825 -0.3284
  931MOL0     C28342   9.314   7.772   6.280  0.8111  1.3325 -0.8415
  931MOL0     O28343   9.339   7.903   6.304  0.6823 -0.0892  0.5778
  931MOL0     C28344   9.447   7.964   6.260 -0.4451 -1.2433 -0.4368
  931MOL0     C28345   9.461   8.012   6.132 -0.1559 -0.0573 -0.3113
  931MOL0     C28346   9.579   8.077   6.087  0.9989 -0.1919  0.2559
  931MOL0     C28347   9.678   8.108   6.182  0.0699 -0.6337 -0.3244
  931MOL0     O28348   9.791   8.184   6.156  0.2117  0.1924 -0.1177
  931MOL0     C28349   9.815   8.222   6.020 -0.4620 -0.0132 -0.5971
  931MOL0     C28350   9.905   8.111   5.953  1.0946 -0.4478 -0.9410
  931MOL0     C28351  10.044   8.109   6.012  0.6800  0.1365 -0.5780
  931MOL0     C28352  10.125   8.003   5.928  0.7350  0.0070  0.2674
  931MOL0     C28353  10.261   7.990   5.984  0.1180  0.6828 -0.0516
  931MOL0     C28354  10.366   8.095   5.940 -0.1833  0.0519  0.3836
  931MOL0     C28355  10.497   8.086   6.011  0.3407 -0.0180  0.5069
  931MOL0     C28356  10.605   8.187   5.968 -1.0781  0.8088  0.5686
  931MOL0     N28357  10.566   8.327   5.989 -0.7527 -0.0079 -0.2416
  931MOL0     C28358  10.541   8.387   6.105  0.0040  0.0865 -0.0666
  931MOL0     C28359  10.528   8.522   6.075 -0.6342 -0.5707  0.2046
  931MOL0     C28360  10.504   8.637   6.159 -0.0812 -0.6564 -0.2657
  931MOL0     C28361  10.626   8.709   6.211 -0.6491 -1.1685 -0.0639
  931MOL0     C28362  10.732   8.629   6.293 -0.4818 -0.0338 -0.6765
  931MOL0     C28363  10.877   8.693   6.300  0.7693  0.0298 -0.2383
  931MOL0     O28364  10.948   8.736   6.179  0.0917  0.0591 -0.6010
  931MOL0     C28365  11.086   8.754   6.207 -0.1630  0.2568  0.1075
  931MOL0     C28366  11.162   8.638   6.220  0.5405 -0.2262  0.6862
  931MOL0     C28367  11.296   8.646   6.237 -0.2255  0.7542  1.2773
  931MOL0     C28368  11.379   8.521   6.227 -0.5391  0.3951 -0.3074
  931MOL0     C28369  11.360   8.766   6.272  1.1150 -0.1297  0.5447
  931MOL0     C28370  11.501   8.772   6.317 -0.2027 -0.2014  1.1878
  931MOL0     O28371  11.549   8.900   6.310  0.2441  0.6355  0.8151
  931MOL0     C28372  11.671   8.944   6.344  0.1637 -0.5738  0.2075
  931MOL0     C28373  11.691   9.073   6.393  0.9635  0.1166  0.1093
  931MOL0     C28374  11.811   9.116   6.451  0.2943 -0.1174 -0.0107
  931MOL0     C28375  11.919   9.031   6.447  0.4146  0.3133  0.4601
  931MOL0     O28376  12.042   9.080   6.484 -0.1091  0.0123  0.6128
  931MOL0     C28377  12.147   8.982   6.514 -0.4434 -0.5575  0.1229
  931MOL0     C28378  12.257   9.056   6.586 -0.3056 -0.6089 -0.7451
  931MOL0     C28379  12.374   8.962   6.605  0.2178  0.0627 -0.1382
  931MOL0     C28380  12.496   9.030   6.671  0.8433 -0.4080 -0.1165
  931MOL0     C28381  12.617   8.929   6.671 -0.3162  0.6077  0.5482
  931MOL0     C28382  12.733   8.984   6.760  2.0277  1.2144 -0.0609
  931MOL0     C28383  12.860   8.902   6.752  0.0849 -0.0761 -0.6276
  931MOL0     C28384  12.964   8.957   6.852 -0.5161  0.0741  0.0568
  931MOL0    Cl28385  12.899   9.008   7.006 -0.1210 -0.3270 -0.0902
  931MOL0     C28386  11.906   8.902   6.390  0.5759  0.2108 -0.4564
  931MOL0     C28387  11.784   8.857   6.346 -0.1275 -0.5944 -0.1774
  931MOL0     O28388  11.554   8.681   6.374  0.5459 -0.0529 -0.2319
  931MOL0     C28389  11.283   8.882   6.274 -0.7927 -0.8688 -0.0831
  931MOL0     C28390  11.145   8.882   6.236 -1.1038 -0.4154 -0.0362
  931MOL0     N28391  10.552   8.536   5.938 -0.6218  0.4719 -0.6441
  931MOL0     N28392  10.561   8.421   5.892  0.8360  0.4822 -0.0873
  931MOL0     C28393   9.674   8.050   6.310  0.7191  0.0493  0.5899
  931MOL0     C28394   9.557   7.985   6.351  0.2242 -0.3426 -0.4988
  931MOL0     C28395   9.168   7.735   6.300 -0.4070  0.1333 -0.7002
  931MOL0     C28396   9.070   7.825   6.330 -0.4857  0.2271  0.7830
  931MOL0     C28397   8.927   7.802   6.320 -0.9300 -0.1453 -0.0111
  931MOL0     C28398   8.874   7.676   6.298 -0.3775  0.4342 -0.7698
  931MOL0     O28399   8.738   7.650   6.298  0.4432 -0.8063  0.6180
  931MOL0     C28400   8.687   7.528   6.343  0.3957 -0.5099  0.1128
  931MOL0     C28401   8.548   7.548   6.413 -0.4295  0.2450 -0.4725
  931MOL0     C28402   8.538   7.654   6.522  0.8341 -1.2526  1.1405
  931MOL0     C28403   8.653   7.653   6.632  0.2877 -0.1393  0.7836
  931MOL0     C28404   8.612   7.719   6.755  0.3682  0.2457 -0.7833
  931MOL0     C28405   8.578   7.763   6.871 -1.0288 -0.1091  0.2357
  931MOL0     C28406   8.973   7.569   6.294 -0.4528  0.1316  0.6377
  931MOL0     C28407   9.118   7.594   6.299  0.2673 -1.5407  1.2408
  931MOL0     C28408   9.214   7.478   6.313  0.3266  1.1726 -0.9685
  931MOL0     H28409   9.388   7.999   6.053  1.2688 -3.1562 -1.2816
  931MOL0     H28410   9.581   8.109   5.983 -1.4693  0.8769  0.4716
  931MOL0     H28411   9.874   8.314   6.025  0.8498 -0.8763  0.5701
  931MOL0     H28412   9.725   8.242   5.962 -0.8451  0.6166  0.1893
  931MOL0     H28413   9.871   8.008   5.965  0.8674 -0.3340 -0.5845
  931MOL0     H28414   9.901   8.129   5.845 -3.2959 -1.9646 -1.2349
  931MOL0     H28415  10.085   8.210   6.015  0.5398  0.2009  3.3883
  931MOL0     H28416  10.037   8.087   6.119 -1.7571  1.8379 -0.3093
  931MOL0     H28417  10.082   7.903   5.938  1.1115 -0.1369  0.4685
  931MOL0     H28418  10.131   8.032   5.822  0.5307  0.0551  0.2689
  931MOL0     H28419  10.303   7.893   5.955  1.3958  0.7507  1.4277
  931MOL0     H28420  10.254   7.983   6.093 -1.3017 -2.2130 -0.2218
  931MOL0     H28421  10.384   8.082   5.833  0.1007 -0.5983  0.5015
  931MOL0     H28422  10.318   8.192   5.955  0.9325  0.5922  0.5555
  931MOL0     H28423  10.534   7.984   5.998 -1.7733 -0.9554  1.3167
  931MOL0     H28424  10.484   8.086   6.120  1.2028 -3.3960  0.7116
  931MOL0     H28425  10.694   8.179   6.030 -0.3383 -0.9106 -0.6533
  931MOL0     H28426  10.633   8.166   5.865 -3.6148 -4.2973  0.6123
  931MOL0     H28427  10.528   8.347   6.205 -0.2515  0.5280  0.0771
  931MOL0     H28428  10.434   8.618   6.242  0.1696  2.6560  0.8650
  931MOL0     H28429  10.440   8.700   6.096 -2.1670 -2.7216 -0.3720
  931MOL0     H28430  10.676   8.747   6.121 -0.2416  2.6793  1.6209
  931MOL0     H28431  10.589   8.793   6.270 -0.8238 -2.2148  1.3551
  931MOL0     H28432  10.697   8.620   6.396  3.1375  0.7483  0.7549
  931MOL0     H28433  10.741   8.528   6.250  1.8240 -0.3573  0.3987
  931MOL0     H28434  10.861   8.788   6.352 -0.9048  1.0745 -2.5205
  931MOL0     H28435  10.932   8.635   6.375 -3.5068 -2.8150  1.0515
  931MOL0     H28436  11.121   8.538   6.204  0.8368 -0.2152 -0.2127
  931MOL0     H28437  11.309   8.443   6.195 -1.7194  1.1479  0.3451
  931MOL0     H28438  11.420   8.492   6.324  0.0916  0.3875 -0.5744
  931MOL0     H28439  11.461   8.527   6.155  0.6497  1.6797  1.0897
  931MOL0     H28440  11.604   9.139   6.390  1.2998  0.5485 -1.7350
  931MOL0     H28441  11.826   9.210   6.502  3.2125 -0.8981  0.7619
  931MOL0     H28442  12.102   8.898   6.567 -1.0789  0.0087  0.5005
  931MOL0     H28443  12.179   8.943   6.418  1.1214  1.8937 -0.4506
  931MOL0     H28444  12.291   9.142   6.527  2.5222  0.2095  1.7984
  931MOL0     H28445  12.226   9.105   6.679  0.0914  0.7282 -1.2841
  931MOL0     H28446  12.400   8.926   6.505  0.8279  3.6225 -1.3877
  931MOL0     H28447  12.344   8.880   6.671  1.6372 -1.3801 -1.1946
  931MOL0     H28448  12.472   9.082   6.764  0.8519  1.8974 -1.3343
  931MOL0     H28449  12.522   9.111   6.603 -0.9075  1.5173  1.3592
  931MOL0     H28450  12.584   8.836   6.717  2.9199 -1.1254 -0.3273
  931MOL0     H28451  12.655   8.899   6.573  2.5820 -2.0974  2.3319
  931MOL0     H28452  12.692   8.982   6.861  0.6408  0.3596 -0.6001
  931MOL0     H28453  12.746   9.084   6.719 -1.1301  1.1672 -1.4755
  931MOL0     H28454  12.911   8.918   6.657  0.5472  0.8625 -0.2371
  931MOL0     H28455  12.833   8.799   6.777  1.4213  0.2959  2.8706
  931MOL0     H28456  13.002   9.048   6.804 -1.3993  1.0291  1.1003
  931MOL0     H28457  13.042   8.882   6.864  0.1742  0.8016  0.1856
  931MOL0     H28458  11.989   8.833   6.382  0.1172 -0.3504 -0.3996
  931MOL0     H28459  11.788   8.757   6.305  1.9010 -0.7726  0.3217
  931MOL0     H28460  11.336   8.969   6.311 -2.8082  0.0903  0.7315
  931MOL0     H28461  11.076   8.967   6.236  1.4061  1.7437 -0.5804
  931MOL0     H28462   9.746   8.078   6.387  2.9198 -0.6238 -1.1384
  931MOL0     H28463   9.551   7.946   6.452 -0.4930  2.4696  0.6448
  931MOL0     H28464   9.103   7.924   6.358  0.6049 -0.2335  1.1893
  931MOL0     H28465   8.872   7.895   6.316  0.4103  0.6166 -1.3953
  931MOL0     H28466   8.671   7.454   6.264 -2.2433  0.0176  0.0749
  931MOL0     H28467   8.756   7.491   6.419  2.2878  1.3470 -0.6031
  931MOL0     H28468   8.530   7.454   6.466 -0.2186  1.2412  1.4371
  931MOL0     H28469   8.474   7.576   6.336  0.1749  0.6101 -0.9290
  931MOL0     H28470   8.513   7.748   6.471 -1.6256 -0.6488  3.2363
  931MOL0     H28471   8.448   7.636   6.581  0.2983  1.7455  1.3819
  931MOL0     H28472   8.738   7.696   6.578  0.3271 -0.9892  0.1357
  931MOL0     H28473   8.675   7.548   6.652  1.5068 -0.1876 -0.6118
  931MOL0     H28474   8.544   7.805   6.964 -3.6785  0.5865 -0.9325
  931MOL0     H28475   8.938   7.469   6.274  2.5637 -0.6655 -1.3826
  931MOL0     H28476   9.291   7.467   6.236  0.2343 -0.2462 -0.8986
  931MOL0     H28477   9.265   7.494   6.409  2.6263 -2.1694 -1.4466
  931MOL0     H28478   9.171   7.377   6.315  2.9828 -0.0564 -0.5612
  932MOL0     O28479   4.356   9.660   1.321 -0.0079  0.7810 -0.1968
  932MOL0     C28480   4.287   9.739   1.383  0.2258 -0.4356  0.0368
  932MOL0     O28481   4.338   9.805   1.490 -0.0332 -1.0103 -0.0702
  932MOL0     C28482   4.473   9.826   1.485 -0.1511 -0.3700 -0.6515
  932MOL0     C28483   4.513   9.945   1.414  0.5407 -0.0236 -0.5891
  932MOL0     C28484   4.652   9.966   1.400  0.5796 -0.2169 -0.3053
  932MOL0     C28485   4.748   9.882   1.450 -0.0373 -1.0048  0.7345
  932MOL0     O28486   4.883   9.901   1.417 -0.1225  0.6717 -0.9578
  932MOL0     C28487   4.921  10.015   1.341  0.4173  0.3232  0.1407
  932MOL0     C28488   5.073  10.028   1.339 -0.0419 -0.3899  0.0575
  932MOL0     C28489   5.136  10.042   1.477 -0.6133 -0.8168  1.3920
  932MOL0     C28490   5.280  10.090   1.463  0.5043 -0.4122 -0.4766
  932MOL0     C28491   5.352  10.106   1.593 -0.5369 -0.4763 -0.8161
  932MOL0     C28492   5.498  10.141   1.567  0.4246 -0.1249 -1.4119
  932MOL0     C28493   5.562  10.110   1.703  0.2717  0.3667 -0.1109
  932MOL0     C28494   5.714  10.151   1.698  0.4299 -0.4164 -0.9204
  932MOL0     N28495   5.795  10.080   1.596  0.3053  0.0920 -0.5189
  932MOL0     C28496   5.804  10.115   1.469  0.2158  0.0765 -0.8528
  932MOL0     C28497   5.912  10.047   1.420  0.7098 -0.4463 -0.9253
  932MOL0     C28498   5.962  10.046   1.280  0.4234 -1.7188  0.5852
  932MOL0     C28499   5.957  10.187   1.211 -0.7433 -0.0392 -0.3722
  932MOL0     C28500   6.003  10.191   1.068  0.0008 -0.5474  0.3961
  932MOL0     C28501   5.892  10.166   0.973  0.1842 -0.5962  0.4790
  932MOL0     O28502   5.928  10.215   0.842  0.6551  0.5242  0.4828
  932MOL0     C28503   5.825  10.217   0.740  0.2255  0.1399 -0.0942
  932MOL0     C28504   5.863  10.261   0.614 -0.2206 -0.0225 -0.4738
  932MOL0     C28505   5.776  10.263   0.509 -0.3709 -0.6995  0.6292
  932MOL0     C28506   5.828  10.312   0.369 -0.0051  0.7621 -0.5295
  932MOL0     C28507   5.642  10.216   0.527 -1.0022 -0.2482  0.3393
  932MOL0     C28508   5.525  10.249   0.438 -0.3879  0.1420 -1.0234
  932MOL0     O28509   5.406  10.203   0.484  0.2466 -0.1822  0.4444
  932MOL0     C28510   5.297  10.218   0.394  0.6134  0.0879 -0.4861
  932MOL0     C28511   5.253  10.096   0.338 -0.0671 -0.0098 -0.6307
  932MOL0     C28512   5.143  10.100   0.249  0.6544 -0.3100 -0.5736
  932MOL0     C28513   5.081  10.223   0.214  0.4974 -0.6674  0.2734
  932MOL0     O28514   4.989  10.219   0.110 -0.4806  1.1647 -0.4006
  932MOL0     C28515   4.869  10.299   0.112 -0.6076  0.2728  0.4090
  932MOL0     C28516   4.791  10.310  -0.021 -0.1776  0.1527  0.2849
  932MOL0     C28517   4.648  10.341  -0.001 -1.3237  0.2038 -0.1543
  932MOL0     C28518   4.567  10.352  -0.123 -0.1996  0.9583  0.2404
  932MOL0     C28519   4.439  10.431  -0.136 -0.2296 -1.0958  0.0941
  932MOL0     C28520   4.356  10.395  -0.257  0.4072 -0.2569  0.3610
  932MOL0     C28521   4.230  10.484  -0.273  0.3226 -0.1409  0.6557
  932MOL0     C28522   4.135  10.502  -0.153 -0.2075 -0.0644 -0.3521
  932MOL0    Cl28523   4.063  10.351  -0.084  0.1962 -0.0966  0.4382
  932MOL0     C28524   5.134  10.348   0.265 -0.0272  0.6059  0.3923
  932MOL0     C28525   5.241  10.343   0.365  0.8750 -0.0592  0.0314
  932MOL0     O28526   5.536  10.319   0.337  0.0530  0.0902  0.4528
  932MOL0     C28527   5.604  10.177   0.656 -0.1931  0.2092 -1.7179
  932MOL0     C28528   5.695  10.163   0.758 -0.9797 -0.0247  0.9265
  932MOL0     N28529   5.949   9.960   1.519 -0.6053  0.0087 -0.5219
  932MOL0     N28530   5.883   9.981   1.618 -1.2883  0.8316 -0.2792
  932MOL0     C28531   4.705   9.766   1.525 -0.0856 -0.5531  0.3772
  932MOL0     C28532   4.569   9.737   1.535  0.6363  0.9703  0.3316
  932MOL0     C28533   4.158   9.777   1.332  0.1650 -0.6290 -0.0442
  932MOL0     C28534   4.128   9.914   1.301 -0.4635 -0.3806 -0.7265
  932MOL0     C28535   3.995   9.939   1.261 -0.2311 -0.1210 -0.1696
  932MOL0     C28536   3.896   9.848   1.254  0.1305  0.5958  0.4426
  932MOL0     O28537   3.763   9.857   1.214 -0.1035  0.5375 -0.1376
  932MOL0     C28538   3.745   9.960   1.122  0.2515  0.0185 -0.4030
  932MOL0     C28539   3.625   9.932   1.020  0.4465  0.5588 -0.1888
  932MOL0     C28540   3.487   9.914   1.078 -0.8682 -1.3405  1.1790
  932MOL0     C28541   3.462   9.776   1.128  0.2632 -0.3882 -0.4314
  932MOL0     C28542   3.316   9.756   1.162 -1.2353  0.3638 -0.5059
  932MOL0     C28543   3.203   9.757   1.195 -0.4096 -0.9236 -0.4334
  932MOL0     C28544   3.927   9.709   1.278 -0.2659 -0.1003  0.4421
  932MOL0     C28545   4.057   9.677   1.316  0.0306  0.1904  0.1787
  932MOL0     C28546   4.083   9.534   1.353  0.1480 -0.2191  0.5417
  932MOL0     H28547   4.447  10.020   1.371  2.2920  1.4762 -0.7768
  932MOL0     H28548   4.670  10.063   1.356  1.2996  0.7143  1.9233
  932MOL0     H28549   4.886  10.105   1.393  2.0545  0.2693  1.4094
  932MOL0     H28550   4.879  10.017   1.240  0.0918 -0.4171  0.2558
  932MOL0     H28551   5.107   9.934   1.294 -4.0068 -2.2894  0.6154
  932MOL0     H28552   5.101  10.104   1.265 -0.0107  0.6602  1.1092
  932MOL0     H28553   5.089  10.119   1.540 -1.5192 -0.9643  0.9130
  932MOL0     H28554   5.140   9.940   1.517 -0.4099 -2.2518 -1.9828
  932MOL0     H28555   5.331  10.023   1.393  0.1351 -2.7108  1.3274
  932MOL0     H28556   5.278  10.188   1.414 -0.8339  0.5666  1.3985
  932MOL0     H28557   5.336  10.012   1.645  1.9663 -0.2750  0.4566
  932MOL0     H28558   5.301  10.173   1.663 -2.8444 -2.4580 -0.4617
  932MOL0     H28559   5.539  10.073   1.491  2.1639 -1.8549  0.9398
  932MOL0     H28560   5.503  10.241   1.524  0.4573  0.7903  0.6421
  932MOL0     H28561   5.552  10.004   1.728  1.0324  1.0585  3.5445
  932MOL0     H28562   5.511  10.172   1.776 -1.8026  1.2412 -2.1494
  932MOL0     H28563   5.727  10.260   1.689  2.8218 -0.2781  2.2295
  932MOL0     H28564   5.767  10.116   1.787  4.1439 -0.7346 -3.0791
  932MOL0     H28565   5.730  10.175   1.416 -1.8983 -0.0311  1.7739
  932MOL0     H28566   5.888   9.982   1.232 -1.0697 -0.4734  1.1651
  932MOL0     H28567   6.061  10.000   1.281  0.1443 -2.3576  2.4309
  932MOL0     H28568   5.857  10.230   1.222 -0.1519  1.1729  0.5719
  932MOL0     H28569   6.027  10.252   1.266  0.3962 -1.3646 -0.2026
  932MOL0     H28570   6.045  10.290   1.047 -0.8789 -0.6165 -2.0353
  932MOL0     H28571   6.080  10.114   1.058 -0.3831 -1.0915  1.5261
  932MOL0     H28572   5.854  10.063   0.977 -3.4550  0.5631 -0.6450
  932MOL0     H28573   5.813  10.240   0.988  0.6620  1.6398 -5.4206
  932MOL0     H28574   5.964  10.295   0.596  0.4843 -1.9584 -0.4582
  932MOL0     H28575   5.783  10.254   0.288 -0.4974  0.9487 -0.3942
  932MOL0     H28576   5.938  10.310   0.374  0.1651 -2.2098 -2.7928
  932MOL0     H28577   5.788  10.413   0.354 -0.7445  0.8278  1.6289
  932MOL0     H28578   5.302  10.009   0.379  0.0099  1.3205  2.4161
  932MOL0     H28579   5.107  10.006   0.208  1.0684  0.6230 -3.3189
  932MOL0     H28580   4.808  10.249   0.187  3.1307 -0.9674  2.8946
  932MOL0     H28581   4.898  10.401   0.139  1.6730  0.1931 -1.4160
  932MOL0     H28582   4.826  10.391  -0.086  1.8046  1.7520  3.1046
  932MOL0     H28583   4.805  10.211  -0.066  0.5329  0.0064  0.8148
  932MOL0     H28584   4.645  10.435   0.054 -1.3891 -1.2450  2.4831
  932MOL0     H28585   4.603  10.267   0.066  2.2000 -2.7447 -0.7844
  932MOL0     H28586   4.535  10.249  -0.143  0.0178  1.1398 -1.1619
  932MOL0     H28587   4.635  10.378  -0.205  0.0575 -0.2527  0.0578
  932MOL0     H28588   4.373  10.403  -0.054 -1.4955 -1.2426 -0.9442
  932MOL0     H28589   4.457  10.538  -0.122 -0.0444 -1.2079  0.7693
  932MOL0     H28590   4.311  10.297  -0.241 -1.6460  0.7652  1.1223
  932MOL0     H28591   4.417  10.395  -0.348 -0.7077  0.0852 -0.4110
  932MOL0     H28592   4.173  10.434  -0.352  1.6985  1.4120 -1.4341
  932MOL0     H28593   4.261  10.579  -0.318  2.4896 -0.6028  1.0836
  932MOL0     H28594   4.058  10.574  -0.180  0.0082  0.8162  1.2640
  932MOL0     H28595   4.195  10.547  -0.074 -0.0181  2.4221 -1.7990
  932MOL0     H28596   5.085  10.437   0.226 -2.2806 -1.5382 -2.0288
  932MOL0     H28597   5.284  10.438   0.395  2.1543 -0.3542 -0.8334
  932MOL0     H28598   5.506  10.151   0.695 -1.8271  3.0290 -3.5263
  932MOL0     H28599   5.658  10.124   0.852 -1.8172 -3.4771 -0.6674
  932MOL0     H28600   4.769   9.687   1.566  0.0588 -0.3407  0.5632
  932MOL0     H28601   4.541   9.643   1.583 -0.0326  1.0648  0.1322
  932MOL0     H28602   4.197   9.997   1.312 -1.2876  0.0596  1.7543
  932MOL0     H28603   3.973  10.044   1.246 -0.7271 -0.1530  0.3029
  932MOL0     H28604   3.732  10.052   1.179 -0.6024  0.1757 -0.8319
  932MOL0     H28605   3.834   9.975   1.060 -0.2476  1.5349 -0.7909
  932MOL0     H28606   3.640   9.836   0.971 -0.5563  0.7318 -0.8653
  932MOL0     H28607   3.634  10.020   0.955  0.0661  1.9224  1.5191
  932MOL0     H28608   3.475   9.987   1.159 -0.6011 -0.1448  0.1674
  932MOL0     H28609   3.412   9.938   1.002 -0.6952 -2.0157  0.7889
  932MOL0     H28610   3.510   9.762   1.225  0.5636  1.3314 -0.3036
  932MOL0     H28611   3.501   9.699   1.061  0.1573 -1.0288  0.2277
  932MOL0     H28612   3.102   9.768   1.228 -0.4962  3.1727 -1.4750
  932MOL0     H28613   3.857   9.628   1.259  0.3818 -0.1606 -1.9737
  932MOL0     H28614   3.990   9.479   1.369 -1.0311  0.7732 -2.2168
  932MOL0     H28615   4.126   9.476   1.271 -1.9226 -1.9329  0.5897
  932MOL0     H28616   4.156   9.523   1.434  1.9421  1.4915 -0.7342
  933MOL0     O28617   6.556   6.901  11.170  0.1892  0.0569 -0.0753
  933MOL0     C28618   6.539   7.007  11.238  0.2219  0.2791 -0.3185
  933MOL0     O28619   6.617   7.048  11.344  1.0534 -0.1133 -0.1729
  933MOL0     C28620   6.680   6.961  11.415  0.2409  0.4124  0.6923
  933MOL0     C28621   6.635   6.833  11.431 -0.6479 -0.3247 -0.4303
  933MOL0     C28622   6.706   6.742  11.505 -0.5946 -0.3472 -0.8907
  933MOL0     C28623   6.820   6.785  11.570 -0.0990 -0.2167 -0.2796
  933MOL0     O28624   6.897   6.694  11.636  1.1098  0.0414 -0.4269
  933MOL0     C28625   7.031   6.733  11.671 -0.5071  0.8778  0.6998
  933MOL0     C28626   7.118   6.608  11.701  0.2041 -0.4308  0.2326
  933MOL0     C28627   7.079   6.525  11.829  0.0089 -0.7317 -0.9006
  933MOL0     C28628   7.180   6.416  11.863 -0.4958 -0.0309  0.4831
  933MOL0     C28629   7.131   6.273  11.822 -0.9165 -0.1754 -0.2560
  933MOL0     C28630   7.124   6.259  11.666  0.3330 -0.0104  0.9123
  933MOL0     C28631   7.081   6.113  11.628  0.0615 -0.1630  0.0272
  933MOL0     C28632   6.945   6.068  11.684  0.1188 -0.7954  0.0805
  933MOL0     N28633   6.832   6.145  11.642 -0.0564  0.9087  0.8858
  933MOL0     C28634   6.780   6.250  11.704 -0.1807  0.3615 -0.5859
  933MOL0     C28635   6.688   6.291  11.619 -0.4357  0.5142  0.2481
  933MOL0     C28636   6.617   6.424  11.648 -0.1244  0.5881  0.6154
  933MOL0     C28637   6.523   6.411  11.767  0.1000 -0.0193 -0.0480
  933MOL0     C28638   6.395   6.322  11.752  0.3281 -0.9252  0.1215
  933MOL0     C28639   6.321   6.307  11.877 -0.5931 -0.5760  0.3573
  933MOL0     O28640   6.185   6.272  11.862  0.0396 -0.7342 -0.1888
  933MOL0     C28641   6.121   6.223  11.973  0.1907 -0.9380  0.7280
  933MOL0     C28642   5.985   6.187  11.949 -0.0960  0.4062  0.3800
  933MOL0     C28643   5.898   6.159  12.065  0.1109  0.3389 -0.0457
  933MOL0     C28644   5.757   6.102  12.039 -0.6759 -0.2733  0.4793
  933MOL0     C28645   5.948   6.161  12.193  0.6408 -0.4196  0.9528
  933MOL0     C28646   5.875   6.145  12.319  0.3269 -0.0057  0.1481
  933MOL0     O28647   5.939   6.203  12.428  0.1916  0.4192  0.8066
  933MOL0     C28648   5.871   6.187  12.545  0.9038 -0.3249  0.7461
  933MOL0     C28649   5.833   6.068  12.598  0.6510 -0.4881 -0.3770
  933MOL0     C28650   5.761   6.054  12.722  1.1381 -0.2228 -0.1219
  933MOL0     C28651   5.741   6.174  12.793  0.1225  0.6742  0.1833
  933MOL0     O28652   5.689   6.188  12.921  0.4624 -0.8653  0.3805
  933MOL0     C28653   5.609   6.081  12.963  0.5237 -0.1902  0.6443
  933MOL0     C28654   5.499   6.114  13.061 -1.4944 -0.3990 -0.3778
  933MOL0     C28655   5.545   6.116  13.209  0.6854 -0.5590 -0.8424
  933MOL0     C28656   5.614   6.242  13.246  0.1022 -0.1582 -0.2777
  933MOL0     C28657   5.671   6.244  13.390 -0.6991  0.0479  0.7755
  933MOL0     C28658   5.796   6.149  13.409 -1.0389 -0.9129 -0.2183
  933MOL0     C28659   5.843   6.127  13.551 -0.1989 -0.3215 -1.3191
  933MOL0     C28660   5.877   6.253  13.624 -1.1729 -0.3230 -1.3958
  933MOL0    Cl28661   6.019   6.333  13.542  0.3316  0.3383 -0.0113
  933MOL0     C28662   5.799   6.295  12.746 -0.7537  0.2782 -0.4087
  933MOL0     C28663   5.863   6.307  12.622 -0.4254  0.1731 -0.6569
  933MOL0     O28664   5.771   6.075  12.319 -0.4213  0.6075  0.5833
  933MOL0     C28665   6.088   6.191  12.209  0.3137  0.8175  0.0430
  933MOL0     C28666   6.175   6.219  12.103  0.5493  0.1358  0.0908
  933MOL0     N28667   6.676   6.210  11.509 -0.1995  0.0556  0.3241
  933MOL0     N28668   6.771   6.125  11.517 -0.6386  0.5525  0.6175
  933MOL0     C28669   6.862   6.926  11.565 -0.0185  0.6638  0.1597
  933MOL0     C28670   6.787   7.014  11.480  0.4872  0.1954 -0.1069
  933MOL0     C28671   6.433   7.095  11.194 -0.4765  0.2777  0.5841
  933MOL0     C28672   6.340   7.041  11.100  0.9829 -0.4108  0.4110
  933MOL0     C28673   6.233   7.113  11.059  0.0940 -0.7535  0.5578
  933MOL0     C28674   6.199   7.240  11.103  0.3415  0.2742  0.7280
  933MOL0     O28675   6.089   7.306  11.050 -0.4162 -0.3460  0.2820
  933MOL0     C28676   6.088   7.452  11.054  0.3817  0.3720  0.8380
  933MOL0     C28677   6.201   7.510  10.959  0.0748  0.3766  0.1537
  933MOL0     C28678   6.165   7.466  10.820 -0.2729  0.9172  0.2401
  933MOL0     C28679   6.269   7.486  10.713  0.2822 -0.7692  0.8769
  933MOL0     C28680   6.234   7.414  10.593  0.5806  0.0505 -1.0745
  933MOL0     C28681   6.191   7.350  10.501  0.1202  0.1043 -0.0109
  933MOL0     C28682   6.291   7.285  11.200  0.8050  0.4706  0.7032
  933MOL0     C28683   6.408   7.225  11.246  0.3561  0.5438 -0.4437
  933MOL0     C28684   6.473   7.295  11.364 -0.0270  0.6246  0.7772
  933MOL0     H28685   6.539   6.797  11.396 -1.7961  2.0733  0.0605
  933MOL0     H28686   6.677   6.638  11.506 -1.8085 -0.0448  1.2370
  933MOL0     H28687   7.036   6.796  11.760 -1.9483  0.1708  1.3070
  933MOL0     H28688   7.080   6.783  11.587  1.3433 -1.4865  0.2420
  933MOL0     H28689   7.099   6.541  11.617 -2.3743  0.3528  0.0925
  933MOL0     H28690   7.224   6.632  11.706  0.9171 -3.3691  1.5327
  933MOL0     H28691   7.087   6.598  11.910  2.1754 -1.0318 -0.7651
  933MOL0     H28692   6.977   6.487  11.830 -1.4904  2.9133 -0.2884
  933MOL0     H28693   7.281   6.435  11.826 -0.4521  1.7055  1.3714
  933MOL0     H28694   7.184   6.413  11.972 -1.2393  1.4168  0.5752
  933MOL0     H28695   7.032   6.254  11.864 -1.1890 -1.0405 -1.2342
  933MOL0     H28696   7.211   6.205  11.853 -0.2829 -0.3659 -2.1317
  933MOL0     H28697   7.068   6.342  11.621  0.6636  1.2233  2.6452
  933MOL0     H28698   7.225   6.276  11.627  0.7184 -2.1883  0.8319
  933MOL0     H28699   7.162   6.051  11.668 -1.0198 -0.3890  1.9636
  933MOL0     H28700   7.073   6.109  11.519  0.9900  0.1133 -0.0576
  933MOL0     H28701   6.928   5.967  11.646  1.8644  0.1599 -3.8891
  933MOL0     H28702   6.951   6.067  11.793 -3.4967  2.6178  0.5445
  933MOL0     H28703   6.801   6.297  11.800  0.6424  3.3912 -2.1050
  933MOL0     H28704   6.553   6.431  11.560  0.6657  2.8190  0.1591
  933MOL0     H28705   6.687   6.506  11.665  2.1922 -1.4209  1.3873
  933MOL0     H28706   6.578   6.388  11.859  1.3727  0.2629 -0.7059
  933MOL0     H28707   6.497   6.516  11.782  3.0363  0.7735  0.1124
  933MOL0     H28708   6.325   6.380  11.691 -1.0392  0.2009  2.5834
  933MOL0     H28709   6.414   6.225  11.706 -2.0017 -2.1772  1.6232
  933MOL0     H28710   6.376   6.226  11.926  2.2654  0.5585 -0.7332
  933MOL0     H28711   6.331   6.405  11.924  1.0175  1.5269 -3.8291
  933MOL0     H28712   5.943   6.178  11.849 -0.4173 -1.3472  0.6314
  933MOL0     H28713   5.684   6.163  12.093 -2.8093 -1.6261 -0.6877
  933MOL0     H28714   5.742   6.004  12.084 -0.3677  0.2360  1.7392
  933MOL0     H28715   5.727   6.115  11.934 -0.2841  0.3511  0.4382
  933MOL0     H28716   5.856   5.984  12.533  1.1070 -1.4565  0.9687
  933MOL0     H28717   5.719   5.958  12.751 -0.4356  0.1054 -1.1604
  933MOL0     H28718   5.560   6.038  12.875  1.4284 -0.0420  0.0524
  933MOL0     H28719   5.674   6.008  13.013  1.8786 -1.5784 -2.7615
  933MOL0     H28720   5.459   6.209  13.024  1.6823  0.3386 -2.2648
  933MOL0     H28721   5.429   6.030  13.057 -1.4104 -0.7467  2.6058
  933MOL0     H28722   5.601   6.025  13.232  0.0899 -0.2719  2.2619
  933MOL0     H28723   5.458   6.105  13.275 -0.0777 -0.4194 -1.7982
  933MOL0     H28724   5.541   6.323  13.242 -0.7817 -0.7874  1.7662
  933MOL0     H28725   5.694   6.266  13.176 -1.0225  1.3344 -1.1000
  933MOL0     H28726   5.707   6.344  13.411  1.0680 -0.3219 -0.2505
  933MOL0     H28727   5.586   6.236  13.459 -0.1759 -0.0395  1.4106
  933MOL0     H28728   5.874   6.196  13.349 -0.0106  0.3439  1.9602
  933MOL0     H28729   5.772   6.050  13.370  1.0041 -1.6540  0.2996
  933MOL0     H28730   5.934   6.065  13.549  0.2542  0.3194 -3.2588
  933MOL0     H28731   5.776   6.074  13.618  0.5673  0.6387  0.2847
  933MOL0     H28732   5.914   6.229  13.725 -0.0140 -1.9720 -2.1690
  933MOL0     H28733   5.787   6.314  13.637 -1.7141 -1.6017  1.8408
  933MOL0     H28734   5.792   6.385  12.807  1.6945  2.1762 -2.6999
  933MOL0     H28735   5.908   6.401  12.589  1.1128  0.4733  1.9872
  933MOL0     H28736   6.127   6.192  12.310 -0.7445  0.7728  0.4736
  933MOL0     H28737   6.281   6.245  12.108  1.1087 -1.4717 -1.8999
  933MOL0     H28738   6.953   6.963  11.611  0.9084 -0.0565 -1.0194
  933MOL0     H28739   6.803   7.120  11.462  0.5571 -0.0211 -1.4857
  933MOL0     H28740   6.351   6.945  11.050 -1.4471 -0.0826 -0.9224
  933MOL0     H28741   6.175   7.072  10.976 -0.2884  0.4959  0.1908
  933MOL0     H28742   5.989   7.485  11.022  1.1096  1.3481 -0.4902
  933MOL0     H28743   6.103   7.497  11.152 -0.8427  1.0307  0.7414
  933MOL0     H28744   6.303   7.480  10.982  0.1632  2.7717  3.8082
  933MOL0     H28745   6.194   7.619  10.969 -0.4689  0.5932 -2.0771
  933MOL0     H28746   6.136   7.361  10.811  0.8631  0.4718  1.5319
  933MOL0     H28747   6.078   7.525  10.788  0.6981  2.2257 -0.0759
  933MOL0     H28748   6.365   7.448  10.750  1.4818  2.5998  1.5064
  933MOL0     H28749   6.270   7.592  10.686  0.2256 -0.8030  0.7386
  933MOL0     H28750   6.145   7.292  10.425  0.0713 -0.7631  0.6655
  933MOL0     H28751   6.271   7.384  11.241  1.7218  0.2226  1.8181
  933MOL0     H28752   6.466   7.244  11.460 -4.2725 -0.5530  0.0271
  933MOL0     H28753   6.579   7.302  11.335 -0.1724 -2.0028 -0.6927
  933MOL0     H28754   6.438   7.397  11.384  3.0956  1.9056  0.4047
  934MOL0     O28755   4.601   6.296   2.894 -1.0461  0.5988  0.3562
  934MOL0     C28756   4.491   6.292   2.845  0.6724  0.1867 -0.0476
  934MOL0     O28757   4.411   6.404   2.818  0.3243  0.8440  0.4762
  934MOL0     C28758   4.455   6.519   2.872 -0.6803  0.5584 -0.4158
  934MOL0     C28759   4.582   6.570   2.853  0.1542 -0.1978 -0.0056
  934MOL0     C28760   4.615   6.683   2.922  0.3805 -0.0527  0.2198
  934MOL0     C28761   4.526   6.761   2.991 -0.6235  0.3098  0.6831
  934MOL0     O28762   4.580   6.877   3.043 -0.3490  0.1984  0.4566
  934MOL0     C28763   4.516   7.006   3.030 -0.2874  1.1257 -0.2828
  934MOL0     C28764   4.529   7.065   2.887 -0.5267 -0.1635  0.1273
  934MOL0     C28765   4.518   7.217   2.894  1.1206  0.1385 -0.8551
  934MOL0     C28766   4.530   7.295   2.763 -0.9976  0.9607 -0.2381
  934MOL0     C28767   4.663   7.271   2.692 -0.3506  0.3610  0.0015
  934MOL0     C28768   4.692   7.374   2.584  0.3137 -1.3993  0.4068
  934MOL0     C28769   4.812   7.351   2.495 -0.2234  0.1669  1.0448
  934MOL0     C28770   4.828   7.463   2.392  0.0721 -0.3711  0.0078
  934MOL0     N28771   4.953   7.448   2.321 -0.3674 -0.1231 -0.8887
  934MOL0     C28772   4.986   7.342   2.244  0.5087 -0.3455 -0.0923
  934MOL0     C28773   5.113   7.367   2.193  0.6772  0.4086  0.2112
  934MOL0     C28774   5.201   7.277   2.110 -0.1104 -0.1620  0.4787
  934MOL0     C28775   5.236   7.141   2.165 -0.1117  0.3030  0.1292
  934MOL0     C28776   5.120   7.061   2.249 -0.6982  0.2869  0.6207
  934MOL0     C28777   5.150   6.911   2.274  0.1172 -0.0953  0.8619
  934MOL0     O28778   5.260   6.895   2.360 -0.8078 -0.0036  0.3791
  934MOL0     C28779   5.325   6.781   2.382 -0.4122 -0.4195 -0.5892
  934MOL0     C28780   5.271   6.659   2.341 -0.6618  0.0019  0.4053
  934MOL0     C28781   5.331   6.532   2.376 -0.1214 -0.5415  0.2843
  934MOL0     C28782   5.278   6.408   2.331 -0.1302  0.8267  0.6525
  934MOL0     C28783   5.447   6.534   2.464 -0.4347 -0.0514 -0.3876
  934MOL0     C28784   5.518   6.405   2.502  0.8184 -0.3342 -0.3560
  934MOL0     O28785   5.556   6.324   2.406  0.4555  0.3801  0.8909
  934MOL0     C28786   5.626   6.208   2.426  0.3663  0.3384 -0.5798
  934MOL0     C28787   5.749   6.199   2.488  0.0540  0.3563 -0.1353
  934MOL0     C28788   5.827   6.083   2.490  0.2124 -0.2687 -0.2469
  934MOL0     C28789   5.773   5.964   2.451  0.8654 -0.6931 -0.1175
  934MOL0     O28790   5.864   5.857   2.458  0.1597 -0.3630  0.5377
  934MOL0     C28791   5.814   5.738   2.404 -0.5687 -0.1370 -0.8015
  934MOL0     C28792   5.921   5.630   2.402 -0.9459  0.1375 -0.0243
  934MOL0     C28793   5.850   5.495   2.404 -0.4325  0.6093  0.1847
  934MOL0     C28794   5.936   5.384   2.334  0.1410 -0.0531 -0.0781
  934MOL0     C28795   5.909   5.235   2.374  0.9426  0.3959 -0.6397
  934MOL0     C28796   5.945   5.214   2.530  1.0274  0.2910 -1.4171
  934MOL0     C28797   5.920   5.069   2.574  0.9832 -0.3136  0.5542
  934MOL0     C28798   5.982   5.052   2.708 -0.5997  1.1162 -0.0088
  934MOL0    Cl28799   5.923   4.899   2.770 -0.2164  0.6060  0.0174
  934MOL0     C28800   5.646   5.965   2.399 -0.0573  0.3021  0.7707
  934MOL0     C28801   5.578   6.087   2.388 -0.8612  0.8746  0.0214
  934MOL0     O28802   5.538   6.382   2.622 -0.2872  0.0108  0.3825
  934MOL0     C28803   5.468   6.658   2.527 -0.6774  0.0278  0.3359
  934MOL0     C28804   5.406   6.780   2.493 -0.3597  0.4851  0.0893
  934MOL0     N28805   5.150   7.495   2.240  0.2479  1.3032  0.2550
  934MOL0     N28806   5.059   7.537   2.326  0.4044 -0.8542 -0.0310
  934MOL0     C28807   4.403   6.722   3.007 -0.7176  0.0870 -0.3615
  934MOL0     C28808   4.361   6.608   2.944 -0.0474  0.7955  0.3782
  934MOL0     C28809   4.440   6.163   2.809  0.5449 -0.4417 -0.1012
  934MOL0     C28810   4.344   6.161   2.707 -1.0040 -0.6034  0.6697
  934MOL0     C28811   4.293   6.044   2.650  0.0806 -0.1268  0.3743
  934MOL0     C28812   4.321   5.919   2.699 -0.0715  0.2804 -0.2092
  934MOL0     O28813   4.260   5.800   2.658  0.7900  1.1133 -0.5025
  934MOL0     C28814   4.148   5.811   2.570 -0.0525  0.0048  0.0031
  934MOL0     C28815   4.070   5.678   2.561  0.4237 -0.3832  0.7570
  934MOL0     C28816   4.091   5.620   2.423 -0.4235 -0.2489 -0.1004
  934MOL0     C28817   4.054   5.473   2.426  0.2712 -0.0186  0.3724
  934MOL0     C28818   4.028   5.417   2.294 -0.2407  0.2241  0.0871
  934MOL0     C28819   3.996   5.373   2.180 -0.4608  0.2043  0.1194
  934MOL0     C28820   4.418   5.915   2.813  0.4379 -0.6099 -0.3411
  934MOL0     C28821   4.471   6.040   2.863 -0.0839  0.4940 -0.9179
  934MOL0     C28822   4.584   6.014   2.964  0.5617 -0.7722  1.3523
  934MOL0     H28823   4.656   6.521   2.791  0.9473 -0.7042  1.3130
  934MOL0     H28824   4.714   6.726   2.907  0.6219 -0.6519  0.0900
  934MOL0     H28825   4.567   7.068   3.106  1.5583 -0.1595 -0.4044
  934MOL0     H28826   4.410   7.006   3.056  0.1163 -1.1512  1.7122
  934MOL0     H28827   4.620   7.030   2.837 -1.0529 -3.8049  1.3673
  934MOL0     H28828   4.447   7.025   2.826 -0.5311 -1.6908  1.0678
  934MOL0     H28829   4.419   7.244   2.932  0.7196 -0.6431 -1.3321
  934MOL0     H28830   4.597   7.262   2.955 -0.9771  1.9417  0.7361
  934MOL0     H28831   4.452   7.253   2.699  0.3369 -0.6317 -0.8945
  934MOL0     H28832   4.517   7.402   2.783  1.6795  1.7499 -2.1001
  934MOL0     H28833   4.669   7.171   2.648  3.9217  1.4834 -2.5609
  934MOL0     H28834   4.738   7.275   2.771  1.4065 -2.8626 -1.3028
  934MOL0     H28835   4.617   7.371   2.504  2.7771 -1.8734 -2.0669
  934MOL0     H28836   4.701   7.476   2.622 -2.6581 -1.1938  0.7869
  934MOL0     H28837   4.805   7.259   2.436  0.2689  0.4212  0.5744
  934MOL0     H28838   4.901   7.334   2.556 -0.4147  0.4462  1.4020
  934MOL0     H28839   4.743   7.450   2.324  1.1135 -1.1747 -1.1877
  934MOL0     H28840   4.826   7.556   2.449  0.5065  0.4868 -1.3439
  934MOL0     H28841   4.920   7.260   2.218 -2.5703  2.3704 -1.5938
  934MOL0     H28842   5.297   7.330   2.103  0.6487 -1.4763  0.5987
  934MOL0     H28843   5.153   7.276   2.012 -0.7120 -0.4113  0.7727
  934MOL0     H28844   5.263   7.074   2.083  0.4633  1.0887 -0.3392
  934MOL0     H28845   5.323   7.159   2.229 -1.1268  2.6465  0.9588
  934MOL0     H28846   5.115   7.112   2.346 -1.0949 -1.6173  1.6490
  934MOL0     H28847   5.024   7.075   2.198 -0.5092 -2.6717 -0.7917
  934MOL0     H28848   5.070   6.851   2.319  1.4414 -2.5099  0.1938
  934MOL0     H28849   5.161   6.869   2.174  0.0555  0.8580  0.4485
  934MOL0     H28850   5.178   6.652   2.286 -0.3475 -1.5106 -0.0019
  934MOL0     H28851   5.251   6.340   2.412 -1.5627  0.8007  0.1919
  934MOL0     H28852   5.349   6.360   2.263 -0.3440 -1.0310  1.6807
  934MOL0     H28853   5.191   6.426   2.266  0.6629  1.7535 -0.1783
  934MOL0     H28854   5.801   6.281   2.536  3.1244 -0.8485 -1.1467
  934MOL0     H28855   5.928   6.076   2.530  0.3888 -1.0049 -0.8071
  934MOL0     H28856   5.726   5.696   2.454 -0.3472 -1.1366 -1.2361
  934MOL0     H28857   5.785   5.765   2.302 -1.5493 -0.6223 -0.6656
  934MOL0     H28858   5.973   5.639   2.306 -0.0741 -2.6495  0.1080
  934MOL0     H28859   5.999   5.645   2.477 -1.1657 -2.3048  0.7598
  934MOL0     H28860   5.760   5.502   2.342  0.3823  3.5606 -0.8537
  934MOL0     H28861   5.829   5.476   2.510  2.2489  0.2863  0.7273
  934MOL0     H28862   6.041   5.407   2.355  0.2483 -0.9584  0.4138
  934MOL0     H28863   5.927   5.401   2.226 -1.0344  0.9469  0.1462
  934MOL0     H28864   5.802   5.216   2.356  0.4328  2.0371  0.4460
  934MOL0     H28865   5.971   5.174   2.308  0.7671  0.6199 -1.0142
  934MOL0     H28866   5.885   5.279   2.594 -0.1715 -2.1361  0.1234
  934MOL0     H28867   6.053   5.228   2.528  0.9184  1.1254 -1.7798
  934MOL0     H28868   5.937   4.984   2.507  0.3096 -1.8061  2.2012
  934MOL0     H28869   5.813   5.053   2.588  0.6064 -0.3992 -1.9345
  934MOL0     H28870   5.959   5.129   2.782  1.2081  1.8083 -0.1065
  934MOL0     H28871   6.091   5.055   2.701 -0.6164  1.2851 -0.1958
  934MOL0     H28872   5.584   5.881   2.370  0.7949 -1.6601  4.0755
  934MOL0     H28873   5.481   6.097   2.342 -0.4471  3.1857 -0.4778
  934MOL0     H28874   5.515   6.658   2.624 -1.3414 -0.7988  0.6641
  934MOL0     H28875   5.432   6.865   2.555  3.1520 -0.7254  0.5135
  934MOL0     H28876   4.339   6.790   3.064  1.1984  0.1933  1.7964
  934MOL0     H28877   4.259   6.570   2.940  0.3068 -0.0885 -1.8490
  934MOL0     H28878   4.312   6.250   2.654 -4.3466 -1.7683  0.4773
  934MOL0     H28879   4.225   6.058   2.566 -0.9802 -1.7383  0.9170
  934MOL0     H28880   4.089   5.900   2.591 -0.7636  0.8062 -4.4160
  934MOL0     H28881   4.193   5.838   2.474 -0.6158  1.2157  0.0661
  934MOL0     H28882   3.964   5.696   2.582  0.1813  2.0070 -1.8563
  934MOL0     H28883   4.113   5.601   2.626  1.4797 -0.5971 -0.1645
  934MOL0     H28884   4.026   5.674   2.354  0.1351  0.7147  0.1123
  934MOL0     H28885   4.196   5.632   2.396 -0.5086  0.3662 -0.1706
  934MOL0     H28886   3.960   5.456   2.478 -0.4814  2.7813  0.0922
  934MOL0     H28887   4.140   5.423   2.472  0.1259 -1.7167 -1.0716
  934MOL0     H28888   3.975   5.351   2.078  4.5682 -2.7924 -0.6244
  934MOL0     H28889   4.458   5.821   2.850  0.6562 -0.7818 -1.0007
  934MOL0     H28890   4.558   6.068   3.056  0.0075  0.7226  0.3643
  934MOL0     H28891   4.592   5.907   2.986  0.5333 -1.2199 -0.6320
  934MOL0     H28892   4.679   6.055   2.927  0.0334 -0.7309 -0.0251
  935MOL0     O28893   7.549   7.925   9.543  0.2374 -1.0019 -1.2018
  935MOL0     C28894   7.590   8.036   9.583  0.0000 -0.0286  0.3150
  935MOL0     O28895   7.717   8.084   9.580  0.7161  0.3839  0.8217
  935MOL0     C28896   7.816   7.995   9.583  0.2139 -0.6227 -0.1167
  935MOL0     C28897   7.828   7.897   9.687  0.4926 -0.6502 -0.8460
  935MOL0     C28898   7.932   7.806   9.685 -0.4867  0.5229  0.1060
  935MOL0     C28899   8.029   7.804   9.574  1.0668 -0.5520 -0.1434
  935MOL0     O28900   8.129   7.713   9.577  0.9095  0.0705  0.0693
  935MOL0     C28901   8.205   7.673   9.464 -0.2786 -0.3130 -0.1132
  935MOL0     C28902   8.127   7.565   9.389 -0.3542  0.4675  0.3924
  935MOL0     C28903   8.066   7.450   9.463  0.7435  0.7676  0.1837
  935MOL0     C28904   8.017   7.336   9.364  0.2377 -0.1670 -1.5816
  935MOL0     C28905   7.919   7.245   9.431  0.2253  0.6718  0.2764
  935MOL0     C28906   7.856   7.144   9.333 -0.1552 -0.8777 -0.0925
  935MOL0     C28907   7.725   7.208   9.271 -0.3014  0.1694  0.7391
  935MOL0     C28908   7.673   7.098   9.172 -0.4826 -0.8090 -0.4968
  935MOL0     N28909   7.775   7.073   9.066 -0.3376 -0.1175 -0.8526
  935MOL0     C28910   7.814   7.164   8.969  0.3545 -0.1435  0.3973
  935MOL0     C28911   7.893   7.101   8.888 -0.1943  0.1990 -0.6367
  935MOL0     C28912   7.954   7.150   8.765 -0.1468  0.5494 -0.4069
  935MOL0     C28913   8.093   7.219   8.783 -0.8032  0.6931  0.3925
  935MOL0     C28914   8.099   7.338   8.870 -0.5475  0.0197  0.0285
  935MOL0     C28915   8.211   7.442   8.854 -0.7209 -0.2678  0.5901
  935MOL0     O28916   8.188   7.533   8.957 -0.8932 -0.0900  0.1269
  935MOL0     C28917   8.245   7.658   8.931 -0.9027 -0.5356 -0.6468
  935MOL0     C28918   8.338   7.679   8.827  0.0142 -0.8083 -0.0978
  935MOL0     C28919   8.409   7.799   8.820 -0.3105  0.0090  0.0994
  935MOL0     C28920   8.491   7.824   8.702 -0.7457  0.2855  1.4248
  935MOL0     C28921   8.367   7.906   8.906 -0.3746 -0.0410 -0.7864
  935MOL0     C28922   8.435   8.040   8.912  0.8946 -0.5241  0.0556
  935MOL0     O28923   8.355   8.148   8.942 -0.5105 -0.6280 -0.5434
  935MOL0     C28924   8.413   8.278   8.949  0.9755  0.0756  0.2798
  935MOL0     C28925   8.518   8.321   9.025  0.1934  0.9882 -1.4026
  935MOL0     C28926   8.569   8.452   9.023  0.1667  0.3481 -0.1453
  935MOL0     C28927   8.507   8.547   8.939 -0.4309  0.2676  0.3253
  935MOL0     O28928   8.546   8.679   8.930  0.4745 -0.3061 -0.0873
  935MOL0     C28929   8.624   8.750   9.023  0.5778  0.0499 -0.4784
  935MOL0     C28930   8.617   8.894   8.990 -0.4329  0.2215 -0.0999
  935MOL0     C28931   8.708   8.929   8.864  0.1776 -0.1085 -0.1889
  935MOL0     C28932   8.684   9.084   8.830  1.2112 -0.5211  0.7578
  935MOL0     C28933   8.754   9.143   8.715  0.5056 -0.0048 -0.3554
  935MOL0     C28934   8.903   9.146   8.742  0.2252 -0.0347  0.3524
  935MOL0     C28935   9.005   9.214   8.646  0.6991  0.2065 -0.6835
  935MOL0     C28936   9.153   9.181   8.675 -0.5878 -0.3428 -0.0872
  935MOL0    Cl28937   9.193   9.002   8.660 -0.1581  0.2047 -0.6002
  935MOL0     C28938   8.392   8.508   8.871  0.3904 -0.2495 -0.0556
  935MOL0     C28939   8.350   8.373   8.873 -0.4254 -0.4561  0.5682
  935MOL0     O28940   8.554   8.046   8.909  0.1185  0.0053 -0.3450
  935MOL0     C28941   8.276   7.883   9.008 -1.4222  0.2280 -0.8252
  935MOL0     C28942   8.219   7.756   9.028 -0.6052 -0.9816  0.4100
  935MOL0     N28943   7.888   6.963   8.921 -0.5779  0.3432 -0.8223
  935MOL0     N28944   7.819   6.948   9.030  0.4308 -0.4228 -1.1241
  935MOL0     C28945   8.014   7.908   9.488  0.2168 -0.9504 -0.1016
  935MOL0     C28946   7.915   8.004   9.495  0.0074  0.2457  0.6413
  935MOL0     C28947   7.486   8.116   9.658 -0.7228  0.2361  0.3312
  935MOL0     C28948   7.529   8.224   9.730 -0.2556 -0.2069  0.4142
  935MOL0     C28949   7.436   8.291   9.813  0.6408 -0.5849  0.0884
  935MOL0     C28950   7.306   8.266   9.823 -0.1099 -0.0961  0.3750
  935MOL0     O28951   7.226   8.343   9.894 -0.1812  0.5089 -0.0964
  935MOL0     C28952   7.082   8.311   9.906 -0.7594  0.2360 -0.7538
  935MOL0     C28953   7.003   8.410   9.995  0.1233  0.0515  0.0940
  935MOL0     C28954   7.045   8.415  10.145 -0.7810 -0.5483  0.1486
  935MOL0     C28955   7.178   8.497  10.166 -0.0474  0.6053 -0.6079
  935MOL0     C28956   7.156   8.621  10.245 -0.0007 -0.2977 -0.4876
  935MOL0     C28957   7.142   8.730  10.306 -0.4073 -0.3706  0.0586
  935MOL0     C28958   7.258   8.167   9.739 -0.0763  0.0160 -0.4697
  935MOL0     C28959   7.345   8.103   9.647  0.6764 -0.2495  0.7363
  935MOL0     C28960   7.280   8.029   9.538 -0.6713 -0.5943  0.4095
  935MOL0     H28961   7.743   7.897   9.755 -0.6657  0.8883 -2.1926
  935MOL0     H28962   7.922   7.736   9.768  0.8999 -0.7049 -0.7077
  935MOL0     H28963   8.298   7.628   9.501 -1.1072 -0.6642  1.6425
  935MOL0     H28964   8.237   7.757   9.403  1.2444 -0.9942 -0.3170
  935MOL0     H28965   8.039   7.611   9.344 -1.8069 -2.7575 -0.3207
  935MOL0     H28966   8.179   7.530   9.300 -2.4808 -0.4964 -0.5285
  935MOL0     H28967   8.145   7.411   9.529  0.5767  4.0733  2.5567
  935MOL0     H28968   7.980   7.484   9.521  0.8283 -2.4650  2.5161
  935MOL0     H28969   7.972   7.389   9.280 -0.1894 -0.1577 -1.3529
  935MOL0     H28970   8.107   7.279   9.339  2.1941  0.5558  2.8831
  935MOL0     H28971   7.837   7.302   9.475 -0.9641  1.5903 -2.8831
  935MOL0     H28972   7.966   7.181   9.508  1.3674  0.8804 -0.2219
  935MOL0     H28973   7.929   7.115   9.257  0.6618  0.8358 -0.0110
  935MOL0     H28974   7.824   7.057   9.391 -2.4945  0.4638  0.7652
  935MOL0     H28975   7.749   7.296   9.210  0.5284 -0.7826 -0.3440
  935MOL0     H28976   7.652   7.221   9.351  0.7366  1.2723  1.5532
  935MOL0     H28977   7.652   7.004   9.223  0.5736 -0.9187 -0.2483
  935MOL0     H28978   7.581   7.135   9.126 -1.6141 -4.4250 -1.4893
  935MOL0     H28979   7.791   7.268   8.952  0.7286 -0.0947  0.1954
  935MOL0     H28980   7.887   7.211   8.704 -0.2675 -0.4298 -1.2850
  935MOL0     H28981   7.967   7.064   8.698 -2.2120  0.8061 -1.2259
  935MOL0     H28982   8.163   7.140   8.810 -0.8407  1.4081  2.8976
  935MOL0     H28983   8.117   7.257   8.684  1.3316  1.1194  1.0319
  935MOL0     H28984   8.002   7.386   8.856 -1.7747 -2.3320 -0.0374
  935MOL0     H28985   8.112   7.296   8.970  1.7633 -1.7966 -0.9444
  935MOL0     H28986   8.309   7.397   8.869 -0.4959  0.5668  1.7214
  935MOL0     H28987   8.198   7.492   8.757  1.3331 -1.5285 -0.4100
  935MOL0     H28988   8.373   7.608   8.753 -0.3904  2.6967 -4.0333
  935MOL0     H28989   8.593   7.845   8.735 -0.9051 -0.8729  2.7524
  935MOL0     H28990   8.462   7.917   8.652 -0.8262 -0.1537  0.6212
  935MOL0     H28991   8.488   7.742   8.629 -0.8390  0.1036  1.6346
  935MOL0     H28992   8.563   8.247   9.090  1.5240  0.1360 -3.2239
  935MOL0     H28993   8.660   8.464   9.081  0.8330 -0.7961 -0.9116
  935MOL0     H28994   8.585   8.747   9.125  1.2517 -1.9145 -0.2338
  935MOL0     H28995   8.727   8.716   9.012  1.3944  2.5196 -1.1494
  935MOL0     H28996   8.511   8.910   8.972 -1.0749 -0.6334  2.4464
  935MOL0     H28997   8.640   8.955   9.078  0.7574 -2.0966  1.3114
  935MOL0     H28998   8.683   8.867   8.777 -0.2385  0.1203 -0.2351
  935MOL0     H28999   8.813   8.915   8.891 -0.3764  0.1161  2.3686
  935MOL0     H29000   8.708   9.148   8.915  1.3403  1.5771 -0.7707
  935MOL0     H29001   8.580   9.101   8.800  1.0671  1.6304  2.2726
  935MOL0     H29002   8.730   9.082   8.628 -0.6727 -0.7087  0.4213
  935MOL0     H29003   8.712   9.242   8.693 -2.4947 -1.3809 -1.4676
  935MOL0     H29004   8.935   9.043   8.760 -1.6995 -0.3741  2.1749
  935MOL0     H29005   8.921   9.199   8.836 -0.4383  0.1766  0.3691
  935MOL0     H29006   8.994   9.322   8.650 -1.5276  0.0120  1.9401
  935MOL0     H29007   9.002   9.190   8.540 -1.4022  4.6810 -1.8802
  935MOL0     H29008   9.176   9.211   8.777  0.6982  0.3675 -0.5621
  935MOL0     H29009   9.221   9.237   8.610  0.7686 -1.5192  0.2753
  935MOL0     H29010   8.334   8.581   8.815  2.7958  0.5936 -1.5892
  935MOL0     H29011   8.257   8.345   8.826 -0.4732 -0.4354  0.6507
  935MOL0     H29012   8.250   7.958   9.082 -2.2182 -1.4561  0.6868
  935MOL0     H29013   8.148   7.744   9.109  0.7100 -1.0429  1.5934
  935MOL0     H29014   8.083   7.948   9.415 -1.5146 -0.0669 -1.3304
  935MOL0     H29015   7.915   8.086   9.425 -0.6701  1.5398  2.0925
  935MOL0     H29016   7.630   8.265   9.734 -1.7912  4.0778  1.7731
  935MOL0     H29017   7.473   8.369   9.878  0.8930 -0.4955 -0.1626
  935MOL0     H29018   7.035   8.309   9.808 -0.6800 -1.7035 -0.7845
  935MOL0     H29019   7.071   8.214   9.955 -2.0715  1.2019  1.0143
  935MOL0     H29020   6.900   8.376   9.999  0.2363 -0.2006  1.0218
  935MOL0     H29021   6.996   8.509   9.949 -1.2027 -0.6862 -1.3795
  935MOL0     H29022   6.964   8.457  10.206 -0.1664  0.8562  0.0246
  935MOL0     H29023   7.054   8.316  10.190  0.8970  0.4970  2.2607
  935MOL0     H29024   7.222   8.525  10.070  1.6613  0.4783  0.1174
  935MOL0     H29025   7.253   8.439  10.219  1.7122  2.6424 -0.7538
  935MOL0     H29026   7.129   8.832  10.336 -2.0825 -0.8261  1.0362
  935MOL0     H29027   7.152   8.145   9.727 -0.4629  2.2792 -1.9476
  935MOL0     H29028   7.333   8.055   9.445  2.6756 -1.2860  1.9851
  935MOL0     H29029   7.305   7.926   9.563 -1.9213 -1.2922 -1.0313
  935MOL0     H29030   7.171   8.027   9.527 -0.6066 -0.7872 -0.2692
  936MOL0     O29031   6.494   8.668   5.298  0.6667 -0.1154  1.2589
  936MOL0     C29032   6.585   8.603   5.252  0.0839  0.7682 -1.1954
  936MOL0     O29033   6.567   8.480   5.193 -0.0095 -0.2389 -0.5790
  936MOL0     C29034   6.442   8.440   5.143 -0.7795 -0.1246 -0.6293
  936MOL0     C29035   6.416   8.299   5.153 -0.0300 -0.5040  0.1277
  936MOL0     C29036   6.290   8.244   5.120 -0.0212 -0.9459 -0.6065
  936MOL0     C29037   6.183   8.331   5.082 -0.6698 -0.2650  0.1394
  936MOL0     O29038   6.055   8.295   5.063  0.2374 -0.1312  0.2248
  936MOL0     C29039   6.036   8.163   5.020  0.6543 -0.0140 -0.1697
  936MOL0     C29040   5.886   8.168   5.003 -0.0154  0.6679  0.2090
  936MOL0     C29041   5.853   8.030   4.935  0.4371  0.1386 -0.1614
  936MOL0     C29042   5.718   8.026   4.868 -0.1366  0.0318  0.2324
  936MOL0     C29043   5.714   7.897   4.782  0.1213 -0.1129 -0.2156
  936MOL0     C29044   5.574   7.877   4.747  0.3855 -0.1432  0.1922
  936MOL0     C29045   5.544   7.737   4.677 -0.7557 -0.3714 -0.0211
  936MOL0     C29046   5.389   7.707   4.662 -0.6281 -1.3242 -0.4124
  936MOL0     N29047   5.343   7.717   4.518 -0.8309 -0.7134  0.4729
  936MOL0     C29048   5.324   7.617   4.431  0.5745  0.1249 -0.4449
  936MOL0     C29049   5.293   7.676   4.317  0.2057  0.4884 -0.3790
  936MOL0     C29050   5.259   7.592   4.199  0.0972 -0.2503  0.2377
  936MOL0     C29051   5.233   7.668   4.070 -0.3210 -0.6826 -0.0222
  936MOL0     C29052   5.219   7.583   3.949 -0.8504 -0.1662  0.5939
  936MOL0     C29053   5.155   7.658   3.831  0.3605 -0.4894  0.4671
  936MOL0     O29054   5.187   7.584   3.714 -0.3412 -0.1103 -0.0595
  936MOL0     C29055   5.123   7.465   3.703 -0.1756 -0.3527  0.7540
  936MOL0     C29056   5.006   7.421   3.778 -1.3316 -0.9201 -0.3438
  936MOL0     C29057   4.947   7.305   3.740  0.1792  1.1748 -0.5538
  936MOL0     C29058   4.837   7.264   3.834  0.0730  0.3953 -0.6893
  936MOL0     C29059   4.991   7.228   3.618  0.4703 -0.2095 -0.0616
  936MOL0     C29060   4.934   7.108   3.567  0.6251 -0.4275  0.1248
  936MOL0     O29061   5.010   7.049   3.465 -0.0872  0.1628 -0.3037
  936MOL0     C29062   4.962   6.932   3.411  0.3108  0.6339 -0.6823
  936MOL0     C29063   5.044   6.821   3.406 -0.1030  0.3949 -0.3379
  936MOL0     C29064   5.014   6.704   3.337  0.1424 -0.1400 -0.9424
  936MOL0     C29065   4.888   6.693   3.273  0.0683 -0.4734  1.2972
  936MOL0     O29066   4.845   6.583   3.202 -0.4096  0.4868 -0.0770
  936MOL0     C29067   4.818   6.484   3.303  0.6571 -0.8479  1.0616
  936MOL0     C29068   4.783   6.356   3.214 -0.6753 -0.9266 -0.4854
  936MOL0     C29069   4.917   6.298   3.162  0.3448  0.0173 -0.0915
  936MOL0     C29070   4.879   6.162   3.097 -0.1169 -0.3381  0.4389
  936MOL0     C29071   5.003   6.073   3.115 -0.1507  0.0801 -0.7964
  936MOL0     C29072   4.964   5.924   3.079 -0.6940  0.5426  0.4617
  936MOL0     C29073   4.934   5.841   3.202 -0.0656 -0.3375 -0.0540
  936MOL0     C29074   4.906   5.698   3.163 -0.6742 -0.8286 -0.3505
  936MOL0    Cl29075   4.740   5.664   3.110 -0.2831  0.2366  0.0169
  936MOL0     C29076   4.798   6.798   3.280  0.0317  0.5190  0.6710
  936MOL0     C29077   4.834   6.914   3.345  0.4118 -0.1252 -0.1282
  936MOL0     O29078   4.826   7.071   3.604  0.2616 -0.4234 -0.8803
  936MOL0     C29079   5.103   7.276   3.550 -0.3186 -0.6684  0.4192
  936MOL0     C29080   5.163   7.393   3.594  0.0456  0.1537  0.4837
  936MOL0     N29081   5.279   7.809   4.336  0.8992 -0.0213 -0.6930
  936MOL0     N29082   5.316   7.831   4.449  0.7667 -0.4950  0.4969
  936MOL0     C29083   6.212   8.470   5.083 -0.2449 -0.6309  0.5314
  936MOL0     C29084   6.339   8.520   5.106 -0.2586  0.3130  0.3817
  936MOL0     C29085   6.723   8.663   5.247  0.9215  0.6280 -0.1291
  936MOL0     C29086   6.740   8.780   5.171 -0.6865 -0.1384 -0.5507
  936MOL0     C29087   6.855   8.852   5.182 -0.3797 -0.3685 -0.1614
  936MOL0     C29088   6.970   8.796   5.248 -0.4726  0.3239 -0.5034
  936MOL0     O29089   7.096   8.856   5.239  0.1810 -0.1096  0.1429
  936MOL0     C29090   7.114   8.997   5.207  0.5798 -0.2010 -0.1571
  936MOL0     C29091   7.056   9.087   5.309  0.6574  0.5514  1.2768
  936MOL0     C29092   7.112   9.226   5.301  0.0837 -0.5805  0.8449
  936MOL0     C29093   7.051   9.328   5.408 -0.8352 -0.6075  0.2573
  936MOL0     C29094   7.103   9.470   5.379  0.3429  0.8976 -1.0107
  936MOL0     C29095   7.138   9.580   5.361  1.0461  0.0217  0.4362
  936MOL0     C29096   6.954   8.672   5.312  0.0247 -0.3780 -0.0124
  936MOL0     C29097   6.831   8.609   5.317 -0.9362  0.3056 -0.5690
  936MOL0     C29098   6.828   8.488   5.406 -0.1805  0.5911 -0.5194
  936MOL0     H29099   6.490   8.228   5.188  0.5641  0.8691  1.8036
  936MOL0     H29100   6.275   8.137   5.110 -3.6458 -0.5585 -0.6436
  936MOL0     H29101   6.063   8.087   5.093  1.2154 -1.3588 -1.7075
  936MOL0     H29102   6.080   8.129   4.926  0.0071 -1.6200  0.0777
  936MOL0     H29103   5.832   8.170   5.098 -0.1314  1.6552  0.1336
  936MOL0     H29104   5.848   8.243   4.932 -0.2983  2.5812  2.2843
  936MOL0     H29105   5.922   8.001   4.855  1.5395  2.9902 -0.3667
  936MOL0     H29106   5.856   7.955   5.016  0.1948  2.2346  1.8935
  936MOL0     H29107   5.634   8.039   4.936  0.6578 -3.4378  2.0817
  936MOL0     H29108   5.709   8.110   4.799 -0.4289 -0.0345  0.1874
  936MOL0     H29109   5.764   7.814   4.832  2.1415 -0.3367 -2.4175
  936MOL0     H29110   5.769   7.907   4.688  0.8625  0.6216  0.2832
  936MOL0     H29111   5.512   7.885   4.837 -2.3243  0.7602 -1.6227
  936MOL0     H29112   5.546   7.963   4.686  2.0730  1.6310  1.8039
  936MOL0     H29113   5.597   7.662   4.737 -0.9010 -0.1356  0.4042
  936MOL0     H29114   5.595   7.738   4.581 -0.1177  3.6552  0.1854
  936MOL0     H29115   5.371   7.609   4.706  0.1476 -2.3297 -2.2570
  936MOL0     H29116   5.340   7.777   4.731 -1.0252 -1.8309 -0.1724
  936MOL0     H29117   5.338   7.516   4.469 -3.0737 -0.0410  0.8466
  936MOL0     H29118   5.180   7.516   4.206 -0.6273  0.4407 -0.2557
  936MOL0     H29119   5.348   7.529   4.182  0.0814 -1.3190  3.3585
  936MOL0     H29120   5.143   7.726   4.093 -0.3790 -1.7302  2.7763
  936MOL0     H29121   5.304   7.750   4.058  0.3100 -1.0206  1.3052
  936MOL0     H29122   5.313   7.540   3.915 -3.1603 -5.0664 -0.4690
  936MOL0     H29123   5.173   7.486   3.971  2.0145 -2.2088 -1.6027
  936MOL0     H29124   5.046   7.665   3.841  0.6529  2.1113  3.2790
  936MOL0     H29125   5.183   7.763   3.833 -0.5897 -0.2409  1.6704
  936MOL0     H29126   4.986   7.465   3.875  5.4104  0.7644  0.7736
  936MOL0     H29127   4.848   7.307   3.934 -0.1254  0.1450 -0.5609
  936MOL0     H29128   4.822   7.157   3.850 -0.7352  0.4782 -0.8811
  936MOL0     H29129   4.745   7.295   3.785 -0.4195  3.0820  1.6441
  936MOL0     H29130   5.148   6.835   3.436  0.1750 -1.4359 -0.3048
  936MOL0     H29131   5.086   6.623   3.331 -0.0669 -0.3774 -0.3606
  936MOL0     H29132   4.905   6.461   3.365  0.5264 -1.6860  0.9463
  936MOL0     H29133   4.740   6.519   3.371 -1.3370  1.8473 -2.3111
  936MOL0     H29134   4.736   6.295   3.291  0.7174  0.1322  1.2844
  936MOL0     H29135   4.722   6.379   3.126 -0.8274  0.8633  0.0386
  936MOL0     H29136   4.979   6.279   3.250 -1.6439 -1.8592  1.0079
  936MOL0     H29137   4.960   6.366   3.088 -1.3904  0.0446 -1.1445
  936MOL0     H29138   4.850   6.172   2.992  4.1691  0.5878 -0.8892
  936MOL0     H29139   4.802   6.108   3.153 -1.0712  1.3972  0.8756
  936MOL0     H29140   5.071   6.117   3.041 -2.6654  0.9364 -2.7350
  936MOL0     H29141   5.049   6.073   3.214 -2.5632 -1.1551  0.4291
  936MOL0     H29142   5.060   5.881   3.047 -0.2619  0.6012  1.6596
  936MOL0     H29143   4.884   5.914   3.005 -0.9717 -0.6433  0.8992
  936MOL0     H29144   4.856   5.882   3.267  0.1956  2.9813 -1.6344
  936MOL0     H29145   5.031   5.828   3.251  1.6231  2.7125 -2.2862
  936MOL0     H29146   4.933   5.637   3.250  2.7438 -1.2504 -1.5565
  936MOL0     H29147   4.976   5.658   3.089 -1.7633  1.0037 -2.4688
  936MOL0     H29148   4.696   6.790   3.243  0.0597 -0.6250  0.8053
  936MOL0     H29149   4.767   6.996   3.322  4.1980  3.5587  0.5575
  936MOL0     H29150   5.140   7.234   3.458  2.2133  0.3320  0.9143
  936MOL0     H29151   5.235   7.451   3.537 -0.1186 -1.3464 -1.3533
  936MOL0     H29152   6.141   8.546   5.053  0.9604 -0.0039 -0.7935
  936MOL0     H29153   6.361   8.626   5.093  0.9994 -0.1943 -2.2096
  936MOL0     H29154   6.649   8.810   5.119 -2.4360 -1.7365  1.3965
  936MOL0     H29155   6.859   8.945   5.128 -1.1073 -0.6911 -0.7925
  936MOL0     H29156   7.222   9.010   5.199  0.6740 -0.3233  0.8176
  936MOL0     H29157   7.067   9.024   5.112 -1.8233 -0.9489  0.7412
  936MOL0     H29158   7.070   9.032   5.403 -1.3462 -0.3790  1.0868
  936MOL0     H29159   6.953   9.090   5.273  1.8655 -1.7471 -3.0269
  936MOL0     H29160   7.221   9.232   5.306  0.1011 -0.2741  0.2176
  936MOL0     H29161   7.091   9.259   5.199 -1.9085 -1.8673  0.7875
  936MOL0     H29162   7.078   9.281   5.503  0.8618  0.9792  0.6148
  936MOL0     H29163   6.943   9.340   5.398 -0.7218  0.8716  0.5238
  936MOL0     H29164   7.164   9.683   5.350  2.6399 -0.4216 -0.1844
  936MOL0     H29165   7.035   8.640   5.377 -0.7119 -0.8022  0.7132
  936MOL0     H29166   6.781   8.408   5.347 -0.9081  0.4485  0.2315
  936MOL0     H29167   6.930   8.463   5.437  0.6542  2.5366 -1.5662
  936MOL0     H29168   6.775   8.514   5.498 -1.9893  0.9058 -1.6111
  937MOL0     O29169  11.178   2.178   5.312 -0.7638  0.5017 -0.1404
  937MOL0     C29170  11.300   2.144   5.320 -0.2951 -1.1449 -0.4824
  937MOL0     O29171  11.344   2.018   5.354  0.1816  0.3403 -0.1428
  937MOL0     C29172  11.247   1.916   5.353 -0.9120 -0.3654 -0.3655
  937MOL0     C29173  11.211   1.842   5.236  0.0111  0.5056 -0.2365
  937MOL0     C29174  11.108   1.749   5.246  0.2578  0.7213  0.4660
  937MOL0     C29175  11.039   1.743   5.372  0.3842  0.5022  0.5912
  937MOL0     O29176  10.938   1.649   5.383  0.5601 -0.4297 -0.5403
  937MOL0     C29177  10.819   1.701   5.424  0.2734  0.3766  0.1484
  937MOL0     C29178  10.706   1.609   5.382  0.9985 -0.7405  0.6349
  937MOL0     C29179  10.581   1.656   5.461 -0.1450  0.1500  0.1817
  937MOL0     C29180  10.444   1.629   5.394  0.0806  0.1956 -0.9520
  937MOL0     C29181  10.318   1.648   5.480 -0.4119 -0.1074 -0.0013
  937MOL0     C29182  10.189   1.629   5.397 -0.2181  0.2675 -0.0422
  937MOL0     C29183  10.055   1.648   5.474 -0.2413 -0.5642  0.0376
  937MOL0     C29184  10.026   1.792   5.535 -0.6859  0.1650 -0.1964
  937MOL0     N29185   9.903   1.808   5.615 -0.0846  0.5569  0.0408
  937MOL0     C29186   9.785   1.840   5.566 -0.5636 -0.1373 -0.6446
  937MOL0     C29187   9.703   1.839   5.683  0.2329 -0.0383  0.3145
  937MOL0     C29188   9.550   1.866   5.707 -1.1961  0.1812  0.0109
  937MOL0     C29189   9.537   2.012   5.686  0.1704  0.8301 -0.8064
  937MOL0     C29190   9.425   2.066   5.780  0.1985 -0.0489  0.1418
  937MOL0     C29191   9.406   2.222   5.751  0.3992 -0.1075 -0.2364
  937MOL0     O29192   9.296   2.252   5.659 -0.2405 -0.4184 -0.3572
  937MOL0     C29193   9.253   2.384   5.646  0.1776  0.9059 -0.5674
  937MOL0     C29194   9.148   2.409   5.562  1.2953 -0.0419 -0.3845
  937MOL0     C29195   9.089   2.537   5.556  0.5893 -0.4249  0.3521
  937MOL0     C29196   8.970   2.567   5.476  0.4780  0.8783  0.8187
  937MOL0     C29197   9.148   2.634   5.637 -1.0460 -1.1587  0.3419
  937MOL0     C29198   9.098   2.768   5.644  0.1322  0.3524  0.3070
  937MOL0     O29199   9.029   2.802   5.761  0.0240 -0.4795 -0.2911
  937MOL0     C29200   8.977   2.926   5.779  0.0056 -0.2520 -0.1428
  937MOL0     C29201   8.845   2.939   5.837  0.5080  0.2037 -0.8982
  937MOL0     C29202   8.781   3.053   5.863  0.5497 -1.0470 -0.2978
  937MOL0     C29203   8.851   3.178   5.841  0.0971  0.2706 -0.6334
  937MOL0     O29204   8.800   3.291   5.893  1.0262  0.0969 -0.7291
  937MOL0     C29205   8.748   3.381   5.787 -0.4166 -0.4149 -0.5145
  937MOL0     C29206   8.766   3.515   5.849 -0.5042 -0.1108 -0.2670
  937MOL0     C29207   8.732   3.611   5.735  0.2272  0.3437 -0.2261
  937MOL0     C29208   8.740   3.761   5.760  0.0321 -0.0431 -0.7781
  937MOL0     C29209   8.700   3.831   5.632  0.8585  0.1368 -0.5399
  937MOL0     C29210   8.692   3.979   5.658  0.0180  0.4718  0.0741
  937MOL0     C29211   8.596   4.006   5.773  0.6689 -0.7048 -0.6781
  937MOL0     C29212   8.555   4.154   5.782  0.3147  0.2466  0.0787
  937MOL0    Cl29213   8.455   4.206   5.642  0.5825  0.0045 -0.2395
  937MOL0     C29214   8.978   3.174   5.793 -0.0042  0.1014  0.1667
  937MOL0     C29215   9.044   3.049   5.771 -0.4245 -0.1200 -1.0062
  937MOL0     O29216   9.140   2.841   5.554  0.0520 -0.0584  0.5919
  937MOL0     C29217   9.259   2.614   5.717 -0.4760  1.3976 -0.7956
  937MOL0     C29218   9.313   2.486   5.717 -0.0742 -0.3223 -0.2942
  937MOL0     N29219   9.788   1.812   5.790  0.4640 -0.3571  0.5374
  937MOL0     N29220   9.909   1.787   5.754  0.2323  0.5510  0.8094
  937MOL0     C29221  11.080   1.812   5.483 -1.1427 -0.3699  0.7181
  937MOL0     C29222  11.190   1.896   5.477  0.5602  0.3996 -0.5205
  937MOL0     C29223  11.404   2.256   5.309 -0.1456  0.3094  0.6057
  937MOL0     C29224  11.515   2.236   5.219 -0.4744 -0.0451  0.4443
  937MOL0     C29225  11.620   2.328   5.224 -0.1087  0.5663 -0.4958
  937MOL0     C29226  11.611   2.458   5.282 -0.0668  0.3419  0.3342
  937MOL0     O29227  11.707   2.552   5.258 -0.2823 -0.5173  0.0302
  937MOL0     C29228  11.682   2.695   5.273  0.3951  0.5237 -0.6597
  937MOL0     C29229  11.789   2.772   5.199  0.2362 -0.4906  0.2597
  937MOL0     C29230  11.775   2.928   5.198 -0.0220  0.0587  0.0525
  937MOL0     C29231  11.795   2.987   5.325 -0.1373 -0.2912 -0.3289
  937MOL0     C29232  11.784   3.139   5.326 -0.2178  0.7286  0.2949
  937MOL0     C29233  11.805   3.257   5.309 -0.1443  0.3075 -0.7907
  937MOL0     C29234  11.499   2.476   5.365  0.5145  0.0878 -0.1072
  937MOL0     C29235  11.403   2.382   5.380  0.3574 -0.0605 -0.2070
  937MOL0     C29236  11.290   2.421   5.472 -0.0593  0.4819  0.3969
  937MOL0     H29237  11.265   1.870   5.146 -1.7800  1.3473 -1.0961
  937MOL0     H29238  11.088   1.691   5.156  2.4895 -0.7133  0.8192
  937MOL0     H29239  10.812   1.805   5.388  2.7528  1.6387  2.8179
  937MOL0     H29240  10.818   1.694   5.533 -2.4208 -1.9157  0.0658
  937MOL0     H29241  10.685   1.603   5.275  0.2098 -0.9896  0.7950
  937MOL0     H29242  10.727   1.505   5.409 -0.0596 -1.1213  0.0639
  937MOL0     H29243  10.576   1.599   5.554 -3.0107 -0.0308  0.0008
  937MOL0     H29244  10.580   1.763   5.486 -0.7939  0.3939 -0.8357
  937MOL0     H29245  10.432   1.698   5.310 -2.2168  2.2654  0.9077
  937MOL0     H29246  10.449   1.526   5.356  2.7727 -0.7231  1.5091
  937MOL0     H29247  10.318   1.748   5.525 -2.3289  0.4027 -0.9996
  937MOL0     H29248  10.314   1.580   5.566  2.6918 -0.4022  0.0133
  937MOL0     H29249  10.205   1.698   5.313 -2.2749 -0.5183 -1.1381
  937MOL0     H29250  10.182   1.529   5.353 -4.8655  0.2436  0.3220
  937MOL0     H29251  10.026   1.568   5.542  1.1232 -2.2978 -1.3370
  937MOL0     H29252   9.987   1.652   5.389 -1.3578  0.7977  0.9388
  937MOL0     H29253  10.110   1.813   5.602 -1.6847 -2.2624  2.0037
  937MOL0     H29254  10.019   1.865   5.454  1.8736  0.0527 -0.5939
  937MOL0     H29255   9.760   1.867   5.464 -0.5033 -0.6682 -0.8044
  937MOL0     H29256   9.520   1.835   5.808  0.3154  1.8764  1.0511
  937MOL0     H29257   9.484   1.806   5.645  0.0615  0.4568 -1.6704
  937MOL0     H29258   9.624   2.074   5.711 -2.2390  3.9717  0.6127
  937MOL0     H29259   9.513   2.018   5.579  1.7757  2.3096 -1.1320
  937MOL0     H29260   9.329   2.019   5.758 -0.4859  1.8150 -1.0832
  937MOL0     H29261   9.457   2.074   5.884  0.5766 -1.5764  0.1785
  937MOL0     H29262   9.377   2.272   5.844 -1.2120 -0.6552 -0.4002
  937MOL0     H29263   9.502   2.263   5.718  0.6367 -0.6382 -0.2055
  937MOL0     H29264   9.116   2.323   5.503 -2.1446  0.0745  1.0549
  937MOL0     H29265   8.877   2.553   5.532  2.1013 -2.6158  2.9638
  937MOL0     H29266   8.969   2.502   5.388  2.4353  0.6644  0.9108
  937MOL0     H29267   8.985   2.670   5.442  1.5696  0.8133  1.0801
  937MOL0     H29268   8.783   2.855   5.866  2.0910  0.4015  3.7541
  937MOL0     H29269   8.674   3.066   5.876  0.9099  2.0545  0.4861
  937MOL0     H29270   8.815   3.369   5.702 -0.4495 -1.7319 -0.3794
  937MOL0     H29271   8.645   3.365   5.754 -0.5836 -0.1601 -0.1278
  937MOL0     H29272   8.694   3.534   5.928 -1.1596 -2.5931 -0.1927
  937MOL0     H29273   8.869   3.526   5.883 -0.3556 -1.9539  0.0136
  937MOL0     H29274   8.630   3.592   5.702 -0.5336  2.5937  0.6572
  937MOL0     H29275   8.794   3.585   5.648  0.4118 -0.9676  0.2748
  937MOL0     H29276   8.842   3.786   5.790 -0.0536 -0.7506  0.1351
  937MOL0     H29277   8.673   3.779   5.844 -0.4352  0.5408 -1.2633
  937MOL0     H29278   8.786   3.822   5.566 -0.6771 -1.9694 -2.4057
  937MOL0     H29279   8.607   3.796   5.586  0.0172 -0.9639  1.7974
  937MOL0     H29280   8.665   4.030   5.565  0.9222 -1.3282 -1.2406
  937MOL0     H29281   8.783   4.020   5.703 -2.5739  2.2905  4.3205
  937MOL0     H29282   8.650   3.979   5.865  1.2170 -4.3313 -1.9099
  937MOL0     H29283   8.504   3.952   5.751  0.4855 -0.8449  0.3507
  937MOL0     H29284   8.641   4.221   5.787  0.9531 -0.6587  3.2380
  937MOL0     H29285   8.486   4.171   5.865 -2.2398 -0.3350 -1.8101
  937MOL0     H29286   9.052   3.253   5.781  3.5794 -3.1411 -1.1886
  937MOL0     H29287   9.152   3.050   5.761 -0.0072  0.0525  2.3257
  937MOL0     H29288   9.307   2.693   5.774  0.5747  0.4883 -0.3716
  937MOL0     H29289   9.395   2.469   5.786 -0.6372 -0.9482  0.2355
  937MOL0     H29290  11.042   1.794   5.583  1.3855 -1.0430  1.6445
  937MOL0     H29291  11.222   1.941   5.571  0.8625 -1.1253  0.1312
  937MOL0     H29292  11.532   2.147   5.159  1.2843  1.1215 -0.9137
  937MOL0     H29293  11.713   2.318   5.168 -1.2539 -0.0852 -2.3780
  937MOL0     H29294  11.581   2.732   5.257 -0.5515 -2.1268 -1.3780
  937MOL0     H29295  11.689   2.710   5.382  2.1928 -4.8843  0.2915
  937MOL0     H29296  11.799   2.731   5.098 -0.3918  2.1887 -0.9625
  937MOL0     H29297  11.881   2.743   5.251 -0.0254  1.4493  1.9083
  937MOL0     H29298  11.836   2.978   5.123 -0.9631  3.6292  1.4519
  937MOL0     H29299  11.675   2.956   5.163 -0.1548  2.1460  1.8677
  937MOL0     H29300  11.890   2.971   5.377 -1.6167  0.3391  2.8379
  937MOL0     H29301  11.723   2.945   5.395 -1.5547 -2.4196 -2.8648
  937MOL0     H29302  11.810   3.361   5.287  0.3682 -0.0396 -2.4980
  937MOL0     H29303  11.497   2.577   5.405  0.7442  0.4862 -1.0781
  937MOL0     H29304  11.300   2.524   5.507 -1.3949  0.7377  0.0932
  937MOL0     H29305  11.192   2.405   5.424 -0.7477  1.0643  1.5695
  937MOL0     H29306  11.294   2.356   5.560  1.9914  0.1573  0.1022
  938MOL0     O29307  10.877   3.750   1.953 -0.1839 -0.7055  0.0658
  938MOL0     C29308  10.995   3.762   1.961 -0.4790  0.6698 -0.4619
  938MOL0     O29309  11.072   3.661   2.005  0.0986 -0.1057  0.1893
  938MOL0     C29310  11.014   3.535   2.033 -0.8376 -0.2930 -0.0204
  938MOL0     C29311  11.025   3.490   2.163 -0.2823 -0.4434  0.0198
  938MOL0     C29312  10.963   3.368   2.205  1.0085 -0.1026  0.3218
  938MOL0     C29313  10.909   3.283   2.107 -0.6054 -0.1013 -0.0044
  938MOL0     O29314  10.863   3.167   2.156 -0.5495  0.0303  0.0608
  938MOL0     C29315  10.835   3.060   2.060  0.5387  0.7936 -0.2733
  938MOL0     C29316  10.851   2.924   2.148  0.1789  0.3401 -0.2142
  938MOL0     C29317  10.854   2.797   2.057 -0.3938  0.3831  0.3472
  938MOL0     C29318  10.862   2.682   2.145 -0.8085  0.2745 -1.0787
  938MOL0     C29319  10.843   2.546   2.074  0.1033 -0.5406 -0.6966
  938MOL0     C29320  10.887   2.441   2.177 -0.4190  0.2631  1.2764
  938MOL0     C29321  10.885   2.295   2.121  0.1134 -0.7310 -0.0276
  938MOL0     C29322  10.913   2.183   2.220 -0.1704 -0.4713  0.9042
  938MOL0     N29323  10.813   2.196   2.327  1.1911 -0.1726 -0.9675
  938MOL0     C29324  10.669   2.167   2.314 -1.1376 -0.0298 -0.3685
  938MOL0     C29325  10.622   2.196   2.435 -0.2123 -0.2559 -0.7273
  938MOL0     C29326  10.488   2.162   2.492 -0.2697  0.7679 -0.6567
  938MOL0     C29327  10.455   2.020   2.491  0.4083  0.2004  0.0221
  938MOL0     C29328  10.520   1.939   2.607  0.1286 -0.5597 -1.0774
  938MOL0     C29329  10.475   1.789   2.599 -0.1810  0.0203 -0.0103
  938MOL0     O29330  10.502   1.734   2.466  0.2453  0.3504  0.3458
  938MOL0     C29331  10.633   1.736   2.411 -0.4200  0.2953  0.1025
  938MOL0     C29332  10.646   1.723   2.271  0.7018  0.0724  0.5694
  938MOL0     C29333  10.775   1.729   2.208  0.2701  0.5070 -0.1174
  938MOL0     C29334  10.791   1.682   2.067 -0.1220 -0.2388  0.6908
  938MOL0     C29335  10.892   1.763   2.288 -0.3068  0.6264  0.1601
  938MOL0     C29336  11.026   1.794   2.235  0.3574  0.7817  0.0752
  938MOL0     O29337  11.119   1.823   2.326 -0.6199  0.6168 -0.8417
  938MOL0     C29338  11.252   1.851   2.297  0.6441  0.0765 -0.4451
  938MOL0     C29339  11.347   1.790   2.374 -0.1994  0.7737 -0.2113
  938MOL0     C29340  11.488   1.794   2.350  0.0059  0.2734  1.6097
  938MOL0     C29341  11.535   1.871   2.238  0.8971 -0.3543  0.5305
  938MOL0     O29342  11.672   1.909   2.217 -0.2002  0.2588  0.0826
  938MOL0     C29343  11.778   1.834   2.283 -0.4256  0.0528 -0.5040
  938MOL0     C29344  11.921   1.892   2.258 -0.2249  0.2065  0.1304
  938MOL0     C29345  11.940   2.045   2.264 -0.0653  1.0924  0.0356
  938MOL0     C29346  12.079   2.098   2.250 -0.1023 -0.7154 -0.9967
  938MOL0     C29347  12.070   2.245   2.251  0.3757  0.1805 -0.2911
  938MOL0     C29348  12.214   2.304   2.246  0.1503 -0.4940  0.4685
  938MOL0     C29349  12.206   2.461   2.239 -0.0533  0.6469  0.2563
  938MOL0     C29350  12.351   2.511   2.209 -0.6653 -0.1698  0.0357
  938MOL0    Cl29351  12.361   2.680   2.212 -0.1396  0.2456 -0.2475
  938MOL0     C29352  11.438   1.948   2.173  0.4796  0.3111  0.7410
  938MOL0     C29353  11.296   1.935   2.192  0.4446 -0.6907  0.1564
  938MOL0     O29354  11.043   1.793   2.114 -0.0718  0.2855 -0.1494
  938MOL0     C29355  10.869   1.766   2.425 -0.1200 -0.1243 -0.1892
  938MOL0     C29356  10.745   1.743   2.487 -0.4936  0.2300  0.3649
  938MOL0     N29357  10.721   2.251   2.520 -0.0393  1.0278  0.7010
  938MOL0     N29358  10.834   2.247   2.450  0.1362 -0.0803  0.7596
  938MOL0     C29359  10.900   3.332   1.978 -0.9845 -1.0703  0.4954
  938MOL0     C29360  10.947   3.462   1.943  0.8607  0.1433 -0.0290
  938MOL0     C29361  11.051   3.886   1.915 -0.5273 -0.2169 -0.1811
  938MOL0     C29362  11.187   3.905   1.937  0.0106  0.7935 -0.5097
  938MOL0     C29363  11.254   4.020   1.885  0.2681  0.4618 -0.0325
  938MOL0     C29364  11.195   4.104   1.789  0.3912 -0.1074  0.2523
  938MOL0     O29365  11.271   4.197   1.727 -0.3760  0.6188 -0.3822
  938MOL0     C29366  11.270   4.168   1.587  0.1098  0.1316 -0.4861
  938MOL0     C29367  11.349   4.275   1.520 -0.9692 -0.2872  0.3260
  938MOL0     C29368  11.466   4.332   1.600 -0.4637  1.2933  0.1104
  938MOL0     C29369  11.585   4.388   1.512 -0.4408 -0.5122  0.1186
  938MOL0     C29370  11.642   4.501   1.590 -1.0327  0.7620 -0.3972
  938MOL0     C29371  11.688   4.597   1.653  0.5954  0.0547 -0.1611
  938MOL0     C29372  11.055   4.087   1.759 -0.6390  0.0081 -0.2717
  938MOL0     C29373  10.985   3.990   1.843  0.5344  0.4530  0.1604
  938MOL0     C29374  10.835   3.993   1.818 -0.1363  0.3494  0.1841
  938MOL0     H29375  11.076   3.560   2.228 -2.7004  1.4930 -0.0398
  938MOL0     H29376  10.970   3.339   2.310  1.4016  0.0667  0.3436
  938MOL0     H29377  10.902   3.049   1.975  0.0518 -3.0052 -0.3336
  938MOL0     H29378  10.731   3.064   2.024 -0.8527 -3.1422  2.5666
  938MOL0     H29379  10.944   2.930   2.205  0.7303  2.1889 -1.2175
  938MOL0     H29380  10.775   2.922   2.226 -2.0480  0.8754 -2.2356
  938MOL0     H29381  10.764   2.791   1.996 -0.5446 -3.8374  0.7008
  938MOL0     H29382  10.941   2.788   1.991 -0.7591 -1.1178  0.0328
  938MOL0     H29383  10.955   2.675   2.202  0.4052 -3.1185 -3.1254
  938MOL0     H29384  10.778   2.685   2.215 -2.7145 -5.3520 -2.5397
  938MOL0     H29385  10.897   2.542   1.979  1.6062 -2.0941  0.1508
  938MOL0     H29386  10.743   2.521   2.039  0.0545 -3.0910  1.0146
  938MOL0     H29387  10.991   2.468   2.199 -0.3321  0.8860  0.1966
  938MOL0     H29388  10.832   2.466   2.268 -0.2624 -0.5065  1.5875
  938MOL0     H29389  10.954   2.286   2.037  0.7649 -2.1144  0.6254
  938MOL0     H29390  10.789   2.270   2.075 -0.2017 -4.8985  2.4083
  938MOL0     H29391  10.921   2.085   2.173 -0.5019  0.3887 -1.0223
  938MOL0     H29392  11.013   2.195   2.262  0.7258 -0.4643 -1.1244
  938MOL0     H29393  10.618   2.123   2.228  1.1381 -0.1882 -1.7214
  938MOL0     H29394  10.412   2.215   2.434 -2.7722  0.3256  1.9792
  938MOL0     H29395  10.488   2.203   2.593  0.6647  0.8563 -0.6763
  938MOL0     H29396  10.347   2.011   2.508  0.0214 -0.2565 -2.2626
  938MOL0     H29397  10.480   1.991   2.388  0.0635  1.5281 -0.4656
  938MOL0     H29398  10.628   1.954   2.599  0.4589 -3.4152 -4.2785
  938MOL0     H29399  10.481   1.978   2.701 -2.6524  0.3722 -2.4858
  938MOL0     H29400  10.523   1.732   2.679 -2.3733 -3.6934 -1.0997
  938MOL0     H29401  10.368   1.774   2.616 -0.2717  0.5625 -0.0787
  938MOL0     H29402  10.562   1.694   2.208  2.7677  0.1024 -2.4302
  938MOL0     H29403  10.855   1.749   2.009 -0.4704 -1.2919 -0.9752
  938MOL0     H29404  10.694   1.684   2.016  1.1809 -1.3224 -1.9770
  938MOL0     H29405  10.837   1.583   2.063 -1.2710 -0.9381  2.9847
  938MOL0     H29406  11.315   1.731   2.460 -1.6852  1.2837 -0.3820
  938MOL0     H29407  11.563   1.739   2.406  1.2127  0.0373 -0.1754
  938MOL0     H29408  11.765   1.812   2.389 -0.7963 -1.1340 -0.7827
  938MOL0     H29409  11.781   1.733   2.241  5.2208  0.5479 -2.1085
  938MOL0     H29410  11.989   1.834   2.321  0.9716  0.8541 -0.5252
  938MOL0     H29411  11.945   1.857   2.157  1.5211 -1.2069  0.9798
  938MOL0     H29412  11.884   2.081   2.350  0.4436 -0.4133  1.0333
  938MOL0     H29413  11.890   2.079   2.173  1.4375 -1.3103 -1.8025
  938MOL0     H29414  12.120   2.070   2.153  0.9700  1.2936 -1.1865
  938MOL0     H29415  12.149   2.052   2.321  1.1517  1.5401 -0.6725
  938MOL0     H29416  12.022   2.281   2.160  0.4832  1.1290  0.0068
  938MOL0     H29417  12.018   2.274   2.343  0.8380  1.7133 -0.4782
  938MOL0     H29418  12.262   2.257   2.160  0.1054  1.6679 -0.8075
  938MOL0     H29419  12.259   2.270   2.340  0.7227  2.5076  1.4007
  938MOL0     H29420  12.169   2.505   2.333 -1.6587 -0.4244  0.1823
  938MOL0     H29421  12.139   2.491   2.158  0.2273  0.3582 -0.0863
  938MOL0     H29422  12.376   2.477   2.108 -0.5943 -0.2317  0.0748
  938MOL0     H29423  12.416   2.475   2.288 -1.7745 -3.4545 -0.3620
  938MOL0     H29424  11.471   2.007   2.087 -0.0345 -1.1360 -0.4989
  938MOL0     H29425  11.232   1.992   2.126  1.5224  3.1338  2.1325
  938MOL0     H29426  10.961   1.778   2.482  0.8150 -0.8681 -1.4950
  938MOL0     H29427  10.749   1.748   2.595  0.4063  0.5967  0.3279
  938MOL0     H29428  10.847   3.284   1.897  0.7281 -1.7957 -0.2412
  938MOL0     H29429  10.929   3.501   1.843 -3.0557 -1.8555 -0.2732
  938MOL0     H29430  11.242   3.818   1.972  0.4147  1.2572 -0.0013
  938MOL0     H29431  11.357   4.052   1.902 -0.5832  2.3250  1.9971
  938MOL0     H29432  11.322   4.073   1.576  1.2362  0.8504 -1.6636
  938MOL0     H29433  11.173   4.162   1.536  0.7855 -0.6538 -1.7211
  938MOL0     H29434  11.283   4.357   1.492 -0.1631  1.2292  2.5433
  938MOL0     H29435  11.388   4.233   1.427 -2.2993  0.4435 -0.5864
  938MOL0     H29436  11.423   4.406   1.667 -1.2314  0.9629 -0.0064
  938MOL0     H29437  11.513   4.253   1.659  0.2508  2.1195  0.6679
  938MOL0     H29438  11.550   4.439   1.422  2.7480  2.9087  0.5543
  938MOL0     H29439  11.658   4.309   1.490  1.2559  0.7497  0.9384
  938MOL0     H29440  11.727   4.685   1.702 -1.6285  2.1914 -1.9525
  938MOL0     H29441  10.997   4.167   1.715 -1.3539 -0.0357  0.5607
  938MOL0     H29442  10.794   4.091   1.791 -0.2010  0.5123  0.8507
  938MOL0     H29443  10.796   3.933   1.735  0.2254  0.8080 -0.3251
  938MOL0     H29444  10.779   3.954   1.903 -0.0755 -1.4850 -0.5790
  939MOL0     O29445   5.080   1.243   6.121  0.1158 -0.6939 -0.2927
  939MOL0     C29446   5.108   1.342   6.194 -0.5920  0.5516 -0.4141
  939MOL0     O29447   5.147   1.460   6.144  0.5751 -0.4342 -0.0053
  939MOL0     C29448   5.167   1.491   6.009  0.0497  0.3653 -0.9703
  939MOL0     C29449   5.198   1.388   5.912 -0.6999 -0.4055  0.7974
  939MOL0     C29450   5.227   1.422   5.782 -0.0257  0.0811  0.2064
  939MOL0     C29451   5.204   1.560   5.752 -0.0769  0.8422  0.3128
  939MOL0     O29452   5.228   1.601   5.621 -0.0231  0.5402  0.9867
  939MOL0     C29453   5.116   1.562   5.534 -1.1569  1.1168 -0.1966
  939MOL0     C29454   5.143   1.629   5.399 -0.5149 -0.8174 -0.1502
  939MOL0     C29455   5.063   1.563   5.293 -0.1506  0.0035 -0.0890
  939MOL0     C29456   4.917   1.567   5.316  0.2489 -0.0059 -0.5677
  939MOL0     C29457   4.846   1.517   5.194  2.2755 -0.4746  0.6587
  939MOL0     C29458   4.693   1.501   5.205  1.5679  0.3954  0.0796
  939MOL0     C29459   4.641   1.460   5.069 -0.6678 -0.2118 -0.3668
  939MOL0     C29460   4.492   1.411   5.083 -1.0298  0.2998  0.3842
  939MOL0     N29461   4.418   1.438   4.957  0.7151  0.2634 -0.0213
  939MOL0     C29462   4.290   1.493   4.954  0.4421 -0.9108 -0.6041
  939MOL0     C29463   4.227   1.425   4.850  0.1029 -0.3311 -0.6819
  939MOL0     C29464   4.085   1.448   4.817 -0.2077 -0.3887 -0.9952
  939MOL0     C29465   4.032   1.353   4.712 -0.4956  0.1353  0.3190
  939MOL0     C29466   3.981   1.218   4.762 -0.1845 -0.1791 -1.2828
  939MOL0     C29467   3.960   1.129   4.647  0.9244 -0.5092  0.0667
  939MOL0     O29468   3.866   1.189   4.554  0.0460 -0.3175 -0.9121
  939MOL0     C29469   3.828   1.098   4.462 -0.0212  0.1439 -0.3793
  939MOL0     C29470   3.912   1.000   4.403  0.0716  0.1629  0.1412
  939MOL0     C29471   3.867   0.910   4.299 -0.2708 -0.6071 -0.8899
  939MOL0     C29472   3.956   0.804   4.255  0.3313  0.5450 -0.1373
  939MOL0     C29473   3.727   0.921   4.265  0.0269 -0.0378  0.4050
  939MOL0     C29474   3.669   0.831   4.157 -0.2899  0.4668 -0.0571
  939MOL0     O29475   3.677   0.693   4.177  0.1159  0.0149 -0.7621
  939MOL0     C29476   3.663   0.597   4.087 -0.0196 -0.1305 -0.2546
  939MOL0     C29477   3.643   0.470   4.140  0.4786 -0.5827 -0.3610
  939MOL0     C29478   3.637   0.357   4.054 -0.2112  1.7290  0.4858
  939MOL0     C29479   3.636   0.369   3.910  0.4036 -0.0134 -0.6772
  939MOL0     O29480   3.613   0.254   3.842 -0.3534 -0.1016  0.4746
  939MOL0     C29481   3.648   0.238   3.705  0.1663  0.5265  0.1555
  939MOL0     C29482   3.611   0.083   3.662  0.2880  0.0348 -0.2130
  939MOL0     C29483   3.676  -0.033   3.746 -0.0278  0.4777 -0.6426
  939MOL0     C29484   3.813   0.007   3.806  0.3021  1.0294 -0.3420
  939MOL0     C29485   3.867  -0.111   3.897 -0.1878  0.3188  0.3609
  939MOL0     C29486   4.007  -0.094   3.967 -0.0240 -0.5614  0.1335
  939MOL0     C29487   4.125  -0.044   3.877  0.7641  0.0282  0.4006
  939MOL0     C29488   4.155  -0.135   3.759  0.1738 -0.2898  0.4316
  939MOL0    Cl29489   4.275  -0.043   3.663 -0.4260  0.0104 -0.0660
  939MOL0     C29490   3.649   0.500   3.858  0.9559  0.7003  0.3193
  939MOL0     C29491   3.678   0.611   3.949  0.1331  0.2937 -0.0913
  939MOL0     O29492   3.633   0.883   4.055 -0.4463 -0.1253 -0.4892
  939MOL0     C29493   3.644   1.001   4.336  1.0137 -0.0983  0.5912
  939MOL0     C29494   3.692   1.092   4.431 -0.9881 -0.5394  0.1676
  939MOL0     N29495   4.309   1.329   4.799  0.1021  0.8228 -0.1786
  939MOL0     N29496   4.415   1.335   4.864 -0.2816 -0.1405  0.2486
  939MOL0     C29497   5.178   1.656   5.839 -0.4345  0.0127  0.0416
  939MOL0     C29498   5.159   1.624   5.974  0.0255 -0.4709  0.3013
  939MOL0     C29499   5.067   1.335   6.340  0.2372 -0.1610 -0.4997
  939MOL0     C29500   5.154   1.386   6.432  0.5749  0.1075  0.1644
  939MOL0     C29501   5.141   1.374   6.565  0.0898  0.1252 -0.2070
  939MOL0     C29502   5.033   1.305   6.616  0.6906 -0.4329  0.4754
  939MOL0     O29503   5.028   1.315   6.752 -0.2790 -0.1839  0.3840
  939MOL0     C29504   4.938   1.254   6.835  0.0681  0.3051 -0.5843
  939MOL0     C29505   4.968   1.289   6.977  0.3111  0.0265 -0.2347
  939MOL0     C29506   4.941   1.435   6.996 -0.2462  0.6401 -0.7823
  939MOL0     C29507   5.022   1.486   7.122  0.0769  0.2046 -0.5269
  939MOL0     C29508   4.985   1.420   7.249  0.8727 -0.3023  0.1738
  939MOL0     C29509   4.926   1.378   7.342  0.4835 -0.0583  1.4619
  939MOL0     C29510   4.940   1.258   6.531  0.0433 -0.7550 -0.2337
  939MOL0     C29511   4.957   1.269   6.387  0.1106  0.1166  0.2853
  939MOL0     C29512   4.861   1.195   6.296  0.1429 -0.7809  0.0717
  939MOL0     H29513   5.204   1.284   5.940  1.3123 -1.0664 -1.7012
  939MOL0     H29514   5.243   1.359   5.695 -3.7080 -2.6084  1.2355
  939MOL0     H29515   5.015   1.587   5.567 -0.8903 -0.8942  2.5475
  939MOL0     H29516   5.121   1.453   5.522  2.8601  1.2701 -1.2275
  939MOL0     H29517   5.106   1.732   5.403  2.7097  0.4613 -0.4561
  939MOL0     H29518   5.248   1.630   5.369 -0.7312  1.3913 -1.0322
  939MOL0     H29519   5.084   1.625   5.205  0.5842 -0.7531 -0.4526
  939MOL0     H29520   5.100   1.461   5.281  2.0979  0.6369  0.9323
  939MOL0     H29521   4.888   1.512   5.406 -0.2301 -0.6680 -1.1232
  939MOL0     H29522   4.882   1.668   5.339  0.1698 -0.8616  4.1447
  939MOL0     H29523   4.877   1.413   5.177 -2.3854 -2.4171  2.4083
  939MOL0     H29524   4.865   1.582   5.109 -0.5348 -0.2078  0.1463
  939MOL0     H29525   4.671   1.418   5.273  0.5594  0.7542  0.2016
  939MOL0     H29526   4.641   1.590   5.242 -0.3339 -0.8044  0.4207
  939MOL0     H29527   4.708   1.379   5.038 -1.6019 -0.8958 -0.6436
  939MOL0     H29528   4.645   1.540   4.995  1.7629  1.5344  1.4939
  939MOL0     H29529   4.498   1.302   5.094 -1.4005 -0.0039 -1.9411
  939MOL0     H29530   4.442   1.456   5.169  1.8817  0.1441  2.2758
  939MOL0     H29531   4.250   1.567   5.022  0.5229 -1.3377 -0.0910
  939MOL0     H29532   4.060   1.549   4.783 -0.9631 -0.8825 -1.9533
  939MOL0     H29533   4.035   1.430   4.912  3.8686 -1.2986  1.2171
  939MOL0     H29534   3.947   1.410   4.672  0.8537  1.7427 -0.3710
  939MOL0     H29535   4.108   1.343   4.634 -1.3777  0.9476 -0.6833
  939MOL0     H29536   4.051   1.181   4.837  0.2373  0.7527 -1.1963
  939MOL0     H29537   3.885   1.235   4.811  1.2715  1.4381  1.1715
  939MOL0     H29538   4.057   1.114   4.599  2.2699 -0.2134  2.5025
  939MOL0     H29539   3.917   1.032   4.675  0.6765 -0.5741 -0.5286
  939MOL0     H29540   4.017   0.997   4.431  0.2092 -1.9202 -0.4203
  939MOL0     H29541   3.960   0.798   4.146 -0.6329 -1.7272 -0.1010
  939MOL0     H29542   3.941   0.705   4.299 -0.0735  1.3766  1.6694
  939MOL0     H29543   4.056   0.830   4.291 -1.5828  4.0271  3.3826
  939MOL0     H29544   3.618   0.456   4.244  0.2609  1.6858 -0.0510
  939MOL0     H29545   3.620   0.258   4.095  1.1150  1.1033 -0.3792
  939MOL0     H29546   3.584   0.312   3.657 -0.5312  1.6251  2.6252
  939MOL0     H29547   3.746   0.274   3.673 -0.1861 -1.8896 -4.3456
  939MOL0     H29548   3.504   0.061   3.652  0.6245 -1.6825 -0.3530
  939MOL0     H29549   3.649   0.075   3.559 -1.9198 -0.3935 -1.0544
  939MOL0     H29550   3.694  -0.123   3.687  2.7763 -2.1692  3.7139
  939MOL0     H29551   3.607  -0.050   3.828  1.9090 -0.6342  0.8566
  939MOL0     H29552   3.799   0.098   3.865  2.8690 -0.4969  2.9585
  939MOL0     H29553   3.881   0.032   3.724  0.5339  1.4683 -0.0231
  939MOL0     H29554   3.789  -0.125   3.973 -1.0169 -0.9700 -0.6912
  939MOL0     H29555   3.870  -0.210   3.851  2.6319  0.0955  0.8477
  939MOL0     H29556   4.032  -0.192   4.008  0.9059 -1.1903 -1.8065
  939MOL0     H29557   4.003  -0.017   4.044  5.2474  3.6546 -3.1284
  939MOL0     H29558   4.219  -0.015   3.926  1.3480  2.8986 -2.0873
  939MOL0     H29559   4.097   0.054   3.837  1.5093 -0.3996 -1.2620
  939MOL0     H29560   4.064  -0.163   3.705 -0.7364 -0.2238  1.8692
  939MOL0     H29561   4.201  -0.230   3.786  1.2757  0.2893  0.6514
  939MOL0     H29562   3.664   0.531   3.755  1.3917  0.8520  0.4235
  939MOL0     H29563   3.715   0.704   3.906 -1.8351  0.1816 -2.2596
  939MOL0     H29564   3.537   0.994   4.318  0.8634 -0.6320  1.6000
  939MOL0     H29565   3.623   1.161   4.478 -2.8945 -1.4798 -1.1496
  939MOL0     H29566   5.152   1.756   5.805  1.8531  1.7128  2.7693
  939MOL0     H29567   5.125   1.705   6.037  0.1163  0.9129 -1.3469
  939MOL0     H29568   5.239   1.439   6.390  1.2478 -1.0875 -0.0431
  939MOL0     H29569   5.205   1.428   6.633 -1.0350  0.5904  0.5088
  939MOL0     H29570   4.840   1.292   6.807  0.7225  1.4260 -1.4189
  939MOL0     H29571   4.942   1.145   6.822  2.5675 -0.5993  4.8268
  939MOL0     H29572   5.073   1.270   7.003  0.5930 -0.9962 -1.9973
  939MOL0     H29573   4.896   1.236   7.040 -0.3944  2.5428  1.2047
  939MOL0     H29574   4.974   1.502   6.916 -0.0849  1.7889  0.2202
  939MOL0     H29575   4.840   1.473   7.012  0.0286  1.8453 -1.7453
  939MOL0     H29576   5.008   1.594   7.131  0.3874  0.1371  1.2141
  939MOL0     H29577   5.130   1.470   7.107 -0.1449 -0.3029 -1.7000
  939MOL0     H29578   4.885   1.349   7.437 -0.4724  1.3854  1.5260
  939MOL0     H29579   4.854   1.208   6.575 -0.6676  1.8015  1.4730
  939MOL0     H29580   4.755   1.209   6.322 -0.4086  2.3672 -3.0874
  939MOL0     H29581   4.854   1.232   6.194  1.3339 -0.4457  0.1009
  939MOL0     H29582   4.890   1.090   6.290  1.2993 -0.4373 -0.4979
  940MOL0     O29583   5.372   9.465   0.915  0.4398  0.1067  0.2013
  940MOL0     C29584   5.326   9.395   0.997  1.0256 -0.5659  0.2193
  940MOL0     O29585   5.386   9.318   1.089  0.4383  0.1163  0.0268
  940MOL0     C29586   5.518   9.274   1.080 -0.0983 -0.5823 -0.0274
  940MOL0     C29587   5.585   9.252   0.961  0.2488 -0.2038 -0.8425
  940MOL0     C29588   5.722   9.218   0.955  1.1428 -0.3512  0.1592
  940MOL0     C29589   5.792   9.187   1.070 -1.0616  1.0205  0.5627
  940MOL0     O29590   5.917   9.132   1.058  0.3991 -0.2637  0.2285
  940MOL0     C29591   6.004   9.177   1.157 -0.2773 -0.0942 -0.8369
  940MOL0     C29592   6.144   9.178   1.101  1.0900  0.4583  0.2514
  940MOL0     C29593   6.251   9.142   1.205 -0.2386  0.3364 -0.4790
  940MOL0     C29594   6.381   9.108   1.133 -0.0646  0.4417 -0.3965
  940MOL0     C29595   6.488   9.071   1.230 -1.0335  0.4726 -1.3071
  940MOL0     C29596   6.569   9.187   1.293  0.1699  0.1524 -0.3346
  940MOL0     C29597   6.662   9.137   1.402 -0.6481  0.5038  0.1251
  940MOL0     C29598   6.768   9.040   1.351  0.7390 -0.0811  0.1542
  940MOL0     N29599   6.870   8.997   1.449  0.8759  0.3146 -0.9720
  940MOL0     C29600   6.959   9.069   1.522 -0.2273  0.6722 -0.0920
  940MOL0     C29601   7.009   8.986   1.620 -0.2068  0.7521 -0.0058
  940MOL0     C29602   7.120   9.014   1.720 -0.4834 -0.0393  0.1838
  940MOL0     C29603   7.135   8.917   1.836  0.1512 -0.5064 -0.1845
  940MOL0     C29604   7.280   8.934   1.896  0.2419 -0.4306  0.7026
  940MOL0     C29605   7.304   8.959   2.046 -0.0663 -0.9445  0.3755
  940MOL0     O29606   7.435   8.998   2.046  0.4510 -0.5686 -0.3203
  940MOL0     C29607   7.490   9.024   2.161 -0.1823 -0.5383 -0.8196
  940MOL0     C29608   7.435   8.992   2.292 -1.4700 -0.6842  0.6949
  940MOL0     C29609   7.522   9.002   2.398 -0.2468  0.1154  0.9334
  940MOL0     C29610   7.456   8.987   2.537 -1.0736  0.3262 -0.1275
  940MOL0     C29611   7.646   9.067   2.393  0.5877 -0.1089  0.1453
  940MOL0     C29612   7.747   9.067   2.495 -0.3551  0.1868  0.2158
  940MOL0     O29613   7.872   9.120   2.461  0.3613 -0.4300  0.0759
  940MOL0     C29614   7.968   9.104   2.561 -0.3142  0.0894  0.4378
  940MOL0     C29615   8.066   9.001   2.553 -0.3980  0.1065  0.0267
  940MOL0     C29616   8.160   8.983   2.661  0.0228 -0.4518  0.1274
  940MOL0     C29617   8.155   9.069   2.771 -0.0555  0.3181  0.5377
  940MOL0     O29618   8.229   9.051   2.888 -0.9903  0.3718 -0.4206
  940MOL0     C29619   8.239   8.916   2.929  0.8390  0.2827  0.3419
  940MOL0     C29620   8.319   8.896   3.061  0.9389  0.2791 -0.9811
  940MOL0     C29621   8.272   8.764   3.138  0.2812 -0.5438  0.8405
  940MOL0     C29622   8.372   8.733   3.253  0.6682  0.0336 -0.0575
  940MOL0     C29623   8.334   8.624   3.349 -0.0577 -0.5762 -0.5156
  940MOL0     C29624   8.453   8.606   3.447 -0.2072 -0.6344  0.1047
  940MOL0     C29625   8.415   8.541   3.576  0.6695 -0.2375 -1.3035
  940MOL0     C29626   8.350   8.406   3.561 -0.0775  0.5835  0.0938
  940MOL0    Cl29627   8.456   8.301   3.469  0.1562  0.1847 -0.2026
  940MOL0     C29628   8.065   9.176   2.772  0.5595  0.0682 -0.2072
  940MOL0     C29629   7.967   9.192   2.667 -0.5194 -0.0718 -0.2008
  940MOL0     O29630   7.713   9.029   2.609  0.4609 -0.5565 -0.0816
  940MOL0     C29631   7.683   9.118   2.264 -0.0412 -0.0360  0.3583
  940MOL0     C29632   7.614   9.089   2.149  0.3900  0.4570  0.5622
  940MOL0     N29633   6.945   8.861   1.597  0.3968 -0.7171  0.3368
  940MOL0     N29634   6.870   8.866   1.490 -0.7271  0.0594  0.2021
  940MOL0     C29635   5.719   9.191   1.194  0.1024 -0.0543  0.1149
  940MOL0     C29636   5.584   9.231   1.196 -0.3406  0.3698  0.2296
  940MOL0     C29637   5.176   9.385   1.006  0.6000  0.9176  0.3715
  940MOL0     C29638   5.111   9.324   1.116  0.2250 -0.5974 -0.2028
  940MOL0     C29639   4.973   9.302   1.125  0.3951  0.5777  0.2095
  940MOL0     C29640   4.891   9.360   1.025 -0.8530 -0.6957  0.1328
  940MOL0     O29641   4.757   9.341   1.050 -0.2518  0.2946  0.3549
  940MOL0     C29642   4.666   9.452   1.041  0.1469 -1.1614  0.6157
  940MOL0     C29643   4.518   9.422   0.991 -0.3750  0.5913 -0.4074
  940MOL0     C29644   4.453   9.329   1.083  0.5018  0.4385 -0.0601
  940MOL0     C29645   4.299   9.333   1.066  0.4068  0.1735  0.5166
  940MOL0     C29646   4.232   9.261   1.177  0.8209  1.1394  0.4985
  940MOL0     C29647   4.191   9.193   1.270 -0.5983  0.6857  0.0439
  940MOL0     C29648   4.948   9.445   0.935  0.2315  0.5362  1.3950
  940MOL0     C29649   5.091   9.457   0.915  0.2907 -0.1036  0.6939
  940MOL0     C29650   5.126   9.537   0.793 -0.9537 -0.1849 -0.9307
  940MOL0     H29651   5.526   9.257   0.871 -2.4081 -0.2809  0.7901
  940MOL0     H29652   5.769   9.206   0.858 -1.1399  0.2734 -1.0996
  940MOL0     H29653   5.996   9.105   1.239  2.3082  1.2119  0.7334
  940MOL0     H29654   5.989   9.282   1.185  2.1189  0.5462 -1.6701
  940MOL0     H29655   6.141   9.115   1.011 -0.9274  0.6007  0.1630
  940MOL0     H29656   6.170   9.277   1.063 -4.4724  2.0761 -0.2979
  940MOL0     H29657   6.278   9.216   1.281  2.8788 -2.2862  1.2250
  940MOL0     H29658   6.216   9.057   1.265  2.4207 -0.7153 -0.2629
  940MOL0     H29659   6.359   9.024   1.066  2.8203 -1.3274  0.7018
  940MOL0     H29660   6.411   9.191   1.068 -0.9177  0.9666 -0.1441
  940MOL0     H29661   6.559   9.018   1.166  0.1294 -1.0008  1.0622
  940MOL0     H29662   6.468   9.018   1.323  0.8333  3.7293  1.1778
  940MOL0     H29663   6.631   9.236   1.218 -0.6519  1.4153 -0.2241
  940MOL0     H29664   6.502   9.262   1.338  1.9128  1.2444  0.5454
  940MOL0     H29665   6.604   9.082   1.477 -2.0233  0.7233 -0.7372
  940MOL0     H29666   6.714   9.223   1.444 -0.0754  1.4446 -2.3394
  940MOL0     H29667   6.723   8.953   1.302 -1.7988  1.6072 -0.6777
  940MOL0     H29668   6.813   9.088   1.264 -0.0136  0.8717  0.2736
  940MOL0     H29669   6.988   9.172   1.504  2.7526  0.0795  0.8318
  940MOL0     H29670   7.110   9.116   1.759  2.1696  0.1200  0.6415
  940MOL0     H29671   7.207   9.018   1.653 -2.8741 -0.8858 -3.2471
  940MOL0     H29672   7.061   8.944   1.912 -0.1610 -0.9260 -0.3376
  940MOL0     H29673   7.122   8.813   1.807 -1.5740 -0.9449  1.9109
  940MOL0     H29674   7.340   8.856   1.848 -1.0827  0.2588 -2.3598
  940MOL0     H29675   7.307   9.026   1.843 -1.8513  1.0968  2.1421
  940MOL0     H29676   7.247   9.039   2.093 -1.1466 -0.5782 -1.4708
  940MOL0     H29677   7.280   8.869   2.103 -3.1130 -0.8270 -0.5676
  940MOL0     H29678   7.331   8.973   2.312 -1.2434 -0.6180  2.0143
  940MOL0     H29679   7.483   8.889   2.578 -0.9245  0.3490 -0.1685
  940MOL0     H29680   7.347   8.989   2.524 -0.9896  2.7651 -0.9101
  940MOL0     H29681   7.468   9.067   2.610  0.4193 -0.2855  0.3235
  940MOL0     H29682   8.072   8.938   2.465 -2.2805  0.2819 -0.2744
  940MOL0     H29683   8.213   8.889   2.659 -0.7587 -0.9181  0.6844
  940MOL0     H29684   8.135   8.884   2.945  1.2309 -2.7379 -2.2154
  940MOL0     H29685   8.279   8.846   2.855 -2.4655  0.2434 -1.6089
  940MOL0     H29686   8.428   8.890   3.055  0.8833  0.8413 -4.1417
  940MOL0     H29687   8.287   8.977   3.127 -1.7320  0.1021 -1.9695
  940MOL0     H29688   8.266   8.681   3.066  2.1597  0.4086 -0.5190
  940MOL0     H29689   8.173   8.783   3.179  0.2850  0.9196  0.2396
  940MOL0     H29690   8.380   8.821   3.317  1.0096  0.0000 -0.0534
  940MOL0     H29691   8.469   8.716   3.205  0.4117 -1.0879 -0.2051
  940MOL0     H29692   8.249   8.654   3.411 -0.8226 -1.4037 -1.1322
  940MOL0     H29693   8.304   8.531   3.298 -0.0972 -0.6272 -0.3998
  940MOL0     H29694   8.493   8.704   3.475  2.2993 -1.7229  0.6239
  940MOL0     H29695   8.531   8.552   3.391  0.5684  0.5902 -0.0291
  940MOL0     H29696   8.354   8.610   3.635  1.7579  0.7165 -1.2578
  940MOL0     H29697   8.508   8.523   3.632 -1.6115 -1.6649  2.3467
  940MOL0     H29698   8.254   8.417   3.509  0.1005  0.1152 -0.3427
  940MOL0     H29699   8.323   8.376   3.663 -1.3002 -2.1264 -0.9423
  940MOL0     H29700   8.058   9.236   2.862 -1.9034 -2.1302  1.2118
  940MOL0     H29701   7.893   9.272   2.666  0.4309  0.9243  1.9201
  940MOL0     H29702   7.785   9.151   2.249  1.1702 -2.4891  2.4150
  940MOL0     H29703   7.646   9.123   2.051 -1.7048 -3.3447 -1.6538
  940MOL0     H29704   5.779   9.164   1.280  0.3439  3.8970  1.3958
  940MOL0     H29705   5.534   9.243   1.291  1.3505  0.9700  1.0855
  940MOL0     H29706   5.171   9.269   1.188 -0.4237 -0.0316  0.7749
  940MOL0     H29707   4.932   9.238   1.203  0.8097  1.7734  1.4456
  940MOL0     H29708   4.659   9.505   1.137  0.3708  1.9278 -0.9712
  940MOL0     H29709   4.699   9.525   0.967 -1.5542 -1.7628 -0.8075
  940MOL0     H29710   4.534   9.381   0.891  2.1078 -1.2258  0.6084
  940MOL0     H29711   4.457   9.513   0.996  1.8056  2.1062  0.1004
  940MOL0     H29712   4.469   9.221   1.070  1.0418  0.0678  2.9422
  940MOL0     H29713   4.485   9.358   1.184  0.8221 -1.7277  0.5148
  940MOL0     H29714   4.274   9.310   0.962  0.8649 -1.3837  0.7394
  940MOL0     H29715   4.273   9.438   1.086  3.3910  0.7310  1.9842
  940MOL0     H29716   4.157   9.127   1.347 -0.1691 -1.6356 -1.6705
  940MOL0     H29717   4.883   9.477   0.855  2.8779  0.6200 -0.8751
  940MOL0     H29718   5.176   9.626   0.832 -0.4654 -0.6145 -0.5500
  940MOL0     H29719   5.193   9.477   0.731 -0.0301 -0.2022  0.0465
  940MOL0     H29720   5.041   9.560   0.728 -0.9940 -2.1798 -1.6430
  941MOL0     O29721   4.911   6.589   0.012 -0.2364  0.0905  0.0891
  941MOL0     C29722   4.839   6.632   0.101 -0.3118 -0.3258 -1.2761
  941MOL0     O29723   4.898   6.670   0.221 -0.2361 -0.1021 -0.0993
  941MOL0     C29724   5.035   6.691   0.223 -0.0012  0.1685  0.2530
  941MOL0     C29725   5.105   6.622   0.325  0.1612  0.7173  0.2709
  941MOL0     C29726   5.236   6.648   0.352  0.2849 -1.0818 -0.8412
  941MOL0     C29727   5.307   6.743   0.275 -0.0623  0.1446  0.2258
  941MOL0     O29728   5.438   6.791   0.288  0.6158 -0.3570  0.2271
  941MOL0     C29729   5.460   6.861   0.412  0.2866 -0.9245 -0.4065
  941MOL0     C29730   5.609   6.883   0.444 -0.0356  0.4678 -0.1917
  941MOL0     C29731   5.678   6.749   0.476 -0.3175  0.2673 -0.3413
  941MOL0     C29732   5.825   6.759   0.516 -0.9233 -0.4270  0.1160
  941MOL0     C29733   5.888   6.632   0.563 -0.0063 -0.1113 -0.5901
  941MOL0     C29734   5.997   6.676   0.657  0.0321 -0.8875  1.6717
  941MOL0     C29735   6.079   6.560   0.705 -0.1316  0.1086  0.1170
  941MOL0     C29736   6.182   6.588   0.824 -0.4159 -0.4925  0.2708
  941MOL0     N29737   6.231   6.463   0.880 -0.0201  0.1836 -0.1955
  941MOL0     C29738   6.188   6.404   0.997  0.6852 -1.2079  0.8421
  941MOL0     C29739   6.268   6.308   1.026 -0.5214  0.6190 -0.4003
  941MOL0     C29740   6.259   6.213   1.155  0.9565  0.3121  0.8745
  941MOL0     C29741   6.196   6.076   1.126  0.5314 -0.1143  0.1297
  941MOL0     C29742   6.307   5.973   1.101 -0.0667 -0.9224  0.5808
  941MOL0     C29743   6.264   5.850   1.021 -0.6855 -0.3500  0.1527
  941MOL0     O29744   6.150   5.781   1.068  0.3791  0.4622 -0.6770
  941MOL0     C29745   6.109   5.681   0.982  0.0689  0.4364 -0.4340
  941MOL0     C29746   6.041   5.730   0.874  0.3328 -0.3838  0.4419
  941MOL0     C29747   5.962   5.646   0.796 -0.3768 -1.2501  0.2126
  941MOL0     C29748   5.909   5.705   0.658 -0.1490  1.1543 -0.6005
  941MOL0     C29749   5.957   5.516   0.826 -0.2122  0.2934  0.1413
  941MOL0     C29750   5.904   5.410   0.736  0.1382  0.0469 -0.3187
  941MOL0     O29751   5.843   5.305   0.796 -0.1994  0.3568  0.2883
  941MOL0     C29752   5.822   5.194   0.717 -0.7128 -0.7046 -0.2450
  941MOL0     C29753   5.930   5.141   0.631  0.0839 -0.9849 -0.3455
  941MOL0     C29754   5.896   5.034   0.550  0.2103 -0.6418  0.5533
  941MOL0     C29755   5.772   4.970   0.559 -0.6386  0.8737 -0.2915
  941MOL0     O29756   5.742   4.893   0.462 -0.1803 -0.4185  0.6045
  941MOL0     C29757   5.603   4.873   0.424  0.4299  1.0035  0.7116
  941MOL0     C29758   5.584   4.747   0.329 -0.0187  0.3376  0.0003
  941MOL0     C29759   5.432   4.705   0.311  0.5171 -0.8118 -0.5795
  941MOL0     C29760   5.417   4.600   0.205 -0.6156 -0.1639 -0.7789
  941MOL0     C29761   5.274   4.544   0.188  1.0253  0.0383  0.8321
  941MOL0     C29762   5.231   4.432   0.290  0.4302  0.0702 -0.0291
  941MOL0     C29763   5.115   4.343   0.238 -0.1422  0.1294 -0.0753
  941MOL0     C29764   4.984   4.412   0.240 -0.2168  0.1310  0.4248
  941MOL0    Cl29765   4.847   4.319   0.186 -0.2099 -0.1404 -0.0455
  941MOL0     C29766   5.680   5.011   0.652 -1.0442  0.1985 -0.1618
  941MOL0     C29767   5.704   5.126   0.723 -0.2620 -0.2741  0.0126
  941MOL0     O29768   5.934   5.415   0.623 -0.2901 -0.2114  0.1236
  941MOL0     C29769   6.021   5.473   0.943 -0.4521 -0.2021 -0.0808
  941MOL0     C29770   6.092   5.557   1.025  0.1586  0.8399 -0.3259
  941MOL0     N29771   6.360   6.304   0.916  0.6284  0.3397 -0.5232
  941MOL0     N29772   6.329   6.380   0.825 -0.9374  0.0982  0.5160
  941MOL0     C29773   5.242   6.796   0.167  0.4309  0.2006 -0.4125
  941MOL0     C29774   5.106   6.779   0.136  0.4993  0.3936 -0.6112
  941MOL0     C29775   4.687   6.626   0.097 -0.8619 -1.1286 -0.8703
  941MOL0     C29776   4.630   6.636   0.223  1.1762  0.6145  0.5722
  941MOL0     C29777   4.491   6.651   0.229  0.0134 -0.0909  1.2793
  941MOL0     C29778   4.416   6.656   0.105 -0.0908  1.2173 -0.0451
  941MOL0     O29779   4.284   6.687   0.102  0.3134  0.1521  0.0197
  941MOL0     C29780   4.220   6.780   0.196  0.6101  0.5199 -0.5778
  941MOL0     C29781   4.138   6.891   0.132  0.2414  0.1568 -0.4766
  941MOL0     C29782   4.007   6.841   0.072 -0.5371 -0.9886  0.4035
  941MOL0     C29783   3.922   6.950   0.003  0.3203 -0.5468  0.5437
  941MOL0     C29784   3.833   7.010   0.102  0.5118 -0.1729  0.9426
  941MOL0     C29785   3.754   7.054   0.178 -0.6616 -0.4430 -0.5685
  941MOL0     C29786   4.475   6.632  -0.021 -0.6187 -0.0469 -0.6156
  941MOL0     C29787   4.613   6.615  -0.021  0.3639  1.0679 -0.0725
  941MOL0     C29788   4.682   6.597  -0.154  0.1575  0.3775  0.4432
  941MOL0     H29789   5.056   6.549   0.387  0.5611 -0.8115 -1.1531
  941MOL0     H29790   5.282   6.598   0.436  1.2522 -0.4258 -0.9679
  941MOL0     H29791   5.410   6.803   0.490  0.8345 -2.1129 -0.8996
  941MOL0     H29792   5.424   6.964   0.401  4.2182  0.4761 -1.8979
  941MOL0     H29793   5.655   6.926   0.354 -0.2341 -1.4281 -1.2502
  941MOL0     H29794   5.626   6.946   0.531  2.0468 -0.2608 -0.0108
  941MOL0     H29795   5.621   6.697   0.553  0.3697  0.4235  0.2939
  941MOL0     H29796   5.665   6.681   0.392 -1.7140  1.2595 -0.9550
  941MOL0     H29797   5.895   6.805   0.447  0.0945 -1.3003  0.5350
  941MOL0     H29798   5.829   6.827   0.602  1.1690  0.0104 -0.2702
  941MOL0     H29799   5.921   6.579   0.473 -1.9256  1.5524 -2.3826
  941MOL0     H29800   5.813   6.561   0.600 -0.7504  0.7621 -0.3790
  941MOL0     H29801   6.061   6.745   0.602 -2.1146  0.7344  1.0697
  941MOL0     H29802   5.948   6.734   0.736 -3.2156  1.0048 -1.4041
  941MOL0     H29803   6.124   6.520   0.614 -0.1636  0.3604 -0.0076
  941MOL0     H29804   6.017   6.478   0.744  1.8891 -1.8478 -0.5430
  941MOL0     H29805   6.267   6.649   0.793 -0.7370  2.0120  3.7426
  941MOL0     H29806   6.136   6.650   0.901 -1.5299 -0.6091 -0.2762
  941MOL0     H29807   6.096   6.435   1.046 -0.5224 -1.6536 -1.0777
  941MOL0     H29808   6.189   6.260   1.225 -0.6820  0.3658 -0.7048
  941MOL0     H29809   6.351   6.204   1.213 -0.7035  0.8812  3.7834
  941MOL0     H29810   6.121   6.051   1.202 -0.6328  0.2893 -0.8505
  941MOL0     H29811   6.126   6.076   1.042  1.2513  0.7777 -0.4954
  941MOL0     H29812   6.382   6.022   1.038  2.6991 -2.3316  2.5726
  941MOL0     H29813   6.348   5.953   1.200 -0.0902 -1.0045  0.5740
  941MOL0     H29814   6.244   5.881   0.918 -0.5578  0.2518  0.3098
  941MOL0     H29815   6.347   5.779   1.017 -0.3787 -0.0113  0.5328
  941MOL0     H29816   6.040   5.836   0.851  1.5757 -1.0096 -3.0876
  941MOL0     H29817   5.842   5.633   0.611  0.0801 -0.1611  0.9869
  941MOL0     H29818   5.987   5.730   0.585  0.2391 -0.7122 -0.8735
  941MOL0     H29819   5.856   5.799   0.679  0.7730  1.4905  0.3105
  941MOL0     H29820   6.022   5.197   0.617 -0.3349 -0.5201 -1.3252
  941MOL0     H29821   5.967   4.994   0.479  0.7956 -1.6539  1.6789
  941MOL0     H29822   5.550   4.838   0.514 -0.5641  0.6392  0.0094
  941MOL0     H29823   5.555   4.962   0.384  1.7989  0.7903 -1.5675
  941MOL0     H29824   5.620   4.768   0.227 -2.5313  0.1820 -0.9846
  941MOL0     H29825   5.646   4.671   0.378 -0.6076  1.0961  1.9703
  941MOL0     H29826   5.375   4.792   0.278 -0.1148 -1.3716 -0.9892
  941MOL0     H29827   5.394   4.673   0.408 -1.2984 -0.1152 -1.0210
  941MOL0     H29828   5.493   4.523   0.225 -0.8965 -0.4868 -0.9247
  941MOL0     H29829   5.439   4.643   0.107  2.3928 -0.1198 -0.1810
  941MOL0     H29830   5.203   4.626   0.198  0.3132 -0.5869  1.0104
  941MOL0     H29831   5.271   4.500   0.088  0.4910 -0.6671  1.1470
  941MOL0     H29832   5.216   4.479   0.387  1.5228  1.8537 -0.6779
  941MOL0     H29833   5.309   4.356   0.301  0.4601  0.2551  1.1627
  941MOL0     H29834   5.118   4.257   0.305  2.0208 -0.7821 -1.2429
  941MOL0     H29835   5.139   4.309   0.137 -0.9121  1.3329 -0.6824
  941MOL0     H29836   4.992   4.499   0.174  0.1210  0.5129  0.9593
  941MOL0     H29837   4.971   4.446   0.343  3.4381  1.6491  0.5491
  941MOL0     H29838   5.590   4.956   0.674 -1.7342  1.5907  0.6841
  941MOL0     H29839   5.624   5.158   0.790  1.0163  0.0911  1.4133
  941MOL0     H29840   6.009   5.375   0.989 -1.2099  0.1083  0.4113
  941MOL0     H29841   6.141   5.527   1.117 -0.2316  0.9118 -0.0971
  941MOL0     H29842   5.305   6.865   0.111 -1.8268  1.3316 -1.7051
  941MOL0     H29843   5.058   6.831   0.053 -0.4411  0.2004 -0.1927
  941MOL0     H29844   4.679   6.652   0.319  0.1028  1.3320  1.0175
  941MOL0     H29845   4.445   6.665   0.326 -1.4314  1.8135  0.3888
  941MOL0     H29846   4.154   6.726   0.264  0.7973  1.1469  0.1199
  941MOL0     H29847   4.292   6.828   0.263  0.6965 -0.6157  0.1813
  941MOL0     H29848   4.197   6.961   0.072  2.7853 -0.7493  0.8478
  941MOL0     H29849   4.098   6.946   0.217  1.2059 -1.3406  1.0020
  941MOL0     H29850   4.037   6.766  -0.002 -1.8731  0.7461 -2.0420
  941MOL0     H29851   3.943   6.788   0.143  0.5795 -0.1215  2.1406
  941MOL0     H29852   3.861   6.922  -0.084 -0.4816  1.1697  0.5195
  941MOL0     H29853   3.993   7.025  -0.033 -0.8744 -0.8501 -2.7877
  941MOL0     H29854   3.678   7.076   0.250  0.1576 -1.7733  0.7670
  941MOL0     H29855   4.418   6.641  -0.113  0.5514  2.2408 -1.1989
  941MOL0     H29856   4.765   6.666  -0.165 -0.1208  0.6435 -0.0474
  941MOL0     H29857   4.742   6.506  -0.148 -0.4053 -0.0430 -0.1414
  941MOL0     H29858   4.616   6.585  -0.241 -1.7845 -1.8248  2.0728
  942MOL0     O29859   0.046   5.200   7.635 -0.1890 -0.3217  0.0987
  942MOL0     C29860   0.021   5.260   7.745  0.0067  0.0867  0.8514
  942MOL0     O29861   0.103   5.302   7.834 -0.3000  0.0070  0.2665
  942MOL0     C29862   0.238   5.295   7.803  0.7210 -0.6226 -0.1510
  942MOL0     C29863   0.320   5.186   7.838  0.8202  0.3022 -0.6656
  942MOL0     C29864   0.454   5.180   7.802  0.7285  0.4791 -0.0832
  942MOL0     C29865   0.504   5.276   7.714  0.3793  0.0655 -0.5418
  942MOL0     O29866   0.637   5.263   7.692 -0.5690 -0.2814  0.1591
  942MOL0     C29867   0.739   5.255   7.798 -0.1675  0.4490 -0.0734
  942MOL0     C29868   0.883   5.250   7.737  0.0241  0.5041  0.3249
  942MOL0     C29869   0.897   5.099   7.710  0.8439  0.1660  0.5320
  942MOL0     C29870   1.005   5.061   7.604  0.0973  0.1772 -0.0444
  942MOL0     C29871   0.999   4.913   7.591  0.2385  0.2010  0.6147
  942MOL0     C29872   1.115   4.863   7.486  0.2640  0.0939 -0.4295
  942MOL0     C29873   1.084   4.720   7.436  0.9570 -0.4986  0.2936
  942MOL0     C29874   1.143   4.688   7.298  0.8258  0.1537 -0.5240
  942MOL0     N29875   1.285   4.719   7.287  0.2543 -0.1780 -0.1020
  942MOL0     C29876   1.333   4.821   7.207 -0.1430  0.2976  0.0903
  942MOL0     C29877   1.462   4.797   7.199 -0.4031 -0.0507  0.9333
  942MOL0     C29878   1.560   4.872   7.112 -0.2478 -0.1247  0.4236
  942MOL0     C29879   1.708   4.824   7.114  0.2286  0.0566  1.0822
  942MOL0     C29880   1.797   4.908   7.025 -0.3222  0.0705 -0.2621
  942MOL0     C29881   1.916   4.840   6.959  1.0392 -0.9118  1.0775
  942MOL0     O29882   1.997   4.775   7.059 -0.4584  0.0855  0.0231
  942MOL0     C29883   2.090   4.848   7.125  0.5645 -0.6278 -0.7037
  942MOL0     C29884   2.098   4.989   7.130  0.0975  0.4839 -0.1708
  942MOL0     C29885   2.202   5.051   7.202  0.2847  0.4508  0.8433
  942MOL0     C29886   2.191   5.199   7.217 -0.1519 -0.2491  0.3649
  942MOL0     C29887   2.307   4.973   7.266  0.2428 -0.5843 -0.2485
  942MOL0     C29888   2.413   5.034   7.346  0.3909  0.3923  0.9642
  942MOL0     O29889   2.509   5.111   7.292  0.4953 -0.2504  0.3874
  942MOL0     C29890   2.617   5.147   7.367  0.1318  0.6526 -0.2542
  942MOL0     C29891   2.624   5.283   7.395  0.7058  0.0943  0.7050
  942MOL0     C29892   2.727   5.328   7.480 -0.5271  0.4672 -0.0898
  942MOL0     C29893   2.814   5.244   7.542 -0.1735  0.2141 -0.8565
  942MOL0     O29894   2.889   5.299   7.644 -0.3478 -0.3790  0.4834
  942MOL0     C29895   2.993   5.224   7.706 -0.0975 -0.2310  0.0402
  942MOL0     C29896   2.992   5.254   7.852 -0.2225 -0.4795 -1.0355
  942MOL0     C29897   3.088   5.164   7.930 -0.0530  0.6699 -0.0706
  942MOL0     C29898   3.064   5.170   8.082  0.8384  0.1595 -0.5633
  942MOL0     C29899   3.172   5.092   8.155 -0.2766 -0.4273  0.3714
  942MOL0     C29900   3.189   4.944   8.133 -0.0564  0.3956  0.5845
  942MOL0     C29901   3.324   4.905   8.197  0.2522 -0.2533  0.3216
  942MOL0     C29902   3.445   4.890   8.102 -0.2308 -0.0562 -0.8857
  942MOL0    Cl29903   3.437   4.970   7.938 -0.2300 -0.0600  0.1157
  942MOL0     C29904   2.799   5.102   7.506 -0.1542 -1.1798  0.0411
  942MOL0     C29905   2.710   5.064   7.415  0.5827  0.7351  0.3584
  942MOL0     O29906   2.415   4.995   7.458 -0.2428  0.1328  0.3961
  942MOL0     C29907   2.291   4.833   7.259  0.5169  0.1716  0.3272
  942MOL0     C29908   2.181   4.777   7.193  0.3669 -0.3098  0.3321
  942MOL0     N29909   1.494   4.688   7.280 -0.4888 -0.4452  0.7087
  942MOL0     N29910   1.385   4.640   7.327  0.0944 -0.2875 -0.1441
  942MOL0     C29911   0.431   5.386   7.674 -0.2622 -0.3611 -0.2091
  942MOL0     C29912   0.299   5.399   7.725  0.0580 -0.0911 -0.4230
  942MOL0     C29913  -0.121   5.291   7.777 -0.5305  0.4506  0.0054
  942MOL0     C29914  -0.222   5.193   7.781 -0.3344  0.1026 -0.2107
  942MOL0     C29915  -0.348   5.223   7.830 -0.2604  0.2875 -0.0234
  942MOL0     C29916  -0.369   5.348   7.888  0.3556  0.0807  0.4604
  942MOL0     O29917  -0.497   5.387   7.933  0.0296 -0.7632  0.2667
  942MOL0     C29918  -0.562   5.294   8.030  0.2425  0.0201 -0.3516
  942MOL0     C29919  -0.558   5.368   8.172 -0.1469 -0.0849  0.7401
  942MOL0     C29920  -0.413   5.393   8.215  0.5535  0.1237 -0.8169
  942MOL0     C29921  -0.403   5.423   8.368 -0.2457 -0.1425 -0.0470
  942MOL0     C29922  -0.500   5.522   8.420  0.6465  0.0245 -0.8557
  942MOL0     C29923  -0.600   5.591   8.455  0.4953 -0.1338 -0.1879
  942MOL0     C29924  -0.278   5.453   7.860 -0.2625 -0.0882  0.4687
  942MOL0     C29925  -0.157   5.430   7.809 -0.9143  0.9575  0.0380
  942MOL0     C29926  -0.059   5.541   7.800  0.0389  0.6574 -0.4265
  942MOL0     H29927   0.274   5.125   7.914  1.9552 -0.2379 -0.3917
  942MOL0     H29928   0.510   5.092   7.834 -2.2944 -0.6876  2.6002
  942MOL0     H29929   0.723   5.165   7.858 -0.2258  0.7825  0.4154
  942MOL0     H29930   0.735   5.342   7.864  2.3090  1.2551 -0.9053
  942MOL0     H29931   0.903   5.310   7.647 -1.9914 -1.0109 -1.2284
  942MOL0     H29932   0.964   5.276   7.806  0.1585  0.6541  0.1126
  942MOL0     H29933   0.905   5.040   7.801 -2.6249 -2.3765 -0.5759
  942MOL0     H29934   0.805   5.076   7.654  0.6150  0.2588  0.8644
  942MOL0     H29935   0.987   5.105   7.505  0.5741 -2.5566 -1.4355
  942MOL0     H29936   1.101   5.090   7.648 -0.9934  1.7467  1.4454
  942MOL0     H29937   0.902   4.890   7.546  1.1851  0.3701 -1.6470
  942MOL0     H29938   1.009   4.859   7.685 -3.5620 -1.4113  0.2702
  942MOL0     H29939   1.115   4.932   7.401  1.7974  3.4750  2.0770
  942MOL0     H29940   1.212   4.860   7.537  0.1373 -1.5133 -0.2244
  942MOL0     H29941   0.976   4.705   7.428  0.9978 -0.7897  0.2759
  942MOL0     H29942   1.110   4.649   7.515 -3.0037 -1.4981  0.9162
  942MOL0     H29943   1.140   4.580   7.281  4.0513 -0.3079  1.0817
  942MOL0     H29944   1.095   4.736   7.212 -0.4575  0.8753  0.5592
  942MOL0     H29945   1.275   4.898   7.157  1.1960  0.5592 -1.0969
  942MOL0     H29946   1.557   4.980   7.130 -0.8533 -0.2278  0.9859
  942MOL0     H29947   1.514   4.862   7.014  0.5657 -1.3630  0.1525
  942MOL0     H29948   1.739   4.839   7.218 -0.1789 -2.1242  1.5750
  942MOL0     H29949   1.722   4.721   7.080  1.2947  0.1341  1.2643
  942MOL0     H29950   1.735   4.932   6.938  0.3821  0.3723 -0.6922
  942MOL0     H29951   1.818   4.998   7.084  1.8448  0.0831 -0.9511
  942MOL0     H29952   1.879   4.754   6.902  0.3205 -0.3864  0.7372
  942MOL0     H29953   1.965   4.918   6.901 -3.5964  1.2137 -0.4573
  942MOL0     H29954   2.023   5.044   7.075  0.3101 -0.4846 -1.4705
  942MOL0     H29955   2.291   5.239   7.238 -0.4251  0.0658  1.1192
  942MOL0     H29956   2.125   5.224   7.301  0.4593 -2.5558  1.5983
  942MOL0     H29957   2.157   5.240   7.122 -1.5283 -2.2291 -0.0575
  942MOL0     H29958   2.541   5.346   7.367 -0.1607 -1.8120 -1.1989
  942MOL0     H29959   2.735   5.433   7.508  2.0315  1.0133 -2.4329
  942MOL0     H29960   2.979   5.117   7.691 -1.3403  0.1965 -2.3083
  942MOL0     H29961   3.089   5.254   7.664 -0.9683  0.4381 -1.5684
  942MOL0     H29962   3.020   5.359   7.863 -3.2155  0.4392 -1.2468
  942MOL0     H29963   2.888   5.240   7.883 -0.1965 -0.6200 -1.0098
  942MOL0     H29964   3.186   5.211   7.914  0.3604  0.0055  0.4738
  942MOL0     H29965   3.082   5.064   7.886 -1.9360  0.8400 -0.2925
  942MOL0     H29966   2.966   5.123   8.093  2.1056 -2.3184  1.0587
  942MOL0     H29967   3.059   5.273   8.119  3.0631  1.9601 -4.5523
  942MOL0     H29968   3.265   5.141   8.124 -0.1364 -1.5403 -1.1178
  942MOL0     H29969   3.174   5.110   8.262 -0.3358  0.8732  0.1615
  942MOL0     H29970   3.185   4.911   8.029 -3.4101  1.2098  0.3617
  942MOL0     H29971   3.104   4.895   8.180 -1.8652  1.6111 -1.2524
  942MOL0     H29972   3.310   4.809   8.247  0.0571 -0.2105  0.3493
  942MOL0     H29973   3.338   4.975   8.279 -1.6600  2.0876 -1.2289
  942MOL0     H29974   3.477   4.786   8.091 -1.3460 -0.7855  1.8969
  942MOL0     H29975   3.530   4.923   8.162 -0.6036 -1.3645  0.4308
  942MOL0     H29976   2.867   5.031   7.552  1.5717  1.0554  1.1785
  942MOL0     H29977   2.699   4.958   7.397 -1.1661  0.5975  1.9299
  942MOL0     H29978   2.359   4.767   7.313  0.1390  1.4208  2.4413
  942MOL0     H29979   2.171   4.670   7.178 -1.2751  0.1320 -2.3311
  942MOL0     H29980   0.465   5.460   7.603 -1.3157 -2.2907 -2.8968
  942MOL0     H29981   0.248   5.493   7.708  1.9938  2.2505  4.7676
  942MOL0     H29982  -0.185   5.098   7.745  5.3518  1.3125  1.4355
  942MOL0     H29983  -0.411   5.136   7.849 -0.0633 -0.1152 -1.1721
  942MOL0     H29984  -0.664   5.280   7.992  1.5477 -1.9188 -3.6076
  942MOL0     H29985  -0.520   5.193   8.039 -0.7831 -0.3109  1.0287
  942MOL0     H29986  -0.607   5.305   8.246  2.8135  0.5161  3.4382
  942MOL0     H29987  -0.608   5.465   8.171  1.1947  0.6395 -0.2999
  942MOL0     H29988  -0.370   5.294   8.202 -2.3281 -1.6019  1.5832
  942MOL0     H29989  -0.364   5.478   8.167  3.7423  0.8752  3.2118
  942MOL0     H29990  -0.300   5.449   8.391  0.7501 -2.1210 -1.9131
  942MOL0     H29991  -0.419   5.327   8.417  1.0889 -0.7747 -0.8173
  942MOL0     H29992  -0.693   5.645   8.456  0.6364  0.2273 -2.1856
  942MOL0     H29993  -0.307   5.556   7.881  2.7914  0.8456  0.4912
  942MOL0     H29994  -0.010   5.519   7.705  1.9368 -1.2227  0.8910
  942MOL0     H29995  -0.114   5.635   7.805 -1.8305 -0.3163 -1.5226
  942MOL0     H29996   0.011   5.531   7.884 -1.7408 -0.0761  1.0442
  943MOL0     O29997   0.851   8.491   9.820 -0.5683  0.4340 -0.2375
  943MOL0     C29998   0.808   8.387   9.867 -1.0411  0.0163 -0.3479
  943MOL0     O29999   0.823   8.352   9.996 -0.4296 -0.7320  0.3086
  943MOL0     C30000   0.927   8.405  10.074 -0.7540  0.2690 -0.1828
  943MOL0     C30001   1.058   8.424  10.018  0.3910 -0.4759 -0.4230
  943MOL0     C30002   1.160   8.463  10.096  0.8817 -0.2252 -0.2087
  943MOL0     C30003   1.142   8.478  10.234 -0.7337  0.3953  0.8711
  943MOL0     O30004   1.241   8.520  10.320  0.1468  0.2048  0.1947
  943MOL0     C30005   1.359   8.582  10.264 -0.0005 -0.7409 -0.4315
  943MOL0     C30006   1.434   8.662  10.373  0.4998  0.0954 -0.2498
  943MOL0     C30007   1.360   8.773  10.458 -0.7049 -0.3255  0.2309
  943MOL0     C30008   1.457   8.877  10.517  2.0488  0.2841 -0.1403
  943MOL0     C30009   1.453   9.002  10.431  0.2080 -0.4326  0.5163
  943MOL0     C30010   1.539   9.114  10.495 -0.9607  0.0929  0.1213
  943MOL0     C30011   1.482   9.172  10.621  0.3678  0.7076 -0.2317
  943MOL0     C30012   1.571   9.272  10.701 -0.4227 -0.6826 -0.6613
  943MOL0     N30013   1.634   9.379  10.623  0.3953  0.0749 -0.3768
  943MOL0     C30014   1.762   9.370  10.564 -0.0114 -0.7307  0.5020
  943MOL0     C30015   1.781   9.503  10.516 -1.1722 -0.2757  0.3536
  943MOL0     C30016   1.883   9.570  10.429 -0.5540 -0.0054  0.0692
  943MOL0     C30017   1.989   9.626  10.519 -1.3979  0.4545 -0.3196
  943MOL0     C30018   2.081   9.522  10.578  0.0534 -1.1023 -0.2010
  943MOL0     C30019   2.132   9.407  10.490 -0.1347 -0.0854 -0.4552
  943MOL0     O30020   2.235   9.452  10.399 -0.3035 -0.0008 -0.3573
  943MOL0     C30021   2.362   9.465  10.438 -0.0474 -0.5657  0.2799
  943MOL0     C30022   2.442   9.546  10.352  0.0968  0.7167  0.5848
  943MOL0     C30023   2.569   9.581  10.381  0.6545  1.1727 -0.0783
  943MOL0     C30024   2.645   9.658  10.279  0.0245  1.2741  0.5313
  943MOL0     C30025   2.618   9.544  10.508 -0.2501  0.1007  0.3856
  943MOL0     C30026   2.756   9.576  10.549 -0.3522 -0.9155  0.8784
  943MOL0     O30027   2.788   9.550  10.674 -0.2829 -0.0597  0.8442
  943MOL0     C30028   2.924   9.551  10.698  0.4013  0.2829 -0.1611
  943MOL0     C30029   2.989   9.668  10.737 -0.8963 -0.2138 -0.7395
  943MOL0     C30030   3.127   9.659  10.778  0.3338 -0.6324 -0.5420
  943MOL0     C30031   3.190   9.534  10.773  0.3641 -0.3161 -1.1795
  943MOL0     O30032   3.326   9.526  10.814 -0.2891  0.9430  0.3417
  943MOL0     C30033   3.367   9.411  10.878 -0.7419  0.5014  0.2009
  943MOL0     C30034   3.505   9.435  10.939 -0.3340  0.1113 -0.5875
  943MOL0     C30035   3.500   9.506  11.072 -0.7355  0.0498 -0.1380
  943MOL0     C30036   3.641   9.533  11.133  0.1344 -0.2079  0.0686
  943MOL0     C30037   3.637   9.590  11.269  0.0448  0.0132 -0.8358
  943MOL0     C30038   3.614   9.482  11.382 -0.6556 -0.2110  0.0851
  943MOL0     C30039   3.604   9.553  11.520  0.1707 -0.5351 -0.7208
  943MOL0     C30040   3.588   9.453  11.629 -0.9465  0.5701  0.0638
  943MOL0    Cl30041   3.717   9.323  11.639 -0.2252 -0.2210  0.6451
  943MOL0     C30042   3.124   9.426  10.719  0.5364 -0.7856 -0.2578
  943MOL0     C30043   2.988   9.428  10.692 -0.4757 -1.3489 -0.5440
  943MOL0     O30044   2.830   9.625  10.460  0.1170 -0.3749  0.3484
  943MOL0     C30045   2.537   9.470  10.597 -0.5590 -0.2162  0.3619
  943MOL0     C30046   2.423   9.414  10.558  0.8073 -0.4683 -0.6496
  943MOL0     N30047   1.678   9.575  10.553 -0.5865 -0.2136 -0.3534
  943MOL0     N30048   1.593   9.508  10.617  0.6597 -0.4275  0.7757
  943MOL0     C30049   1.027   8.449  10.294  1.4202  0.9201  0.0853
  943MOL0     C30050   0.916   8.404  10.222 -0.6427  0.2363  1.3803
  943MOL0     C30051   0.718   8.300   9.781  1.2068 -0.1169 -0.0166
  943MOL0     C30052   0.637   8.201   9.841 -0.4142 -0.6158  0.4121
  943MOL0     C30053   0.535   8.134   9.778 -0.5533  0.6532 -0.1421
  943MOL0     C30054   0.505   8.168   9.647 -0.7384  0.0265  0.4433
  943MOL0     O30055   0.405   8.119   9.561 -0.3345  0.2595  0.5007
  943MOL0     C30056   0.334   8.003   9.605  0.3362 -0.6499  0.2049
  943MOL0     C30057   0.260   7.933   9.491 -0.2521 -0.8405 -0.2942
  943MOL0     C30058   0.241   7.785   9.528 -0.1111  0.1874 -0.1239
  943MOL0     C30059   0.128   7.772   9.626 -0.1656  0.1685  0.2279
  943MOL0     C30060   0.033   7.669   9.587  0.3826 -0.6255  0.0314
  943MOL0     C30061  -0.042   7.569   9.575 -0.0902  0.0702 -0.0111
  943MOL0     C30062   0.586   8.264   9.584  1.0013  0.4634 -0.4136
  943MOL0     C30063   0.691   8.326   9.645 -1.1237 -0.2870  0.4950
  943MOL0     C30064   0.758   8.436   9.560  0.4602  0.6403  0.4569
  943MOL0     H30065   1.075   8.412   9.912  3.0739  0.3026 -0.1591
  943MOL0     H30066   1.252   8.503  10.056 -0.8454  3.4866 -0.9349
  943MOL0     H30067   1.328   8.666  10.202 -0.5739  0.6316  1.6216
  943MOL0     H30068   1.437   8.511  10.234  2.4288  0.7686  1.8780
  943MOL0     H30069   1.468   8.580  10.436 -1.7615 -1.0945 -0.4904
  943MOL0     H30070   1.526   8.703  10.330  0.1384  0.3345 -0.8172
  943MOL0     H30071   1.287   8.834  10.404 -3.0052 -1.6873  1.6132
  943MOL0     H30072   1.312   8.716  10.538 -0.4050 -2.5901 -1.1074
  943MOL0     H30073   1.435   8.901  10.621 -0.1428  3.6687 -1.2037
  943MOL0     H30074   1.548   8.818  10.528  0.4862 -1.8633  2.7292
  943MOL0     H30075   1.349   9.032  10.417 -0.3794 -2.7665 -0.5331
  943MOL0     H30076   1.486   8.965  10.334 -0.9625 -1.0021  0.3241
  943MOL0     H30077   1.642   9.081  10.507 -0.8334 -0.1227 -1.3485
  943MOL0     H30078   1.549   9.200  10.428  1.8539 -1.3421 -1.4825
  943MOL0     H30079   1.463   9.086  10.686  0.9337  0.5244 -0.2996
  943MOL0     H30080   1.390   9.226  10.596 -0.2653 -0.7714 -1.2059
  943MOL0     H30081   1.509   9.308  10.783  1.3191 -0.5323  0.6356
  943MOL0     H30082   1.653   9.220  10.750  1.2947  1.4503 -1.1520
  943MOL0     H30083   1.836   9.290  10.557 -0.3690 -0.8948 -2.2408
  943MOL0     H30084   1.832   9.647  10.370 -1.4448 -1.1104 -0.6635
  943MOL0     H30085   1.932   9.500  10.362  4.1388  0.1166  2.9320
  943MOL0     H30086   2.052   9.686  10.453  0.3646 -3.7727 -2.8951
  943MOL0     H30087   1.942   9.685  10.599 -0.7192 -1.5100  1.6306
  943MOL0     H30088   2.157   9.581  10.630 -1.7416 -1.2668  2.8091
  943MOL0     H30089   2.031   9.469  10.660 -2.8264  0.5522 -0.7384
  943MOL0     H30090   2.182   9.336  10.556  1.1091  1.0946 -0.0825
  943MOL0     H30091   2.056   9.350  10.435 -2.6016  0.6543  1.9983
  943MOL0     H30092   2.396   9.575  10.258  0.6376  1.7441  0.6219
  943MOL0     H30093   2.731   9.598  10.251  0.0529  1.7852 -0.5058
  943MOL0     H30094   2.680   9.750  10.328  2.5108 -0.4669  2.2747
  943MOL0     H30095   2.584   9.682  10.192 -0.9378  0.0890  0.8504
  943MOL0     H30096   2.940   9.764  10.750  0.6030  0.5290 -0.4035
  943MOL0     H30097   3.180   9.741  10.825  0.4747 -0.0789 -1.6380
  943MOL0     H30098   3.293   9.379  10.952 -1.2001 -3.1582 -1.5913
  943MOL0     H30099   3.368   9.331  10.803 -0.8826 -2.6462  3.2929
  943MOL0     H30100   3.554   9.338  10.952 -0.7572  0.2460  2.6933
  943MOL0     H30101   3.567   9.496  10.873  2.3214  0.0674  1.6978
  943MOL0     H30102   3.449   9.431  11.133 -1.1059 -3.3532 -4.2150
  943MOL0     H30103   3.446   9.600  11.055  2.0960  2.5583  3.0839
  943MOL0     H30104   3.698   9.600  11.068  3.1642 -1.5538  1.1547
  943MOL0     H30105   3.695   9.438  11.131 -2.6027 -1.8313 -1.4577
  943MOL0     H30106   3.728   9.645  11.294  0.6994 -0.2146 -2.6339
  943MOL0     H30107   3.558   9.666  11.267  0.7568  0.8898  1.2098
  943MOL0     H30108   3.699   9.412  11.379 -2.1187 -2.1167  0.8845
  943MOL0     H30109   3.536   9.409  11.359  1.3095 -2.0804 -1.1160
  943MOL0     H30110   3.527   9.630  11.515  0.4204 -0.2234  0.0642
  943MOL0     H30111   3.701   9.592  11.554  1.1243 -1.7644 -1.8911
  943MOL0     H30112   3.491   9.404  11.615 -1.7801  1.8068  1.2441
  943MOL0     H30113   3.583   9.505  11.725  0.5291  0.8566  0.0111
  943MOL0     H30114   3.169   9.327  10.714  2.7515  0.0838  1.3661
  943MOL0     H30115   2.931   9.344  10.654 -1.3324 -1.4508  0.8605
  943MOL0     H30116   2.588   9.441  10.688 -2.3804 -0.9522  1.2069
  943MOL0     H30117   2.370   9.346  10.625 -1.1756  1.3634 -0.2763
  943MOL0     H30118   1.013   8.450  10.401 -1.9930  0.3546 -0.2444
  943MOL0     H30119   0.821   8.376  10.266 -1.8344 -0.2600 -1.3093
  943MOL0     H30120   0.648   8.176   9.946 -0.5103 -1.0908  0.3126
  943MOL0     H30121   0.466   8.070   9.832 -0.3633 -0.7167 -1.4496
  943MOL0     H30122   0.406   7.935   9.650 -2.2691 -1.9731  2.6362
  943MOL0     H30123   0.260   8.029   9.681 -0.2228  0.1362 -0.5772
  943MOL0     H30124   0.315   7.934   9.397 -1.2911 -1.0703 -0.9166
  943MOL0     H30125   0.170   7.990   9.468 -0.4705 -0.4151  1.4750
  943MOL0     H30126   0.209   7.731   9.439 -0.0663  0.5412 -0.3547
  943MOL0     H30127   0.333   7.736   9.562  0.1588  0.0867 -0.9846
  943MOL0     H30128   0.088   7.874   9.632  1.3903  0.9541 -1.5384
  943MOL0     H30129   0.165   7.749   9.726  0.8367 -1.6965 -0.5399
  943MOL0     H30130  -0.087   7.473   9.563 -0.0880  0.2233 -1.4724
  943MOL0     H30131   0.557   8.296   9.484  1.9180  1.7303 -0.3014
  943MOL0     H30132   0.863   8.419   9.536 -0.2341 -2.4122 -0.9021
  943MOL0     H30133   0.722   8.431   9.456 -2.2181 -2.0250  1.3648
  943MOL0     H30134   0.736   8.535   9.601  0.3914 -0.0468  2.1615
  944MOL0     O30135   9.742   3.482   2.586  0.4150 -0.1115  0.3625
  944MOL0     C30136   9.649   3.394   2.563 -0.7473 -0.2561  0.0658
  944MOL0     O30137   9.516   3.421   2.590  0.1488 -0.0603  0.1290
  944MOL0     C30138   9.478   3.538   2.664 -0.0378  0.7656 -0.3674
  944MOL0     C30139   9.545   3.597   2.772  0.1950  0.7734 -0.1661
  944MOL0     C30140   9.478   3.692   2.842 -0.3707  0.4858  0.2895
  944MOL0     C30141   9.342   3.729   2.812 -0.1586  0.0254  0.3123
  944MOL0     O30142   9.283   3.822   2.894  0.1877 -0.7412 -0.0895
  944MOL0     C30143   9.184   3.922   2.842  0.4988 -0.1351  0.0958
  944MOL0     C30144   9.079   3.962   2.949 -0.3500  0.2964  0.4276
  944MOL0     C30145   8.980   3.865   3.011 -0.3395  0.7524  0.3470
  944MOL0     C30146   9.035   3.724   3.032 -0.6828 -0.2718  0.1927
  944MOL0     C30147   8.927   3.636   3.092 -0.2417  0.2432  0.5863
  944MOL0     C30148   8.966   3.490   3.095 -0.3601  0.0911  0.6909
  944MOL0     C30149   8.834   3.411   3.098  0.0527  0.0838  0.6369
  944MOL0     C30150   8.836   3.268   3.077  0.5507  0.7494  0.5200
  944MOL0     N30151   8.876   3.192   3.201 -0.5621 -0.4961  0.2199
  944MOL0     C30152   9.003   3.182   3.251 -0.0703  0.5774  0.2788
  944MOL0     C30153   8.991   3.124   3.373 -0.2407 -0.2546 -0.2869
  944MOL0     C30154   9.115   3.075   3.454  0.2246 -0.3543 -0.2907
  944MOL0     C30155   9.172   2.937   3.394  0.0660  0.4319  0.5316
  944MOL0     C30156   9.270   2.898   3.502  0.4986 -0.2202 -0.8426
  944MOL0     C30157   9.396   2.983   3.487 -0.1059  0.1974  0.8745
  944MOL0     O30158   9.481   2.964   3.603 -0.5167  0.1772  0.2878
  944MOL0     C30159   9.549   2.843   3.637  0.8801  0.0149  0.8116
  944MOL0     C30160   9.576   2.733   3.546  0.1640  0.8949  0.0879
  944MOL0     C30161   9.628   2.604   3.591 -0.3307 -0.1916  0.1936
  944MOL0     C30162   9.661   2.498   3.498 -0.2263 -0.2742  0.1311
  944MOL0     C30163   9.652   2.596   3.727 -1.1177 -0.3772 -1.2929
  944MOL0     C30164   9.712   2.478   3.793 -0.5931  0.1798  0.0673
  944MOL0     O30165   9.637   2.431   3.905 -0.2831 -0.3505  0.2207
  944MOL0     C30166   9.619   2.300   3.921  0.7234  0.8278 -0.7210
  944MOL0     C30167   9.633   2.200   3.821 -0.2302  0.2219  0.0543
  944MOL0     C30168   9.621   2.060   3.855 -0.0499  0.1264  0.0822
  944MOL0     C30169   9.601   2.011   3.987  0.1794 -0.6717 -0.2872
  944MOL0     O30170   9.595   1.888   4.038  0.1905  0.3831  0.4373
  944MOL0     C30171   9.548   1.780   3.954 -0.3842 -0.6656  0.1188
  944MOL0     C30172   9.559   1.645   4.022  0.3937  0.2979 -0.4117
  944MOL0     C30173   9.499   1.526   3.934  0.2661 -0.4341  0.5293
  944MOL0     C30174   9.351   1.533   3.959  0.1399  0.5829  0.5331
  944MOL0     C30175   9.257   1.424   3.887 -0.8293 -0.5522  0.7387
  944MOL0     C30176   9.195   1.501   3.767 -0.2715 -0.5446  0.7349
  944MOL0     C30177   9.107   1.404   3.682 -0.6125 -0.2331  0.0934
  944MOL0     C30178   8.961   1.388   3.749  0.3663 -0.3549  0.8361
  944MOL0    Cl30179   8.876   1.266   3.630  0.1948  0.2138 -0.1777
  944MOL0     C30180   9.589   2.117   4.077  1.4745  0.1670 -1.0472
  944MOL0     C30181   9.600   2.257   4.051  0.3996 -0.2813 -0.0379
  944MOL0     O30182   9.820   2.434   3.758 -0.3038  0.2343  0.2369
  944MOL0     C30183   9.626   2.700   3.817 -0.1978  0.8200 -0.0556
  944MOL0     C30184   9.560   2.820   3.773 -0.6865  0.1704  0.2126
  944MOL0     N30185   8.862   3.091   3.395  0.1699  0.1031 -0.2651
  944MOL0     N30186   8.790   3.141   3.294  0.1856 -0.2924 -0.5219
  944MOL0     C30187   9.283   3.683   2.696 -0.7287 -0.8908 -0.1390
  944MOL0     C30188   9.350   3.589   2.629 -0.8605  0.0446  0.3239
  944MOL0     C30189   9.694   3.260   2.513 -0.6383  0.3514  0.7212
  944MOL0     C30190   9.824   3.216   2.531 -1.0204 -0.5167 -0.0024
  944MOL0     C30191   9.886   3.105   2.480  0.4248 -0.0341  0.6793
  944MOL0     C30192   9.808   3.022   2.405  0.3919 -0.4652 -0.2552
  944MOL0     O30193   9.855   2.902   2.366 -1.0618  0.5713 -0.2090
  944MOL0     C30194   9.948   2.907   2.255 -0.1404  0.0918 -0.4150
  944MOL0     C30195   9.889   2.877   2.115  0.3452  0.6019 -0.1512
  944MOL0     C30196   9.992   2.878   1.998 -0.0288 -0.9887  0.7562
  944MOL0     C30197  10.007   3.019   1.927 -0.4258 -0.0354  0.2271
  944MOL0     C30198  10.073   3.119   2.012  0.1623 -0.5884  0.0242
  944MOL0     C30199  10.144   3.182   2.093 -0.6580  1.0210  0.7267
  944MOL0     C30200   9.675   3.051   2.376 -0.5701  0.0498  0.4107
  944MOL0     C30201   9.613   3.172   2.433 -0.0049  0.6293 -0.3330
  944MOL0     C30202   9.465   3.202   2.400  0.8836 -0.2299  0.4635
  944MOL0     H30203   9.642   3.554   2.798 -0.4972 -1.7858 -1.4413
  944MOL0     H30204   9.525   3.751   2.920 -1.8458  3.0527 -0.6356
  944MOL0     H30205   9.129   3.881   2.757  1.0275  0.0655 -0.3497
  944MOL0     H30206   9.235   4.009   2.799  1.5871 -0.3821  0.8615
  944MOL0     H30207   9.140   4.002   3.031 -0.0644 -2.9497  1.9646
  944MOL0     H30208   9.016   4.041   2.906  0.2782  1.5939  1.7694
  944MOL0     H30209   8.943   3.910   3.104 -0.7229  0.3018  0.4155
  944MOL0     H30210   8.895   3.842   2.946  2.0527 -2.7857 -1.8575
  944MOL0     H30211   9.078   3.688   2.938  0.7131  0.2501  0.5977
  944MOL0     H30212   9.123   3.732   3.097 -1.1291 -2.0312  1.0779
  944MOL0     H30213   8.848   3.654   3.019 -0.9336 -1.5129  0.8439
  944MOL0     H30214   8.897   3.659   3.195  2.4123  1.6401  1.1394
  944MOL0     H30215   9.028   3.460   3.010 -1.8836  0.3250 -0.5699
  944MOL0     H30216   9.044   3.464   3.167  1.7043 -4.2402 -2.6774
  944MOL0     H30217   8.784   3.432   3.003  0.3056 -1.0408  0.2466
  944MOL0     H30218   8.767   3.427   3.183  1.7201 -0.1096  2.0305
  944MOL0     H30219   8.738   3.234   3.042 -0.3735  1.4162  2.2802
  944MOL0     H30220   8.893   3.243   2.988 -3.6740 -0.3096 -2.1822
  944MOL0     H30221   9.093   3.211   3.196  0.5358  1.8506  1.8467
  944MOL0     H30222   9.096   3.069   3.561  3.7726  1.4341  0.5769
  944MOL0     H30223   9.187   3.156   3.441 -1.2372  0.9406 -0.7461
  944MOL0     H30224   9.086   2.873   3.375 -0.3502  0.8383  1.0242
  944MOL0     H30225   9.217   2.954   3.295 -1.0093  3.0398  0.3962
  944MOL0     H30226   9.222   2.911   3.600  0.7464  0.6286 -0.8234
  944MOL0     H30227   9.304   2.795   3.493 -1.7631 -0.9965 -1.2296
  944MOL0     H30228   9.449   2.944   3.400 -1.3085  4.9811 -2.3894
  944MOL0     H30229   9.377   3.090   3.469 -0.1252 -0.4724 -5.3837
  944MOL0     H30230   9.542   2.747   3.444  1.1124 -0.7256 -0.4810
  944MOL0     H30231   9.584   2.422   3.511 -0.4839  0.3979  3.7282
  944MOL0     H30232   9.759   2.454   3.522  1.8727  5.0157  3.0566
  944MOL0     H30233   9.669   2.539   3.397  2.0320  3.2308  1.5155
  944MOL0     H30234   9.668   2.232   3.723 -1.4194  2.0347  0.1611
  944MOL0     H30235   9.622   2.001   3.764 -0.7257 -0.8356  0.6878
  944MOL0     H30236   9.445   1.799   3.920 -1.6809 -2.3825  2.7685
  944MOL0     H30237   9.611   1.779   3.864  0.3537  0.0253  0.6114
  944MOL0     H30238   9.665   1.626   4.044 -0.3108 -1.5223  1.8573
  944MOL0     H30239   9.508   1.664   4.117 -1.8406 -0.5581 -1.3571
  944MOL0     H30240   9.548   1.430   3.952  1.3790 -0.4686 -2.2353
  944MOL0     H30241   9.517   1.549   3.829 -0.0329 -1.2654  0.2863
  944MOL0     H30242   9.314   1.628   3.919  1.8663  1.4649  0.9133
  944MOL0     H30243   9.323   1.528   4.064 -2.2124  1.7630  0.0251
  944MOL0     H30244   9.310   1.335   3.853  1.1095  1.2520 -1.3332
  944MOL0     H30245   9.182   1.415   3.966  0.9609 -0.0109  2.6052
  944MOL0     H30246   9.266   1.538   3.693  0.8450  0.0833  2.0691
  944MOL0     H30247   9.135   1.583   3.806 -0.7839 -0.6233  0.1256
  944MOL0     H30248   9.163   1.310   3.676  2.0584  1.2196  0.3406
  944MOL0     H30249   9.096   1.441   3.580 -1.7135  0.3415  0.4149
  944MOL0     H30250   8.905   1.481   3.750  2.6516  1.1231  0.2180
  944MOL0     H30251   8.986   1.361   3.852  1.8754  2.0844  1.2031
  944MOL0     H30252   9.557   2.080   4.174 -0.9379  1.5421 -1.2499
  944MOL0     H30253   9.575   2.334   4.124 -1.4368  3.2235 -3.9197
  944MOL0     H30254   9.656   2.694   3.921 -0.7457 -0.1803  0.0544
  944MOL0     H30255   9.523   2.896   3.842 -1.6816 -0.1411  0.0326
  944MOL0     H30256   9.181   3.698   2.659 -0.4997  1.7889  0.0843
  944MOL0     H30257   9.306   3.539   2.543  0.2475 -0.4453  0.0291
  944MOL0     H30258   9.894   3.273   2.591 -0.5574 -1.3193  0.2236
  944MOL0     H30259   9.991   3.092   2.504  0.7925  3.9976  1.9568
  944MOL0     H30260   9.984   3.010   2.247 -0.0006  0.0256 -0.6817
  944MOL0     H30261  10.033   2.842   2.280 -0.9645 -0.2930  1.5338
  944MOL0     H30262   9.814   2.956   2.114 -1.5149 -1.0889  0.2035
  944MOL0     H30263   9.833   2.784   2.132 -0.8937  1.7736  3.0005
  944MOL0     H30264  10.090   2.851   2.039  1.2557  2.9126  0.6897
  944MOL0     H30265   9.949   2.819   1.916  2.3971 -0.9937 -0.5885
  944MOL0     H30266   9.910   3.052   1.889 -2.6780 -4.2278  1.7203
  944MOL0     H30267  10.074   3.013   1.841  1.5027 -0.2598  1.6911
  944MOL0     H30268  10.206   3.240   2.158 -0.2926 -0.4991  1.8047
  944MOL0     H30269   9.611   2.976   2.331 -1.0693 -1.1175  2.8806
  944MOL0     H30270   9.410   3.108   2.385  1.8110 -1.3800  3.5542
  944MOL0     H30271   9.404   3.248   2.479  0.5853 -0.8315  0.5938
  944MOL0     H30272   9.450   3.263   2.311  1.1224 -0.6007  0.1668
  945MOL0     O30273   7.218  10.828   7.823  0.6061  0.1890  0.3448
  945MOL0     C30274   7.129  10.877   7.891  0.6646  0.3441 -0.9670
  945MOL0     O30275   7.065  10.820   8.000  0.2133 -0.4380  0.2712
  945MOL0     C30276   7.133  10.747   8.097  0.3230 -0.3293 -0.2327
  945MOL0     C30277   7.271  10.760   8.119 -0.4585 -0.9256  0.0187
  945MOL0     C30278   7.339  10.688   8.214 -0.2041  0.2236  0.0149
  945MOL0     C30279   7.270  10.605   8.307 -0.4366 -1.0446  0.5028
  945MOL0     O30280   7.318  10.548   8.414  0.5941  0.2599  0.1644
  945MOL0     C30281   7.456  10.517   8.419 -0.1772  0.6102 -0.4553
  945MOL0     C30282   7.487  10.399   8.517 -0.0691 -0.2311 -0.1329
  945MOL0     C30283   7.630  10.385   8.573 -0.8510  1.7332  0.0742
  945MOL0     C30284   7.634  10.293   8.703  0.2910 -0.1743 -0.6386
  945MOL0     C30285   7.771  10.300   8.773 -0.2083 -0.5709 -0.4824
  945MOL0     C30286   7.766  10.220   8.909 -0.0784 -0.7722 -0.0893
  945MOL0     C30287   7.860  10.276   9.026 -0.4899 -1.1624  0.2150
  945MOL0     C30288   7.835  10.195   9.151  0.6556 -0.0874  0.2406
  945MOL0     N30289   7.902  10.248   9.264 -0.1822  0.4184  0.1336
  945MOL0     C30290   8.044  10.252   9.277 -0.5470  0.8344  0.3072
  945MOL0     C30291   8.063  10.273   9.408 -0.6668  0.2042 -0.4439
  945MOL0     C30292   8.198  10.299   9.484  0.6592 -0.5046 -0.2943
  945MOL0     C30293   8.180  10.278   9.638 -0.3240 -0.2900 -0.4902
  945MOL0     C30294   8.313  10.251   9.700 -0.0499 -0.7270 -0.1119
  945MOL0     C30295   8.290  10.211   9.847  0.1225 -0.3049 -0.8932
  945MOL0     O30296   8.276  10.336   9.925  0.2077 -0.9545  0.2686
  945MOL0     C30297   8.239  10.318  10.056  0.3326 -0.0069 -1.1466
  945MOL0     C30298   8.273  10.192  10.121 -0.0072 -0.7566 -0.2751
  945MOL0     C30299   8.241  10.174  10.257  0.6023 -0.0815 -0.5060
  945MOL0     C30300   8.285  10.040  10.328 -0.2617 -0.1002  0.8031
  945MOL0     C30301   8.158  10.271  10.329  0.2078 -0.4678  0.3268
  945MOL0     C30302   8.112  10.259  10.467 -0.7593 -0.5932 -0.5164
  945MOL0     O30303   8.007  10.342  10.488 -0.1663 -0.6586 -0.4802
  945MOL0     C30304   7.936  10.351  10.604  0.0397  0.6434  0.4750
  945MOL0     C30305   7.892  10.474  10.643  0.4442 -0.4884  0.0032
  945MOL0     C30306   7.824  10.493  10.762 -0.3375  0.2756  0.1670
  945MOL0     C30307   7.793  10.386  10.852 -0.2304 -0.4616 -0.5901
  945MOL0     O30308   7.715  10.411  10.964  0.3908  0.1227  0.6423
  945MOL0     C30309   7.784  10.507  11.054  0.3758  0.0093  0.0915
  945MOL0     C30310   7.911  10.445  11.116 -0.4602  0.6492 -0.0567
  945MOL0     C30311   7.981  10.531  11.223 -0.7569 -0.9344 -0.4511
  945MOL0     C30312   8.048  10.646  11.152 -0.2179  0.3826  0.0536
  945MOL0     C30313   8.133  10.716  11.254 -0.1072 -0.2561  0.2358
  945MOL0     C30314   8.148  10.865  11.208 -1.0258 -0.4301 -0.2450
  945MOL0     C30315   8.269  10.924  11.269  0.8568 -0.9573 -0.0239
  945MOL0     C30316   8.328  11.037  11.181  0.3251 -0.7985 -0.5540
  945MOL0    Cl30317   8.486  11.073  11.219  0.0260  0.0478 -0.1036
  945MOL0     C30318   7.824  10.256  10.805 -0.6028  0.2211  0.1889
  945MOL0     C30319   7.903  10.244  10.689 -0.0215  0.3261 -0.4388
  945MOL0     O30320   8.170  10.197  10.557 -0.4202 -0.0003  0.2782
  945MOL0     C30321   8.128  10.391  10.253 -0.1907  0.1910  0.1147
  945MOL0     C30322   8.170  10.413  10.119 -0.2262  0.6309 -0.3753
  945MOL0     N30323   7.940  10.276   9.477  0.2068 -0.6819  0.1419
  945MOL0     N30324   7.842  10.262   9.395 -0.6879 -0.0361  0.2277
  945MOL0     C30325   7.131  10.600   8.297  1.1614  0.6165  0.7588
  945MOL0     C30326   7.059  10.665   8.190 -0.7448  0.0171 -0.2357
  945MOL0     C30327   7.068  11.000   7.838  0.2073  0.0542 -1.1128
  945MOL0     C30328   6.927  11.009   7.856 -0.1863 -0.8270  0.7510
  945MOL0     C30329   6.859  11.121   7.813  0.2072  0.4640 -0.2329
  945MOL0     C30330   6.930  11.227   7.756  0.3679 -0.3546 -0.6532
  945MOL0     O30331   6.858  11.328   7.714 -0.3358 -0.2437  0.0140
  945MOL0     C30332   6.796  11.303   7.582 -0.9073  0.4241 -0.1533
  945MOL0     C30333   6.675  11.399   7.572  0.5601 -0.1114 -1.0257
  945MOL0     C30334   6.636  11.401   7.421 -0.0726  1.1986  0.6874
  945MOL0     C30335   6.516  11.503   7.391 -0.4390  0.2194  0.2955
  945MOL0     C30336   6.389  11.428   7.384  0.2039  1.4036 -0.6854
  945MOL0     C30337   6.290  11.359   7.365 -0.6936  0.6490 -0.3892
  945MOL0     C30338   7.068  11.219   7.754  0.6189  0.0394  1.7193
  945MOL0     C30339   7.140  11.110   7.788  0.3023  0.0186 -0.0606
  945MOL0     C30340   7.292  11.106   7.772 -0.7584  0.2127  0.5588
  945MOL0     H30341   7.334  10.812   8.048 -1.7850 -0.4484 -0.8577
  945MOL0     H30342   7.447  10.688   8.224 -0.3012 -0.5972  1.4772
  945MOL0     H30343   7.523  10.597   8.454  3.9010 -4.1381  4.3569
  945MOL0     H30344   7.496  10.488   8.321  1.1930  0.5018  0.1044
  945MOL0     H30345   7.414  10.403   8.598 -4.3661  2.4672 -3.6670
  945MOL0     H30346   7.459  10.314   8.455  1.2010 -0.8352  0.0803
  945MOL0     H30347   7.696  10.336   8.500 -1.8618  1.7059 -0.8583
  945MOL0     H30348   7.672  10.483   8.599  1.0782  0.7477  0.9028
  945MOL0     H30349   7.561  10.334   8.773 -0.6207 -0.2307 -1.5295
  945MOL0     H30350   7.620  10.189   8.671  0.2455 -0.1042 -0.8524
  945MOL0     H30351   7.782  10.406   8.795  0.8184 -1.0455  1.6019
  945MOL0     H30352   7.844  10.260   8.703  0.5597  1.1073 -0.6806
  945MOL0     H30353   7.666  10.220   8.952 -0.1611  0.4388 -0.2315
  945MOL0     H30354   7.792  10.118   8.880  5.2203  0.2018  0.1963
  945MOL0     H30355   7.833  10.382   9.037  0.5216 -0.9090  0.3466
  945MOL0     H30356   7.959  10.271   8.980 -1.2518  0.5786 -1.7767
  945MOL0     H30357   7.726  10.196   9.153  0.6462  0.1630 -0.1268
  945MOL0     H30358   7.870  10.091   9.142  1.5637  0.3478 -1.8478
  945MOL0     H30359   8.132  10.250   9.213 -0.8295  0.4382 -0.0698
  945MOL0     H30360   8.229  10.401   9.458 -1.9038 -0.2436 -2.8747
  945MOL0     H30361   8.281  10.230   9.463  1.0015  0.2383 -1.4745
  945MOL0     H30362   8.145  10.371   9.684  4.1496  0.5764  1.6947
  945MOL0     H30363   8.101  10.203   9.651 -0.4141 -0.1306 -0.1187
  945MOL0     H30364   8.366  10.166   9.655  1.5886 -0.2215  0.7793
  945MOL0     H30365   8.376  10.337   9.675 -1.6663 -0.0467 -2.1743
  945MOL0     H30366   8.204  10.148   9.868 -1.7295  2.5338  0.6949
  945MOL0     H30367   8.388  10.166   9.869  0.5007 -0.0230 -1.9194
  945MOL0     H30368   8.317  10.111  10.065 -4.5773 -2.0502 -2.4793
  945MOL0     H30369   8.274   9.951  10.265 -0.6484  0.3415  0.2351
  945MOL0     H30370   8.224  10.020  10.416 -1.8456 -0.1808 -0.2642
  945MOL0     H30371   8.392  10.047  10.352  0.3979  3.5869 -2.1825
  945MOL0     H30372   7.905  10.562  10.582  1.9103  0.8359  2.1291
  945MOL0     H30373   7.801  10.597  10.779 -2.3884  0.1555 -1.3482
  945MOL0     H30374   7.806  10.592  10.988  0.3243  0.0496  0.1270
  945MOL0     H30375   7.708  10.536  11.127  1.5562  4.3583 -0.0899
  945MOL0     H30376   7.879  10.348  11.156 -1.2572 -1.0150 -4.2092
  945MOL0     H30377   7.985  10.420  11.040 -1.3432 -1.3271 -0.3384
  945MOL0     H30378   8.060  10.470  11.267  1.4598  0.8790 -1.6967
  945MOL0     H30379   7.905  10.560  11.296 -2.7096 -1.4640 -2.1815
  945MOL0     H30380   7.969  10.710  11.111  2.0583  0.4683 -4.9194
  945MOL0     H30381   8.102  10.612  11.064 -1.1493 -1.6108  0.1848
  945MOL0     H30382   8.073  10.721  11.345  0.6401  2.1088  0.6917
  945MOL0     H30383   8.235  10.676  11.263 -0.0925 -0.8162 -1.8675
  945MOL0     H30384   8.059  10.907  11.255 -0.7074 -0.4965  0.4403
  945MOL0     H30385   8.154  10.871  11.099  0.2077 -2.5368 -0.3460
  945MOL0     H30386   8.355  10.856  11.275  2.5054  1.0676  0.4369
  945MOL0     H30387   8.259  10.958  11.373 -0.5118 -2.6765  0.4546
  945MOL0     H30388   8.270  11.128  11.199 -0.6985 -1.6264  0.4837
  945MOL0     H30389   8.330  11.002  11.078 -2.5815 -0.3881 -0.8345
  945MOL0     H30390   7.779  10.168  10.850 -0.0435 -0.1822 -0.0383
  945MOL0     H30391   7.937  10.147  10.652 -0.3948  0.7838 -2.0380
  945MOL0     H30392   8.066  10.475  10.284  1.9681  0.8254  3.1474
  945MOL0     H30393   8.145  10.502  10.062 -1.3639  0.3154 -0.3783
  945MOL0     H30394   7.062  10.577   8.377  0.4064  4.7963  1.5670
  945MOL0     H30395   6.951  10.663   8.177 -0.7079 -1.8968 -0.6397
  945MOL0     H30396   6.858  10.931   7.887 -0.4545 -0.5784  0.7834
  945MOL0     H30397   6.751  11.117   7.816  0.0988  0.5111  4.9399
  945MOL0     H30398   6.867  11.334   7.505  0.7397  0.4673  1.3378
  945MOL0     H30399   6.770  11.198   7.565 -2.2285  0.8349 -0.8510
  945MOL0     H30400   6.710  11.499   7.599  1.1428 -0.9284  1.6230
  945MOL0     H30401   6.587  11.365   7.628 -0.8749  1.3953 -2.2830
  945MOL0     H30402   6.722  11.438   7.364 -0.9474 -1.3060 -2.5385
  945MOL0     H30403   6.614  11.303   7.379 -0.9391  2.0423 -0.9102
  945MOL0     H30404   6.528  11.550   7.292  0.5747  2.2041  1.3005
  945MOL0     H30405   6.515  11.584   7.463  0.4880  0.9677 -0.5038
  945MOL0     H30406   6.214  11.284   7.370 -0.1663  0.1891  1.2834
  945MOL0     H30407   7.125  11.301   7.711 -0.2653 -0.2059 -0.0393
  945MOL0     H30408   7.318  11.212   7.767  1.1894 -0.1509  1.8461
  945MOL0     H30409   7.324  11.048   7.858 -1.0123 -2.6946 -1.1522
  945MOL0     H30410   7.324  11.053   7.681 -2.5478  2.2420 -1.3727
  946MOL0     O30411   1.261   2.359   4.290  0.5366  0.1283 -0.0355
  946MOL0     C30412   1.178   2.350   4.197 -0.1577  0.4411 -0.1509
  946MOL0     O30413   1.143   2.443   4.108  0.3633  0.1107  0.0431
  946MOL0     C30414   1.218   2.558   4.116 -0.7694  0.1023 -0.4146
  946MOL0     C30415   1.361   2.550   4.115  0.6721  0.1204 -1.5129
  946MOL0     C30416   1.435   2.668   4.133  1.2673 -0.4013  0.1203
  946MOL0     C30417   1.371   2.796   4.141 -0.0141 -0.9946 -0.0810
  946MOL0     O30418   1.444   2.904   4.173 -0.8006 -0.3288  0.3346
  946MOL0     C30419   1.475   2.996   4.067 -0.1412  0.9241 -0.4087
  946MOL0     C30420   1.395   3.125   4.069 -0.4227  0.6527  0.4819
  946MOL0     C30421   1.392   3.183   3.927 -0.6249 -0.6243 -0.2652
  946MOL0     C30422   1.494   3.287   3.915 -0.1018  0.1421 -0.3982
  946MOL0     C30423   1.478   3.351   3.777  0.2092  0.2171 -0.7271
  946MOL0     C30424   1.599   3.439   3.733  0.1071  1.3610 -0.4540
  946MOL0     C30425   1.710   3.348   3.666 -0.0887 -0.0061  0.2002
  946MOL0     C30426   1.661   3.297   3.527 -0.7997  0.3950 -0.4064
  946MOL0     N30427   1.751   3.189   3.469 -0.7338 -0.2592  0.3147
  946MOL0     C30428   1.870   3.134   3.524 -0.1574 -0.1202  0.0749
  946MOL0     C30429   1.904   3.036   3.436 -0.3833  0.5483  0.3461
  946MOL0     C30430   2.026   2.941   3.467  0.2671  0.0637 -0.8982
  946MOL0     C30431   2.163   2.970   3.395  0.4371  0.5454  0.5170
  946MOL0     C30432   2.220   3.109   3.417 -0.6996 -0.5725 -0.1639
  946MOL0     C30433   2.356   3.117   3.362 -0.2304  0.8605  0.5945
  946MOL0     O30434   2.404   3.241   3.397  0.0491 -0.0524  0.0061
  946MOL0     C30435   2.515   3.290   3.334  0.2236  0.0154 -0.0852
  946MOL0     C30436   2.542   3.266   3.199  0.4321 -0.1980 -0.5617
  946MOL0     C30437   2.664   3.322   3.142  0.5342 -0.4815 -0.2133
  946MOL0     C30438   2.685   3.294   3.001  0.4166 -0.9671  0.0141
  946MOL0     C30439   2.743   3.415   3.222 -0.2341  0.0423  0.2443
  946MOL0     C30440   2.879   3.469   3.183 -0.2911 -0.5837  0.9293
  946MOL0     O30441   2.917   3.581   3.253 -0.2815  0.0865  0.5632
  946MOL0     C30442   3.042   3.629   3.235 -0.4442 -0.2081 -0.3523
  946MOL0     C30443   3.156   3.554   3.201  0.0809  0.3816 -0.5802
  946MOL0     C30444   3.272   3.623   3.171  0.8902  0.6781  0.2236
  946MOL0     C30445   3.276   3.764   3.185 -0.3188 -0.5067  0.1355
  946MOL0     O30446   3.388   3.835   3.156  0.2594  0.1759  0.3112
  946MOL0     C30447   3.511   3.785   3.217 -0.5053 -0.0221  0.5392
  946MOL0     C30448   3.589   3.916   3.256 -0.8400 -1.0210 -0.0826
  946MOL0     C30449   3.722   3.871   3.320 -0.0238  0.1735 -0.0819
  946MOL0     C30450   3.809   3.971   3.400  0.4293 -0.2759  0.2737
  946MOL0     C30451   3.881   4.083   3.319  0.2205  0.0056 -0.6914
  946MOL0     C30452   3.983   4.013   3.225 -0.1409 -0.2562 -0.8632
  946MOL0     C30453   4.066   4.120   3.145  0.9683  0.0890 -0.0604
  946MOL0     C30454   4.075   4.067   2.992 -0.3290 -0.2702  0.0200
  946MOL0    Cl30455   3.953   4.168   2.913 -0.0232 -0.9243 -0.3838
  946MOL0     C30456   3.163   3.834   3.227  0.9055 -0.0347  0.1895
  946MOL0     C30457   3.041   3.767   3.249 -0.6515 -0.4576 -0.4668
  946MOL0     O30458   2.935   3.416   3.090  0.4722 -0.7336 -0.4177
  946MOL0     C30459   2.694   3.446   3.350  0.4750 -0.0979 -0.3797
  946MOL0     C30460   2.582   3.383   3.406 -0.1040  1.3443  0.0149
  946MOL0     N30461   1.815   3.040   3.321 -0.7023 -0.0976  0.2823
  946MOL0     N30462   1.739   3.151   3.338 -0.0916  0.1420  0.1424
  946MOL0     C30463   1.234   2.804   4.120  0.6814  0.8777 -0.0190
  946MOL0     C30464   1.154   2.681   4.108 -0.6961 -0.5014  1.0219
  946MOL0     C30465   1.090   2.230   4.186 -0.2724  1.3656  0.6817
  946MOL0     C30466   0.955   2.256   4.164  0.1980  0.1529  0.7554
  946MOL0     C30467   0.865   2.151   4.174 -0.5660 -0.3863 -0.9592
  946MOL0     C30468   0.909   2.021   4.200  0.0394  0.6453  0.2834
  946MOL0     O30469   0.811   1.930   4.224  0.0504  0.3418  0.8350
  946MOL0     C30470   0.840   1.798   4.245  0.6981  0.3551 -0.8765
  946MOL0     C30471   0.719   1.701   4.204 -0.1359 -0.4724 -0.1378
  946MOL0     C30472   0.589   1.787   4.185  0.6920 -0.2180 -0.5868
  946MOL0     C30473   0.471   1.692   4.137  0.6615 -0.1884 -0.0700
  946MOL0     C30474   0.338   1.755   4.130  0.0556  0.0243  0.5638
  946MOL0     C30475   0.230   1.810   4.122  0.3954  0.2830 -0.4753
  946MOL0     C30476   1.047   1.998   4.218  0.4130  0.1874  0.0181
  946MOL0     C30477   1.140   2.101   4.200 -1.0946  0.0842 -0.2654
  946MOL0     C30478   1.286   2.057   4.203 -0.7964  1.0697  0.2825
  946MOL0     H30479   1.407   2.453   4.106 -3.0437 -1.7329 -2.8697
  946MOL0     H30480   1.540   2.666   4.158  1.3531 -0.3652 -0.2376
  946MOL0     H30481   1.472   2.929   3.981 -1.4856 -3.9107  3.0252
  946MOL0     H30482   1.577   3.031   4.087  0.0152  0.1924  0.1067
  946MOL0     H30483   1.296   3.104   4.111 -0.0231  2.1062  2.2904
  946MOL0     H30484   1.445   3.195   4.136  2.0449  1.0484 -1.6106
  946MOL0     H30485   1.384   3.110   3.846 -1.7832  0.3293 -1.0362
  946MOL0     H30486   1.291   3.226   3.920 -0.0012  0.9926  0.1636
  946MOL0     H30487   1.467   3.366   3.985  0.4939 -0.4020  0.4596
  946MOL0     H30488   1.598   3.261   3.938  0.0116 -1.3613 -2.3438
  946MOL0     H30489   1.388   3.413   3.783  0.4692  0.7421 -1.9070
  946MOL0     H30490   1.452   3.272   3.706 -1.0185 -0.9978  0.9940
  946MOL0     H30491   1.562   3.521   3.670  3.0746  3.0672 -0.2035
  946MOL0     H30492   1.648   3.470   3.826 -1.8978 -0.4489  1.3041
  946MOL0     H30493   1.735   3.260   3.727  1.2049  0.5585  0.5136
  946MOL0     H30494   1.806   3.400   3.660 -0.9001  1.5297  0.2939
  946MOL0     H30495   1.557   3.262   3.526 -0.1193 -1.7857  0.0579
  946MOL0     H30496   1.665   3.388   3.467  4.2103  1.9283  1.7424
  946MOL0     H30497   1.921   3.160   3.616  0.3243  0.4789 -0.3441
  946MOL0     H30498   1.981   2.845   3.439 -1.1081  0.2549  0.4950
  946MOL0     H30499   2.035   2.937   3.576  1.8791  0.0033 -1.0201
  946MOL0     H30500   2.231   2.898   3.441  1.6220  2.9698  2.8315
  946MOL0     H30501   2.140   2.943   3.292 -1.2113 -0.3909  1.0894
  946MOL0     H30502   2.166   3.193   3.374 -0.4233  0.1782  0.9282
  946MOL0     H30503   2.227   3.136   3.523  2.5021  4.1983 -1.2948
  946MOL0     H30504   2.428   3.043   3.397 -1.5904  0.9457  3.9767
  946MOL0     H30505   2.334   3.110   3.255 -1.8164  1.4146  0.8596
  946MOL0     H30506   2.483   3.195   3.142  1.9532  0.0294 -2.4969
  946MOL0     H30507   2.602   3.242   2.952 -0.6720 -0.2814  1.0519
  946MOL0     H30508   2.777   3.237   2.988  1.5947  1.0267 -0.8162
  946MOL0     H30509   2.699   3.390   2.949  0.0765  1.5177  4.0461
  946MOL0     H30510   3.162   3.446   3.204 -3.5110  0.0580 -1.1916
  946MOL0     H30511   3.357   3.564   3.140  0.0093  0.0677 -1.1276
  946MOL0     H30512   3.492   3.716   3.300  0.3842 -4.0086 -2.2605
  946MOL0     H30513   3.572   3.729   3.145 -0.7107  0.8330 -0.3290
  946MOL0     H30514   3.612   3.983   3.173  4.1369  0.3017  1.9709
  946MOL0     H30515   3.529   3.971   3.328 -1.2913  2.9089 -3.1730
  946MOL0     H30516   3.793   3.825   3.250  1.7548  3.2861 -0.5375
  946MOL0     H30517   3.686   3.802   3.396 -2.2379 -1.3937 -2.3850
  946MOL0     H30518   3.877   3.915   3.465  1.4466  0.0470 -0.4938
  946MOL0     H30519   3.745   4.034   3.463 -1.9181 -0.4364 -1.8276
  946MOL0     H30520   3.804   4.137   3.264 -1.1971 -0.7145  0.5262
  946MOL0     H30521   3.924   4.152   3.392 -1.5267  1.1991 -0.7277
  946MOL0     H30522   3.941   3.949   3.146  0.3805 -1.9823  0.2056
  946MOL0     H30523   4.054   3.947   3.274  0.9800  0.2349 -1.7711
  946MOL0     H30524   4.166   4.129   3.190  0.8949 -1.5077  0.4814
  946MOL0     H30525   4.011   4.214   3.151  1.6486  0.5733 -1.1226
  946MOL0     H30526   4.071   3.958   2.990  0.2299 -0.3288  1.0473
  946MOL0     H30527   4.179   4.090   2.964 -0.5087 -2.4188 -2.7639
  946MOL0     H30528   3.166   3.942   3.218  2.6367  0.3187  3.5296
  946MOL0     H30529   2.941   3.806   3.266 -1.0164  0.0377 -3.3163
  946MOL0     H30530   2.756   3.518   3.403 -0.7258 -0.2874  1.3954
  946MOL0     H30531   2.551   3.406   3.507  0.1628 -2.3087  1.0746
  946MOL0     H30532   1.187   2.902   4.117 -1.0575  0.0740 -0.2880
  946MOL0     H30533   1.048   2.682   4.083 -0.7444  2.4729  1.0068
  946MOL0     H30534   0.912   2.355   4.154 -1.3516 -0.6439 -0.9093
  946MOL0     H30535   0.760   2.179   4.165 -1.1468 -1.5303  1.4955
  946MOL0     H30536   0.932   1.764   4.196 -0.0535  1.8370 -3.5613
  946MOL0     H30537   0.855   1.782   4.352 -3.1357 -0.6571 -0.3149
  946MOL0     H30538   0.717   1.641   4.295 -4.0957  0.0379  0.2974
  946MOL0     H30539   0.737   1.646   4.111 -1.6592 -1.5578  0.1660
  946MOL0     H30540   0.560   1.828   4.282  0.5031  1.4087 -1.2838
  946MOL0     H30541   0.596   1.864   4.107 -2.9505  0.3267 -0.5497
  946MOL0     H30542   0.474   1.604   4.202  1.1792  0.8218  1.3354
  946MOL0     H30543   0.500   1.657   4.038 -0.2031  0.3852 -0.5438
  946MOL0     H30544   0.134   1.855   4.134  0.9944  1.1335  1.6328
  946MOL0     H30545   1.088   1.902   4.247  0.4855  0.1592 -0.1740
  946MOL0     H30546   1.351   2.121   4.143 -1.1181  3.1029  1.9530
  946MOL0     H30547   1.317   2.050   4.308 -0.2430  0.1389  0.0641
  946MOL0     H30548   1.295   1.958   4.157  0.5471  1.7634 -1.0004
  947MOL0     O30549   0.077   6.278  10.306  1.2928 -0.6552 -0.3553
  947MOL0     C30550   0.121   6.215  10.212 -0.8694  0.2155  0.6465
  947MOL0     O30551   0.093   6.085  10.186  0.0991  0.1246 -0.3554
  947MOL0     C30552  -0.004   6.027  10.263  0.0246  0.0411  0.1819
  947MOL0     C30553  -0.137   6.013  10.214 -1.2167  0.0738  0.6665
  947MOL0     C30554  -0.237   5.934  10.285 -0.2605  0.8246 -0.2012
  947MOL0     C30555  -0.192   5.849  10.382 -0.4664  0.2078  0.4058
  947MOL0     O30556  -0.279   5.768  10.445 -0.2957 -0.1251 -0.1805
  947MOL0     C30557  -0.324   5.658  10.360  0.3238 -0.4551  0.3599
  947MOL0     C30558  -0.325   5.531  10.450  0.9701  0.2161  0.5209
  947MOL0     C30559  -0.357   5.394  10.393 -0.3983 -0.6102  0.2830
  947MOL0     C30560  -0.495   5.392  10.324  0.2673  0.3667 -0.4459
  947MOL0     C30561  -0.491   5.263  10.250  0.5462 -0.3806  0.8839
  947MOL0     C30562  -0.616   5.216  10.174 -0.1056 -0.0668 -1.1094
  947MOL0     C30563  -0.622   5.260  10.024 -0.6537  0.3164 -0.5341
  947MOL0     C30564  -0.646   5.408   9.981  0.1511  0.7801 -0.7511
  947MOL0     N30565  -0.667   5.411   9.838 -0.4678  0.1698  0.1388
  947MOL0     C30566  -0.784   5.433   9.767  0.2648 -0.0813 -0.2534
  947MOL0     C30567  -0.738   5.440   9.633 -0.0367 -0.2538 -1.3434
  947MOL0     C30568  -0.821   5.489   9.529  1.0586  0.9652  0.4764
  947MOL0     C30569  -0.745   5.593   9.450  0.1485 -1.0947 -0.2678
  947MOL0     C30570  -0.839   5.697   9.380 -0.2283 -0.8006  0.0948
  947MOL0     C30571  -0.915   5.631   9.274 -0.5101  0.1816  0.0658
  947MOL0     O30572  -1.029   5.560   9.346 -0.6332  0.1076  0.4113
  947MOL0     C30573  -1.111   5.474   9.273 -0.4549 -0.0622 -1.0187
  947MOL0     C30574  -1.123   5.465   9.140  0.5517  0.2446  0.7468
  947MOL0     C30575  -1.241   5.396   9.085 -0.0340 -0.5272 -0.0279
  947MOL0     C30576  -1.260   5.404   8.935  0.3271  1.0740 -0.4133
  947MOL0     C30577  -1.334   5.332   9.171 -0.0174  0.2469  0.1372
  947MOL0     C30578  -1.466   5.268   9.137  0.0712  0.0637 -0.1097
  947MOL0     O30579  -1.546   5.235   9.237  0.1322 -0.1057  0.8010
  947MOL0     C30580  -1.671   5.170   9.219  0.1731 -0.2385 -0.2188
  947MOL0     C30581  -1.698   5.082   9.318 -0.2169 -0.4728 -0.1329
  947MOL0     C30582  -1.815   5.005   9.318 -0.6384 -0.1582  0.3391
  947MOL0     C30583  -1.903   5.010   9.203  0.3215 -0.2369 -0.6436
  947MOL0     O30584  -2.006   4.914   9.189  0.1623  1.1950  0.2080
  947MOL0     C30585  -2.021   4.790   9.259  0.4533 -0.4120 -0.8360
  947MOL0     C30586  -2.137   4.801   9.342 -0.1008 -0.0779 -0.0395
  947MOL0     C30587  -2.184   4.666   9.394 -0.0819  0.1158  0.3735
  947MOL0     C30588  -2.087   4.603   9.490  0.9660  0.0963 -0.4792
  947MOL0     C30589  -2.143   4.477   9.556  0.4645  0.8587  0.5010
  947MOL0     C30590  -2.053   4.428   9.679  0.0752 -0.0577  0.8294
  947MOL0     C30591  -1.902   4.416   9.650 -0.1287  0.0090 -1.1677
  947MOL0     C30592  -1.863   4.308   9.549  0.7580  0.5172  0.1506
  947MOL0    Cl30593  -1.689   4.303   9.533 -0.3387  0.2024 -0.4002
  947MOL0     C30594  -1.873   5.101   9.108  0.3062 -0.7381  0.3073
  947MOL0     C30595  -1.762   5.186   9.112  0.5886  0.5642 -0.3340
  947MOL0     O30596  -1.497   5.251   9.021 -0.0344 -0.5933  0.2535
  947MOL0     C30597  -1.302   5.335   9.300 -0.7100 -0.4764 -0.5824
  947MOL0     C30598  -1.195   5.399   9.353  0.7131  0.1417  0.3420
  947MOL0     N30599  -0.602   5.422   9.628 -0.0302  0.0770 -0.7494
  947MOL0     N30600  -0.558   5.405   9.746  0.2397  0.1618  0.2398
  947MOL0     C30601  -0.057   5.865  10.434 -0.8168  0.1327  0.6551
  947MOL0     C30602   0.032   5.953  10.376 -0.5693 -1.1270 -0.1401
  947MOL0     C30603   0.208   6.276  10.109  0.1179  0.0191  0.4866
  947MOL0     C30604   0.149   6.344   9.996  0.3192  0.4454 -0.1978
  947MOL0     C30605   0.230   6.399   9.896 -0.2517  0.2540 -0.2041
  947MOL0     C30606   0.362   6.407   9.919 -0.2693 -0.1688 -0.1013
  947MOL0     O30607   0.455   6.464   9.839 -0.9646 -0.0375 -0.3664
  947MOL0     C30608   0.425   6.554   9.737 -0.8849 -0.5086 -0.4169
  947MOL0     C30609   0.560   6.604   9.675  0.0690  0.4638 -0.1272
  947MOL0     C30610   0.551   6.708   9.566  0.0818  0.4237  0.7062
  947MOL0     C30611   0.689   6.748   9.513  0.0430 -0.4384  0.6993
  947MOL0     C30612   0.725   6.668   9.390 -0.8541 -0.3073 -0.4910
  947MOL0     C30613   0.760   6.609   9.281  0.1204 -0.3511 -0.2606
  947MOL0     C30614   0.418   6.345  10.029 -0.4075  0.3235  0.9555
  947MOL0     C30615   0.347   6.282  10.123  0.4527  0.3531  0.0425
  947MOL0     C30616   0.417   6.237  10.248  0.0249 -0.3337  0.3317
  947MOL0     H30617  -0.160   6.060  10.119  1.0709  0.5187  0.2567
  947MOL0     H30618  -0.335   5.929  10.239 -1.4303 -0.6857  2.2291
  947MOL0     H30619  -0.257   5.635  10.277  1.0481 -1.6294  1.2451
  947MOL0     H30620  -0.423   5.676  10.317  0.6504  0.0951 -0.1850
  947MOL0     H30621  -0.228   5.522  10.500  0.8991 -1.3970  0.4191
  947MOL0     H30622  -0.405   5.545  10.523  0.5405 -3.3234  0.8908
  947MOL0     H30623  -0.266   5.382  10.333  1.4136  4.9294  1.3404
  947MOL0     H30624  -0.353   5.330  10.481 -0.4581  0.3251  0.9789
  947MOL0     H30625  -0.577   5.389  10.397  0.7438 -3.4065  0.1102
  947MOL0     H30626  -0.515   5.474  10.255 -1.4929 -0.3292 -0.8078
  947MOL0     H30627  -0.469   5.191  10.330  1.1095 -1.3623 -0.1225
  947MOL0     H30628  -0.407   5.272  10.180  0.3442 -0.7529  0.5882
  947MOL0     H30629  -0.612   5.106  10.166  1.3413 -0.1077 -0.1786
  947MOL0     H30630  -0.712   5.239  10.221  0.6715 -2.1136  1.7450
  947MOL0     H30631  -0.705   5.203   9.982  0.3391 -1.6619  0.0655
  947MOL0     H30632  -0.529   5.235   9.971 -1.6087 -0.0757 -2.0575
  947MOL0     H30633  -0.739   5.440  10.028  1.2167  1.2889  1.1556
  947MOL0     H30634  -0.566   5.478  10.008 -0.4584  0.8594  0.9838
  947MOL0     H30635  -0.881   5.458   9.809  0.4837  0.6675 -0.1914
  947MOL0     H30636  -0.911   5.534   9.571  0.6945 -0.9481  1.8927
  947MOL0     H30637  -0.853   5.408   9.463 -0.5255  0.3175  1.9501
  947MOL0     H30638  -0.680   5.647   9.519  0.4425 -0.5812 -0.9301
  947MOL0     H30639  -0.678   5.542   9.379  1.6586  1.1872 -0.5973
  947MOL0     H30640  -0.917   5.744   9.441  1.3779  2.1882  0.0420
  947MOL0     H30641  -0.781   5.776   9.332  0.5354  0.3560  2.7399
  947MOL0     H30642  -0.956   5.699   9.199 -1.8049 -2.2289 -1.5662
  947MOL0     H30643  -0.850   5.558   9.225 -3.3651 -1.6730 -1.2002
  947MOL0     H30644  -1.066   5.518   9.064 -2.1164  2.5524  0.1627
  947MOL0     H30645  -1.360   5.444   8.919 -0.3668  1.2727  3.4551
  947MOL0     H30646  -1.248   5.301   8.898  0.2868  1.2319 -0.8673
  947MOL0     H30647  -1.185   5.455   8.874  0.0135 -0.7382 -2.4460
  947MOL0     H30648  -1.623   5.078   9.396  0.9691  0.3020 -1.1859
  947MOL0     H30649  -1.829   4.953   9.413  2.0501  0.2327  1.0343
  947MOL0     H30650  -2.045   4.708   9.191 -3.1601 -0.7482  0.6686
  947MOL0     H30651  -1.933   4.751   9.312  0.1396  0.8990  0.7336
  947MOL0     H30652  -2.119   4.856   9.435  0.9079 -3.6773  2.0732
  947MOL0     H30653  -2.217   4.851   9.287  2.2681  0.4674 -3.2823
  947MOL0     H30654  -2.203   4.594   9.314 -1.9538  1.2170 -0.2298
  947MOL0     H30655  -2.276   4.677   9.453 -2.1828 -1.1030 -2.4249
  947MOL0     H30656  -2.071   4.677   9.569  0.4613 -1.0217  0.7193
  947MOL0     H30657  -1.993   4.577   9.442  1.4380  0.8837  0.0050
  947MOL0     H30658  -2.244   4.491   9.594 -0.5188 -1.7180 -0.9491
  947MOL0     H30659  -2.167   4.399   9.484 -2.2263  2.2960 -0.2888
  947MOL0     H30660  -2.085   4.339   9.734  1.1670  0.1922  1.8991
  947MOL0     H30661  -2.060   4.508   9.754  0.5686 -0.5154  1.3747
  947MOL0     H30662  -1.843   4.405   9.742  1.9172  1.3256 -2.2539
  947MOL0     H30663  -1.868   4.513   9.613 -3.5382  2.0248  0.4735
  947MOL0     H30664  -1.908   4.324   9.450 -0.4884 -0.3076  0.5606
  947MOL0     H30665  -1.906   4.212   9.578  0.4641  0.9808  1.3121
  947MOL0     H30666  -1.947   5.108   9.029 -0.1996 -0.1303  0.8168
  947MOL0     H30667  -1.743   5.265   9.040  1.1412  1.3770  0.6827
  947MOL0     H30668  -1.348   5.274   9.377  4.2281 -1.8946  1.6288
  947MOL0     H30669  -1.172   5.388   9.458  0.5428 -1.9205  0.2023
  947MOL0     H30670  -0.029   5.807  10.521  1.4773  0.9110  0.5051
  947MOL0     H30671   0.133   5.959  10.416 -0.7623 -0.2703  0.2402
  947MOL0     H30672   0.042   6.345   9.976  0.6966  0.4415 -2.5138
  947MOL0     H30673   0.191   6.438   9.802  6.5187 -0.7767 -4.0815
  947MOL0     H30674   0.357   6.516   9.660 -2.3874 -1.3661  1.2562
  947MOL0     H30675   0.363   6.635   9.777 -1.1616 -0.2286 -1.3777
  947MOL0     H30676   0.608   6.513   9.639 -1.5051 -0.5360  0.2110
  947MOL0     H30677   0.621   6.641   9.758  0.2089 -0.5112  0.2073
  947MOL0     H30678   0.481   6.671   9.490  0.5636 -1.6750  1.2255
  947MOL0     H30679   0.505   6.797   9.611  0.7387  2.5786 -2.5312
  947MOL0     H30680   0.764   6.730   9.590  1.8758  3.8973  0.2019
  947MOL0     H30681   0.693   6.856   9.497 -0.9951 -0.3749  0.7842
  947MOL0     H30682   0.786   6.548   9.197  2.7907  0.8743 -0.4181
  947MOL0     H30683   0.525   6.358  10.035  0.1684 -1.0475 -3.0881
  947MOL0     H30684   0.506   6.299  10.257  0.9210 -1.1830 -1.9159
  947MOL0     H30685   0.343   6.243  10.328 -2.4655 -0.6882 -1.8024
  947MOL0     H30686   0.438   6.131  10.232  0.8062  0.1463 -2.2224
  948MOL0     O30687   3.910   9.892   4.213 -0.1267  0.3033  0.4349
  948MOL0     C30688   3.853   9.790   4.173 -0.5041  0.1938  1.5858
  948MOL0     O30689   3.919   9.671   4.152  0.0746 -0.4318  0.8893
  948MOL0     C30690   4.049   9.643   4.204 -0.3835 -1.1442  0.4906
  948MOL0     C30691   4.122   9.725   4.294 -0.2386  0.3006 -0.6137
  948MOL0     C30692   4.246   9.684   4.346 -0.1009 -0.2050 -0.3019
  948MOL0     C30693   4.297   9.564   4.308 -0.1684  0.3144  0.0031
  948MOL0     O30694   4.410   9.502   4.361  0.3155 -0.0049 -0.1885
  948MOL0     C30695   4.512   9.590   4.410 -0.1573 -0.6158 -0.0521
  948MOL0     C30696   4.635   9.506   4.436  0.3469 -0.0614 -0.1674
  948MOL0     C30697   4.766   9.593   4.428 -0.0733  0.9071  0.2698
  948MOL0     C30698   4.800   9.675   4.301 -0.2491 -0.2345  1.1197
  948MOL0     C30699   4.954   9.701   4.286 -0.5544 -0.7318 -0.3927
  948MOL0     C30700   5.000   9.781   4.408 -0.0741  0.0218 -0.6129
  948MOL0     C30701   5.134   9.852   4.378  1.3900 -0.1850  0.0299
  948MOL0     C30702   5.145   9.972   4.479  0.3715  0.4291 -0.5053
  948MOL0     N30703   5.064  10.088   4.433 -0.2769 -0.0416 -0.6478
  948MOL0     C30704   5.064  10.151   4.310 -1.3036 -0.2804  0.2622
  948MOL0     C30705   4.951  10.232   4.315  0.5242 -0.9703 -0.1465
  948MOL0     C30706   4.917  10.336   4.211  0.8872  0.8568 -1.0493
  948MOL0     C30707   4.953  10.479   4.245  0.4888  0.6808  1.1363
  948MOL0     C30708   5.096  10.511   4.254  0.4892 -0.2499  0.0887
  948MOL0     C30709   5.111  10.640   4.324 -0.4594 -0.6131 -0.3198
  948MOL0     O30710   5.031  10.748   4.276 -0.6993  0.0765  0.2522
  948MOL0     C30711   4.978  10.834   4.366 -1.2683 -0.2939 -0.0954
  948MOL0     C30712   4.881  10.915   4.311  0.0313  0.6095 -1.5959
  948MOL0     C30713   4.804  10.996   4.400  0.7460 -0.5245 -0.6770
  948MOL0     C30714   4.697  11.081   4.331  0.0390 -0.1541 -0.7398
  948MOL0     C30715   4.828  11.017   4.541  0.1856  0.4797 -0.0364
  948MOL0     C30716   4.762  11.111   4.643 -0.1562 -0.4956  0.0429
  948MOL0     O30717   4.833  11.116   4.763 -0.6275 -0.1308  0.2544
  948MOL0     C30718   4.826  11.220   4.860 -0.4030  0.0371  0.0412
  948MOL0     C30719   4.866  11.183   4.989  0.7669  0.5822  0.1837
  948MOL0     C30720   4.851  11.266   5.098 -0.0636 -0.7412  0.0901
  948MOL0     C30721   4.815  11.404   5.076  0.5519 -0.3555  0.4309
  948MOL0     O30722   4.800  11.499   5.168  0.1926  0.1201 -0.0282
  948MOL0     C30723   4.805  11.457   5.308 -0.6211 -1.0136 -0.0871
  948MOL0     C30724   4.788  11.587   5.393  0.8766 -0.1163 -0.8038
  948MOL0     C30725   4.660  11.649   5.357 -1.2197 -0.5603  0.0779
  948MOL0     C30726   4.666  11.804   5.371 -0.1671 -0.1943  0.5905
  948MOL0     C30727   4.525  11.854   5.345  0.4699 -0.6500 -0.2432
  948MOL0     C30728   4.489  11.850   5.191  0.5258 -0.0453  0.3233
  948MOL0     C30729   4.368  11.935   5.160  0.3517 -0.3946 -0.1935
  948MOL0     C30730   4.310  11.903   5.019 -0.1086 -0.4192 -0.4623
  948MOL0    Cl30731   4.132  11.939   5.013  0.1951 -0.2744 -0.0396
  948MOL0     C30732   4.782  11.441   4.945 -1.3776 -1.0136  0.2974
  948MOL0     C30733   4.784  11.353   4.838  0.9373  0.1961 -0.2293
  948MOL0     O30734   4.679  11.193   4.611 -0.0342  0.9294 -0.1589
  948MOL0     C30735   4.921  10.924   4.592  0.5934  0.0471 -0.0288
  948MOL0     C30736   4.995  10.838   4.510 -0.2295  1.1326 -0.3033
  948MOL0     N30737   4.889  10.219   4.439 -0.5068  0.1504  0.0165
  948MOL0     N30738   4.955  10.130   4.506  0.7568 -0.0914  0.8060
  948MOL0     C30739   4.219   9.481   4.234 -1.1997  0.7478  0.1643
  948MOL0     C30740   4.098   9.523   4.170 -1.5156 -0.2425 -1.0727
  948MOL0     C30741   3.717   9.801   4.108  0.1280  0.5879 -0.3082
  948MOL0     C30742   3.669   9.682   4.048  0.4901 -0.0226  0.6689
  948MOL0     C30743   3.539   9.686   3.993  0.4561  0.1651 -0.7482
  948MOL0     C30744   3.456   9.798   3.996  0.4072 -0.4733  0.2378
  948MOL0     O30745   3.353   9.797   3.905  0.1145 -0.1349  0.0865
  948MOL0     C30746   3.272   9.908   3.890 -0.5790  0.2973  0.7146
  948MOL0     C30747   3.137   9.870   3.951 -0.3193  0.5398  0.1529
  948MOL0     C30748   3.057   9.769   3.879  0.5540  0.9937 -0.5914
  948MOL0     C30749   2.967   9.690   3.976 -0.6654  0.6865 -0.1032
  948MOL0     C30750   2.893   9.608   3.890  1.1594  0.3269 -0.6916
  948MOL0     C30751   2.839   9.537   3.817  0.5449  0.4489  0.1366
  948MOL0     C30752   3.502   9.906   4.068 -0.2123 -0.0876 -0.5414
  948MOL0     C30753   3.634   9.920   4.116 -0.0666  0.5296 -0.0048
  948MOL0     C30754   3.675  10.058   4.170 -0.4471 -0.2856 -0.1855
  948MOL0     H30755   4.083   9.819   4.333 -1.3261 -0.4721  0.2131
  948MOL0     H30756   4.296   9.756   4.409 -3.4373  0.9415  1.2579
  948MOL0     H30757   4.487   9.632   4.507 -0.9525 -3.7259  1.2059
  948MOL0     H30758   4.519   9.677   4.343  0.4392  1.0400  2.0685
  948MOL0     H30759   4.629   9.453   4.532 -1.0272  0.5932  0.1311
  948MOL0     H30760   4.636   9.437   4.351  2.6684  0.6171 -0.7646
  948MOL0     H30761   4.766   9.663   4.512  1.7190  1.1377  0.1271
  948MOL0     H30762   4.855   9.534   4.453  2.0844  4.4231  1.6257
  948MOL0     H30763   4.786   9.603   4.219  1.0212 -0.0022  0.6761
  948MOL0     H30764   4.740   9.765   4.291 -0.3622 -0.5389 -1.8294
  948MOL0     H30765   4.980   9.754   4.194 -3.6944  2.0990  0.1765
  948MOL0     H30766   5.017   9.612   4.271  0.5599  0.1854 -1.3672
  948MOL0     H30767   4.933   9.861   4.439  3.1801  1.6122  3.1690
  948MOL0     H30768   5.008   9.721   4.499 -3.5203  1.5639  0.8572
  948MOL0     H30769   5.137   9.899   4.279  1.1931  2.9452  1.4002
  948MOL0     H30770   5.215   9.779   4.382  0.9396 -1.0095 -3.1987
  948MOL0     H30771   5.123   9.931   4.578 -0.8591 -1.1046 -1.3507
  948MOL0     H30772   5.249  10.006   4.478 -0.7004  5.0655  4.1664
  948MOL0     H30773   5.133  10.124   4.231 -1.7546 -3.1818  0.7377
  948MOL0     H30774   4.812  10.330   4.179 -0.4021  0.5614  2.7225
  948MOL0     H30775   4.973  10.302   4.124 -1.1188 -1.8909 -1.4007
  948MOL0     H30776   4.902  10.541   4.172  1.6096 -0.1695 -0.4348
  948MOL0     H30777   4.901  10.492   4.340 -1.1817  0.8507  0.2214
  948MOL0     H30778   5.143  10.434   4.317 -1.9033 -1.4255  0.5661
  948MOL0     H30779   5.133  10.516   4.151 -0.4882 -0.1261 -0.2657
  948MOL0     H30780   5.097  10.613   4.429 -0.2985 -0.8367 -0.3551
  948MOL0     H30781   5.215  10.673   4.312 -0.3576  0.5169  2.8691
  948MOL0     H30782   4.853  10.916   4.206 -1.1160  1.5264 -1.3020
  948MOL0     H30783   4.721  11.185   4.353  0.7914  0.2121 -3.0102
  948MOL0     H30784   4.599  11.056   4.372 -1.0757 -0.5596 -3.4244
  948MOL0     H30785   4.696  11.064   4.223  1.8056 -1.8641 -0.5480
  948MOL0     H30786   4.892  11.078   5.000 -1.0580  0.2633  2.1521
  948MOL0     H30787   4.870  11.217   5.193 -1.4201 -1.3752  0.0675
  948MOL0     H30788   4.725  11.392   5.344 -0.0295 -0.5829  2.1386
  948MOL0     H30789   4.897  11.405   5.338 -0.5486 -1.0389 -0.3502
  948MOL0     H30790   4.801  11.557   5.497  0.3601  0.6020 -0.5279
  948MOL0     H30791   4.876  11.652   5.387  0.0889  0.8815 -2.3614
  948MOL0     H30792   4.576  11.609   5.415 -0.1053  0.6697  2.7231
  948MOL0     H30793   4.631  11.631   5.253 -1.4927 -1.5294  0.3095
  948MOL0     H30794   4.736  11.831   5.290 -0.2481 -2.1503 -0.1895
  948MOL0     H30795   4.708  11.832   5.468  2.4450  2.8389 -1.1699
  948MOL0     H30796   4.455  11.803   5.412  0.1907  0.2098  0.1306
  948MOL0     H30797   4.516  11.958   5.378  2.5703 -0.2514 -0.7418
  948MOL0     H30798   4.468  11.744   5.174 -0.0281 -0.0362  0.9042
  948MOL0     H30799   4.574  11.891   5.136  1.5878 -1.3991  0.9011
  948MOL0     H30800   4.400  12.039   5.166 -1.6236  0.3898 -1.9239
  948MOL0     H30801   4.287  11.915   5.231  1.2945  0.9121  1.3148
  948MOL0     H30802   4.314  11.794   5.011  2.8508 -0.5149  0.7752
  948MOL0     H30803   4.360  11.954   4.935 -1.4735 -1.6853 -2.0966
  948MOL0     H30804   4.767  11.548   4.932 -2.4552 -1.3343 -1.4083
  948MOL0     H30805   4.760  11.392   4.740  1.7167 -1.3036 -1.0585
  948MOL0     H30806   4.936  10.902   4.698  1.3978 -2.6547 -0.6020
  948MOL0     H30807   5.066  10.780   4.568 -1.4842  2.1206  2.4161
  948MOL0     H30808   4.250   9.381   4.208 -0.1233  1.3786 -1.0573
  948MOL0     H30809   4.040   9.469   4.095 -0.1417 -3.9572  0.2856
  948MOL0     H30810   3.728   9.591   4.044 -0.1326 -0.5672  2.5953
  948MOL0     H30811   3.492   9.607   3.935 -1.2225 -0.5270  1.4228
  948MOL0     H30812   3.316  10.005   3.912 -0.6499  0.5944 -0.4198
  948MOL0     H30813   3.257   9.915   3.782  1.8952  2.5124  0.4252
  948MOL0     H30814   3.083   9.965   3.960 -1.2786 -0.0724  1.1001
  948MOL0     H30815   3.167   9.832   4.049  1.5301  0.5687 -0.3699
  948MOL0     H30816   2.999   9.804   3.793  0.2734 -3.0678 -2.3051
  948MOL0     H30817   3.127   9.698   3.832  1.4640 -0.5018  2.7196
  948MOL0     H30818   2.895   9.748   4.034  1.1105 -0.1143  3.1255
  948MOL0     H30819   3.028   9.634   4.047  0.9331  1.9854 -0.3912
  948MOL0     H30820   2.787   9.470   3.751  0.3294 -0.0437  0.8000
  948MOL0     H30821   3.431   9.987   4.080  0.6547  0.8610 -1.5400
  948MOL0     H30822   3.594  10.131   4.174 -1.1444 -1.0871  1.0658
  948MOL0     H30823   3.737  10.065   4.260  0.3907 -0.9767 -0.7013
  948MOL0     H30824   3.744  10.102   4.098 -0.5672 -0.2253 -0.2645
  949MOL0     O30825   1.778   0.448   7.282 -0.1831  0.6080 -0.3554
  949MOL0     C30826   1.712   0.489   7.183 -0.0456 -0.0272  0.0639
  949MOL0     O30827   1.713   0.442   7.062  0.8779  0.2306 -0.4322
  949MOL0     C30828   1.753   0.314   7.037  0.3405  0.8353 -0.0981
  949MOL0     C30829   1.721   0.215   7.127  0.1197  0.1231 -0.8145
  949MOL0     C30830   1.772   0.084   7.115 -0.4065  0.2329  0.3099
  949MOL0     C30831   1.871   0.059   7.017 -0.9023 -0.4520  0.7595
  949MOL0     O30832   1.933  -0.059   7.014 -0.0100  0.4051 -0.1629
  949MOL0     C30833   1.947  -0.124   6.885 -0.9905  0.4196  0.7871
  949MOL0     C30834   1.959  -0.278   6.899  0.0420 -0.6323  0.2098
  949MOL0     C30835   2.093  -0.332   6.958  0.0183 -0.0971  0.9024
  949MOL0     C30836   2.069  -0.465   7.030  0.3680  0.0984 -0.5237
  949MOL0     C30837   2.181  -0.514   7.116  0.3596  1.2140  0.1577
  949MOL0     C30838   2.314  -0.514   7.034  0.6760  0.1206  0.2225
  949MOL0     C30839   2.412  -0.602   7.107 -0.0387  0.0511 -0.4417
  949MOL0     C30840   2.391  -0.754   7.095 -0.1645  0.0564 -1.2501
  949MOL0     N30841   2.401  -0.811   6.963  1.2328  0.1596  0.5896
  949MOL0     C30842   2.469  -0.754   6.861  1.1645 -0.2432 -0.0151
  949MOL0     C30843   2.466  -0.845   6.765 -0.2401  0.8087  0.2673
  949MOL0     C30844   2.513  -0.815   6.627 -0.4643  0.0490  0.0145
  949MOL0     C30845   2.408  -0.833   6.528 -0.5194  0.3400 -0.4305
  949MOL0     C30846   2.463  -0.829   6.383  0.8322  0.7277 -0.8577
  949MOL0     C30847   2.477  -0.693   6.331 -0.3066 -0.1731  0.4518
  949MOL0     O30848   2.577  -0.707   6.220  0.5549 -0.6275  0.2532
  949MOL0     C30849   2.532  -0.720   6.087 -0.3382  0.2875 -0.5896
  949MOL0     C30850   2.401  -0.716   6.048 -0.6345 -0.3212  0.7274
  949MOL0     C30851   2.366  -0.738   5.917  0.5051 -0.2093 -0.1002
  949MOL0     C30852   2.214  -0.739   5.884 -0.7547  0.2234  0.3920
  949MOL0     C30853   2.463  -0.743   5.810 -0.3911  0.1847  0.5592
  949MOL0     C30854   2.426  -0.764   5.661  0.5386 -0.1408  0.5531
  949MOL0     O30855   2.536  -0.778   5.572  0.3275 -0.0980 -0.2330
  949MOL0     C30856   2.514  -0.813   5.443 -0.5880  0.5112  0.0984
  949MOL0     C30857   2.473  -0.721   5.351  0.3926  0.0864 -1.2813
  949MOL0     C30858   2.464  -0.752   5.219 -0.4317  0.4946  0.2055
  949MOL0     C30859   2.481  -0.882   5.172 -0.5731 -0.3594  0.6975
  949MOL0     O30860   2.479  -0.906   5.029  0.3816 -0.6184 -0.8124
  949MOL0     C30861   2.551  -1.022   4.976 -0.0697  0.0355  0.5333
  949MOL0     C30862   2.451  -1.131   4.961  0.5745  0.4124 -0.6320
  949MOL0     C30863   2.507  -1.246   4.884  0.5304 -0.0711  0.4108
  949MOL0     C30864   2.390  -1.339   4.874  0.1385 -0.0932  0.3007
  949MOL0     C30865   2.395  -1.432   4.759 -0.7225  0.1419  0.0539
  949MOL0     C30866   2.512  -1.542   4.763  0.3569  0.1536  1.2191
  949MOL0     C30867   2.502  -1.637   4.642 -0.5547 -0.2014  0.0132
  949MOL0     C30868   2.616  -1.738   4.652  0.2629 -0.3358  0.0663
  949MOL0    Cl30869   2.770  -1.649   4.636  0.4874 -0.0134 -0.0403
  949MOL0     C30870   2.515  -0.975   5.270 -0.3380 -0.0696  0.2027
  949MOL0     C30871   2.543  -0.937   5.401 -0.5300  0.1539  0.9870
  949MOL0     O30872   2.312  -0.773   5.622 -0.2028  0.3423 -0.5215
  949MOL0     C30873   2.601  -0.741   5.857  0.0900 -0.0949 -0.0912
  949MOL0     C30874   2.636  -0.731   5.995  0.0093  0.2328  0.4202
  949MOL0     N30875   2.417  -0.962   6.819  0.0896 -0.4532  0.7759
  949MOL0     N30876   2.389  -0.942   6.937 -0.4419  0.1427  0.1167
  949MOL0     C30877   1.887   0.154   6.914 -0.0670  0.6030  0.6672
  949MOL0     C30878   1.824   0.278   6.925  0.0432  0.2080  0.2907
  949MOL0     C30879   1.623   0.609   7.195  0.0147  0.2754 -0.0797
  949MOL0     C30880   1.504   0.609   7.123 -0.4321 -1.1986 -0.4262
  949MOL0     C30881   1.429   0.719   7.123  0.7281 -0.0495 -0.1259
  949MOL0     C30882   1.451   0.827   7.211  0.5180 -0.1285  0.0793
  949MOL0     O30883   1.369   0.932   7.220 -0.0716  0.2251 -0.1500
  949MOL0     C30884   1.238   0.944   7.155  0.0970  0.9522  0.0970
  949MOL0     C30885   1.241   1.026   7.031  0.3401  0.3311 -0.6995
  949MOL0     C30886   1.093   1.039   6.981  0.2272  0.0635  0.2053
  949MOL0     C30887   1.093   1.117   6.851  0.0577  0.6616 -0.1487
  949MOL0     C30888   0.957   1.158   6.823  0.2545 -0.2106 -0.1795
  949MOL0     C30889   0.852   1.221   6.806  0.8831 -1.0480  0.4696
  949MOL0     C30890   1.564   0.822   7.290 -0.2203 -0.3400  0.7941
  949MOL0     C30891   1.656   0.715   7.277  0.2485  0.0148  0.5473
  949MOL0     C30892   1.796   0.740   7.334 -0.3355  0.0458  0.1764
  949MOL0     H30893   1.666   0.246   7.215  2.1507  0.4500  0.4076
  949MOL0     H30894   1.759   0.002   7.186 -0.6829  0.0618  0.0640
  949MOL0     H30895   2.034  -0.081   6.834 -2.1078  2.0680  0.1592
  949MOL0     H30896   1.854  -0.105   6.831 -0.0307  0.3820 -0.9440
  949MOL0     H30897   1.871  -0.319   6.951  0.3677 -1.0860  0.4125
  949MOL0     H30898   1.944  -0.328   6.803 -3.2775  0.2578  0.1333
  949MOL0     H30899   2.163  -0.339   6.874 -1.6552  0.0898 -0.5763
  949MOL0     H30900   2.129  -0.257   7.029  1.5983  1.4402 -1.3571
  949MOL0     H30901   1.984  -0.465   7.098  0.8120 -1.9742  0.0911
  949MOL0     H30902   2.036  -0.541   6.959  0.1202 -1.7894  1.5116
  949MOL0     H30903   2.149  -0.608   7.162  0.3005  1.4874  0.6740
  949MOL0     H30904   2.205  -0.451   7.202 -1.9990 -0.4608  2.1750
  949MOL0     H30905   2.300  -0.551   6.932  2.2624 -1.3061  0.4785
  949MOL0     H30906   2.348  -0.410   7.035  1.1812 -0.0092  2.3957
  949MOL0     H30907   2.445  -0.575   7.208 -0.1480 -2.6247  0.3875
  949MOL0     H30908   2.506  -0.588   7.051 -2.1274  0.2724 -4.2542
  949MOL0     H30909   2.465  -0.807   7.157 -0.2560 -0.7935 -1.8450
  949MOL0     H30910   2.288  -0.783   7.119 -0.1844  0.3431 -0.9779
  949MOL0     H30911   2.504  -0.651   6.854  0.8222 -0.1928 -1.4035
  949MOL0     H30912   2.592  -0.886   6.601 -0.8444 -0.0882 -0.8077
  949MOL0     H30913   2.546  -0.710   6.628  1.5998 -0.0904 -6.2087
  949MOL0     H30914   2.346  -0.921   6.544 -3.0838  2.1555  0.3389
  949MOL0     H30915   2.335  -0.751   6.528 -0.0407  0.8002 -1.7294
  949MOL0     H30916   2.567  -0.862   6.375  1.0810  1.4502 -0.7031
  949MOL0     H30917   2.406  -0.894   6.316  1.1387 -2.1299  1.4492
  949MOL0     H30918   2.377  -0.653   6.315 -1.2970 -0.8121  4.1989
  949MOL0     H30919   2.523  -0.633   6.410  1.0067 -2.3366  1.4280
  949MOL0     H30920   2.323  -0.704   6.122 -1.2086 -2.1059  0.4678
  949MOL0     H30921   2.181  -0.822   5.820 -3.5916 -0.1483  2.1552
  949MOL0     H30922   2.182  -0.645   5.839  1.0999  0.4876 -0.4608
  949MOL0     H30923   2.154  -0.768   5.971 -0.7093 -2.1330 -0.2803
  949MOL0     H30924   2.446  -0.620   5.382 -2.3055 -1.6391  2.8601
  949MOL0     H30925   2.449  -0.682   5.138  1.7125 -0.4077 -1.0452
  949MOL0     H30926   2.580  -1.002   4.872 -0.5170  2.3496  0.8120
  949MOL0     H30927   2.632  -1.052   5.043 -0.5529 -1.3003  0.5619
  949MOL0     H30928   2.414  -1.163   5.059 -0.0816  0.9792 -0.6857
  949MOL0     H30929   2.363  -1.105   4.901  1.6371 -1.9962 -3.5030
  949MOL0     H30930   2.588  -1.291   4.941  0.7808 -0.6363 -0.3835
  949MOL0     H30931   2.543  -1.216   4.786  0.8206  0.4436  0.6701
  949MOL0     H30932   2.296  -1.284   4.860 -0.5688 -1.4891 -0.6904
  949MOL0     H30933   2.387  -1.388   4.972  1.1788 -2.0645 -0.6075
  949MOL0     H30934   2.302  -1.488   4.751  0.1876 -1.3107 -0.7574
  949MOL0     H30935   2.404  -1.375   4.666  0.5306 -1.9477 -1.1622
  949MOL0     H30936   2.502  -1.602   4.854  3.6135 -0.6716  1.1404
  949MOL0     H30937   2.608  -1.490   4.762  1.1946 -1.3357 -0.4417
  949MOL0     H30938   2.514  -1.574   4.553  0.0110 -2.4825 -1.6357
  949MOL0     H30939   2.405  -1.687   4.634 -1.2854  1.0060  0.9676
  949MOL0     H30940   2.597  -1.808   4.569  0.1088 -0.7993  0.4908
  949MOL0     H30941   2.626  -1.802   4.740 -1.4186 -3.0463 -1.5184
  949MOL0     H30942   2.538  -1.080   5.251  0.7725  0.8196 -4.7206
  949MOL0     H30943   2.581  -1.021   5.459 -0.4752 -1.8331 -1.7588
  949MOL0     H30944   2.679  -0.733   5.782 -0.8486  1.9866 -0.9394
  949MOL0     H30945   2.738  -0.723   6.030  0.5935 -0.1177 -1.1126
  949MOL0     H30946   1.951   0.136   6.828 -0.0282  0.7394  0.6675
  949MOL0     H30947   1.832   0.356   6.850 -2.6029  1.2630  1.0016
  949MOL0     H30948   1.469   0.521   7.070 -0.9811 -1.0744 -0.2777
  949MOL0     H30949   1.339   0.706   7.062  1.2296  1.0715 -1.1398
  949MOL0     H30950   1.202   0.846   7.122 -0.1119  0.2213  2.3281
  949MOL0     H30951   1.161   0.988   7.219  0.7401 -1.5172  2.7596
  949MOL0     H30952   1.297   0.968   6.957 -1.5580  1.0321 -2.8142
  949MOL0     H30953   1.291   1.123   7.035  0.5998  0.1587  0.7879
  949MOL0     H30954   1.052   0.939   6.963 -2.8134  1.4031 -1.1550
  949MOL0     H30955   1.034   1.076   7.065 -0.1464 -0.4523  0.1746
  949MOL0     H30956   1.128   1.045   6.777 -1.3449 -0.6664  0.4143
  949MOL0     H30957   1.151   1.210   6.856 -1.2445  1.5031 -0.0540
  949MOL0     H30958   0.763   1.276   6.785  2.1666  0.1313 -2.5064
  949MOL0     H30959   1.594   0.911   7.344 -2.7137 -0.1413  1.9927
  949MOL0     H30960   1.827   0.839   7.298 -0.6628 -0.2570 -0.9771
  949MOL0     H30961   1.787   0.749   7.443 -0.1174  1.0861  0.1237
  949MOL0     H30962   1.879   0.676   7.305  0.2116  0.2630  1.2083
  950MOL0     O30963  10.822   8.711   0.743 -0.1416 -0.4171 -0.2206
  950MOL0     C30964  10.903   8.617   0.758  0.1775 -0.7779  1.4220
  950MOL0     O30965  10.961   8.583   0.880 -0.2267 -0.2035  0.7529
  950MOL0     C30966  10.916   8.641   0.998  0.4356  0.3879 -0.6062
  950MOL0     C30967  10.779   8.660   1.046  0.2875 -0.8835  0.7513
  950MOL0     C30968  10.744   8.716   1.165 -0.8200  0.1756 -0.7957
  950MOL0     C30969  10.852   8.755   1.248 -0.9060 -0.8747  0.1283
  950MOL0     O30970  10.838   8.841   1.361  0.1894  0.6438 -0.0446
  950MOL0     C30971  10.717   8.922   1.371  0.5944 -0.2960  0.2764
  950MOL0     C30972  10.747   9.029   1.480 -0.9225  0.8576  0.2235
  950MOL0     C30973  10.761   8.964   1.611  0.1304  0.0522  0.0263
  950MOL0     C30974  10.784   9.062   1.721  0.1722  0.9585 -0.0896
  950MOL0     C30975  10.868   9.006   1.843  0.7731 -0.7626  0.1075
  950MOL0     C30976  10.855   9.088   1.971  0.5531  0.5331  0.7880
  950MOL0     C30977  10.710   9.118   1.999 -0.2959 -0.7552  0.8674
  950MOL0     C30978  10.676   9.119   2.151  0.9145 -0.9076  0.7719
  950MOL0     N30979  10.529   9.133   2.169 -0.4079  0.3276 -0.4107
  950MOL0     C30980  10.457   9.186   2.274  0.0918  0.0977  0.2580
  950MOL0     C30981  10.328   9.166   2.247  0.2227  0.0137 -0.3348
  950MOL0     C30982  10.214   9.215   2.329  0.5632 -0.1900 -0.9848
  950MOL0     C30983  10.100   9.115   2.324 -1.3228  0.0091  0.2779
  950MOL0     C30984  10.152   8.971   2.365  0.5441  0.5551  0.7275
  950MOL0     C30985  10.230   8.948   2.492 -0.2452  0.1298  0.1404
  950MOL0     O30986  10.157   8.998   2.606 -0.4583  0.2929  0.6088
  950MOL0     C30987  10.233   9.018   2.723  1.2252 -0.5699 -0.2277
  950MOL0     C30988  10.360   8.970   2.756  1.0994 -0.0762  0.5512
  950MOL0     C30989  10.426   9.017   2.872 -1.2219  0.9473  0.0981
  950MOL0     C30990  10.564   8.980   2.895 -0.3731  0.0159  0.1604
  950MOL0     C30991  10.359   9.090   2.974 -0.4493 -0.3615 -0.0607
  950MOL0     C30992  10.420   9.127   3.100  0.0142  0.4575 -1.0391
  950MOL0     O30993  10.426   9.259   3.132  0.3315  0.3833  0.0648
  950MOL0     C30994  10.476   9.295   3.252  0.1732 -0.4871 -0.8422
  950MOL0     C30995  10.389   9.344   3.349 -0.0162 -0.2770 -1.2009
  950MOL0     C30996  10.446   9.398   3.469 -0.3751 -0.3020 -0.2755
  950MOL0     C30997  10.581   9.396   3.496  0.9538 -0.0375 -0.2224
  950MOL0     O30998  10.630   9.464   3.603 -0.4645 -1.1429  0.0747
  950MOL0     C30999  10.728   9.400   3.692 -0.2144  0.9776  0.2508
  950MOL0     C31000  10.704   9.439   3.846 -1.4787 -0.2821  0.0549
  950MOL0     C31001  10.735   9.589   3.886 -0.4933  0.4537  0.2791
  950MOL0     C31002  10.638   9.693   3.829 -1.0066  0.0215  0.2666
  950MOL0     C31003  10.686   9.834   3.851  0.1398 -0.4717  0.6357
  950MOL0     C31004  10.602   9.943   3.784 -0.0368 -0.2478 -0.0355
  950MOL0     C31005  10.596  10.065   3.878 -0.6992 -0.1705 -0.4378
  950MOL0     C31006  10.455  10.133   3.858 -0.2677  0.8229  0.0964
  950MOL0    Cl31007  10.465  10.228   3.701  0.3057 -0.1213 -0.0789
  950MOL0     C31008  10.662   9.331   3.410 -0.3461 -0.1143  0.5673
  950MOL0     C31009  10.613   9.293   3.282 -0.0777  0.6379 -0.6409
  950MOL0     O31010  10.455   9.037   3.173 -0.2844  0.5136  0.0619
  950MOL0     C31011  10.223   9.123   2.942  0.1847 -0.8397  0.3603
  950MOL0     C31012  10.164   9.091   2.820  0.6427 -0.1630 -0.3965
  950MOL0     N31013  10.322   9.105   2.116 -0.2390  0.2812  0.7294
  950MOL0     N31014  10.445   9.073   2.081 -0.2951 -0.0921 -0.1039
  950MOL0     C31015  10.987   8.732   1.211  0.0624 -0.7883  0.0468
  950MOL0     C31016  11.018   8.677   1.089 -0.4872  0.5279 -0.1295
  950MOL0     C31017  10.933   8.525   0.645  0.0225  1.1405 -0.0500
  950MOL0     C31018  11.071   8.491   0.619 -1.1314 -0.8489 -0.9846
  950MOL0     C31019  11.105   8.398   0.524 -1.4245  0.2175 -0.5686
  950MOL0     C31020  11.007   8.352   0.437 -0.1357  1.0659 -0.3569
  950MOL0     O31021  11.032   8.284   0.315  0.0363  0.4425 -0.0466
  950MOL0     C31022  11.140   8.189   0.307  0.1265 -0.4529  0.2203
  950MOL0     C31023  11.133   8.126   0.170 -0.0723  0.0925 -0.4848
  950MOL0     C31024  11.199   8.205   0.064 -0.1526  0.9198  0.7212
  950MOL0     C31025  11.347   8.245   0.085 -0.2907  0.4810  0.0451
  950MOL0     C31026  11.408   8.283  -0.042 -0.0589 -0.5443  0.0455
  950MOL0     C31027  11.462   8.306  -0.156  2.0042 -0.5580  0.4246
  950MOL0     C31028  10.874   8.386   0.456 -0.5471  0.1159  1.2216
  950MOL0     C31029  10.836   8.477   0.555  0.0506 -0.8809 -0.1046
  950MOL0     C31030  10.696   8.518   0.550 -1.1804 -0.6704 -0.2101
  950MOL0     H31031  10.693   8.640   0.982 -1.0979  1.5718  1.7279
  950MOL0     H31032  10.639   8.721   1.191 -0.6866  0.0986 -0.2362
  950MOL0     H31033  10.632   8.864   1.409  1.8459 -3.2607 -1.0810
  950MOL0     H31034  10.687   8.971   1.278 -0.5703  1.1194  1.3484
  950MOL0     H31035  10.839   9.083   1.457 -1.6422  1.7946 -0.5616
  950MOL0     H31036  10.666   9.103   1.484  0.5524  2.6398 -1.0068
  950MOL0     H31037  10.673   8.907   1.639 -1.6604  3.1345  1.2445
  950MOL0     H31038  10.837   8.885   1.614 -1.3838 -1.5422 -1.3507
  950MOL0     H31039  10.824   9.159   1.690  0.1079  1.3823  1.0732
  950MOL0     H31040  10.687   9.096   1.761 -0.0408  0.1399  0.1019
  950MOL0     H31041  10.972   8.983   1.817  0.7099  1.3357 -2.3706
  950MOL0     H31042  10.829   8.905   1.861  0.2457 -0.8998 -1.5845
  950MOL0     H31043  10.884   9.012   2.044 -0.0597  0.0807  0.5730
  950MOL0     H31044  10.929   9.168   1.969  1.4580 -0.2779 -1.1118
  950MOL0     H31045  10.653   9.031   1.963  2.2853 -1.0949 -2.9663
  950MOL0     H31046  10.692   9.209   1.942 -1.4115 -2.0046 -0.8819
  950MOL0     H31047  10.701   9.022   2.194  0.4079 -0.0517  3.1959
  950MOL0     H31048  10.726   9.195   2.213 -1.6905 -0.3736  2.3648
  950MOL0     H31049  10.476   9.237   2.368 -0.9014 -0.1961  0.6351
  950MOL0     H31050  10.178   9.316   2.309  0.8471  0.5172  1.6737
  950MOL0     H31051  10.254   9.223   2.430 -0.9420  3.1120 -0.5240
  950MOL0     H31052  10.027   9.149   2.399  0.4827  2.5694  1.0196
  950MOL0     H31053  10.057   9.112   2.223  1.0980 -0.1298 -0.7960
  950MOL0     H31054  10.065   8.905   2.366  0.6307  0.4348  0.2536
  950MOL0     H31055  10.228   8.941   2.292  1.2511  1.1191  1.2232
  950MOL0     H31056  10.254   8.842   2.501  1.9812  0.5855  0.1433
  950MOL0     H31057  10.330   8.991   2.485 -0.4389  0.6230  0.3237
  950MOL0     H31058  10.405   8.910   2.678  4.3906  2.0823  0.5955
  950MOL0     H31059  10.567   8.910   2.979 -0.5868 -0.1812  0.0036
  950MOL0     H31060  10.611   9.077   2.917 -3.1717  1.4134  0.4131
  950MOL0     H31061  10.598   8.921   2.810 -0.1975 -1.2804  1.0996
  950MOL0     H31062  10.281   9.340   3.340  0.0185 -1.0017 -1.3682
  950MOL0     H31063  10.377   9.443   3.540  0.1937 -0.5256  0.4311
  950MOL0     H31064  10.702   9.294   3.685 -1.0225  1.1438  0.5858
  950MOL0     H31065  10.830   9.420   3.658 -0.2415  1.4898  0.4478
  950MOL0     H31066  10.600   9.421   3.873 -1.2366  0.6295  1.7400
  950MOL0     H31067  10.772   9.383   3.911 -0.9820  1.0211  0.6979
  950MOL0     H31068  10.830   9.613   3.837  0.1455 -3.0980 -0.4680
  950MOL0     H31069  10.740   9.599   3.995 -0.5688 -0.8968  0.4190
  950MOL0     H31070  10.548   9.678   3.889 -1.3210 -1.7661 -0.6113
  950MOL0     H31071  10.611   9.678   3.724 -0.0870  1.7019 -0.2546
  950MOL0     H31072  10.695   9.845   3.960 -1.6097  1.6096  0.6202
  950MOL0     H31073  10.788   9.846   3.813  0.0247  2.9544  1.1295
  950MOL0     H31074  10.501   9.902   3.778 -0.7387  0.9726  2.1231
  950MOL0     H31075  10.648   9.963   3.687  0.1636 -1.5560 -0.2209
  950MOL0     H31076  10.676  10.138   3.863 -0.2991 -0.6002 -0.3927
  950MOL0     H31077  10.607  10.037   3.983 -0.4561 -0.8376 -0.6360
  950MOL0     H31078  10.426  10.202   3.938 -2.7560  1.4530 -1.2771
  950MOL0     H31079  10.377  10.057   3.857  0.4334  0.0876  0.1226
  950MOL0     H31080  10.770   9.319   3.420  0.3809  3.2636 -1.5389
  950MOL0     H31081  10.675   9.261   3.199  1.2211 -3.0021  1.4840
  950MOL0     H31082  10.171   9.165   3.027  0.5004 -1.0569  0.6637
  950MOL0     H31083  10.062   9.123   2.800  0.0487 -1.2463  0.7750
  950MOL0     H31084  11.061   8.771   1.280 -0.9500  1.1960  0.0804
  950MOL0     H31085  11.122   8.672   1.056 -1.1993  0.9740 -2.6457
  950MOL0     H31086  11.154   8.530   0.677 -0.0141 -5.2842  0.8155
  950MOL0     H31087  11.209   8.378   0.499 -1.3916 -1.1174  0.4916
  950MOL0     H31088  11.238   8.231   0.331 -0.8680  1.1938  1.5799
  950MOL0     H31089  11.130   8.111   0.383  0.0302  0.6280  1.3461
  950MOL0     H31090  11.028   8.113   0.145  0.1953  0.0929 -1.6715
  950MOL0     H31091  11.182   8.028   0.174 -1.1223 -0.4046  1.7023
  950MOL0     H31092  11.193   8.151  -0.031  2.9135 -0.4870  1.1902
  950MOL0     H31093  11.146   8.298   0.045 -1.2248 -0.5358 -5.6602
  950MOL0     H31094  11.399   8.155   0.120  0.1636  0.0908 -1.5621
  950MOL0     H31095  11.353   8.322   0.162  0.6094  2.1081 -1.5975
  950MOL0     H31096  11.499   8.304  -0.257  3.8951 -1.8811  1.0926
  950MOL0     H31097  10.804   8.357   0.379  1.3005  0.3735 -0.6447
  950MOL0     H31098  10.683   8.620   0.513  0.8480 -0.8696 -1.6058
  950MOL0     H31099  10.620   8.457   0.500 -0.5263 -0.8883 -0.9391
  950MOL0     H31100  10.667   8.518   0.656  0.1649  0.1272  0.1844
  951MOL0     O31101  11.023  10.136   8.229 -0.0521 -0.2710 -0.0627
  951MOL0     C31102  10.991  10.212   8.140  0.0594 -0.4549 -0.2100
  951MOL0     O31103  10.944  10.178   8.022 -0.5627 -0.0231  0.7008
  951MOL0     C31104  10.933  10.046   7.993 -0.2134  0.0797  0.3910
  951MOL0     C31105  10.809  10.016   7.931 -0.2764 -0.0425  0.0148
  951MOL0     C31106  10.783   9.881   7.907 -0.8573  0.3789  0.5906
  951MOL0     C31107  10.872   9.775   7.934  0.0799  0.4666 -0.1422
  951MOL0     O31108  10.854   9.643   7.901  0.0246  0.1610  0.6999
  951MOL0     C31109  10.777   9.574   8.004 -0.3408  0.8220 -0.6466
  951MOL0     C31110  10.721   9.434   7.967 -0.5879 -0.1115  0.3392
  951MOL0     C31111  10.744   9.390   7.827 -0.5850 -0.3117 -0.4780
  951MOL0     C31112  10.704   9.244   7.811 -0.1772 -0.2445  0.7543
  951MOL0     C31113  10.720   9.185   7.670  0.8445  0.3975  0.1669
  951MOL0     C31114  10.862   9.166   7.625 -0.0973  0.7073  0.3815
  951MOL0     C31115  10.856   9.116   7.484 -0.2822 -0.6801  0.1060
  951MOL0     C31116  10.982   9.042   7.438 -0.2371  0.7703 -0.8541
  951MOL0     N31117  11.118   9.095   7.473  1.1209  0.5448  0.5283
  951MOL0     C31118  11.153   9.226   7.470 -0.5140 -0.2051  0.8340
  951MOL0     C31119  11.290   9.235   7.488  1.0131 -0.1314 -0.8099
  951MOL0     C31120  11.367   9.359   7.464  1.0890  0.6774 -0.0939
  951MOL0     C31121  11.459   9.395   7.582 -1.0577 -0.2476 -0.3984
  951MOL0     C31122  11.576   9.299   7.590 -0.3036 -0.0614  0.0891
  951MOL0     C31123  11.676   9.338   7.700 -0.2228  0.5461 -0.6563
  951MOL0     O31124  11.808   9.336   7.637  0.8828 -0.3566  0.2130
  951MOL0     C31125  11.921   9.336   7.710  0.7422 -0.2204  0.2261
  951MOL0     C31126  11.949   9.251   7.827  0.5278  0.3487 -0.0358
  951MOL0     C31127  12.073   9.265   7.900  0.2436 -0.0724 -0.0911
  951MOL0     C31128  12.083   9.168   8.016 -0.0109  0.2282 -0.8787
  951MOL0     C31129  12.170   9.354   7.852  0.5541 -0.1210 -0.4534
  951MOL0     C31130  12.288   9.390   7.932 -0.1763 -0.7908  0.1528
  951MOL0     O31131  12.379   9.460   7.855 -0.0357  0.7567  1.0159
  951MOL0     C31132  12.499   9.526   7.883  0.2048  0.2616 -0.2582
  951MOL0     C31133  12.575   9.504   8.003  0.3613 -0.4629 -0.2476
  951MOL0     C31134  12.691   9.570   8.022 -0.6692 -0.4307  0.3929
  951MOL0     C31135  12.741   9.664   7.936  0.0741 -0.1993  0.3279
  951MOL0     O31136  12.853   9.738   7.959 -0.2272  0.6180  0.4838
  951MOL0     C31137  12.941   9.703   8.067  0.2558 -0.4920  0.1692
  951MOL0     C31138  13.079   9.767   8.033  0.1625  0.7260  0.6099
  951MOL0     C31139  13.147   9.704   7.915 -0.6369 -0.7200  0.6832
  951MOL0     C31140  13.284   9.770   7.884  0.4162 -0.4962  0.4569
  951MOL0     C31141  13.390   9.683   7.948 -0.5936  0.3313  0.4697
  951MOL0     C31142  13.519   9.755   7.930 -0.4435  0.0946 -0.4671
  951MOL0     C31143  13.640   9.663   7.970 -0.0276  0.0518 -0.0934
  951MOL0     C31144  13.759   9.754   8.007 -0.3315 -0.4089  0.2043
  951MOL0    Cl31145  13.804   9.861   7.871 -0.1652  0.5099  0.6123
  951MOL0     C31146  12.687   9.675   7.807  0.1663 -0.7967  0.9637
  951MOL0     C31147  12.567   9.601   7.784  0.0211 -0.4199 -0.1263
  951MOL0     O31148  12.309   9.355   8.046 -0.5305  1.0065 -0.1891
  951MOL0     C31149  12.139   9.432   7.740  0.0821 -0.2583  0.1881
  951MOL0     C31150  12.028   9.412   7.666  0.9031  0.8111 -0.4645
  951MOL0     N31151  11.333   9.108   7.509 -0.0552  0.0600  0.2796
  951MOL0     N31152  11.230   9.029   7.507 -0.0250  0.1769 -0.0101
  951MOL0     C31153  10.987   9.812   7.992  0.7502 -0.4484 -0.0000
  951MOL0     C31154  11.024   9.947   8.026  0.3558  0.7631  0.5585
  951MOL0     C31155  11.012  10.352   8.174 -0.9600  0.3600 -0.2037
  951MOL0     C31156  11.033  10.389   8.310  0.3981 -1.1037 -0.4734
  951MOL0     C31157  11.085  10.518   8.344 -0.1873 -0.3588 -0.8055
  951MOL0     C31158  11.099  10.621   8.251  0.3569  0.9457 -0.5454
  951MOL0     O31159  11.138  10.744   8.296  0.0546 -0.4446 -0.6615
  951MOL0     C31160  11.109  10.859   8.221 -0.9307 -0.1593 -0.1698
  951MOL0     C31161  11.086  10.986   8.301 -0.2364  0.1684  0.4682
  951MOL0     C31162  11.171  11.009   8.421 -0.1716  0.3642  0.6806
  951MOL0     C31163  11.286  11.102   8.407  0.0612 -0.2550  0.3887
  951MOL0     C31164  11.393  11.027   8.347 -0.0170 -0.2288 -0.1015
  951MOL0     C31165  11.479  10.971   8.292  0.2038 -0.4598  0.7111
  951MOL0     C31166  11.083  10.577   8.115  0.5328 -1.0393  0.0790
  951MOL0     C31167  11.048  10.447   8.073  0.0269  0.5147 -0.4053
  951MOL0     C31168  11.043  10.420   7.924  0.3313  0.5253  0.1951
  951MOL0     H31169  10.736  10.095   7.917  0.7529  1.2277  1.4717
  951MOL0     H31170  10.685   9.842   7.882  0.0077 -1.7028  0.1952
  951MOL0     H31171  10.694   9.635   8.041  0.7508  2.2721 -0.4974
  951MOL0     H31172  10.844   9.560   8.089 -2.0806  2.3329  1.0551
  951MOL0     H31173  10.762   9.353   8.028  5.3740  1.3276 -1.1540
  951MOL0     H31174  10.612   9.431   7.972 -0.6419  0.1476 -0.5221
  951MOL0     H31175  10.690   9.460   7.763  1.1378  1.2220 -0.3416
  951MOL0     H31176  10.851   9.407   7.808 -0.4499 -1.2535 -0.6125
  951MOL0     H31177  10.773   9.193   7.879  0.7443 -0.4803 -0.3304
  951MOL0     H31178  10.603   9.224   7.847 -0.7506 -0.1134 -0.7092
  951MOL0     H31179  10.654   9.251   7.613 -1.8355 -0.0396  2.5423
  951MOL0     H31180  10.673   9.086   7.671  3.6229 -1.0389  2.1567
  951MOL0     H31181  10.911   9.262   7.641  0.5333  0.6090 -0.8381
  951MOL0     H31182  10.909   9.092   7.691  0.8592 -0.3866 -1.4244
  951MOL0     H31183  10.836   9.200   7.417 -1.8717 -2.7370 -2.2167
  951MOL0     H31184  10.770   9.049   7.471 -0.1155 -1.2422  1.6368
  951MOL0     H31185  10.969   8.945   7.487 -0.4667  0.5596 -1.3246
  951MOL0     H31186  10.967   9.017   7.333  0.1907 -1.7076 -0.3976
  951MOL0     H31187  11.088   9.312   7.455 -0.3417  0.2013  2.2514
  951MOL0     H31188  11.291   9.437   7.453  0.8629  0.7046  1.5184
  951MOL0     H31189  11.434   9.349   7.378  1.0838 -2.0642  0.1301
  951MOL0     H31190  11.508   9.492   7.572 -0.5871 -0.3468  0.7430
  951MOL0     H31191  11.417   9.395   7.684  2.3299 -0.0541  1.1336
  951MOL0     H31192  11.544   9.201   7.627  0.9870 -0.4843  0.1605
  951MOL0     H31193  11.633   9.290   7.497 -0.6589 -0.6409 -0.0770
  951MOL0     H31194  11.658   9.440   7.734 -1.2503  0.3753 -0.6656
  951MOL0     H31195  11.667   9.279   7.791  0.3859  3.9784  1.8391
  951MOL0     H31196  11.868   9.196   7.874  0.7122  0.4345  0.3873
  951MOL0     H31197  12.012   9.209   8.089  1.1847  0.5899  0.1129
  951MOL0     H31198  12.186   9.152   8.049  1.0145 -3.2619 -4.8422
  951MOL0     H31199  12.046   9.067   7.997  2.8902 -1.0494 -0.1769
  951MOL0     H31200  12.532   9.437   8.076  1.8719 -2.0147 -0.7190
  951MOL0     H31201  12.740   9.551   8.117 -2.7073  0.2088  1.6398
  951MOL0     H31202  12.905   9.749   8.160  0.7884  0.1751  0.0487
  951MOL0     H31203  12.949   9.595   8.081 -2.0495 -0.8614 -0.7969
  951MOL0     H31204  13.070   9.871   8.003  3.2716  0.7634 -0.4687
  951MOL0     H31205  13.133   9.771   8.128  0.9311 -0.5261  0.2495
  951MOL0     H31206  13.079   9.702   7.828 -0.1981  0.7285  0.2792
  951MOL0     H31207  13.159   9.599   7.943 -2.9913 -0.8747  1.3311
  951MOL0     H31208  13.282   9.877   7.906 -5.7854 -0.4247  1.5183
  951MOL0     H31209  13.293   9.768   7.775 -2.1990 -2.1488  0.1654
  951MOL0     H31210  13.376   9.674   8.056 -2.6541  0.8285  0.2823
  951MOL0     H31211  13.390   9.582   7.905 -1.2239  0.5683 -0.1039
  951MOL0     H31212  13.524   9.852   7.982 -2.0616 -1.1275  2.1700
  951MOL0     H31213  13.537   9.772   7.823  2.3505 -0.6223 -0.1899
  951MOL0     H31214  13.657   9.588   7.892 -1.8123 -1.1223  0.5683
  951MOL0     H31215  13.608   9.613   8.062 -0.4745  0.0804 -0.2306
  951MOL0     H31216  13.845   9.689   8.022 -0.6705 -0.9562 -0.1940
  951MOL0     H31217  13.738   9.816   8.095 -3.7541  2.3317 -2.2496
  951MOL0     H31218  12.728   9.745   7.735  1.2585 -2.1069  0.2839
  951MOL0     H31219  12.510   9.606   7.691 -0.0733  0.2236 -0.0350
  951MOL0     H31220  12.201   9.512   7.700 -1.6037  0.7276 -0.6030
  951MOL0     H31221  12.017   9.462   7.571 -2.2758 -1.9608 -1.7543
  951MOL0     H31222  11.057   9.736   8.024  3.2056  1.0074 -1.6150
  951MOL0     H31223  11.105   9.960   8.096  1.5442  1.0938 -0.8203
  951MOL0     H31224  11.000  10.321   8.387 -3.7791  1.8231  0.7186
  951MOL0     H31225  11.096  10.537   8.451  0.2819  1.3967 -1.1292
  951MOL0     H31226  11.179  10.868   8.137  0.1834 -0.0841  0.7498
  951MOL0     H31227  11.016  10.850   8.164 -0.9121 -1.3386 -0.0316
  951MOL0     H31228  10.981  10.992   8.331 -0.3977  1.6265 -0.2607
  951MOL0     H31229  11.098  11.070   8.232  1.5120 -2.4583 -2.7233
  951MOL0     H31230  11.112  11.054   8.501 -0.6152  1.4098 -0.2144
  951MOL0     H31231  11.212  10.914   8.458 -2.1796 -1.1615 -0.7683
  951MOL0     H31232  11.326  11.109   8.508 -3.3432 -4.2743  2.2851
  951MOL0     H31233  11.268  11.197   8.355 -1.9084 -0.7692  0.0370
  951MOL0     H31234  11.543  10.903   8.239  2.7902  2.3001  0.0118
  951MOL0     H31235  11.107  10.655   8.043 -2.2187  0.4239  0.6163
  951MOL0     H31236  10.940  10.433   7.888 -0.4949  0.4215  2.3579
  951MOL0     H31237  11.118  10.487   7.881  1.1621 -1.7993 -2.2487
  951MOL0     H31238  11.070  10.320   7.891 -1.8217 -0.2301  0.5152
  952MOL0     O31239   6.082   3.299   1.497  0.8223 -1.3395 -0.0900
  952MOL0     C31240   6.093   3.372   1.594 -0.5208  0.2456 -0.4305
  952MOL0     O31241   6.178   3.479   1.600  0.0912 -0.1453  0.0940
  952MOL0     C31242   6.195   3.544   1.486  0.0776 -0.0584  0.2907
  952MOL0     C31243   6.287   3.497   1.398  0.6195 -0.2308  0.6858
  952MOL0     C31244   6.314   3.575   1.282 -0.1897 -0.1682  0.0512
  952MOL0     C31245   6.251   3.692   1.250  0.0513 -0.9979 -0.1455
  952MOL0     O31246   6.271   3.773   1.145  0.4570 -0.1436  1.5541
  952MOL0     C31247   6.406   3.810   1.122 -0.0119 -0.5920 -0.7005
  952MOL0     C31248   6.422   3.857   0.983  0.2536 -0.1339  0.6441
  952MOL0     C31249   6.566   3.862   0.936 -0.4280 -0.0141 -0.2919
  952MOL0     C31250   6.567   3.932   0.789 -0.8370  0.0804  0.2200
  952MOL0     C31251   6.711   3.947   0.730 -0.5222 -0.9153 -0.8658
  952MOL0     C31252   6.817   4.018   0.810  0.1192  0.4363 -0.0428
  952MOL0     C31253   6.947   4.030   0.725  0.5268 -0.3865 -0.7306
  952MOL0     C31254   7.068   4.092   0.807  0.1669 -0.3623 -0.7160
  952MOL0     N31255   7.107   3.997   0.913 -0.2396 -0.0011 -1.1242
  952MOL0     C31256   7.176   3.876   0.899  0.5017 -0.0332 -0.1327
  952MOL0     C31257   7.203   3.837   1.020  1.2341 -0.0802  0.6501
  952MOL0     C31258   7.265   3.711   1.067 -0.9598 -0.2018  0.9152
  952MOL0     C31259   7.158   3.618   1.107 -0.2175 -0.2973  0.4268
  952MOL0     C31260   7.192   3.484   1.172  0.4221 -0.3999 -0.2897
  952MOL0     C31261   7.330   3.485   1.234  0.2838  0.0257  0.5929
  952MOL0     O31262   7.345   3.344   1.261  0.0267  0.4448 -0.1579
  952MOL0     C31263   7.451   3.280   1.221  0.0588  0.1269 -0.7046
  952MOL0     C31264   7.459   3.138   1.242 -0.3766  0.5846  0.0318
  952MOL0     C31265   7.560   3.062   1.188  0.1873  0.1855  0.4655
  952MOL0     C31266   7.557   2.913   1.198  0.0268  1.0754 -0.5429
  952MOL0     C31267   7.684   3.118   1.145 -0.2291 -0.0031 -0.8650
  952MOL0     C31268   7.827   3.051   1.127  0.2584  0.5160 -0.6962
  952MOL0     O31269   7.829   2.918   1.089 -0.3637 -0.2415  0.0022
  952MOL0     C31270   7.942   2.843   1.091  0.0086  0.8765 -0.3358
  952MOL0     C31271   7.963   2.751   1.198  0.4149  0.0193  0.2348
  952MOL0     C31272   8.083   2.682   1.211  0.2313 -0.2717 -0.7018
  952MOL0     C31273   8.202   2.710   1.143 -0.1730 -1.1462  0.4593
  952MOL0     O31274   8.322   2.640   1.180 -0.6847  0.3013 -0.2142
  952MOL0     C31275   8.453   2.678   1.121  0.4471  0.2932  0.8375
  952MOL0     C31276   8.552   2.587   1.197  0.3877  0.0732 -0.0806
  952MOL0     C31277   8.549   2.599   1.352  0.3799 -0.4125 -0.0863
  952MOL0     C31278   8.552   2.745   1.401 -0.1093 -0.1815  0.1292
  952MOL0     C31279   8.589   2.749   1.542 -0.8210  0.3588  0.5045
  952MOL0     C31280   8.474   2.691   1.635  0.2534  0.7460 -0.3420
  952MOL0     C31281   8.493   2.733   1.784 -0.4320 -0.2444  0.1172
  952MOL0     C31282   8.604   2.650   1.852  0.1373 -0.6704  0.5041
  952MOL0    Cl31283   8.762   2.733   1.835  0.0636  0.0309  0.0610
  952MOL0     C31284   8.189   2.805   1.036 -0.3826 -0.5984  0.1857
  952MOL0     C31285   8.061   2.870   1.012 -0.8840  0.1736 -0.4742
  952MOL0     O31286   7.927   3.116   1.142 -0.5688 -0.5378  0.4968
  952MOL0     C31287   7.677   3.258   1.141 -0.5322  0.2374  0.0774
  952MOL0     C31288   7.566   3.340   1.159  0.9608 -0.2235 -0.1985
  952MOL0     N31289   7.174   3.929   1.110  0.3525 -0.1175 -0.4917
  952MOL0     N31290   7.128   4.027   1.043 -0.3814 -0.8350 -0.4319
  952MOL0     C31291   6.163   3.741   1.345 -0.1728 -0.1241  0.2155
  952MOL0     C31292   6.130   3.666   1.459  0.6487 -1.1053 -0.0762
  952MOL0     C31293   6.012   3.340   1.720  0.0640 -0.2000 -0.0187
  952MOL0     C31294   6.020   3.439   1.822 -0.1095 -0.3303 -1.0403
  952MOL0     C31295   5.965   3.413   1.950  0.2187 -0.7065  0.6182
  952MOL0     C31296   5.901   3.292   1.978 -0.2785  0.0998  0.3431
  952MOL0     O31297   5.864   3.264   2.107  0.3392 -0.0212  0.6554
  952MOL0     C31298   5.770   3.151   2.130 -0.1952  0.0977 -0.9105
  952MOL0     C31299   5.700   3.174   2.262  0.7176 -0.2224  0.3507
  952MOL0     C31300   5.789   3.190   2.390 -0.5154  0.1062 -0.0410
  952MOL0     C31301   5.851   3.053   2.428  0.4440  0.7814  0.2344
  952MOL0     C31302   5.889   3.056   2.573  0.0935  0.4999  0.1276
  952MOL0     C31303   5.910   3.049   2.695 -0.0832  0.7586 -0.0904
  952MOL0     C31304   5.900   3.199   1.870 -0.5441  0.2319 -0.6331
  952MOL0     C31305   5.954   3.212   1.747  0.1570  0.2548  0.7473
  952MOL0     C31306   5.937   3.094   1.660  0.1494 -0.3750  0.3103
  952MOL0     H31307   6.342   3.403   1.406  0.8812 -0.2631 -1.0744
  952MOL0     H31308   6.396   3.545   1.218  0.1811  4.6322 -2.2015
  952MOL0     H31309   6.473   3.730   1.154  1.4256  1.1037  0.6625
  952MOL0     H31310   6.442   3.885   1.192 -0.0594 -0.1810 -1.1094
  952MOL0     H31311   6.366   3.802   0.907 -3.0086  2.1536  1.1811
  952MOL0     H31312   6.383   3.959   0.981 -0.1485 -0.2830  0.8476
  952MOL0     H31313   6.631   3.915   1.006 -0.2707 -0.1529 -0.3329
  952MOL0     H31314   6.595   3.757   0.926 -1.0121 -0.2069  0.0111
  952MOL0     H31315   6.515   3.874   0.712  0.4821  3.4100 -3.5263
  952MOL0     H31316   6.529   4.034   0.785 -0.6874  0.1610  0.8161
  952MOL0     H31317   6.695   4.012   0.644 -0.5800 -0.7051 -0.6979
  952MOL0     H31318   6.751   3.848   0.707  0.6652 -0.7317  0.2741
  952MOL0     H31319   6.780   4.120   0.830  0.3023  1.3088 -3.5858
  952MOL0     H31320   6.832   3.953   0.897 -3.2335 -0.9337 -0.3494
  952MOL0     H31321   6.925   4.097   0.642  3.3615  2.0758  0.3520
  952MOL0     H31322   6.975   3.929   0.693  2.0136 -0.0514 -0.5754
  952MOL0     H31323   7.157   4.108   0.746  1.0137  0.4292  0.6760
  952MOL0     H31324   7.028   4.184   0.851 -3.4731 -2.5598  1.0057
  952MOL0     H31325   7.201   3.815   0.813  0.4620 -1.9228  1.1587
  952MOL0     H31326   7.333   3.743   1.148 -0.3529 -1.0090  0.7324
  952MOL0     H31327   7.326   3.657   0.994  1.0600  0.3729  2.0769
  952MOL0     H31328   7.092   3.665   1.180 -1.1889 -0.3743 -0.3792
  952MOL0     H31329   7.096   3.593   1.021 -0.2640 -2.3637  1.0126
  952MOL0     H31330   7.113   3.466   1.246 -0.4068  1.6177 -0.6257
  952MOL0     H31331   7.181   3.408   1.094 -1.5042  0.0289 -0.4684
  952MOL0     H31332   7.400   3.527   1.162  2.1908 -1.6434  1.3536
  952MOL0     H31333   7.315   3.547   1.323  0.7587  0.1989  0.5541
  952MOL0     H31334   7.361   3.098   1.267 -0.7700  0.0980 -2.1187
  952MOL0     H31335   7.452   2.888   1.218  0.1076  1.2586  0.1279
  952MOL0     H31336   7.630   2.873   1.268 -2.3105 -1.7918  0.4671
  952MOL0     H31337   7.581   2.867   1.102  0.9353 -0.4644  0.3831
  952MOL0     H31338   7.869   2.733   1.249  1.0857  0.5930  1.7068
  952MOL0     H31339   8.084   2.605   1.287 -2.0279 -0.5644 -0.8905
  952MOL0     H31340   8.464   2.658   1.014 -1.8629  2.0081  0.1988
  952MOL0     H31341   8.470   2.786   1.129 -4.6654  1.1949  2.8867
  952MOL0     H31342   8.533   2.488   1.153 -0.9201 -0.6826  2.0044
  952MOL0     H31343   8.648   2.619   1.156  2.4999 -4.6852  0.4109
  952MOL0     H31344   8.631   2.539   1.393  0.3238  0.5634  1.5411
  952MOL0     H31345   8.462   2.549   1.396  0.3491 -1.3617 -1.1848
  952MOL0     H31346   8.452   2.789   1.389 -1.1039 -2.3628 -0.0202
  952MOL0     H31347   8.620   2.811   1.347 -0.1651 -0.9143 -0.8758
  952MOL0     H31348   8.684   2.693   1.544  0.7833  2.7793 -1.6839
  952MOL0     H31349   8.623   2.848   1.572 -0.4692  0.7007 -0.9207
  952MOL0     H31350   8.464   2.583   1.620  0.5627  0.8642 -1.4451
  952MOL0     H31351   8.381   2.736   1.597 -0.5893  0.0560  0.8228
  952MOL0     H31352   8.395   2.713   1.827 -0.3797  0.9943  0.8528
  952MOL0     H31353   8.511   2.839   1.804  0.8210 -0.2160 -0.9732
  952MOL0     H31354   8.611   2.551   1.806  1.8249  1.1546 -3.5782
  952MOL0     H31355   8.577   2.650   1.958 -0.6350 -1.2203  0.3166
  952MOL0     H31356   8.275   2.825   0.973 -2.1308 -5.2499 -4.4837
  952MOL0     H31357   8.060   2.945   0.934  2.1794  0.0536 -0.7529
  952MOL0     H31358   7.761   3.315   1.104  1.1348 -3.6170 -2.7464
  952MOL0     H31359   7.583   3.446   1.143 -2.3416  0.5860  0.9418
  952MOL0     H31360   6.106   3.830   1.319 -0.8978 -0.3986  0.8064
  952MOL0     H31361   6.051   3.697   1.526  1.3126 -2.1959  1.2725
  952MOL0     H31362   6.057   3.538   1.801 -0.6638  0.3336  0.8898
  952MOL0     H31363   5.971   3.491   2.025 -1.9066 -1.9522  2.1930
  952MOL0     H31364   5.696   3.150   2.049  1.7924  3.2556 -2.9939
  952MOL0     H31365   5.819   3.053   2.129  1.2314  0.6576  2.2933
  952MOL0     H31366   5.634   3.089   2.282  3.3433 -1.9950  2.2950
  952MOL0     H31367   5.639   3.264   2.255 -1.5150 -1.6009  0.9478
  952MOL0     H31368   5.870   3.263   2.389  1.6556 -2.0132  2.8080
  952MOL0     H31369   5.718   3.229   2.464 -0.0358  1.0521 -0.0750
  952MOL0     H31370   5.945   3.031   2.376 -0.3612 -2.2287 -0.1133
  952MOL0     H31371   5.782   2.971   2.408  1.3067  0.6399 -2.5420
  952MOL0     H31372   5.929   3.027   2.798  1.6987 -1.1708 -0.7781
  952MOL0     H31373   5.858   3.101   1.893  2.4752 -0.8760  0.6466
  952MOL0     H31374   5.871   3.121   1.577 -1.4996 -2.9474  0.6784
  952MOL0     H31375   6.032   3.061   1.616 -0.2441  0.3395 -1.1224
  952MOL0     H31376   5.886   3.008   1.705 -0.3226 -0.6731 -0.7650
  953MOL0     O31377   0.340   8.677  10.875  0.2539 -0.0054 -0.1554
  953MOL0     C31378   0.301   8.579  10.938 -0.4387  0.1242 -0.1010
  953MOL0     O31379   0.178   8.534  10.954  0.2558 -0.3724 -0.0762
  953MOL0     C31380   0.076   8.572  10.872 -0.7686  0.3643 -0.5499
  953MOL0     C31381  -0.039   8.583  10.945  0.0336 -0.5988 -0.0067
  953MOL0     C31382  -0.162   8.643  10.893 -0.5440  0.5907 -1.3137
  953MOL0     C31383  -0.157   8.674  10.752  0.2060 -0.5931 -0.1131
  953MOL0     O31384  -0.269   8.736  10.719 -0.1211  0.0196  0.0419
  953MOL0     C31385  -0.275   8.807  10.600 -0.0748 -0.6046  0.8796
  953MOL0     C31386  -0.370   8.746  10.498 -0.2800  0.1560  0.2190
  953MOL0     C31387  -0.514   8.735  10.546 -0.4771  0.2118 -1.8276
  953MOL0     C31388  -0.600   8.690  10.422  0.7793  0.0895 -0.9718
  953MOL0     C31389  -0.751   8.661  10.456  0.6558  0.5815  0.4339
  953MOL0     C31390  -0.855   8.630  10.341 -0.4841  0.0047 -0.1092
  953MOL0     C31391  -0.820   8.494  10.292  0.3716  0.8122 -0.1457
  953MOL0     C31392  -0.953   8.430  10.233  0.3359 -0.3468 -0.1265
  953MOL0     N31393  -0.930   8.296  10.171 -0.2625  0.3930  0.4957
  953MOL0     C31394  -0.877   8.182  10.230 -0.2508 -0.8813 -0.6527
  953MOL0     C31395  -0.887   8.083  10.135  0.4905  0.2638 -0.5499
  953MOL0     C31396  -0.856   7.937  10.153 -0.3909  0.1023 -0.2577
  953MOL0     C31397  -0.936   7.861  10.044  0.4858  0.3331  0.5793
  953MOL0     C31398  -0.903   7.706  10.064  0.1918 -0.0454 -0.5133
  953MOL0     C31399  -0.965   7.625   9.945  0.1973 -0.6219  1.2160
  953MOL0     O31400  -0.857   7.631   9.850 -0.3527 -0.3840  0.5237
  953MOL0     C31401  -0.860   7.543   9.744 -0.8365 -0.3833 -0.2581
  953MOL0     C31402  -0.734   7.502   9.700 -0.4005  0.5228  0.3025
  953MOL0     C31403  -0.724   7.415   9.596  0.4274  1.2177 -0.1082
  953MOL0     C31404  -0.591   7.371   9.565 -0.1528 -0.5483 -0.1059
  953MOL0     C31405  -0.844   7.361   9.518  0.2013 -0.3884 -0.3236
  953MOL0     C31406  -0.842   7.258   9.415 -0.5962  0.5519  0.2210
  953MOL0     O31407  -0.963   7.214   9.373 -0.0624  0.3491  0.4972
  953MOL0     C31408  -0.973   7.127   9.268 -0.4159  0.0703 -0.3208
  953MOL0     C31409  -1.003   6.996   9.299  0.4249 -0.6508 -0.4742
  953MOL0     C31410  -1.027   6.901   9.200 -0.5768 -0.5427 -0.1191
  953MOL0     C31411  -1.002   6.942   9.062 -0.0446  0.8743 -0.6416
  953MOL0     O31412  -1.020   6.849   8.965 -0.1895 -0.5339  0.0721
  953MOL0     C31413  -0.913   6.803   8.893 -0.4725  0.1913  0.1266
  953MOL0     C31414  -0.905   6.653   8.861  0.4853  0.0235 -0.3561
  953MOL0     C31415  -0.913   6.561   8.987  0.3546 -0.2481  0.0973
  953MOL0     C31416  -0.774   6.551   9.050  0.1069 -0.2804 -0.1604
  953MOL0     C31417  -0.785   6.449   9.172 -0.3406  0.1684  0.7382
  953MOL0     C31418  -0.827   6.306   9.139  0.1301  0.5893 -0.4969
  953MOL0     C31419  -0.894   6.242   9.273  0.4277 -0.0494  0.2579
  953MOL0     C31420  -0.985   6.119   9.254 -0.3137  0.0326 -1.0529
  953MOL0    Cl31421  -0.881   5.999   9.174  0.3194 -0.1072 -0.0171
  953MOL0     C31422  -0.957   7.070   9.030 -0.6927  0.3434 -0.0999
  953MOL0     C31423  -0.944   7.162   9.137  0.1811 -0.4484  0.0240
  953MOL0     O31424  -0.733   7.215   9.371  0.6383 -0.3995  0.0970
  953MOL0     C31425  -0.969   7.411   9.565 -0.2342  0.5129 -0.2535
  953MOL0     C31426  -0.976   7.496   9.680  0.3463  0.2129 -0.5946
  953MOL0     N31427  -0.944   8.145  10.024  0.3601  0.4033  0.3990
  953MOL0     N31428  -0.969   8.262  10.045  0.3610  0.3556 -0.2887
  953MOL0     C31429  -0.039   8.664  10.679 -0.2778 -0.0440  0.3587
  953MOL0     C31430   0.081   8.616  10.742  0.4341  0.6916  0.8703
  953MOL0     C31431   0.403   8.510  11.020 -0.6556  0.2379  0.9559
  953MOL0     C31432   0.542   8.532  10.988  0.3505 -0.1563  0.0753
  953MOL0     C31433   0.645   8.467  11.056 -0.8935  0.1431  0.4210
  953MOL0     C31434   0.609   8.378  11.155 -0.1858  0.9346 -0.1832
  953MOL0     O31435   0.709   8.318  11.217 -0.1260  0.2707 -0.3742
  953MOL0     C31436   0.678   8.214  11.307 -0.1339  0.7222  0.4368
  953MOL0     C31437   0.801   8.162  11.379 -0.8997 -0.0721 -0.4893
  953MOL0     C31438   0.792   8.010  11.412 -1.3106  0.6858 -0.5598
  953MOL0     C31439   0.688   7.974  11.513 -0.1785  0.4185  0.7974
  953MOL0     C31440   0.700   8.057  11.624 -0.8562  0.3428 -0.4451
  953MOL0     C31441   0.722   8.129  11.720 -0.6652 -0.3039  0.0213
  953MOL0     C31442   0.481   8.367  11.196 -0.4337  0.3757 -0.2113
  953MOL0     C31443   0.372   8.435  11.139 -0.2721 -0.9000 -0.6197
  953MOL0     C31444   0.237   8.429  11.201  0.6099  0.7223 -0.1116
  953MOL0     H31445  -0.031   8.555  11.049 -3.4314 -0.9992  0.2473
  953MOL0     H31446  -0.244   8.659  10.962  1.5966 -0.4144  1.7284
  953MOL0     H31447  -0.180   8.805  10.545  0.0454  2.0444  0.8406
  953MOL0     H31448  -0.304   8.912  10.610  1.6836  0.0618 -0.4381
  953MOL0     H31449  -0.367   8.796  10.401  1.8548 -0.9792 -0.3612
  953MOL0     H31450  -0.335   8.643  10.493 -1.9948 -0.5591  1.8077
  953MOL0     H31451  -0.519   8.666  10.631 -0.9681  1.6951 -0.6068
  953MOL0     H31452  -0.555   8.832  10.577 -1.3123 -0.7065  0.1104
  953MOL0     H31453  -0.603   8.775  10.354  1.8454  1.6325  0.8160
  953MOL0     H31454  -0.563   8.599  10.374 -0.3392 -0.6213 -0.5439
  953MOL0     H31455  -0.791   8.755  10.495 -2.0534  0.8492 -2.5379
  953MOL0     H31456  -0.768   8.585  10.533  1.3540 -0.4430 -0.3900
  953MOL0     H31457  -0.959   8.635  10.375 -0.3587 -1.6640  0.6056
  953MOL0     H31458  -0.835   8.696  10.256 -2.0091  2.1872  1.1137
  953MOL0     H31459  -0.800   8.431  10.379  1.5877  0.3995 -0.6906
  953MOL0     H31460  -0.736   8.491  10.221  0.9377  0.8267  0.5082
  953MOL0     H31461  -1.027   8.420  10.313  0.2901 -2.9365 -0.4296
  953MOL0     H31462  -0.994   8.504  10.163  2.3730  0.5121 -0.4647
  953MOL0     H31463  -0.836   8.165  10.329  1.8382 -0.1737 -1.3559
  953MOL0     H31464  -0.877   7.904  10.255 -0.3616 -0.7060 -0.5063
  953MOL0     H31465  -0.751   7.916  10.132 -0.0321 -1.2700  2.4440
  953MOL0     H31466  -1.044   7.878  10.048  0.5225  0.4476  1.1855
  953MOL0     H31467  -0.908   7.895   9.944 -0.3957  3.0208  1.1733
  953MOL0     H31468  -0.798   7.678  10.078  0.6166  2.2730  1.6146
  953MOL0     H31469  -0.943   7.679  10.162 -0.6316  5.1820  0.8658
  953MOL0     H31470  -0.994   7.522   9.968 -1.3370 -0.5452 -0.2170
  953MOL0     H31471  -1.054   7.681   9.914  1.8643  3.1150  2.6042
  953MOL0     H31472  -0.646   7.539   9.750 -1.3988  0.1552  2.4269
  953MOL0     H31473  -0.511   7.427   9.615 -0.9914  0.3916  0.2421
  953MOL0     H31474  -0.576   7.393   9.459 -1.8767 -0.5116 -0.3847
  953MOL0     H31475  -0.580   7.264   9.585  2.9760  0.0824  2.2565
  953MOL0     H31476  -1.012   6.973   9.405  1.6442 -1.2567 -0.4848
  953MOL0     H31477  -1.047   6.798   9.225 -2.4094 -0.2824 -0.3463
  953MOL0     H31478  -0.921   6.857   8.798 -0.3139 -1.9214 -1.1380
  953MOL0     H31479  -0.822   6.834   8.945 -0.8857 -0.7779  1.4830
  953MOL0     H31480  -0.991   6.626   8.799  0.3260  0.2213 -0.2239
  953MOL0     H31481  -0.816   6.622   8.807  1.7741 -2.6805  2.9582
  953MOL0     H31482  -0.953   6.461   8.965 -1.0782  0.9914 -3.4909
  953MOL0     H31483  -0.981   6.597   9.064  0.3025 -0.1812  0.0191
  953MOL0     H31484  -0.744   6.647   9.092 -1.7834 -0.2622  1.2996
  953MOL0     H31485  -0.701   6.514   8.978  0.0010  2.6446 -1.9309
  953MOL0     H31486  -0.699   6.450   9.240 -0.2188 -1.8833  0.6844
  953MOL0     H31487  -0.855   6.490   9.245  0.4321 -1.2001  2.3158
  953MOL0     H31488  -0.735   6.248   9.127  0.8436  1.8602 -1.3391
  953MOL0     H31489  -0.892   6.288   9.052 -1.0638 -2.2518  0.8431
  953MOL0     H31490  -0.955   6.321   9.317  0.2425  0.1782 -0.3896
  953MOL0     H31491  -0.806   6.225   9.336 -0.8575 -0.8250  1.9039
  953MOL0     H31492  -1.073   6.150   9.197  0.0215  0.4087 -1.3719
  953MOL0     H31493  -1.016   6.075   9.349  3.2998 -1.3732 -0.3638
  953MOL0     H31494  -0.934   7.108   8.931  2.3453  1.3581  0.8612
  953MOL0     H31495  -0.910   7.263   9.117 -0.6049 -0.3426 -0.8471
  953MOL0     H31496  -1.056   7.381   9.508 -0.4384  2.6800 -1.1716
  953MOL0     H31497  -1.076   7.516   9.719  1.4006  1.2196  1.8412
  953MOL0     H31498  -0.030   8.682  10.573  1.4058 -3.2794 -0.1520
  953MOL0     H31499   0.170   8.608  10.680  0.0490 -0.4759  0.4567
  953MOL0     H31500   0.573   8.608  10.918  0.9865 -0.0647  0.4493
  953MOL0     H31501   0.748   8.494  11.038 -0.8192 -1.1627 -1.4040
  953MOL0     H31502   0.605   8.255  11.377 -2.7670 -2.4681 -0.2113
  953MOL0     H31503   0.634   8.126  11.259  0.5831 -0.3697  1.7191
  953MOL0     H31504   0.818   8.216  11.472 -0.1588  1.2580 -1.3685
  953MOL0     H31505   0.888   8.191  11.320 -1.0259  0.0437 -0.6205
  953MOL0     H31506   0.761   7.960  11.319 -2.7035 -1.3636  0.9109
  953MOL0     H31507   0.887   7.970  11.449 -2.1427 -0.0244  0.9168
  953MOL0     H31508   0.698   7.870  11.546 -1.1450  0.5056  1.4040
  953MOL0     H31509   0.590   7.967  11.465 -0.0216 -1.3406  0.6387
  953MOL0     H31510   0.744   8.200  11.798  3.1842 -1.5005  0.2236
  953MOL0     H31511   0.451   8.301  11.277  1.3645  2.0660  1.9706
  953MOL0     H31512   0.242   8.387  11.302  1.2214 -0.4059 -0.5926
  953MOL0     H31513   0.197   8.530  11.215 -2.6619 -0.7384  2.5510
  953MOL0     H31514   0.161   8.368  11.151 -1.2868  2.9081 -0.0498
  954MOL0     O31515   9.019   5.438   6.703  0.0677  0.3736  0.2199
  954MOL0     C31516   8.994   5.393   6.815 -0.3940  0.0079 -0.7686
  954MOL0     O31517   9.050   5.436   6.930  0.3248  0.1878  0.2767
  954MOL0     C31518   9.123   5.556   6.937  0.2999  0.9173  0.4665
  954MOL0     C31519   9.134   5.609   7.070 -0.8610  0.7455 -0.4129
  954MOL0     C31520   9.235   5.704   7.098  0.6355 -0.6455 -0.8018
  954MOL0     C31521   9.322   5.752   6.994 -0.4335  0.2398 -0.7547
  954MOL0     O31522   9.424   5.841   7.017  0.2812 -0.1995 -0.2888
  954MOL0     C31523   9.439   5.892   7.151  0.4739 -0.2201  0.5339
  954MOL0     C31524   9.529   6.014   7.153 -0.1450  0.0317  0.1310
  954MOL0     C31525   9.574   6.064   7.297 -0.5804  1.2067  0.7389
  954MOL0     C31526   9.456   6.142   7.363 -0.2097 -0.8698  0.8214
  954MOL0     C31527   9.508   6.202   7.498 -0.5247  0.2202 -0.2440
  954MOL0     C31528   9.407   6.301   7.551 -0.0099 -0.1236 -0.3691
  954MOL0     C31529   9.301   6.244   7.658  1.1535  0.2980  0.3028
  954MOL0     C31530   9.259   6.362   7.743 -0.4152 -0.5135  0.1829
  954MOL0     N31531   9.204   6.482   7.666 -0.5594 -0.1414 -0.0173
  954MOL0     C31532   9.077   6.498   7.611 -0.8117  0.3015  0.9219
  954MOL0     C31533   9.082   6.621   7.547  0.4268  0.4336 -0.6768
  954MOL0     C31534   8.961   6.657   7.471 -0.0951  0.1067  0.4376
  954MOL0     C31535   8.945   6.810   7.444 -0.3303  0.0865 -0.1028
  954MOL0     C31536   8.861   6.843   7.316 -1.3217 -0.2291 -0.1894
  954MOL0     C31537   8.718   6.790   7.339 -0.0252 -1.0291  0.9860
  954MOL0     O31538   8.622   6.860   7.259 -0.1782  0.6066 -0.2760
  954MOL0     C31539   8.602   6.846   7.125  1.2049  1.4166 -0.5852
  954MOL0     C31540   8.499   6.923   7.065  1.5853 -0.5173 -0.4702
  954MOL0     C31541   8.462   6.898   6.931  1.3162 -0.2687 -0.2444
  954MOL0     C31542   8.361   6.991   6.873  0.5924  0.3368  0.2693
  954MOL0     C31543   8.522   6.803   6.847 -0.4776  0.2429 -1.4617
  954MOL0     C31544   8.480   6.766   6.712  0.8503 -0.8336 -0.7326
  954MOL0     O31545   8.579   6.762   6.615 -0.4038  0.4639 -0.6142
  954MOL0     C31546   8.546   6.673   6.516  0.4036 -0.7300  0.3090
  954MOL0     C31547   8.503   6.719   6.395 -0.3997  0.8947 -0.2069
  954MOL0     C31548   8.487   6.630   6.285 -0.1891 -0.8966  0.9886
  954MOL0     C31549   8.503   6.490   6.299 -0.3223 -0.5676  1.1500
  954MOL0     O31550   8.495   6.403   6.197  0.3781  0.0738 -0.1231
  954MOL0     C31551   8.443   6.444   6.070  0.2364  0.0584 -0.5626
  954MOL0     C31552   8.476   6.333   5.964 -0.6896 -1.3118  0.5933
  954MOL0     C31553   8.434   6.368   5.821  0.3634 -0.1699 -0.1386
  954MOL0     C31554   8.559   6.353   5.725 -0.4182 -0.4929 -0.1781
  954MOL0     C31555   8.631   6.485   5.732 -0.4079  0.3226 -0.0051
  954MOL0     C31556   8.779   6.469   5.686  0.3152 -0.3180 -0.2196
  954MOL0     C31557   8.801   6.414   5.544  0.0587 -0.2385  0.0617
  954MOL0     C31558   8.935   6.471   5.486 -0.4926  0.3564 -0.5239
  954MOL0    Cl31559   8.981   6.362   5.345  0.5696  0.0640 -0.0279
  954MOL0     C31560   8.558   6.450   6.424  0.8743  0.5866  0.7528
  954MOL0     C31561   8.578   6.539   6.527 -0.2233 -0.1759 -0.9749
  954MOL0     O31562   8.362   6.740   6.689 -0.1590 -0.1814 -0.4226
  954MOL0     C31563   8.626   6.733   6.914  0.0328 -0.0380 -0.5826
  954MOL0     C31564   8.667   6.758   7.046 -1.2984  0.1386 -0.1284
  954MOL0     N31565   9.197   6.681   7.569 -0.2599  0.5160 -0.4310
  954MOL0     N31566   9.274   6.600   7.637  0.3650  0.4662  0.6338
  954MOL0     C31567   9.301   5.707   6.865  1.0650 -0.3018  0.3269
  954MOL0     C31568   9.211   5.604   6.841 -0.6252  0.1146 -0.2242
  954MOL0     C31569   8.890   5.286   6.831 -0.5454 -0.5270  0.5873
  954MOL0     C31570   8.876   5.237   6.957 -0.4519 -0.7374 -0.5941
  954MOL0     C31571   8.776   5.147   6.985 -0.2267  0.2412  0.3235
  954MOL0     C31572   8.681   5.099   6.886 -0.1440  0.0347  0.2497
  954MOL0     O31573   8.584   5.021   6.933 -0.1172  0.5930 -0.0691
  954MOL0     C31574   8.460   5.012   6.868  0.1132 -0.3746 -0.9521
  954MOL0     C31575   8.348   5.103   6.906  0.4662 -0.2167 -0.3011
  954MOL0     C31576   8.209   5.064   6.849  0.3988  0.1337  0.3218
  954MOL0     C31577   8.086   5.150   6.882 -0.5005 -0.7387  0.5196
  954MOL0     C31578   8.032   5.121   7.016  0.6157  0.0271 -1.1192
  954MOL0     C31579   8.006   5.095   7.136 -0.4200 -0.3958 -0.6831
  954MOL0     C31580   8.692   5.159   6.762 -0.4271  0.2090  0.5093
  954MOL0     C31581   8.800   5.236   6.732  0.3384  1.2842  0.5159
  954MOL0     C31582   8.797   5.296   6.588 -0.8383  0.7705  0.0312
  954MOL0     H31583   9.071   5.569   7.149 -0.4351  2.4344  0.8436
  954MOL0     H31584   9.240   5.735   7.201  2.0166 -3.5464  0.1242
  954MOL0     H31585   9.464   5.800   7.204  1.4740 -0.4134 -0.2512
  954MOL0     H31586   9.345   5.932   7.192  1.9330  0.8102  3.1420
  954MOL0     H31587   9.618   5.995   7.091  1.3908  1.9477  1.6239
  954MOL0     H31588   9.469   6.098   7.117 -0.4715 -0.1171  0.3194
  954MOL0     H31589   9.599   5.976   7.356 -1.1420 -1.6807 -2.9115
  954MOL0     H31590   9.656   6.136   7.291 -0.6334  1.1556 -1.2427
  954MOL0     H31591   9.438   6.226   7.295 -0.8549 -0.5691  1.3540
  954MOL0     H31592   9.360   6.090   7.376 -2.2460  1.9151 -1.6270
  954MOL0     H31593   9.605   6.252   7.487  0.6679 -2.2436 -1.9176
  954MOL0     H31594   9.526   6.130   7.578 -2.6704  1.7485  1.7496
  954MOL0     H31595   9.465   6.378   7.602  0.5385  0.5598 -1.9366
  954MOL0     H31596   9.359   6.351   7.465  0.7297 -0.6194 -1.0870
  954MOL0     H31597   9.348   6.162   7.713 -2.1091 -1.0195  1.3579
  954MOL0     H31598   9.210   6.213   7.606 -0.0692  0.4079  2.2884
  954MOL0     H31599   9.177   6.342   7.812 -2.2368  4.9729  0.1457
  954MOL0     H31600   9.346   6.390   7.804 -1.0956  0.0436  0.9197
  954MOL0     H31601   8.994   6.430   7.618  0.5158 -1.5414 -0.2681
  954MOL0     H31602   8.869   6.625   7.520  0.1901 -2.3921 -0.5088
  954MOL0     H31603   8.960   6.607   7.374  1.2549  2.5759 -0.9472
  954MOL0     H31604   8.905   6.858   7.534  2.0547  2.2374 -0.0940
  954MOL0     H31605   9.046   6.850   7.435 -0.4249 -0.0806 -2.8457
  954MOL0     H31606   8.854   6.952   7.311 -1.0465 -0.1849  0.3444
  954MOL0     H31607   8.902   6.805   7.221  1.4673 -0.4761  1.0178
  954MOL0     H31608   8.718   6.681   7.324 -1.4459 -0.8472 -0.7007
  954MOL0     H31609   8.690   6.806   7.443  2.3080  1.9014  1.2901
  954MOL0     H31610   8.467   7.003   7.132 -0.9578 -0.3217 -1.7831
  954MOL0     H31611   8.326   7.064   6.946 -1.5863 -2.2773  2.0267
  954MOL0     H31612   8.271   6.932   6.851  0.1111  0.3512  2.1118
  954MOL0     H31613   8.395   7.044   6.783 -1.4744 -2.0829 -2.1426
  954MOL0     H31614   8.495   6.825   6.372 -0.5637  1.0638  0.6017
  954MOL0     H31615   8.461   6.677   6.190  0.5922  2.6524  2.3693
  954MOL0     H31616   8.336   6.462   6.080  0.5180  2.8464 -1.8233
  954MOL0     H31617   8.488   6.536   6.032  2.3638 -0.7865 -0.2426
  954MOL0     H31618   8.585   6.327   5.970 -0.4336  1.7056  0.5314
  954MOL0     H31619   8.438   6.234   5.991  0.2868 -1.5855  1.0152
  954MOL0     H31620   8.390   6.468   5.809 -0.1781 -0.5932 -2.2421
  954MOL0     H31621   8.355   6.304   5.778  0.6031 -1.7502  1.6575
  954MOL0     H31622   8.518   6.347   5.624  0.2423  2.1378 -0.6828
  954MOL0     H31623   8.624   6.268   5.749 -0.6571 -0.2047  1.7098
  954MOL0     H31624   8.586   6.548   5.655  4.3261  0.4223 -3.0666
  954MOL0     H31625   8.620   6.529   5.832  0.5369 -3.2271  1.8188
  954MOL0     H31626   8.832   6.400   5.753  1.8886  0.6780 -0.3962
  954MOL0     H31627   8.827   6.567   5.694  0.2440 -0.3995  1.6698
  954MOL0     H31628   8.718   6.439   5.477 -1.6040 -0.0147  2.1188
  954MOL0     H31629   8.803   6.304   5.552 -0.5461 -0.2763 -0.2958
  954MOL0     H31630   9.007   6.490   5.566 -0.4846  4.9177 -1.3570
  954MOL0     H31631   8.920   6.570   5.443  1.4241  0.0002 -2.1755
  954MOL0     H31632   8.591   6.349   6.445 -0.3073  0.2691  1.1424
  954MOL0     H31633   8.642   6.508   6.609  1.4478  1.1270 -1.7280
  954MOL0     H31634   8.683   6.667   6.850 -2.0768 -0.7207 -1.8762
  954MOL0     H31635   8.749   6.699   7.084 -0.9072 -0.4389 -1.7723
  954MOL0     H31636   9.374   5.732   6.789 -0.0729 -0.7401 -0.9428
  954MOL0     H31637   9.222   5.552   6.746  0.1680  0.8413 -0.5447
  954MOL0     H31638   8.930   5.264   7.047  0.0187 -0.7252 -0.8775
  954MOL0     H31639   8.773   5.115   7.089  0.4750  2.5994  1.1356
  954MOL0     H31640   8.464   5.013   6.759  2.1723 -1.6531 -0.9377
  954MOL0     H31641   8.427   4.909   6.882 -0.2765 -0.1546 -0.2230
  954MOL0     H31642   8.369   5.205   6.871 -1.4175  0.2323 -0.2396
  954MOL0     H31643   8.342   5.100   7.015  0.6310  2.2915 -0.1559
  954MOL0     H31644   8.229   5.077   6.742 -0.2131 -1.9574 -0.0868
  954MOL0     H31645   8.185   4.961   6.878  2.0386 -0.9808 -2.0237
  954MOL0     H31646   8.010   5.146   6.804  1.5448 -1.1629 -1.5400
  954MOL0     H31647   8.116   5.255   6.886 -0.5121 -0.7488  0.9129
  954MOL0     H31648   7.974   5.085   7.238 -2.6783  1.7051 -1.1005
  954MOL0     H31649   8.608   5.157   6.694  0.9379  0.7915 -1.2827
  954MOL0     H31650   8.734   5.240   6.519 -1.7396  1.0506  0.6198
  954MOL0     H31651   8.765   5.401   6.591  2.5904  1.9525  0.0844
  954MOL0     H31652   8.899   5.292   6.547 -0.0761 -0.3692  1.9138
  955MOL0     O31653   8.101   3.380  11.293 -0.4991 -0.3710 -0.1131
  955MOL0     C31654   8.044   3.331  11.199  0.5463  0.4879 -0.7416
  955MOL0     O31655   7.911   3.312  11.192 -0.1395  0.5679 -0.0063
  955MOL0     C31656   7.828   3.377  11.280 -0.0659  1.2040  0.8250
  955MOL0     C31657   7.831   3.325  11.413 -0.1716 -0.3054 -0.4176
  955MOL0     C31658   7.731   3.367  11.496  0.1254 -0.5661  0.2776
  955MOL0     C31659   7.647   3.481  11.460  0.4395 -0.8817 -0.6955
  955MOL0     O31660   7.566   3.537  11.563  0.3590 -0.4801 -0.1378
  955MOL0     C31661   7.424   3.503  11.548 -0.2808  1.0594  0.1663
  955MOL0     C31662   7.358   3.540  11.683  0.3233 -0.0139 -0.4088
  955MOL0     C31663   7.431   3.457  11.789 -0.3988  0.5941  0.4897
  955MOL0     C31664   7.402   3.305  11.790  0.2691 -0.2026 -0.6488
  955MOL0     C31665   7.493   3.239  11.896  0.0640  0.8392 -0.5457
  955MOL0     C31666   7.448   3.100  11.915 -0.0108  0.2122  0.8333
  955MOL0     C31667   7.340   3.074  12.028  0.1563  0.1077  0.0515
  955MOL0     C31668   7.289   2.930  12.019  0.0884  0.0966 -0.1869
  955MOL0     N31669   7.372   2.840  12.110  0.2588 -0.7635  0.2425
  955MOL0     C31670   7.504   2.818  12.110 -0.3418 -0.5156 -0.6578
  955MOL0     C31671   7.533   2.745  12.214  0.4969  0.8632 -1.3706
  955MOL0     C31672   7.670   2.722  12.264  0.5854  0.2735 -0.0438
  955MOL0     C31673   7.734   2.609  12.184 -0.0475 -0.0306  0.0173
  955MOL0     C31674   7.891   2.606  12.197 -0.7504 -0.1379 -0.1570
  955MOL0     C31675   7.949   2.476  12.163  0.7227 -0.1015  1.1551
  955MOL0     O31676   7.898   2.365  12.240 -0.3295 -0.0778  0.3710
  955MOL0     C31677   7.964   2.313  12.348 -0.2273  0.0523 -1.2941
  955MOL0     C31678   7.940   2.177  12.395  0.7632 -0.4107  0.1813
  955MOL0     C31679   8.006   2.111  12.494 -0.4169 -0.2041 -0.6117
  955MOL0     C31680   7.982   1.966  12.523  0.3245 -0.0392 -0.1536
  955MOL0     C31681   8.108   2.187  12.561 -0.2440  0.2205  0.2846
  955MOL0     C31682   8.194   2.139  12.673  0.5217 -0.4339  0.0176
  955MOL0     O31683   8.313   2.207  12.681  0.7665  0.1215 -0.0576
  955MOL0     C31684   8.377   2.224  12.804 -0.1240  0.4423 -0.4365
  955MOL0     C31685   8.519   2.215  12.802 -0.3308  1.0801  0.1107
  955MOL0     C31686   8.595   2.199  12.918  0.1500  0.6013 -0.9838
  955MOL0     C31687   8.531   2.170  13.045  0.1582 -0.1834  0.0832
  955MOL0     O31688   8.599   2.151  13.162  0.2221  0.6489 -0.7799
  955MOL0     C31689   8.738   2.117  13.151  0.1662 -0.0765  0.3988
  955MOL0     C31690   8.790   2.069  13.282  0.1002 -0.1060  0.3961
  955MOL0     C31691   8.864   2.165  13.383  0.1471 -0.1867 -0.6779
  955MOL0     C31692   8.778   2.200  13.503 -1.2673 -0.7084 -0.7236
  955MOL0     C31693   8.869   2.266  13.619 -0.0833 -0.4620 -1.3182
  955MOL0     C31694   8.935   2.161  13.713 -0.0235  0.3313 -0.5134
  955MOL0     C31695   9.041   2.214  13.805 -0.1910  0.4751 -0.2352
  955MOL0     C31696   9.062   2.130  13.931 -0.0722  0.2825 -0.1887
  955MOL0    Cl31697   8.920   2.134  14.035 -0.5773  0.6412 -0.3123
  955MOL0     C31698   8.398   2.196  13.056 -0.0579  0.2046  0.0617
  955MOL0     C31699   8.319   2.218  12.933 -1.1248  0.2929 -0.0863
  955MOL0     O31700   8.163   2.037  12.742  0.1734 -0.3366 -0.2294
  955MOL0     C31701   8.118   2.331  12.528 -0.3389 -0.3727 -0.6561
  955MOL0     C31702   8.057   2.386  12.417 -0.0820  0.3385  0.0892
  955MOL0     N31703   7.419   2.723  12.291  0.0144  0.7460 -0.3855
  955MOL0     N31704   7.320   2.773  12.219  0.9686  0.1381 -0.0487
  955MOL0     C31705   7.653   3.541  11.336 -0.2172  0.1421  0.3076
  955MOL0     C31706   7.744   3.483  11.244 -0.6056 -0.2585 -0.0113
  955MOL0     C31707   8.120   3.276  11.079 -1.1292  0.8058  0.0438
  955MOL0     C31708   8.063   3.177  10.996  0.4110 -0.4679  0.7393
  955MOL0     C31709   8.125   3.114  10.895  0.1059  0.3508  0.5753
  955MOL0     C31710   8.253   3.155  10.861  0.2428  0.8782 -0.2301
  955MOL0     O31711   8.331   3.095  10.763 -0.1151 -0.1597  0.1554
  955MOL0     C31712   8.281   2.984  10.690  0.3409 -0.4156  0.2136
  955MOL0     C31713   8.398   2.940  10.587 -0.0394 -0.5973 -0.0871
  955MOL0     C31714   8.367   2.817  10.498 -0.4024  0.0737  0.4341
  955MOL0     C31715   8.314   2.705  10.596 -0.4224  0.9574 -0.1038
  955MOL0     C31716   8.334   2.564  10.537 -0.3111 -0.9781 -0.0500
  955MOL0     C31717   8.344   2.451  10.499 -0.7348 -0.5236 -0.0698
  955MOL0     C31718   8.319   3.243  10.934  0.1967 -0.3079  0.0728
  955MOL0     C31719   8.260   3.311  11.049  1.0618  0.6588 -0.1015
  955MOL0     C31720   8.331   3.421  11.115  0.0808 -0.7311 -0.5878
  955MOL0     H31721   7.889   3.238  11.444  1.4485  1.4413  1.7725
  955MOL0     H31722   7.713   3.322  11.593 -1.0329  4.0408  2.5035
  955MOL0     H31723   7.436   3.395  11.534  1.1143  1.3627 -1.2981
  955MOL0     H31724   7.378   3.553  11.462 -0.0546 -1.7589 -1.7360
  955MOL0     H31725   7.373   3.644  11.712 -0.0474 -0.2543  0.7376
  955MOL0     H31726   7.251   3.516  11.683  0.4729 -0.7165 -1.2505
  955MOL0     H31727   7.539   3.474  11.778 -0.2058 -1.2045 -0.8217
  955MOL0     H31728   7.412   3.509  11.883  1.2949  1.8215  0.2006
  955MOL0     H31729   7.297   3.318  11.818  0.9125 -0.3221  2.1561
  955MOL0     H31730   7.407   3.257  11.692  1.5115  1.7488 -1.5871
  955MOL0     H31731   7.471   3.281  11.995  1.8282 -3.3906  1.9220
  955MOL0     H31732   7.596   3.243  11.861  0.0985 -1.9312 -0.9992
  955MOL0     H31733   7.417   3.047  11.824  1.2149  2.0047 -0.7177
  955MOL0     H31734   7.536   3.051  11.959  0.0022  0.3175  0.9241
  955MOL0     H31735   7.257   3.145  12.027  1.2842  1.4802 -0.8599
  955MOL0     H31736   7.387   3.106  12.121  3.2020  0.4187 -1.4663
  955MOL0     H31737   7.190   2.904  12.057  0.6223 -1.8522  0.0021
  955MOL0     H31738   7.282   2.912  11.911 -0.4957  0.5753 -0.2342
  955MOL0     H31739   7.572   2.869  12.043 -0.8040  0.2234 -0.5761
  955MOL0     H31740   7.664   2.678  12.364 -2.0411  0.4242 -0.0843
  955MOL0     H31741   7.737   2.809  12.259 -1.0404  1.7725  2.2854
  955MOL0     H31742   7.687   2.519  12.225 -0.6697 -0.1592 -0.9714
  955MOL0     H31743   7.711   2.623  12.078  0.9149  0.1388 -0.1843
  955MOL0     H31744   7.930   2.681  12.128 -1.8591  0.2847 -0.3480
  955MOL0     H31745   7.923   2.623  12.301 -0.3995 -0.1274 -0.2654
  955MOL0     H31746   7.923   2.454  12.059  2.4206 -2.2090  1.0881
  955MOL0     H31747   8.057   2.478  12.177  0.3828 -0.2692  4.8736
  955MOL0     H31748   7.857   2.126  12.347  0.4308 -0.6399  0.9799
  955MOL0     H31749   7.905   1.950  12.600  0.4762  1.1668  0.2712
  955MOL0     H31750   8.077   1.914  12.537  0.7069  0.3122 -1.3183
  955MOL0     H31751   7.941   1.914  12.435 -0.5148  0.6501 -0.1856
  955MOL0     H31752   8.560   2.227  12.702  1.3535 -1.8118  0.3505
  955MOL0     H31753   8.702   2.196  12.899 -0.4608  2.0275 -6.5917
  955MOL0     H31754   8.758   2.040  13.077 -0.4129  2.1225 -2.2294
  955MOL0     H31755   8.775   2.216  13.121  0.5489  0.5895  2.8325
  955MOL0     H31756   8.705   2.017  13.329  0.2873 -2.7904 -1.9709
  955MOL0     H31757   8.873   2.002  13.258 -0.7733 -1.7111  1.6053
  955MOL0     H31758   8.883   2.260  13.333 -3.8846  0.9109 -0.4790
  955MOL0     H31759   8.960   2.123  13.415  0.8153  2.3560  1.0039
  955MOL0     H31760   8.724   2.112  13.540 -0.9392  0.0882  1.9068
  955MOL0     H31761   8.708   2.276  13.469  0.9954  1.8148 -0.0389
  955MOL0     H31762   8.956   2.317  13.577  0.1782  0.7734  0.6287
  955MOL0     H31763   8.808   2.338  13.673  1.5428  2.0713 -2.6573
  955MOL0     H31764   8.984   2.084  13.653  2.6962  0.8230  0.9212
  955MOL0     H31765   8.858   2.113  13.773 -0.0187  0.1056 -0.6865
  955MOL0     H31766   9.017   2.311  13.848  0.2283 -0.3546  2.0577
  955MOL0     H31767   9.138   2.224  13.755 -0.0641  1.4890  0.1832
  955MOL0     H31768   9.148   2.167  13.987 -1.0103  2.0792  0.1275
  955MOL0     H31769   9.073   2.030  13.888  1.0360  0.5543 -0.5605
  955MOL0     H31770   8.340   2.205  13.147 -1.0831  1.3236 -0.6755
  955MOL0     H31771   8.211   2.207  12.936 -1.0900 -2.1084 -3.2993
  955MOL0     H31772   8.178   2.396  12.591  0.2750 -2.7942  1.3955
  955MOL0     H31773   8.067   2.492  12.397  1.6745 -0.0927 -1.5432
  955MOL0     H31774   7.588   3.624  11.307 -0.1090  0.8947  2.1024
  955MOL0     H31775   7.746   3.528  11.146  2.1785  0.9880  0.5322
  955MOL0     H31776   7.962   3.141  11.017 -0.0240  1.9211  3.3909
  955MOL0     H31777   8.057   3.041  10.850 -3.4662  2.4228  2.1452
  955MOL0     H31778   8.242   2.914  10.764 -0.9353  1.2973  1.2428
  955MOL0     H31779   8.196   3.008  10.624  0.4601  0.1580  0.2665
  955MOL0     H31780   8.485   2.920  10.650  0.5268  0.1315 -0.6295
  955MOL0     H31781   8.418   3.025  10.521 -1.8196  0.4076  0.5766
  955MOL0     H31782   8.291   2.844  10.424  1.2621 -0.3426 -1.5203
  955MOL0     H31783   8.454   2.776  10.445 -0.6496 -0.6444  0.5817
  955MOL0     H31784   8.205   2.714  10.608 -0.8473 -1.9931 -1.0959
  955MOL0     H31785   8.369   2.703  10.691  0.2060  3.0109 -0.3645
  955MOL0     H31786   8.355   2.358  10.447  2.6451  1.0160 -2.4812
  955MOL0     H31787   8.421   3.270  10.910 -0.6990  2.2878 -1.1501
  955MOL0     H31788   8.300   3.525  11.099  1.9526  0.7278  3.6288
  955MOL0     H31789   8.328   3.418  11.224  4.1143  1.9458 -0.1627
  955MOL0     H31790   8.440   3.406  11.111  0.6958  1.2989  3.4150
  956MOL0     O31791   2.182   0.226   6.276 -0.0055  0.1205  0.0902
  956MOL0     C31792   2.241   0.315   6.218  0.9523 -0.1748 -0.0118
  956MOL0     O31793   2.225   0.444   6.243  0.9221  0.1768 -0.6272
  956MOL0     C31794   2.164   0.487   6.363  0.4764 -0.5842 -0.0442
  956MOL0     C31795   2.244   0.543   6.463 -0.8633  0.3798 -0.0279
  956MOL0     C31796   2.194   0.577   6.585  0.0385 -0.1033 -0.4531
  956MOL0     C31797   2.060   0.550   6.618 -0.3640  0.8655  0.1000
  956MOL0     O31798   2.005   0.577   6.734  0.9384 -0.1603  0.0319
  956MOL0     C31799   2.080   0.626   6.844 -0.1555  0.2702  0.3744
  956MOL0     C31800   1.999   0.651   6.988 -0.1446 -0.0087  0.3021
  956MOL0     C31801   2.088   0.739   7.086 -0.3030  0.6693 -0.2169
  956MOL0     C31802   2.148   0.666   7.202  0.3765 -0.4114 -0.4078
  956MOL0     C31803   2.209   0.758   7.304 -0.1873  0.5827 -0.5825
  956MOL0     C31804   2.296   0.694   7.416  0.7863 -0.5752 -0.9113
  956MOL0     C31805   2.439   0.665   7.344  0.5383  0.1622 -0.1197
  956MOL0     C31806   2.540   0.596   7.438 -0.7497  0.4446  0.1933
  956MOL0     N31807   2.664   0.563   7.355 -0.2819 -0.6943 -0.0809
  956MOL0     C31808   2.765   0.649   7.335  0.4664 -1.0415  0.3673
  956MOL0     C31809   2.863   0.582   7.296  0.1035 -0.1943 -0.3199
  956MOL0     C31810   2.990   0.652   7.267 -0.5357 -0.0130  0.7191
  956MOL0     C31811   3.123   0.563   7.274  0.3685 -0.6175  0.1683
  956MOL0     C31812   3.251   0.640   7.245 -0.3601  0.1132  0.5032
  956MOL0     C31813   3.244   0.719   7.125  0.5670 -0.1054  0.5474
  956MOL0     O31814   3.195   0.650   7.013  0.2875 -0.6530 -0.1587
  956MOL0     C31815   3.262   0.700   6.904 -0.4861 -0.1042 -0.3738
  956MOL0     C31816   3.315   0.618   6.802  0.5136 -0.3615  0.0033
  956MOL0     C31817   3.389   0.663   6.688 -0.9264 -0.0818  0.8963
  956MOL0     C31818   3.471   0.551   6.614  0.4740  0.5156  0.4326
  956MOL0     C31819   3.404   0.805   6.656  0.0891 -0.6521 -0.0289
  956MOL0     C31820   3.472   0.860   6.536  0.9266 -1.1522  0.0856
  956MOL0     O31821   3.444   0.995   6.507  0.6044  0.2704 -0.8306
  956MOL0     C31822   3.488   1.053   6.388 -0.0480 -0.2033 -0.9152
  956MOL0     C31823   3.603   1.027   6.320  0.1593 -0.0207  0.3994
  956MOL0     C31824   3.620   1.074   6.188  0.5147 -0.9305 -0.7125
  956MOL0     C31825   3.528   1.159   6.130  0.6284  0.3393 -0.2643
  956MOL0     O31826   3.542   1.214   6.007  1.2912 -0.0026  0.5700
  956MOL0     C31827   3.634   1.154   5.911  0.8396 -0.1330 -0.7897
  956MOL0     C31828   3.605   1.205   5.760 -1.0506  0.1955  0.2552
  956MOL0     C31829   3.704   1.148   5.663  0.0164 -0.0069  1.2194
  956MOL0     C31830   3.686   0.996   5.624  0.5298  0.0685 -0.0843
  956MOL0     C31831   3.780   0.960   5.508 -0.4109 -0.6164  0.8374
  956MOL0     C31832   3.801   0.806   5.490  0.6685 -0.7335 -0.2426
  956MOL0     C31833   3.890   0.756   5.605  0.0964  0.5367  0.6169
  956MOL0     C31834   3.937   0.619   5.584  0.2530 -0.5552  0.2264
  956MOL0    Cl31835   4.047   0.588   5.445 -1.0719  0.0140 -0.4106
  956MOL0     C31836   3.418   1.189   6.206  0.1202 -0.5715  0.1313
  956MOL0     C31837   3.398   1.130   6.332  0.4552  0.7283 -0.1923
  956MOL0     O31838   3.550   0.790   6.473 -0.8213 -0.2661  0.6632
  956MOL0     C31839   3.346   0.885   6.758  0.0520  0.6813  0.0329
  956MOL0     C31840   3.280   0.838   6.871  0.4649 -0.0024 -0.1480
  956MOL0     N31841   2.839   0.449   7.300 -0.0177  0.0626 -0.3147
  956MOL0     N31842   2.709   0.436   7.333  0.8654  0.2150  0.0518
  956MOL0     C31843   1.976   0.482   6.517 -0.4092 -0.2358 -0.6732
  956MOL0     C31844   2.027   0.465   6.388 -1.0099 -0.2748 -0.3921
  956MOL0     C31845   2.310   0.288   6.087 -0.4559 -0.7461 -0.9654
  956MOL0     C31846   2.332   0.398   6.003  0.1689  0.4747  0.1469
  956MOL0     C31847   2.389   0.381   5.875 -0.0893  0.6786  0.8663
  956MOL0     C31848   2.420   0.253   5.825 -0.4700 -0.4159 -0.5932
  956MOL0     O31849   2.442   0.221   5.698 -0.6213 -0.5667  0.0441
  956MOL0     C31850   2.492   0.329   5.606 -0.1371 -0.1715  0.4730
  956MOL0     C31851   2.569   0.268   5.475  0.3587  0.1413 -0.1053
  956MOL0     C31852   2.474   0.167   5.413 -0.3024 -0.5190  0.0492
  956MOL0     C31853   2.545   0.131   5.279  0.0435 -0.2890 -0.5742
  956MOL0     C31854   2.478   0.022   5.204 -0.1442  0.1437  0.9357
  956MOL0     C31855   2.439  -0.077   5.148 -0.1288  0.3356  0.4243
  956MOL0     C31856   2.412   0.146   5.914 -0.1571 -0.4160  0.3166
  956MOL0     C31857   2.353   0.161   6.043  0.0086 -0.0978  0.5181
  956MOL0     C31858   2.324   0.031   6.121 -0.7787  0.6243  0.0616
  956MOL0     H31859   2.351   0.547   6.444 -1.0341 -0.7201 -1.3424
  956MOL0     H31860   2.268   0.614   6.656 -0.5976  1.0443 -0.3513
  956MOL0     H31861   2.109   0.729   6.822 -0.4549  0.3327  0.2725
  956MOL0     H31862   2.173   0.572   6.867  2.4498  4.4856  0.8204
  956MOL0     H31863   1.899   0.693   6.976  0.1655  0.9039  0.8413
  956MOL0     H31864   1.987   0.550   7.029  0.3822 -0.3625 -0.3813
  956MOL0     H31865   2.172   0.782   7.032 -1.0353  1.0310 -1.0968
  956MOL0     H31866   2.034   0.826   7.125 -1.2798  0.2233 -0.5343
  956MOL0     H31867   2.075   0.603   7.254  0.5152  0.8877  1.4541
  956MOL0     H31868   2.224   0.598   7.162  0.8640  1.0383 -2.1074
  956MOL0     H31869   2.122   0.801   7.354 -2.0261 -1.8709 -1.4463
  956MOL0     H31870   2.277   0.830   7.257  1.4640 -1.4699 -1.4839
  956MOL0     H31871   2.309   0.758   7.503 -0.3605  0.7007 -1.6352
  956MOL0     H31872   2.244   0.606   7.453  2.2148  0.2672  3.6975
  956MOL0     H31873   2.484   0.752   7.296  2.2628 -0.8593 -0.4409
  956MOL0     H31874   2.417   0.597   7.262 -1.7675  1.6968 -0.8673
  956MOL0     H31875   2.585   0.668   7.506  3.9715  1.5815 -3.5791
  956MOL0     H31876   2.486   0.517   7.492 -4.0731  2.1920 -0.2887
  956MOL0     H31877   2.771   0.758   7.337 -0.9821 -0.8424 -2.0286
  956MOL0     H31878   2.998   0.728   7.346  0.7043 -0.6504  1.2235
  956MOL0     H31879   2.985   0.708   7.173  0.2523 -0.2553  0.5317
  956MOL0     H31880   3.133   0.511   7.369 -2.2128  1.8072  1.9445
  956MOL0     H31881   3.122   0.482   7.200 -1.5919  0.0966 -0.6687
  956MOL0     H31882   3.262   0.708   7.330 -1.9849 -3.1391  3.5770
  956MOL0     H31883   3.332   0.568   7.244  0.4935  1.0133  1.7825
  956MOL0     H31884   3.172   0.800   7.142 -2.3888 -2.6902  1.4224
  956MOL0     H31885   3.347   0.755   7.122  0.2762  1.2216  3.2682
  956MOL0     H31886   3.320   0.513   6.829  2.1949 -0.2759  0.1284
  956MOL0     H31887   3.473   0.461   6.676  1.2287  0.0785 -0.2130
  956MOL0     H31888   3.573   0.588   6.595  0.9376 -0.3807  1.0652
  956MOL0     H31889   3.429   0.521   6.518 -0.8978  1.5390  0.6832
  956MOL0     H31890   3.671   0.960   6.372 -0.9515 -0.1318  1.7805
  956MOL0     H31891   3.708   1.045   6.132  0.0430 -0.5524 -1.6578
  956MOL0     H31892   3.740   1.169   5.935  0.8850  0.4619 -1.3336
  956MOL0     H31893   3.615   1.046   5.917 -0.9016  0.0526 -2.0905
  956MOL0     H31894   3.509   1.165   5.724 -0.9033  1.0659 -1.2112
  956MOL0     H31895   3.602   1.314   5.747  1.3667  0.3393  0.5301
  956MOL0     H31896   3.808   1.161   5.693  0.4086  0.2422 -0.2018
  956MOL0     H31897   3.690   1.211   5.574 -3.4907 -1.3743  0.6071
  956MOL0     H31898   3.584   0.967   5.597 -0.1693 -0.6722  2.9743
  956MOL0     H31899   3.705   0.933   5.712  0.7777  2.7255  1.8864
  956MOL0     H31900   3.727   1.001   5.422 -0.3580  0.1123  1.1409
  956MOL0     H31901   3.876   1.011   5.515 -1.8578  2.3061  1.0661
  956MOL0     H31902   3.861   0.787   5.401  0.6785  0.5017 -0.5209
  956MOL0     H31903   3.703   0.757   5.488  0.6719 -1.1102  3.2879
  956MOL0     H31904   3.829   0.763   5.696  0.9637  0.4915  1.2173
  956MOL0     H31905   3.980   0.816   5.620  1.0173 -0.2944 -1.3165
  956MOL0     H31906   3.856   0.545   5.591 -2.3298  2.1421  0.6765
  956MOL0     H31907   4.000   0.599   5.671  0.5117  0.7744  0.3560
  956MOL0     H31908   3.338   1.251   6.165 -0.0047 -0.9138 -0.1526
  956MOL0     H31909   3.303   1.134   6.385  1.3144 -2.1192  1.8058
  956MOL0     H31910   3.350   0.994   6.758  0.0774  0.7948  3.2691
  956MOL0     H31911   3.236   0.912   6.936  0.9186 -0.4462  0.6865
  956MOL0     H31912   1.870   0.466   6.538 -0.4782 -0.1433 -0.9408
  956MOL0     H31913   1.970   0.437   6.300 -1.8527  0.9360 -0.2489
  956MOL0     H31914   2.285   0.494   6.019 -1.7214 -0.6150  1.5607
  956MOL0     H31915   2.381   0.468   5.810 -0.7075  1.1521  1.5482
  956MOL0     H31916   2.410   0.397   5.580 -1.6708 -1.8723  0.6283
  956MOL0     H31917   2.567   0.388   5.661  0.0849 -1.0918  1.1873
  956MOL0     H31918   2.659   0.223   5.519  0.2327 -0.1086 -0.1018
  956MOL0     H31919   2.592   0.350   5.406  0.8963 -0.0128 -0.1132
  956MOL0     H31920   2.450   0.082   5.478 -0.1416 -0.8195 -0.2790
  956MOL0     H31921   2.378   0.211   5.386  1.7301  3.5590 -1.2229
  956MOL0     H31922   2.653   0.114   5.285 -0.1634 -2.9676 -2.4543
  956MOL0     H31923   2.528   0.218   5.214  0.7631 -0.4188 -0.9479
  956MOL0     H31924   2.398  -0.159   5.091 -2.7696  1.2537  0.8796
  956MOL0     H31925   2.450   0.052   5.876  0.2297 -0.3156  0.4484
  956MOL0     H31926   2.221  -0.003   6.110 -1.1433 -0.7268  4.9336
  956MOL0     H31927   2.392  -0.053   6.104 -1.9455 -0.1925 -0.7364
  956MOL0     H31928   2.329   0.042   6.230 -0.5767  0.5750  0.0577
  957MOL0     O31929   9.742   6.165   6.952  0.0450 -0.3166 -0.2207
  957MOL0     C31930   9.748   6.290   6.928 -0.3611 -0.3051  0.1133
  957MOL0     O31931   9.636   6.376   6.903 -0.0437 -0.2588  0.2701
  957MOL0     C31932   9.510   6.323   6.924  0.1892 -1.0399 -0.0532
  957MOL0     C31933   9.421   6.373   7.027  0.2152  0.0940  0.0396
  957MOL0     C31934   9.289   6.326   7.040  0.1373 -0.1639  0.3166
  957MOL0     C31935   9.247   6.231   6.954 -0.1344  1.4537  0.9723
  957MOL0     O31936   9.122   6.174   6.979 -0.2121 -0.6682  0.5885
  957MOL0     C31937   9.124   6.052   7.047 -0.5573  0.0780 -0.0977
  957MOL0     C31938   8.992   6.005   7.095  0.2668  0.7021 -0.1067
  957MOL0     C31939   8.874   5.988   6.986 -0.3637  0.5445  0.5803
  957MOL0     C31940   8.903   5.859   6.897  0.2391 -0.3361  0.0890
  957MOL0     C31941   8.804   5.848   6.773  0.4721  0.0225 -0.1889
  957MOL0     C31942   8.750   5.700   6.762  0.2697  0.3340  0.1391
  957MOL0     C31943   8.639   5.671   6.869  1.2196 -0.5864  0.5241
  957MOL0     C31944   8.558   5.548   6.826  0.6688  1.0444 -0.7659
  957MOL0     N31945   8.418   5.541   6.881 -0.5424  0.3611  0.7147
  957MOL0     C31946   8.389   5.491   7.008  0.5647  0.4085  0.6940
  957MOL0     C31947   8.254   5.492   6.998  0.2906 -0.8543 -0.5105
  957MOL0     C31948   8.167   5.463   7.122  0.2352  0.1367 -0.2011
  957MOL0     C31949   8.104   5.588   7.183 -0.3288 -0.3256  0.2381
  957MOL0     C31950   8.039   5.570   7.318 -0.2864  0.7563 -0.3007
  957MOL0     C31951   7.904   5.499   7.318 -0.0139  0.7658  0.5411
  957MOL0     O31952   7.800   5.600   7.301  0.7847 -0.1104 -0.2560
  957MOL0     C31953   7.685   5.559   7.251  0.3189 -0.2065  0.7096
  957MOL0     C31954   7.633   5.429   7.259 -0.0235 -0.5127 -0.7159
  957MOL0     C31955   7.507   5.393   7.208 -0.5947 -0.4071  0.7907
  957MOL0     C31956   7.472   5.253   7.209 -0.2731 -0.3083  0.5888
  957MOL0     C31957   7.418   5.497   7.163  0.1551  0.2593 -0.0047
  957MOL0     C31958   7.275   5.486   7.120 -0.8723 -0.5703  0.2089
  957MOL0     O31959   7.189   5.585   7.135 -0.3883 -0.3802 -1.4413
  957MOL0     C31960   7.054   5.579   7.096 -0.6237 -0.0849  0.2539
  957MOL0     C31961   6.973   5.465   7.082  0.0971 -0.9435  0.5091
  957MOL0     C31962   6.833   5.484   7.067 -0.0212 -1.0911  0.1770
  957MOL0     C31963   6.775   5.609   7.079 -0.1620 -0.6200 -1.0420
  957MOL0     O31964   6.636   5.617   7.081 -0.0286 -0.0028 -0.2710
  957MOL0     C31965   6.576   5.689   7.191 -1.0097 -0.9368  0.2843
  957MOL0     C31966   6.465   5.615   7.264 -0.4530  0.0594  0.2282
  957MOL0     C31967   6.503   5.501   7.359 -0.0932 -0.0445  0.4961
  957MOL0     C31968   6.474   5.355   7.318  0.2832  0.1693 -0.2617
  957MOL0     C31969   6.477   5.321   7.170  0.5961 -0.1464 -0.8740
  957MOL0     C31970   6.432   5.172   7.145  0.0504  0.4045  0.3647
  957MOL0     C31971   6.509   5.115   7.023 -0.4605 -0.9438 -0.1596
  957MOL0     C31972   6.498   4.965   6.998 -0.4990  0.6581 -0.3024
  957MOL0    Cl31973   6.504   4.862   7.143  0.2521 -0.4121  0.2321
  957MOL0     C31974   6.861   5.721   7.093  0.2596 -0.7850  0.3701
  957MOL0     C31975   6.995   5.707   7.096  0.4894  0.3484  0.1059
  957MOL0     O31976   7.249   5.384   7.050 -0.1292  0.2671  0.5896
  957MOL0     C31977   7.468   5.628   7.166 -0.6624 -0.8622 -0.4081
  957MOL0     C31978   7.601   5.659   7.207 -1.2456  0.0352  0.6573
  957MOL0     N31979   8.210   5.547   6.887  0.5967  0.2252  0.1906
  957MOL0     N31980   8.312   5.560   6.808  0.5146 -0.0275  1.0047
  957MOL0     C31981   9.327   6.179   6.857 -0.5788  0.5195  0.0371
  957MOL0     C31982   9.464   6.224   6.837  0.4013 -0.6389  0.6760
  957MOL0     C31983   9.881   6.360   6.932 -0.3314  0.3063  1.0085
  957MOL0     C31984   9.984   6.322   7.018 -0.1006 -0.4637  0.5474
  957MOL0     C31985  10.104   6.393   7.024  0.3105 -0.5740  0.3370
  957MOL0     C31986  10.123   6.511   6.950 -0.3169 -0.5120 -0.2557
  957MOL0     O31987  10.238   6.581   6.973  0.3735  0.7976  0.9255
  957MOL0     C31988  10.230   6.718   6.966 -0.8282 -0.7663 -0.3497
  957MOL0     C31989  10.305   6.765   6.834 -0.3108  0.0695 -0.0207
  957MOL0     C31990  10.456   6.760   6.830  0.0913  0.9061 -0.4367
  957MOL0     C31991  10.514   6.806   6.688  0.7270  0.5232 -0.2675
  957MOL0     C31992  10.529   6.689   6.604  0.2946  0.2025 -0.9775
  957MOL0     C31993  10.548   6.593   6.536  1.2665  0.8641  0.6393
  957MOL0     C31994  10.017   6.549   6.867  0.1672 -0.1041  1.1777
  957MOL0     C31995   9.899   6.478   6.856 -0.8668 -0.0962  0.0180
  957MOL0     C31996   9.814   6.532   6.740  0.0175 -0.9579  0.4533
  957MOL0     H31997   9.445   6.449   7.101 -7.5012  1.0570  2.3739
  957MOL0     H31998   9.223   6.365   7.117  1.0540  0.1440  0.9633
  957MOL0     H31999   9.188   6.065   7.135 -0.1376 -0.4764 -0.3099
  957MOL0     H32000   9.177   5.987   6.977  2.5091  3.1975 -0.9747
  957MOL0     H32001   8.998   5.904   7.137 -0.0198  0.8317  0.2479
  957MOL0     H32002   8.944   6.069   7.170 -2.0804 -1.7558  0.6578
  957MOL0     H32003   8.775   5.973   7.029 -0.2873  1.8569  1.2630
  957MOL0     H32004   8.873   6.080   6.927  0.3882  0.5293  0.5237
  957MOL0     H32005   9.006   5.855   6.860 -0.5970 -1.2707 -2.3267
  957MOL0     H32006   8.890   5.771   6.961 -0.0535  0.1622  0.7246
  957MOL0     H32007   8.847   5.862   6.674 -0.7777  0.5892 -0.6850
  957MOL0     H32008   8.721   5.920   6.779 -1.7151 -2.3895  0.1367
  957MOL0     H32009   8.700   5.685   6.665  1.4903 -0.5918 -0.3704
  957MOL0     H32010   8.833   5.630   6.770  0.8867  0.8844 -1.1722
  957MOL0     H32011   8.573   5.757   6.874  0.7369 -0.7511 -1.7835
  957MOL0     H32012   8.674   5.660   6.972  0.3011 -0.0020  0.9096
  957MOL0     H32013   8.551   5.552   6.717 -0.2312 -0.7771 -0.8148
  957MOL0     H32014   8.608   5.454   6.849  0.2989  1.2784  1.1754
  957MOL0     H32015   8.446   5.463   7.096  2.4481  1.1138 -0.2413
  957MOL0     H32016   8.229   5.412   7.196  0.3804  1.7670  0.8539
  957MOL0     H32017   8.089   5.390   7.097  0.1650  0.1854 -0.1290
  957MOL0     H32018   8.189   5.654   7.201 -2.1045  1.6284  2.0074
  957MOL0     H32019   8.045   5.643   7.108 -0.1376  2.9195  2.2738
  957MOL0     H32020   8.107   5.518   7.386  1.5257  1.4851 -1.4901
  957MOL0     H32021   8.028   5.667   7.369  2.2343 -0.6801  3.4382
  957MOL0     H32022   7.906   5.413   7.251  2.1332 -0.4790  2.0899
  957MOL0     H32023   7.876   5.450   7.412  0.3522 -2.4214 -0.8854
  957MOL0     H32024   7.698   5.349   7.294 -1.4520 -0.6824  1.7857
  957MOL0     H32025   7.376   5.242   7.260  0.5549  1.0697  2.5752
  957MOL0     H32026   7.544   5.195   7.267 -3.6706 -5.3746  0.3688
  957MOL0     H32027   7.467   5.228   7.103  1.1540  0.9871  0.1866
  957MOL0     H32028   7.005   5.362   7.089 -0.6756 -1.2321 -0.0943
  957MOL0     H32029   6.768   5.400   7.045 -2.8598  0.9751  0.2683
  957MOL0     H32030   6.651   5.720   7.264 -0.8498 -1.1283  0.2021
  957MOL0     H32031   6.540   5.781   7.144  3.3522 -0.2535 -2.1773
  957MOL0     H32032   6.424   5.690   7.332  4.5049  1.1491  2.4804
  957MOL0     H32033   6.385   5.583   7.197 -0.6896 -0.8707  0.9313
  957MOL0     H32034   6.465   5.519   7.460  0.7925  1.1781  0.6294
  957MOL0     H32035   6.612   5.501   7.364  0.2219 -1.8120 -3.3283
  957MOL0     H32036   6.369   5.342   7.346  0.0444 -0.7449 -1.5188
  957MOL0     H32037   6.537   5.282   7.370 -0.1087  0.9133  1.3211
  957MOL0     H32038   6.408   5.378   7.107  0.2349  1.7456  1.1145
  957MOL0     H32039   6.580   5.347   7.144  1.1297  0.5513  1.6761
  957MOL0     H32040   6.325   5.163   7.122 -0.1321 -1.5944  1.7016
  957MOL0     H32041   6.451   5.126   7.242 -0.8187  1.0263  0.8479
  957MOL0     H32042   6.614   5.144   7.038  0.0610  0.6114 -5.0111
  957MOL0     H32043   6.484   5.171   6.932 -2.8210 -0.1513  0.8939
  957MOL0     H32044   6.586   4.933   6.942  0.1315 -2.1668  2.0171
  957MOL0     H32045   6.420   4.925   6.933 -0.0933 -1.9573  0.7053
  957MOL0     H32046   6.836   5.826   7.103  0.4187 -0.5981 -1.0270
  957MOL0     H32047   7.050   5.796   7.124  2.1685 -1.0591  1.5755
  957MOL0     H32048   7.408   5.711   7.130 -2.0536 -2.1284 -1.1326
  957MOL0     H32049   7.632   5.762   7.197  0.9061 -0.7530 -1.7109
  957MOL0     H32050   9.304   6.079   6.822 -0.6220 -0.7115  3.2555
  957MOL0     H32051   9.531   6.194   6.758  0.2884  0.2644  0.2212
  957MOL0     H32052   9.963   6.233   7.077  0.9251  0.3632  2.2671
  957MOL0     H32053  10.178   6.366   7.098 -0.4124  1.9700  2.1144
  957MOL0     H32054  10.133   6.769   6.972  0.5241  1.8800  1.4913
  957MOL0     H32055  10.288   6.763   7.048  0.0280 -0.5895 -1.0377
  957MOL0     H32056  10.272   6.865   6.804  1.4110  0.1930 -1.6943
  957MOL0     H32057  10.272   6.703   6.751  1.9870 -1.0554 -0.1790
  957MOL0     H32058  10.495   6.831   6.903 -1.3908 -0.2062  1.5328
  957MOL0     H32059  10.492   6.660   6.857 -0.9660  1.5369  4.0612
  957MOL0     H32060  10.609   6.858   6.704  0.8640 -0.5472  3.0201
  957MOL0     H32061  10.441   6.875   6.642  0.1541  0.0722 -0.0461
  957MOL0     H32062  10.560   6.506   6.476 -1.9256 -0.5569  1.8102
  957MOL0     H32063  10.019   6.639   6.807  1.0566 -2.0532 -1.9890
  957MOL0     H32064   9.729   6.591   6.774 -1.2325 -3.0158  1.0693
  957MOL0     H32065   9.875   6.589   6.669  1.5973 -1.0902  1.6525
  957MOL0     H32066   9.764   6.453   6.683  1.2494 -2.5359  1.4684
  958MOL0     O32067   2.572  10.975   3.333  0.0466  0.3932  0.5971
  958MOL0     C32068   2.563  11.015   3.450 -0.6480 -0.4953  0.2202
  958MOL0     O32069   2.587  10.943   3.560  1.0540  0.6307 -0.5486
  958MOL0     C32070   2.615  10.809   3.556  0.3303  0.2765  0.0238
  958MOL0     C32071   2.523  10.718   3.493  0.4297  0.1057  0.0225
  958MOL0     C32072   2.565  10.579   3.480 -0.7520  0.5056  0.1167
  958MOL0     C32073   2.686  10.532   3.534  0.1602  0.4182 -0.8446
  958MOL0     O32074   2.734  10.399   3.529  0.5298 -0.7165  0.5073
  958MOL0     C32075   2.771  10.352   3.392  0.2433 -0.2000 -1.0620
  958MOL0     C32076   2.922  10.382   3.363 -0.4186 -0.5585 -0.2723
  958MOL0     C32077   2.938  10.426   3.220  0.9066  0.9230 -0.3123
  958MOL0     C32078   3.071  10.484   3.176  0.4721 -0.4134  0.0903
  958MOL0     C32079   3.179  10.375   3.146  0.4589 -0.0190  1.2319
  958MOL0     C32080   3.312  10.438   3.125 -0.3417 -0.1462  0.1325
  958MOL0     C32081   3.426  10.340   3.172  0.2760  0.5052  0.1292
  958MOL0     C32082   3.444  10.316   3.331  0.9357 -0.6687  0.0892
  958MOL0     N32083   3.408  10.446   3.394 -0.5189  0.0920 -0.7902
  958MOL0     C32084   3.502  10.546   3.408 -0.9271 -0.9561  0.8388
  958MOL0     C32085   3.440  10.646   3.475 -0.4283 -0.0215 -0.3021
  958MOL0     C32086   3.490  10.778   3.523  0.5911  0.1362  0.3497
  958MOL0     C32087   3.446  10.810   3.664 -0.1322 -0.2165  0.2198
  958MOL0     C32088   3.423  10.960   3.677  0.3301 -0.5760  0.2892
  958MOL0     C32089   3.552  11.051   3.686  0.1761 -0.1087  0.4324
  958MOL0     O32090   3.613  11.068   3.554 -0.5654 -0.1720  0.4741
  958MOL0     C32091   3.580  11.180   3.475 -0.0865  0.0692 -0.5380
  958MOL0     C32092   3.478  11.273   3.510 -0.2950 -0.4805  0.0340
  958MOL0     C32093   3.452  11.383   3.420  0.3207 -0.0863 -0.1794
  958MOL0     C32094   3.335  11.479   3.443 -0.1070  0.3193 -0.1860
  958MOL0     C32095   3.517  11.386   3.291  0.2873  0.4435 -0.6237
  958MOL0     C32096   3.494  11.486   3.184 -0.0769 -1.5058 -0.2819
  958MOL0     O32097   3.597  11.570   3.131 -0.1351  0.0785 -0.3002
  958MOL0     C32098   3.561  11.660   3.033  0.5424  0.1003 -0.2718
  958MOL0     C32099   3.588  11.633   2.905  0.3283 -0.6192 -0.0075
  958MOL0     C32100   3.553  11.723   2.806 -0.2058 -0.1561 -0.8253
  958MOL0     C32101   3.478  11.840   2.828  0.5987 -0.0217  0.5976
  958MOL0     O32102   3.442  11.925   2.729 -0.0886 -0.2003  0.0977
  958MOL0     C32103   3.392  11.870   2.604 -0.4727 -0.0924 -0.0899
  958MOL0     C32104   3.343  11.994   2.523  0.3361 -0.7953  0.1044
  958MOL0     C32105   3.454  12.090   2.469  1.0449  0.0694  0.2423
  958MOL0     C32106   3.394  12.167   2.345 -0.9080 -0.4303 -1.0905
  958MOL0     C32107   3.317  12.290   2.404  0.0449 -0.1203 -0.0400
  958MOL0     C32108   3.251  12.372   2.287  0.3702 -0.8139  0.6771
  958MOL0     C32109   3.122  12.436   2.323 -0.4900  0.6973  0.2347
  958MOL0     C32110   3.131  12.551   2.425 -1.1324  1.2282  1.1379
  958MOL0    Cl32111   3.196  12.699   2.373 -0.1329  0.1769 -0.3510
  958MOL0     C32112   3.453  11.866   2.959 -0.8202 -0.0577 -0.1956
  958MOL0     C32113   3.503  11.785   3.066 -0.8774 -0.3439  0.0494
  958MOL0     O32114   3.375  11.484   3.159  0.8216  0.2863 -0.6086
  958MOL0     C32115   3.605  11.289   3.257  0.0724 -0.2104 -0.4063
  958MOL0     C32116   3.633  11.184   3.345  0.2255 -1.2301 -0.5762
  958MOL0     N32117   3.309  10.596   3.491 -0.2622  0.0448  0.0476
  958MOL0     N32118   3.286  10.478   3.447 -0.8012 -0.3334  0.3036
  958MOL0     C32119   2.766  10.626   3.604  0.0519  0.8773  0.1566
  958MOL0     C32120   2.743  10.760   3.601 -0.1545  0.1371  0.6528
  958MOL0     C32121   2.539  11.164   3.473  0.1531  0.0862  1.4873
  958MOL0     C32122   2.566  11.217   3.602 -0.0186 -0.8510  0.7622
  958MOL0     C32123   2.549  11.348   3.629 -0.0018 -0.3308  0.0259
  958MOL0     C32124   2.507  11.444   3.536  0.5616  0.8505  0.5326
  958MOL0     O32125   2.503  11.574   3.586  0.5877  0.2192 -0.4049
  958MOL0     C32126   2.505  11.679   3.490 -0.4141 -0.2292 -0.3722
  958MOL0     C32127   2.491  11.813   3.561  0.4790  0.1971 -0.5020
  958MOL0     C32128   2.622  11.850   3.644  0.7115 -0.2411 -0.0886
  958MOL0     C32129   2.603  11.971   3.739 -0.5410 -0.3165 -0.3646
  958MOL0     C32130   2.716  11.976   3.840  0.2531  0.0425 -0.5102
  958MOL0     C32131   2.806  11.967   3.920 -0.1452 -0.5784 -0.6242
  958MOL0     C32132   2.487  11.390   3.411 -0.0540 -0.1364  0.2781
  958MOL0     C32133   2.488  11.259   3.373  0.3680  0.1567 -0.2877
  958MOL0     C32134   2.437  11.213   3.232  0.1874 -0.2494 -0.5141
  958MOL0     H32135   2.434  10.760   3.446 -0.0744 -0.7321  0.2007
  958MOL0     H32136   2.500  10.508   3.430  2.3521  0.4903 -4.5731
  958MOL0     H32137   2.702  10.387   3.314 -1.6257 -2.0397 -0.3382
  958MOL0     H32138   2.745  10.246   3.392  1.0432 -0.4190  0.8310
  958MOL0     H32139   2.950  10.464   3.430  0.0060 -0.3840 -0.6557
  958MOL0     H32140   2.990  10.302   3.393  0.9050  1.3310  2.0351
  958MOL0     H32141   2.893  10.358   3.147 -5.0882  2.1456  1.6813
  958MOL0     H32142   2.872  10.513   3.206 -0.7839 -0.3522 -0.6350
  958MOL0     H32143   3.052  10.527   3.077  1.7180 -2.6343 -1.1941
  958MOL0     H32144   3.101  10.554   3.254 -0.7003 -0.5049  0.6514
  958MOL0     H32145   3.166  10.316   3.054  3.7699  0.3534  0.3911
  958MOL0     H32146   3.186  10.308   3.232  2.0508  1.2510  2.1660
  958MOL0     H32147   3.325  10.463   3.020  3.2644 -1.1471  0.2048
  958MOL0     H32148   3.325  10.530   3.182  3.2057  0.7074 -1.7670
  958MOL0     H32149   3.511  10.397   3.133 -0.6163  1.4175 -0.5501
  958MOL0     H32150   3.410  10.243   3.124 -0.3256  1.1373 -0.9803
  958MOL0     H32151   3.362  10.248   3.354  1.1638 -0.6224  1.0970
  958MOL0     H32152   3.540  10.272   3.362  1.3363 -0.3544 -0.6792
  958MOL0     H32153   3.597  10.556   3.357 -0.9806  0.7541  1.0108
  958MOL0     H32154   3.455  10.849   3.448  0.2334 -2.2316 -1.8315
  958MOL0     H32155   3.599  10.767   3.525  0.4329 -3.0547 -1.8590
  958MOL0     H32156   3.354  10.755   3.687 -0.4916  0.3803  0.2292
  958MOL0     H32157   3.517  10.767   3.735  0.7835  0.6048 -0.1788
  958MOL0     H32158   3.351  10.991   3.601 -0.0543 -2.5549 -0.1940
  958MOL0     H32159   3.370  10.976   3.771 -3.3833  1.2468 -1.8849
  958MOL0     H32160   3.521  11.143   3.735  1.2846 -0.1068  1.1596
  958MOL0     H32161   3.622  10.996   3.749  0.7742  0.4186  0.2400
  958MOL0     H32162   3.414  11.265   3.598 -3.3841 -1.0094 -2.1010
  958MOL0     H32163   3.358  11.581   3.409 -0.6413 -0.6200 -3.7804
  958MOL0     H32164   3.311  11.473   3.549 -1.6413 -1.2757 -0.5917
  958MOL0     H32165   3.241  11.456   3.393  0.2516  1.9346 -1.6949
  958MOL0     H32166   3.625  11.532   2.886 -0.3397 -1.0804  1.0953
  958MOL0     H32167   3.586  11.695   2.707 -1.5025 -1.4481 -0.9131
  958MOL0     H32168   3.473  11.817   2.551  1.0839  1.0145  1.0987
  958MOL0     H32169   3.319  11.793   2.629  3.0931 -3.5386  0.6682
  958MOL0     H32170   3.298  11.943   2.437  0.5851  0.2306 -0.6530
  958MOL0     H32171   3.269  12.045   2.586  0.4312 -1.1570  0.5195
  958MOL0     H32172   3.542  12.035   2.435  0.7149 -1.6790  2.0749
  958MOL0     H32173   3.479  12.146   2.559  1.0595  1.9751 -0.8876
  958MOL0     H32174   3.321  12.111   2.285 -2.8768  1.5235 -0.6341
  958MOL0     H32175   3.481  12.196   2.285  0.2769 -0.1183  0.7131
  958MOL0     H32176   3.234  12.248   2.463  0.5276  1.3813  1.8199
  958MOL0     H32177   3.387  12.345   2.467  0.1696 -0.7186  0.3572
  958MOL0     H32178   3.238  12.298   2.208 -1.1537 -0.1136  0.2222
  958MOL0     H32179   3.304  12.451   2.233 -1.0422  0.3448  0.9376
  958MOL0     H32180   3.052  12.364   2.366 -1.1862 -0.2228 -2.2561
  958MOL0     H32181   3.073  12.469   2.232 -2.0498 -1.1548  0.3317
  958MOL0     H32182   3.187  12.507   2.508 -1.9732 -0.9871  0.6037
  958MOL0     H32183   3.030  12.577   2.459 -2.5308 -0.8861 -1.1134
  958MOL0     H32184   3.404  11.960   2.982  1.4362  1.6726 -1.8839
  958MOL0     H32185   3.485  11.821   3.167 -0.0008 -0.1563  0.1523
  958MOL0     H32186   3.653  11.293   3.160 -0.4848 -0.0663 -0.6763
  958MOL0     H32187   3.699  11.100   3.324 -2.2865 -3.4345 -0.2832
  958MOL0     H32188   2.859  10.596   3.652 -0.2182  1.7948  1.2975
  958MOL0     H32189   2.803  10.833   3.654 -0.9490 -1.6052  4.2765
  958MOL0     H32190   2.591  11.155   3.688 -0.2026 -4.4055 -1.5283
  958MOL0     H32191   2.568  11.379   3.731  1.6553  2.4652 -1.0076
  958MOL0     H32192   2.605  11.689   3.447 -1.1496  2.2428 -1.6636
  958MOL0     H32193   2.436  11.671   3.406 -0.4732  2.0269 -0.5952
  958MOL0     H32194   2.410  11.804   3.634 -0.5978  1.4419 -1.4917
  958MOL0     H32195   2.465  11.891   3.489  0.7382  0.1944 -0.5993
  958MOL0     H32196   2.636  11.763   3.709  0.4837 -1.0579 -1.0940
  958MOL0     H32197   2.705  11.870   3.575  1.0680 -0.5146  0.2572
  958MOL0     H32198   2.513  11.960   3.800 -0.3164  1.4303  0.3381
  958MOL0     H32199   2.591  12.067   3.688  0.7193 -0.2443 -0.5599
  958MOL0     H32200   2.884  11.936   3.987  1.6861  2.5685 -1.1448
  958MOL0     H32201   2.468  11.462   3.332  3.0614  1.4261  0.7866
  958MOL0     H32202   2.393  11.295   3.173 -0.5016 -1.9453 -2.4614
  958MOL0     H32203   2.529  11.173   3.189  0.2431 -2.1430  1.2143
  958MOL0     H32204   2.366  11.130   3.233 -3.7480  2.7784  0.7837
  959MOL0     O32205   0.205   9.490   5.044 -0.7958 -0.2932  0.5862
  959MOL0     C32206   0.200   9.548   5.157  0.7681  0.2815 -0.4653
  959MOL0     O32207   0.099   9.639   5.193 -0.2840  0.2083 -0.6432
  959MOL0     C32208  -0.008   9.661   5.109 -0.6900  0.4941  0.0920
  959MOL0     C32209  -0.097   9.565   5.075 -0.1547 -0.5565 -1.5999
  959MOL0     C32210  -0.195   9.596   4.984 -0.3035  0.7476  0.8007
  959MOL0     C32211  -0.200   9.722   4.922 -0.6654  0.0968 -0.3487
  959MOL0     O32212  -0.297   9.743   4.834  0.0822 -0.3106  0.0800
  959MOL0     C32213  -0.280   9.849   4.737  0.4116  0.1540 -0.0998
  959MOL0     C32214  -0.353   9.813   4.602 -0.4975  0.6508 -0.9818
  959MOL0     C32215  -0.300   9.676   4.556 -0.3430  0.6552 -0.0096
  959MOL0     C32216  -0.348   9.632   4.424 -0.6553  0.4343 -0.5135
  959MOL0     C32217  -0.245   9.605   4.315 -1.4618  0.2882  0.7794
  959MOL0     C32218  -0.202   9.741   4.249  0.2164  0.4635 -0.6089
  959MOL0     C32219  -0.108   9.710   4.133 -0.0508  0.8933 -0.2213
  959MOL0     C32220  -0.054   9.820   4.042  0.2193  0.8187  0.5143
  959MOL0     N32221   0.043   9.766   3.947  0.4126 -0.0088  0.7186
  959MOL0     C32222   0.052   9.646   3.883 -0.5913  0.5195  0.4559
  959MOL0     C32223   0.170   9.635   3.822  0.0957  0.3209 -0.0274
  959MOL0     C32224   0.218   9.507   3.748  0.9038 -0.9869  0.2017
  959MOL0     C32225   0.295   9.549   3.620 -0.0318  0.6329  0.4206
  959MOL0     C32226   0.438   9.597   3.648  0.9108  0.2145  0.7400
  959MOL0     C32227   0.528   9.637   3.522  0.4243 -0.0896 -0.4024
  959MOL0     O32228   0.564   9.528   3.429  1.2944 -0.1170  0.1703
  959MOL0     C32229   0.643   9.555   3.319 -0.4866  0.0204 -0.0215
  959MOL0     C32230   0.660   9.453   3.237  0.1165  1.1925 -0.8906
  959MOL0     C32231   0.732   9.455   3.116  0.0727 -0.0229 -0.4886
  959MOL0     C32232   0.753   9.327   3.041  0.6741  0.7854  0.3115
  959MOL0     C32233   0.795   9.582   3.088 -0.0625  0.1082 -1.1429
  959MOL0     C32234   0.883   9.612   2.977  0.3011  0.1692  0.0076
  959MOL0     O32235   0.972   9.717   2.997 -0.2619  0.2969 -0.1511
  959MOL0     C32236   1.059   9.750   2.899  0.0261  0.7123 -0.5278
  959MOL0     C32237   1.061   9.870   2.826  0.9563  0.4802 -0.1029
  959MOL0     C32238   1.148   9.870   2.715 -0.8809  0.5162 -0.4521
  959MOL0     C32239   1.242   9.772   2.683  0.4354  0.0256  0.6077
  959MOL0     O32240   1.320   9.793   2.569  0.0004  0.7743 -0.6110
  959MOL0     C32241   1.390   9.677   2.515  0.4593  0.4776 -0.3302
  959MOL0     C32242   1.531   9.662   2.577 -0.5900  0.1471  0.7791
  959MOL0     C32243   1.618   9.776   2.518 -0.6361  0.2147  0.3669
  959MOL0     C32244   1.760   9.734   2.523  0.1578  0.4121 -0.6982
  959MOL0     C32245   1.812   9.699   2.664  0.3659 -0.1337  0.0483
  959MOL0     C32246   1.965   9.639   2.650  0.6357 -0.5259 -0.2941
  959MOL0     C32247   2.016   9.579   2.778 -0.1684  0.3623  0.5065
  959MOL0     C32248   2.045   9.685   2.885  0.1071 -0.0683  0.0631
  959MOL0    Cl32249   2.115   9.599   3.023 -0.0040  0.0507 -0.0511
  959MOL0     C32250   1.238   9.656   2.765 -0.0324  0.3670  0.5499
  959MOL0     C32251   1.149   9.647   2.868 -0.6208 -0.5300  0.2416
  959MOL0     O32252   0.865   9.561   2.870  0.6455 -0.5705  0.0818
  959MOL0     C32253   0.772   9.692   3.176 -0.1718 -0.3087 -0.7238
  959MOL0     C32254   0.698   9.677   3.293  0.2858  0.0432 -0.3715
  959MOL0     N32255   0.242   9.750   3.858 -0.4987  0.8095  0.3720
  959MOL0     N32256   0.165   9.822   3.929  0.1981  0.7342 -0.7606
  959MOL0     C32257  -0.095   9.817   4.950  0.0437  0.1039  0.4279
  959MOL0     C32258  -0.014   9.789   5.055  0.4915  0.5122  0.0416
  959MOL0     C32259   0.301   9.510   5.267 -0.2512 -0.6183 -0.9496
  959MOL0     C32260   0.376   9.392   5.245 -0.3745  0.4808  0.4093
  959MOL0     C32261   0.480   9.344   5.322  0.5148 -0.1055 -0.0732
  959MOL0     C32262   0.495   9.399   5.448  0.1042  0.0433 -0.3555
  959MOL0     O32263   0.573   9.323   5.520 -0.2454  0.1833  0.3612
  959MOL0     C32264   0.561   9.314   5.668  0.0623 -0.7535 -0.4392
  959MOL0     C32265   0.665   9.396   5.732  0.1300 -0.2939 -0.4502
  959MOL0     C32266   0.782   9.313   5.784 -0.5746  0.6939  1.0050
  959MOL0     C32267   0.879   9.278   5.662  0.5913 -0.3004 -1.4893
  959MOL0     C32268   0.994   9.199   5.703  0.0014  1.0045 -0.7121
  959MOL0     C32269   1.093   9.144   5.726 -0.6596 -1.3393  0.5064
  959MOL0     C32270   0.424   9.513   5.486  0.0120 -0.4127 -0.3683
  959MOL0     C32271   0.329   9.577   5.400  1.0302 -0.6169 -0.3693
  959MOL0     C32272   0.260   9.701   5.446 -0.3353  0.2134 -0.0143
  959MOL0     H32273  -0.085   9.470   5.125 -0.4247  0.2200  0.0050
  959MOL0     H32274  -0.265   9.518   4.953  1.1246  0.1834 -1.1733
  959MOL0     H32275  -0.174   9.857   4.711  0.2981 -0.4529 -0.7822
  959MOL0     H32276  -0.322   9.942   4.777  1.6509  0.8324 -0.3419
  959MOL0     H32277  -0.462   9.810   4.609 -0.5691  0.9495 -1.8267
  959MOL0     H32278  -0.324   9.885   4.524  1.0723 -1.1627 -2.1821
  959MOL0     H32279  -0.190   9.677   4.563 -0.4028  0.6576  1.0813
  959MOL0     H32280  -0.328   9.599   4.628 -0.4706 -1.6013 -2.3271
  959MOL0     H32281  -0.399   9.537   4.443  2.2192 -1.8195 -2.9479
  959MOL0     H32282  -0.416   9.704   4.376 -1.9365 -1.5552 -1.8553
  959MOL0     H32283  -0.308   9.548   4.246 -2.1374  0.6263  1.1069
  959MOL0     H32284  -0.162   9.547   4.357 -1.8077  1.7803  3.8445
  959MOL0     H32285  -0.294   9.783   4.209 -0.3317 -1.0109 -0.9674
  959MOL0     H32286  -0.159   9.811   4.322 -0.8387  0.9749 -0.4719
  959MOL0     H32287  -0.148   9.623   4.082  0.7714 -2.4053  4.1665
  959MOL0     H32288  -0.018   9.677   4.186 -0.8576  0.3955  0.8653
  959MOL0     H32289  -0.134   9.858   3.978 -1.4661 -4.1330 -0.6899
  959MOL0     H32290   0.001   9.898   4.096  1.4733  1.7303 -1.9596
  959MOL0     H32291  -0.013   9.560   3.895 -2.1987  1.6474  0.1178
  959MOL0     H32292   0.130   9.450   3.716 -2.1409  2.3773  1.7562
  959MOL0     H32293   0.284   9.449   3.813  4.2822  1.5396 -0.7214
  959MOL0     H32294   0.314   9.469   3.548  0.1705  0.6632  0.4402
  959MOL0     H32295   0.237   9.628   3.572 -2.6142 -1.1222  0.4713
  959MOL0     H32296   0.432   9.685   3.713 -0.3526  1.4651 -0.9753
  959MOL0     H32297   0.491   9.524   3.710  3.0314  0.6209 -0.5096
  959MOL0     H32298   0.480   9.718   3.466  0.0750  1.0535  1.4677
  959MOL0     H32299   0.616   9.686   3.565  0.5441 -1.9589  1.6388
  959MOL0     H32300   0.609   9.362   3.267 -1.0398  1.1224 -2.8835
  959MOL0     H32301   0.663   9.265   3.049  1.9837 -1.3014 -0.3935
  959MOL0     H32302   0.830   9.268   3.091  3.0106  1.8737 -1.7681
  959MOL0     H32303   0.788   9.329   2.937  0.2360 -0.8536  0.1169
  959MOL0     H32304   0.984   9.946   2.837  1.9434  1.9741 -2.7231
  959MOL0     H32305   1.147   9.950   2.641 -1.1225  0.3983 -0.5767
  959MOL0     H32306   1.325   9.590   2.525  3.1691 -1.4700  2.0219
  959MOL0     H32307   1.408   9.683   2.407  1.6081  0.3752 -0.1587
  959MOL0     H32308   1.527   9.664   2.686 -1.9042 -0.4627  0.7658
  959MOL0     H32309   1.571   9.570   2.533  0.5432  1.3987 -0.9418
  959MOL0     H32310   1.604   9.865   2.580 -2.1859  1.2848 -1.4282
  959MOL0     H32311   1.586   9.806   2.418 -0.0704  0.2899  0.2003
  959MOL0     H32312   1.821   9.815   2.481  2.1666 -0.8655 -0.3980
  959MOL0     H32313   1.781   9.649   2.458  2.4386  1.5439 -1.5817
  959MOL0     H32314   1.805   9.788   2.727  1.7844  1.1872 -1.5477
  959MOL0     H32315   1.754   9.628   2.724  2.2135  1.7596  4.4838
  959MOL0     H32316   2.028   9.722   2.615 -1.8510  1.7733  0.2870
  959MOL0     H32317   1.968   9.580   2.558 -2.0958 -0.7134 -0.3430
  959MOL0     H32318   2.105   9.518   2.762  0.8473  2.3655 -2.2497
  959MOL0     H32319   1.933   9.519   2.819  0.4163  0.6846  2.2381
  959MOL0     H32320   1.960   9.743   2.923  1.9341  2.5484  0.3650
  959MOL0     H32321   2.118   9.760   2.853  0.2246  0.6168  1.8115
  959MOL0     H32322   1.311   9.580   2.740  0.4246  1.1756 -0.6506
  959MOL0     H32323   1.147   9.556   2.926 -2.9539  1.1702  3.1032
  959MOL0     H32324   0.822   9.786   3.157 -0.7084 -0.1198 -1.2373
  959MOL0     H32325   0.683   9.756   3.366  0.4671  2.4076 -2.7382
  959MOL0     H32326  -0.075   9.911   4.901 -1.9531  1.8000  2.6519
  959MOL0     H32327   0.063   9.856   5.093  0.7187 -0.3103  1.0519
  959MOL0     H32328   0.350   9.340   5.154 -4.5828  0.1362  1.6305
  959MOL0     H32329   0.540   9.263   5.281  0.0022 -0.2119 -0.6304
  959MOL0     H32330   0.462   9.347   5.702  1.1071 -0.2044  2.3034
  959MOL0     H32331   0.565   9.210   5.700  0.8467 -1.4571 -2.6477
  959MOL0     H32332   0.628   9.447   5.822  1.5932  0.4788 -0.2434
  959MOL0     H32333   0.700   9.476   5.666  0.0685  1.3734  1.4441
  959MOL0     H32334   0.841   9.361   5.863  1.0192 -1.8471  1.4565
  959MOL0     H32335   0.742   9.219   5.822 -1.2323  0.7124  0.3791
  959MOL0     H32336   0.910   9.371   5.612 -0.1876 -0.6462 -2.6701
  959MOL0     H32337   0.815   9.221   5.594 -1.4451  0.2133 -0.0983
  959MOL0     H32338   1.190   9.109   5.757 -0.8246 -0.4666  2.0915
  959MOL0     H32339   0.435   9.553   5.586 -2.0723 -0.8745  0.0956
  959MOL0     H32340   0.284   9.778   5.372 -1.4984 -0.5027 -1.1881
  959MOL0     H32341   0.151   9.708   5.459 -0.4746  1.4564 -1.5337
  959MOL0     H32342   0.305   9.728   5.542  1.1547  0.2958 -0.7180
  960MOL0     O32343   3.258   3.344   7.009  0.0845 -0.0656 -0.5012
  960MOL0     C32344   3.322   3.265   6.934 -0.3881  0.4995  0.1632
  960MOL0     O32345   3.301   3.122   6.925  0.5547  0.4490  0.0367
  960MOL0     C32346   3.207   3.069   7.010  0.2999  0.1182 -1.2853
  960MOL0     C32347   3.248   2.952   7.082  0.8216  0.3088 -0.2519
  960MOL0     C32348   3.164   2.898   7.184  0.2112 -0.7236 -0.2218
  960MOL0     C32349   3.035   2.946   7.209  0.3262  0.3600  0.7409
  960MOL0     O32350   2.970   2.894   7.315  0.0411  0.3778  0.0496
  960MOL0     C32351   2.831   2.868   7.289  0.1922 -0.4151 -0.5868
  960MOL0     C32352   2.779   2.750   7.367 -0.2611  0.2453 -0.1908
  960MOL0     C32353   2.746   2.796   7.509 -0.0159 -0.2215  1.0686
  960MOL0     C32354   2.657   2.700   7.590  0.5538  0.1648  0.2915
  960MOL0     C32355   2.547   2.628   7.525  0.0365  0.5630  0.2204
  960MOL0     C32356   2.451   2.565   7.628  0.6637 -0.2671  0.0022
  960MOL0     C32357   2.512   2.475   7.739  0.2720  0.3737 -0.7180
  960MOL0     C32358   2.561   2.342   7.679  0.2089  0.6251  0.0514
  960MOL0     N32359   2.453   2.243   7.664  0.1233 -0.5466  1.1903
  960MOL0     C32360   2.317   2.266   7.686 -0.3511  0.9288  0.6403
  960MOL0     C32361   2.263   2.143   7.651 -0.6516 -0.6695  0.0721
  960MOL0     C32362   2.119   2.105   7.667 -0.3344 -0.8106  0.0028
  960MOL0     C32363   2.116   2.002   7.781 -0.0808 -0.0501  0.0928
  960MOL0     C32364   2.162   1.855   7.755 -0.4906  0.3348 -0.6902
  960MOL0     C32365   2.138   1.762   7.869 -0.2945  0.3250 -1.0518
  960MOL0     O32366   2.206   1.823   7.980  1.0771  0.0653  0.5137
  960MOL0     C32367   2.280   1.732   8.049 -0.8686  1.0827 -0.4788
  960MOL0     C32368   2.213   1.650   8.144 -0.1679  0.6625 -0.1786
  960MOL0     C32369   2.282   1.564   8.222  0.5255 -1.2854 -0.3907
  960MOL0     C32370   2.205   1.490   8.328  0.5065 -1.3327  0.0608
  960MOL0     C32371   2.417   1.549   8.213 -0.5271 -0.8267  0.6408
  960MOL0     C32372   2.493   1.429   8.276 -0.3467  0.1918 -0.1687
  960MOL0     O32373   2.604   1.386   8.213 -0.0446  0.7924  0.2649
  960MOL0     C32374   2.673   1.270   8.250 -0.1253 -0.0312  0.4649
  960MOL0     C32375   2.618   1.152   8.293 -0.2260 -0.4579  0.2527
  960MOL0     C32376   2.689   1.040   8.302  0.4535  0.6731  0.9901
  960MOL0     C32377   2.824   1.038   8.269  0.5824  0.5799 -0.5679
  960MOL0     O32378   2.911   0.924   8.272 -0.1089  0.3213 -0.1725
  960MOL0     C32379   2.866   0.805   8.332 -0.5419  0.2326  0.2536
  960MOL0     C32380   2.988   0.735   8.385 -0.2929  1.5633 -0.5905
  960MOL0     C32381   2.969   0.588   8.432 -0.8326 -1.1132 -0.6742
  960MOL0     C32382   2.888   0.575   8.562  0.3080  0.1397  0.3438
  960MOL0     C32383   2.831   0.432   8.577  0.1407 -1.0615  0.7878
  960MOL0     C32384   2.936   0.321   8.560  0.0351  0.1675 -1.5701
  960MOL0     C32385   3.035   0.322   8.677  0.5905  0.0226 -0.2488
  960MOL0     C32386   3.101   0.181   8.692 -0.6059  0.6344 -0.8848
  960MOL0    Cl32387   3.190   0.167   8.537 -0.2359 -0.1408 -0.2946
  960MOL0     C32388   2.878   1.156   8.219  0.0195 -0.7702  0.5905
  960MOL0     C32389   2.802   1.267   8.201  0.2413 -0.7841  0.8845
  960MOL0     O32390   2.451   1.386   8.385 -1.0293  0.3204  0.6595
  960MOL0     C32391   2.491   1.629   8.123 -0.6304 -0.0949  0.3925
  960MOL0     C32392   2.419   1.708   8.030 -0.5837 -0.4894 -0.3757
  960MOL0     N32393   2.360   2.062   7.591  1.2545 -0.4049 -0.6336
  960MOL0     N32394   2.476   2.121   7.603 -0.0658  0.0203  0.7551
  960MOL0     C32395   2.995   3.064   7.138 -0.1516 -0.8185 -0.1907
  960MOL0     C32396   3.078   3.126   7.038 -0.4409 -0.0957 -0.5184
  960MOL0     C32397   3.438   3.319   6.868 -0.0583 -0.2125  0.4130
  960MOL0     C32398   3.548   3.232   6.847  1.7904 -0.8036 -0.1974
  960MOL0     C32399   3.649   3.271   6.764 -0.1528 -0.5226 -0.3822
  960MOL0     C32400   3.653   3.393   6.702 -0.4363 -0.1064 -0.4180
  960MOL0     O32401   3.767   3.409   6.628  0.3720 -0.1670  1.3835
  960MOL0     C32402   3.769   3.368   6.487  0.3013  0.5525  0.7419
  960MOL0     C32403   3.906   3.395   6.435 -1.1274  0.0863 -0.0466
  960MOL0     C32404   3.997   3.278   6.420  0.5426 -0.5265 -0.5984
  960MOL0     C32405   4.139   3.306   6.364  0.7359 -0.1350 -0.1025
  960MOL0     C32406   4.123   3.361   6.226 -0.3530  0.3375 -0.5611
  960MOL0     C32407   4.104   3.398   6.117 -0.0302 -0.7911 -0.1760
  960MOL0     C32408   3.555   3.487   6.728 -0.0654 -0.0709 -0.0925
  960MOL0     C32409   3.446   3.454   6.801  0.3202 -0.4068  0.0862
  960MOL0     C32410   3.335   3.560   6.821 -0.0082  0.2602  0.1736
  960MOL0     H32411   3.343   2.906   7.056 -0.0923 -0.0854 -3.3146
  960MOL0     H32412   3.187   2.802   7.231  0.6338 -0.2700  0.5203
  960MOL0     H32413   2.809   2.848   7.184 -4.5872  0.1643  0.0707
  960MOL0     H32414   2.756   2.944   7.311  0.2965 -1.0399  2.4207
  960MOL0     H32415   2.681   2.728   7.325 -0.6684  1.1434  0.2661
  960MOL0     H32416   2.844   2.663   7.379 -0.4384  0.4350  2.9165
  960MOL0     H32417   2.842   2.819   7.556 -0.1699  2.3511  0.2658
  960MOL0     H32418   2.691   2.890   7.508 -0.5918 -0.4861 -2.4764
  960MOL0     H32419   2.723   2.620   7.625  0.4785 -0.7800 -1.6141
  960MOL0     H32420   2.611   2.764   7.666  1.6186  2.2934 -0.7494
  960MOL0     H32421   2.586   2.557   7.451  3.9685  1.3359  1.3140
  960MOL0     H32422   2.492   2.701   7.465 -1.5977 -1.2606 -0.6225
  960MOL0     H32423   2.402   2.654   7.667 -0.5359 -1.1594  0.6074
  960MOL0     H32424   2.363   2.520   7.579 -0.9851  2.2994  0.4071
  960MOL0     H32425   2.436   2.462   7.816  1.6401 -1.0602  0.4584
  960MOL0     H32426   2.597   2.526   7.786  2.1571 -2.4177 -0.8723
  960MOL0     H32427   2.615   2.363   7.586  2.3757 -2.5501  0.4441
  960MOL0     H32428   2.634   2.304   7.751  0.4264 -0.3979 -0.6898
  960MOL0     H32429   2.260   2.354   7.712 -0.0983  2.1364 -2.4505
  960MOL0     H32430   2.082   2.065   7.572  3.3662  0.7238 -2.2752
  960MOL0     H32431   2.076   2.200   7.698 -1.6931 -1.7147  1.0348
  960MOL0     H32432   2.167   2.045   7.867 -1.8017  1.4345  0.4241
  960MOL0     H32433   2.010   1.988   7.803 -0.8252  1.6260 -2.0749
  960MOL0     H32434   2.102   1.814   7.673  0.7486 -4.4976  0.4800
  960MOL0     H32435   2.266   1.842   7.726 -0.5552 -1.9847 -0.0979
  960MOL0     H32436   2.030   1.755   7.886 -0.7451 -3.0408 -4.2508
  960MOL0     H32437   2.162   1.657   7.855 -2.9665 -0.4929 -0.0969
  960MOL0     H32438   2.106   1.664   8.153 -0.3008  2.8626 -3.2977
  960MOL0     H32439   2.097   1.504   8.319  0.6916  2.3830  1.6372
  960MOL0     H32440   2.234   1.518   8.430  0.3982 -1.3617  0.0994
  960MOL0     H32441   2.213   1.384   8.305  2.6579 -0.9430 -1.2261
  960MOL0     H32442   2.511   1.152   8.309 -0.6382 -1.3257 -2.1133
  960MOL0     H32443   2.641   0.954   8.347  0.8889  0.4385  1.0110
  960MOL0     H32444   2.811   0.828   8.424 -1.1206 -2.1127  0.5368
  960MOL0     H32445   2.813   0.729   8.274 -0.3088 -0.0147  0.3613
  960MOL0     H32446   3.061   0.723   8.305 -0.7272  1.7534 -1.0165
  960MOL0     H32447   3.041   0.798   8.457 -1.6867  2.1009  0.0074
  960MOL0     H32448   3.067   0.540   8.433 -1.0458 -1.5613  0.2901
  960MOL0     H32449   2.909   0.537   8.356  0.4493 -1.2742 -1.6163
  960MOL0     H32450   2.800   0.639   8.560 -0.2244 -0.5942  0.0521
  960MOL0     H32451   2.952   0.603   8.646 -1.4543  2.8025  0.9565
  960MOL0     H32452   2.771   0.416   8.667 -0.3343  1.8197  1.0594
  960MOL0     H32453   2.757   0.419   8.499  0.3007 -1.2318  0.6620
  960MOL0     H32454   2.993   0.319   8.466 -1.1630  0.3582 -2.3216
  960MOL0     H32455   2.876   0.231   8.574  1.9430 -1.2572 -2.0102
  960MOL0     H32456   2.974   0.327   8.768  1.9663 -1.4512  0.8269
  960MOL0     H32457   3.109   0.402   8.677 -1.0318  1.6345  1.9616
  960MOL0     H32458   3.010   0.121   8.704 -0.4291  0.4605 -0.3884
  960MOL0     H32459   3.160   0.174   8.784 -2.4190  1.6587  0.4242
  960MOL0     H32460   2.984   1.172   8.203  0.1000 -0.7941  1.0858
  960MOL0     H32461   2.851   1.348   8.149 -1.1453 -1.1833 -1.2069
  960MOL0     H32462   2.599   1.619   8.114 -0.5190  0.3569  1.1302
  960MOL0     H32463   2.476   1.753   7.949  2.2314 -0.9079  1.2202
  960MOL0     H32464   2.898   3.108   7.158 -1.2545 -3.5169  0.7591
  960MOL0     H32465   3.046   3.218   6.989  2.0582  1.7701  1.1411
  960MOL0     H32466   3.532   3.132   6.886 -2.2011  0.2249  1.3006
  960MOL0     H32467   3.731   3.203   6.747  1.7789  1.3870  0.8269
  960MOL0     H32468   3.744   3.261   6.487  0.2396  0.5527 -0.4324
  960MOL0     H32469   3.700   3.431   6.430  1.9757  0.5877 -1.4143
  960MOL0     H32470   3.950   3.477   6.492 -0.3986 -0.0359 -0.4108
  960MOL0     H32471   3.889   3.431   6.333  2.2074 -0.0360 -0.7927
  960MOL0     H32472   4.000   3.264   6.528  1.5520  2.9239 -0.0799
  960MOL0     H32473   3.937   3.203   6.367 -1.7962  0.5016  0.4590
  960MOL0     H32474   4.197   3.214   6.366  0.1002 -0.5537  2.0202
  960MOL0     H32475   4.199   3.374   6.426  1.4784 -0.9636  0.1173
  960MOL0     H32476   4.088   3.432   6.017 -2.9704 -0.5823  0.2556
  960MOL0     H32477   3.573   3.587   6.689  1.9024 -0.0621  0.7144
  960MOL0     H32478   3.236   3.512   6.817 -0.7537  1.8457 -2.1173
  960MOL0     H32479   3.349   3.605   6.920 -1.1092 -0.6212  0.7700
  960MOL0     H32480   3.337   3.630   6.738  3.1328 -0.5126 -0.4986
  961MOL0     O32481   8.367   4.018   4.032 -0.3666  0.0427 -0.0820
  961MOL0     C32482   8.342   4.047   4.155  0.5971  0.8618 -0.1374
  961MOL0     O32483   8.435   4.053   4.259  0.3459 -0.1705  0.4946
  961MOL0     C32484   8.568   4.025   4.245 -0.0713 -0.0262  1.2532
  961MOL0     C32485   8.633   4.016   4.125 -0.1235 -0.5222 -0.1650
  961MOL0     C32486   8.771   3.987   4.122  0.0200  1.4614  1.2004
  961MOL0     C32487   8.842   3.957   4.239 -0.5060 -0.6948  1.6206
  961MOL0     O32488   8.980   3.945   4.243 -0.9147  0.2605  0.6702
  961MOL0     C32489   9.055   3.863   4.145  0.7307 -0.6799 -0.2368
  961MOL0     C32490   9.201   3.869   4.174  0.6370  0.5419 -0.2378
  961MOL0     C32491   9.249   4.006   4.234  0.2167  0.1078  0.4337
  961MOL0     C32492   9.264   4.127   4.129 -0.4126 -0.6453 -0.6855
  961MOL0     C32493   9.130   4.177   4.073 -0.2159 -0.3724  0.1191
  961MOL0     C32494   9.150   4.324   4.034  0.3665 -0.5311 -0.9961
  961MOL0     C32495   9.011   4.379   3.970  0.4024 -0.4530 -0.2826
  961MOL0     C32496   8.913   4.428   4.077 -0.6938  0.3714 -0.5268
  961MOL0     N32497   8.776   4.439   4.047  0.2845  0.2475 -0.4448
  961MOL0     C32498   8.701   4.411   3.936 -0.3817 -0.0065  1.5345
  961MOL0     C32499   8.573   4.446   3.970  0.3574  0.3889 -0.2664
  961MOL0     C32500   8.455   4.415   3.887 -0.3532 -0.8771  0.0321
  961MOL0     C32501   8.322   4.407   3.961  0.6283  0.3083  0.2300
  961MOL0     C32502   8.232   4.308   3.889  0.5419 -0.0715  0.5410
  961MOL0     C32503   8.095   4.330   3.935  1.1986 -0.2256 -0.3979
  961MOL0     O32504   8.041   4.451   3.880 -0.2046 -0.7765 -0.2683
  961MOL0     C32505   7.906   4.469   3.856  0.1937 -0.4151  0.3045
  961MOL0     C32506   7.863   4.581   3.784 -0.3625 -0.0420 -0.0220
  961MOL0     C32507   7.731   4.593   3.738 -0.6388 -0.2891  0.1838
  961MOL0     C32508   7.699   4.719   3.642 -0.5699  0.4727 -0.3170
  961MOL0     C32509   7.626   4.508   3.777 -0.4483 -0.2158 -0.3800
  961MOL0     C32510   7.483   4.530   3.753 -0.1604 -0.2430  0.2716
  961MOL0     O32511   7.397   4.459   3.819 -0.0421  0.2884  0.2717
  961MOL0     C32512   7.270   4.480   3.781  0.0695  0.4418  0.0912
  961MOL0     C32513   7.209   4.360   3.746  0.4899 -0.3386  0.2535
  961MOL0     C32514   7.077   4.364   3.699  0.9834  0.0851  0.7133
  961MOL0     C32515   7.003   4.480   3.701 -0.4687 -0.2292 -1.2522
  961MOL0     O32516   6.881   4.472   3.652  0.5129 -0.1755 -0.2427
  961MOL0     C32517   6.787   4.576   3.670  0.7511  0.5594 -0.2956
  961MOL0     C32518   6.644   4.524   3.659 -0.1654 -0.3719  0.7286
  961MOL0     C32519   6.618   4.448   3.528  0.0222  1.0260 -1.1941
  961MOL0     C32520   6.485   4.383   3.537  0.6884 -0.9548  0.2378
  961MOL0     C32521   6.474   4.305   3.405 -0.0848  0.3978 -0.0287
  961MOL0     C32522   6.331   4.236   3.387  1.0072  0.5799  1.3207
  961MOL0     C32523   6.294   4.195   3.237 -0.9303 -0.8886  0.3633
  961MOL0     C32524   6.153   4.182   3.227  0.1465  0.5872  0.5235
  961MOL0    Cl32525   6.103   4.030   3.301 -0.6772 -0.1933 -0.2364
  961MOL0     C32526   7.059   4.599   3.753  0.0584 -0.1352  0.3549
  961MOL0     C32527   7.195   4.594   3.785  0.3998  0.2080  0.6014
  961MOL0     O32528   7.456   4.602   3.652 -0.3461  0.4469 -0.0752
  961MOL0     C32529   7.674   4.400   3.852  0.3774 -1.2374 -0.0190
  961MOL0     C32530   7.805   4.380   3.888 -0.5340  0.8736  0.3127
  961MOL0     N32531   8.578   4.508   4.096  0.1456  0.1157  0.4089
  961MOL0     N32532   8.697   4.513   4.134 -0.0068 -0.5216 -0.6709
  961MOL0     C32533   8.771   3.967   4.357 -0.6581 -0.0873 -0.0478
  961MOL0     C32534   8.640   4.008   4.363 -0.4309  0.6360 -0.5181
  961MOL0     C32535   8.203   4.076   4.200 -0.9289 -0.9558 -0.0416
  961MOL0     C32536   8.188   4.151   4.320  0.0743  0.2822  0.2067
  961MOL0     C32537   8.066   4.196   4.359  0.0008 -0.1528 -0.0618
  961MOL0     C32538   7.947   4.166   4.286 -0.1379  0.1777  0.0435
  961MOL0     O32539   7.833   4.234   4.335 -0.6169  0.4073  0.3805
  961MOL0     C32540   7.716   4.210   4.267  0.5719 -0.6266 -0.1213
  961MOL0     C32541   7.597   4.288   4.326 -0.6526  0.4136  0.5174
  961MOL0     C32542   7.492   4.331   4.223 -0.3947  0.2999 -0.6189
  961MOL0     C32543   7.368   4.358   4.307 -0.2597 -1.2329  1.1058
  961MOL0     C32544   7.275   4.432   4.219  0.0899 -0.7595  0.5465
  961MOL0     C32545   7.197   4.494   4.138  0.1673  0.6540 -0.0719
  961MOL0     C32546   7.953   4.083   4.175  0.0021  0.5224  1.3538
  961MOL0     C32547   8.083   4.036   4.131  0.7622 -0.1498  0.3879
  961MOL0     C32548   8.086   3.946   4.009 -1.0386 -0.2932  0.0084
  961MOL0     H32549   8.577   4.036   4.034 -1.2050  1.0255  0.8109
  961MOL0     H32550   8.828   3.992   4.029 -0.0684  1.3424  1.1382
  961MOL0     H32551   9.028   3.905   4.048  0.9712  1.6257  0.6418
  961MOL0     H32552   9.015   3.763   4.166 -1.1684  0.7158  3.6204
  961MOL0     H32553   9.211   3.792   4.251 -0.2984 -0.4266 -1.0421
  961MOL0     H32554   9.260   3.846   4.084  3.0110 -0.8627  1.5664
  961MOL0     H32555   9.201   4.053   4.320  2.0512  1.2348  0.9248
  961MOL0     H32556   9.351   3.981   4.267  0.7798  1.6457 -0.0258
  961MOL0     H32557   9.299   4.215   4.184 -1.8984 -0.3849 -0.1114
  961MOL0     H32558   9.345   4.109   4.058  0.4275 -2.9388  0.7150
  961MOL0     H32559   9.046   4.175   4.143 -0.4715 -0.0447 -0.1776
  961MOL0     H32560   9.099   4.125   3.982 -3.4809  1.1625  0.2059
  961MOL0     H32561   9.174   4.382   4.123 -1.4433  0.3157 -1.0164
  961MOL0     H32562   9.232   4.342   3.964 -0.5851  3.9858 -1.2014
  961MOL0     H32563   8.970   4.308   3.898  1.6432 -2.5249  0.9743
  961MOL0     H32564   9.023   4.470   3.910 -2.7614  1.7211  2.0528
  961MOL0     H32565   8.923   4.359   4.162 -1.2891 -0.9627 -1.5015
  961MOL0     H32566   8.933   4.525   4.123 -2.5266 -0.8593  3.2763
  961MOL0     H32567   8.732   4.365   3.843 -2.6912  0.0703  0.6599
  961MOL0     H32568   8.473   4.318   3.840  0.5034 -1.0477  0.6962
  961MOL0     H32569   8.463   4.489   3.806  1.2188 -0.6831  0.3310
  961MOL0     H32570   8.328   4.378   4.066 -0.7139 -2.0129 -0.2754
  961MOL0     H32571   8.277   4.507   3.958 -0.6211 -0.0337  3.2966
  961MOL0     H32572   8.251   4.329   3.783  2.1016  0.4419  0.8931
  961MOL0     H32573   8.263   4.204   3.905 -3.0210 -1.5996 -1.1709
  961MOL0     H32574   8.036   4.248   3.893 -0.5719  0.4182  0.6979
  961MOL0     H32575   8.083   4.317   4.043 -3.3244  2.1194 -0.3823
  961MOL0     H32576   7.939   4.656   3.769  1.5632 -2.0001 -0.6366
  961MOL0     H32577   7.628   4.782   3.695 -0.9725 -0.2483  0.0212
  961MOL0     H32578   7.656   4.690   3.546 -0.8184  0.7390 -0.2846
  961MOL0     H32579   7.779   4.786   3.609 -1.0497  0.3788 -1.7535
  961MOL0     H32580   7.263   4.266   3.750 -0.2390 -0.8007 -0.4966
  961MOL0     H32581   7.044   4.272   3.650  2.2850 -0.4421  0.7997
  961MOL0     H32582   6.790   4.615   3.772  0.3109 -0.7324  0.2255
  961MOL0     H32583   6.811   4.656   3.599  1.0544  0.7687  0.0378
  961MOL0     H32584   6.625   4.458   3.744  1.2412  2.0207  3.0442
  961MOL0     H32585   6.571   4.603   3.675  0.1312  0.0151  0.2075
  961MOL0     H32586   6.701   4.378   3.517  0.5560  1.7665 -2.0135
  961MOL0     H32587   6.625   4.513   3.440  0.6621  2.9249  0.2080
  961MOL0     H32588   6.401   4.453   3.541 -0.0749 -1.7662 -1.0252
  961MOL0     H32589   6.464   4.317   3.621 -3.0568  0.8847  0.9919
  961MOL0     H32590   6.475   4.365   3.314  1.4023 -0.0471 -0.3475
  961MOL0     H32591   6.548   4.224   3.414 -1.0376 -0.3221  2.4191
  961MOL0     H32592   6.247   4.295   3.426 -1.5883 -1.4049 -0.7944
  961MOL0     H32593   6.321   4.145   3.446 -2.2927  1.9495  3.1687
  961MOL0     H32594   6.353   4.110   3.201 -0.4662  0.0717 -1.2411
  961MOL0     H32595   6.307   4.277   3.166 -3.2197  0.7805  1.7227
  961MOL0     H32596   6.115   4.170   3.125  0.9911  2.1888 -0.0234
  961MOL0     H32597   6.103   4.272   3.263 -3.3317 -1.9691  2.7135
  961MOL0     H32598   7.012   4.696   3.757 -0.9115 -0.6026  0.6439
  961MOL0     H32599   7.250   4.678   3.826  0.8861 -0.3142  1.0269
  961MOL0     H32600   7.594   4.331   3.880 -1.9243  0.7720 -1.2476
  961MOL0     H32601   7.829   4.286   3.936  0.9146  0.8839 -0.3539
  961MOL0     H32602   8.811   3.963   4.458  3.6353  1.4199 -1.4861
  961MOL0     H32603   8.590   4.028   4.457 -2.1580 -0.3970 -1.1716
  961MOL0     H32604   8.270   4.169   4.389 -0.9347 -0.5968  1.6837
  961MOL0     H32605   8.043   4.258   4.446  0.0006  2.1721 -1.6128
  961MOL0     H32606   7.733   4.228   4.160  1.2543 -0.9700 -0.0747
  961MOL0     H32607   7.683   4.106   4.278 -0.4518 -0.1824  1.3400
  961MOL0     H32608   7.630   4.376   4.383  0.1271 -0.9985  2.3469
  961MOL0     H32609   7.545   4.226   4.400 -0.1623  0.0806  0.5883
  961MOL0     H32610   7.517   4.417   4.161 -1.2671  0.3034 -0.9787
  961MOL0     H32611   7.469   4.244   4.160  1.1093  1.0070 -2.2119
  961MOL0     H32612   7.398   4.415   4.396 -0.1538 -0.4591  0.5883
  961MOL0     H32613   7.333   4.257   4.330  0.7631 -2.1154 -0.9766
  961MOL0     H32614   7.131   4.534   4.064  1.3327 -1.7307 -2.5711
  961MOL0     H32615   7.863   4.041   4.131  0.4644 -1.2619  2.0305
  961MOL0     H32616   8.163   3.870   4.024 -0.7717 -0.6931 -2.8532
  961MOL0     H32617   7.992   3.895   3.985  0.1419 -1.8836 -1.5193
  961MOL0     H32618   8.101   4.000   3.915 -2.6237 -1.0551 -0.7273
  962MOL0     O32619   0.680   6.317   2.599  0.5542 -0.2319 -0.4733
  962MOL0     C32620   0.664   6.195   2.579  0.2675 -0.7912 -1.1723
  962MOL0     O32621   0.758   6.101   2.599  0.3307 -0.0075  0.5099
  962MOL0     C32622   0.886   6.137   2.634  0.4427 -0.2525  0.5836
  962MOL0     C32623   0.911   6.147   2.773  0.2248  0.1097 -0.0551
  962MOL0     C32624   1.043   6.162   2.812  0.1708  0.3078 -0.7469
  962MOL0     C32625   1.151   6.168   2.726  0.5850 -0.5300  0.5748
  962MOL0     O32626   1.270   6.208   2.778  0.7294 -0.2406 -0.1433
  962MOL0     C32627   1.346   6.295   2.699 -0.7899 -0.8513 -0.0027
  962MOL0     C32628   1.450   6.362   2.787 -0.0358 -0.0859 -0.3512
  962MOL0     C32629   1.574   6.270   2.812 -0.1491  0.5804 -0.3838
  962MOL0     C32630   1.669   6.306   2.926 -0.2490 -0.2486 -0.6750
  962MOL0     C32631   1.794   6.216   2.946 -0.0456 -0.2911  0.2949
  962MOL0     C32632   1.924   6.247   2.861  0.2674 -0.5425 -0.2757
  962MOL0     C32633   2.006   6.371   2.881 -0.3097 -0.6871 -0.5742
  962MOL0     C32634   2.151   6.355   2.837 -0.4519 -0.1585 -0.7146
  962MOL0     N32635   2.234   6.476   2.863 -0.4368 -1.0442  0.5304
  962MOL0     C32636   2.322   6.501   2.968  0.7032 -0.1693 -0.1678
  962MOL0     C32637   2.357   6.634   2.961  0.5204 -0.0163 -0.1767
  962MOL0     C32638   2.437   6.709   3.066  0.0874 -0.4745  0.1563
  962MOL0     C32639   2.553   6.785   2.989  0.0530  0.5106  0.0401
  962MOL0     C32640   2.639   6.826   3.102 -0.6464 -0.0179  0.4194
  962MOL0     C32641   2.743   6.925   3.055  0.1468 -0.6181 -0.4787
  962MOL0     O32642   2.692   7.045   3.010  0.0880  0.3955 -0.9571
  962MOL0     C32643   2.779   7.134   2.964  0.6983 -0.0772  0.4482
  962MOL0     C32644   2.738   7.275   2.964  0.5567 -0.0919 -0.3902
  962MOL0     C32645   2.818   7.375   2.926  0.1277  0.2590  0.4425
  962MOL0     C32646   2.778   7.519   2.955 -0.2312  0.1773  0.2250
  962MOL0     C32647   2.945   7.337   2.871  0.4589 -0.4323  0.9000
  962MOL0     C32648   3.039   7.435   2.815 -0.0449 -0.9164 -0.0219
  962MOL0     O32649   3.047   7.562   2.872  0.3768  0.0406  0.2150
  962MOL0     C32650   3.158   7.641   2.840  0.7982 -1.2581  0.0160
  962MOL0     C32651   3.156   7.731   2.734  1.3730 -0.8035 -0.5823
  962MOL0     C32652   3.269   7.807   2.710  0.7821 -0.0224  0.1840
  962MOL0     C32653   3.384   7.795   2.784 -0.5021  0.4527 -0.1327
  962MOL0     O32654   3.494   7.867   2.752  0.3966 -0.6694 -0.0870
  962MOL0     C32655   3.523   7.899   2.614  0.2743  0.1455 -0.7690
  962MOL0     C32656   3.674   7.936   2.606  0.0291  0.4748  0.3250
  962MOL0     C32657   3.754   7.825   2.671  0.4818  1.0356 -0.1276
  962MOL0     C32658   3.896   7.841   2.617 -0.5686 -0.4691 -0.1361
  962MOL0     C32659   3.988   7.742   2.691  0.9394 -0.4801 -0.9024
  962MOL0     C32660   4.124   7.745   2.623 -0.0938 -0.2443  0.0178
  962MOL0     C32661   4.211   7.643   2.680 -0.4930 -0.7869  0.1698
  962MOL0     C32662   4.359   7.665   2.690 -0.1935  0.1627 -0.6921
  962MOL0    Cl32663   4.440   7.704   2.532  0.2900 -0.4540 -0.4391
  962MOL0     C32664   3.393   7.691   2.878  0.1409  0.1739  0.3662
  962MOL0     C32665   3.279   7.621   2.915  0.6054  0.5072 -0.1861
  962MOL0     O32666   3.113   7.400   2.724  0.2843  0.2600 -0.0592
  962MOL0     C32667   2.990   7.200   2.870 -0.4367 -0.2429  0.3900
  962MOL0     C32668   2.906   7.111   2.923  0.7472  0.3515 -0.8440
  962MOL0     N32669   2.276   6.685   2.864 -0.2088 -0.5652 -0.2681
  962MOL0     N32670   2.208   6.597   2.807 -0.6596 -0.1833 -0.4521
  962MOL0     C32671   1.127   6.147   2.589  0.1093 -0.1839  0.3949
  962MOL0     C32672   0.994   6.130   2.547 -0.7769  0.9964  0.1413
  962MOL0     C32673   0.545   6.134   2.519  1.0985 -0.4985 -0.7117
  962MOL0     C32674   0.437   6.118   2.601  0.6835  0.1616 -0.1613
  962MOL0     C32675   0.318   6.062   2.551 -0.1100  0.5074 -0.1891
  962MOL0     C32676   0.304   6.022   2.414  0.3390  0.1016  0.5861
  962MOL0     O32677   0.187   5.966   2.348 -0.9073 -0.7337 -0.0330
  962MOL0     C32678   0.058   6.002   2.396  0.7262 -0.1234 -0.5814
  962MOL0     C32679   0.019   6.148   2.346 -0.6548 -0.4169  0.0695
  962MOL0     C32680  -0.089   6.224   2.419 -0.5539 -0.3549  0.3316
  962MOL0     C32681  -0.064   6.245   2.571 -0.1777  0.4906  0.1130
  962MOL0     C32682  -0.096   6.128   2.655 -0.5027 -0.3840 -0.3052
  962MOL0     C32683  -0.114   6.045   2.740  0.2485 -0.2966  0.2702
  962MOL0     C32684   0.417   6.038   2.335  0.3713  0.6399  0.4556
  962MOL0     C32685   0.544   6.096   2.387 -0.5528  0.2016 -0.5698
  962MOL0     C32686   0.669   6.114   2.307 -0.4056  0.3474 -0.8618
  962MOL0     H32687   0.845   6.153   2.859 -1.6738  1.6904 -1.5190
  962MOL0     H32688   1.062   6.170   2.918  0.9631 -0.4732 -0.8178
  962MOL0     H32689   1.288   6.377   2.657 -0.2867  0.4196  1.6782
  962MOL0     H32690   1.397   6.247   2.615  0.2479 -1.6998  1.0822
  962MOL0     H32691   1.469   6.461   2.745 -1.3184 -0.8631 -3.0106
  962MOL0     H32692   1.403   6.382   2.884  1.9304 -2.6122  1.2579
  962MOL0     H32693   1.540   6.167   2.827  1.4609  0.0889  0.0579
  962MOL0     H32694   1.643   6.259   2.728 -0.9852  1.0444 -1.1575
  962MOL0     H32695   1.714   6.406   2.923  2.0807 -1.2304 -0.2683
  962MOL0     H32696   1.602   6.309   3.012 -2.4584  0.4356 -2.3334
  962MOL0     H32697   1.760   6.115   2.919 -0.6986 -0.0211  0.0846
  962MOL0     H32698   1.826   6.205   3.050  1.9167 -0.6119 -0.2995
  962MOL0     H32699   1.994   6.164   2.874  0.0888 -0.5117  1.0732
  962MOL0     H32700   1.912   6.252   2.753  2.2441  1.8693 -0.4684
  962MOL0     H32701   2.010   6.387   2.989 -2.6073  2.1133 -0.7849
  962MOL0     H32702   1.966   6.459   2.831  1.3448  1.6429  1.9327
  962MOL0     H32703   2.198   6.273   2.892  4.9103  2.2803 -1.0180
  962MOL0     H32704   2.149   6.336   2.729  0.8369  0.7073 -0.9245
  962MOL0     H32705   2.356   6.440   3.051 -0.4654 -2.4816 -1.3047
  962MOL0     H32706   2.490   6.650   3.142  2.9655  0.4520 -0.9701
  962MOL0     H32707   2.370   6.772   3.124  0.2477  0.7672 -0.9596
  962MOL0     H32708   2.604   6.715   2.922  1.1707  1.4823 -0.1510
  962MOL0     H32709   2.506   6.866   2.932 -1.3020 -1.5193 -1.9274
  962MOL0     H32710   2.591   6.890   3.177  3.5861  1.9987  1.7897
  962MOL0     H32711   2.688   6.740   3.149 -0.2002  0.2028  0.3707
  962MOL0     H32712   2.815   6.945   3.134  1.2419 -0.5059 -1.4750
  962MOL0     H32713   2.803   6.874   2.979  0.0850 -0.0373 -0.9195
  962MOL0     H32714   2.644   7.293   3.015 -0.5823 -0.5414 -2.2353
  962MOL0     H32715   2.841   7.554   3.037 -0.1712 -3.1710  1.7845
  962MOL0     H32716   2.671   7.531   2.975 -0.4665 -1.1592 -0.1186
  962MOL0     H32717   2.799   7.585   2.870  0.8520 -1.0744 -0.5071
  962MOL0     H32718   3.071   7.737   2.666  0.4098 -2.8716  0.3584
  962MOL0     H32719   3.263   7.883   2.632  0.1516  2.3560  2.4002
  962MOL0     H32720   3.490   7.816   2.551  0.0212 -1.4526  1.3346
  962MOL0     H32721   3.468   7.991   2.592  1.5463  0.7099 -1.6956
  962MOL0     H32722   3.704   7.954   2.503  0.0551  5.2383  0.9732
  962MOL0     H32723   3.697   8.026   2.664 -1.8586  1.9291 -1.0453
  962MOL0     H32724   3.718   7.722   2.662  0.0703  1.2332 -0.8477
  962MOL0     H32725   3.743   7.833   2.779 -1.4800  1.7310 -0.3370
  962MOL0     H32726   3.934   7.943   2.613  2.7959 -1.5533  0.7866
  962MOL0     H32727   3.891   7.808   2.513  0.1579 -0.7261 -0.0969
  962MOL0     H32728   3.998   7.782   2.793 -0.8908  2.7931 -1.8551
  962MOL0     H32729   3.937   7.646   2.676 -2.3370  1.1915 -1.2997
  962MOL0     H32730   4.172   7.842   2.635 -1.7809  0.5097  1.1791
  962MOL0     H32731   4.100   7.715   2.521  1.9943  0.6795 -0.7822
  962MOL0     H32732   4.200   7.556   2.614  0.3785 -0.4651 -0.4186
  962MOL0     H32733   4.172   7.620   2.780  0.0752 -1.4227  0.2614
  962MOL0     H32734   4.401   7.568   2.717 -0.4423 -0.1455 -1.3976
  962MOL0     H32735   4.382   7.742   2.765  0.1293 -2.0194  1.5834
  962MOL0     H32736   3.488   7.681   2.929  0.4315 -0.3038 -0.2506
  962MOL0     H32737   3.293   7.541   2.987  0.3931  1.4419  0.9375
  962MOL0     H32738   3.086   7.160   2.836 -1.8951 -6.0960  2.0919
  962MOL0     H32739   2.952   7.013   2.935 -0.2879  0.1627  2.8587
  962MOL0     H32740   1.210   6.147   2.520 -1.9509 -2.9977 -2.3821
  962MOL0     H32741   0.961   6.108   2.446 -1.0172 -0.4327  0.5133
  962MOL0     H32742   0.432   6.155   2.703 -2.2013  0.8768 -0.4531
  962MOL0     H32743   0.240   6.033   2.621 -2.1967  0.7400 -2.2914
  962MOL0     H32744  -0.013   5.929   2.355 -0.0452  1.1816 -1.6354
  962MOL0     H32745   0.058   5.992   2.505 -0.7016 -3.9131 -0.7751
  962MOL0     H32746   0.002   6.155   2.238  0.2689  2.6640  0.0188
  962MOL0     H32747   0.109   6.209   2.353 -0.3963 -0.8240  0.3356
  962MOL0     H32748  -0.098   6.324   2.378 -1.0549 -0.2352  0.7226
  962MOL0     H32749  -0.176   6.162   2.396 -1.3571  1.2230 -1.1277
  962MOL0     H32750  -0.133   6.325   2.599 -3.3415 -0.5365 -3.7835
  962MOL0     H32751   0.038   6.281   2.590  0.2989 -0.9448  0.4252
  962MOL0     H32752  -0.113   5.968   2.814 -1.5575 -1.1387 -0.5116
  962MOL0     H32753   0.412   6.005   2.231 -0.1954  2.9168 -0.2962
  962MOL0     H32754   0.655   6.075   2.205 -0.0916 -0.9612 -0.4215
  962MOL0     H32755   0.699   6.219   2.294 -2.0743  0.7870 -1.3280
  962MOL0     H32756   0.760   6.066   2.346 -0.4698 -0.4224 -1.6069
  963MOL0     O32757   8.550   5.280   4.842  0.3554  1.0089 -0.7662
  963MOL0     C32758   8.432   5.260   4.846 -0.1418 -1.1304  0.7135
  963MOL0     O32759   8.349   5.296   4.737  0.4148  0.1615  0.8030
  963MOL0     C32760   8.408   5.310   4.610 -0.1005  0.3236 -0.6054
  963MOL0     C32761   8.500   5.213   4.555  0.8224  0.1450  1.1570
  963MOL0     C32762   8.555   5.231   4.427  0.1005  1.1903 -0.3346
  963MOL0     C32763   8.526   5.341   4.351  0.2904  0.0331  0.5331
  963MOL0     O32764   8.569   5.370   4.220 -0.0828 -0.1294 -0.4712
  963MOL0     C32765   8.599   5.261   4.126 -0.0464  0.3333 -0.5394
  963MOL0     C32766   8.540   5.298   3.987 -0.7827  0.0296  0.1018
  963MOL0     C32767   8.610   5.424   3.937 -0.0132  0.1385 -0.6354
  963MOL0     C32768   8.569   5.475   3.800 -0.3257 -0.3032  0.4063
  963MOL0     C32769   8.645   5.591   3.730 -0.2349 -0.1362  0.1347
  963MOL0     C32770   8.801   5.600   3.726 -0.1722  0.8452 -0.6098
  963MOL0     C32771   8.873   5.729   3.684  0.4464 -0.1187  0.4170
  963MOL0     C32772   8.809   5.805   3.568  0.2229 -0.6039 -0.1178
  963MOL0     N32773   8.826   5.749   3.437  0.3449 -0.4255  0.2367
  963MOL0     C32774   8.944   5.697   3.383  0.2027  0.1230  0.1080
  963MOL0     C32775   8.915   5.635   3.277  0.7924  0.6859  0.2042
  963MOL0     C32776   9.011   5.559   3.185  0.1463  0.0310 -0.0189
  963MOL0     C32777   9.017   5.414   3.232  0.0400  0.5267 -0.0075
  963MOL0     C32778   9.116   5.341   3.132  0.2004  0.3527  0.0797
  963MOL0     C32779   9.049   5.297   3.006  0.0957  0.4417 -0.2385
  963MOL0     O32780   9.000   5.160   3.027 -0.9335  0.2901 -0.3284
  963MOL0     C32781   8.912   5.121   2.923 -0.1313 -0.2737  0.1767
  963MOL0     C32782   8.858   5.000   2.953 -0.4338  0.2994 -0.2790
  963MOL0     C32783   8.797   4.918   2.862  1.1837  0.3354 -0.6501
  963MOL0     C32784   8.778   4.769   2.889  0.1812  1.0321 -0.2353
  963MOL0     C32785   8.794   4.972   2.728  0.3113 -0.0864  0.8207
  963MOL0     C32786   8.742   4.894   2.605 -0.9498 -0.8964 -0.6331
  963MOL0     O32787   8.756   4.756   2.608 -0.2163  0.2144  0.5537
  963MOL0     C32788   8.725   4.674   2.501 -0.1737 -0.3370  1.4976
  963MOL0     C32789   8.700   4.720   2.366  0.2229 -0.4253 -0.4827
  963MOL0     C32790   8.666   4.621   2.266 -0.1050  1.3839 -0.8832
  963MOL0     C32791   8.647   4.481   2.288 -0.1830 -0.0525 -0.5563
  963MOL0     O32792   8.627   4.395   2.194  0.3061  0.3022  0.3506
  963MOL0     C32793   8.525   4.427   2.092 -0.7845 -0.3572 -0.6271
  963MOL0     C32794   8.418   4.317   2.114 -0.5077  0.7699  0.0910
  963MOL0     C32795   8.295   4.349   2.028  0.0419  0.4642 -0.4904
  963MOL0     C32796   8.186   4.418   2.110 -0.2303  1.0769  0.8785
  963MOL0     C32797   8.074   4.472   2.021  0.1686  0.4867 -0.3810
  963MOL0     C32798   7.997   4.381   1.932  0.6853 -0.0859 -0.1309
  963MOL0     C32799   7.891   4.292   2.001 -0.5176  0.1113 -0.8771
  963MOL0     C32800   7.856   4.175   1.901 -0.4841  0.4069  0.1003
  963MOL0    Cl32801   7.728   4.246   1.799  0.3580  0.4682  0.2325
  963MOL0     C32802   8.669   4.442   2.429  0.0676  0.1041 -0.2425
  963MOL0     C32803   8.703   4.535   2.533  1.0065 -0.5364 -0.1440
  963MOL0     O32804   8.680   4.956   2.524  0.0653 -0.0076 -0.5847
  963MOL0     C32805   8.829   5.108   2.692 -1.3455  0.1928 -0.8796
  963MOL0     C32806   8.873   5.185   2.799 -0.0826 -0.1012 -0.1993
  963MOL0     N32807   8.775   5.638   3.259 -0.2386  0.3969  0.0992
  963MOL0     N32808   8.730   5.708   3.352 -0.5155  0.8914  0.1977
  963MOL0     C32809   8.423   5.426   4.406 -1.2331  0.4483 -0.2193
  963MOL0     C32810   8.378   5.421   4.536  0.4506  0.6614 -0.5492
  963MOL0     C32811   8.374   5.201   4.968 -0.0681  0.3076 -0.6004
  963MOL0     C32812   8.240   5.203   4.985  0.3250  0.1309  0.3683
  963MOL0     C32813   8.177   5.162   5.102 -0.1239  0.6272  0.4044
  963MOL0     C32814   8.246   5.107   5.211  0.1674 -1.2113  0.1791
  963MOL0     O32815   8.204   5.033   5.324 -0.4000 -0.0810 -0.2860
  963MOL0     C32816   8.068   4.998   5.328 -0.3058  0.2405  0.5751
  963MOL0     C32817   8.023   4.885   5.241  0.0426  0.1103  0.6539
  963MOL0     C32818   8.090   4.750   5.286  0.1258  0.4651 -0.4464
  963MOL0     C32819   8.031   4.628   5.218  0.1833  0.4738  0.1854
  963MOL0     C32820   8.019   4.637   5.072 -0.2673 -0.3915 -0.3513
  963MOL0     C32821   8.006   4.657   4.959  0.2169 -0.2301 -0.6207
  963MOL0     C32822   8.381   5.092   5.190  0.7364 -0.2650 -0.1717
  963MOL0     C32823   8.445   5.139   5.073 -0.0970  1.0509  0.3700
  963MOL0     C32824   8.594   5.119   5.064  0.0931  0.1133  0.0552
  963MOL0     H32825   8.507   5.119   4.607 -1.7488 -0.2147  0.9523
  963MOL0     H32826   8.613   5.147   4.389 -2.8881 -1.2661  0.1252
  963MOL0     H32827   8.556   5.167   4.161 -0.4471  0.4467 -0.7269
  963MOL0     H32828   8.708   5.253   4.112  0.4733  2.2716  1.6823
  963MOL0     H32829   8.547   5.211   3.921 -1.0891 -0.3913  0.6120
  963MOL0     H32830   8.431   5.307   3.999 -0.8352  1.8769 -1.3508
  963MOL0     H32831   8.592   5.504   4.010  2.8502  0.3976 -0.1011
  963MOL0     H32832   8.719   5.419   3.935 -0.0460 -1.1059 -0.5025
  963MOL0     H32833   8.571   5.389   3.733 -0.4480  1.0150 -1.3555
  963MOL0     H32834   8.466   5.512   3.797  0.7767  3.0220 -1.2463
  963MOL0     H32835   8.609   5.686   3.771  2.4372  2.1368 -2.3161
  963MOL0     H32836   8.613   5.588   3.626 -1.5312  1.4505  0.4492
  963MOL0     H32837   8.835   5.574   3.827  0.6537  0.5852 -0.9462
  963MOL0     H32838   8.848   5.526   3.660  0.9574  3.7538 -3.3534
  963MOL0     H32839   8.977   5.706   3.663  0.4658  0.5267 -0.2226
  963MOL0     H32840   8.854   5.790   3.773  0.0712  1.3502 -0.6237
  963MOL0     H32841   8.704   5.825   3.592  0.6867  0.4729  1.0938
  963MOL0     H32842   8.852   5.905   3.558 -0.3146 -0.3591 -0.0556
  963MOL0     H32843   9.046   5.715   3.416 -0.9318  1.0064  3.5548
  963MOL0     H32844   9.109   5.607   3.186 -0.2335  0.8780  1.7334
  963MOL0     H32845   8.971   5.554   3.083  0.1325 -3.2084  0.0381
  963MOL0     H32846   9.060   5.402   3.332 -0.2393 -2.9642 -0.1991
  963MOL0     H32847   8.924   5.356   3.226  1.2465 -1.5283  0.0647
  963MOL0     H32848   9.207   5.394   3.101 -0.6139  2.4984  1.1768
  963MOL0     H32849   9.158   5.251   3.177 -3.3011 -2.0940 -1.0644
  963MOL0     H32850   8.958   5.357   2.996 -1.6299 -1.6915  1.3986
  963MOL0     H32851   9.103   5.311   2.912 -1.1563 -0.8003 -1.1900
  963MOL0     H32852   8.896   4.958   3.046 -2.0073 -1.5254 -0.3813
  963MOL0     H32853   8.857   4.714   2.838  0.3241  1.3860 -0.4018
  963MOL0     H32854   8.681   4.736   2.851  1.0320 -1.0958 -0.6700
  963MOL0     H32855   8.788   4.750   2.996 -0.4047 -3.3080 -0.7701
  963MOL0     H32856   8.722   4.823   2.341 -2.4435  0.8800  1.9505
  963MOL0     H32857   8.658   4.651   2.161 -0.2094 -1.6945 -1.8339
  963MOL0     H32858   8.487   4.530   2.090 -1.1553 -0.4250  1.3026
  963MOL0     H32859   8.573   4.405   1.996  1.7026  0.5432  0.3298
  963MOL0     H32860   8.455   4.216   2.094 -1.0086  0.4739  0.6385
  963MOL0     H32861   8.389   4.305   2.219  0.2244 -1.4777  0.0807
  963MOL0     H32862   8.255   4.253   1.991 -0.8744  0.5884  0.1481
  963MOL0     H32863   8.322   4.410   1.941 -2.2648  2.2607 -0.0589
  963MOL0     H32864   8.230   4.500   2.168  1.7270 -0.4587  1.6965
  963MOL0     H32865   8.145   4.356   2.190 -0.1099  0.8991  0.8050
  963MOL0     H32866   8.011   4.528   2.091 -1.4326 -1.7785  0.0991
  963MOL0     H32867   8.118   4.537   1.945  0.4580 -1.1518 -1.6780
  963MOL0     H32868   8.058   4.302   1.888 -0.8107 -1.4873  0.2064
  963MOL0     H32869   7.957   4.431   1.844  0.0161  1.7355  1.1494
  963MOL0     H32870   7.796   4.340   2.026 -1.3601 -0.9497 -1.9416
  963MOL0     H32871   7.936   4.257   2.095 -0.2690  3.1682  0.2642
  963MOL0     H32872   7.812   4.100   1.967 -1.2881  0.5425 -0.2724
  963MOL0     H32873   7.940   4.132   1.845 -2.4004 -1.5532 -1.4667
  963MOL0     H32874   8.677   4.336   2.448 -0.1202  0.1988  0.3809
  963MOL0     H32875   8.712   4.511   2.638 -1.0594 -1.8812 -0.2046
  963MOL0     H32876   8.819   5.147   2.591 -0.2264  1.3255 -0.5697
  963MOL0     H32877   8.899   5.289   2.781 -1.1531  0.3792  0.9405
  963MOL0     H32878   8.375   5.510   4.356 -3.7947 -1.5718 -1.3607
  963MOL0     H32879   8.301   5.493   4.562  0.8302  1.3190 -1.2325
  963MOL0     H32880   8.170   5.239   4.911 -2.8530 -1.2417  2.4962
  963MOL0     H32881   8.069   5.166   5.114 -0.4730  1.8571 -2.3082
  963MOL0     H32882   8.055   4.962   5.431  2.8171 -1.2921  0.5750
  963MOL0     H32883   8.014   5.091   5.314  0.8811  1.2431  2.2685
  963MOL0     H32884   8.052   4.901   5.136  0.1614  1.9131  0.9183
  963MOL0     H32885   7.914   4.881   5.240 -0.2447  2.7718 -3.1445
  963MOL0     H32886   8.199   4.762   5.276  0.2815  0.6531  1.1376
  963MOL0     H32887   8.064   4.721   5.389  1.1368 -2.2545 -0.8606
  963MOL0     H32888   7.931   4.623   5.262  0.0943 -0.9030 -0.1257
  963MOL0     H32889   8.083   4.538   5.252 -0.9611  0.4434  2.0185
  963MOL0     H32890   7.997   4.685   4.856 -1.0164  3.7665  0.3777
  963MOL0     H32891   8.428   5.034   5.268  1.5726 -1.4221 -1.4922
  963MOL0     H32892   8.628   5.064   5.151 -3.7617  0.2176  1.8271
  963MOL0     H32893   8.630   5.074   4.971 -0.8439  0.9979 -0.7721
  963MOL0     H32894   8.634   5.221   5.064 -3.5924  1.7795 -2.3164
  964MOL0     O32895  11.227   0.858   1.332  0.2672  0.3805  0.2206
  964MOL0     C32896  11.252   0.933   1.423 -0.6863  0.2966 -0.8170
  964MOL0     O32897  11.367   1.009   1.440 -0.3592 -0.2451 -0.5209
  964MOL0     C32898  11.464   1.021   1.347  0.2082 -0.5327  0.4935
  964MOL0     C32899  11.602   0.974   1.352  0.2898 -0.4457 -0.0565
  964MOL0     C32900  11.689   1.016   1.249  0.3846 -0.7911  0.4318
  964MOL0     C32901  11.646   1.112   1.148  0.9048 -0.0686 -0.5687
  964MOL0     O32902  11.718   1.168   1.046  0.5984  0.2501 -0.1211
  964MOL0     C32903  11.851   1.213   1.050  0.4605 -0.2987 -0.0640
  964MOL0     C32904  11.884   1.290   0.923 -0.3049 -0.0699 -0.1103
  964MOL0     C32905  12.011   1.375   0.950  0.1336 -0.8130 -0.1760
  964MOL0     C32906  12.041   1.478   0.841  0.0929 -0.2928  0.6236
  964MOL0     C32907  12.168   1.555   0.876  0.0289  0.0409 -0.4387
  964MOL0     C32908  12.167   1.624   1.014 -0.3535  0.1507 -0.6466
  964MOL0     C32909  12.058   1.735   1.018  0.6100 -0.4314  0.1993
  964MOL0     C32910  12.076   1.825   1.143 -0.5533 -1.2773 -0.2392
  964MOL0     N32911  11.963   1.923   1.138 -0.3594 -0.4103  0.1498
  964MOL0     C32912  11.860   1.930   1.232  0.5592  0.1629  0.2330
  964MOL0     C32913  11.783   2.028   1.182 -0.2061  0.1001 -0.6142
  964MOL0     C32914  11.668   2.091   1.246  1.2277 -0.0949 -0.3988
  964MOL0     C32915  11.586   1.999   1.338 -0.2150 -0.8367 -0.0066
  964MOL0     C32916  11.452   2.075   1.383 -0.4920 -0.3535 -0.8659
  964MOL0     C32917  11.353   1.987   1.459 -1.2132 -1.1771 -0.6620
  964MOL0     O32918  11.412   1.946   1.587  0.7346 -0.3459 -0.6379
  964MOL0     C32919  11.432   2.035   1.688 -0.3414  0.1175 -0.9350
  964MOL0     C32920  11.339   2.124   1.734  0.2216  0.3443 -0.2027
  964MOL0     C32921  11.363   2.213   1.843 -0.1509  0.3194 -0.0638
  964MOL0     C32922  11.252   2.296   1.886  0.3222  0.9493  0.0459
  964MOL0     C32923  11.499   2.203   1.901  0.1494  0.4963 -0.5421
  964MOL0     C32924  11.539   2.282   2.023  0.1176 -0.0247  0.7356
  964MOL0     O32925  11.612   2.220   2.112 -0.7662 -0.2336 -0.3126
  964MOL0     C32926  11.657   2.301   2.220 -0.0689  0.3117 -0.3390
  964MOL0     C32927  11.621   2.266   2.353 -0.3647 -0.2852  0.2125
  964MOL0     C32928  11.667   2.350   2.458  0.1056  0.1674 -0.3878
  964MOL0     C32929  11.754   2.453   2.441 -1.0203 -0.3608 -0.0407
  964MOL0     O32930  11.805   2.515   2.552 -0.2091 -0.3561 -0.3505
  964MOL0     C32931  11.915   2.608   2.540  0.3625 -0.0038  0.4995
  964MOL0     C32932  11.872   2.753   2.530 -0.2994 -0.2735  0.2703
  964MOL0     C32933  11.981   2.855   2.523 -0.1277  0.3603  0.2832
  964MOL0     C32934  12.058   2.877   2.380  0.1176  0.7374  0.4520
  964MOL0     C32935  12.139   3.005   2.402  0.0992  0.1989  0.3920
  964MOL0     C32936  12.262   3.024   2.319  0.2505 -0.6345  1.1970
  964MOL0     C32937  12.357   3.130   2.361 -0.5702  0.2608 -0.1004
  964MOL0     C32938  12.448   3.183   2.256  0.7678  0.0283 -0.3648
  964MOL0    Cl32939  12.558   3.056   2.189  0.3572  0.0591  0.8561
  964MOL0     C32940  11.786   2.484   2.310  0.3137  0.1345 -0.0354
  964MOL0     C32941  11.736   2.408   2.200 -0.7332  0.3371  0.3765
  964MOL0     O32942  11.475   2.387   2.034 -0.0804 -0.3191  0.9877
  964MOL0     C32943  11.586   2.111   1.859 -1.0710 -0.4031  0.2736
  964MOL0     C32944  11.553   2.022   1.751 -0.8383 -0.6348 -0.0640
  964MOL0     N32945  11.839   2.066   1.057  0.2761  0.4872  0.0698
  964MOL0     N32946  11.947   2.010   1.039 -0.1706  0.1101 -0.1663
  964MOL0     C32947  11.512   1.144   1.137  0.4376  0.5393  0.4530
  964MOL0     C32948  11.422   1.102   1.236 -0.1917  0.3086  1.1456
  964MOL0     C32949  11.140   0.954   1.523  0.1908  0.6381 -0.0866
  964MOL0     C32950  11.176   0.999   1.650 -1.2328 -0.2765  0.1957
  964MOL0     C32951  11.093   1.017   1.761  0.4690 -0.2306 -1.0801
  964MOL0     C32952  10.950   0.997   1.737  0.4033 -1.0547 -0.6839
  964MOL0     O32953  10.850   1.010   1.827  0.8205 -1.3530  0.8137
  964MOL0     C32954  10.868   1.070   1.955  0.0297  0.0160  0.0242
  964MOL0     C32955  10.744   1.028   2.045 -0.0390  0.0461 -0.1584
  964MOL0     C32956  10.738   0.885   2.080  0.3528  0.1328  0.2128
  964MOL0     C32957  10.665   0.802   1.967 -0.4678  0.4471 -0.5536
  964MOL0     C32958  10.688   0.656   1.981  0.6361  0.5220  0.7871
  964MOL0     C32959  10.698   0.534   2.017  0.9520  1.2448  0.7075
  964MOL0     C32960  10.907   0.952   1.613  0.6912  0.0321 -0.2143
  964MOL0     C32961  11.000   0.935   1.504  0.1641  0.2258  0.4578
  964MOL0     C32962  10.935   0.880   1.374  0.5650 -0.2791  0.2229
  964MOL0     H32963  11.656   0.921   1.430  2.0735  0.9101 -0.3175
  964MOL0     H32964  11.795   0.992   1.245  0.1186 -1.8777 -1.2185
  964MOL0     H32965  11.920   1.129   1.060  0.7764 -0.0852 -0.4254
  964MOL0     H32966  11.857   1.282   1.135  0.8944  1.8409 -1.7278
  964MOL0     H32967  11.909   1.221   0.842  0.6367  1.0564 -0.8210
  964MOL0     H32968  11.790   1.342   0.900 -0.1838  0.8603  1.4055
  964MOL0     H32969  11.977   1.434   1.036 -2.8741 -1.2039 -0.9724
  964MOL0     H32970  12.094   1.317   0.992  0.2898 -0.2392  0.3126
  964MOL0     H32971  12.057   1.421   0.749 -0.9524 -1.7330  1.3055
  964MOL0     H32972  11.963   1.547   0.809 -0.2351 -2.4846 -4.0308
  964MOL0     H32973  12.191   1.625   0.795 -1.2694  0.4733 -0.4517
  964MOL0     H32974  12.248   1.481   0.864  2.0574  2.0927 -0.2533
  964MOL0     H32975  12.148   1.552   1.093 -0.9941  0.2235 -0.7244
  964MOL0     H32976  12.262   1.671   1.040 -0.5332  0.1018  0.1151
  964MOL0     H32977  11.957   1.693   1.014 -0.2610  1.5127  0.8816
  964MOL0     H32978  12.080   1.798   0.931  1.2625  0.6593  1.1303
  964MOL0     H32979  12.053   1.762   1.229 -2.5233  0.5433  0.6577
  964MOL0     H32980  12.171   1.880   1.146 -0.9162 -0.4814 -1.8594
  964MOL0     H32981  11.854   1.889   1.333 -0.5649  2.8619  1.3747
  964MOL0     H32982  11.606   2.154   1.181  0.5203  0.8853  1.1643
  964MOL0     H32983  11.717   2.168   1.306  0.0018 -1.3762  2.4396
  964MOL0     H32984  11.557   1.908   1.285 -4.1574  0.7578 -0.8944
  964MOL0     H32985  11.642   1.976   1.429 -0.3975  0.4155  0.4396
  964MOL0     H32986  11.469   2.166   1.442 -0.3351 -0.9578  0.0365
  964MOL0     H32987  11.398   2.104   1.293  0.6003  0.1755 -1.3724
  964MOL0     H32988  11.262   2.042   1.483  0.1061 -0.0335  2.1602
  964MOL0     H32989  11.328   1.899   1.398 -0.0672 -0.2142 -2.6547
  964MOL0     H32990  11.242   2.128   1.685 -0.7350 -0.1649  1.5846
  964MOL0     H32991  11.158   2.281   1.832  1.9622  1.9793 -3.3878
  964MOL0     H32992  11.279   2.402   1.882 -0.9468  1.4868  2.9825
  964MOL0     H32993  11.252   2.254   1.987 -0.7103 -1.3066 -0.8205
  964MOL0     H32994  11.559   2.182   2.383  0.5835 -0.1593  2.7952
  964MOL0     H32995  11.627   2.339   2.558  0.0352  1.7160 -0.2265
  964MOL0     H32996  11.977   2.591   2.628 -1.3635  2.0832  2.2162
  964MOL0     H32997  11.978   2.588   2.452 -1.0818 -1.1024 -0.3477
  964MOL0     H32998  11.809   2.766   2.441  0.6559  1.3793 -0.2109
  964MOL0     H32999  11.804   2.775   2.613  0.7555 -0.3641  1.1807
  964MOL0     H33000  12.051   2.823   2.601  2.1225 -2.5804 -2.6531
  964MOL0     H33001  11.941   2.954   2.549 -0.7069 -0.6817  3.8907
  964MOL0     H33002  11.987   2.895   2.299  2.8462  2.5972 -1.7494
  964MOL0     H33003  12.121   2.792   2.350  1.3612  1.2160  1.6197
  964MOL0     H33004  12.074   3.092   2.411 -1.8980 -1.4023  3.0233
  964MOL0     H33005  12.180   3.003   2.504 -1.3762 -1.4718  1.0044
  964MOL0     H33006  12.238   3.029   2.212 -1.0706 -2.4351  1.3490
  964MOL0     H33007  12.324   2.934   2.319  3.0335  1.1312 -0.0849
  964MOL0     H33008  12.410   3.105   2.454 -1.0855  0.2981  0.2085
  964MOL0     H33009  12.308   3.220   2.397 -2.0692 -0.6758  0.2655
  964MOL0     H33010  12.509   3.259   2.307  2.1972 -1.9769  1.0453
  964MOL0     H33011  12.394   3.223   2.170  0.7515  0.1560 -0.2961
  964MOL0     H33012  11.836   2.577   2.285 -2.0506  1.2046 -1.0862
  964MOL0     H33013  11.768   2.435   2.100 -0.3383  2.1637  0.9513
  964MOL0     H33014  11.687   2.101   1.898  0.1821 -2.9744 -3.1582
  964MOL0     H33015  11.639   1.958   1.734 -0.5214  0.2849 -2.2280
  964MOL0     H33016  11.496   1.231   1.073  1.4005  1.0790  0.9117
  964MOL0     H33017  11.322   1.142   1.240  0.2422  1.3411  4.1570
  964MOL0     H33018  11.279   1.003   1.684 -1.6355  0.6740  1.3813
  964MOL0     H33019  11.124   1.038   1.863 -0.7389 -1.5159 -0.4138
  964MOL0     H33020  10.961   1.030   1.994 -2.3521 -4.1866  2.0545
  964MOL0     H33021  10.867   1.178   1.935 -1.5692 -0.5135 -3.6337
  964MOL0     H33022  10.655   1.075   2.002  1.1302  1.5001 -1.1198
  964MOL0     H33023  10.744   1.083   2.140 -2.3240 -1.0595  0.5579
  964MOL0     H33024  10.837   0.849   2.107 -0.1598 -0.5702  1.1887
  964MOL0     H33025  10.675   0.870   2.168 -1.1154 -2.4374 -1.1740
  964MOL0     H33026  10.709   0.830   1.871  1.3182 -0.5494 -0.0773
  964MOL0     H33027  10.559   0.826   1.961 -0.2056  1.9489  0.3312
  964MOL0     H33028  10.709   0.433   2.051 -1.9524  0.7543  0.4373
  964MOL0     H33029  10.801   0.942   1.592  0.4125  0.6798  0.7931
  964MOL0     H33030  10.959   0.775   1.359 -0.2308 -0.0840 -3.2532
  964MOL0     H33031  10.825   0.881   1.375  0.4835 -1.8282 -1.4196
  964MOL0     H33032  10.978   0.929   1.286  0.2464 -0.6986 -0.1708
  965MOL0     O33033   9.222   4.247   5.062  0.3650 -0.2177 -0.5497
  965MOL0     C33034   9.265   4.144   5.015 -0.1098 -0.0247  0.9440
  965MOL0     O33035   9.391   4.096   5.033 -0.0851  1.0729 -0.3981
  965MOL0     C33036   9.484   4.155   5.118  0.2019 -0.5691 -0.1556
  965MOL0     C33037   9.462   4.244   5.220 -0.5435 -0.0500  0.1516
  965MOL0     C33038   9.570   4.313   5.284  0.1084  0.0025  0.5516
  965MOL0     C33039   9.701   4.267   5.255 -1.1750  0.0657 -0.3081
  965MOL0     O33040   9.812   4.318   5.321 -0.3855  0.5743  0.2224
  965MOL0     C33041   9.813   4.291   5.464  0.7849  0.4916  0.1429
  965MOL0     C33042   9.961   4.284   5.512  0.7106 -0.0770 -0.4581
  965MOL0     C33043   9.972   4.189   5.637 -0.6122 -0.8617 -0.0855
  965MOL0     C33044  10.108   4.210   5.696  0.2460  0.6708  0.5286
  965MOL0     C33045  10.144   4.100   5.797 -1.0774 -0.1725 -0.6744
  965MOL0     C33046  10.288   4.136   5.846 -0.3714 -0.2211  0.0323
  965MOL0     C33047  10.327   4.018   5.928  0.4683  0.2403 -1.3207
  965MOL0     C33048  10.279   4.022   6.067  0.5855 -0.1159  0.4172
  965MOL0     N33049  10.327   4.126   6.158  0.2182  0.2270  0.5639
  965MOL0     C33050  10.265   4.251   6.174 -0.0874  0.2980 -0.0059
  965MOL0     C33051  10.356   4.323   6.234  0.0430  0.1622  0.9342
  965MOL0     C33052  10.360   4.472   6.239 -0.0180  0.0507 -0.9844
  965MOL0     C33053  10.397   4.542   6.109  0.6467  0.2852 -0.4127
  965MOL0     C33054  10.548   4.557   6.100 -0.3450 -0.0872 -0.4984
  965MOL0     C33055  10.600   4.652   5.993  0.0313 -0.2135  0.4325
  965MOL0     O33056  10.550   4.630   5.860 -0.5268 -0.1320  0.3046
  965MOL0     C33057  10.602   4.523   5.797 -0.4295  0.2908 -0.3155
  965MOL0     C33058  10.562   4.503   5.663  0.3953 -0.6129  0.5930
  965MOL0     C33059  10.613   4.392   5.584 -0.1599  0.1699  0.3429
  965MOL0     C33060  10.527   4.363   5.454 -0.0191  0.2850  0.4511
  965MOL0     C33061  10.712   4.303   5.636  0.0718 -0.6658  0.1389
  965MOL0     C33062  10.767   4.186   5.556 -0.7701  0.7811  0.4271
  965MOL0     O33063  10.842   4.095   5.630  0.4660  0.0219  0.5412
  965MOL0     C33064  10.916   3.995   5.569 -0.0396 -0.9390  0.5489
  965MOL0     C33065  10.979   4.011   5.441  0.0881  0.4683  0.6112
  965MOL0     C33066  11.048   3.905   5.387 -1.0226  1.6482  0.1631
  965MOL0     C33067  11.085   3.786   5.457  0.4635  0.0640 -0.1848
  965MOL0     O33068  11.170   3.687   5.404 -0.1463 -0.0123  0.9274
  965MOL0     C33069  11.238   3.727   5.280  0.4215  0.3166  0.5882
  965MOL0     C33070  11.354   3.626   5.266 -0.6286  0.0859 -0.4581
  965MOL0     C33071  11.313   3.477   5.303  1.1557 -0.3741 -0.0946
  965MOL0     C33072  11.366   3.364   5.207 -0.1372 -0.5529  0.2875
  965MOL0     C33073  11.456   3.271   5.290  0.1555  0.6518  0.0887
  965MOL0     C33074  11.377   3.154   5.358  0.9293 -0.4725 -0.4419
  965MOL0     C33075  11.316   3.049   5.258 -0.5950 -0.4336 -0.1607
  965MOL0     C33076  11.250   2.930   5.332 -0.0587 -0.2580  0.0908
  965MOL0    Cl33077  11.347   2.855   5.450  0.2143  0.0045 -0.0352
  965MOL0     C33078  11.029   3.775   5.583 -0.4672  0.5517  0.3478
  965MOL0     C33079  10.941   3.875   5.630 -0.6086  0.2267 -0.4758
  965MOL0     O33080  10.747   4.173   5.433  0.0175  0.6530  0.2055
  965MOL0     C33081  10.765   4.340   5.763  0.1856  0.3222 -0.5340
  965MOL0     C33082  10.714   4.446   5.840  0.4046 -0.2774 -0.1981
  965MOL0     N33083  10.456   4.248   6.277 -0.5034 -0.6482  0.0001
  965MOL0     N33084  10.441   4.127   6.229 -0.5657  0.0692 -1.1313
  965MOL0     C33085   9.716   4.155   5.169  0.8954 -0.1581  0.1823
  965MOL0     C33086   9.609   4.098   5.101 -0.7622 -0.3738  0.3853
  965MOL0     C33087   9.191   4.072   4.908 -0.8924  0.1478  0.9957
  965MOL0     C33088   9.271   4.031   4.798 -0.4003 -0.4588  0.0180
  965MOL0     C33089   9.221   3.964   4.687  0.9131  0.4627 -0.5860
  965MOL0     C33090   9.085   3.925   4.694 -0.7816 -0.4505  0.6988
  965MOL0     O33091   9.033   3.852   4.593 -0.3409  0.5265 -0.3252
  965MOL0     C33092   9.107   3.744   4.531  0.0397 -1.0543  0.0481
  965MOL0     C33093   9.113   3.611   4.614 -0.1090  0.1843 -0.0550
  965MOL0     C33094   8.981   3.602   4.702 -1.5414  0.4655  0.1461
  965MOL0     C33095   8.970   3.462   4.769 -0.2996 -0.1203 -0.6266
  965MOL0     C33096   8.910   3.360   4.686  0.7363  0.0926  0.8918
  965MOL0     C33097   8.867   3.295   4.597 -0.3439 -0.3086 -0.5455
  965MOL0     C33098   9.006   3.967   4.802  0.6314 -0.5102  0.6547
  965MOL0     C33099   9.059   4.031   4.910 -0.0895 -0.6356  1.0633
  965MOL0     C33100   8.970   4.057   5.030  0.7297 -0.1628 -0.9354
  965MOL0     H33101   9.362   4.275   5.249 -0.7359 -1.3076  0.8864
  965MOL0     H33102   9.571   4.401   5.348 -0.5216  1.3039 -1.1453
  965MOL0     H33103   9.770   4.200   5.506  2.4766 -0.3904  0.0440
  965MOL0     H33104   9.749   4.369   5.506 -0.3229 -0.5164  0.3892
  965MOL0     H33105  10.028   4.244   5.435  2.4083  1.8758 -0.0851
  965MOL0     H33106   9.987   4.388   5.533  0.1126 -0.3797  2.0211
  965MOL0     H33107   9.899   4.218   5.713  0.9482  0.6371  0.9138
  965MOL0     H33108   9.955   4.082   5.627  2.5407 -1.8101  2.8512
  965MOL0     H33109  10.186   4.211   5.619  0.7411 -1.6725  0.9302
  965MOL0     H33110  10.123   4.307   5.746  0.7640 -0.2320  2.2166
  965MOL0     H33111  10.146   4.001   5.750 -2.6321 -0.7284  0.3685
  965MOL0     H33112  10.076   4.104   5.882  0.3920  3.2677  0.5280
  965MOL0     H33113  10.352   4.138   5.757  0.2741  0.9865  0.4972
  965MOL0     H33114  10.303   4.229   5.902 -0.4762 -1.3679  2.0413
  965MOL0     H33115  10.436   4.017   5.938  0.5674 -2.8049 -1.7564
  965MOL0     H33116  10.290   3.928   5.879 -0.5437  0.4912 -1.0382
  965MOL0     H33117  10.170   4.021   6.067  0.5552 -1.1819  2.1750
  965MOL0     H33118  10.292   3.930   6.124 -0.3146 -1.2446 -1.1316
  965MOL0     H33119  10.181   4.298   6.123 -2.0966 -3.2608 -0.2527
  965MOL0     H33120  10.434   4.497   6.315 -0.7126 -0.8573  0.0223
  965MOL0     H33121  10.270   4.514   6.285  0.8919 -0.8387  1.7961
  965MOL0     H33122  10.344   4.496   6.025 -0.1463 -1.0741  0.8054
  965MOL0     H33123  10.348   4.639   6.124  1.1031  0.8461 -2.2732
  965MOL0     H33124  10.590   4.588   6.196  2.6433 -1.6928 -1.1851
  965MOL0     H33125  10.580   4.454   6.087 -1.3840 -0.7689  1.7795
  965MOL0     H33126  10.569   4.753   6.021 -1.4508 -0.3253 -0.7139
  965MOL0     H33127  10.709   4.645   5.996  0.0832  0.1502 -0.4198
  965MOL0     H33128  10.504   4.571   5.602 -0.0036 -1.4596 -0.0011
  965MOL0     H33129  10.458   4.445   5.430  2.5471  2.4716  0.1212
  965MOL0     H33130  10.470   4.269   5.456 -1.6988  0.6610 -6.4313
  965MOL0     H33131  10.585   4.360   5.362 -0.4487  0.7978  0.1558
  965MOL0     H33132  10.956   4.103   5.387 -3.2647 -1.3908 -1.4535
  965MOL0     H33133  11.083   3.912   5.285 -3.3479  0.5464 -0.7798
  965MOL0     H33134  11.169   3.720   5.196  0.4379  0.3827  0.5691
  965MOL0     H33135  11.286   3.824   5.296  0.8932 -0.1077  1.9174
  965MOL0     H33136  11.413   3.637   5.175  2.0498 -0.7141  1.0791
  965MOL0     H33137  11.420   3.647   5.351  0.2696 -1.3402 -0.7589
  965MOL0     H33138  11.204   3.485   5.305  1.2857  2.1005  0.3608
  965MOL0     H33139  11.348   3.448   5.403  1.0586 -0.5836 -0.1207
  965MOL0     H33140  11.425   3.419   5.133 -2.9948  0.9572 -1.0222
  965MOL0     H33141  11.284   3.299   5.176  1.2120 -1.7653 -0.8695
  965MOL0     H33142  11.525   3.218   5.223 -0.8003  0.3630 -0.6802
  965MOL0     H33143  11.508   3.332   5.365 -1.5295  0.6496  1.3080
  965MOL0     H33144  11.297   3.187   5.424 -1.0282 -3.3768 -1.2085
  965MOL0     H33145  11.453   3.098   5.413  1.1433 -1.3611 -1.5966
  965MOL0     H33146  11.394   3.007   5.194 -2.7081 -1.7263 -2.0144
  965MOL0     H33147  11.253   3.096   5.182  0.6360 -0.8236 -1.4561
  965MOL0     H33148  11.205   2.846   5.277 -0.3926  1.0327 -1.6980
  965MOL0     H33149  11.158   2.973   5.373 -1.5978 -2.2369 -1.1101
  965MOL0     H33150  11.051   3.690   5.647 -1.4805 -0.3521 -0.4624
  965MOL0     H33151  10.896   3.844   5.724  1.7206  0.6516  0.8415
  965MOL0     H33152  10.854   4.289   5.796  2.8505  2.6823 -3.4937
  965MOL0     H33153  10.769   4.467   5.931 -0.9789  3.5238 -0.0610
  965MOL0     H33154   9.817   4.127   5.143  0.7258 -0.5695 -0.0491
  965MOL0     H33155   9.621   4.017   5.030 -1.1925 -3.2041  3.2978
  965MOL0     H33156   9.375   4.060   4.791 -1.2115  2.6282 -0.8217
  965MOL0     H33157   9.278   3.950   4.596  0.7143  0.0234 -0.6401
  965MOL0     H33158   9.058   3.706   4.441 -2.7940  2.5480 -0.1177
  965MOL0     H33159   9.203   3.777   4.489 -0.6792 -1.4246 -2.0165
  965MOL0     H33160   9.191   3.597   4.689 -2.4407 -0.0885  2.5229
  965MOL0     H33161   9.113   3.522   4.550  0.9703  0.6470 -0.7200
  965MOL0     H33162   8.991   3.672   4.786 -2.2483  1.3217 -0.4679
  965MOL0     H33163   8.886   3.624   4.653 -2.7459  0.8935  2.5063
  965MOL0     H33164   8.912   3.487   4.858 -0.7022 -1.7570 -0.3842
  965MOL0     H33165   9.065   3.413   4.794 -1.3774 -1.9112  0.2056
  965MOL0     H33166   8.847   3.215   4.529  0.9132  0.4888 -1.9105
  965MOL0     H33167   8.899   3.945   4.798  0.1149  1.7803  0.6723
  965MOL0     H33168   8.998   3.992   5.114  0.3986  0.0863 -0.6262
  965MOL0     H33169   8.977   4.161   5.065  1.3779 -0.4121 -0.2962
  965MOL0     H33170   8.864   4.032   5.016  0.3013  0.3357  1.0072
  966MOL0     O33171   4.000   7.763   6.001 -0.0492  0.6446  0.1743
  966MOL0     C33172   4.094   7.763   6.075 -0.8472 -0.3060  0.1825
  966MOL0     O33173   4.222   7.737   6.041  0.4137  0.7210 -0.2652
  966MOL0     C33174   4.235   7.646   5.934 -0.3132  0.0259 -0.0606
  966MOL0     C33175   4.234   7.503   5.955 -0.0595 -0.9333 -0.1478
  966MOL0     C33176   4.270   7.417   5.853  0.7054 -0.1592  0.2973
  966MOL0     C33177   4.284   7.469   5.721  1.2426  0.4015  0.2797
  966MOL0     O33178   4.291   7.389   5.608  0.5175  1.0365  0.7158
  966MOL0     C33179   4.293   7.245   5.598 -0.3544  0.0986  0.8701
  966MOL0     C33180   4.359   7.205   5.465 -0.2993 -0.7549 -0.7865
  966MOL0     C33181   4.512   7.218   5.461  0.0590  0.0247 -0.2704
  966MOL0     C33182   4.578   7.188   5.333 -0.0185  0.0605  0.3913
  966MOL0     C33183   4.568   7.312   5.244  0.2418  0.2098  0.2887
  966MOL0     C33184   4.645   7.293   5.116 -0.4209 -0.0620  0.6844
  966MOL0     C33185   4.791   7.326   5.111 -0.9025 -0.7381 -0.4585
  966MOL0     C33186   4.860   7.276   4.982  0.8571 -0.2574  0.9102
  966MOL0     N33187   5.000   7.297   4.991 -1.0419  0.1824 -0.0759
  966MOL0     C33188   5.064   7.415   4.993 -0.0660 -0.4834 -0.1794
  966MOL0     C33189   5.199   7.387   5.016  0.1664  0.5085  0.9723
  966MOL0     C33190   5.323   7.462   5.017 -0.1986 -1.1177 -0.1843
  966MOL0     C33191   5.339   7.558   5.131 -0.6074 -0.3394 -1.1933
  966MOL0     C33192   5.439   7.670   5.098  0.7023  0.8129  0.8198
  966MOL0     C33193   5.428   7.795   5.183  0.6233 -0.1412 -0.3130
  966MOL0     O33194   5.446   7.776   5.322 -0.6343 -0.6199 -0.4511
  966MOL0     C33195   5.567   7.733   5.374 -0.3340 -0.3873 -0.0065
  966MOL0     C33196   5.559   7.686   5.510  0.2840  0.4560 -0.5714
  966MOL0     C33197   5.680   7.657   5.580 -0.6836  0.2240 -0.1747
  966MOL0     C33198   5.677   7.590   5.712  0.3079  0.0533 -0.7675
  966MOL0     C33199   5.809   7.679   5.516  0.3081 -0.0443 -0.1936
  966MOL0     C33200   5.939   7.646   5.569  0.5099  0.0898 -0.5554
  966MOL0     O33201   6.046   7.695   5.512 -0.2297 -0.6301 -0.0531
  966MOL0     C33202   6.170   7.673   5.566  0.5268  0.3567  0.3768
  966MOL0     C33203   6.203   7.717   5.691  0.2689  0.0195  0.3533
  966MOL0     C33204   6.335   7.700   5.732  0.3242 -0.2973 -0.2696
  966MOL0     C33205   6.431   7.649   5.645 -0.3064 -0.0245  0.0865
  966MOL0     O33206   6.555   7.637   5.705  0.2597  0.3327 -0.6142
  966MOL0     C33207   6.656   7.568   5.641 -0.4138  0.3947 -0.1094
  966MOL0     C33208   6.791   7.628   5.693  0.6335  0.0866  0.2293
  966MOL0     C33209   6.824   7.569   5.834 -0.4457 -0.8763 -1.0461
  966MOL0     C33210   6.961   7.608   5.876  0.1209  0.3444 -0.3583
  966MOL0     C33211   7.034   7.533   5.990 -0.0102  0.1998 -0.0458
  966MOL0     C33212   6.966   7.508   6.124 -0.8156  0.0743  0.6388
  966MOL0     C33213   7.033   7.407   6.212 -0.1055  0.5283 -0.8268
  966MOL0     C33214   6.963   7.387   6.349  0.3330 -0.3150 -0.5434
  966MOL0    Cl33215   7.008   7.227   6.415  0.0482 -0.3628  0.3205
  966MOL0     C33216   6.391   7.605   5.517 -0.1288  0.1029  0.2684
  966MOL0     C33217   6.265   7.612   5.478  0.2426 -0.8998 -0.1808
  966MOL0     O33218   5.949   7.556   5.657 -0.2874 -0.3900  0.3103
  966MOL0     C33219   5.799   7.720   5.388 -0.5421 -1.0935 -0.0573
  966MOL0     C33220   5.686   7.742   5.314 -0.7991 -0.2819 -0.3427
  966MOL0     N33221   5.212   7.251   5.030  0.1193 -0.4077  0.1630
  966MOL0     N33222   5.096   7.197   5.025 -0.2130 -0.4796  0.3343
  966MOL0     C33223   4.270   7.607   5.706 -1.4051  0.5229 -0.0196
  966MOL0     C33224   4.251   7.707   5.807 -0.3499  1.1576  0.0193
  966MOL0     C33225   4.068   7.805   6.220  0.1986  0.3848  0.2050
  966MOL0     C33226   4.152   7.898   6.280  0.2108  0.2182  1.3375
  966MOL0     C33227   4.125   7.952   6.404 -0.2809 -0.3975 -0.2425
  966MOL0     C33228   4.013   7.921   6.480 -1.3611 -0.2406 -0.1326
  966MOL0     O33229   3.970   7.985   6.596  0.0514 -0.1067  0.8002
  966MOL0     C33230   4.071   7.972   6.704  0.7455 -0.2068  0.1381
  966MOL0     C33231   3.996   8.037   6.822 -0.4226 -0.1744 -0.7336
  966MOL0     C33232   4.075   8.051   6.954 -0.5507 -0.4225 -0.1536
  966MOL0     C33233   4.094   7.924   7.026 -1.0040  0.3249  0.0069
  966MOL0     C33234   3.962   7.877   7.070 -0.1944  0.4632  0.0413
  966MOL0     C33235   3.853   7.839   7.108  0.3138  0.4551  0.8205
  966MOL0     C33236   3.921   7.843   6.416  0.3527 -0.0816  0.0404
  966MOL0     C33237   3.942   7.786   6.290 -0.3458  0.7060 -0.6012
  966MOL0     C33238   3.822   7.706   6.238  0.1897  0.4533 -0.8170
  966MOL0     H33239   4.207   7.463   6.052  0.3050  2.8713  1.7078
  966MOL0     H33240   4.267   7.309   5.867 -5.4667 -0.3777  0.0505
  966MOL0     H33241   4.191   7.207   5.602 -0.0793 -0.6345  1.1164
  966MOL0     H33242   4.355   7.208   5.680  4.9036  2.3998 -1.5920
  966MOL0     H33243   4.336   7.098   5.457 -0.8642 -0.7756  0.9080
  966MOL0     H33244   4.303   7.262   5.390 -0.2302 -0.0556 -0.3120
  966MOL0     H33245   4.551   7.311   5.504  1.2543  0.6285 -2.5355
  966MOL0     H33246   4.546   7.135   5.523  0.4679 -1.3361 -2.2352
  966MOL0     H33247   4.676   7.151   5.364 -0.3241 -1.2417 -0.1390
  966MOL0     H33248   4.518   7.105   5.294 -0.3913 -0.1588  1.3941
  966MOL0     H33249   4.612   7.400   5.293 -0.1733  1.2170 -1.0806
  966MOL0     H33250   4.464   7.327   5.213  0.4902 -1.6172 -1.6577
  966MOL0     H33251   4.640   7.191   5.076  0.9724  0.1486 -0.0806
  966MOL0     H33252   4.594   7.350   5.038  1.1007 -1.8358 -1.7667
  966MOL0     H33253   4.837   7.272   5.194  1.3897 -2.3284 -2.6254
  966MOL0     H33254   4.800   7.434   5.125 -3.0769 -0.7098  1.3590
  966MOL0     H33255   4.840   7.170   4.962 -3.1595  0.9168 -3.0661
  966MOL0     H33256   4.831   7.335   4.895  0.1499 -0.0104  1.3074
  966MOL0     H33257   5.017   7.510   4.968 -0.4627 -1.0645 -1.7630
  966MOL0     H33258   5.335   7.510   4.920 -0.2180 -4.6193 -2.0745
  966MOL0     H33259   5.398   7.384   5.034 -1.2650 -2.1478 -0.0957
  966MOL0     H33260   5.242   7.598   5.160 -1.8044 -2.5344 -1.9397
  966MOL0     H33261   5.383   7.507   5.217 -2.0524  2.8402  1.6653
  966MOL0     H33262   5.542   7.633   5.103  0.4521  0.2398  2.0107
  966MOL0     H33263   5.426   7.707   4.995  1.7172  0.7827  0.6657
  966MOL0     H33264   5.497   7.867   5.138 -1.9161  0.8015 -3.0016
  966MOL0     H33265   5.326   7.834   5.185  0.1434 -1.3705  0.5669
  966MOL0     H33266   5.471   7.681   5.574 -0.0669 -1.5061 -1.1298
  966MOL0     H33267   5.582   7.599   5.764  1.1305 -0.3708  0.8536
  966MOL0     H33268   5.752   7.632   5.779  3.0164  0.5611 -3.8563
  966MOL0     H33269   5.695   7.482   5.708 -2.5660 -0.5948  1.2487
  966MOL0     H33270   6.130   7.761   5.759 -0.3298 -0.5101  0.0611
  966MOL0     H33271   6.361   7.733   5.832 -0.8415  0.7276 -0.2789
  966MOL0     H33272   6.659   7.461   5.664  0.5118  0.9367  2.6662
  966MOL0     H33273   6.658   7.576   5.532 -0.3387  0.7334 -0.0820
  966MOL0     H33274   6.872   7.597   5.626 -0.3476 -1.9774 -0.0544
  966MOL0     H33275   6.776   7.736   5.685 -0.7382 -0.1536 -0.7268
  966MOL0     H33276   6.829   7.460   5.827 -0.8439 -1.3937  3.7625
  966MOL0     H33277   6.750   7.594   5.910 -1.6199 -0.7620 -2.1896
  966MOL0     H33278   6.975   7.710   5.913  1.7937  1.0079 -2.6248
  966MOL0     H33279   7.023   7.595   5.787  0.3775 -1.0284  0.0045
  966MOL0     H33280   7.073   7.437   5.955 -0.2487  0.5039 -1.1812
  966MOL0     H33281   7.125   7.589   6.013 -0.0276 -0.3113  1.4154
  966MOL0     H33282   6.859   7.488   6.117 -0.2366 -3.1054 -1.3252
  966MOL0     H33283   6.978   7.604   6.174  0.1495  0.8176 -0.9519
  966MOL0     H33284   7.137   7.439   6.221  0.1309 -0.5070  0.3416
  966MOL0     H33285   7.035   7.310   6.160  3.5125  0.6067 -1.0759
  966MOL0     H33286   6.855   7.397   6.336 -0.0659 -2.8721  0.1649
  966MOL0     H33287   7.010   7.458   6.418 -1.5355 -0.8213  1.3829
  966MOL0     H33288   6.465   7.564   5.448 -1.6708 -1.2417 -0.6392
  966MOL0     H33289   6.230   7.593   5.377  1.2992 -2.4422 -0.3035
  966MOL0     H33290   5.892   7.732   5.333  2.9969  1.5244  5.6724
  966MOL0     H33291   5.692   7.788   5.216 -1.6234  1.7563  0.5125
  966MOL0     H33292   4.277   7.652   5.608  1.4775 -2.9191 -1.5972
  966MOL0     H33293   4.238   7.814   5.794  1.1368  1.2803 -0.6202
  966MOL0     H33294   4.248   7.929   6.240  0.3731 -1.6816  0.1433
  966MOL0     H33295   4.189   8.033   6.437 -2.0440  0.7386  0.5365
  966MOL0     H33296   4.098   7.867   6.720 -1.4248 -0.8154  0.1537
  966MOL0     H33297   4.163   8.031   6.699 -0.0904  1.4234  2.5611
  966MOL0     H33298   3.902   7.981   6.826  0.9867 -2.8479 -2.0321
  966MOL0     H33299   3.965   8.132   6.778  1.5915  0.7872 -0.1947
  966MOL0     H33300   4.172   8.089   6.923 -0.0416 -3.4130 -2.7326
  966MOL0     H33301   4.022   8.118   7.023 -0.9995  1.2139 -2.0043
  966MOL0     H33302   4.157   7.950   7.112 -0.4741 -0.0582 -0.2580
  966MOL0     H33303   4.131   7.844   6.962 -2.8483  1.0240 -2.0381
  966MOL0     H33304   3.760   7.788   7.120  0.5290  0.7598  6.1419
  966MOL0     H33305   3.830   7.806   6.461  0.8717 -1.7141 -0.1837
  966MOL0     H33306   3.844   7.603   6.269  1.9367  1.7602  3.0118
  966MOL0     H33307   3.732   7.744   6.286  0.4226  1.0829 -0.8654
  966MOL0     H33308   3.818   7.703   6.129  3.1728 -2.5086 -1.0279
  967MOL0     O33309   5.678   3.390   7.707 -0.1624  0.2547 -0.1403
  967MOL0     C33310   5.624   3.494   7.662 -0.2640  0.6054  0.8983
  967MOL0     O33311   5.616   3.611   7.735 -0.9662  0.2851 -0.3930
  967MOL0     C33312   5.614   3.617   7.868 -0.5938  0.1844  0.4479
  967MOL0     C33313   5.690   3.718   7.928  0.2946 -0.0123 -0.2615
  967MOL0     C33314   5.693   3.726   8.069 -0.5451 -0.4037 -0.0890
  967MOL0     C33315   5.627   3.646   8.154 -0.8287  0.2053 -0.6776
  967MOL0     O33316   5.647   3.652   8.293  0.1569 -0.5498 -0.1845
  967MOL0     C33317   5.521   3.679   8.366  0.0478 -0.5029  0.7292
  967MOL0     C33318   5.560   3.755   8.497  1.1753  0.1316  0.0857
  967MOL0     C33319   5.610   3.652   8.601  0.6429  0.8568  0.2675
  967MOL0     C33320   5.653   3.717   8.736  0.3253 -0.7119  0.2329
  967MOL0     C33321   5.538   3.797   8.802  0.5179 -0.2003 -0.6054
  967MOL0     C33322   5.593   3.865   8.927 -0.4733  0.0270 -0.3512
  967MOL0     C33323   5.476   3.920   9.003  0.2119 -0.5051 -0.9628
  967MOL0     C33324   5.512   3.977   9.137  0.1864  0.1575  1.2908
  967MOL0     N33325   5.617   4.077   9.145  0.1266  0.3208 -0.1974
  967MOL0     C33326   5.614   4.201   9.083  0.4802 -0.1330 -0.4857
  967MOL0     C33327   5.744   4.248   9.095  0.7448  0.1401 -0.0009
  967MOL0     C33328   5.789   4.371   9.019  0.2833  0.4055  0.5381
  967MOL0     C33329   5.921   4.441   9.067  1.3557 -0.4227 -0.1548
  967MOL0     C33330   5.914   4.589   9.034  0.7092  0.0571 -0.4187
  967MOL0     C33331   6.043   4.660   9.033 -0.7328  0.0624 -0.1462
  967MOL0     O33332   6.119   4.634   9.153  0.4559  0.4382  0.7254
  967MOL0     C33333   6.228   4.708   9.191  0.0009  0.3913  0.3661
  967MOL0     C33334   6.333   4.649   9.269 -0.0239 -1.0788  0.1811
  967MOL0     C33335   6.449   4.719   9.300  0.0590 -0.0422  0.2991
  967MOL0     C33336   6.558   4.638   9.357 -0.2302  0.1299 -1.0712
  967MOL0     C33337   6.465   4.854   9.267  0.6887 -1.0948  0.3942
  967MOL0     C33338   6.572   4.941   9.326  0.1913  0.2418  0.8930
  967MOL0     O33339   6.608   4.918   9.452 -0.1528 -0.9161 -1.1420
  967MOL0     C33340   6.731   4.960   9.489 -0.2228 -0.5922  0.7065
  967MOL0     C33341   6.749   5.047   9.596 -0.7647  0.2066 -0.0558
  967MOL0     C33342   6.882   5.094   9.633 -0.1497 -0.5506 -0.6372
  967MOL0     C33343   6.999   5.050   9.572  0.0884  0.2376  0.3935
  967MOL0     O33344   7.132   5.077   9.609  0.6754 -0.2431  0.9928
  967MOL0     C33345   7.155   5.217   9.576  0.3660 -0.2933  0.0359
  967MOL0     C33346   7.302   5.224   9.544 -0.3248 -0.4845 -0.5872
  967MOL0     C33347   7.336   5.151   9.418  1.3187  0.5393  0.5739
  967MOL0     C33348   7.481   5.183   9.380  0.1885 -0.1080 -0.5365
  967MOL0     C33349   7.522   5.119   9.248 -0.4671 -1.2592  0.7554
  967MOL0     C33350   7.451   5.175   9.120  0.6773  0.7950  0.4284
  967MOL0     C33351   7.523   5.134   8.988  0.8911  0.5370  0.5766
  967MOL0     C33352   7.634   5.228   8.942  0.5018 -0.6176 -0.3365
  967MOL0    Cl33353   7.715   5.320   9.066 -0.4366 -0.0810  0.6536
  967MOL0     C33354   6.982   4.957   9.469  0.9805 -0.7898 -0.4841
  967MOL0     C33355   6.852   4.913   9.428 -0.2145 -0.8119 -0.3104
  967MOL0     O33356   6.621   5.026   9.247 -0.1729  0.2150 -0.0417
  967MOL0     C33357   6.361   4.912   9.193  0.7027  0.0913  0.2014
  967MOL0     C33358   6.249   4.842   9.160  0.5611 -0.5211 -0.5533
  967MOL0     N33359   5.822   4.147   9.160  0.5074 -0.7058 -0.0880
  967MOL0     N33360   5.742   4.045   9.198 -0.0651 -0.5161 -0.1621
  967MOL0     C33361   5.552   3.540   8.089 -0.4491 -0.0647  1.5984
  967MOL0     C33362   5.536   3.531   7.947  0.0809 -0.2414  0.0743
  967MOL0     C33363   5.586   3.500   7.513  0.3702 -0.0398  0.3799
  967MOL0     C33364   5.538   3.619   7.457 -0.6585  0.1600  0.3264
  967MOL0     C33365   5.501   3.623   7.323  0.9221 -0.2963  1.6331
  967MOL0     C33366   5.522   3.510   7.235  0.7207 -1.1435 -0.0211
  967MOL0     O33367   5.480   3.511   7.107 -0.5732  0.3717 -0.5507
  967MOL0     C33368   5.532   3.418   7.012 -0.3624 -0.4034 -0.3985
  967MOL0     C33369   5.499   3.475   6.871 -0.6918  0.4281  0.5227
  967MOL0     C33370   5.350   3.467   6.835 -0.0413  0.1883  0.1985
  967MOL0     C33371   5.322   3.441   6.685 -0.7657 -0.1805 -0.2721
  967MOL0     C33372   5.191   3.493   6.660  0.3769 -0.0220 -0.0732
  967MOL0     C33373   5.079   3.533   6.631  0.2370  0.6335 -1.0750
  967MOL0     C33374   5.578   3.401   7.290 -0.3064 -0.5871  0.0231
  967MOL0     C33375   5.607   3.391   7.426  0.1770  0.2789  0.9471
  967MOL0     C33376   5.662   3.251   7.467 -0.6860  0.1197 -0.2305
  967MOL0     H33377   5.759   3.784   7.876  0.3182 -0.0191 -0.2386
  967MOL0     H33378   5.760   3.795   8.118 -0.8025 -0.8789  0.9669
  967MOL0     H33379   5.466   3.589   8.397  3.5522 -2.5803  1.5990
  967MOL0     H33380   5.458   3.745   8.307  0.8299 -1.1004 -0.8247
  967MOL0     H33381   5.630   3.837   8.475  5.4324 -3.1060  0.1072
  967MOL0     H33382   5.467   3.791   8.541  1.0900 -1.6391  1.4889
  967MOL0     H33383   5.553   3.559   8.607  2.4013 -0.1733  2.0378
  967MOL0     H33384   5.699   3.615   8.550 -0.6462 -1.3586 -0.5308
  967MOL0     H33385   5.670   3.636   8.808  0.1208  1.2724  2.6326
  967MOL0     H33386   5.739   3.784   8.726 -1.3142  1.4570 -0.1337
  967MOL0     H33387   5.452   3.731   8.819 -0.0939  0.7615  0.1276
  967MOL0     H33388   5.521   3.880   8.733 -0.8524 -0.2860 -0.3843
  967MOL0     H33389   5.640   3.793   8.995  1.3687  1.3731 -0.1298
  967MOL0     H33390   5.668   3.940   8.900  2.1498 -2.5412 -0.7108
  967MOL0     H33391   5.397   3.847   9.022 -0.2775  0.1886 -0.2645
  967MOL0     H33392   5.434   3.997   8.938 -0.3091  0.1194  0.0808
  967MOL0     H33393   5.421   4.016   9.183  0.5059  0.8692  1.3203
  967MOL0     H33394   5.550   3.895   9.199 -1.0281 -1.8788 -0.5270
  967MOL0     H33395   5.535   4.251   9.029  2.1423 -0.8272 -3.8545
  967MOL0     H33396   5.705   4.441   9.012  0.0549  0.1018  0.1667
  967MOL0     H33397   5.809   4.338   8.917 -2.5393  0.4560 -0.1274
  967MOL0     H33398   5.935   4.446   9.175  1.2731 -0.2094 -0.1543
  967MOL0     H33399   6.008   4.400   9.014  3.4621  1.5304  1.5782
  967MOL0     H33400   5.856   4.590   8.941  0.1437  0.5846 -0.0708
  967MOL0     H33401   5.861   4.644   9.113  0.9543 -0.9570  0.4727
  967MOL0     H33402   6.101   4.617   8.951 -1.3413 -2.0735  0.4814
  967MOL0     H33403   6.034   4.768   9.021 -1.6473  0.1335  0.9791
  967MOL0     H33404   6.319   4.543   9.290 -0.9753 -0.5368  2.5907
  967MOL0     H33405   6.554   4.529   9.350  1.9230 -0.5978  4.1756
  967MOL0     H33406   6.542   4.651   9.465  0.6582 -1.0927 -0.7782
  967MOL0     H33407   6.657   4.676   9.331 -1.0846  2.7567 -0.8746
  967MOL0     H33408   6.659   5.075   9.650 -0.6210 -1.5671  1.2240
  967MOL0     H33409   6.888   5.166   9.713 -1.1241 -1.5858  0.4189
  967MOL0     H33410   7.094   5.250   9.491 -0.0277 -1.2232 -0.0568
  967MOL0     H33411   7.134   5.272   9.668  2.0339 -3.6661  2.6429
  967MOL0     H33412   7.322   5.331   9.534  1.4651 -0.8444 -1.2753
  967MOL0     H33413   7.349   5.180   9.633 -2.9506  0.4027  1.3515
  967MOL0     H33414   7.272   5.177   9.333  2.0240 -2.6818 -1.0975
  967MOL0     H33415   7.304   5.047   9.428 -1.7431  1.2979 -0.1376
  967MOL0     H33416   7.554   5.144   9.451  0.0470 -0.7053 -0.7119
  967MOL0     H33417   7.487   5.292   9.368  0.5133  0.0888  1.2163
  967MOL0     H33418   7.629   5.131   9.228 -1.0591  1.7162 -1.1993
  967MOL0     H33419   7.503   5.012   9.261  1.5420 -1.8080 -0.5088
  967MOL0     H33420   7.442   5.284   9.121 -3.9012  0.6633 -1.1452
  967MOL0     H33421   7.346   5.145   9.119  0.9535 -0.1996  0.7288
  967MOL0     H33422   7.444   5.133   8.912  2.0978 -0.2012 -0.7152
  967MOL0     H33423   7.564   5.035   9.011 -0.4658 -0.3620 -0.7143
  967MOL0     H33424   7.579   5.294   8.874 -0.5639 -1.8324 -0.7040
  967MOL0     H33425   7.704   5.168   8.883 -0.4914 -2.4535  0.2793
  967MOL0     H33426   7.071   4.923   9.416  1.7341 -0.0771  0.3062
  967MOL0     H33427   6.842   4.842   9.347 -1.4381  0.4486 -1.2994
  967MOL0     H33428   6.346   5.017   9.171  2.3001 -0.2197 -2.9887
  967MOL0     H33429   6.163   4.901   9.131  0.4913  2.0237  3.9351
  967MOL0     H33430   5.489   3.474   8.148 -1.1514 -0.8287  0.0535
  967MOL0     H33431   5.474   3.450   7.910  1.4276 -1.0025 -0.5711
  967MOL0     H33432   5.539   3.712   7.513  1.9335 -1.3968  3.2338
  967MOL0     H33433   5.466   3.717   7.281  0.9579 -1.1147 -0.3316
  967MOL0     H33434   5.639   3.405   7.031 -0.8311 -0.5198  2.4654
  967MOL0     H33435   5.483   3.323   7.035  0.7307 -1.0558 -0.6693
  967MOL0     H33436   5.557   3.407   6.808  0.4754  0.7359  1.2470
  967MOL0     H33437   5.530   3.577   6.848  2.8569 -0.3258  1.4497
  967MOL0     H33438   5.305   3.395   6.904  2.4160 -1.1120  0.5333
  967MOL0     H33439   5.307   3.567   6.852  1.0439  1.0895 -1.9559
  967MOL0     H33440   5.332   3.333   6.671  0.3366 -0.2176  0.6779
  967MOL0     H33441   5.398   3.501   6.634 -1.7632 -0.3915 -2.1049
  967MOL0     H33442   4.988   3.589   6.625  0.5843  1.3267 -0.1798
  967MOL0     H33443   5.576   3.309   7.231 -0.6658  1.1567 -2.8832
  967MOL0     H33444   5.603   3.216   7.552  1.1113 -0.2304  0.9330
  967MOL0     H33445   5.659   3.185   7.380 -0.8619  1.6293 -1.4099
  967MOL0     H33446   5.766   3.259   7.500  0.6100  2.5460 -4.1346
  968MOL0     O33447   0.859   7.009   4.158 -0.2911 -0.2135 -0.0809
  968MOL0     C33448   0.783   6.941   4.090  0.3299  0.3989 -0.6632
  968MOL0     O33449   0.790   6.914   3.952 -0.7512  0.4080  0.4050
  968MOL0     C33450   0.850   7.007   3.870  0.8230  0.0060  0.3257
  968MOL0     C33451   0.842   7.145   3.884 -0.3940 -0.5439 -0.0428
  968MOL0     C33452   0.905   7.232   3.794  0.1754  0.2284 -0.0559
  968MOL0     C33453   0.985   7.184   3.689  0.2988  0.1775 -0.0542
  968MOL0     O33454   1.055   7.277   3.617  0.4393 -0.2061  0.0969
  968MOL0     C33455   1.046   7.410   3.647 -0.4328  0.8585 -1.0487
  968MOL0     C33456   1.151   7.492   3.564 -0.0196  0.6351  0.3393
  968MOL0     C33457   1.132   7.636   3.581 -0.9857 -0.6110 -0.4139
  968MOL0     C33458   1.269   7.716   3.570 -0.2441  0.0507 -0.1058
  968MOL0     C33459   1.257   7.871   3.547  0.4970  0.5840  0.7888
  968MOL0     C33460   1.401   7.923   3.528 -0.3842  1.1153 -0.7032
  968MOL0     C33461   1.397   8.073   3.543 -0.8224  0.4995  0.0734
  968MOL0     C33462   1.385   8.116   3.698  0.1482 -0.1813  0.0734
  968MOL0     N33463   1.383   8.261   3.698 -0.6396 -0.0243  0.2147
  968MOL0     C33464   1.491   8.343   3.662 -0.4262  1.2085  0.6386
  968MOL0     C33465   1.444   8.466   3.681 -0.5076 -0.1981 -0.0198
  968MOL0     C33466   1.548   8.581   3.668  0.0235 -1.1815  0.2359
  968MOL0     C33467   1.502   8.689   3.754 -0.0540  0.5191  0.1867
  968MOL0     C33468   1.595   8.812   3.744 -0.1198  0.6175 -0.0107
  968MOL0     C33469   1.530   8.925   3.823 -0.4577  0.0092 -0.2255
  968MOL0     O33470   1.550   8.891   3.965  0.3451  0.2077 -0.1869
  968MOL0     C33471   1.610   8.989   4.046  0.0487 -0.4128 -0.4349
  968MOL0     C33472   1.691   9.095   4.006  0.1604  1.1071 -0.4719
  968MOL0     C33473   1.739   9.194   4.086  0.8737 -0.3359 -0.4463
  968MOL0     C33474   1.834   9.289   4.032  0.0982 -0.7803 -0.2916
  968MOL0     C33475   1.696   9.202   4.225 -0.9190 -0.4441  0.5750
  968MOL0     C33476   1.755   9.291   4.332 -0.1417  0.5426 -0.4936
  968MOL0     O33477   1.710   9.264   4.459  0.2970 -0.2725 -0.2438
  968MOL0     C33478   1.746   9.352   4.551 -0.0875 -0.1451  0.0695
  968MOL0     C33479   1.664   9.464   4.576  0.4301  0.4817  0.5927
  968MOL0     C33480   1.710   9.566   4.663 -0.4572 -0.9119 -0.3248
  968MOL0     C33481   1.826   9.552   4.732 -0.4447  0.5898 -0.7011
  968MOL0     O33482   1.845   9.659   4.817  0.3353 -0.0702  0.4400
  968MOL0     C33483   1.958   9.643   4.913  0.0812 -0.5569  0.6204
  968MOL0     C33484   1.961   9.775   4.993  0.1569  0.0755  0.8756
  968MOL0     C33485   1.827   9.767   5.087 -0.1259  0.8490 -0.4219
  968MOL0     C33486   1.821   9.886   5.181  1.0898 -0.0006 -0.5938
  968MOL0     C33487   1.927   9.886   5.284 -0.5342 -0.4936 -0.1122
  968MOL0     C33488   2.038   9.994   5.262 -0.4860 -0.3880  0.4224
  968MOL0     C33489   2.116  10.023   5.389 -0.6711  0.9789 -0.8431
  968MOL0     C33490   2.200   9.917   5.450  0.3343 -0.3936  0.0604
  968MOL0    Cl33491   2.341   9.880   5.346  0.5339 -0.6239  0.1696
  968MOL0     C33492   1.891   9.430   4.725 -0.4230  0.5446  1.0237
  968MOL0     C33493   1.865   9.335   4.622 -0.2657  0.2726  0.3267
  968MOL0     O33494   1.850   9.360   4.304  0.8310 -0.2606 -0.5049
  968MOL0     C33495   1.616   9.094   4.262  0.0053  0.6662  0.5625
  968MOL0     C33496   1.560   8.992   4.175  0.5439  0.5130  0.0955
  968MOL0     N33497   1.307   8.458   3.704 -0.7313 -0.5266  0.1107
  968MOL0     N33498   1.267   8.338   3.715 -0.1180  0.2822 -1.0064
  968MOL0     C33499   0.983   7.044   3.673  0.7042  1.0659  0.5240
  968MOL0     C33500   0.910   6.961   3.754  0.6267  0.3791 -0.0205
  968MOL0     C33501   0.680   6.854   4.162 -0.1846  0.0739 -1.0750
  968MOL0     C33502   0.578   6.805   4.080 -0.7062  0.4833 -0.2843
  968MOL0     C33503   0.474   6.727   4.127  0.4324  0.0092 -0.1423
  968MOL0     C33504   0.469   6.680   4.259 -0.1215 -0.0518 -0.9412
  968MOL0     O33505   0.374   6.590   4.316 -0.1315  0.4745  0.2060
  968MOL0     C33506   0.234   6.588   4.296  0.0335  0.9693 -0.2011
  968MOL0     C33507   0.147   6.656   4.397  0.0077 -0.0985 -0.2971
  968MOL0     C33508   0.200   6.635   4.540 -0.6061 -0.4907 -0.3472
  968MOL0     C33509   0.208   6.481   4.579  0.3439 -0.4401 -1.2127
  968MOL0     C33510   0.340   6.419   4.567 -0.7574 -0.0619  0.1720
  968MOL0     C33511   0.458   6.376   4.560 -0.3252  0.3755 -0.0795
  968MOL0     C33512   0.571   6.728   4.344  0.0390  0.8254 -0.3692
  968MOL0     C33513   0.681   6.805   4.295  0.9492 -0.5113 -0.0390
  968MOL0     C33514   0.785   6.825   4.401 -0.6272 -0.2614 -0.5565
  968MOL0     H33515   0.784   7.179   3.969  1.2440  2.2450  0.0724
  968MOL0     H33516   0.895   7.337   3.818  2.9137  0.9680 -1.7668
  968MOL0     H33517   1.068   7.423   3.753 -1.0585 -0.3504 -0.7529
  968MOL0     H33518   0.947   7.450   3.625 -0.7769  1.5908  1.5868
  968MOL0     H33519   1.253   7.463   3.591 -0.9221 -2.1306  1.0478
  968MOL0     H33520   1.123   7.470   3.461 -1.4446  2.8832  0.1797
  968MOL0     H33521   1.055   7.677   3.514 -0.0037  3.2433  0.5943
  968MOL0     H33522   1.095   7.652   3.683  0.1029  0.2723 -0.1519
  968MOL0     H33523   1.326   7.696   3.662 -1.5815 -0.6077  0.6225
  968MOL0     H33524   1.318   7.681   3.479 -0.8332  1.0069 -0.8103
  968MOL0     H33525   1.214   7.916   3.638  3.3206 -0.5890  2.8395
  968MOL0     H33526   1.191   7.893   3.463 -0.0147 -1.1432  0.6963
  968MOL0     H33527   1.459   7.868   3.603 -2.1851  0.5205  0.3144
  968MOL0     H33528   1.431   7.889   3.429 -3.5017  1.3866 -1.8555
  968MOL0     H33529   1.332   8.121   3.469  3.0327 -0.5519 -4.5123
  968MOL0     H33530   1.496   8.097   3.504 -0.2229 -0.9115  0.6858
  968MOL0     H33531   1.296   8.075   3.745  1.4957 -1.9192  1.2439
  968MOL0     H33532   1.472   8.085   3.757  0.6114 -0.4889 -0.7426
  968MOL0     H33533   1.594   8.309   3.657 -0.3627  1.5471 -0.6617
  968MOL0     H33534   1.586   8.619   3.572  0.8127  2.9431  1.9860
  968MOL0     H33535   1.639   8.548   3.718  1.1572  1.1966 -0.1274
  968MOL0     H33536   1.404   8.728   3.723  1.3994  4.5749  0.0906
  968MOL0     H33537   1.498   8.652   3.857 -4.2218  0.6613  0.2622
  968MOL0     H33538   1.694   8.791   3.787  0.3643  1.6570 -0.5748
  968MOL0     H33539   1.610   8.846   3.641  0.2061 -0.9420 -0.5015
  968MOL0     H33540   1.560   9.028   3.804  1.7038  0.3017  3.6894
  968MOL0     H33541   1.424   8.933   3.799 -0.3952  1.8151 -0.0598
  968MOL0     H33542   1.734   9.078   3.908  1.0507 -1.5977  0.3040
  968MOL0     H33543   1.839   9.292   3.923  1.8820 -0.3010 -0.2298
  968MOL0     H33544   1.934   9.260   4.063  0.3633  1.9013  1.6944
  968MOL0     H33545   1.813   9.394   4.056 -0.5087 -0.8251 -0.5998
  968MOL0     H33546   1.561   9.462   4.541  0.2254  0.0592  1.1954
  968MOL0     H33547   1.647   9.652   4.686 -0.7177 -0.5069 -2.3622
  968MOL0     H33548   1.945   9.553   4.973 -0.5814 -1.1553 -0.4066
  968MOL0     H33549   2.057   9.634   4.866 -0.6538 -0.3330 -1.0228
  968MOL0     H33550   2.053   9.762   5.050 -0.1733  0.2869  1.4666
  968MOL0     H33551   1.967   9.867   4.934  2.6851 -0.2818  0.4633
  968MOL0     H33552   1.835   9.680   5.153 -4.0911  2.3385  2.3712
  968MOL0     H33553   1.729   9.762   5.038 -0.5646  0.0472  0.5141
  968MOL0     H33554   1.728   9.890   5.237  2.2223 -0.0840  1.3821
  968MOL0     H33555   1.830   9.978   5.121 -0.4218  1.5769  1.4343
  968MOL0     H33556   1.882   9.928   5.374  2.6326  0.9646  0.9163
  968MOL0     H33557   1.976   9.788   5.292  2.9219  0.9995 -1.1403
  968MOL0     H33558   1.993  10.083   5.216  1.1107  0.8435  1.1221
  968MOL0     H33559   2.110   9.963   5.186 -1.4359 -0.0599 -0.6407
  968MOL0     H33560   2.036  10.048   5.460 -1.3789 -0.7150 -0.9965
  968MOL0     H33561   2.168  10.120   5.387 -3.0275  2.4106  0.8262
  968MOL0     H33562   2.142   9.826   5.465 -2.7306  1.5549  1.0221
  968MOL0     H33563   2.228   9.949   5.551 -3.0274 -1.7516  1.5629
  968MOL0     H33564   1.973   9.398   4.788  0.3694  0.1791 -0.1601
  968MOL0     H33565   1.927   9.252   4.590 -3.1748 -1.6154 -0.7692
  968MOL0     H33566   1.574   9.070   4.359  0.7995  1.5144  1.1276
  968MOL0     H33567   1.501   8.907   4.208  0.9755  0.3965  0.5890
  968MOL0     H33568   1.036   7.008   3.585  0.3920  1.7390  0.0579
  968MOL0     H33569   0.906   6.854   3.736  3.5672  0.2918 -0.7567
  968MOL0     H33570   0.583   6.834   3.976 -1.1751  2.1936  0.1338
  968MOL0     H33571   0.393   6.693   4.063 -0.4811 -0.2714  1.1289
  968MOL0     H33572   0.210   6.625   4.197  1.7626 -1.8632 -1.8101
  968MOL0     H33573   0.205   6.482   4.289 -1.7389  1.0849  3.0547
  968MOL0     H33574   0.048   6.611   4.387 -0.0943 -0.7282  2.5590
  968MOL0     H33575   0.132   6.762   4.376  0.3884  0.7084  2.9991
  968MOL0     H33576   0.302   6.673   4.550 -1.3438  1.2355  1.2366
  968MOL0     H33577   0.127   6.687   4.602 -1.3749  1.3502 -2.6565
  968MOL0     H33578   0.139   6.425   4.515 -0.6103 -0.1370 -0.4608
  968MOL0     H33579   0.170   6.477   4.681 -0.8267 -0.7418 -1.6511
  968MOL0     H33580   0.560   6.345   4.549 -0.8727 -1.8127  0.4186
  968MOL0     H33581   0.575   6.679   4.442 -1.9956  0.3998 -0.4543
  968MOL0     H33582   0.822   6.726   4.430  1.6494  1.2303  2.1936
  968MOL0     H33583   0.870   6.885   4.368 -1.3835  1.4747  0.5199
  968MOL0     H33584   0.746   6.868   4.494  1.0997 -0.1767  0.1591
  969MOL0     O33585   6.727   2.095   5.672  0.0386 -0.1637 -0.4879
  969MOL0     C33586   6.677   2.004   5.607 -0.2758  0.2834  0.2801
  969MOL0     O33587   6.746   1.897   5.559 -0.9909 -1.0048  0.0982
  969MOL0     C33588   6.885   1.888   5.594  0.6750  0.3611  0.4139
  969MOL0     C33589   6.982   1.984   5.558  0.2639  0.2765 -0.5108
  969MOL0     C33590   7.111   1.987   5.610 -0.6803 -0.0195  0.2636
  969MOL0     C33591   7.149   1.881   5.692  0.4024 -0.5714 -0.5388
  969MOL0     O33592   7.278   1.885   5.743 -0.1538  0.0691 -0.0434
  969MOL0     C33593   7.356   1.769   5.736 -0.0834 -0.0360  0.0333
  969MOL0     C33594   7.508   1.817   5.747  0.3454  0.2111  0.2576
  969MOL0     C33595   7.562   1.852   5.880  0.5857  0.1206 -0.1084
  969MOL0     C33596   7.594   1.724   5.970  0.4841 -0.2240  0.4312
  969MOL0     C33597   7.686   1.755   6.093  0.1854 -0.3121 -0.1075
  969MOL0     C33598   7.819   1.802   6.042  0.1642 -0.5368  0.3819
  969MOL0     C33599   7.933   1.768   6.139  0.0912 -0.3100 -0.2749
  969MOL0     C33600   7.936   1.879   6.249 -0.2326 -0.5145  0.3011
  969MOL0     N33601   8.003   1.997   6.203 -0.6412  0.5868  0.2260
  969MOL0     C33602   8.131   1.997   6.155 -0.2291 -0.0076  0.5742
  969MOL0     C33603   8.155   2.120   6.105 -0.3158 -0.0429  0.5035
  969MOL0     C33604   8.281   2.179   6.060  0.0418 -0.2806 -0.6931
  969MOL0     C33605   8.353   2.229   6.190  0.3178 -0.5683  0.5956
  969MOL0     C33606   8.478   2.309   6.175 -0.7734 -0.0295 -0.2610
  969MOL0     C33607   8.512   2.409   6.283 -0.3417 -0.3352 -1.0403
  969MOL0     O33608   8.521   2.355   6.417  0.2681 -0.5712  0.2285
  969MOL0     C33609   8.620   2.278   6.459 -1.5463 -0.5618  0.2781
  969MOL0     C33610   8.755   2.269   6.404  0.0207  0.1095  0.3567
  969MOL0     C33611   8.853   2.179   6.466  0.2421  0.7095  0.2721
  969MOL0     C33612   8.971   2.156   6.383 -1.0080  0.0295 -0.2173
  969MOL0     C33613   8.827   2.111   6.586  2.1045 -0.3740 -0.0142
  969MOL0     C33614   8.925   2.017   6.646 -0.3814  0.3269 -0.3457
  969MOL0     O33615   9.056   2.055   6.633 -0.3086  0.0458  0.4012
  969MOL0     C33616   9.170   1.991   6.668 -0.1328 -0.0367  0.2012
  969MOL0     C33617   9.176   1.856   6.698 -1.1662 -0.1341  0.2842
  969MOL0     C33618   9.297   1.798   6.732 -0.2881 -0.1457 -1.0718
  969MOL0     C33619   9.414   1.873   6.743  0.0835  0.0688 -0.4434
  969MOL0     O33620   9.524   1.792   6.781  0.5017  0.9452 -0.6645
  969MOL0     C33621   9.653   1.843   6.770  0.2633  0.0160 -0.3127
  969MOL0     C33622   9.760   1.754   6.846  0.1771 -0.2779 -0.7387
  969MOL0     C33623   9.894   1.826   6.878  0.2670 -0.4956  0.1935
  969MOL0     C33624  10.008   1.745   6.807  0.5432  0.4764  0.2625
  969MOL0     C33625  10.145   1.823   6.807  0.5948  0.3829 -1.5791
  969MOL0     C33626  10.237   1.785   6.691  0.4047 -0.5188  0.2382
  969MOL0     C33627  10.331   1.899   6.690 -0.6682 -0.1683 -0.2753
  969MOL0     C33628  10.420   1.880   6.570  0.1910  0.6935  0.5029
  969MOL0    Cl33629  10.521   1.735   6.583  0.4235 -0.2093  0.1822
  969MOL0     C33630   9.415   2.008   6.716 -0.5509 -0.1793 -0.1358
  969MOL0     C33631   9.294   2.065   6.679 -0.1109  0.7870 -0.2495
  969MOL0     O33632   8.881   1.919   6.706  0.4380  0.0823  0.3615
  969MOL0     C33633   8.690   2.128   6.630 -0.0164  0.5489  0.1092
  969MOL0     C33634   8.595   2.203   6.574  0.3800  0.2426  0.1192
  969MOL0     N33635   8.043   2.195   6.120 -0.3727  0.0553 -0.6179
  969MOL0     N33636   7.952   2.127   6.189 -0.1634  0.1754  0.1303
  969MOL0     C33637   7.065   1.778   5.724 -0.1436  0.0185  0.2606
  969MOL0     C33638   6.927   1.785   5.676 -0.8029 -0.3622  0.3561
  969MOL0     C33639   6.533   2.021   5.566 -0.7356 -0.0913 -0.8369
  969MOL0     C33640   6.451   2.095   5.656  0.1501 -0.4838  0.2907
  969MOL0     C33641   6.318   2.120   5.623  0.0026  0.4141 -1.4911
  969MOL0     C33642   6.262   2.071   5.506  0.7305  0.0303 -0.6705
  969MOL0     O33643   6.131   2.105   5.474  0.6052  0.7995  0.4702
  969MOL0     C33644   6.036   2.146   5.570  0.1603  0.1343  0.1861
  969MOL0     C33645   5.889   2.139   5.524 -0.0258 -0.0531  0.5511
  969MOL0     C33646   5.864   2.191   5.378 -0.2046 -0.0092 -1.3145
  969MOL0     C33647   5.729   2.140   5.337  0.2314 -0.2743 -0.1185
  969MOL0     C33648   5.618   2.211   5.389  0.4417 -0.0593  0.0081
  969MOL0     C33649   5.526   2.283   5.424 -0.3984 -0.2757 -0.5609
  969MOL0     C33650   6.337   1.984   5.427 -0.4901  0.5530  0.3729
  969MOL0     C33651   6.471   1.966   5.452  0.0085  0.0140  0.1521
  969MOL0     C33652   6.549   1.890   5.351  0.1070  1.2004  0.0829
  969MOL0     H33653   6.943   2.065   5.498 -0.8462 -0.9664 -1.5199
  969MOL0     H33654   7.179   2.067   5.583 -0.3884  0.2361  1.6680
  969MOL0     H33655   7.334   1.712   5.645  1.0369 -2.4464  1.1814
  969MOL0     H33656   7.331   1.708   5.824  5.4568  0.3351  2.2481
  969MOL0     H33657   7.569   1.735   5.707 -0.8247 -1.0364  0.9615
  969MOL0     H33658   7.515   1.897   5.672  1.3349  0.2648  0.3926
  969MOL0     H33659   7.643   1.925   5.864 -1.3254  2.0648 -1.5416
  969MOL0     H33660   7.479   1.901   5.932 -0.6180  0.6168 -2.3727
  969MOL0     H33661   7.502   1.671   5.997 -2.0098  2.6015 -1.8794
  969MOL0     H33662   7.642   1.649   5.907 -1.0139 -1.0995  0.3070
  969MOL0     H33663   7.703   1.669   6.157 -1.9207 -0.9681 -0.3391
  969MOL0     H33664   7.650   1.839   6.153  1.6448  0.7254 -0.6344
  969MOL0     H33665   7.843   1.754   5.947  3.9189  2.5251 -0.5358
  969MOL0     H33666   7.815   1.910   6.024  0.8219 -0.8839 -2.3469
  969MOL0     H33667   8.022   1.773   6.076  1.3879 -1.4745  1.3948
  969MOL0     H33668   7.928   1.666   6.178  1.6230  0.0714  1.0241
  969MOL0     H33669   7.842   1.898   6.301 -1.1660 -2.5598 -0.5316
  969MOL0     H33670   8.007   1.836   6.320 -0.0804 -1.2334 -0.2679
  969MOL0     H33671   8.198   1.916   6.181 -0.2590 -0.4962 -0.8046
  969MOL0     H33672   8.255   2.272   6.009  0.2447  0.3552  0.3177
  969MOL0     H33673   8.344   2.117   5.997  2.1009  1.2929 -0.2906
  969MOL0     H33674   8.277   2.296   6.231  0.3111  0.0314 -0.3496
  969MOL0     H33675   8.366   2.138   6.248  1.6586 -2.0128 -1.7803
  969MOL0     H33676   8.555   2.235   6.156  0.2650  0.6129  1.2450
  969MOL0     H33677   8.454   2.367   6.085 -3.0598  1.4355  1.1681
  969MOL0     H33678   8.602   2.469   6.268  1.2997 -0.4733  5.4458
  969MOL0     H33679   8.424   2.473   6.289  0.8463  1.1915  1.3167
  969MOL0     H33680   8.785   2.331   6.320 -0.8154 -1.6699 -1.3327
  969MOL0     H33681   9.063   2.196   6.426  0.1678 -2.5069 -0.1683
  969MOL0     H33682   8.951   2.192   6.282  2.7092 -2.8068 -2.1872
  969MOL0     H33683   8.997   2.050   6.372  1.0952  0.4953 -0.1242
  969MOL0     H33684   9.092   1.787   6.696 -1.5107  0.2851  0.0884
  969MOL0     H33685   9.301   1.695   6.764 -2.1395 -0.1607 -0.7591
  969MOL0     H33686   9.693   1.848   6.668 -0.4130  3.0845 -0.5274
  969MOL0     H33687   9.649   1.942   6.818  2.7973  0.0688 -0.0714
  969MOL0     H33688   9.718   1.730   6.944  1.3077 -2.2663 -0.6986
  969MOL0     H33689   9.771   1.656   6.801 -0.5796 -1.6803  1.8952
  969MOL0     H33690   9.913   1.815   6.986  0.4141  1.0408  0.3436
  969MOL0     H33691   9.895   1.928   6.839 -3.1916 -0.5094 -0.2114
  969MOL0     H33692   9.978   1.705   6.710 -1.0531 -0.7703  1.2269
  969MOL0     H33693  10.031   1.657   6.867  1.0645 -0.3385 -1.0750
  969MOL0     H33694  10.112   1.927   6.800  0.6873  0.6777  1.1476
  969MOL0     H33695  10.192   1.796   6.902 -1.9894  0.3539 -0.2148
  969MOL0     H33696  10.177   1.796   6.600 -1.2432  0.4245  1.3883
  969MOL0     H33697  10.279   1.684   6.696 -1.7678 -1.7186 -2.7605
  969MOL0     H33698  10.391   1.898   6.781  0.7194 -0.3674 -1.1572
  969MOL0     H33699  10.273   1.992   6.682 -1.0287 -0.5135 -2.0405
  969MOL0     H33700  10.485   1.964   6.546  1.3483 -0.7752 -1.9380
  969MOL0     H33701  10.358   1.868   6.480  1.6051 -2.5058 -0.1971
  969MOL0     H33702   9.505   2.070   6.715  0.2586 -1.1025  3.3922
  969MOL0     H33703   9.285   2.170   6.653 -0.9947  0.4471 -1.3940
  969MOL0     H33704   8.664   2.064   6.714 -2.1365 -0.3809 -1.2019
  969MOL0     H33705   8.502   2.210   6.630  0.0770  0.8725 -0.4503
  969MOL0     H33706   7.089   1.700   5.797 -2.0254 -2.4681 -1.5938
  969MOL0     H33707   6.860   1.725   5.737  2.9918 -2.4813  2.8768
  969MOL0     H33708   6.485   2.141   5.748 -2.2493  1.3982  0.3151
  969MOL0     H33709   6.270   2.188   5.693  2.0433 -0.3219  0.7585
  969MOL0     H33710   6.053   2.084   5.658 -1.8636 -1.7565 -0.6679
  969MOL0     H33711   6.050   2.251   5.599  1.3677 -0.6350  2.6841
  969MOL0     H33712   5.834   2.203   5.594 -0.5917 -0.9379  0.9452
  969MOL0     H33713   5.863   2.033   5.535 -1.9867  0.5894  3.2068
  969MOL0     H33714   5.881   2.298   5.364  1.7621 -0.4040 -2.3900
  969MOL0     H33715   5.936   2.142   5.312  0.0993 -1.6558  0.1545
  969MOL0     H33716   5.714   2.033   5.357 -0.7537 -0.1323 -0.0233
  969MOL0     H33717   5.720   2.147   5.228  0.2883  2.5986 -0.0191
  969MOL0     H33718   5.448   2.349   5.455 -0.7235  0.0365 -1.9716
  969MOL0     H33719   6.293   1.951   5.333  0.2244  1.9137 -0.4772
  969MOL0     H33720   6.648   1.934   5.334 -0.0830  1.8866  0.7132
  969MOL0     H33721   6.551   1.785   5.381 -0.2485  1.1351 -0.1132
  969MOL0     H33722   6.504   1.876   5.252  0.4779  2.5475 -0.3021
  970MOL0     O33723   8.500   3.220  10.203  0.5024  0.3006  0.1729
  970MOL0     C33724   8.604   3.271  10.190 -0.3680  0.2561  0.7410
  970MOL0     O33725   8.725   3.216  10.208 -0.5891  0.7611 -0.5840
  970MOL0     C33726   8.731   3.087  10.268 -0.4915  0.1961 -0.3030
  970MOL0     C33727   8.702   3.073  10.399  0.4688 -0.4337  1.1774
  970MOL0     C33728   8.717   2.961  10.473 -0.5107  0.4687  0.7106
  970MOL0     C33729   8.774   2.847  10.410  0.4074 -0.6759 -0.1675
  970MOL0     O33730   8.797   2.728  10.485 -0.4773  0.3056 -0.3263
  970MOL0     C33731   8.733   2.705  10.613  0.3513 -0.1518  0.2695
  970MOL0     C33732   8.677   2.569  10.618  0.2598 -0.1441  0.7581
  970MOL0     C33733   8.782   2.453  10.591  0.2094 -0.3785 -0.0520
  970MOL0     C33734   8.715   2.313  10.611 -0.1295 -0.4312 -0.5996
  970MOL0     C33735   8.805   2.194  10.594 -0.2424 -0.4779  0.5246
  970MOL0     C33736   8.922   2.191  10.678  0.3334  0.7109  0.1373
  970MOL0     C33737   8.988   2.059  10.651 -0.2709 -0.7130 -0.3008
  970MOL0     C33738   9.133   2.057  10.713  0.2022 -0.6055  0.5501
  970MOL0     N33739   9.223   1.956  10.654  0.0647 -0.4628 -0.4365
  970MOL0     C33740   9.265   1.939  10.522 -0.3310  0.7534 -0.5786
  970MOL0     C33741   9.335   1.828  10.517  0.2369  0.8338  0.1222
  970MOL0     C33742   9.408   1.769  10.400  0.1712  0.1762 -0.2328
  970MOL0     C33743   9.359   1.806  10.257 -0.1619  0.4136 -0.0051
  970MOL0     C33744   9.483   1.816  10.158 -0.0951  0.6536 -0.0672
  970MOL0     C33745   9.435   1.869  10.025 -0.6483 -0.0539  0.8466
  970MOL0     O33746   9.314   1.796   9.974 -0.3922 -0.1866 -0.2190
  970MOL0     C33747   9.322   1.663   9.923 -0.7513 -0.4636  0.3652
  970MOL0     C33748   9.445   1.599   9.899  0.4047 -0.1241  0.3522
  970MOL0     C33749   9.447   1.463   9.867  0.5697 -0.1312 -0.4110
  970MOL0     C33750   9.588   1.410   9.851  0.6280  0.4730  0.0779
  970MOL0     C33751   9.336   1.388   9.850  0.4312 -0.2145  1.0407
  970MOL0     C33752   9.327   1.242   9.818 -0.0789 -0.0384  0.1193
  970MOL0     O33753   9.423   1.158   9.871 -0.6083 -0.0366 -0.1722
  970MOL0     C33754   9.408   1.022   9.883 -0.3094 -0.0324  0.5471
  970MOL0     C33755   9.292   0.974   9.935 -0.4265  0.7276  0.3866
  970MOL0     C33756   9.278   0.840   9.972  0.0264 -0.2897 -0.1529
  970MOL0     C33757   9.371   0.742   9.944 -0.0038 -0.3558  0.1485
  970MOL0     O33758   9.366   0.615   9.993 -0.4389  0.5197  0.0391
  970MOL0     C33759   9.268   0.530   9.924 -0.2987 -0.3437 -0.0808
  970MOL0     C33760   9.290   0.502   9.768 -0.3346 -0.2276 -0.6317
  970MOL0     C33761   9.436   0.456   9.745  0.2655 -0.1010 -0.2946
  970MOL0     C33762   9.450   0.367   9.620 -0.5945 -0.4039  0.6224
  970MOL0     C33763   9.389   0.230   9.621 -0.0867  0.4129 -0.0539
  970MOL0     C33764   9.443   0.145   9.734  0.1487 -0.2657  1.3396
  970MOL0     C33765   9.404   0.001   9.708  0.4691  0.4855  0.2992
  970MOL0     C33766   9.493  -0.102   9.787  0.0773 -0.1384  0.0408
  970MOL0    Cl33767   9.656  -0.114   9.717  0.0738  0.0701 -0.0072
  970MOL0     C33768   9.494   0.796   9.902  0.8796 -0.7384 -0.5063
  970MOL0     C33769   9.511   0.931   9.860  1.0275  0.0441 -0.7695
  970MOL0     O33770   9.221   1.199   9.761 -0.5352 -0.3526 -0.2244
  970MOL0     C33771   9.211   1.465   9.853 -0.1265  1.5564  0.4327
  970MOL0     C33772   9.210   1.594   9.888 -1.2838 -0.0919  0.3768
  970MOL0     N33773   9.352   1.775  10.635 -0.5712  0.2262 -0.2035
  970MOL0     N33774   9.288   1.856  10.719  0.2967 -0.4528  1.3718
  970MOL0     C33775   8.810   2.858  10.275  0.4278  0.1426  0.0875
  970MOL0     C33776   8.780   2.974  10.206 -0.6794 -0.0144  0.6474
  970MOL0     C33777   8.607   3.425  10.162  0.2759  0.4506 -0.5653
  970MOL0     C33778   8.730   3.492  10.138 -0.8541  0.3810  1.0711
  970MOL0     C33779   8.745   3.625  10.113  0.3610 -0.4483  1.1143
  970MOL0     C33780   8.623   3.703  10.113 -0.4040 -0.2311  0.2959
  970MOL0     O33781   8.643   3.836  10.090  0.4508 -0.1333 -0.1369
  970MOL0     C33782   8.556   3.886   9.993 -0.1671 -0.8974  0.6648
  970MOL0     C33783   8.627   3.984   9.905 -0.1897  0.6967 -0.2129
  970MOL0     C33784   8.522   4.042   9.814  0.8683  0.1820 -1.4425
  970MOL0     C33785   8.567   4.145   9.714 -0.5753 -0.6944 -0.3709
  970MOL0     C33786   8.647   4.084   9.601  0.4600 -1.0968 -0.1497
  970MOL0     C33787   8.709   4.027   9.509 -0.2594  0.7133  0.6996
  970MOL0     C33788   8.499   3.647  10.132 -0.0976  0.3928  0.7678
  970MOL0     C33789   8.491   3.510  10.156 -0.3400  0.0463  1.1889
  970MOL0     C33790   8.350   3.458  10.164  0.0932 -0.1640 -0.0368
  970MOL0     H33791   8.675   3.160  10.457  2.1874  1.6435 -0.9539
  970MOL0     H33792   8.701   2.964  10.581  0.6537  1.2008  0.8793
  970MOL0     H33793   8.648   2.772  10.629  0.9649  0.6660  0.1125
  970MOL0     H33794   8.815   2.716  10.685 -0.6474  1.0447  1.2741
  970MOL0     H33795   8.632   2.543  10.714 -2.7514 -2.9343 -1.1747
  970MOL0     H33796   8.604   2.560  10.536 -0.1176  4.4119  0.3371
  970MOL0     H33797   8.827   2.453  10.491 -2.6832 -0.0058 -1.4382
  970MOL0     H33798   8.869   2.466  10.657 -2.0867  2.2043  2.7281
  970MOL0     H33799   8.669   2.309  10.710  1.8372 -2.1570  0.3243
  970MOL0     H33800   8.625   2.300  10.550 -0.9353  1.8431  0.0140
  970MOL0     H33801   8.834   2.186  10.489  3.2748 -2.2939  1.4846
  970MOL0     H33802   8.737   2.114  10.624  1.3382 -0.7255  3.9295
  970MOL0     H33803   8.983   2.279  10.656 -1.5458  3.3287  4.2471
  970MOL0     H33804   8.892   2.204  10.782 -1.8015 -1.1950 -0.1403
  970MOL0     H33805   8.989   2.033  10.544 -0.9412 -0.3105 -0.4078
  970MOL0     H33806   8.921   1.988  10.700 -1.7273 -0.2003 -1.4981
  970MOL0     H33807   9.174   2.158  10.715 -2.3870  0.6203 -1.8918
  970MOL0     H33808   9.116   2.037  10.819 -3.5898  0.2485  0.2533
  970MOL0     H33809   9.239   1.992  10.431  2.4850  1.4296 -1.0837
  970MOL0     H33810   9.421   1.663  10.423  2.3485 -0.0091 -1.9784
  970MOL0     H33811   9.503   1.821  10.408  0.2858  0.0778 -0.8806
  970MOL0     H33812   9.310   1.714  10.226  4.0453 -2.9649  2.2287
  970MOL0     H33813   9.281   1.882  10.249 -1.6023 -0.9352  0.7837
  970MOL0     H33814   9.562   1.878  10.202  0.7267 -0.9622  0.8236
  970MOL0     H33815   9.516   1.713  10.141 -0.0784  0.9726 -2.2930
  970MOL0     H33816   9.401   1.973  10.036 -0.7244  0.2156 -1.3490
  970MOL0     H33817   9.505   1.863   9.941 -2.5119  2.9620 -1.1421
  970MOL0     H33818   9.537   1.656   9.906 -0.6835  2.4365 -3.3047
  970MOL0     H33819   9.659   1.490   9.831  0.8754  0.1717 -0.2670
  970MOL0     H33820   9.588   1.349   9.760 -0.6293  0.6058 -0.0296
  970MOL0     H33821   9.620   1.358   9.942  0.5215 -0.3943 -0.3727
  970MOL0     H33822   9.216   1.046   9.964 -0.1986  0.7778  0.8668
  970MOL0     H33823   9.181   0.816  10.015 -0.4435 -1.6300 -1.8483
  970MOL0     H33824   9.263   0.436   9.979  1.6283  0.1909  1.1150
  970MOL0     H33825   9.171   0.580   9.935 -0.4958 -1.1818  3.1312
  970MOL0     H33826   9.230   0.421   9.724 -0.2685 -0.9750  0.6001
  970MOL0     H33827   9.270   0.589   9.705 -1.7413 -0.9170 -1.1863
  970MOL0     H33828   9.462   0.400   9.835 -1.5151  1.0972  1.0215
  970MOL0     H33829   9.506   0.540   9.741  1.1938 -0.8908 -2.8006
  970MOL0     H33830   9.557   0.351   9.605 -0.2146  1.4457  1.1811
  970MOL0     H33831   9.425   0.413   9.524  0.3962  0.3608  0.7180
  970MOL0     H33832   9.280   0.232   9.619 -0.0710  1.3702 -0.8765
  970MOL0     H33833   9.416   0.183   9.525 -0.3804 -1.4117  0.7129
  970MOL0     H33834   9.384   0.187   9.816  0.6738  0.7515  1.2107
  970MOL0     H33835   9.547   0.164   9.762  0.6165 -1.8112  0.7696
  970MOL0     H33836   9.420  -0.027   9.603 -0.0352 -0.4303  0.4516
  970MOL0     H33837   9.300  -0.012   9.741  0.8470 -0.7965  1.0200
  970MOL0     H33838   9.453  -0.203   9.784  0.2584 -0.1941 -0.4558
  970MOL0     H33839   9.519  -0.071   9.889  1.4574 -3.5738  0.8501
  970MOL0     H33840   9.580   0.731   9.890  0.7779 -1.1644  0.8103
  970MOL0     H33841   9.612   0.956   9.831  1.7809 -2.5937 -0.6567
  970MOL0     H33842   9.124   1.408   9.821  1.5126 -0.4845 -0.5643
  970MOL0     H33843   9.125   1.662   9.888 -1.0824  0.1767  1.2529
  970MOL0     H33844   8.862   2.776  10.227  0.2440  0.2132 -0.2298
  970MOL0     H33845   8.811   2.961  10.103 -0.5029 -2.7267  0.9868
  970MOL0     H33846   8.826   3.444  10.127 -1.6182 -0.9732 -0.1482
  970MOL0     H33847   8.840   3.670  10.088 -0.5423  0.6702 -0.5345
  970MOL0     H33848   8.531   3.804   9.924  2.7398  1.0791 -3.0913
  970MOL0     H33849   8.460   3.925  10.029 -0.6561 -0.5512 -0.9639
  970MOL0     H33850   8.702   3.933   9.844  0.6040  0.6620  0.7712
  970MOL0     H33851   8.666   4.063   9.969 -0.6477  0.7703 -0.0203
  970MOL0     H33852   8.479   3.968   9.746 -1.0714  2.4460 -2.8430
  970MOL0     H33853   8.439   4.086   9.871  2.1746  1.2059 -0.2623
  970MOL0     H33854   8.605   4.239   9.756 -0.1116 -1.2972  0.5737
  970MOL0     H33855   8.473   4.181   9.669 -1.3135 -1.3444  0.6179
  970MOL0     H33856   8.761   3.980   9.428  1.5511 -2.0683  3.2428
  970MOL0     H33857   8.403   3.695  10.119 -0.2336 -0.2288 -0.7499
  970MOL0     H33858   8.264   3.521  10.142 -0.8615 -0.8505  1.5361
  970MOL0     H33859   8.346   3.380  10.087  1.6820  0.2426 -0.5876
  970MOL0     H33860   8.323   3.414  10.260  1.0902 -2.8583 -0.8856
  971MOL0     O33861   5.239   0.002   2.474 -0.6085  0.9443 -0.9590
  971MOL0     C33862   5.151   0.077   2.502  0.2214 -0.4269  0.8541
  971MOL0     O33863   5.015   0.052   2.485  0.1997  0.2154  0.4117
  971MOL0     C33864   4.966  -0.076   2.460 -0.7902  0.5341 -0.9577
  971MOL0     C33865   5.021  -0.182   2.383 -0.7149 -0.8981  0.1544
  971MOL0     C33866   4.952  -0.288   2.348  0.4661  1.4287 -0.0224
  971MOL0     C33867   4.821  -0.318   2.405  0.1529  0.1486 -0.6054
  971MOL0     O33868   4.749  -0.429   2.385  0.1947  0.1128  0.2606
  971MOL0     C33869   4.787  -0.530   2.290  0.0699 -0.6565  0.9407
  971MOL0     C33870   4.769  -0.470   2.140 -0.0181 -0.0050  0.5221
  971MOL0     C33871   4.836  -0.560   2.036  0.4309 -0.4816 -0.4772
  971MOL0     C33872   4.982  -0.571   2.062 -0.5123  1.1633  0.1166
  971MOL0     C33873   5.054  -0.640   1.948 -0.2819  0.4169  0.2256
  971MOL0     C33874   5.199  -0.670   1.979 -0.2205 -0.3010  0.0973
  971MOL0     C33875   5.223  -0.762   2.094  0.8025 -0.3573  0.5970
  971MOL0     C33876   5.365  -0.824   2.086 -0.6233 -0.7789 -0.2863
  971MOL0     N33877   5.354  -0.959   2.143 -0.4161 -0.3334  0.0898
  971MOL0     C33878   5.366  -0.987   2.278  0.0448  0.7575 -0.8656
  971MOL0     C33879   5.350  -1.127   2.286  0.6834 -0.1881  0.1802
  971MOL0     C33880   5.344  -1.192   2.429 -0.2901  0.2188 -0.5038
  971MOL0     C33881   5.202  -1.200   2.485  0.6428  0.6216 -0.8785
  971MOL0     C33882   5.182  -1.265   2.628  0.4649  0.5036 -0.1388
  971MOL0     C33883   5.272  -1.196   2.728  0.0708 -0.6985 -0.8694
  971MOL0     O33884   5.259  -1.053   2.731 -0.5405 -0.5296  0.6709
  971MOL0     C33885   5.271  -0.994   2.854  1.1629  0.7043 -0.3866
  971MOL0     C33886   5.332  -1.040   2.977  0.2634  0.4914  1.0582
  971MOL0     C33887   5.331  -0.953   3.090  0.4406  1.1060 -0.2758
  971MOL0     C33888   5.378  -1.017   3.216  0.2205  0.6510 -0.4021
  971MOL0     C33889   5.272  -0.821   3.082 -0.3474 -0.5779 -1.0801
  971MOL0     C33890   5.250  -0.730   3.204 -0.0868 -0.0443 -0.3622
  971MOL0     O33891   5.184  -0.615   3.176  0.6982 -0.2269  0.1908
  971MOL0     C33892   5.162  -0.513   3.272  0.4366  0.6654  0.5352
  971MOL0     C33893   5.206  -0.382   3.266  0.1433 -0.3406 -0.1513
  971MOL0     C33894   5.177  -0.299   3.375  0.3338 -0.4403 -1.0175
  971MOL0     C33895   5.094  -0.339   3.480  0.6084  0.5202 -1.0235
  971MOL0     O33896   5.065  -0.241   3.569 -0.9792 -0.0716 -0.0035
  971MOL0     C33897   5.047  -0.278   3.706  0.5239 -0.3184 -0.0994
  971MOL0     C33898   5.186  -0.328   3.765 -1.0870  0.1216 -0.3227
  971MOL0     C33899   5.181  -0.383   3.916  0.8123  0.6497  0.5093
  971MOL0     C33900   5.165  -0.278   4.023  0.5251  0.8251  0.1384
  971MOL0     C33901   5.130  -0.363   4.146 -0.5361 -0.0453 -0.3004
  971MOL0     C33902   5.122  -0.266   4.272 -0.1753  0.1823  0.3982
  971MOL0     C33903   4.986  -0.198   4.287 -0.5885  0.2900  0.6908
  971MOL0     C33904   4.969  -0.126   4.413  0.0398 -0.1369 -0.9032
  971MOL0    Cl33905   4.807  -0.076   4.438 -0.2258  0.1150 -0.1958
  971MOL0     C33906   5.051  -0.474   3.488 -0.8028  0.7452 -0.3135
  971MOL0     C33907   5.083  -0.562   3.386 -0.7990 -1.2916  1.0829
  971MOL0     O33908   5.306  -0.750   3.310  0.0176  0.4149 -0.5865
  971MOL0     C33909   5.210  -0.778   2.960  0.3337  0.3598 -0.2698
  971MOL0     C33910   5.210  -0.864   2.845  0.0495  0.0480  1.0840
  971MOL0     N33911   5.329  -1.183   2.157  0.4919 -0.5266  0.6192
  971MOL0     N33912   5.333  -1.075   2.075  0.1549  0.2867  0.0319
  971MOL0     C33913   4.775  -0.226   2.496  0.6069  0.7030  0.0544
  971MOL0     C33914   4.846  -0.107   2.520 -0.2678 -0.6639 -0.8354
  971MOL0     C33915   5.184   0.215   2.558 -0.7678 -0.4176 -0.6032
  971MOL0     C33916   5.310   0.268   2.513 -0.1714 -0.0164  0.3039
  971MOL0     C33917   5.342   0.394   2.561  0.1520 -0.1470  1.1319
  971MOL0     C33918   5.251   0.471   2.636  0.4397 -0.6022  0.3350
  971MOL0     O33919   5.275   0.603   2.684  0.1541  0.1454 -0.1952
  971MOL0     C33920   5.420   0.637   2.683 -0.3275  0.5872 -0.0121
  971MOL0     C33921   5.444   0.752   2.777  0.1765 -0.7870 -0.6498
  971MOL0     C33922   5.396   0.886   2.724  0.3281 -0.2255 -0.3643
  971MOL0     C33923   5.428   0.984   2.841 -0.0605  0.0237 -0.8951
  971MOL0     C33924   5.574   1.033   2.843  0.2239  0.2077  0.2314
  971MOL0     C33925   5.684   1.085   2.824 -0.7391  0.2073 -0.4942
  971MOL0     C33926   5.127   0.414   2.676 -0.4612 -0.1207 -0.6893
  971MOL0     C33927   5.097   0.284   2.645  0.8663  0.4427  0.3362
  971MOL0     C33928   4.959   0.234   2.690 -0.6091  0.1588  0.4636
  971MOL0     H33929   5.118  -0.162   2.339  0.5115 -2.4776  1.9582
  971MOL0     H33930   5.007  -0.362   2.291 -1.1612 -1.7423  2.1896
  971MOL0     H33931   4.718  -0.613   2.309 -0.5527  0.4502  4.4833
  971MOL0     H33932   4.887  -0.563   2.316 -1.2742 -4.1938  2.1582
  971MOL0     H33933   4.666  -0.449   2.111  0.0389 -1.4562 -0.8788
  971MOL0     H33934   4.812  -0.370   2.128 -0.7332  0.1011 -1.4108
  971MOL0     H33935   4.793  -0.660   2.052 -0.0271 -0.1169  0.6932
  971MOL0     H33936   4.806  -0.531   1.935 -1.1888 -0.1966  0.0533
  971MOL0     H33937   5.035  -0.476   2.066  0.4743  0.5952  2.8506
  971MOL0     H33938   5.002  -0.633   2.150 -1.2848  0.1571 -0.3985
  971MOL0     H33939   5.046  -0.573   1.863  1.2765  1.6136  0.9682
  971MOL0     H33940   5.013  -0.740   1.931  1.7442  0.0801 -3.9614
  971MOL0     H33941   5.241  -0.716   1.889 -0.5764 -0.3373 -0.0489
  971MOL0     H33942   5.244  -0.575   2.011 -0.4754 -1.0609  2.9616
  971MOL0     H33943   5.149  -0.843   2.090 -1.0431  1.2653  0.0221
  971MOL0     H33944   5.216  -0.704   2.187  1.7169  0.6791  0.0389
  971MOL0     H33945   5.401  -0.831   1.983  3.3957  0.9468  0.8497
  971MOL0     H33946   5.439  -0.758   2.132 -0.9764 -1.2151  0.9659
  971MOL0     H33947   5.385  -0.916   2.359  0.2990  1.0530 -1.1814
  971MOL0     H33948   5.408  -1.133   2.495 -2.7859 -1.2477  3.5524
  971MOL0     H33949   5.380  -1.295   2.422  1.2126  0.3994  2.8744
  971MOL0     H33950   5.169  -1.096   2.498  1.6915  1.0250 -1.3785
  971MOL0     H33951   5.136  -1.251   2.413 -0.0845 -1.0577  0.9050
  971MOL0     H33952   5.079  -1.254   2.662  0.5350 -2.0203  1.1075
  971MOL0     H33953   5.193  -1.373   2.634 -1.2012  0.3445  0.5879
  971MOL0     H33954   5.249  -1.243   2.824  3.5490 -1.5071 -0.2785
  971MOL0     H33955   5.374  -1.235   2.714 -0.4078 -2.3926  0.0132
  971MOL0     H33956   5.376  -1.138   2.991  0.9627  0.4701 -1.0090
  971MOL0     H33957   5.384  -1.126   3.219  1.3286  0.7147  0.4623
  971MOL0     H33958   5.304  -0.991   3.292 -0.6721  2.6328 -1.8375
  971MOL0     H33959   5.474  -0.973   3.245  1.9876 -0.4190 -3.9974
  971MOL0     H33960   5.266  -0.356   3.180  2.8745  1.3313  2.1000
  971MOL0     H33961   5.205  -0.194   3.375  4.9728 -1.4519 -0.8468
  971MOL0     H33962   5.010  -0.189   3.758 -0.6266 -1.2226  0.7029
  971MOL0     H33963   4.967  -0.352   3.715 -0.6057  0.9301  0.5360
  971MOL0     H33964   5.228  -0.405   3.700  0.8004  2.1390 -1.6298
  971MOL0     H33965   5.263  -0.250   3.766 -0.3193 -0.6025  1.6777
  971MOL0     H33966   5.271  -0.438   3.946  0.8582  1.1516  1.3023
  971MOL0     H33967   5.102  -0.459   3.919  2.5077 -1.3599 -1.6809
  971MOL0     H33968   5.090  -0.205   3.992 -1.7578 -2.2736 -2.3158
  971MOL0     H33969   5.259  -0.225   4.036  0.9822  0.6171 -1.9203
  971MOL0     H33970   5.037  -0.420   4.138  0.5297 -2.0113  0.7525
  971MOL0     H33971   5.209  -0.432   4.176 -0.9973  0.9657  3.8717
  971MOL0     H33972   5.201  -0.191   4.282 -0.7131  0.7414  0.5371
  971MOL0     H33973   5.130  -0.332   4.359 -2.6239 -1.4515 -0.5124
  971MOL0     H33974   4.906  -0.273   4.283 -1.2152  0.9660 -1.9487
  971MOL0     H33975   4.972  -0.128   4.203  2.3029 -1.5040 -1.4825
  971MOL0     H33976   5.036  -0.040   4.405 -2.7808  2.1319 -1.5736
  971MOL0     H33977   4.998  -0.192   4.496  1.2003  1.1845 -0.2123
  971MOL0     H33978   4.985  -0.494   3.571 -0.5547  1.7277  0.1455
  971MOL0     H33979   5.058  -0.668   3.391 -1.6089 -1.1944 -0.3791
  971MOL0     H33980   5.164  -0.681   2.943  0.3359  0.2966 -0.6343
  971MOL0     H33981   5.147  -0.835   2.762 -1.4106 -0.4928  1.9675
  971MOL0     H33982   4.678  -0.242   2.542  0.2437 -1.9296 -1.4251
  971MOL0     H33983   4.797  -0.047   2.596 -2.1148 -2.0945 -0.8097
  971MOL0     H33984   5.377   0.208   2.453  0.3548  0.3293  0.5462
  971MOL0     H33985   5.427   0.446   2.518 -2.1936  1.7109 -1.6637
  971MOL0     H33986   5.475   0.548   2.714 -2.3861 -0.8827 -0.3270
  971MOL0     H33987   5.466   0.660   2.587  3.4791 -0.2671  1.4528
  971MOL0     H33988   5.553   0.762   2.778  0.0052  1.7744 -1.6938
  971MOL0     H33989   5.401   0.746   2.877  0.0240  1.6725 -0.5037
  971MOL0     H33990   5.441   0.924   2.632 -0.5753  4.5161  0.8548
  971MOL0     H33991   5.288   0.871   2.712  0.1133 -0.8403  1.8307
  971MOL0     H33992   5.402   0.941   2.938  2.1262 -0.9378 -0.6684
  971MOL0     H33993   5.374   1.079   2.840 -0.3670 -0.1321 -0.1310
  971MOL0     H33994   5.774   1.130   2.787 -1.7896  0.8371 -2.4570
  971MOL0     H33995   5.059   0.475   2.734  1.1542  1.2516 -0.1728
  971MOL0     H33996   4.900   0.264   2.603  2.0840 -0.5270 -1.7313
  971MOL0     H33997   4.954   0.125   2.705 -1.6566  0.1415  0.0764
  971MOL0     H33998   4.921   0.286   2.778 -1.3468  3.4043 -1.6233
  972MOL0     O33999   5.460   9.108  11.262 -0.4594  0.0473  0.3624
  972MOL0     C34000   5.389   9.029  11.323 -0.7271 -0.6407 -0.3649
  972MOL0     O34001   5.427   8.906  11.361  0.6406  0.1808 -0.6768
  972MOL0     C34002   5.560   8.866  11.362  0.1156  0.3743  0.6627
  972MOL0     C34003   5.626   8.852  11.483  0.1004 -0.4837  0.0342
  972MOL0     C34004   5.758   8.812  11.477 -0.4334  0.3548  0.0059
  972MOL0     C34005   5.829   8.801  11.360  0.6056  0.5803 -0.0280
  972MOL0     O34006   5.951   8.737  11.366 -0.6927 -0.7316  0.4305
  972MOL0     C34007   6.067   8.824  11.365  0.0127  0.2373 -0.0053
  972MOL0     C34008   6.177   8.737  11.438 -0.1139 -0.0437 -0.4030
  972MOL0     C34009   6.317   8.791  11.394 -0.9881 -0.1152  0.9641
  972MOL0     C34010   6.383   8.894  11.486  0.4578 -0.7448  0.1818
  972MOL0     C34011   6.510   8.948  11.417  0.4247 -0.3199 -0.2743
  972MOL0     C34012   6.559   9.059  11.502 -0.1054 -1.0442 -0.3227
  972MOL0     C34013   6.690   9.126  11.444 -0.4974  0.3971  0.6524
  972MOL0     C34014   6.734   9.254  11.512 -0.5573  0.2476  0.7672
  972MOL0     N34015   6.765   9.242  11.658 -0.1120 -0.0406 -1.1458
  972MOL0     C34016   6.900   9.241  11.693 -0.1483 -0.4579 -0.1481
  972MOL0     C34017   6.899   9.208  11.831 -0.3865  0.1335  0.3760
  972MOL0     C34018   7.013   9.205  11.916 -0.9930 -0.2564  0.4090
  972MOL0     C34019   7.010   9.083  12.013 -0.9656 -0.1569 -0.3659
  972MOL0     C34020   7.064   8.962  11.937 -0.7474 -0.4303  1.3414
  972MOL0     C34021   7.211   8.956  11.912 -0.4287 -0.2807 -0.1923
  972MOL0     O34022   7.272   8.947  12.044 -0.0621  0.4051 -0.0803
  972MOL0     C34023   7.411   8.942  12.051  0.4475  1.0840  0.2213
  972MOL0     C34024   7.504   8.941  11.942  1.0579  0.2524 -0.3640
  972MOL0     C34025   7.640   8.937  11.965 -0.1853 -0.1415 -0.5499
  972MOL0     C34026   7.727   8.932  11.847 -0.3315  0.3566 -0.0221
  972MOL0     C34027   7.692   8.928  12.099  0.0946  0.4104  0.3460
  972MOL0     C34028   7.838   8.939  12.130  0.1851  0.1532  0.3225
  972MOL0     O34029   7.915   9.005  12.035  0.5487 -0.3059  0.2538
  972MOL0     C34030   8.049   8.985  12.031 -0.3447 -0.1373  0.0935
  972MOL0     C34031   8.112   8.858  12.024 -0.0775 -0.1255  0.5358
  972MOL0     C34032   8.247   8.852  12.027 -0.4987  0.4252  0.9528
  972MOL0     C34033   8.331   8.969  12.012 -0.4453  0.8308 -0.7504
  972MOL0     O34034   8.465   8.976  11.997 -0.2150 -0.2966 -0.7893
  972MOL0     C34035   8.538   8.978  12.127  0.4993 -1.0101 -0.1730
  972MOL0     C34036   8.577   9.126  12.162  1.2072 -0.0973 -0.6254
  972MOL0     C34037   8.670   9.176  12.061 -0.6098  0.1019 -0.5112
  972MOL0     C34038   8.747   9.300  12.119  0.2267  0.6703  1.0626
  972MOL0     C34039   8.861   9.340  12.016  0.5005  0.7854 -0.6195
  972MOL0     C34040   8.827   9.467  11.943 -0.4232  0.1174  0.1991
  972MOL0     C34041   8.952   9.496  11.864  0.2387 -0.4319 -0.2041
  972MOL0     C34042   8.931   9.619  11.787  0.1309  0.2443  0.0995
  972MOL0    Cl34043   8.857   9.560  11.629  0.2910 -0.3005  0.0361
  972MOL0     C34044   8.262   9.088  11.998  0.6480 -0.1759 -0.5717
  972MOL0     C34045   8.125   9.096  12.019  0.2348  0.9905  0.4816
  972MOL0     O34046   7.878   8.893  12.235 -0.3051  0.4706  0.1607
  972MOL0     C34047   7.594   8.933  12.205  0.2812 -0.0110  0.2546
  972MOL0     C34048   7.453   8.936  12.186  0.0271 -0.8092  0.3638
  972MOL0     N34049   6.765   9.194  11.873  0.8765 -0.0133 -0.3715
  972MOL0     N34050   6.685   9.213  11.768  0.4550  0.3217 -0.0418
  972MOL0     C34051   5.761   8.810  11.242  0.3664  0.4073  0.4289
  972MOL0     C34052   5.621   8.830  11.242  0.2685 -0.0322 -0.0959
  972MOL0     C34053   5.241   9.062  11.325  0.0220  0.3295  0.1897
  972MOL0     C34054   5.162   8.941  11.330 -1.1100  0.8727 -0.3626
  972MOL0     C34055   5.023   8.948  11.334  0.7904 -0.1398  0.2403
  972MOL0     C34056   4.956   9.070  11.348  0.5879  0.6562 -0.1065
  972MOL0     O34057   4.816   9.064  11.367 -0.3355  0.2097  0.0484
  972MOL0     C34058   4.734   9.179  11.342  0.1510 -0.4242 -0.4644
  972MOL0     C34059   4.723   9.277  11.455 -0.0458 -0.3751  0.1357
  972MOL0     C34060   4.611   9.380  11.433  0.1343  0.6944  0.1292
  972MOL0     C34061   4.625   9.479  11.542 -0.1662  0.1338 -0.1332
  972MOL0     C34062   4.523   9.588  11.558 -0.4596 -0.2330  0.1948
  972MOL0     C34063   4.452   9.681  11.566 -0.1031  0.1910 -0.5130
  972MOL0     C34064   5.040   9.186  11.338 -0.8485 -0.9388 -0.7147
  972MOL0     C34065   5.178   9.185  11.331  1.0054  0.2708 -0.8152
  972MOL0     C34066   5.255   9.317  11.352  0.0629  0.3978  0.0497
  972MOL0     H34067   5.580   8.858  11.582 -0.1158 -2.2566  0.0747
  972MOL0     H34068   5.812   8.794  11.569  1.2314  0.9839 -0.8183
  972MOL0     H34069   6.046   8.921  11.410 -2.0321 -0.5981  0.9565
  972MOL0     H34070   6.087   8.823  11.257  0.3889  0.1360  0.0653
  972MOL0     H34071   6.159   8.739  11.546 -0.3182  0.3820 -0.4419
  972MOL0     H34072   6.168   8.632  11.411  0.0349 -1.0996  3.1339
  972MOL0     H34073   6.390   8.710  11.389 -0.0277  0.8041 -0.7587
  972MOL0     H34074   6.314   8.840  11.296  0.8448  0.4708  1.1637
  972MOL0     H34075   6.313   8.977  11.494  2.2924  0.8238  0.6425
  972MOL0     H34076   6.396   8.858  11.588 -0.8249 -0.5975  0.4169
  972MOL0     H34077   6.489   8.982  11.315 -3.7907  0.1609  0.5674
  972MOL0     H34078   6.575   8.860  11.412 -0.4815 -1.0697  0.7929
  972MOL0     H34079   6.482   9.135  11.514  0.7194 -0.2374  0.0199
  972MOL0     H34080   6.567   9.037  11.609  1.7236  4.5168  1.0362
  972MOL0     H34081   6.675   9.149  11.338  0.5073 -0.6229  0.2623
  972MOL0     H34082   6.771   9.052  11.450 -1.2402 -0.8185 -2.2492
  972MOL0     H34083   6.813   9.289  11.444 -2.5565  0.2311 -1.7103
  972MOL0     H34084   6.653   9.327  11.506  1.5114  2.6279 -0.4906
  972MOL0     H34085   6.995   9.256  11.642  1.4146 -2.1792  2.0339
  972MOL0     H34086   7.012   9.301  11.969  0.5910  0.0837 -0.1405
  972MOL0     H34087   7.105   9.204  11.857 -0.6839  0.8720  0.8530
  972MOL0     H34088   7.063   9.099  12.108 -0.7114 -3.4218  0.1678
  972MOL0     H34089   6.907   9.068  12.046 -0.9039 -1.8037 -0.8413
  972MOL0     H34090   7.042   8.858  11.966  2.5222 -1.1620  1.5930
  972MOL0     H34091   7.015   8.956  11.839  2.3368  1.9404 -0.5203
  972MOL0     H34092   7.222   8.874  11.841 -0.7374  0.0501 -0.6255
  972MOL0     H34093   7.235   9.044  11.852 -2.4400 -1.5926 -3.1234
  972MOL0     H34094   7.460   8.951  11.844  0.4307 -2.7943 -0.4816
  972MOL0     H34095   7.765   9.030  11.817 -0.5114  0.2986 -0.4533
  972MOL0     H34096   7.665   8.902  11.762 -2.0460  1.1013  0.9104
  972MOL0     H34097   7.802   8.851  11.845  1.0223  1.5849 -1.4572
  972MOL0     H34098   8.054   8.769  12.048 -0.4390 -0.0936 -0.2041
  972MOL0     H34099   8.304   8.763  12.052 -0.4487  0.5793  1.3893
  972MOL0     H34100   8.474   8.941  12.208  0.8061 -1.3178 -0.0677
  972MOL0     H34101   8.625   8.911  12.127 -0.1455 -1.8523 -0.0647
  972MOL0     H34102   8.481   9.176  12.148  0.6856 -1.3030 -1.6269
  972MOL0     H34103   8.614   9.128  12.264 -0.0857  0.7493 -0.1557
  972MOL0     H34104   8.626   9.210  11.967 -1.5312 -1.6643 -0.7625
  972MOL0     H34105   8.741   9.095  12.042 -0.6387  0.3866 -1.9286
  972MOL0     H34106   8.790   9.263  12.212 -0.2722 -3.9569 -0.2708
  972MOL0     H34107   8.673   9.380  12.135 -1.9203 -0.7962 -0.7987
  972MOL0     H34108   8.949   9.355  12.080 -1.3300 -0.2732  2.3374
  972MOL0     H34109   8.881   9.259  11.945  1.4150  0.0161  0.4829
  972MOL0     H34110   8.815   9.544  12.019  2.9404 -0.2750  1.2675
  972MOL0     H34111   8.735   9.455  11.884 -2.3261 -0.2836  3.0388
  972MOL0     H34112   8.973   9.415  11.794  1.6347 -0.2301 -0.0507
  972MOL0     H34113   9.035   9.509  11.935  0.8912  0.4441 -1.0950
  972MOL0     H34114   9.030   9.663  11.771 -0.3079  1.6654  1.1063
  972MOL0     H34115   8.875   9.688  11.851  2.3969 -0.5169  3.1741
  972MOL0     H34116   8.313   9.182  11.981 -1.4241  0.7134 -2.3717
  972MOL0     H34117   8.079   9.193  12.007  1.4962  1.6927  1.1113
  972MOL0     H34118   7.634   8.923  12.306 -1.8218 -0.0911  1.1361
  972MOL0     H34119   7.389   8.932  12.274  0.1078 -0.6808  0.4301
  972MOL0     H34120   5.798   8.776  11.146 -2.1255 -2.7949  0.4413
  972MOL0     H34121   5.572   8.826  11.145 -0.2658 -1.0027  0.1963
  972MOL0     H34122   5.207   8.843  11.319 -0.2224  1.0734  1.1853
  972MOL0     H34123   4.967   8.856  11.340  0.2984  0.1499  0.1557
  972MOL0     H34124   4.766   9.229  11.250  2.5222 -2.1592 -0.6850
  972MOL0     H34125   4.627   9.159  11.337  0.0044  0.0514  0.4826
  972MOL0     H34126   4.817   9.331  11.465 -1.3557  1.8020  1.6964
  972MOL0     H34127   4.715   9.225  11.551 -0.4204 -0.5866 -0.0101
  972MOL0     H34128   4.646   9.429  11.342 -0.9827  0.6782 -0.3357
  972MOL0     H34129   4.512   9.333  11.433 -0.5051  1.9967  0.7199
  972MOL0     H34130   4.725   9.522  11.535  0.3377 -0.7393  1.2168
  972MOL0     H34131   4.617   9.430  11.639 -1.5974 -1.2600 -0.9005
  972MOL0     H34132   4.383   9.762  11.578  0.2838  0.5425 -0.6794
  972MOL0     H34133   4.984   9.279  11.351 -2.6390 -1.8104 -1.8905
  972MOL0     H34134   5.186   9.381  11.406 -0.2677 -0.5551  0.7807
  972MOL0     H34135   5.340   9.312  11.420  0.0584  2.0385  0.2086
  972MOL0     H34136   5.285   9.371  11.261  1.3020  0.0851  0.2615
  973MOL0     O34137   5.674   7.069   2.817 -0.1769 -0.0008 -0.1257
  973MOL0     C34138   5.755   7.059   2.907 -0.2610 -0.0755 -0.3528
  973MOL0     O34139   5.746   6.981   3.021 -0.9562  0.0507 -0.6757
  973MOL0     C34140   5.633   6.904   3.041 -0.0046 -0.2551  0.9121
  973MOL0     C34141   5.567   6.838   2.941  0.9519  1.0091  0.2065
  973MOL0     C34142   5.456   6.757   2.965 -1.0788 -0.4765 -0.0806
  973MOL0     C34143   5.403   6.740   3.096 -0.7128  0.0379 -0.6468
  973MOL0     O34144   5.300   6.651   3.136 -0.5474 -0.9648 -0.7323
  973MOL0     C34145   5.234   6.584   3.036  0.9432  1.1873  0.7197
  973MOL0     C34146   5.309   6.456   3.008  0.4734  0.5071 -0.3876
  973MOL0     C34147   5.335   6.381   3.141  0.1458  0.6154  0.6138
  973MOL0     C34148   5.344   6.231   3.110  1.1838 -1.2207 -0.6988
  973MOL0     C34149   5.471   6.186   3.045  0.6374  0.2854  0.5283
  973MOL0     C34150   5.467   6.026   3.028 -0.3601 -1.0431  0.6106
  973MOL0     C34151   5.560   5.967   2.918  0.1655 -0.2846 -0.1850
  973MOL0     C34152   5.543   6.017   2.771  0.4267 -0.2700 -0.2105
  973MOL0     N34153   5.410   6.005   2.720  0.1209 -0.1225 -0.8174
  973MOL0     C34154   5.318   6.100   2.726  0.3999 -0.8679  0.2364
  973MOL0     C34155   5.211   6.049   2.673  0.0651 -0.6155  0.3087
  973MOL0     C34156   5.071   6.098   2.665 -0.3015  0.3255  0.3485
  973MOL0     C34157   5.038   6.238   2.625  0.2032 -0.8479  0.2989
  973MOL0     C34158   5.036   6.336   2.744  0.4141  0.5533  0.0255
  973MOL0     C34159   5.034   6.485   2.709 -0.4074  0.3311 -0.7558
  973MOL0     O34160   4.897   6.502   2.663  0.1543 -0.6115  0.4115
  973MOL0     C34161   4.872   6.589   2.555 -0.3830 -0.2430  0.5802
  973MOL0     C34162   4.903   6.551   2.417  0.1791 -0.2834 -1.1822
  973MOL0     C34163   4.883   6.632   2.309  0.3151 -0.4793  0.0185
  973MOL0     C34164   4.911   6.582   2.173  1.0063  0.0701  0.3754
  973MOL0     C34165   4.829   6.763   2.328  0.5697  0.5966  0.3966
  973MOL0     C34166   4.810   6.871   2.229  0.2489 -1.1934 -0.4405
  973MOL0     O34167   4.832   6.833   2.100  0.4584 -0.4642  0.1140
  973MOL0     C34168   4.794   6.924   2.004  0.3854 -0.4564  0.4192
  973MOL0     C34169   4.658   6.958   1.980  0.2630  0.1557  0.1159
  973MOL0     C34170   4.638   7.062   1.883  0.2442 -0.1644 -0.3224
  973MOL0     C34171   4.744   7.136   1.831 -0.2017 -0.4313  0.6193
  973MOL0     O34172   4.707   7.243   1.749  0.1655 -0.2599  0.6366
  973MOL0     C34173   4.770   7.244   1.625  0.4348  0.1717  0.6209
  973MOL0     C34174   4.716   7.134   1.528  0.7535  0.0607  0.4510
  973MOL0     C34175   4.562   7.143   1.515  0.3256 -0.6636 -0.7900
  973MOL0     C34176   4.501   7.053   1.408  0.2955  0.1590 -0.5765
  973MOL0     C34177   4.351   7.034   1.425 -0.9125 -0.4605 -0.3308
  973MOL0     C34178   4.304   6.984   1.288  1.3999  0.4295 -0.1310
  973MOL0     C34179   4.159   6.943   1.302  0.5990 -0.3372 -0.2120
  973MOL0     C34180   4.107   6.885   1.174 -0.1751  0.5696  0.5235
  973MOL0    Cl34181   4.188   6.733   1.113 -0.1934 -0.0478 -0.3940
  973MOL0     C34182   4.873   7.099   1.869  0.6929  0.5539  0.0979
  973MOL0     C34183   4.902   6.994   1.951  0.0170 -0.0179 -0.5132
  973MOL0     O34184   4.803   6.989   2.264  0.2859  0.3274  0.4277
  973MOL0     C34185   4.800   6.789   2.468  0.3631 -0.0057 -0.6095
  973MOL0     C34186   4.825   6.708   2.579  0.9242 -0.6648 -0.2324
  973MOL0     N34187   5.246   5.929   2.619 -0.0712  1.2504 -0.2113
  973MOL0     N34188   5.365   5.900   2.646 -0.3572  0.1981 -0.5985
  973MOL0     C34189   5.474   6.797   3.197  0.3649 -0.2660  0.4806
  973MOL0     C34190   5.581   6.882   3.172  0.2542  0.1897 -0.5581
  973MOL0     C34191   5.868   7.151   2.926 -0.2379  1.0077  0.4880
  973MOL0     C34192   5.976   7.109   3.006 -0.7361 -0.1130  0.3638
  973MOL0     C34193   6.077   7.196   3.041 -0.8840 -0.2563  0.7126
  973MOL0     C34194   6.086   7.324   2.989  0.6892 -0.1655 -0.4532
  973MOL0     O34195   6.171   7.427   3.015  0.4869 -0.0139  0.3876
  973MOL0     C34196   6.262   7.404   3.119  1.0673 -0.5759 -0.2774
  973MOL0     C34197   6.300   7.544   3.161  0.6928 -0.0476 -0.7564
  973MOL0     C34198   6.375   7.524   3.305  0.3630  0.7157 -0.0500
  973MOL0     C34199   6.435   7.655   3.354 -0.3235  0.3455 -0.0071
  973MOL0     C34200   6.503   7.628   3.478 -0.1704  0.5545 -0.0675
  973MOL0     C34201   6.573   7.628   3.578  0.4799 -0.3415 -0.5065
  973MOL0     C34202   5.984   7.365   2.896  1.1282 -0.3661 -0.0250
  973MOL0     C34203   5.879   7.277   2.852 -0.6391 -1.0172 -0.7017
  973MOL0     C34204   5.777   7.317   2.744 -0.3506 -0.2840 -0.1780
  973MOL0     H34205   5.592   6.847   2.836 -2.9955  1.8464 -0.8455
  973MOL0     H34206   5.407   6.701   2.885  0.3563 -0.4276 -1.0339
  973MOL0     H34207   5.224   6.634   2.940  1.5318  3.4242  1.7431
  973MOL0     H34208   5.134   6.558   3.073  0.7793  0.5133 -0.1658
  973MOL0     H34209   5.255   6.387   2.942  0.4124 -0.8915  1.0694
  973MOL0     H34210   5.404   6.475   2.957  0.8387  1.7060  0.7014
  973MOL0     H34211   5.425   6.417   3.191  0.2965 -0.0853  0.8586
  973MOL0     H34212   5.252   6.392   3.212  0.0371 -0.0254  0.5920
  973MOL0     H34213   5.335   6.179   3.205  1.5470  1.3933  0.8564
  973MOL0     H34214   5.269   6.193   3.040  1.4056 -1.4764 -0.8013
  973MOL0     H34215   5.545   6.209   3.123 -1.7191 -0.5047  3.1775
  973MOL0     H34216   5.497   6.238   2.953 -0.1091  1.0155  0.7196
  973MOL0     H34217   5.493   5.995   3.129 -0.6030  1.9916  1.7120
  973MOL0     H34218   5.363   5.994   3.018 -1.4594  1.3256  3.0595
  973MOL0     H34219   5.536   5.860   2.921  1.1953 -0.5059  0.9528
  973MOL0     H34220   5.667   5.981   2.938  0.2845  1.8963 -1.9517
  973MOL0     H34221   5.580   6.120   2.759  0.4759 -0.5599 -3.5020
  973MOL0     H34222   5.609   5.965   2.700 -0.3033  1.9011 -2.6635
  973MOL0     H34223   5.332   6.197   2.774 -2.0050 -1.1114  1.5720
  973MOL0     H34224   5.026   6.080   2.763 -1.4825  3.1077  0.4039
  973MOL0     H34225   5.021   6.040   2.587 -0.2183  1.0824 -0.2762
  973MOL0     H34226   5.114   6.278   2.557 -0.4723  1.9890  1.0803
  973MOL0     H34227   4.937   6.237   2.582 -1.2354  0.0212  3.3595
  973MOL0     H34228   4.946   6.320   2.803  1.0695 -1.4283  0.5693
  973MOL0     H34229   5.122   6.313   2.808  2.5805  1.7141 -2.2528
  973MOL0     H34230   5.052   6.547   2.797 -2.6972  0.4308 -0.2755
  973MOL0     H34231   5.105   6.509   2.630 -0.1738  1.7733 -0.1282
  973MOL0     H34232   4.947   6.453   2.407  2.0978  0.2398  1.0904
  973MOL0     H34233   5.006   6.624   2.140  2.9328 -4.1627 -0.0817
  973MOL0     H34234   4.822   6.608   2.115  1.6320  0.5455 -0.3871
  973MOL0     H34235   4.907   6.473   2.178  0.5240  0.0713  0.0874
  973MOL0     H34236   4.580   6.891   2.016 -0.0542  0.9362  0.9176
  973MOL0     H34237   4.541   7.094   1.846 -0.4113 -0.7037  0.8651
  973MOL0     H34238   4.769   7.338   1.569  0.3204 -0.8773 -1.2050
  973MOL0     H34239   4.878   7.233   1.638  0.4832  0.7272  0.7320
  973MOL0     H34240   4.746   7.141   1.423  1.8811 -5.6410  0.0762
  973MOL0     H34241   4.741   7.039   1.576 -2.8041 -0.8570  0.6997
  973MOL0     H34242   4.531   7.246   1.495 -2.2462 -1.1766  0.1771
  973MOL0     H34243   4.511   7.127   1.611  0.4737 -0.2610 -0.6372
  973MOL0     H34244   4.549   6.955   1.414 -1.9550 -0.9150  2.1918
  973MOL0     H34245   4.515   7.099   1.310  1.5451  2.5784  0.6408
  973MOL0     H34246   4.328   6.960   1.504  2.6501 -1.2271  0.1507
  973MOL0     H34247   4.295   7.124   1.451 -1.0078 -0.7414  0.4724
  973MOL0     H34248   4.364   6.903   1.245  1.9923 -0.4351  2.1665
  973MOL0     H34249   4.295   7.061   1.211 -1.5536 -0.6872 -1.0316
  973MOL0     H34250   4.100   7.031   1.330  0.7170 -0.4191  0.2978
  973MOL0     H34251   4.162   6.866   1.379  0.4692  1.7949  2.0401
  973MOL0     H34252   4.116   6.953   1.088 -1.5794 -1.4391 -1.3000
  973MOL0     H34253   3.999   6.870   1.176 -0.3948  1.9506  0.1412
  973MOL0     H34254   4.963   7.148   1.833  0.4755 -0.1544 -1.4731
  973MOL0     H34255   5.003   6.956   1.961 -0.4669 -0.9766  1.0893
  973MOL0     H34256   4.771   6.890   2.498  2.5806  0.0545  1.6095
  973MOL0     H34257   4.801   6.744   2.679  1.3158  0.7403 -0.6312
  973MOL0     H34258   5.430   6.788   3.296 -2.8771 -1.4274 -0.9222
  973MOL0     H34259   5.628   6.929   3.258  1.6148  0.5498 -1.4571
  973MOL0     H34260   5.977   7.011   3.053 -1.3446  1.7832  4.8018
  973MOL0     H34261   6.146   7.146   3.109  2.3027  1.7917 -0.7627
  973MOL0     H34262   6.203   7.363   3.201  1.5628 -1.6464 -0.4419
  973MOL0     H34263   6.342   7.333   3.094  0.3611 -1.8344  0.9010
  973MOL0     H34264   6.221   7.618   3.179  0.7113  0.2401 -1.8314
  973MOL0     H34265   6.366   7.597   3.092 -0.0438  1.5285 -0.3046
  973MOL0     H34266   6.291   7.502   3.372  1.0299 -0.2317  0.5029
  973MOL0     H34267   6.447   7.443   3.292 -1.7792 -1.1034 -1.3065
  973MOL0     H34268   6.364   7.739   3.359 -0.4104  0.4261 -1.9300
  973MOL0     H34269   6.506   7.674   3.272 -2.7328 -0.1763 -2.3492
  973MOL0     H34270   6.635   7.630   3.665  2.3879  0.4864 -1.8086
  973MOL0     H34271   5.989   7.456   2.837 -4.6782 -0.6717 -1.6460
  973MOL0     H34272   5.687   7.362   2.785 -0.2153  0.7714 -0.9716
  973MOL0     H34273   5.818   7.400   2.685 -1.6645 -0.7953 -1.8762
  973MOL0     H34274   5.754   7.251   2.660 -2.3126 -1.5466  1.2955
  974MOL0     O34275   5.135   6.154   3.472  0.8977 -0.0047 -1.1025
  974MOL0     C34276   5.106   6.253   3.531 -0.6714  0.3509 -0.2327
  974MOL0     O34277   5.171   6.371   3.534  0.6367 -0.6517 -0.6304
  974MOL0     C34278   5.304   6.379   3.530 -0.3916 -0.2732 -0.6648
  974MOL0     C34279   5.364   6.508   3.507 -0.1768  0.0689 -0.0019
  974MOL0     C34280   5.500   6.528   3.510 -0.8260 -0.0496  0.3405
  974MOL0     C34281   5.589   6.416   3.519  0.9458 -0.8704  0.2787
  974MOL0     O34282   5.731   6.417   3.518  0.5839 -0.1807  0.3455
  974MOL0     C34283   5.791   6.534   3.579  0.3066 -0.5308  0.5361
  974MOL0     C34284   5.943   6.522   3.592 -0.5097 -0.7316  0.2192
  974MOL0     C34285   5.980   6.409   3.687 -0.2465  0.4851 -0.4855
  974MOL0     C34286   5.967   6.459   3.830 -0.4105 -0.2110  0.7447
  974MOL0     C34287   5.964   6.346   3.931  0.2478 -0.1505  1.2458
  974MOL0     C34288   6.083   6.340   4.036  0.2205  0.5032  0.4803
  974MOL0     C34289   6.081   6.212   4.115  0.2401  0.4425 -0.3169
  974MOL0     C34290   5.967   6.189   4.215  0.2162 -0.5673 -0.0898
  974MOL0     N34291   5.963   6.291   4.322  0.3896 -0.5837 -0.5408
  974MOL0     C34292   6.004   6.277   4.450 -0.7711 -0.1398  0.6344
  974MOL0     C34293   5.951   6.378   4.517 -0.2804 -0.9802  1.1779
  974MOL0     C34294   5.999   6.417   4.660 -0.1410  0.2736 -0.2236
  974MOL0     C34295   6.102   6.533   4.647 -0.2062  0.0316  0.0270
  974MOL0     C34296   6.126   6.609   4.776 -0.3781  0.3699  0.3723
  974MOL0     C34297   6.238   6.709   4.759  0.0863  0.0401  1.0162
  974MOL0     O34298   6.239   6.775   4.633 -0.2985 -0.0624 -0.1179
  974MOL0     C34299   6.356   6.850   4.615 -0.0432 -0.1724  0.5034
  974MOL0     C34300   6.414   6.849   4.485  0.6817  0.2411 -0.6040
  974MOL0     C34301   6.540   6.891   4.450  0.1803 -0.3829  0.6195
  974MOL0     C34302   6.591   6.870   4.308 -0.4283  0.2822  1.0165
  974MOL0     C34303   6.614   6.956   4.561  0.2490 -0.1670  0.0865
  974MOL0     C34304   6.750   7.018   4.552  0.4364 -0.3071  0.6441
  974MOL0     O34305   6.801   7.075   4.661  0.4452 -0.6850  0.8207
  974MOL0     C34306   6.929   7.132   4.664 -0.0558  0.0344 -0.3876
  974MOL0     C34307   6.943   7.254   4.734  0.0552  0.2157  0.1675
  974MOL0     C34308   7.067   7.301   4.764  0.4468 -0.3270  0.3939
  974MOL0     C34309   7.183   7.247   4.703  0.5502  0.1506 -0.2712
  974MOL0     O34310   7.303   7.305   4.729  0.0388 -0.0869 -0.0891
  974MOL0     C34311   7.405   7.289   4.630 -0.3159  0.0716  0.4068
  974MOL0     C34312   7.504   7.396   4.665  0.5226 -0.5404 -0.6621
  974MOL0     C34313   7.626   7.420   4.573 -0.5331 -0.0435  0.3066
  974MOL0     C34314   7.716   7.526   4.624 -0.1312  0.1116 -0.5041
  974MOL0     C34315   7.843   7.546   4.543 -0.6235  0.1496  0.2925
  974MOL0     C34316   7.945   7.624   4.616 -0.4735  0.4920  0.1162
  974MOL0     C34317   8.071   7.655   4.525 -0.0199 -0.3139 -0.6750
  974MOL0     C34318   8.152   7.787   4.554 -0.1639 -0.3264 -0.8301
  974MOL0    Cl34319   8.037   7.937   4.584  0.1027 -0.8187 -0.2594
  974MOL0     C34320   7.162   7.131   4.620 -1.1198  0.2128 -0.9547
  974MOL0     C34321   7.039   7.065   4.610 -0.6395 -0.1026 -0.5018
  974MOL0     O34322   6.791   7.033   4.436  0.1445  0.6120  0.3687
  974MOL0     C34323   6.546   6.986   4.681 -0.3141  1.4383 -0.6322
  974MOL0     C34324   6.426   6.932   4.706  0.7640  0.3657  0.6522
  974MOL0     N34325   5.860   6.448   4.434  0.0991 -0.6807 -1.3301
  974MOL0     N34326   5.876   6.397   4.315 -0.7679  0.3060 -0.3097
  974MOL0     C34327   5.525   6.290   3.519  0.2300 -0.4825 -0.7583
  974MOL0     C34328   5.388   6.264   3.538 -0.9284 -0.2657 -0.3482
  974MOL0     C34329   4.975   6.251   3.602  0.2011  0.6845  0.2775
  974MOL0     C34330   4.863   6.188   3.529  0.4823  0.0083 -0.9255
  974MOL0     C34331   4.736   6.176   3.591 -0.6972 -0.8850 -0.3936
  974MOL0     C34332   4.713   6.227   3.721 -0.9621  0.4179 -1.0857
  974MOL0     O34333   4.604   6.200   3.796  0.4535  0.3555 -0.1207
  974MOL0     C34334   4.493   6.118   3.743  0.2063 -0.2078 -0.8330
  974MOL0     C34335   4.518   5.971   3.771 -0.2594  0.1844  0.1570
  974MOL0     C34336   4.556   5.925   3.908 -0.0068 -0.4686 -0.3913
  974MOL0     C34337   4.550   5.769   3.920  0.3125  0.1869  1.5957
  974MOL0     C34338   4.589   5.726   4.047 -0.1940  0.4944 -0.7782
  974MOL0     C34339   4.647   5.686   4.145  0.3957 -0.1920 -0.8356
  974MOL0     C34340   4.818   6.298   3.789 -0.0479 -0.5068  1.1583
  974MOL0     C34341   4.946   6.312   3.722  1.0241 -0.3588 -0.5745
  974MOL0     C34342   5.049   6.398   3.796  0.2516  0.2056 -0.1098
  974MOL0     H34343   5.299   6.592   3.487 -1.7540 -0.1216  3.5838
  974MOL0     H34344   5.546   6.626   3.502  2.6268 -1.4253  1.5915
  974MOL0     H34345   5.767   6.577   3.677 -0.9284  0.7324 -0.2845
  974MOL0     H34346   5.769   6.617   3.510  0.2961 -1.0061 -0.0416
  974MOL0     H34347   5.982   6.495   3.493 -1.9611 -0.8688 -0.3409
  974MOL0     H34348   5.999   6.612   3.623  0.8131 -2.2221  2.4542
  974MOL0     H34349   5.914   6.324   3.668 -0.6927  0.9075 -0.8859
  974MOL0     H34350   6.081   6.377   3.660 -1.2793 -0.7420 -3.3841
  974MOL0     H34351   6.055   6.518   3.858  1.5254 -1.8704 -1.4566
  974MOL0     H34352   5.877   6.520   3.839 -0.3304 -0.4121  4.7175
  974MOL0     H34353   5.980   6.251   3.879  2.3635 -0.6608  2.7088
  974MOL0     H34354   5.863   6.343   3.975  1.0284  0.5569  3.1843
  974MOL0     H34355   6.170   6.342   3.970 -1.2279 -1.2274 -1.6330
  974MOL0     H34356   6.082   6.432   4.095 -1.2232  1.9873 -1.6901
  974MOL0     H34357   6.171   6.204   4.177  0.4743 -1.6244 -0.8536
  974MOL0     H34358   6.088   6.118   4.059 -3.4673 -0.1651 -0.0073
  974MOL0     H34359   5.875   6.208   4.160  0.0716  0.1411  0.3900
  974MOL0     H34360   5.976   6.086   4.252  0.7127 -0.9637 -1.2560
  974MOL0     H34361   6.062   6.192   4.483 -0.7809  0.1939  1.5349
  974MOL0     H34362   6.056   6.337   4.708 -2.4067  1.0004  4.1667
  974MOL0     H34363   5.910   6.446   4.716  0.7780  1.1721  0.8540
  974MOL0     H34364   6.191   6.480   4.611 -0.2979  1.0483 -1.8821
  974MOL0     H34365   6.056   6.599   4.573 -0.5937 -0.0120  0.2321
  974MOL0     H34366   6.035   6.669   4.782 -1.4280 -0.8674 -2.0959
  974MOL0     H34367   6.153   6.532   4.849  1.0235  0.4699 -0.0019
  974MOL0     H34368   6.230   6.788   4.835  0.9164  3.8097 -2.4818
  974MOL0     H34369   6.332   6.655   4.775 -1.8601 -3.4296  1.6284
  974MOL0     H34370   6.361   6.792   4.409 -0.7670 -1.1283  1.3212
  974MOL0     H34371   6.679   6.807   4.325 -1.5457 -0.9231  2.6949
  974MOL0     H34372   6.627   6.961   4.259  1.0033  0.3936  2.1948
  974MOL0     H34373   6.514   6.816   4.253  0.1613 -0.1768  0.6267
  974MOL0     H34374   6.854   7.306   4.767  0.2759  0.7177 -0.0114
  974MOL0     H34375   7.090   7.393   4.816  0.2894 -0.4059  0.6060
  974MOL0     H34376   7.455   7.192   4.635  0.2430  0.3539  0.3991
  974MOL0     H34377   7.357   7.294   4.532 -0.9531  0.4779  0.7246
  974MOL0     H34378   7.440   7.483   4.681 -0.0059 -0.8392 -1.0857
  974MOL0     H34379   7.543   7.380   4.765 -0.0894  2.0267  0.0662
  974MOL0     H34380   7.577   7.464   4.485 -0.9283  0.3568  0.7214
  974MOL0     H34381   7.678   7.325   4.557 -1.9232 -0.3445 -3.4951
  974MOL0     H34382   7.744   7.493   4.725 -2.4421 -1.4181 -0.3082
  974MOL0     H34383   7.658   7.616   4.644  0.2996  0.7659 -2.0443
  974MOL0     H34384   7.895   7.456   4.511  0.4830  0.6636  0.6038
  974MOL0     H34385   7.814   7.603   4.454  0.6189 -0.4082 -0.4882
  974MOL0     H34386   7.993   7.564   4.694 -0.7103 -0.8821 -0.7656
  974MOL0     H34387   7.890   7.706   4.663 -0.4917 -0.2690  1.4672
  974MOL0     H34388   8.028   7.678   4.428 -3.8459 -1.4363  0.5872
  974MOL0     H34389   8.134   7.565   4.535 -1.1413 -0.9374  1.6235
  974MOL0     H34390   8.222   7.817   4.476 -1.0346  1.3073 -1.0302
  974MOL0     H34391   8.211   7.771   4.645  1.0176  1.8103 -1.1691
  974MOL0     H34392   7.251   7.085   4.580 -1.0689 -2.0147  1.4847
  974MOL0     H34393   7.033   6.964   4.572 -1.5145 -0.3540  0.2578
  974MOL0     H34394   6.604   7.042   4.753 -1.0796  1.1202  0.2518
  974MOL0     H34395   6.373   6.951   4.799 -3.5702 -1.2716 -1.2162
  974MOL0     H34396   5.596   6.209   3.506 -2.6062 -3.2552 -0.2160
  974MOL0     H34397   5.356   6.160   3.534  2.6648 -1.5725  0.6991
  974MOL0     H34398   4.884   6.147   3.431 -0.7636  2.7930 -2.4774
  974MOL0     H34399   4.653   6.126   3.542 -1.9303 -0.3982  1.1393
  974MOL0     H34400   4.408   6.146   3.806  0.4059 -0.3393 -0.5008
  974MOL0     H34401   4.475   6.127   3.636 -1.1310  0.5863 -0.5641
  974MOL0     H34402   4.606   5.947   3.710 -1.3820  1.1079 -1.9514
  974MOL0     H34403   4.431   5.924   3.723 -0.6806  1.3973 -0.3004
  974MOL0     H34404   4.656   5.966   3.921  0.8379 -2.9995  2.3473
  974MOL0     H34405   4.495   5.978   3.982  0.3259 -1.6228  0.7390
  974MOL0     H34406   4.613   5.719   3.847 -2.2556 -1.6680  0.5116
  974MOL0     H34407   4.448   5.730   3.910  0.5497  0.1313 -1.5255
  974MOL0     H34408   4.687   5.643   4.234 -0.0053 -0.2976 -0.7047
  974MOL0     H34409   4.810   6.332   3.892  2.0030  2.8399  0.3742
  974MOL0     H34410   5.046   6.375   3.903  1.2936 -0.5133 -0.2237
  974MOL0     H34411   5.148   6.366   3.764 -0.3463 -1.7371 -0.1348
  974MOL0     H34412   5.032   6.505   3.782  1.8957  0.3244 -1.4599
  975MOL0     O34413   0.647   5.312  10.291  0.2431 -0.1030  0.1075
  975MOL0     C34414   0.670   5.190  10.300 -0.4743  0.1188 -0.4778
  975MOL0     O34415   0.790   5.128  10.272 -0.6431 -0.7051 -1.1086
  975MOL0     C34416   0.891   5.206  10.229  0.1316 -0.9600  0.1864
  975MOL0     C34417   0.878   5.287  10.111 -0.3358 -0.3598  0.1008
  975MOL0     C34418   0.985   5.369  10.071 -0.5115  0.6850 -0.3149
  975MOL0     C34419   1.100   5.376  10.146  0.4907 -1.1095 -0.4267
  975MOL0     O34420   1.199   5.466  10.111 -0.5273  0.3480  0.9881
  975MOL0     C34421   1.331   5.438  10.151  0.6123  0.2049 -1.7676
  975MOL0     C34422   1.417   5.541  10.107 -0.3091 -1.1033  0.5793
  975MOL0     C34423   1.439   5.544   9.954  1.1574  0.0127  0.3773
  975MOL0     C34424   1.565   5.476   9.911 -0.1854  0.3480 -0.1854
  975MOL0     C34425   1.600   5.488   9.764 -0.1390 -0.3288  0.9443
  975MOL0     C34426   1.631   5.627   9.712 -0.7614 -0.5402  0.6648
  975MOL0     C34427   1.762   5.665   9.779 -0.1099  0.8910 -0.5188
  975MOL0     C34428   1.805   5.803   9.725 -0.2991  0.4157 -0.1010
  975MOL0     N34429   1.948   5.831   9.759  0.8263  0.2848 -0.9127
  975MOL0     C34430   1.998   5.826   9.886  0.2791 -0.2161  0.1716
  975MOL0     C34431   2.127   5.867   9.872 -0.4238  0.4750  0.3391
  975MOL0     C34432   2.226   5.885   9.990 -0.1469 -0.4411 -0.9364
  975MOL0     C34433   2.196   5.799  10.114  0.0042 -0.7023  0.3597
  975MOL0     C34434   2.198   5.645  10.087  0.8454  0.6085 -0.6791
  975MOL0     C34435   2.110   5.571  10.198 -0.3291  0.3476  0.1916
  975MOL0     O34436   1.974   5.598  10.182  0.0658  0.4325 -0.3997
  975MOL0     C34437   1.895   5.556  10.290  0.9046  0.4004 -0.1907
  975MOL0     C34438   1.934   5.487  10.403 -0.2062 -0.4556 -1.8065
  975MOL0     C34439   1.848   5.479  10.518  0.5078  0.8677 -0.0451
  975MOL0     C34440   1.905   5.408  10.641 -0.7999  0.4568 -0.6487
  975MOL0     C34441   1.716   5.526  10.509  0.0724 -1.1055  0.4156
  975MOL0     C34442   1.618   5.512  10.613  0.1563  0.3201 -0.6798
  975MOL0     O34443   1.491   5.536  10.579 -0.1779  0.0149 -0.0285
  975MOL0     C34444   1.388   5.537  10.667  0.4920  0.1348  0.7119
  975MOL0     C34445   1.335   5.420  10.727 -0.0062  0.2432  0.1584
  975MOL0     C34446   1.243   5.436  10.824 -0.5916 -0.4831 -0.2181
  975MOL0     C34447   1.207   5.557  10.884 -0.4470 -0.7702 -1.2951
  975MOL0     O34448   1.113   5.537  10.978 -0.3373  0.0143  0.6759
  975MOL0     C34449   1.072   5.658  11.034 -0.5232  0.7722 -0.2308
  975MOL0     C34450   1.021   5.622  11.179  0.0876  1.0429  0.3925
  975MOL0     C34451   0.893   5.547  11.171  0.4815 -1.1374 -1.2554
  975MOL0     C34452   0.851   5.497  11.315 -0.3088  0.2308 -0.1400
  975MOL0     C34453   0.748   5.386  11.311  0.4062 -0.3648 -0.0288
  975MOL0     C34454   0.613   5.426  11.256 -0.1188 -0.1499 -0.2925
  975MOL0     C34455   0.515   5.478  11.370 -0.4354  0.3864  0.3330
  975MOL0     C34456   0.485   5.379  11.478  0.2617 -0.2701  0.4001
  975MOL0    Cl34457   0.370   5.461  11.588  0.5457  0.4660  1.0277
  975MOL0     C34458   1.256   5.676  10.817  0.2621  0.0536 -0.5448
  975MOL0     C34459   1.341   5.665  10.708  1.6283 -0.4563  0.3611
  975MOL0     O34460   1.647   5.498  10.731 -0.6168 -0.7166 -0.1396
  975MOL0     C34461   1.665   5.574  10.381 -0.5940 -0.3226  0.3311
  975MOL0     C34462   1.758   5.595  10.280  0.0427  0.8939  0.3953
  975MOL0     N34463   2.149   5.885   9.733 -0.2613 -0.8975  0.2256
  975MOL0     N34464   2.038   5.857   9.669  0.6865 -0.4369  0.1047
  975MOL0     C34465   1.113   5.294  10.267 -0.4616  0.0935 -0.2325
  975MOL0     C34466   1.006   5.214  10.309 -0.7800 -0.2900 -0.5753
  975MOL0     C34467   0.550   5.100  10.334 -0.3550 -0.1556 -0.2961
  975MOL0     C34468   0.565   4.955  10.335 -0.2964  1.1902  0.4737
  975MOL0     C34469   0.462   4.867  10.359 -0.0997  0.9122  0.8388
  975MOL0     C34470   0.330   4.913  10.376  0.2984  0.2707  0.3849
  975MOL0     O34471   0.215   4.836  10.409  0.1509  0.3540 -0.0247
  975MOL0     C34472   0.220   4.692  10.392  0.3725 -0.3292 -0.1970
  975MOL0     C34473   0.081   4.630  10.394 -0.7840 -0.7495 -0.2784
  975MOL0     C34474   0.033   4.595  10.526  0.5093 -0.0151  0.3323
  975MOL0     C34475  -0.123   4.609  10.537  0.4123  0.0191 -0.8856
  975MOL0     C34476  -0.158   4.601  10.677 -0.2737  0.4366  0.0683
  975MOL0     C34477  -0.186   4.601  10.792  0.8359 -0.2122  0.7500
  975MOL0     C34478   0.309   5.049  10.380  0.1367 -0.0292  0.2241
  975MOL0     C34479   0.415   5.142  10.357  0.3715 -0.3089  0.3230
  975MOL0     C34480   0.375   5.284  10.342 -0.4625 -0.6167 -0.1324
  975MOL0     H34481   0.796   5.267  10.043 -0.3459 -0.6480  0.1973
  975MOL0     H34482   0.976   5.441   9.990 -0.5966  2.2352  1.0355
  975MOL0     H34483   1.365   5.339  10.117  0.7303 -1.6375  3.0308
  975MOL0     H34484   1.329   5.428  10.259 -1.8980  0.3596 -1.7460
  975MOL0     H34485   1.360   5.630  10.137 -0.6022 -0.4671 -1.7343
  975MOL0     H34486   1.513   5.542  10.159 -1.7369  0.7553  3.5015
  975MOL0     H34487   1.350   5.505   9.903  0.5594  1.0462  0.6057
  975MOL0     H34488   1.442   5.648   9.918  0.1107 -0.4140 -1.0819
  975MOL0     H34489   1.655   5.507   9.965  0.2596 -1.8981  0.5071
  975MOL0     H34490   1.541   5.373   9.939 -0.3729  0.4061 -0.1309
  975MOL0     H34491   1.510   5.450   9.715 -0.9620  2.6972 -0.1625
  975MOL0     H34492   1.689   5.430   9.739 -2.0587 -2.1411 -2.3972
  975MOL0     H34493   1.634   5.633   9.603  0.8034  0.3569  0.7250
  975MOL0     H34494   1.549   5.697   9.733 -0.6615  0.6695 -2.4079
  975MOL0     H34495   1.842   5.595   9.757 -0.8870 -0.2666  0.2271
  975MOL0     H34496   1.746   5.672   9.887  2.0544 -0.3674 -0.0695
  975MOL0     H34497   1.808   5.803   9.616  0.1676  0.9076 -0.0935
  975MOL0     H34498   1.735   5.877   9.765 -0.5658  1.1945 -1.9136
  975MOL0     H34499   1.941   5.806   9.976 -0.5937  2.2205  0.2238
  975MOL0     H34500   2.229   5.991  10.017 -1.2338 -0.6443  0.0664
  975MOL0     H34501   2.323   5.860   9.948  0.5920  0.4212  0.2082
  975MOL0     H34502   2.270   5.818  10.192 -0.1629  1.3950  0.0572
  975MOL0     H34503   2.097   5.827  10.150 -1.2208 -2.9765 -0.9620
  975MOL0     H34504   2.156   5.618   9.989 -0.8487 -2.2294  0.7147
  975MOL0     H34505   2.299   5.604  10.094  0.6800 -0.0737 -1.9077
  975MOL0     H34506   2.127   5.463  10.200 -4.1897 -0.4444  3.9504
  975MOL0     H34507   2.153   5.602  10.293  0.9210  1.0438 -0.5683
  975MOL0     H34508   2.029   5.436  10.412 -1.4558 -2.6976 -0.4457
  975MOL0     H34509   1.904   5.482  10.722 -3.1046  0.4208 -0.5677
  975MOL0     H34510   1.997   5.351  10.626 -0.9362  0.0413  0.0215
  975MOL0     H34511   1.830   5.336  10.676 -2.7956  1.5237 -2.4757
  975MOL0     H34512   1.370   5.320  10.705  0.9352  0.7412 -0.6605
  975MOL0     H34513   1.213   5.348  10.880  2.1082 -0.7284  1.0161
  975MOL0     H34514   1.157   5.726  11.047 -0.0385  0.0654  0.4618
  975MOL0     H34515   0.994   5.703  10.972 -0.1651  0.4266 -0.9412
  975MOL0     H34516   1.093   5.550  11.219  0.6700 -0.7914 -3.4943
  975MOL0     H34517   1.015   5.713  11.240 -0.9643 -0.6345  3.0164
  975MOL0     H34518   0.918   5.469  11.098  0.8621 -1.2321 -1.0214
  975MOL0     H34519   0.815   5.615  11.133 -2.0172 -0.9780  3.4555
  975MOL0     H34520   0.808   5.571  11.384  0.8664  0.8462 -0.0375
  975MOL0     H34521   0.937   5.447  11.360 -0.4382 -0.7632 -0.9753
  975MOL0     H34522   0.794   5.319  11.238  2.1337  0.0135  0.6487
  975MOL0     H34523   0.741   5.338  11.409 -2.5716  2.0159  1.0825
  975MOL0     H34524   0.567   5.344  11.200 -3.1276  1.6904 -0.7417
  975MOL0     H34525   0.617   5.499  11.174 -1.2360 -0.1046 -0.3202
  975MOL0     H34526   0.425   5.519  11.324 -1.7664 -1.7607  0.8792
  975MOL0     H34527   0.556   5.570  11.411 -1.8421  1.1625  0.0601
  975MOL0     H34528   0.571   5.342  11.534  1.7764  2.5835  0.1432
  975MOL0     H34529   0.445   5.294  11.420  0.4070 -0.3284  0.3854
  975MOL0     H34530   1.232   5.775  10.854  1.7778  1.0362 -2.1015
  975MOL0     H34531   1.376   5.751  10.652  0.0560 -0.7610 -1.1852
  975MOL0     H34532   1.570   5.626  10.372 -0.2809  0.4271  1.2120
  975MOL0     H34533   1.731   5.654  10.193  0.5278  1.1033  0.3834
  975MOL0     H34534   1.195   5.299  10.338 -1.0100  0.3506  0.3982
  975MOL0     H34535   1.012   5.155  10.400 -0.8218  0.7504  0.1210
  975MOL0     H34536   0.663   4.909  10.326 -1.9605 -2.5034 -1.6385
  975MOL0     H34537   0.487   4.762  10.369 -1.9181 -0.2480 -4.0541
  975MOL0     H34538   0.260   4.676  10.291  0.1223 -0.0174 -0.3479
  975MOL0     H34539   0.281   4.655  10.475  0.6900 -0.2885 -0.4087
  975MOL0     H34540   0.091   4.531  10.350  1.6399 -0.9269  0.5410
  975MOL0     H34541   0.010   4.691  10.337  0.2028  1.5174  0.7754
  975MOL0     H34542   0.074   4.497  10.551  0.0917  0.4655  3.2285
  975MOL0     H34543   0.074   4.656  10.606  0.6294 -0.6979  0.7979
  975MOL0     H34544  -0.179   4.529  10.488  0.2642  1.5328 -3.3230
  975MOL0     H34545  -0.160   4.696  10.482 -2.6401 -1.4348 -1.3733
  975MOL0     H34546  -0.212   4.603  10.896 -1.6191  2.5319  0.2216
  975MOL0     H34547   0.210   5.080  10.413  1.8960  3.8201  2.5744
  975MOL0     H34548   0.428   5.341  10.419  0.0895 -3.0215  1.3789
  975MOL0     H34549   0.386   5.324  10.241  0.4804 -0.1343  0.1532
  975MOL0     H34550   0.272   5.301  10.375  0.5398 -1.9549  4.5606
  976MOL0     O34551   7.032   4.908   2.306  0.0439  0.4851  0.3942
  976MOL0     C34552   7.036   4.812   2.225 -0.3514 -0.3161 -0.3408
  976MOL0     O34553   7.034   4.679   2.259 -0.2880  0.0691  0.0477
  976MOL0     C34554   7.054   4.638   2.386  0.2854  0.6739 -0.2304
  976MOL0     C34555   6.968   4.677   2.494 -0.6138 -0.6221  0.6510
  976MOL0     C34556   7.001   4.641   2.624  0.6595 -0.1259  0.7979
  976MOL0     C34557   7.107   4.557   2.640 -0.3955  0.2677  0.5115
  976MOL0     O34558   7.146   4.518   2.763  0.4874 -0.4486  0.1670
  976MOL0     C34559   7.073   4.535   2.890  0.7490 -1.3726  0.7649
  976MOL0     C34560   7.119   4.431   2.985 -0.3151 -0.0870 -1.3966
  976MOL0     C34561   7.083   4.286   2.947 -0.9724 -0.6168 -0.5822
  976MOL0     C34562   7.160   4.177   3.015 -0.4134  0.3222  0.8126
  976MOL0     C34563   7.068   4.109   3.113  0.3037 -0.1187  0.7689
  976MOL0     C34564   7.130   3.996   3.196  0.3295 -0.3654  0.4456
  976MOL0     C34565   7.048   3.963   3.329 -0.6517 -0.5496 -0.0155
  976MOL0     C34566   7.099   3.842   3.401 -0.0754  0.6125 -0.7117
  976MOL0     N34567   7.165   3.733   3.313  0.2833 -1.0123  0.1527
  976MOL0     C34568   7.296   3.693   3.308 -0.1736  0.2631 -0.2615
  976MOL0     C34569   7.305   3.575   3.227 -0.0286  0.2421  0.6884
  976MOL0     C34570   7.429   3.498   3.172  0.3231  0.1792  0.5379
  976MOL0     C34571   7.463   3.397   3.271  0.0803 -0.2691 -0.4387
  976MOL0     C34572   7.588   3.327   3.218 -0.4513 -0.1240  0.5192
  976MOL0     C34573   7.641   3.218   3.315 -0.1024  0.4466 -0.1478
  976MOL0     O34574   7.755   3.160   3.255 -0.5001 -0.0474  0.2727
  976MOL0     C34575   7.822   3.066   3.329 -0.0848 -0.8254 -1.0224
  976MOL0     C34576   7.790   3.010   3.448 -0.5319 -0.5073  0.4042
  976MOL0     C34577   7.872   2.912   3.507  0.1886 -0.4008 -0.2498
  976MOL0     C34578   7.824   2.846   3.638 -0.0932 -1.2910 -0.4622
  976MOL0     C34579   7.992   2.880   3.447  0.5968  0.1883  0.0910
  976MOL0     C34580   8.089   2.785   3.496 -0.5729  0.1673  1.1481
  976MOL0     O34581   8.039   2.668   3.534  0.3760 -0.3144  1.2506
  976MOL0     C34582   8.119   2.546   3.508  0.6175 -0.7905 -0.2756
  976MOL0     C34583   8.070   2.440   3.587 -0.5206  0.0801 -0.0357
  976MOL0     C34584   8.146   2.321   3.609 -0.8500  0.4532  0.6060
  976MOL0     C34585   8.257   2.297   3.527 -0.4934  0.8673  0.2253
  976MOL0     O34586   8.330   2.183   3.538  0.1368  0.2638 -1.2284
  976MOL0     C34587   8.297   2.080   3.631  0.6181 -0.0043  0.1151
  976MOL0     C34588   8.379   2.106   3.760 -0.2828 -0.4101  0.1829
  976MOL0     C34589   8.445   1.972   3.796 -0.3155  0.5500  0.0174
  976MOL0     C34590   8.502   1.961   3.937  0.3983 -0.3003  0.5085
  976MOL0     C34591   8.557   1.819   3.953 -0.6226 -0.4686 -0.4146
  976MOL0     C34592   8.703   1.827   3.979  0.3380 -0.2114 -0.0659
  976MOL0     C34593   8.768   1.692   3.986 -1.0039  0.1673  0.4433
  976MOL0     C34594   8.914   1.688   3.949  0.1558 -0.3139 -0.6396
  976MOL0    Cl34595   8.925   1.741   3.777  0.1395 -0.2915 -0.1757
  976MOL0     C34596   8.295   2.396   3.441 -0.3367 -0.4444 -0.0022
  976MOL0     C34597   8.223   2.518   3.429 -0.4406  0.7028  1.1106
  976MOL0     O34598   8.209   2.819   3.504 -0.1179  0.2982  0.2044
  976MOL0     C34599   8.023   2.939   3.325 -0.7694 -0.3869 -0.8963
  976MOL0     C34600   7.937   3.025   3.262  0.2037 -0.8854  0.0132
  976MOL0     N34601   7.175   3.550   3.188  0.3323  0.4180 -0.1046
  976MOL0     N34602   7.097   3.638   3.250  0.2762  0.3595  0.2704
  976MOL0     C34603   7.186   4.507   2.530  0.7012 -0.6009 -0.1229
  976MOL0     C34604   7.159   4.546   2.401 -0.2195  0.1602  0.9117
  976MOL0     C34605   7.035   4.832   2.082  0.1370 -0.2651  0.6403
  976MOL0     C34606   6.910   4.872   2.028 -0.2237 -0.0423  0.0704
  976MOL0     C34607   6.905   4.912   1.888 -0.0961 -0.4965 -0.4121
  976MOL0     C34608   7.032   4.919   1.822  0.3933  0.4783 -0.5704
  976MOL0     O34609   7.040   4.969   1.700 -0.2487  0.4389  0.9783
  976MOL0     C34610   7.115   5.088   1.685  0.4615 -0.3621 -0.2294
  976MOL0     C34611   7.013   5.191   1.646  0.4400 -0.4905 -1.0482
  976MOL0     C34612   6.998   5.226   1.499  0.3291  0.0885  0.0121
  976MOL0     C34613   6.977   5.095   1.419 -1.4905 -0.2847 -0.3221
  976MOL0     C34614   6.948   5.126   1.278 -0.2038  0.0897  0.3341
  976MOL0     C34615   6.931   5.137   1.162 -0.3874  0.4790  0.4540
  976MOL0     C34616   7.148   4.873   1.882 -0.2308  0.2548 -0.9119
  976MOL0     C34617   7.154   4.822   2.008  0.4115 -0.0506  0.9253
  976MOL0     C34618   7.277   4.755   2.062  0.3356 -0.0197 -0.0824
  976MOL0     H34619   6.888   4.747   2.470 -0.8960 -0.9746  0.5511
  976MOL0     H34620   6.930   4.668   2.702  0.3641  0.4515  0.3430
  976MOL0     H34621   6.968   4.513   2.870 -0.5850  3.6755  0.7682
  976MOL0     H34622   7.090   4.638   2.922 -0.4385 -0.0108 -2.5254
  976MOL0     H34623   7.224   4.438   3.012 -1.1417  1.4389  1.9236
  976MOL0     H34624   7.066   4.453   3.079  1.3935 -2.8721  0.3643
  976MOL0     H34625   6.977   4.266   2.962 -0.6676 -1.1982  0.9917
  976MOL0     H34626   7.117   4.295   2.843  0.1179  0.7725 -0.1428
  976MOL0     H34627   7.190   4.105   2.939  2.5896  0.5422  1.6780
  976MOL0     H34628   7.253   4.210   3.063 -0.0610 -1.0010  1.0765
  976MOL0     H34629   6.985   4.067   3.056 -1.1800  2.7261  0.6588
  976MOL0     H34630   7.035   4.190   3.179 -0.3669  0.8505 -0.7083
  976MOL0     H34631   7.118   3.904   3.138  1.0109 -1.7900  2.4434
  976MOL0     H34632   7.231   4.023   3.228  0.4984  2.8351 -2.3157
  976MOL0     H34633   6.942   3.953   3.302 -1.4734  4.0024  0.6791
  976MOL0     H34634   7.050   4.057   3.385 -2.0292  0.7182 -1.9327
  976MOL0     H34635   7.174   3.866   3.477 -0.7300 -2.2365  0.9892
  976MOL0     H34636   7.013   3.793   3.447 -1.3587  0.7366 -2.8563
  976MOL0     H34637   7.375   3.751   3.354 -0.4358 -0.1306  0.7003
  976MOL0     H34638   7.513   3.567   3.179 -1.6994  2.6599  2.6801
  976MOL0     H34639   7.420   3.473   3.066  1.1767  0.6647  0.3425
  976MOL0     H34640   7.496   3.444   3.364 -2.2652 -0.5277  0.5909
  976MOL0     H34641   7.380   3.329   3.295 -1.1461  1.6250  1.0154
  976MOL0     H34642   7.576   3.278   3.121  0.9957  0.3904  0.0626
  976MOL0     H34643   7.674   3.393   3.204  1.8487 -3.1554 -0.8856
  976MOL0     H34644   7.659   3.259   3.415 -1.8817 -0.3021  0.5296
  976MOL0     H34645   7.571   3.135   3.329  0.5306  0.1288  1.3860
  976MOL0     H34646   7.702   3.038   3.504  0.1446  2.3832  0.1923
  976MOL0     H34647   7.882   2.864   3.728  1.9921 -1.8562 -1.6267
  976MOL0     H34648   7.809   2.739   3.621  0.2675 -1.3139 -0.6482
  976MOL0     H34649   7.724   2.881   3.665  0.3143 -0.8521  0.4951
  976MOL0     H34650   7.979   2.448   3.645 -2.8039 -0.0449 -3.3140
  976MOL0     H34651   8.106   2.252   3.682  0.6208 -0.9684  0.1175
  976MOL0     H34652   8.190   2.079   3.651 -0.0815  3.6818 -2.4115
  976MOL0     H34653   8.329   1.986   3.585  0.8631  0.7374 -1.2817
  976MOL0     H34654   8.441   2.196   3.757 -2.2559  1.0087 -0.7757
  976MOL0     H34655   8.314   2.136   3.842 -0.6336  0.6293 -0.4421
  976MOL0     H34656   8.517   1.945   3.718  1.6806  0.6045  1.7435
  976MOL0     H34657   8.368   1.894   3.792 -1.3406  1.5713 -1.3635
  976MOL0     H34658   8.428   1.984   4.013 -0.5108  0.6117 -0.6190
  976MOL0     H34659   8.571   2.045   3.947 -2.4703  2.6440 -2.1722
  976MOL0     H34660   8.507   1.772   4.039  0.2125 -0.4621  0.0849
  976MOL0     H34661   8.540   1.766   3.859  0.7543 -2.5962  0.4664
  976MOL0     H34662   8.731   1.901   4.055 -0.6062 -1.3920  1.5068
  976MOL0     H34663   8.734   1.871   3.884  0.0355 -0.3520 -0.2300
  976MOL0     H34664   8.726   1.633   3.904 -3.2818  1.7734  0.3471
  976MOL0     H34665   8.748   1.657   4.088  2.3836 -0.3283  1.0603
  976MOL0     H34666   8.949   1.585   3.956  1.7667  0.0380 -2.5140
  976MOL0     H34667   8.972   1.753   4.015  0.9483 -1.8518  0.2043
  976MOL0     H34668   8.377   2.377   3.372 -1.4095 -1.1992 -1.1097
  976MOL0     H34669   8.252   2.590   3.353 -0.5368  0.2299  0.6174
  976MOL0     H34670   8.110   2.915   3.265 -2.5162 -2.6692 -2.7143
  976MOL0     H34671   7.972   3.057   3.164 -2.1727  1.1163 -0.3100
  976MOL0     H34672   7.261   4.433   2.554 -0.2755 -2.0792 -1.4353
  976MOL0     H34673   7.207   4.506   2.312  0.4024 -2.3857  2.2834
  976MOL0     H34674   6.816   4.892   2.078 -0.8876 -1.0300 -0.7444
  976MOL0     H34675   6.817   4.964   1.850 -0.6303  2.0126  3.6432
  976MOL0     H34676   7.157   5.124   1.779 -1.3383  0.6713  0.2220
  976MOL0     H34677   7.202   5.081   1.618  3.0863  0.0306  2.9044
  976MOL0     H34678   7.030   5.276   1.714 -3.0211 -0.6724  0.2631
  976MOL0     H34679   6.909   5.163   1.662  0.0423  0.5850 -1.6566
  976MOL0     H34680   6.912   5.293   1.489 -0.8400 -1.5561 -1.5552
  976MOL0     H34681   7.089   5.275   1.463  1.2033 -1.4641 -0.0076
  976MOL0     H34682   6.889   5.047   1.463 -0.0383 -1.6981  1.1331
  976MOL0     H34683   7.060   5.025   1.426 -1.1669 -0.0184 -1.2983
  976MOL0     H34684   6.928   5.132   1.055  2.5591  0.4239  0.2987
  976MOL0     H34685   7.238   4.889   1.824  0.5132  3.8953  0.9889
  976MOL0     H34686   7.366   4.802   2.019  0.5048  0.3635  0.6612
  976MOL0     H34687   7.276   4.758   2.172 -1.5518 -0.3212 -0.0545
  976MOL0     H34688   7.292   4.650   2.038  1.1171  0.2866 -0.9714
  977MOL0     O34689   1.384   0.178  10.805  0.1458 -0.3013 -0.5284
  977MOL0     C34690   1.289   0.156  10.879 -0.0447 -0.1264  1.1379
  977MOL0     O34691   1.285   0.169  11.008 -0.2645  0.4147  0.5214
  977MOL0     C34692   1.388   0.223  11.081 -0.1580  0.4740 -0.0117
  977MOL0     C34693   1.370   0.219  11.222  0.0711 -0.2773  1.5072
  977MOL0     C34694   1.463   0.278  11.311  0.3828  0.0401 -0.0268
  977MOL0     C34695   1.566   0.354  11.271 -0.3078  0.0430  0.2343
  977MOL0     O34696   1.645   0.418  11.373 -0.2672  0.4015 -0.0460
  977MOL0     C34697   1.770   0.465  11.317 -0.0050 -0.2717  0.0902
  977MOL0     C34698   1.849   0.514  11.437  0.0433 -0.5019 -0.4181
  977MOL0     C34699   1.976   0.570  11.385 -0.3751 -0.1979  0.1829
  977MOL0     C34700   2.064   0.628  11.494 -0.5689  0.2899  0.2112
  977MOL0     C34701   2.185   0.683  11.416 -0.3692 -0.7358  1.2665
  977MOL0     C34702   2.290   0.750  11.504 -0.0629 -0.4566 -0.6101
  977MOL0     C34703   2.423   0.752  11.426 -0.5968 -0.6591 -0.7808
  977MOL0     C34704   2.528   0.816  11.520 -0.1696  0.6568  0.4039
  977MOL0     N34705   2.567   0.728  11.628 -0.4249 -0.1460  0.2135
  977MOL0     C34706   2.610   0.597  11.622  0.3888  0.2934  0.0476
  977MOL0     C34707   2.673   0.568  11.740  0.4178  0.1709  0.0267
  977MOL0     C34708   2.737   0.441  11.775  0.4240  0.7069 -0.2333
  977MOL0     C34709   2.887   0.458  11.793 -0.3650  0.4191  0.5533
  977MOL0     C34710   2.942   0.574  11.871  0.0799 -0.2110 -0.2852
  977MOL0     C34711   3.100   0.574  11.881  0.6566 -0.7987 -0.2168
  977MOL0     O34712   3.155   0.627  11.756 -0.2500 -0.2438 -0.2639
  977MOL0     C34713   3.295   0.623  11.769 -0.0799 -1.0523 -0.1787
  977MOL0     C34714   3.369   0.526  11.707 -0.3982 -0.5929 -0.0881
  977MOL0     C34715   3.507   0.514  11.723  0.1994 -0.1207 -0.7447
  977MOL0     C34716   3.562   0.390  11.662 -0.8626  0.9105  0.0164
  977MOL0     C34717   3.580   0.617  11.781 -0.0386 -0.4765 -0.4043
  977MOL0     C34718   3.728   0.618  11.793 -0.1643  0.0109 -0.8704
  977MOL0     O34719   3.778   0.738  11.832  0.2604  0.6795 -0.1146
  977MOL0     C34720   3.914   0.747  11.869  0.1791 -0.3424  0.9045
  977MOL0     C34721   4.020   0.718  11.781 -0.5276  0.7812  0.7417
  977MOL0     C34722   4.151   0.752  11.826  0.8969  0.5999  0.3288
  977MOL0     C34723   4.173   0.794  11.956  0.3941  0.0857  0.0512
  977MOL0     O34724   4.303   0.792  11.987  0.1901  0.0226 -0.9639
  977MOL0     C34725   4.336   0.806  12.132 -0.2632  0.7437  0.3622
  977MOL0     C34726   4.490   0.835  12.131  0.6880  0.3614 -0.0898
  977MOL0     C34727   4.581   0.734  12.208  0.9725 -0.0206  0.3718
  977MOL0     C34728   4.582   0.746  12.362  0.7642 -0.5133 -0.0593
  977MOL0     C34729   4.671   0.635  12.435 -0.2158 -0.5067  0.5503
  977MOL0     C34730   4.812   0.622  12.375  0.0354  0.3845  0.7917
  977MOL0     C34731   4.899   0.752  12.358  0.3284  0.4225  0.0389
  977MOL0     C34732   4.931   0.821  12.491  0.5112  0.3870  0.0811
  977MOL0    Cl34733   5.088   0.915  12.485  0.0098 -0.2259  0.2855
  977MOL0     C34734   4.066   0.817  12.041 -0.7089 -0.0644 -0.1380
  977MOL0     C34735   3.936   0.797  11.996  0.0560 -0.0946 -0.2669
  977MOL0     O34736   3.796   0.518  11.774 -0.0974 -0.1267 -0.9691
  977MOL0     C34737   3.502   0.719  11.847  0.1796  0.1013  0.1551
  977MOL0     C34738   3.363   0.713  11.846  0.9050 -0.2337 -0.2219
  977MOL0     N34739   2.656   0.676  11.822 -0.2720  0.3775 -0.1878
  977MOL0     N34740   2.595   0.775  11.755  0.2289 -1.1696  0.4879
  977MOL0     C34741   1.585   0.370  11.135  0.8376  0.6090 -0.0856
  977MOL0     C34742   1.496   0.303  11.038 -0.2337 -0.0980 -1.2754
  977MOL0     C34743   1.163   0.129  10.810 -0.4794 -0.1291  0.4165
  977MOL0     C34744   1.061   0.194  10.867  0.2726 -0.2729 -0.3331
  977MOL0     C34745   0.928   0.188  10.806 -0.8689  0.5867  0.3988
  977MOL0     C34746   0.902   0.125  10.684 -0.6319  0.4559 -0.9686
  977MOL0     O34747   0.781   0.116  10.619 -0.0019  0.2230 -0.4952
  977MOL0     C34748   0.667   0.062  10.693  0.6957  0.7346 -0.1794
  977MOL0     C34749   0.676   0.000  10.831 -0.2204 -0.2180 -0.2680
  977MOL0     C34750   0.553  -0.032  10.912 -0.2262 -0.4009  0.0322
  977MOL0     C34751   0.423   0.059  10.904 -1.6274 -0.2884  0.6935
  977MOL0     C34752   0.335   0.041  11.012 -0.4226 -0.1931  0.6100
  977MOL0     C34753   0.267   0.041  11.113  0.7526  0.2906  0.3058
  977MOL0     C34754   1.013   0.060  10.625  0.2564 -0.3918 -0.0980
  977MOL0     C34755   1.141   0.060  10.682  0.3434 -1.2681  1.0445
  977MOL0     C34756   1.248  -0.030  10.612  0.2974  0.2820 -0.1301
  977MOL0     H34757   1.287   0.157  11.253 -4.8309  3.7633 -1.7872
  977MOL0     H34758   1.443   0.267  11.417  1.3697 -2.6378 -0.0479
  977MOL0     H34759   1.745   0.545  11.246 -2.3854 -2.0420 -1.1848
  977MOL0     H34760   1.822   0.392  11.255 -0.7600  0.7917 -1.8903
  977MOL0     H34761   1.789   0.582  11.498 -0.5861 -0.7819 -0.7160
  977MOL0     H34762   1.873   0.437  11.511 -1.3389 -0.5929 -0.0387
  977MOL0     H34763   2.038   0.501  11.328 -0.4557 -0.8937  0.9224
  977MOL0     H34764   1.945   0.654  11.322  0.1019  1.1301  1.6440
  977MOL0     H34765   2.014   0.698  11.561  0.4934  1.1278  0.1525
  977MOL0     H34766   2.102   0.552  11.563 -2.1054 -0.3686  0.3769
  977MOL0     H34767   2.166   0.763  11.343  0.3763 -1.7020 -0.0297
  977MOL0     H34768   2.229   0.604  11.355 -0.6180 -1.2840  1.7918
  977MOL0     H34769   2.254   0.850  11.530  1.3647  0.3313 -1.5497
  977MOL0     H34770   2.312   0.693  11.596 -3.0661  1.7288  1.6662
  977MOL0     H34771   2.403   0.811  11.336  2.7288  0.3273 -0.9921
  977MOL0     H34772   2.450   0.651  11.395 -0.7949 -0.7356 -0.7046
  977MOL0     H34773   2.613   0.839  11.456 -0.1357  1.6046  0.7710
  977MOL0     H34774   2.489   0.908  11.564 -0.1435  2.4730 -3.0260
  977MOL0     H34775   2.608   0.523  11.543  0.4267 -0.0388  0.3524
  977MOL0     H34776   2.720   0.361  11.703  1.5927  0.5168 -0.3080
  977MOL0     H34777   2.698   0.414  11.874  1.0682 -0.2847 -0.2359
  977MOL0     H34778   2.913   0.369  11.852 -0.3944 -0.7492 -1.1098
  977MOL0     H34779   2.934   0.445  11.695 -2.3560 -0.8935 -0.3058
  977MOL0     H34780   2.902   0.665  11.826  0.0233  0.0760  0.3399
  977MOL0     H34781   2.897   0.559  11.970 -2.5821  1.9256 -1.0514
  977MOL0     H34782   3.138   0.628  11.968 -0.2916  0.6900 -0.6834
  977MOL0     H34783   3.129   0.470  11.896 -1.8339 -1.5259 -0.0746
  977MOL0     H34784   3.314   0.445  11.659  0.1593 -1.2717  0.3952
  977MOL0     H34785   3.488   0.314  11.635  1.2931 -0.4988 -2.2944
  977MOL0     H34786   3.639   0.340  11.720 -1.0524  0.3736 -0.1842
  977MOL0     H34787   3.613   0.407  11.567 -1.3872  1.0130 -0.2551
  977MOL0     H34788   4.020   0.673  11.682  0.0689 -2.3854  2.0662
  977MOL0     H34789   4.230   0.736  11.754  0.8660 -0.2947  0.4754
  977MOL0     H34790   4.278   0.889  12.172  1.8068  2.0990  0.6949
  977MOL0     H34791   4.319   0.710  12.181  1.0228 -0.1115 -0.7696
  977MOL0     H34792   4.529   0.827  12.029  1.2641 -0.4766  0.1878
  977MOL0     H34793   4.492   0.933  12.178  2.2247  0.1149  0.4043
  977MOL0     H34794   4.683   0.749  12.172  1.1909 -1.9368  0.0700
  977MOL0     H34795   4.550   0.632  12.181  3.0484 -0.0799 -2.1543
  977MOL0     H34796   4.484   0.766  12.406 -0.3763  3.0447 -3.6521
  977MOL0     H34797   4.643   0.834  12.382 -0.1915  0.4539 -1.2539
  977MOL0     H34798   4.667   0.645  12.544  1.8071 -0.8065  0.6870
  977MOL0     H34799   4.616   0.541  12.425 -1.2215 -0.0906  1.8340
  977MOL0     H34800   4.808   0.557  12.288  0.7290  1.8555 -0.4015
  977MOL0     H34801   4.869   0.568  12.452 -1.7140 -1.2730  0.9662
  977MOL0     H34802   4.848   0.831  12.302 -3.3771  1.0844  3.8494
  977MOL0     H34803   4.989   0.717  12.306 -0.5538 -1.6660 -0.2043
  977MOL0     H34804   4.936   0.739  12.563 -2.2899 -1.8675 -2.0558
  977MOL0     H34805   4.846   0.886  12.516 -0.5053 -1.2843  1.1484
  977MOL0     H34806   4.079   0.841  12.146 -2.5968  1.0178 -0.1099
  977MOL0     H34807   3.857   0.827  12.064 -0.8839  0.0518 -1.3882
  977MOL0     H34808   3.553   0.801  11.896 -0.7552  1.2306 -0.7160
  977MOL0     H34809   3.302   0.790  11.892  1.2086 -0.7674  1.0954
  977MOL0     H34810   1.663   0.420  11.079  0.4238  0.5198 -0.7485
  977MOL0     H34811   1.525   0.330  10.936 -0.2534  2.6387 -0.6296
  977MOL0     H34812   1.061   0.245  10.963 -1.4886 -3.0659  1.3160
  977MOL0     H34813   0.842   0.238  10.848 -2.0887 -1.0277 -0.0722
  977MOL0     H34814   0.606   0.152  10.707 -2.6673 -1.4822  0.7111
  977MOL0     H34815   0.621  -0.003  10.618  1.1720  3.0995 -2.6638
  977MOL0     H34816   0.731   0.072  10.892 -1.1046 -0.1045  0.4120
  977MOL0     H34817   0.740  -0.088  10.826 -1.1725 -1.1780  2.5549
  977MOL0     H34818   0.517  -0.130  10.876 -1.9362 -0.3100  1.3291
  977MOL0     H34819   0.585  -0.054  11.014  0.0794 -0.6161 -0.1077
  977MOL0     H34820   0.372   0.038  10.809 -0.7843 -3.1510  0.7771
  977MOL0     H34821   0.437   0.167  10.910 -2.4309 -0.1793  0.7288
  977MOL0     H34822   0.217   0.044  11.208  2.8202  3.3204  1.4295
  977MOL0     H34823   0.993   0.003  10.534 -1.9823  1.2386 -0.7058
  977MOL0     H34824   1.223  -0.137  10.612  2.2170 -0.4312  4.9210
  977MOL0     H34825   1.269   0.008  10.512 -0.2947 -3.5233 -1.8769
  977MOL0     H34826   1.340  -0.030  10.670 -0.7870  0.6055  1.6772
  978MOL0     O34827   1.945   6.204   8.748  0.3082 -0.2764  0.0730
  978MOL0     C34828   1.952   6.252   8.634 -0.7885 -0.0331  0.0837
  978MOL0     O34829   1.848   6.287   8.550  0.1308  0.0016  0.4048
  978MOL0     C34830   1.713   6.256   8.581  1.0669  0.1417  0.2210
  978MOL0     C34831   1.661   6.246   8.712 -0.1967  0.0525  0.5345
  978MOL0     C34832   1.517   6.232   8.722 -0.3883  0.1306  0.9230
  978MOL0     C34833   1.433   6.234   8.614 -0.1661 -0.6732  0.8337
  978MOL0     O34834   1.310   6.235   8.633 -0.1880 -0.4645  0.4181
  978MOL0     C34835   1.248   6.360   8.632  0.5628 -0.3248  0.5810
  978MOL0     C34836   1.142   6.370   8.521  0.3793  0.2709  0.0031
  978MOL0     C34837   1.035   6.473   8.525  0.2294 -0.4435 -0.6566
  978MOL0     C34838   0.915   6.431   8.454 -0.6950  0.2836  0.7565
  978MOL0     C34839   0.802   6.538   8.453  0.5133 -0.9333 -0.5313
  978MOL0     C34840   0.666   6.476   8.424 -0.3415 -0.1247 -0.4070
  978MOL0     C34841   0.573   6.576   8.363 -0.4226 -0.1043  0.9565
  978MOL0     C34842   0.608   6.622   8.213 -0.5687  0.0034  0.1871
  978MOL0     N34843   0.491   6.709   8.185  0.0872  0.5904 -0.2996
  978MOL0     C34844   0.365   6.665   8.139 -0.3933 -0.7803 -0.2368
  978MOL0     C34845   0.287   6.767   8.157  0.0614  0.0074 -0.3740
  978MOL0     C34846   0.144   6.768   8.103 -0.4072 -0.0662  0.7878
  978MOL0     C34847   0.137   6.876   7.986 -0.2973 -0.1403  0.7853
  978MOL0     C34848   0.160   6.801   7.852 -0.2422  0.1043  0.0141
  978MOL0     C34849   0.137   6.878   7.721 -0.4557 -0.4562  0.0865
  978MOL0     O34850   0.238   6.976   7.712 -0.0365  0.4303  1.2173
  978MOL0     C34851   0.369   6.935   7.692 -0.5462 -0.6624 -1.5819
  978MOL0     C34852   0.471   7.026   7.715  0.5050 -0.4007 -0.2472
  978MOL0     C34853   0.605   6.997   7.706 -0.4271 -0.6911 -0.5684
  978MOL0     C34854   0.699   7.116   7.736  0.1214 -0.5424 -0.2357
  978MOL0     C34855   0.637   6.871   7.659 -0.1130  0.5933  0.0280
  978MOL0     C34856   0.775   6.825   7.637  0.0010 -0.4888  0.4641
  978MOL0     O34857   0.882   6.910   7.685 -0.4736 -0.5718  0.7534
  978MOL0     C34858   1.016   6.876   7.683  0.0453 -0.3526 -0.2223
  978MOL0     C34859   1.081   6.771   7.609 -0.7976  0.6177 -0.7365
  978MOL0     C34860   1.223   6.772   7.604  0.4610  0.5364  0.4862
  978MOL0     C34861   1.299   6.867   7.669 -0.1344 -0.3737  0.8939
  978MOL0     O34862   1.439   6.852   7.655 -0.8265 -0.5331  0.3209
  978MOL0     C34863   1.517   6.968   7.647  0.7238 -0.7733 -0.0951
  978MOL0     C34864   1.657   6.941   7.606 -0.1542 -0.9088  0.8016
  978MOL0     C34865   1.672   6.875   7.474 -1.2757  0.1166  0.1905
  978MOL0     C34866   1.818   6.851   7.447 -0.5674  1.3401  0.0107
  978MOL0     C34867   1.825   6.751   7.327 -0.1535  0.4456 -0.2450
  978MOL0     C34868   1.964   6.768   7.274 -1.2005  0.4056 -0.4227
  978MOL0     C34869   1.974   6.674   7.153  0.1110 -0.0326 -0.2310
  978MOL0     C34870   2.111   6.681   7.087  0.0316 -0.8693  0.3602
  978MOL0    Cl34871   2.111   6.824   6.976  0.0244  0.1511 -0.1854
  978MOL0     C34872   1.234   6.962   7.750 -0.2733 -0.0866  0.3313
  978MOL0     C34873   1.098   6.963   7.762 -0.7487  0.7962 -0.4457
  978MOL0     O34874   0.792   6.717   7.591 -0.2265  0.0016  0.0756
  978MOL0     C34875   0.532   6.776   7.629 -0.4633 -0.4110 -0.2233
  978MOL0     C34876   0.403   6.812   7.646  0.9492  0.4124 -0.1850
  978MOL0     N34877   0.354   6.873   8.215 -0.2607  0.1764 -0.7889
  978MOL0     N34878   0.473   6.837   8.230 -0.5733 -0.4478 -0.3337
  978MOL0     C34879   1.497   6.222   8.487 -0.3237 -0.2216 -0.0663
  978MOL0     C34880   1.634   6.228   8.467  0.9731  0.5098 -0.4548
  978MOL0     C34881   2.088   6.277   8.586 -0.0865 -0.8480 -0.1752
  978MOL0     C34882   2.193   6.314   8.678  0.2518 -0.6668 -0.9549
  978MOL0     C34883   2.328   6.326   8.642 -0.2549  0.8368 -0.3857
  978MOL0     C34884   2.361   6.294   8.509 -0.8732 -0.0338 -0.5637
  978MOL0     O34885   2.484   6.301   8.454 -0.4103  0.7909 -0.1873
  978MOL0     C34886   2.600   6.322   8.539 -0.6343 -0.5735  0.0064
  978MOL0     C34887   2.732   6.321   8.452  0.1172  0.1344 -0.1138
  978MOL0     C34888   2.859   6.299   8.535  0.8184 -0.3548  0.8794
  978MOL0     C34889   2.890   6.158   8.582 -0.3962  1.2088 -0.6586
  978MOL0     C34890   2.986   6.154   8.692 -0.3825 -0.4387  0.8448
  978MOL0     C34891   3.061   6.145   8.788  0.6496  0.1662 -0.2166
  978MOL0     C34892   2.258   6.261   8.420 -0.2718 -0.4936  0.2505
  978MOL0     C34893   2.126   6.245   8.453  0.3137 -0.5455 -0.1873
  978MOL0     C34894   2.028   6.209   8.342  1.1032 -0.5381 -0.0943
  978MOL0     H34895   1.722   6.272   8.798 -0.6827 -0.8138  1.1624
  978MOL0     H34896   1.472   6.228   8.821  0.8933  1.7553  1.6109
  978MOL0     H34897   1.316   6.440   8.600  1.1167 -0.2783  1.8000
  978MOL0     H34898   1.210   6.386   8.731  2.6127 -2.7606  2.1288
  978MOL0     H34899   1.198   6.399   8.431 -0.0739  0.2550 -0.2878
  978MOL0     H34900   1.096   6.274   8.498 -1.1755  0.9847 -0.0021
  978MOL0     H34901   1.015   6.474   8.633  1.6698 -0.2972 -0.3708
  978MOL0     H34902   1.087   6.563   8.492  5.1497 -1.4991  2.9961
  978MOL0     H34903   0.932   6.406   8.349 -3.3337 -1.3095  0.6200
  978MOL0     H34904   0.884   6.340   8.507  2.6441 -0.4541  1.6390
  978MOL0     H34905   0.830   6.619   8.385  0.0151 -0.0580  0.2932
  978MOL0     H34906   0.790   6.582   8.552 -1.3512 -1.5811 -0.4360
  978MOL0     H34907   0.681   6.392   8.355 -1.7666  0.8053 -1.9133
  978MOL0     H34908   0.630   6.443   8.522  2.0897 -3.9640 -0.5642
  978MOL0     H34909   0.580   6.668   8.422 -3.0659 -0.8033  2.5599
  978MOL0     H34910   0.472   6.532   8.357 -1.8676  3.0827 -1.0071
  978MOL0     H34911   0.697   6.685   8.210 -2.2194  2.4452 -1.1762
  978MOL0     H34912   0.609   6.533   8.149 -0.6149  0.4271 -0.4121
  978MOL0     H34913   0.322   6.583   8.081 -1.6174 -1.1685  1.1553
  978MOL0     H34914   0.081   6.809   8.183  2.2115  0.4226  2.7225
  978MOL0     H34915   0.115   6.666   8.076  0.5735 -0.7205  2.1027
  978MOL0     H34916   0.036   6.918   7.992  0.6374  2.0693  2.7787
  978MOL0     H34917   0.206   6.960   7.994 -0.5262  0.0708  0.5519
  978MOL0     H34918   0.255   6.747   7.844  1.3366  2.9423 -2.6875
  978MOL0     H34919   0.087   6.720   7.842 -0.7559  0.4703  0.7346
  978MOL0     H34920   0.129   6.817   7.630 -0.6931 -0.7218  0.2798
  978MOL0     H34921   0.040   6.929   7.724 -0.4793 -0.5449  1.0510
  978MOL0     H34922   0.444   7.131   7.725  1.6401 -0.1185 -0.0002
  978MOL0     H34923   0.651   7.211   7.761  3.5592  1.0087  1.0690
  978MOL0     H34924   0.761   7.127   7.647 -1.2139  0.6970 -1.0693
  978MOL0     H34925   0.765   7.086   7.817 -0.6135 -1.8583 -0.0885
  978MOL0     H34926   1.020   6.698   7.557 -0.0133 -0.8861  0.3719
  978MOL0     H34927   1.259   6.687   7.546 -0.3511 -1.4056  2.6414
  978MOL0     H34928   1.465   7.039   7.582  1.2189 -0.7183 -0.4400
  978MOL0     H34929   1.518   7.013   7.747 -0.2805 -1.1553  0.1016
  978MOL0     H34930   1.694   7.044   7.615 -2.0942 -0.0242 -0.6886
  978MOL0     H34931   1.699   6.880   7.687  0.3647 -0.8503  0.5751
  978MOL0     H34932   1.625   6.927   7.391  0.8221  0.0905 -1.0804
  978MOL0     H34933   1.625   6.778   7.490  0.4743 -0.1770  5.6917
  978MOL0     H34934   1.868   6.795   7.527 -0.3830 -1.1571 -1.7253
  978MOL0     H34935   1.866   6.945   7.420 -2.7614  2.8150  0.9299
  978MOL0     H34936   1.813   6.650   7.367  1.3045  0.5937  0.6320
  978MOL0     H34937   1.753   6.791   7.254  1.3062  2.2035 -0.7763
  978MOL0     H34938   2.039   6.734   7.346 -0.2446 -1.3448 -2.1440
  978MOL0     H34939   1.988   6.870   7.242  2.7519 -1.2394 -3.5351
  978MOL0     H34940   1.900   6.704   7.078 -0.8339  3.2991  1.7841
  978MOL0     H34941   1.961   6.570   7.184 -3.0468 -0.4373 -2.4078
  978MOL0     H34942   2.128   6.589   7.030  1.0046 -0.1253 -0.5988
  978MOL0     H34943   2.189   6.693   7.163 -0.7708 -2.3364  1.4611
  978MOL0     H34944   1.296   7.040   7.793  4.1351 -2.2392 -1.5584
  978MOL0     H34945   1.041   7.035   7.820 -0.5748  1.0441 -0.5833
  978MOL0     H34946   0.552   6.672   7.608  1.7146 -0.7402  2.8327
  978MOL0     H34947   0.328   6.743   7.610  0.0294  1.3410 -0.1091
  978MOL0     H34948   1.436   6.198   8.400 -0.3404 -1.7860  0.3410
  978MOL0     H34949   1.676   6.230   8.367 -0.0836  1.1735 -0.9048
  978MOL0     H34950   2.162   6.333   8.781 -2.0081  1.7108 -1.9658
  978MOL0     H34951   2.407   6.362   8.707  1.4508 -0.9034 -1.3769
  978MOL0     H34952   2.582   6.421   8.582 -1.9855  0.2742 -2.3197
  978MOL0     H34953   2.616   6.246   8.616  3.2371  1.2150  1.2179
  978MOL0     H34954   2.742   6.418   8.402  0.4592 -1.5200 -3.5607
  978MOL0     H34955   2.718   6.260   8.362  3.0263  1.0709 -1.3330
  978MOL0     H34956   2.945   6.332   8.477  0.3501 -2.5022 -1.1915
  978MOL0     H34957   2.842   6.375   8.612  0.8386  1.1837 -0.5843
  978MOL0     H34958   2.914   6.095   8.496 -2.9117 -0.0670 -0.5312
  978MOL0     H34959   2.799   6.110   8.620  1.9881 -2.1401  1.4298
  978MOL0     H34960   3.125   6.143   8.874 -3.0424  0.2409  2.7914
  978MOL0     H34961   2.285   6.246   8.316  0.6500  0.5416  0.3258
  978MOL0     H34962   2.073   6.175   8.249  2.2438  4.0693 -1.4862
  978MOL0     H34963   1.964   6.126   8.374 -0.2911  0.8737  0.9203
  978MOL0     H34964   1.978   6.297   8.300 -1.6565 -2.5458 -1.3741
  979MOL0     O34965   4.382   4.695   5.554  0.1751  0.0813  0.0303
  979MOL0     C34966   4.315   4.595   5.531 -0.5787  0.4244 -0.1237
  979MOL0     O34967   4.186   4.598   5.493 -0.0255 -0.1601  0.0149
  979MOL0     C34968   4.140   4.715   5.449 -0.4061  0.0015  0.7564
  979MOL0     C34969   4.145   4.766   5.313  0.2656  0.0776 -1.6363
  979MOL0     C34970   4.093   4.890   5.277  0.2401 -0.5184  0.1596
  979MOL0     C34971   4.052   4.977   5.378  0.9848  0.0960 -0.6081
  979MOL0     O34972   4.018   5.105   5.349 -0.3241 -0.5234  0.1994
  979MOL0     C34973   4.116   5.192   5.398  0.8730 -0.4584 -0.1463
  979MOL0     C34974   4.104   5.302   5.310  0.2778 -1.0148  0.5409
  979MOL0     C34975   4.212   5.415   5.325  0.2806  0.6051 -0.5369
  979MOL0     C34976   4.210   5.468   5.472  0.6758 -0.8462 -0.3497
  979MOL0     C34977   4.328   5.564   5.496  0.2042  0.4409  0.2103
  979MOL0     C34978   4.462   5.494   5.505  0.5070  0.4780  0.3335
  979MOL0     C34979   4.470   5.415   5.627  0.0460 -0.1377  0.0959
  979MOL0     C34980   4.607   5.337   5.625 -0.1952  0.4155 -0.0623
  979MOL0     N34981   4.628   5.221   5.535  0.1053  0.0587  0.0553
  979MOL0     C34982   4.552   5.113   5.508 -0.0366  0.9306 -0.5573
  979MOL0     C34983   4.606   5.063   5.396 -1.1963 -0.1443 -0.3950
  979MOL0     C34984   4.575   4.939   5.311  0.0161  0.2818  0.3071
  979MOL0     C34985   4.469   4.980   5.204 -0.2955 -0.4135  0.7335
  979MOL0     C34986   4.530   5.088   5.103 -0.1608  0.6205  0.4084
  979MOL0     C34987   4.466   5.073   4.964 -0.8289  0.5023 -0.2738
  979MOL0     O34988   4.538   5.167   4.881  0.7313 -0.9652  0.4121
  979MOL0     C34989   4.549   5.148   4.748  0.5828 -0.1149  0.8247
  979MOL0     C34990   4.603   5.261   4.680 -0.4209 -0.6927  0.3695
  979MOL0     C34991   4.598   5.274   4.541 -0.3750  0.8945 -0.3081
  979MOL0     C34992   4.633   5.407   4.488 -0.4126 -1.1758  0.1932
  979MOL0     C34993   4.528   5.179   4.467  0.8254  1.1958  0.0542
  979MOL0     C34994   4.508   5.186   4.311 -0.3434 -0.2270  0.1709
  979MOL0     O34995   4.591   5.275   4.244 -1.1569 -0.3454 -0.2282
  979MOL0     C34996   4.568   5.311   4.113 -0.0139 -0.3414 -0.3059
  979MOL0     C34997   4.437   5.333   4.055 -0.4173  0.3442 -0.6798
  979MOL0     C34998   4.420   5.355   3.918 -0.5788 -0.2837  0.4752
  979MOL0     C34999   4.532   5.354   3.834  0.0571 -0.3772  0.1164
  979MOL0     O35000   4.528   5.357   3.697 -0.0020 -0.8104  0.3866
  979MOL0     C35001   4.468   5.469   3.648  0.5000  0.5608 -0.3520
  979MOL0     C35002   4.509   5.492   3.506  0.5237 -1.5130 -0.4833
  979MOL0     C35003   4.657   5.500   3.483 -0.3218 -0.4845  0.1560
  979MOL0     C35004   4.723   5.614   3.551 -0.0066 -1.1811 -0.6374
  979MOL0     C35005   4.873   5.603   3.552 -0.8882 -0.9812 -0.7221
  979MOL0     C35006   4.947   5.724   3.604  0.1926 -0.0448  0.2158
  979MOL0     C35007   4.894   5.802   3.723 -0.3817 -0.0209  0.3071
  979MOL0     C35008   4.999   5.897   3.765 -0.1830 -1.7333 -0.5722
  979MOL0    Cl35009   4.927   6.008   3.877  0.0778 -0.3395  0.2034
  979MOL0     C35010   4.659   5.333   3.889  0.2984 -0.2635  0.0512
  979MOL0     C35011   4.675   5.312   4.029  0.3829  0.4132  0.8673
  979MOL0     O35012   4.424   5.111   4.259 -0.5773 -0.0709 -0.2566
  979MOL0     C35013   4.470   5.068   4.531 -0.0380  0.4884 -0.5027
  979MOL0     C35014   4.493   5.048   4.670 -0.2844  0.5708 -0.0820
  979MOL0     N35015   4.717   5.143   5.363 -0.2700  0.6601  0.9843
  979MOL0     N35016   4.731   5.233   5.451 -0.8653  0.0896 -0.1327
  979MOL0     C35017   4.056   4.936   5.509  0.6693  0.6422  0.1654
  979MOL0     C35018   4.091   4.806   5.542 -0.8629 -0.9153  0.4451
  979MOL0     C35019   4.370   4.464   5.570 -1.2175  0.1752  0.5557
  979MOL0     C35020   4.284   4.361   5.609  0.6622  0.2872 -1.5538
  979MOL0     C35021   4.321   4.233   5.657 -0.4164  1.0852  0.1005
  979MOL0     C35022   4.460   4.202   5.662  0.9187 -0.1368  0.4087
  979MOL0     O35023   4.487   4.074   5.712  0.0300 -0.5407 -0.1199
  979MOL0     C35024   4.620   4.036   5.687 -0.0323 -0.0151 -0.4690
  979MOL0     C35025   4.638   3.889   5.720 -0.0340 -0.0413 -0.3532
  979MOL0     C35026   4.787   3.851   5.725  0.1058 -0.4753 -0.5065
  979MOL0     C35027   4.806   3.698   5.733 -0.5892 -0.4145 -0.5876
  979MOL0     C35028   4.950   3.658   5.732  0.3806 -0.3240 -0.2860
  979MOL0     C35029   5.069   3.634   5.731 -0.3134 -1.0982 -0.8068
  979MOL0     C35030   4.549   4.299   5.636 -0.2352 -1.2062 -0.0103
  979MOL0     C35031   4.515   4.431   5.593 -0.1708  0.1364 -0.7475
  979MOL0     C35032   4.634   4.531   5.572 -0.1736  0.1225 -0.5733
  979MOL0     H35033   4.181   4.697   5.237  3.1685 -0.8560  0.4101
  979MOL0     H35034   4.084   4.933   5.178  0.0191  0.2757  0.5150
  979MOL0     H35035   4.216   5.147   5.391  1.5932  0.6179  2.2911
  979MOL0     H35036   4.089   5.216   5.501 -0.9989 -0.2277 -0.6634
  979MOL0     H35037   4.095   5.265   5.208 -1.2316 -0.8212  0.5807
  979MOL0     H35038   4.006   5.350   5.324 -0.9920 -3.7340  1.8712
  979MOL0     H35039   4.304   5.357   5.307 -1.5650 -2.4214 -1.0139
  979MOL0     H35040   4.204   5.487   5.244 -0.4659  0.5822 -0.4880
  979MOL0     H35041   4.121   5.529   5.489  0.8255 -0.4411 -0.9765
  979MOL0     H35042   4.203   5.394   5.553 -0.3367 -1.5606 -1.0594
  979MOL0     H35043   4.307   5.619   5.588  0.3697  1.1591 -0.1726
  979MOL0     H35044   4.323   5.637   5.414 -0.0225  2.6201  2.0678
  979MOL0     H35045   4.483   5.434   5.416  3.7110 -0.4845  1.6069
  979MOL0     H35046   4.538   5.573   5.504  2.5752 -1.3990  0.8604
  979MOL0     H35047   4.389   5.343   5.646 -0.3869  0.2203 -0.3456
  979MOL0     H35048   4.450   5.487   5.706 -2.7896 -1.2430  0.5107
  979MOL0     H35049   4.681   5.414   5.600 -0.6271  0.9107  0.1614
  979MOL0     H35050   4.623   5.306   5.729 -2.0719  0.1363  0.1687
  979MOL0     H35051   4.475   5.058   5.561  0.8797 -0.1320 -0.2893
  979MOL0     H35052   4.534   4.861   5.375  1.5676  0.5334  1.6624
  979MOL0     H35053   4.668   4.902   5.268  0.9591  1.4567  1.2575
  979MOL0     H35054   4.455   4.891   5.142  1.8957 -0.0140 -0.4535
  979MOL0     H35055   4.377   5.011   5.254  1.5648  1.9201  2.9852
  979MOL0     H35056   4.512   5.192   5.134 -0.3701  1.0424 -1.0716
  979MOL0     H35057   4.639   5.078   5.101 -0.0564  1.6007 -1.7958
  979MOL0     H35058   4.470   4.970   4.926 -3.9116 -0.0179  0.4959
  979MOL0     H35059   4.359   5.091   4.979 -1.1623 -2.0083  1.0081
  979MOL0     H35060   4.647   5.338   4.741 -2.5359  2.4303 -1.7394
  979MOL0     H35061   4.553   5.467   4.444 -1.5013 -3.1191 -0.5488
  979MOL0     H35062   4.715   5.396   4.416 -1.0649  0.7014 -0.9063
  979MOL0     H35063   4.661   5.471   4.573 -1.3051  1.3360 -1.3023
  979MOL0     H35064   4.356   5.335   4.127  1.4924  0.6301  1.6151
  979MOL0     H35065   4.324   5.367   3.868 -0.3541 -2.9421 -0.7531
  979MOL0     H35066   4.361   5.446   3.648  0.9264 -1.8697 -2.4666
  979MOL0     H35067   4.472   5.563   3.704 -0.8550  1.0680 -1.0553
  979MOL0     H35068   4.480   5.406   3.446 -0.1355 -0.9846 -0.9280
  979MOL0     H35069   4.454   5.577   3.465  0.0612 -1.7524 -0.3675
  979MOL0     H35070   4.678   5.491   3.376  1.2122  2.4584  0.1318
  979MOL0     H35071   4.689   5.403   3.523 -0.6800 -0.1576  1.2419
  979MOL0     H35072   4.688   5.623   3.654 -0.2041 -0.4192 -0.7653
  979MOL0     H35073   4.680   5.702   3.503  1.3684  1.4664  2.5708
  979MOL0     H35074   4.903   5.527   3.626  0.7005 -2.6325 -2.9354
  979MOL0     H35075   4.918   5.565   3.460 -0.9647 -1.7508 -0.4493
  979MOL0     H35076   4.964   5.791   3.518  0.7998  0.4082  0.6823
  979MOL0     H35077   5.051   5.696   3.624 -0.0025 -2.2764 -1.5220
  979MOL0     H35078   4.860   5.730   3.797 -2.0585  1.0371  0.6124
  979MOL0     H35079   4.807   5.861   3.694 -1.6292 -1.7997  0.2633
  979MOL0     H35080   5.051   5.953   3.687  1.0613 -1.5943  0.3437
  979MOL0     H35081   5.074   5.842   3.822 -1.6406 -2.6743  0.5145
  979MOL0     H35082   4.743   5.321   3.822  1.4007  0.8965  1.1691
  979MOL0     H35083   4.765   5.276   4.079 -0.7676 -3.1641  0.5877
  979MOL0     H35084   4.416   4.985   4.487 -1.4323 -0.3466  2.5184
  979MOL0     H35085   4.460   4.953   4.710  0.0781  0.3055 -0.4014
  979MOL0     H35086   4.006   5.006   5.575 -0.6810  2.3310 -2.4914
  979MOL0     H35087   4.097   4.767   5.643  1.1490  3.3690  2.1956
  979MOL0     H35088   4.178   4.381   5.611  0.7896  1.6266  3.1028
  979MOL0     H35089   4.251   4.160   5.694  1.1398 -0.8236 -0.5305
  979MOL0     H35090   4.640   4.058   5.581 -2.1088  0.0550 -0.8918
  979MOL0     H35091   4.688   4.096   5.746 -1.7706  1.0466  0.5505
  979MOL0     H35092   4.594   3.823   5.645  2.5780 -0.8786 -1.2544
  979MOL0     H35093   4.601   3.871   5.821 -0.0716 -1.2842 -0.5731
  979MOL0     H35094   4.845   3.884   5.638 -0.2706  1.3032 -0.1131
  979MOL0     H35095   4.836   3.897   5.811  7.0413  0.4283 -4.1811
  979MOL0     H35096   4.751   3.653   5.650 -2.5261  1.9554 -0.6912
  979MOL0     H35097   4.764   3.654   5.825 -0.3632 -2.4622 -1.4099
  979MOL0     H35098   5.175   3.619   5.724 -0.3291 -0.6644 -2.4352
  979MOL0     H35099   4.654   4.282   5.656 -0.3598 -1.5260  0.3922
  979MOL0     H35100   4.724   4.482   5.535  0.4400  1.7711 -1.3653
  979MOL0     H35101   4.608   4.592   5.485  1.9673 -0.2597 -1.5421
  979MOL0     H35102   4.645   4.593   5.662 -1.5304  0.2742 -0.4988
  980MOL0     O35103   6.131   7.394  11.459  0.2225  0.1869  0.7663
  980MOL0     C35104   6.045   7.310  11.447 -0.1716  0.0990 -0.5697
  980MOL0     O35105   5.921   7.348  11.424  0.8639  0.6769  0.0508
  980MOL0     C35106   5.867   7.472  11.457  0.8533  0.0829 -0.6037
  980MOL0     C35107   5.920   7.598  11.419 -0.3243  0.5475 -0.0339
  980MOL0     C35108   5.851   7.720  11.436  1.0305  0.3854 -0.1295
  980MOL0     C35109   5.737   7.723  11.523 -0.3144 -0.0454 -1.6714
  980MOL0     O35110   5.684   7.844  11.558 -0.0361  0.3831 -0.7104
  980MOL0     C35111   5.543   7.861  11.539  0.1239  0.5284  0.4505
  980MOL0     C35112   5.502   7.997  11.564  0.1257 -0.4727 -0.4846
  980MOL0     C35113   5.361   8.029  11.518 -0.1304 -0.4954  0.5670
  980MOL0     C35114   5.329   8.179  11.504  0.5492  1.5339 -0.8140
  980MOL0     C35115   5.181   8.206  11.451 -0.1315  0.6033 -0.4678
  980MOL0     C35116   5.156   8.354  11.476  0.2159 -0.4960 -0.2863
  980MOL0     C35117   5.024   8.419  11.418 -0.6843  0.2644  0.2458
  980MOL0     C35118   5.021   8.574  11.440 -1.0675  0.5655 -0.3492
  980MOL0     N35119   4.883   8.619  11.402  0.4974 -0.8292  0.1916
  980MOL0     C35120   4.785   8.647  11.493 -0.5624  0.1183  0.2741
  980MOL0     C35121   4.680   8.673  11.416  0.5607  0.1794  0.9652
  980MOL0     C35122   4.536   8.725  11.454 -0.1682 -0.1068 -0.0388
  980MOL0     C35123   4.483   8.856  11.374 -0.7458 -0.4809  0.2951
  980MOL0     C35124   4.358   8.816  11.285 -0.1593 -0.1652 -0.0604
  980MOL0     C35125   4.296   8.923  11.201  0.4999  0.3611 -0.9917
  980MOL0     O35126   4.289   9.045  11.285 -0.3797  0.5699  0.3920
  980MOL0     C35127   4.246   9.159  11.221  0.3030 -0.0511  0.0256
  980MOL0     C35128   4.344   9.245  11.166  0.4514  0.0225 -0.1906
  980MOL0     C35129   4.316   9.367  11.113  0.7808 -0.0937 -0.1895
  980MOL0     C35130   4.432   9.457  11.095 -0.5521 -0.1745  0.4016
  980MOL0     C35131   4.180   9.413  11.108 -0.2610 -0.4181  0.4827
  980MOL0     C35132   4.127   9.542  11.056 -0.1278 -1.2689  0.3956
  980MOL0     O35133   4.189   9.585  10.944 -0.5078  0.5036 -0.1892
  980MOL0     C35134   4.166   9.708  10.890 -0.0942 -0.3120 -0.9319
  980MOL0     C35135   4.279   9.764  10.826 -0.6883  0.4015 -0.4937
  980MOL0     C35136   4.259   9.893  10.762  0.0124  0.3522 -0.5244
  980MOL0     C35137   4.135   9.960  10.758  0.3425  0.0085  0.5031
  980MOL0     O35138   4.130  10.074  10.679  0.5967  0.3919  0.1743
  980MOL0     C35139   4.016  10.160  10.691 -0.1516 -1.1311  0.5248
  980MOL0     C35140   4.054  10.299  10.622  0.4564 -0.2503 -0.5051
  980MOL0     C35141   3.927  10.381  10.602  0.2386 -1.1137  0.7710
  980MOL0     C35142   3.943  10.496  10.507 -0.2272 -0.4736  0.0817
  980MOL0     C35143   3.835  10.602  10.535 -0.7664 -0.1773 -0.0160
  980MOL0     C35144   3.831  10.708  10.427  0.6937  0.4346 -0.5796
  980MOL0     C35145   3.715  10.811  10.444  0.2045  0.4602 -0.4045
  980MOL0     C35146   3.704  10.922  10.336  0.1818 -0.3554  0.4187
  980MOL0    Cl35147   3.571  11.036  10.384 -0.5309  0.1922 -0.0617
  980MOL0     C35148   4.026   9.893  10.816  0.5247 -0.2192  0.9204
  980MOL0     C35149   4.039   9.766  10.874 -0.9852 -0.8726  0.1170
  980MOL0     O35150   4.026   9.595  11.112 -0.2147  0.1728  0.0578
  980MOL0     C35151   4.080   9.327  11.168  0.1942 -0.0216  0.3874
  980MOL0     C35152   4.115   9.196  11.211  1.0916  0.0105  0.0479
  980MOL0     N35153   4.713   8.652  11.282  0.8393 -0.1387 -0.5648
  980MOL0     N35154   4.836   8.617  11.272  0.0422 -0.2164  0.1478
  980MOL0     C35155   5.691   7.590  11.565  0.3601 -0.7877 -0.7319
  980MOL0     C35156   5.751   7.474  11.534  0.7031  0.0770 -0.2147
  980MOL0     C35157   6.086   7.167  11.431 -0.8360 -0.2162 -0.3344
  980MOL0     C35158   6.205   7.129  11.485 -0.4087 -1.0969  0.5058
  980MOL0     C35159   6.261   7.004  11.470  0.2654 -0.3760 -0.0666
  980MOL0     C35160   6.192   6.909  11.381  0.6326  0.5002 -0.7131
  980MOL0     O35161   6.234   6.777  11.371  0.1889 -0.4792 -0.0862
  980MOL0     C35162   6.217   6.720  11.241 -0.0186  0.1491  0.8798
  980MOL0     C35163   6.335   6.623  11.232 -0.5578  0.1036 -0.2336
  980MOL0     C35164   6.342   6.560  11.100  0.5028 -0.1235 -0.3281
  980MOL0     C35165   6.442   6.444  11.083  0.7963 -0.3764  0.4193
  980MOL0     C35166   6.424   6.376  10.950  0.4507 -0.8914 -0.1725
  980MOL0     C35167   6.420   6.313  10.851  0.1733  0.0189  0.6214
  980MOL0     C35168   6.069   6.945  11.328  0.4585 -0.3168  0.4807
  980MOL0     C35169   6.022   7.076  11.351  0.6635  0.2303 -0.1675
  980MOL0     C35170   5.891   7.101  11.284  0.4270  0.1262  0.6274
  980MOL0     H35171   6.016   7.600  11.369  0.4304 -1.3307  1.2330
  980MOL0     H35172   5.870   7.819  11.396 -2.0308  2.3286  2.6863
  980MOL0     H35173   5.494   7.791  11.608 -0.4396 -1.5740 -1.9187
  980MOL0     H35174   5.509   7.820  11.443  2.8268 -3.9910  1.0824
  980MOL0     H35175   5.516   8.030  11.667  5.8545  2.2023 -1.7335
  980MOL0     H35176   5.562   8.066  11.504  1.3053  2.6574  3.8562
  980MOL0     H35177   5.336   7.981  11.424 -0.5410  1.4499 -0.3667
  980MOL0     H35178   5.304   7.980  11.598  1.4036 -1.7187  0.9832
  980MOL0     H35179   5.345   8.225  11.602  2.4940 -0.0646 -0.2999
  980MOL0     H35180   5.402   8.229  11.440  2.4838 -0.4734 -0.3381
  980MOL0     H35181   5.108   8.145  11.505  0.7449  2.6305  3.3583
  980MOL0     H35182   5.172   8.192  11.343  1.0352 -0.5811 -0.4336
  980MOL0     H35183   5.159   8.381  11.582  0.3252  2.2163 -0.9184
  980MOL0     H35184   5.240   8.406  11.430  0.7417 -1.6768 -0.7031
  980MOL0     H35185   4.945   8.373  11.478  0.8860  0.6705  2.7707
  980MOL0     H35186   5.012   8.395  11.312  0.1059  1.0604 -0.0364
  980MOL0     H35187   5.048   8.587  11.545 -0.8861  1.0351 -0.4519
  980MOL0     H35188   5.094   8.623  11.375  0.2571 -2.0415 -0.9733
  980MOL0     H35189   4.798   8.658  11.600 -2.0982  0.9887  0.3981
  980MOL0     H35190   4.547   8.760  11.557 -3.6943  0.4565  0.2736
  980MOL0     H35191   4.457   8.650  11.467 -0.7209  0.5993  0.7529
  980MOL0     H35192   4.448   8.928  11.448  0.4826  0.3123  0.1342
  980MOL0     H35193   4.560   8.903  11.311 -0.7280 -1.3060 -0.3213
  980MOL0     H35194   4.385   8.733  11.218 -1.0205  0.6177 -1.4355
  980MOL0     H35195   4.279   8.784  11.353 -0.3100  1.3843  0.5336
  980MOL0     H35196   4.359   8.932  11.112 -2.0460  0.3685 -2.8842
  980MOL0     H35197   4.202   8.880  11.165  0.7284 -0.3120 -0.7908
  980MOL0     H35198   4.447   9.215  11.182 -0.5873 -2.5259  2.7050
  980MOL0     H35199   4.418   9.549  11.153  1.9036  0.9611 -0.6300
  980MOL0     H35200   4.438   9.484  10.989  0.5124 -1.5628  0.0716
  980MOL0     H35201   4.531   9.417  11.118 -1.1142 -0.2404  2.8894
  980MOL0     H35202   4.377   9.718  10.829 -0.0727  1.7349  1.5211
  980MOL0     H35203   4.343   9.942  10.714  1.2531 -0.6389  0.5262
  980MOL0     H35204   3.928  10.119  10.641 -1.2667  3.1236 -1.5349
  980MOL0     H35205   3.986  10.186  10.793  1.0374  0.9500  0.4147
  980MOL0     H35206   4.132  10.354  10.675  1.4534 -2.4750  0.4487
  980MOL0     H35207   4.099  10.279  10.524  0.2922  1.9388 -1.0754
  980MOL0     H35208   3.878  10.406  10.697 -1.1725 -0.1333 -0.1840
  980MOL0     H35209   3.863  10.313  10.545  2.6372 -0.5278 -3.0098
  980MOL0     H35210   3.943  10.458  10.404  1.3890 -0.2351 -0.0432
  980MOL0     H35211   4.039  10.548  10.522 -1.2323  0.9934  1.9059
  980MOL0     H35212   3.742  10.548  10.556 -1.0529  0.8110  1.3781
  980MOL0     H35213   3.869  10.653  10.626  0.1564 -3.1802  1.4867
  980MOL0     H35214   3.829  10.653  10.332 -4.3359 -2.7364  0.9767
  980MOL0     H35215   3.927  10.760  10.432  1.8776 -1.7998  1.5230
  980MOL0     H35216   3.719  10.854  10.545 -3.2465  1.6139 -0.6460
  980MOL0     H35217   3.624  10.751  10.439 -0.4061  0.8676  3.0062
  980MOL0     H35218   3.682  10.886  10.236  1.7026  0.0403 -0.0836
  980MOL0     H35219   3.802  10.964  10.315  0.1513 -0.8869 -0.8444
  980MOL0     H35220   3.927   9.932  10.794  1.1692  0.6256 -0.6537
  980MOL0     H35221   3.953   9.715  10.915 -1.7015 -2.0117 -2.5884
  980MOL0     H35222   3.976   9.356  11.173 -0.6433 -2.5324 -0.7770
  980MOL0     H35223   4.038   9.129  11.248 -0.4763  2.2224  1.0203
  980MOL0     H35224   5.610   7.584  11.637  0.7263  1.4786 -0.0564
  980MOL0     H35225   5.709   7.379  11.566  1.5399 -0.2041  0.0919
  980MOL0     H35226   6.255   7.204  11.546  0.9497 -2.8458  1.6481
  980MOL0     H35227   6.351   6.984  11.527  0.6150 -1.4728 -0.9667
  980MOL0     H35228   6.126   6.659  11.236  0.4156 -0.4040 -1.3573
  980MOL0     H35229   6.215   6.790  11.157  0.8059  1.5958  2.0223
  980MOL0     H35230   6.329   6.547  11.311 -0.1044  0.0318 -0.2656
  980MOL0     H35231   6.431   6.674  11.240  0.1551 -1.2860  0.3926
  980MOL0     H35232   6.244   6.518  11.073  2.0346 -4.0784 -0.3292
  980MOL0     H35233   6.365   6.630  11.020  1.2915 -1.7924 -1.6201
  980MOL0     H35234   6.410   6.379  11.165 -3.8526  2.1899  1.0205
  980MOL0     H35235   6.542   6.486  11.097  0.2381  0.4783  2.1307
  980MOL0     H35236   6.408   6.261  10.759 -2.1324  0.1337  0.7982
  980MOL0     H35237   6.012   6.860  11.291  2.3790 -2.0393  1.2357
  980MOL0     H35238   5.908   7.170  11.200 -2.3606  0.9280  0.6322
  980MOL0     H35239   5.852   7.005  11.247  2.7993 -2.6423  4.5209
  980MOL0     H35240   5.815   7.148  11.346 -0.8375  0.4322 -1.0677
  981MOL0     O35241   8.885   9.294   1.922  0.0284  0.3253  0.6372
  981MOL0     C35242   8.897   9.188   1.858  0.5370  0.4933  0.9202
  981MOL0     O35243   8.836   9.057   1.883 -0.3840  0.1680  0.1688
  981MOL0     C35244   8.746   9.051   1.985  0.2422 -0.4435  0.9447
  981MOL0     C35245   8.778   9.067   2.117 -0.5125  0.1812 -0.1413
  981MOL0     C35246   8.684   9.047   2.217  1.1789  0.0346  0.6493
  981MOL0     C35247   8.562   8.995   2.193 -0.9027 -0.0102  0.3120
  981MOL0     O35248   8.486   8.971   2.297  0.1924  0.0368  0.1218
  981MOL0     C35249   8.426   9.088   2.362  0.1907  0.2387 -0.8335
  981MOL0     C35250   8.431   9.075   2.514  0.3531  0.4980  0.8827
  981MOL0     C35251   8.566   9.063   2.578 -0.2177 -0.2054  0.5167
  981MOL0     C35252   8.566   9.036   2.731 -0.1410  0.8630  0.6087
  981MOL0     C35253   8.678   8.936   2.758  0.4138  0.9244  0.3399
  981MOL0     C35254   8.674   8.787   2.711  1.1475 -0.4312  0.3538
  981MOL0     C35255   8.735   8.698   2.823  0.5276 -0.0900 -0.5703
  981MOL0     C35256   8.641   8.649   2.939  0.1385 -0.6087 -0.0617
  981MOL0     N35257   8.697   8.541   3.028 -1.3595 -0.3364  0.2033
  981MOL0     C35258   8.831   8.542   3.077  0.2876  0.2295 -0.4831
  981MOL0     C35259   8.840   8.432   3.162 -0.1302  0.4885 -0.1986
  981MOL0     C35260   8.959   8.377   3.235  0.4033 -0.0950 -0.9937
  981MOL0     C35261   8.967   8.428   3.380  0.5329  0.1047  0.2013
  981MOL0     C35262   8.841   8.394   3.463  0.3710  0.2998 -0.2393
  981MOL0     C35263   8.836   8.456   3.599 -0.2513  0.1439  0.4885
  981MOL0     O35264   8.856   8.595   3.599  0.6448 -0.3953 -0.1179
  981MOL0     C35265   8.924   8.647   3.704 -0.1373 -0.3553 -0.5108
  981MOL0     C35266   9.015   8.755   3.683  0.1949 -0.2333  0.9388
  981MOL0     C35267   9.082   8.805   3.791 -0.9458 -0.4571  0.4856
  981MOL0     C35268   9.145   8.936   3.771  0.5679 -0.6415 -0.6949
  981MOL0     C35269   9.080   8.749   3.923  0.4551  0.0670  0.6936
  981MOL0     C35270   9.163   8.789   4.043 -0.0450 -0.1852 -0.4456
  981MOL0     O35271   9.288   8.839   4.007  0.0324 -0.0718  0.2728
  981MOL0     C35272   9.367   8.921   4.084 -0.1238 -0.5817 -1.1410
  981MOL0     C35273   9.394   8.895   4.217  0.0007  1.2590 -0.0871
  981MOL0     C35274   9.481   8.976   4.287  0.2114 -0.7541 -1.0028
  981MOL0     C35275   9.563   9.080   4.225 -0.4702 -0.0462  0.3290
  981MOL0     O35276   9.658   9.157   4.298  0.3909  0.0329  0.7480
  981MOL0     C35277   9.626   9.204   4.423 -1.2430 -0.3715  0.4923
  981MOL0     C35278   9.501   9.296   4.436 -0.6286 -0.4785 -0.1316
  981MOL0     C35279   9.509   9.431   4.360  0.1175 -0.0588  0.6914
  981MOL0     C35280   9.371   9.503   4.370 -0.3560 -0.0942  0.4294
  981MOL0     C35281   9.362   9.647   4.320 -1.0368 -0.2286  0.3478
  981MOL0     C35282   9.379   9.663   4.166 -0.5074 -0.2378 -0.3461
  981MOL0     C35283   9.392   9.820   4.127  0.3891 -0.6875  0.1508
  981MOL0     C35284   9.414   9.847   3.981  0.7982  0.5114  0.1455
  981MOL0    Cl35285   9.568   9.778   3.943  0.0281 -0.0725 -0.0746
  981MOL0     C35286   9.543   9.107   4.086  0.8244  0.3480 -0.3637
  981MOL0     C35287   9.451   9.021   4.016  0.6362  0.1840  0.0356
  981MOL0     O35288   9.125   8.763   4.158  0.0163  0.7712  0.0040
  981MOL0     C35289   8.986   8.649   3.941 -0.3022  0.2992 -0.7089
  981MOL0     C35290   8.911   8.603   3.836  0.3114  0.0646 -0.0925
  981MOL0     N35291   8.705   8.374   3.161 -0.7562 -0.6334  0.8487
  981MOL0     N35292   8.635   8.438   3.076  0.6585 -0.1155 -0.2172
  981MOL0     C35293   8.516   8.978   2.061  0.1765  0.4709  0.3676
  981MOL0     C35294   8.611   9.004   1.956 -0.2146 -0.1363 -0.3328
  981MOL0     C35295   8.980   9.204   1.740 -0.0502 -0.2431  0.7016
  981MOL0     C35296   8.940   9.300   1.656  0.3058  0.1144  0.4045
  981MOL0     C35297   9.009   9.321   1.533 -0.2114 -0.8001  0.0276
  981MOL0     C35298   9.116   9.242   1.492  0.1492  0.3992  0.0063
  981MOL0     O35299   9.166   9.264   1.365  0.3430 -0.5007 -0.5578
  981MOL0     C35300   9.209   9.400   1.345 -0.6066 -0.6522  0.2032
  981MOL0     C35301   9.327   9.455   1.441  0.8238  0.3801  0.1827
  981MOL0     C35302   9.452   9.367   1.441 -0.0557 -0.7594 -0.1642
  981MOL0     C35303   9.549   9.401   1.563 -0.3424  0.3284  0.5678
  981MOL0     C35304   9.512   9.307   1.669  0.0325  0.5519 -0.4442
  981MOL0     C35305   9.470   9.229   1.761 -0.1536  0.0525  0.9384
  981MOL0     C35306   9.143   9.135   1.573 -0.7312  0.9387  0.3771
  981MOL0     C35307   9.078   9.110   1.692 -0.9724 -0.2594  0.3682
  981MOL0     C35308   9.134   8.993   1.789  0.5164 -0.0354  0.5688
  981MOL0     H35309   8.878   9.093   2.149 -0.9939 -0.2901  1.8401
  981MOL0     H35310   8.714   9.060   2.321 -0.2562  1.1879  0.9507
  981MOL0     H35311   8.320   9.090   2.337 -0.2454 -0.6870  0.7888
  981MOL0     H35312   8.477   9.180   2.334  0.3249 -0.5990 -3.6449
  981MOL0     H35313   8.378   9.156   2.565  0.8057 -0.3243  2.7258
  981MOL0     H35314   8.369   8.987   2.536 -1.1093  1.4071  0.5375
  981MOL0     H35315   8.612   8.983   2.519 -2.2789 -0.4245 -0.9002
  981MOL0     H35316   8.631   9.150   2.562 -1.0063  0.4440  0.7900
  981MOL0     H35317   8.581   9.130   2.784  1.4959  0.5998  0.6857
  981MOL0     H35318   8.475   8.978   2.748 -1.1168  1.0758 -3.1388
  981MOL0     H35319   8.681   8.938   2.867 -2.2032  3.0718  0.4718
  981MOL0     H35320   8.773   8.976   2.723 -0.4791  2.8857  0.0705
  981MOL0     H35321   8.578   8.763   2.664  2.3329  0.3701 -2.6764
  981MOL0     H35322   8.743   8.793   2.626  1.5735  0.2575  0.7427
  981MOL0     H35323   8.824   8.737   2.873 -0.3561  0.3818  0.7003
  981MOL0     H35324   8.762   8.603   2.777  1.9701 -1.6630  3.1306
  981MOL0     H35325   8.620   8.732   3.008 -1.8049 -2.6885  2.0003
  981MOL0     H35326   8.545   8.617   2.898  0.1545  0.0331 -0.6226
  981MOL0     H35327   8.910   8.611   3.050  0.9344 -0.2870  0.0490
  981MOL0     H35328   9.051   8.393   3.178  0.5145 -0.7351 -1.0063
  981MOL0     H35329   8.941   8.269   3.234  0.4945 -0.1168 -0.6332
  981MOL0     H35330   9.051   8.375   3.426  0.1429 -1.9188 -1.2870
  981MOL0     H35331   8.988   8.535   3.386  0.2060  0.1005  2.1851
  981MOL0     H35332   8.755   8.426   3.403  0.0666 -1.2936 -0.6950
  981MOL0     H35333   8.833   8.286   3.475 -2.0042  0.3901 -0.5350
  981MOL0     H35334   8.735   8.437   3.636  0.4900 -0.6143  2.2396
  981MOL0     H35335   8.913   8.404   3.658  1.2324  0.6773 -0.9091
  981MOL0     H35336   9.019   8.804   3.586  2.7910  2.2252  2.1225
  981MOL0     H35337   9.090   9.001   3.840  2.7648  0.5960  0.0089
  981MOL0     H35338   9.134   8.964   3.666  0.3196 -3.5655 -1.5387
  981MOL0     H35339   9.250   8.949   3.801  0.6127  0.7693 -1.3787
  981MOL0     H35340   9.344   8.817   4.272  0.4835  2.0970  1.5973
  981MOL0     H35341   9.499   8.956   4.392 -0.4128  0.7034 -0.5861
  981MOL0     H35342   9.615   9.117   4.490 -2.4526  0.4668  1.4300
  981MOL0     H35343   9.704   9.268   4.466 -1.6172  1.0107 -0.8236
  981MOL0     H35344   9.418   9.238   4.394 -1.6345  1.3714 -0.7768
  981MOL0     H35345   9.487   9.309   4.543 -1.5404 -0.8486 -0.2004
  981MOL0     H35346   9.534   9.411   4.255 -0.5126  0.6976  0.3797
  981MOL0     H35347   9.590   9.490   4.403 -0.9358  3.1444 -1.3341
  981MOL0     H35348   9.347   9.506   4.477 -0.8557 -0.4686  0.3287
  981MOL0     H35349   9.285   9.457   4.321  0.0937 -3.1573  2.2375
  981MOL0     H35350   9.268   9.696   4.348  0.2067  1.1765  2.3229
  981MOL0     H35351   9.446   9.697   4.369 -1.1704 -0.6126  0.9859
  981MOL0     H35352   9.294   9.614   4.116 -0.3828 -0.2344 -0.5655
  981MOL0     H35353   9.469   9.611   4.132  1.4468  3.9764 -2.3139
  981MOL0     H35354   9.475   9.867   4.180  1.1329  0.1783 -1.7118
  981MOL0     H35355   9.300   9.873   4.152  0.5642 -0.2142 -0.2105
  981MOL0     H35356   9.418   9.954   3.960  4.0140  0.4785 -0.0284
  981MOL0     H35357   9.330   9.799   3.931  0.7335  0.2566  0.4971
  981MOL0     H35358   9.603   9.180   4.032 -2.8674  3.0150 -1.3182
  981MOL0     H35359   9.440   9.022   3.908  1.2161  2.8589 -0.0495
  981MOL0     H35360   8.962   8.620   4.043 -2.3117 -0.2705 -1.2993
  981MOL0     H35361   8.837   8.528   3.865  0.6448  0.5354  2.1254
  981MOL0     H35362   8.416   8.938   2.049 -0.2674  1.3218  1.1394
  981MOL0     H35363   8.596   8.984   1.851  3.4619 -1.5061 -0.7351
  981MOL0     H35364   8.854   9.364   1.673 -2.6968 -3.3492 -0.5365
  981MOL0     H35365   8.972   9.408   1.478  2.2888  0.2659 -0.0928
  981MOL0     H35366   9.243   9.397   1.240  0.0304  0.1747  0.3763
  981MOL0     H35367   9.134   9.479   1.350  0.6354  0.7045 -1.4659
  981MOL0     H35368   9.285   9.476   1.540 -1.4545 -1.1751 -0.3697
  981MOL0     H35369   9.358   9.550   1.395 -2.9589  0.9536 -1.5343
  981MOL0     H35370   9.418   9.264   1.457  2.3164 -1.4685  0.6794
  981MOL0     H35371   9.507   9.387   1.349 -0.2454  1.2247  0.1069
  981MOL0     H35372   9.530   9.506   1.587 -4.1296  0.3948 -1.8817
  981MOL0     H35373   9.654   9.381   1.541 -1.0327 -0.5033 -2.2966
  981MOL0     H35374   9.434   9.155   1.828  0.4092  0.6876  1.9677
  981MOL0     H35375   9.219   9.068   1.532 -1.7022 -0.5670  0.9486
  981MOL0     H35376   9.234   8.974   1.748 -0.1016  0.8925 -1.5264
  981MOL0     H35377   9.129   9.045   1.885 -0.1556  2.3353 -0.6453
  981MOL0     H35378   9.070   8.907   1.773  3.6840 -2.0230 -3.3085
  982MOL0     O35379   3.499   1.031   9.084  0.3434 -0.0463 -0.1746
  982MOL0     C35380   3.469   1.145   9.044 -0.4686  0.0978  1.0131
  982MOL0     O35381   3.444   1.253   9.126  0.0863  0.5973  0.0078
  982MOL0     C35382   3.473   1.246   9.255  0.6371 -0.3108 -0.9112
  982MOL0     C35383   3.601   1.219   9.298  0.5121 -0.3612 -0.5780
  982MOL0     C35384   3.632   1.232   9.431 -0.0333 -0.5116  0.5248
  982MOL0     C35385   3.545   1.289   9.522 -0.2921  0.2035  0.5146
  982MOL0     O35386   3.568   1.301   9.651 -0.7528  0.2617  0.1485
  982MOL0     C35387   3.556   1.179   9.727 -0.3522 -0.0078 -0.6415
  982MOL0     C35388   3.611   1.208   9.875  0.6540  0.6958 -0.3557
  982MOL0     C35389   3.586   1.095   9.982 -1.2341 -0.9071 -0.4559
  982MOL0     C35390   3.653   1.120  10.112  0.3161 -0.7783  0.8449
  982MOL0     C35391   3.610   1.036  10.234 -0.0090 -0.4645  0.6980
  982MOL0     C35392   3.596   1.117  10.361 -0.0254  0.0081 -0.0360
  982MOL0     C35393   3.472   1.209  10.373 -0.5401  0.6366  0.1053
  982MOL0     C35394   3.462   1.313  10.490  0.2081 -0.0448  0.0587
  982MOL0     N35395   3.494   1.447  10.451  0.1944  0.3002  0.5383
  982MOL0     C35396   3.625   1.486  10.452 -0.2478 -0.8565 -0.2247
  982MOL0     C35397   3.616   1.622  10.427 -0.1062  0.4443 -0.2492
  982MOL0     C35398   3.726   1.729  10.404  0.5143  0.1625 -0.4418
  982MOL0     C35399   3.834   1.690  10.300  0.3760 -0.0889  0.0241
  982MOL0     C35400   3.902   1.814  10.252 -0.6817  0.7327 -0.2038
  982MOL0     C35401   4.026   1.780  10.157 -0.3447 -0.4011  0.7358
  982MOL0     O35402   4.112   1.684  10.218  0.2970  0.1891  0.5400
  982MOL0     C35403   4.245   1.714  10.227  0.1066  0.4066  0.6248
  982MOL0     C35404   4.346   1.687  10.135 -0.3598  0.8840 -0.8513
  982MOL0     C35405   4.480   1.719  10.158  0.7213  0.1187  0.0361
  982MOL0     C35406   4.588   1.644  10.078 -0.9782 -0.2132  0.3097
  982MOL0     C35407   4.522   1.801  10.264 -0.4493  0.8888  0.4113
  982MOL0     C35408   4.662   1.856  10.283 -0.3787 -0.2948  0.3925
  982MOL0     O35409   4.708   1.885  10.401  0.4405  0.0460 -0.1077
  982MOL0     C35410   4.840   1.905  10.406 -0.2883  0.7109 -0.1356
  982MOL0     C35411   4.892   2.023  10.450  0.4113 -0.7914 -0.3100
  982MOL0     C35412   5.030   2.061  10.462 -0.0611  0.4851  0.5793
  982MOL0     C35413   5.125   1.961  10.434  0.0431  0.5630  0.4415
  982MOL0     O35414   5.260   1.979  10.448 -0.3217 -0.5437  0.2833
  982MOL0     C35415   5.316   2.108  10.476 -1.0443 -0.6883  0.1015
  982MOL0     C35416   5.297   2.221  10.372 -0.4741  0.3133  0.1201
  982MOL0     C35417   5.348   2.352  10.432  0.3561  0.1494 -0.3897
  982MOL0     C35418   5.500   2.376  10.419 -0.0284  0.2196  1.2353
  982MOL0     C35419   5.542   2.387  10.274  0.7415 -0.5580  0.0995
  982MOL0     C35420   5.661   2.477  10.235  0.1211 -0.9952  0.3915
  982MOL0     C35421   5.721   2.434  10.106 -0.3297 -0.9202  0.1270
  982MOL0     C35422   5.832   2.544  10.067 -0.0910  0.5453  0.3013
  982MOL0    Cl35423   5.889   2.482   9.911  0.2042 -0.5639 -0.2154
  982MOL0     C35424   5.075   1.829  10.388 -0.5395 -0.5435  0.4922
  982MOL0     C35425   4.936   1.806  10.376  0.1545 -0.1186  0.4809
  982MOL0     O35426   4.721   1.894  10.180  0.7020 -0.4458 -0.7987
  982MOL0     C35427   4.427   1.805  10.371  0.1602 -0.5129 -0.3533
  982MOL0     C35428   4.288   1.769  10.347  0.5730 -0.3484  0.1496
  982MOL0     N35429   3.483   1.652  10.399  0.7799 -0.8425 -0.3899
  982MOL0     N35430   3.409   1.549  10.410  0.2454  0.5376  0.2824
  982MOL0     C35431   3.412   1.319   9.480  0.6537  0.0013  0.5377
  982MOL0     C35432   3.378   1.302   9.348 -0.6613  0.4464  0.2429
  982MOL0     C35433   3.443   1.163   8.897  1.5519 -0.5231 -0.8027
  982MOL0     C35434   3.355   1.065   8.853 -0.1671 -0.0804 -0.3272
  982MOL0     C35435   3.312   1.080   8.722  0.6347  0.3005 -0.4995
  982MOL0     C35436   3.337   1.192   8.644  0.3911 -0.5160  0.2118
  982MOL0     O35437   3.274   1.204   8.522  0.0296  0.2243 -0.4064
  982MOL0     C35438   3.348   1.260   8.412 -0.8616  0.1068  0.3530
  982MOL0     C35439   3.460   1.169   8.358 -0.0717  1.1110 -0.4944
  982MOL0     C35440   3.409   1.042   8.286  0.7233 -0.6589  0.6291
  982MOL0     C35441   3.433   1.057   8.138 -0.2383 -0.9572 -0.0583
  982MOL0     C35442   3.393   0.933   8.081  0.9277  0.5162  0.0278
  982MOL0     C35443   3.379   0.819   8.031  0.0084  0.4760 -0.0360
  982MOL0     C35444   3.428   1.288   8.695 -0.7318  0.3563 -0.0110
  982MOL0     C35445   3.478   1.275   8.823 -0.3554  0.2962 -0.7733
  982MOL0     C35446   3.584   1.374   8.866  0.1194 -0.3071  0.5357
  982MOL0     H35447   3.684   1.194   9.233 -0.6956  0.9264 -2.7052
  982MOL0     H35448   3.737   1.220   9.455  0.6118  1.9252 -0.6616
  982MOL0     H35449   3.613   1.103   9.673  0.8241  1.3902 -1.4421
  982MOL0     H35450   3.450   1.151   9.726  0.1416 -2.0336 -0.8607
  982MOL0     H35451   3.719   1.225   9.868  0.8516  0.0377  0.8499
  982MOL0     H35452   3.570   1.302   9.913 -0.3251  0.5507 -1.0057
  982MOL0     H35453   3.483   1.100  10.018 -0.1028 -1.5795  3.4108
  982MOL0     H35454   3.610   0.998   9.939 -0.3474 -0.3471 -1.2771
  982MOL0     H35455   3.759   1.102  10.093  0.2803 -0.9740  0.8346
  982MOL0     H35456   3.644   1.225  10.142 -1.2385  0.1305 -2.4003
  982MOL0     H35457   3.689   0.961  10.240  1.9265  1.2205 -1.4965
  982MOL0     H35458   3.514   0.986  10.223 -0.5302  1.0375 -4.7376
  982MOL0     H35459   3.583   1.057  10.451 -2.7714  0.0148 -0.3440
  982MOL0     H35460   3.680   1.185  10.375 -0.3855 -0.0742  3.1040
  982MOL0     H35461   3.390   1.137  10.382  0.5315 -0.6276  0.1114
  982MOL0     H35462   3.460   1.260  10.277  2.0505  0.0594 -0.6128
  982MOL0     H35463   3.359   1.322  10.527  0.5496 -2.1712  1.7287
  982MOL0     H35464   3.526   1.273  10.569 -0.0021  0.0997  0.3025
  982MOL0     H35465   3.713   1.424  10.461 -1.2081 -2.3404 -0.6961
  982MOL0     H35466   3.784   1.748  10.495  3.0155 -3.6275 -1.0404
  982MOL0     H35467   3.672   1.819  10.372 -1.0572 -0.6623 -0.2333
  982MOL0     H35468   3.909   1.624  10.345 -2.0835 -2.8404  0.3496
  982MOL0     H35469   3.790   1.625  10.223 -0.4491 -1.0277  1.2640
  982MOL0     H35470   3.831   1.876  10.197 -0.4402 -0.1940 -1.6182
  982MOL0     H35471   3.931   1.875  10.338 -1.7650  1.6601 -0.4668
  982MOL0     H35472   3.999   1.717  10.072  2.8057 -0.2887 -0.4892
  982MOL0     H35473   4.072   1.875  10.128 -0.7438  0.3253  2.3843
  982MOL0     H35474   4.313   1.636  10.044 -2.4004  2.5210 -1.1067
  982MOL0     H35475   4.684   1.652  10.129 -3.2015  1.4940  4.8354
  982MOL0     H35476   4.605   1.692   9.982  3.6903 -0.6906  0.6593
  982MOL0     H35477   4.577   1.536  10.071  2.7032 -0.7701  1.2527
  982MOL0     H35478   4.819   2.092  10.491  0.6229 -1.1808  0.7634
  982MOL0     H35479   5.047   2.163  10.496  0.7293  0.7134 -0.4719
  982MOL0     H35480   5.277   2.141  10.572 -0.4375  0.5160 -0.0381
  982MOL0     H35481   5.422   2.086  10.493 -1.1396 -1.5960 -0.3880
  982MOL0     H35482   5.356   2.189  10.286 -1.9925  0.3700 -0.9854
  982MOL0     H35483   5.197   2.243  10.331 -0.7564  1.8595  1.5373
  982MOL0     H35484   5.325   2.352  10.539  0.2731  3.3749 -0.3006
  982MOL0     H35485   5.280   2.430  10.397 -0.4990 -0.2046  0.4400
  982MOL0     H35486   5.548   2.293  10.471 -0.0391 -1.0493 -0.7169
  982MOL0     H35487   5.515   2.468  10.477 -0.2097  2.3431 -1.8178
  982MOL0     H35488   5.559   2.285  10.236 -3.7619 -1.5297  0.2035
  982MOL0     H35489   5.455   2.428  10.222  0.2774 -1.0890  0.4484
  982MOL0     H35490   5.742   2.460  10.307  1.9629  2.3767 -0.6410
  982MOL0     H35491   5.623   2.580  10.229  0.7073 -0.8490 -1.4101
  982MOL0     H35492   5.646   2.434  10.026 -1.4568  0.1608  1.1416
  982MOL0     H35493   5.762   2.332  10.104 -1.0672 -1.2128 -0.8028
  982MOL0     H35494   5.923   2.549  10.128 -0.2746  3.3489  0.4462
  982MOL0     H35495   5.792   2.642  10.041  2.4917  1.2264 -1.5389
  982MOL0     H35496   5.147   1.751  10.367 -0.0325 -0.0396  0.3145
  982MOL0     H35497   4.893   1.715  10.336  1.0172 -0.6607  0.7579
  982MOL0     H35498   4.457   1.851  10.465 -1.2494 -2.0239  0.8837
  982MOL0     H35499   4.214   1.784  10.425  1.2158  1.7728  0.4216
  982MOL0     H35500   3.343   1.359   9.553  2.5274  0.4811  2.1466
  982MOL0     H35501   3.282   1.341   9.319 -0.1599  2.6973  1.3987
  982MOL0     H35502   3.321   0.975   8.902 -1.7843  0.4728 -0.3844
  982MOL0     H35503   3.247   1.003   8.682 -1.1806 -1.2392  4.6300
  982MOL0     H35504   3.277   1.276   8.331 -0.5339  1.1193  0.2409
  982MOL0     H35505   3.396   1.355   8.441  1.3131 -0.7273 -0.3366
  982MOL0     H35506   3.517   1.129   8.443 -2.9073 -3.2128 -0.2991
  982MOL0     H35507   3.531   1.215   8.288 -0.1537  0.9212 -0.7031
  982MOL0     H35508   3.462   0.952   8.320 -0.9646 -1.2742  1.7804
  982MOL0     H35509   3.303   1.035   8.314  0.7213  0.0502  0.8081
  982MOL0     H35510   3.536   1.071   8.103 -0.6420  0.9394 -0.6171
  982MOL0     H35511   3.375   1.143   8.102  2.5234  2.7396  3.3770
  982MOL0     H35512   3.374   0.732   7.968 -0.1391  2.0717 -2.3388
  982MOL0     H35513   3.453   1.381   8.645 -0.3439  0.2860  0.0443
  982MOL0     H35514   3.541   1.468   8.903 -0.0288  0.6380 -1.8674
  982MOL0     H35515   3.644   1.340   8.951 -2.5682 -0.5543  2.4432
  982MOL0     H35516   3.647   1.401   8.780  0.5069 -0.9863  0.5999
  983MOL0     O35517   1.433   9.865   6.762  0.0715  0.0579  0.6961
  983MOL0     C35518   1.493   9.959   6.711 -0.3864  0.1423  0.1532
  983MOL0     O35519   1.431  10.049   6.634  0.3669 -0.7312  0.4602
  983MOL0     C35520   1.297  10.020   6.616 -0.6862  0.1081  0.5156
  983MOL0     C35521   1.250   9.945   6.504 -0.2721 -0.5057 -0.0776
  983MOL0     C35522   1.115   9.927   6.491 -0.3339 -0.0841 -0.9841
  983MOL0     C35523   1.029   9.977   6.596 -0.4436  0.2360 -0.5604
  983MOL0     O35524   0.901   9.946   6.576 -0.3560  0.4737  0.2761
  983MOL0     C35525   0.803  10.026   6.641  0.2076  0.1452 -0.1418
  983MOL0     C35526   0.677   9.957   6.592 -0.3765  0.1310 -0.5322
  983MOL0     C35527   0.557  10.029   6.641  0.4628  0.8130  0.4548
  983MOL0     C35528   0.431   9.966   6.572 -0.0659  0.3919  0.1071
  983MOL0     C35529   0.298  10.026   6.621 -1.5298  0.2596 -0.0569
  983MOL0     C35530   0.285  10.164   6.570  0.8010 -0.9551  0.2666
  983MOL0     C35531   0.148  10.225   6.598 -0.0067 -0.0357  0.0191
  983MOL0     C35532   0.026  10.133   6.563 -0.1197  0.2144  0.2031
  983MOL0     N35533  -0.099  10.207   6.562 -0.2836 -0.0278 -0.0333
  983MOL0     C35534  -0.176  10.239   6.668  0.1841 -0.1993 -0.3009
  983MOL0     C35535  -0.272  10.320   6.617  0.3286  0.2678 -0.7737
  983MOL0     C35536  -0.362  10.392   6.711  0.2587 -0.1051 -0.3176
  983MOL0     C35537  -0.493  10.442   6.639 -0.4625 -0.0166 -0.6287
  983MOL0     C35538  -0.591  10.509   6.735  0.3188  0.2486 -1.1837
  983MOL0     C35539  -0.517  10.601   6.837  0.4470  0.4840  0.0414
  983MOL0     O35540  -0.435  10.701   6.781 -0.5167 -0.0372  0.0971
  983MOL0     C35541  -0.387  10.809   6.854  0.4304 -0.6750  0.8429
  983MOL0     C35542  -0.451  10.860   6.967  0.4187  0.3650  0.5064
  983MOL0     C35543  -0.421  10.979   7.027 -0.0051  0.0296  0.4246
  983MOL0     C35544  -0.512  11.027   7.144 -0.1257 -0.5386  0.2433
  983MOL0     C35545  -0.301  11.046   6.983 -0.0055 -0.0385  0.7868
  983MOL0     C35546  -0.245  11.158   7.050  0.4752 -0.9693 -0.5012
  983MOL0     O35547  -0.108  11.166   7.045 -0.2005 -0.7037  0.0681
  983MOL0     C35548  -0.043  11.271   7.105  0.4027  0.3294 -0.1628
  983MOL0     C35549  -0.040  11.404   7.055 -0.3541 -0.4872 -0.2269
  983MOL0     C35550   0.014  11.512   7.127 -1.2883 -0.0104  0.0305
  983MOL0     C35551   0.067  11.495   7.260 -0.6552  0.1513  0.2198
  983MOL0     O35552   0.111  11.600   7.341  0.1740  1.5321 -0.1478
  983MOL0     C35553   0.109  11.733   7.293 -0.2310  0.7392  0.0885
  983MOL0     C35554   0.171  11.835   7.394 -0.1560 -0.4468  0.0855
  983MOL0     C35555   0.105  11.818   7.527  0.6361 -0.7118 -0.3801
  983MOL0     C35556  -0.038  11.880   7.520  0.4987  0.0584  0.7728
  983MOL0     C35557  -0.094  11.919   7.666 -0.1731 -0.1824  0.3956
  983MOL0     C35558  -0.046  12.053   7.724  0.0979  1.1087  1.2381
  983MOL0     C35559  -0.104  12.175   7.666 -0.9469 -0.2391 -0.1205
  983MOL0     C35560   0.005  12.292   7.643  0.1610  0.6373 -0.8511
  983MOL0    Cl35561  -0.081  12.436   7.564  0.0959  0.5434 -0.1128
  983MOL0     C35562   0.070  11.360   7.306 -1.1634 -0.7255  0.6392
  983MOL0     C35563   0.024  11.255   7.223 -0.5115 -0.0347 -0.6192
  983MOL0     O35564  -0.321  11.244   7.099  0.1216  0.2344  0.3635
  983MOL0     C35565  -0.230  10.991   6.875  0.1336  0.0815  0.9734
  983MOL0     C35566  -0.279  10.873   6.810  0.4961 -0.0960  0.4248
  983MOL0     N35567  -0.260  10.323   6.484  0.2438 -0.2660  0.4022
  983MOL0     N35568  -0.161  10.249   6.450 -0.4472  0.0548  0.1963
  983MOL0     C35569   1.079  10.035   6.714 -0.1829 -0.0695 -0.1610
  983MOL0     C35570   1.209  10.062   6.714  0.7833 -0.0297  0.0001
  983MOL0     C35571   1.641   9.970   6.736  0.7525 -0.3374 -0.1817
  983MOL0     C35572   1.704   9.863   6.787 -0.3892  0.3046  0.5541
  983MOL0     C35573   1.842   9.851   6.793 -0.2117  0.2988 -0.8116
  983MOL0     C35574   1.932   9.957   6.754  1.4709  0.3979  0.1827
  983MOL0     O35575   2.074   9.944   6.761  0.8721 -0.0006 -1.0947
  983MOL0     C35576   2.142  10.066   6.783  0.4339  0.0848  0.3101
  983MOL0     C35577   2.280  10.031   6.819 -0.0004  0.0878  0.1763
  983MOL0     C35578   2.343  10.146   6.906  0.4053  0.2919  0.0782
  983MOL0     C35579   2.476  10.088   6.955 -0.0090 -0.6250  0.7444
  983MOL0     C35580   2.441  10.006   7.073 -0.7485  0.5058 -0.4031
  983MOL0     C35581   2.429   9.920   7.159  0.1556 -0.1782  0.5299
  983MOL0     C35582   1.870  10.070   6.690 -0.0343 -0.9691 -1.1182
  983MOL0     C35583   1.728  10.078   6.688  1.1816 -0.9602 -0.2001
  983MOL0     C35584   1.670  10.196   6.619 -0.2165  0.6812  0.0400
  983MOL0     H35585   1.323   9.899   6.438  1.2466 -0.7955  1.7264
  983MOL0     H35586   1.069   9.863   6.416 -1.5039 -1.4456  0.8285
  983MOL0     H35587   0.810  10.123   6.591 -0.0844  2.3316  3.6659
  983MOL0     H35588   0.809  10.040   6.749 -3.1524  0.3896  0.1181
  983MOL0     H35589   0.694   9.967   6.484  1.6306  1.5375 -0.1433
  983MOL0     H35590   0.670   9.852   6.624 -0.0603  0.6726  1.4514
  983MOL0     H35591   0.548  10.023   6.750 -2.2404  1.7124  0.3532
  983MOL0     H35592   0.558  10.134   6.609  0.4650  0.3733 -1.0696
  983MOL0     H35593   0.462   9.991   6.469  1.8975 -1.9655  0.0349
  983MOL0     H35594   0.427   9.857   6.578 -1.4001  0.5069  1.6639
  983MOL0     H35595   0.292  10.018   6.730 -0.1408  1.5187  0.1328
  983MOL0     H35596   0.213   9.976   6.574  0.6592 -1.5994 -2.3061
  983MOL0     H35597   0.347  10.240   6.618 -1.0453  0.5947  0.3440
  983MOL0     H35598   0.312  10.164   6.464  2.7875 -1.7040  0.7259
  983MOL0     H35599   0.140  10.314   6.535  2.8617  0.0230 -0.3635
  983MOL0     H35600   0.142  10.256   6.702  0.1467  0.3925 -0.0985
  983MOL0     H35601   0.036  10.070   6.474  1.5558 -1.6539  1.6279
  983MOL0     H35602   0.015  10.052   6.635 -0.2907  0.3673  0.3500
  983MOL0     H35603  -0.162  10.210   6.772 -2.2557  1.3427  0.5376
  983MOL0     H35604  -0.303  10.471   6.758  2.1646 -0.7557 -1.4857
  983MOL0     H35605  -0.392  10.327   6.794 -2.2995 -0.5690 -1.5180
  983MOL0     H35606  -0.462  10.517   6.565 -0.4510  0.9683  0.3500
  983MOL0     H35607  -0.548  10.357   6.598 -2.3579  1.6768 -1.7772
  983MOL0     H35608  -0.661  10.566   6.672 -2.2543 -0.3110  0.9526
  983MOL0     H35609  -0.642  10.436   6.799  1.0903  0.0789 -0.7553
  983MOL0     H35610  -0.605  10.642   6.889 -0.5482 -1.4488 -0.0035
  983MOL0     H35611  -0.461  10.543   6.911  1.1247  1.5263  0.3660
  983MOL0     H35612  -0.534  10.798   7.000 -0.2542 -1.1590 -3.5248
  983MOL0     H35613  -0.520  11.135   7.161  1.2760 -0.2536 -0.7508
  983MOL0     H35614  -0.484  10.988   7.242 -1.0879  1.8210  1.5364
  983MOL0     H35615  -0.615  10.999   7.122  0.1391 -2.3962  1.1376
  983MOL0     H35616  -0.084  11.426   6.958 -1.8877  0.5594  0.6687
  983MOL0     H35617   0.007  11.609   7.078  2.2544 -0.7364 -2.2936
  983MOL0     H35618   0.174  11.735   7.205 -2.0545 -1.9673 -1.4723
  983MOL0     H35619   0.006  11.756   7.261  0.1649  1.1817 -0.9195
  983MOL0     H35620   0.278  11.817   7.408  0.2018  1.3714 -0.0422
  983MOL0     H35621   0.166  11.941   7.369 -0.5186 -0.7229 -1.0839
  983MOL0     H35622   0.164  11.877   7.599 -0.3051  2.4238 -1.9993
  983MOL0     H35623   0.099  11.718   7.570  0.3536 -0.0667  1.1848
  983MOL0     H35624  -0.106  11.809   7.473 -1.3873  2.4700 -0.3314
  983MOL0     H35625  -0.041  11.960   7.446 -1.8699 -0.0647  0.6715
  983MOL0     H35626  -0.203  11.923   7.653 -0.1607  1.7887  0.5728
  983MOL0     H35627  -0.064  11.839   7.734  3.9586  0.4295 -0.4512
  983MOL0     H35628   0.062  12.047   7.713  0.0902  3.7573 -1.1922
  983MOL0     H35629  -0.060  12.058   7.833  2.8183  1.4339  1.6516
  983MOL0     H35630  -0.176  12.224   7.733  0.7815 -0.1640  1.7977
  983MOL0     H35631  -0.132  12.138   7.567  1.5028 -2.2284 -0.1762
  983MOL0     H35632   0.083  12.255   7.576 -1.8464  2.1977 -4.2982
  983MOL0     H35633   0.049  12.312   7.741  0.1507 -1.3786 -0.3846
  983MOL0     H35634   0.110  11.352   7.407 -2.5779  2.7377  1.5948
  983MOL0     H35635   0.034  11.161   7.277  1.6882  1.0592  1.0646
  983MOL0     H35636  -0.138  11.028   6.830  1.7036 -1.3638  2.8238
  983MOL0     H35637  -0.229  10.826   6.726 -0.0259  0.2115 -0.0703
  983MOL0     H35638   1.020  10.069   6.799 -3.2125 -1.1880 -1.6686
  983MOL0     H35639   1.241  10.098   6.812  2.6816 -3.3559  0.7657
  983MOL0     H35640   1.655   9.774   6.824  2.6295 -2.2009 -1.0357
  983MOL0     H35641   1.881   9.759   6.835 -1.2243 -0.5354 -1.6359
  983MOL0     H35642   2.139  10.139   6.701  0.5178 -0.6632 -0.3777
  983MOL0     H35643   2.096  10.118   6.867  3.7981 -0.9882  3.0605
  983MOL0     H35644   2.336  10.007   6.729 -1.0409  0.1847 -0.5106
  983MOL0     H35645   2.278   9.939   6.877 -1.6389 -0.1336 -0.1828
  983MOL0     H35646   2.362  10.237   6.847  1.4685  0.7659  1.0944
  983MOL0     H35647   2.276  10.162   6.990  0.0827 -1.1293  0.1138
  983MOL0     H35648   2.536  10.174   6.985 -0.3571  0.2047 -0.8492
  983MOL0     H35649   2.530  10.039   6.873 -0.4691  1.0009 -0.5679
  983MOL0     H35650   2.414   9.840   7.228  1.5602 -1.5118 -0.6436
  983MOL0     H35651   1.935  10.150   6.657 -1.0262  1.3656  2.1136
  983MOL0     H35652   1.751  10.268   6.608  0.0771  0.4348  0.5495
  983MOL0     H35653   1.636  10.159   6.522 -0.8286  1.0840  0.0970
  983MOL0     H35654   1.582  10.232   6.673 -2.8835 -0.8901 -2.9650
  984MOL0     O35655  10.154   6.567   1.499 -0.6388 -0.1239  0.1942
  984MOL0     C35656  10.100   6.655   1.567  0.0230  0.8854 -1.1631
  984MOL0     O35657  10.147   6.785   1.568 -0.5056  0.4258  0.6403
  984MOL0     C35658  10.248   6.822   1.479  0.0911 -0.1687 -0.2086
  984MOL0     C35659  10.382   6.783   1.489 -0.4934 -0.2254  0.5557
  984MOL0     C35660  10.472   6.818   1.391  0.2881  0.4327 -0.5563
  984MOL0     C35661  10.441   6.913   1.291  0.1455  0.7115 -0.2003
  984MOL0     O35662  10.541   6.958   1.208  0.1663 -0.2113 -0.2928
  984MOL0     C35663  10.506   6.981   1.069 -0.2627 -1.1036 -0.7692
  984MOL0     C35664  10.628   6.935   0.996  0.3361 -0.5199  0.4121
  984MOL0     C35665  10.756   7.017   1.020  0.0719 -0.0964  0.1207
  984MOL0     C35666  10.859   6.925   1.079  0.3992  0.7829  0.4728
  984MOL0     C35667  10.993   7.000   1.085  0.0427  0.3690 -0.2019
  984MOL0     C35668  11.104   6.912   1.132  0.5967  0.0644  0.1754
  984MOL0     C35669  11.230   6.983   1.167 -0.0803 -0.3152  0.3235
  984MOL0     C35670  11.314   7.008   1.042  0.0215 -0.2189  0.9613
  984MOL0     N35671  11.381   7.139   1.056  0.1253  0.4114  0.8027
  984MOL0     C35672  11.465   7.183   1.153  0.5302 -0.1500  0.4598
  984MOL0     C35673  11.492   7.311   1.115 -0.4636 -0.4265 -0.8166
  984MOL0     C35674  11.574   7.406   1.198 -0.1734 -1.3026  0.0924
  984MOL0     C35675  11.642   7.517   1.109  0.9267 -0.1342  0.3163
  984MOL0     C35676  11.733   7.609   1.196 -0.0534  0.0637  0.9108
  984MOL0     C35677  11.739   7.754   1.140 -0.0779  0.3947  0.0147
  984MOL0     O35678  11.835   7.823   1.219  1.1909  0.2543  0.2380
  984MOL0     C35679  11.800   7.954   1.256  0.4309  0.2882  0.1241
  984MOL0     C35680  11.820   7.999   1.394  0.2890  0.4334  0.2224
  984MOL0     C35681  11.821   8.132   1.423  0.7922 -0.1769  0.2304
  984MOL0     C35682  11.860   8.160   1.570  0.7203  0.1488  0.2629
  984MOL0     C35683  11.783   8.227   1.329  0.6282 -0.0351 -0.5034
  984MOL0     C35684  11.757   8.371   1.359 -0.0850  0.1944  0.1974
  984MOL0     O35685  11.814   8.425   1.467  0.0017  0.1670 -0.2748
  984MOL0     C35686  11.805   8.559   1.487 -0.1736 -0.0759  0.2155
  984MOL0     C35687  11.703   8.613   1.558 -0.2939 -0.1501 -0.5779
  984MOL0     C35688  11.710   8.752   1.596 -0.0131 -0.0370  0.2665
  984MOL0     C35689  11.806   8.837   1.538 -0.2794  0.0871 -0.7094
  984MOL0     O35690  11.814   8.972   1.556 -0.1567 -0.0321 -0.6310
  984MOL0     C35691  11.774   9.023   1.688 -0.4448 -0.4674  0.2191
  984MOL0     C35692  11.832   9.168   1.694  0.6446 -1.0424 -0.3602
  984MOL0     C35693  11.787   9.248   1.821 -0.5926  0.3335 -0.9572
  984MOL0     C35694  11.789   9.403   1.786  0.2759  0.6982  0.7855
  984MOL0     C35695  11.708   9.486   1.888 -1.0925 -0.0354  0.1613
  984MOL0     C35696  11.724   9.639   1.864  0.0357 -0.0748  0.4410
  984MOL0     C35697  11.667   9.707   1.994  0.4891  0.5359 -0.2051
  984MOL0     C35698  11.659   9.860   1.970 -0.0876  0.8050 -0.1787
  984MOL0    Cl35699  11.577   9.937   2.109 -0.4441  0.1129  0.2782
  984MOL0     C35700  11.898   8.777   1.451 -0.0503  0.0773 -0.3222
  984MOL0     C35701  11.910   8.640   1.439 -0.0835 -0.7856  0.3046
  984MOL0     O35702  11.662   8.415   1.307  0.5760  0.2352  0.0244
  984MOL0     C35703  11.766   8.184   1.197  0.2883  0.0249  0.9014
  984MOL0     C35704  11.769   8.050   1.161 -0.8385 -0.2867 -0.2048
  984MOL0     N35705  11.422   7.352   1.007  0.2109  0.5746  0.1207
  984MOL0     N35706  11.352   7.247   0.973 -0.3182  0.1023  0.5326
  984MOL0     C35707  10.304   6.946   1.275 -0.0169  0.9412  0.2261
  984MOL0     C35708  10.204   6.901   1.369 -0.4897 -0.1565 -0.2758
  984MOL0     C35709   9.984   6.644   1.658  0.0715 -0.9949 -0.1935
  984MOL0     C35710   9.929   6.752   1.732  0.2019 -0.6219  1.0181
  984MOL0     C35711   9.818   6.731   1.811  0.8001 -0.0430 -0.0940
  984MOL0     C35712   9.752   6.604   1.815  0.2665 -0.3106 -0.0044
  984MOL0     O35713   9.649   6.568   1.895  0.1187  0.3389  0.6291
  984MOL0     C35714   9.577   6.665   1.974  0.3234  0.3508 -0.5363
  984MOL0     C35715   9.646   6.683   2.107  0.3248  0.1923 -0.5585
  984MOL0     C35716   9.686   6.553   2.165 -0.6536  0.2984 -0.4634
  984MOL0     C35717   9.751   6.564   2.303  0.0750 -0.2613 -0.3706
  984MOL0     C35718   9.651   6.565   2.409  0.4827 -0.5850 -0.5848
  984MOL0     C35719   9.571   6.594   2.503  0.2149 -0.1829  0.3416
  984MOL0     C35720   9.801   6.505   1.740 -1.2763  0.1812  0.0291
  984MOL0     C35721   9.912   6.522   1.660 -0.3891 -0.2319 -0.6643
  984MOL0     C35722   9.947   6.399   1.584  0.9803  0.2874  0.7735
  984MOL0     H35723  10.418   6.714   1.565 -0.6221 -0.9749 -0.0459
  984MOL0     H35724  10.576   6.792   1.408  1.1678  2.0342 -3.0077
  984MOL0     H35725  10.495   7.089   1.054  3.1213 -0.0422  2.8356
  984MOL0     H35726  10.419   6.927   1.030 -0.6859  1.0757 -3.0709
  984MOL0     H35727  10.640   6.830   1.025 -0.3676 -0.5326  0.6897
  984MOL0     H35728  10.603   6.938   0.890  2.5385  0.8934 -0.1348
  984MOL0     H35729  10.795   7.052   0.924 -0.9512  1.8714  0.3776
  984MOL0     H35730  10.745   7.098   1.093  0.6579 -1.6364  1.9844
  984MOL0     H35731  10.830   6.887   1.177 -0.8316  1.3491  0.3396
  984MOL0     H35732  10.876   6.841   1.011 -0.6560  0.9556 -0.0220
  984MOL0     H35733  10.988   7.081   1.158 -0.4610  0.6221 -0.5171
  984MOL0     H35734  11.021   7.033   0.984 -0.1097  0.1984 -0.3004
  984MOL0     H35735  11.077   6.853   1.220 -0.5637  1.3035  0.6898
  984MOL0     H35736  11.122   6.847   1.046 -0.8464  1.2851 -1.1141
  984MOL0     H35737  11.291   6.921   1.234  0.6025 -0.7511 -0.6786
  984MOL0     H35738  11.207   7.074   1.223 -2.5797 -0.3873 -0.4346
  984MOL0     H35739  11.392   6.932   1.041  0.3505  0.0776  2.1673
  984MOL0     H35740  11.272   7.008   0.941 -0.1587  0.3532  1.0275
  984MOL0     H35741  11.510   7.122   1.231  0.9358 -0.3719  0.0586
  984MOL0     H35742  11.650   7.350   1.254  2.4293 -1.1749 -3.0322
  984MOL0     H35743  11.502   7.449   1.268  0.1014  0.4234 -0.6257
  984MOL0     H35744  11.702   7.469   1.031 -0.5089  1.7352 -2.0917
  984MOL0     H35745  11.564   7.574   1.057  0.1406  0.3794  1.9965
  984MOL0     H35746  11.680   7.621   1.291  1.0198  0.4263  1.4684
  984MOL0     H35747  11.835   7.575   1.214 -0.1660 -1.6053 -1.2214
  984MOL0     H35748  11.775   7.759   1.037  0.0332  0.0692  0.0359
  984MOL0     H35749  11.640   7.799   1.131 -0.7990 -1.0418  0.4701
  984MOL0     H35750  11.857   7.928   1.467  2.3769  1.2547  0.0348
  984MOL0     H35751  11.772   8.202   1.621  0.9071  1.0364 -0.1151
  984MOL0     H35752  11.955   8.214   1.576  0.2075  1.2199 -0.7827
  984MOL0     H35753  11.891   8.075   1.630  2.8198  0.7026  0.0200
  984MOL0     H35754  11.627   8.549   1.602  1.0936 -2.1121 -0.9115
  984MOL0     H35755  11.635   8.791   1.664 -1.7495 -2.9503  0.1858
  984MOL0     H35756  11.671   9.006   1.720  0.3481 -4.3525  1.1153
  984MOL0     H35757  11.838   8.971   1.759  3.2679  0.9598 -1.8209
  984MOL0     H35758  11.941   9.162   1.684  1.1560  4.2839 -0.8824
  984MOL0     H35759  11.802   9.219   1.602  1.5323  0.4514  0.1424
  984MOL0     H35760  11.849   9.238   1.910  0.1788  1.1159 -1.3951
  984MOL0     H35761  11.688   9.207   1.847 -0.2515 -0.1555 -0.4094
  984MOL0     H35762  11.724   9.403   1.698 -1.8407 -2.1110  2.1551
  984MOL0     H35763  11.890   9.440   1.768 -0.2096  1.4985 -0.4332
  984MOL0     H35764  11.600   9.467   1.891 -1.0446 -0.2836  2.8231
  984MOL0     H35765  11.740   9.455   1.988 -1.8341 -1.2577  0.0478
  984MOL0     H35766  11.663   9.662   1.776  0.3314  0.5367  0.3922
  984MOL0     H35767  11.831   9.662   1.854  0.2057 -0.2902  1.6631
  984MOL0     H35768  11.739   9.693   2.075  1.0392  1.3274 -0.5339
  984MOL0     H35769  11.569   9.676   2.029 -0.0971  1.0280 -1.3537
  984MOL0     H35770  11.603   9.887   1.880 -0.6317  1.7912  0.4470
  984MOL0     H35771  11.762   9.897   1.966 -0.6214  2.2632 -2.7391
  984MOL0     H35772  11.966   8.848   1.407  0.1958  0.0664  0.0367
  984MOL0     H35773  11.985   8.598   1.373  1.7598  3.1608 -0.4176
  984MOL0     H35774  11.758   8.266   1.126  0.2840 -1.0634 -0.3915
  984MOL0     H35775  11.772   8.010   1.060 -0.7314 -1.6998  0.3380
  984MOL0     H35776  10.262   7.005   1.194 -0.8630 -1.2195 -0.9888
  984MOL0     H35777  10.101   6.935   1.355 -0.0131  0.1906 -4.0480
  984MOL0     H35778   9.976   6.851   1.734  1.2966 -0.9608 -2.3714
  984MOL0     H35779   9.775   6.810   1.871  1.5652  0.8326 -0.6638
  984MOL0     H35780   9.561   6.767   1.935  3.0576  1.4587  0.9916
  984MOL0     H35781   9.479   6.621   1.993  0.3979 -0.5411 -2.0339
  984MOL0     H35782   9.583   6.742   2.173 -0.9218  0.9444 -2.3408
  984MOL0     H35783   9.737   6.738   2.083  0.6891 -0.3539 -0.4517
  984MOL0     H35784   9.595   6.493   2.167 -0.5486  0.0949 -1.3591
  984MOL0     H35785   9.759   6.508   2.097  0.7518  0.0848  1.1209
  984MOL0     H35786   9.804   6.660   2.302  2.1186 -1.3134 -2.5266
  984MOL0     H35787   9.822   6.482   2.319 -1.4577 -1.7020 -0.6499
  984MOL0     H35788   9.509   6.631   2.582 -0.1251  0.1485 -0.0755
  984MOL0     H35789   9.747   6.412   1.752 -2.0564  0.7187  0.8522
  984MOL0     H35790   9.884   6.312   1.604  0.2793  0.6940  0.4033
  984MOL0     H35791   9.941   6.413   1.475 -0.5259 -1.3685  0.5970
  984MOL0     H35792  10.052   6.378   1.603  1.1265 -0.9523 -1.0778
  985MOL0     O35793   3.745  10.367   9.447  0.4062  0.1363 -0.3953
  985MOL0     C35794   3.631  10.409   9.477  0.2768  0.6715 -0.2001
  985MOL0     O35795   3.592  10.464   9.594  0.3026  0.4787  0.4995
  985MOL0     C35796   3.639  10.421   9.716 -0.1365  0.8776 -0.5337
  985MOL0     C35797   3.688  10.288   9.743 -0.5199  0.6616  0.2334
  985MOL0     C35798   3.758  10.253   9.855  0.5660  0.0914  0.3364
  985MOL0     C35799   3.767  10.341   9.959 -0.5133 -0.2045  0.5846
  985MOL0     O35800   3.841  10.315  10.066 -0.1505  0.2540  0.8113
  985MOL0     C35801   3.828  10.187  10.127  0.4000 -0.2393  0.3822
  985MOL0     C35802   3.936  10.166  10.234 -1.1488  0.1411 -0.2363
  985MOL0     C35803   3.930  10.034  10.298  0.1270 -0.0549 -0.8044
  985MOL0     C35804   3.802  10.027  10.382 -0.2949  0.2953 -0.8826
  985MOL0     C35805   3.802   9.910  10.487 -0.3776 -0.3649 -0.4141
  985MOL0     C35806   3.774   9.778  10.407 -0.9845 -1.0315 -0.4646
  985MOL0     C35807   3.755   9.659  10.503 -0.0211  0.2106  0.2835
  985MOL0     C35808   3.887   9.602  10.555  0.4149  0.4344  0.4125
  985MOL0     N35809   3.855   9.494  10.647  0.0932 -0.1662  0.5849
  985MOL0     C35810   3.825   9.371  10.597  1.6668  0.0198  0.9017
  985MOL0     C35811   3.768   9.292  10.694  0.0451 -0.6338  0.0565
  985MOL0     C35812   3.710   9.160  10.687  0.0294 -0.6545  0.2693
  985MOL0     C35813   3.798   9.048  10.728  0.4238  0.9274  0.2678
  985MOL0     C35814   3.790   9.007  10.881  0.7832  0.1669 -0.9057
  985MOL0     C35815   3.872   8.874  10.909  0.0612 -0.4982 -0.1383
  985MOL0     O35816   3.834   8.811  11.026  0.3310  0.4821 -0.8924
  985MOL0     C35817   3.920   8.727  11.095 -1.0164 -0.4735  0.0409
  985MOL0     C35818   3.879   8.702  11.226  0.3629  0.1255 -0.7036
  985MOL0     C35819   3.944   8.595  11.300  0.0679 -0.5243 -0.0638
  985MOL0     C35820   3.889   8.571  11.438  0.1268 -0.2896  0.3582
  985MOL0     C35821   4.066   8.536  11.257  0.3119 -0.3152  0.5324
  985MOL0     C35822   4.151   8.433  11.330  0.7698 -0.2469  0.4267
  985MOL0     O35823   4.272   8.418  11.271 -0.1285  0.4894 -0.0994
  985MOL0     C35824   4.383   8.357  11.339  0.2369 -0.6870 -0.2905
  985MOL0     C35825   4.371   8.280  11.454 -0.1323 -0.7144  0.0270
  985MOL0     C35826   4.489   8.232  11.522  0.2083 -0.2080 -0.3236
  985MOL0     C35827   4.618   8.246  11.463  0.4267  0.2136  0.4445
  985MOL0     O35828   4.727   8.184  11.511 -0.1218  0.8818 -0.4971
  985MOL0     C35829   4.702   8.062  11.586 -0.0554 -0.5655 -0.1475
  985MOL0     C35830   4.824   7.981  11.618 -0.5296  0.3291 -0.2512
  985MOL0     C35831   4.906   7.943  11.498 -0.3713 -1.5431  0.5768
  985MOL0     C35832   5.038   7.862  11.519  0.3054 -0.1273 -0.4604
  985MOL0     C35833   5.102   7.817  11.380 -0.3841  0.7443 -0.2631
  985MOL0     C35834   5.038   7.680  11.344  0.6159 -0.5541 -0.5574
  985MOL0     C35835   5.085   7.656  11.196 -0.5016 -0.4671  0.6272
  985MOL0     C35836   5.077   7.508  11.176  0.9922  0.6130 -0.1469
  985MOL0    Cl35837   5.217   7.414  11.243 -0.2220 -0.3261  0.3902
  985MOL0     C35838   4.621   8.328  11.351  0.4391 -0.6100 -0.1993
  985MOL0     C35839   4.510   8.376  11.285 -0.2614  0.3584  0.3013
  985MOL0     O35840   4.107   8.374  11.426 -0.2927  0.5566 -0.2964
  985MOL0     C35841   4.104   8.577  11.124 -0.5064  0.3378  0.8577
  985MOL0     C35842   4.031   8.664  11.047  0.0149  0.3699  0.5543
  985MOL0     N35843   3.781   9.368  10.812 -0.4155 -0.9048  0.5479
  985MOL0     N35844   3.843   9.488  10.784  0.2346  0.4473  0.3619
  985MOL0     C35845   3.712  10.474   9.936  0.1721  0.5975  0.4859
  985MOL0     C35846   3.645  10.508   9.823 -0.4672  0.0481 -0.0942
  985MOL0     C35847   3.534  10.407   9.366 -1.0870  0.0429  0.8792
  985MOL0     C35848   3.454  10.523   9.342  1.1538  0.2962  0.0821
  985MOL0     C35849   3.356  10.522   9.240 -0.4401  0.2292  1.1782
  985MOL0     C35850   3.331  10.408   9.165 -1.0509 -0.4806 -0.4705
  985MOL0     O35851   3.232  10.408   9.078  0.7055 -0.6845 -0.4511
  985MOL0     C35852   3.283  10.385   8.949 -0.8171 -0.1384  0.9151
  985MOL0     C35853   3.182  10.404   8.835 -0.9707 -0.8026  0.2390
  985MOL0     C35854   3.056  10.325   8.866 -1.1878 -0.1567  0.5578
  985MOL0     C35855   2.962  10.331   8.750 -0.7597 -0.1230  0.1909
  985MOL0     C35856   2.856  10.227   8.771 -0.0865  0.5078  0.5924
  985MOL0     C35857   2.769  10.147   8.788 -0.3529  0.2280 -0.6689
  985MOL0     C35858   3.389  10.290   9.192  0.3123 -0.5206  0.2238
  985MOL0     C35859   3.501  10.290   9.282  0.0978 -0.0571 -0.6813
  985MOL0     C35860   3.572  10.158   9.294 -0.3117 -0.1745  0.5419
  985MOL0     H35861   3.675  10.224   9.657 -1.4999 -0.7448  1.3704
  985MOL0     H35862   3.801  10.153   9.853  1.8111  0.5958  0.9684
  985MOL0     H35863   3.836  10.102  10.058 -3.0794 -1.6075  1.4214
  985MOL0     H35864   3.732  10.188  10.180 -0.0546  1.0102 -0.4263
  985MOL0     H35865   4.023  10.161  10.168 -1.6534  1.8959 -1.0913
  985MOL0     H35866   3.939  10.245  10.310 -2.5523  1.9066 -1.8802
  985MOL0     H35867   3.939   9.953  10.225  2.3137  1.0621 -1.8616
  985MOL0     H35868   4.011  10.006  10.366 -0.5401 -2.7456 -1.0219
  985MOL0     H35869   3.782  10.123  10.431 -0.0816  1.3866 -2.8470
  985MOL0     H35870   3.714  10.012  10.320  1.2587 -0.3017 -3.0674
  985MOL0     H35871   3.720   9.936  10.553  0.7298  1.9122  0.1868
  985MOL0     H35872   3.892   9.912  10.550 -0.7167 -0.2322  0.0667
  985MOL0     H35873   3.685   9.799  10.347 -2.0250  0.8462  1.5927
  985MOL0     H35874   3.851   9.748  10.335 -1.4119 -1.8087 -0.6141
  985MOL0     H35875   3.704   9.581  10.446 -0.2417 -0.0363  0.8189
  985MOL0     H35876   3.694   9.679  10.592  0.8835  0.9204  0.7612
  985MOL0     H35877   3.936   9.556  10.470 -0.3816 -3.0869  1.6669
  985MOL0     H35878   3.939   9.680  10.611  0.1128 -0.2719  1.7402
  985MOL0     H35879   3.835   9.336  10.495  0.6316 -3.0768  1.7498
  985MOL0     H35880   3.701   9.147  10.579 -0.5783 -1.4002  0.4047
  985MOL0     H35881   3.611   9.165  10.733 -0.0118  1.1005  0.0663
  985MOL0     H35882   3.756   8.963  10.673 -4.1341  1.5948  2.1903
  985MOL0     H35883   3.901   9.063  10.696  1.0792  0.1867  1.9319
  985MOL0     H35884   3.831   9.081  10.950 -0.5782 -0.9326  1.1805
  985MOL0     H35885   3.685   8.989  10.905  1.3132  0.5017  1.9520
  985MOL0     H35886   3.855   8.800  10.830  1.3411  2.2304 -3.1770
  985MOL0     H35887   3.973   8.915  10.902 -1.7278  4.4926 -0.0984
  985MOL0     H35888   3.796   8.766  11.255  1.5817  0.6691  1.9388
  985MOL0     H35889   3.862   8.465  11.445  1.5356 -0.7493 -0.5522
  985MOL0     H35890   3.808   8.638  11.466  1.6429  2.1797 -0.8319
  985MOL0     H35891   3.966   8.594  11.513 -1.5035 -1.6700  2.5961
  985MOL0     H35892   4.276   8.256  11.500 -0.7701  0.5469 -0.5809
  985MOL0     H35893   4.469   8.192  11.621 -0.3923  2.7800  0.8635
  985MOL0     H35894   4.642   8.082  11.675 -0.3849 -1.7880 -0.0678
  985MOL0     H35895   4.639   7.994  11.527 -1.1200  1.7368 -1.8077
  985MOL0     H35896   4.888   8.044  11.680 -1.0188  0.5614  0.0256
  985MOL0     H35897   4.799   7.899  11.686  0.5068  0.7156  0.6216
  985MOL0     H35898   4.922   8.033  11.438 -2.3021 -0.7516  1.1772
  985MOL0     H35899   4.833   7.878  11.448  0.9329 -0.6662 -2.7342
  985MOL0     H35900   5.009   7.774  11.577  1.7968 -0.4094 -0.1001
  985MOL0     H35901   5.091   7.917  11.597 -1.9986 -0.5927  1.5323
  985MOL0     H35902   5.060   7.887  11.306  0.1252  2.6894  1.2056
  985MOL0     H35903   5.210   7.805  11.392 -0.5244 -1.5057 -0.8058
  985MOL0     H35904   4.929   7.685  11.346  0.6453 -0.1780  0.7658
  985MOL0     H35905   5.077   7.610  11.419 -0.1046 -0.8606 -0.4655
  985MOL0     H35906   5.190   7.680  11.179 -0.2785 -1.2764  0.8079
  985MOL0     H35907   5.038   7.720  11.121  1.1330  0.6828  0.5366
  985MOL0     H35908   5.053   7.485  11.072  0.8633 -2.3669  0.4634
  985MOL0     H35909   4.987   7.470  11.225 -0.3679  0.2234 -2.7926
  985MOL0     H35910   4.719   8.356  11.314 -0.2944  1.3220 -0.8538
  985MOL0     H35911   4.502   8.440  11.197 -1.8023 -0.2229 -0.0105
  985MOL0     H35912   4.193   8.534  11.080 -1.7035 -1.9417  0.5019
  985MOL0     H35913   4.077   8.684  10.951  2.1067  1.2869  1.6932
  985MOL0     H35914   3.698  10.557  10.006 -1.2629  0.1146  0.7950
  985MOL0     H35915   3.591  10.602   9.814 -4.6982 -1.7101  3.4259
  985MOL0     H35916   3.478  10.612   9.399 -2.3361  1.0586  0.5216
  985MOL0     H35917   3.301  10.613   9.220  0.6729  0.4214 -1.3317
  985MOL0     H35918   3.368  10.453   8.941 -1.1495  0.1073 -3.5218
  985MOL0     H35919   3.327  10.286   8.934 -0.2786  0.2004  0.1608
  985MOL0     H35920   3.225  10.377   8.738  1.7091 -0.8824  1.3635
  985MOL0     H35921   3.153  10.509   8.836 -3.8255 -1.4769 -1.4626
  985MOL0     H35922   3.077  10.221   8.892  0.5816  0.3403  1.2208
  985MOL0     H35923   3.015  10.384   8.948  2.1062  4.3624 -0.6385
  985MOL0     H35924   3.010  10.327   8.651 -1.3694 -1.2169 -0.0867
  985MOL0     H35925   2.912  10.428   8.754 -3.5780 -1.4761  0.4104
  985MOL0     H35926   2.694  10.072   8.805  0.9770 -0.2617  5.0021
  985MOL0     H35927   3.356  10.200   9.141 -3.3495  0.5761  0.3556
  985MOL0     H35928   3.532  10.096   9.375 -1.9652 -0.3338 -0.3575
  985MOL0     H35929   3.576  10.097   9.204  3.5692  2.7470 -1.6107
  985MOL0     H35930   3.677  10.168   9.323  0.1686  1.1530 -1.4458
  986MOL0     O35931   9.062   4.962  10.383  0.6559 -0.1173 -0.3133
  986MOL0     C35932   9.069   4.997  10.265  0.5853  0.3527 -0.5150
  986MOL0     O35933   9.095   4.912  10.159 -0.6746 -0.5163  0.0939
  986MOL0     C35934   9.124   4.774  10.172  0.2525 -0.0359 -0.2898
  986MOL0     C35935   9.216   4.712  10.086 -0.0492  0.7545 -0.3729
  986MOL0     C35936   9.226   4.572  10.076  0.7211 -0.5316  0.4161
  986MOL0     C35937   9.150   4.492  10.157  0.3539 -1.0422  0.1459
  986MOL0     O35938   9.168   4.356  10.139 -0.2020 -0.1667 -0.3365
  986MOL0     C35939   9.090   4.264  10.217  0.1434  0.6966  0.6063
  986MOL0     C35940   9.158   4.124  10.202  0.1544 -0.0297  0.4105
  986MOL0     C35941   9.123   4.067  10.060  0.3381  0.0811  0.3236
  986MOL0     C35942   9.176   3.917  10.038 -0.3514 -0.4393 -0.1743
  986MOL0     C35943   9.180   3.904   9.889 -1.2220 -0.6372 -0.1189
  986MOL0     C35944   9.211   3.767   9.828  0.1257 -0.1152  0.3739
  986MOL0     C35945   9.328   3.700   9.911 -0.1886 -0.4672 -0.4471
  986MOL0     C35946   9.431   3.639   9.815  0.2248 -0.3081 -0.7650
  986MOL0     N35947   9.529   3.561   9.894  0.1155  0.1139 -0.2546
  986MOL0     C35948   9.570   3.575  10.024 -0.6336 -0.1458  0.4908
  986MOL0     C35949   9.654   3.467  10.043  1.1715 -0.2425 -0.2730
  986MOL0     C35950   9.750   3.445  10.152  0.2389 -0.1502  0.0018
  986MOL0     C35951   9.675   3.419  10.282  0.6724 -0.3583 -1.0604
  986MOL0     C35952   9.780   3.402  10.396 -0.1476 -0.2775  0.1287
  986MOL0     C35953   9.865   3.277  10.372 -0.2085  0.2007  0.0314
  986MOL0     O35954   9.924   3.250  10.498  0.0986  0.1260  0.3726
  986MOL0     C35955  10.008   3.145  10.502  0.5244  0.1821  0.2272
  986MOL0     C35956  10.011   3.076  10.626 -0.1893  0.0924 -0.6804
  986MOL0     C35957  10.099   2.970  10.655  1.2719  0.2872  0.1477
  986MOL0     C35958  10.089   2.911  10.794  0.6554  0.4768 -0.3041
  986MOL0     C35959  10.194   2.928  10.550 -0.2319 -0.3270 -0.2102
  986MOL0     C35960  10.294   2.824  10.573  0.0440  0.6063 -0.3506
  986MOL0     O35961  10.335   2.808  10.702 -0.2700  0.3131  0.1661
  986MOL0     C35962  10.466   2.774  10.724  0.0751 -0.3985  0.6057
  986MOL0     C35963  10.544   2.661  10.693  0.2922 -0.5197 -0.2498
  986MOL0     C35964  10.681   2.655  10.727 -0.0704  0.7944 -0.7538
  986MOL0     C35965  10.734   2.748  10.810  0.2235  0.1484  0.3986
  986MOL0     O35966  10.868   2.738  10.853  0.6881  0.3863  0.0739
  986MOL0     C35967  10.969   2.728  10.753  0.4801 -0.6404 -0.9134
  986MOL0     C35968  11.097   2.783  10.832  0.2457  0.1258  0.4207
  986MOL0     C35969  11.223   2.772  10.740 -0.0332  0.7624 -0.7033
  986MOL0     C35970  11.244   2.623  10.699  0.3720 -0.3512 -0.1532
  986MOL0     C35971  11.347   2.599  10.591 -0.1333  0.4606 -0.3960
  986MOL0     C35972  11.493   2.593  10.644  1.1302 -0.8125 -0.2211
  986MOL0     C35973  11.598   2.593  10.530 -1.4740  0.6225 -0.0175
  986MOL0     C35974  11.744   2.637  10.565 -0.7282  0.7734  0.0744
  986MOL0    Cl35975  11.740   2.809  10.608  0.3947 -0.2970 -0.3666
  986MOL0     C35976  10.658   2.857  10.848  0.3141  0.2116 -0.2322
  986MOL0     C35977  10.524   2.870  10.803 -0.4079 -0.3133 -0.0657
  986MOL0     O35978  10.336   2.760  10.479  0.4929 -0.4806 -0.2177
  986MOL0     C35979  10.190   2.988  10.424 -0.4407 -0.2184 -0.3485
  986MOL0     C35980  10.100   3.099  10.407 -0.3495 -0.0914  0.8272
  986MOL0     N35981   9.650   3.384   9.933  0.6256 -0.1043 -0.0321
  986MOL0     N35982   9.567   3.438   9.850 -1.2329  0.8883  0.1667
  986MOL0     C35983   9.065   4.552  10.248  2.0281 -0.6881  0.0262
  986MOL0     C35984   9.047   4.690  10.254 -0.4020  0.1616 -0.4752
  986MOL0     C35985   9.046   5.140  10.211  0.1196  1.1638 -0.4236
  986MOL0     C35986   9.029   5.162  10.074 -0.0184 -0.0604 -0.1619
  986MOL0     C35987   9.009   5.295  10.036  0.3919  0.1277 -0.3417
  986MOL0     C35988   9.010   5.412  10.119  0.5040 -0.5214 -0.1779
  986MOL0     O35989   8.994   5.543  10.073 -0.4293  0.2197  0.3972
  986MOL0     C35990   8.988   5.561   9.928  0.5584  0.8954 -0.6702
  986MOL0     C35991   8.995   5.706   9.890  0.3967  0.2830 -0.3345
  986MOL0     C35992   8.962   5.733   9.734  0.7046  0.5843 -0.7277
  986MOL0     C35993   8.814   5.741   9.717  0.5109  1.1817  0.3169
  986MOL0     C35994   8.765   5.860   9.780 -0.0894  1.1137  0.2530
  986MOL0     C35995   8.714   5.965   9.807 -0.9150 -0.0318 -0.1132
  986MOL0     C35996   9.019   5.384  10.250 -0.0784  0.3982 -0.5895
  986MOL0     C35997   9.047   5.250  10.301 -0.1800 -0.5657  0.0546
  986MOL0     C35998   9.080   5.246  10.448  0.2515 -0.2323  0.2971
  986MOL0     H35999   9.271   4.784  10.027  0.0604  0.5515 -0.5185
  986MOL0     H36000   9.292   4.544   9.994  0.1782  0.5204 -0.4080
  986MOL0     H36001   8.990   4.244  10.178 -0.2436 -1.7617  2.6190
  986MOL0     H36002   9.092   4.281  10.325 -0.7297 -0.9748  0.9123
  986MOL0     H36003   9.266   4.136  10.213  0.3343  0.4010 -1.4359
  986MOL0     H36004   9.122   4.056  10.280  0.1394 -0.7941 -0.2477
  986MOL0     H36005   9.016   4.048  10.053  0.6223 -2.5878  1.8052
  986MOL0     H36006   9.155   4.129   9.975  0.4046 -3.2340 -2.2685
  986MOL0     H36007   9.274   3.921  10.087 -0.2206 -0.0360 -0.4607
  986MOL0     H36008   9.108   3.849  10.089 -0.1271  0.7583  1.8355
  986MOL0     H36009   9.255   3.977   9.859 -0.9860 -0.7299  0.2447
  986MOL0     H36010   9.087   3.938   9.842 -1.0757 -1.1764 -0.8303
  986MOL0     H36011   9.122   3.703   9.830 -1.8574  2.2230 -2.9977
  986MOL0     H36012   9.241   3.782   9.724 -1.0929  0.6359  0.1160
  986MOL0     H36013   9.271   3.636   9.979 -1.8083  1.4981  0.1749
  986MOL0     H36014   9.386   3.768   9.974  1.2036  0.5154 -2.6645
  986MOL0     H36015   9.395   3.584   9.727  0.3641  2.0236 -2.3865
  986MOL0     H36016   9.489   3.720   9.770 -1.3976  0.5655 -1.3628
  986MOL0     H36017   9.550   3.659  10.090 -4.5889  0.1191 -0.7953
  986MOL0     H36018   9.817   3.532  10.151 -0.4254  0.3701  0.2136
  986MOL0     H36019   9.821   3.367  10.123 -1.2927 -1.2150 -1.0745
  986MOL0     H36020   9.617   3.506  10.315 -2.2240 -2.4783 -0.1122
  986MOL0     H36021   9.607   3.333  10.286 -1.5607  1.3675  2.6030
  986MOL0     H36022   9.852   3.484  10.409 -2.3909  1.9453 -0.7530
  986MOL0     H36023   9.721   3.402  10.488 -0.1603 -1.3349  0.1289
  986MOL0     H36024   9.803   3.193  10.340 -0.1192 -0.2742  1.0481
  986MOL0     H36025   9.941   3.295  10.295  2.0644 -3.7781  1.0349
  986MOL0     H36026   9.946   3.124  10.699  1.1890  2.6502 -1.0138
  986MOL0     H36027  10.095   2.802  10.794  2.9589  0.5293  1.2008
  986MOL0     H36028   9.995   2.941  10.841  1.3174  1.6523  0.3243
  986MOL0     H36029  10.175   2.956  10.846 -0.4690 -0.3819  2.4537
  986MOL0     H36030  10.507   2.591  10.620  3.5121 -1.0631 -1.5315
  986MOL0     H36031  10.736   2.567  10.695 -2.5388 -1.7517  1.3850
  986MOL0     H36032  10.964   2.624  10.719 -0.5879 -1.1802  0.7820
  986MOL0     H36033  10.940   2.797  10.673 -0.9995 -0.9427 -0.6740
  986MOL0     H36034  11.081   2.886  10.865  1.7251  0.4473  0.2202
  986MOL0     H36035  11.116   2.724  10.922 -0.6067 -0.8322 -0.0097
  986MOL0     H36036  11.300   2.809  10.808 -2.1873  1.0387  1.7890
  986MOL0     H36037  11.211   2.836  10.652 -0.8783 -0.1156 -1.2520
  986MOL0     H36038  11.154   2.579  10.656 -0.2986 -1.0437  1.8303
  986MOL0     H36039  11.281   2.562  10.782 -0.2414  0.3550  0.6683
  986MOL0     H36040  11.320   2.517  10.524 -1.7881  2.8582 -2.8955
  986MOL0     H36041  11.324   2.686  10.529  0.7641  0.9793 -0.0310
  986MOL0     H36042  11.501   2.504  10.707 -1.9585 -0.5078  0.7845
  986MOL0     H36043  11.506   2.684  10.704 -2.1326 -0.4294  0.0868
  986MOL0     H36044  11.565   2.650  10.443  0.7292 -0.6826 -1.8213
  986MOL0     H36045  11.611   2.487  10.506 -2.1353 -0.1294  2.5595
  986MOL0     H36046  11.808   2.626  10.477 -1.1688  2.5304 -0.5050
  986MOL0     H36047  11.784   2.570  10.642 -2.4705 -0.1709  0.2248
  986MOL0     H36048  10.704   2.927  10.918 -0.4317  1.4010 -0.8993
  986MOL0     H36049  10.473   2.962  10.832  2.1767  1.2101 -0.0248
  986MOL0     H36050  10.261   2.961  10.346  2.2011  4.7251 -0.0338
  986MOL0     H36051  10.101   3.149  10.311  0.9182 -0.1605  0.7928
  986MOL0     H36052   9.005   4.500  10.322  0.6612  0.1325 -0.4634
  986MOL0     H36053   8.968   4.734  10.314 -0.0898 -3.0541  2.6248
  986MOL0     H36054   9.006   5.087   9.999 -0.6698  1.4889 -1.5908
  986MOL0     H36055   8.992   5.303   9.929  0.8426 -2.6662 -0.7154
  986MOL0     H36056   9.073   5.518   9.873  2.0799  5.3969 -2.3052
  986MOL0     H36057   8.902   5.508   9.886  2.5908 -2.9524 -0.4517
  986MOL0     H36058   9.101   5.731   9.896  0.3816  0.4667 -0.7886
  986MOL0     H36059   8.936   5.775   9.951  0.6988  0.9293 -0.7564
  986MOL0     H36060   8.999   5.831   9.704  2.9344 -0.0476 -0.2080
  986MOL0     H36061   9.012   5.653   9.680  2.3645 -1.4076  3.3505
  986MOL0     H36062   8.771   5.647   9.753  1.3433  1.8554  3.4105
  986MOL0     H36063   8.786   5.753   9.612  1.6721  3.2919  0.1978
  986MOL0     H36064   8.662   6.058   9.821  0.7748  0.4705  4.3895
  986MOL0     H36065   9.005   5.471  10.313 -2.0163 -0.4522  0.2428
  986MOL0     H36066   9.010   5.174  10.491 -0.0683 -2.6878 -3.8017
  986MOL0     H36067   9.186   5.219  10.453  0.5827  1.2316  2.2229
  986MOL0     H36068   9.078   5.336  10.511 -0.4278 -2.5485  3.8314
  987MOL0     O36069  10.748  10.259   2.533 -0.4829  0.1138 -0.2142
  987MOL0     C36070  10.643  10.241   2.587 -0.9164 -0.8674 -0.8848
  987MOL0     O36071  10.622  10.184   2.719  0.1924  0.3333  0.3752
  987MOL0     C36072  10.725  10.163   2.811  0.9718 -0.2465  0.0543
  987MOL0     C36073  10.774  10.042   2.830  0.5136  0.7007  0.3587
  987MOL0     C36074  10.888  10.025   2.915 -0.0241 -0.6804  0.0937
  987MOL0     C36075  10.935  10.136   2.985 -1.4434 -1.0926 -0.3206
  987MOL0     O36076  11.045  10.107   3.055  0.3516 -0.0129 -0.7978
  987MOL0     C36077  11.091  10.205   3.154  0.3609  0.0435 -0.3617
  987MOL0     C36078  11.215  10.149   3.228 -0.1570  0.7677  0.2597
  987MOL0     C36079  11.340  10.125   3.143 -0.3159 -0.4869 -0.1786
  987MOL0     C36080  11.400  10.262   3.098  0.0662 -0.2655 -0.5834
  987MOL0     C36081  11.541  10.244   3.047 -0.3815 -0.6864  0.2926
  987MOL0     C36082  11.597  10.379   3.003 -0.1549 -0.6666 -0.9376
  987MOL0     C36083  11.748  10.359   2.973 -0.2547 -0.1930 -0.1919
  987MOL0     C36084  11.809  10.479   2.897 -0.0957  0.1296  0.1353
  987MOL0     N36085  11.941  10.485   2.932 -0.3351 -0.6281  0.4088
  987MOL0     C36086  11.993  10.555   3.046 -0.7761  0.4194  0.0075
  987MOL0     C36087  12.131  10.512   3.047  0.4422  0.4766  0.2856
  987MOL0     C36088  12.225  10.524   3.164  0.2248 -0.2314 -0.1333
  987MOL0     C36089  12.257  10.671   3.199 -0.5248  0.0240  0.0157
  987MOL0     C36090  12.354  10.681   3.315 -0.3304  0.8992  0.4794
  987MOL0     C36091  12.478  10.584   3.320 -0.0140  1.2239 -0.2332
  987MOL0     O36092  12.563  10.614   3.215  0.4118 -0.1525 -0.5368
  987MOL0     C36093  12.668  10.693   3.232 -0.7668  0.1456 -0.2352
  987MOL0     C36094  12.751  10.708   3.341  0.1138 -0.7058 -0.7847
  987MOL0     C36095  12.861  10.787   3.350 -0.0692 -0.3767  0.7729
  987MOL0     C36096  12.941  10.777   3.480  0.1220  0.3239  0.1066
  987MOL0     C36097  12.896  10.865   3.232 -0.4975  0.2227 -0.2887
  987MOL0     C36098  13.033  10.945   3.226  0.6490 -0.3482  0.0396
  987MOL0     O36099  13.071  10.988   3.093  0.4238 -0.6811 -0.7849
  987MOL0     C36100  13.203  10.959   3.053  0.1053  0.3469 -0.4679
  987MOL0     C36101  13.308  10.907   3.132  0.2125  0.2639  1.1800
  987MOL0     C36102  13.427  10.887   3.067 -0.1062  0.1534  0.4473
  987MOL0     C36103  13.458  10.930   2.932 -0.0502  0.2515  0.4361
  987MOL0     O36104  13.584  10.927   2.872  0.0942  0.4942 -0.0681
  987MOL0     C36105  13.685  10.970   2.959 -0.4903 -0.3205  0.3766
  987MOL0     C36106  13.815  10.969   2.876 -0.0078  1.0701 -0.0364
  987MOL0     C36107  13.823  11.093   2.780  0.1033 -0.1208 -0.6846
  987MOL0     C36108  13.964  11.112   2.714 -0.4952  0.4681 -1.1395
  987MOL0     C36109  13.954  11.198   2.586 -0.0437  0.2854 -0.5535
  987MOL0     C36110  14.090  11.229   2.529  0.3937 -0.2699 -0.5700
  987MOL0     C36111  14.166  11.114   2.469  0.9259  1.0992 -0.3370
  987MOL0     C36112  14.298  11.145   2.385 -0.0885 -0.5842  0.6400
  987MOL0    Cl36113  14.421  11.230   2.502  0.7668  0.3305  0.4980
  987MOL0     C36114  13.359  10.990   2.861  0.3748  0.1784  0.7641
  987MOL0     C36115  13.227  11.005   2.920 -0.2524  0.1351  0.3972
  987MOL0     O36116  13.082  10.985   3.331 -0.2899  0.6783  0.1228
  987MOL0     C36117  12.813  10.848   3.122  0.3408 -1.0104  0.1661
  987MOL0     C36118  12.700  10.766   3.123  0.2131 -0.0580  0.0964
  987MOL0     N36119  12.151  10.441   2.926  0.2972  0.0235  0.3064
  987MOL0     N36120  12.042  10.431   2.854  0.3368  0.2938  0.1600
  987MOL0     C36121  10.878  10.267   2.969 -0.8316  0.6103  0.5209
  987MOL0     C36122  10.778  10.283   2.881  0.0743 -0.2998  0.4839
  987MOL0     C36123  10.518  10.282   2.518  0.0430  0.5146  1.3949
  987MOL0     C36124  10.525  10.305   2.377 -0.9362 -0.3495  0.3229
  987MOL0     C36125  10.418  10.345   2.302  0.5066  0.1007 -0.0500
  987MOL0     C36126  10.291  10.367   2.360  0.0220  0.5885 -0.1168
  987MOL0     O36127  10.181  10.404   2.293  0.0909 -0.5066  0.5342
  987MOL0     C36128  10.073  10.315   2.285 -0.1274 -0.2836 -0.0137
  987MOL0     C36129   9.961  10.360   2.386  0.4647  0.2747  0.3109
  987MOL0     C36130   9.816  10.313   2.358  0.5855 -0.1877  0.5423
  987MOL0     C36131   9.722  10.366   2.471  1.4063 -0.1945  0.1323
  987MOL0     C36132   9.586  10.377   2.422  0.3953  0.3577  0.1453
  987MOL0     C36133   9.475  10.393   2.379  0.1888 -0.2468  0.4968
  987MOL0     C36134  10.288  10.344   2.501  0.3252  0.0166  0.1139
  987MOL0     C36135  10.396  10.306   2.579  0.1823 -0.5805  0.1382
  987MOL0     C36136  10.358  10.307   2.729  0.3693 -0.3553 -0.6528
  987MOL0     H36137  10.729   9.959   2.776 -1.8912  1.6121  0.8248
  987MOL0     H36138  10.945   9.936   2.939  1.0069  0.0312  0.2982
  987MOL0     H36139  11.014  10.214   3.232  1.8140  3.1789  0.8807
  987MOL0     H36140  11.115  10.303   3.112 -0.7857  0.3183 -0.4159
  987MOL0     H36141  11.229  10.215   3.315 -2.0172  1.4393  0.0967
  987MOL0     H36142  11.188  10.049   3.263  1.0935 -0.0112 -0.9075
  987MOL0     H36143  11.416  10.073   3.202  0.1149  3.1505  2.8656
  987MOL0     H36144  11.308  10.069   3.055  0.8434 -1.3763 -0.0597
  987MOL0     H36145  11.343  10.306   3.015  2.0637  1.2476 -1.2361
  987MOL0     H36146  11.396  10.337   3.177 -0.1333 -1.5807  0.6948
  987MOL0     H36147  11.553  10.169   2.968  1.4676 -0.4862  0.3598
  987MOL0     H36148  11.595  10.212   3.136 -0.7749  0.4485  0.9624
  987MOL0     H36149  11.547  10.426   2.919  0.1420  0.0617 -0.7173
  987MOL0     H36150  11.581  10.451   3.084 -4.4640 -0.9935 -1.2646
  987MOL0     H36151  11.774  10.270   2.915  2.1004  1.0526 -1.2088
  987MOL0     H36152  11.796  10.344   3.070  3.1789  0.4783 -1.6347
  987MOL0     H36153  11.790  10.461   2.791 -0.6647 -1.0852  0.4232
  987MOL0     H36154  11.758  10.569   2.933  0.1796 -0.0831  1.1045
  987MOL0     H36155  11.928  10.603   3.119  0.2764  1.3389  0.3886
  987MOL0     H36156  12.314  10.463   3.145  1.8072  1.9114  0.0212
  987MOL0     H36157  12.171  10.482   3.249  1.7459  0.7507  1.3908
  987MOL0     H36158  12.314  10.715   3.117 -1.2523  1.0985  0.0679
  987MOL0     H36159  12.166  10.730   3.213 -2.1349 -2.2878 -0.0485
  987MOL0     H36160  12.383  10.786   3.327 -0.1537  0.9691 -0.4718
  987MOL0     H36161  12.300  10.674   3.410 -1.1230  1.9544  0.1353
  987MOL0     H36162  12.526  10.597   3.418  0.3805  1.2173 -0.4256
  987MOL0     H36163  12.447  10.479   3.323 -1.6344  1.6537 -0.7547
  987MOL0     H36164  12.733  10.645   3.428 -0.6170 -2.1721 -1.9596
  987MOL0     H36165  13.046  10.755   3.462 -0.1991 -1.4236  0.1559
  987MOL0     H36166  12.905  10.695   3.543  0.7388 -0.6202 -0.7543
  987MOL0     H36167  12.918  10.869   3.535 -2.8548 -0.6510  0.7263
  987MOL0     H36168  13.311  10.872   3.235  3.6467 -0.4822  0.9606
  987MOL0     H36169  13.507  10.846   3.128 -1.7454 -2.4936  0.9604
  987MOL0     H36170  13.675  11.074   2.989  2.8444  0.2640 -0.1619
  987MOL0     H36171  13.702  10.906   3.047 -5.9671 -0.1759  1.9369
  987MOL0     H36172  13.890  10.963   2.955 -1.1079  2.7472  1.2109
  987MOL0     H36173  13.817  10.878   2.815 -2.9997  0.8433  0.0544
  987MOL0     H36174  13.809  11.185   2.837 -2.7226  0.1541 -1.6485
  987MOL0     H36175  13.741  11.082   2.709  0.7818 -0.6559 -1.4071
  987MOL0     H36176  13.999  11.014   2.680 -1.4812 -0.8783  1.4607
  987MOL0     H36177  14.035  11.149   2.788 -1.2497 -1.7036  0.7981
  987MOL0     H36178  13.886  11.160   2.510  1.7249 -3.4746 -0.4877
  987MOL0     H36179  13.919  11.295   2.623 -2.0827 -0.8755  0.7711
  987MOL0     H36180  14.139  11.286   2.608 -0.2707  1.4973 -1.3779
  987MOL0     H36181  14.072  11.312   2.460 -0.1342  1.1111  1.1422
  987MOL0     H36182  14.107  11.050   2.403  0.4525  0.3714  0.7578
  987MOL0     H36183  14.185  11.049   2.555 -3.8003  1.9787  1.7243
  987MOL0     H36184  14.272  11.208   2.299 -0.1713  1.9228  2.3711
  987MOL0     H36185  14.330  11.044   2.359 -0.5045 -1.3609  2.9036
  987MOL0     H36186  13.388  11.032   2.766  0.3566 -0.3384  0.5266
  987MOL0     H36187  13.148  11.058   2.868 -0.5201 -0.1472  0.5097
  987MOL0     H36188  12.831  10.895   3.026 -1.0330 -1.7673 -0.4890
  987MOL0     H36189  12.631  10.749   3.041 -1.6184 -0.2514  1.6000
  987MOL0     H36190  10.925  10.352   3.017 -0.2714  1.0400 -0.7348
  987MOL0     H36191  10.745  10.384   2.859 -1.5306 -1.0358 -0.6999
  987MOL0     H36192  10.618  10.292   2.322  1.8160  2.6031  3.7591
  987MOL0     H36193  10.409  10.361   2.195 -3.2182  0.4385  0.1743
  987MOL0     H36194  10.035  10.317   2.183  1.2218 -2.0642 -0.6033
  987MOL0     H36195  10.109  10.212   2.298 -0.3468 -0.3665 -0.0647
  987MOL0     H36196   9.948  10.469   2.389  3.6165  0.8136 -1.3739
  987MOL0     H36197   9.987  10.329   2.487 -0.0207  0.9879  0.6663
  987MOL0     H36198   9.793  10.340   2.255  0.7806 -3.0652 -0.3434
  987MOL0     H36199   9.815  10.203   2.360 -0.2539 -0.3278  5.5269
  987MOL0     H36200   9.758  10.458   2.518  0.6669 -0.1826  0.6969
  987MOL0     H36201   9.720  10.292   2.551  1.3979 -2.2031 -1.6515
  987MOL0     H36202   9.390  10.401   2.315  0.8003 -1.5649 -0.5243
  987MOL0     H36203  10.195  10.373   2.547 -0.2161 -1.7852  0.2598
  987MOL0     H36204  10.418  10.376   2.788 -3.9385  2.1317  1.3169
  987MOL0     H36205  10.256  10.334   2.758 -1.0975 -1.2652 -4.3026
  987MOL0     H36206  10.380  10.208   2.771  0.1284  0.1023  0.5965
  988MOL0     O36207   1.098   8.879   8.072  0.4586 -1.3200 -0.3194
  988MOL0     C36208   0.978   8.850   8.063 -0.2468 -0.0747  1.0060
  988MOL0     O36209   0.878   8.877   8.155 -0.2274  0.6339 -0.4284
  988MOL0     C36210   0.932   8.948   8.258 -0.1668 -0.1690 -0.3779
  988MOL0     C36211   0.913   9.093   8.238 -0.2868  1.7966 -0.0393
  988MOL0     C36212   0.979   9.172   8.328  0.7071 -0.2658  0.8694
  988MOL0     C36213   1.062   9.123   8.429 -0.2709 -0.3569  0.4367
  988MOL0     O36214   1.124   9.222   8.500  0.3153  0.9358  0.0978
  988MOL0     C36215   1.163   9.196   8.642  0.0653 -0.3551 -0.0923
  988MOL0     C36216   1.308   9.235   8.679 -0.5236  0.1051 -0.9798
  988MOL0     C36217   1.408   9.155   8.594  0.9562 -0.4767 -0.1562
  988MOL0     C36218   1.548   9.195   8.621 -0.0010 -0.1983  0.0093
  988MOL0     C36219   1.587   9.192   8.769  0.5162  0.0648  0.7292
  988MOL0     C36220   1.559   9.055   8.835  0.0663 -0.7279  0.5368
  988MOL0     C36221   1.646   9.040   8.965  0.0336  0.4954 -0.4874
  988MOL0     C36222   1.650   8.897   9.012 -0.4018  0.9069 -0.2567
  988MOL0     N36223   1.748   8.881   9.122  0.7047 -0.4134  0.0098
  988MOL0     C36224   1.795   8.758   9.161  0.6624  0.0243 -0.2563
  988MOL0     C36225   1.836   8.766   9.287 -0.0386  0.0098  0.0638
  988MOL0     C36226   1.906   8.666   9.377  0.0201  0.5502 -0.6349
  988MOL0     C36227   1.838   8.642   9.524  0.4257 -0.6261  0.5037
  988MOL0     C36228   1.925   8.554   9.616  0.4821 -0.2287 -0.2984
  988MOL0     C36229   1.937   8.411   9.564  0.5425  0.9147  0.5788
  988MOL0     O36230   2.017   8.369   9.449  0.5940  0.5447  0.3309
  988MOL0     C36231   2.150   8.383   9.453 -0.3118  0.1775  0.6548
  988MOL0     C36232   2.226   8.403   9.574 -0.6351 -0.0695  0.3587
  988MOL0     C36233   2.368   8.413   9.571  0.7188 -0.0815 -0.4387
  988MOL0     C36234   2.446   8.439   9.706 -0.7552  0.1361  0.2226
  988MOL0     C36235   2.437   8.403   9.451 -0.7447 -0.3813  0.7407
  988MOL0     C36236   2.589   8.418   9.440 -0.4074 -0.1295 -1.2196
  988MOL0     O36237   2.631   8.477   9.331  0.0222  0.5184 -0.4265
  988MOL0     C36238   2.767   8.492   9.330 -0.0969 -0.0874  0.1039
  988MOL0     C36239   2.832   8.483   9.205 -0.0570  0.7227 -0.1130
  988MOL0     C36240   2.971   8.500   9.192 -0.5967  0.4495 -0.4949
  988MOL0     C36241   3.051   8.539   9.305 -0.9681  0.1581  0.2464
  988MOL0     O36242   3.190   8.549   9.291  0.1979  0.0409 -0.9356
  988MOL0     C36243   3.247   8.606   9.168 -0.4713  0.0957  0.1899
  988MOL0     C36244   3.394   8.643   9.203 -0.0914 -0.8533  0.5312
  988MOL0     C36245   3.475   8.534   9.268 -0.3777  0.3718  0.3885
  988MOL0     C36246   3.626   8.580   9.298  0.0466  0.4657  0.1087
  988MOL0     C36247   3.695   8.486   9.399 -0.7045 -0.5695  0.2583
  988MOL0     C36248   3.838   8.515   9.433 -0.1761 -0.0800  0.8815
  988MOL0     C36249   3.931   8.509   9.309  0.5564 -0.4870 -0.0632
  988MOL0     C36250   4.069   8.554   9.349  0.0178 -1.0037 -0.3593
  988MOL0    Cl36251   4.162   8.552   9.200 -0.5376  0.2580 -0.4085
  988MOL0     C36252   2.993   8.542   9.434  0.3940 -0.1743  0.8297
  988MOL0     C36253   2.852   8.525   9.437  0.0166 -0.3753 -0.2707
  988MOL0     O36254   2.661   8.354   9.521  0.6595  0.3254  0.5590
  988MOL0     C36255   2.365   8.372   9.339 -0.4870 -0.2245 -0.2752
  988MOL0     C36256   2.228   8.367   9.339  1.0085  0.1011  0.9421
  988MOL0     N36257   1.824   8.897   9.329 -0.2255 -0.4809  0.5214
  988MOL0     N36258   1.772   8.974   9.229 -0.5662  0.0104 -0.1896
  988MOL0     C36259   1.082   8.984   8.448  1.0489 -0.9723  1.1237
  988MOL0     C36260   1.002   8.900   8.363  0.0127  0.1969 -0.5689
  988MOL0     C36261   0.944   8.773   7.944  0.3649 -0.3736  0.5081
  988MOL0     C36262   1.036   8.676   7.892  0.0144 -0.3059 -0.3705
  988MOL0     C36263   1.015   8.603   7.778  1.1526 -0.6264 -0.4209
  988MOL0     C36264   0.890   8.608   7.714 -0.2912  0.0511 -0.7805
  988MOL0     O36265   0.880   8.534   7.601  0.3931 -0.0564 -0.2652
  988MOL0     C36266   0.753   8.542   7.530 -0.0189  0.5714 -0.2053
  988MOL0     C36267   0.654   8.443   7.601  0.2112  0.4567  0.9360
  988MOL0     C36268   0.691   8.297   7.592  0.2503  0.3658 -0.7153
  988MOL0     C36269   0.577   8.197   7.620  0.8123  0.1372 -0.3473
  988MOL0     C36270   0.631   8.077   7.682 -0.1332  0.5248  1.2670
  988MOL0     C36271   0.648   7.964   7.716  0.5071 -0.0670  0.8028
  988MOL0     C36272   0.793   8.702   7.754 -0.2432 -0.5275  0.7580
  988MOL0     C36273   0.820   8.783   7.875  0.0245 -0.7199  0.7937
  988MOL0     C36274   0.703   8.872   7.908 -0.2985  0.5490 -0.1940
  988MOL0     H36275   0.855   9.128   8.153  0.0762 -1.6133 -1.8564
  988MOL0     H36276   0.974   9.280   8.322 -1.5348 -0.2624  1.6725
  988MOL0     H36277   1.147   9.093   8.674  2.5399 -0.5668  0.6577
  988MOL0     H36278   1.093   9.260   8.696  1.9836  0.4254  1.5803
  988MOL0     H36279   1.306   9.337   8.640 -2.1443 -0.7370 -3.2966
  988MOL0     H36280   1.318   9.233   8.788 -2.1580  2.7433 -0.6847
  988MOL0     H36281   1.398   9.046   8.603  2.0626 -0.6211 -0.4904
  988MOL0     H36282   1.383   9.175   8.490 -3.5686 -0.5395  0.6942
  988MOL0     H36283   1.609   9.117   8.574  0.8114 -0.5559  1.6165
  988MOL0     H36284   1.574   9.297   8.591 -0.0865  1.3842  4.6418
  988MOL0     H36285   1.536   9.274   8.821  0.0014  1.1788 -1.3888
  988MOL0     H36286   1.696   9.205   8.765  1.0865 -3.3746  1.9880
  988MOL0     H36287   1.450   9.044   8.838 -0.4719  0.3484 -4.6856
  988MOL0     H36288   1.585   8.970   8.771  2.0708 -1.1996  1.8811
  988MOL0     H36289   1.609   9.102   9.048 -2.8819 -0.0070 -1.2909
  988MOL0     H36290   1.749   9.067   8.937  0.2606 -2.3673 -2.8823
  988MOL0     H36291   1.555   8.868   9.058  0.2423  3.0715  2.8119
  988MOL0     H36292   1.670   8.824   8.934 -1.8625 -0.2567  0.4071
  988MOL0     H36293   1.803   8.671   9.095  2.3538  2.1590 -3.1124
  988MOL0     H36294   2.007   8.701   9.401 -0.5765  0.4391  2.3760
  988MOL0     H36295   1.909   8.569   9.327 -1.9255 -1.4583  2.7789
  988MOL0     H36296   1.821   8.739   9.571  2.7299 -0.1674  0.4796
  988MOL0     H36297   1.733   8.612   9.515  0.2091  0.4914 -1.4185
  988MOL0     H36298   2.015   8.613   9.632 -0.1738  0.3918  1.4063
  988MOL0     H36299   1.881   8.548   9.716  0.2399  0.7976 -0.3364
  988MOL0     H36300   1.965   8.348   9.650 -2.9755 -0.3866  0.9579
  988MOL0     H36301   1.837   8.373   9.540  0.1826  2.3457 -0.3163
  988MOL0     H36302   2.169   8.414   9.665 -1.3046 -0.7461  0.0367
  988MOL0     H36303   2.368   8.444   9.783  3.1397  0.7122  4.6220
  988MOL0     H36304   2.499   8.535   9.705 -2.5809  1.2466 -2.2737
  988MOL0     H36305   2.518   8.361   9.730 -0.9654 -0.1412 -0.0489
  988MOL0     H36306   2.785   8.450   9.113  0.5847  0.7365 -0.4478
  988MOL0     H36307   3.020   8.495   9.096  0.4393  2.6682 -0.1541
  988MOL0     H36308   3.225   8.538   9.086  0.1270  1.1090 -0.8429
  988MOL0     H36309   3.202   8.702   9.140 -0.4673  0.6950  2.0864
  988MOL0     H36310   3.447   8.676   9.113  3.6033 -3.2956  1.5904
  988MOL0     H36311   3.383   8.720   9.279 -2.6628  2.2001 -2.5663
  988MOL0     H36312   3.466   8.443   9.207 -1.7543  2.2109 -2.3918
  988MOL0     H36313   3.428   8.504   9.362 -0.0629 -0.3984  0.3068
  988MOL0     H36314   3.623   8.681   9.338  1.4148 -0.0888  1.7335
  988MOL0     H36315   3.683   8.575   9.205  1.7879  0.5387  1.1233
  988MOL0     H36316   3.636   8.479   9.490 -1.7485 -1.8575 -0.4689
  988MOL0     H36317   3.691   8.385   9.355 -1.5437  0.5981 -2.5330
  988MOL0     H36318   3.882   8.437   9.495  0.2796 -0.2636  0.3248
  988MOL0     H36319   3.846   8.618   9.471  0.3439  0.6939 -1.1990
  988MOL0     H36320   3.894   8.578   9.233  0.1380 -0.4497  0.1697
  988MOL0     H36321   3.938   8.405   9.276  0.4114 -1.4756  2.6951
  988MOL0     H36322   4.113   8.475   9.411  1.6521 -2.3565 -3.0610
  988MOL0     H36323   4.073   8.652   9.397  1.4746 -0.1467 -2.1748
  988MOL0     H36324   3.045   8.557   9.527  0.2925 -0.1349  0.8810
  988MOL0     H36325   2.797   8.545   9.528  0.5458  0.9089 -0.2078
  988MOL0     H36326   2.423   8.362   9.248 -0.4808  2.0022 -0.5555
  988MOL0     H36327   2.180   8.345   9.245 -0.1043  0.0688  1.5097
  988MOL0     H36328   1.164   8.946   8.508  1.3677 -1.2237  0.5324
  988MOL0     H36329   1.002   8.793   8.380  0.4559  0.4658  1.3627
  988MOL0     H36330   1.132   8.666   7.941 -1.0286  0.5958  2.0247
  988MOL0     H36331   1.091   8.542   7.731  1.3089  0.2599 -1.3607
  988MOL0     H36332   0.711   8.641   7.506 -2.0360  0.2756  1.7812
  988MOL0     H36333   0.779   8.492   7.436  1.9071 -4.2371  2.5613
  988MOL0     H36334   0.556   8.460   7.556 -0.4392  4.9969  3.4752
  988MOL0     H36335   0.644   8.457   7.709 -0.2849 -4.3679  1.7167
  988MOL0     H36336   0.728   8.285   7.490  1.6646  2.5488 -0.5288
  988MOL0     H36337   0.783   8.283   7.650 -0.1825 -1.8167 -0.5007
  988MOL0     H36338   0.520   8.164   7.533 -2.9647  2.3739  1.0082
  988MOL0     H36339   0.502   8.241   7.686  0.6255 -0.6178 -0.0425
  988MOL0     H36340   0.666   7.861   7.738  1.5964 -0.0645 -0.0115
  988MOL0     H36341   0.693   8.705   7.711 -0.8482  2.9702  2.0904
  988MOL0     H36342   0.683   8.882   8.016  0.8202  0.1502  0.0617
  988MOL0     H36343   0.720   8.967   7.858 -1.2453 -0.6187 -2.8830
  988MOL0     H36344   0.612   8.843   7.854  0.9330  1.3765 -2.8690
  989MOL0     O36345  10.351   5.326   2.366 -0.2213  0.5193  0.3411
  989MOL0     C36346  10.307   5.319   2.250 -0.4288  0.5018  0.4235
  989MOL0     O36347  10.358   5.230   2.155  0.2214 -0.0950  0.1156
  989MOL0     C36348  10.484   5.172   2.174 -0.1389 -0.5691  0.7770
  989MOL0     C36349  10.573   5.175   2.281  0.6898  0.3630 -0.3895
  989MOL0     C36350  10.695   5.112   2.279 -0.2651  0.6732  0.6915
  989MOL0     C36351  10.736   5.042   2.165 -0.2206  0.4651 -0.6496
  989MOL0     O36352  10.860   4.985   2.165 -0.0966  0.3510  0.1162
  989MOL0     C36353  10.978   5.056   2.204 -1.4681 -0.6707  0.9116
  989MOL0     C36354  11.095   4.989   2.130 -0.0637 -0.1055  0.1182
  989MOL0     C36355  11.225   5.057   2.174 -0.7854  0.4843  0.8584
  989MOL0     C36356  11.233   5.195   2.123  0.1050  0.0129 -0.1132
  989MOL0     C36357  11.386   5.242   2.107  0.2404  0.4350  0.4811
  989MOL0     C36358  11.460   5.232   2.237 -0.2054  0.0279 -0.8821
  989MOL0     C36359  11.608   5.272   2.213  0.0206 -0.0720 -0.5327
  989MOL0     C36360  11.674   5.303   2.354  0.3630 -0.0306 -0.0254
  989MOL0     N36361  11.807   5.368   2.341  0.5885 -0.4490  0.3216
  989MOL0     C36362  11.812   5.503   2.363 -0.3918  0.1215  0.4298
  989MOL0     C36363  11.948   5.527   2.342  0.0564 -0.1089  0.0933
  989MOL0     C36364  12.032   5.643   2.394 -0.3964  0.5175  0.3746
  989MOL0     C36365  12.078   5.624   2.542  0.3845  0.0584  0.5810
  989MOL0     C36366  12.165   5.746   2.574  0.7180 -0.9385 -0.0137
  989MOL0     C36367  12.167   5.770   2.730 -0.2046  0.4020 -0.0631
  989MOL0     O36368  12.240   5.678   2.812 -0.1669  0.0764 -0.3945
  989MOL0     C36369  12.234   5.705   2.946 -1.0222 -0.1594 -0.2332
  989MOL0     C36370  12.349   5.762   3.012  0.1090 -0.1891 -0.3919
  989MOL0     C36371  12.361   5.788   3.146  0.7174 -0.7870 -0.5167
  989MOL0     C36372  12.490   5.845   3.194  0.1522  0.5251 -0.1107
  989MOL0     C36373  12.243   5.775   3.225  0.2974  0.8988  0.3543
  989MOL0     C36374  12.226   5.819   3.365 -0.8640 -0.6504 -0.5179
  989MOL0     O36375  12.125   5.773   3.446  0.3085  0.0980 -0.1480
  989MOL0     C36376  12.122   5.800   3.577  1.0892 -0.6079  0.6081
  989MOL0     C36377  12.020   5.878   3.622  0.1996 -0.4722  0.1649
  989MOL0     C36378  12.012   5.913   3.761 -0.2717 -0.1297  0.2295
  989MOL0     C36379  12.116   5.869   3.849  0.8844  1.3067  0.0229
  989MOL0     O36380  12.116   5.902   3.984 -0.3510  0.2436 -0.3555
  989MOL0     C36381  12.027   6.004   4.019  0.5855 -0.1950 -0.4576
  989MOL0     C36382  12.043   6.034   4.171 -0.6142 -0.7143  0.0648
  989MOL0     C36383  12.188   6.082   4.209 -0.7927 -0.7881 -0.5360
  989MOL0     C36384  12.172   6.201   4.297 -0.3082  0.3296 -0.4283
  989MOL0     C36385  12.301   6.259   4.347  0.1844 -0.3401  0.7276
  989MOL0     C36386  12.377   6.181   4.447  0.4343 -0.5599 -0.7166
  989MOL0     C36387  12.304   6.193   4.582  0.2440  0.1141 -0.2426
  989MOL0     C36388  12.378   6.097   4.681  0.1134  0.6395  0.3266
  989MOL0    Cl36389  12.543   6.153   4.695  0.0229 -0.2421 -0.2798
  989MOL0     C36390  12.213   5.790   3.802 -0.2956 -0.4372  0.3565
  989MOL0     C36391  12.218   5.757   3.662  0.0944  0.0953 -0.2350
  989MOL0     O36392  12.307   5.901   3.410  0.2984  0.4746  0.2326
  989MOL0     C36393  12.126   5.716   3.166  0.4043  0.4744 -0.1260
  989MOL0     C36394  12.128   5.689   3.020  1.5193 -0.9191 -0.3804
  989MOL0     N36395  12.010   5.417   2.276 -0.4576 -0.0573  0.6303
  989MOL0     N36396  11.919   5.323   2.277  0.0131  0.5939 -0.2419
  989MOL0     C36397  10.652   5.044   2.051  0.2887  0.2261 -0.8436
  989MOL0     C36398  10.525   5.093   2.064  0.4557 -0.0173  0.3286
  989MOL0     C36399  10.173   5.396   2.222 -1.0188 -0.6732 -0.3021
  989MOL0     C36400  10.125   5.395   2.086  1.3356  0.4363 -0.2014
  989MOL0     C36401  10.001   5.451   2.051  0.2772 -0.7921 -1.0479
  989MOL0     C36402   9.919   5.515   2.147  0.3429 -0.2858 -0.2640
  989MOL0     O36403   9.803   5.575   2.093 -0.6256  0.0307 -0.3534
  989MOL0     C36404   9.686   5.585   2.174 -0.6925  0.3491  0.1420
  989MOL0     C36405   9.605   5.450   2.190  0.0236 -0.2040  0.2838
  989MOL0     C36406   9.560   5.389   2.052 -0.6567  0.5574  0.0301
  989MOL0     C36407   9.430   5.313   2.079  0.1505 -0.0101  0.6502
  989MOL0     C36408   9.391   5.241   1.960  0.0271  0.6240  0.5085
  989MOL0     C36409   9.350   5.202   1.851  0.6193 -0.2240 -0.3436
  989MOL0     C36410   9.962   5.517   2.287 -0.2276  0.8173  0.1177
  989MOL0     C36411  10.092   5.462   2.321  0.2629 -0.6119  0.3292
  989MOL0     C36412  10.124   5.451   2.464 -0.2948 -0.2425 -0.3925
  989MOL0     H36413  10.562   5.241   2.366  0.2441 -1.9730  1.4993
  989MOL0     H36414  10.756   5.127   2.368  1.1922 -2.0616  0.2614
  989MOL0     H36415  10.994   5.033   2.310 -0.6160  2.2598  1.4971
  989MOL0     H36416  10.975   5.163   2.181 -0.1777 -0.6207  0.9201
  989MOL0     H36417  11.104   4.881   2.144  1.7480  0.2139  1.9033
  989MOL0     H36418  11.080   5.013   2.024  0.5077  0.0671  0.0731
  989MOL0     H36419  11.242   5.044   2.281  2.8601  1.5873  0.5480
  989MOL0     H36420  11.306   4.998   2.130 -1.7844 -0.2153 -0.1041
  989MOL0     H36421  11.196   5.210   2.021 -1.1214  1.7327  0.5396
  989MOL0     H36422  11.184   5.265   2.190 -0.7878 -0.6143 -0.0916
  989MOL0     H36423  11.392   5.348   2.080  1.2871  0.5318  1.0695
  989MOL0     H36424  11.426   5.179   2.027 -1.7006 -0.5174  0.2055
  989MOL0     H36425  11.406   5.301   2.302 -0.6667 -0.1854 -1.0333
  989MOL0     H36426  11.465   5.131   2.280  0.4319 -0.4457 -2.0423
  989MOL0     H36427  11.605   5.368   2.160 -1.2484 -0.2425 -0.7975
  989MOL0     H36428  11.657   5.197   2.150 -1.4480  0.8736 -2.9602
  989MOL0     H36429  11.609   5.359   2.422 -2.5396 -4.0572  0.9496
  989MOL0     H36430  11.676   5.208   2.408 -0.5182  0.1478  0.3363
  989MOL0     H36431  11.746   5.571   2.416  2.9495  3.2511  0.9392
  989MOL0     H36432  11.977   5.737   2.389 -0.1671  0.6372  0.0464
  989MOL0     H36433  12.121   5.645   2.329  0.6495 -0.8596  1.6932
  989MOL0     H36434  11.985   5.612   2.597 -1.0849 -1.3262 -1.9825
  989MOL0     H36435  12.151   5.543   2.553  0.1849 -0.1775  0.1944
  989MOL0     H36436  12.264   5.746   2.528  1.6525  0.8010  1.8575
  989MOL0     H36437  12.102   5.824   2.531 -0.2948 -1.2783  0.8013
  989MOL0     H36438  12.214   5.867   2.750 -1.2229  0.7924  0.4756
  989MOL0     H36439  12.064   5.775   2.767 -0.4982  0.4668 -0.8832
  989MOL0     H36440  12.440   5.783   2.957  1.1569  2.5314  2.1369
  989MOL0     H36441  12.510   5.812   3.297 -1.1048  1.5053  0.4687
  989MOL0     H36442  12.490   5.954   3.194  0.0316  0.5589  1.7285
  989MOL0     H36443  12.572   5.805   3.133 -0.8642  2.6359 -3.0810
  989MOL0     H36444  11.952   5.909   3.544 -0.7492 -1.7525  0.4556
  989MOL0     H36445  11.929   5.975   3.794  1.0574  1.3482  0.8803
  989MOL0     H36446  12.048   6.096   3.964  2.2620  0.3196  0.9553
  989MOL0     H36447  11.922   5.977   4.004  0.5687 -0.2590 -0.2229
  989MOL0     H36448  11.969   6.113   4.191 -1.8289 -1.4472 -1.2989
  989MOL0     H36449  12.012   5.944   4.225  0.3179 -2.6199 -2.3693
  989MOL0     H36450  12.253   6.117   4.129  0.0437  2.7054  1.4672
  989MOL0     H36451  12.242   6.001   4.259 -1.7626 -0.9850  0.2427
  989MOL0     H36452  12.109   6.174   4.383 -1.1273  0.8139 -0.8580
  989MOL0     H36453  12.122   6.283   4.244 -2.7154 -0.3228  0.6671
  989MOL0     H36454  12.366   6.266   4.259 -2.1985 -0.9146 -1.1947
  989MOL0     H36455  12.283   6.356   4.395  2.6405 -0.5611  2.2755
  989MOL0     H36456  12.478   6.223   4.462 -0.2319  1.1827 -0.9044
  989MOL0     H36457  12.380   6.079   4.409 -1.5009 -0.1597 -2.0408
  989MOL0     H36458  12.198   6.166   4.579 -0.1479  1.4250  0.8069
  989MOL0     H36459  12.311   6.295   4.622  1.0734 -0.6696  1.7007
  989MOL0     H36460  12.363   5.998   4.639 -1.0620  0.9361  0.0254
  989MOL0     H36461  12.328   6.096   4.778  1.1282  0.9714  0.8734
  989MOL0     H36462  12.299   5.765   3.864  0.2877  1.2014  0.2524
  989MOL0     H36463  12.302   5.710   3.612 -0.3989  2.8762 -4.0909
  989MOL0     H36464  12.028   5.702   3.211 -0.3776 -0.9417 -2.1194
  989MOL0     H36465  12.032   5.659   2.978  0.8426 -0.0896  0.5318
  989MOL0     H36466  10.683   4.985   1.966  2.9490  0.9183 -0.4590
  989MOL0     H36467  10.466   5.087   1.973  0.3950 -4.5003  0.4541
  989MOL0     H36468  10.191   5.357   2.009  0.7511 -2.1716  0.5008
  989MOL0     H36469   9.971   5.458   1.947  0.9652  0.1034 -1.1931
  989MOL0     H36470   9.715   5.618   2.274 -0.2340  0.4890 -0.0328
  989MOL0     H36471   9.613   5.654   2.131 -2.1431 -2.0664 -1.5179
  989MOL0     H36472   9.522   5.466   2.259  0.1897 -1.7643  0.9082
  989MOL0     H36473   9.667   5.373   2.237 -0.6596 -1.5158 -0.8890
  989MOL0     H36474   9.552   5.458   1.967  4.4494 -0.8957 -2.0680
  989MOL0     H36475   9.639   5.318   2.026 -0.3301  1.4482 -1.5037
  989MOL0     H36476   9.357   5.390   2.107  0.7353  0.5682  0.5927
  989MOL0     H36477   9.443   5.238   2.158 -1.5918 -0.8635  0.1877
  989MOL0     H36478   9.303   5.188   1.756 -2.4491  2.2835  0.6440
  989MOL0     H36479   9.902   5.553   2.369  1.3524  1.6467  0.9689
  989MOL0     H36480  10.110   5.350   2.504  0.0805 -0.9935 -2.0787
  989MOL0     H36481  10.223   5.495   2.474 -1.4280  2.8024 -1.4639
  989MOL0     H36482  10.057   5.516   2.522  0.0433  0.5659 -0.8981
  990MOL0     O36483  10.159   2.602   5.749  0.6573 -0.6258 -0.8180
  990MOL0     C36484  10.053   2.632   5.808  0.7826  0.8528 -0.0233
  990MOL0     O36485  10.012   2.612   5.939  0.1429 -0.0496  0.5749
  990MOL0     C36486  10.091   2.537   6.020  0.3937  0.5888  0.4097
  990MOL0     C36487  10.108   2.398   5.999 -0.5607  0.2370 -0.5421
  990MOL0     C36488  10.216   2.336   6.065 -0.1568 -0.7945 -0.7651
  990MOL0     C36489  10.287   2.396   6.171 -0.0292  0.5106  0.6876
  990MOL0     O36490  10.387   2.333   6.234 -0.2282 -0.1418 -0.5106
  990MOL0     C36491  10.413   2.192   6.217 -0.1902  0.4120  0.9571
  990MOL0     C36492  10.310   2.096   6.242  0.3043  0.0779  0.1273
  990MOL0     C36493  10.355   1.978   6.166 -0.9845 -0.4133  0.0649
  990MOL0     C36494  10.238   1.883   6.143 -0.3608  0.3003  0.0641
  990MOL0     C36495  10.288   1.760   6.058 -0.6975 -0.0033 -0.5535
  990MOL0     C36496  10.163   1.691   5.997  0.4294 -0.2603 -0.0526
  990MOL0     C36497  10.085   1.608   6.098 -0.0881 -0.5275 -1.4091
  990MOL0     C36498   9.970   1.544   6.032 -0.3007 -1.3315  0.0163
  990MOL0     N36499   9.945   1.414   6.090  0.9634 -0.6931 -0.1479
  990MOL0     C36500   9.835   1.357   6.163  0.0008 -1.0835  0.3112
  990MOL0     C36501   9.860   1.224   6.163  1.4728  0.4725 -0.3453
  990MOL0     C36502   9.754   1.124   6.219 -0.1460 -0.5822 -0.6006
  990MOL0     C36503   9.818   0.998   6.276  0.8869 -0.6373  0.1476
  990MOL0     C36504   9.914   1.027   6.397  1.5479  0.1000  0.0771
  990MOL0     C36505   9.964   0.893   6.449 -0.1337  0.4340  0.2386
  990MOL0     O36506   9.856   0.827   6.512  1.2481 -0.2650  0.0209
  990MOL0     C36507   9.859   0.779   6.639  1.4780  0.3083 -0.0679
  990MOL0     C36508   9.779   0.847   6.732  0.5505 -0.1150 -0.6435
  990MOL0     C36509   9.795   0.812   6.870 -0.5113  0.2542 -0.1086
  990MOL0     C36510   9.700   0.879   6.971  0.0149 -0.1250 -0.5819
  990MOL0     C36511   9.894   0.712   6.906  0.0954 -0.7868 -0.4405
  990MOL0     C36512   9.924   0.669   7.041  0.1875 -0.4352  1.1818
  990MOL0     O36513   9.994   0.560   7.053 -0.2376 -0.0029  0.3718
  990MOL0     C36514   9.988   0.491   7.165  0.4132  0.4054 -0.5981
  990MOL0     C36515  10.068   0.544   7.266 -0.4478 -0.4377 -0.2258
  990MOL0     C36516  10.087   0.481   7.388  0.8491 -0.0663  0.1292
  990MOL0     C36517  10.027   0.357   7.408  0.5637 -0.3919  0.0195
  990MOL0     O36518  10.054   0.296   7.533  0.7960  0.0888 -0.0729
  990MOL0     C36519   9.993   0.174   7.574  0.0230  0.6717  0.0314
  990MOL0     C36520  10.037   0.142   7.719  1.0113  0.4853 -0.7079
  990MOL0     C36521  10.185   0.130   7.742  0.2101  0.3846  0.2502
  990MOL0     C36522  10.232  -0.008   7.774 -0.7057  0.0994 -0.5854
  990MOL0     C36523  10.385  -0.031   7.773 -0.2805 -0.4567  0.6198
  990MOL0     C36524  10.410  -0.175   7.805  0.4641  0.7207 -0.1854
  990MOL0     C36525  10.435  -0.179   7.958 -0.6053  0.2030 -0.0562
  990MOL0     C36526  10.393  -0.314   8.020  0.2639  0.6793  0.3040
  990MOL0    Cl36527  10.214  -0.309   8.062  0.0966 -0.4322  0.1953
  990MOL0     C36528   9.941   0.307   7.302 -0.0850 -0.6321  0.0248
  990MOL0     C36529   9.909   0.379   7.186 -0.5094  0.6688  0.0112
  990MOL0     O36530   9.896   0.749   7.135  0.3225  0.5304  0.6966
  990MOL0     C36531   9.968   0.655   6.810 -0.5814 -0.4867 -0.0754
  990MOL0     C36532   9.954   0.685   6.677 -0.1701  0.4999 -0.1121
  990MOL0     N36533   9.979   1.202   6.103 -0.5009 -0.0267  0.0703
  990MOL0     N36534  10.024   1.312   6.051  0.5369 -0.2528 -0.2042
  990MOL0     C36535  10.257   2.531   6.196 -0.0454  0.4263 -0.0116
  990MOL0     C36536  10.172   2.603   6.114 -0.3197  0.8266  0.6373
  990MOL0     C36537   9.951   2.704   5.733  0.5550  0.4658 -0.6664
  990MOL0     C36538   9.856   2.626   5.667 -0.4422  0.1048  0.9429
  990MOL0     C36539   9.737   2.680   5.607 -0.3790  0.0396  0.6160
  990MOL0     C36540   9.714   2.816   5.618  0.0957  0.0615 -0.4469
  990MOL0     O36541   9.596   2.873   5.592  0.1054 -0.4392  0.4352
  990MOL0     C36542   9.545   2.861   5.454  0.1427 -0.5989  0.6872
  990MOL0     C36543   9.541   3.009   5.406  0.7419 -0.2494  0.7230
  990MOL0     C36544   9.686   3.068   5.383 -0.9968  0.8450 -0.3170
  990MOL0     C36545   9.691   3.192   5.296 -1.3615  0.2239 -0.3984
  990MOL0     C36546   9.828   3.212   5.260 -0.6009  1.0811  0.4594
  990MOL0     C36547   9.944   3.232   5.246 -0.9394  0.6138 -0.8151
  990MOL0     C36548   9.808   2.892   5.687 -0.5189 -0.1800 -0.0286
  990MOL0     C36549   9.928   2.843   5.745 -0.2990 -0.2844  0.0600
  990MOL0     C36550  10.026   2.929   5.830  0.7156  1.0277  0.8919
  990MOL0     H36551  10.040   2.349   5.929 -2.0554  0.1644  0.8940
  990MOL0     H36552  10.230   2.234   6.030  0.9931 -0.5743 -1.0015
  990MOL0     H36553  10.485   2.171   6.297 -0.7344  0.9323  1.5957
  990MOL0     H36554  10.451   2.195   6.115 -2.2494  0.7703  0.1554
  990MOL0     H36555  10.307   2.081   6.350 -1.6289  1.0814  0.2624
  990MOL0     H36556  10.211   2.135   6.214  0.3666 -1.3186 -2.2754
  990MOL0     H36557  10.396   2.013   6.071 -1.6567  1.9085  0.5670
  990MOL0     H36558  10.443   1.933   6.212  0.7655  1.4233 -1.3397
  990MOL0     H36559  10.200   1.843   6.237 -1.1195 -0.5219 -0.5764
  990MOL0     H36560  10.161   1.946   6.098 -1.3956  0.7106  2.2846
  990MOL0     H36561  10.342   1.692   6.125 -0.1972  2.5350  1.7657
  990MOL0     H36562  10.343   1.804   5.975 -1.7898  1.0881 -0.7174
  990MOL0     H36563  10.092   1.771   5.972 -1.0965 -1.7904 -0.8516
  990MOL0     H36564  10.187   1.637   5.905  0.0737  1.5178 -1.2578
  990MOL0     H36565  10.063   1.674   6.183 -0.6159  1.8182 -3.2697
  990MOL0     H36566  10.155   1.532   6.134  0.5876 -0.3365 -2.2929
  990MOL0     H36567   9.877   1.599   6.051 -0.2867 -1.5015  0.6012
  990MOL0     H36568   9.986   1.532   5.924 -1.1620 -0.6626 -0.1983
  990MOL0     H36569   9.743   1.410   6.188  0.2355 -0.7422  0.4560
  990MOL0     H36570   9.677   1.114   6.143 -0.0507  1.0762 -0.9614
  990MOL0     H36571   9.698   1.174   6.298 -0.0320  3.3321 -2.7639
  990MOL0     H36572   9.735   0.929   6.293  1.4476 -1.0165  1.4830
  990MOL0     H36573   9.882   0.955   6.198  0.4891 -1.4250  0.2414
  990MOL0     H36574  10.004   1.083   6.369  1.8570 -0.3880  0.0642
  990MOL0     H36575   9.862   1.072   6.482  0.2357  0.4019 -0.8544
  990MOL0     H36576   9.992   0.825   6.367 -3.4402  0.3700 -1.0009
  990MOL0     H36577  10.056   0.893   6.508  0.4759 -1.0432 -0.6504
  990MOL0     H36578   9.702   0.914   6.695 -0.5012  0.7470  2.8033
  990MOL0     H36579   9.686   0.810   7.055  1.1647 -0.1594 -0.3952
  990MOL0     H36580   9.604   0.909   6.930  0.0025  1.3565  0.4370
  990MOL0     H36581   9.757   0.965   7.008 -0.6171  1.1623 -2.4846
  990MOL0     H36582  10.124   0.636   7.253  0.0479 -0.5930  0.6907
  990MOL0     H36583  10.154   0.529   7.458 -2.2821 -1.0170  4.1868
  990MOL0     H36584   9.885   0.191   7.578 -0.1524 -0.1087 -0.9650
  990MOL0     H36585  10.022   0.096   7.503 -1.4920 -0.9635  1.0950
  990MOL0     H36586  10.013   0.226   7.785 -1.3215 -0.8056  0.2104
  990MOL0     H36587   9.999   0.046   7.754 -1.5309  1.9566  0.8402
  990MOL0     H36588  10.212   0.212   7.809  1.5079  0.4745 -0.3589
  990MOL0     H36589  10.237   0.145   7.647 -2.4415 -2.9627 -2.0176
  990MOL0     H36590  10.180  -0.084   7.714  0.3008 -2.8647  2.0426
  990MOL0     H36591  10.193  -0.030   7.873 -2.2923 -0.0524 -1.2082
  990MOL0     H36592  10.428  -0.018   7.673  1.0081  0.4617  1.2607
  990MOL0     H36593  10.439   0.035   7.841 -0.5233  0.0400  0.3318
  990MOL0     H36594  10.499  -0.206   7.750  0.7093 -2.0270  1.5526
  990MOL0     H36595  10.328  -0.240   7.775 -0.2950  0.0831  2.9608
  990MOL0     H36596  10.379  -0.106   8.016 -1.6768  1.4606 -2.5223
  990MOL0     H36597  10.543  -0.169   7.969 -0.4657 -1.1493  0.0343
  990MOL0     H36598  10.448  -0.332   8.113  1.2609 -0.4649 -0.4760
  990MOL0     H36599  10.420  -0.383   7.940 -0.8956  0.2815  0.2247
  990MOL0     H36600   9.891   0.211   7.315 -1.0958 -0.5631 -2.7235
  990MOL0     H36601   9.847   0.342   7.105 -2.8134  1.9124  1.1049
  990MOL0     H36602  10.034   0.578   6.847 -2.3879 -0.8154  2.7668
  990MOL0     H36603  10.012   0.637   6.599 -0.9385  1.8265 -1.5489
  990MOL0     H36604  10.310   2.576   6.279 -0.3566 -0.8374  0.8870
  990MOL0     H36605  10.178   2.712   6.120  0.8478  0.8443 -0.5110
  990MOL0     H36606   9.875   2.522   5.647 -1.5235  0.5811 -3.9492
  990MOL0     H36607   9.664   2.613   5.563  0.1621 -0.7819  0.9257
  990MOL0     H36608   9.612   2.799   5.393  0.0036 -0.2497  0.1736
  990MOL0     H36609   9.444   2.819   5.457 -2.0432  3.8981 -1.4852
  990MOL0     H36610   9.501   3.079   5.480 -0.2885  3.7408 -3.2244
  990MOL0     H36611   9.482   3.005   5.314  0.1359 -0.9277  1.1318
  990MOL0     H36612   9.752   3.081   5.470  1.2333 -1.1593 -1.5886
  990MOL0     H36613   9.729   2.985   5.327 -2.5480 -0.2335  0.0230
  990MOL0     H36614   9.653   3.274   5.357 -1.1408  0.0686 -0.0435
  990MOL0     H36615   9.639   3.181   5.201 -0.9500 -0.1237 -0.5898
  990MOL0     H36616  10.050   3.250   5.255 -1.0995  0.6202  1.7628
  990MOL0     H36617   9.776   2.995   5.700  1.2457  0.8823 -3.0876
  990MOL0     H36618  10.000   2.916   5.936 -1.3929  5.3874  1.1293
  990MOL0     H36619  10.129   2.901   5.805 -0.1125 -1.6444  0.1226
  990MOL0     H36620  10.011   3.034   5.802 -2.2637  0.1355 -1.4501
  991MOL0     O36621  10.829   5.748  10.822  0.0282  0.5660  0.6201
  991MOL0     C36622  10.760   5.837  10.770 -1.0828 -0.5202 -0.1429
  991MOL0     O36623  10.645   5.887  10.824  0.2648 -0.7693  0.7225
  991MOL0     C36624  10.608   5.828  10.948  0.8202  0.6089  0.1516
  991MOL0     C36625  10.521   5.719  10.943 -0.6133 -0.0668  0.0096
  991MOL0     C36626  10.475   5.650  11.053 -0.7788  0.2944  0.0374
  991MOL0     C36627  10.500   5.704  11.182 -0.0526  0.6644  0.2099
  991MOL0     O36628  10.465   5.630  11.290  0.2664  0.2001  0.9281
  991MOL0     C36629  10.466   5.680  11.423  0.8604  0.2238  0.1917
  991MOL0     C36630  10.461   5.570  11.514 -0.2505 -0.6118 -0.1208
  991MOL0     C36631  10.352   5.472  11.484 -0.7880 -0.3600  0.5077
  991MOL0     C36632  10.354   5.357  11.578 -0.0536 -0.7251 -0.5369
  991MOL0     C36633  10.250   5.241  11.538 -0.0035 -0.1543 -0.2787
  991MOL0     C36634  10.324   5.141  11.444 -0.5261  0.4193  0.0362
  991MOL0     C36635  10.248   5.024  11.380 -0.2635 -0.1975  1.2112
  991MOL0     C36636  10.175   4.946  11.488  0.5527 -0.6210 -0.2327
  991MOL0     N36637  10.268   4.874  11.578  0.1871 -0.2718 -0.3147
  991MOL0     C36638  10.389   4.813  11.555  0.4064 -0.6033  0.1094
  991MOL0     C36639  10.433   4.758  11.673 -0.4233 -0.4310  0.2392
  991MOL0     C36640  10.560   4.697  11.710  0.7385  0.6667  0.2580
  991MOL0     C36641  10.603   4.563  11.642 -0.3870 -0.2788 -0.0306
  991MOL0     C36642  10.512   4.444  11.682 -0.6540  0.5485 -0.4912
  991MOL0     C36643  10.545   4.389  11.824  0.7634 -0.1702 -0.0760
  991MOL0     O36644  10.678   4.340  11.838  0.4620  0.4171  0.1432
  991MOL0     C36645  10.741   4.349  11.957  0.2092  0.2638 -0.4415
  991MOL0     C36646  10.797   4.241  12.016 -1.0877  0.0830  0.8162
  991MOL0     C36647  10.882   4.249  12.122 -0.5953 -0.0135 -0.3506
  991MOL0     C36648  10.927   4.117  12.185  1.1677  0.1455  0.3687
  991MOL0     C36649  10.909   4.376  12.182  0.4045  0.8695  0.7339
  991MOL0     C36650  11.013   4.397  12.280 -0.1830  0.0049 -0.7830
  991MOL0     O36651  11.002   4.488  12.380  0.4152 -0.9392  0.0086
  991MOL0     C36652  11.098   4.506  12.467 -0.3379  0.3206 -0.3667
  991MOL0     C36653  11.095   4.449  12.600  0.2104 -0.0807  0.4242
  991MOL0     C36654  11.204   4.475  12.693 -0.1312  0.7907  0.1971
  991MOL0     C36655  11.300   4.572  12.664 -0.4891 -0.2814  0.6820
  991MOL0     O36656  11.393   4.591  12.766 -0.9354  0.1073  0.0152
  991MOL0     C36657  11.448   4.724  12.786 -0.2872 -0.1149 -0.3903
  991MOL0     C36658  11.600   4.730  12.781  0.2073 -0.2251  0.7672
  991MOL0     C36659  11.646   4.866  12.830  0.3242 -0.4615  0.0788
  991MOL0     C36660  11.801   4.882  12.854 -0.0048 -0.1797 -0.2473
  991MOL0     C36661  11.837   4.996  12.945  0.2756 -0.8827  0.3830
  991MOL0     C36662  11.983   5.045  12.912  0.8554  0.3880  0.3596
  991MOL0     C36663  12.086   4.927  12.901 -0.9619 -0.6631  0.8545
  991MOL0     C36664  12.240   4.959  12.922 -1.3864 -0.6237 -0.5949
  991MOL0    Cl36665  12.353   4.823  12.881  0.2031  0.3257  0.2929
  991MOL0     C36666  11.300   4.634  12.539 -0.1128  0.3246  0.5135
  991MOL0     C36667  11.199   4.595  12.445 -0.0040 -0.7900 -0.3282
  991MOL0     O36668  11.113   4.321  12.267  1.0116 -0.8714  0.2904
  991MOL0     C36669  10.854   4.488  12.124  0.3338 -0.6509  0.4981
  991MOL0     C36670  10.763   4.473  12.018 -0.2176 -0.3277  0.4496
  991MOL0     N36671  10.339   4.798  11.768  0.1355 -0.1484  0.1715
  991MOL0     N36672  10.248   4.871  11.716 -0.7263  0.8824  0.3999
  991MOL0     C36673  10.584   5.825  11.188  0.2096  0.8543  0.3450
  991MOL0     C36674  10.638   5.882  11.068 -0.1739 -1.2715 -0.0623
  991MOL0     C36675  10.827   5.891  10.649  0.0844 -0.1903  0.5676
  991MOL0     C36676  10.733   5.943  10.552 -0.2355  0.3147 -0.6577
  991MOL0     C36677  10.771   6.028  10.453 -0.2381  1.3737 -0.9294
  991MOL0     C36678  10.912   6.049  10.441 -1.4007  0.0291  0.4930
  991MOL0     O36679  10.951   6.133  10.342  0.1879 -0.3047  0.3051
  991MOL0     C36680  11.073   6.208  10.366  0.3777 -0.4819 -0.3508
  991MOL0     C36681  11.098   6.302  10.245  0.7243  0.2481 -0.3759
  991MOL0     C36682  11.221   6.394  10.280 -0.1841  0.3922  0.5774
  991MOL0     C36683  11.268   6.471  10.158  0.0298 -0.3435  0.3808
  991MOL0     C36684  11.342   6.592  10.197 -0.7677  0.0781  0.0921
  991MOL0     C36685  11.395   6.688  10.236 -0.2383 -0.0989 -0.9576
  991MOL0     C36686  11.005   6.000  10.537  0.3998  0.3313 -0.0419
  991MOL0     C36687  10.968   5.921  10.642  0.6240  0.1905 -0.3164
  991MOL0     C36688  11.084   5.858  10.731  0.0153  0.7428  1.1716
  991MOL0     H36689  10.486   5.690  10.845 -1.7086 -0.0674  0.3860
  991MOL0     H36690  10.425   5.555  11.037 -0.7245  0.6186 -2.4292
  991MOL0     H36691  10.386   5.752  11.443 -1.2003 -1.7650 -0.3907
  991MOL0     H36692  10.558   5.737  11.440  2.0358 -0.8164 -2.1931
  991MOL0     H36693  10.560   5.526  11.527  0.2734  0.7575  0.7573
  991MOL0     H36694  10.457   5.619  11.611 -1.7997  2.7823 -1.7141
  991MOL0     H36695  10.259   5.528  11.475 -0.3797  0.1340 -0.9806
  991MOL0     H36696  10.374   5.436  11.383  0.3751  1.6220 -0.0069
  991MOL0     H36697  10.454   5.316  11.594  0.9147  1.9737  1.0997
  991MOL0     H36698  10.327   5.394  11.677 -0.0931 -2.9538  0.3441
  991MOL0     H36699  10.153   5.272  11.497 -2.0730 -1.0435  3.4262
  991MOL0     H36700  10.212   5.194  11.630 -0.7615  1.2665  0.1720
  991MOL0     H36701  10.363   5.198  11.360  0.7590  0.7527  0.8226
  991MOL0     H36702  10.410   5.101  11.499  0.7435  0.8067 -1.6000
  991MOL0     H36703  10.311   4.955  11.323  2.7290  3.6195 -0.6245
  991MOL0     H36704  10.175   5.054  11.305 -0.6436 -0.3877  1.5044
  991MOL0     H36705  10.114   5.012  11.551  0.2900  0.9070 -1.9922
  991MOL0     H36706  10.096   4.883  11.444  0.7982  0.2341 -1.9860
  991MOL0     H36707  10.445   4.798  11.464  0.0238 -0.5215 -0.1445
  991MOL0     H36708  10.568   4.682  11.818 -0.1591 -1.9569  0.0422
  991MOL0     H36709  10.630   4.775  11.679 -2.3878  3.3475 -0.6990
  991MOL0     H36710  10.592   4.575  11.533 -4.4485 -1.0143  0.1352
  991MOL0     H36711  10.707   4.539  11.662  0.3299  1.1280 -1.7421
  991MOL0     H36712  10.407   4.474  11.672 -0.7634  0.8503  1.1832
  991MOL0     H36713  10.549   4.369  11.613  2.2851  3.7473 -2.7541
  991MOL0     H36714  10.518   4.466  11.896 -0.9028 -0.7497 -0.0487
  991MOL0     H36715  10.487   4.299  11.845 -0.3743  0.6837  0.5242
  991MOL0     H36716  10.764   4.150  11.968 -2.5436  1.4660 -0.9954
  991MOL0     H36717  10.883   4.029  12.136  1.9448 -0.3449  0.5289
  991MOL0     H36718  10.903   4.111  12.292 -1.9087 -1.2190 -0.2819
  991MOL0     H36719  11.035   4.104  12.185  1.2300  0.3217  2.4048
  991MOL0     H36720  11.016   4.377  12.617 -2.1484  1.2712 -3.3635
  991MOL0     H36721  11.196   4.424  12.788 -0.0874 -1.6180 -1.0003
  991MOL0     H36722  11.409   4.808  12.727  3.2564  1.0745 -1.3583
  991MOL0     H36723  11.408   4.755  12.883  1.8685  2.1007 -0.0890
  991MOL0     H36724  11.653   4.651  12.837 -0.1199  0.4689  2.0989
  991MOL0     H36725  11.612   4.720  12.673 -0.7203 -0.8048  0.7114
  991MOL0     H36726  11.589   4.889  12.921  2.6950 -0.9360  1.8057
  991MOL0     H36727  11.619   4.942  12.757  3.1903 -1.7880 -2.5983
  991MOL0     H36728  11.848   4.906  12.759  2.6527 -1.1904  0.7210
  991MOL0     H36729  11.850   4.794  12.897 -1.5613 -0.9222  0.0921
  991MOL0     H36730  11.778   5.086  12.923  0.5494 -0.4992  1.1637
  991MOL0     H36731  11.826   4.986  13.053  4.4629  1.3172  1.2363
  991MOL0     H36732  12.020   5.116  12.987 -1.7677  2.0764  0.1784
  991MOL0     H36733  11.987   5.094  12.814  0.2489 -2.0335 -0.9675
  991MOL0     H36734  12.081   4.871  12.807  2.4616 -0.5440  0.4753
  991MOL0     H36735  12.066   4.859  12.985  2.8858  1.8840  4.2680
  991MOL0     H36736  12.256   4.995  13.024 -4.6537 -0.7016  0.0375
  991MOL0     H36737  12.270   5.045  12.861  0.0712  2.4643  3.9601
  991MOL0     H36738  11.369   4.710  12.504  0.6541 -0.2193  0.8095
  991MOL0     H36739  11.202   4.644  12.348  1.1711  2.1601  1.0554
  991MOL0     H36740  10.894   4.582  12.161 -1.8366  0.4689  0.1709
  991MOL0     H36741  10.716   4.565  11.983 -1.6959 -0.8344  1.0492
  991MOL0     H36742  10.604   5.878  11.281 -1.3204  1.8095  0.1614
  991MOL0     H36743  10.683   5.980  11.071 -1.2678 -0.7204 -0.8981
  991MOL0     H36744  10.625   5.932  10.553 -0.0371 -2.3609 -0.5962
  991MOL0     H36745  10.685   6.050  10.390 -1.1352 -1.7901 -1.0183
  991MOL0     H36746  11.062   6.271  10.455  0.6065  3.5146 -2.9045
  991MOL0     H36747  11.162   6.145  10.376  1.2019  0.9007  1.8781
  991MOL0     H36748  11.008   6.359  10.223 -0.9111 -1.4158  1.5557
  991MOL0     H36749  11.127   6.237  10.162 -0.4601 -0.8629  0.0378
  991MOL0     H36750  11.188   6.458  10.362 -1.6506 -0.7837  0.9412
  991MOL0     H36751  11.301   6.332  10.322  1.6585  2.1573 -0.1743
  991MOL0     H36752  11.179   6.510  10.107  1.2360  1.8528 -0.1516
  991MOL0     H36753  11.335   6.413  10.093  1.6383  0.9220  0.8450
  991MOL0     H36754  11.432   6.779  10.278  0.7893 -1.2634  0.7761
  991MOL0     H36755  11.111   6.018  10.524  0.6930  1.0752  2.6417
  991MOL0     H36756  11.180   5.855  10.678 -1.2893  1.7484 -1.4667
  991MOL0     H36757  11.097   5.900  10.831  1.0972 -0.0459  1.3849
  991MOL0     H36758  11.063   5.751  10.741 -2.5520  1.2569  1.8466
  992MOL0     O36759   7.514   5.884   3.357  0.2216 -0.2324  0.2225
  992MOL0     C36760   7.563   5.781   3.409  0.4824 -0.6265  0.2985
  992MOL0     O36761   7.610   5.679   3.340 -1.1368 -0.1229 -0.0460
  992MOL0     C36762   7.619   5.688   3.201  1.8249 -0.5650 -0.3177
  992MOL0     C36763   7.677   5.800   3.137 -0.4056 -0.0771 -0.4711
  992MOL0     C36764   7.666   5.800   2.999 -0.4212 -0.3720  0.2354
  992MOL0     C36765   7.620   5.691   2.925  1.0901  0.5314 -0.1521
  992MOL0     O36766   7.631   5.694   2.798  0.1733  0.3734  0.4928
  992MOL0     C36767   7.581   5.583   2.708  0.0423  0.1614 -0.7133
  992MOL0     C36768   7.694   5.481   2.694  0.4302  0.1981 -0.1838
  992MOL0     C36769   7.811   5.547   2.624 -0.6809  0.4584  0.1692
  992MOL0     C36770   7.910   5.454   2.563  0.1028  0.7347  1.2692
  992MOL0     C36771   8.025   5.539   2.508  0.5656 -0.5484  0.2744
  992MOL0     C36772   8.129   5.457   2.423 -0.0775  0.3415 -0.1679
  992MOL0     C36773   8.277   5.494   2.450 -0.3518 -0.2768 -0.9469
  992MOL0     C36774   8.314   5.473   2.598 -0.2600  0.2601  0.1805
  992MOL0     N36775   8.282   5.335   2.645 -0.2995 -0.2487 -0.4876
  992MOL0     C36776   8.349   5.222   2.617  0.5560  0.2088 -0.3489
  992MOL0     C36777   8.291   5.129   2.699  0.3305  0.1830  0.4613
  992MOL0     C36778   8.323   4.979   2.724  0.6877 -0.1006 -0.2544
  992MOL0     C36779   8.308   4.922   2.580  0.6887  0.4179  0.4040
  992MOL0     C36780   8.311   4.766   2.583 -0.1130 -0.7544  0.0493
  992MOL0     C36781   8.331   4.706   2.444  0.0649  0.0147 -0.5169
  992MOL0     O36782   8.352   4.559   2.446 -0.8998 -0.2752  0.5288
  992MOL0     C36783   8.254   4.463   2.473 -0.3233  0.2464  0.2817
  992MOL0     C36784   8.120   4.478   2.488 -0.1124  0.2086  1.1293
  992MOL0     C36785   8.035   4.367   2.486  0.5696 -0.6261  0.0500
  992MOL0     C36786   7.888   4.386   2.472  0.2268 -0.2179 -0.5703
  992MOL0     C36787   8.087   4.237   2.501  0.0586 -0.8783 -0.7883
  992MOL0     C36788   8.004   4.118   2.519  0.7743  0.9879  0.1974
  992MOL0     O36789   8.076   3.996   2.519 -0.3798  0.2024  0.4537
  992MOL0     C36790   8.018   3.872   2.494  0.7139  0.6285 -0.7687
  992MOL0     C36791   8.099   3.759   2.528 -0.0482 -0.0587  0.0524
  992MOL0     C36792   8.052   3.633   2.525 -0.0629  0.7586  0.6723
  992MOL0     C36793   7.919   3.606   2.476 -0.3027 -0.2368  0.7548
  992MOL0     O36794   7.888   3.475   2.479  0.1346  0.9205  0.3693
  992MOL0     C36795   7.826   3.421   2.361  0.3198  0.1664 -0.1798
  992MOL0     C36796   7.803   3.266   2.361  0.4419  0.7733 -0.0606
  992MOL0     C36797   7.754   3.218   2.227  0.4491  0.4232 -0.3494
  992MOL0     C36798   7.721   3.062   2.242 -0.0562 -0.6401  0.8029
  992MOL0     C36799   7.695   3.008   2.102  0.4751  0.4246  0.0273
  992MOL0     C36800   7.581   3.073   2.013 -0.2021  0.2043 -0.8631
  992MOL0     C36801   7.434   3.033   2.066  0.3035 -0.4226  0.3231
  992MOL0     C36802   7.336   3.075   1.958 -0.0751  0.5390 -0.5206
  992MOL0    Cl36803   7.325   3.241   1.919  0.2427  0.2321  0.2393
  992MOL0     C36804   7.842   3.713   2.425 -0.2579  0.0821 -0.0400
  992MOL0     C36805   7.895   3.841   2.434 -0.2904 -0.3345 -0.1767
  992MOL0     O36806   7.890   4.123   2.561  0.5222  0.3741 -0.1546
  992MOL0     C36807   8.230   4.221   2.508  0.2094 -0.7101  0.0050
  992MOL0     C36808   8.306   4.337   2.500 -0.4160 -0.3536 -0.1778
  992MOL0     N36809   8.187   5.190   2.764  0.2167  0.3174  0.6823
  992MOL0     N36810   8.181   5.314   2.732 -0.2272 -0.2550  0.1128
  992MOL0     C36811   7.578   5.576   2.994  1.0799  0.5339 -0.4992
  992MOL0     C36812   7.577   5.572   3.140 -0.2053 -0.8705  0.8198
  992MOL0     C36813   7.579   5.773   3.554  0.8000  0.0349  0.3984
  992MOL0     C36814   7.655   5.672   3.609 -0.4611 -0.3216 -0.3810
  992MOL0     C36815   7.660   5.653   3.744  0.3311  0.1901 -0.3495
  992MOL0     C36816   7.594   5.742   3.835  0.1685  0.0721  0.3092
  992MOL0     O36817   7.632   5.750   3.959 -0.9542  0.2009  0.2618
  992MOL0     C36818   7.653   5.627   4.034  0.6518  0.2674 -0.3893
  992MOL0     C36819   7.554   5.638   4.159  0.3958 -0.3304 -0.0967
  992MOL0     C36820   7.584   5.769   4.245 -0.0922  0.0632  0.8726
  992MOL0     C36821   7.729   5.788   4.293 -0.3201 -0.2095 -0.1437
  992MOL0     C36822   7.744   5.716   4.412 -0.0939 -0.1801 -0.3578
  992MOL0     C36823   7.764   5.651   4.513  0.6138 -0.1217 -0.3832
  992MOL0     C36824   7.516   5.844   3.777 -0.2763 -1.6768 -0.4415
  992MOL0     C36825   7.506   5.861   3.641  0.8972  0.6265 -0.3422
  992MOL0     C36826   7.438   5.990   3.597 -1.0801  0.8736 -0.2915
  992MOL0     H36827   7.722   5.871   3.205 -2.3609 -1.1170  2.0709
  992MOL0     H36828   7.695   5.879   2.931 -0.6529 -0.7719 -0.3363
  992MOL0     H36829   7.548   5.624   2.612 -2.5096 -0.8982 -0.3715
  992MOL0     H36830   7.497   5.528   2.751  0.5050  0.0761  0.1062
  992MOL0     H36831   7.726   5.451   2.794 -3.7342  0.1522  1.3472
  992MOL0     H36832   7.662   5.396   2.633  0.0631 -0.6404  1.1453
  992MOL0     H36833   7.768   5.613   2.548 -3.4993 -1.8371 -0.4586
  992MOL0     H36834   7.862   5.600   2.704  1.2468 -0.1904 -0.5741
  992MOL0     H36835   7.948   5.383   2.637  0.4108 -0.0282  0.4017
  992MOL0     H36836   7.870   5.400   2.476 -0.8731 -0.9655  2.7091
  992MOL0     H36837   8.073   5.597   2.588  0.5659 -1.1582  0.7248
  992MOL0     H36838   7.979   5.599   2.429  3.5876  0.0825 -1.1717
  992MOL0     H36839   8.104   5.353   2.445 -2.2961  0.4236 -2.0438
  992MOL0     H36840   8.107   5.466   2.317  0.8152  1.0399 -0.3056
  992MOL0     H36841   8.311   5.594   2.420  0.5581 -0.6453 -1.1815
  992MOL0     H36842   8.335   5.417   2.398 -1.4856 -4.7493  3.6004
  992MOL0     H36843   8.423   5.475   2.605 -0.3344  0.0467  1.8878
  992MOL0     H36844   8.260   5.539   2.666 -3.9109 -3.6714  1.5270
  992MOL0     H36845   8.434   5.210   2.550  0.0456  2.7027 -1.5774
  992MOL0     H36846   8.244   4.934   2.784  1.4416  0.5247  1.2575
  992MOL0     H36847   8.419   4.957   2.772  0.0475 -2.1486  0.1695
  992MOL0     H36848   8.207   4.953   2.552  1.1881  3.6541  1.6592
  992MOL0     H36849   8.385   4.973   2.521 -2.0465  3.5595 -0.7854
  992MOL0     H36850   8.403   4.754   2.640 -0.7613  1.3505  1.6638
  992MOL0     H36851   8.216   4.733   2.625 -2.1170  1.2928 -2.4697
  992MOL0     H36852   8.238   4.733   2.392 -1.9189  0.7919  3.1359
  992MOL0     H36853   8.414   4.762   2.400  1.4662  0.3445  2.3148
  992MOL0     H36854   8.071   4.574   2.479  0.5272  0.6069  1.7399
  992MOL0     H36855   7.874   4.488   2.436 -1.2576 -0.4121 -0.6218
  992MOL0     H36856   7.845   4.368   2.571  0.0777 -0.1022 -0.6128
  992MOL0     H36857   7.857   4.313   2.396 -2.5530  0.3053 -0.0699
  992MOL0     H36858   8.192   3.763   2.583  0.8488 -0.1697 -1.3917
  992MOL0     H36859   8.104   3.551   2.574 -2.7659  1.2698  4.9928
  992MOL0     H36860   7.734   3.478   2.348 -0.5390 -0.8980  1.0215
  992MOL0     H36861   7.902   3.447   2.286  0.0502  0.9183 -0.1970
  992MOL0     H36862   7.904   3.223   2.362 -0.6420 -1.9052 -0.0668
  992MOL0     H36863   7.742   3.221   2.439 -0.8189 -1.6611 -2.2889
  992MOL0     H36864   7.837   3.232   2.158  1.2944 -1.9559  0.0751
  992MOL0     H36865   7.669   3.275   2.190  0.3153 -0.6485 -1.7856
  992MOL0     H36866   7.633   3.051   2.306  0.7711 -2.8849  1.6720
  992MOL0     H36867   7.808   3.012   2.286  0.7388 -2.6833 -2.7207
  992MOL0     H36868   7.781   3.028   2.038 -1.0843  0.1779 -2.2619
  992MOL0     H36869   7.679   2.901   2.117  0.3513  0.5588  0.9464
  992MOL0     H36870   7.599   3.046   1.909  0.3630  1.7627 -1.1922
  992MOL0     H36871   7.594   3.180   2.026 -1.0251  0.0706  1.6888
  992MOL0     H36872   7.411   3.089   2.158 -0.5332 -0.6322  0.2549
  992MOL0     H36873   7.429   2.925   2.085  0.1180  0.0294  3.5263
  992MOL0     H36874   7.240   3.036   1.993  1.6145 -2.6066  1.0443
  992MOL0     H36875   7.362   3.016   1.870  0.1447  0.0645 -0.1393
  992MOL0     H36876   7.738   3.699   2.398 -0.8376 -0.0854  2.1300
  992MOL0     H36877   7.832   3.927   2.415 -0.4351 -0.4369 -0.1700
  992MOL0     H36878   8.268   4.120   2.520 -0.7747 -0.8686  2.3600
  992MOL0     H36879   8.414   4.335   2.495 -0.2854  0.8049  1.3697
  992MOL0     H36880   7.535   5.491   2.942  1.3893  1.6343 -2.6755
  992MOL0     H36881   7.535   5.491   3.198  2.0191 -2.3285  0.5073
  992MOL0     H36882   7.698   5.592   3.549  0.2850 -2.0091  2.2025
  992MOL0     H36883   7.714   5.567   3.781  0.4194  1.0729  1.6986
  992MOL0     H36884   7.627   5.540   3.973 -0.3151  0.5031 -0.3294
  992MOL0     H36885   7.757   5.622   4.066  1.7840  1.0430 -3.5655
  992MOL0     H36886   7.570   5.550   4.222 -0.2706  0.4133  1.1484
  992MOL0     H36887   7.450   5.655   4.133 -0.2926 -0.1939  2.4703
  992MOL0     H36888   7.556   5.855   4.183  0.1485 -1.7564 -1.9232
  992MOL0     H36889   7.519   5.765   4.333  1.2669  0.4297  1.9435
  992MOL0     H36890   7.763   5.891   4.297 -0.6224 -0.0150 -1.7832
  992MOL0     H36891   7.798   5.756   4.215 -0.5102  1.1604 -0.9132
  992MOL0     H36892   7.773   5.601   4.607  2.1353 -0.7820 -0.8438
  992MOL0     H36893   7.466   5.922   3.834  1.6960 -0.5896 -0.1241
  992MOL0     H36894   7.360   5.959   3.526  0.9972 -1.8554 -1.5936
  992MOL0     H36895   7.394   6.055   3.672  1.7480  2.9174 -0.2456
  992MOL0     H36896   7.517   6.046   3.546  0.2905  0.8247  1.6803
  993MOL0     O36897   3.498  10.642   1.684 -0.4957  0.3529 -0.2822
  993MOL0     C36898   3.558  10.719   1.754 -0.0882  0.4246 -0.2573
  993MOL0     O36899   3.515  10.837   1.801  0.0338 -0.8062 -0.3313
  993MOL0     C36900   3.391  10.878   1.751  0.3310 -0.4281 -0.3497
  993MOL0     C36901   3.272  10.839   1.818 -0.1329  0.0782 -0.0592
  993MOL0     C36902   3.149  10.880   1.777  0.3675  0.0072  0.2546
  993MOL0     C36903   3.140  10.961   1.669 -0.1675  0.3343  0.2655
  993MOL0     O36904   3.023  11.012   1.613 -0.4265  0.0104 -0.1338
  993MOL0     C36905   2.912  11.013   1.698  0.5030 -0.0749 -0.4657
  993MOL0     C36906   2.788  11.050   1.621  0.4669  0.4619  0.3670
  993MOL0     C36907   2.664  11.052   1.718 -0.1012  0.2292  0.1039
  993MOL0     C36908   2.675  11.109   1.862 -0.3748  0.3439  0.3946
  993MOL0     C36909   2.537  11.133   1.922 -0.4590  0.1472  0.1424
  993MOL0     C36910   2.557  11.161   2.070  0.5299 -0.3591 -1.1260
  993MOL0     C36911   2.428  11.173   2.159 -0.4937  0.1722 -0.6287
  993MOL0     C36912   2.335  11.295   2.138  0.1551  0.3039  0.2437
  993MOL0     N36913   2.209  11.254   2.076  0.1764 -0.6766 -0.6853
  993MOL0     C36914   2.172  11.261   1.941 -0.4546  0.3034  0.3699
  993MOL0     C36915   2.043  11.217   1.932  0.0328 -0.5105 -0.1230
  993MOL0     C36916   1.951  11.209   1.811  0.3651 -0.3773  0.0895
  993MOL0     C36917   1.919  11.348   1.753  0.1881 -0.2634  0.1765
  993MOL0     C36918   1.852  11.328   1.621 -0.4188 -0.0386 -0.4843
  993MOL0     C36919   1.853  11.451   1.531 -0.7197  0.3928  0.5092
  993MOL0     O36920   1.756  11.549   1.560 -1.1027 -0.9835 -0.5564
  993MOL0     C36921   1.717  11.627   1.452 -0.5667 -0.6493  0.5738
  993MOL0     C36922   1.591  11.677   1.462 -0.2296  0.9658  0.7047
  993MOL0     C36923   1.531  11.750   1.351  0.3348 -0.0395 -0.2091
  993MOL0     C36924   1.391  11.788   1.367  0.5111 -0.9094  0.4844
  993MOL0     C36925   1.603  11.787   1.237 -0.5775 -0.2756  0.0468
  993MOL0     C36926   1.559  11.849   1.111 -0.5183 -0.0097 -0.2615
  993MOL0     O36927   1.648  11.836   1.009  0.0568  0.0984 -0.7820
  993MOL0     C36928   1.588  11.873   0.889  0.1534 -0.7288 -0.5424
  993MOL0     C36929   1.521  11.774   0.813 -0.6425  0.0200  0.4422
  993MOL0     C36930   1.474  11.806   0.684  0.9802  0.0905 -0.2962
  993MOL0     C36931   1.473  11.933   0.636  0.5768 -0.9056 -0.7373
  993MOL0     O36932   1.393  11.966   0.531  0.2689  0.2214  0.4852
  993MOL0     C36933   1.336  12.100   0.521  0.0948 -0.5021  0.0224
  993MOL0     C36934   1.202  12.086   0.442  0.5956 -0.3286  0.4023
  993MOL0     C36935   1.134  11.959   0.491 -0.2439  1.1751  0.6518
  993MOL0     C36936   0.978  11.960   0.452 -0.3712 -0.4708  0.0138
  993MOL0     C36937   0.919  11.825   0.486 -0.6564 -0.0071  0.1814
  993MOL0     C36938   0.768  11.834   0.465 -0.3900 -1.0819  0.2887
  993MOL0     C36939   0.733  11.831   0.314  0.1832  0.3405 -0.0552
  993MOL0     C36940   0.593  11.813   0.287  0.2709  0.4275 -0.9911
  993MOL0    Cl36941   0.508  11.959   0.346 -0.2696 -0.3944  0.4185
  993MOL0     C36942   1.549  12.029   0.704  0.5494  0.2811  0.5756
  993MOL0     C36943   1.608  12.005   0.830  0.3491  0.2985 -0.6602
  993MOL0     O36944   1.446  11.898   1.108  0.0352  0.5550 -0.0536
  993MOL0     C36945   1.744  11.762   1.251 -0.1987 -0.6612 -0.4073
  993MOL0     C36946   1.804  11.699   1.362  0.8794 -0.3007 -0.2667
  993MOL0     N36947   1.997  11.191   2.060 -0.6702  0.1191 -0.5035
  993MOL0     N36948   2.091  11.217   2.147 -0.2496 -0.6198 -0.1858
  993MOL0     C36949   3.260  10.998   1.601  0.3362 -0.0412 -0.7682
  993MOL0     C36950   3.381  10.963   1.647 -0.1288 -0.1538  0.2238
  993MOL0     C36951   3.704  10.681   1.770  0.1422 -0.6142  0.5436
  993MOL0     C36952   3.793  10.763   1.695 -0.3695  0.3832  0.7580
  993MOL0     C36953   3.931  10.737   1.706  0.1293 -0.0185 -0.1709
  993MOL0     C36954   3.977  10.631   1.788 -0.1224 -0.0495  0.0030
  993MOL0     O36955   4.106  10.632   1.835  0.1221 -0.8137 -0.4855
  993MOL0     C36956   4.204  10.671   1.739  0.2504 -0.0672  0.7011
  993MOL0     C36957   4.338  10.682   1.825  0.6633  0.2228 -0.3375
  993MOL0     C36958   4.391  10.534   1.858 -0.9112 -0.3120  0.2542
  993MOL0     C36959   4.500  10.529   1.970  0.3679 -0.6458 -1.1255
  993MOL0     C36960   4.627  10.589   1.937 -0.5870  0.6475 -0.6323
  993MOL0     C36961   4.737  10.624   1.899 -0.1761  1.2370  1.4198
  993MOL0     C36962   3.885  10.553   1.850  1.0398  0.7467  0.3024
  993MOL0     C36963   3.747  10.573   1.842  0.2519 -0.6839  0.1176
  993MOL0     C36964   3.656  10.472   1.902 -0.3353  0.7636 -0.9826
  993MOL0     H36965   3.273  10.766   1.898  1.9745 -2.2937 -2.0797
  993MOL0     H36966   3.059  10.847   1.827  0.4279 -0.1396  0.2673
  993MOL0     H36967   2.920  11.087   1.778  1.5121 -2.0351  1.3345
  993MOL0     H36968   2.890  10.912   1.732  0.5917  0.6403  1.8972
  993MOL0     H36969   2.806  11.149   1.579 -0.5959  1.4183  2.0573
  993MOL0     H36970   2.770  10.984   1.536 -0.7269 -0.8836  1.6112
  993MOL0     H36971   2.595  11.108   1.655  0.7286  0.0237 -1.0132
  993MOL0     H36972   2.622  10.951   1.730 -1.2481  0.4105 -2.0118
  993MOL0     H36973   2.734  11.036   1.917 -0.1730  0.5990  0.5179
  993MOL0     H36974   2.717  11.210   1.856  0.0284  0.1136 -1.3164
  993MOL0     H36975   2.472  11.046   1.930 -0.9533  0.6816  3.0254
  993MOL0     H36976   2.491  11.216   1.867  0.2604 -0.1914 -0.9909
  993MOL0     H36977   2.609  11.081   2.123 -2.8236 -1.4055  0.9060
  993MOL0     H36978   2.620  11.247   2.094  0.5534 -0.5281 -0.5644
  993MOL0     H36979   2.447  11.164   2.266 -3.3265 -2.5623 -0.2073
  993MOL0     H36980   2.373  11.081   2.139  0.7279 -0.5666 -0.6795
  993MOL0     H36981   2.306  11.336   2.235 -1.3082  0.3830 -0.2151
  993MOL0     H36982   2.379  11.369   2.071 -0.2356 -1.1732 -1.7351
  993MOL0     H36983   2.233  11.285   1.855  2.7966 -1.3525  2.0434
  993MOL0     H36984   1.856  11.173   1.851 -0.6136  2.3105  0.4142
  993MOL0     H36985   1.986  11.141   1.733  2.6707 -2.6029  2.8548
  993MOL0     H36986   1.864  11.404   1.829 -1.2965 -1.7960  0.2838
  993MOL0     H36987   2.016  11.398   1.740 -0.8205  1.6730 -0.3723
  993MOL0     H36988   1.902  11.246   1.570  0.5913  0.4041 -0.2384
  993MOL0     H36989   1.750  11.292   1.631 -0.1747 -2.2886 -4.2690
  993MOL0     H36990   1.955  11.491   1.531  0.3109 -2.0209  1.3202
  993MOL0     H36991   1.837  11.413   1.430  1.2246  3.8429 -1.3136
  993MOL0     H36992   1.541  11.647   1.553 -4.1167  0.1883 -1.4633
  993MOL0     H36993   1.353  11.753   1.463  2.9463 -7.0669 -0.3210
  993MOL0     H36994   1.348  11.724   1.290  0.7778 -0.9253  0.3483
  993MOL0     H36995   1.370  11.892   1.340 -0.7483 -2.0408 -3.5982
  993MOL0     H36996   1.514  11.673   0.851  0.1360  0.5401  2.0490
  993MOL0     H36997   1.425  11.722   0.636  1.8425 -3.2084  4.0052
  993MOL0     H36998   1.324  12.143   0.621  2.7527 -1.2211  0.7449
  993MOL0     H36999   1.404  12.166   0.466  1.5442 -1.4531  0.5955
  993MOL0     H37000   1.135  12.170   0.459  1.5830  0.5609  0.0057
  993MOL0     H37001   1.223  12.068   0.337 -1.5471 -0.0336 -0.1256
  993MOL0     H37002   1.150  11.956   0.599  0.7913 -0.8319  0.5028
  993MOL0     H37003   1.175  11.865   0.453  1.0325  1.1748  1.9296
  993MOL0     H37004   0.976  11.975   0.343  4.4977  0.0881 -0.2037
  993MOL0     H37005   0.928  12.035   0.514 -1.7238 -0.6746 -0.7935
  993MOL0     H37006   0.971  11.741   0.439  3.1531  1.5717  1.2111
  993MOL0     H37007   0.932  11.808   0.593  0.1494 -0.7023 -0.0225
  993MOL0     H37008   0.727  11.930   0.499 -0.7513  0.4634 -3.9260
  993MOL0     H37009   0.726  11.750   0.522  0.9860 -4.6304 -3.4722
  993MOL0     H37010   0.788  11.745   0.275  0.6803 -0.9945  3.2560
  993MOL0     H37011   0.774  11.922   0.270  0.5246 -0.9093 -2.4899
  993MOL0     H37012   0.548  11.726   0.336  3.0803  0.8556  2.7685
  993MOL0     H37013   0.582  11.806   0.178 -1.3253  2.0976 -0.9868
  993MOL0     H37014   1.547  12.129   0.662  0.5473  0.1838  0.3387
  993MOL0     H37015   1.667  12.071   0.893 -0.0663 -1.3259  1.5466
  993MOL0     H37016   1.815  11.798   1.177 -0.3686  0.2183 -0.1591
  993MOL0     H37017   1.912  11.687   1.364  1.1528  1.6110 -1.3770
  993MOL0     H37018   3.257  11.055   1.509 -1.4756  1.3966  0.1115
  993MOL0     H37019   3.476  10.994   1.605  0.2269 -1.6756 -0.1666
  993MOL0     H37020   3.767  10.848   1.634  2.1898  0.2216 -0.7213
  993MOL0     H37021   3.998  10.809   1.660 -0.1893 -0.7219 -1.8107
  993MOL0     H37022   4.205  10.603   1.653  2.3533 -0.4902  1.0178
  993MOL0     H37023   4.178  10.771   1.702  0.8898  0.6092  2.0382
  993MOL0     H37024   4.326  10.745   1.914  1.8960 -1.2182  0.8946
  993MOL0     H37025   4.415  10.737   1.771 -0.6206  1.2427 -1.1886
  993MOL0     H37026   4.305  10.479   1.896 -2.7111  0.3889 -2.4899
  993MOL0     H37027   4.433  10.492   1.767  0.4888 -0.0439  0.7539
  993MOL0     H37028   4.522  10.426   1.998 -1.1809 -0.6251  0.2959
  993MOL0     H37029   4.457  10.583   2.055  1.1881 -0.9236 -0.5186
  993MOL0     H37030   4.827  10.664   1.856  1.0968 -0.8566  2.0052
  993MOL0     H37031   3.921  10.473   1.914 -1.8219 -1.4887 -0.6507
  993MOL0     H37032   3.703  10.386   1.951  0.6049 -0.5943 -4.0358
  993MOL0     H37033   3.594  10.508   1.984 -0.4688 -0.6158 -0.4474
  993MOL0     H37034   3.593  10.436   1.820 -1.8105 -0.0323  0.4422
  994MOL0     O37035   2.379   8.313   8.501 -0.0263  0.4922 -0.1244
  994MOL0     C37036   2.274   8.353   8.546 -0.3979 -0.3773 -0.7258
  994MOL0     O37037   2.242   8.352   8.674  1.0187  0.4584 -0.0774
  994MOL0     C37038   2.332   8.318   8.773  0.2063  0.4990 -0.0897
  994MOL0     C37039   2.451   8.392   8.778 -0.2800 -0.4456 -0.2911
  994MOL0     C37040   2.543   8.368   8.882  0.1474 -0.2854 -0.1617
  994MOL0     C37041   2.505   8.273   8.977  0.1752 -0.3493 -1.7205
  994MOL0     O37042   2.614   8.255   9.065 -0.4078 -0.0929  0.0779
  994MOL0     C37043   2.608   8.127   9.137 -0.2458 -0.8940  0.4365
  994MOL0     C37044   2.729   8.117   9.238  0.0631  0.4873  0.9489
  994MOL0     C37045   2.867   8.115   9.179 -0.2486 -0.2363 -0.8736
  994MOL0     C37046   2.978   8.120   9.288  1.2151  0.1331  0.5706
  994MOL0     C37047   3.108   8.052   9.241 -0.1343 -0.4593 -0.1372
  994MOL0     C37048   3.182   8.142   9.139 -0.4091 -0.2946  0.5784
  994MOL0     C37049   3.309   8.075   9.085 -0.1336 -0.0042  0.4368
  994MOL0     C37050   3.418   8.082   9.188 -0.5517 -0.0184  0.1056
  994MOL0     N37051   3.526   7.984   9.148 -0.4398 -0.3782 -0.0293
  994MOL0     C37052   3.511   7.850   9.141  0.1045  0.6249 -0.5268
  994MOL0     C37053   3.637   7.811   9.097  0.6871  0.8665 -0.4841
  994MOL0     C37054   3.675   7.671   9.058 -0.4450 -0.4231  0.2751
  994MOL0     C37055   3.577   7.590   8.980 -0.8484 -0.1465  0.0990
  994MOL0     C37056   3.624   7.441   8.982 -0.3559 -0.3415 -0.2214
  994MOL0     C37057   3.693   7.388   8.855 -0.2499 -0.8385 -0.2257
  994MOL0     O37058   3.808   7.479   8.849  0.0489  0.0949 -0.7792
  994MOL0     C37059   3.892   7.471   8.742  0.4886  0.4882 -0.1709
  994MOL0     C37060   3.962   7.355   8.720  0.5590 -0.1311 -0.6242
  994MOL0     C37061   4.054   7.340   8.618  0.8997  0.6836 -0.1965
  994MOL0     C37062   4.154   7.235   8.630 -0.9710  0.1108 -0.0170
  994MOL0     C37063   4.067   7.445   8.521  0.6286 -0.1806  0.3871
  994MOL0     C37064   4.151   7.430   8.401 -0.1289 -0.1530 -1.0823
  994MOL0     O37065   4.185   7.543   8.341 -0.0639  0.3624  0.6280
  994MOL0     C37066   4.253   7.534   8.226  0.3877 -0.3819  0.0834
  994MOL0     C37067   4.191   7.525   8.101  0.1211  0.2402  0.5164
  994MOL0     C37068   4.269   7.500   7.990 -0.5674 -0.0376 -0.9547
  994MOL0     C37069   4.409   7.510   7.990  0.2084 -0.3100  1.0879
  994MOL0     O37070   4.488   7.514   7.879  0.1573 -0.6507  0.7496
  994MOL0     C37071   4.519   7.386   7.818 -0.0994 -0.8362  0.2129
  994MOL0     C37072   4.637   7.325   7.892  0.6076  0.2650  0.0237
  994MOL0     C37073   4.766   7.416   7.873  0.9295  0.4962  0.0797
  994MOL0     C37074   4.870   7.350   7.957  0.1935  0.3849 -0.3689
  994MOL0     C37075   5.016   7.392   7.911 -0.9240  0.9092 -0.1399
  994MOL0     C37076   5.124   7.318   7.981 -0.1109  0.0874  0.0277
  994MOL0     C37077   5.253   7.389   7.969  0.2805 -0.3267 -0.2026
  994MOL0     C37078   5.383   7.320   7.998  0.2463 -0.7057 -0.0845
  994MOL0    Cl37079   5.417   7.185   7.881  0.2576  0.0541  0.3669
  994MOL0     C37080   4.467   7.550   8.110  0.1361 -0.5048 -0.8197
  994MOL0     C37081   4.387   7.559   8.229 -0.5350  0.2262  0.5537
  994MOL0     O37082   4.178   7.316   8.361  0.4948  0.3807  0.3171
  994MOL0     C37083   3.986   7.560   8.536  0.4464  0.1282  0.3748
  994MOL0     C37084   3.896   7.572   8.650 -0.4410 -0.3815  0.1911
  994MOL0     N37085   3.722   7.920   9.088 -0.1693  0.0561 -0.6304
  994MOL0     N37086   3.656   8.021   9.122  0.3241 -0.2154  0.6072
  994MOL0     C37087   2.370   8.211   8.986 -0.5334  0.3699  1.0662
  994MOL0     C37088   2.289   8.230   8.871  0.8926  0.7242  0.9148
  994MOL0     C37089   2.174   8.419   8.456  0.7614  0.7896 -0.5661
  994MOL0     C37090   2.043   8.441   8.499  0.5228  0.1153  0.2503
  994MOL0     C37091   1.944   8.507   8.421 -0.2399 -0.2960  0.5440
  994MOL0     C37092   1.971   8.545   8.287  0.5594 -0.3481 -0.0098
  994MOL0     O37093   1.895   8.610   8.198 -0.9543 -0.1739  0.5138
  994MOL0     C37094   1.770   8.671   8.241 -1.6041  0.4555 -0.2579
  994MOL0     C37095   1.699   8.736   8.123 -0.2875  0.8111  0.4346
  994MOL0     C37096   1.575   8.817   8.159  0.5572 -0.7018  0.9674
  994MOL0     C37097   1.448   8.760   8.104  0.1084 -0.6401 -0.5221
  994MOL0     C37098   1.394   8.658   8.198 -0.1078 -0.0928 -0.2147
  994MOL0     C37099   1.346   8.577   8.279 -0.0957  0.3552  0.1289
  994MOL0     C37100   2.098   8.510   8.237  0.0743 -0.2152 -1.0071
  994MOL0     C37101   2.198   8.456   8.319 -0.2535 -0.0860 -0.2898
  994MOL0     C37102   2.342   8.462   8.265 -0.2656 -0.6788  0.2208
  994MOL0     H37103   2.469   8.476   8.712  0.0708  1.3827  2.0109
  994MOL0     H37104   2.639   8.418   8.876  0.0182 -0.1247 -0.9712
  994MOL0     H37105   2.585   8.049   9.064 -1.7153  0.8027 -0.9816
  994MOL0     H37106   2.522   8.135   9.205  1.2078 -0.5251  2.3391
  994MOL0     H37107   2.724   8.203   9.306  1.3051 -0.1711  1.9378
  994MOL0     H37108   2.711   8.028   9.299 -0.3560 -1.8674 -2.3978
  994MOL0     H37109   2.881   8.036   9.104 -0.6721  0.0704 -1.2785
  994MOL0     H37110   2.891   8.207   9.126  4.0702  0.2904  1.5901
  994MOL0     H37111   2.986   8.224   9.321 -2.9929  0.4211  1.1525
  994MOL0     H37112   2.936   8.084   9.382  0.8282 -1.8759 -0.3218
  994MOL0     H37113   3.083   7.960   9.186 -2.9133 -2.2927  3.7560
  994MOL0     H37114   3.166   8.021   9.328  1.5100  0.3621 -0.8781
  994MOL0     H37115   3.112   8.150   9.056 -1.3330 -4.0511  0.8041
  994MOL0     H37116   3.217   8.239   9.176  5.3124 -2.3490  1.6209
  994MOL0     H37117   3.346   8.139   9.004 -0.6815 -1.7492 -1.2905
  994MOL0     H37118   3.285   7.977   9.042  1.3249 -0.3432  0.3556
  994MOL0     H37119   3.450   8.186   9.199 -1.1185  0.2610 -0.8146
  994MOL0     H37120   3.366   8.048   9.278 -3.9289 -0.1654 -1.7269
  994MOL0     H37121   3.429   7.784   9.169  0.7067  0.1784  0.2633
  994MOL0     H37122   3.679   7.623   9.156  0.3348  0.3103  0.6089
  994MOL0     H37123   3.775   7.668   9.014 -0.3990 -1.7393  0.4393
  994MOL0     H37124   3.478   7.597   9.027 -0.2318  1.6740  1.2048
  994MOL0     H37125   3.567   7.629   8.879 -3.1393  0.7548  0.5936
  994MOL0     H37126   3.701   7.432   9.059  0.4555 -0.2623 -1.0054
  994MOL0     H37127   3.545   7.369   9.006 -1.3535  0.4316 -1.1041
  994MOL0     H37128   3.713   7.281   8.864 -2.7432 -1.2451  1.4401
  994MOL0     H37129   3.621   7.401   8.773 -0.3010  2.0314  0.1727
  994MOL0     H37130   3.960   7.285   8.803 -5.0968  0.1108 -0.1974
  994MOL0     H37131   4.147   7.157   8.554  1.9519 -2.9627  2.5113
  994MOL0     H37132   4.143   7.185   8.727 -3.0154  0.0067 -0.2613
  994MOL0     H37133   4.254   7.277   8.616 -1.5267  1.6497  0.3579
  994MOL0     H37134   4.082   7.518   8.109  0.2237 -0.6916  1.3795
  994MOL0     H37135   4.204   7.487   7.903 -2.8314 -1.2656  0.8017
  994MOL0     H37136   4.438   7.314   7.827 -0.4245 -0.4371  0.4916
  994MOL0     H37137   4.546   7.414   7.716 -0.2554  0.2990  0.4749
  994MOL0     H37138   4.611   7.304   7.996 -0.0905  0.0243 -0.1940
  994MOL0     H37139   4.648   7.225   7.849  0.9918 -0.1185  0.9815
  994MOL0     H37140   4.751   7.521   7.899 -0.4215  0.4154 -0.3217
  994MOL0     H37141   4.800   7.416   7.769 -1.2056 -0.6951 -0.6725
  994MOL0     H37142   4.852   7.243   7.968 -2.1999  0.8395  0.9072
  994MOL0     H37143   4.852   7.398   8.054 -0.1303  3.2749 -1.7386
  994MOL0     H37144   5.035   7.377   7.804  1.4733  0.8537  0.2452
  994MOL0     H37145   5.020   7.499   7.931  0.2723  1.5588 -3.2306
  994MOL0     H37146   5.131   7.216   7.941 -0.2882  0.6749 -1.5495
  994MOL0     H37147   5.097   7.315   8.087 -2.4343  0.7098 -0.4872
  994MOL0     H37148   5.251   7.469   8.044  0.7354 -1.4597  1.0782
  994MOL0     H37149   5.269   7.431   7.870 -0.8779 -1.1488 -0.7515
  994MOL0     H37150   5.402   7.299   8.104  2.7761  1.9913  0.1453
  994MOL0     H37151   5.465   7.392   7.985  0.5499 -0.8748  0.7882
  994MOL0     H37152   4.575   7.562   8.116  0.0944 -0.2145 -0.6530
  994MOL0     H37153   4.445   7.582   8.318  1.4257 -1.0817 -0.3086
  994MOL0     H37154   3.984   7.637   8.460  3.4169  0.8650  0.9184
  994MOL0     H37155   3.844   7.667   8.664  0.2885 -0.0602  0.8502
  994MOL0     H37156   2.339   8.145   9.067 -0.4733  1.2035  1.7820
  994MOL0     H37157   2.192   8.182   8.857  2.0741 -1.8096  0.8319
  994MOL0     H37158   2.005   8.414   8.597  1.0873 -0.6049  0.2797
  994MOL0     H37159   1.851   8.524   8.475 -1.2026 -2.7615 -0.2311
  994MOL0     H37160   1.703   8.591   8.275 -1.2687  0.0356 -0.5749
  994MOL0     H37161   1.786   8.738   8.325  0.5474  0.6997 -0.8060
  994MOL0     H37162   1.677   8.664   8.043 -0.3756  1.3699 -0.0519
  994MOL0     H37163   1.766   8.813   8.082 -1.1845  0.7268 -1.3071
  994MOL0     H37164   1.578   8.823   8.268  1.0473  0.7959  0.8911
  994MOL0     H37165   1.596   8.919   8.125  1.3201 -1.0762  0.2842
  994MOL0     H37166   1.446   8.731   7.999 -2.4944  1.0971 -1.0382
  994MOL0     H37167   1.357   8.821   8.100 -0.6505 -1.7938 -2.5838
  994MOL0     H37168   1.288   8.537   8.360  0.1452  1.7802  1.0337
  994MOL0     H37169   2.123   8.550   8.139 -0.5676  1.2511 -0.5882
  994MOL0     H37170   2.337   8.506   8.165 -0.8331  1.0471  0.9753
  994MOL0     H37171   2.407   8.527   8.324 -2.5816  1.9916  0.0609
  994MOL0     H37172   2.392   8.365   8.251  1.1869 -0.2152  1.8234
  995MOL0     O37173   2.777   1.297   0.550  0.0914  0.6720 -0.9438
  995MOL0     C37174   2.670   1.285   0.493  0.7707 -0.8958  0.0976
  995MOL0     O37175   2.659   1.250   0.364  0.3110  0.4327  0.8057
  995MOL0     C37176   2.773   1.195   0.306 -0.0306  0.5111  0.1130
  995MOL0     C37177   2.883   1.277   0.277  0.0117 -0.2573 -0.2903
  995MOL0     C37178   2.998   1.223   0.216 -0.5627  0.4938  1.1261
  995MOL0     C37179   3.005   1.084   0.181  0.0679  0.8184 -0.7299
  995MOL0     O37180   3.115   1.032   0.121 -1.0539 -0.1799  0.0684
  995MOL0     C37181   3.240   1.036   0.200 -0.0594 -0.4830 -0.2067
  995MOL0     C37182   3.370   0.984   0.127  0.4101 -0.6374 -0.3724
  995MOL0     C37183   3.427   1.098   0.047 -0.2556  0.4345  0.4178
  995MOL0     C37184   3.357   1.124  -0.084  0.8886  0.8553 -0.0969
  995MOL0     C37185   3.390   1.257  -0.153 -0.1827 -0.7429 -0.5031
  995MOL0     C37186   3.307   1.266  -0.285 -0.5130  0.2707  0.0678
  995MOL0     C37187   3.302   1.401  -0.358  0.1842 -0.2237  0.6590
  995MOL0     C37188   3.444   1.453  -0.403  0.8129 -0.2124  0.3960
  995MOL0     N37189   3.503   1.367  -0.510  0.7071 -0.4354  0.6856
  995MOL0     C37190   3.626   1.301  -0.504 -0.1160  0.4220  0.3416
  995MOL0     C37191   3.629   1.224  -0.612  1.0663 -0.1426 -0.0056
  995MOL0     C37192   3.748   1.148  -0.657  0.8069  0.3220  0.4042
  995MOL0     C37193   3.867   1.232  -0.683  0.0401  1.1031 -0.1422
  995MOL0     C37194   3.985   1.143  -0.709  0.7744 -0.6958 -0.2131
  995MOL0     C37195   3.978   1.086  -0.855  0.3874 -0.2447 -0.4526
  995MOL0     O37196   3.965   1.192  -0.951  0.2208  0.3318 -0.1787
  995MOL0     C37197   3.968   1.158  -1.082 -0.1076 -0.1588 -0.3305
  995MOL0     C37198   3.975   1.263  -1.174  0.4632 -0.8280 -0.1924
  995MOL0     C37199   3.996   1.246  -1.308  0.2667  0.2941 -0.3233
  995MOL0     C37200   3.997   1.368  -1.397 -0.7612 -0.0846  0.3247
  995MOL0     C37201   4.001   1.113  -1.363  0.5542 -0.1758 -0.0394
  995MOL0     C37202   4.025   1.071  -1.513  0.2145  0.2426 -0.4364
  995MOL0     O37203   4.099   1.161  -1.589  0.2306  0.1231 -0.2713
  995MOL0     C37204   4.102   1.155  -1.725  0.8438 -0.5077 -0.2306
  995MOL0     C37205   3.998   1.099  -1.801 -0.2951 -0.0218 -0.1288
  995MOL0     C37206   3.992   1.124  -1.932  0.6844  0.4840 -0.5492
  995MOL0     C37207   4.081   1.212  -1.998  0.7468  0.5450 -0.6344
  995MOL0     O37208   4.055   1.243  -2.133 -0.5056  0.1408 -0.1287
  995MOL0     C37209   4.076   1.373  -2.189 -0.3219  0.8468 -0.8356
  995MOL0     C37210   4.059   1.375  -2.336  0.7511  0.2640  0.4213
  995MOL0     C37211   4.170   1.314  -2.427 -0.3230 -0.0430 -0.2722
  995MOL0     C37212   4.124   1.262  -2.561 -0.2062  0.5669  0.1950
  995MOL0     C37213   4.082   1.111  -2.570  0.1424 -1.2775 -0.0396
  995MOL0     C37214   4.204   1.016  -2.563  0.3354 -0.1583 -0.4952
  995MOL0     C37215   4.158   0.888  -2.639 -0.3148  1.0151 -0.0585
  995MOL0     C37216   4.267   0.783  -2.658  0.3390  0.0302  0.4705
  995MOL0    Cl37217   4.425   0.859  -2.692  0.1245 -0.2962 -0.2005
  995MOL0     C37218   4.181   1.271  -1.925  0.2909  0.0053 -0.8002
  995MOL0     C37219   4.192   1.235  -1.786 -1.3531 -0.2296  0.1138
  995MOL0     O37220   3.990   0.957  -1.551 -0.4164  0.1546 -0.1929
  995MOL0     C37221   3.975   1.005  -1.271  0.5080  0.2259 -0.1769
  995MOL0     C37222   3.964   1.028  -1.132 -0.6516  0.0799  0.3262
  995MOL0     N37223   3.512   1.243  -0.688 -0.0893  0.3144  0.2143
  995MOL0     N37224   3.438   1.329  -0.634 -0.1073 -0.4841 -0.6429
  995MOL0     C37225   2.900   1.009   0.220  0.0294  0.3744 -0.8225
  995MOL0     C37226   2.782   1.062   0.279  0.1876  0.0716  0.5005
  995MOL0     C37227   2.537   1.302   0.574  0.8731 -0.3328 -0.3154
  995MOL0     C37228   2.412   1.279   0.505 -0.2103 -0.0185  0.0353
  995MOL0     C37229   2.288   1.278   0.563 -0.8684  0.1315  0.1102
  995MOL0     C37230   2.276   1.316   0.699  0.1180 -0.1713  0.4191
  995MOL0     O37231   2.156   1.336   0.759 -0.5675 -0.0868 -0.1509
  995MOL0     C37232   2.030   1.341   0.693 -1.2208  0.4549 -0.2060
  995MOL0     C37233   1.922   1.379   0.786 -0.3226 -0.0216  0.0372
  995MOL0     C37234   1.888   1.273   0.896  0.2293 -0.5158 -0.7379
  995MOL0     C37235   1.851   1.343   1.030 -0.0745  0.4631 -0.4879
  995MOL0     C37236   1.785   1.260   1.132  0.1155 -0.3850  0.5962
  995MOL0     C37237   1.717   1.190   1.204 -0.0463  0.5020 -0.1836
  995MOL0     C37238   2.392   1.345   0.769 -0.1668  1.0850  0.1359
  995MOL0     C37239   2.518   1.334   0.712  0.5257 -0.4299  0.4014
  995MOL0     C37240   2.638   1.336   0.798 -0.2492 -0.8512  0.2611
  995MOL0     H37241   2.880   1.384   0.295 -0.8160 -0.2871 -0.2196
  995MOL0     H37242   3.087   1.282   0.199  1.0740 -1.3806  2.6283
  995MOL0     H37243   3.220   0.968   0.283  1.6481 -2.8812 -1.6295
  995MOL0     H37244   3.257   1.140   0.229 -0.5540 -0.1966 -0.9111
  995MOL0     H37245   3.447   0.963   0.201  1.8945 -0.0325 -1.6918
  995MOL0     H37246   3.354   0.898   0.061  0.5508 -0.9529  0.0039
  995MOL0     H37247   3.440   1.188   0.108  1.3405  1.1328 -0.8835
  995MOL0     H37248   3.528   1.067   0.018 -0.0969  1.5500 -0.2541
  995MOL0     H37249   3.368   1.034  -0.144 -0.7244  1.9357 -2.1758
  995MOL0     H37250   3.249   1.130  -0.067  1.1215  0.1250  1.8679
  995MOL0     H37251   3.497   1.265  -0.171  0.1871 -2.7511  0.4736
  995MOL0     H37252   3.350   1.343  -0.098  1.7025  0.6369 -1.1899
  995MOL0     H37253   3.362   1.202  -0.355 -0.2418 -0.8934  1.3174
  995MOL0     H37254   3.211   1.214  -0.281  0.5958 -1.9332 -0.3235
  995MOL0     H37255   3.248   1.477  -0.299  0.6318 -0.4308  1.3444
  995MOL0     H37256   3.246   1.383  -0.451  0.3218 -2.9306  1.0337
  995MOL0     H37257   3.436   1.557  -0.437 -0.7357 -0.1256  0.9746
  995MOL0     H37258   3.516   1.456  -0.320 -0.7985  3.6552  1.9080
  995MOL0     H37259   3.704   1.299  -0.428  1.2564  2.5543 -0.9218
  995MOL0     H37260   3.718   1.094  -0.747  0.1517 -1.0501  1.4076
  995MOL0     H37261   3.772   1.077  -0.577 -1.5824 -1.3671 -0.2954
  995MOL0     H37262   3.861   1.298  -0.770  0.9599  0.1191 -0.9805
  995MOL0     H37263   3.886   1.286  -0.590  0.6297  1.2292 -0.3319
  995MOL0     H37264   4.074   1.206  -0.713 -0.8598  1.7531 -0.4283
  995MOL0     H37265   4.005   1.074  -0.626  1.9297 -1.6488 -1.2464
  995MOL0     H37266   4.074   1.037  -0.871  0.3817 -1.2053  1.9797
  995MOL0     H37267   3.886   1.027  -0.865 -0.7159  1.2392  0.5101
  995MOL0     H37268   3.990   1.359  -1.125  0.0908  0.8552 -3.1342
  995MOL0     H37269   4.095   1.380  -1.444  1.2486 -0.7563  3.9443
  995MOL0     H37270   3.986   1.462  -1.340  0.0639 -0.2290  0.7361
  995MOL0     H37271   3.921   1.357  -1.475 -0.5458 -0.3020  0.1447
  995MOL0     H37272   3.918   1.051  -1.746 -2.2559  2.1678 -0.9039
  995MOL0     H37273   3.907   1.088  -1.988 -0.1540  3.4865 -1.3674
  995MOL0     H37274   4.003   1.448  -2.156  0.7759  1.2126  0.9197
  995MOL0     H37275   4.177   1.411  -2.169 -0.4209  1.2329 -1.0893
  995MOL0     H37276   3.959   1.335  -2.356 -0.4106  2.2924  1.8182
  995MOL0     H37277   4.053   1.477  -2.375  0.0532 -0.3562 -1.2329
  995MOL0     H37278   4.206   1.226  -2.372 -3.2692 -0.8176  0.5841
  995MOL0     H37279   4.253   1.383  -2.444  2.1366 -1.9885  2.6561
  995MOL0     H37280   4.206   1.272  -2.632 -1.6201 -0.7642 -1.7305
  995MOL0     H37281   4.047   1.329  -2.600  0.3918  1.4570  0.5056
  995MOL0     H37282   3.988   1.085  -2.520 -1.6370  1.8548 -1.5195
  995MOL0     H37283   4.046   1.099  -2.672 -1.4943  0.9601  0.2154
  995MOL0     H37284   4.226   0.983  -2.461 -1.2342 -2.7707 -0.9143
  995MOL0     H37285   4.294   1.060  -2.606  0.7048  0.6894  1.0522
  995MOL0     H37286   4.125   0.912  -2.741 -1.9599 -2.2766 -0.4301
  995MOL0     H37287   4.064   0.845  -2.603  0.0537  0.6766  0.5154
  995MOL0     H37288   4.242   0.708  -2.733 -0.9252 -0.5315  1.4209
  995MOL0     H37289   4.270   0.718  -2.570 -1.1782  1.0262  1.3022
  995MOL0     H37290   4.265   1.321  -1.972  3.1059 -0.2390  3.4669
  995MOL0     H37291   4.277   1.265  -1.726  0.1622 -1.6710 -1.1992
  995MOL0     H37292   3.977   0.900  -1.298 -0.4002  0.0327  0.4464
  995MOL0     H37293   3.954   0.945  -1.063 -1.1422  2.3425  3.1629
  995MOL0     H37294   2.889   0.911   0.175  1.9150  1.0925 -3.0756
  995MOL0     H37295   2.704   0.994   0.310  1.1020 -0.8582  0.8137
  995MOL0     H37296   2.410   1.261   0.398  1.8473 -2.7885  0.3454
  995MOL0     H37297   2.205   1.249   0.500 -0.1772 -1.0905 -0.2681
  995MOL0     H37298   2.030   1.398   0.600 -0.8980 -2.3604 -2.0580
  995MOL0     H37299   2.009   1.240   0.657  0.5729 -0.1494  0.3216
  995MOL0     H37300   1.834   1.406   0.727  0.6453  3.1403 -0.1936
  995MOL0     H37301   1.954   1.467   0.842 -1.9727 -1.7698  4.0961
  995MOL0     H37302   1.808   1.208   0.859  0.5764 -0.2536 -1.9954
  995MOL0     H37303   1.978   1.210   0.906 -0.9982 -2.1822  0.4314
  995MOL0     H37304   1.784   1.428   1.016  0.2557  0.4789 -2.1975
  995MOL0     H37305   1.944   1.385   1.070  0.5273 -3.0111  2.2123
  995MOL0     H37306   1.656   1.143   1.279  0.2791  1.8251  0.9361
  995MOL0     H37307   2.384   1.381   0.871  1.4344  1.3309  0.1949
  995MOL0     H37308   2.699   1.425   0.778 -4.8077  2.6349  0.2762
  995MOL0     H37309   2.615   1.341   0.905  0.4398  0.7872  0.3609
  995MOL0     H37310   2.688   1.240   0.781 -0.5283 -1.1614  1.1413
  996MOL0     O37311   4.429   2.936   7.386  0.3817  0.5713  0.8659
  996MOL0     C37312   4.319   2.999   7.368 -0.2129  0.3555 -0.3260
  996MOL0     O37313   4.321   3.131   7.323 -0.0133 -0.8870 -0.6178
  996MOL0     C37314   4.436   3.184   7.264 -0.1005 -0.1783 -0.5469
  996MOL0     C37315   4.455   3.183   7.127 -0.4556  0.1717  0.2458
  996MOL0     C37316   4.574   3.232   7.070  0.3808  0.2986  0.9078
  996MOL0     C37317   4.677   3.280   7.149 -0.3661 -0.0075  0.7232
  996MOL0     O37318   4.796   3.314   7.080 -0.9764 -0.4705  0.9381
  996MOL0     C37319   4.918   3.320   7.152 -0.5990 -1.1215 -0.2440
  996MOL0     C37320   5.023   3.239   7.064  0.3648  0.2105  0.3568
  996MOL0     C37321   5.151   3.211   7.126  0.0316 -0.5888  0.1276
  996MOL0     C37322   5.251   3.129   7.037 -0.2590  0.3878  0.2576
  996MOL0     C37323   5.356   3.060   7.122 -0.2809  0.4798 -0.7453
  996MOL0     C37324   5.436   2.950   7.056  0.0220 -0.4842  0.1989
  996MOL0     C37325   5.588   2.954   7.086  0.1409  0.3042 -0.4741
  996MOL0     C37326   5.649   2.854   6.984 -0.0988  0.0205  0.3027
  996MOL0     N37327   5.646   2.716   7.041 -0.2532  0.7989 -0.3068
  996MOL0     C37328   5.719   2.673   7.147 -0.3085  0.0327 -0.1355
  996MOL0     C37329   5.676   2.540   7.168 -0.0461 -0.6122 -0.2278
  996MOL0     C37330   5.722   2.436   7.261 -0.2129  0.5225  0.1054
  996MOL0     C37331   5.719   2.299   7.194 -0.0569 -1.0449 -1.2009
  996MOL0     C37332   5.812   2.294   7.080 -0.4966 -0.4375 -0.1936
  996MOL0     C37333   5.822   2.153   7.019  0.4602 -0.0640 -0.0143
  996MOL0     O37334   5.887   2.069   7.114 -0.2725 -0.0114  0.1780
  996MOL0     C37335   6.020   2.069   7.133  1.0617  1.2839  0.1127
  996MOL0     C37336   6.063   1.988   7.234  0.4460 -0.5653 -0.5468
  996MOL0     C37337   6.200   1.995   7.264  0.1850 -0.4027  0.8601
  996MOL0     C37338   6.251   1.890   7.358  0.1084  0.2277 -0.1068
  996MOL0     C37339   6.283   2.092   7.210 -0.8343  0.2771 -0.6175
  996MOL0     C37340   6.427   2.109   7.248 -0.4516 -0.1687  0.8837
  996MOL0     O37341   6.498   2.010   7.307  0.0421  0.2301 -0.0679
  996MOL0     C37342   6.634   2.032   7.336 -0.5780 -0.5201 -0.4397
  996MOL0     C37343   6.676   2.057   7.466  0.6503  0.1690 -0.5534
  996MOL0     C37344   6.814   2.056   7.496 -0.6701 -0.0494 -0.3814
  996MOL0     C37345   6.913   2.030   7.402  1.0829  0.2195  0.3870
  996MOL0     O37346   7.040   2.029   7.444 -0.0147 -0.6272 -0.5497
  996MOL0     C37347   7.122   1.962   7.343 -0.4879  0.1662  0.6920
  996MOL0     C37348   7.249   1.919   7.421 -0.5152  0.3065 -0.5227
  996MOL0     C37349   7.213   1.817   7.534  0.5643  0.2292 -1.1301
  996MOL0     C37350   7.345   1.750   7.588  0.1361 -0.5477 -0.5044
  996MOL0     C37351   7.325   1.715   7.740  0.5370  0.3347 -0.3549
  996MOL0     C37352   7.451   1.653   7.796  0.5391 -0.4149 -0.0125
  996MOL0     C37353   7.493   1.525   7.729 -0.7266  1.0606 -0.7614
  996MOL0     C37354   7.385   1.413   7.726  0.4149 -0.5109 -0.3215
  996MOL0    Cl37355   7.430   1.279   7.611 -0.5145 -0.1494 -0.4149
  996MOL0     C37356   6.862   2.001   7.271 -0.7413  0.4294  0.0293
  996MOL0     C37357   6.731   2.006   7.240  0.8130  0.7880 -0.7406
  996MOL0     O37358   6.478   2.206   7.208  0.0148 -0.2360 -0.7739
  996MOL0     C37359   6.231   2.174   7.114 -0.9838 -0.4088  0.3020
  996MOL0     C37360   6.099   2.160   7.077 -0.5946 -1.1262  0.3127
  996MOL0     N37361   5.573   2.515   7.078  0.1097 -0.0264  0.2571
  996MOL0     N37362   5.558   2.619   6.998 -0.3055 -1.0328 -0.7199
  996MOL0     C37363   4.655   3.304   7.287  1.4920  0.1314  0.8717
  996MOL0     C37364   4.532   3.262   7.339 -0.3537 -0.1704 -0.0193
  996MOL0     C37365   4.191   2.948   7.423  0.0526 -0.9323  0.3067
  996MOL0     C37366   4.071   3.028   7.404 -0.5654 -0.7819 -0.3871
  996MOL0     C37367   3.942   2.987   7.446 -0.5173 -0.3486  0.1776
  996MOL0     C37368   3.925   2.864   7.508  0.9712  0.1414  0.2290
  996MOL0     O37369   3.801   2.812   7.543 -0.1423  0.1090 -0.2887
  996MOL0     C37370   3.686   2.897   7.528 -0.2539 -0.1727 -0.4024
  996MOL0     C37371   3.566   2.808   7.554  0.1516  0.1812  0.9351
  996MOL0     C37372   3.535   2.691   7.456 -0.4894 -0.4763 -0.1771
  996MOL0     C37373   3.493   2.745   7.323 -0.4980  0.9995  0.5473
  996MOL0     C37374   3.429   2.648   7.228  0.0447  0.1771  0.7270
  996MOL0     C37375   3.377   2.586   7.130 -0.1927 -0.2153  0.2946
  996MOL0     C37376   4.043   2.791   7.540 -0.4435 -0.7888  0.4178
  996MOL0     C37377   4.181   2.833   7.506 -0.9614 -0.3706 -0.7087
  996MOL0     C37378   4.296   2.755   7.548 -0.6238  0.4750 -0.6684
  996MOL0     H37379   4.387   3.129   7.061  0.1583 -1.0612  0.6106
  996MOL0     H37380   4.593   3.221   6.964  0.8629 -2.0768  1.1821
  996MOL0     H37381   4.914   3.273   7.251 -1.3109  2.2500  1.4445
  996MOL0     H37382   4.945   3.424   7.171 -3.3748 -0.1926 -0.8485
  996MOL0     H37383   4.970   3.145   7.044 -0.0437 -0.0113  2.3158
  996MOL0     H37384   5.039   3.286   6.967  2.7506  0.6442  0.9066
  996MOL0     H37385   5.186   3.311   7.151  1.0067 -0.7469 -0.5572
  996MOL0     H37386   5.127   3.159   7.219  0.7429  1.4695  1.5160
  996MOL0     H37387   5.187   3.051   6.994 -0.5932  0.6933  0.1884
  996MOL0     H37388   5.298   3.183   6.954  0.5420 -0.2582  0.2828
  996MOL0     H37389   5.299   3.023   7.208 -3.0998  1.7203 -1.9556
  996MOL0     H37390   5.424   3.139   7.155  2.1003 -0.9821 -1.9240
  996MOL0     H37391   5.398   2.851   7.083 -0.2814 -0.3870  0.1229
  996MOL0     H37392   5.414   2.960   6.949  1.1747  0.7314  0.0500
  996MOL0     H37393   5.602   2.917   7.188 -0.8279 -2.1736 -1.1741
  996MOL0     H37394   5.634   3.054   7.084  1.8218 -0.2480  2.9015
  996MOL0     H37395   5.590   2.853   6.893  1.2963  2.3248 -0.7065
  996MOL0     H37396   5.748   2.894   6.959 -2.0987  3.2916 -3.4380
  996MOL0     H37397   5.808   2.715   7.193 -1.0018  1.7012 -0.2714
  996MOL0     H37398   5.662   2.442   7.352  2.8075 -0.2248  2.2672
  996MOL0     H37399   5.821   2.466   7.295 -0.2501 -1.3785  2.1528
  996MOL0     H37400   5.758   2.226   7.266 -1.4828 -0.2627  0.4524
  996MOL0     H37401   5.617   2.266   7.176 -1.2759  1.1656  1.0806
  996MOL0     H37402   5.786   2.364   7.000 -2.3430  0.5339  1.2154
  996MOL0     H37403   5.912   2.327   7.110  0.0934 -1.5561 -0.8268
  996MOL0     H37404   5.715   2.127   7.011  0.1737 -0.2140  3.0850
  996MOL0     H37405   5.872   2.143   6.922  0.1802 -2.2089  0.0240
  996MOL0     H37406   5.992   1.927   7.288 -0.0872  1.7109  1.4933
  996MOL0     H37407   6.337   1.847   7.306  0.6240 -0.1878  1.0556
  996MOL0     H37408   6.176   1.812   7.373  1.2189 -0.4591  2.6727
  996MOL0     H37409   6.270   1.931   7.458  1.3445  1.6530 -0.8759
  996MOL0     H37410   6.616   2.070   7.556  1.7160 -1.3525  0.4212
  996MOL0     H37411   6.834   2.081   7.600  0.9095  3.3373 -1.3499
  996MOL0     H37412   7.082   1.869   7.301  3.4451 -1.5642  0.2947
  996MOL0     H37413   7.139   2.024   7.255 -0.6773 -2.0655 -1.0100
  996MOL0     H37414   7.313   1.878   7.342 -1.7790  1.8653 -2.4615
  996MOL0     H37415   7.294   2.006   7.471 -1.8742 -1.9311  5.4362
  996MOL0     H37416   7.139   1.748   7.492  0.8224  0.0192 -1.2428
  996MOL0     H37417   7.161   1.874   7.613 -0.7901 -1.1084 -1.0011
  996MOL0     H37418   7.412   1.835   7.570 -0.8892  0.1767 -1.0265
  996MOL0     H37419   7.383   1.668   7.527  0.5366  0.1746 -1.2523
  996MOL0     H37420   7.302   1.812   7.787  1.2426 -0.0707  0.8778
  996MOL0     H37421   7.245   1.646   7.769 -0.1358  0.7500 -1.1715
  996MOL0     H37422   7.454   1.642   7.905 -0.7276  0.9699  0.1862
  996MOL0     H37423   7.532   1.725   7.785 -0.5583  0.6644 -1.3676
  996MOL0     H37424   7.588   1.485   7.766 -0.6772 -0.1609 -2.0988
  996MOL0     H37425   7.512   1.538   7.622 -2.0639 -3.3768 -1.7389
  996MOL0     H37426   7.283   1.446   7.704  0.5109  1.0861  1.4065
  996MOL0     H37427   7.385   1.383   7.831 -2.1479  0.4244  0.0080
  996MOL0     H37428   6.939   1.978   7.198 -0.9440  0.2564 -0.1340
  996MOL0     H37429   6.711   1.983   7.136  0.9665 -2.3299 -0.1881
  996MOL0     H37430   6.282   2.258   7.068 -0.7587  0.2577  1.7323
  996MOL0     H37431   6.069   2.225   6.995 -2.2923 -1.5544  0.5557
  996MOL0     H37432   4.734   3.355   7.340  1.5453 -0.4294  1.3359
  996MOL0     H37433   4.521   3.283   7.445  3.9157  0.6139  0.4495
  996MOL0     H37434   4.083   3.120   7.347 -0.1581 -0.7479 -0.2486
  996MOL0     H37435   3.855   3.039   7.409  1.3630  1.8112 -1.5217
  996MOL0     H37436   3.692   2.973   7.607  2.9033 -2.8218  2.2106
  996MOL0     H37437   3.673   2.934   7.426  2.3236 -1.3485 -1.2306
  996MOL0     H37438   3.475   2.869   7.563 -1.0816 -1.5111  0.5183
  996MOL0     H37439   3.569   2.757   7.651 -1.5145 -5.2197 -1.4918
  996MOL0     H37440   3.626   2.631   7.442 -0.4774 -1.4656  3.2829
  996MOL0     H37441   3.455   2.634   7.504 -1.2393  2.2208  2.0436
  996MOL0     H37442   3.586   2.777   7.276  1.8106 -2.0629  2.6202
  996MOL0     H37443   3.421   2.827   7.332 -3.6277 -1.4053 -0.3422
  996MOL0     H37444   3.330   2.534   7.049  3.2961 -1.4266 -1.1189
  996MOL0     H37445   4.027   2.697   7.593 -3.4785 -1.2451 -1.0886
  996MOL0     H37446   4.327   2.709   7.453 -0.4095 -3.4836  1.0970
  996MOL0     H37447   4.379   2.805   7.599 -0.3879 -0.0903 -0.4806
  996MOL0     H37448   4.279   2.674   7.620  3.4730  1.3497  1.6155
  997MOL0     O37449  10.658   5.294   8.135 -0.2694  0.0924  0.5412
  997MOL0     C37450  10.547   5.264   8.176 -0.0134 -1.0146  0.4405
  997MOL0     O37451  10.515   5.158   8.252 -0.1401 -0.3570 -0.4449
  997MOL0     C37452  10.635   5.117   8.312 -0.1469 -0.0407 -0.1788
  997MOL0     C37453  10.707   5.006   8.283  0.8180  0.1683 -0.0481
  997MOL0     C37454  10.816   4.962   8.346  0.1106 -0.3261 -0.2347
  997MOL0     C37455  10.868   5.042   8.448 -0.4910 -0.1257 -0.2921
  997MOL0     O37456  10.976   5.002   8.511  0.8449 -0.5321 -0.0818
  997MOL0     C37457  11.085   4.929   8.450 -0.9048 -0.2180  0.7718
  997MOL0     C37458  11.158   5.028   8.355 -0.4290 -0.1164  0.2107
  997MOL0     C37459  11.275   4.961   8.277 -0.0236 -1.2975 -0.6789
  997MOL0     C37460  11.401   5.048   8.275  0.2291  0.4927 -0.8619
  997MOL0     C37461  11.518   4.986   8.198  0.2834 -0.0737  0.6638
  997MOL0     C37462  11.646   5.072   8.196 -0.2153 -0.5894  0.1095
  997MOL0     C37463  11.721   5.050   8.328 -0.4587 -0.6204 -0.0002
  997MOL0     C37464  11.855   5.125   8.328 -0.3384 -0.3362  0.1343
  997MOL0     N37465  11.968   5.059   8.260  0.0921 -0.0683 -0.4905
  997MOL0     C37466  12.053   4.964   8.313  0.4083  0.0827 -0.1898
  997MOL0     C37467  12.125   4.918   8.213 -0.4738  0.2755  0.6233
  997MOL0     C37468  12.211   4.795   8.221  0.1734  0.1463  0.1463
  997MOL0     C37469  12.358   4.814   8.227 -0.6406  0.8294 -0.4928
  997MOL0     C37470  12.436   4.684   8.243  1.0311 -0.1392 -0.6559
  997MOL0     C37471  12.583   4.702   8.211  0.5711 -0.5596 -0.7553
  997MOL0     O37472  12.657   4.574   8.219 -0.4892 -0.5915  0.4635
  997MOL0     C37473  12.792   4.583   8.235  0.7638  1.3586 -0.7936
  997MOL0     C37474  12.847   4.462   8.277 -0.7796  0.7818 -0.1015
  997MOL0     C37475  12.987   4.444   8.310  0.8652 -0.5548  0.1771
  997MOL0     C37476  13.031   4.313   8.372 -0.2542 -1.0944  0.1280
  997MOL0     C37477  13.068   4.562   8.296 -0.2243 -0.0047  0.4162
  997MOL0     C37478  13.214   4.565   8.306  0.5727 -0.3737 -0.4650
  997MOL0     O37479  13.258   4.681   8.363 -0.2768 -0.7079  0.9806
  997MOL0     C37480  13.385   4.703   8.407 -0.0556 -1.0544 -0.6290
  997MOL0     C37481  13.413   4.837   8.449  0.8314  1.0802 -0.2176
  997MOL0     C37482  13.534   4.883   8.505 -0.0466 -0.4373  0.2049
  997MOL0     C37483  13.643   4.790   8.516  0.7797  0.1282  0.4730
  997MOL0     O37484  13.743   4.838   8.593 -0.4860 -0.6531  0.4637
  997MOL0     C37485  13.867   4.764   8.609 -0.3619  0.2956 -0.4398
  997MOL0     C37486  13.985   4.859   8.653  0.0481 -0.2906 -0.9342
  997MOL0     C37487  14.109   4.781   8.699  0.9705  0.1303 -0.6250
  997MOL0     C37488  14.220   4.887   8.735 -0.2907 -0.6439  0.1518
  997MOL0     C37489  14.359   4.833   8.772  0.0686  0.3343 -0.8514
  997MOL0     C37490  14.469   4.935   8.796  0.4315  0.0861 -0.4991
  997MOL0     C37491  14.612   4.874   8.778 -0.0653 -0.4556  0.5749
  997MOL0     C37492  14.712   4.957   8.846 -0.2567  0.2708 -0.1879
  997MOL0    Cl37493  14.864   4.950   8.750  0.3513 -0.4334 -0.1383
  997MOL0     C37494  13.622   4.663   8.462 -0.2932  0.1533 -1.0019
  997MOL0     C37495  13.501   4.620   8.405 -0.2446  0.0003 -0.5374
  997MOL0     O37496  13.283   4.479   8.255  0.5375 -0.0133  0.0793
  997MOL0     C37497  13.006   4.680   8.246 -0.0348 -0.7980  0.1891
  997MOL0     C37498  12.873   4.688   8.220  0.8559  0.4411  0.2495
  997MOL0     N37499  12.103   5.001   8.097 -0.1503 -0.1197 -0.6402
  997MOL0     N37500  12.021   5.090   8.139 -0.0165 -0.0654  0.0878
  997MOL0     C37501  10.801   5.157   8.488  0.1298  0.1509  0.2000
  997MOL0     C37502  10.678   5.195   8.421  0.6745  0.1215 -0.7684
  997MOL0     C37503  10.424   5.362   8.149  0.8653 -0.3593 -0.5597
  997MOL0     C37504  10.304   5.326   8.215 -1.2170  1.2936 -0.4939
  997MOL0     C37505  10.194   5.405   8.199  0.1647 -0.2869 -0.7314
  997MOL0     C37506  10.191   5.519   8.121 -0.1263  0.0881  0.7782
  997MOL0     O37507  10.070   5.594   8.133  0.3726  0.2304 -0.3601
  997MOL0     C37508  10.062   5.725   8.075  0.2702 -0.3160  0.4463
  997MOL0     C37509   9.919   5.761   8.028  1.3347 -0.0588 -0.4611
  997MOL0     C37510   9.809   5.739   8.138 -0.6010 -0.5546  0.1272
  997MOL0     C37511   9.670   5.751   8.080 -0.7647 -0.7482  0.8061
  997MOL0     C37512   9.578   5.748   8.188 -0.0190 -0.3280  0.3592
  997MOL0     C37513   9.510   5.743   8.289 -0.3744 -0.3668 -0.4617
  997MOL0     C37514  10.306   5.551   8.050 -0.3284  0.7149  0.1697
  997MOL0     C37515  10.432   5.479   8.067  0.4082 -0.4892 -0.0605
  997MOL0     C37516  10.560   5.526   7.997 -0.1002 -0.0050  0.3847
  997MOL0     H37517  10.670   4.957   8.194  0.8945 -0.2958  0.1726
  997MOL0     H37518  10.860   4.865   8.327 -1.0210 -0.6648 -1.2685
  997MOL0     H37519  11.058   4.855   8.374 -1.1612  0.0366  0.6127
  997MOL0     H37520  11.149   4.867   8.514  0.0534 -1.1762 -1.0484
  997MOL0     H37521  11.096   5.077   8.279  2.3001 -0.4739 -2.4217
  997MOL0     H37522  11.194   5.112   8.414 -2.3448  1.0345 -0.1753
  997MOL0     H37523  11.313   4.871   8.327 -0.4529 -1.1410 -0.0603
  997MOL0     H37524  11.227   4.941   8.180 -0.6843 -0.2171 -0.5949
  997MOL0     H37525  11.385   5.150   8.237 -0.2341  1.3706  1.5226
  997MOL0     H37526  11.444   5.061   8.375  3.1759 -1.2354 -1.7599
  997MOL0     H37527  11.479   4.960   8.099 -0.9683 -0.3096  1.1907
  997MOL0     H37528  11.549   4.888   8.236  3.6078  0.9004  0.7686
  997MOL0     H37529  11.704   5.041   8.108 -1.5288 -1.6276 -0.4185
  997MOL0     H37530  11.627   5.179   8.204 -0.8599 -0.7618  0.9210
  997MOL0     H37531  11.741   4.944   8.344  2.3328  0.2304  3.4709
  997MOL0     H37532  11.673   5.083   8.421  2.5842 -0.6621  1.6868
  997MOL0     H37533  11.838   5.217   8.271  1.7223 -0.8054 -1.3377
  997MOL0     H37534  11.879   5.141   8.434  3.4715  2.0369 -0.8772
  997MOL0     H37535  12.047   4.929   8.415 -2.8031  2.3923  0.5550
  997MOL0     H37536  12.182   4.734   8.134  0.8621  0.6889 -0.4724
  997MOL0     H37537  12.183   4.745   8.315  3.0100 -0.6420  0.6507
  997MOL0     H37538  12.378   4.870   8.135 -1.0705  1.3808 -0.2559
  997MOL0     H37539  12.389   4.864   8.319 -3.8476 -0.0185  1.2006
  997MOL0     H37540  12.418   4.649   8.344  5.2242  0.5751  0.4973
  997MOL0     H37541  12.398   4.603   8.179  0.5754  1.9423 -3.2297
  997MOL0     H37542  12.603   4.756   8.118  0.6378 -0.4399 -0.6713
  997MOL0     H37543  12.620   4.763   8.294  0.8257 -2.4982  0.6224
  997MOL0     H37544  12.773   4.388   8.305 -1.8184  2.0620  0.6203
  997MOL0     H37545  13.087   4.340   8.462 -3.5933  2.1923  1.5172
  997MOL0     H37546  13.090   4.264   8.294  0.1897  0.4017 -0.5143
  997MOL0     H37547  12.945   4.252   8.399 -1.7522  0.2947 -1.2774
  997MOL0     H37548  13.329   4.905   8.441 -0.0371  0.2130  1.2158
  997MOL0     H37549  13.541   4.979   8.555 -4.1356 -0.0915  0.4598
  997MOL0     H37550  13.863   4.693   8.693 -0.2344 -0.2970 -0.9287
  997MOL0     H37551  13.899   4.721   8.514  0.1498  0.1801 -0.2149
  997MOL0     H37552  14.013   4.921   8.566  2.3808  0.7305  0.4424
  997MOL0     H37553  13.949   4.912   8.741  2.0741 -3.2047  1.8715
  997MOL0     H37554  14.145   4.713   8.620 -0.1006 -1.6956  0.3743
  997MOL0     H37555  14.088   4.716   8.784 -0.7500 -0.1814 -1.2442
  997MOL0     H37556  14.188   4.955   8.814  1.8571 -0.0609  0.5860
  997MOL0     H37557  14.231   4.956   8.651  0.1229  2.2994  2.4572
  997MOL0     H37558  14.348   4.759   8.851 -2.2296 -1.4371 -2.6895
  997MOL0     H37559  14.390   4.778   8.683  0.1578  2.0420 -1.9278
  997MOL0     H37560  14.436   4.973   8.893 -2.1246 -3.8552  0.4396
  997MOL0     H37561  14.456   5.008   8.716  1.8498 -1.3029 -2.0827
  997MOL0     H37562  14.634   4.877   8.671 -3.7839 -3.1725 -0.4713
  997MOL0     H37563  14.619   4.768   8.802  1.4262 -1.1750 -2.5193
  997MOL0     H37564  14.716   4.921   8.949  1.4403 -2.8882 -1.2329
  997MOL0     H37565  14.691   5.065   8.846 -0.9378  0.1503  0.2874
  997MOL0     H37566  13.699   4.586   8.465  1.0082  1.3377  3.3585
  997MOL0     H37567  13.490   4.520   8.365 -1.0276  0.1404 -0.6890
  997MOL0     H37568  13.076   4.762   8.234  0.8566 -1.5907 -0.2925
  997MOL0     H37569  12.825   4.781   8.193 -1.2390  0.0259  2.3048
  997MOL0     H37570  10.850   5.214   8.566  1.7085  1.0754 -1.4055
  997MOL0     H37571  10.618   5.279   8.454  0.2386 -1.0801  1.7569
  997MOL0     H37572  10.286   5.233   8.268 -2.8238  1.0440 -1.4132
  997MOL0     H37573  10.104   5.376   8.252 -0.3046  2.0789 -0.0740
  997MOL0     H37574  10.109   5.799   8.141 -1.9260  2.2171 -0.6715
  997MOL0     H37575  10.120   5.734   7.982 -0.4954 -0.1988 -0.0283
  997MOL0     H37576   9.890   5.691   7.948 -1.3881 -0.2808  0.6083
  997MOL0     H37577   9.926   5.864   7.992 -0.8731 -0.2594 -1.6524
  997MOL0     H37578   9.826   5.637   8.173 -0.7454 -0.8703 -0.6820
  997MOL0     H37579   9.826   5.814   8.216 -2.0348  1.1130 -1.0921
  997MOL0     H37580   9.662   5.663   8.015  1.0231 -1.5689  1.6033
  997MOL0     H37581   9.673   5.842   8.021 -0.6485 -1.6213 -0.5885
  997MOL0     H37582   9.452   5.738   8.379  0.4299  0.4473  0.1189
  997MOL0     H37583  10.314   5.646   7.997  0.0662  0.6576  0.1246
  997MOL0     H37584  10.533   5.604   7.925 -1.1860 -2.0442 -1.5231
  997MOL0     H37585  10.620   5.567   8.079  1.2222  0.4293 -0.7762
  997MOL0     H37586  10.612   5.444   7.949 -0.1687 -0.7908  1.6122
  998MOL0     O37587   2.490   7.241   9.176 -0.2724  0.8180 -0.0790
  998MOL0     C37588   2.547   7.352   9.157  0.2287 -0.4631  0.2972
  998MOL0     O37589   2.670   7.369   9.088  0.9525  0.4717  0.6002
  998MOL0     C37590   2.756   7.270   9.056  0.5408 -1.0307  0.1091
  998MOL0     C37591   2.878   7.330   9.019 -0.4618 -0.0063  0.6556
  998MOL0     C37592   2.970   7.246   8.946 -0.4150  0.9097  0.2413
  998MOL0     C37593   2.954   7.111   8.930 -0.1073 -0.0091 -0.5620
  998MOL0     O37594   3.034   7.030   8.862 -0.0522  0.4878  0.0311
  998MOL0     C37595   3.157   7.073   8.818 -0.9544 -1.0544 -0.8769
  998MOL0     C37596   3.266   7.079   8.924  0.3181  0.1839  0.1617
  998MOL0     C37597   3.400   7.062   8.849 -0.0127  0.7696  0.1471
  998MOL0     C37598   3.456   6.914   8.838 -0.0686 -0.7475  0.1748
  998MOL0     C37599   3.593   6.901   8.764  0.7421 -0.9107  0.2000
  998MOL0     C37600   3.592   6.934   8.610  0.9249 -0.1914  0.4596
  998MOL0     C37601   3.731   6.908   8.547  0.1039 -0.2981 -0.6361
  998MOL0     C37602   3.830   7.018   8.557  0.1986  0.2978  0.6608
  998MOL0     N37603   3.799   7.148   8.491 -0.4320 -0.0572  0.4074
  998MOL0     C37604   3.829   7.179   8.367 -0.2879  0.0938  0.7808
  998MOL0     C37605   3.766   7.297   8.347 -1.1800 -1.0450 -0.2264
  998MOL0     C37606   3.753   7.372   8.220 -0.2838  0.2096  0.0807
  998MOL0     C37607   3.772   7.519   8.215 -0.5951 -0.0914  0.5898
  998MOL0     C37608   3.760   7.568   8.064 -0.3534 -0.4545 -0.8844
  998MOL0     C37609   3.773   7.721   8.045 -0.2076  0.6891  0.7717
  998MOL0     O37610   3.910   7.744   8.082  0.5163 -0.8817  0.0133
  998MOL0     C37611   3.936   7.818   8.200  0.1703  0.3907 -0.1872
  998MOL0     C37612   4.070   7.859   8.198  0.0093  0.2705 -0.4731
  998MOL0     C37613   4.121   7.918   8.322 -0.5963  0.0984 -0.6170
  998MOL0     C37614   4.263   7.954   8.346 -0.5639 -0.3433 -0.3832
  998MOL0     C37615   4.038   7.933   8.442  0.0400 -0.2393  0.4176
  998MOL0     C37616   4.091   7.988   8.571  0.4931 -0.4632 -0.1881
  998MOL0     O37617   4.119   7.899   8.671  0.3467  0.4028  0.2976
  998MOL0     C37618   4.138   7.947   8.800  0.3131  0.1363 -0.2303
  998MOL0     C37619   4.031   7.983   8.880 -0.0526  0.0816 -0.0405
  998MOL0     C37620   4.047   8.028   9.011  0.0632  0.2771 -0.0598
  998MOL0     C37621   4.173   8.048   9.070  0.0406  0.0906 -0.3999
  998MOL0     O37622   4.164   8.100   9.193  0.3098  0.0230 -0.0693
  998MOL0     C37623   4.275   8.178   9.242  0.4724 -0.8697 -0.1799
  998MOL0     C37624   4.348   8.077   9.331 -0.5216 -0.1726 -0.7473
  998MOL0     C37625   4.480   8.134   9.399 -0.8582 -0.9921  0.0869
  998MOL0     C37626   4.575   8.208   9.302 -0.2344 -0.1314  0.4337
  998MOL0     C37627   4.717   8.204   9.354 -0.5892  0.1282  0.0471
  998MOL0     C37628   4.823   8.284   9.273  0.1171  0.1033  0.1580
  998MOL0     C37629   4.803   8.442   9.286  0.5550  0.8706  0.5972
  998MOL0     C37630   4.889   8.528   9.201 -0.3495  0.0542 -0.6106
  998MOL0    Cl37631   4.878   8.489   9.033 -0.0308 -0.0189 -0.4610
  998MOL0     C37632   4.283   8.009   8.993 -0.2441  0.1940 -1.0902
  998MOL0     C37633   4.262   7.972   8.859 -0.7883 -0.0441  0.8997
  998MOL0     O37634   4.107   8.112   8.575  0.6867  0.4367  0.3896
  998MOL0     C37635   3.902   7.898   8.429  0.0270 -0.2074  0.8488
  998MOL0     C37636   3.847   7.851   8.309 -0.0535  0.2356 -1.3649
  998MOL0     N37637   3.696   7.331   8.461  0.3150 -0.3158 -0.6287
  998MOL0     N37638   3.711   7.241   8.549 -0.8102  0.4116 -0.4096
  998MOL0     C37639   2.847   7.054   9.006  0.5823  0.3360  0.5736
  998MOL0     C37640   2.744   7.129   9.070 -0.6915  0.0893  0.2830
  998MOL0     C37641   2.474   7.483   9.198  0.1288  0.3650 -0.0646
  998MOL0     C37642   2.558   7.597   9.208 -0.3404  0.3381  0.2897
  998MOL0     C37643   2.498   7.718   9.254  0.5012  0.3103 -0.1044
  998MOL0     C37644   2.358   7.736   9.268  0.5281  0.2999  0.9252
  998MOL0     O37645   2.290   7.855   9.308  0.1028  0.5439  1.2389
  998MOL0     C37646   2.331   7.925   9.434 -0.0032 -0.1696  0.0395
  998MOL0     C37647   2.222   8.022   9.480 -0.5325  0.0433  0.0113
  998MOL0     C37648   2.082   7.947   9.511 -0.1332 -0.5926  0.1210
  998MOL0     C37649   1.954   8.014   9.459  1.2764 -0.2716 -1.2514
  998MOL0     C37650   1.958   8.039   9.317  0.2629 -1.7382 -0.0200
  998MOL0     C37651   1.969   8.073   9.197 -0.3644  0.7479 -0.7628
  998MOL0     C37652   2.282   7.622   9.245  0.4465 -0.4411  0.6965
  998MOL0     C37653   2.333   7.499   9.216 -0.3741 -0.0929  0.5619
  998MOL0     C37654   2.243   7.384   9.184  1.0343  0.2173  0.0415
  998MOL0     H37655   2.885   7.438   9.005 -2.9839 -0.2009 -3.9127
  998MOL0     H37656   3.060   7.287   8.901 -1.5920  0.0231 -3.2146
  998MOL0     H37657   3.164   7.171   8.770  3.6473 -0.7229  0.0244
  998MOL0     H37658   3.182   7.009   8.733 -2.5128 -1.9045 -0.7327
  998MOL0     H37659   3.265   7.173   8.980  2.2264  1.2526 -1.4455
  998MOL0     H37660   3.261   6.997   8.996  2.1614  1.4856  1.8523
  998MOL0     H37661   3.396   7.105   8.748 -0.4881  0.3150 -0.0270
  998MOL0     H37662   3.476   7.122   8.901  0.6523  0.6144 -0.6152
  998MOL0     H37663   3.469   6.860   8.932 -2.3107  0.6448  1.3501
  998MOL0     H37664   3.381   6.858   8.781 -0.6790  1.4332 -1.2785
  998MOL0     H37665   3.640   6.803   8.782  0.8921 -0.8490  0.1393
  998MOL0     H37666   3.657   6.975   8.812  1.3600 -1.1831 -0.1937
  998MOL0     H37667   3.526   6.866   8.556 -1.1033  2.1122 -0.1539
  998MOL0     H37668   3.549   7.031   8.587  1.3059 -0.3106 -0.8416
  998MOL0     H37669   3.706   6.892   8.442 -0.8554 -0.5245 -0.3809
  998MOL0     H37670   3.766   6.818   8.598 -2.2798  0.4386  2.6533
  998MOL0     H37671   3.845   7.045   8.662  1.8666 -0.0987  0.5565
  998MOL0     H37672   3.930   6.988   8.526 -0.3838 -1.2568  0.2202
  998MOL0     H37673   3.883   7.132   8.285  0.7572  0.7497  1.0749
  998MOL0     H37674   3.647   7.358   8.195 -0.3740  3.1805 -1.6135
  998MOL0     H37675   3.812   7.324   8.143  0.2435 -0.9189  1.1576
  998MOL0     H37676   3.684   7.565   8.262 -1.5953 -0.6245 -0.7094
  998MOL0     H37677   3.870   7.553   8.249 -0.0007 -1.6856  0.5259
  998MOL0     H37678   3.838   7.515   8.008  1.3254 -0.6457  1.4667
  998MOL0     H37679   3.656   7.539   8.047 -0.8763  0.1602  0.9932
  998MOL0     H37680   3.757   7.746   7.940 -0.5664  0.4991  0.7795
  998MOL0     H37681   3.694   7.767   8.104 -2.1427 -1.2816 -0.1399
  998MOL0     H37682   4.126   7.831   8.109 -2.0875 -0.0993 -1.7437
  998MOL0     H37683   4.330   7.915   8.268  1.3364  1.6374  0.1490
  998MOL0     H37684   4.294   7.931   8.448 -1.4713  0.3492  0.0598
  998MOL0     H37685   4.276   8.061   8.326 -0.4769 -0.0007  1.3947
  998MOL0     H37686   3.932   7.983   8.836 -0.6022  0.2791  1.1635
  998MOL0     H37687   3.962   8.049   9.075 -1.4024 -6.3625  0.8637
  998MOL0     H37688   4.344   8.212   9.165  0.9384 -1.6237 -0.1075
  998MOL0     H37689   4.246   8.257   9.312  1.7494 -0.4582 -0.0958
  998MOL0     H37690   4.281   8.041   9.410  0.7545 -3.3213 -0.9748
  998MOL0     H37691   4.374   7.986   9.276  2.0374 -0.2430  0.4614
  998MOL0     H37692   4.540   8.052   9.440  1.3006  1.0265  1.2237
  998MOL0     H37693   4.446   8.201   9.479  1.0302  0.8336 -0.5432
  998MOL0     H37694   4.533   8.308   9.285 -0.9742 -0.5256 -0.1018
  998MOL0     H37695   4.581   8.162   9.204  2.8475  2.5940 -0.8270
  998MOL0     H37696   4.725   8.252   9.452 -0.7849 -1.2089  0.7430
  998MOL0     H37697   4.746   8.103   9.383  2.5673  1.4137  1.9766
  998MOL0     H37698   4.823   8.249   9.169  2.2430 -3.3960  1.1695
  998MOL0     H37699   4.922   8.256   9.311 -0.2846 -0.3740  0.8790
  998MOL0     H37700   4.836   8.471   9.387  3.1447 -3.3272  1.1957
  998MOL0     H37701   4.700   8.476   9.277  0.6101  0.9939  0.4368
  998MOL0     H37702   4.992   8.510   9.233 -1.2991 -0.9635  2.2339
  998MOL0     H37703   4.865   8.631   9.228  0.1882 -0.0516  0.3197
  998MOL0     H37704   4.380   8.005   9.041  0.0087  1.1427 -1.5001
  998MOL0     H37705   4.343   7.942   8.793 -0.5730 -1.3478  1.7071
  998MOL0     H37706   3.838   7.929   8.510 -1.6728  1.3925 -0.9816
  998MOL0     H37707   3.740   7.834   8.310  0.1420 -1.1625 -0.1887
  998MOL0     H37708   2.844   6.948   9.029 -0.2020  0.1940 -0.1165
  998MOL0     H37709   2.658   7.093   9.126  0.2615  0.8614  2.3353
  998MOL0     H37710   2.663   7.591   9.180 -0.8150 -0.6480 -1.4143
  998MOL0     H37711   2.562   7.804   9.271  1.3779 -0.2931 -0.3029
  998MOL0     H37712   2.345   7.845   9.508 -0.1004  1.7646  2.2283
  998MOL0     H37713   2.420   7.987   9.426 -0.5761  0.8861  1.4484
  998MOL0     H37714   2.199   8.108   9.417 -3.1443 -1.1329 -0.8053
  998MOL0     H37715   2.265   8.049   9.577 -0.5649  1.9414 -0.4671
  998MOL0     H37716   2.087   7.848   9.465  1.8788  0.0555 -1.1953
  998MOL0     H37717   2.081   7.930   9.619  2.1126  6.9425  1.9110
  998MOL0     H37718   1.933   8.103   9.520  1.7356 -1.1935  0.3188
  998MOL0     H37719   1.868   7.951   9.483  0.9304  0.7256  0.2750
  998MOL0     H37720   1.998   8.101   9.098  1.9437 -1.1077 -0.6957
  998MOL0     H37721   2.176   7.640   9.231  0.1730 -0.3591  2.5540
  998MOL0     H37722   2.137   7.412   9.183  1.5915  2.6539  1.2739
  998MOL0     H37723   2.262   7.349   9.082 -1.4760  3.5848 -1.7944
  998MOL0     H37724   2.252   7.300   9.253  0.9971 -0.1006 -0.3380
  999MOL0     O37725   9.279  10.167   7.131  0.0022 -0.2255 -0.7237
  999MOL0     C37726   9.349  10.239   7.058  0.3590  0.2093  0.3157
  999MOL0     O37727   9.450  10.322   7.106  0.1169 -0.1360 -0.1734
  999MOL0     C37728   9.475  10.350   7.242  0.2749 -0.0004 -0.6651
  999MOL0     C37729   9.607  10.387   7.285 -0.1700 -0.8237 -0.0284
  999MOL0     C37730   9.643  10.418   7.417  0.0498  0.6428  1.0102
  999MOL0     C37731   9.534  10.423   7.515  0.6790  0.9063  0.2345
  999MOL0     O37732   9.549  10.446   7.646 -0.0355 -0.2073  0.1337
  999MOL0     C37733   9.676  10.500   7.695  0.1738  0.1997  0.1268
  999MOL0     C37734   9.680  10.488   7.844  1.3632  0.3828  0.2186
  999MOL0     C37735   9.820  10.545   7.883  0.2134 -0.0980 -0.4643
  999MOL0     C37736   9.858  10.513   8.025 -0.8265  0.0786 -0.7701
  999MOL0     C37737   9.786  10.607   8.131 -0.1016  0.2316  0.0276
  999MOL0     C37738   9.847  10.753   8.120  0.1586 -0.0000 -0.2760
  999MOL0     C37739   9.844  10.826   8.248  0.1419 -0.8180 -0.1061
  999MOL0     C37740   9.697  10.835   8.305 -0.5571  0.3350  0.2036
  999MOL0     N37741   9.671  10.941   8.394 -0.0599 -0.0189 -0.2983
  999MOL0     C37742   9.614  11.058   8.349  0.8157 -0.5399  0.4086
  999MOL0     C37743   9.612  11.137   8.458 -1.0356 -0.5551 -0.1925
  999MOL0     C37744   9.567  11.282   8.467  0.3243  0.9226 -0.0203
  999MOL0     C37745   9.666  11.362   8.395 -0.2256 -1.4760  0.3494
  999MOL0     C37746   9.602  11.501   8.356 -0.1887 -0.1008  0.8860
  999MOL0     C37747   9.597  11.524   8.205  0.6379 -0.2041 -0.6587
  999MOL0     O37748   9.517  11.425   8.139 -0.4652 -0.7009 -0.1309
  999MOL0     C37749   9.573  11.314   8.067 -0.5504 -0.2049  1.4673
  999MOL0     C37750   9.489  11.203   8.042 -0.3575 -0.3058  0.1407
  999MOL0     C37751   9.527  11.089   7.980 -0.2372  0.8496  0.5576
  999MOL0     C37752   9.425  10.974   7.986 -0.1359  0.2452  0.8708
  999MOL0     C37753   9.655  11.078   7.928  0.3221 -0.5455 -0.2272
  999MOL0     C37754   9.698  10.975   7.838  0.6266  0.2440  0.5042
  999MOL0     O37755   9.805  11.013   7.759  0.1259 -0.8270 -0.6723
  999MOL0     C37756   9.848  10.911   7.674  0.3848  0.4269  0.6275
  999MOL0     C37757   9.782  10.855   7.566 -0.2102  0.8946 -0.0739
  999MOL0     C37758   9.834  10.740   7.500 -0.9367 -1.3604  1.0819
  999MOL0     C37759   9.960  10.688   7.527  0.7331 -0.5446  0.8291
  999MOL0     O37760  10.021  10.584   7.455  0.3817  0.2099 -0.5578
  999MOL0     C37761  10.045  10.608   7.322 -0.3350 -0.4559 -0.5257
  999MOL0     C37762  10.175  10.685   7.297  0.5763 -0.2733  0.9462
  999MOL0     C37763  10.207  10.691   7.144 -0.1569  0.0739  0.3620
  999MOL0     C37764  10.244  10.556   7.078  0.4570 -0.0173 -0.5215
  999MOL0     C37765  10.204  10.562   6.932  0.3349 -0.2165 -0.1855
  999MOL0     C37766  10.054  10.548   6.899 -0.4273  0.2235 -0.3684
  999MOL0     C37767  10.031  10.437   6.794  0.1610 -0.1919 -0.1676
  999MOL0     C37768   9.882  10.407   6.786  0.7216 -0.6902 -0.3439
  999MOL0    Cl37769   9.855  10.273   6.677  0.2984 -0.1956  0.4559
  999MOL0     C37770  10.030  10.742   7.635  0.1917  1.4717  1.5562
  999MOL0     C37771   9.976  10.851   7.703 -0.0212 -0.0045 -0.1743
  999MOL0     O37772   9.638  10.872   7.833  0.4194  1.0612  0.5545
  999MOL0     C37773   9.745  11.187   7.955  0.1798  1.1726 -0.0791
  999MOL0     C37774   9.706  11.297   8.025 -0.5461  0.0591  1.2394
  999MOL0     N37775   9.677  11.058   8.559  0.0623  0.0668 -0.7903
  999MOL0     N37776   9.721  10.939   8.515  0.2458 -0.0825 -0.2417
  999MOL0     C37777   9.405  10.382   7.471  0.0129  0.6523  1.2979
  999MOL0     C37778   9.374  10.353   7.336 -0.2244 -0.0934  0.2803
  999MOL0     C37779   9.328  10.236   6.908 -0.4105  0.2454  0.3632
  999MOL0     C37780   9.443  10.272   6.836 -0.6265  0.5474  0.0843
  999MOL0     C37781   9.445  10.272   6.700  0.3101  0.2604  0.1997
  999MOL0     C37782   9.326  10.246   6.634  1.3344  1.0397 -0.5801
  999MOL0     O37783   9.321  10.239   6.499 -0.0569  0.0758  0.0003
  999MOL0     C37784   9.212  10.309   6.443 -0.6589  0.1685 -0.0848
  999MOL0     C37785   9.248  10.366   6.306 -0.4066 -0.4553  0.4471
  999MOL0     C37786   9.369  10.468   6.305 -0.0869  1.2657 -0.1700
  999MOL0     C37787   9.400  10.542   6.171 -0.3524  0.5910 -0.1543
  999MOL0     C37788   9.499  10.643   6.201 -0.2845  0.2078  0.7966
  999MOL0     C37789   9.591  10.714   6.223  0.5062 -0.6082 -0.7094
  999MOL0     C37790   9.210  10.201   6.708  0.3563 -0.0930  0.5830
  999MOL0     C37791   9.210  10.198   6.844 -0.4964 -0.9065 -0.6328
  999MOL0     C37792   9.084  10.153   6.905 -0.1265  0.0802 -0.1376
  999MOL0     H37793   9.680  10.379   7.205  2.2350  0.5995  1.8987
  999MOL0     H37794   9.745  10.432   7.451  1.7495 -1.0519 -2.7888
  999MOL0     H37795   9.683  10.605   7.669 -0.3364 -0.2747 -2.1196
  999MOL0     H37796   9.764  10.452   7.650 -0.9698 -1.6197 -0.2845
  999MOL0     H37797   9.603  10.548   7.892  0.9707  1.5112 -1.7124
  999MOL0     H37798   9.665  10.384   7.875  0.6873  0.9374  1.8759
  999MOL0     H37799   9.902  10.504   7.824  1.7580  0.6118  1.0709
  999MOL0     H37800   9.819  10.654   7.874  1.2669 -0.0358  0.0148
  999MOL0     H37801   9.837  10.408   8.050 -0.5217  0.1615 -0.1402
  999MOL0     H37802   9.967  10.526   8.030 -1.0392  1.5360  1.0105
  999MOL0     H37803   9.806  10.564   8.229 -0.1592 -0.7824 -0.3942
  999MOL0     H37804   9.681  10.621   8.102 -0.0574 -1.8757 -1.3278
  999MOL0     H37805   9.947  10.747   8.074 -0.4307 -0.7112 -1.5255
  999MOL0     H37806   9.791  10.809   8.045  0.5372  3.1681  1.6353
  999MOL0     H37807   9.875  10.926   8.217  2.1801 -1.3747  0.0274
  999MOL0     H37808   9.913  10.785   8.321  2.0971  0.3374 -1.2221
  999MOL0     H37809   9.629  10.836   8.219  2.7459  0.6312 -2.6341
  999MOL0     H37810   9.673  10.742   8.357  3.7453  0.1652  2.3277
  999MOL0     H37811   9.581  11.089   8.250  1.7314 -3.0440 -0.7533
  999MOL0     H37812   9.559  11.301   8.575 -3.4878 -1.1383  0.2327
  999MOL0     H37813   9.468  11.299   8.424 -1.4079 -2.7467  2.0664
  999MOL0     H37814   9.757  11.373   8.457  0.8309  2.1145 -1.5147
  999MOL0     H37815   9.695  11.322   8.298 -0.6408 -2.2708  0.5481
  999MOL0     H37816   9.510  11.508   8.414 -1.2680  0.9027 -0.8742
  999MOL0     H37817   9.667  11.583   8.390 -0.7198  0.5982  0.2535
  999MOL0     H37818   9.558  11.624   8.182 -1.5855 -0.9766 -0.4878
  999MOL0     H37819   9.702  11.527   8.175  0.6885  0.3474 -0.4485
  999MOL0     H37820   9.384  11.199   8.066 -0.6628  0.3664 -1.0217
  999MOL0     H37821   9.364  10.962   7.896 -0.8501  1.8165  1.1056
  999MOL0     H37822   9.350  10.986   8.064  0.6097  1.8497  1.3940
  999MOL0     H37823   9.477  10.879   8.003 -2.5436 -0.6045  4.5637
  999MOL0     H37824   9.686  10.896   7.537 -0.6008  1.6110  2.0431
  999MOL0     H37825   9.773  10.696   7.421  2.7052 -2.6519 -1.2792
  999MOL0     H37826  10.054  10.516   7.263  4.5878  1.4324 -3.3531
  999MOL0     H37827   9.965  10.651   7.261  1.2960  1.7215 -1.2675
  999MOL0     H37828  10.145  10.783   7.338 -2.4091 -0.0092 -1.4910
  999MOL0     H37829  10.262  10.645   7.350  0.7721 -1.3003 -0.1182
  999MOL0     H37830  10.299  10.749   7.134  0.9587 -1.8878 -1.6243
  999MOL0     H37831  10.121  10.745   7.105 -0.7690  0.3106  1.9654
  999MOL0     H37832  10.179  10.474   7.113 -0.1207  0.9935  0.9073
  999MOL0     H37833  10.346  10.519   7.092 -0.1421 -1.2630  0.9210
  999MOL0     H37834  10.231  10.658   6.888  3.1444  1.3665  4.3674
  999MOL0     H37835  10.262  10.490   6.873 -0.5047  0.4497 -1.9040
  999MOL0     H37836  10.022  10.640   6.850  0.5933  0.8459  0.0859
  999MOL0     H37837   9.996  10.529   6.990  1.1372 -0.5108  0.5280
  999MOL0     H37838  10.095  10.358   6.834  1.9346  2.1913  2.0558
  999MOL0     H37839  10.063  10.467   6.694  0.1171 -0.7886 -0.3603
  999MOL0     H37840   9.821  10.496   6.768  2.2547  0.7546  1.1900
  999MOL0     H37841   9.846  10.359   6.877 -0.9954 -0.1788 -0.7146
  999MOL0     H37842  10.131  10.710   7.658  1.2450  3.7716  0.4221
  999MOL0     H37843  10.028  10.892   7.789 -1.3612 -1.6189  1.4872
  999MOL0     H37844   9.851  11.189   7.930  0.1954  0.6703 -0.0598
  999MOL0     H37845   9.775  11.376   8.055  2.6553 -2.2534  0.4513
  999MOL0     H37846   9.330  10.363   7.547 -0.9487 -1.6246 -0.1117
  999MOL0     H37847   9.269  10.345   7.313 -0.5226  0.0679  1.5157
  999MOL0     H37848   9.541  10.287   6.881 -0.3104 -0.9732 -0.0689
  999MOL0     H37849   9.535  10.304   6.648 -0.5293  1.5856 -0.5231
  999MOL0     H37850   9.131  10.235   6.442  0.1722 -0.7605 -0.6530
  999MOL0     H37851   9.184  10.396   6.504  1.7268  0.1541  1.1576
  999MOL0     H37852   9.160  10.405   6.254 -1.0799 -2.1073  0.2949
  999MOL0     H37853   9.280  10.286   6.240 -0.8369 -1.0339  0.9217
  999MOL0     H37854   9.362  10.551   6.376 -1.2843  0.9149  0.1537
  999MOL0     H37855   9.457  10.406   6.325 -2.7528 -2.8264 -0.0539
  999MOL0     H37856   9.308  10.586   6.132 -1.8167 -0.3112  2.0435
  999MOL0     H37857   9.451  10.470   6.107  1.5951  1.0948  0.7631
  999MOL0     H37858   9.674  10.780   6.236  0.0690 -0.2628  0.5028
  999MOL0     H37859   9.123  10.181   6.645  1.1547  0.8681 -0.8727
  999MOL0     H37860   9.015  10.136   6.822  2.4584  0.6868 -2.5655
  999MOL0     H37861   9.103  10.058   6.956 -0.9403 -0.2493 -0.4257
  999MOL0     H37862   9.033  10.220   6.976  0.0660 -1.9048  2.0045
 1000MOL0     O37863  10.712   2.351   1.787 -0.3327 -0.2272  0.0957
 1000MOL0     C37864  10.817   2.328   1.720  0.6520 -0.9728  0.9807
 1000MOL0     O37865  10.901   2.422   1.668  0.1357  0.7289  0.9360
 1000MOL0     C37866  10.898   2.554   1.701  0.2475  1.4251 -0.1737
 1000MOL0     C37867  11.017   2.626   1.694 -0.8106 -0.4889  0.4250
 1000MOL0     C37868  11.011   2.765   1.698  1.7769 -0.4653 -1.5574
 1000MOL0     C37869  10.895   2.837   1.706  0.7246  0.0992  0.2453
 1000MOL0     O37870  10.881   2.972   1.699  0.3386  0.9083 -0.5116
 1000MOL0     C37871  10.930   3.042   1.585 -0.3437  0.0581 -0.2817
 1000MOL0     C37872  10.860   3.184   1.569  0.0372  0.2223 -0.1934
 1000MOL0     C37873  10.724   3.180   1.496 -0.5182  0.4470  0.1339
 1000MOL0     C37874  10.620   3.087   1.556 -0.3260  0.4346 -0.5798
 1000MOL0     C37875  10.587   3.110   1.708 -0.8220 -0.1719  0.2203
 1000MOL0     C37876  10.521   3.240   1.749  0.0186 -0.3420  0.1604
 1000MOL0     C37877  10.485   3.238   1.902 -0.1391 -0.2140  0.2633
 1000MOL0     C37878  10.424   3.376   1.934  0.6568 -0.4416  0.5045
 1000MOL0     N37879  10.425   3.405   2.080  0.0640 -0.1375 -0.5518
 1000MOL0     C37880  10.542   3.419   2.145  0.2543  1.0463  0.6255
 1000MOL0     C37881  10.499   3.509   2.239 -0.5619  0.2555  1.3317
 1000MOL0     C37882  10.587   3.554   2.345 -0.1196  0.4738 -0.2565
 1000MOL0     C37883  10.696   3.663   2.312  0.4340 -0.1366 -0.2631
 1000MOL0     C37884  10.642   3.810   2.301  0.1793 -0.4963 -0.0911
 1000MOL0     C37885  10.602   3.860   2.437  1.0002  0.4730  0.0375
 1000MOL0     O37886  10.696   3.830   2.539 -0.4773  0.0327 -0.2586
 1000MOL0     C37887  10.677   3.922   2.639 -0.5558  0.1471  0.2242
 1000MOL0     C37888  10.772   4.025   2.667 -0.4288  0.8869 -0.4564
 1000MOL0     C37889  10.749   4.123   2.766  0.5552 -0.5906  0.1788
 1000MOL0     C37890  10.861   4.226   2.779 -0.1129  0.2190 -0.3952
 1000MOL0     C37891  10.636   4.109   2.855 -0.2273  0.5285  0.4753
 1000MOL0     C37892  10.604   4.214   2.953 -0.6634 -0.5387 -0.1551
 1000MOL0     O37893  10.595   4.176   3.083 -0.1090  0.1314 -0.2910
 1000MOL0     C37894  10.558   4.278   3.165  0.5681 -0.1456 -0.1155
 1000MOL0     C37895  10.643   4.332   3.265 -0.3757  0.3362 -0.2277
 1000MOL0     C37896  10.591   4.434   3.364 -0.8331 -0.5647  0.0039
 1000MOL0     C37897  10.457   4.432   3.384  0.0657 -1.0689  0.5382
 1000MOL0     O37898  10.390   4.517   3.473  0.3952 -0.0779 -0.0988
 1000MOL0     C37899  10.453   4.558   3.591  0.4209 -0.5143 -0.1589
 1000MOL0     C37900  10.354   4.646   3.674  0.1147  0.1758 -0.7137
 1000MOL0     C37901  10.250   4.551   3.743 -0.3421  0.6727  0.1578
 1000MOL0     C37902  10.128   4.622   3.802 -0.3247 -0.0819  0.8020
 1000MOL0     C37903  10.026   4.516   3.846  0.4265  0.2608 -0.1024
 1000MOL0     C37904   9.884   4.562   3.852  0.7303 -1.2484 -0.4915
 1000MOL0     C37905   9.779   4.449   3.875  0.4301 -0.2708  0.3528
 1000MOL0     C37906   9.640   4.502   3.836 -0.3680 -0.2817  0.4301
 1000MOL0    Cl37907   9.502   4.379   3.884 -0.0962 -0.0736 -0.6735
 1000MOL0     C37908  10.372   4.365   3.296  0.4595 -0.4683 -0.6036
 1000MOL0     C37909  10.424   4.292   3.196 -0.2256  0.8201  0.5633
 1000MOL0     O37910  10.545   4.310   2.910 -0.2675 -0.7448 -0.5786
 1000MOL0     C37911  10.543   4.010   2.828  0.2988 -0.0484  0.8464
 1000MOL0     C37912  10.559   3.919   2.719  0.1320 -0.3156  0.1853
 1000MOL0     N37913  10.368   3.552   2.232 -0.2025  0.4955  0.4561
 1000MOL0     N37914  10.325   3.467   2.152  0.4809  0.0313  0.0422
 1000MOL0     C37915  10.781   2.764   1.737  0.0624 -0.1771  1.0108
 1000MOL0     C37916  10.781   2.623   1.720  0.6380  0.2461 -0.1350
 1000MOL0     C37917  10.850   2.187   1.711  0.3193  0.3861  0.5926
 1000MOL0     C37918  10.804   2.112   1.824 -0.3560  0.0050 -0.1023
 1000MOL0     C37919  10.843   1.979   1.840 -0.7276  0.4009 -0.0934
 1000MOL0     C37920  10.926   1.914   1.742  0.1749  0.2514  0.1564
 1000MOL0     O37921  10.955   1.782   1.750  0.3653  0.0243  0.1065
 1000MOL0     C37922  11.087   1.753   1.781 -0.7620 -0.7609  0.5624
 1000MOL0     C37923  11.095   1.603   1.813  0.2286  0.1245  0.5247
 1000MOL0     C37924  11.232   1.580   1.862  0.4945 -0.0996 -0.4319
 1000MOL0     C37925  11.270   1.427   1.889  0.4175 -0.0660 -0.8270
 1000MOL0     C37926  11.300   1.351   1.769 -0.0182 -0.1512  0.5259
 1000MOL0     C37927  11.358   1.294   1.682 -0.5226 -0.0225 -0.3482
 1000MOL0     C37928  10.965   1.987   1.628  0.6118  0.4255 -0.3522
 1000MOL0     C37929  10.936   2.121   1.610 -0.2243  1.1984 -0.3800
 1000MOL0     C37930  10.993   2.175   1.494  0.1664 -0.5926 -0.0716
 1000MOL0     H37931  11.110   2.573   1.675  0.2838  0.9510  1.5451
 1000MOL0     H37932  11.103   2.820   1.679  1.2747 -0.3808 -4.0243
 1000MOL0     H37933  10.904   2.987   1.494 -1.1212  0.2266 -0.1634
 1000MOL0     H37934  11.038   3.057   1.598 -0.8306  1.8060  2.7745
 1000MOL0     H37935  10.857   3.230   1.668  1.2256  1.6834 -0.7754
 1000MOL0     H37936  10.920   3.251   1.505  2.3346 -0.0990  1.5104
 1000MOL0     H37937  10.686   3.281   1.480  0.7389  1.1720  1.4883
 1000MOL0     H37938  10.753   3.143   1.397  0.9055  0.6908  0.4289
 1000MOL0     H37939  10.526   3.102   1.503  0.2559  0.4716 -1.6205
 1000MOL0     H37940  10.652   2.982   1.547 -2.2015 -0.1861 -0.4239
 1000MOL0     H37941  10.667   3.078   1.775 -1.2153 -0.4807  0.5538
 1000MOL0     H37942  10.516   3.028   1.728 -0.6831 -0.5729 -0.8818
 1000MOL0     H37943  10.595   3.317   1.725  0.9667 -1.2805 -0.0363
 1000MOL0     H37944  10.436   3.233   1.680  1.1467 -2.6541 -1.1297
 1000MOL0     H37945  10.573   3.209   1.959  0.4729  0.6761 -0.2133
 1000MOL0     H37946  10.403   3.167   1.919  1.3361 -2.3529 -1.0974
 1000MOL0     H37947  10.481   3.452   1.881  0.0762  0.1265  0.6771
 1000MOL0     H37948  10.320   3.389   1.903 -1.0194  0.8776  5.6690
 1000MOL0     H37949  10.644   3.385   2.129  0.4134  1.2256  1.2137
 1000MOL0     H37950  10.633   3.463   2.383  0.8517  0.9954 -0.1542
 1000MOL0     H37951  10.523   3.581   2.430 -1.3954 -2.4475 -0.1817
 1000MOL0     H37952  10.782   3.655   2.381  0.9644 -3.6005 -1.1383
 1000MOL0     H37953  10.743   3.636   2.217 -1.4955 -1.5046 -0.8706
 1000MOL0     H37954  10.716   3.877   2.257  1.1195  1.3494  3.8732
 1000MOL0     H37955  10.557   3.797   2.233  1.6889 -0.2832 -2.1142
 1000MOL0     H37956  10.572   3.965   2.432 -0.3150  0.1341  0.3738
 1000MOL0     H37957  10.510   3.802   2.449  2.5986 -3.2616 -3.2077
 1000MOL0     H37958  10.859   4.034   2.603  0.3989 -3.0057 -0.1162
 1000MOL0     H37959  10.834   4.330   2.761 -0.8850  0.2499  0.8222
 1000MOL0     H37960  10.930   4.221   2.694  0.2844  0.6860 -0.1014
 1000MOL0     H37961  10.920   4.215   2.870  2.3087 -0.6947 -1.9699
 1000MOL0     H37962  10.745   4.302   3.243 -0.0662  1.2038 -0.0422
 1000MOL0     H37963  10.659   4.488   3.429  0.7606 -1.7629 -0.6011
 1000MOL0     H37964  10.497   4.479   3.653  1.3922  1.7850  2.2821
 1000MOL0     H37965  10.534   4.627   3.568  1.3973 -1.2486  0.9296
 1000MOL0     H37966  10.420   4.695   3.746  0.9181 -0.1644 -1.2100
 1000MOL0     H37967  10.314   4.728   3.614  1.5660 -0.9193 -3.3257
 1000MOL0     H37968  10.300   4.494   3.822  1.6322  1.7898 -0.2008
 1000MOL0     H37969  10.217   4.483   3.664  2.4105  2.0388 -2.3903
 1000MOL0     H37970  10.089   4.681   3.718  3.4817  1.7164  0.1130
 1000MOL0     H37971  10.138   4.683   3.891  0.0805  0.0685  0.6540
 1000MOL0     H37972  10.024   4.430   3.778  0.4412  1.1735 -1.2918
 1000MOL0     H37973  10.055   4.473   3.942 -2.6959  0.5819  1.1049
 1000MOL0     H37974   9.859   4.615   3.760  1.1843 -0.1287  0.0145
 1000MOL0     H37975   9.872   4.622   3.942  1.3846 -0.5005 -0.8969
 1000MOL0     H37976   9.784   4.415   3.979 -0.7546 -0.2300  0.4314
 1000MOL0     H37977   9.811   4.372   3.805  0.6553  1.0343 -1.0331
 1000MOL0     H37978   9.630   4.519   3.729 -2.2351  2.4812  0.9058
 1000MOL0     H37979   9.615   4.594   3.890  0.5949  0.3276 -0.1419
 1000MOL0     H37980  10.267   4.365   3.325  0.6258  0.9252  0.0545
 1000MOL0     H37981  10.352   4.239   3.134  1.0954 -2.5790  1.7034
 1000MOL0     H37982  10.455   3.991   2.890 -1.1221 -3.6226 -1.9098
 1000MOL0     H37983  10.483   3.842   2.709  0.6611 -0.7432 -0.6179
 1000MOL0     H37984  10.689   2.817   1.758  1.5719  2.2371  2.0438
 1000MOL0     H37985  10.683   2.578   1.730 -0.1547  1.2997 -2.5399
 1000MOL0     H37986  10.724   2.145   1.889 -0.0719  2.0420 -0.7118
 1000MOL0     H37987  10.805   1.924   1.926  1.6897  1.7836  2.0084
 1000MOL0     H37988  11.150   1.780   1.697 -2.6502 -0.0973 -0.6859
 1000MOL0     H37989  11.126   1.815   1.863 -1.6641  3.9160 -2.2142
 1000MOL0     H37990  11.070   1.554   1.718 -2.1053  0.4391  0.9359
 1000MOL0     H37991  11.017   1.578   1.885  2.1516 -1.4283  2.1716
 1000MOL0     H37992  11.302   1.644   1.808 -1.5617  3.3695  0.7457
 1000MOL0     H37993  11.230   1.636   1.956  0.7241 -1.7123  0.5832
 1000MOL0     H37994  11.194   1.372   1.946 -1.2051  0.1658 -2.6297
 1000MOL0     H37995  11.359   1.431   1.951 -0.8103 -0.7502  1.0691
 1000MOL0     H37996  11.427   1.250   1.613  1.3930  3.1340 -0.6495
 1000MOL0     H37997  11.022   1.934   1.552 -0.8111  0.7506 -1.6988
 1000MOL0     H37998  10.952   2.275   1.476  0.8990 -0.6381 -2.2845
 1000MOL0     H37999  11.100   2.190   1.513  0.7064  2.1291 -3.9705
 1000MOL0     H38000  10.977   2.117   1.403 -0.7467 -1.5571  0.6743
 1001MOL0     O38001   2.797   6.334   3.632  0.2725  0.4671  0.2317
 1001MOL0     C38002   2.780   6.244   3.541 -0.4110 -1.0717  0.6543
 1001MOL0     O38003   2.664   6.188   3.507 -0.0713 -0.3301 -0.6568
 1001MOL0     C38004   2.555   6.178   3.588 -0.6260 -0.6568 -0.3907
 1001MOL0     C38005   2.529   6.261   3.700 -0.1011 -0.1844 -0.5194
 1001MOL0     C38006   2.412   6.243   3.783 -0.1142  1.6583  0.8369
 1001MOL0     C38007   2.329   6.134   3.764 -0.4604  0.7114 -0.5844
 1001MOL0     O38008   2.225   6.115   3.854 -0.6150  0.1177 -0.0208
 1001MOL0     C38009   2.159   5.990   3.860  0.8679  0.7282 -0.7486
 1001MOL0     C38010   2.037   5.999   3.944  0.5147  0.6812  0.1761
 1001MOL0     C38011   1.991   5.855   3.995 -0.0405  0.2396 -0.1145
 1001MOL0     C38012   2.087   5.775   4.083 -0.4519  0.1992 -0.0417
 1001MOL0     C38013   2.115   5.857   4.214 -0.1196 -0.7657  0.4193
 1001MOL0     C38014   2.237   5.800   4.287 -0.0545  0.0144 -0.2625
 1001MOL0     C38015   2.249   5.872   4.427 -0.6402 -0.2512  0.5683
 1001MOL0     C38016   2.376   5.827   4.507  0.3332 -0.3430  0.2421
 1001MOL0     N38017   2.405   5.928   4.622 -0.3588  0.2161  0.3107
 1001MOL0     C38018   2.391   6.071   4.616  0.5696  0.6860  0.0337
 1001MOL0     C38019   2.396   6.106   4.747  0.6889 -1.0325  0.2758
 1001MOL0     C38020   2.386   6.258   4.774 -0.0881 -0.1931  0.3565
 1001MOL0     C38021   2.254   6.310   4.833 -0.4213 -0.9809  0.0767
 1001MOL0     C38022   2.124   6.241   4.782  0.5598 -0.2459 -0.4752
 1001MOL0     C38023   2.079   6.141   4.877 -0.4398  1.0826  0.6613
 1001MOL0     O38024   1.938   6.130   4.859 -0.0569  0.4939 -0.4233
 1001MOL0     C38025   1.875   6.025   4.932  0.2568  0.1374  1.1606
 1001MOL0     C38026   1.856   6.036   5.057  0.6312  0.4220 -0.9287
 1001MOL0     C38027   1.786   5.940   5.127  0.6241 -0.0640 -0.2777
 1001MOL0     C38028   1.767   5.973   5.275  0.3718 -0.2382  0.0529
 1001MOL0     C38029   1.736   5.828   5.054  0.2015  0.3570 -0.1231
 1001MOL0     C38030   1.631   5.739   5.116 -0.2446  0.2748  0.3792
 1001MOL0     O38031   1.609   5.630   5.046  0.9407  0.3656  0.0133
 1001MOL0     C38032   1.501   5.548   5.081 -0.3745 -0.9246 -0.2102
 1001MOL0     C38033   1.502   5.479   5.206  0.0980  0.4468  0.3525
 1001MOL0     C38034   1.396   5.392   5.229 -0.8429 -0.0049  0.4752
 1001MOL0     C38035   1.292   5.379   5.141  0.2173  0.4574 -0.3874
 1001MOL0     O38036   1.197   5.290   5.183  0.5665 -0.6538 -0.0740
 1001MOL0     C38037   1.061   5.304   5.138 -0.1989  0.0507  0.6451
 1001MOL0     C38038   1.010   5.188   5.050 -0.2550 -0.5633 -0.0807
 1001MOL0     C38039   1.054   5.203   4.902  0.7412 -0.1801  0.2975
 1001MOL0     C38040   1.031   5.072   4.818 -0.0810 -1.1117  0.1209
 1001MOL0     C38041   1.106   5.086   4.686  0.1285  1.0905  0.0399
 1001MOL0     C38042   1.068   5.211   4.612 -0.4753  0.0255  0.2292
 1001MOL0     C38043   1.135   5.215   4.473 -0.3215  0.0417  0.1413
 1001MOL0     C38044   1.290   5.219   4.468  0.3382 -0.0582 -0.5478
 1001MOL0    Cl38045   1.332   5.397   4.507  0.2124  0.3831 -0.1250
 1001MOL0     C38046   1.297   5.439   5.017 -0.2738 -0.4232 -0.1548
 1001MOL0     C38047   1.405   5.525   4.987 -0.3625  0.2659  0.4004
 1001MOL0     O38048   1.572   5.766   5.219  0.7421  0.2099  0.3791
 1001MOL0     C38049   1.780   5.801   4.928 -0.5444  0.4019  0.0188
 1001MOL0     C38050   1.837   5.909   4.862  0.8774  0.2404 -0.0099
 1001MOL0     N38051   2.400   5.995   4.829  0.1641  0.3849 -0.2410
 1001MOL0     N38052   2.400   5.891   4.753  0.3112  0.4852  0.1474
 1001MOL0     C38053   2.350   6.060   3.642  0.8402 -0.1159  0.0916
 1001MOL0     C38054   2.459   6.076   3.561 -0.1583  0.8828  0.3917
 1001MOL0     C38055   2.894   6.239   3.438  0.2484  0.9522 -1.3997
 1001MOL0     C38056   2.874   6.160   3.321  0.8078  0.3416  0.0210
 1001MOL0     C38057   2.967   6.130   3.229 -0.2495 -0.2662  0.3781
 1001MOL0     C38058   3.087   6.186   3.241  0.1096  0.5261  1.2019
 1001MOL0     O38059   3.194   6.178   3.150  0.2163  0.5935  0.8383
 1001MOL0     C38060   3.183   6.127   3.011 -0.5833  0.9048 -0.3415
 1001MOL0     C38061   3.328   6.082   2.979 -0.3138 -0.0297  0.7054
 1001MOL0     C38062   3.347   5.926   2.995  0.5039  1.1585  0.0719
 1001MOL0     C38063   3.484   5.877   2.949  0.5656 -0.2129  1.0483
 1001MOL0     C38064   3.477   5.726   2.939 -0.3042 -0.6552  0.4242
 1001MOL0     C38065   3.476   5.602   2.937 -1.3002  0.4962  0.0109
 1001MOL0     C38066   3.119   6.269   3.343 -0.0257 -0.3594  0.4033
 1001MOL0     C38067   3.022   6.297   3.442  0.7844  1.0473  0.0147
 1001MOL0     C38068   3.060   6.395   3.547  0.0444 -0.8710  0.0709
 1001MOL0     H38069   2.594   6.345   3.722  0.1631 -0.2862 -0.9075
 1001MOL0     H38070   2.399   6.303   3.873  1.7248  2.1054  0.8565
 1001MOL0     H38071   2.219   5.908   3.901  3.1553  2.3860 -0.6226
 1001MOL0     H38072   2.139   5.948   3.760 -1.2831 -3.2804  1.1222
 1001MOL0     H38073   2.072   6.059   4.029 -0.4224  0.0346  1.0329
 1001MOL0     H38074   1.964   6.058   3.889 -0.1372 -2.2412 -2.3454
 1001MOL0     H38075   1.897   5.861   4.050  0.0391 -0.4681  0.1108
 1001MOL0     H38076   1.972   5.789   3.910  1.6067 -0.5458  0.0918
 1001MOL0     H38077   2.033   5.684   4.109 -2.6614  1.0371 -1.4180
 1001MOL0     H38078   2.185   5.761   4.035 -0.5388  1.0891 -0.5188
 1001MOL0     H38079   2.027   5.845   4.279 -0.7304 -1.4088 -0.4998
 1001MOL0     H38080   2.122   5.963   4.189 -2.8084 -0.5582  0.1763
 1001MOL0     H38081   2.227   5.692   4.303 -3.9022  0.3306  0.3901
 1001MOL0     H38082   2.324   5.829   4.228 -1.0029  0.2264 -1.6106
 1001MOL0     H38083   2.160   5.860   4.488  0.6691 -1.8659  2.2979
 1001MOL0     H38084   2.262   5.976   4.398  0.3183 -1.0109 -2.0567
 1001MOL0     H38085   2.345   5.730   4.547 -0.8633 -0.2625 -0.4483
 1001MOL0     H38086   2.461   5.815   4.439 -0.0688  0.9800 -0.5376
 1001MOL0     H38087   2.377   6.128   4.525 -1.0388 -1.1222 -0.9458
 1001MOL0     H38088   2.415   6.313   4.685 -0.3149  0.9853  0.9899
 1001MOL0     H38089   2.466   6.283   4.845 -1.0083 -2.6707  2.4442
 1001MOL0     H38090   2.264   6.299   4.942  3.9818  1.2105  0.1110
 1001MOL0     H38091   2.258   6.413   4.798  0.1980 -1.5486 -1.6316
 1001MOL0     H38092   2.053   6.324   4.789 -0.6560 -1.3296  0.6580
 1001MOL0     H38093   2.116   6.205   4.680 -2.4894 -0.6581 -0.1733
 1001MOL0     H38094   2.133   6.050   4.852 -0.2033  1.3407  0.2233
 1001MOL0     H38095   2.094   6.179   4.979 -0.4149  1.1411  0.6363
 1001MOL0     H38096   1.889   6.124   5.111 -1.4039 -0.2393  1.6047
 1001MOL0     H38097   1.846   6.038   5.313 -1.8953  2.9592 -0.2410
 1001MOL0     H38098   1.767   5.878   5.328 -1.0035  1.5342  3.5557
 1001MOL0     H38099   1.673   6.026   5.287 -0.6968 -1.0440 -3.4808
 1001MOL0     H38100   1.582   5.502   5.276  0.1115  0.6432  0.2719
 1001MOL0     H38101   1.381   5.323   5.311 -0.6197 -2.2932 -1.2847
 1001MOL0     H38102   0.997   5.310   5.227  0.1314 -1.9614  1.0519
 1001MOL0     H38103   1.045   5.398   5.083 -0.2063 -1.3120 -1.8209
 1001MOL0     H38104   1.059   5.102   5.096  0.4324 -1.1761 -1.9082
 1001MOL0     H38105   0.902   5.197   5.066 -0.3084 -1.9417  0.4505
 1001MOL0     H38106   1.161   5.226   4.899  0.8659 -0.8219 -0.5511
 1001MOL0     H38107   0.988   5.280   4.860 -2.7675 -3.2265 -0.2735
 1001MOL0     H38108   0.924   5.066   4.800 -0.5956  0.6392  2.2299
 1001MOL0     H38109   1.068   4.987   4.876  1.3306 -0.9671 -0.5271
 1001MOL0     H38110   1.213   5.077   4.704  0.2634  0.7843 -0.8603
 1001MOL0     H38111   1.073   5.012   4.611 -1.8686  0.6752  1.2500
 1001MOL0     H38112   1.093   5.301   4.668 -6.6006  3.1274 -1.1632
 1001MOL0     H38113   0.958   5.212   4.605 -0.7927 -2.1973  3.2136
 1001MOL0     H38114   1.101   5.300   4.413 -2.3752 -0.1833  0.9173
 1001MOL0     H38115   1.094   5.130   4.417 -3.1062  1.3663  0.0462
 1001MOL0     H38116   1.329   5.189   4.370  2.5610 -0.9498  0.5251
 1001MOL0     H38117   1.346   5.155   4.537  4.7290  2.6066 -1.2646
 1001MOL0     H38118   1.218   5.430   4.943  1.3505 -0.2482 -1.9747
 1001MOL0     H38119   1.419   5.570   4.889  0.2094 -0.3485  0.1868
 1001MOL0     H38120   1.764   5.709   4.873  0.8133  0.4272 -0.4743
 1001MOL0     H38121   1.867   5.897   4.759  3.1110  3.2333  0.1519
 1001MOL0     H38122   2.281   5.979   3.622  2.2517 -1.0706 -1.1192
 1001MOL0     H38123   2.480   6.015   3.474 -2.8837  2.3973 -1.4600
 1001MOL0     H38124   2.775   6.117   3.311  0.7321  0.5209 -0.0037
 1001MOL0     H38125   2.939   6.069   3.144 -1.8878  1.1145 -0.1222
 1001MOL0     H38126   3.115   6.042   3.010 -1.0110  1.2421 -0.3786
 1001MOL0     H38127   3.151   6.199   2.936 -0.1408 -0.3345 -1.7708
 1001MOL0     H38128   3.401   6.134   3.043 -1.3886  1.8588  0.4761
 1001MOL0     H38129   3.350   6.115   2.877 -2.7922  1.1035  0.4793
 1001MOL0     H38130   3.328   5.902   3.100 -1.2032 -2.0360 -0.8545
 1001MOL0     H38131   3.273   5.878   2.931 -0.9273 -0.8303  3.0094
 1001MOL0     H38132   3.560   5.910   3.020  1.3755 -1.5971  0.8648
 1001MOL0     H38133   3.507   5.927   2.855 -3.3285 -0.2869 -0.1427
 1001MOL0     H38134   3.484   5.495   2.938  1.2461  0.6211  0.7185
 1001MOL0     H38135   3.220   6.308   3.344 -0.0976  0.3678 -3.2464
 1001MOL0     H38136   3.166   6.424   3.549 -0.2552  0.7730 -2.8528
 1001MOL0     H38137   3.002   6.488   3.539 -2.8794 -2.6220 -0.2577
 1001MOL0     H38138   3.041   6.347   3.644  0.4579 -1.0808  0.0508
 1002MOL0     O38139  10.009  11.071  10.344  0.0661  0.3841  0.7001
 1002MOL0     C38140  10.080  10.990  10.402 -0.6861 -0.1608  0.5245
 1002MOL0     O38141  10.207  11.012  10.444 -0.4842 -0.1007 -0.5628
 1002MOL0     C38142  10.279  11.125  10.400  0.9671  0.2679 -0.7094
 1002MOL0     C38143  10.325  11.136  10.266  0.3717 -0.0463 -0.6884
 1002MOL0     C38144  10.393  11.254  10.230  0.5862  0.6087  0.6924
 1002MOL0     C38145  10.440  11.340  10.322 -0.9289 -0.4376 -0.6599
 1002MOL0     O38146  10.513  11.450  10.297  0.1203 -0.6147  0.5856
 1002MOL0     C38147  10.584  11.458  10.172  1.2236 -1.1455  0.3272
 1002MOL0     C38148  10.665  11.586  10.176  0.2664  0.1178  0.0333
 1002MOL0     C38149  10.713  11.647  10.039  0.0642 -0.5137  0.1726
 1002MOL0     C38150  10.763  11.789  10.052  0.3181 -0.2451  0.4591
 1002MOL0     C38151  10.649  11.889  10.033  0.3396  0.5429  0.4872
 1002MOL0     C38152  10.709  12.027  10.045 -0.1506 -0.3197 -0.7009
 1002MOL0     C38153  10.849  12.059   9.985 -0.5325  0.5865  0.0459
 1002MOL0     C38154  10.887  12.197  10.011 -0.0422  0.6771  0.2002
 1002MOL0     N38155  11.021  12.208   9.961 -0.1995  0.7204 -0.4308
 1002MOL0     C38156  11.131  12.203  10.045 -0.4720  0.4043 -0.2171
 1002MOL0     C38157  11.221  12.289  10.000 -0.6917 -0.0810  0.0897
 1002MOL0     C38158  11.347  12.320  10.076 -0.4654  0.8815  0.1393
 1002MOL0     C38159  11.455  12.366   9.979 -0.5502  0.8916  0.7225
 1002MOL0     C38160  11.491  12.254   9.885 -0.4355 -0.1307 -0.0809
 1002MOL0     C38161  11.605  12.299   9.786  0.7178 -0.5173 -0.5726
 1002MOL0     O38162  11.716  12.357   9.858 -0.0365 -0.1807 -0.5152
 1002MOL0     C38163  11.810  12.282   9.921 -0.3175 -0.2439 -0.6258
 1002MOL0     C38164  11.827  12.150   9.909  0.2136  0.4166 -0.2330
 1002MOL0     C38165  11.931  12.080   9.964  0.6061  0.8432  0.3418
 1002MOL0     C38166  11.930  11.940   9.910  0.4754  0.1698  0.4728
 1002MOL0     C38167  12.022  12.138  10.048  0.3520 -1.0185 -0.7541
 1002MOL0     C38168  12.141  12.077  10.119 -0.1646 -0.0757  0.1572
 1002MOL0     O38169  12.205  11.973  10.063 -0.3049  0.3833  0.1961
 1002MOL0     C38170  12.322  11.934  10.118  0.1591 -0.5645 -0.2780
 1002MOL0     C38171  12.437  12.002  10.078  0.1663 -0.6022 -0.0924
 1002MOL0     C38172  12.554  11.978  10.139 -0.4445 -0.2264  0.1438
 1002MOL0     C38173  12.569  11.888  10.245  0.0426  0.2720 -0.2206
 1002MOL0     O38174  12.686  11.881  10.315 -0.0202 -0.3834  0.3487
 1002MOL0     C38175  12.723  11.768  10.390  0.2809  0.6612  0.0666
 1002MOL0     C38176  12.873  11.791  10.431  0.1581  0.7470  0.2162
 1002MOL0     C38177  12.872  11.924  10.517 -0.4607 -0.3747  0.3633
 1002MOL0     C38178  13.001  11.948  10.593  0.3691 -1.2898 -0.0306
 1002MOL0     C38179  13.010  12.078  10.658 -0.4741 -0.3081  0.4887
 1002MOL0     C38180  13.131  12.090  10.756 -0.6181 -0.2763  0.3591
 1002MOL0     C38181  13.125  12.190  10.879  0.3011 -0.8496  0.2978
 1002MOL0     C38182  13.260  12.249  10.906  0.4624 -0.5258  0.6027
 1002MOL0    Cl38183  13.380  12.112  10.934  0.2189 -0.1074  0.3898
 1002MOL0     C38184  12.459  11.805  10.271  0.2093 -0.1888 -0.3062
 1002MOL0     C38185  12.344  11.827  10.206 -0.1361  0.4047 -0.4241
 1002MOL0     O38186  12.179  12.132  10.219  0.9865  0.0461 -0.0609
 1002MOL0     C38187  12.008  12.273  10.070 -0.1195 -1.5146 -0.4415
 1002MOL0     C38188  11.908  12.343  10.001  0.1955  0.3915 -0.6476
 1002MOL0     N38189  11.166  12.350   9.892  0.4524 -0.0291 -0.1190
 1002MOL0     N38190  11.052  12.293   9.868 -0.9277 -0.0165 -0.5582
 1002MOL0     C38191  10.389  11.334  10.456 -0.6944  1.1620  0.4652
 1002MOL0     C38192  10.310  11.223  10.496  1.0082 -0.2178  0.4207
 1002MOL0     C38193  10.014  10.854  10.392 -0.6197 -0.1784 -0.1727
 1002MOL0     C38194   9.876  10.857  10.421 -0.3426 -0.3322 -0.2604
 1002MOL0     C38195   9.801  10.736  10.409 -1.3982 -0.3424  0.0950
 1002MOL0     C38196   9.872  10.616  10.378 -0.0350 -0.0241  0.8941
 1002MOL0     O38197   9.814  10.490  10.366  1.1280  0.0425  0.1858
 1002MOL0     C38198   9.674  10.457  10.402  0.1072 -0.4551 -0.1246
 1002MOL0     C38199   9.667  10.456  10.554  0.2740  0.3358 -0.1299
 1002MOL0     C38200   9.527  10.442  10.603  0.4612 -0.1945  0.3738
 1002MOL0     C38201   9.505  10.443  10.750  0.3245 -0.4124  0.3396
 1002MOL0     C38202   9.525  10.317  10.812 -1.0737  0.5605 -0.5592
 1002MOL0     C38203   9.523  10.216  10.880  0.5191  0.4719  1.4427
 1002MOL0     C38204  10.012  10.618  10.359 -0.0579 -0.4076 -0.7890
 1002MOL0     C38205  10.084  10.733  10.370  0.1797 -0.7057 -0.2369
 1002MOL0     C38206  10.233  10.720  10.354 -0.1347  0.0025 -0.5354
 1002MOL0     H38207  10.281  11.074  10.189 -0.5990  0.7809 -0.8323
 1002MOL0     H38208  10.413  11.261  10.123  1.3646 -0.2346  0.7690
 1002MOL0     H38209  10.509  11.452  10.093  3.3233  0.6660 -1.9799
 1002MOL0     H38210  10.647  11.370  10.156  3.5546  0.2511  1.1949
 1002MOL0     H38211  10.600  11.663  10.217 -0.0506 -1.3723  2.5298
 1002MOL0     H38212  10.750  11.572  10.243  0.9360  1.2091 -0.5560
 1002MOL0     H38213  10.797  11.590   9.997 -1.7451 -2.3139 -1.1861
 1002MOL0     H38214  10.629  11.652   9.969 -0.2244 -0.6104  0.5073
 1002MOL0     H38215  10.825  11.791  10.142 -0.5562 -1.2940  1.1211
 1002MOL0     H38216  10.832  11.800   9.967 -0.5961  0.8291 -0.1701
 1002MOL0     H38217  10.573  11.874  10.111 -0.1842  0.5471 -0.0151
 1002MOL0     H38218  10.600  11.872   9.937  1.9286 -4.0491  0.2304
 1002MOL0     H38219  10.645  12.098   9.993  0.3396  1.3276  0.8163
 1002MOL0     H38220  10.706  12.036  10.154 -0.4920 -3.3698 -0.3682
 1002MOL0     H38221  10.837  12.044   9.877 -0.9543  0.1916  0.1443
 1002MOL0     H38222  10.925  11.996  10.031  0.8110  3.5383  2.1474
 1002MOL0     H38223  10.824  12.276   9.969  0.3908  0.1498 -1.5438
 1002MOL0     H38224  10.888  12.213  10.119  2.4474  0.3534  0.2892
 1002MOL0     H38225  11.157  12.142  10.131 -0.8997 -2.4849 -2.0027
 1002MOL0     H38226  11.387  12.232  10.127  0.2273  0.4687 -1.0711
 1002MOL0     H38227  11.316  12.396  10.148  0.3421 -0.9684  2.6244
 1002MOL0     H38228  11.415  12.444   9.913 -2.1759  0.0258  0.6305
 1002MOL0     H38229  11.543  12.402  10.033  0.6509 -1.1882  0.2506
 1002MOL0     H38230  11.518  12.176   9.956  1.4293 -1.4834 -2.1432
 1002MOL0     H38231  11.408  12.219   9.823 -0.0126 -1.6716  0.1841
 1002MOL0     H38232  11.631  12.215   9.721  1.0760  0.5818 -1.8924
 1002MOL0     H38233  11.563  12.368   9.712  0.1659 -0.1694  0.0567
 1002MOL0     H38234  11.760  12.106   9.836 -3.3031  0.2136  2.8546
 1002MOL0     H38235  11.864  11.916   9.826 -1.1186 -2.1409  2.2300
 1002MOL0     H38236  11.895  11.878   9.993  2.5939  2.3005  3.1448
 1002MOL0     H38237  12.029  11.914   9.872 -1.0078 -2.2448 -2.0997
 1002MOL0     H38238  12.429  12.083  10.007  2.3465 -0.3763 -0.1693
 1002MOL0     H38239  12.641  12.039  10.116  0.5957 -1.7341 -0.0569
 1002MOL0     H38240  12.664  11.768  10.482 -0.9935 -2.8756 -0.5979
 1002MOL0     H38241  12.711  11.670  10.344 -2.4731  1.3541 -0.8608
 1002MOL0     H38242  12.910  11.705  10.489 -2.3771 -1.0222 -0.5844
 1002MOL0     H38243  12.933  11.795  10.340  0.0793  1.4583  0.1955
 1002MOL0     H38244  12.791  11.912  10.590 -1.2292 -2.3028 -0.7130
 1002MOL0     H38245  12.847  12.004  10.447 -1.7845 -1.2812 -0.2616
 1002MOL0     H38246  13.081  11.959  10.519  1.7746  1.0148  1.6757
 1002MOL0     H38247  13.024  11.875  10.672  2.8946  0.2827  0.7839
 1002MOL0     H38248  13.022  12.160  10.587 -2.7743 -0.4855 -0.1998
 1002MOL0     H38249  12.914  12.102  10.705 -1.5349 -3.1567  0.0126
 1002MOL0     H38250  13.209  12.100  10.681 -0.6095  0.3805  0.4530
 1002MOL0     H38251  13.148  11.994  10.806  0.1554  0.8384  2.3659
 1002MOL0     H38252  13.103  12.130  10.967  0.1200 -3.8731 -1.6421
 1002MOL0     H38253  13.053  12.267  10.852 -0.8881 -2.0412 -0.0167
 1002MOL0     H38254  13.250  12.316  10.992  1.5150 -1.3885  1.4443
 1002MOL0     H38255  13.290  12.307  10.819  1.8708 -4.6660 -1.9525
 1002MOL0     H38256  12.456  11.718  10.336  0.7886  0.0148 -0.0017
 1002MOL0     H38257  12.265  11.760  10.238 -0.4220  0.3568 -1.2034
 1002MOL0     H38258  12.071  12.329  10.139 -1.6733  0.0651 -0.2400
 1002MOL0     H38259  11.905  12.451  10.013 -0.5218  0.0470  4.2707
 1002MOL0     H38260  10.421  11.415  10.520  0.8843 -0.9356  2.4934
 1002MOL0     H38261  10.271  11.208  10.596 -1.4390 -2.2334 -0.7147
 1002MOL0     H38262   9.825  10.952  10.434 -1.8091 -1.2297  0.8373
 1002MOL0     H38263   9.694  10.751  10.411 -1.2102  1.2958 -0.8866
 1002MOL0     H38264   9.598  10.512  10.346 -0.6941 -1.2289  0.1841
 1002MOL0     H38265   9.667  10.355  10.365  2.0552 -0.0832 -1.6901
 1002MOL0     H38266   9.723  10.541  10.595  1.6151 -0.8740  0.6709
 1002MOL0     H38267   9.727  10.368  10.580  1.2627  1.2335  0.7226
 1002MOL0     H38268   9.471  10.527  10.564  0.8641  0.2069  0.6590
 1002MOL0     H38269   9.478  10.358  10.553  1.2861  0.2929 -1.3268
 1002MOL0     H38270   9.402  10.474  10.772  0.9606  1.1948  1.2498
 1002MOL0     H38271   9.563  10.524  10.796  1.2101 -0.3959 -0.7460
 1002MOL0     H38272   9.482  10.137  10.940 -0.9307  2.1196  2.7323
 1002MOL0     H38273  10.061  10.524  10.337  1.9230  0.3522  0.1501
 1002MOL0     H38274  10.278  10.819  10.347  1.3087 -0.6259 -0.4000
 1002MOL0     H38275  10.281  10.674  10.440 -0.3281  2.3098  0.9012
 1002MOL0     H38276  10.247  10.660  10.263  0.9504  0.3394 -0.5979
 1003MOL0     O38277   2.724   6.213   2.694  0.9774 -0.2942  0.4747
 1003MOL0     C38278   2.621   6.258   2.650 -0.5543  0.5680  0.8751
 1003MOL0     O38279   2.503   6.190   2.629 -0.3187  0.8469 -0.8302
 1003MOL0     C38280   2.497   6.050   2.607  0.9414 -0.5533 -0.1672
 1003MOL0     C38281   2.381   5.977   2.626  0.4058  0.4960 -0.2613
 1003MOL0     C38282   2.372   5.835   2.604 -0.0039 -0.1948  1.1553
 1003MOL0     C38283   2.487   5.767   2.570  0.7298  0.0004  0.7929
 1003MOL0     O38284   2.473   5.640   2.551 -0.0076  0.9159  0.3669
 1003MOL0     C38285   2.588   5.559   2.585  0.1599 -0.7753  0.7786
 1003MOL0     C38286   2.547   5.423   2.639  0.7599 -0.0426  1.0613
 1003MOL0     C38287   2.498   5.428   2.781  1.1111 -0.5289  0.0808
 1003MOL0     C38288   2.468   5.288   2.835  0.4196  0.1813 -0.9341
 1003MOL0     C38289   2.418   5.296   2.988 -0.5391  1.0116 -0.2378
 1003MOL0     C38290   2.512   5.233   3.089 -0.7481  0.1038 -0.0238
 1003MOL0     C38291   2.438   5.221   3.217  0.3757  0.7506 -0.8283
 1003MOL0     C38292   2.526   5.152   3.322 -0.7297 -0.8324  0.3098
 1003MOL0     N38293   2.604   5.260   3.393  0.5125  0.1096 -0.9588
 1003MOL0     C38294   2.730   5.289   3.368 -0.2068 -0.1835  0.1060
 1003MOL0     C38295   2.772   5.377   3.454  0.0296  0.0921 -0.3454
 1003MOL0     C38296   2.917   5.403   3.476  0.5677 -0.3851 -0.8863
 1003MOL0     C38297   2.943   5.361   3.621  0.1548  0.3720  0.0498
 1003MOL0     C38298   3.089   5.328   3.638  1.0476  0.0818 -1.7748
 1003MOL0     C38299   3.124   5.292   3.782 -0.5209  0.4903  0.0889
 1003MOL0     O38300   3.255   5.242   3.762  0.5503  0.3900  0.8832
 1003MOL0     C38301   3.320   5.175   3.867  0.2020  0.3802 -0.8623
 1003MOL0     C38302   3.443   5.122   3.846 -0.1263  1.1096 -0.2525
 1003MOL0     C38303   3.529   5.065   3.945 -0.5801 -0.5573  0.3410
 1003MOL0     C38304   3.655   5.012   3.911  0.0991 -0.4415  0.3384
 1003MOL0     C38305   3.470   5.053   4.070 -0.6577 -0.0870  0.0671
 1003MOL0     C38306   3.544   5.009   4.188 -0.4300  0.1833  0.1624
 1003MOL0     O38307   3.466   4.931   4.272  0.1973 -0.4161 -0.0210
 1003MOL0     C38308   3.495   4.914   4.404  0.8915  0.0446 -1.1884
 1003MOL0     C38309   3.610   4.842   4.447  0.4259  0.7093 -0.6169
 1003MOL0     C38310   3.632   4.806   4.584  0.2858 -0.1284  0.3568
 1003MOL0     C38311   3.532   4.832   4.677  0.0073  0.4711 -0.3836
 1003MOL0     O38312   3.555   4.811   4.811 -0.1350 -0.2820 -0.0636
 1003MOL0     C38313   3.614   4.689   4.858 -0.4874  0.3362  0.3270
 1003MOL0     C38314   3.514   4.569   4.832 -0.5309  0.0387 -0.3145
 1003MOL0     C38315   3.408   4.566   4.932  0.3660  0.1544 -0.3581
 1003MOL0     C38316   3.357   4.425   4.952 -0.2266 -0.2981  0.2899
 1003MOL0     C38317   3.231   4.416   5.031  0.6790 -0.3131  1.3603
 1003MOL0     C38318   3.102   4.432   4.943 -0.1313 -0.7898  0.3234
 1003MOL0     C38319   2.983   4.392   5.026  0.1670 -0.1511 -0.1226
 1003MOL0     C38320   2.862   4.331   4.959  0.6337 -0.2492  0.4795
 1003MOL0    Cl38321   2.926   4.191   4.861 -0.0071 -0.0864  0.5097
 1003MOL0     C38322   3.419   4.896   4.635 -0.3960 -0.3737 -0.3567
 1003MOL0     C38323   3.400   4.947   4.502  0.5531 -0.1206 -1.0804
 1003MOL0     O38324   3.669   5.035   4.202  0.3419 -0.3351  0.1069
 1003MOL0     C38325   3.337   5.092   4.091 -0.3702 -0.2943  0.0709
 1003MOL0     C38326   3.264   5.157   3.994 -0.2948 -0.0267 -0.2176
 1003MOL0     N38327   2.668   5.404   3.542 -0.0103 -0.2285  0.1993
 1003MOL0     N38328   2.563   5.337   3.503 -0.7095 -1.4954 -0.0320
 1003MOL0     C38329   2.605   5.841   2.546 -0.1189 -0.4748 -0.1758
 1003MOL0     C38330   2.609   5.977   2.561  0.2790  0.3648  0.2061
 1003MOL0     C38331   2.621   6.400   2.592  0.3654  0.2272 -1.1333
 1003MOL0     C38332   2.504   6.464   2.610 -0.5471 -0.7458 -0.4152
 1003MOL0     C38333   2.469   6.589   2.566  0.4036 -0.5428 -0.2455
 1003MOL0     C38334   2.569   6.658   2.505 -0.1657 -0.5698  0.0022
 1003MOL0     O38335   2.542   6.779   2.469  0.5756  0.2589 -0.2416
 1003MOL0     C38336   2.550   6.873   2.578  0.3386 -0.1874  0.1844
 1003MOL0     C38337   2.690   6.924   2.607 -0.2264  0.0567 -0.8608
 1003MOL0     C38338   2.764   6.995   2.487  0.0062  0.1041  0.6675
 1003MOL0     C38339   2.905   7.029   2.516  0.5740 -0.2296  0.9112
 1003MOL0     C38340   3.001   6.920   2.508 -0.7951 -0.2483  0.4349
 1003MOL0     C38341   3.086   6.832   2.499  0.9703 -0.5557  0.6902
 1003MOL0     C38342   2.697   6.604   2.497  0.0186 -0.0563  0.0473
 1003MOL0     C38343   2.729   6.469   2.539 -0.4984  0.0463  1.0828
 1003MOL0     C38344   2.872   6.419   2.521 -0.5253  0.5266 -0.0814
 1003MOL0     H38345   2.293   6.030   2.659  1.9677  1.8345  2.0478
 1003MOL0     H38346   2.273   5.790   2.614 -1.6020  3.0464  1.1532
 1003MOL0     H38347   2.643   5.607   2.666  5.3064 -3.3446 -0.7436
 1003MOL0     H38348   2.670   5.540   2.514  1.3735  0.2221  1.8565
 1003MOL0     H38349   2.468   5.383   2.575  1.1291 -1.6213  1.5386
 1003MOL0     H38350   2.634   5.357   2.637 -0.4791 -1.7437 -0.0700
 1003MOL0     H38351   2.569   5.472   2.852 -1.1619  0.0030  2.1468
 1003MOL0     H38352   2.409   5.492   2.777  1.9699  0.6584 -1.8035
 1003MOL0     H38353   2.391   5.237   2.777  0.3882  0.7554 -1.4037
 1003MOL0     H38354   2.553   5.220   2.826 -0.4409 -0.7741 -2.0506
 1003MOL0     H38355   2.331   5.233   3.007 -0.7921  1.6272  0.7354
 1003MOL0     H38356   2.405   5.402   3.015  0.7521  2.0558 -3.2771
 1003MOL0     H38357   2.537   5.131   3.057 -3.8004 -0.7362  0.0020
 1003MOL0     H38358   2.604   5.293   3.100 -2.3365  2.5929  0.5200
 1003MOL0     H38359   2.351   5.155   3.210 -0.0816  1.2521 -0.1114
 1003MOL0     H38360   2.417   5.319   3.261 -1.1144 -0.8374  2.3285
 1003MOL0     H38361   2.464   5.098   3.395 -1.3528  0.0164  0.4344
 1003MOL0     H38362   2.603   5.088   3.279  0.1175  0.8142 -0.7311
 1003MOL0     H38363   2.803   5.254   3.296  0.6881  0.4279  0.6945
 1003MOL0     H38364   2.940   5.509   3.459  1.4538 -0.9182 -3.4364
 1003MOL0     H38365   2.970   5.333   3.411  0.5752 -2.4971  1.2564
 1003MOL0     H38366   2.915   5.433   3.698 -0.2775 -0.7342  0.9451
 1003MOL0     H38367   2.896   5.264   3.640  0.3352  0.7808  2.9570
 1003MOL0     H38368   3.109   5.240   3.576  2.2330  0.6669 -2.2498
 1003MOL0     H38369   3.133   5.420   3.599 -1.3495  1.9445 -0.3741
 1003MOL0     H38370   3.126   5.385   3.841 -0.4820  0.1851  0.5780
 1003MOL0     H38371   3.046   5.227   3.822 -3.3033  1.6706 -3.0069
 1003MOL0     H38372   3.489   5.127   3.749  1.4743  0.8127  0.4651
 1003MOL0     H38373   3.666   4.987   3.805 -1.3237  2.3678 -0.5599
 1003MOL0     H38374   3.686   4.932   3.980  1.1806 -0.3527 -0.0266
 1003MOL0     H38375   3.733   5.086   3.929 -1.3176  1.2170 -0.1279
 1003MOL0     H38376   3.676   4.813   4.366 -0.9963 -2.5969 -0.7583
 1003MOL0     H38377   3.723   4.759   4.620  1.5582  3.9619  3.2967
 1003MOL0     H38378   3.702   4.658   4.801 -1.5863 -2.1957 -0.1231
 1003MOL0     H38379   3.639   4.685   4.964 -1.9263 -4.0189  0.7080
 1003MOL0     H38380   3.476   4.571   4.730 -0.6383  0.5918 -0.2673
 1003MOL0     H38381   3.562   4.471   4.832 -2.3257 -0.8766 -0.0395
 1003MOL0     H38382   3.321   4.628   4.910  0.2252 -0.5233 -1.7890
 1003MOL0     H38383   3.444   4.615   5.024  1.3294 -0.4006 -0.4297
 1003MOL0     H38384   3.433   4.364   5.002  2.9044  2.1842 -1.1086
 1003MOL0     H38385   3.344   4.388   4.850 -1.0822  0.6509  0.0375
 1003MOL0     H38386   3.240   4.316   5.075  3.4761 -2.7668 -3.9225
 1003MOL0     H38387   3.234   4.492   5.110  0.4578  3.8007 -2.1988
 1003MOL0     H38388   3.103   4.375   4.850  0.8116 -1.0915  0.5075
 1003MOL0     H38389   3.101   4.532   4.898 -1.1871 -1.2826 -0.7994
 1003MOL0     H38390   2.955   4.475   5.092 -0.3807 -1.7552  1.7580
 1003MOL0     H38391   3.012   4.313   5.097  1.1518 -2.6561 -3.1045
 1003MOL0     H38392   2.828   4.404   4.885  2.4736 -0.2305 -0.3921
 1003MOL0     H38393   2.790   4.317   5.041 -0.6252  0.6870 -0.4271
 1003MOL0     H38394   3.338   4.916   4.703 -1.2775 -2.3056 -0.7798
 1003MOL0     H38395   3.311   5.007   4.487  0.5309 -0.3600 -1.9157
 1003MOL0     H38396   3.292   5.074   4.188 -1.1562 -1.9439 -0.5672
 1003MOL0     H38397   3.165   5.193   4.021 -0.7118 -2.5042  2.0570
 1003MOL0     H38398   2.693   5.781   2.526 -1.4005 -3.0390  1.2585
 1003MOL0     H38399   2.703   6.028   2.542  0.4183  0.1155  0.2072
 1003MOL0     H38400   2.427   6.415   2.669 -1.1648 -0.6394 -1.1176
 1003MOL0     H38401   2.372   6.631   2.587  0.2516 -1.4464  0.9589
 1003MOL0     H38402   2.478   6.952   2.557 -2.8903 -1.7022  4.1808
 1003MOL0     H38403   2.493   6.835   2.663 -1.9730 -1.0263 -1.6397
 1003MOL0     H38404   2.751   6.845   2.654  0.1299  0.5017 -0.5631
 1003MOL0     H38405   2.686   7.002   2.683  3.3559  1.8976 -2.3014
 1003MOL0     H38406   2.771   6.927   2.401 -2.8462  0.9454 -0.3570
 1003MOL0     H38407   2.710   7.085   2.458 -1.0326 -0.0646  2.0021
 1003MOL0     H38408   2.916   7.060   2.620  3.9956 -2.0145  1.2048
 1003MOL0     H38409   2.930   7.108   2.444 -0.5715  2.1539  3.0009
 1003MOL0     H38410   3.149   6.746   2.500  0.4449 -1.0630 -2.1243
 1003MOL0     H38411   2.774   6.671   2.459 -0.7220  1.5284  1.2398
 1003MOL0     H38412   2.859   6.330   2.460  1.2472  0.1664  0.0258
 1003MOL0     H38413   2.939   6.481   2.461 -1.9475  0.1228 -2.1992
 1003MOL0     H38414   2.919   6.393   2.616 -2.3782  0.5225  0.8797
 1004MOL0     O38415  10.726   4.360   7.403 -0.2311  0.5003 -0.8206
 1004MOL0     C38416  10.718   4.464   7.456 -0.1722  0.1919 -0.3675
 1004MOL0     O38417  10.790   4.571   7.422 -0.5742  0.4020 -0.4128
 1004MOL0     C38418  10.857   4.579   7.300  0.2970  0.6246  1.2601
 1004MOL0     C38419  10.817   4.673   7.213  0.0656 -0.6600  0.5007
 1004MOL0     C38420  10.897   4.683   7.096  0.5954  0.5256 -0.1639
 1004MOL0     C38421  11.008   4.606   7.067 -0.3825 -0.8170 -1.2548
 1004MOL0     O38422  11.083   4.614   6.947 -0.4112 -0.2635 -0.7404
 1004MOL0     C38423  11.119   4.740   6.892  0.8753  0.0777 -0.3020
 1004MOL0     C38424  11.221   4.748   6.775 -0.4093 -0.1634 -0.8023
 1004MOL0     C38425  11.351   4.660   6.791  0.1218 -0.8694  0.1920
 1004MOL0     C38426  11.418   4.670   6.653 -0.8932  0.1969  0.3998
 1004MOL0     C38427  11.551   4.584   6.648 -1.2076  0.3178  1.2195
 1004MOL0     C38428  11.611   4.584   6.500  0.3160  0.4337  0.1925
 1004MOL0     C38429  11.747   4.517   6.498  0.2692 -0.1780  0.6920
 1004MOL0     C38430  11.745   4.367   6.470 -0.8459 -0.1210  0.2714
 1004MOL0     N38431  11.887   4.316   6.453 -0.7139  0.7160  0.2897
 1004MOL0     C38432  11.995   4.326   6.543  0.5109  0.3307 -0.4078
 1004MOL0     C38433  12.087   4.231   6.500 -0.2647  1.2510  1.0899
 1004MOL0     C38434  12.230   4.240   6.543 -0.8629 -0.5826  0.4317
 1004MOL0     C38435  12.317   4.279   6.426  1.0388  0.3166  0.0264
 1004MOL0     C38436  12.460   4.253   6.453  0.1424  0.6926 -0.0804
 1004MOL0     C38437  12.519   4.326   6.576 -0.4348 -0.6486 -0.3082
 1004MOL0     O38438  12.659   4.330   6.547 -0.5931 -0.0131  0.3139
 1004MOL0     C38439  12.750   4.390   6.631  0.4351  0.4329  0.1341
 1004MOL0     C38440  12.712   4.472   6.736 -0.0523  0.8948  0.4086
 1004MOL0     C38441  12.808   4.530   6.820  0.5477 -0.4966 -0.2846
 1004MOL0     C38442  12.754   4.608   6.944 -1.1699 -0.2606  0.0468
 1004MOL0     C38443  12.941   4.503   6.797 -0.3285 -0.3297  0.2639
 1004MOL0     C38444  13.051   4.561   6.869 -0.5310 -0.1561  0.7821
 1004MOL0     O38445  13.113   4.481   6.975  0.0680 -0.1007  0.8067
 1004MOL0     C38446  13.059   4.360   7.008 -0.2631  0.4713 -0.5727
 1004MOL0     C38447  12.950   4.362   7.098 -0.3248  0.3025  1.6566
 1004MOL0     C38448  12.903   4.244   7.151  0.0684  0.9809 -0.7419
 1004MOL0     C38449  12.966   4.120   7.125  0.2724 -0.3218  0.6860
 1004MOL0     O38450  12.925   4.011   7.197  1.3854  0.0113 -0.3449
 1004MOL0     C38451  12.941   3.876   7.152 -0.4561 -0.0779 -0.2012
 1004MOL0     C38452  12.860   3.782   7.239  0.6578  0.0434  0.2197
 1004MOL0     C38453  12.711   3.794   7.221  0.4958  0.0045  0.8862
 1004MOL0     C38454  12.633   3.699   7.306 -0.6833  0.3212 -0.8312
 1004MOL0     C38455  12.479   3.711   7.295 -0.5600  0.0215  0.2865
 1004MOL0     C38456  12.409   3.585   7.342  0.1154 -1.0464 -0.1488
 1004MOL0     C38457  12.260   3.598   7.327  0.3491  0.0664  0.4437
 1004MOL0     C38458  12.196   3.590   7.464 -0.4089 -0.5845 -0.2709
 1004MOL0    Cl38459  12.252   3.714   7.575  0.2482  0.4543  0.4924
 1004MOL0     C38460  13.083   4.124   7.042 -0.0220  1.1246 -0.3365
 1004MOL0     C38461  13.121   4.242   6.985 -0.1952 -0.4081 -0.4524
 1004MOL0     O38462  13.101   4.668   6.839  0.2393 -1.0635 -0.1187
 1004MOL0     C38463  12.974   4.407   6.692  0.3428  0.0329  0.0352
 1004MOL0     C38464  12.883   4.357   6.602  0.4480  1.0359  0.1114
 1004MOL0     N38465  12.026   4.167   6.389  0.0152  0.3718  0.0807
 1004MOL0     N38466  11.914   4.213   6.361  0.7712  0.0714  0.7945
 1004MOL0     C38467  11.040   4.502   7.162 -0.2503  0.6104  0.3540
 1004MOL0     C38468  10.981   4.498   7.284  1.1917  0.3574 -0.1696
 1004MOL0     C38469  10.620   4.479   7.576 -0.7115 -0.0190  0.4242
 1004MOL0     C38470  10.612   4.600   7.646 -0.3666  0.6877  0.6159
 1004MOL0     C38471  10.535   4.620   7.757 -0.6669  0.3489  0.0838
 1004MOL0     C38472  10.461   4.513   7.799 -0.0133 -0.0888  0.7463
 1004MOL0     O38473  10.382   4.532   7.911  0.4641  0.3238  0.3361
 1004MOL0     C38474  10.298   4.420   7.958 -0.1493  0.5677 -0.3052
 1004MOL0     C38475  10.169   4.395   7.870  0.9527 -0.7132  0.2719
 1004MOL0     C38476  10.080   4.520   7.894  0.3295  0.0665 -0.6781
 1004MOL0     C38477   9.938   4.515   7.845  1.0010  0.3249 -0.1844
 1004MOL0     C38478   9.869   4.387   7.840 -0.1543 -0.3341  0.0455
 1004MOL0     C38479   9.800   4.289   7.820 -0.0114  0.1881 -0.4725
 1004MOL0     C38480  10.465   4.388   7.730  0.4232 -1.1533 -0.6498
 1004MOL0     C38481  10.531   4.374   7.612  0.5810 -0.7175  0.3181
 1004MOL0     C38482  10.514   4.242   7.533 -0.6047 -0.2817 -0.2639
 1004MOL0     H38483  10.740   4.745   7.238 -0.0064 -0.0880 -1.2272
 1004MOL0     H38484  10.861   4.760   7.028  1.0512 -0.1817 -1.2407
 1004MOL0     H38485  11.148   4.792   6.984 -2.4695 -0.6732  1.3312
 1004MOL0     H38486  11.022   4.783   6.862 -0.3504 -1.9709  0.5251
 1004MOL0     H38487  11.157   4.702   6.699 -3.0802  0.3090  1.0128
 1004MOL0     H38488  11.247   4.851   6.749 -0.4559  0.5523  1.6845
 1004MOL0     H38489  11.413   4.695   6.874  0.4905 -3.1452  0.9448
 1004MOL0     H38490  11.332   4.553   6.805 -0.2859 -0.8271 -0.0176
 1004MOL0     H38491  11.350   4.635   6.575  0.2049  1.7396 -1.3580
 1004MOL0     H38492  11.455   4.770   6.628 -0.8104 -0.0773 -0.6090
 1004MOL0     H38493  11.527   4.483   6.683  0.7617  0.9041  4.6547
 1004MOL0     H38494  11.621   4.629   6.718  2.3248  0.5467 -2.0912
 1004MOL0     H38495  11.534   4.537   6.439 -0.8176 -0.3437  2.1144
 1004MOL0     H38496  11.633   4.686   6.466  0.0530  0.5036  0.2311
 1004MOL0     H38497  11.792   4.533   6.596  0.3319  0.8583  0.4979
 1004MOL0     H38498  11.823   4.543   6.424  0.5859 -1.5359  0.4967
 1004MOL0     H38499  11.703   4.318   6.558 -0.2110 -0.1656  0.5472
 1004MOL0     H38500  11.686   4.335   6.383  1.6395 -0.6234 -1.3412
 1004MOL0     H38501  12.004   4.391   6.629 -1.4894 -1.5030  1.3164
 1004MOL0     H38502  12.263   4.147   6.591 -3.1089 -1.8395 -0.2761
 1004MOL0     H38503  12.231   4.327   6.609 -2.4177 -1.1615  1.2987
 1004MOL0     H38504  12.294   4.226   6.333 -0.2003  1.7070 -0.5075
 1004MOL0     H38505  12.310   4.388   6.420 -0.1504  0.2584  0.1191
 1004MOL0     H38506  12.474   4.147   6.475 -0.2415  0.4812 -0.8220
 1004MOL0     H38507  12.525   4.268   6.366  2.0039 -1.1010  0.9247
 1004MOL0     H38508  12.479   4.428   6.582  1.3615  0.0609  0.2940
 1004MOL0     H38509  12.486   4.272   6.665 -0.0652  1.5845  1.2746
 1004MOL0     H38510  12.607   4.481   6.759 -0.8157 -0.8431 -1.9973
 1004MOL0     H38511  12.727   4.546   7.030  3.5812 -0.4031  1.7146
 1004MOL0     H38512  12.664   4.661   6.912 -0.1372  0.0013 -2.6824
 1004MOL0     H38513  12.826   4.677   6.988  1.7882 -1.9490 -1.8140
 1004MOL0     H38514  12.901   4.456   7.120  0.7506  0.9715  1.2916
 1004MOL0     H38515  12.812   4.232   7.210  0.3833 -0.3091 -0.4842
 1004MOL0     H38516  12.917   3.865   7.046 -0.1635  0.8839 -0.3832
 1004MOL0     H38517  13.049   3.862   7.167 -0.1556  2.5262  0.5532
 1004MOL0     H38518  12.888   3.678   7.221  0.4777 -0.3091  1.8286
 1004MOL0     H38519  12.888   3.809   7.342 -1.2925  0.5226  0.6679
 1004MOL0     H38520  12.688   3.785   7.115  0.4335  0.3016  0.8733
 1004MOL0     H38521  12.674   3.894   7.249 -2.2963 -0.6042 -0.3346
 1004MOL0     H38522  12.665   3.713   7.410  2.1380 -0.9758 -1.4186
 1004MOL0     H38523  12.664   3.596   7.285 -1.9554 -0.9617  2.8454
 1004MOL0     H38524  12.452   3.798   7.355  2.7328  0.0488  1.9569
 1004MOL0     H38525  12.445   3.721   7.191 -1.5581 -0.8998  0.5038
 1004MOL0     H38526  12.445   3.564   7.443  2.0629  1.3334 -0.2462
 1004MOL0     H38527  12.449   3.516   7.267 -0.5455  0.1949 -1.7240
 1004MOL0     H38528  12.229   3.507   7.275  1.0547 -1.2064  2.1599
 1004MOL0     H38529  12.231   3.693   7.281  0.2637  0.3530  1.0872
 1004MOL0     H38530  12.221   3.498   7.518 -1.9750  1.1624  3.9104
 1004MOL0     H38531  12.087   3.597   7.470 -0.2561  1.3305  1.8424
 1004MOL0     H38532  13.140   4.035   7.020  0.6298  1.4148  0.1459
 1004MOL0     H38533  13.207   4.247   6.919 -0.6035  1.8868 -0.8788
 1004MOL0     H38534  13.080   4.390   6.680  0.0473 -1.4091 -0.7102
 1004MOL0     H38535  12.905   4.288   6.522 -2.5551 -1.2315  1.0681
 1004MOL0     H38536  11.128   4.442   7.138 -0.9235 -1.4167  2.5164
 1004MOL0     H38537  11.019   4.436   7.364  0.4606  0.5901  0.3653
 1004MOL0     H38538  10.664   4.691   7.617 -0.9921  1.2506  1.2134
 1004MOL0     H38539  10.538   4.718   7.802  2.6049  2.3798 -3.8517
 1004MOL0     H38540  10.356   4.329   7.978  0.8298  0.3397 -3.6706
 1004MOL0     H38541  10.261   4.451   8.056 -0.3656 -1.3415  0.2742
 1004MOL0     H38542  10.104   4.313   7.901  0.4072 -0.3453  0.1101
 1004MOL0     H38543  10.205   4.376   7.768  0.2722  0.6899 -0.2563
 1004MOL0     H38544  10.065   4.533   8.002  0.3457 -3.3168 -0.1813
 1004MOL0     H38545  10.133   4.605   7.848 -0.9694  0.7614 -0.9286
 1004MOL0     H38546   9.912   4.567   7.752  0.5562 -0.9441 -0.7856
 1004MOL0     H38547   9.892   4.581   7.920 -1.6069 -1.7456  0.1490
 1004MOL0     H38548   9.721   4.220   7.797 -0.3597  1.0283 -1.9498
 1004MOL0     H38549  10.408   4.297   7.746  1.6968 -1.5396  2.2943
 1004MOL0     H38550  10.613   4.195   7.539 -0.9254 -0.8724  0.8050
 1004MOL0     H38551  10.442   4.168   7.570 -0.7122  0.2670  0.6495
 1004MOL0     H38552  10.487   4.262   7.429 -2.2279  1.3255  0.4106
 1005MOL0     O38553   4.841   8.429   7.731 -0.1594 -0.0980  0.2210
 1005MOL0     C38554   4.847   8.470   7.847  0.1189 -0.2908  0.1631
 1005MOL0     O38555   4.803   8.599   7.889 -0.1450 -0.2827 -1.1386
 1005MOL0     C38556   4.706   8.649   7.811  0.3433  0.3390  0.0177
 1005MOL0     C38557   4.589   8.573   7.796  0.0095 -0.2162  0.3024
 1005MOL0     C38558   4.483   8.611   7.722  0.3419 -0.2066  0.0841
 1005MOL0     C38559   4.492   8.747   7.665 -1.0297  0.2218 -0.3481
 1005MOL0     O38560   4.397   8.803   7.572 -0.1554  0.0178  1.0222
 1005MOL0     C38561   4.282   8.733   7.536  0.0765  0.4202  0.1550
 1005MOL0     C38562   4.194   8.825   7.444 -0.8597 -1.1615  0.7809
 1005MOL0     C38563   4.069   8.746   7.425 -0.8963 -0.4100  0.3011
 1005MOL0     C38564   3.959   8.831   7.365 -0.3380 -0.6222  0.9603
 1005MOL0     C38565   3.987   8.853   7.213  0.3284  1.0948 -1.3273
 1005MOL0     C38566   3.883   8.953   7.165 -0.0457  0.0246 -0.2372
 1005MOL0     C38567   3.893   8.994   7.015  0.5981 -0.2207  0.5456
 1005MOL0     C38568   3.929   8.875   6.930  0.2179  0.4303 -0.4237
 1005MOL0     N38569   3.964   8.917   6.797 -0.0041  1.0919 -0.2620
 1005MOL0     C38570   3.878   8.940   6.698  0.5952  0.0179 -0.1046
 1005MOL0     C38571   3.934   8.926   6.581  0.9565 -0.4197  0.3096
 1005MOL0     C38572   3.849   8.935   6.451 -0.2651 -0.5291  0.6010
 1005MOL0     C38573   3.702   8.882   6.476 -0.7126  0.9713 -0.0070
 1005MOL0     C38574   3.622   8.891   6.338 -0.2801 -0.1226  0.3648
 1005MOL0     C38575   3.499   8.797   6.330  0.0859  0.3205  0.2122
 1005MOL0     O38576   3.422   8.832   6.440 -0.1812 -0.2319 -0.4034
 1005MOL0     C38577   3.319   8.754   6.475  0.4797  0.6011  0.1804
 1005MOL0     C38578   3.268   8.647   6.393  0.5427  0.4604 -0.5167
 1005MOL0     C38579   3.145   8.592   6.408  0.8128  0.7081 -0.7285
 1005MOL0     C38580   3.111   8.475   6.313 -0.1966 -0.1066 -0.0020
 1005MOL0     C38581   3.055   8.644   6.510  0.3365  0.1296  0.4559
 1005MOL0     C38582   2.912   8.609   6.526  0.1854  0.3337 -0.0229
 1005MOL0     O38583   2.840   8.706   6.580  0.4212  0.6854  0.3961
 1005MOL0     C38584   2.708   8.685   6.616  0.1750  0.2150  0.2692
 1005MOL0     C38585   2.630   8.564   6.637 -0.4009 -1.3827 -0.2616
 1005MOL0     C38586   2.492   8.568   6.664 -0.0353 -0.2004  0.1756
 1005MOL0     C38587   2.430   8.695   6.694 -0.0330  0.2662 -0.0109
 1005MOL0     O38588   2.297   8.709   6.741  0.5662  0.6041  0.8480
 1005MOL0     C38589   2.207   8.636   6.657  0.3262  0.3282 -0.3120
 1005MOL0     C38590   2.065   8.672   6.689 -0.4800 -0.4150 -0.5609
 1005MOL0     C38591   2.025   8.800   6.616 -0.4938 -0.0002  0.4433
 1005MOL0     C38592   1.888   8.853   6.659 -0.1212  0.8104  0.3340
 1005MOL0     C38593   1.761   8.790   6.590  0.9147  0.1457  0.8351
 1005MOL0     C38594   1.759   8.781   6.432 -0.6415  0.2404 -0.2329
 1005MOL0     C38595   1.744   8.921   6.374 -0.7909 -0.4267  0.7442
 1005MOL0     C38596   1.602   8.992   6.395 -0.5065  0.4335 -0.7448
 1005MOL0    Cl38597   1.591   9.140   6.294 -0.0595  0.2972 -0.2308
 1005MOL0     C38598   2.508   8.814   6.680  0.2571  0.3464  0.7490
 1005MOL0     C38599   2.647   8.803   6.636  0.3737 -0.1635  0.0464
 1005MOL0     O38600   2.871   8.495   6.503  0.6664  0.5112  0.5266
 1005MOL0     C38601   3.106   8.745   6.588 -0.8974 -0.3443 -0.4076
 1005MOL0     C38602   3.234   8.799   6.574 -0.1943  0.4303 -0.2706
 1005MOL0     N38603   4.067   8.906   6.606  0.2109 -0.5924  0.2170
 1005MOL0     N38604   4.087   8.893   6.735  0.2268 -0.2789  0.4614
 1005MOL0     C38605   4.599   8.817   7.682 -0.1850 -0.2456 -0.2417
 1005MOL0     C38606   4.711   8.773   7.758  1.3163 -1.1215 -0.1501
 1005MOL0     C38607   4.946   8.404   7.934  0.4842 -0.5351 -0.4012
 1005MOL0     C38608   5.031   8.485   8.008 -0.4438 -0.4298  0.3517
 1005MOL0     C38609   5.118   8.428   8.100 -0.0118 -0.6557 -0.6714
 1005MOL0     C38610   5.137   8.296   8.110 -0.1228  0.3145  0.3136
 1005MOL0     O38611   5.242   8.230   8.174 -0.1913 -0.2576 -0.5252
 1005MOL0     C38612   5.223   8.214   8.309  0.6210 -0.8227 -0.8198
 1005MOL0     C38613   5.334   8.130   8.369  0.6175 -0.9102 -0.4744
 1005MOL0     C38614   5.353   8.154   8.518  0.0557 -0.6043 -0.0027
 1005MOL0     C38615   5.469   8.069   8.576  0.2947  0.8596  0.1912
 1005MOL0     C38616   5.420   7.929   8.591 -0.3457  0.2946  0.1757
 1005MOL0     C38617   5.375   7.814   8.600 -0.5885  0.0551  0.2600
 1005MOL0     C38618   5.044   8.210   8.042  0.2383  0.0374  0.7692
 1005MOL0     C38619   4.945   8.262   7.951 -0.0644 -0.2527 -1.2957
 1005MOL0     C38620   4.825   8.181   7.887  0.3174 -0.1360  0.1574
 1005MOL0     H38621   4.584   8.478   7.847  2.3768  0.1827  1.4171
 1005MOL0     H38622   4.397   8.547   7.705  2.1829 -2.7731 -0.0367
 1005MOL0     H38623   4.221   8.718   7.626 -2.1045  0.0109 -1.3350
 1005MOL0     H38624   4.297   8.644   7.475 -1.5825  0.7531 -0.8055
 1005MOL0     H38625   4.176   8.914   7.506  1.0328  2.0212 -2.7867
 1005MOL0     H38626   4.246   8.860   7.354  0.0430 -0.1315  1.6709
 1005MOL0     H38627   4.093   8.664   7.356  2.6253  2.6803 -2.5772
 1005MOL0     H38628   4.029   8.710   7.520  1.5695 -1.5692  0.9775
 1005MOL0     H38629   3.863   8.785   7.390  0.5259 -1.8311  2.1951
 1005MOL0     H38630   3.963   8.934   7.402  1.1006  0.3858 -1.7065
 1005MOL0     H38631   3.967   8.761   7.159  0.2155  1.8807 -2.6749
 1005MOL0     H38632   4.091   8.879   7.192  0.2643  0.8537 -1.9667
 1005MOL0     H38633   3.785   8.911   7.188 -0.6224  1.9482  1.1246
 1005MOL0     H38634   3.892   9.043   7.227 -2.8099  0.5926 -0.5183
 1005MOL0     H38635   3.969   9.071   6.998 -1.1915  1.5606  0.2478
 1005MOL0     H38636   3.799   9.039   6.982  1.5508  4.9962  3.8664
 1005MOL0     H38637   4.017   8.828   6.974 -0.7221  0.1641  1.2279
 1005MOL0     H38638   3.848   8.801   6.928 -0.9856  1.7100 -0.1768
 1005MOL0     H38639   3.771   8.936   6.714  0.5817 -0.1974 -0.2487
 1005MOL0     H38640   3.899   8.869   6.380  0.5080 -2.2906  2.6614
 1005MOL0     H38641   3.828   9.035   6.413  3.9483  0.0024 -0.7500
 1005MOL0     H38642   3.700   8.784   6.523 -0.4800  0.4253 -1.1032
 1005MOL0     H38643   3.641   8.944   6.542 -1.2386  0.1564  0.2791
 1005MOL0     H38644   3.585   8.992   6.319  0.5380 -0.3825 -3.3260
 1005MOL0     H38645   3.681   8.871   6.248 -0.0971 -1.2667  0.7227
 1005MOL0     H38646   3.436   8.803   6.240  0.1552  1.2790  0.2218
 1005MOL0     H38647   3.533   8.694   6.347 -1.0673  0.0524  0.9697
 1005MOL0     H38648   3.336   8.614   6.315  2.1664  0.2848  0.9130
 1005MOL0     H38649   3.191   8.455   6.241  0.7445 -0.1595  1.0344
 1005MOL0     H38650   3.012   8.500   6.273 -0.1226  0.5969  0.2252
 1005MOL0     H38651   3.098   8.391   6.382  0.1691  0.2941  0.5675
 1005MOL0     H38652   2.676   8.470   6.608 -1.2092 -2.0265  0.4829
 1005MOL0     H38653   2.444   8.472   6.679  0.5688 -0.6969 -0.9102
 1005MOL0     H38654   2.232   8.654   6.552 -2.5462 -1.1619 -1.3643
 1005MOL0     H38655   2.222   8.531   6.681  1.0099  0.4905  0.0061
 1005MOL0     H38656   2.007   8.589   6.646  2.1737 -0.7138 -3.9792
 1005MOL0     H38657   2.056   8.678   6.798  0.0681 -0.0749 -0.5339
 1005MOL0     H38658   2.023   8.784   6.508  1.8320  0.4529  0.2713
 1005MOL0     H38659   2.098   8.878   6.640  1.0407 -1.0738 -0.5094
 1005MOL0     H38660   1.891   8.960   6.637  0.2184  0.7428  0.0401
 1005MOL0     H38661   1.869   8.841   6.767  2.1108 -0.8440  0.6104
 1005MOL0     H38662   1.756   8.688   6.630 -2.9903  0.4801  1.6057
 1005MOL0     H38663   1.671   8.840   6.628  1.7146  0.6710  2.0561
 1005MOL0     H38664   1.669   8.723   6.410  0.1018 -0.7406 -0.7360
 1005MOL0     H38665   1.851   8.732   6.399  0.6654  1.8833  0.7949
 1005MOL0     H38666   1.761   8.914   6.267 -0.8638  0.4075  0.6657
 1005MOL0     H38667   1.820   8.993   6.407  0.1841 -0.0858 -1.9918
 1005MOL0     H38668   1.603   9.027   6.499  0.6173  2.2520 -1.3329
 1005MOL0     H38669   1.520   8.919   6.389  1.0163 -1.4540  0.1956
 1005MOL0     H38670   2.470   8.912   6.706 -1.6959 -0.4822  1.2191
 1005MOL0     H38671   2.706   8.893   6.636  1.9339 -1.1297 -0.9747
 1005MOL0     H38672   3.049   8.803   6.661  1.5284 -0.4542  1.7166
 1005MOL0     H38673   3.275   8.879   6.634  2.5742 -1.4502  0.4870
 1005MOL0     H38674   4.612   8.912   7.632  0.0772 -0.2936 -0.2697
 1005MOL0     H38675   4.794   8.840   7.778  0.9467 -1.5051  3.1052
 1005MOL0     H38676   5.033   8.593   8.017 -0.6291 -0.0359 -3.1142
 1005MOL0     H38677   5.181   8.496   8.155  1.7908 -0.9718 -2.2341
 1005MOL0     H38678   5.227   8.315   8.351 -1.7319 -0.6487 -0.8627
 1005MOL0     H38679   5.125   8.171   8.332  1.6732 -2.0518  1.7374
 1005MOL0     H38680   5.436   8.136   8.329  1.4273 -2.8115  1.1703
 1005MOL0     H38681   5.300   8.027   8.357  4.0251 -1.9883 -2.1192
 1005MOL0     H38682   5.366   8.260   8.541 -5.7055  0.3257  0.4151
 1005MOL0     H38683   5.264   8.125   8.576 -0.5561  4.0361  1.8044
 1005MOL0     H38684   5.496   8.107   8.675 -0.5828  2.4981 -0.1572
 1005MOL0     H38685   5.557   8.082   8.512 -1.6548  0.9391 -2.6595
 1005MOL0     H38686   5.331   7.716   8.597 -0.6266 -0.0332  2.2950
 1005MOL0     H38687   5.064   8.103   8.050 -0.5995 -0.5725 -3.1524
 1005MOL0     H38688   4.817   8.086   7.939 -0.4134  1.1341  2.4930
 1005MOL0     H38689   4.733   8.237   7.903 -0.4514 -1.7861  1.8278
 1005MOL0     H38690   4.840   8.164   7.779  1.1101  0.3370  0.1828
 1006MOL0     O38691   3.716   3.174   2.500 -0.2065 -0.4060 -0.3790
 1006MOL0     C38692   3.651   3.076   2.469 -0.6281  1.0049  0.0103
 1006MOL0     O38693   3.696   2.989   2.381 -0.7485 -0.3555 -0.0421
 1006MOL0     C38694   3.821   3.014   2.328 -0.3878  0.1269 -0.1163
 1006MOL0     C38695   3.935   3.015   2.401 -1.1708 -1.1453 -0.2835
 1006MOL0     C38696   4.062   3.040   2.352 -0.5796 -0.5574  0.1840
 1006MOL0     C38697   4.087   3.036   2.218 -0.0142 -0.6243 -0.2397
 1006MOL0     O38698   4.212   3.059   2.179 -0.8703  0.4522 -0.6423
 1006MOL0     C38699   4.240   3.069   2.036  0.0626  0.6523  0.6405
 1006MOL0     C38700   4.212   3.202   1.972  0.1018 -0.0094  0.7266
 1006MOL0     C38701   4.281   3.235   1.838 -0.0662 -0.0460 -0.1222
 1006MOL0     C38702   4.243   3.379   1.801 -0.2563 -0.1579  0.0552
 1006MOL0     C38703   4.297   3.409   1.660 -0.6970 -0.4248  0.9245
 1006MOL0     C38704   4.462   3.403   1.639  0.0916  0.7052  0.2798
 1006MOL0     C38705   4.549   3.490   1.730 -0.0478 -0.5068 -0.0490
 1006MOL0     C38706   4.647   3.575   1.646 -0.3303  0.0342  0.0571
 1006MOL0     N38707   4.761   3.619   1.728 -0.0369  0.2233 -0.0690
 1006MOL0     C38708   4.781   3.730   1.814 -0.3980  0.3059  0.2702
 1006MOL0     C38709   4.906   3.726   1.855  0.5726  0.5375  0.0059
 1006MOL0     C38710   4.967   3.827   1.944  1.7210  0.4197  0.1576
 1006MOL0     C38711   5.096   3.868   1.876  0.4846 -0.6113 -0.0363
 1006MOL0     C38712   5.082   3.963   1.755  0.3767 -0.1293 -0.3853
 1006MOL0     C38713   5.217   3.990   1.690 -1.0070  0.1431 -0.1656
 1006MOL0     O38714   5.283   4.106   1.742 -0.0790 -0.2977  0.1528
 1006MOL0     C38715   5.349   4.193   1.661 -0.3507 -0.7980  0.5115
 1006MOL0     C38716   5.288   4.317   1.620 -0.1141  0.2219  0.5182
 1006MOL0     C38717   5.360   4.407   1.541 -0.3598  0.3868 -0.2745
 1006MOL0     C38718   5.293   4.538   1.504  0.2726  0.2974 -0.0131
 1006MOL0     C38719   5.496   4.378   1.507  0.1723 -1.5701  0.1458
 1006MOL0     C38720   5.591   4.478   1.446  0.4361  1.2629 -0.6737
 1006MOL0     O38721   5.725   4.438   1.448  0.1992 -0.4039 -0.4661
 1006MOL0     C38722   5.819   4.533   1.416 -0.3859  0.5252  0.1695
 1006MOL0     C38723   5.920   4.513   1.319  0.2260  0.4251 -0.7592
 1006MOL0     C38724   6.003   4.612   1.279  1.1214  0.0558  0.4045
 1006MOL0     C38725   6.001   4.737   1.343 -0.1679  0.5356 -0.8922
 1006MOL0     O38726   6.101   4.815   1.294 -0.7070  0.1969  0.3111
 1006MOL0     C38727   6.086   4.950   1.332 -0.1270  0.0372 -0.2263
 1006MOL0     C38728   6.171   5.037   1.232 -0.5885  1.3153 -0.1493
 1006MOL0     C38729   6.323   5.032   1.262  0.4041  0.8498  0.4255
 1006MOL0     C38730   6.378   5.139   1.354  0.4907 -0.5487 -0.4953
 1006MOL0     C38731   6.528   5.134   1.359 -0.8275  0.3449  0.3289
 1006MOL0     C38732   6.602   5.235   1.444  0.3642  0.2327 -0.4273
 1006MOL0     C38733   6.545   5.249   1.593 -0.3216 -0.7113 -0.3533
 1006MOL0     C38734   6.635   5.338   1.689  0.1173 -0.1704  0.6088
 1006MOL0    Cl38735   6.715   5.248   1.818  0.0227  0.2757  0.1485
 1006MOL0     C38736   5.908   4.764   1.444 -0.1526  0.3984  0.2153
 1006MOL0     C38737   5.827   4.653   1.477  0.2258 -0.5574 -0.6092
 1006MOL0     O38738   5.546   4.583   1.398  0.1817  0.2684 -0.5504
 1006MOL0     C38739   5.548   4.263   1.542  0.8426  0.7423 -0.2157
 1006MOL0     C38740   5.479   4.168   1.616  1.4388  0.1965 -0.4243
 1006MOL0     N38741   4.960   3.615   1.798  0.8344 -1.3880 -0.2590
 1006MOL0     N38742   4.877   3.555   1.720  0.0712 -0.1825 -0.6114
 1006MOL0     C38743   3.972   3.013   2.132  0.3509  0.4163  0.2279
 1006MOL0     C38744   3.846   3.006   2.189  0.4631 -0.4580  0.2973
 1006MOL0     C38745   3.511   3.054   2.524 -1.0051 -0.2358 -0.1697
 1006MOL0     C38746   3.460   2.924   2.526 -0.9595  0.0403 -0.0823
 1006MOL0     C38747   3.328   2.890   2.562  0.0090 -0.0396 -0.8282
 1006MOL0     C38748   3.240   2.990   2.599  0.3276 -0.7194 -0.5383
 1006MOL0     O38749   3.111   2.953   2.631  0.0911  0.3555  0.4180
 1006MOL0     C38750   3.015   3.042   2.676 -0.4623 -0.5417  0.6014
 1006MOL0     C38751   2.898   2.950   2.719 -0.1570 -1.0297  0.3844
 1006MOL0     C38752   2.770   3.018   2.691  1.1582  0.5749 -0.1557
 1006MOL0     C38753   2.701   2.975   2.556  0.1094  0.4377 -0.2382
 1006MOL0     C38754   2.778   3.035   2.442  0.0238 -0.1814 -0.4215
 1006MOL0     C38755   2.824   3.089   2.343 -0.7208  0.0153  0.2020
 1006MOL0     C38756   3.288   3.117   2.609 -0.3289  0.0672  0.4652
 1006MOL0     C38757   3.415   3.154   2.564  0.4628  0.8075  0.4103
 1006MOL0     C38758   3.446   3.303   2.583  0.0442  0.0245 -0.2062
 1006MOL0     H38759   3.917   2.996   2.507 -2.0504  0.0767 -0.1940
 1006MOL0     H38760   4.140   3.053   2.425 -2.3975 -1.6726  2.4734
 1006MOL0     H38761   4.180   2.997   1.980  0.0929  1.1236 -0.0032
 1006MOL0     H38762   4.344   3.040   2.018 -0.7109 -1.0209 -1.4807
 1006MOL0     H38763   4.103   3.203   1.960  0.1777  0.7617  0.0460
 1006MOL0     H38764   4.242   3.287   2.034  2.2012  0.9698 -1.4763
 1006MOL0     H38765   4.390   3.232   1.844 -0.0973  0.4472  0.8683
 1006MOL0     H38766   4.244   3.155   1.773 -1.1547 -0.2508  0.7016
 1006MOL0     H38767   4.136   3.399   1.809 -0.2358 -0.3748  0.9071
 1006MOL0     H38768   4.290   3.454   1.866  0.9655  1.3341 -2.3754
 1006MOL0     H38769   4.253   3.503   1.628 -0.7442  0.0090  2.2188
 1006MOL0     H38770   4.259   3.330   1.594  1.0724 -1.2522  0.8277
 1006MOL0     H38771   4.500   3.302   1.651 -0.3476  0.4529 -0.4093
 1006MOL0     H38772   4.469   3.437   1.535 -2.2273  0.2743 -0.0718
 1006MOL0     H38773   4.606   3.421   1.793 -0.7176  0.4082  1.6346
 1006MOL0     H38774   4.487   3.557   1.790  1.5320  0.0593  1.0121
 1006MOL0     H38775   4.686   3.522   1.558  0.6934  2.0245 -0.7357
 1006MOL0     H38776   4.582   3.655   1.609  0.4729  1.0941  0.8775
 1006MOL0     H38777   4.715   3.809   1.849 -1.0130  0.2355 -0.6967
 1006MOL0     H38778   4.991   3.758   2.026  1.9218 -0.2974 -0.4994
 1006MOL0     H38779   4.903   3.910   1.976  0.1159 -1.4919  2.2364
 1006MOL0     H38780   5.158   3.922   1.948  2.0423  1.4306 -2.7256
 1006MOL0     H38781   5.150   3.775   1.853  1.5980  0.2035 -0.8195
 1006MOL0     H38782   5.018   3.903   1.689 -1.3783  1.3552 -0.1204
 1006MOL0     H38783   5.024   4.052   1.781  0.0093 -0.7342  0.9426
 1006MOL0     H38784   5.290   3.908   1.699 -0.6800  0.0513 -2.9361
 1006MOL0     H38785   5.198   4.000   1.583 -0.7301 -0.1895 -0.2490
 1006MOL0     H38786   5.190   4.352   1.653  0.2024  0.7911  0.8669
 1006MOL0     H38787   5.346   4.620   1.553  0.9598 -0.3121  0.2855
 1006MOL0     H38788   5.186   4.543   1.530  0.3979 -0.7416  0.8366
 1006MOL0     H38789   5.291   4.557   1.397 -3.0518  0.6819  0.0075
 1006MOL0     H38790   5.900   4.425   1.258 -1.2932  1.1192 -1.3125
 1006MOL0     H38791   6.073   4.598   1.197  1.1242  0.4756  0.3341
 1006MOL0     H38792   5.985   4.991   1.331 -1.0305 -1.9875 -2.5678
 1006MOL0     H38793   6.122   4.974   1.433 -0.6993 -0.1992  0.0328
 1006MOL0     H38794   6.138   5.002   1.134 -1.3228 -0.0657  0.5591
 1006MOL0     H38795   6.137   5.140   1.248  0.1462  1.5143  0.2312
 1006MOL0     H38796   6.363   5.042   1.160  0.3706 -3.1867 -0.1651
 1006MOL0     H38797   6.352   4.932   1.297  2.6397  1.8156  1.5499
 1006MOL0     H38798   6.334   5.114   1.450  0.3290 -0.5329 -0.5644
 1006MOL0     H38799   6.344   5.239   1.326 -1.4037 -0.9972  0.0910
 1006MOL0     H38800   6.563   5.039   1.400  1.7853  0.5818 -1.1112
 1006MOL0     H38801   6.577   5.145   1.262  0.1676 -0.9275  0.6664
 1006MOL0     H38802   6.588   5.331   1.395 -0.7231  0.4567  0.2824
 1006MOL0     H38803   6.707   5.208   1.457 -0.1386 -0.8023  2.0785
 1006MOL0     H38804   6.538   5.144   1.623 -3.4883 -0.0834  1.5369
 1006MOL0     H38805   6.447   5.298   1.587 -0.0140 -0.2707 -3.1831
 1006MOL0     H38806   6.575   5.419   1.733  0.5164 -0.6147  2.0192
 1006MOL0     H38807   6.721   5.379   1.634 -0.1344 -1.1453 -0.5481
 1006MOL0     H38808   5.900   4.860   1.494 -1.2005  0.2992  0.2738
 1006MOL0     H38809   5.748   4.670   1.550  1.3041  0.7309  0.3204
 1006MOL0     H38810   5.647   4.225   1.520  0.1731 -3.1232  2.4840
 1006MOL0     H38811   5.532   4.078   1.647  2.6445  1.7213  2.3901
 1006MOL0     H38812   3.989   3.012   2.025  3.6688  0.4639  0.6383
 1006MOL0     H38813   3.756   2.994   2.131 -0.4019  3.8500  0.3896
 1006MOL0     H38814   3.533   2.847   2.502 -1.6542 -0.7781  0.3377
 1006MOL0     H38815   3.292   2.789   2.545 -2.2129  0.7371 -1.1023
 1006MOL0     H38816   3.053   3.103   2.759  2.7582 -0.0508 -1.0685
 1006MOL0     H38817   2.979   3.103   2.592  0.0156  0.6707  1.2441
 1006MOL0     H38818   2.902   2.907   2.819  0.1850 -1.2786  0.2695
 1006MOL0     H38819   2.906   2.867   2.647  3.0620 -0.9487  0.5118
 1006MOL0     H38820   2.697   3.002   2.771  3.6071 -2.8342  1.6251
 1006MOL0     H38821   2.784   3.126   2.680 -0.3274  0.9905  1.5609
 1006MOL0     H38822   2.600   3.016   2.550 -0.3083  0.0371  2.6454
 1006MOL0     H38823   2.700   2.866   2.547 -0.7971  0.2560  1.5667
 1006MOL0     H38824   2.854   3.142   2.254 -1.6950 -1.3757 -0.9986
 1006MOL0     H38825   3.233   3.208   2.633  0.8539  0.1008  3.5805
 1006MOL0     H38826   3.388   3.352   2.661  0.5065 -0.0610  0.1995
 1006MOL0     H38827   3.549   3.317   2.619 -0.3907 -0.3621  1.2606
 1006MOL0     H38828   3.426   3.367   2.497 -0.6982 -0.5911 -0.4977
 1007MOL0     O38829   0.750   5.308   4.178  0.3688  0.2914 -0.6982
 1007MOL0     C38830   0.857   5.363   4.144 -0.1272  0.7682  0.0487
 1007MOL0     O38831   0.935   5.420   4.241 -0.6970  0.6107 -0.3601
 1007MOL0     C38832   0.984   5.548   4.210 -0.2029 -0.5686  0.6383
 1007MOL0     C38833   0.907   5.662   4.173 -0.3288 -1.0402 -0.4088
 1007MOL0     C38834   0.965   5.782   4.138  0.3956  0.0854 -0.3393
 1007MOL0     C38835   1.101   5.794   4.135 -0.0548  0.2945 -0.4470
 1007MOL0     O38836   1.170   5.905   4.101 -0.3824 -0.5503  0.3837
 1007MOL0     C38837   1.149   6.019   4.183 -0.1444  0.4454 -0.1109
 1007MOL0     C38838   1.091   6.145   4.117 -0.9275 -0.2763  0.4142
 1007MOL0     C38839   1.177   6.189   4.002 -0.3886  0.1553  0.7814
 1007MOL0     C38840   1.099   6.209   3.869  0.4275 -0.0619 -0.6406
 1007MOL0     C38841   1.065   6.083   3.789 -0.5352  0.0871 -0.3521
 1007MOL0     C38842   0.972   6.119   3.670 -0.0727  0.2031 -0.8847
 1007MOL0     C38843   1.035   6.210   3.571  0.0315 -0.7505 -0.1363
 1007MOL0     C38844   0.938   6.198   3.456  0.8015 -1.1037 -0.3081
 1007MOL0     N38845   0.992   6.264   3.334  0.1973  0.6109 -0.6756
 1007MOL0     C38846   1.084   6.363   3.332  0.0443 -0.8388 -0.2694
 1007MOL0     C38847   1.132   6.372   3.206  0.2928  0.0920  0.1798
 1007MOL0     C38848   1.213   6.485   3.151 -0.5679 -1.0147  0.1314
 1007MOL0     C38849   1.338   6.511   3.241 -1.2423 -0.4506  0.5817
 1007MOL0     C38850   1.406   6.640   3.187 -0.6355  0.0666 -0.5098
 1007MOL0     C38851   1.522   6.695   3.266 -0.4421  0.0237 -0.7324
 1007MOL0     O38852   1.619   6.590   3.256  0.2792  0.2984  0.1786
 1007MOL0     C38853   1.754   6.613   3.292 -0.1150  0.2595 -0.2511
 1007MOL0     C38854   1.808   6.739   3.332  0.1697 -0.1706  0.3093
 1007MOL0     C38855   1.945   6.752   3.375  0.0281 -0.2590 -0.8166
 1007MOL0     C38856   1.996   6.884   3.445 -0.2194 -0.2288  0.7990
 1007MOL0     C38857   2.032   6.650   3.350  0.0354  0.3077 -0.3000
 1007MOL0     C38858   2.177   6.642   3.395 -0.2695  0.9742 -0.0020
 1007MOL0     O38859   2.226   6.740   3.459 -0.3112  0.0475  0.3986
 1007MOL0     C38860   2.358   6.753   3.478  0.1679  0.4498  0.1425
 1007MOL0     C38861   2.412   6.872   3.432 -0.1239 -0.3691  0.4777
 1007MOL0     C38862   2.553   6.890   3.451 -0.4455 -0.3577  0.2580
 1007MOL0     C38863   2.623   6.790   3.514 -0.2527 -0.5346 -0.8200
 1007MOL0     O38864   2.752   6.819   3.534 -0.2086 -0.4493 -0.2276
 1007MOL0     C38865   2.850   6.709   3.537  1.3335  0.2297  0.0330
 1007MOL0     C38866   2.988   6.773   3.514 -0.3757  0.9614  0.6149
 1007MOL0     C38867   2.987   6.873   3.391  0.5360  0.2445 -0.2296
 1007MOL0     C38868   3.136   6.888   3.350 -0.4330 -0.3990  0.0602
 1007MOL0     C38869   3.157   7.001   3.245 -1.0254 -0.5920  0.2351
 1007MOL0     C38870   3.124   7.146   3.291 -0.2617  1.0466 -0.3050
 1007MOL0     C38871   3.169   7.247   3.193 -0.3179  0.9753 -1.1192
 1007MOL0     C38872   3.164   7.387   3.258  0.1391 -0.6911 -0.3622
 1007MOL0    Cl38873   3.282   7.390   3.388  0.1644 -0.2794 -0.6059
 1007MOL0     C38874   2.564   6.673   3.563 -0.1605 -0.3688  0.2828
 1007MOL0     C38875   2.428   6.651   3.542  0.4409  0.0356  0.7154
 1007MOL0     O38876   2.241   6.553   3.346  0.3823  0.3316  0.8090
 1007MOL0     C38877   1.977   6.534   3.285  0.1759 -0.1588 -0.0036
 1007MOL0     C38878   1.843   6.516   3.250 -0.2254  0.6293 -0.5295
 1007MOL0     N38879   1.075   6.271   3.137 -0.2986 -0.1662  0.7581
 1007MOL0     N38880   0.996   6.204   3.208  0.7321  0.8867 -0.6137
 1007MOL0     C38881   1.178   5.681   4.167 -0.3008 -0.0942 -0.8731
 1007MOL0     C38882   1.124   5.560   4.203 -0.0543 -0.0051 -0.7705
 1007MOL0     C38883   0.888   5.373   3.999 -0.1665  1.2864 -0.2539
 1007MOL0     C38884   0.788   5.426   3.907  0.0936 -0.8503  0.7587
 1007MOL0     C38885   0.811   5.448   3.771 -0.7371  0.2506  0.5278
 1007MOL0     C38886   0.933   5.404   3.712  0.4853  0.2133  0.2917
 1007MOL0     O38887   0.964   5.420   3.579  0.5961 -0.5959 -0.3744
 1007MOL0     C38888   0.864   5.400   3.478  0.0710  0.3519  0.0468
 1007MOL0     C38889   0.893   5.256   3.436 -0.1469 -0.7975 -0.2823
 1007MOL0     C38890   0.818   5.153   3.507  0.2772  0.3205  0.8184
 1007MOL0     C38891   0.896   5.052   3.589 -0.0225 -0.8243 -0.1231
 1007MOL0     C38892   0.952   4.966   3.490 -0.3625  0.3522  0.0337
 1007MOL0     C38893   1.003   4.873   3.426 -0.3142  0.6858 -0.2615
 1007MOL0     C38894   1.021   5.336   3.799 -0.4464  0.2594 -0.2340
 1007MOL0     C38895   1.000   5.318   3.939  0.0212 -0.2453 -0.3355
 1007MOL0     C38896   1.085   5.221   4.021 -1.1950 -0.5412 -0.2147
 1007MOL0     H38897   0.800   5.647   4.158 -1.5979  2.9736  2.8968
 1007MOL0     H38898   0.899   5.867   4.122 -1.0699 -1.0640 -0.6686
 1007MOL0     H38899   1.241   6.052   4.232 -2.4245  0.9115  4.3409
 1007MOL0     H38900   1.078   5.993   4.262  1.2223  2.0534  1.7623
 1007MOL0     H38901   0.990   6.116   4.085 -0.0982 -2.4317 -0.4968
 1007MOL0     H38902   1.091   6.229   4.186  2.8127 -1.0052  1.5308
 1007MOL0     H38903   1.208   6.290   4.030 -2.5492  0.2472  3.3489
 1007MOL0     H38904   1.266   6.125   3.998 -0.9311 -1.0470  4.2555
 1007MOL0     H38905   1.008   6.268   3.884 -0.3864 -1.4862  0.1734
 1007MOL0     H38906   1.157   6.267   3.796  3.0015 -0.4762  0.9563
 1007MOL0     H38907   1.027   5.997   3.845 -3.3964 -1.2730 -3.9584
 1007MOL0     H38908   1.148   6.030   3.742 -1.6530 -2.1482  0.0504
 1007MOL0     H38909   0.947   6.022   3.626 -3.6116 -0.7318  2.6267
 1007MOL0     H38910   0.875   6.152   3.708 -0.4847 -0.2766 -1.5032
 1007MOL0     H38911   1.135   6.184   3.534  1.5531  2.3706  1.3995
 1007MOL0     H38912   1.039   6.312   3.611  0.1603 -0.2854 -1.2864
 1007MOL0     H38913   0.919   6.093   3.429 -1.7782 -1.2570  1.7596
 1007MOL0     H38914   0.847   6.250   3.485  1.4843  1.0410 -1.7906
 1007MOL0     H38915   1.103   6.438   3.408 -1.9631 -0.2082 -0.3250
 1007MOL0     H38916   1.157   6.578   3.160  0.2869 -0.6643  2.5667
 1007MOL0     H38917   1.239   6.471   3.045 -0.4505 -1.6415  0.2390
 1007MOL0     H38918   1.316   6.514   3.348  1.1663 -1.0146  1.1591
 1007MOL0     H38919   1.413   6.435   3.216  1.6701  2.2879  0.3853
 1007MOL0     H38920   1.436   6.621   3.083 -0.5597 -2.6207 -0.0647
 1007MOL0     H38921   1.339   6.727   3.179  0.0361  0.9584  2.3908
 1007MOL0     H38922   1.561   6.786   3.218  2.4859  0.9013  2.8149
 1007MOL0     H38923   1.497   6.712   3.372  2.3767 -2.2622  0.4457
 1007MOL0     H38924   1.742   6.825   3.334 -1.0871 -1.0229 -1.4515
 1007MOL0     H38925   2.087   6.917   3.395  0.4883 -1.1261  1.4627
 1007MOL0     H38926   2.018   6.869   3.551  0.9892  1.5285  0.8253
 1007MOL0     H38927   1.923   6.965   3.436 -0.9463 -1.0979 -2.3320
 1007MOL0     H38928   2.361   6.948   3.374  1.7977 -0.7241 -1.8388
 1007MOL0     H38929   2.608   6.978   3.423  0.9313 -1.6940 -1.4626
 1007MOL0     H38930   2.839   6.652   3.629 -0.6835 -1.8983 -1.4019
 1007MOL0     H38931   2.826   6.641   3.455 -3.9172  0.8632  0.6435
 1007MOL0     H38932   3.020   6.833   3.599  0.0751  2.9005 -0.8348
 1007MOL0     H38933   3.067   6.698   3.503  1.7348  3.0586  0.7213
 1007MOL0     H38934   2.952   6.968   3.434 -0.0335  0.5987 -1.4196
 1007MOL0     H38935   2.918   6.843   3.311  0.0796 -0.9820  0.5972
 1007MOL0     H38936   3.181   6.796   3.314 -0.5451 -0.1323 -0.7752
 1007MOL0     H38937   3.199   6.904   3.438  0.0894 -1.3511 -0.1346
 1007MOL0     H38938   3.261   6.997   3.212  0.3547 -2.6294  4.2015
 1007MOL0     H38939   3.099   6.989   3.153 -2.6043  1.5925  0.8471
 1007MOL0     H38940   3.172   7.169   3.386 -0.0517 -0.6564  0.0412
 1007MOL0     H38941   3.015   7.147   3.305 -0.6375 -1.4390 -2.3117
 1007MOL0     H38942   3.109   7.229   3.104  0.5846  0.8358 -1.7069
 1007MOL0     H38943   3.272   7.227   3.163 -1.3407 -1.2627 -3.5799
 1007MOL0     H38944   3.059   7.406   3.281 -0.3674 -2.2488 -1.2387
 1007MOL0     H38945   3.190   7.459   3.179 -0.6335 -0.8547 -0.7786
 1007MOL0     H38946   2.626   6.595   3.606  0.2787  0.6827  1.6470
 1007MOL0     H38947   2.385   6.556   3.573  1.5856 -1.6554 -2.4073
 1007MOL0     H38948   2.040   6.446   3.276 -2.2589 -2.1589  1.2555
 1007MOL0     H38949   1.799   6.426   3.209  1.8093 -1.5250  1.7311
 1007MOL0     H38950   1.286   5.691   4.166 -0.2087 -0.1864  1.4826
 1007MOL0     H38951   1.177   5.476   4.246 -2.0600 -0.6444  0.6040
 1007MOL0     H38952   0.701   5.476   3.949  1.5511  1.2599  1.4882
 1007MOL0     H38953   0.746   5.510   3.710 -1.3812  0.8579  1.7766
 1007MOL0     H38954   0.762   5.411   3.515  0.3185 -0.0894  0.8638
 1007MOL0     H38955   0.872   5.459   3.386  0.5271 -2.1098 -1.5961
 1007MOL0     H38956   0.999   5.232   3.449  0.0092  1.1446  3.1638
 1007MOL0     H38957   0.867   5.242   3.331 -2.0213  0.1809  0.0123
 1007MOL0     H38958   0.752   5.202   3.580 -0.1100 -0.2354  0.8479
 1007MOL0     H38959   0.761   5.094   3.435  2.9359 -0.6417 -0.5978
 1007MOL0     H38960   0.825   4.997   3.652 -1.5027  0.2481 -0.8068
 1007MOL0     H38961   0.971   5.098   3.654  0.2082  1.7927 -2.0731
 1007MOL0     H38962   1.076   4.800   3.399  0.0387  0.5883  0.9354
 1007MOL0     H38963   1.109   5.291   3.753  2.4153  0.7815  4.0794
 1007MOL0     H38964   1.146   5.273   4.095  0.3816 -2.1568 -0.2982
 1007MOL0     H38965   1.040   5.136   4.073  1.1500 -0.6469  1.8018
 1007MOL0     H38966   1.155   5.179   3.947 -0.2893  3.2548 -1.7665
 1008MOL0     O38967   1.829   8.523   6.843 -0.6631 -0.6607  0.2289
 1008MOL0     C38968   1.772   8.447   6.923 -0.6546 -0.3983  0.0676
 1008MOL0     O38969   1.822   8.413   7.049  0.0427 -0.2058  0.4115
 1008MOL0     C38970   1.940   8.472   7.086 -0.5600 -0.1472  0.4558
 1008MOL0     C38971   2.060   8.442   7.017 -0.3908  0.5211  1.0059
 1008MOL0     C38972   2.176   8.494   7.050 -0.6832  0.5769  0.5607
 1008MOL0     C38973   2.183   8.569   7.175 -0.9593  0.7999  0.3147
 1008MOL0     O38974   2.294   8.634   7.222  0.9694 -0.6201  0.4628
 1008MOL0     C38975   2.400   8.670   7.132 -1.0983 -0.2080 -0.3053
 1008MOL0     C38976   2.536   8.603   7.151 -0.0329 -0.3074 -0.2713
 1008MOL0     C38977   2.633   8.636   7.034 -0.2128 -0.2385  0.2806
 1008MOL0     C38978   2.783   8.611   7.064  0.2269  0.2617 -0.9408
 1008MOL0     C38979   2.871   8.619   6.932 -0.5396 -0.6668 -0.1713
 1008MOL0     C38980   3.026   8.614   6.956  0.2791  0.2456 -0.3613
 1008MOL0     C38981   3.079   8.729   7.043 -1.3486 -0.5301 -0.0208
 1008MOL0     C38982   3.229   8.730   7.019  0.0361 -1.0575 -0.5917
 1008MOL0     N38983   3.298   8.622   7.072 -0.3940  0.6147  0.4447
 1008MOL0     C38984   3.301   8.597   7.205 -0.1573 -0.0689 -0.1363
 1008MOL0     C38985   3.362   8.477   7.210  0.2092  0.6069 -0.7165
 1008MOL0     C38986   3.375   8.395   7.337 -0.2142 -0.0446 -0.8911
 1008MOL0     C38987   3.495   8.452   7.405  0.2644 -0.6524 -0.8615
 1008MOL0     C38988   3.537   8.358   7.525  0.3732  0.4922  0.1977
 1008MOL0     C38989   3.663   8.408   7.590 -0.3709  0.5385 -0.0625
 1008MOL0     O38990   3.678   8.352   7.727  0.5694 -0.1030  0.1166
 1008MOL0     C38991   3.808   8.328   7.764  0.0074 -0.2479  1.1834
 1008MOL0     C38992   3.837   8.197   7.814  0.2157 -1.5941 -0.3627
 1008MOL0     C38993   3.966   8.150   7.834  0.7865  0.7720 -0.4250
 1008MOL0     C38994   3.972   8.011   7.898  0.9180  0.6365 -0.3098
 1008MOL0     C38995   4.071   8.236   7.812 -0.0729  0.1772 -0.0668
 1008MOL0     C38996   4.219   8.198   7.826  0.4319  0.5021 -0.5982
 1008MOL0     O38997   4.241   8.062   7.851 -0.3939  0.0982 -0.1069
 1008MOL0     C38998   4.365   8.009   7.839 -0.2843  0.3143 -0.7966
 1008MOL0     C38999   4.397   7.905   7.921 -0.2734  0.6237 -0.4261
 1008MOL0     C39000   4.512   7.828   7.893  0.2308  0.8326 -0.0778
 1008MOL0     C39001   4.610   7.848   7.793  1.7473 -0.5591  0.0956
 1008MOL0     O39002   4.718   7.763   7.780 -0.0514 -0.0669 -0.9274
 1008MOL0     C39003   4.813   7.802   7.673  0.1206  0.5771 -0.0789
 1008MOL0     C39004   4.896   7.678   7.658  0.3689 -0.2787  0.2902
 1008MOL0     C39005   5.010   7.682   7.561 -0.3823 -0.7802  0.6578
 1008MOL0     C39006   4.966   7.717   7.419  1.3579 -0.5267  0.7131
 1008MOL0     C39007   5.075   7.760   7.321 -0.0758  0.3953 -0.0373
 1008MOL0     C39008   5.026   7.777   7.175  0.2749  0.5659 -1.3482
 1008MOL0     C39009   5.142   7.808   7.079 -0.7214 -0.1288  0.0995
 1008MOL0     C39010   5.162   7.966   7.058  0.0808  0.5898 -0.5898
 1008MOL0    Cl39011   5.329   8.010   7.051  0.8539  0.2217 -0.4441
 1008MOL0     C39012   4.576   7.963   7.717 -0.9948 -0.7916 -0.2740
 1008MOL0     C39013   4.452   8.041   7.734 -0.1308 -0.2237  0.5537
 1008MOL0     O39014   4.295   8.291   7.796 -0.3931  0.1764 -0.1057
 1008MOL0     C39015   4.040   8.370   7.766 -0.4113  0.9043 -0.4990
 1008MOL0     C39016   3.919   8.419   7.741  0.3739 -0.2929 -0.0609
 1008MOL0     N39017   3.397   8.425   7.081 -0.3857  0.4622 -0.3706
 1008MOL0     N39018   3.343   8.512   6.995  0.0579 -0.4008 -0.3265
 1008MOL0     C39019   2.071   8.572   7.255  0.0791  0.3654  0.5195
 1008MOL0     C39020   1.950   8.531   7.210  0.6862 -0.1123  0.7760
 1008MOL0     C39021   1.646   8.392   6.877  0.6968  0.2282 -0.4504
 1008MOL0     C39022   1.558   8.350   6.977 -0.3503  0.5628 -0.1311
 1008MOL0     C39023   1.423   8.315   6.950 -0.5458  0.6112 -1.2529
 1008MOL0     C39024   1.390   8.294   6.823 -0.1990  0.7349 -0.4915
 1008MOL0     O39025   1.277   8.243   6.773 -0.5106 -0.0413  0.0217
 1008MOL0     C39026   1.155   8.245   6.851 -0.5389  0.0547 -0.5034
 1008MOL0     C39027   1.092   8.382   6.843 -0.7145  1.1054  0.1110
 1008MOL0     C39028   1.022   8.396   6.716 -0.0584 -1.2587  0.0751
 1008MOL0     C39029   0.940   8.529   6.705  0.4413  0.1897 -0.5369
 1008MOL0     C39030   0.871   8.525   6.575  0.1283  0.1702 -0.7391
 1008MOL0     C39031   0.818   8.516   6.468 -0.1008  0.4930  0.0752
 1008MOL0     C39032   1.480   8.325   6.721  0.0420  0.8781 -0.6090
 1008MOL0     C39033   1.607   8.382   6.746 -0.1098  0.1719  0.0446
 1008MOL0     C39034   1.714   8.386   6.633  0.1296 -0.3028 -0.3521
 1008MOL0     H39035   2.047   8.372   6.935  0.0931 -1.8385  2.8545
 1008MOL0     H39036   2.257   8.461   6.986 -2.5627  0.2910 -1.7517
 1008MOL0     H39037   2.419   8.777   7.137  0.0541 -0.4323  1.1124
 1008MOL0     H39038   2.367   8.631   7.035  2.4624  1.2903 -2.3246
 1008MOL0     H39039   2.590   8.614   7.246 -2.2389  1.9072  0.8450
 1008MOL0     H39040   2.518   8.495   7.150  0.3122 -0.4656  2.6713
 1008MOL0     H39041   2.612   8.584   6.940  2.2976  2.6727 -2.1486
 1008MOL0     H39042   2.618   8.743   7.014 -4.4124  0.1026  3.7936
 1008MOL0     H39043   2.819   8.668   7.150  3.0537 -4.3383  1.2873
 1008MOL0     H39044   2.777   8.508   7.099 -1.0101 -0.7550 -3.8080
 1008MOL0     H39045   2.847   8.714   6.885  1.9295 -1.2174 -2.8428
 1008MOL0     H39046   2.839   8.540   6.862 -0.3152  0.4944 -1.6439
 1008MOL0     H39047   3.046   8.517   7.002  0.5908  1.0640  1.3021
 1008MOL0     H39048   3.066   8.609   6.854 -2.3564  1.6164 -1.5942
 1008MOL0     H39049   3.072   8.707   7.149  0.9525  0.9710  0.5289
 1008MOL0     H39050   3.027   8.825   7.034  0.8544  0.7761  0.3203
 1008MOL0     H39051   3.239   8.745   6.911 -0.6885 -1.8341 -0.7839
 1008MOL0     H39052   3.285   8.817   7.054 -0.5347  0.5645 -3.3984
 1008MOL0     H39053   3.265   8.650   7.292  0.5146 -1.8780  1.3103
 1008MOL0     H39054   3.397   8.293   7.303 -0.4270  0.2559 -1.9615
 1008MOL0     H39055   3.285   8.396   7.398 -0.4358 -3.3883 -0.9618
 1008MOL0     H39056   3.580   8.473   7.339 -0.8076  1.9508 -1.5338
 1008MOL0     H39057   3.473   8.552   7.445 -2.2722 -1.2384 -0.6562
 1008MOL0     H39058   3.449   8.361   7.591  1.6735  0.1639  2.0036
 1008MOL0     H39059   3.556   8.260   7.480  0.6146  0.1366  1.0493
 1008MOL0     H39060   3.745   8.377   7.524  2.0630  0.8655  2.5846
 1008MOL0     H39061   3.665   8.518   7.592  0.5317  0.6516 -3.0262
 1008MOL0     H39062   3.745   8.144   7.834 -0.2905  0.5801  4.3022
 1008MOL0     H39063   4.040   8.026   7.982  0.4510 -2.4563  0.7309
 1008MOL0     H39064   4.008   7.929   7.835 -0.4809 -0.5760  0.4157
 1008MOL0     H39065   3.877   7.968   7.931  1.3793 -2.4681 -2.5691
 1008MOL0     H39066   4.329   7.885   8.002 -0.7700 -1.5636 -1.3091
 1008MOL0     H39067   4.530   7.748   7.964 -0.8113  1.1563  0.5788
 1008MOL0     H39068   4.771   7.840   7.580 -2.6813  1.6039  1.4632
 1008MOL0     H39069   4.879   7.882   7.708 -2.7012  2.6548  0.9584
 1008MOL0     H39070   4.937   7.663   7.758  1.3936 -0.7893 -0.1921
 1008MOL0     H39071   4.831   7.596   7.626  0.6326 -0.5387  0.4106
 1008MOL0     H39072   5.074   7.594   7.572 -1.2972 -1.5838 -0.2954
 1008MOL0     H39073   5.066   7.769   7.595 -2.9067  0.1646  2.8050
 1008MOL0     H39074   4.899   7.804   7.419 -0.7457 -1.8664 -3.3501
 1008MOL0     H39075   4.899   7.637   7.385 -0.5860  1.7184 -1.1291
 1008MOL0     H39076   5.130   7.850   7.349 -1.2407  1.4597 -1.0223
 1008MOL0     H39077   5.157   7.688   7.334 -0.7591 -0.1009  1.8887
 1008MOL0     H39078   4.951   7.857   7.180  0.9253  1.1355  2.2443
 1008MOL0     H39079   4.975   7.684   7.152 -3.6694  1.5690  2.0539
 1008MOL0     H39080   5.121   7.773   6.977 -1.5139 -3.3382  1.2249
 1008MOL0     H39081   5.234   7.754   7.100 -0.4094 -0.6798 -2.3331
 1008MOL0     H39082   5.131   8.019   7.148 -2.4508 -0.7166 -0.6120
 1008MOL0     H39083   5.098   8.019   6.987 -1.7178 -0.1150  0.4456
 1008MOL0     H39084   4.648   7.994   7.642  0.5783  2.9733  2.4204
 1008MOL0     H39085   4.429   8.116   7.659 -1.0209  2.1626  3.0499
 1008MOL0     H39086   4.119   8.444   7.767  0.5982 -0.1413 -0.2780
 1008MOL0     H39087   3.903   8.519   7.703 -0.5812 -0.3977  0.0292
 1008MOL0     H39088   2.069   8.638   7.342  4.5595  0.9159  0.4449
 1008MOL0     H39089   1.862   8.539   7.274  0.3787 -2.0280  0.6777
 1008MOL0     H39090   1.593   8.374   7.077  1.9947  3.9243 -1.5891
 1008MOL0     H39091   1.363   8.305   7.040  1.7339  2.1903  0.5660
 1008MOL0     H39092   1.082   8.173   6.812 -2.4818  1.3051  0.6538
 1008MOL0     H39093   1.170   8.210   6.953  1.9465 -3.6127 -1.9258
 1008MOL0     H39094   1.164   8.464   6.836 -2.4117  2.8734  1.9647
 1008MOL0     H39095   1.022   8.391   6.927  0.4381 -1.9829  1.5598
 1008MOL0     H39096   1.094   8.390   6.635  0.5891 -1.8619  0.6780
 1008MOL0     H39097   0.952   8.312   6.706 -1.1245 -0.8455  2.9535
 1008MOL0     H39098   0.993   8.623   6.721 -0.9493  1.0455 -0.7840
 1008MOL0     H39099   0.859   8.517   6.778 -1.4244  3.3647 -1.8459
 1008MOL0     H39100   0.779   8.534   6.370  0.7947  0.2872 -0.3298
 1008MOL0     H39101   1.451   8.313   6.617  0.3181 -1.6642 -0.4557
 1008MOL0     H39102   1.687   8.306   6.563  1.3058 -3.7378  2.7722
 1008MOL0     H39103   1.705   8.485   6.587  2.4434  0.2579  0.2502
 1008MOL0     H39104   1.813   8.371   6.677 -0.1769 -0.6705  0.2297
 1009MOL0     O39105   5.517   5.082   2.473 -0.7491  0.5401 -0.2041
 1009MOL0     C39106   5.518   5.071   2.594 -0.6160  0.0759  0.6448
 1009MOL0     O39107   5.499   4.951   2.659 -0.1858  0.5673  0.0108
 1009MOL0     C39108   5.473   4.844   2.578 -0.4112  0.3166 -0.3625
 1009MOL0     C39109   5.346   4.836   2.528 -0.5910  0.6486 -0.7096
 1009MOL0     C39110   5.324   4.728   2.436  0.9359  0.3875  0.2208
 1009MOL0     C39111   5.411   4.627   2.412  0.0168  0.3961 -0.4490
 1009MOL0     O39112   5.381   4.537   2.318  0.2375  0.0951 -0.9545
 1009MOL0     C39113   5.483   4.516   2.221  0.2052 -0.4651  1.0649
 1009MOL0     C39114   5.556   4.388   2.244 -0.6320 -0.4876  0.2044
 1009MOL0     C39115   5.482   4.270   2.183  0.1921  0.3278  0.2231
 1009MOL0     C39116   5.515   4.139   2.263 -0.4635  0.4357  0.5367
 1009MOL0     C39117   5.439   4.024   2.207  0.9917  0.4773  0.3833
 1009MOL0     C39118   5.458   3.991   2.054  0.4182 -0.6161  0.6744
 1009MOL0     C39119   5.603   3.993   2.005  0.7046  0.3119 -0.7591
 1009MOL0     C39120   5.710   3.914   2.080  0.1975 -0.1288  0.1216
 1009MOL0     N39121   5.845   3.892   2.016  0.0564  0.2795  0.6053
 1009MOL0     C39122   5.884   3.955   1.901  0.1586 -0.6273 -0.2284
 1009MOL0     C39123   5.998   3.885   1.855 -0.0930 -0.9371 -0.3881
 1009MOL0     C39124   6.088   3.929   1.746  0.5429  0.3364 -0.1748
 1009MOL0     C39125   6.218   3.981   1.805 -0.0061  0.2350 -0.1405
 1009MOL0     C39126   6.323   3.985   1.693  0.3367  0.4574 -0.7725
 1009MOL0     C39127   6.462   4.006   1.756 -0.0955  0.4449  0.4998
 1009MOL0     O39128   6.458   4.131   1.829 -0.0415  0.0937 -0.5466
 1009MOL0     C39129   6.442   4.143   1.966 -0.4073  0.6862  0.8887
 1009MOL0     C39130   6.412   4.268   2.003  0.1766  0.1002 -0.0008
 1009MOL0     C39131   6.382   4.300   2.137 -0.0496  0.3384 -0.8654
 1009MOL0     C39132   6.327   4.435   2.171  0.2145  0.2896 -0.0854
 1009MOL0     C39133   6.385   4.196   2.228 -0.1997  0.6482  0.3626
 1009MOL0     C39134   6.336   4.215   2.366 -0.3854 -0.1777 -0.2790
 1009MOL0     O39135   6.373   4.328   2.436  0.8938  0.8649 -0.5015
 1009MOL0     C39136   6.311   4.345   2.556 -0.2651 -0.1334 -0.5918
 1009MOL0     C39137   6.336   4.280   2.673  0.1887 -0.2371  0.5496
 1009MOL0     C39138   6.275   4.318   2.795  0.2462  0.2555  0.0366
 1009MOL0     C39139   6.177   4.410   2.808  0.0941 -0.9231 -0.2744
 1009MOL0     O39140   6.122   4.433   2.931 -0.4218  0.0464 -0.1567
 1009MOL0     C39141   6.058   4.572   2.943  0.0639 -0.1084 -0.2043
 1009MOL0     C39142   6.047   4.608   3.091  0.0601 -0.6920 -0.1082
 1009MOL0     C39143   6.173   4.586   3.177 -0.8728 -1.0602 -0.2512
 1009MOL0     C39144   6.161   4.684   3.299 -0.8458 -0.2393  1.1236
 1009MOL0     C39145   6.286   4.686   3.388  0.0405  0.2102  1.1989
 1009MOL0     C39146   6.374   4.811   3.371  0.2458 -0.9279 -0.7035
 1009MOL0     C39147   6.482   4.813   3.473  1.0944  0.1723  0.6864
 1009MOL0     C39148   6.551   4.949   3.477 -0.9643  0.9738  0.2100
 1009MOL0    Cl39149   6.654   4.939   3.621  0.3721 -0.2214 -0.4178
 1009MOL0     C39150   6.151   4.475   2.682  0.6886 -0.5746 -0.1727
 1009MOL0     C39151   6.207   4.441   2.562 -0.1834  0.0467  0.0288
 1009MOL0     O39152   6.281   4.111   2.410  0.1730 -0.4192  0.3778
 1009MOL0     C39153   6.415   4.062   2.187 -0.3892  1.0024 -0.4931
 1009MOL0     C39154   6.448   4.036   2.054 -0.4499 -0.2874 -1.0162
 1009MOL0     N39155   6.021   3.792   1.959  0.1416 -1.1435  0.0398
 1009MOL0     N39156   5.936   3.796   2.049 -0.0488 -0.6070 -0.3603
 1009MOL0     C39157   5.526   4.630   2.491 -0.1326  0.0690  0.2462
 1009MOL0     C39158   5.563   4.738   2.570 -0.5007 -0.1990  0.1249
 1009MOL0     C39159   5.569   5.184   2.686  0.0147  0.8267 -0.4543
 1009MOL0     C39160   5.627   5.148   2.808 -0.2348  0.0167 -0.6649
 1009MOL0     C39161   5.664   5.251   2.904  0.2730  0.2830  0.4095
 1009MOL0     C39162   5.653   5.382   2.867  0.7469 -0.2221 -0.1367
 1009MOL0     O39163   5.713   5.463   2.956  0.0838 -0.4102 -0.0249
 1009MOL0     C39164   5.695   5.604   2.943  0.0293  0.5563 -0.1697
 1009MOL0     C39165   5.761   5.682   3.062  0.4451 -0.0618 -0.3178
 1009MOL0     C39166   5.917   5.663   3.064 -0.5259 -0.4641  0.5464
 1009MOL0     C39167   5.980   5.530   3.112 -0.0176 -0.2246  0.1375
 1009MOL0     C39168   5.957   5.542   3.259 -1.2704 -0.8634  0.3386
 1009MOL0     C39169   5.945   5.536   3.378 -0.3985  0.0313 -0.6548
 1009MOL0     C39170   5.592   5.417   2.742  0.0779  0.1647 -0.7532
 1009MOL0     C39171   5.539   5.317   2.658  0.4636  0.1509  0.6516
 1009MOL0     C39172   5.461   5.367   2.529  0.1457 -0.0708  0.1877
 1009MOL0     H39173   5.268   4.911   2.537 -0.8387  0.2564  0.5957
 1009MOL0     H39174   5.239   4.736   2.370  0.0694  0.3051  1.3088
 1009MOL0     H39175   5.549   4.603   2.219  0.0527 -0.3324 -1.5370
 1009MOL0     H39176   5.432   4.523   2.125 -0.9029  1.4797  1.7466
 1009MOL0     H39177   5.654   4.396   2.195 -1.7379 -0.3236 -2.1217
 1009MOL0     H39178   5.560   4.376   2.353 -2.4308  1.4875  0.5520
 1009MOL0     H39179   5.374   4.282   2.170  0.4517 -0.0327 -2.8805
 1009MOL0     H39180   5.511   4.261   2.078 -2.4366 -0.8749 -0.5082
 1009MOL0     H39181   5.623   4.126   2.279 -0.6997  0.9455  2.7542
 1009MOL0     H39182   5.487   4.155   2.367 -2.5649  3.9813 -0.3935
 1009MOL0     H39183   5.333   4.036   2.231  0.3220 -3.8043  0.4645
 1009MOL0     H39184   5.474   3.935   2.261  0.8510 -0.3513 -0.8398
 1009MOL0     H39185   5.418   3.890   2.045 -0.0375 -0.6690  2.7767
 1009MOL0     H39186   5.399   4.059   1.991 -1.4872 -1.3954  1.5494
 1009MOL0     H39187   5.644   4.094   2.010 -0.4134  0.7184  2.0688
 1009MOL0     H39188   5.607   3.964   1.900 -0.3088  2.0055 -1.2967
 1009MOL0     H39189   5.732   3.968   2.172  0.6056 -0.2203  0.0782
 1009MOL0     H39190   5.657   3.820   2.103 -4.1563  2.0489  0.0803
 1009MOL0     H39191   5.838   4.036   1.845  0.4928 -0.1004  0.2408
 1009MOL0     H39192   6.038   4.002   1.683 -3.5072  0.1449  2.4795
 1009MOL0     H39193   6.106   3.845   1.678  2.2180  0.2848  0.2915
 1009MOL0     H39194   6.201   4.076   1.855  0.8058  0.4839 -0.3256
 1009MOL0     H39195   6.255   3.906   1.876  3.3523  1.0408 -0.8728
 1009MOL0     H39196   6.318   3.891   1.636 -1.6190 -0.1569  0.3156
 1009MOL0     H39197   6.302   4.071   1.629  2.5112  2.0523  0.5289
 1009MOL0     H39198   6.500   3.915   1.804  1.5662  0.3263 -0.9113
 1009MOL0     H39199   6.528   4.016   1.669 -0.6094 -1.7997 -0.2269
 1009MOL0     H39200   6.409   4.330   1.914 -1.5434 -3.4198 -2.6062
 1009MOL0     H39201   6.313   4.497   2.081  2.5738 -0.6619 -1.1823
 1009MOL0     H39202   6.403   4.494   2.223 -1.8693  1.9749  1.2264
 1009MOL0     H39203   6.232   4.421   2.223 -0.4725  1.2971 -1.0119
 1009MOL0     H39204   6.410   4.200   2.676  0.0110 -0.3895  2.5695
 1009MOL0     H39205   6.295   4.261   2.885 -3.3518  2.0655  2.2029
 1009MOL0     H39206   6.119   4.651   2.898 -0.2351 -0.6967 -1.7028
 1009MOL0     H39207   5.959   4.574   2.897  0.4440  1.4514 -1.0268
 1009MOL0     H39208   5.999   4.706   3.104 -1.5207 -1.5045  0.4610
 1009MOL0     H39209   5.969   4.541   3.128 -1.5139  1.7566  1.3351
 1009MOL0     H39210   6.260   4.621   3.121 -1.3922 -0.0093 -0.4336
 1009MOL0     H39211   6.180   4.483   3.214 -1.1548 -1.4092 -1.1573
 1009MOL0     H39212   6.080   4.661   3.369 -0.4838 -0.8371  1.3513
 1009MOL0     H39213   6.154   4.786   3.259  2.5330  0.1298  1.2075
 1009MOL0     H39214   6.244   4.691   3.489 -0.2430 -1.6380  1.2058
 1009MOL0     H39215   6.333   4.589   3.369  1.2459  1.1560 -1.0262
 1009MOL0     H39216   6.309   4.896   3.394 -0.3025 -1.9459  1.8706
 1009MOL0     H39217   6.417   4.823   3.271  0.1273  3.7824 -0.4344
 1009MOL0     H39218   6.552   4.729   3.460  0.1982 -0.4145 -0.6338
 1009MOL0     H39219   6.439   4.801   3.572 -0.5364 -0.0110 -0.0083
 1009MOL0     H39220   6.475   5.027   3.489 -2.1517 -0.2607  1.1196
 1009MOL0     H39221   6.612   4.965   3.388 -1.2283  0.6658 -0.0289
 1009MOL0     H39222   6.078   4.556   2.680  3.0965  1.7668  0.5136
 1009MOL0     H39223   6.181   4.484   2.466 -0.6328  0.4093  0.3020
 1009MOL0     H39224   6.431   3.992   2.269  0.2883  3.3232  1.4661
 1009MOL0     H39225   6.474   3.933   2.030  0.8636 -0.1679 -0.1494
 1009MOL0     H39226   5.594   4.546   2.483 -1.2161 -0.7716 -0.3450
 1009MOL0     H39227   5.655   4.740   2.627 -0.4631  0.3511  0.0411
 1009MOL0     H39228   5.643   5.041   2.819 -2.1916 -0.8126 -4.2784
 1009MOL0     H39229   5.702   5.223   3.001 -1.8486  0.2912  1.2944
 1009MOL0     H39230   5.732   5.635   2.845 -0.5547 -1.8652 -1.2281
 1009MOL0     H39231   5.589   5.630   2.931 -0.1132 -0.3690 -0.9978
 1009MOL0     H39232   5.714   5.645   3.153  1.8162  0.2750  0.5606
 1009MOL0     H39233   5.736   5.788   3.054 -0.6485 -0.3963 -1.7341
 1009MOL0     H39234   5.952   5.672   2.961 -3.5314 -0.2678 -0.5649
 1009MOL0     H39235   5.959   5.755   3.106 -0.7611  2.1548 -4.2467
 1009MOL0     H39236   6.087   5.527   3.088 -0.1469 -0.1707 -0.4802
 1009MOL0     H39237   5.940   5.440   3.063 -0.3704  0.6037 -1.1539
 1009MOL0     H39238   5.953   5.518   3.484  0.5721  0.2076 -0.6866
 1009MOL0     H39239   5.565   5.517   2.709 -0.5870 -0.8412 -3.6289
 1009MOL0     H39240   5.528   5.355   2.443 -1.6613 -1.8771 -1.0369
 1009MOL0     H39241   5.372   5.312   2.499  1.0529 -2.0931  1.0545
 1009MOL0     H39242   5.438   5.473   2.514 -1.7564 -0.7012 -2.0399
 1010MOL0     O39243   8.666   0.859   1.813 -0.4299 -0.4763 -0.0972
 1010MOL0     C39244   8.639   0.974   1.847 -0.7250 -1.2077  0.3851
 1010MOL0     O39245   8.682   1.084   1.782  0.8907 -0.3512 -0.4711
 1010MOL0     C39246   8.757   1.077   1.668 -0.2854 -0.3962  0.4303
 1010MOL0     C39247   8.691   1.060   1.553 -0.1204  0.8141 -0.8131
 1010MOL0     C39248   8.760   1.063   1.435 -0.1429  0.1685  0.3682
 1010MOL0     C39249   8.897   1.057   1.424  0.3762 -0.3286 -0.3109
 1010MOL0     O39250   8.951   1.044   1.300 -0.5350  0.4202 -0.0522
 1010MOL0     C39251   9.083   1.005   1.291 -0.3619  0.4496  0.0063
 1010MOL0     C39252   9.098   1.006   1.139 -0.1565 -0.1919  1.1110
 1010MOL0     C39253   9.240   1.048   1.089  0.1607 -0.2261  0.1599
 1010MOL0     C39254   9.351   1.007   1.176 -0.4055  0.2100  0.0448
 1010MOL0     C39255   9.489   1.002   1.103  0.0384  0.2606  0.6256
 1010MOL0     C39256   9.597   0.956   1.201  0.4842  0.1307 -0.5806
 1010MOL0     C39257   9.725   0.934   1.127 -0.0684 -0.7979 -0.1523
 1010MOL0     C39258   9.831   0.889   1.225  0.4248  0.0460 -0.4662
 1010MOL0     N39259   9.898   0.756   1.196  0.4664 -0.1685  0.1290
 1010MOL0     C39260   9.920   0.691   1.077  1.5190  0.3763  0.5918
 1010MOL0     C39261   9.959   0.566   1.105 -0.2323 -0.2884  0.3496
 1010MOL0     C39262   9.993   0.455   1.013 -0.4681  0.5500  0.4089
 1010MOL0     C39263  10.124   0.510   0.956 -0.0888  1.2165 -0.8141
 1010MOL0     C39264  10.190   0.404   0.865 -0.7859 -0.3830  0.0929
 1010MOL0     C39265  10.328   0.438   0.802  0.5481 -0.3456 -0.0167
 1010MOL0     O39266  10.438   0.470   0.892  0.6440 -0.5044  0.0226
 1010MOL0     C39267  10.568   0.466   0.848 -0.6938 -0.2664  0.5226
 1010MOL0     C39268  10.605   0.489   0.715  0.0445  0.8343  0.5791
 1010MOL0     C39269  10.741   0.484   0.673  0.6800 -0.3532 -0.4828
 1010MOL0     C39270  10.764   0.489   0.522  0.2278 -0.5112  0.8471
 1010MOL0     C39271  10.842   0.460   0.775 -0.1563  0.1400 -0.5486
 1010MOL0     C39272  10.984   0.445   0.749 -0.3601 -0.0839  0.1611
 1010MOL0     O39273  11.024   0.445   0.610 -0.3855 -0.3765 -0.0042
 1010MOL0     C39274  11.158   0.426   0.580  0.3412 -0.5229  0.5911
 1010MOL0     C39275  11.259   0.501   0.633 -0.6048  0.5846 -0.5567
 1010MOL0     C39276  11.391   0.457   0.606 -0.4180 -0.3990  0.0743
 1010MOL0     C39277  11.423   0.355   0.523 -0.1002  0.1014 -0.2759
 1010MOL0     O39278  11.555   0.304   0.507  0.0981  0.2458  0.1844
 1010MOL0     C39279  11.559   0.162   0.508  0.5236  0.2687  0.1385
 1010MOL0     C39280  11.705   0.113   0.506  0.8813 -0.3780 -0.7912
 1010MOL0     C39281  11.753   0.030   0.625  0.9641  1.3440 -0.5300
 1010MOL0     C39282  11.901   0.021   0.617 -0.2610 -0.4971 -0.9946
 1010MOL0     C39283  11.962  -0.030   0.747 -0.4325 -0.0354  0.1036
 1010MOL0     C39284  12.114  -0.036   0.742 -1.1107 -0.8009 -0.2937
 1010MOL0     C39285  12.181   0.091   0.796 -0.4797  0.6306 -0.4490
 1010MOL0     C39286  12.213   0.075   0.946 -0.8116  0.0725 -0.7339
 1010MOL0    Cl39287  12.352  -0.037   0.980 -0.1103 -0.4043  0.6016
 1010MOL0     C39288  11.318   0.292   0.459 -0.6558 -0.8908  0.0441
 1010MOL0     C39289  11.188   0.328   0.482  0.6256  0.3726 -0.0852
 1010MOL0     O39290  11.059   0.419   0.842 -0.0524 -0.5956 -0.0774
 1010MOL0     C39291  10.800   0.450   0.911  1.0531 -0.3896  0.1224
 1010MOL0     C39292  10.668   0.459   0.945 -0.3272  0.3374 -0.0673
 1010MOL0     N39293   9.970   0.555   1.239 -0.1529  0.6197  1.4591
 1010MOL0     N39294   9.944   0.673   1.294  0.6775  0.0252 -0.5066
 1010MOL0     C39295   8.976   1.044   1.544  0.7311  0.4764 -0.2592
 1010MOL0     C39296   8.901   1.060   1.669  0.5231  0.6206  0.0808
 1010MOL0     C39297   8.587   1.007   1.981  0.3120  0.5540 -0.0211
 1010MOL0     C39298   8.525   1.132   2.013  0.2318  0.7789 -0.1589
 1010MOL0     C39299   8.510   1.174   2.146  0.4695 -1.6374 -0.2136
 1010MOL0     C39300   8.522   1.090   2.252  0.1196  0.1236 -0.2328
 1010MOL0     O39301   8.516   1.117   2.387 -0.6780  0.9121  0.0840
 1010MOL0     C39302   8.392   1.175   2.430  0.3733  0.0492 -0.0272
 1010MOL0     C39303   8.369   1.135   2.577 -0.7582 -0.1779  0.0996
 1010MOL0     C39304   8.365   0.980   2.596  0.1495  0.0354 -1.0363
 1010MOL0     C39305   8.331   0.937   2.738  0.5517  0.1726 -0.4367
 1010MOL0     C39306   8.353   0.796   2.775  0.2430 -0.7280 -0.1930
 1010MOL0     C39307   8.374   0.682   2.795 -0.0910 -0.5324  1.5112
 1010MOL0     C39308   8.567   0.960   2.222  0.6855 -0.1185  0.8351
 1010MOL0     C39309   8.602   0.918   2.090  0.1880 -0.6366  0.1348
 1010MOL0     C39310   8.635   0.776   2.080 -0.0798  0.1090  1.0136
 1010MOL0     H39311   8.583   1.052   1.555 -0.3726  2.6323  2.7365
 1010MOL0     H39312   8.696   1.065   1.347 -0.4275  2.5079  0.5494
 1010MOL0     H39313   9.109   0.907   1.333 -3.9950  0.1118  1.8327
 1010MOL0     H39314   9.153   1.076   1.335 -0.4417 -0.0294  0.9164
 1010MOL0     H39315   9.056   0.913   1.100 -0.1616  1.0319 -2.0563
 1010MOL0     H39316   9.037   1.078   1.085  2.0467 -0.2511 -1.6547
 1010MOL0     H39317   9.256   1.015   0.986 -0.0233  1.3246 -0.3963
 1010MOL0     H39318   9.254   1.157   1.086  3.1593 -0.5199 -2.0601
 1010MOL0     H39319   9.352   1.077   1.260 -1.4247  0.2693  0.0271
 1010MOL0     H39320   9.339   0.902   1.205 -0.2741  0.4611  1.0600
 1010MOL0     H39321   9.525   1.101   1.072  0.5151  0.2456  1.1026
 1010MOL0     H39322   9.473   0.944   1.012  0.5664 -0.8889  1.2410
 1010MOL0     H39323   9.618   1.039   1.269  1.2276  0.2313 -0.9248
 1010MOL0     H39324   9.566   0.869   1.259 -0.7099 -0.8783 -2.6061
 1010MOL0     H39325   9.754   1.008   1.051 -2.6370  0.0853 -0.3941
 1010MOL0     H39326   9.706   0.852   1.056 -0.9183 -1.3822  0.7295
 1010MOL0     H39327   9.904   0.971   1.227 -0.9187  1.2785  0.7918
 1010MOL0     H39328   9.792   0.899   1.327  1.7554 -0.6983  0.1423
 1010MOL0     H39329   9.905   0.731   0.978 -0.4521 -1.6330 -0.0246
 1010MOL0     H39330   9.912   0.437   0.941  0.6307 -1.8255 -0.3286
 1010MOL0     H39331  10.001   0.359   1.064 -0.6026  0.4656  0.2719
 1010MOL0     H39332  10.101   0.598   0.894 -3.2484  2.1033  1.3341
 1010MOL0     H39333  10.197   0.540   1.031  0.2324 -0.4230 -0.4405
 1010MOL0     H39334  10.220   0.325   0.934  0.6537  0.2554  0.2318
 1010MOL0     H39335  10.123   0.354   0.794  1.2966 -0.7326 -1.7273
 1010MOL0     H39336  10.352   0.364   0.726  0.1115  1.8587 -2.4492
 1010MOL0     H39337  10.314   0.532   0.748  1.6298 -0.3965 -0.3990
 1010MOL0     H39338  10.533   0.509   0.636  0.6062  0.7986  0.0494
 1010MOL0     H39339  10.809   0.395   0.487 -3.2847 -2.7911  1.9260
 1010MOL0     H39340  10.817   0.580   0.492 -2.2115  0.3519 -1.2304
 1010MOL0     H39341  10.669   0.499   0.469  0.6504  1.2712  0.3654
 1010MOL0     H39342  11.240   0.585   0.698 -0.5047  1.3648 -1.5153
 1010MOL0     H39343  11.474   0.519   0.639  0.3004 -0.8226 -0.8792
 1010MOL0     H39344  11.516   0.132   0.604 -2.2406  1.0823 -0.7587
 1010MOL0     H39345  11.498   0.107   0.436 -0.1894 -0.9569  1.6114
 1010MOL0     H39346  11.716   0.071   0.406  0.3874 -1.1685 -0.5253
 1010MOL0     H39347  11.766   0.204   0.511 -2.5407  2.5649 -5.3246
 1010MOL0     H39348  11.702  -0.065   0.643  3.6798 -0.1532 -0.2494
 1010MOL0     H39349  11.729   0.084   0.718 -0.4239  0.7617 -0.5196
 1010MOL0     H39350  11.941   0.122   0.602  1.0480 -0.7066  0.7192
 1010MOL0     H39351  11.933  -0.049   0.539  0.7533  0.3540 -1.3735
 1010MOL0     H39352  11.933   0.036   0.830 -0.3313  2.4770 -1.7268
 1010MOL0     H39353  11.926  -0.133   0.754 -0.1428 -0.2922 -1.7178
 1010MOL0     H39354  12.160  -0.051   0.644 -0.6236  1.6840 -0.5142
 1010MOL0     H39355  12.139  -0.118   0.809 -0.2303  1.1487  1.9003
 1010MOL0     H39356  12.123   0.182   0.778 -2.4081  0.5070  3.7870
 1010MOL0     H39357  12.278   0.086   0.746  0.0074 -3.5043  0.4919
 1010MOL0     H39358  12.116   0.060   0.994 -1.0157 -1.3188 -1.5250
 1010MOL0     H39359  12.254   0.165   0.992  0.5057 -1.0392  0.3504
 1010MOL0     H39360  11.326   0.218   0.380 -0.2266 -1.6927  0.8229
 1010MOL0     H39361  11.106   0.287   0.424 -0.3686  3.2163 -0.8655
 1010MOL0     H39362  10.872   0.451   0.991 -0.0722 -2.2020  1.2135
 1010MOL0     H39363  10.630   0.426   1.041 -1.6769 -0.2556 -0.7723
 1010MOL0     H39364   9.085   1.044   1.536  0.9754  1.0473  2.0660
 1010MOL0     H39365   8.968   1.053   1.754 -1.3336 -2.0497  1.4436
 1010MOL0     H39366   8.517   1.204   1.933  3.4150 -0.1775 -1.5220
 1010MOL0     H39367   8.484   1.278   2.162  0.1445 -1.9097  1.2604
 1010MOL0     H39368   8.396   1.283   2.412  1.2855  0.4109  2.1137
 1010MOL0     H39369   8.302   1.156   2.369  0.4005  1.2833 -0.4794
 1010MOL0     H39370   8.284   1.188   2.620  0.4525 -1.2229  4.3026
 1010MOL0     H39371   8.450   1.174   2.640  0.1037 -0.7376 -0.6401
 1010MOL0     H39372   8.295   0.931   2.528  0.2416 -0.9790 -0.4275
 1010MOL0     H39373   8.455   0.935   2.554 -1.0433 -1.0965 -2.5003
 1010MOL0     H39374   8.229   0.971   2.759 -0.1011 -1.3043 -1.1147
 1010MOL0     H39375   8.390   1.006   2.798 -0.4133  2.3146 -1.8102
 1010MOL0     H39376   8.395   0.587   2.841 -2.1087 -1.7956  0.0372
 1010MOL0     H39377   8.572   0.890   2.305 -1.6901 -0.1796  0.9947
 1010MOL0     H39378   8.579   0.728   1.999  0.8355  0.3872  0.1901
 1010MOL0     H39379   8.739   0.759   2.050 -0.7602 -0.7878 -0.9967
 1010MOL0     H39380   8.613   0.721   2.172  2.5174 -1.7516  0.6505
 1011MOL0     O39381   1.556   3.967   2.622 -0.3258 -0.0860  0.3374
 1011MOL0     C39382   1.506   3.861   2.595  1.0459  0.1682  0.1835
 1011MOL0     O39383   1.563   3.741   2.608  0.2403 -0.1520  0.0295
 1011MOL0     C39384   1.704   3.750   2.622 -0.2372  0.1234  0.6863
 1011MOL0     C39385   1.765   3.716   2.748  0.7396  0.0358  0.5212
 1011MOL0     C39386   1.901   3.712   2.761 -0.1073  0.0858 -0.6141
 1011MOL0     C39387   1.987   3.767   2.660 -1.1926 -0.0967 -0.5763
 1011MOL0     O39388   2.126   3.789   2.675  0.1077 -0.9370  0.8206
 1011MOL0     C39389   2.188   3.742   2.801 -0.3310  0.4766  0.7049
 1011MOL0     C39390   2.341   3.736   2.793  1.1979  0.2110  0.4621
 1011MOL0     C39391   2.383   3.695   2.924 -0.4333 -0.1595  0.0818
 1011MOL0     C39392   2.536   3.648   2.927  0.2633 -0.6240  0.3388
 1011MOL0     C39393   2.636   3.748   2.881 -0.3137 -0.0663  0.7069
 1011MOL0     C39394   2.782   3.707   2.919 -0.5593 -0.1142 -0.4199
 1011MOL0     C39395   2.887   3.807   2.881  0.0478  0.5122  0.4485
 1011MOL0     C39396   2.875   3.943   2.951  0.7419 -0.0850  0.5515
 1011MOL0     N39397   2.989   4.034   2.926  0.1223 -0.7570  0.2858
 1011MOL0     C39398   3.053   4.044   2.807  0.0651 -0.1090 -0.3951
 1011MOL0     C39399   3.151   4.136   2.828  0.2230 -0.1553 -0.2957
 1011MOL0     C39400   3.267   4.167   2.740  0.9230 -0.6496  0.5709
 1011MOL0     C39401   3.344   4.037   2.706  0.5164  0.0352  0.7922
 1011MOL0     C39402   3.434   4.061   2.583 -0.3224 -0.3472 -0.7666
 1011MOL0     C39403   3.566   4.138   2.612  0.1575 -1.2360  0.0821
 1011MOL0     O39404   3.645   4.154   2.493 -0.4040  0.0027  0.2487
 1011MOL0     C39405   3.752   4.234   2.484 -0.7036 -0.5799  0.3063
 1011MOL0     C39406   3.784   4.328   2.583 -0.1749  0.2477  0.0146
 1011MOL0     C39407   3.899   4.414   2.573  0.7872  0.0488 -1.1816
 1011MOL0     C39408   3.923   4.521   2.680 -0.9863  0.4864  0.4257
 1011MOL0     C39409   3.993   4.387   2.469  0.6651  0.6364 -0.3154
 1011MOL0     C39410   4.123   4.454   2.467  0.3494  0.4225  0.1332
 1011MOL0     O39411   4.168   4.500   2.345 -0.7219  0.2201 -0.2334
 1011MOL0     C39412   4.291   4.548   2.334  0.4304  0.2709  0.1848
 1011MOL0     C39413   4.314   4.674   2.375 -0.1506 -0.0732 -0.7578
 1011MOL0     C39414   4.426   4.741   2.340  0.4301  0.6234  0.6856
 1011MOL0     C39415   4.531   4.680   2.271 -0.1758 -0.2304 -0.3897
 1011MOL0     O39416   4.661   4.734   2.251  0.9259 -0.1490  1.1952
 1011MOL0     C39417   4.677   4.868   2.223  0.2252 -0.0587 -0.3180
 1011MOL0     C39418   4.827   4.888   2.181 -0.2031 -0.3641 -0.1904
 1011MOL0     C39419   4.870   4.794   2.057 -0.5714 -0.3407  0.5878
 1011MOL0     C39420   5.018   4.773   2.072 -0.2597  0.5290 -0.0988
 1011MOL0     C39421   5.081   4.673   1.971  0.0145  0.1322 -0.7672
 1011MOL0     C39422   5.033   4.531   2.009  0.1930 -0.4053  0.1153
 1011MOL0     C39423   5.109   4.419   1.947  0.7555 -0.6025 -0.0048
 1011MOL0     C39424   5.074   4.283   2.002  0.2359 -1.0163 -1.7021
 1011MOL0    Cl39425   4.908   4.243   1.958  0.8161 -0.2439  0.3716
 1011MOL0     C39426   4.505   4.549   2.223  0.1354  0.3498 -0.1187
 1011MOL0     C39427   4.387   4.479   2.256 -0.0157  0.8222 -0.0679
 1011MOL0     O39428   4.183   4.470   2.573  0.0190 -0.1399 -0.3208
 1011MOL0     C39429   3.952   4.300   2.366 -0.6151 -0.2184 -0.2933
 1011MOL0     C39430   3.834   4.241   2.367  0.2702  0.2377  0.0407
 1011MOL0     N39431   3.141   4.184   2.953  0.4182  0.3507 -0.3172
 1011MOL0     N39432   3.049   4.116   3.013 -0.2168  0.2264  0.2932
 1011MOL0     C39433   1.932   3.806   2.545  0.3426 -0.6897  0.9215
 1011MOL0     C39434   1.786   3.801   2.519 -0.3406 -0.0458 -0.4610
 1011MOL0     C39435   1.358   3.854   2.560  0.3476 -0.3852 -0.1874
 1011MOL0     C39436   1.267   3.950   2.620  0.0069  0.3732 -0.0587
 1011MOL0     C39437   1.123   3.946   2.602 -0.1853  0.0149  0.0185
 1011MOL0     C39438   1.073   3.853   2.510 -0.1462  1.0213  0.0402
 1011MOL0     O39439   0.937   3.820   2.486 -0.1676  0.1208  0.1035
 1011MOL0     C39440   0.844   3.869   2.592  0.7825 -0.2222 -0.0094
 1011MOL0     C39441   0.712   3.789   2.583  0.2081  0.2947 -0.0601
 1011MOL0     C39442   0.623   3.783   2.709 -1.2201 -0.8705 -0.6019
 1011MOL0     C39443   0.498   3.861   2.682 -0.2717  0.5889  0.1091
 1011MOL0     C39444   0.423   3.870   2.809 -0.7415  0.0213  0.6950
 1011MOL0     C39445   0.381   3.894   2.923  1.2227 -0.4399  0.0810
 1011MOL0     C39446   1.165   3.767   2.444  0.2552 -1.0044 -0.6749
 1011MOL0     C39447   1.303   3.771   2.457  0.5365  0.3035 -0.4244
 1011MOL0     C39448   1.384   3.685   2.373  0.8448  0.3047 -0.2804
 1011MOL0     H39449   1.702   3.681   2.829 -0.3760 -0.1261 -0.3845
 1011MOL0     H39450   1.950   3.687   2.855 -0.4020  0.3643 -0.3829
 1011MOL0     H39451   2.150   3.641   2.821  2.1475 -0.2303  2.3669
 1011MOL0     H39452   2.159   3.806   2.884  0.5180  3.1000 -0.9213
 1011MOL0     H39453   2.369   3.660   2.720 -0.8971 -0.3212  0.1690
 1011MOL0     H39454   2.374   3.832   2.753 -0.3241  0.1653 -1.0220
 1011MOL0     H39455   2.353   3.769   2.998  4.2211 -0.3370  2.5194
 1011MOL0     H39456   2.328   3.603   2.947  2.1783 -1.3230  2.1941
 1011MOL0     H39457   2.555   3.629   3.033 -1.5417 -2.1650  0.4244
 1011MOL0     H39458   2.551   3.555   2.873 -0.2327 -0.3554 -0.2743
 1011MOL0     H39459   2.615   3.848   2.922 -2.5535 -0.5288  0.7979
 1011MOL0     H39460   2.625   3.769   2.774  0.7723  0.5400  0.6983
 1011MOL0     H39461   2.790   3.689   3.027  1.0599  0.6659 -0.3798
 1011MOL0     H39462   2.800   3.609   2.872 -2.0431 -1.1922  1.1365
 1011MOL0     H39463   2.879   3.808   2.772  1.8857 -0.8470  0.2606
 1011MOL0     H39464   2.980   3.753   2.900  0.2915 -0.1192 -2.1837
 1011MOL0     H39465   2.787   3.999   2.919  1.6554  1.4900  0.6871
 1011MOL0     H39466   2.869   3.943   3.060 -2.3172  0.1323  0.4473
 1011MOL0     H39467   3.031   3.988   2.716  2.4903 -1.3454 -0.2959
 1011MOL0     H39468   3.329   4.241   2.791  3.0031 -0.8097 -1.5542
 1011MOL0     H39469   3.217   4.212   2.654 -3.8270 -1.5798  2.5075
 1011MOL0     H39470   3.396   4.004   2.796 -1.5147  1.2788  2.5021
 1011MOL0     H39471   3.265   3.965   2.682 -0.5240  1.3591  0.0596
 1011MOL0     H39472   3.460   3.969   2.529  0.1826  0.5644 -2.1109
 1011MOL0     H39473   3.376   4.112   2.506 -1.0745 -1.5020 -0.9995
 1011MOL0     H39474   3.536   4.235   2.653 -2.1023 -2.2053  0.9246
 1011MOL0     H39475   3.633   4.086   2.681  1.1666 -0.2205 -0.1224
 1011MOL0     H39476   3.720   4.337   2.670 -1.1194 -0.2268 -0.6127
 1011MOL0     H39477   3.826   4.563   2.710 -0.1144  3.3339 -0.4353
 1011MOL0     H39478   3.982   4.607   2.646 -1.1681  1.5305  2.5852
 1011MOL0     H39479   3.969   4.479   2.769  0.8895  0.4699 -0.4902
 1011MOL0     H39480   4.243   4.731   2.434  0.6702 -0.9274  1.1043
 1011MOL0     H39481   4.445   4.837   2.386  1.1018  0.3187  1.0582
 1011MOL0     H39482   4.607   4.912   2.152 -0.8790  2.5083  2.1903
 1011MOL0     H39483   4.658   4.917   2.319  3.1981  0.5665  0.0474
 1011MOL0     H39484   4.827   4.989   2.139  1.8250 -0.3188 -0.1345
 1011MOL0     H39485   4.881   4.888   2.276 -0.9642  2.5023  0.3443
 1011MOL0     H39486   4.846   4.837   1.959  0.5792 -1.6622 -0.3054
 1011MOL0     H39487   4.811   4.702   2.052  1.1236 -1.4173 -3.3688
 1011MOL0     H39488   5.053   4.753   2.174 -0.0760 -2.7531 -0.7119
 1011MOL0     H39489   5.050   4.875   2.047 -1.8445  1.3321  0.9328
 1011MOL0     H39490   5.056   4.700   1.868  0.1975 -0.8583 -1.0853
 1011MOL0     H39491   5.189   4.667   1.986 -0.0561 -0.3982 -0.4344
 1011MOL0     H39492   4.927   4.522   1.983  0.6921 -1.3348 -1.7514
 1011MOL0     H39493   5.029   4.521   2.118  1.8079  0.1553  0.2532
 1011MOL0     H39494   5.212   4.442   1.974 -0.2046  3.2788  0.9083
 1011MOL0     H39495   5.105   4.411   1.838 -1.2612 -0.9195  0.0493
 1011MOL0     H39496   5.087   4.278   2.111 -1.2455  2.7055 -1.2068
 1011MOL0     H39497   5.146   4.207   1.969 -0.2122 -2.6327  0.6868
 1011MOL0     H39498   4.573   4.503   2.152  1.2968 -1.0614  1.7763
 1011MOL0     H39499   4.368   4.378   2.221 -0.4455  0.5636  0.8758
 1011MOL0     H39500   4.011   4.295   2.275 -1.9960  1.8188 -1.3680
 1011MOL0     H39501   3.801   4.176   2.286 -0.7734  1.4243 -0.5210
 1011MOL0     H39502   2.006   3.843   2.475 -0.3957  1.1940  1.0815
 1011MOL0     H39503   1.747   3.842   2.427 -1.6512  2.0284  0.9292
 1011MOL0     H39504   1.303   4.025   2.690 -2.3725  1.3096  0.2562
 1011MOL0     H39505   1.067   4.025   2.650 -1.4181 -1.2530  0.7268
 1011MOL0     H39506   0.893   3.860   2.690 -1.3399 -2.7486  0.9526
 1011MOL0     H39507   0.810   3.971   2.571  2.7380  0.5434  0.3591
 1011MOL0     H39508   0.740   3.685   2.563 -1.1295 -0.7647  3.0173
 1011MOL0     H39509   0.665   3.826   2.491 -0.5738  1.2214  0.6932
 1011MOL0     H39510   0.592   3.679   2.719 -1.0502 -0.7807  1.1171
 1011MOL0     H39511   0.678   3.823   2.794 -0.1073 -0.0999 -1.6471
 1011MOL0     H39512   0.436   3.818   2.603 -1.4928 -1.4058  2.0587
 1011MOL0     H39513   0.527   3.961   2.647  0.8735  0.2232 -0.0349
 1011MOL0     H39514   0.326   3.919   3.011  1.2321  2.0974 -0.5356
 1011MOL0     H39515   1.124   3.681   2.392  0.2516 -2.0955  1.0761
 1011MOL0     H39516   1.396   3.594   2.433 -1.8409 -0.1118 -0.2719
 1011MOL0     H39517   1.331   3.655   2.282  0.7717 -1.7547  0.3934
 1011MOL0     H39518   1.481   3.728   2.346  0.6863 -0.4433 -2.1970
 1012MOL0     O39519  11.251   0.383   8.797  0.0731  0.1125 -0.3086
 1012MOL0     C39520  11.196   0.278   8.755  0.8528  0.7217  0.7323
 1012MOL0     O39521  11.081   0.273   8.681  0.4982  0.1302 -0.9834
 1012MOL0     C39522  11.015   0.374   8.623 -0.8870 -0.3134 -0.5890
 1012MOL0     C39523  11.055   0.505   8.623 -0.1315  0.4359  0.5278
 1012MOL0     C39524  10.971   0.605   8.581 -0.1901 -0.3206  0.5482
 1012MOL0     C39525  10.846   0.574   8.518  0.0713 -0.1224 -0.9523
 1012MOL0     O39526  10.766   0.678   8.481 -0.1738 -0.1382 -0.7412
 1012MOL0     C39527  10.826   0.801   8.446  0.2785  0.1102  0.1771
 1012MOL0     C39528  10.724   0.887   8.377 -0.2622 -0.3935 -0.2227
 1012MOL0     C39529  10.643   0.818   8.270 -0.3840 -0.2107  0.0651
 1012MOL0     C39530  10.567   0.909   8.172 -0.0302  0.2032 -0.0203
 1012MOL0     C39531  10.502   0.817   8.060 -0.1137 -0.9151 -0.7280
 1012MOL0     C39532  10.587   0.781   7.943  0.6482  0.5201 -0.7962
 1012MOL0     C39533  10.517   0.726   7.817  1.3064  0.4117 -0.1344
 1012MOL0     C39534  10.419   0.833   7.748  0.0558  0.0586  0.5997
 1012MOL0     N39535  10.372   0.805   7.607  0.0121  0.5630  0.3288
 1012MOL0     C39536  10.463   0.768   7.508  0.4768 -0.3790  0.2630
 1012MOL0     C39537  10.383   0.745   7.398 -0.2844 -0.1865 -1.0832
 1012MOL0     C39538  10.437   0.714   7.257 -0.2836 -0.6026 -0.4628
 1012MOL0     C39539  10.563   0.794   7.229 -0.2734  0.0856 -0.2099
 1012MOL0     C39540  10.636   0.757   7.097 -0.0400  0.0409  0.8015
 1012MOL0     C39541  10.749   0.855   7.066  0.0280 -0.4708  0.1584
 1012MOL0     O39542  10.856   0.834   7.146  0.4855  0.4200  0.4571
 1012MOL0     C39543  10.961   0.914   7.117  0.1780 -0.6057  0.1478
 1012MOL0     C39544  10.979   1.036   7.179 -0.0502 -0.4039  0.3787
 1012MOL0     C39545  11.092   1.116   7.171 -0.2508  0.4855 -0.7763
 1012MOL0     C39546  11.092   1.246   7.243 -0.7563 -1.1352 -0.2466
 1012MOL0     C39547  11.200   1.061   7.103 -0.7052 -0.6599 -0.3752
 1012MOL0     C39548  11.333   1.128   7.092  1.3288 -0.3931  0.2583
 1012MOL0     O39549  11.412   1.084   6.988 -0.6671  0.0718  0.5924
 1012MOL0     C39550  11.527   1.146   6.941 -0.4835  1.2896  0.2177
 1012MOL0     C39551  11.623   1.059   6.883  0.6649 -0.2057 -0.9680
 1012MOL0     C39552  11.746   1.115   6.840 -0.6241 -0.4572 -0.0090
 1012MOL0     C39553  11.783   1.254   6.859  0.6128  0.0904  1.5109
 1012MOL0     O39554  11.910   1.302   6.841 -0.0040 -0.0789  0.5366
 1012MOL0     C39555  12.014   1.197   6.860 -0.1922  0.4133  0.2880
 1012MOL0     C39556  12.016   1.125   6.999  0.6356  0.1493 -0.0873
 1012MOL0     C39557  12.162   1.100   7.040  0.3421 -0.1235  0.1573
 1012MOL0     C39558  12.172   1.043   7.173 -0.8507  0.7082 -0.2605
 1012MOL0     C39559  12.140   0.893   7.172  0.4932 -0.8162 -0.9044
 1012MOL0     C39560  12.133   0.847   7.323  0.1198  0.4442 -0.6060
 1012MOL0     C39561  12.101   0.688   7.324 -0.3982 -0.5761  0.1052
 1012MOL0     C39562  12.067   0.634   7.467 -0.5857 -0.4887  0.8908
 1012MOL0    Cl39563  11.900   0.665   7.518 -0.0695 -0.4765  0.0237
 1012MOL0     C39564  11.690   1.335   6.918 -0.9128 -0.7052  0.0566
 1012MOL0     C39565  11.564   1.286   6.948  0.1456 -0.2403 -0.0417
 1012MOL0     O39566  11.374   1.200   7.179 -0.5681 -0.2728  0.0460
 1012MOL0     C39567  11.180   0.940   7.030  0.5198  0.4037 -1.1474
 1012MOL0     C39568  11.063   0.868   7.040 -0.1099 -0.7658  0.8779
 1012MOL0     N39569  10.251   0.777   7.433  0.8982  0.8340  0.1318
 1012MOL0     N39570  10.247   0.811   7.553  0.7571  0.7447 -0.4196
 1012MOL0     C39571  10.809   0.436   8.510 -0.0858  0.0312 -0.3589
 1012MOL0     C39572  10.889   0.340   8.571 -0.0223 -0.6875  0.1709
 1012MOL0     C39573  11.258   0.146   8.788 -0.1069 -0.2892  0.1404
 1012MOL0     C39574  11.180   0.026   8.765 -0.3394  0.4418 -0.1118
 1012MOL0     C39575  11.214  -0.099   8.811 -0.8857 -0.8680  0.5353
 1012MOL0     C39576  11.328  -0.108   8.902  0.3704 -0.0767  1.1597
 1012MOL0     O39577  11.351  -0.230   8.956  0.1470 -0.1244  0.1648
 1012MOL0     C39578  11.492  -0.261   8.960  1.1328  0.5720  0.3292
 1012MOL0     C39579  11.519  -0.418   8.960 -0.2628 -0.3749 -0.3606
 1012MOL0     C39580  11.500  -0.463   8.820 -0.0728  0.3685  0.3021
 1012MOL0     C39581  11.500  -0.623   8.827 -0.3336 -0.6630  0.0127
 1012MOL0     C39582  11.458  -0.672   8.694 -0.3194  0.0984 -0.3945
 1012MOL0     C39583  11.434  -0.701   8.580 -0.0584  1.0169 -0.2012
 1012MOL0     C39584  11.403   0.006   8.917 -0.1435 -0.4534 -0.4283
 1012MOL0     C39585  11.377   0.133   8.862  0.5987 -0.3193 -0.6107
 1012MOL0     C39586  11.473   0.243   8.899 -0.6858 -0.6412 -0.0913
 1012MOL0     H39587  11.150   0.546   8.657  1.0761  1.5506 -3.5860
 1012MOL0     H39588  11.010   0.703   8.603 -0.7947 -0.2767  1.5345
 1012MOL0     H39589  10.910   0.786   8.377  1.0902  0.1222  1.1487
 1012MOL0     H39590  10.858   0.839   8.543 -0.2751 -1.3420  0.9538
 1012MOL0     H39591  10.656   0.936   8.447  2.0377 -0.0122  1.8924
 1012MOL0     H39592  10.776   0.970   8.329 -0.7040 -0.2971 -0.5429
 1012MOL0     H39593  10.706   0.762   8.201 -0.0903 -2.0954  1.7778
 1012MOL0     H39594  10.573   0.746   8.314  0.6466 -3.5571 -3.2617
 1012MOL0     H39595  10.492   0.948   8.241  1.1388 -0.3794  1.6517
 1012MOL0     H39596  10.632   0.986   8.130  0.0645  0.3572  0.4060
 1012MOL0     H39597  10.421   0.875   8.016 -0.5531  1.1381  2.4359
 1012MOL0     H39598  10.460   0.726   8.105  3.1077 -0.5181  3.8494
 1012MOL0     H39599  10.647   0.868   7.916 -0.3219  0.5545 -3.0693
 1012MOL0     H39600  10.647   0.696   7.978 -2.5947 -1.3569  0.6738
 1012MOL0     H39601  10.476   0.630   7.848  1.2359  1.4093  3.3361
 1012MOL0     H39602  10.605   0.705   7.755  1.8488 -1.8708  1.2980
 1012MOL0     H39603  10.332   0.848   7.813 -0.4269  0.0274 -0.0299
 1012MOL0     H39604  10.475   0.927   7.750 -0.6031  0.4567  1.3085
 1012MOL0     H39605  10.571   0.765   7.506  0.4978  0.3322 -1.0921
 1012MOL0     H39606  10.356   0.749   7.192 -0.0391 -0.3337 -0.6245
 1012MOL0     H39607  10.446   0.606   7.242 -1.0500 -0.8627  0.7448
 1012MOL0     H39608  10.533   0.898   7.245 -0.3978 -0.0945  0.8182
 1012MOL0     H39609  10.639   0.775   7.305  2.3892 -0.5541 -2.8490
 1012MOL0     H39610  10.670   0.653   7.095  0.1861  0.0962 -1.5177
 1012MOL0     H39611  10.559   0.770   7.020  2.2634 -3.2678 -2.4091
 1012MOL0     H39612  10.780   0.835   6.964  1.4087  1.1289  0.2222
 1012MOL0     H39613  10.721   0.961   7.062  1.0340 -0.2338 -1.3983
 1012MOL0     H39614  10.897   1.075   7.238 -0.2595 -0.5007  0.1507
 1012MOL0     H39615  10.993   1.290   7.256  0.1827  0.8254  0.6787
 1012MOL0     H39616  11.150   1.314   7.179 -0.4963  1.5411  2.5875
 1012MOL0     H39617  11.140   1.247   7.341  0.9677  1.6806 -0.9770
 1012MOL0     H39618  11.598   0.954   6.894  3.2293 -0.6156  2.8782
 1012MOL0     H39619  11.824   1.054   6.797 -0.8463 -0.0878 -0.9519
 1012MOL0     H39620  12.022   1.129   6.775  3.5643  3.1067 -1.7928
 1012MOL0     H39621  12.106   1.256   6.857  2.8200 -3.8569 -1.7056
 1012MOL0     H39622  11.978   1.200   7.070 -1.2223 -0.9052  0.0840
 1012MOL0     H39623  11.955   1.036   7.014  1.4705 -0.5904 -0.9613
 1012MOL0     H39624  12.214   1.196   7.039  1.0765 -0.5163  0.2633
 1012MOL0     H39625  12.209   1.041   6.960  1.1786  1.0156 -0.2230
 1012MOL0     H39626  12.110   1.107   7.236  0.7046  1.4736  0.5595
 1012MOL0     H39627  12.274   1.057   7.209  0.2279  2.7912 -3.6121
 1012MOL0     H39628  12.048   0.871   7.118  0.1534  0.5151 -0.9065
 1012MOL0     H39629  12.220   0.835   7.125  1.4534 -0.8320  0.7008
 1012MOL0     H39630  12.054   0.901   7.377  2.0506  2.0380  0.7744
 1012MOL0     H39631  12.226   0.869   7.376 -0.1408 -1.5327  0.7693
 1012MOL0     H39632  12.185   0.634   7.281 -0.6241 -0.7306 -0.1485
 1012MOL0     H39633  12.017   0.672   7.255  0.5531 -0.3336 -1.1298
 1012MOL0     H39634  12.141   0.676   7.536 -1.5427  1.0587  1.0350
 1012MOL0     H39635  12.072   0.525   7.464 -0.3573 -0.4605 -1.3424
 1012MOL0     H39636  11.723   1.436   6.938  0.1501 -1.3500  1.7891
 1012MOL0     H39637  11.502   1.350   7.009  0.6673 -0.9738  1.2953
 1012MOL0     H39638  11.262   0.914   6.964  0.3638  1.6970 -1.8909
 1012MOL0     H39639  11.059   0.776   6.982 -0.9332  0.4860 -1.1522
 1012MOL0     H39640  10.718   0.407   8.460 -0.1293 -0.4648 -0.0026
 1012MOL0     H39641  10.848   0.240   8.570 -2.4447  0.1948 -2.2959
 1012MOL0     H39642  11.090   0.017   8.704 -0.2957  0.0223 -0.1123
 1012MOL0     H39643  11.152  -0.184   8.784 -0.0386 -1.1119 -0.7035
 1012MOL0     H39644  11.540  -0.213   8.874 -0.4570 -0.6040 -1.3226
 1012MOL0     H39645  11.533  -0.226   9.054 -0.2779 -1.3168  1.7364
 1012MOL0     H39646  11.461  -0.477   9.031  3.1949 -0.9967  2.2584
 1012MOL0     H39647  11.621  -0.431   8.999 -1.0033 -0.2903  1.7766
 1012MOL0     H39648  11.417  -0.416   8.766  0.9740  0.7352 -1.0571
 1012MOL0     H39649  11.589  -0.430   8.765  1.2742  1.4785  2.9878
 1012MOL0     H39650  11.439  -0.659   8.910  0.0585 -0.6302  0.3161
 1012MOL0     H39651  11.605  -0.647   8.846  0.3525  0.8521 -1.5697
 1012MOL0     H39652  11.415  -0.752   8.488  0.8397  0.8768 -0.3257
 1012MOL0     H39653  11.495  -0.001   8.975 -1.1150 -0.0194  1.2194
 1012MOL0     H39654  11.437   0.286   8.993 -0.8053 -3.1637  1.0870
 1012MOL0     H39655  11.573   0.205   8.920 -1.2961 -1.1485  2.0800
 1012MOL0     H39656  11.474   0.319   8.820  1.3098 -0.7754 -0.2305
 1013MOL0     O39657   0.873   1.188   2.088  0.4416 -0.3516 -0.4198
 1013MOL0     C39658   0.783   1.152   2.014  1.2635 -0.0844 -0.0755
 1013MOL0     O39659   0.754   1.215   1.895 -0.1887 -0.1127 -0.0767
 1013MOL0     C39660   0.846   1.300   1.846  0.9672  0.4217 -0.8240
 1013MOL0     C39661   0.794   1.427   1.818  0.3709  1.1118 -0.6434
 1013MOL0     C39662   0.879   1.534   1.777  0.2162  0.0469 -0.3962
 1013MOL0     C39663   1.016   1.509   1.764 -0.2043 -0.9941  0.4370
 1013MOL0     O39664   1.094   1.616   1.717 -0.4967 -0.5952  0.3142
 1013MOL0     C39665   1.145   1.597   1.585  0.2917  0.4661  0.3467
 1013MOL0     C39666   1.265   1.700   1.551 -0.6685  0.6881  0.1643
 1013MOL0     C39667   1.266   1.769   1.417 -0.2050 -0.5971  0.8241
 1013MOL0     C39668   1.400   1.844   1.394  0.1679  0.2805  0.2927
 1013MOL0     C39669   1.394   1.945   1.280 -0.5384  0.4921 -0.2051
 1013MOL0     C39670   1.530   2.029   1.291 -0.7058 -0.5640  0.0171
 1013MOL0     C39671   1.535   2.125   1.172 -0.3115  0.2913  0.3313
 1013MOL0     C39672   1.445   2.251   1.184 -0.3415 -0.0830 -0.1565
 1013MOL0     N39673   1.475   2.338   1.296 -0.3742 -0.4062 -0.0963
 1013MOL0     C39674   1.392   2.354   1.403 -0.6805 -0.0698  0.4507
 1013MOL0     C39675   1.448   2.447   1.476 -0.2083  0.5893 -0.7125
 1013MOL0     C39676   1.408   2.510   1.611  0.1811 -0.1867  0.4999
 1013MOL0     C39677   1.407   2.420   1.736  0.7744  0.1434  0.1268
 1013MOL0     C39678   1.540   2.417   1.809 -0.1125 -0.0458 -0.1855
 1013MOL0     C39679   1.661   2.406   1.727  0.9964 -0.2795  0.5578
 1013MOL0     O39680   1.771   2.372   1.813  0.3075  0.6224 -0.8476
 1013MOL0     C39681   1.900   2.390   1.761  0.1210 -0.8686 -0.0340
 1013MOL0     C39682   1.937   2.423   1.627  0.5490  0.0936 -0.2182
 1013MOL0     C39683   2.066   2.442   1.590 -0.1906 -0.5017  0.2339
 1013MOL0     C39684   2.091   2.485   1.449  0.0838 -0.2964  0.5006
 1013MOL0     C39685   2.171   2.435   1.681 -0.3490  0.6515  0.4766
 1013MOL0     C39686   2.313   2.452   1.648  0.3079 -0.3940  1.0846
 1013MOL0     O39687   2.388   2.398   1.736 -0.1440 -0.2461  0.0942
 1013MOL0     C39688   2.526   2.417   1.727 -0.4701 -0.8031 -0.2437
 1013MOL0     C39689   2.587   2.361   1.603  0.0821  0.3453 -0.7517
 1013MOL0     C39690   2.719   2.380   1.578 -0.6412  0.3580 -0.3412
 1013MOL0     C39691   2.802   2.447   1.679  0.0731  0.2625  0.0356
 1013MOL0     O39692   2.936   2.458   1.653  0.2932 -0.6849  0.1683
 1013MOL0     C39693   3.026   2.542   1.727  0.2863 -0.3128  0.0701
 1013MOL0     C39694   3.074   2.459   1.848 -0.4062  0.3430  0.3932
 1013MOL0     C39695   3.166   2.534   1.942 -0.0462  0.3642 -0.0954
 1013MOL0     C39696   3.273   2.448   2.009 -0.0144  0.3373 -0.8079
 1013MOL0     C39697   3.411   2.484   1.975 -0.7466  0.0908  0.3651
 1013MOL0     C39698   3.448   2.434   1.835  0.3270  0.6120 -0.5041
 1013MOL0     C39699   3.601   2.443   1.801  0.2798  0.3035  0.5117
 1013MOL0     C39700   3.630   2.395   1.660 -0.1610 -1.0492  0.1182
 1013MOL0    Cl39701   3.629   2.217   1.651 -0.1246  0.3736 -0.1473
 1013MOL0     C39702   2.741   2.502   1.792  0.1062 -0.6478 -0.0168
 1013MOL0     C39703   2.605   2.481   1.825 -0.4703  0.3593  1.8513
 1013MOL0     O39704   2.348   2.531   1.561 -0.2576 -0.6060 -0.2233
 1013MOL0     C39705   2.138   2.381   1.807 -0.3301 -0.7795  0.0565
 1013MOL0     C39706   2.005   2.363   1.843  0.0882  0.2553 -0.0767
 1013MOL0     N39707   1.566   2.495   1.413 -0.2340  0.3858 -0.4031
 1013MOL0     N39708   1.585   2.422   1.312  0.7077 -0.5506  0.1544
 1013MOL0     C39709   1.070   1.377   1.795  0.3510  0.4909 -0.8091
 1013MOL0     C39710   0.985   1.273   1.836  0.8819 -0.7770 -0.0938
 1013MOL0     C39711   0.687   1.049   2.051  0.3448  0.2670  0.4208
 1013MOL0     C39712   0.552   1.057   1.986 -0.6007 -0.5745 -0.4816
 1013MOL0     C39713   0.460   0.953   2.008 -0.1213 -0.2960  0.2456
 1013MOL0     C39714   0.485   0.853   2.098  0.3195 -0.3565  0.7351
 1013MOL0     O39715   0.390   0.755   2.120  0.1717 -0.5466 -0.5439
 1013MOL0     C39716   0.392   0.691   2.249 -1.1360 -0.5551  0.2874
 1013MOL0     C39717   0.259   0.617   2.284  0.4334  0.4315 -0.3569
 1013MOL0     C39718   0.152   0.701   2.324  0.5585 -0.4333 -0.1583
 1013MOL0     C39719   0.099   0.800   2.243 -0.3166 -0.7111 -0.5470
 1013MOL0     C39720   0.035   0.901   2.329 -0.8379 -0.0157  0.3297
 1013MOL0     C39721  -0.041   0.977   2.386 -0.2614 -0.3517  1.0123
 1013MOL0     C39722   0.609   0.851   2.165  1.0028  0.3445 -0.3765
 1013MOL0     C39723   0.705   0.950   2.145 -0.2367 -0.0503 -0.0758
 1013MOL0     C39724   0.848   0.923   2.207 -0.3717 -0.3708  0.7539
 1013MOL0     H39725   0.687   1.438   1.830  0.2769  0.8458 -1.2251
 1013MOL0     H39726   0.830   1.628   1.750 -1.9479 -1.2649 -1.2879
 1013MOL0     H39727   1.059   1.608   1.518  0.5258  0.0866 -0.0285
 1013MOL0     H39728   1.174   1.493   1.565 -1.2100 -0.0566  0.7478
 1013MOL0     H39729   1.265   1.787   1.616  2.1692  1.1434 -0.3430
 1013MOL0     H39730   1.357   1.643   1.565 -1.1252 -0.2428 -0.4500
 1013MOL0     H39731   1.258   1.704   1.330  2.8283 -0.1674  0.1073
 1013MOL0     H39732   1.181   1.838   1.409  1.2957  1.2570  0.3086
 1013MOL0     H39733   1.414   1.901   1.486 -2.1399 -1.7704  2.0268
 1013MOL0     H39734   1.483   1.777   1.368 -2.0126 -2.2371 -0.5742
 1013MOL0     H39735   1.298   1.998   1.290 -1.3434 -0.5892 -1.7687
 1013MOL0     H39736   1.380   1.897   1.183 -2.2222  0.8072 -0.1504
 1013MOL0     H39737   1.536   2.090   1.382  3.3972  3.3386 -2.4857
 1013MOL0     H39738   1.620   1.968   1.304 -0.9338 -0.3978  3.5190
 1013MOL0     H39739   1.503   2.070   1.084 -0.4070  1.3413 -0.3141
 1013MOL0     H39740   1.637   2.153   1.144 -0.9436  0.9716 -1.4352
 1013MOL0     H39741   1.452   2.316   1.096  0.0597  0.7846  0.4984
 1013MOL0     H39742   1.344   2.210   1.186  0.1604 -1.4842 -1.4819
 1013MOL0     H39743   1.296   2.306   1.419  0.3939 -2.8596 -0.7187
 1013MOL0     H39744   1.304   2.543   1.600 -0.1564 -1.7734 -1.6620
 1013MOL0     H39745   1.456   2.606   1.630 -1.9167  0.9800  0.2737
 1013MOL0     H39746   1.332   2.454   1.807  1.9365  3.4818 -0.0945
 1013MOL0     H39747   1.369   2.320   1.714  1.6069  0.3549 -2.6524
 1013MOL0     H39748   1.560   2.505   1.870  1.5264 -1.3211  1.2440
 1013MOL0     H39749   1.533   2.338   1.884  1.4810  0.2474  0.3206
 1013MOL0     H39750   1.642   2.322   1.659  1.1541 -1.3926  1.8543
 1013MOL0     H39751   1.677   2.498   1.670  0.0730 -0.2578  0.3234
 1013MOL0     H39752   1.865   2.427   1.547 -0.4121 -1.5848  0.5058
 1013MOL0     H39753   2.006   2.467   1.383 -0.5058  0.0810  1.1506
 1013MOL0     H39754   2.180   2.434   1.411  0.3069  2.3282 -3.0015
 1013MOL0     H39755   2.114   2.592   1.447 -2.8543  0.4489 -2.7421
 1013MOL0     H39756   2.515   2.313   1.538  1.2356  0.8665 -2.4978
 1013MOL0     H39757   2.767   2.357   1.484 -2.3329 -1.0556 -0.9136
 1013MOL0     H39758   3.112   2.562   1.663  1.5336  2.4155  2.3937
 1013MOL0     H39759   2.986   2.641   1.750  2.7776  1.1342 -1.3414
 1013MOL0     H39760   2.988   2.417   1.902 -1.7354 -1.0797 -2.6007
 1013MOL0     H39761   3.137   2.380   1.807  0.0360  1.7871 -1.8654
 1013MOL0     H39762   3.091   2.573   2.012 -0.0532 -0.6873  0.5055
 1013MOL0     H39763   3.218   2.617   1.893 -0.8412  1.1363  0.3454
 1013MOL0     H39764   3.246   2.342   2.003 -0.5799  0.3453  1.1230
 1013MOL0     H39765   3.261   2.465   2.116 -0.4096  4.4146 -1.3597
 1013MOL0     H39766   3.426   2.592   1.979  2.2318 -0.2736  4.0441
 1013MOL0     H39767   3.479   2.428   2.040 -1.5026 -1.1568  0.1212
 1013MOL0     H39768   3.387   2.494   1.767 -2.4490  0.7415  1.8855
 1013MOL0     H39769   3.417   2.330   1.826 -2.7197  1.4701 -1.0196
 1013MOL0     H39770   3.657   2.376   1.868 -1.8847 -0.4668  1.6662
 1013MOL0     H39771   3.629   2.548   1.814  0.8616  0.4729 -1.8061
 1013MOL0     H39772   3.732   2.428   1.640 -0.2456  0.7309  2.2871
 1013MOL0     H39773   3.566   2.437   1.582 -0.4658  0.7043  1.2862
 1013MOL0     H39774   2.801   2.550   1.868  1.1904 -0.6291 -0.8752
 1013MOL0     H39775   2.565   2.540   1.907 -1.6393 -0.2421  1.7355
 1013MOL0     H39776   2.210   2.346   1.880  1.8092  1.8883 -0.6147
 1013MOL0     H39777   1.992   2.322   1.943  1.3037  0.4880  0.1864
 1013MOL0     H39778   1.177   1.364   1.796  0.2217 -0.6345 -0.5152
 1013MOL0     H39779   1.030   1.185   1.881  0.7883 -0.1587  1.2512
 1013MOL0     H39780   0.515   1.132   1.917  1.8821 -0.1110 -1.3955
 1013MOL0     H39781   0.363   0.962   1.960  0.7723  1.9384 -1.3158
 1013MOL0     H39782   0.470   0.613   2.245  1.1974  1.7133 -2.5984
 1013MOL0     H39783   0.420   0.771   2.319 -2.0702  0.9131 -0.9738
 1013MOL0     H39784   0.272   0.547   2.367  3.0591  3.0665  1.6653
 1013MOL0     H39785   0.225   0.565   2.194 -0.7537  0.9895 -0.2436
 1013MOL0     H39786   0.058   0.650   2.348 -1.5207  2.9092 -0.4236
 1013MOL0     H39787   0.187   0.756   2.412  0.8178  1.6589 -1.4904
 1013MOL0     H39788   0.018   0.769   2.175  0.9399 -2.4090 -1.3557
 1013MOL0     H39789   0.168   0.850   2.174 -1.9417  0.5334 -1.3362
 1013MOL0     H39790  -0.116   1.038   2.431 -1.1558 -0.3349 -0.4363
 1013MOL0     H39791   0.637   0.771   2.232  2.3283 -0.0168 -1.3123
 1013MOL0     H39792   0.855   0.842   2.280 -0.9915  0.3341  1.6049
 1013MOL0     H39793   0.918   0.893   2.127  0.5182  0.7625  1.0796
 1013MOL0     H39794   0.887   1.010   2.260 -1.6885  0.9515 -0.3606
 1014MOL0     O39795   9.369   4.234   2.410  0.0014  0.7384 -0.1347
 1014MOL0     C39796   9.384   4.147   2.488 -0.8656 -0.0626  0.4828
 1014MOL0     O39797   9.295   4.058   2.531  0.5670 -0.1411  0.0778
 1014MOL0     C39798   9.162   4.061   2.495  0.2228  0.0587  0.4734
 1014MOL0     C39799   9.078   4.165   2.526  0.6506  0.3743  0.2796
 1014MOL0     C39800   8.938   4.158   2.506  0.1060  0.6864  1.1118
 1014MOL0     C39801   8.876   4.045   2.435 -0.3896 -0.5201 -0.2502
 1014MOL0     O39802   8.743   4.054   2.398  0.6218 -0.3388  0.2628
 1014MOL0     C39803   8.681   3.961   2.313 -0.1400 -0.5083  0.8627
 1014MOL0     C39804   8.535   3.996   2.318 -0.0233 -0.2306 -0.1419
 1014MOL0     C39805   8.454   3.899   2.219  0.3480 -0.6975 -0.4252
 1014MOL0     C39806   8.305   3.939   2.224  0.1621  0.1121 -0.6765
 1014MOL0     C39807   8.237   3.870   2.110 -0.6033  0.0819  0.4568
 1014MOL0     C39808   8.091   3.914   2.112 -0.0132  0.5184 -0.1175
 1014MOL0     C39809   7.989   3.829   2.050 -0.6465  0.5875 -0.6416
 1014MOL0     C39810   8.009   3.678   2.074 -0.2202 -1.4017 -0.2369
 1014MOL0     N39811   7.914   3.593   2.001  0.1638 -0.7285  0.0379
 1014MOL0     C39812   7.776   3.612   1.998  0.1440  0.2306 -0.6998
 1014MOL0     C39813   7.733   3.496   1.943 -1.0546 -0.3711 -0.1984
 1014MOL0     C39814   7.598   3.444   1.912  0.4742 -0.4725  0.5963
 1014MOL0     C39815   7.540   3.540   1.807  0.1851  0.5169 -0.1319
 1014MOL0     C39816   7.606   3.523   1.677 -0.3048 -0.7106 -0.0121
 1014MOL0     C39817   7.618   3.655   1.602  0.3311  0.1896  0.1105
 1014MOL0     O39818   7.678   3.760   1.683 -0.0409 -0.3540 -0.2590
 1014MOL0     C39819   7.813   3.777   1.657 -0.3141  0.0401 -0.6511
 1014MOL0     C39820   7.908   3.673   1.661  0.4995 -0.6027  0.7557
 1014MOL0     C39821   8.040   3.715   1.648 -0.8220  0.4630 -0.5940
 1014MOL0     C39822   8.137   3.604   1.662  0.8085  0.9824  0.6224
 1014MOL0     C39823   8.085   3.855   1.640 -0.3611  0.3911 -0.4740
 1014MOL0     C39824   8.224   3.885   1.645  0.8873 -1.3812 -0.4722
 1014MOL0     O39825   8.298   3.829   1.752 -0.5242  0.3985 -0.9712
 1014MOL0     C39826   8.421   3.884   1.780 -1.3903  0.2232  0.1808
 1014MOL0     C39827   8.452   4.017   1.783 -0.4042 -0.4530 -0.2031
 1014MOL0     C39828   8.573   4.062   1.833  0.2383 -0.2684  0.2492
 1014MOL0     C39829   8.668   3.972   1.878  0.1948  0.2705  0.2427
 1014MOL0     O39830   8.784   4.003   1.940  0.2616 -0.0352  0.0592
 1014MOL0     C39831   8.801   4.138   1.987  0.0698  0.5016  1.1845
 1014MOL0     C39832   8.945   4.157   2.066  1.0236  0.3316  0.7733
 1014MOL0     C39833   8.966   4.293   2.131 -0.0299  0.4625 -0.7297
 1014MOL0     C39834   9.109   4.320   2.184  0.3019  0.8540 -0.4219
 1014MOL0     C39835   9.128   4.462   2.221 -1.0630  0.6797  0.1470
 1014MOL0     C39836   9.044   4.507   2.346  0.4572 -0.3561 -0.0123
 1014MOL0     C39837   9.103   4.637   2.402 -0.5987 -0.0819 -0.0754
 1014MOL0     C39838   9.091   4.745   2.293  0.6346 -0.0945 -1.0011
 1014MOL0    Cl39839   9.146   4.899   2.375 -0.0830 -0.5032  0.2500
 1014MOL0     C39840   8.640   3.831   1.860 -0.8522 -0.3750 -0.3349
 1014MOL0     C39841   8.512   3.795   1.809 -0.8709  0.1756 -0.7193
 1014MOL0     O39842   8.263   3.959   1.552 -0.2563 -0.1547  0.6041
 1014MOL0     C39843   7.983   3.948   1.637  0.7522 -0.1466  0.1881
 1014MOL0     C39844   7.849   3.913   1.643  0.5265 -0.0968 -0.6724
 1014MOL0     N39845   7.849   3.421   1.904  0.5567  0.1611  0.6791
 1014MOL0     N39846   7.955   3.483   1.942  0.0123  0.7641  0.1317
 1014MOL0     C39847   8.969   3.944   2.407 -0.0128  0.2985 -0.0993
 1014MOL0     C39848   9.105   3.948   2.434  0.0091 -0.8450  0.1655
 1014MOL0     C39849   9.510   4.105   2.560 -0.8187 -0.5422 -0.5098
 1014MOL0     C39850   9.526   3.968   2.608  0.6992  0.1648 -0.7101
 1014MOL0     C39851   9.651   3.910   2.646 -0.2304  0.9614  0.6805
 1014MOL0     C39852   9.762   3.998   2.656 -0.4526  0.5179 -0.0607
 1014MOL0     O39853   9.885   3.951   2.694  0.6642 -0.5136  0.6973
 1014MOL0     C39854   9.895   3.865   2.809  0.3770  0.6020 -0.7545
 1014MOL0     C39855   9.812   3.905   2.936 -0.0429  0.2648 -0.1829
 1014MOL0     C39856   9.871   4.029   3.010  0.1481 -0.9034 -0.0262
 1014MOL0     C39857   9.779   4.056   3.133  0.9901  0.4995  0.3516
 1014MOL0     C39858   9.799   3.959   3.245  0.3659  0.3478  0.3556
 1014MOL0     C39859   9.841   3.891   3.341  0.4394 -0.0696  0.7046
 1014MOL0     C39860   9.735   4.135   2.635 -0.9366 -0.2561  0.7184
 1014MOL0     C39861   9.619   4.191   2.578 -0.0268  0.5126  0.5296
 1014MOL0     C39862   9.614   4.334   2.545  0.5341  0.4146 -0.2328
 1014MOL0     H39863   9.129   4.257   2.553 -0.0093  1.6462 -2.3762
 1014MOL0     H39864   8.875   4.246   2.518 -2.1717 -0.5897 -0.5284
 1014MOL0     H39865   8.695   3.859   2.350  0.4136 -0.6394  0.3160
 1014MOL0     H39866   8.712   3.960   2.208  2.6941 -0.7044  1.6400
 1014MOL0     H39867   8.487   4.002   2.415 -1.1768 -1.1575 -0.6382
 1014MOL0     H39868   8.531   4.093   2.268  0.3305 -0.4301 -0.5727
 1014MOL0     H39869   8.498   3.897   2.119  0.8340 -0.0038 -0.2377
 1014MOL0     H39870   8.465   3.795   2.251  2.6587  0.0579  1.5844
 1014MOL0     H39871   8.273   3.906   2.324 -0.2634  1.9317 -0.1773
 1014MOL0     H39872   8.285   4.047   2.217 -2.8956 -0.3944 -1.2238
 1014MOL0     H39873   8.253   3.762   2.122  2.6866 -0.0337 -3.0334
 1014MOL0     H39874   8.288   3.882   2.014  2.7007  1.8338  2.2710
 1014MOL0     H39875   8.063   3.913   2.218  0.5613 -2.1367  0.0922
 1014MOL0     H39876   8.082   4.016   2.075  0.7860  1.3528  1.8164
 1014MOL0     H39877   7.988   3.854   1.944  3.0259 -0.3729 -1.0380
 1014MOL0     H39878   7.892   3.858   2.092 -0.5334  1.0336 -0.6873
 1014MOL0     H39879   8.107   3.641   2.044  1.7618  0.9680  2.6813
 1014MOL0     H39880   8.002   3.667   2.183  2.4778  0.0266  0.1664
 1014MOL0     H39881   7.718   3.688   2.049  2.9235  0.2921  2.7858
 1014MOL0     H39882   7.536   3.434   2.001 -1.8194 -0.7225 -0.9462
 1014MOL0     H39883   7.623   3.346   1.869  4.4495  1.0114 -0.9464
 1014MOL0     H39884   7.432   3.524   1.803 -0.2545  2.8573  0.8601
 1014MOL0     H39885   7.553   3.641   1.847  0.8234  0.4959 -0.2792
 1014MOL0     H39886   7.704   3.476   1.681  0.1122 -0.2675 -2.7998
 1014MOL0     H39887   7.551   3.453   1.613 -0.3702 -0.1838 -0.5402
 1014MOL0     H39888   7.669   3.638   1.507  0.7351 -0.5279  0.4521
 1014MOL0     H39889   7.516   3.683   1.573 -0.2905 -2.4443 -0.5322
 1014MOL0     H39890   7.886   3.567   1.672  2.4845 -1.3743 -1.6624
 1014MOL0     H39891   8.092   3.507   1.638 -1.5028  1.7903  1.3869
 1014MOL0     H39892   8.177   3.589   1.762 -1.4145  1.6721  1.6615
 1014MOL0     H39893   8.219   3.612   1.589  0.9043 -2.5458  0.1399
 1014MOL0     H39894   8.376   4.090   1.757  1.5423  1.2758 -1.3784
 1014MOL0     H39895   8.581   4.170   1.843 -2.1182  0.1781 -1.6260
 1014MOL0     H39896   8.784   4.202   1.900  0.1558  1.2124  1.6796
 1014MOL0     H39897   8.711   4.162   2.044 -0.8228  1.6518 -0.6075
 1014MOL0     H39898   8.950   4.085   2.148 -0.9952 -0.9753 -0.1961
 1014MOL0     H39899   9.027   4.146   1.994 -0.3595 -0.7348 -0.7141
 1014MOL0     H39900   8.891   4.312   2.208 -0.3920  3.0106 -1.6079
 1014MOL0     H39901   8.949   4.370   2.055  2.9917  2.0800  0.0419
 1014MOL0     H39902   9.184   4.293   2.110  1.0110 -1.1630  0.9379
 1014MOL0     H39903   9.139   4.268   2.275  0.2201  5.1100  2.3382
 1014MOL0     H39904   9.235   4.470   2.241  0.1055 -2.2766 -3.6443
 1014MOL0     H39905   9.106   4.515   2.127  1.1270  3.7725  1.2099
 1014MOL0     H39906   9.047   4.436   2.429 -0.0352  3.0622  3.1976
 1014MOL0     H39907   8.940   4.530   2.320  1.2019  1.3592 -1.7499
 1014MOL0     H39908   9.210   4.622   2.419 -0.3940  0.7211 -0.6045
 1014MOL0     H39909   9.049   4.657   2.495  0.6552 -1.6859  1.0507
 1014MOL0     H39910   8.989   4.748   2.254  1.3959  1.5918 -3.0627
 1014MOL0     H39911   9.159   4.726   2.210  0.9482 -0.4317 -0.6717
 1014MOL0     H39912   8.717   3.757   1.880 -0.4987 -0.3556 -1.5211
 1014MOL0     H39913   8.476   3.693   1.820 -0.3141  0.0720  0.3004
 1014MOL0     H39914   8.000   4.053   1.614 -0.7075 -0.0491 -0.5900
 1014MOL0     H39915   7.769   3.987   1.640 -0.7850 -1.4391  0.1976
 1014MOL0     H39916   8.928   3.858   2.354  1.4416 -0.6275  0.2009
 1014MOL0     H39917   9.174   3.868   2.409 -0.1044 -0.8859 -0.0098
 1014MOL0     H39918   9.443   3.899   2.597  1.3869 -0.5186 -1.7179
 1014MOL0     H39919   9.672   3.805   2.665 -0.3627  0.4932 -1.5006
 1014MOL0     H39920   9.875   3.761   2.782  0.2123  0.3604  0.2501
 1014MOL0     H39921  10.002   3.864   2.832  0.3858  0.4044 -0.7957
 1014MOL0     H39922   9.813   3.819   3.003 -1.3354  1.7118  1.8341
 1014MOL0     H39923   9.709   3.926   2.906 -0.6774 -1.1163  0.9371
 1014MOL0     H39924   9.972   4.000   3.040  0.4552 -0.1792 -0.3523
 1014MOL0     H39925   9.880   4.110   2.937  0.8560 -0.0782  0.9429
 1014MOL0     H39926   9.676   4.059   3.095 -0.2880  0.6602  3.5104
 1014MOL0     H39927   9.797   4.150   3.185 -1.7109 -0.1264  2.7041
 1014MOL0     H39928   9.857   3.836   3.431  0.3346  0.2743  0.9370
 1014MOL0     H39929   9.825   4.197   2.634 -2.2233  1.7167 -1.4463
 1014MOL0     H39930   9.587   4.349   2.440  4.6981 -0.0280 -1.5584
 1014MOL0     H39931   9.530   4.371   2.605  0.4016  1.2160 -0.8946
 1014MOL0     H39932   9.710   4.384   2.561  3.1889 -4.3049  0.5668
 1015MOL0     O39933   1.161  11.311   2.274  0.0611  0.1544 -0.5827
 1015MOL0     C39934   1.070  11.391   2.269  0.4754 -0.5011  0.5068
 1015MOL0     O39935   1.051  11.508   2.350 -0.0562  1.1547  0.3916
 1015MOL0     C39936   1.144  11.560   2.433  0.0365  1.0221  0.3203
 1015MOL0     C39937   1.104  11.677   2.517  0.8706  0.3986  0.5037
 1015MOL0     C39938   1.186  11.710   2.625 -0.5656 -1.0799 -0.0097
 1015MOL0     C39939   1.305  11.648   2.656  0.2062 -0.1555  0.0740
 1015MOL0     O39940   1.376  11.685   2.771 -1.2998 -0.1659 -0.8629
 1015MOL0     C39941   1.453  11.587   2.824  0.6710  0.0551 -0.5834
 1015MOL0     C39942   1.410  11.589   2.975 -0.6245  0.6088  0.7210
 1015MOL0     C39943   1.463  11.467   3.048  0.7708  0.9045 -0.5300
 1015MOL0     C39944   1.440  11.475   3.201  0.6020  0.4586 -1.0311
 1015MOL0     C39945   1.551  11.388   3.273  0.6754 -0.0207 -0.1933
 1015MOL0     C39946   1.694  11.456   3.276 -0.2335  0.3699  0.1032
 1015MOL0     C39947   1.794  11.361   3.332 -1.0137  0.0554 -0.2376
 1015MOL0     C39948   1.844  11.245   3.248  0.1134  0.4815  0.4512
 1015MOL0     N39949   1.935  11.282   3.135 -0.1955  0.4744  0.2773
 1015MOL0     C39950   1.903  11.298   3.003 -0.8116 -0.3954 -0.2724
 1015MOL0     C39951   2.022  11.325   2.944  0.8046  0.7130  0.6042
 1015MOL0     C39952   2.045  11.346   2.800  0.0227 -0.0860  0.2967
 1015MOL0     C39953   2.122  11.467   2.763  0.1928  0.6939  0.6872
 1015MOL0     C39954   2.127  11.498   2.610  0.8840 -0.3512 -0.4568
 1015MOL0     C39955   2.195  11.628   2.579 -0.7878  0.4210  0.2273
 1015MOL0     O39956   2.104  11.731   2.606 -0.4507 -0.7731  0.3879
 1015MOL0     C39957   2.153  11.853   2.606 -0.2052 -1.0109 -0.3534
 1015MOL0     C39958   2.174  11.912   2.736  0.4409  0.3385  0.1731
 1015MOL0     C39959   2.233  12.038   2.750  0.1244 -1.4645  0.5280
 1015MOL0     C39960   2.236  12.105   2.891  0.1541  0.0747  0.5448
 1015MOL0     C39961   2.263  12.118   2.638  0.5600 -0.2172  0.3350
 1015MOL0     C39962   2.322  12.245   2.646 -0.4483 -0.3280  0.5399
 1015MOL0     O39963   2.274  12.345   2.562  0.3069 -0.0467 -0.2651
 1015MOL0     C39964   2.355  12.447   2.518  0.0596  0.8820  1.1284
 1015MOL0     C39965   2.286  12.552   2.453 -0.1129 -0.4672 -0.7343
 1015MOL0     C39966   2.370  12.657   2.405 -0.4376 -0.1562  0.4909
 1015MOL0     C39967   2.512  12.656   2.406 -0.2820 -0.2417  0.6150
 1015MOL0     O39968   2.582  12.752   2.335 -0.0443 -0.3714  0.4574
 1015MOL0     C39969   2.723  12.740   2.312 -0.2760  0.2830  0.0671
 1015MOL0     C39970   2.767  12.828   2.188  0.1981 -0.2291  0.0762
 1015MOL0     C39971   2.921  12.843   2.169 -1.2603 -0.6917  0.3355
 1015MOL0     C39972   2.957  12.970   2.092 -0.5480  0.5002 -0.0775
 1015MOL0     C39973   3.111  12.983   2.073 -0.2189 -0.3088 -0.1478
 1015MOL0     C39974   3.139  13.081   1.953 -0.4320 -0.2741 -0.8291
 1015MOL0     C39975   3.288  13.067   1.907 -0.1825  0.9240  0.2225
 1015MOL0     C39976   3.290  13.100   1.762 -0.1537  0.9860  0.4591
 1015MOL0    Cl39977   3.216  12.971   1.667 -0.1377 -0.0158  0.1008
 1015MOL0     C39978   2.571  12.543   2.468  0.1680  0.3741 -0.6726
 1015MOL0     C39979   2.499  12.441   2.520  1.4288  0.0305  0.6350
 1015MOL0     O39980   2.419  12.260   2.722 -0.0015  0.3419 -0.3670
 1015MOL0     C39981   2.223  12.066   2.511 -0.4377 -0.0600  0.1393
 1015MOL0     C39982   2.176  11.934   2.497 -1.3806 -0.9458 -0.8416
 1015MOL0     N39983   2.124  11.307   3.033  0.4936 -0.3166 -0.5956
 1015MOL0     N39984   2.068  11.277   3.148  0.3286 -0.0769 -0.0223
 1015MOL0     C39985   1.354  11.569   2.555 -0.1302  0.4139 -0.4893
 1015MOL0     C39986   1.282  11.526   2.445  0.9588  0.2857  0.9323
 1015MOL0     C39987   0.980  11.383   2.157  0.1808 -0.0032 -0.3919
 1015MOL0     C39988   0.876  11.481   2.145  0.8174  0.1009  1.0459
 1015MOL0     C39989   0.785  11.490   2.037  0.2378 -0.1970  1.5397
 1015MOL0     C39990   0.787  11.392   1.935  1.2021  0.2172  0.9960
 1015MOL0     O39991   0.691  11.403   1.838 -0.7320 -0.1953  0.3320
 1015MOL0     C39992   0.684  11.287   1.747  0.1493 -1.1506 -0.1107
 1015MOL0     C39993   0.538  11.300   1.683  0.6067 -0.7849  0.3996
 1015MOL0     C39994   0.500  11.195   1.577 -0.8120 -0.3209  0.5603
 1015MOL0     C39995   0.485  11.052   1.628 -0.8871  1.2614 -0.1089
 1015MOL0     C39996   0.446  10.963   1.524  0.3039  0.7320 -0.2909
 1015MOL0     C39997   0.415  10.890   1.431  0.1124  0.8257  0.2085
 1015MOL0     C39998   0.893  11.300   1.929 -0.8800 -0.5309  0.2554
 1015MOL0     C39999   0.993  11.298   2.034  0.1017 -1.0482  0.6760
 1015MOL0     C40000   1.103  11.189   2.019  1.0376 -0.5433  0.2621
 1015MOL0     H40001   1.010  11.731   2.513 -0.4101 -1.7238  0.0567
 1015MOL0     H40002   1.156  11.786   2.697 -3.3661 -1.9071 -0.2207
 1015MOL0     H40003   1.560  11.611   2.818  0.6625 -0.1941 -2.3056
 1015MOL0     H40004   1.427  11.488   2.785 -0.8764 -0.2774  1.1657
 1015MOL0     H40005   1.458  11.673   3.026  0.7445 -0.2879  0.9690
 1015MOL0     H40006   1.301  11.590   2.986 -0.8505  2.5252 -1.0178
 1015MOL0     H40007   1.407  11.385   3.002 -0.1846  0.6997  0.9389
 1015MOL0     H40008   1.566  11.443   3.021  0.5661 -1.9835  0.9614
 1015MOL0     H40009   1.433  11.573   3.250  0.6111 -1.5348  3.4807
 1015MOL0     H40010   1.342  11.431   3.223  1.9451 -2.7404 -0.8857
 1015MOL0     H40011   1.553  11.287   3.231 -0.7754 -0.4469  0.6941
 1015MOL0     H40012   1.520  11.382   3.378  0.1965 -1.6247 -0.3995
 1015MOL0     H40013   1.719  11.480   3.172  2.0086 -3.8511 -0.5778
 1015MOL0     H40014   1.688  11.542   3.344  2.2892  2.0967 -1.6573
 1015MOL0     H40015   1.745  11.309   3.414  0.2260  1.5562  1.5753
 1015MOL0     H40016   1.877  11.421   3.372 -2.8294  2.5084  0.1148
 1015MOL0     H40017   1.904  11.181   3.314 -1.7726  0.4573  2.2633
 1015MOL0     H40018   1.757  11.192   3.208  1.9683 -0.8933 -2.0643
 1015MOL0     H40019   1.805  11.299   2.956 -0.1506  1.1554 -1.7407
 1015MOL0     H40020   1.947  11.350   2.752  0.1316  3.3968  0.0468
 1015MOL0     H40021   2.106  11.260   2.772  2.6806  2.6416 -3.1823
 1015MOL0     H40022   2.072  11.552   2.810  0.9424 -0.1311  3.1260
 1015MOL0     H40023   2.220  11.455   2.811 -0.2225  1.4141  1.7416
 1015MOL0     H40024   2.187  11.421   2.561 -3.5305 -2.1718 -3.6373
 1015MOL0     H40025   2.027  11.508   2.565 -1.0757  0.5857  3.6065
 1015MOL0     H40026   2.287  11.637   2.638  0.2098 -3.1294 -0.5562
 1015MOL0     H40027   2.222  11.615   2.474 -1.2177  0.2192  0.1407
 1015MOL0     H40028   2.153  11.866   2.832  1.7297 -0.7845 -0.0577
 1015MOL0     H40029   2.223  12.214   2.885 -3.7471 -0.3425 -1.9277
 1015MOL0     H40030   2.333  12.079   2.935 -0.3953 -1.7259  0.7656
 1015MOL0     H40031   2.152  12.063   2.947 -1.7754 -0.3815 -2.4437
 1015MOL0     H40032   2.179  12.565   2.450 -0.1118 -0.7007 -2.4279
 1015MOL0     H40033   2.331  12.746   2.358  2.4763 -0.4704 -2.9787
 1015MOL0     H40034   2.768  12.783   2.401  1.8411 -0.3833 -0.6302
 1015MOL0     H40035   2.761  12.639   2.298  1.7724  0.9950  0.2053
 1015MOL0     H40036   2.728  12.780   2.097 -1.0741  0.2281  0.3632
 1015MOL0     H40037   2.727  12.929   2.196  3.1033  0.9972  0.0603
 1015MOL0     H40038   2.952  12.757   2.109  1.3354  0.0092  0.5407
 1015MOL0     H40039   2.979  12.843   2.262  1.1145 -0.3419 -1.0793
 1015MOL0     H40040   2.921  13.066   2.132  0.6014  0.5220  0.9919
 1015MOL0     H40041   2.914  12.962   1.992 -1.1759 -2.2162  0.3562
 1015MOL0     H40042   3.165  13.024   2.158 -2.1343 -0.0625  1.0226
 1015MOL0     H40043   3.150  12.886   2.040 -1.0528 -0.5373 -0.4933
 1015MOL0     H40044   3.124  13.185   1.983 -1.4491 -0.4614 -0.6427
 1015MOL0     H40045   3.076  13.052   1.868 -0.7888  1.3215 -1.1458
 1015MOL0     H40046   3.337  12.970   1.922 -5.2633 -1.8904  0.9945
 1015MOL0     H40047   3.341  13.145   1.961 -1.5380  2.0644 -0.0083
 1015MOL0     H40048   3.392  13.131   1.734 -0.9874  0.5240 -3.6553
 1015MOL0     H40049   3.235  13.194   1.752  1.6654  1.8282 -4.1763
 1015MOL0     H40050   2.679  12.531   2.464  0.6661  3.9721 -3.2719
 1015MOL0     H40051   2.564  12.357   2.541  1.5262 -0.5387 -1.6509
 1015MOL0     H40052   2.247  12.132   2.428  0.3540  0.3371  0.6661
 1015MOL0     H40053   2.172  11.899   2.394  0.6941 -3.5612 -0.1282
 1015MOL0     H40054   1.459  11.545   2.567 -0.2146  1.1295  2.3548
 1015MOL0     H40055   1.330  11.456   2.377 -0.1518  1.9750 -1.7122
 1015MOL0     H40056   0.854  11.542   2.231 -0.4373 -1.0137  1.5397
 1015MOL0     H40057   0.714  11.572   2.039  1.5891  1.1513 -0.9808
 1015MOL0     H40058   0.761  11.298   1.669 -2.1888  0.1422 -2.3997
 1015MOL0     H40059   0.699  11.188   1.791  0.3752 -2.4500 -2.8891
 1015MOL0     H40060   0.524  11.392   1.626 -2.1783 -1.9371 -0.9692
 1015MOL0     H40061   0.468  11.312   1.767 -0.6967 -0.3748 -0.7040
 1015MOL0     H40062   0.408  11.235   1.533 -0.6904  0.1230  0.6999
 1015MOL0     H40063   0.568  11.195   1.492 -2.5874  1.5488 -0.9754
 1015MOL0     H40064   0.406  11.042   1.703 -2.5920  0.7526 -1.8998
 1015MOL0     H40065   0.585  11.019   1.660 -0.4824  2.5593  0.0401
 1015MOL0     H40066   0.369  10.837   1.351  0.9343 -0.8616  0.7935
 1015MOL0     H40067   0.893  11.232   1.845 -3.5387  1.4802 -1.5317
 1015MOL0     H40068   1.205  11.222   2.043  0.8979  0.1320 -0.0440
 1015MOL0     H40069   1.080  11.100   2.078 -0.5417  0.5490  1.3668
 1015MOL0     H40070   1.086  11.147   1.919  0.4293 -0.7079  0.4316
 1016MOL0     O40071   8.518   5.498   5.929  0.1586  0.1812  0.4119
 1016MOL0     C40072   8.642   5.470   5.929 -0.6861 -0.6040  0.6833
 1016MOL0     O40073   8.695   5.376   6.012 -0.5857  0.0330  0.2103
 1016MOL0     C40074   8.610   5.303   6.087  0.1562  1.1310 -1.1087
 1016MOL0     C40075   8.612   5.326   6.222  1.2116  0.0799  0.0063
 1016MOL0     C40076   8.518   5.260   6.312 -0.9173  1.1598 -0.0757
 1016MOL0     C40077   8.442   5.152   6.260  0.1208  0.5684 -0.1060
 1016MOL0     O40078   8.361   5.095   6.351  0.3471  0.8207  0.1034
 1016MOL0     C40079   8.275   4.984   6.325  0.0028  1.2115 -0.3778
 1016MOL0     C40080   8.189   4.957   6.446  0.3319  0.0645  0.5726
 1016MOL0     C40081   8.137   4.817   6.447  0.0537  0.5749  0.3775
 1016MOL0     C40082   8.069   4.776   6.577  0.3850 -0.2760 -0.4294
 1016MOL0     C40083   8.047   4.625   6.578 -0.4113 -0.1671  0.0174
 1016MOL0     C40084   7.934   4.571   6.495 -0.0205  0.7142 -0.3056
 1016MOL0     C40085   7.892   4.434   6.555  0.1461  0.6903 -0.2120
 1016MOL0     C40086   7.760   4.388   6.489 -0.2090 -0.2523  0.4136
 1016MOL0     N40087   7.771   4.337   6.355 -0.6202 -0.1674  0.0779
 1016MOL0     C40088   7.849   4.237   6.305 -0.0862  0.4107  0.7099
 1016MOL0     C40089   7.792   4.210   6.182  0.5939 -0.2152 -0.0869
 1016MOL0     C40090   7.847   4.111   6.084  0.2954  0.1092 -0.5364
 1016MOL0     C40091   7.903   4.180   5.954  0.1430  0.5104 -0.7126
 1016MOL0     C40092   8.014   4.083   5.891 -0.6305 -0.5413  0.2714
 1016MOL0     C40093   8.089   4.139   5.771  0.2847 -0.3253 -0.1903
 1016MOL0     O40094   8.201   4.051   5.755  0.3291 -0.6906 -0.3304
 1016MOL0     C40095   8.193   3.960   5.651  0.5886  1.3977 -0.6697
 1016MOL0     C40096   8.152   3.983   5.516 -0.0362  1.3936  0.1811
 1016MOL0     C40097   8.146   3.879   5.419 -0.8063 -0.6508 -0.1263
 1016MOL0     C40098   8.082   3.906   5.289  0.5703 -0.2915 -0.9090
 1016MOL0     C40099   8.195   3.749   5.441 -0.0678  0.4175 -0.6714
 1016MOL0     C40100   8.191   3.637   5.342  0.2555 -0.2502  0.4471
 1016MOL0     O40101   8.227   3.513   5.385 -0.0083 -0.3580 -0.0290
 1016MOL0     C40102   8.182   3.399   5.325 -0.6483 -0.5160 -0.1553
 1016MOL0     C40103   8.043   3.370   5.304 -0.3419  0.3284  0.0488
 1016MOL0     C40104   8.011   3.245   5.244  1.2345  0.1825 -0.6521
 1016MOL0     C40105   8.105   3.154   5.199  0.0017 -0.1034 -0.5973
 1016MOL0     O40106   8.065   3.035   5.142  0.0883 -0.9656  0.2220
 1016MOL0     C40107   8.153   2.991   5.027  0.5089  0.6863  0.7179
 1016MOL0     C40108   8.070   2.875   4.971  0.3856 -0.0947  0.5944
 1016MOL0     C40109   8.142   2.782   4.873 -1.2115  0.1027  0.8332
 1016MOL0     C40110   8.048   2.692   4.794 -0.6734  0.4092  0.7133
 1016MOL0     C40111   8.137   2.580   4.721  0.4281  0.1217 -0.0798
 1016MOL0     C40112   8.040   2.511   4.617  0.3261  0.7982 -0.0155
 1016MOL0     C40113   8.092   2.358   4.605 -0.1613 -0.0354 -0.4815
 1016MOL0     C40114   8.012   2.250   4.519  0.1968 -0.6797  0.4193
 1016MOL0    Cl40115   8.037   2.086   4.591 -0.0611  0.6106 -0.0993
 1016MOL0     C40116   8.238   3.181   5.227 -0.3346  0.2374 -0.5659
 1016MOL0     C40117   8.277   3.312   5.283 -0.4521  0.3274  0.6586
 1016MOL0     O40118   8.170   3.656   5.225  0.5760  0.0532  0.2088
 1016MOL0     C40119   8.237   3.725   5.574  0.4260  0.2511 -0.7731
 1016MOL0     C40120   8.229   3.821   5.676  0.4445 -0.3921  0.4231
 1016MOL0     N40121   7.679   4.299   6.168  0.3691 -0.0230  0.2621
 1016MOL0     N40122   7.675   4.374   6.266 -0.4755  0.5492 -0.3354
 1016MOL0     C40123   8.462   5.119   6.126  0.3166  0.2546 -0.3045
 1016MOL0     C40124   8.540   5.195   6.038  1.1476  0.1311 -0.4776
 1016MOL0     C40125   8.729   5.546   5.826 -0.4554 -0.0744 -0.1937
 1016MOL0     C40126   8.677   5.596   5.709 -0.3711 -0.1164 -0.3453
 1016MOL0     C40127   8.760   5.669   5.626 -0.4337  0.5995 -0.3461
 1016MOL0     C40128   8.893   5.690   5.660  0.8171 -0.2879  0.0877
 1016MOL0     O40129   8.960   5.770   5.568  0.7837  0.1897 -0.0587
 1016MOL0     C40130   9.105   5.777   5.577  0.5817 -0.6291 -0.1391
 1016MOL0     C40131   9.153   5.886   5.674 -0.1792  0.3979 -0.6488
 1016MOL0     C40132   9.111   6.020   5.615  0.0338 -0.5291  0.2823
 1016MOL0     C40133   9.229   6.115   5.576  0.4885  0.5195  0.1559
 1016MOL0     C40134   9.320   6.051   5.479 -0.0795  1.0879 -0.3465
 1016MOL0     C40135   9.383   5.994   5.389  0.5949  0.0824  0.5251
 1016MOL0     C40136   8.948   5.644   5.771 -0.8119  0.0051  0.6789
 1016MOL0     C40137   8.869   5.572   5.860  0.4692 -0.5553  0.0608
 1016MOL0     C40138   8.928   5.543   5.996 -0.2070 -0.5741 -0.6540
 1016MOL0     H40139   8.671   5.408   6.262 -1.7913  2.5412 -0.1796
 1016MOL0     H40140   8.516   5.291   6.416  2.7112 -1.2431  0.9052
 1016MOL0     H40141   8.344   4.904   6.297 -2.0409 -0.2947 -1.3574
 1016MOL0     H40142   8.205   4.990   6.242  0.6632 -2.4159 -1.4032
 1016MOL0     H40143   8.243   4.977   6.540 -1.0149  1.2078  1.1482
 1016MOL0     H40144   8.105   5.028   6.448 -0.0517 -0.3860  1.5109
 1016MOL0     H40145   8.065   4.799   6.367 -0.6441 -1.7462  1.4440
 1016MOL0     H40146   8.227   4.757   6.430  0.5318  1.6160 -1.0213
 1016MOL0     H40147   8.124   4.808   6.666  1.7996 -1.0211 -1.0067
 1016MOL0     H40148   7.971   4.824   6.578 -0.0205 -1.0870  0.0373
 1016MOL0     H40149   8.049   4.594   6.684 -0.7960 -0.8219 -0.1569
 1016MOL0     H40150   8.144   4.596   6.537 -1.0347  2.1172 -3.4184
 1016MOL0     H40151   7.849   4.639   6.512  0.3376  1.9218 -2.8857
 1016MOL0     H40152   7.951   4.556   6.388 -1.9755  1.8094 -0.8344
 1016MOL0     H40153   7.866   4.452   6.659  1.5055  1.7325 -0.0372
 1016MOL0     H40154   7.966   4.355   6.543 -1.4135 -1.0576  1.0552
 1016MOL0     H40155   7.712   4.308   6.547 -0.1222 -1.2154 -0.8057
 1016MOL0     H40156   7.687   4.469   6.480  1.6158  1.6476  1.6713
 1016MOL0     H40157   7.934   4.192   6.357  0.5461  0.2677 -0.4140
 1016MOL0     H40158   7.770   4.043   6.047 -0.3129  0.6693 -0.3150
 1016MOL0     H40159   7.930   4.059   6.132 -1.2348  0.4609  2.7740
 1016MOL0     H40160   7.815   4.196   5.891 -2.2482 -3.3983  1.2212
 1016MOL0     H40161   7.949   4.277   5.975 -0.0679  0.4908 -0.1254
 1016MOL0     H40162   8.087   4.050   5.965  0.4018 -0.1557 -0.5656
 1016MOL0     H40163   7.962   3.997   5.847 -0.3639  0.3472 -1.8536
 1016MOL0     H40164   8.027   4.161   5.683 -2.7268  1.8821  2.2699
 1016MOL0     H40165   8.147   4.230   5.790 -1.0499  0.2870  1.1821
 1016MOL0     H40166   8.116   4.084   5.496  0.9530  1.4333 -1.6431
 1016MOL0     H40167   8.044   4.009   5.286  2.3949  0.4405 -0.2523
 1016MOL0     H40168   7.994   3.843   5.274 -1.5287  2.4946 -1.2957
 1016MOL0     H40169   8.156   3.890   5.211  2.6611  2.1939  0.4228
 1016MOL0     H40170   7.963   3.440   5.324  0.6999  0.9895  2.1772
 1016MOL0     H40171   7.908   3.211   5.235  1.6021 -0.4429 -2.8980
 1016MOL0     H40172   8.169   3.065   4.949  1.3611  0.4630  0.6663
 1016MOL0     H40173   8.254   2.956   5.051  0.2929  0.3651  1.1822
 1016MOL0     H40174   8.038   2.821   5.060 -0.4427  1.3879  1.2435
 1016MOL0     H40175   7.978   2.910   4.923  0.0723 -1.1081  0.4330
 1016MOL0     H40176   8.213   2.719   4.926  2.2488  1.6775 -1.5480
 1016MOL0     H40177   8.189   2.843   4.796 -1.3890 -2.3171 -1.3573
 1016MOL0     H40178   7.981   2.743   4.724 -0.8350 -2.3701 -1.3222
 1016MOL0     H40179   7.981   2.637   4.862 -2.6016  1.2228 -0.4622
 1016MOL0     H40180   8.223   2.614   4.663  1.0675  1.0478  1.3575
 1016MOL0     H40181   8.181   2.522   4.802 -0.1164 -0.0657  0.0864
 1016MOL0     H40182   8.048   2.571   4.526 -1.8566  4.0909  1.7517
 1016MOL0     H40183   7.937   2.516   4.655  1.3782  1.0562  3.0451
 1016MOL0     H40184   8.090   2.321   4.708  1.0320 -1.8720 -1.0799
 1016MOL0     H40185   8.196   2.358   4.571 -0.6159 -1.3196 -1.9526
 1016MOL0     H40186   8.019   2.239   4.410 -3.4507 -0.3944  0.0061
 1016MOL0     H40187   7.905   2.271   4.528  0.4554  0.6876  0.4799
 1016MOL0     H40188   8.318   3.111   5.204 -0.7036  0.0805 -1.3949
 1016MOL0     H40189   8.381   3.334   5.305  0.3222 -0.7950 -1.5335
 1016MOL0     H40190   8.283   3.631   5.603  3.3206  1.6330 -0.5516
 1016MOL0     H40191   8.259   3.792   5.776 -0.8223 -0.5415  0.7815
 1016MOL0     H40192   8.410   5.031   6.092 -2.2902  0.3159  2.9744
 1016MOL0     H40193   8.542   5.176   5.932 -4.4050 -1.8142 -0.5946
 1016MOL0     H40194   8.576   5.566   5.682 -0.9477  0.4311  1.0726
 1016MOL0     H40195   8.711   5.698   5.534  0.0767  0.3840 -0.6945
 1016MOL0     H40196   9.138   5.674   5.593 -2.7457 -1.7620  0.3330
 1016MOL0     H40197   9.134   5.809   5.476  2.5012 -0.4263  0.4471
 1016MOL0     H40198   9.261   5.900   5.677 -0.4239  3.8111 -2.7281
 1016MOL0     H40199   9.102   5.871   5.770  0.6800  0.6367 -0.1467
 1016MOL0     H40200   9.049   6.002   5.526 -0.1355  0.5679  0.1749
 1016MOL0     H40201   9.053   6.072   5.692  1.1655  0.6383  0.3750
 1016MOL0     H40202   9.295   6.132   5.661  1.1835 -0.8979 -0.0674
 1016MOL0     H40203   9.201   6.208   5.526 -0.6078 -0.1988 -0.6090
 1016MOL0     H40204   9.436   5.925   5.326  3.0303 -0.8259  3.3213
 1016MOL0     H40205   9.051   5.677   5.787  0.1922 -0.7415 -3.1845
 1016MOL0     H40206   8.966   5.441   6.008  1.7817  0.3997  2.8786
 1016MOL0     H40207   9.012   5.612   6.011  1.5199 -2.5294 -0.9146
 1016MOL0     H40208   8.856   5.566   6.076  1.5367  0.9501  0.5638
 1017MOL0     O40209   6.717   4.347   6.799 -0.0144  0.2416  0.0132
 1017MOL0     C40210   6.640   4.331   6.894  0.3927 -0.0298  0.6133
 1017MOL0     O40211   6.608   4.427   6.980  0.1580  0.9339 -0.7372
 1017MOL0     C40212   6.673   4.550   6.974  0.1939  0.1029 -0.4504
 1017MOL0     C40213   6.755   4.589   7.082  0.5912 -0.3938 -0.6985
 1017MOL0     C40214   6.836   4.697   7.079  0.2965 -0.6124  0.6279
 1017MOL0     C40215   6.828   4.785   6.967 -0.6634 -0.1893  0.5169
 1017MOL0     O40216   6.903   4.900   6.965 -1.1402  0.0192 -0.8823
 1017MOL0     C40217   6.904   4.977   6.847 -0.4635 -0.6458 -0.1152
 1017MOL0     C40218   6.996   5.093   6.876  0.2173 -1.3394  0.7033
 1017MOL0     C40219   6.998   5.193   6.753 -0.1942 -0.2710  0.2383
 1017MOL0     C40220   7.095   5.308   6.769  0.0828 -0.1981  0.1688
 1017MOL0     C40221   7.083   5.412   6.658 -0.5976  0.3287 -0.0553
 1017MOL0     C40222   7.177   5.533   6.674  0.3615  0.9430  0.0963
 1017MOL0     C40223   7.331   5.498   6.684  0.8339 -1.1703  0.2439
 1017MOL0     C40224   7.396   5.485   6.548 -0.9112 -0.2717  0.5972
 1017MOL0     N40225   7.335   5.379   6.465 -0.2225  0.0869  0.3223
 1017MOL0     C40226   7.261   5.413   6.351 -0.9034 -0.7768  0.0336
 1017MOL0     C40227   7.233   5.289   6.304  1.0748 -0.0117 -0.3106
 1017MOL0     C40228   7.153   5.266   6.176 -0.6674  0.2670 -0.8413
 1017MOL0     C40229   7.234   5.295   6.042 -0.2482  0.6208  0.3502
 1017MOL0     C40230   7.167   5.234   5.924 -0.3021  0.7590 -0.1297
 1017MOL0     C40231   7.231   5.276   5.796 -0.3625  0.8481  0.0745
 1017MOL0     O40232   7.183   5.408   5.763 -0.5498  0.0210  0.4471
 1017MOL0     C40233   7.062   5.413   5.697 -0.3952 -0.3593 -0.7314
 1017MOL0     C40234   7.017   5.354   5.581 -0.5350  0.3231  0.4409
 1017MOL0     C40235   6.884   5.370   5.540 -0.3378 -0.1351 -0.9140
 1017MOL0     C40236   6.851   5.268   5.432 -0.1924 -0.1282  0.2263
 1017MOL0     C40237   6.801   5.455   5.606  0.6259 -0.7617  0.7027
 1017MOL0     C40238   6.656   5.470   5.587 -0.7797  0.9638 -0.1402
 1017MOL0     O40239   6.581   5.504   5.698  0.1400 -0.3109  0.2180
 1017MOL0     C40240   6.452   5.535   5.672 -0.6736  0.1204 -0.4886
 1017MOL0     C40241   6.421   5.625   5.570  0.2684 -0.4916  0.8315
 1017MOL0     C40242   6.292   5.657   5.548  0.7403  0.8259  0.4451
 1017MOL0     C40243   6.183   5.602   5.625  0.5411 -0.6990  0.2929
 1017MOL0     O40244   6.055   5.630   5.597  0.2282  0.3433  0.5932
 1017MOL0     C40245   5.943   5.637   5.692 -0.2051  0.5464  0.4861
 1017MOL0     C40246   5.847   5.747   5.650 -1.0043 -0.0950 -0.8629
 1017MOL0     C40247   5.777   5.803   5.779  0.4569 -0.0996 -0.4848
 1017MOL0     C40248   5.687   5.705   5.851 -0.4852  0.5148 -0.0067
 1017MOL0     C40249   5.609   5.772   5.959 -0.1453 -0.4197  0.0072
 1017MOL0     C40250   5.491   5.863   5.923 -1.1309 -0.7776 -0.1403
 1017MOL0     C40251   5.384   5.805   5.839  0.0237  0.7145  0.6510
 1017MOL0     C40252   5.270   5.896   5.803 -0.3429  0.6691  0.4281
 1017MOL0    Cl40253   5.162   5.923   5.942 -0.0470 -0.1863 -0.0903
 1017MOL0     C40254   6.219   5.517   5.723  0.3523 -0.8053  0.4724
 1017MOL0     C40255   6.354   5.484   5.753 -0.3844  0.1322  0.2152
 1017MOL0     O40256   6.615   5.434   5.478 -0.0142  0.1433 -0.0993
 1017MOL0     C40257   6.854   5.529   5.713 -1.1667  0.6609  0.1971
 1017MOL0     C40258   6.982   5.514   5.761  0.1003 -1.2754  0.1148
 1017MOL0     N40259   7.296   5.193   6.383  0.5392 -0.3757 -0.3495
 1017MOL0     N40260   7.339   5.247   6.492  0.0607  0.0669 -0.4627
 1017MOL0     C40261   6.748   4.759   6.854  0.3180 -0.5128 -0.1830
 1017MOL0     C40262   6.664   4.641   6.859  0.2561 -0.0512 -0.3980
 1017MOL0     C40263   6.572   4.196   6.917  0.0597  0.7930 -0.9210
 1017MOL0     C40264   6.466   4.185   7.004  0.1782  0.0663 -0.4034
 1017MOL0     C40265   6.403   4.064   7.039 -0.1832  0.2700 -0.1796
 1017MOL0     C40266   6.442   3.938   6.984  0.5141  0.7666  0.2311
 1017MOL0     O40267   6.363   3.825   7.001  0.2334  0.0571  0.2240
 1017MOL0     C40268   6.412   3.727   7.092  0.6156 -0.2496 -1.1432
 1017MOL0     C40269   6.370   3.755   7.237  0.2416 -0.1356  0.8325
 1017MOL0     C40270   6.461   3.856   7.310  0.5911  0.0743  0.4320
 1017MOL0     C40271   6.390   3.894   7.440  0.7012 -0.0954 -0.8015
 1017MOL0     C40272   6.371   3.767   7.524 -0.0311 -0.2174  0.3086
 1017MOL0     C40273   6.350   3.672   7.593  0.3529 -0.3354 -0.1195
 1017MOL0     C40274   6.542   3.958   6.892 -0.0405 -0.1254 -0.1035
 1017MOL0     C40275   6.606   4.075   6.856  0.1722 -0.9011  0.1436
 1017MOL0     C40276   6.712   4.067   6.752  0.6706  0.0710  0.1127
 1017MOL0     H40277   6.755   4.519   7.165 -6.0925 -1.1067 -0.7681
 1017MOL0     H40278   6.902   4.715   7.163 -0.3578 -1.5169  1.3499
 1017MOL0     H40279   6.808   5.023   6.821  0.4034  2.1503  1.2070
 1017MOL0     H40280   6.932   4.911   6.765 -2.0345 -2.5485  0.7751
 1017MOL0     H40281   6.962   5.157   6.958  0.2760  0.0661 -0.3304
 1017MOL0     H40282   7.101   5.067   6.890  0.9415  1.1110  0.3488
 1017MOL0     H40283   7.033   5.138   6.665  2.3927  1.6830 -0.0869
 1017MOL0     H40284   6.897   5.234   6.742 -0.4819 -0.2416  2.5256
 1017MOL0     H40285   7.080   5.344   6.871 -0.4294 -0.0742  0.0503
 1017MOL0     H40286   7.197   5.268   6.774  1.0078  1.0783 -4.1441
 1017MOL0     H40287   6.981   5.449   6.662  0.0870  2.2634  2.9042
 1017MOL0     H40288   7.092   5.368   6.559  0.3661 -1.2089  0.6635
 1017MOL0     H40289   7.162   5.599   6.588 -1.2537  0.0329 -0.3542
 1017MOL0     H40290   7.142   5.573   6.770 -2.7939  0.3641 -0.7062
 1017MOL0     H40291   7.335   5.403   6.739 -0.1566 -1.2827  0.1373
 1017MOL0     H40292   7.379   5.578   6.742 -0.2225 -2.3731  2.9785
 1017MOL0     H40293   7.385   5.582   6.500 -1.4683 -0.4181  0.4160
 1017MOL0     H40294   7.503   5.469   6.568 -0.7911 -0.4541 -0.1631
 1017MOL0     H40295   7.228   5.510   6.315  0.1858  0.0767  1.2388
 1017MOL0     H40296   7.063   5.328   6.180 -0.9476 -0.2012  1.6236
 1017MOL0     H40297   7.130   5.159   6.174 -0.3656  0.1530  0.6863
 1017MOL0     H40298   7.241   5.403   6.032 -2.5044  0.8115  0.2819
 1017MOL0     H40299   7.329   5.241   6.055 -0.7593 -0.9352 -1.7921
 1017MOL0     H40300   7.180   5.125   5.929 -0.4860  0.7300 -0.3066
 1017MOL0     H40301   7.059   5.250   5.915  0.1510  2.9977 -3.1263
 1017MOL0     H40302   7.340   5.276   5.802 -0.0813 -2.8895 -1.7859
 1017MOL0     H40303   7.214   5.219   5.704  1.3333  1.5213 -0.6984
 1017MOL0     H40304   7.093   5.292   5.535  0.5336 -1.4835  4.2829
 1017MOL0     H40305   6.941   5.217   5.398  0.5372  0.2201  1.5648
 1017MOL0     H40306   6.800   5.317   5.348 -0.0839 -0.6477 -0.1432
 1017MOL0     H40307   6.787   5.195   5.482 -1.5537  1.1156  0.3734
 1017MOL0     H40308   6.501   5.670   5.511  0.9660  0.8464  2.7175
 1017MOL0     H40309   6.261   5.734   5.477 -2.7899  0.6302  1.5492
 1017MOL0     H40310   5.893   5.540   5.702  1.6331 -0.3285  2.0015
 1017MOL0     H40311   5.982   5.652   5.793 -0.2474 -0.8601  0.7266
 1017MOL0     H40312   5.910   5.826   5.609 -0.3709 -0.4609 -0.6198
 1017MOL0     H40313   5.777   5.700   5.581  0.8955 -2.3676 -1.4091
 1017MOL0     H40314   5.714   5.891   5.760  1.2879  1.2729  2.5396
 1017MOL0     H40315   5.850   5.835   5.853  0.7161 -1.1255 -0.2742
 1017MOL0     H40316   5.746   5.621   5.886  0.1182  0.0656 -1.9907
 1017MOL0     H40317   5.607   5.666   5.786  1.3199 -1.0719 -1.3734
 1017MOL0     H40318   5.559   5.692   6.016 -3.8852  0.8187 -1.2259
 1017MOL0     H40319   5.667   5.833   6.029 -0.7026  0.3128 -0.1571
 1017MOL0     H40320   5.536   5.944   5.865 -0.4524 -0.8929  0.2132
 1017MOL0     H40321   5.450   5.900   6.017 -0.0584  0.9084 -0.2959
 1017MOL0     H40322   5.335   5.722   5.891  0.4326  1.9289  3.1083
 1017MOL0     H40323   5.420   5.773   5.741  0.1693 -1.4293  1.3493
 1017MOL0     H40324   5.212   5.842   5.728  1.3513 -1.8791  0.8163
 1017MOL0     H40325   5.306   5.993   5.769 -3.0497  2.6356  2.6568
 1017MOL0     H40326   6.146   5.468   5.787 -0.0186 -1.9669 -0.7865
 1017MOL0     H40327   6.377   5.420   5.838 -0.8270  1.3227  1.2695
 1017MOL0     H40328   6.786   5.600   5.760 -1.5430  0.9465 -0.7520
 1017MOL0     H40329   7.010   5.554   5.858  1.6234 -0.6641 -0.5373
 1017MOL0     H40330   6.736   4.832   6.775 -0.4743 -0.0184  0.3800
 1017MOL0     H40331   6.604   4.627   6.770 -3.8297 -1.4452  2.2596
 1017MOL0     H40332   6.422   4.275   7.045 -1.2633  0.4582 -2.5953
 1017MOL0     H40333   6.321   4.069   7.109 -0.8955  0.0068 -0.9727
 1017MOL0     H40334   6.380   3.624   7.071  2.9851 -0.5066 -4.3414
 1017MOL0     H40335   6.521   3.741   7.095  0.3202  2.6230 -1.0718
 1017MOL0     H40336   6.380   3.659   7.289  1.3749 -0.7977 -0.5177
 1017MOL0     H40337   6.265   3.780   7.247  0.6999  2.7397 -0.4610
 1017MOL0     H40338   6.552   3.809   7.347  0.3087  1.4696  3.1821
 1017MOL0     H40339   6.487   3.943   7.247 -0.3543 -1.9280 -2.9855
 1017MOL0     H40340   6.289   3.935   7.425 -2.3399 -4.3775  4.3598
 1017MOL0     H40341   6.446   3.973   7.491 -0.5087  2.0735 -2.6455
 1017MOL0     H40342   6.342   3.578   7.645 -0.4322 -0.3947 -0.3388
 1017MOL0     H40343   6.561   3.869   6.832  2.9010  0.6561 -0.4710
 1017MOL0     H40344   6.679   4.120   6.661  0.9755  0.0840  0.0086
 1017MOL0     H40345   6.795   4.128   6.789  0.0144  0.7298  0.5344
 1017MOL0     H40346   6.736   3.964   6.725 -1.2085  0.4002 -3.4119
 1018MOL0     O40347   8.494   7.129  10.295  0.0274 -0.1453  0.8029
 1018MOL0     C40348   8.490   7.211  10.208  0.0749 -0.3766  0.3989
 1018MOL0     O40349   8.401   7.209  10.103  0.0809 -1.0935  0.0938
 1018MOL0     C40350   8.338   7.097  10.075  0.5689  0.4290  0.3481
 1018MOL0     C40351   8.398   6.976  10.033  0.3971  0.1953 -0.5897
 1018MOL0     C40352   8.314   6.866   9.997  0.3225  0.6987  0.0803
 1018MOL0     C40353   8.170   6.864   9.995 -0.4700 -0.3561  0.3118
 1018MOL0     O40354   8.112   6.748   9.953 -0.0311 -0.1710  0.5630
 1018MOL0     C40355   7.974   6.756   9.919  0.3767  0.0077  0.4690
 1018MOL0     C40356   7.947   6.608   9.891 -0.6491  0.1185 -0.0751
 1018MOL0     C40357   7.801   6.586   9.879 -0.3477  1.0170 -0.3111
 1018MOL0     C40358   7.757   6.441   9.839  0.4203  0.0886  0.7928
 1018MOL0     C40359   7.742   6.422   9.683  0.6243  0.6907 -0.1084
 1018MOL0     C40360   7.653   6.307   9.642 -1.0518  0.0608  0.0344
 1018MOL0     C40361   7.707   6.170   9.671 -0.2023  0.3327 -0.6287
 1018MOL0     C40362   7.621   6.057   9.606 -0.0366 -0.2684 -0.2621
 1018MOL0     N40363   7.690   5.927   9.609 -0.3022  0.5142  0.0527
 1018MOL0     C40364   7.657   5.820   9.541  0.2081 -0.2364 -1.0793
 1018MOL0     C40365   7.733   5.718   9.592  1.2333  0.0803 -1.4155
 1018MOL0     C40366   7.732   5.571   9.548 -0.4957 -1.0157  0.2655
 1018MOL0     C40367   7.722   5.554   9.392 -1.0254  0.5395 -0.4104
 1018MOL0     C40368   7.869   5.578   9.321  0.1231 -0.4593  0.3917
 1018MOL0     C40369   7.966   5.487   9.378 -0.7094  0.5291 -0.0581
 1018MOL0     O40370   8.041   5.548   9.485  0.2634  0.1629 -0.5472
 1018MOL0     C40371   8.170   5.520   9.502 -0.2407  0.0853 -0.0951
 1018MOL0     C40372   8.243   5.626   9.560  0.0401  0.6223  0.5334
 1018MOL0     C40373   8.388   5.606   9.579  0.4268  0.0871 -1.1043
 1018MOL0     C40374   8.457   5.735   9.629 -0.6161  0.5863  0.1766
 1018MOL0     C40375   8.450   5.483   9.540 -0.2587 -0.3668  0.3780
 1018MOL0     C40376   8.594   5.456   9.538  0.0470 -0.1522  0.6052
 1018MOL0     O40377   8.636   5.333   9.559  1.1465  0.1780 -0.2048
 1018MOL0     C40378   8.772   5.295   9.536  0.8906  0.0897  1.0490
 1018MOL0     C40379   8.874   5.306   9.631  0.5465  1.0959 -0.2149
 1018MOL0     C40380   9.000   5.249   9.610 -0.3167 -0.6207  0.8437
 1018MOL0     C40381   9.040   5.191   9.485  0.6117 -0.2165 -0.6377
 1018MOL0     O40382   9.174   5.151   9.486  0.0962  0.2007 -0.6418
 1018MOL0     C40383   9.241   5.137   9.358  0.0773 -0.3891  0.0228
 1018MOL0     C40384   9.249   5.283   9.301  0.4792  0.3082 -0.6804
 1018MOL0     C40385   9.329   5.280   9.172 -0.0718 -0.2438 -0.6517
 1018MOL0     C40386   9.303   5.408   9.085  0.0231  0.4802  0.0758
 1018MOL0     C40387   9.386   5.406   8.954  1.1909  0.2286  0.6071
 1018MOL0     C40388   9.368   5.286   8.861 -0.9621  0.2493  0.5030
 1018MOL0     C40389   9.461   5.308   8.736 -0.5508 -0.6102 -0.0087
 1018MOL0     C40390   9.385   5.377   8.626  0.0343  0.2536  0.9035
 1018MOL0    Cl40391   9.271   5.271   8.535  0.3222 -0.2895  0.8676
 1018MOL0     C40392   8.942   5.190   9.385 -0.0299  0.2852  0.2220
 1018MOL0     C40393   8.810   5.245   9.412 -0.3368 -0.3357  0.3892
 1018MOL0     O40394   8.669   5.551   9.514 -0.3110 -0.8850  0.5135
 1018MOL0     C40395   8.366   5.382   9.488  0.1377  0.2766 -0.8583
 1018MOL0     C40396   8.235   5.403   9.463  0.8385  0.8118 -0.0333
 1018MOL0     N40397   7.816   5.773   9.694  0.2101 -0.1322 -1.1552
 1018MOL0     N40398   7.776   5.894   9.707  0.5242  0.2272 -0.1004
 1018MOL0     C40399   8.118   6.990  10.028  0.8054  0.2277 -0.3224
 1018MOL0     C40400   8.196   7.101  10.054 -0.2086  0.0281 -0.6853
 1018MOL0     C40401   8.576   7.330  10.212  0.1276  0.6582 -0.2862
 1018MOL0     C40402   8.597   7.395  10.088  0.2325  0.1184 -0.4703
 1018MOL0     C40403   8.680   7.510  10.077 -0.6553  0.9464  0.2484
 1018MOL0     C40404   8.736   7.563  10.196 -0.5614  0.0631 -0.1035
 1018MOL0     O40405   8.802   7.680  10.178  0.3506 -0.3503  0.4693
 1018MOL0     C40406   8.867   7.749  10.283 -0.3970  0.3746  0.1379
 1018MOL0     C40407   8.970   7.850  10.238  0.0334 -0.1406 -0.1881
 1018MOL0     C40408   8.924   7.973  10.153  1.1160  0.3793 -0.6102
 1018MOL0     C40409   9.037   8.082  10.134 -0.7955  0.3423  0.0051
 1018MOL0     C40410   9.142   8.019  10.060 -0.1236  0.5793  0.1195
 1018MOL0     C40411   9.245   7.964  10.020 -0.1277  0.1534  0.3099
 1018MOL0     C40412   8.713   7.498  10.321 -0.2011 -0.1605  0.5846
 1018MOL0     C40413   8.640   7.380  10.323  1.2214  0.1688 -0.8102
 1018MOL0     C40414   8.605   7.333  10.461  0.1193 -0.4424  0.0268
 1018MOL0     H40415   8.506   6.977  10.031  0.4131 -0.9603 -1.4074
 1018MOL0     H40416   8.365   6.777   9.964  3.0873  2.6098 -1.1805
 1018MOL0     H40417   7.965   6.817   9.829 -1.0016  1.6640  1.6755
 1018MOL0     H40418   7.918   6.806   9.998 -0.5240 -1.3663  0.7289
 1018MOL0     H40419   8.000   6.584   9.799 -0.4087  1.7848 -0.3931
 1018MOL0     H40420   7.974   6.549   9.980 -1.4919 -0.8197 -0.4145
 1018MOL0     H40421   7.752   6.615   9.973 -1.4850  1.7034 -1.1006
 1018MOL0     H40422   7.771   6.657   9.801  1.6533  2.6479  0.3007
 1018MOL0     H40423   7.830   6.373   9.884  1.2114 -1.7312 -2.7812
 1018MOL0     H40424   7.656   6.419   9.876 -1.1776  1.4536 -2.3822
 1018MOL0     H40425   7.845   6.419   9.645  1.7011  0.4861  2.5903
 1018MOL0     H40426   7.707   6.519   9.647 -0.9338  1.8954  4.0404
 1018MOL0     H40427   7.554   6.316   9.688 -2.4371 -2.1409 -2.2630
 1018MOL0     H40428   7.649   6.325   9.534 -2.3863  1.6414  0.3053
 1018MOL0     H40429   7.718   6.152   9.779  0.6544 -0.0184 -0.7633
 1018MOL0     H40430   7.805   6.158   9.624 -1.0516 -0.2067 -2.3398
 1018MOL0     H40431   7.529   6.037   9.661  0.5587  1.9308  1.7016
 1018MOL0     H40432   7.591   6.085   9.504  1.2535  0.5336 -0.4481
 1018MOL0     H40433   7.574   5.804   9.472  0.3718 -1.4688 -1.0230
 1018MOL0     H40434   7.644   5.518   9.587 -3.3515  2.1890 -1.3089
 1018MOL0     H40435   7.824   5.522   9.583  1.2490  0.9779 -1.2732
 1018MOL0     H40436   7.684   5.453   9.372 -0.0725  0.0902 -0.0252
 1018MOL0     H40437   7.646   5.617   9.345 -0.1162  1.2772 -0.9364
 1018MOL0     H40438   7.841   5.545   9.220 -2.9271  2.5219  0.0822
 1018MOL0     H40439   7.900   5.682   9.332 -2.3130  0.2425  1.2176
 1018MOL0     H40440   7.921   5.399   9.426 -0.8418  1.9015  2.4948
 1018MOL0     H40441   8.024   5.451   9.293 -0.2268  0.4405  0.3020
 1018MOL0     H40442   8.187   5.711   9.600 -1.8111  1.2390 -3.0000
 1018MOL0     H40443   8.515   5.719   9.721 -3.0198 -3.5038  1.2270
 1018MOL0     H40444   8.386   5.814   9.655  1.9215  2.7733  0.9799
 1018MOL0     H40445   8.532   5.772   9.558  0.6074 -2.4168 -0.2299
 1018MOL0     H40446   8.847   5.344   9.729 -2.3825  1.2517 -0.9915
 1018MOL0     H40447   9.065   5.258   9.697  0.5730  3.2074 -0.0482
 1018MOL0     H40448   9.342   5.103   9.379  0.3457  1.5338  2.1835
 1018MOL0     H40449   9.189   5.070   9.288  1.2212 -0.6271 -0.6190
 1018MOL0     H40450   9.149   5.313   9.269  0.5500 -0.1119 -1.3174
 1018MOL0     H40451   9.291   5.356   9.370  1.4182 -0.4539 -0.4178
 1018MOL0     H40452   9.311   5.189   9.114  3.5245 -1.9957  0.6709
 1018MOL0     H40453   9.432   5.266   9.207 -0.6219 -0.5414  0.9169
 1018MOL0     H40454   9.319   5.493   9.151 -2.3801  1.8932 -1.0075
 1018MOL0     H40455   9.198   5.412   9.053 -0.0396  1.3614  0.3662
 1018MOL0     H40456   9.361   5.491   8.890  2.1797  0.6768  0.8032
 1018MOL0     H40457   9.491   5.413   8.983  1.4420 -3.9329  1.2671
 1018MOL0     H40458   9.265   5.261   8.835 -1.1092 -0.6594  1.8665
 1018MOL0     H40459   9.410   5.202   8.917  1.2080  1.8576  1.4558
 1018MOL0     H40460   9.502   5.212   8.701 -1.1152 -0.5752 -0.7809
 1018MOL0     H40461   9.545   5.369   8.768  0.0970 -1.6645  0.3689
 1018MOL0     H40462   9.463   5.410   8.556  0.5123  0.4667  1.5275
 1018MOL0     H40463   9.332   5.465   8.663  0.7362  2.1520 -2.2573
 1018MOL0     H40464   8.967   5.146   9.290 -2.4668  1.4258 -1.0317
 1018MOL0     H40465   8.733   5.254   9.335  0.1833 -2.2323 -0.4138
 1018MOL0     H40466   8.404   5.288   9.448 -3.1478  0.1822 -4.2858
 1018MOL0     H40467   8.178   5.321   9.422  0.6279  1.3160 -0.7786
 1018MOL0     H40468   8.013   7.017  10.025  0.3265 -1.1410  1.7693
 1018MOL0     H40469   8.142   7.194  10.066 -3.0055 -1.3960 -1.3331
 1018MOL0     H40470   8.544   7.366   9.998 -3.1421 -1.8750  1.9337
 1018MOL0     H40471   8.683   7.556   9.979  0.1258 -2.0574 -1.2625
 1018MOL0     H40472   8.794   7.784  10.357  1.5818 -0.2575  2.5375
 1018MOL0     H40473   8.927   7.676  10.339  1.3583 -0.1793 -2.3060
 1018MOL0     H40474   9.045   7.788  10.188 -0.4309  0.4144 -1.6099
 1018MOL0     H40475   9.015   7.893  10.328 -2.6327 -0.0044  1.1696
 1018MOL0     H40476   8.872   7.943  10.061 -1.8650 -0.6117  1.2502
 1018MOL0     H40477   8.845   8.024  10.210 -0.3176 -0.5368 -1.6999
 1018MOL0     H40478   9.076   8.125  10.227 -0.8496  4.6741 -1.7512
 1018MOL0     H40479   8.993   8.167  10.081 -1.0103  1.6996  2.2075
 1018MOL0     H40480   9.332   7.927   9.968 -2.4594  0.3339 -4.2159
 1018MOL0     H40481   8.733   7.550  10.414  0.4178 -0.5273  0.6585
 1018MOL0     H40482   8.510   7.384  10.481  0.8388  0.4210  1.3690
 1018MOL0     H40483   8.606   7.224  10.475  1.9659 -0.4942 -0.3326
 1018MOL0     H40484   8.684   7.381  10.519 -0.3598 -0.2108  0.4908
 1019MOL0     O40485   2.939   9.373   4.420 -0.2196  0.0712 -0.0793
 1019MOL0     C40486   2.982   9.342   4.306  0.4365  0.0575 -0.0436
 1019MOL0     O40487   3.086   9.400   4.255 -0.9648  0.2015 -0.2634
 1019MOL0     C40488   3.207   9.439   4.326 -0.0061  0.0148  0.7849
 1019MOL0     C40489   3.300   9.504   4.245  0.3433  0.2616  0.0446
 1019MOL0     C40490   3.417   9.548   4.300 -0.1077 -0.2533 -0.7954
 1019MOL0     C40491   3.448   9.535   4.434  0.0733 -0.6965 -0.3153
 1019MOL0     O40492   3.569   9.587   4.476 -0.0123 -0.4024  0.4232
 1019MOL0     C40493   3.614   9.539   4.604 -0.7039 -0.7681  0.6525
 1019MOL0     C40494   3.732   9.630   4.637 -0.1047 -0.4148 -0.2130
 1019MOL0     C40495   3.848   9.623   4.539  0.2677  0.4576  0.8949
 1019MOL0     C40496   3.944   9.507   4.555  0.3781  0.6860  0.2460
 1019MOL0     C40497   4.049   9.543   4.658  0.4957 -0.1210  0.2608
 1019MOL0     C40498   4.118   9.418   4.713  0.6231 -0.0940  0.9649
 1019MOL0     C40499   4.234   9.441   4.806 -0.3281  0.0796 -0.3819
 1019MOL0     C40500   4.342   9.512   4.727 -0.1545  0.3453  0.4280
 1019MOL0     N40501   4.468   9.500   4.798 -0.3900  0.1702 -0.4877
 1019MOL0     C40502   4.527   9.381   4.838 -0.5454 -0.8593  1.0108
 1019MOL0     C40503   4.634   9.422   4.910  0.6971  0.5464  0.1305
 1019MOL0     C40504   4.728   9.334   4.979 -0.5231 -0.1632  0.2762
 1019MOL0     C40505   4.858   9.310   4.901  0.6867  0.6566 -0.1230
 1019MOL0     C40506   4.952   9.243   4.990 -0.1486 -0.7262 -0.8050
 1019MOL0     C40507   5.083   9.216   4.912  0.7050  0.1462 -0.2308
 1019MOL0     O40508   5.165   9.123   4.975 -0.2086  0.6942  0.2890
 1019MOL0     C40509   5.299   9.159   4.973 -0.0644  0.6111 -0.2515
 1019MOL0     C40510   5.362   9.226   5.082 -0.0955  0.3861  0.4253
 1019MOL0     C40511   5.492   9.272   5.086 -1.0022  0.0005 -0.5187
 1019MOL0     C40512   5.537   9.361   5.202  1.0259 -0.6788  0.4188
 1019MOL0     C40513   5.569   9.251   4.966  0.4957  1.3222 -0.1164
 1019MOL0     C40514   5.708   9.304   4.949 -0.1159  0.5684 -0.0439
 1019MOL0     O40515   5.745   9.334   4.822  0.5132  0.7167  0.1242
 1019MOL0     C40516   5.869   9.385   4.808 -0.7874  0.3528  0.0349
 1019MOL0     C40517   5.890   9.522   4.799  0.4367  0.1988  0.5852
 1019MOL0     C40518   6.021   9.574   4.790 -0.1378  0.6206 -0.2946
 1019MOL0     C40519   6.132   9.483   4.797 -0.8556 -1.2531  0.0501
 1019MOL0     O40520   6.255   9.544   4.790  0.9901 -0.3783 -0.1762
 1019MOL0     C40521   6.367   9.502   4.869 -0.2932  0.1226  0.2338
 1019MOL0     C40522   6.395   9.588   4.996 -0.1280 -1.0054  0.0157
 1019MOL0     C40523   6.404   9.736   4.944 -0.2675  0.0461 -0.5021
 1019MOL0     C40524   6.470   9.821   5.049  0.6317 -0.0075 -0.5145
 1019MOL0     C40525   6.507   9.960   4.992 -0.1758 -0.5046  0.3654
 1019MOL0     C40526   6.568  10.048   5.104 -0.1357 -0.2625 -0.8991
 1019MOL0     C40527   6.556  10.192   5.060  0.1897  0.2706  0.3943
 1019MOL0     C40528   6.634  10.301   5.139 -0.1918 -0.2048  0.2219
 1019MOL0    Cl40529   6.809  10.243   5.134  0.1525  0.8457 -0.2872
 1019MOL0     C40530   6.111   9.342   4.798 -0.8125 -0.2536 -0.5541
 1019MOL0     C40531   5.973   9.296   4.808  0.7877 -0.2209 -0.3773
 1019MOL0     O40532   5.780   9.318   5.047  0.0057  0.4772 -0.2043
 1019MOL0     C40533   5.514   9.184   4.863  0.4853  0.0095  0.0402
 1019MOL0     C40534   5.379   9.152   4.860  0.7769  0.3724  0.3998
 1019MOL0     N40535   4.638   9.553   4.909  0.6530 -0.0074  0.2892
 1019MOL0     N40536   4.536   9.604   4.848 -0.1128 -0.6497 -0.2041
 1019MOL0     C40537   3.357   9.470   4.516 -0.1289  0.8453 -0.3526
 1019MOL0     C40538   3.234   9.422   4.458  0.1848  0.0940 -0.3490
 1019MOL0     C40539   2.916   9.246   4.221  0.3314 -0.1696  0.6988
 1019MOL0     C40540   2.951   9.247   4.084  0.1236  0.7274  0.8137
 1019MOL0     C40541   2.886   9.168   3.985  0.3503  0.5372 -0.2855
 1019MOL0     C40542   2.784   9.074   4.015  0.4107  0.0396 -1.3796
 1019MOL0     O40543   2.696   9.008   3.936  0.1789 -0.1691 -0.4401
 1019MOL0     C40544   2.697   9.041   3.791  0.0256 -0.9633 -0.1387
 1019MOL0     C40545   2.802   8.955   3.717 -0.3781 -0.3673 -0.3620
 1019MOL0     C40546   2.732   8.853   3.635  0.0777  0.0147  0.2507
 1019MOL0     C40547   2.661   8.755   3.725 -1.0626  0.6054 -0.6817
 1019MOL0     C40548   2.574   8.670   3.652  0.1236  0.0541 -0.2647
 1019MOL0     C40549   2.515   8.594   3.583 -0.3623  0.3450 -0.4840
 1019MOL0     C40550   2.743   9.072   4.151 -0.3122 -0.0959 -0.7631
 1019MOL0     C40551   2.806   9.159   4.251 -1.1835  0.4989  0.0263
 1019MOL0     C40552   2.753   9.151   4.385 -0.6737 -0.8167 -0.8692
 1019MOL0     H40553   3.273   9.517   4.141  0.1423  1.1857  0.1995
 1019MOL0     H40554   3.481   9.614   4.243 -1.7454  3.0410  0.9109
 1019MOL0     H40555   3.655   9.439   4.593 -2.0453 -1.3381  0.5759
 1019MOL0     H40556   3.541   9.548   4.685 -2.4496 -0.9808 -0.8224
 1019MOL0     H40557   3.707   9.735   4.653  1.4521 -0.1827  0.8453
 1019MOL0     H40558   3.770   9.595   4.733  0.9794  2.1470  0.3518
 1019MOL0     H40559   3.811   9.620   4.436  1.0351 -3.0410  0.6117
 1019MOL0     H40560   3.912   9.711   4.553 -0.8758  1.0851  2.5061
 1019MOL0     H40561   3.883   9.418   4.573 -1.1819  1.6865  0.0949
 1019MOL0     H40562   3.999   9.498   4.460  2.0765  1.8856  1.0652
 1019MOL0     H40563   4.014   9.609   4.738  1.5663 -0.9765  1.4761
 1019MOL0     H40564   4.133   9.592   4.607  0.9419 -0.4788  0.6436
 1019MOL0     H40565   4.034   9.360   4.752 -0.9563  0.8622 -0.8236
 1019MOL0     H40566   4.164   9.367   4.628 -1.3313  1.0341 -0.8791
 1019MOL0     H40567   4.280   9.357   4.859  1.0038 -0.1794 -1.8676
 1019MOL0     H40568   4.188   9.498   4.887 -1.1351 -3.8535  2.1933
 1019MOL0     H40569   4.370   9.459   4.635 -1.0274  0.3581  0.1508
 1019MOL0     H40570   4.317   9.614   4.695 -1.0808 -0.3067 -1.0157
 1019MOL0     H40571   4.513   9.276   4.814  1.7956 -1.1180  0.5286
 1019MOL0     H40572   4.689   9.235   5.002  2.3896 -1.7129 -0.9037
 1019MOL0     H40573   4.744   9.390   5.072  1.1921  2.6759 -1.5749
 1019MOL0     H40574   4.837   9.255   4.808 -3.8813  4.1986 -1.6162
 1019MOL0     H40575   4.898   9.403   4.860  0.3277 -0.1842 -2.5242
 1019MOL0     H40576   4.969   9.305   5.079 -0.7151  0.2169 -1.3358
 1019MOL0     H40577   4.902   9.149   5.013 -1.0382  0.3118  1.9706
 1019MOL0     H40578   5.061   9.192   4.807 -1.6297  0.9858  0.0125
 1019MOL0     H40579   5.128   9.315   4.911 -0.3733  0.6494 -0.0933
 1019MOL0     H40580   5.303   9.245   5.171 -2.4860  2.3450 -1.4579
 1019MOL0     H40581   5.566   9.460   5.167 -0.0691 -0.0516  1.2308
 1019MOL0     H40582   5.627   9.317   5.245  0.7887 -1.9514 -0.3282
 1019MOL0     H40583   5.450   9.374   5.268  1.7640  2.4180  0.9051
 1019MOL0     H40584   5.802   9.584   4.815 -0.5789 -1.0758  0.1345
 1019MOL0     H40585   6.045   9.680   4.800  1.7921  0.0845  1.2131
 1019MOL0     H40586   6.350   9.397   4.896  0.5051  0.1645  0.9191
 1019MOL0     H40587   6.458   9.509   4.809  0.1205  0.6263  0.9154
 1019MOL0     H40588   6.304   9.582   5.055  0.8630 -0.4761  1.6775
 1019MOL0     H40589   6.477   9.549   5.057 -0.0510 -0.3143  0.3680
 1019MOL0     H40590   6.305   9.768   4.910 -1.1860  0.1980  2.0921
 1019MOL0     H40591   6.463   9.738   4.853  2.9767 -1.8737  1.3568
 1019MOL0     H40592   6.561   9.774   5.087  0.6902 -0.1058 -0.7716
 1019MOL0     H40593   6.407   9.828   5.138  0.8326 -0.1672 -0.3581
 1019MOL0     H40594   6.572   9.950   4.904 -0.5612 -0.3344  0.0540
 1019MOL0     H40595   6.407  10.002   4.977 -0.1802 -0.6118  0.0668
 1019MOL0     H40596   6.674  10.023   5.117  0.0028 -0.3969 -2.1915
 1019MOL0     H40597   6.519  10.037   5.201  2.8872  0.1044  0.7975
 1019MOL0     H40598   6.452  10.225   5.060  0.0733 -0.0325  1.6740
 1019MOL0     H40599   6.575  10.201   4.953  1.8683 -0.9750  0.5557
 1019MOL0     H40600   6.602  10.320   5.242  1.9565  4.2678  0.3128
 1019MOL0     H40601   6.620  10.397   5.088  4.6319 -0.4607 -2.1147
 1019MOL0     H40602   6.190   9.267   4.797  0.8090  1.3510  0.2378
 1019MOL0     H40603   5.959   9.189   4.821 -1.0656 -0.0341 -0.5702
 1019MOL0     H40604   5.572   9.174   4.772 -0.3612  0.0480 -0.5158
 1019MOL0     H40605   5.332   9.112   4.771 -0.6132  3.2824 -0.2886
 1019MOL0     H40606   3.367   9.458   4.623  1.2442  1.2317 -0.4165
 1019MOL0     H40607   3.156   9.373   4.517  0.9087  0.3634  0.8737
 1019MOL0     H40608   3.011   9.324   4.038 -0.2813  1.1680  1.0179
 1019MOL0     H40609   2.901   9.184   3.879 -3.4618  0.0131 -1.0560
 1019MOL0     H40610   2.601   9.018   3.746 -1.4985  0.9221  1.9165
 1019MOL0     H40611   2.707   9.148   3.771 -1.1396 -1.2715 -2.7387
 1019MOL0     H40612   2.883   8.915   3.779  0.8295  1.4825 -0.6481
 1019MOL0     H40613   2.850   9.030   3.652 -0.5733 -0.1745 -0.2846
 1019MOL0     H40614   2.663   8.900   3.564  1.5849  2.4296  0.2359
 1019MOL0     H40615   2.810   8.800   3.579 -2.6440 -1.8020 -2.1443
 1019MOL0     H40616   2.597   8.795   3.804 -3.0092 -1.3754 -1.1624
 1019MOL0     H40617   2.733   8.695   3.780 -1.3458  0.8886  0.0058
 1019MOL0     H40618   2.461   8.513   3.538 -3.8432  2.3392 -0.2870
 1019MOL0     H40619   2.654   9.013   4.172 -0.8997  1.7533  2.6822
 1019MOL0     H40620   2.834   9.130   4.455 -0.5682  0.9743 -0.4223
 1019MOL0     H40621   2.697   9.242   4.409  0.9807  0.3433 -1.2886
 1019MOL0     H40622   2.679   9.073   4.407 -1.3265  0.8354  4.1237
 1020MOL0     O40623   2.911   7.611   8.266  0.2408  0.7500  0.1807
 1020MOL0     C40624   2.829   7.628   8.179 -0.1044 -0.1375  0.3416
 1020MOL0     O40625   2.822   7.733   8.096 -0.1841 -0.6978 -0.2248
 1020MOL0     C40626   2.897   7.847   8.129 -0.2725  0.3759 -0.0507
 1020MOL0     C40627   3.036   7.841   8.113  0.2082 -0.5115  0.7051
 1020MOL0     C40628   3.112   7.958   8.154  0.6845 -0.1685  0.7069
 1020MOL0     C40629   3.049   8.062   8.219  1.0810 -0.1981  0.1224
 1020MOL0     O40630   3.122   8.169   8.255  0.4647  0.1321  0.5795
 1020MOL0     C40631   3.088   8.233   8.372 -0.5282 -0.6163  0.6901
 1020MOL0     C40632   3.204   8.321   8.411 -0.4282 -0.1480 -0.2401
 1020MOL0     C40633   3.264   8.401   8.293  0.0345  0.4492 -1.0325
 1020MOL0     C40634   3.387   8.480   8.339 -0.3683 -0.4246 -1.0522
 1020MOL0     C40635   3.458   8.544   8.221 -0.5554  1.0902 -0.3192
 1020MOL0     C40636   3.405   8.661   8.148 -0.0914 -0.3942 -0.3746
 1020MOL0     C40637   3.502   8.695   8.038 -0.2001 -0.0968 -0.1183
 1020MOL0     C40638   3.514   8.609   7.914 -0.5396 -0.8937 -0.1952
 1020MOL0     N40639   3.574   8.691   7.797  0.2265  0.5011  0.1542
 1020MOL0     C40640   3.688   8.770   7.808 -0.2406  0.6595 -0.2271
 1020MOL0     C40641   3.689   8.849   7.699  0.4741  1.1198  0.7505
 1020MOL0     C40642   3.800   8.934   7.666 -1.3413  0.2672  0.3943
 1020MOL0     C40643   3.798   9.055   7.757 -0.0593  0.0491 -0.3085
 1020MOL0     C40644   3.915   9.157   7.735  0.1677  0.3218  0.2783
 1020MOL0     C40645   3.862   9.295   7.784 -0.4900  0.3801  0.0443
 1020MOL0     O40646   3.983   9.360   7.833 -0.0060 -0.6386 -0.1143
 1020MOL0     C40647   4.010   9.339   7.962  0.9171 -0.2978 -1.1440
 1020MOL0     C40648   3.921   9.409   8.054 -0.7307 -0.7666  1.3689
 1020MOL0     C40649   3.953   9.421   8.191 -0.2596  1.0181  0.0481
 1020MOL0     C40650   3.854   9.516   8.266  0.1073  0.0138  0.7104
 1020MOL0     C40651   4.055   9.335   8.245 -0.0116 -0.3883  0.5537
 1020MOL0     C40652   4.103   9.351   8.396 -0.1206 -0.5604  1.5100
 1020MOL0     O40653   4.235   9.327   8.423  0.2077 -0.6674  0.4024
 1020MOL0     C40654   4.281   9.310   8.556 -0.4352  0.7835  0.2493
 1020MOL0     C40655   4.206   9.264   8.665 -0.0792 -0.0580  1.3652
 1020MOL0     C40656   4.259   9.239   8.796 -0.5496  0.0730  0.4919
 1020MOL0     C40657   4.387   9.277   8.828 -0.4822  0.7346 -0.1908
 1020MOL0     O40658   4.434   9.261   8.956 -0.7461  0.4243 -0.3314
 1020MOL0     C40659   4.554   9.185   8.978 -0.4724 -0.4426 -0.0847
 1020MOL0     C40660   4.611   9.204   9.110  0.4176  0.1760 -0.8656
 1020MOL0     C40661   4.674   9.337   9.145  0.4098 -0.5830 -0.2893
 1020MOL0     C40662   4.755   9.395   9.027  0.3223 -0.4025 -0.9123
 1020MOL0     C40663   4.831   9.518   9.064  0.4399 -0.2934  0.3622
 1020MOL0     C40664   4.969   9.475   9.113  0.1590  0.6236 -0.5266
 1020MOL0     C40665   5.057   9.597   9.143  0.6312  0.3431  1.1399
 1020MOL0     C40666   5.149   9.570   9.259  0.7564  0.1420  0.3642
 1020MOL0    Cl40667   5.071   9.589   9.409  0.2177 -0.1473 -0.3866
 1020MOL0     C40668   4.460   9.337   8.728  0.9516  1.5220  0.7172
 1020MOL0     C40669   4.412   9.339   8.593  0.2827 -0.3914 -0.7353
 1020MOL0     O40670   4.016   9.387   8.477  0.1716  0.0092 -0.3220
 1020MOL0     C40671   4.128   9.247   8.161 -0.1937 -0.1165 -0.1294
 1020MOL0     C40672   4.106   9.254   8.016 -0.6310  0.6589 -0.1721
 1020MOL0     N40673   3.576   8.821   7.619 -0.0949  0.5875 -0.0633
 1020MOL0     N40674   3.505   8.729   7.684  0.0319  0.0055  0.8024
 1020MOL0     C40675   2.908   8.061   8.224  0.0574  0.3938  1.4381
 1020MOL0     C40676   2.831   7.955   8.185  0.0323 -0.8407  0.4541
 1020MOL0     C40677   2.720   7.526   8.162  0.1529 -1.1813 -0.5914
 1020MOL0     C40678   2.686   7.492   8.028  0.1055  0.0923 -0.3900
 1020MOL0     C40679   2.600   7.386   8.007  0.6410 -0.0171 -0.6066
 1020MOL0     C40680   2.541   7.322   8.119  0.0814 -0.7527  0.7057
 1020MOL0     O40681   2.444   7.224   8.080  0.4551 -0.0805 -0.8188
 1020MOL0     C40682   2.350   7.184   8.177 -0.2202 -0.4301  0.1023
 1020MOL0     C40683   2.378   7.043   8.230 -0.3593  0.7190  0.9316
 1020MOL0     C40684   2.323   6.941   8.125  0.7201 -1.1226  1.2154
 1020MOL0     C40685   2.281   6.807   8.184 -0.0989  0.4605 -1.0129
 1020MOL0     C40686   2.402   6.719   8.206  0.6516 -0.6379  0.0648
 1020MOL0     C40687   2.496   6.646   8.232 -0.7372  0.9886  0.9357
 1020MOL0     C40688   2.571   7.354   8.244 -0.1035  0.2780 -0.0809
 1020MOL0     C40689   2.659   7.456   8.270  0.5980 -0.7212  0.2806
 1020MOL0     C40690   2.661   7.513   8.411  0.0067 -0.5491 -0.3316
 1020MOL0     H40691   3.082   7.749   8.079  1.9260  0.4693  0.2500
 1020MOL0     H40692   3.219   7.965   8.140  1.0169 -1.4541  2.2639
 1020MOL0     H40693   3.075   8.169   8.459  3.8009 -0.1421  1.9587
 1020MOL0     H40694   2.999   8.292   8.351  0.4747  0.4583 -0.7254
 1020MOL0     H40695   3.173   8.379   8.498 -0.6835 -0.6686  0.0237
 1020MOL0     H40696   3.288   8.267   8.456  0.6786  1.8415  0.1771
 1020MOL0     H40697   3.305   8.322   8.230  1.3070 -1.4847  1.9849
 1020MOL0     H40698   3.186   8.459   8.243  1.5184  2.8684 -0.6587
 1020MOL0     H40699   3.350   8.562   8.402 -1.8120 -1.6858 -0.1951
 1020MOL0     H40700   3.458   8.413   8.389  0.2853 -1.0042 -2.6918
 1020MOL0     H40701   3.485   8.467   8.149  0.5516 -0.3227  1.5126
 1020MOL0     H40702   3.555   8.573   8.262  0.1448 -0.1514 -1.0352
 1020MOL0     H40703   3.305   8.641   8.109  1.3212  0.9589 -5.4907
 1020MOL0     H40704   3.407   8.743   8.220  0.9453 -0.0091 -0.8221
 1020MOL0     H40705   3.599   8.721   8.082  0.3722 -2.8799  0.4123
 1020MOL0     H40706   3.462   8.789   7.998 -0.0258 -1.0047 -2.6232
 1020MOL0     H40707   3.589   8.532   7.937  0.2931  0.3232  1.3040
 1020MOL0     H40708   3.418   8.560   7.894 -0.9906  0.2920 -1.0273
 1020MOL0     H40709   3.760   8.763   7.889 -1.3464 -2.2647  0.6359
 1020MOL0     H40710   3.788   8.978   7.566  0.2269 -2.9268 -1.3726
 1020MOL0     H40711   3.893   8.876   7.674 -2.7193 -2.2330 -0.6915
 1020MOL0     H40712   3.700   9.097   7.734 -1.1351 -2.2187 -0.2097
 1020MOL0     H40713   3.789   9.018   7.860 -5.0636 -0.0752 -0.5594
 1020MOL0     H40714   4.007   9.124   7.782 -0.5472  0.1394  1.5997
 1020MOL0     H40715   3.929   9.171   7.627  3.4417 -0.5319  0.5092
 1020MOL0     H40716   3.819   9.363   7.710  1.8503  0.9394 -0.8922
 1020MOL0     H40717   3.789   9.285   7.865  0.0771  1.7491  0.7688
 1020MOL0     H40718   3.841   9.468   8.010  0.4515 -0.2666 -0.1867
 1020MOL0     H40719   3.773   9.539   8.198  0.8881 -2.1363 -1.0453
 1020MOL0     H40720   3.905   9.605   8.306 -1.4346  2.2021 -1.8647
 1020MOL0     H40721   3.806   9.461   8.347 -1.3987 -2.4924 -1.7276
 1020MOL0     H40722   4.107   9.226   8.644 -0.8229  2.7868 -0.8028
 1020MOL0     H40723   4.199   9.208   8.881 -0.5635  1.0884  0.8603
 1020MOL0     H40724   4.537   9.079   8.961 -0.1740 -0.8145  1.7190
 1020MOL0     H40725   4.634   9.200   8.905 -1.6646  4.0865 -0.7721
 1020MOL0     H40726   4.531   9.182   9.181 -1.4098  3.5869 -1.6552
 1020MOL0     H40727   4.687   9.129   9.132 -1.0711 -0.9568  0.7087
 1020MOL0     H40728   4.740   9.324   9.232 -1.8382  1.9351  1.9632
 1020MOL0     H40729   4.593   9.400   9.183  0.3864 -1.5895  1.4590
 1020MOL0     H40730   4.679   9.427   8.954 -1.2182  2.0434  1.5651
 1020MOL0     H40731   4.822   9.322   8.981 -0.2279 -2.1607  0.9134
 1020MOL0     H40732   4.841   9.574   8.970 -0.8530 -0.7407 -0.0597
 1020MOL0     H40733   4.784   9.575   9.144 -0.5272 -0.5846  0.0119
 1020MOL0     H40734   5.019   9.408   9.041 -0.3023  1.1670 -1.3680
 1020MOL0     H40735   4.955   9.415   9.204 -3.5897 -1.6778 -2.3726
 1020MOL0     H40736   4.995   9.685   9.164  1.7481  1.9834 -1.7881
 1020MOL0     H40737   5.115   9.627   9.055 -1.5614  1.5855  0.0235
 1020MOL0     H40738   5.232   9.640   9.248  0.0462  0.7666 -1.3459
 1020MOL0     H40739   5.198   9.474   9.240  1.6171  0.8634 -1.3028
 1020MOL0     H40740   4.569   9.341   8.731  1.2210 -2.4824  1.0631
 1020MOL0     H40741   4.477   9.384   8.519  2.0782 -3.2728 -1.0972
 1020MOL0     H40742   4.208   9.188   8.205  1.8155  0.5586 -2.5983
 1020MOL0     H40743   4.165   9.191   7.950 -1.5975  0.1067 -0.5337
 1020MOL0     H40744   2.863   8.146   8.274 -2.2424  0.5549 -0.6978
 1020MOL0     H40745   2.723   7.951   8.199 -0.1433  1.3467  0.1520
 1020MOL0     H40746   2.742   7.532   7.944  0.0526  0.0776 -0.4324
 1020MOL0     H40747   2.576   7.349   7.908  0.8788 -0.5631 -0.4658
 1020MOL0     H40748   2.343   7.246   8.267 -0.3413 -0.9063  0.4228
 1020MOL0     H40749   2.250   7.196   8.135  0.0815  3.0595  0.0801
 1020MOL0     H40750   2.317   7.033   8.321 -1.9086 -0.0004 -0.1347
 1020MOL0     H40751   2.485   7.029   8.248 -0.2091  0.5865 -0.0336
 1020MOL0     H40752   2.228   6.978   8.086  0.6333 -0.1336  2.3024
 1020MOL0     H40753   2.403   6.926   8.052 -0.2124 -0.0686 -0.0654
 1020MOL0     H40754   2.216   6.746   8.121 -0.8144 -0.6285  0.6956
 1020MOL0     H40755   2.227   6.824   8.277  0.5567 -1.8771 -0.1192
 1020MOL0     H40756   2.579   6.579   8.249 -1.8501 -0.8713 -0.5167
 1020MOL0     H40757   2.531   7.300   8.329  0.3355 -1.5037 -0.9627
 1020MOL0     H40758   2.754   7.478   8.457  1.8842  1.0180 -2.6781
 1020MOL0     H40759   2.660   7.622   8.412 -1.8937 -0.5431 -0.1232
 1020MOL0     H40760   2.577   7.480   8.473  1.9002 -0.9255  2.1795
 1021MOL0     O40761   8.055   2.061  10.395  0.0749 -0.2277 -0.1603
 1021MOL0     C40762   8.132   2.092  10.306  0.4783  0.9332 -0.0470
 1021MOL0     O40763   8.094   2.173  10.207  0.0163 -0.0107 -0.0811
 1021MOL0     C40764   7.965   2.216  10.202 -0.0862 -0.4870  0.4023
 1021MOL0     C40765   7.903   2.282  10.306  0.7669  0.8847 -0.6684
 1021MOL0     C40766   7.774   2.336  10.310  0.2915 -0.3359  0.4258
 1021MOL0     C40767   7.694   2.299  10.196 -0.6240  0.4902  0.6677
 1021MOL0     O40768   7.566   2.340  10.172  0.6369 -0.3354  0.2338
 1021MOL0     C40769   7.483   2.359  10.291  0.4520  0.2707  0.4081
 1021MOL0     C40770   7.465   2.235  10.381  0.1453  0.6456 -0.6656
 1021MOL0     C40771   7.352   2.269  10.483  0.4919  0.8639 -0.2354
 1021MOL0     C40772   7.304   2.145  10.568 -0.4159  0.9433 -0.6089
 1021MOL0     C40773   7.189   2.171  10.672  0.2666 -0.9975  0.1111
 1021MOL0     C40774   7.053   2.196  10.615  0.1692 -0.9522 -0.2170
 1021MOL0     C40775   6.947   2.219  10.723 -0.7057 -0.0654  0.1242
 1021MOL0     C40776   6.910   2.102  10.809 -0.3826 -0.0741  1.1642
 1021MOL0     N40777   6.822   2.008  10.742  0.2397  0.1042 -0.4286
 1021MOL0     C40778   6.688   2.008  10.740  0.8294 -0.4535  0.2150
 1021MOL0     C40779   6.646   1.899  10.678  0.8463 -0.7350  0.2937
 1021MOL0     C40780   6.502   1.864  10.689  0.4639  0.2298  0.0977
 1021MOL0     C40781   6.447   1.839  10.834 -0.1958 -0.1567 -0.5560
 1021MOL0     C40782   6.343   1.728  10.843  0.3270  0.2415 -0.0258
 1021MOL0     C40783   6.269   1.726  10.979 -0.0468  0.0311  0.0926
 1021MOL0     O40784   6.363   1.747  11.085  0.5005  0.4310  0.5243
 1021MOL0     C40785   6.313   1.759  11.209 -0.5302 -0.6431 -0.4780
 1021MOL0     C40786   6.176   1.750  11.249 -0.8887 -0.2680  0.2505
 1021MOL0     C40787   6.141   1.750  11.385 -0.1900 -0.9959 -0.7902
 1021MOL0     C40788   5.994   1.715  11.429  0.5083  0.5607  0.5682
 1021MOL0     C40789   6.240   1.779  11.493  0.0346  0.3620  0.5100
 1021MOL0     C40790   6.219   1.790  11.642  0.4478  0.4770  0.1004
 1021MOL0     O40791   6.324   1.744  11.720 -0.2337  0.5338  0.3217
 1021MOL0     C40792   6.335   1.735  11.855 -0.5450 -0.4952 -0.3034
 1021MOL0     C40793   6.274   1.828  11.944 -0.1611  0.7653  0.0570
 1021MOL0     C40794   6.272   1.782  12.080 -0.6009  0.1025 -0.7814
 1021MOL0     C40795   6.339   1.669  12.119 -0.5082 -0.3931 -0.1512
 1021MOL0     O40796   6.342   1.649  12.256  0.3659 -0.1742  0.0295
 1021MOL0     C40797   6.415   1.539  12.308 -1.6491  1.1890  0.2933
 1021MOL0     C40798   6.380   1.509  12.446 -0.6645  0.0678  0.3347
 1021MOL0     C40799   6.258   1.418  12.467 -0.4355 -0.7449  0.2509
 1021MOL0     C40800   6.297   1.286  12.523  0.1680  0.0940 -0.0839
 1021MOL0     C40801   6.177   1.210  12.581  0.4782 -0.8216  0.4708
 1021MOL0     C40802   6.222   1.094  12.661  0.3519  0.9519  0.3261
 1021MOL0     C40803   6.098   1.049  12.747 -0.4240  0.3377  0.4886
 1021MOL0     C40804   6.118   0.944  12.850  0.0490 -0.4829  0.4045
 1021MOL0    Cl40805   5.947   0.898  12.908  0.0684 -0.0474 -0.0770
 1021MOL0     C40806   6.425   1.597  12.031 -0.2891 -0.3744 -0.0224
 1021MOL0     C40807   6.418   1.633  11.899  0.1155  0.9101  0.6152
 1021MOL0     O40808   6.117   1.838  11.689 -0.2514  0.3373  0.1373
 1021MOL0     C40809   6.367   1.806  11.435  0.2766 -0.3710 -0.2751
 1021MOL0     C40810   6.404   1.789  11.304  0.6785 -0.1885 -0.1144
 1021MOL0     N40811   6.751   1.822  10.644  0.0611  0.1174  0.0648
 1021MOL0     N40812   6.858   1.887  10.686  0.6423 -0.2760  0.5023
 1021MOL0     C40813   7.757   2.233  10.083  0.5034  1.4802 -0.8358
 1021MOL0     C40814   7.886   2.193  10.089  0.0765 -0.0542  0.5279
 1021MOL0     C40815   8.273   2.058  10.318 -0.0640 -1.0352  0.6123
 1021MOL0     C40816   8.369   2.131  10.237 -0.1701  0.3092 -0.2430
 1021MOL0     C40817   8.507   2.115  10.245 -0.1757  0.4064 -0.7201
 1021MOL0     C40818   8.552   2.006  10.309 -0.0037  0.2549 -1.0577
 1021MOL0     O40819   8.691   1.969  10.309  0.3599  0.7643 -0.4146
 1021MOL0     C40820   8.782   2.013  10.210  0.5404  0.6172 -0.9323
 1021MOL0     C40821   8.873   1.904  10.174  0.6672  0.1244 -0.4683
 1021MOL0     C40822   8.952   1.840  10.291 -0.0982  0.2457 -0.5531
 1021MOL0     C40823   8.871   1.736  10.366  0.5783  0.3613  0.6812
 1021MOL0     C40824   8.963   1.667  10.454 -0.3070  0.6815 -0.1159
 1021MOL0     C40825   9.057   1.631  10.528 -0.5482 -0.7365  0.5168
 1021MOL0     C40826   8.469   1.939  10.397 -0.5336  0.4123 -0.5286
 1021MOL0     C40827   8.327   1.961  10.408 -0.5995  1.2977  0.0565
 1021MOL0     C40828   8.240   1.901  10.521 -0.4884 -0.6100  0.1852
 1021MOL0     H40829   7.959   2.310  10.394 -1.3308  2.6095  0.2148
 1021MOL0     H40830   7.734   2.383  10.400  0.3017 -1.1071  0.8418
 1021MOL0     H40831   7.380   2.371  10.257 -0.6273  1.4477  3.7285
 1021MOL0     H40832   7.517   2.442  10.352  3.0536 -1.2972  1.2485
 1021MOL0     H40833   7.425   2.145  10.332  0.2785  0.7823 -1.0271
 1021MOL0     H40834   7.558   2.209  10.432 -1.2343 -0.6525  1.3796
 1021MOL0     H40835   7.383   2.348  10.552 -1.0634  1.7197 -0.4902
 1021MOL0     H40836   7.266   2.317  10.437  0.2356  1.1047  0.4843
 1021MOL0     H40837   7.278   2.059  10.505  2.0575 -2.9131  3.0541
 1021MOL0     H40838   7.383   2.095  10.625 -3.0286 -1.3730  1.2504
 1021MOL0     H40839   7.221   2.261  10.726  1.8479  0.7361 -3.3731
 1021MOL0     H40840   7.187   2.092  10.747 -4.8395 -0.5705  0.7978
 1021MOL0     H40841   7.058   2.282  10.549  1.4080 -1.5705 -0.9546
 1021MOL0     H40842   7.024   2.110  10.553 -2.2442 -0.8679  0.6708
 1021MOL0     H40843   6.854   2.249  10.673 -0.9496  2.8334  2.0624
 1021MOL0     H40844   6.977   2.304  10.785  3.0359 -1.2340  0.1680
 1021MOL0     H40845   7.006   2.059  10.839  0.8016  2.2991  1.0329
 1021MOL0     H40846   6.855   2.134  10.898  1.7680  0.5514  2.3505
 1021MOL0     H40847   6.615   2.080  10.775  0.3226 -1.4681  1.3559
 1021MOL0     H40848   6.499   1.765  10.642 -1.5862 -1.0991  2.7304
 1021MOL0     H40849   6.435   1.934  10.639  0.3396 -0.3845 -0.6152
 1021MOL0     H40850   6.531   1.808  10.896 -0.4994 -0.4976 -0.3105
 1021MOL0     H40851   6.417   1.935  10.877 -0.3392  0.2901 -1.6190
 1021MOL0     H40852   6.263   1.736  10.769 -0.0393 -3.7183 -0.2531
 1021MOL0     H40853   6.392   1.631  10.836 -0.1428 -0.2134  2.2167
 1021MOL0     H40854   6.191   1.803  10.972 -2.3723 -1.9545  2.3444
 1021MOL0     H40855   6.222   1.627  10.982  0.1344 -0.2033 -2.3778
 1021MOL0     H40856   6.103   1.724  11.174  0.6570 -0.1457 -1.3519
 1021MOL0     H40857   5.931   1.716  11.339  0.4395  2.7352  0.5854
 1021MOL0     H40858   5.947   1.789  11.495  0.5243  1.6813 -0.6297
 1021MOL0     H40859   5.992   1.612  11.464  0.9164 -0.6066 -2.5065
 1021MOL0     H40860   6.211   1.912  11.915 -0.4497  0.0795 -1.4229
 1021MOL0     H40861   6.229   1.846  12.156  0.7887  2.1498 -1.6548
 1021MOL0     H40862   6.411   1.446  12.251  0.8097  0.0407  1.8659
 1021MOL0     H40863   6.517   1.576  12.314 -0.3124 -2.3230  2.2236
 1021MOL0     H40864   6.466   1.461  12.494 -0.7055 -2.6055 -1.9849
 1021MOL0     H40865   6.367   1.602  12.502  3.9152  0.4554  1.1517
 1021MOL0     H40866   6.205   1.398  12.373  2.5116 -1.9183 -1.2977
 1021MOL0     H40867   6.179   1.464  12.527 -1.0277 -3.3351  1.5696
 1021MOL0     H40868   6.369   1.303  12.604 -0.7854  2.8896  0.3016
 1021MOL0     H40869   6.335   1.234  12.434 -1.1170  1.5298 -1.5341
 1021MOL0     H40870   6.131   1.282  12.650  0.2873 -0.1436 -0.3447
 1021MOL0     H40871   6.096   1.177  12.515 -0.7992 -1.5768  2.3260
 1021MOL0     H40872   6.299   1.128  12.732  0.5738 -0.3837  0.7563
 1021MOL0     H40873   6.259   1.018  12.593  0.5526  1.9324 -0.6903
 1021MOL0     H40874   6.031   1.025  12.664  3.0627 -2.3561 -1.8469
 1021MOL0     H40875   6.054   1.136  12.797 -1.0362 -0.6862  1.7722
 1021MOL0     H40876   6.187   0.978  12.928  1.0126  2.3897 -1.5143
 1021MOL0     H40877   6.158   0.855  12.801  0.0532 -1.6358  2.4015
 1021MOL0     H40878   6.493   1.516  12.058  0.3424  0.7006  1.7754
 1021MOL0     H40879   6.471   1.581  11.820  1.9210  3.3650  0.1106
 1021MOL0     H40880   6.436   1.836  11.513  0.8807  4.3300 -2.2866
 1021MOL0     H40881   6.508   1.809  11.281  1.4346  0.5886  3.4152
 1021MOL0     H40882   7.689   2.210  10.002  0.3894  1.6198 -0.7803
 1021MOL0     H40883   7.921   2.126  10.011 -2.8550 -0.5736 -0.4561
 1021MOL0     H40884   8.334   2.211  10.172  1.8736  0.6483 -0.9786
 1021MOL0     H40885   8.568   2.194  10.202 -2.8138  3.5328  0.7958
 1021MOL0     H40886   8.725   2.050  10.124  0.4571  0.0760 -1.1105
 1021MOL0     H40887   8.833   2.098  10.257  1.2878  0.1329 -0.8456
 1021MOL0     H40888   8.946   1.937  10.100  3.1972 -0.8838  1.4461
 1021MOL0     H40889   8.814   1.831  10.118  1.6124 -2.2629  1.4656
 1021MOL0     H40890   9.045   1.796  10.254 -0.6117  0.3780 -2.0663
 1021MOL0     H40891   8.985   1.920  10.358 -2.7315  0.7719  0.2112
 1021MOL0     H40892   8.819   1.665  10.301 -0.7221 -0.0063  2.0694
 1021MOL0     H40893   8.790   1.782  10.423  0.3475 -1.4496  1.8824
 1021MOL0     H40894   9.135   1.603  10.595 -1.0348  0.2700  1.5331
 1021MOL0     H40895   8.508   1.854  10.451 -1.2504 -0.2129 -0.9791
 1021MOL0     H40896   8.303   1.849  10.594  1.7207 -0.2947 -1.3827
 1021MOL0     H40897   8.183   1.979  10.571 -2.3994 -0.8117 -1.5421
 1021MOL0     H40898   8.167   1.838  10.469 -1.7689  0.3737  0.7218
 1022MOL0     O40899  10.040   2.437   5.069 -0.5944 -0.3686  0.1524
 1022MOL0     C40900  10.010   2.321   5.081 -0.2230 -0.4073 -0.7402
 1022MOL0     O40901   9.881   2.267   5.068  0.4809  0.0336  0.2104
 1022MOL0     C40902   9.773   2.327   5.006 -0.1410  0.5069 -0.8123
 1022MOL0     C40903   9.762   2.451   4.949  0.5139  0.0797  0.2925
 1022MOL0     C40904   9.641   2.497   4.899 -0.0397 -0.2403  0.0177
 1022MOL0     C40905   9.520   2.430   4.908  0.2918  0.4878  0.5176
 1022MOL0     O40906   9.403   2.477   4.853 -0.2039 -0.6553 -0.9228
 1022MOL0     C40907   9.285   2.398   4.863 -1.0998  0.3176 -0.7285
 1022MOL0     C40908   9.166   2.495   4.850 -0.0765  0.2129 -0.3515
 1022MOL0     C40909   9.035   2.413   4.850 -0.0116 -0.1365 -0.5488
 1022MOL0     C40910   8.917   2.501   4.893 -0.2055 -0.3552 -0.1435
 1022MOL0     C40911   8.783   2.445   4.856  0.7263  0.0000 -0.0325
 1022MOL0     C40912   8.669   2.553   4.846 -0.7239  0.5147  0.4925
 1022MOL0     C40913   8.689   2.650   4.723 -0.1720 -0.5261 -0.1168
 1022MOL0     C40914   8.574   2.753   4.715  0.1139  0.2510 -0.6827
 1022MOL0     N40915   8.565   2.857   4.824 -0.2984  1.1331  0.2354
 1022MOL0     C40916   8.636   2.972   4.830  0.1373 -0.7635 -0.2961
 1022MOL0     C40917   8.591   3.028   4.952 -0.8963  0.1455  0.3953
 1022MOL0     C40918   8.610   3.169   4.995 -0.2454  0.3912 -0.1622
 1022MOL0     C40919   8.485   3.246   4.961 -1.1955  0.4592 -0.4449
 1022MOL0     C40920   8.479   3.307   4.829  0.1886  0.4128  0.2497
 1022MOL0     C40921   8.565   3.435   4.807 -0.1345  0.2412  0.1821
 1022MOL0     O40922   8.530   3.528   4.912 -0.2642 -0.7714  0.1512
 1022MOL0     C40923   8.457   3.639   4.870 -0.3288 -0.0821 -1.1524
 1022MOL0     C40924   8.483   3.716   4.755  0.6791 -0.4474 -0.0155
 1022MOL0     C40925   8.381   3.813   4.718  0.4587  0.1201  0.2364
 1022MOL0     C40926   8.412   3.884   4.592  0.2588 -0.4855 -0.1159
 1022MOL0     C40927   8.259   3.818   4.788 -0.9191  0.1827 -1.0949
 1022MOL0     C40928   8.143   3.906   4.751 -0.9746  0.5245  0.3264
 1022MOL0     O40929   8.073   3.975   4.853  0.4266  0.6224  0.2578
 1022MOL0     C40930   7.995   4.085   4.830 -0.4134 -0.7232  0.6868
 1022MOL0     C40931   8.007   4.185   4.931  0.4015 -0.7632  0.2939
 1022MOL0     C40932   7.942   4.309   4.906  1.1113  0.3761 -0.1820
 1022MOL0     C40933   7.851   4.323   4.798 -0.4272 -0.1038  0.1774
 1022MOL0     O40934   7.776   4.440   4.790 -0.7603 -0.6120 -0.2747
 1022MOL0     C40935   7.724   4.476   4.661 -0.0048  0.2766  0.0197
 1022MOL0     C40936   7.690   4.620   4.662  0.0170  0.0865  0.2254
 1022MOL0     C40937   7.623   4.668   4.529 -0.8727 -0.1419  0.5766
 1022MOL0     C40938   7.679   4.805   4.480 -0.0073  0.0538 -0.1424
 1022MOL0     C40939   7.639   4.922   4.577 -0.2894 -0.2824 -0.0327
 1022MOL0     C40940   7.672   5.056   4.507  0.6464  0.8376  0.1322
 1022MOL0     C40941   7.538   5.099   4.444  0.1629 -0.9898  0.3164
 1022MOL0     C40942   7.562   5.249   4.415 -0.1746 -0.5811  0.0097
 1022MOL0    Cl40943   7.451   5.296   4.282  0.0477  0.1171  0.2095
 1022MOL0     C40944   7.843   4.226   4.706 -0.5665 -0.4296  1.2743
 1022MOL0     C40945   7.908   4.105   4.721 -0.3075 -0.3121 -0.8182
 1022MOL0     O40946   8.125   3.914   4.629  0.7798 -0.4350  0.1218
 1022MOL0     C40947   8.254   3.753   4.914 -1.0929  0.6522  0.1394
 1022MOL0     C40948   8.351   3.659   4.945  0.6855 -0.7158 -0.7120
 1022MOL0     N40949   8.502   2.945   5.018  0.9035  0.1785  0.5658
 1022MOL0     N40950   8.495   2.838   4.939  0.2420 -0.3396 -0.0800
 1022MOL0     C40951   9.536   2.304   4.962 -0.0229  0.6734 -0.0249
 1022MOL0     C40952   9.659   2.241   4.996  0.1018 -0.0820  0.6883
 1022MOL0     C40953  10.115   2.224   5.122 -0.0935  1.1711 -0.9817
 1022MOL0     C40954  10.249   2.262   5.117  0.3333 -0.2368  0.1778
 1022MOL0     C40955  10.350   2.180   5.165 -0.0801 -0.0571  0.0279
 1022MOL0     C40956  10.334   2.050   5.208 -0.2195  0.0064 -0.5549
 1022MOL0     O40957  10.427   1.959   5.250 -0.0448  0.5120  0.1562
 1022MOL0     C40958  10.576   1.984   5.248  0.7136 -0.2215 -0.9630
 1022MOL0     C40959  10.628   1.978   5.109 -0.1800 -0.4510  0.1866
 1022MOL0     C40960  10.603   1.840   5.040  0.1162 -0.6952 -0.1552
 1022MOL0     C40961  10.661   1.846   4.895  0.6775  0.2484 -0.8712
 1022MOL0     C40962  10.574   1.763   4.807 -0.8582 -0.9204  0.4232
 1022MOL0     C40963  10.523   1.682   4.732 -0.6665 -0.8033  0.2086
 1022MOL0     C40964  10.199   2.007   5.198  0.1628  0.8685  0.2820
 1022MOL0     C40965  10.091   2.095   5.159  0.4290  0.6117  0.1599
 1022MOL0     C40966   9.953   2.027   5.167 -0.0745  0.5862 -0.2070
 1022MOL0     H40967   9.838   2.527   4.939  0.8356 -0.3460 -0.6268
 1022MOL0     H40968   9.630   2.590   4.843 -0.5001  0.8144  1.7547
 1022MOL0     H40969   9.274   2.363   4.966 -1.0683  2.9114  0.2245
 1022MOL0     H40970   9.294   2.310   4.799  2.1675 -0.1516  0.2197
 1022MOL0     H40971   9.172   2.568   4.930  1.9899  0.4736 -0.6885
 1022MOL0     H40972   9.175   2.562   4.764 -4.2830  2.6918  0.8624
 1022MOL0     H40973   9.018   2.372   4.750 -1.5470 -1.1777  0.1108
 1022MOL0     H40974   9.051   2.329   4.918  0.8848  1.0375  0.7690
 1022MOL0     H40975   8.924   2.531   4.998  1.0535 -2.7860  0.5219
 1022MOL0     H40976   8.927   2.598   4.843 -0.6938 -0.0455  0.3417
 1022MOL0     H40977   8.763   2.373   4.936 -1.6319  2.8237  2.1273
 1022MOL0     H40978   8.788   2.388   4.762  0.6393 -4.3863  2.3631
 1022MOL0     H40979   8.576   2.497   4.830  1.2109 -2.8173 -0.0587
 1022MOL0     H40980   8.658   2.614   4.936 -2.1953 -1.6165  1.8766
 1022MOL0     H40981   8.681   2.591   4.631  0.0128  2.2126 -2.0123
 1022MOL0     H40982   8.784   2.703   4.733 -2.1050  3.0602  0.9159
 1022MOL0     H40983   8.567   2.798   4.615 -0.0365  0.7989 -0.4305
 1022MOL0     H40984   8.485   2.690   4.723 -0.4470  0.5570 -3.4777
 1022MOL0     H40985   8.709   3.025   4.770  0.7159  0.6104  1.5262
 1022MOL0     H40986   8.697   3.217   4.947 -2.4601  2.0007 -2.8725
 1022MOL0     H40987   8.631   3.154   5.101  2.1406  3.8950  0.0462
 1022MOL0     H40988   8.407   3.172   4.983  1.3717 -1.6646  2.2608
 1022MOL0     H40989   8.447   3.324   5.028 -2.8865 -1.0652  0.4578
 1022MOL0     H40990   8.522   3.231   4.763  1.6124 -1.3859  3.0397
 1022MOL0     H40991   8.371   3.318   4.813 -0.4122 -1.2283  2.5535
 1022MOL0     H40992   8.671   3.408   4.807 -0.0878 -0.0684 -3.5663
 1022MOL0     H40993   8.535   3.471   4.709  1.5515 -1.8658 -1.2158
 1022MOL0     H40994   8.569   3.689   4.695  0.4495  0.7497 -0.9227
 1022MOL0     H40995   8.359   3.838   4.508 -0.0576  2.4363 -1.6406
 1022MOL0     H40996   8.517   3.868   4.566  0.6199  3.3327 -1.6154
 1022MOL0     H40997   8.382   3.988   4.609 -1.1249  0.0422 -4.6230
 1022MOL0     H40998   8.084   4.175   5.007  0.4490  0.7637  0.4768
 1022MOL0     H40999   7.963   4.389   4.976 -2.1207 -0.3794  1.8672
 1022MOL0     H41000   7.807   4.455   4.593  0.6635  0.8332  0.6481
 1022MOL0     H41001   7.637   4.420   4.625 -0.0749  1.5236 -1.9098
 1022MOL0     H41002   7.626   4.660   4.742  2.3095  3.6938  0.4955
 1022MOL0     H41003   7.784   4.671   4.682 -0.2475  0.4605  0.5370
 1022MOL0     H41004   7.514   4.671   4.538 -1.1339 -0.8130 -1.6934
 1022MOL0     H41005   7.641   4.585   4.460  2.2840  2.1976 -1.6803
 1022MOL0     H41006   7.631   4.834   4.386  0.2195  1.9036  0.2759
 1022MOL0     H41007   7.786   4.786   4.473  0.3098  1.2144  1.0459
 1022MOL0     H41008   7.541   4.909   4.622  0.0916 -1.1107  0.5903
 1022MOL0     H41009   7.714   4.924   4.657  0.6461 -1.5202 -0.8415
 1022MOL0     H41010   7.750   5.050   4.430  1.3739 -3.6156  0.9268
 1022MOL0     H41011   7.703   5.114   4.595  1.1617 -0.7805  1.0642
 1022MOL0     H41012   7.446   5.097   4.504 -0.6679 -1.3370 -0.9237
 1022MOL0     H41013   7.532   5.056   4.343 -0.1035  1.9491 -1.0382
 1022MOL0     H41014   7.668   5.270   4.393  0.4005 -1.6003  1.6238
 1022MOL0     H41015   7.544   5.319   4.496  3.1746  2.3546 -1.5141
 1022MOL0     H41016   7.775   4.233   4.622 -2.5493 -3.3859  2.4866
 1022MOL0     H41017   7.894   4.029   4.645  2.9701 -1.4541 -0.4524
 1022MOL0     H41018   8.162   3.760   4.972 -2.1794 -3.3291 -0.7976
 1022MOL0     H41019   8.338   3.602   5.036 -1.0423 -0.9045 -1.0493
 1022MOL0     H41020   9.445   2.250   4.988 -0.6587  1.7578  0.0431
 1022MOL0     H41021   9.659   2.144   5.045 -1.3944 -0.6134 -0.2843
 1022MOL0     H41022  10.273   2.365   5.093 -3.6054  0.7090 -0.3926
 1022MOL0     H41023  10.451   2.220   5.165  0.0343 -0.2760  1.5469
 1022MOL0     H41024  10.600   2.080   5.294 -2.5420  0.3102 -0.1194
 1022MOL0     H41025  10.624   1.907   5.308  0.6685  0.9254  0.5999
 1022MOL0     H41026  10.735   1.995   5.123 -0.1514 -0.3431 -0.1258
 1022MOL0     H41027  10.587   2.063   5.053  0.8816 -0.5577 -0.8093
 1022MOL0     H41028  10.651   1.764   5.103  1.8197 -1.8163 -2.6304
 1022MOL0     H41029  10.496   1.819   5.025 -0.1290 -0.4214  1.0386
 1022MOL0     H41030  10.762   1.804   4.882  0.7810  0.6759 -1.4594
 1022MOL0     H41031  10.652   1.950   4.865 -4.5321  0.2197 -0.2227
 1022MOL0     H41032  10.469   1.601   4.687 -0.3999 -1.5446  1.1731
 1022MOL0     H41033  10.182   1.905   5.229  1.4912  1.7417  4.4895
 1022MOL0     H41034   9.910   2.068   5.259 -0.1411 -1.7654  0.8640
 1022MOL0     H41035   9.890   2.043   5.079  0.5105  0.5048 -0.6499
 1022MOL0     H41036   9.970   1.921   5.186  2.6540  0.7372 -1.2570
 1023MOL0     O41037   0.592   5.801   6.400  0.0361  0.4226 -0.0266
 1023MOL0     C41038   0.654   5.821   6.507  0.3349  0.1906  0.0853
 1023MOL0     O41039   0.669   5.944   6.563  0.2989  0.9382 -0.0319
 1023MOL0     C41040   0.612   6.050   6.508  0.5887  0.7218  0.1625
 1023MOL0     C41041   0.689   6.141   6.436  0.1979 -0.0292  0.2023
 1023MOL0     C41042   0.622   6.249   6.390  0.3235 -0.2476 -0.3229
 1023MOL0     C41043   0.486   6.284   6.418 -0.5568 -0.4664 -0.6465
 1023MOL0     O41044   0.438   6.391   6.349  0.4806  0.2699 -0.3473
 1023MOL0     C41045   0.305   6.414   6.334  0.7730 -0.0911  0.6645
 1023MOL0     C41046   0.282   6.525   6.220 -0.1826 -0.2033 -0.4636
 1023MOL0     C41047   0.138   6.518   6.160  0.8342 -0.3645  0.5559
 1023MOL0     C41048   0.123   6.630   6.051 -0.5328 -0.0434 -0.1609
 1023MOL0     C41049  -0.017   6.633   5.987 -0.1120  0.5245  0.0525
 1023MOL0     C41050  -0.131   6.666   6.084 -0.7957 -0.4135  0.4133
 1023MOL0     C41051  -0.260   6.672   6.022  0.0116 -0.3106  0.0049
 1023MOL0     C41052  -0.348   6.777   6.070  0.0509 -0.6179  0.2229
 1023MOL0     N41053  -0.379   6.750   6.210 -0.6750  1.0309  0.0670
 1023MOL0     C41054  -0.506   6.722   6.250 -0.9567 -0.9946 -0.0043
 1023MOL0     C41055  -0.495   6.712   6.385  0.0104 -0.2648  0.1156
 1023MOL0     C41056  -0.608   6.678   6.479  0.1992 -0.0997  0.6642
 1023MOL0     C41057  -0.613   6.783   6.595  0.8718  0.3845 -0.8047
 1023MOL0     C41058  -0.618   6.719   6.739 -0.0868 -0.3143 -0.7120
 1023MOL0     C41059  -0.498   6.638   6.775 -0.6492 -0.1560 -0.9354
 1023MOL0     O41060  -0.478   6.662   6.913 -0.6175  0.4002  0.0657
 1023MOL0     C41061  -0.382   6.589   6.990 -0.1066 -0.6887  0.5750
 1023MOL0     C41062  -0.318   6.481   6.943  0.1322 -0.6806  0.2893
 1023MOL0     C41063  -0.216   6.424   7.021  0.3102 -0.5579  0.0694
 1023MOL0     C41064  -0.137   6.310   6.962  0.6027 -0.1617 -0.9104
 1023MOL0     C41065  -0.182   6.474   7.160 -0.0915  0.1127  0.2698
 1023MOL0     C41066  -0.069   6.419   7.242 -0.2825  0.5962  0.1503
 1023MOL0     O41067  -0.062   6.493   7.357 -0.3843  0.1630 -0.8443
 1023MOL0     C41068   0.051   6.481   7.435 -0.1375 -0.1664  0.7432
 1023MOL0     C41069   0.028   6.491   7.573  0.1032 -0.4312  0.0084
 1023MOL0     C41070   0.141   6.492   7.659  0.3208  0.6206  0.3258
 1023MOL0     C41071   0.275   6.491   7.612  0.2185 -0.1748  0.3117
 1023MOL0     O41072   0.395   6.485   7.682 -0.5036  0.6213 -0.1038
 1023MOL0     C41073   0.397   6.436   7.809  0.5441 -0.5680 -0.4646
 1023MOL0     C41074   0.534   6.375   7.836  0.5441 -0.8464  0.1882
 1023MOL0     C41075   0.657   6.464   7.802  1.0949 -0.3031  0.3127
 1023MOL0     C41076   0.783   6.410   7.873  0.8796  0.1096 -0.3178
 1023MOL0     C41077   0.895   6.504   7.877 -0.3680 -0.3481  0.4787
 1023MOL0     C41078   0.886   6.617   7.978  0.0321  0.5097 -0.7128
 1023MOL0     C41079   1.023   6.683   8.013 -0.0929  1.5033  0.0786
 1023MOL0     C41080   1.006   6.772   8.133  0.0624 -0.6525 -0.2075
 1023MOL0    Cl41081   1.160   6.850   8.177  0.2033 -0.6427 -0.1629
 1023MOL0     C41082   0.292   6.484   7.480 -0.5996  0.8710 -0.5706
 1023MOL0     C41083   0.189   6.477   7.385  0.0465 -0.9614 -0.2312
 1023MOL0     O41084   0.008   6.332   7.210 -0.0685 -0.2007 -0.5064
 1023MOL0     C41085  -0.269   6.572   7.209 -0.0671  1.2359  0.7618
 1023MOL0     C41086  -0.359   6.631   7.123  0.9837  0.2442 -0.0605
 1023MOL0     N41087  -0.370   6.741   6.419  0.2994 -0.5886 -0.5054
 1023MOL0     N41088  -0.296   6.767   6.318  0.2591  0.4344  0.6888
 1023MOL0     C41089   0.415   6.186   6.494  0.1998 -0.6882 -0.1519
 1023MOL0     C41090   0.482   6.074   6.534  0.1496 -0.3301  0.0201
 1023MOL0     C41091   0.706   5.704   6.581  0.0520 -0.0715 -0.0778
 1023MOL0     C41092   0.792   5.616   6.516 -0.1058 -0.7414  0.0547
 1023MOL0     C41093   0.852   5.516   6.588 -0.1831  0.5779  0.3189
 1023MOL0     C41094   0.821   5.492   6.721  0.6092 -0.9064  0.2764
 1023MOL0     O41095   0.891   5.392   6.774 -0.1138  0.7557 -0.0446
 1023MOL0     C41096   0.858   5.328   6.906 -0.4028 -0.8171 -0.1890
 1023MOL0     C41097   0.997   5.293   6.971 -0.3398 -0.7991 -0.8153
 1023MOL0     C41098   1.081   5.211   6.868 -0.7201  0.6392 -0.9753
 1023MOL0     C41099   1.178   5.119   6.941 -0.6342  0.1456 -0.6880
 1023MOL0     C41100   1.228   5.023   6.843 -0.7815 -0.4059  0.5192
 1023MOL0     C41101   1.277   4.943   6.759 -0.5417  0.2661 -0.1021
 1023MOL0     C41102   0.740   5.593   6.789 -0.7300  0.9908  0.1133
 1023MOL0     C41103   0.671   5.689   6.713 -0.2328 -0.3569 -0.8247
 1023MOL0     C41104   0.583   5.779   6.789  0.0317 -0.3260 -0.4676
 1023MOL0     H41105   0.793   6.119   6.415  0.0390  0.6264 -1.4549
 1023MOL0     H41106   0.665   6.323   6.323 -2.6616  1.3462 -0.6297
 1023MOL0     H41107   0.262   6.462   6.422  0.2327  4.1253 -1.6521
 1023MOL0     H41108   0.254   6.324   6.300  0.9784  0.1738 -0.3836
 1023MOL0     H41109   0.312   6.618   6.270 -2.2350  0.6148 -0.6599
 1023MOL0     H41110   0.364   6.504   6.151  1.8805 -0.1126  1.7978
 1023MOL0     H41111   0.106   6.417   6.131 -0.1870  0.7189 -2.4702
 1023MOL0     H41112   0.074   6.550   6.243  0.0077 -0.6259  0.0263
 1023MOL0     H41113   0.145   6.728   6.095  0.9600 -0.0403 -0.8365
 1023MOL0     H41114   0.197   6.624   5.970 -2.1593 -1.0393 -1.6401
 1023MOL0     H41115  -0.030   6.533   5.943  0.9625  1.1146 -1.6912
 1023MOL0     H41116  -0.013   6.702   5.903 -1.8812 -0.3918 -0.8485
 1023MOL0     H41117  -0.135   6.592   6.164  3.2639 -1.7242 -0.3534
 1023MOL0     H41118  -0.103   6.763   6.125 -0.3656  0.9658 -2.7923
 1023MOL0     H41119  -0.308   6.574   6.029  0.7879 -0.6014  1.9676
 1023MOL0     H41120  -0.244   6.692   5.916 -0.1485  1.0669  0.2209
 1023MOL0     H41121  -0.291   6.870   6.064  0.4249 -0.8413  0.2424
 1023MOL0     H41122  -0.438   6.787   6.008 -1.2270  0.8798  2.2320
 1023MOL0     H41123  -0.592   6.694   6.192 -2.1594 -2.0233  2.1369
 1023MOL0     H41124  -0.613   6.574   6.512 -0.1877 -0.7323 -1.2613
 1023MOL0     H41125  -0.697   6.708   6.422  0.9853  2.4573  0.6386
 1023MOL0     H41126  -0.530   6.854   6.605  1.2824 -0.3007  1.1529
 1023MOL0     H41127  -0.703   6.840   6.572 -1.2939 -2.4840 -0.0060
 1023MOL0     H41128  -0.647   6.793   6.814 -0.9502 -0.1712 -1.1718
 1023MOL0     H41129  -0.703   6.651   6.740 -0.3948 -0.4088  5.2025
 1023MOL0     H41130  -0.509   6.533   6.747  0.1665  0.0565 -2.1143
 1023MOL0     H41131  -0.411   6.672   6.717  1.3227  0.0145  1.9160
 1023MOL0     H41132  -0.330   6.445   6.841  0.2001 -0.4690  0.2049
 1023MOL0     H41133  -0.187   6.268   6.874  1.3268 -2.0606 -0.4669
 1023MOL0     H41134  -0.125   6.227   7.032  1.3646  1.1842  0.5940
 1023MOL0     H41135  -0.041   6.340   6.920  0.8130 -0.2062 -0.4614
 1023MOL0     H41136  -0.074   6.493   7.611  0.2100 -0.8401  0.3309
 1023MOL0     H41137   0.118   6.483   7.765  0.9838  0.8340  0.4871
 1023MOL0     H41138   0.399   6.521   7.879  1.4653 -0.6317 -0.3932
 1023MOL0     H41139   0.309   6.378   7.839 -0.0175  2.0562  4.0605
 1023MOL0     H41140   0.535   6.371   7.946  1.1850  0.3821  0.2439
 1023MOL0     H41141   0.533   6.273   7.796 -0.2780  0.1525 -2.5198
 1023MOL0     H41142   0.629   6.562   7.841 -3.7296 -1.3754  0.2163
 1023MOL0     H41143   0.678   6.471   7.695  0.9248  1.0508  0.3587
 1023MOL0     H41144   0.819   6.322   7.820 -2.8581 -2.9246  1.6884
 1023MOL0     H41145   0.748   6.379   7.972  0.5918  0.2052 -0.3888
 1023MOL0     H41146   0.986   6.455   7.915  1.0124  1.1590 -0.7313
 1023MOL0     H41147   0.911   6.548   7.778  1.9677 -0.0239  0.9449
 1023MOL0     H41148   0.864   6.573   8.076  0.2937  3.6000  0.8662
 1023MOL0     H41149   0.807   6.688   7.957 -0.0902  0.6958  0.3249
 1023MOL0     H41150   1.058   6.718   7.915 -0.7224  0.5202 -0.5132
 1023MOL0     H41151   1.092   6.605   8.047 -0.1641  1.2477 -0.3567
 1023MOL0     H41152   0.960   6.723   8.219  2.2052 -0.9316  0.8443
 1023MOL0     H41153   0.934   6.846   8.098  1.1647  0.2017 -0.7556
 1023MOL0     H41154   0.388   6.472   7.429 -0.0351 -3.3014  1.0669
 1023MOL0     H41155   0.232   6.464   7.286 -1.0007  0.8265 -0.9653
 1023MOL0     H41156  -0.271   6.625   7.304  1.4614  5.5744 -1.3721
 1023MOL0     H41157  -0.415   6.713   7.167  1.3323 -0.5252  1.9187
 1023MOL0     H41158   0.307   6.189   6.506 -0.3611 -1.1682 -3.7711
 1023MOL0     H41159   0.434   5.993   6.588  1.5464  0.9491  3.4541
 1023MOL0     H41160   0.824   5.640   6.416  1.2287 -1.6968  0.2180
 1023MOL0     H41161   0.937   5.458   6.553 -1.4615  0.1211 -2.1713
 1023MOL0     H41162   0.805   5.395   6.975  1.2975  2.9272 -2.2147
 1023MOL0     H41163   0.787   5.246   6.892 -1.4876 -0.3508  2.0892
 1023MOL0     H41164   0.967   5.226   7.053  0.2547  0.4932  0.4959
 1023MOL0     H41165   1.053   5.380   7.004  2.6100 -1.8110 -2.7228
 1023MOL0     H41166   1.011   5.150   6.811 -2.1676 -0.4014  1.7282
 1023MOL0     H41167   1.138   5.277   6.801  0.7280  0.7329  0.2850
 1023MOL0     H41168   1.128   5.045   7.005 -0.0910 -1.4732 -2.0713
 1023MOL0     H41169   1.261   5.165   6.995 -0.4411 -0.9595 -0.0004
 1023MOL0     H41170   1.331   4.873   6.698 -0.6979 -2.7761  2.9158
 1023MOL0     H41171   0.720   5.595   6.896 -4.1413  1.5536 -0.3978
 1023MOL0     H41172   0.525   5.733   6.869  0.7715  2.4928  1.8818
 1023MOL0     H41173   0.634   5.863   6.837  0.5320 -0.2892 -1.0484
 1023MOL0     H41174   0.513   5.821   6.715  3.1249  2.1377 -2.2326
 1024MOL0     O41175   9.883   1.379   9.726  0.4719  0.1334  0.7039
 1024MOL0     C41176   9.898   1.337   9.833 -0.1795  0.8872 -0.3993
 1024MOL0     O41177   9.896   1.409   9.948 -0.8115  0.3999  0.0281
 1024MOL0     C41178   9.928   1.548   9.951  0.7841 -0.4674 -0.5674
 1024MOL0     C41179   9.989   1.631   9.855  0.3145 -0.4254 -0.0588
 1024MOL0     C41180  10.011   1.769   9.878  0.1975  0.0453  0.0220
 1024MOL0     C41181   9.974   1.823   9.998  0.0067 -0.9194 -0.3405
 1024MOL0     O41182   9.983   1.957  10.043  0.2773  0.2361 -0.3634
 1024MOL0     C41183  10.068   2.045   9.970 -0.9917 -0.0346 -0.5528
 1024MOL0     C41184  10.107   2.162  10.061  0.5140  0.1064 -0.6950
 1024MOL0     C41185  10.165   2.101  10.198  0.3815 -0.3194 -1.3205
 1024MOL0     C41186  10.265   2.203  10.266  1.0139  0.4140  0.1591
 1024MOL0     C41187  10.406   2.188  10.199 -0.0843 -0.0201  0.3246
 1024MOL0     C41188  10.519   2.247  10.278 -0.9500 -0.4326 -0.1190
 1024MOL0     C41189  10.500   2.381  10.344  0.4217 -0.7386 -0.0004
 1024MOL0     C41190  10.638   2.425  10.399  0.1142 -0.3669  0.0074
 1024MOL0     N41191  10.690   2.545  10.329  1.0669  0.4975 -0.9826
 1024MOL0     C41192  10.680   2.674  10.375  0.8070 -0.8842 -0.2844
 1024MOL0     C41193  10.729   2.747  10.270 -0.6054 -0.6767 -0.4397
 1024MOL0     C41194  10.745   2.893  10.258 -0.0629  0.3887  0.2783
 1024MOL0     C41195  10.639   2.976  10.343 -0.2992  0.5492  0.2971
 1024MOL0     C41196  10.659   3.131  10.311 -0.5213 -0.9386  0.0558
 1024MOL0     C41197  10.539   3.222  10.345  0.3020 -0.9414  0.3612
 1024MOL0     O41198  10.505   3.194  10.480  0.4036 -0.8744  0.0458
 1024MOL0     C41199  10.418   3.274  10.537  1.0213 -1.5859 -0.1009
 1024MOL0     C41200  10.360   3.244  10.663  0.3783  0.2377  0.1747
 1024MOL0     C41201  10.262   3.319  10.733  0.2563 -0.3080  0.4034
 1024MOL0     C41202  10.230   3.262  10.871  0.8425 -0.5951 -0.1171
 1024MOL0     C41203  10.214   3.437  10.668  0.0809  0.6040  0.3493
 1024MOL0     C41204  10.104   3.529  10.719 -0.1971 -0.1169 -0.0423
 1024MOL0     O41205  10.076   3.544  10.855 -0.3786 -0.1592  0.5025
 1024MOL0     C41206   9.980   3.623  10.916 -0.0667  0.4142  0.1193
 1024MOL0     C41207   9.990   3.646  11.057  0.0791 -0.5327 -0.5030
 1024MOL0     C41208   9.906   3.729  11.129  0.0830 -0.2720  0.1538
 1024MOL0     C41209   9.796   3.784  11.066 -0.3328 -0.4520 -0.3895
 1024MOL0     O41210   9.707   3.870  11.131 -0.3564 -0.0465  0.0312
 1024MOL0     C41211   9.722   3.919  11.273 -0.8493  0.1885  0.0164
 1024MOL0     C41212   9.644   4.053  11.280 -0.0993 -0.4986  0.0075
 1024MOL0     C41213   9.607   4.098  11.423 -0.8108 -0.2899 -0.3849
 1024MOL0     C41214   9.518   4.216  11.434  0.3191  0.4277 -0.6623
 1024MOL0     C41215   9.564   4.349  11.377  0.5589  0.0812  0.4105
 1024MOL0     C41216   9.689   4.413  11.434 -0.0161 -0.3396  0.0723
 1024MOL0     C41217   9.675   4.424  11.592 -0.2235 -0.0413 -0.7731
 1024MOL0     C41218   9.762   4.542  11.648 -0.2731 -0.1641 -0.5373
 1024MOL0    Cl41219   9.718   4.547  11.824  0.3503  0.2766 -0.0374
 1024MOL0     C41220   9.780   3.761  10.925  0.2885 -0.1035 -0.4935
 1024MOL0     C41221   9.868   3.682  10.850 -0.0896 -0.2353  0.1171
 1024MOL0     O41222  10.037   3.566  10.624  0.7798 -0.3652  0.8078
 1024MOL0     C41223  10.277   3.474  10.544  0.4291  0.1512  0.2402
 1024MOL0     C41224  10.368   3.393  10.475 -0.0809 -0.2923 -0.7283
 1024MOL0     N41225  10.766   2.656  10.168  0.2563 -0.4377  0.2758
 1024MOL0     N41226  10.751   2.533  10.208 -0.0598 -0.3606 -0.5303
 1024MOL0     C41227   9.915   1.738  10.098 -0.4497  0.3202  0.4598
 1024MOL0     C41228   9.881   1.602  10.073 -1.3622 -1.2395  0.6723
 1024MOL0     C41229   9.905   1.193   9.849 -0.1855 -0.0523  0.6118
 1024MOL0     C41230   9.888   1.131   9.979  0.3089  0.0391  0.2401
 1024MOL0     C41231   9.897   0.988   9.991  0.1081 -0.4495  0.5453
 1024MOL0     C41232   9.893   0.900   9.878  0.0779  0.9150  0.0834
 1024MOL0     O41233   9.899   0.763   9.876 -0.3694 -0.1289  0.8581
 1024MOL0     C41234   9.883   0.689   9.997  1.0526  0.5975  0.0181
 1024MOL0     C41235   9.895   0.541   9.972 -0.1142  0.1247  0.1441
 1024MOL0     C41236   9.747   0.473   9.953 -0.0248  0.2131 -0.4149
 1024MOL0     C41237   9.754   0.322   9.975 -0.6475 -0.1066 -0.8067
 1024MOL0     C41238   9.842   0.261   9.882 -0.1296  0.4366  0.2228
 1024MOL0     C41239   9.919   0.210   9.807  0.9449 -0.2444  0.6412
 1024MOL0     C41240   9.915   0.961   9.759 -0.0913  0.5760 -0.3402
 1024MOL0     C41241   9.920   1.098   9.744 -1.1398 -0.6328  0.8417
 1024MOL0     C41242   9.956   1.135   9.603  0.0919 -0.1324 -0.3760
 1024MOL0     H41243  10.037   1.592   9.767 -0.8111  0.8656 -1.2978
 1024MOL0     H41244  10.041   1.835   9.797 -0.0014  0.0235 -0.0708
 1024MOL0     H41245  10.007   2.084   9.888  2.2191 -0.1552 -3.1828
 1024MOL0     H41246  10.160   1.999   9.932 -1.6391 -0.8136 -1.2099
 1024MOL0     H41247  10.185   2.220  10.010 -1.5321  2.3116 -1.5032
 1024MOL0     H41248  10.032   2.233  10.097  0.1321 -0.9757  0.7204
 1024MOL0     H41249  10.085   2.076  10.268  0.2234 -1.8400 -1.9913
 1024MOL0     H41250  10.222   2.012  10.169 -0.4185 -2.0565  1.9059
 1024MOL0     H41251  10.224   2.302  10.248 -2.4510 -1.0594 -0.8359
 1024MOL0     H41252  10.273   2.189  10.375  1.3001  1.0664  0.2258
 1024MOL0     H41253  10.406   2.257  10.114  0.0721  1.6314  1.6064
 1024MOL0     H41254  10.449   2.093  10.165 -0.0561  0.3832 -0.8239
 1024MOL0     H41255  10.548   2.172  10.353  0.0734  0.3476  0.2905
 1024MOL0     H41256  10.603   2.258  10.208 -1.1871 -1.1429 -0.5243
 1024MOL0     H41257  10.424   2.369  10.422  0.8260 -0.9544  0.3678
 1024MOL0     H41258  10.462   2.449  10.267  2.8295  0.5374 -0.1524
 1024MOL0     H41259  10.628   2.442  10.507 -1.8051 -0.7327 -0.0650
 1024MOL0     H41260  10.714   2.347  10.400 -0.2476 -0.7186  0.2918
 1024MOL0     H41261  10.650   2.720  10.469  0.6032 -0.8089 -0.3865
 1024MOL0     H41262  10.715   2.916  10.155 -3.0378 -0.1091  0.9468
 1024MOL0     H41263  10.846   2.928  10.283 -0.1567  1.2719 -0.5183
 1024MOL0     H41264  10.542   2.935  10.314 -0.2666 -0.1627  1.1542
 1024MOL0     H41265  10.658   2.947  10.447 -0.0589 -0.2636  0.0380
 1024MOL0     H41266  10.743   3.166  10.371 -2.3896  1.7753  1.2629
 1024MOL0     H41267  10.679   3.130  10.203 -4.0722 -0.5613 -0.7418
 1024MOL0     H41268  10.578   3.323  10.332  0.7339 -1.0487  0.7784
 1024MOL0     H41269  10.453   3.210  10.279  1.5588  2.3574 -2.1687
 1024MOL0     H41270  10.388   3.145  10.699 -2.1961 -1.5825 -2.3361
 1024MOL0     H41271  10.262   3.334  10.948 -1.2479  1.1104 -0.7664
 1024MOL0     H41272  10.285   3.171  10.899  1.8776  0.6423  2.1939
 1024MOL0     H41273  10.130   3.218  10.874  1.3359 -1.7207  1.6727
 1024MOL0     H41274  10.070   3.594  11.110 -0.2456  1.3945  2.0771
 1024MOL0     H41275   9.931   3.748  11.233 -0.3033  0.8442  0.0517
 1024MOL0     H41276   9.682   3.836  11.332  1.8824 -1.1058  0.2206
 1024MOL0     H41277   9.829   3.939  11.286 -1.0006 -0.5909  3.2882
 1024MOL0     H41278   9.721   4.123  11.246  0.0527 -0.6403  0.0557
 1024MOL0     H41279   9.554   4.048  11.218 -0.8279  0.7765  0.9002
 1024MOL0     H41280   9.701   4.134  11.465 -0.8025 -0.6849 -0.0692
 1024MOL0     H41281   9.568   4.020  11.489 -0.9238  3.0546  3.9710
 1024MOL0     H41282   9.501   4.225  11.542 -4.0093 -2.8784 -0.8052
 1024MOL0     H41283   9.421   4.198  11.388 -0.0852  1.6829 -0.3382
 1024MOL0     H41284   9.571   4.344  11.268 -0.1437  0.9339  0.3125
 1024MOL0     H41285   9.471   4.406  11.389 -0.8436 -1.4012 -2.3804
 1024MOL0     H41286   9.700   4.516  11.399  0.6765  2.2514  6.5333
 1024MOL0     H41287   9.781   4.360  11.408 -0.5304 -0.7695 -0.9103
 1024MOL0     H41288   9.684   4.335  11.655  1.1517  1.8602  1.9364
 1024MOL0     H41289   9.573   4.449  11.623 -0.0859  1.1193 -1.2006
 1024MOL0     H41290   9.731   4.630  11.592  0.2490  0.7332  0.5442
 1024MOL0     H41291   9.870   4.532  11.642 -0.4221 -1.6979 -1.0026
 1024MOL0     H41292   9.715   3.824  10.865  1.8228  1.4430 -0.6213
 1024MOL0     H41293   9.843   3.666  10.746 -0.2228  0.5785  0.0191
 1024MOL0     H41294  10.246   3.570  10.504  0.9304  0.8773  1.5694
 1024MOL0     H41295  10.400   3.423  10.375  1.0392 -0.4061 -0.4060
 1024MOL0     H41296   9.898   1.768  10.201 -1.4753  2.5126 -0.2974
 1024MOL0     H41297   9.843   1.542  10.154  3.0807 -4.4169  0.8161
 1024MOL0     H41298   9.879   1.186  10.072 -1.0405 -1.9296  1.3428
 1024MOL0     H41299   9.897   0.941  10.089 -0.6151 -2.7412 -0.4919
 1024MOL0     H41300   9.955   0.727  10.069  0.9009 -0.3125  0.6678
 1024MOL0     H41301   9.783   0.712  10.034 -0.5595  0.1994 -3.5888
 1024MOL0     H41302   9.930   0.495  10.065 -2.6466 -1.6613  0.3352
 1024MOL0     H41303   9.969   0.514   9.896 -1.7781  0.6206 -1.7355
 1024MOL0     H41304   9.681   0.511  10.032  0.5877 -0.9246  0.6706
 1024MOL0     H41305   9.704   0.494   9.855 -0.3830 -1.5233 -0.6512
 1024MOL0     H41306   9.653   0.282   9.959 -0.9621 -0.0041  0.7910
 1024MOL0     H41307   9.777   0.302  10.080 -0.2241  1.5542 -0.5669
 1024MOL0     H41308   9.995   0.165   9.747  1.7727  1.0017  0.7097
 1024MOL0     H41309   9.931   0.896   9.674  1.3670  0.4860 -0.0339
 1024MOL0     H41310  10.051   1.187   9.589 -0.9772  2.0764  0.0200
 1024MOL0     H41311   9.950   1.047   9.538 -1.4562 -0.6152  0.3863
 1024MOL0     H41312   9.876   1.205   9.577  1.0282  1.0856 -0.0453
  11.50776  11.50776  11.50776
